FOO
141312
    1MOL0     O    1   0.917   5.184   5.512  0.2623  0.6693 -0.1453
    1MOL0     C    2   0.902   5.060   5.515 -0.3234  0.9243  0.0232
    1MOL0     O    3   0.999   4.968   5.560 -0.2029 -0.4240 -0.0854
    1MOL0     C    4   1.111   5.018   5.626 -0.1630 -0.1741  0.3761
    1MOL0     C    5   1.116   5.000   5.767 -0.2997 -0.0221  0.2257
    1MOL0     C    6   1.238   5.028   5.841  0.0073  0.0690  0.2806
    1MOL0     C    7   1.355   5.053   5.756  0.0757 -0.0788 -0.2512
    1MOL0     O    8   1.486   5.071   5.801  0.3462 -0.1088  0.2901
    1MOL0     C    9   1.514   5.078   5.942 -0.6146  0.2118 -0.5757
    1MOL0     C   10   1.659   5.101   5.976 -0.8893  0.2685  0.2219
    1MOL0     C   11   1.715   5.234   5.917  0.0091  0.5135  0.7256
    1MOL0     C   12   1.875   5.227   5.911 -0.4134  0.0764  0.1361
    1MOL0     C   13   1.936   5.354   5.846  0.1240  0.1028  0.2638
    1MOL0     C   14   2.083   5.328   5.827 -0.9988  0.1391  0.3030
    1MOL0     C   15   2.162   5.458   5.775 -0.3539  0.0941 -0.6341
    1MOL0     C   16   2.313   5.443   5.798  0.3532  0.6408  0.2214
    1MOL0     N   17   2.380   5.568   5.832 -0.3716 -0.0833  0.0455
    1MOL0     C   18   2.358   5.651   5.946  0.8363  0.7480  0.6546
    1MOL0     C   19   2.458   5.744   5.933 -0.2256  0.5583  0.0033
    1MOL0     C   20   2.495   5.857   6.033 -0.0288 -0.4087  0.1560
    1MOL0     C   21   2.637   5.845   6.094 -0.5775 -0.0087 -0.0964
    1MOL0     C   22   2.620   5.758   6.216 -0.2179  0.4285 -0.5988
    1MOL0     C   23   2.761   5.702   6.247  0.4517 -0.2987  0.7254
    1MOL0     O   24   2.841   5.805   6.282  0.1439 -0.0605  0.9269
    1MOL0     C   25   2.969   5.775   6.324  0.5030 -0.5204  0.8765
    1MOL0     C   26   3.052   5.883   6.325 -0.5670  0.3233 -0.6366
    1MOL0     C   27   3.187   5.860   6.340 -0.2821  0.5146  0.0804
    1MOL0     C   28   3.275   5.979   6.314  0.1868 -0.7916 -0.2349
    1MOL0     C   29   3.243   5.736   6.375  0.3010  0.5364 -0.8167
    1MOL0     C   30   3.389   5.706   6.411 -0.1986 -0.2304  0.2960
    1MOL0     O   31   3.480   5.807   6.408  0.9019  0.0218 -0.1681
    1MOL0     C   32   3.599   5.766   6.463 -0.0727 -0.3553  0.5388
    1MOL0     C   33   3.712   5.762   6.376  0.5544 -0.2215 -0.0228
    1MOL0     C   34   3.843   5.734   6.429  1.2980  0.0762  0.3196
    1MOL0     C   35   3.859   5.733   6.571 -0.0265 -0.1284 -0.8470
    1MOL0     O   36   3.989   5.707   6.622  0.6044 -0.1245 -0.0751
    1MOL0     C   37   4.034   5.807   6.712 -0.7776  0.4192 -0.0169
    1MOL0     C   38   4.164   5.745   6.777  0.6669 -0.9576  0.5282
    1MOL0     C   39   4.255   5.852   6.832 -1.0651 -0.8784 -0.9118
    1MOL0     C   40   4.397   5.798   6.867 -0.1865 -0.7516  0.7179
    1MOL0     C   41   4.499   5.919   6.893 -0.8047  0.3021  0.5973
    1MOL0     C   42   4.638   5.873   6.904  0.2189 -0.5651  0.4229
    1MOL0     C   43   4.738   5.986   6.945  0.1950  1.4105 -0.1478
    1MOL0     C   44   4.886   5.952   6.954 -0.1700 -0.3749  0.5756
    1MOL0    Cl   45   4.973   6.084   7.040  0.1940 -0.2287 -0.1538
    1MOL0     C   46   3.741   5.741   6.652  0.0294  1.0381  0.1932
    1MOL0     C   47   3.614   5.757   6.596 -0.6193 -0.4115 -0.5338
    1MOL0     O   48   3.412   5.586   6.435 -0.4509 -0.6842 -0.0643
    1MOL0     C   49   3.151   5.632   6.381  0.1196 -0.4612  0.3305
    1MOL0     C   50   3.017   5.651   6.353  0.7278 -0.1169 -0.9847
    1MOL0     N   51   2.526   5.731   5.813  0.4937  0.4756 -0.6948
    1MOL0     N   52   2.477   5.622   5.753  0.0288 -0.3280  0.1651
    1MOL0     C   53   1.346   5.074   5.614  0.3218  0.4111  0.2041
    1MOL0     C   54   1.222   5.057   5.550 -0.0174  0.2584 -0.1334
    1MOL0     C   55   0.769   4.998   5.469 -0.0183  0.3935  0.2070
    1MOL0     C   56   0.743   4.869   5.521  0.6099  0.0263  1.1357
    1MOL0     C   57   0.632   4.799   5.484  0.4222 -0.1851 -0.4167
    1MOL0     C   58   0.539   4.861   5.407  0.1613 -0.7175 -0.6316
    1MOL0     O   59   0.432   4.785   5.380  0.0564 -0.2563 -0.4601
    1MOL0     C   60   0.350   4.806   5.257  0.1923  0.3763 -0.2633
    1MOL0     C   61   0.246   4.699   5.254 -0.2548 -0.0319  0.2009
    1MOL0     C   62   0.131   4.727   5.151 -0.5248  0.8801 -0.1562
    1MOL0     C   63   0.031   4.605   5.155 -0.2456 -0.4924 -0.1197
    1MOL0     C   64  -0.072   4.603   5.041  0.8774  0.6395  0.1698
    1MOL0     C   65  -0.150   4.611   4.948  0.2992  0.4739 -0.0556
    1MOL0     C   66   0.567   4.986   5.348  0.2459  0.3017 -0.9852
    1MOL0     C   67   0.681   5.059   5.381 -1.2770  0.9071  0.1613
    1MOL0     C   68   0.714   5.183   5.296  0.2686 -0.7869 -0.1262
    1MOL0     H   69   1.036   4.940   5.809 -0.7141 -0.5340 -1.2426
    1MOL0     H   70   1.243   5.009   5.948  2.1919 -0.2781  0.1514
    1MOL0     H   71   1.492   4.982   5.991 -1.8925  1.4406  1.4021
    1MOL0     H   72   1.453   5.151   5.995 -0.5183 -0.4239  0.4423
    1MOL0     H   73   1.674   5.117   6.083  1.2406 -0.0383  0.0176
    1MOL0     H   74   1.707   5.009   5.944 -0.4860  0.1765  1.0598
    1MOL0     H   75   1.677   5.245   5.815  0.8697 -0.9660  0.2177
    1MOL0     H   76   1.693   5.323   5.977 -0.0639  1.1147 -0.1684
    1MOL0     H   77   1.906   5.226   6.016 -4.1251 -1.1230  1.3788
    1MOL0     H   78   1.911   5.133   5.869  1.5564  0.2184  1.3966
    1MOL0     H   79   1.911   5.439   5.911 -6.1737 -1.7830  1.0312
    1MOL0     H   80   1.901   5.391   5.749  1.6605 -0.3337 -0.4784
    1MOL0     H   81   2.126   5.299   5.923 -2.5385  3.0223  2.0136
    1MOL0     H   82   2.097   5.245   5.758  0.5893  0.1697  0.5371
    1MOL0     H   83   2.133   5.538   5.844  0.8663  0.8874 -1.0082
    1MOL0     H   84   2.138   5.492   5.674 -1.8167  1.1600  0.0274
    1MOL0     H   85   2.348   5.372   5.873 -0.7368 -0.6659 -0.4554
    1MOL0     H   86   2.345   5.411   5.699 -4.0285  1.2932 -1.6492
    1MOL0     H   87   2.279   5.633   6.018 -0.9497 -0.1733 -1.4084
    1MOL0     H   88   2.422   5.869   6.113 -0.6207 -3.1782  0.1332
    1MOL0     H   89   2.498   5.949   5.973 -0.7288 -0.8638 -0.5897
    1MOL0     H   90   2.714   5.810   6.024  0.0108  0.9264  0.0604
    1MOL0     H   91   2.664   5.946   6.127 -0.6541 -0.1324  0.3544
    1MOL0     H   92   2.579   5.815   6.300  0.9830 -0.2551  0.4783
    1MOL0     H   93   2.551   5.674   6.204  0.9986 -0.5457 -0.8809
    1MOL0     H   94   2.762   5.624   6.323  1.2091  1.3911  2.5531
    1MOL0     H   95   2.801   5.642   6.164 -3.6350  1.0031 -2.5755
    1MOL0     H   96   3.016   5.981   6.294  1.1933  1.4576  0.6764
    1MOL0     H   97   3.347   5.950   6.237  0.6444  0.4369 -0.3080
    1MOL0     H   98   3.337   6.011   6.399  1.4038  1.3539 -1.8127
    1MOL0     H   99   3.216   6.069   6.292  1.0977 -0.0768  0.1462
    1MOL0     H  100   3.696   5.767   6.268 -1.0359 -1.6160  0.1133
    1MOL0     H  101   3.930   5.703   6.372  2.0839 -1.3833  2.1705
    1MOL0     H  102   4.052   5.900   6.656 -1.0843 -1.4460 -3.5339
    1MOL0     H  103   3.957   5.826   6.787 -1.5363 -1.6960 -0.1961
    1MOL0     H  104   4.145   5.672   6.856  0.3267 -0.2955  1.0697
    1MOL0     H  105   4.218   5.701   6.693  2.6677  2.0573  0.0874
    1MOL0     H  106   4.213   5.893   6.924  0.6449 -0.3734 -0.3108
    1MOL0     H  107   4.275   5.942   6.774 -1.5874  0.5804  1.0857
    1MOL0     H  108   4.441   5.741   6.785 -2.4039 -1.0827 -0.2961
    1MOL0     H  109   4.400   5.736   6.957 -1.2114  3.2206  3.7705
    1MOL0     H  110   4.488   5.985   6.807 -2.6210 -1.2847 -0.4735
    1MOL0     H  111   4.467   5.984   6.975  1.5215  0.0762  1.7597
    1MOL0     H  112   4.654   5.825   6.807 -2.4936 -1.2786  0.2512
    1MOL0     H  113   4.644   5.794   6.980  1.4202  0.2690  1.2287
    1MOL0     H  114   4.709   6.005   7.049 -1.4096 -2.8209  0.4093
    1MOL0     H  115   4.718   6.079   6.890 -0.7766  0.5085 -1.4001
    1MOL0     H  116   4.922   5.936   6.852 -1.7767 -0.8671  0.0615
    1MOL0     H  117   4.894   5.862   7.016  0.1374 -0.1446  0.8761
    1MOL0     H  118   3.756   5.737   6.759 -1.6809 -0.7908  0.4384
    1MOL0     H  119   3.527   5.765   6.662 -0.4551  1.2811 -0.4754
    1MOL0     H  120   3.193   5.535   6.408 -0.0933 -0.6978 -0.1681
    1MOL0     H  121   2.952   5.565   6.354 -1.9336  1.7955 -0.0550
    1MOL0     H  122   1.433   5.086   5.551 -0.5599  1.5854 -0.8343
    1MOL0     H  123   1.199   5.062   5.444  2.4899 -2.4595 -0.9618
    1MOL0     H  124   0.815   4.819   5.585  0.0129 -1.9291  0.3595
    1MOL0     H  125   0.610   4.699   5.520  2.2541 -0.8169 -0.9473
    1MOL0     H  126   0.302   4.904   5.257 -2.0300 -0.5986  2.1980
    1MOL0     H  127   0.413   4.794   5.169 -0.1243 -1.1205 -0.3224
    1MOL0     H  128   0.195   4.699   5.351  2.1869  0.2988  1.5724
    1MOL0     H  129   0.291   4.601   5.239 -0.4537 -0.0869 -0.0460
    1MOL0     H  130   0.085   4.822   5.177  0.2479  1.2334 -0.0680
    1MOL0     H  131   0.170   4.723   5.048 -0.0737  1.8205 -0.0237
    1MOL0     H  132  -0.034   4.612   5.242 -0.8803 -0.8678 -0.5602
    1MOL0     H  133   0.080   4.508   5.171  1.4096  0.3645  0.2984
    1MOL0     H  134  -0.225   4.620   4.872  1.1622 -2.3490 -1.3969
    1MOL0     H  135   0.494   5.023   5.276  2.1096  2.3452 -1.9419
    1MOL0     H  136   0.655   5.189   5.205  0.6290 -1.0586 -0.3802
    1MOL0     H  137   0.695   5.274   5.354  1.2521  0.2785 -1.3927
    1MOL0     H  138   0.816   5.181   5.256 -0.1546  0.8410 -1.3953
    2MOL0     O  139   0.994   5.595   0.461  1.2894  0.3764 -0.0963
    2MOL0     C  140   0.873   5.630   0.454 -0.3020  0.3466  0.3780
    2MOL0     O  141   0.821   5.748   0.498  0.0343  0.4389 -0.4866
    2MOL0     C  142   0.913   5.842   0.528  0.4374  0.4294  0.8491
    2MOL0     C  143   0.920   5.874   0.660  0.0553 -0.0551 -0.3224
    2MOL0     C  144   1.013   5.966   0.699 -0.3756  0.1266  0.3398
    2MOL0     C  145   1.094   6.037   0.606 -0.3141  0.5308 -0.2847
    2MOL0     O  146   1.181   6.139   0.649  0.2350 -0.2968  0.4800
    2MOL0     C  147   1.170   6.180   0.791 -0.4823 -0.1200  1.2061
    2MOL0     C  148   1.278   6.287   0.826  0.3901 -0.6241  0.0892
    2MOL0     C  149   1.260   6.317   0.974  0.1265  0.6296  0.1590
    2MOL0     C  150   1.356   6.430   1.007 -0.1543  0.2439 -0.4808
    2MOL0     C  151   1.486   6.379   1.074 -0.0096 -0.6452 -0.5636
    2MOL0     C  152   1.576   6.489   1.142  0.6115 -0.7421  0.3979
    2MOL0     C  153   1.716   6.429   1.174 -0.2763  0.8008 -0.1924
    2MOL0     C  154   1.791   6.525   1.261  0.3757  0.1020  0.3332
    2MOL0     N  155   1.934   6.502   1.264 -0.3530 -0.4317  0.2391
    2MOL0     C  156   2.026   6.514   1.367  0.0204  0.7632  0.1353
    2MOL0     C  157   2.140   6.464   1.317  0.1824 -0.4483  0.2638
    2MOL0     C  158   2.281   6.453   1.385  0.6320  0.3264 -0.3143
    2MOL0     C  159   2.390   6.543   1.322 -0.9616 -0.1300 -0.0993
    2MOL0     C  160   2.372   6.696   1.307 -0.9077 -0.1619 -0.6765
    2MOL0     C  161   2.505   6.767   1.290  0.7256  0.8539  0.2131
    2MOL0     O  162   2.480   6.897   1.295 -0.2127  0.2008 -0.1396
    2MOL0     C  163   2.583   6.989   1.290 -0.6144  1.4323 -0.3307
    2MOL0     C  164   2.560   7.118   1.338 -0.1336  0.5988 -0.5640
    2MOL0     C  165   2.649   7.225   1.324 -0.7940 -0.4998  0.0056
    2MOL0     C  166   2.604   7.366   1.370  0.0466  0.3957 -0.5154
    2MOL0     C  167   2.774   7.193   1.268 -0.1035 -0.0025 -0.1539
    2MOL0     C  168   2.871   7.302   1.236 -0.3920  0.3318  0.2116
    2MOL0     O  169   2.822   7.412   1.178  0.7716  0.2721  1.0301
    2MOL0     C  170   2.890   7.534   1.198 -0.5905 -0.1276  0.5893
    2MOL0     C  171   2.928   7.587   1.324  0.2907  0.3734  0.3064
    2MOL0     C  172   3.012   7.701   1.340 -0.5783 -0.8110  0.5649
    2MOL0     C  173   3.054   7.769   1.223 -1.0802  0.7256  0.0779
    2MOL0     O  174   3.131   7.881   1.236 -0.1134 -0.3164 -0.1211
    2MOL0     C  175   3.209   7.922   1.125 -0.5247 -0.1967 -0.2461
    2MOL0     C  176   3.338   7.984   1.180  0.4487 -0.6107 -0.3822
    2MOL0     C  177   3.416   8.035   1.059 -0.5330  0.0966  0.4611
    2MOL0     C  178   3.538   8.121   1.094  0.5604  0.0673  0.2278
    2MOL0     C  179   3.473   8.265   1.102 -0.2014 -0.1353  0.0318
    2MOL0     C  180   3.580   8.357   1.150  0.1294  0.4119  0.3305
    2MOL0     C  181   3.532   8.502   1.164 -0.7052  0.1696  1.1832
    2MOL0     C  182   3.636   8.595   1.222 -0.1324  0.7719 -0.0766
    2MOL0    Cl  183   3.724   8.519   1.359  0.3424  0.2284  0.0303
    2MOL0     C  184   3.009   7.731   1.096 -0.6262  1.4701  0.1645
    2MOL0     C  185   2.934   7.607   1.093  0.4520  0.6753  0.1084
    2MOL0     O  186   2.983   7.280   1.276  0.2264  0.0946  0.6916
    2MOL0     C  187   2.801   7.063   1.226  0.0718  0.3637  0.3348
    2MOL0     C  188   2.703   6.961   1.232 -0.6067  0.6223  0.3348
    2MOL0     N  189   2.122   6.421   1.185  0.2374 -0.5986 -0.3946
    2MOL0     N  190   2.003   6.451   1.156 -0.0285 -0.3704  0.0445
    2MOL0     C  191   1.092   6.003   0.471  0.1455 -0.1293 -0.0994
    2MOL0     C  192   0.988   5.911   0.430  0.2675 -0.4116  0.2109
    2MOL0     C  193   0.770   5.525   0.402  0.1069 -1.0032 -0.2887
    2MOL0     C  194   0.632   5.557   0.422  0.3553  1.2049 -0.1573
    2MOL0     C  195   0.540   5.460   0.402  0.5081  1.2364 -0.0640
    2MOL0     C  196   0.579   5.334   0.358 -0.0820 -0.5219 -0.1364
    2MOL0     O  197   0.485   5.229   0.349  0.1921 -0.4052 -0.1542
    2MOL0     C  198   0.360   5.262   0.287  0.2947  0.0741  0.1448
    2MOL0     C  199   0.315   5.137   0.206 -0.2060  0.2219  0.3515
    2MOL0     C  200   0.198   5.170   0.121 -0.2476  0.6947 -0.0340
    2MOL0     C  201   0.063   5.163   0.192  0.4627  1.1123 -0.0261
    2MOL0     C  202  -0.058   5.188   0.117 -0.1918 -0.3209  0.5870
    2MOL0     C  203  -0.153   5.164   0.046  0.0339 -0.4638 -0.0679
    2MOL0     C  204   0.710   5.297   0.339  0.6740 -0.2874  0.5392
    2MOL0     C  205   0.809   5.393   0.368  0.5895 -0.3912  0.0875
    2MOL0     C  206   0.952   5.350   0.328  0.1536  0.2479 -0.9354
    2MOL0     H  207   0.860   5.819   0.731  0.2927  0.7716  0.5335
    2MOL0     H  208   1.022   5.973   0.807  0.3476 -0.3321  0.3168
    2MOL0     H  209   1.184   6.102   0.866  1.6195  0.0083  1.0099
    2MOL0     H  210   1.071   6.226   0.801 -0.2778  1.1648 -1.7024
    2MOL0     H  211   1.379   6.250   0.810  1.0460  0.3520  1.7794
    2MOL0     H  212   1.265   6.380   0.769 -0.4768 -0.0123  1.2240
    2MOL0     H  213   1.157   6.353   0.988  0.3879  1.1978  0.6676
    2MOL0     H  214   1.272   6.224   1.030 -1.5840 -0.3510 -0.9826
    2MOL0     H  215   1.387   6.494   0.924 -0.2670  1.0936  0.1216
    2MOL0     H  216   1.313   6.492   1.087 -0.6537 -1.0522  0.2967
    2MOL0     H  217   1.541   6.322   0.998  0.3279 -0.6307 -0.3337
    2MOL0     H  218   1.455   6.311   1.153 -0.8449  1.1013  0.6837
    2MOL0     H  219   1.607   6.570   1.076 -1.8529  1.3257  1.5968
    2MOL0     H  220   1.520   6.530   1.227 -0.3145 -0.4109 -0.3490
    2MOL0     H  221   1.771   6.409   1.082  0.4530 -4.1852  1.0209
    2MOL0     H  222   1.701   6.335   1.228  1.0303 -1.2974 -3.1973
    2MOL0     H  223   1.777   6.629   1.228 -1.0631 -0.3869 -0.7026
    2MOL0     H  224   1.751   6.524   1.363  0.5455 -0.0801  0.3988
    2MOL0     H  225   2.021   6.543   1.472  1.4331 -1.9142  1.0255
    2MOL0     H  226   2.317   6.354   1.355  0.5946  0.7386 -1.8201
    2MOL0     H  227   2.267   6.476   1.491 -2.9292 -1.4146 -0.2516
    2MOL0     H  228   2.469   6.532   1.396 -1.2405 -0.7167  0.1222
    2MOL0     H  229   2.416   6.495   1.227 -0.8466 -0.5583  0.1438
    2MOL0     H  230   2.303   6.719   1.226 -2.4657  2.7082  1.2764
    2MOL0     H  231   2.330   6.726   1.404 -0.9163 -1.1107 -0.3747
    2MOL0     H  232   2.562   6.744   1.380 -1.6747 -3.0055  0.9736
    2MOL0     H  233   2.560   6.725   1.204 -1.3814 -0.6305 -0.5034
    2MOL0     H  234   2.460   7.131   1.377 -0.5443 -0.1806 -1.3206
    2MOL0     H  235   2.656   7.403   1.459 -2.8747 -0.1904  1.5717
    2MOL0     H  236   2.496   7.368   1.389  0.3258  2.4145  1.1079
    2MOL0     H  237   2.623   7.446   1.298 -1.2953  0.1129 -1.2161
    2MOL0     H  238   2.903   7.525   1.409  3.2670 -1.5832 -0.0996
    2MOL0     H  239   3.058   7.725   1.436  0.9771  3.1948 -0.9696
    2MOL0     H  240   3.230   7.838   1.059  0.1933 -1.0922  1.0595
    2MOL0     H  241   3.141   7.994   1.078  0.0027  0.6577  0.2599
    2MOL0     H  242   3.313   8.069   1.245 -1.0216 -0.7755 -0.7054
    2MOL0     H  243   3.403   7.918   1.238  0.8813  0.5590  0.5284
    2MOL0     H  244   3.351   8.085   0.988  1.1555  2.4909  0.4809
    2MOL0     H  245   3.450   7.942   1.014 -1.1727  0.5150 -0.9256
    2MOL0     H  246   3.615   8.126   1.017  1.3297 -1.3433  0.8588
    2MOL0     H  247   3.586   8.102   1.191  2.2448 -0.0926 -0.5986
    2MOL0     H  248   3.428   8.307   1.012  1.3011  1.8959  0.1349
    2MOL0     H  249   3.389   8.262   1.171 -0.5482 -3.2762 -0.3829
    2MOL0     H  250   3.663   8.344   1.080 -0.1458 -0.6881  0.1862
    2MOL0     H  251   3.609   8.321   1.250  1.9215  0.5423 -0.1106
    2MOL0     H  252   3.459   8.506   1.245 -2.9825  4.0433 -0.8081
    2MOL0     H  253   3.488   8.540   1.072  0.5017 -0.5554  0.2833
    2MOL0     H  254   3.590   8.682   1.269 -2.0716  1.3861 -2.8813
    2MOL0     H  255   3.714   8.623   1.150 -0.5858  0.1031 -0.8425
    2MOL0     H  256   3.028   7.778   1.000 -1.4911 -2.6866 -2.2798
    2MOL0     H  257   2.902   7.570   0.996  0.5737  0.0570  0.3020
    2MOL0     H  258   2.895   7.031   1.183  0.2803 -0.4851  1.3812
    2MOL0     H  259   2.729   6.863   1.194 -1.4150 -1.1648  4.0286
    2MOL0     H  260   1.168   6.030   0.398  1.0133 -1.5936  0.2189
    2MOL0     H  261   0.975   5.891   0.324  1.4085  0.6308 -0.1481
    2MOL0     H  262   0.598   5.649   0.469 -0.8743 -0.0205  1.4824
    2MOL0     H  263   0.439   5.500   0.404  1.7959  4.9940 -1.5622
    2MOL0     H  264   0.284   5.288   0.362 -0.9162 -2.2254 -0.1921
    2MOL0     H  265   0.361   5.349   0.221 -0.6768  0.7056  0.9192
    2MOL0     H  266   0.289   5.057   0.277  1.3912  0.0573  0.7904
    2MOL0     H  267   0.404   5.108   0.149 -0.2555  2.7703 -1.1350
    2MOL0     H  268   0.213   5.275   0.094 -0.4918  1.0895  1.3227
    2MOL0     H  269   0.191   5.108   0.031  1.1173  2.0191 -1.1115
    2MOL0     H  270   0.061   5.234   0.275  2.5565  1.4125 -0.1569
    2MOL0     H  271   0.051   5.064   0.237  1.5390  0.2883 -1.4202
    2MOL0     H  272  -0.245   5.150  -0.008 -0.9376 -1.4460  1.7268
    2MOL0     H  273   0.725   5.197   0.298  0.7228 -0.0331 -0.0744
    2MOL0     H  274   0.941   5.249   0.287  0.9803  1.3110 -4.0228
    2MOL0     H  275   0.992   5.410   0.247  1.4053 -1.7061 -1.8493
    2MOL0     H  276   1.016   5.349   0.417 -2.2660  0.5827  0.9213
    3MOL0     O  277   1.827   2.511   5.359  0.3431 -0.2796 -0.9017
    3MOL0     C  278   1.756   2.612   5.373 -0.8175  0.5486 -0.4447
    3MOL0     O  279   1.806   2.736   5.392 -0.2588  0.1329 -0.5814
    3MOL0     C  280   1.925   2.767   5.333 -0.1696 -0.0151  0.3998
    3MOL0     C  281   1.989   2.701   5.228 -0.5763 -0.5554  0.1248
    3MOL0     C  282   2.105   2.750   5.169  0.7225  0.6285  0.9440
    3MOL0     C  283   2.153   2.871   5.215 -0.1565  0.5531 -0.2426
    3MOL0     O  284   2.267   2.926   5.154  0.1855  0.6275 -0.2464
    3MOL0     C  285   2.340   3.025   5.232  0.1668 -1.0310  0.1282
    3MOL0     C  286   2.479   3.040   5.161  0.4726 -0.5643  0.2585
    3MOL0     C  287   2.566   3.130   5.250  0.2072 -0.6435  0.1015
    3MOL0     C  288   2.648   3.037   5.350  0.4116 -0.1014  0.2696
    3MOL0     C  289   2.723   3.124   5.456  0.2075  0.3734  0.4115
    3MOL0     C  290   2.835   3.195   5.390  0.9180 -0.2544 -0.5191
    3MOL0     C  291   2.933   3.247   5.496 -0.9044 -0.6780  0.0717
    3MOL0     C  292   3.063   3.317   5.441 -0.1892  0.3618  0.0183
    3MOL0     N  293   3.016   3.444   5.394 -0.7479 -0.4062 -0.0616
    3MOL0     C  294   2.962   3.478   5.273 -0.4828 -0.1835  0.3972
    3MOL0     C  295   2.951   3.613   5.280  0.3694  0.5827 -0.0829
    3MOL0     C  296   2.924   3.698   5.162 -1.0387 -0.6529  0.5401
    3MOL0     C  297   2.831   3.648   5.059 -1.2508 -0.3853  0.3575
    3MOL0     C  298   2.799   3.748   4.941  0.4982  0.2040 -0.3254
    3MOL0     C  299   2.890   3.737   4.822 -0.3216 -0.5542  0.4796
    3MOL0     O  300   3.020   3.779   4.868  0.3068 -0.2326  0.0066
    3MOL0     C  301   3.114   3.721   4.788  0.0732  0.2357 -0.5246
    3MOL0     C  302   3.196   3.632   4.853 -1.1569  0.0597  0.1347
    3MOL0     C  303   3.307   3.581   4.792  0.2611  0.6059  0.1882
    3MOL0     C  304   3.388   3.499   4.886 -0.4939 -0.1008 -0.2852
    3MOL0     C  305   3.346   3.617   4.660 -0.0873  0.0407  0.1902
    3MOL0     C  306   3.470   3.564   4.593  0.2071  1.0458 -0.3796
    3MOL0     O  307   3.514   3.646   4.502  0.0945 -0.7437 -0.3546
    3MOL0     C  308   3.602   3.592   4.415  0.3501  0.7941  0.6352
    3MOL0     C  309   3.740   3.604   4.437 -0.6265 -0.2368 -0.4858
    3MOL0     C  310   3.832   3.547   4.353  0.6878 -0.1948  0.7041
    3MOL0     C  311   3.787   3.482   4.239 -0.9206 -0.1393 -0.2020
    3MOL0     O  312   3.879   3.425   4.158 -0.0847 -0.4046  0.1125
    3MOL0     C  313   3.835   3.310   4.083  0.3991  0.0098 -0.3781
    3MOL0     C  314   3.953   3.228   4.045  0.0979  0.3941  0.2944
    3MOL0     C  315   4.055   3.196   4.158 -0.0659 -0.7553 -0.1521
    3MOL0     C  316   4.153   3.083   4.124  0.5831 -0.2987  0.0299
    3MOL0     C  317   4.253   3.122   4.015 -0.4943 -0.1953 -0.6464
    3MOL0     C  318   4.368   3.204   4.078  0.3553 -0.2261  0.0281
    3MOL0     C  319   4.482   3.242   3.977 -0.1339 -0.0346  0.3561
    3MOL0     C  320   4.629   3.210   4.026  0.0980  0.5103 -0.8242
    3MOL0    Cl  321   4.652   3.029   4.010  0.0530  0.1602  0.1314
    3MOL0     C  322   3.653   3.496   4.197  0.3780 -0.0359 -0.1097
    3MOL0     C  323   3.555   3.557   4.284 -1.1013  1.2627  0.2936
    3MOL0     O  324   3.525   3.459   4.639  0.1656 -0.0699  0.1199
    3MOL0     C  325   3.245   3.692   4.588  0.5638 -0.4983 -0.1142
    3MOL0     C  326   3.131   3.749   4.654 -0.0280  0.2559  0.7437
    3MOL0     N  327   2.981   3.661   5.405 -0.5707  0.0659 -0.9261
    3MOL0     N  328   3.011   3.554   5.476  1.3415 -0.5989  0.0768
    3MOL0     C  329   2.092   2.933   5.327 -0.0119  0.4970  0.1725
    3MOL0     C  330   1.981   2.883   5.386  0.4910 -0.7174 -1.3456
    3MOL0     C  331   1.609   2.606   5.378 -0.4533  0.7483 -0.2916
    3MOL0     C  332   1.548   2.664   5.489 -0.4179  0.8610  0.2138
    3MOL0     C  333   1.412   2.637   5.524 -0.8820  0.9365  0.4120
    3MOL0     C  334   1.326   2.575   5.429 -0.4486 -0.0857 -0.3605
    3MOL0     O  335   1.192   2.551   5.465  0.2719  0.0960  0.0226
    3MOL0     C  336   1.100   2.501   5.360 -1.0601 -0.1756 -0.2184
    3MOL0     C  337   0.963   2.509   5.414 -1.0628  0.2685  0.0124
    3MOL0     C  338   0.890   2.644   5.386  0.2552 -0.2103 -0.0657
    3MOL0     C  339   0.767   2.664   5.476 -0.4088 -0.5774  0.1973
    3MOL0     C  340   0.760   2.813   5.499  0.3175 -0.0667 -0.2861
    3MOL0     C  341   0.753   2.931   5.517 -0.0681 -0.1820  0.5923
    3MOL0     C  342   1.386   2.531   5.310 -1.1203 -0.1250  0.2701
    3MOL0     C  343   1.527   2.545   5.282  0.4805 -0.1272 -0.2427
    3MOL0     C  344   1.581   2.488   5.156  0.0219  0.1881 -0.2370
    3MOL0     H  345   1.962   2.603   5.192 -0.3824 -0.1240 -1.2561
    3MOL0     H  346   2.158   2.694   5.092 -1.0647 -1.4258  1.1181
    3MOL0     H  347   2.357   2.980   5.330 -0.9513 -4.1899 -1.0044
    3MOL0     H  348   2.290   3.122   5.235  3.1877  0.6366  1.0888
    3MOL0     H  349   2.517   2.938   5.170  1.5425 -0.1325  0.8213
    3MOL0     H  350   2.474   3.079   5.059 -0.4115  0.2664  0.5998
    3MOL0     H  351   2.646   3.170   5.187  0.7795 -1.2984  0.4029
    3MOL0     H  352   2.516   3.206   5.309  0.6076 -0.3551  0.0724
    3MOL0     H  353   2.568   2.978   5.395  2.3378 -0.6824  3.1906
    3MOL0     H  354   2.718   2.971   5.299  0.2150 -0.0478 -0.0713
    3MOL0     H  355   2.764   3.060   5.535 -2.4845 -2.0872 -0.0198
    3MOL0     H  356   2.650   3.188   5.507  0.2493  0.5102  0.2992
    3MOL0     H  357   2.887   3.134   5.315 -1.1708 -0.0894 -2.2229
    3MOL0     H  358   2.794   3.284   5.341  0.3123  0.6596  1.5531
    3MOL0     H  359   2.972   3.164   5.556 -0.4338  0.5446  1.5170
    3MOL0     H  360   2.887   3.315   5.569  2.8170 -1.9536  4.0023
    3MOL0     H  361   3.134   3.336   5.522 -0.6316  3.2854 -0.1726
    3MOL0     H  362   3.112   3.260   5.362  0.2629  0.5962  0.1265
    3MOL0     H  363   2.937   3.409   5.194 -2.1272  0.2824  0.4814
    3MOL0     H  364   3.027   3.703   5.125 -1.8030  0.2973 -1.6751
    3MOL0     H  365   2.889   3.798   5.189 -1.9015 -0.4242 -1.2556
    3MOL0     H  366   2.867   3.554   5.016 -1.2011 -0.7249  1.1276
    3MOL0     H  367   2.740   3.614   5.108 -0.3259 -0.4254  2.1285
    3MOL0     H  368   2.706   3.718   4.894  1.3173 -2.6205 -0.3238
    3MOL0     H  369   2.786   3.852   4.974 -0.8914  0.0228 -0.2461
    3MOL0     H  370   2.878   3.634   4.786 -1.1255 -0.0971 -0.6107
    3MOL0     H  371   2.855   3.809   4.748  1.3162  0.9931  1.1230
    3MOL0     H  372   3.168   3.603   4.953 -0.4828  0.9893  0.6080
    3MOL0     H  373   3.376   3.523   4.992 -1.4960  1.0050 -0.6215
    3MOL0     H  374   3.496   3.500   4.869 -0.3832 -1.4256  0.2126
    3MOL0     H  375   3.357   3.394   4.882 -0.8344 -0.0934  1.4741
    3MOL0     H  376   3.754   3.652   4.533  0.2247  1.3184 -1.3450
    3MOL0     H  377   3.939   3.550   4.371  0.9234  1.9024 -0.6817
    3MOL0     H  378   3.775   3.250   4.152  0.0149  1.5355  0.6911
    3MOL0     H  379   3.790   3.335   3.986 -0.1169 -0.4243 -0.2517
    3MOL0     H  380   3.920   3.127   4.019  0.1821  0.2592  0.6962
    3MOL0     H  381   4.011   3.273   3.964 -0.3588 -0.3006 -0.4282
    3MOL0     H  382   4.003   3.167   4.250  0.8309 -0.9229  0.3124
    3MOL0     H  383   4.118   3.284   4.176 -1.7123  0.5267 -0.4836
    3MOL0     H  384   4.105   2.995   4.081  0.4623 -0.9556  1.4562
    3MOL0     H  385   4.209   3.043   4.209 -0.0759  0.0622  0.6548
    3MOL0     H  386   4.291   3.022   3.993  1.5200 -0.4294  3.1173
    3MOL0     H  387   4.197   3.173   3.935 -0.3957 -0.3268 -0.7990
    3MOL0     H  388   4.411   3.153   4.166 -1.3762  3.7209  3.5204
    3MOL0     H  389   4.332   3.299   4.119  2.3520  0.6306 -0.1106
    3MOL0     H  390   4.472   3.351   3.966 -4.1189 -0.3029 -0.0093
    3MOL0     H  391   4.471   3.190   3.881  1.8020 -0.8509  0.5155
    3MOL0     H  392   4.643   3.224   4.134 -1.1840 -1.4286 -0.3494
    3MOL0     H  393   4.702   3.269   3.970 -1.3380  1.9741 -1.2147
    3MOL0     H  394   3.615   3.463   4.101 -0.3280  1.1804 -0.2703
    3MOL0     H  395   3.452   3.547   4.250 -1.7754 -2.8574  2.9645
    3MOL0     H  396   3.274   3.719   4.487  2.0075 -0.0975  0.3779
    3MOL0     H  397   3.068   3.817   4.598 -0.2640 -1.4944 -1.2261
    3MOL0     H  398   2.123   3.032   5.359  0.2400  0.8791 -1.2047
    3MOL0     H  399   1.930   2.933   5.467  1.6798  0.3739 -1.2345
    3MOL0     H  400   1.613   2.721   5.555  0.2142  0.8143 -0.3560
    3MOL0     H  401   1.377   2.662   5.623 -2.6221 -0.1822  0.1251
    3MOL0     H  402   1.099   2.552   5.263  3.6765 -2.5912 -1.8820
    3MOL0     H  403   1.129   2.398   5.336  2.1481  1.0254 -2.2628
    3MOL0     H  404   0.971   2.492   5.522 -1.9124 -3.4551 -0.3724
    3MOL0     H  405   0.901   2.429   5.372  0.9665  0.0841 -2.9133
    3MOL0     H  406   0.959   2.728   5.388  0.4741 -0.3948  0.4270
    3MOL0     H  407   0.857   2.642   5.282  2.3940 -0.7559 -0.7975
    3MOL0     H  408   0.778   2.610   5.570  1.5898  0.1920  0.4623
    3MOL0     H  409   0.680   2.628   5.421 -0.8090  2.7086 -1.5854
    3MOL0     H  410   0.749   3.038   5.526 -1.0567 -0.1829  0.2912
    3MOL0     H  411   1.333   2.487   5.226 -1.8844  3.9812 -1.6234
    3MOL0     H  412   1.501   2.464   5.085  0.1911  2.1391 -1.1664
    3MOL0     H  413   1.648   2.560   5.108 -2.6521  3.5965  0.7162
    3MOL0     H  414   1.633   2.394   5.174 -0.8812 -0.7753 -2.3354
    4MOL0     O  415   6.594   6.358   0.345 -0.4202  0.7681  0.1854
    4MOL0     C  416   6.526   6.379   0.444 -0.1187 -0.0290 -0.3251
    4MOL0     O  417   6.573   6.421   0.560 -0.3165  0.0713 -0.2062
    4MOL0     C  418   6.689   6.495   0.567 -0.2436 -0.6014  0.3418
    4MOL0     C  419   6.739   6.498   0.693  0.3071 -0.3243 -0.4560
    4MOL0     C  420   6.857   6.560   0.726 -0.0150  0.5513  0.4748
    4MOL0     C  421   6.945   6.604   0.620  0.2298 -0.0423 -0.4903
    4MOL0     O  422   7.074   6.647   0.646  0.4105  0.2344 -0.3931
    4MOL0     C  423   7.136   6.608   0.769  0.3320 -0.6086 -0.0810
    4MOL0     C  424   7.215   6.479   0.759 -0.3641 -0.1954 -0.4729
    4MOL0     C  425   7.320   6.473   0.654 -0.5187  1.1824  0.1197
    4MOL0     C  426   7.448   6.555   0.698  0.1033 -0.1071 -0.6675
    4MOL0     C  427   7.568   6.528   0.606 -0.4874 -0.4692 -0.1785
    4MOL0     C  428   7.540   6.560   0.461  0.0339 -0.2858  0.1806
    4MOL0     C  429   7.665   6.547   0.363  0.1690 -0.3541 -0.0857
    4MOL0     C  430   7.674   6.686   0.291 -0.6011 -0.2977 -0.0819
    4MOL0     N  431   7.811   6.727   0.262 -0.9207 -0.0377 -0.2602
    4MOL0     C  432   7.864   6.861   0.251 -0.2475  0.3176  0.3226
    4MOL0     C  433   7.997   6.843   0.238  0.5216  0.8531  1.1546
    4MOL0     C  434   8.099   6.956   0.227  0.1818  0.3984  0.6473
    4MOL0     C  435   8.205   6.934   0.115  0.7390 -0.8365  0.3547
    4MOL0     C  436   8.317   7.037   0.105  0.4954  0.3066 -0.4798
    4MOL0     C  437   8.436   6.994   0.023 -0.0445  0.2637 -0.2325
    4MOL0     O  438   8.406   7.007  -0.112 -0.1854 -0.3966 -0.2329
    4MOL0     C  439   8.508   6.978  -0.202 -0.5448 -0.2547  0.2067
    4MOL0     C  440   8.617   6.885  -0.185 -0.4253  0.5620 -0.8069
    4MOL0     C  441   8.715   6.865  -0.287  0.9859 -0.5569  0.1589
    4MOL0     C  442   8.822   6.762  -0.263 -1.6521  0.2436  0.1440
    4MOL0     C  443   8.704   6.946  -0.398 -0.1376 -0.9696 -0.2730
    4MOL0     C  444   8.802   6.954  -0.500  0.3329 -0.7603  0.0850
    4MOL0     O  445   8.781   7.051  -0.595  0.4582  0.0934  0.0680
    4MOL0     C  446   8.872   7.048  -0.699  0.2555 -0.1026  0.4370
    4MOL0     C  447   9.017   7.058  -0.682 -0.4355 -0.1471  0.1055
    4MOL0     C  448   9.100   7.064  -0.798  0.9511 -1.4123 -0.5949
    4MOL0     C  449   9.052   7.070  -0.926 -0.2673  0.0834  1.2291
    4MOL0     O  450   9.145   7.068  -1.027  0.1221 -0.5274 -0.0856
    4MOL0     C  451   9.096   7.110  -1.160 -0.3367  0.2863 -1.0325
    4MOL0     C  452   9.194   7.118  -1.271 -0.2663 -0.3555  0.2990
    4MOL0     C  453   9.129   7.136  -1.410 -0.0850 -1.2415 -0.2536
    4MOL0     C  454   9.044   7.020  -1.448  0.3138 -0.1175  0.6280
    4MOL0     C  455   8.961   7.045  -1.582 -0.5013 -0.4828  0.4996
    4MOL0     C  456   9.045   7.068  -1.706 -0.0762  0.4634 -0.2776
    4MOL0     C  457   8.957   7.046  -1.830  0.3111  0.4907 -0.1441
    4MOL0     C  458   9.037   7.088  -1.942  0.1377 -0.0211  0.5606
    4MOL0    Cl  459   9.191   7.017  -1.960 -0.0073 -0.2722  0.6418
    4MOL0     C  460   8.909   7.054  -0.944  0.5841 -0.1960 -0.1254
    4MOL0     C  461   8.822   7.045  -0.829  0.3820 -0.9156  0.8239
    4MOL0     O  462   8.898   6.885  -0.490 -0.3816  0.4454  0.2430
    4MOL0     C  463   8.602   7.036  -0.418  0.6071  0.4336 -0.2489
    4MOL0     C  464   8.505   7.061  -0.322 -0.2562 -0.0420 -0.3431
    4MOL0     N  465   8.024   6.703   0.231  1.0337 -0.3306 -0.6965
    4MOL0     N  466   7.910   6.637   0.250  0.8113  0.3836  0.8537
    4MOL0     C  467   6.907   6.589   0.489 -0.2902 -0.3942 -0.4535
    4MOL0     C  468   6.778   6.544   0.465 -0.4592  0.2939 -0.3790
    4MOL0     C  469   6.381   6.357   0.439  0.9877 -0.4770  0.2827
    4MOL0     C  470   6.307   6.410   0.326  0.0070 -0.3746  0.6059
    4MOL0     C  471   6.172   6.387   0.313 -0.1695  0.1171 -0.0883
    4MOL0     C  472   6.110   6.303   0.410 -0.6565  0.7133 -0.3832
    4MOL0     O  473   5.984   6.263   0.391  0.3610  0.1675  0.2372
    4MOL0     C  474   5.889   6.313   0.289 -0.0746 -0.6157  0.2235
    4MOL0     C  475   5.746   6.265   0.321 -0.2811  0.0674 -0.4250
    4MOL0     C  476   5.703   6.307   0.456 -1.1090 -0.5324  0.0647
    4MOL0     C  477   5.569   6.239   0.493  0.5281  0.2648  0.2030
    4MOL0     C  478   5.463   6.292   0.412  0.5151 -0.2015 -0.0119
    4MOL0     C  479   5.370   6.302   0.334  0.0184 -0.7554  0.0390
    4MOL0     C  480   6.183   6.253   0.516  1.2417 -0.2356 -0.1628
    4MOL0     C  481   6.316   6.278   0.533  0.2662  0.0738 -0.8134
    4MOL0     C  482   6.391   6.223   0.651  0.0395  0.1004  0.0059
    4MOL0     H  483   6.685   6.454   0.776 -0.1759 -3.5940 -2.3311
    4MOL0     H  484   6.888   6.573   0.829 -1.3713  4.1305  0.5679
    4MOL0     H  485   7.075   6.613   0.859 -1.0549 -0.6933 -0.9906
    4MOL0     H  486   7.210   6.688   0.780  0.5710 -1.0595  1.8189
    4MOL0     H  487   7.267   6.473   0.855  1.5163  0.4711 -1.4158
    4MOL0     H  488   7.150   6.391   0.751 -2.5667  0.9376  2.6821
    4MOL0     H  489   7.349   6.368   0.639  1.2098  1.9268 -2.1928
    4MOL0     H  490   7.278   6.514   0.562  1.3660  1.2509 -0.7572
    4MOL0     H  491   7.424   6.661   0.701  1.3089  0.2566 -2.6051
    4MOL0     H  492   7.463   6.532   0.804 -1.1090  2.6080  0.1803
    4MOL0     H  493   7.596   6.424   0.624 -4.4328 -1.8380 -1.0020
    4MOL0     H  494   7.650   6.590   0.644 -1.1650  1.0443 -1.0746
    4MOL0     H  495   7.459   6.495   0.425 -2.3352  2.3660  0.3720
    4MOL0     H  496   7.511   6.666   0.463 -1.3164 -0.6210 -0.5292
    4MOL0     H  497   7.647   6.465   0.293 -0.5363 -1.3312  1.1894
    4MOL0     H  498   7.756   6.532   0.422  0.2891  3.4801  1.0018
    4MOL0     H  499   7.623   6.675   0.195  0.2436  3.4546 -1.1342
    4MOL0     H  500   7.630   6.772   0.342 -0.7263 -0.4241  0.0238
    4MOL0     H  501   7.814   6.957   0.256  0.2594  0.7565 -2.0448
    4MOL0     H  502   8.166   6.968   0.312 -0.0298  3.7767  0.4602
    4MOL0     H  503   8.044   7.048   0.205 -1.6901 -1.1371 -1.6103
    4MOL0     H  504   8.250   6.838   0.142  1.6934 -0.2004  1.0675
    4MOL0     H  505   8.156   6.936   0.017  1.4565  1.8256 -0.0201
    4MOL0     H  506   8.284   7.136   0.072  0.4775  1.7206  3.3410
    4MOL0     H  507   8.357   7.047   0.206 -2.3652 -2.3321  1.0750
    4MOL0     H  508   8.512   7.066   0.053  0.5698 -0.2154 -0.6236
    4MOL0     H  509   8.477   6.895   0.044 -0.1654 -0.4089 -2.8016
    4MOL0     H  510   8.619   6.824  -0.095 -0.2042  0.2337 -1.0331
    4MOL0     H  511   8.816   6.676  -0.329  1.5353  0.4579 -0.5657
    4MOL0     H  512   8.839   6.734  -0.158  0.5557  4.3288  1.0842
    4MOL0     H  513   8.917   6.815  -0.275 -0.8944 -1.1908 -0.3966
    4MOL0     H  514   9.058   7.066  -0.582 -0.2455  5.0197 -0.1506
    4MOL0     H  515   9.206   7.082  -0.783  0.6320 -0.0474  0.2305
    4MOL0     H  516   9.032   7.025  -1.189 -2.3527  0.7021  1.7291
    4MOL0     H  517   9.031   7.196  -1.145 -0.4924  0.1501 -0.9201
    4MOL0     H  518   9.256   7.203  -1.241 -0.3409 -1.2275  3.2850
    4MOL0     H  519   9.257   7.029  -1.270 -2.0348 -1.6724 -0.2078
    4MOL0     H  520   9.208   7.149  -1.485 -0.2042 -1.9833 -0.5153
    4MOL0     H  521   9.081   7.234  -1.418  3.3583  0.4346 -2.6981
    4MOL0     H  522   8.978   6.983  -1.369 -0.0070 -3.0133 -0.8229
    4MOL0     H  523   9.109   6.933  -1.465 -0.3690 -0.3852 -0.7635
    4MOL0     H  524   8.905   6.952  -1.597  1.4924 -1.7577  0.5114
    4MOL0     H  525   8.887   7.124  -1.574 -0.8993 -0.9367  1.4486
    4MOL0     H  526   9.134   7.005  -1.713  3.6259  4.9217  1.4421
    4MOL0     H  527   9.082   7.171  -1.711 -1.5101  0.9841 -0.7545
    4MOL0     H  528   8.868   7.109  -1.830 -1.0428 -1.3382  0.4756
    4MOL0     H  529   8.923   6.942  -1.835 -1.2080  0.9933 -0.8880
    4MOL0     H  530   9.067   7.193  -1.933 -1.1017  0.7789 -2.8059
    4MOL0     H  531   8.984   7.073  -2.037  1.0304 -1.7274  0.2784
    4MOL0     H  532   8.867   7.035  -1.042 -0.8293 -0.2133  0.4631
    4MOL0     H  533   8.715   7.062  -0.840  0.8057  3.2531  1.4896
    4MOL0     H  534   8.590   7.101  -0.504 -0.8561  2.6263  1.4860
    4MOL0     H  535   8.427   7.135  -0.338 -0.2316 -0.2271 -1.4254
    4MOL0     H  536   6.970   6.623   0.407 -0.7473 -1.4345 -1.2531
    4MOL0     H  537   6.733   6.556   0.367 -3.4464  0.1363  0.8528
    4MOL0     H  538   6.346   6.480   0.254  0.4575  0.3190  1.5033
    4MOL0     H  539   6.119   6.426   0.228  0.3361 -1.8904 -1.4027
    4MOL0     H  540   5.892   6.422   0.286 -2.1537 -0.5316  0.3384
    4MOL0     H  541   5.906   6.283   0.186 -2.5863  0.6050 -0.6269
    4MOL0     H  542   5.742   6.156   0.310  0.1427 -0.0516  0.5029
    4MOL0     H  543   5.676   6.319   0.256  0.0322 -1.1653 -1.8692
    4MOL0     H  544   5.781   6.272   0.524  0.4479  0.1694 -1.2825
    4MOL0     H  545   5.705   6.415   0.473 -2.3239 -0.7199  1.5284
    4MOL0     H  546   5.544   6.273   0.594  0.9104 -0.0179  0.3948
    4MOL0     H  547   5.580   6.130   0.496  1.7568  0.3835  1.0410
    4MOL0     H  548   5.295   6.301   0.257 -0.8001 -0.7282  0.8116
    4MOL0     H  549   6.130   6.185   0.582 -3.1928  1.1178 -1.8888
    4MOL0     H  550   6.316   6.175   0.714  0.2709  0.2265  0.3828
    4MOL0     H  551   6.470   6.155   0.617  1.5010  2.4941 -1.7368
    4MOL0     H  552   6.436   6.306   0.707 -2.1573  0.3187  1.5816
    5MOL0     O  553  11.161   6.976   9.686 -0.0020  0.4418 -0.5443
    5MOL0     C  554  11.102   7.026   9.587 -1.2324 -0.3890  0.4981
    5MOL0     O  555  11.160   7.066   9.466 -0.3650  0.1953  0.5064
    5MOL0     C  556  11.289   7.050   9.442 -0.1099  0.3930  0.0851
    5MOL0     C  557  11.397   7.029   9.529 -0.2622  0.2659  0.0864
    5MOL0     C  558  11.528   7.007   9.478  0.6429 -0.1454 -0.9536
    5MOL0     C  559  11.558   7.010   9.342 -0.8164 -0.6081 -0.8260
    5MOL0     O  560  11.685   6.986   9.299 -0.2823  0.5092  1.3659
    5MOL0     C  561  11.731   7.019   9.163 -0.8672  0.0696  0.6975
    5MOL0     C  562  11.884   7.004   9.155 -0.1229  0.2150 -0.6359
    5MOL0     C  563  11.966   7.096   9.242  0.4035 -0.7717  0.1864
    5MOL0     C  564  12.115   7.080   9.218  0.2281 -0.1706  0.7022
    5MOL0     C  565  12.215   7.180   9.280  0.6111 -0.0818 -0.0566
    5MOL0     C  566  12.358   7.146   9.257 -0.3270  0.8830 -0.3304
    5MOL0     C  567  12.456   7.263   9.301 -0.0049  0.0992 -1.1378
    5MOL0     C  568  12.600   7.227   9.245  0.4472 -1.3721  0.0515
    5MOL0     N  569  12.706   7.305   9.310  0.4008 -0.3564 -0.1554
    5MOL0     C  570  12.745   7.297   9.439 -0.9174  0.4050 -0.7704
    5MOL0     C  571  12.861   7.362   9.448  0.4582  0.7018 -0.9954
    5MOL0     C  572  12.947   7.358   9.569 -0.5878  0.0744  0.0467
    5MOL0     C  573  13.022   7.231   9.598 -0.2614  0.4467 -0.6762
    5MOL0     C  574  13.156   7.247   9.677  0.2267  0.9533 -0.3336
    5MOL0     C  575  13.128   7.279   9.821 -0.8014 -0.2516 -0.3494
    5MOL0     O  576  13.090   7.156   9.893 -0.3926  0.1254  0.3547
    5MOL0     C  577  13.072   7.163  10.028 -0.6804 -0.1060  1.5949
    5MOL0     C  578  13.031   7.044  10.084  0.2785 -0.7738  0.8750
    5MOL0     C  579  12.996   7.039  10.218  0.2448 -0.1421 -0.8725
    5MOL0     C  580  12.977   6.905  10.283  0.8350 -0.1808  0.3336
    5MOL0     C  581  13.003   7.165  10.296  0.1619  0.4352 -0.5064
    5MOL0     C  582  12.978   7.178  10.439  0.1634  0.3239  0.1853
    5MOL0     O  583  12.932   7.068  10.510 -0.4473  0.9621  0.2185
    5MOL0     C  584  12.927   7.074  10.652 -0.5945  0.1458 -0.7885
    5MOL0     C  585  13.036   7.121  10.731 -0.6881  0.8191 -0.3259
    5MOL0     C  586  13.038   7.113  10.871 -0.2320  0.5519  0.2811
    5MOL0     C  587  12.926   7.054  10.938 -0.8694  0.2109  0.2430
    5MOL0     O  588  12.924   7.043  11.077 -0.4147 -0.4412  0.7829
    5MOL0     C  589  13.035   6.984  11.143 -0.6481 -0.0732 -0.3894
    5MOL0     C  590  12.999   6.962  11.292 -0.2155 -0.8667  0.7243
    5MOL0     C  591  13.130   6.904  11.368  0.1170 -0.5989 -0.3932
    5MOL0     C  592  13.123   6.916  11.523 -0.6353 -0.2057 -1.1104
    5MOL0     C  593  13.014   6.841  11.596  0.0590  0.4052  0.4117
    5MOL0     C  594  13.037   6.691  11.606  0.2166 -0.1814  0.0108
    5MOL0     C  595  12.936   6.613  11.688 -0.8279 -0.3366 -1.3988
    5MOL0     C  596  12.794   6.644  11.668  0.1096  0.5735  0.1626
    5MOL0    Cl  597  12.734   6.571  11.515 -0.0860 -0.1462  0.3066
    5MOL0     C  598  12.818   7.004  10.861 -0.5927 -0.7193 -0.4875
    5MOL0     C  599  12.813   7.022  10.721  0.0101 -0.3251  0.2834
    5MOL0     O  600  13.001   7.285  10.494  0.6498 -0.5666  0.3833
    5MOL0     C  601  13.032   7.287  10.230 -0.5407 -0.4249  1.6225
    5MOL0     C  602  13.075   7.280  10.100 -0.5709  0.6022 -0.0053
    5MOL0     N  603  12.883   7.422   9.332  0.1166 -0.4275  0.4097
    5MOL0     N  604  12.798   7.382   9.245  0.3597  0.1834 -0.7230
    5MOL0     C  605  11.457   7.034   9.262 -0.1820  0.4999  0.5052
    5MOL0     C  606  11.325   7.045   9.305  0.3748  0.5110  0.2123
    5MOL0     C  607  10.952   7.058   9.603  0.0832 -0.1258  0.2279
    5MOL0     C  608  10.873   7.055   9.490 -0.3338 -0.3871  0.1905
    5MOL0     C  609  10.740   7.104   9.498  0.1906  1.2709 -0.6907
    5MOL0     C  610  10.674   7.136   9.615 -0.6498  0.6437 -0.2541
    5MOL0     O  611  10.538   7.165   9.604 -0.3219  0.2546  0.1212
    5MOL0     C  612  10.468   7.183   9.727  0.0009  0.3952  0.6939
    5MOL0     C  613  10.460   7.330   9.776 -0.1434  0.5709 -0.0601
    5MOL0     C  614  10.351   7.406   9.706  0.8381 -1.1513 -0.1688
    5MOL0     C  615  10.220   7.406   9.787  0.6169  0.5787 -0.0659
    5MOL0     C  616  10.109   7.484   9.739  0.3237  0.9313 -0.2775
    5MOL0     C  617  10.005   7.542   9.703  0.4232  0.3443 -0.1533
    5MOL0     C  618  10.753   7.124   9.728 -0.4717 -0.4378 -0.1169
    5MOL0     C  619  10.889   7.088   9.724  0.0042  0.3931 -0.4274
    5MOL0     C  620  10.949   7.044   9.860  0.3693  0.6979  0.6058
    5MOL0     H  621  11.392   7.023   9.638 -0.0008  0.9143  0.1410
    5MOL0     H  622  11.610   6.989   9.548  0.2235 -1.1269 -0.7041
    5MOL0     H  623  11.699   7.117   9.125 -1.2790 -1.0967 -2.3113
    5MOL0     H  624  11.688   6.948   9.091  1.6063 -0.7249 -0.0854
    5MOL0     H  625  11.906   6.897   9.166 -1.1401  0.0970  0.5467
    5MOL0     H  626  11.907   7.031   9.052  1.1885  2.1964  0.1100
    5MOL0     H  627  11.953   7.203   9.227  1.8353 -0.5749  0.2101
    5MOL0     H  628  11.952   7.070   9.347  1.9969  0.4653  0.7599
    5MOL0     H  629  12.149   6.978   9.241 -0.7807 -0.4951  0.7896
    5MOL0     H  630  12.135   7.101   9.113  0.9224 -1.8796  0.4481
    5MOL0     H  631  12.190   7.182   9.387 -2.3152 -1.9951 -0.5914
    5MOL0     H  632  12.200   7.278   9.233  2.6991 -0.3996 -1.5087
    5MOL0     H  633  12.381   7.055   9.315  0.8798  1.1257 -0.4066
    5MOL0     H  634  12.379   7.115   9.154 -0.0840 -0.2915  0.0576
    5MOL0     H  635  12.463   7.273   9.409  0.9302  1.1399 -1.2785
    5MOL0     H  636  12.426   7.359   9.257  2.4759  2.4014  1.7703
    5MOL0     H  637  12.619   7.119   9.255  2.1191 -1.3898 -2.4095
    5MOL0     H  638  12.601   7.246   9.137  0.6501 -4.2185 -0.5469
    5MOL0     H  639  12.704   7.232   9.516 -1.7703  1.5964 -0.1834
    5MOL0     H  640  12.887   7.388   9.656 -2.9087 -0.0968 -1.4011
    5MOL0     H  641  13.019   7.438   9.550 -0.9414  0.2564 -0.5462
    5MOL0     H  642  12.962   7.166   9.662  1.9726 -0.5810  0.4675
    5MOL0     H  643  13.048   7.167   9.513 -0.9265  0.7166 -1.1004
    5MOL0     H  644  13.196   7.147   9.658 -1.9741  0.3416 -2.1738
    5MOL0     H  645  13.230   7.314   9.631 -0.6681  0.7641 -2.1326
    5MOL0     H  646  13.218   7.320   9.868 -1.2013  1.5392 -1.0672
    5MOL0     H  647  13.056   7.359   9.840 -2.2659 -1.6910  0.4188
    5MOL0     H  648  13.008   6.968  10.010  1.2759  0.2313 -0.5445
    5MOL0     H  649  12.876   6.905  10.326  0.5985  1.2662 -0.1794
    5MOL0     H  650  13.052   6.884  10.360  1.6772 -2.0462 -0.9349
    5MOL0     H  651  12.978   6.828  10.205 -3.5673 -2.3035  1.9846
    5MOL0     H  652  13.125   7.156  10.680  1.2528  2.4181  3.6792
    5MOL0     H  653  13.123   7.151  10.926  0.6590 -1.4429  0.3490
    5MOL0     H  654  13.062   6.889  11.096  0.9614  0.1712 -0.0204
    5MOL0     H  655  13.127   7.041  11.155 -0.2287 -1.1471  2.1031
    5MOL0     H  656  12.990   7.066  11.325 -0.3175 -0.3174 -0.9426
    5MOL0     H  657  12.910   6.900  11.308 -3.4452  2.9612 -0.8396
    5MOL0     H  658  13.217   6.960  11.332 -0.5577  1.0348  0.3927
    5MOL0     H  659  13.144   6.797  11.349  2.1863 -0.0984 -2.0788
    5MOL0     H  660  13.102   7.020  11.548  1.4378  0.6575 -2.6399
    5MOL0     H  661  13.218   6.897  11.573 -1.9733 -0.0196  1.6680
    5MOL0     H  662  13.002   6.878  11.698  1.6614 -0.6915  1.0334
    5MOL0     H  663  12.920   6.869  11.546  0.8139  0.4190 -1.0563
    5MOL0     H  664  13.131   6.680  11.662 -0.8392  1.4741  2.2501
    5MOL0     H  665  13.043   6.654  11.503 -0.5147  3.4581 -1.5003
    5MOL0     H  666  12.955   6.643  11.792  1.7220 -0.8648 -1.6390
    5MOL0     H  667  12.953   6.506  11.677 -2.1370 -0.6045 -0.9437
    5MOL0     H  668  12.772   6.751  11.658 -1.7756  0.0883 -1.4160
    5MOL0     H  669  12.730   6.606  11.748 -1.7824  3.0354 -0.0669
    5MOL0     H  670  12.737   6.960  10.919  1.7479 -0.8688  2.9249
    5MOL0     H  671  12.727   6.985  10.666 -0.1134 -0.2695  0.4397
    5MOL0     H  672  13.013   7.382  10.279 -2.2182  0.1049  0.0903
    5MOL0     H  673  13.109   7.370  10.051 -0.1528  0.0955 -0.6605
    5MOL0     H  674  11.475   7.030   9.155  0.4391 -2.8236  0.6298
    5MOL0     H  675  11.245   7.067   9.235  0.3084  0.2718  0.2118
    5MOL0     H  676  10.915   7.043   9.391  1.9329  1.3058  0.8504
    5MOL0     H  677  10.683   7.111   9.406 -2.4067 -3.1631  0.3308
    5MOL0     H  678  10.363   7.157   9.712  0.5900 -0.3528 -2.9255
    5MOL0     H  679  10.511   7.116   9.803  0.9584 -0.1066 -0.2565
    5MOL0     H  680  10.557   7.370   9.746  0.1423  1.1361  1.5527
    5MOL0     H  681  10.449   7.331   9.885  1.1974  3.2335  0.1302
    5MOL0     H  682  10.369   7.513   9.692 -0.2870 -0.6238  1.9429
    5MOL0     H  683  10.332   7.373   9.603 -2.9589 -0.2151  0.0704
    5MOL0     H  684  10.227   7.432   9.893 -0.9452  2.5994 -0.3824
    5MOL0     H  685  10.172   7.308   9.778 -1.6661  1.5768  0.3387
    5MOL0     H  686   9.912   7.584   9.670  0.3223 -2.7564 -4.8660
    5MOL0     H  687  10.715   7.157   9.823  0.6117  0.2134  0.1098
    5MOL0     H  688  11.047   7.092   9.869  0.3638  0.6370  1.0000
    5MOL0     H  689  10.887   7.091   9.937 -0.0597 -2.4388  2.3635
    5MOL0     H  690  10.937   6.936   9.873 -1.2085  0.6386 -0.9814
    6MOL0     O  691   6.615   8.951   3.062  0.1622 -0.3491 -0.0563
    6MOL0     C  692   6.504   8.952   3.014  0.8654 -0.6414 -0.4446
    6MOL0     O  693   6.421   9.068   3.000 -0.2170 -0.1556 -0.4887
    6MOL0     C  694   6.482   9.192   3.017  0.1294 -0.1480 -0.9524
    6MOL0     C  695   6.617   9.224   3.004 -0.7322  0.2133  0.3958
    6MOL0     C  696   6.664   9.354   3.023  0.4567 -0.4152 -0.2405
    6MOL0     C  697   6.569   9.453   3.063  0.3515  0.0158 -0.3045
    6MOL0     O  698   6.602   9.585   3.067 -0.0567 -0.0455  0.0559
    6MOL0     C  699   6.741   9.619   3.072 -0.4315 -0.9872  0.3933
    6MOL0     C  700   6.750   9.773   3.091 -0.8800 -0.2086 -1.0383
    6MOL0     C  701   6.899   9.816   3.091  0.2945  1.0886  0.0963
    6MOL0     C  702   6.928   9.965   3.059  0.3414  0.3313  0.2538
    6MOL0     C  703   7.082  10.000   3.047 -0.1128 -0.7036 -0.1570
    6MOL0     C  704   7.089  10.147   3.060  0.0966  0.4348  0.4122
    6MOL0     C  705   7.231  10.200   3.036  0.8477 -0.1174 -0.2300
    6MOL0     C  706   7.328  10.144   3.143 -0.0043  0.3147  0.9096
    6MOL0     N  707   7.444  10.228   3.164  0.4561 -0.0660 -0.3704
    6MOL0     C  708   7.551  10.237   3.085 -0.6555  0.2056  0.8776
    6MOL0     C  709   7.629  10.326   3.157 -0.4890  0.2045  0.6224
    6MOL0     C  710   7.761  10.382   3.097  0.4537 -0.0289 -0.6583
    6MOL0     C  711   7.820  10.498   3.182  0.3244  0.5278  0.4623
    6MOL0     C  712   7.929  10.566   3.103  0.0076 -1.0731  0.8446
    6MOL0     C  713   8.048  10.590   3.200 -0.1792 -0.4753 -0.2410
    6MOL0     O  714   8.113  10.465   3.229  1.4828 -0.2458  0.0660
    6MOL0     C  715   8.176  10.458   3.351  0.2809  0.1954 -0.1121
    6MOL0     C  716   8.309  10.418   3.349 -0.5353 -0.3401  0.5287
    6MOL0     C  717   8.387  10.399   3.463 -0.9115 -0.4205  0.1795
    6MOL0     C  718   8.530  10.356   3.442  0.0920 -0.4857 -0.4203
    6MOL0     C  719   8.336  10.433   3.590 -0.7094 -0.1184  0.4551
    6MOL0     C  720   8.418  10.416   3.715  0.4844  0.2997 -0.3905
    6MOL0     O  721   8.545  10.458   3.717  0.4979  0.1798  0.3368
    6MOL0     C  722   8.633  10.433   3.811  0.8568 -0.7955  0.4502
    6MOL0     C  723   8.604  10.464   3.947  0.6464 -0.8710  0.3421
    6MOL0     C  724   8.690  10.431   4.048  0.1127  0.1130 -0.1093
    6MOL0     C  725   8.806  10.364   4.021 -0.7425 -0.2871 -0.2868
    6MOL0     O  726   8.887  10.344   4.133  0.3259 -0.1296 -0.7129
    6MOL0     C  727   9.027  10.312   4.125 -0.4016 -0.6825  0.2451
    6MOL0     C  728   9.110  10.443   4.112 -0.2684  1.2806  0.3622
    6MOL0     C  729   9.258  10.411   4.153 -0.3720 -0.3723  0.0418
    6MOL0     C  730   9.347  10.536   4.144  0.5681 -0.3731  0.0079
    6MOL0     C  731   9.480  10.495   4.215 -0.1426 -0.2602  0.6986
    6MOL0     C  732   9.609  10.572   4.168 -0.9668  0.1041 -0.8276
    6MOL0     C  733   9.736  10.504   4.238 -0.2539 -0.3605  0.0678
    6MOL0     C  734   9.862  10.567   4.206 -0.5986  0.4857 -0.2079
    6MOL0    Cl  735   9.919  10.543   4.045 -0.1465 -0.7043 -0.1857
    6MOL0     C  736   8.842  10.334   3.889 -0.4917  0.0980 -0.6971
    6MOL0     C  737   8.756  10.371   3.784  0.3446 -0.1680  0.0037
    6MOL0     O  738   8.353  10.374   3.814  0.1245  0.5589 -0.4196
    6MOL0     C  739   8.204  10.482   3.593  0.2300  0.1328  0.5079
    6MOL0     C  740   8.129  10.503   3.473 -0.3707  0.0980 -0.7207
    6MOL0     N  741   7.572  10.351   3.277  1.0420  0.5015 -0.3830
    6MOL0     N  742   7.453  10.310   3.273  0.5074 -0.1057  0.2555
    6MOL0     C  743   6.436   9.431   3.076 -0.0059  0.0663 -0.4148
    6MOL0     C  744   6.393   9.299   3.054 -0.4616 -0.4984 -0.1694
    6MOL0     C  745   6.449   8.819   2.981  0.2701 -0.5333 -0.0474
    6MOL0     C  746   6.310   8.809   2.986 -0.3834 -0.5358  0.2429
    6MOL0     C  747   6.249   8.683   2.965  0.3138  0.2015  0.0422
    6MOL0     C  748   6.330   8.572   2.943  0.7006 -0.3794 -0.0996
    6MOL0     O  749   6.258   8.457   2.934 -0.2809 -0.3611 -0.5069
    6MOL0     C  750   6.336   8.341   2.951  0.2650 -0.8920  0.5286
    6MOL0     C  751   6.254   8.220   2.938 -0.2774 -0.3131 -0.2396
    6MOL0     C  752   6.340   8.097   2.944  0.2352 -1.0803  0.2322
    6MOL0     C  753   6.269   7.964   2.919  0.3950  0.5201 -0.6581
    6MOL0     C  754   6.182   7.919   3.036  0.2454  0.1471  0.0312
    6MOL0     C  755   6.126   7.880   3.141 -0.1161  0.2546 -0.2487
    6MOL0     C  756   6.469   8.582   2.925 -0.3462  0.0104 -0.4207
    6MOL0     C  757   6.529   8.709   2.950 -0.0643 -0.4436  0.6726
    6MOL0     C  758   6.684   8.718   2.927 -0.4162  0.7138  1.0294
    6MOL0     H  759   6.682   9.150   2.958 -2.3853  0.2991 -2.2525
    6MOL0     H  760   6.768   9.380   3.007  0.7428  1.1245  3.3869
    6MOL0     H  761   6.779   9.594   2.972 -3.3877  1.2116 -1.4597
    6MOL0     H  762   6.792   9.562   3.150  0.3941  1.2500  1.5893
    6MOL0     H  763   6.695   9.826   3.012  1.6641  0.9442 -2.1436
    6MOL0     H  764   6.710   9.795   3.190  0.5337  1.9346 -0.8810
    6MOL0     H  765   6.947   9.789   3.186  0.5015 -0.3395 -0.3971
    6MOL0     H  766   6.949   9.761   3.011 -2.6182 -0.1087 -1.0367
    6MOL0     H  767   6.870  10.001   2.974 -0.5876  2.3441  1.6769
    6MOL0     H  768   6.887  10.024   3.141  2.3783  4.0646 -1.2131
    6MOL0     H  769   7.126   9.971   2.951 -0.9903 -0.8401 -0.5311
    6MOL0     H  770   7.143   9.961   3.129 -1.7652  0.0626  1.5203
    6MOL0     H  771   7.030  10.211   2.994  1.3512 -0.6637 -1.9045
    6MOL0     H  772   7.050  10.173   3.159  0.7689  0.6401  0.6270
    6MOL0     H  773   7.216  10.308   3.044 -1.7826 -0.4019 -0.4489
    6MOL0     H  774   7.265  10.177   2.935  0.4783 -0.4057 -0.2904
    6MOL0     H  775   7.272  10.137   3.236 -3.0283 -1.4612 -0.8758
    6MOL0     H  776   7.352  10.041   3.115 -1.8742  0.4143 -1.3984
    6MOL0     H  777   7.569  10.205   2.982  1.6868  2.3408  0.5022
    6MOL0     H  778   7.730  10.414   2.998 -0.9368  1.3936  0.1829
    6MOL0     H  779   7.832  10.299   3.102  1.5976  0.8645 -1.5129
    6MOL0     H  780   7.746  10.578   3.177 -0.0124  0.2698  1.1445
    6MOL0     H  781   7.838  10.479   3.288 -0.4646 -2.7054  0.1450
    6MOL0     H  782   7.959  10.520   3.008 -0.0370  1.3925 -0.4469
    6MOL0     H  783   7.887  10.664   3.077 -0.0789 -1.4727 -0.6137
    6MOL0     H  784   8.117  10.669   3.169  0.2991  0.2156  2.3564
    6MOL0     H  785   8.000  10.635   3.287  2.5592 -0.2778  1.2497
    6MOL0     H  786   8.351  10.387   3.254 -0.6281  0.0653  0.3542
    6MOL0     H  787   8.605  10.436   3.441 -1.0800  0.6375 -1.6021
    6MOL0     H  788   8.550  10.308   3.345 -0.1577 -2.4118  0.4426
    6MOL0     H  789   8.555  10.270   3.504 -0.7176 -0.7206 -0.4082
    6MOL0     H  790   8.511  10.519   3.961  2.0571  2.0509 -0.8483
    6MOL0     H  791   8.672  10.463   4.150  3.9705 -0.8422  1.0369
    6MOL0     H  792   9.053  10.267   4.221 -1.7022  1.6338  1.7984
    6MOL0     H  793   9.046  10.238   4.047 -1.7637 -0.5774 -0.2137
    6MOL0     H  794   9.097  10.488   4.013 -0.3645  2.5533  0.9326
    6MOL0     H  795   9.077  10.509   4.192  0.2673  0.3700  1.3660
    6MOL0     H  796   9.299  10.334   4.087 -0.0154 -1.9733  2.0260
    6MOL0     H  797   9.267  10.371   4.254 -0.3002 -0.7505 -0.1135
    6MOL0     H  798   9.294  10.627   4.173  1.0226  0.9115 -2.8388
    6MOL0     H  799   9.356  10.558   4.037 -0.6862 -1.5558 -0.3642
    6MOL0     H  800   9.471  10.514   4.322 -2.0722 -0.9977  0.6969
    6MOL0     H  801   9.505  10.389   4.203  1.8460  0.2517 -0.1900
    6MOL0     H  802   9.604  10.678   4.194 -0.8498 -0.3680  1.2737
    6MOL0     H  803   9.598  10.559   4.060 -3.0809  0.0133 -0.6513
    6MOL0     H  804   9.740  10.395   4.223  1.3492 -0.3403  0.1765
    6MOL0     H  805   9.725  10.511   4.347  0.7187  1.1522  0.0958
    6MOL0     H  806   9.926  10.523   4.283  0.0193 -1.3107 -1.6583
    6MOL0     H  807   9.862  10.674   4.226 -0.0257  0.3389  0.6018
    6MOL0     H  808   8.933  10.278   3.869 -0.4289  1.0621 -3.5169
    6MOL0     H  809   8.788  10.355   3.681 -2.5924  0.5267 -1.1127
    6MOL0     H  810   8.156  10.514   3.686  1.1310  1.4066  0.5529
    6MOL0     H  811   8.024  10.530   3.466 -0.2960  0.2612 -1.3335
    6MOL0     H  812   6.369   9.513   3.099  0.0807  0.0056  0.0583
    6MOL0     H  813   6.285   9.284   3.061 -0.5335  0.0424 -0.1387
    6MOL0     H  814   6.258   8.901   3.012 -2.4065 -1.5025 -0.2211
    6MOL0     H  815   6.141   8.679   2.977  0.1067  0.9388 -1.3360
    6MOL0     H  816   6.406   8.332   2.867  0.2616  2.1553  0.1054
    6MOL0     H  817   6.401   8.343   3.038 -1.8256 -0.9760  2.1802
    6MOL0     H  818   6.193   8.229   2.848 -1.8232 -0.2975  0.7693
    6MOL0     H  819   6.194   8.218   3.029  1.2460  1.0893  0.8651
    6MOL0     H  820   6.421   8.109   2.872  0.1422 -0.0713  0.2754
    6MOL0     H  821   6.382   8.095   3.045  1.1163 -0.2107 -0.0968
    6MOL0     H  822   6.351   7.891   2.910  0.7837  1.0983 -2.1624
    6MOL0     H  823   6.208   7.971   2.828 -1.3535 -1.5242  0.2707
    6MOL0     H  824   6.063   7.848   3.222  0.2666 -0.9429 -0.4005
    6MOL0     H  825   6.540   8.502   2.910  0.0875  0.5869 -1.4997
    6MOL0     H  826   6.728   8.705   3.026  0.5646 -0.1963  0.4985
    6MOL0     H  827   6.734   8.640   2.869  3.1981  2.1026  1.9577
    6MOL0     H  828   6.710   8.813   2.879 -2.5292 -0.2318 -2.3468
    7MOL0     O  829  11.139   0.741  10.490  0.0623  0.2792 -0.6910
    7MOL0     C  830  11.125   0.856  10.530 -0.1407  0.0305  0.0349
    7MOL0     O  831  11.231   0.936  10.563  0.3782  0.4923 -0.0652
    7MOL0     C  832  11.360   0.885  10.566 -0.4728  0.2726  0.0963
    7MOL0     C  833  11.438   0.880  10.683 -0.3176  0.0688  0.0160
    7MOL0     C  834  11.569   0.836  10.671 -0.3787 -0.0784  0.0961
    7MOL0     C  835  11.629   0.814  10.544  0.6505 -0.0235 -0.6726
    7MOL0     O  836  11.758   0.783  10.556 -0.6812  0.1283  0.4673
    7MOL0     C  837  11.831   0.742  10.441 -0.3291  0.2742  0.5284
    7MOL0     C  838  11.985   0.734  10.458  0.9658 -0.2077  0.6253
    7MOL0     C  839  12.023   0.604  10.528 -0.2007 -0.4536 -0.2501
    7MOL0     C  840  12.175   0.591  10.537 -0.0759  0.1420  0.3835
    7MOL0     C  841  12.223   0.714  10.617  0.0670  0.7423  0.1306
    7MOL0     C  842  12.356   0.685  10.694  0.1215  0.3589  0.1650
    7MOL0     C  843  12.477   0.732  10.628  0.6155 -0.1274 -0.9697
    7MOL0     C  844  12.490   0.695  10.485 -0.5162 -0.3033  0.1166
    7MOL0     N  845  12.624   0.731  10.429 -0.2939 -0.7441  0.3651
    7MOL0     C  846  12.705   0.647  10.355 -0.1437 -0.4026 -0.2946
    7MOL0     C  847  12.825   0.703  10.346  0.0836 -0.5157  0.3245
    7MOL0     C  848  12.949   0.646  10.276  0.1854 -0.0703 -0.4926
    7MOL0     C  849  12.922   0.523  10.200 -0.4423  0.2145 -0.9187
    7MOL0     C  850  13.055   0.456  10.149  0.2915 -0.5096 -0.7453
    7MOL0     C  851  13.136   0.377  10.257 -0.5474  0.2995 -0.0974
    7MOL0     O  852  13.221   0.272  10.199  1.1535  0.6789 -0.6975
    7MOL0     C  853  13.351   0.276  10.230 -0.3642 -0.5611 -0.3393
    7MOL0     C  854  13.405   0.171  10.303 -0.1838 -0.7630 -0.6762
    7MOL0     C  855  13.545   0.166  10.315 -0.8445  0.7107  0.2122
    7MOL0     C  856  13.596   0.035  10.391 -1.1099  0.1503 -0.3799
    7MOL0     C  857  13.631   0.257  10.244 -0.8736  0.2657 -0.0979
    7MOL0     C  858  13.782   0.238  10.231 -0.3342  0.3283 -0.5185
    7MOL0     O  859  13.858   0.353  10.216 -0.1236  0.2582  0.1071
    7MOL0     C  860  13.980   0.340  10.159 -0.4427  0.3812 -0.3560
    7MOL0     C  861  14.005   0.259  10.043  0.5295 -0.2688 -0.7774
    7MOL0     C  862  14.120   0.264   9.978 -0.1452 -0.3644  0.0115
    7MOL0     C  863  14.215   0.362  10.000  0.5830 -0.4043  1.2444
    7MOL0     O  864  14.325   0.382   9.917  0.0275 -0.5042  0.1929
    7MOL0     C  865  14.357   0.282   9.820  0.2528 -1.1803  0.1270
    7MOL0     C  866  14.493   0.313   9.760 -0.3164  0.5310  0.0508
    7MOL0     C  867  14.513   0.461   9.727 -0.2933 -0.4669 -0.4694
    7MOL0     C  868  14.634   0.487   9.629  0.6367 -0.2344  0.3045
    7MOL0     C  869  14.766   0.420   9.663  0.1481 -0.3127 -0.9968
    7MOL0     C  870  14.872   0.461   9.562  0.5238 -0.5223  0.4578
    7MOL0     C  871  15.011   0.385   9.573  0.3775  0.2954  0.6885
    7MOL0     C  872  15.038   0.304   9.450  0.4424 -0.2437 -0.7986
    7MOL0    Cl  873  15.175   0.191   9.483 -0.1872 -0.3083 -0.1696
    7MOL0     C  874  14.195   0.444  10.111  0.1181 -0.4033  0.0539
    7MOL0     C  875  14.075   0.430  10.187  0.8769 -0.3966 -0.4473
    7MOL0     O  876  13.827   0.121  10.245  0.3371 -0.0225  0.9401
    7MOL0     C  877  13.567   0.350  10.167 -1.3860 -0.2069  0.0092
    7MOL0     C  878  13.435   0.365  10.155 -0.2977 -0.4318 -1.1125
    7MOL0     N  879  12.815   0.831  10.393 -0.0057  0.2181  0.7842
    7MOL0     N  880  12.698   0.844  10.451 -0.1133  0.3745  0.3382
    7MOL0     C  881  11.550   0.812  10.433  0.1898  0.7664 -0.1509
    7MOL0     C  882  11.412   0.853  10.441 -0.0679 -0.3364 -0.9041
    7MOL0     C  883  10.993   0.912  10.529  0.7876 -0.0407 -0.6536
    7MOL0     C  884  10.889   0.858  10.455 -0.2906 -0.6074  0.7567
    7MOL0     C  885  10.753   0.897  10.463 -0.5861 -0.2720  0.3417
    7MOL0     C  886  10.719   1.006  10.545 -0.3264 -0.2386  0.9739
    7MOL0     O  887  10.589   1.048  10.564  0.3575 -0.1823  0.7923
    7MOL0     C  888  10.491   1.004  10.469  0.0982  0.6312  0.8481
    7MOL0     C  889  10.366   1.094  10.470 -0.3650  0.7748 -0.1794
    7MOL0     C  890  10.319   1.108  10.614  0.0098 -0.1850 -0.4386
    7MOL0     C  891  10.186   1.170  10.621  0.0517 -0.0090  0.0539
    7MOL0     C  892  10.196   1.317  10.623  0.3207 -0.6621  0.3848
    7MOL0     C  893  10.189   1.439  10.631  0.1808  0.7127  0.1640
    7MOL0     C  894  10.823   1.058  10.622 -0.3514  0.3115 -0.1653
    7MOL0     C  895  10.957   1.016  10.619  0.0343 -0.1898 -0.0550
    7MOL0     C  896  11.060   1.077  10.719  0.1186  0.5859 -1.3471
    7MOL0     H  897  11.385   0.899  10.776 -3.5482 -0.3825 -1.5778
    7MOL0     H  898  11.630   0.837  10.761  1.3703  0.7146 -1.0530
    7MOL0     H  899  11.821   0.814  10.360  1.3929  0.9840  0.8940
    7MOL0     H  900  11.795   0.644  10.409  0.6019  1.1026 -3.6779
    7MOL0     H  901  12.040   0.726  10.364  1.5835 -2.3056  1.1160
    7MOL0     H  902  12.021   0.825  10.508  0.6926 -0.3145  1.0292
    7MOL0     H  903  11.983   0.601  10.630  1.2558  0.8847  0.3917
    7MOL0     H  904  11.986   0.515  10.476  0.5533  0.8247 -3.1496
    7MOL0     H  905  12.201   0.503  10.597  0.0768  0.0772  0.2222
    7MOL0     H  906  12.214   0.588  10.435 -0.4636  1.6375  0.1703
    7MOL0     H  907  12.153   0.735  10.698  0.2601  3.2082 -0.2575
    7MOL0     H  908  12.232   0.798  10.547 -0.1921 -1.2026 -2.3794
    7MOL0     H  909  12.350   0.733  10.792 -2.6532 -0.8995  0.6963
    7MOL0     H  910  12.363   0.578  10.715  0.9997 -1.1994 -5.9963
    7MOL0     H  911  12.561   0.691  10.685  2.4017  1.2923 -2.4657
    7MOL0     H  912  12.482   0.841  10.638  1.0309 -0.2668  0.7596
    7MOL0     H  913  12.481   0.587  10.466  0.4661 -0.3335 -0.2470
    7MOL0     H  914  12.420   0.753  10.425  1.2631  0.5793 -1.1896
    7MOL0     H  915  12.677   0.549  10.318 -1.2413 -0.6710  1.1531
    7MOL0     H  916  13.029   0.617  10.345  1.2762  0.6047 -1.4359
    7MOL0     H  917  12.992   0.727  10.217  1.9549 -0.7248 -0.1603
    7MOL0     H  918  12.878   0.442  10.260  0.3308  0.0075 -0.6224
    7MOL0     H  919  12.858   0.553  10.117 -1.8686 -1.3259 -0.4354
    7MOL0     H  920  13.029   0.379  10.076  1.8184 -0.4169 -1.4269
    7MOL0     H  921  13.121   0.527  10.097  3.2641 -1.9690  0.8023
    7MOL0     H  922  13.195   0.441  10.324 -2.9922  0.3299  2.2055
    7MOL0     H  923  13.076   0.323  10.331 -1.2304  4.6986  2.9971
    7MOL0     H  924  13.342   0.091  10.340  1.1410 -1.3518  0.4021
    7MOL0     H  925  13.626  -0.054  10.334  0.4686 -2.8054  4.4340
    7MOL0     H  926  13.534   0.008  10.477 -1.3167 -0.4562 -0.7098
    7MOL0     H  927  13.696   0.056  10.430 -1.7962  1.7549  0.5894
    7MOL0     H  928  13.920   0.193  10.028 -0.1078 -0.3696  2.5724
    7MOL0     H  929  14.133   0.189   9.900 -1.8467 -2.2051  1.3987
    7MOL0     H  930  14.347   0.187   9.874 -1.0920 -2.4850 -2.2484
    7MOL0     H  931  14.281   0.293   9.743  0.4789  0.6801  0.1302
    7MOL0     H  932  14.559   0.280   9.840 -1.7539  0.5120  1.2723
    7MOL0     H  933  14.506   0.250   9.671 -0.7173 -1.2308  1.2049
    7MOL0     H  934  14.514   0.513   9.823 -1.2320 -2.5158  0.7142
    7MOL0     H  935  14.420   0.499   9.682 -1.8068 -0.1813  2.6481
    7MOL0     H  936  14.646   0.596   9.620  0.0674 -0.1108  0.9491
    7MOL0     H  937  14.614   0.462   9.524  2.1399  0.3945 -0.1568
    7MOL0     H  938  14.798   0.445   9.764  0.7457 -0.7042 -1.0797
    7MOL0     H  939  14.738   0.315   9.673  0.1098 -0.3408 -1.3822
    7MOL0     H  940  14.891   0.569   9.560 -3.3346  0.3470 -2.1448
    7MOL0     H  941  14.830   0.439   9.463  0.1988  1.5503  0.0840
    7MOL0     H  942  14.998   0.321   9.661 -1.9007 -2.3348 -1.3863
    7MOL0     H  943  15.096   0.454   9.582  2.4215 -2.0207  0.4312
    7MOL0     H  944  15.064   0.364   9.363  1.3705  0.8841  0.2172
    7MOL0     H  945  14.958   0.234   9.423  2.7393 -3.3123 -0.3047
    7MOL0     H  946  14.270   0.523  10.114  0.0657 -0.2355 -1.7503
    7MOL0     H  947  14.073   0.491  10.277  2.5218 -0.2233 -0.4919
    7MOL0     H  948  13.627   0.408  10.098 -1.8953  0.0914 -0.1858
    7MOL0     H  949  13.398   0.443  10.089 -2.0881 -0.3916 -0.1181
    7MOL0     H  950  11.599   0.780  10.341  2.4018  2.8427  0.2132
    7MOL0     H  951  11.348   0.864  10.353 -2.6258  2.2058  1.0845
    7MOL0     H  952  10.916   0.786  10.378  1.3361  2.9364 -2.2932
    7MOL0     H  953  10.689   0.850  10.390 -0.5312  1.5977 -0.9766
    7MOL0     H  954  10.527   0.988  10.367 -0.4499  0.9708  0.6032
    7MOL0     H  955  10.456   0.902  10.491 -1.2260  1.0728  0.8332
    7MOL0     H  956  10.289   1.040  10.415 -0.1826 -0.8811  1.1085
    7MOL0     H  957  10.385   1.190  10.420 -1.2218  1.1470  0.1945
    7MOL0     H  958  10.309   1.004  10.647 -0.1352 -0.0029  0.0953
    7MOL0     H  959  10.389   1.168  10.674 -3.4478  0.9294  2.8571
    7MOL0     H  960  10.130   1.137  10.709  0.5520 -1.9445 -0.3104
    7MOL0     H  961  10.126   1.146  10.533  1.2543  0.0083 -0.8045
    7MOL0     H  962  10.189   1.545  10.648  2.5697  0.8822 -0.4501
    7MOL0     H  963  10.790   1.139  10.687  0.1205  2.0359 -1.9623
    7MOL0     H  964  11.101   0.992  10.775  0.9544  1.7983 -0.0583
    7MOL0     H  965  11.142   1.129  10.670  0.3582  3.2318  1.5371
    7MOL0     H  966  11.006   1.146  10.785 -2.3164 -1.7854 -0.6684
    8MOL0     O  967   2.474   8.450  10.998 -0.4082 -0.0362 -0.4255
    8MOL0     C  968   2.544   8.367  10.949 -0.4856 -0.1577  0.2803
    8MOL0     O  969   2.670   8.334  10.995  0.0515 -0.3325 -0.5334
    8MOL0     C  970   2.718   8.432  11.077  0.4757  0.7210  0.0884
    8MOL0     C  971   2.750   8.560  11.033 -0.0102 -0.3420  0.2075
    8MOL0     C  972   2.804   8.651  11.122  0.1461  0.2584  0.7268
    8MOL0     C  973   2.821   8.627  11.258  0.2744  0.5666  0.2944
    8MOL0     O  974   2.872   8.729  11.330 -0.4226  0.8560 -0.3379
    8MOL0     C  975   2.832   8.734  11.473  0.1595  0.1933 -0.1923
    8MOL0     C  976   2.875   8.865  11.542 -0.2699 -0.1234 -0.1475
    8MOL0     C  977   2.813   8.882  11.680  0.0168  0.3532 -0.1575
    8MOL0     C  978   2.853   9.017  11.746 -0.0931  0.0694  0.6364
    8MOL0     C  979   2.814   9.022  11.894 -0.3143  0.6355  0.5081
    8MOL0     C  980   2.888   8.919  11.979  0.6486  0.1960  0.1276
    8MOL0     C  981   3.032   8.957  12.007 -0.3333  0.3201  0.0185
    8MOL0     C  982   3.135   8.876  11.929  0.5239  0.4288  1.0095
    8MOL0     N  983   3.266   8.925  11.960  0.3730  0.2142  0.4365
    8MOL0     C  984   3.324   9.032  11.897 -0.1653  0.1943 -0.0848
    8MOL0     C  985   3.448   9.038  11.953  0.4176 -0.0639 -0.6973
    8MOL0     C  986   3.545   9.152  11.926 -0.0835 -0.1534 -0.9485
    8MOL0     C  987   3.675   9.136  12.013  0.0023  0.5260 -0.3909
    8MOL0     C  988   3.774   9.243  11.967  0.8293 -0.5926 -0.3683
    8MOL0     C  989   3.877   9.271  12.077  0.4137 -0.4498 -0.3632
    8MOL0     O  990   3.966   9.384  12.051 -0.3734  0.2012  0.0156
    8MOL0     C  991   4.062   9.414  12.138 -0.3517 -0.1768 -0.2751
    8MOL0     C  992   4.119   9.539  12.111  0.4259 -0.5104 -0.4487
    8MOL0     C  993   4.221   9.583  12.190  0.2963 -0.5852 -0.9139
    8MOL0     C  994   4.284   9.712  12.154  0.1167 -0.3470  0.5119
    8MOL0     C  995   4.282   9.492  12.290  0.0220 -0.6914  0.3555
    8MOL0     C  996   4.403   9.527  12.379 -0.4560  0.6355  0.2084
    8MOL0     O  997   4.410   9.654  12.411  0.2175 -0.0059 -0.1959
    8MOL0     C  998   4.520   9.718  12.468  0.5638  0.1579  0.0363
    8MOL0     C  999   4.614   9.660  12.561 -0.1531  0.4205  0.4657
    8MOL0     C 1000   4.727   9.733  12.603 -0.0513  0.0377 -0.8817
    8MOL0     C 1001   4.737   9.872  12.576 -0.7540 -0.3693 -0.3635
    8MOL0     O 1002   4.833   9.960  12.616  0.1151  0.0077  0.2249
    8MOL0     C 1003   4.891   9.931  12.741 -0.1228  0.6085 -0.4014
    8MOL0     C 1004   4.999  10.035  12.774  0.3029 -0.3046 -0.1131
    8MOL0     C 1005   5.032  10.032  12.925 -0.4618 -0.2560  0.5721
    8MOL0     C 1006   5.156  10.113  12.945  0.0480  0.0577 -0.0193
    8MOL0     C 1007   5.164  10.161  13.088 -0.6202 -0.2766 -0.1980
    8MOL0     C 1008   5.295  10.234  13.120 -0.2436  0.6386 -0.2719
    8MOL0     C 1009   5.300  10.311  13.255 -0.4079  0.1551  0.2085
    8MOL0     C 1010   5.393  10.425  13.254 -0.5283 -0.2664  0.6783
    8MOL0    Cl 1011   5.321  10.563  13.157  0.2651  0.4435  0.1076
    8MOL0     C 1012   4.632   9.934  12.499  0.6057 -0.0210 -0.7099
    8MOL0     C 1013   4.520   9.859  12.450 -0.2653 -0.5401  0.7189
    8MOL0     O 1014   4.494   9.442  12.405  0.5741  0.1420  0.2613
    8MOL0     C 1015   4.227   9.362  12.303 -0.2344 -0.8616  0.4849
    8MOL0     C 1016   4.125   9.326  12.217  0.8194  0.0967 -0.4865
    8MOL0     N 1017   3.457   8.948  12.056  0.5784 -0.2967  0.6615
    8MOL0     N 1018   3.351   8.873  12.050  0.0022 -0.1709 -0.2351
    8MOL0     C 1019   2.784   8.498  11.302 -0.1314 -0.0272 -0.4508
    8MOL0     C 1020   2.728   8.409  11.210 -0.3684 -0.2402  0.1826
    8MOL0     C 1021   2.501   8.298  10.825 -0.5221 -0.5390 -0.0424
    8MOL0     C 1022   2.598   8.225  10.754  0.3657 -0.2343  0.3867
    8MOL0     C 1023   2.567   8.169  10.630  0.1909 -0.0871 -0.1689
    8MOL0     C 1024   2.444   8.170  10.576 -0.0544  0.5840  0.7116
    8MOL0     O 1025   2.419   8.100  10.457 -0.5011 -0.0085  0.0636
    8MOL0     C 1026   2.341   7.982  10.463  0.3575  0.0408  0.2178
    8MOL0     C 1027   2.374   7.882  10.565  0.0649  1.4187  0.7022
    8MOL0     C 1028   2.314   7.742  10.544  0.4554  0.5472 -0.0657
    8MOL0     C 1029   2.344   7.638  10.656  0.3565 -0.2832  0.1957
    8MOL0     C 1030   2.489   7.612  10.675  0.1423  0.4007 -0.2583
    8MOL0     C 1031   2.610   7.583  10.674 -0.6797 -1.0373 -0.3195
    8MOL0     C 1032   2.345   8.230  10.649 -0.4939 -0.1252  0.5096
    8MOL0     C 1033   2.364   8.291  10.774 -0.1195  0.1023  0.1633
    8MOL0     C 1034   2.234   8.339  10.833  0.5200  0.4675 -0.6490
    8MOL0     H 1035   2.723   8.606  10.939  1.4417  1.4389  0.6120
    8MOL0     H 1036   2.808   8.752  11.084  1.2081 -1.3263 -3.9450
    8MOL0     H 1037   2.881   8.651  11.523  0.6061  0.4557 -0.1918
    8MOL0     H 1038   2.724   8.721  11.488  0.1877  0.8444  0.6680
    8MOL0     H 1039   2.984   8.862  11.551 -0.0283  2.2347 -1.5381
    8MOL0     H 1040   2.861   8.953  11.480  2.9342 -0.9139 -2.2534
    8MOL0     H 1041   2.705   8.877  11.660 -0.5265  0.3633  2.4473
    8MOL0     H 1042   2.842   8.792  11.734 -0.4684 -0.5866 -1.4309
    8MOL0     H 1043   2.961   9.031  11.732 -0.0800 -0.7073 -0.1321
    8MOL0     H 1044   2.805   9.096  11.688 -0.4077  0.3772  1.3107
    8MOL0     H 1045   2.708   8.996  11.881  0.1756 -2.2324  1.6124
    8MOL0     H 1046   2.833   9.118  11.944 -0.9766  0.2041  1.6190
    8MOL0     H 1047   2.830   8.925  12.072  0.0404  0.3147 -0.2588
    8MOL0     H 1048   2.876   8.818  11.939  0.5114  1.5162 -3.5461
    8MOL0     H 1049   3.057   8.943  12.112 -2.0587  1.6014  0.6288
    8MOL0     H 1050   3.042   9.064  11.989 -0.8467  0.1395 -1.4784
    8MOL0     H 1051   3.135   8.769  11.952 -1.0552  0.0547 -0.5107
    8MOL0     H 1052   3.113   8.889  11.823  3.7350  2.0091  0.4320
    8MOL0     H 1053   3.287   9.096  11.818  0.9781  2.3131  0.9956
    8MOL0     H 1054   3.499   9.250  11.939  0.9259  0.0540  1.5747
    8MOL0     H 1055   3.569   9.143  11.819 -0.0864  1.6675 -1.1341
    8MOL0     H 1056   3.650   9.157  12.117  1.8835  0.5338  0.0820
    8MOL0     H 1057   3.713   9.034  12.002 -0.0922  0.6500 -2.2941
    8MOL0     H 1058   3.812   9.230  11.865 -0.6536  3.2392 -1.5755
    8MOL0     H 1059   3.719   9.335  11.949  0.5321 -1.0739 -2.0170
    8MOL0     H 1060   3.815   9.295  12.164 -0.3266 -0.4704 -0.8741
    8MOL0     H 1061   3.934   9.179  12.097  1.3513  0.3030  0.5258
    8MOL0     H 1062   4.066   9.594  12.034 -2.6898 -0.4373  1.5708
    8MOL0     H 1063   4.238   9.772  12.076  1.3157  1.9114  1.4493
    8MOL0     H 1064   4.380   9.688  12.107 -0.5294 -0.3518 -0.8424
    8MOL0     H 1065   4.296   9.778  12.241 -0.2812 -0.9018  0.9934
    8MOL0     H 1066   4.602   9.556  12.591 -0.1249  0.8649  2.1102
    8MOL0     H 1067   4.792   9.688  12.677  0.1174  2.0983  0.3064
    8MOL0     H 1068   4.808   9.938  12.811 -2.6021  0.1031 -3.1182
    8MOL0     H 1069   4.946   9.837  12.753 -0.9056  0.3314  1.2861
    8MOL0     H 1070   5.086  10.016  12.711  2.4573  1.9081  1.9487
    8MOL0     H 1071   4.969  10.132  12.733 -0.8904 -1.3319 -1.7828
    8MOL0     H 1072   5.065   9.932  12.955  0.3157  0.4103  2.0566
    8MOL0     H 1073   4.947  10.056  12.990 -0.3921 -1.4004  1.1197
    8MOL0     H 1074   5.145  10.196  12.874 -4.3890  0.8337  1.2124
    8MOL0     H 1075   5.248  10.061  12.918  0.0543 -0.1634  0.4185
    8MOL0     H 1076   5.086  10.236  13.103  1.2786  1.5479  1.1820
    8MOL0     H 1077   5.154  10.079  13.160 -0.9529 -0.5946 -0.5992
    8MOL0     H 1078   5.324  10.305  13.042  1.8645  1.2193  0.9734
    8MOL0     H 1079   5.370  10.155  13.127 -2.4363 -1.4129  3.5003
    8MOL0     H 1080   5.335  10.239  13.330  2.0656  0.0427 -0.9574
    8MOL0     H 1081   5.200  10.342  13.287  0.3765  0.9917  1.9523
    8MOL0     H 1082   5.493  10.398  13.219 -0.5679  1.2028 -0.6826
    8MOL0     H 1083   5.403  10.464  13.355 -0.9778  0.5565  0.4100
    8MOL0     H 1084   4.631  10.042  12.493 -2.7396  0.1795  1.1661
    8MOL0     H 1085   4.445   9.905  12.387 -1.2252 -0.7775  1.6598
    8MOL0     H 1086   4.283   9.302  12.374  0.9316  0.8053  1.0264
    8MOL0     H 1087   4.088   9.224  12.214  0.3970  0.2469 -0.4679
    8MOL0     H 1088   2.800   8.465  11.404 -2.0431  0.2056 -0.0447
    8MOL0     H 1089   2.709   8.309  11.248  2.3393 -0.3452  1.5151
    8MOL0     H 1090   2.701   8.220  10.786  1.2710 -0.3399 -2.2509
    8MOL0     H 1091   2.649   8.122  10.576  1.1758 -1.4965  2.3611
    8MOL0     H 1092   2.238   8.008  10.490 -0.1621 -1.7338  0.0753
    8MOL0     H 1093   2.353   7.928  10.369 -2.0247 -1.6096  0.7580
    8MOL0     H 1094   2.360   7.920  10.667  2.3878 -0.6195  1.9117
    8MOL0     H 1095   2.482   7.875  10.546 -0.6643  0.0747 -4.4373
    8MOL0     H 1096   2.204   7.746  10.544  0.4680  0.9479 -0.5383
    8MOL0     H 1097   2.335   7.694  10.449 -0.7900 -0.8789  0.3313
    8MOL0     H 1098   2.300   7.544  10.624  1.5694 -0.4798 -0.9711
    8MOL0     H 1099   2.288   7.668  10.745 -1.5058  1.3399 -1.4179
    8MOL0     H 1100   2.714   7.558  10.666 -0.0933  1.4632 -1.4386
    8MOL0     H 1101   2.247   8.233  10.603  0.7044 -0.7182 -2.3010
    8MOL0     H 1102   2.199   8.434  10.792 -2.3991 -0.8618 -1.5070
    8MOL0     H 1103   2.146   8.276  10.815  0.1122  1.8444 -4.1088
    8MOL0     H 1104   2.260   8.352  10.939  2.7542  2.4934 -1.3474
    9MOL0     O 1105   8.721   5.235   6.530 -0.0069 -0.1060 -0.6041
    9MOL0     C 1106   8.681   5.164   6.442  0.6675 -0.3292 -0.7010
    9MOL0     O 1107   8.723   5.036   6.416  0.5731  0.0055 -0.0161
    9MOL0     C 1108   8.859   5.012   6.441  1.2813 -0.4148  0.0367
    9MOL0     C 1109   8.909   5.001   6.565 -0.5917  0.1256 -0.0036
    9MOL0     C 1110   9.043   4.971   6.595  0.6251  0.5774  0.3292
    9MOL0     C 1111   9.130   4.975   6.491  0.2617  0.6798 -0.3201
    9MOL0     O 1112   9.262   4.971   6.509 -0.3524  0.5047 -0.1959
    9MOL0     C 1113   9.320   4.854   6.558  0.2029  0.1692  0.7155
    9MOL0     C 1114   9.334   4.753   6.445  0.3316 -0.3789 -0.1747
    9MOL0     C 1115   9.446   4.789   6.351 -0.6563 -0.5026  0.3115
    9MOL0     C 1116   9.461   4.680   6.234 -0.1996  0.7954  0.2913
    9MOL0     C 1117   9.342   4.676   6.131  1.0329  0.8829  0.7178
    9MOL0     C 1118   9.362   4.572   6.015 -0.2915 -0.6251 -0.6072
    9MOL0     C 1119   9.257   4.592   5.901 -0.1773  0.0140 -0.4763
    9MOL0     C 1120   9.283   4.496   5.791 -0.1201 -0.0953  0.2927
    9MOL0     N 1121   9.177   4.469   5.696 -0.3981 -0.7354 -0.9373
    9MOL0     C 1122   9.048   4.423   5.725 -0.1507 -0.4712  0.6325
    9MOL0     C 1123   8.989   4.397   5.607  0.0017  0.8642  0.5784
    9MOL0     C 1124   8.847   4.327   5.600 -0.4283  1.3236  0.3828
    9MOL0     C 1125   8.740   4.392   5.691  0.2564  0.0068 -0.0845
    9MOL0     C 1126   8.606   4.318   5.693  0.4730 -0.2552  0.2588
    9MOL0     C 1127   8.510   4.384   5.783  0.0691  0.1586 -0.1051
    9MOL0     O 1128   8.472   4.514   5.746  0.5502 -0.3311  0.4142
    9MOL0     C 1129   8.371   4.523   5.654 -0.5103 -0.5220 -0.4514
    9MOL0     C 1130   8.319   4.649   5.637  0.8808 -0.8294  0.3080
    9MOL0     C 1131   8.212   4.673   5.556 -0.1058  0.5129  0.0022
    9MOL0     C 1132   8.162   4.812   5.538  0.1767 -0.4339 -0.1175
    9MOL0     C 1133   8.146   4.563   5.491 -0.1339 -0.3903  0.1212
    9MOL0     C 1134   8.011   4.571   5.412  0.0785  0.0218 -0.2787
    9MOL0     O 1135   7.966   4.463   5.348  0.3255 -0.9879  0.0595
    9MOL0     C 1136   7.834   4.439   5.352  0.1704  0.2485 -0.6832
    9MOL0     C 1137   7.763   4.432   5.234 -0.4608 -0.3924  0.3111
    9MOL0     C 1138   7.626   4.419   5.233  0.6429 -0.6818 -0.1079
    9MOL0     C 1139   7.561   4.401   5.353 -0.3036 -0.1708  0.5619
    9MOL0     O 1140   7.429   4.387   5.350  0.0518 -0.4697  0.3667
    9MOL0     C 1141   7.342   4.506   5.332 -0.2957  1.0977 -0.2416
    9MOL0     C 1142   7.252   4.496   5.212 -0.6407  0.4931 -0.4911
    9MOL0     C 1143   7.223   4.631   5.159  0.4313  0.2080  1.1508
    9MOL0     C 1144   7.119   4.618   5.046  0.4133  0.5189 -0.9464
    9MOL0     C 1145   7.097   4.748   4.971  0.2365  0.2364 -0.7303
    9MOL0     C 1146   7.040   4.730   4.832  0.3791  0.0895  0.0344
    9MOL0     C 1147   6.896   4.672   4.837  0.0746 -0.8655  0.4746
    9MOL0     C 1148   6.783   4.760   4.900 -0.5920 -0.0768 -0.2973
    9MOL0    Cl 1149   6.748   4.923   4.819 -0.0401 -0.5536  0.1340
    9MOL0     C 1150   7.629   4.397   5.471 -0.3291  0.7850  0.1848
    9MOL0     C 1151   7.767   4.412   5.478 -0.7564  0.0188  0.2711
    9MOL0     O 1152   7.946   4.674   5.430 -0.4521  0.0158  1.1734
    9MOL0     C 1153   8.204   4.445   5.497 -0.0444  0.1906  0.0981
    9MOL0     C 1154   8.313   4.424   5.580  1.3006 -0.1055  0.5382
    9MOL0     N 1155   9.085   4.415   5.506  0.1721  0.2230 -0.2232
    9MOL0     N 1156   9.195   4.466   5.561 -1.2969  0.4276 -1.4664
    9MOL0     C 1157   9.078   4.996   6.363  0.8513  0.5585  0.0293
    9MOL0     C 1158   8.942   4.997   6.335 -0.3929  0.3645 -0.4675
    9MOL0     C 1159   8.566   5.226   6.365 -0.5448  0.2828 -0.0584
    9MOL0     C 1160   8.470   5.310   6.424 -0.5059  0.6429  0.8292
    9MOL0     C 1161   8.361   5.363   6.354  0.7260  0.2072 -0.0911
    9MOL0     C 1162   8.341   5.328   6.225 -1.1812  0.2780  0.7067
    9MOL0     O 1163   8.239   5.372   6.148 -0.4350 -0.3017 -1.5601
    9MOL0     C 1164   8.111   5.410   6.212 -0.4458 -0.2543  0.4743
    9MOL0     C 1165   8.004   5.409   6.108  0.3363  0.1451 -0.4390
    9MOL0     C 1166   7.866   5.400   6.178 -0.7834 -0.1674  0.3211
    9MOL0     C 1167   7.765   5.377   6.054  0.1915 -0.3445 -0.9651
    9MOL0     C 1168   7.750   5.491   5.964  0.6551  0.4781 -0.4222
    9MOL0     C 1169   7.754   5.591   5.895 -0.9879 -0.4049  0.6119
    9MOL0     C 1170   8.424   5.237   6.161 -0.2918 -0.3169 -0.1315
    9MOL0     C 1171   8.545   5.196   6.224 -0.9684  0.2137  0.1195
    9MOL0     C 1172   8.634   5.113   6.144  0.3630 -0.5598 -0.0617
    9MOL0     H 1173   8.843   5.002   6.651  0.0478 -0.7415  0.5173
    9MOL0     H 1174   9.073   4.953   6.698 -1.2848 -1.0382  0.6830
    9MOL0     H 1175   9.266   4.808   6.642  2.4040 -1.0616  1.5611
    9MOL0     H 1176   9.420   4.883   6.591  0.1752 -0.8188  1.7596
    9MOL0     H 1177   9.356   4.667   6.510 -1.3364  1.0675  2.4895
    9MOL0     H 1178   9.241   4.738   6.391 -0.5652 -1.3839  1.5490
    9MOL0     H 1179   9.425   4.882   6.297 -1.7335 -0.9872 -0.1505
    9MOL0     H 1180   9.543   4.799   6.399  0.1397  1.6376 -1.5528
    9MOL0     H 1181   9.545   4.715   6.173 -0.0556  0.5032  0.3181
    9MOL0     H 1182   9.478   4.579   6.271 -2.0190 -0.2051 -1.4101
    9MOL0     H 1183   9.331   4.777   6.089  0.5466  1.5361  2.3346
    9MOL0     H 1184   9.253   4.663   6.193 -0.0308  0.2197 -0.9042
    9MOL0     H 1185   9.463   4.596   5.982 -0.0898  2.7380  1.9682
    9MOL0     H 1186   9.357   4.470   6.053 -0.2779 -0.3974  0.0183
    9MOL0     H 1187   9.276   4.693   5.864  2.1979 -1.0046 -2.2719
    9MOL0     H 1188   9.156   4.569   5.936  0.6141  0.3552  2.2660
    9MOL0     H 1189   9.377   4.529   5.746  0.1995  0.6476  1.4674
    9MOL0     H 1190   9.313   4.402   5.839  4.0432  1.0151  0.2450
    9MOL0     H 1191   9.000   4.408   5.821 -1.1427  1.9307  0.5680
    9MOL0     H 1192   8.854   4.221   5.626 -3.1367  0.4114 -2.0578
    9MOL0     H 1193   8.812   4.337   5.497 -0.0208 -2.0425 -0.2050
    9MOL0     H 1194   8.779   4.403   5.793 -0.7813  2.6942  0.0992
    9MOL0     H 1195   8.734   4.498   5.665  0.5035  0.1470  0.4157
    9MOL0     H 1196   8.557   4.315   5.595  0.4775  2.3006  0.1059
    9MOL0     H 1197   8.632   4.218   5.729  1.2367  0.4396  1.7217
    9MOL0     H 1198   8.420   4.325   5.804  1.8127 -2.1035  1.4244
    9MOL0     H 1199   8.563   4.397   5.878  2.1277 -0.1968 -1.1414
    9MOL0     H 1200   8.371   4.730   5.686  2.0132 -0.8793 -0.7554
    9MOL0     H 1201   8.084   4.825   5.613  3.3888 -0.1779  3.4852
    9MOL0     H 1202   8.127   4.842   5.439 -1.1572  1.8829  0.9641
    9MOL0     H 1203   8.242   4.882   5.565  0.7082 -1.4402  1.0116
    9MOL0     H 1204   7.828   4.437   5.147 -0.0147 -1.3494  0.5725
    9MOL0     H 1205   7.570   4.424   5.140  0.5431  1.4391  0.0331
    9MOL0     H 1206   7.289   4.530   5.424  0.3421 -1.2549  0.8163
    9MOL0     H 1207   7.415   4.585   5.314  2.6993 -1.2005  0.8759
    9MOL0     H 1208   7.309   4.441   5.136  2.1943  0.8179  1.2422
    9MOL0     H 1209   7.160   4.449   5.248  1.6953 -1.8788  2.9745
    9MOL0     H 1210   7.313   4.676   5.115  1.1757 -0.5083  1.9074
    9MOL0     H 1211   7.186   4.711   5.224 -1.2877  0.7996 -0.4778
    9MOL0     H 1212   7.023   4.579   5.082 -0.1727 -0.9928 -3.9042
    9MOL0     H 1213   7.162   4.548   4.974  1.6124 -1.2299  1.3403
    9MOL0     H 1214   7.033   4.817   5.027 -0.8151  0.3365 -2.0181
    9MOL0     H 1215   7.194   4.799   4.963  1.3498 -0.9613  3.0031
    9MOL0     H 1216   7.109   4.669   4.772  0.3873  0.5372 -0.4188
    9MOL0     H 1217   7.041   4.828   4.784  1.6058  0.6616  1.1622
    9MOL0     H 1218   6.899   4.576   4.889 -1.9211 -0.9302  0.5820
    9MOL0     H 1219   6.870   4.658   4.732  0.2084  2.1933 -0.0692
    9MOL0     H 1220   6.818   4.794   4.998  0.6746  1.5156 -1.2437
    9MOL0     H 1221   6.689   4.710   4.927 -0.9529  0.7507  0.0039
    9MOL0     H 1222   7.576   4.382   5.564  1.0218 -0.2987  0.8000
    9MOL0     H 1223   7.815   4.412   5.575  0.8753 -0.3814 -0.5037
    9MOL0     H 1224   8.157   4.363   5.443 -0.2014 -0.6685  1.4936
    9MOL0     H 1225   8.345   4.321   5.568 -0.4812 -0.7066  0.5873
    9MOL0     H 1226   9.153   5.004   6.285  1.6762 -4.7472 -0.0611
    9MOL0     H 1227   8.897   5.001   6.236 -1.0922  3.3088 -0.1430
    9MOL0     H 1228   8.466   5.321   6.532 -2.6447  0.4840  0.8093
    9MOL0     H 1229   8.287   5.416   6.414  1.2230  0.6957  0.0966
    9MOL0     H 1230   8.094   5.337   6.292  0.8390  0.0264  1.0162
    9MOL0     H 1231   8.132   5.510   6.252  1.4277  0.3616 -1.8453
    9MOL0     H 1232   8.028   5.320   6.049  2.4674  0.4893 -0.1846
    9MOL0     H 1233   8.018   5.488   6.034  0.6065  0.1201 -0.4167
    9MOL0     H 1234   7.847   5.330   6.260 -4.4355 -0.1052 -0.3167
    9MOL0     H 1235   7.846   5.497   6.225  1.6684 -0.5236  2.2537
    9MOL0     H 1236   7.667   5.342   6.088  0.4074  1.8419  2.3210
    9MOL0     H 1237   7.797   5.292   5.993 -2.8674 -3.5982  1.4964
    9MOL0     H 1238   7.757   5.676   5.831 -1.5387  0.0468  1.1712
    9MOL0     H 1239   8.396   5.210   6.060 -1.3298  3.2689 -0.9742
    9MOL0     H 1240   8.654   5.010   6.173  1.5357 -0.9806 -2.1585
    9MOL0     H 1241   8.591   5.103   6.044 -0.6996  1.0943  0.1747
    9MOL0     H 1242   8.731   5.163   6.142  0.3421 -0.5423 -1.5336
   10MOL0     O 1243   3.794   6.317   3.090  0.1320 -0.4084 -0.2341
   10MOL0     C 1244   3.788   6.377   3.195 -0.9878  0.3704  0.1163
   10MOL0     O 1245   3.896   6.407   3.279 -0.5295 -0.5305 -0.1462
   10MOL0     C 1246   4.023   6.355   3.261  0.0349  0.0460  0.7208
   10MOL0     C 1247   4.081   6.330   3.131  0.8667  0.4822 -0.7239
   10MOL0     C 1248   4.213   6.265   3.132  0.3890 -0.0500 -0.0105
   10MOL0     C 1249   4.285   6.244   3.247  0.3503  0.3659 -0.3561
   10MOL0     O 1250   4.418   6.196   3.243 -0.4657 -0.1635 -0.1903
   10MOL0     C 1251   4.500   6.269   3.332 -0.0282 -0.3953  0.0025
   10MOL0     C 1252   4.643   6.237   3.311  0.4910  0.0627 -0.5282
   10MOL0     C 1253   4.728   6.330   3.398  0.1397  0.2015  0.6220
   10MOL0     C 1254   4.872   6.291   3.396 -0.4406 -0.2552  0.1816
   10MOL0     C 1255   4.957   6.371   3.493  0.1126  0.5621 -1.1139
   10MOL0     C 1256   5.107   6.329   3.502 -0.1983  0.0525 -0.1433
   10MOL0     C 1257   5.169   6.415   3.604  0.3047  0.2979 -0.2062
   10MOL0     C 1258   5.120   6.379   3.743 -0.1032  0.3216  0.3895
   10MOL0     N 1259   5.202   6.443   3.842  0.5635  0.0100 -1.1807
   10MOL0     C 1260   5.306   6.527   3.845 -0.2783  0.3201 -0.0507
   10MOL0     C 1261   5.314   6.575   3.975 -0.2985  1.3817 -0.1257
   10MOL0     C 1262   5.409   6.686   4.028  0.5817  0.4183 -0.2489
   10MOL0     C 1263   5.368   6.813   3.959  0.9844  0.6759 -0.2255
   10MOL0     C 1264   5.413   6.936   4.030  0.5197 -0.2724  0.4066
   10MOL0     C 1265   5.560   6.952   4.028 -0.2809  0.2936 -0.6938
   10MOL0     O 1266   5.600   7.079   4.065  0.4267 -0.3463 -1.5179
   10MOL0     C 1267   5.726   7.117   4.047 -0.5860  0.4626  0.8652
   10MOL0     C 1268   5.768   7.175   3.923  0.8459 -0.9051  0.0991
   10MOL0     C 1269   5.895   7.218   3.895  0.1546 -0.6928 -0.0722
   10MOL0     C 1270   5.905   7.302   3.767 -1.2505 -0.0082  0.1858
   10MOL0     C 1271   5.995   7.210   3.996  0.8128  0.5251  0.8683
   10MOL0     C 1272   6.125   7.275   3.994  0.1162 -0.3450 -0.3014
   10MOL0     O 1273   6.212   7.252   4.107  0.0269  0.5560  0.2026
   10MOL0     C 1274   6.344   7.273   4.068  0.6376 -0.8372  0.0463
   10MOL0     C 1275   6.427   7.364   4.142 -0.3793 -0.0475  0.4888
   10MOL0     C 1276   6.559   7.388   4.100  0.5311  0.4094  0.2030
   10MOL0     C 1277   6.616   7.318   3.985  0.2164  0.3651  0.0567
   10MOL0     O 1278   6.742   7.320   3.931  0.1567 -0.6426 -0.0189
   10MOL0     C 1279   6.843   7.403   3.989  0.0455  0.6011 -0.5964
   10MOL0     C 1280   6.960   7.413   3.893  0.1613 -0.3145  0.2865
   10MOL0     C 1281   6.918   7.442   3.743 -0.8303  0.8700 -0.8549
   10MOL0     C 1282   7.028   7.393   3.649 -0.3693  0.0661  0.3564
   10MOL0     C 1283   6.989   7.445   3.515 -0.5532 -0.5169  0.3050
   10MOL0     C 1284   7.108   7.438   3.412 -0.4727  0.7424  0.6601
   10MOL0     C 1285   7.068   7.469   3.267  1.1178  0.3094 -0.6687
   10MOL0     C 1286   7.034   7.613   3.241  0.0985 -0.1631 -0.0725
   10MOL0    Cl 1287   7.148   7.736   3.324 -0.3480  0.0247 -0.4032
   10MOL0     C 1288   6.525   7.233   3.917 -0.3354  0.7976  0.7020
   10MOL0     C 1289   6.397   7.204   3.960  1.1848  0.2076 -0.0524
   10MOL0     O 1290   6.155   7.353   3.900  0.9456 -0.4163  0.1831
   10MOL0     C 1291   5.955   7.148   4.118  0.5678  0.2061 -1.2487
   10MOL0     C 1292   5.825   7.103   4.141 -0.9302 -1.0691  0.6317
   10MOL0     N 1293   5.207   6.522   4.044 -0.7947  0.1560 -0.7591
   10MOL0     N 1294   5.148   6.440   3.969 -0.0580 -0.0935 -0.4165
   10MOL0     C 1295   4.219   6.281   3.373 -0.3456  0.4265  0.4684
   10MOL0     C 1296   4.092   6.325   3.376 -0.0378 -0.2263 -0.3766
   10MOL0     C 1297   3.654   6.431   3.233 -0.3651  0.2733 -0.1873
   10MOL0     C 1298   3.624   6.434   3.370 -0.4053  0.0522 -0.2473
   10MOL0     C 1299   3.493   6.473   3.422  0.0297 -0.9358  0.1398
   10MOL0     C 1300   3.395   6.523   3.328 -0.5196 -0.4233  0.5949
   10MOL0     O 1301   3.270   6.553   3.353 -0.5431 -0.3128  0.3150
   10MOL0     C 1302   3.238   6.696   3.341 -0.1559  0.1357  0.1843
   10MOL0     C 1303   3.286   6.764   3.474  0.7341 -0.4742 -0.1196
   10MOL0     C 1304   3.222   6.902   3.486 -0.2159 -0.6214  0.0300
   10MOL0     C 1305   3.064   6.906   3.491  0.4406 -0.3741 -0.1049
   10MOL0     C 1306   3.006   6.925   3.357  0.5921 -0.6450 -1.3129
   10MOL0     C 1307   2.964   6.944   3.249  0.1218  0.1396 -0.3065
   10MOL0     C 1308   3.436   6.532   3.193 -0.2972  0.4478  0.0282
   10MOL0     C 1309   3.563   6.488   3.146  0.2442 -0.3271  0.6603
   10MOL0     C 1310   3.595   6.520   3.002 -0.2406 -0.1165 -0.4961
   10MOL0     H 1311   4.032   6.368   3.042  1.7442  1.3240 -0.8723
   10MOL0     H 1312   4.270   6.247   3.041  0.4080 -0.6890  0.1252
   10MOL0     H 1313   4.482   6.244   3.437  2.7713 -1.8149  0.2329
   10MOL0     H 1314   4.484   6.374   3.304  0.5362 -0.4046 -0.3818
   10MOL0     H 1315   4.670   6.135   3.340 -0.3678 -0.2653 -0.8428
   10MOL0     H 1316   4.657   6.248   3.203 -1.8346  1.5995 -0.7472
   10MOL0     H 1317   4.716   6.429   3.354  3.3948  0.5709  0.3304
   10MOL0     H 1318   4.696   6.312   3.501  0.9282 -3.7429  0.3391
   10MOL0     H 1319   4.878   6.183   3.413 -0.9346 -0.2208  0.5927
   10MOL0     H 1320   4.911   6.309   3.295 -0.7419  0.2022  0.1431
   10MOL0     H 1321   4.918   6.352   3.593  0.5607  1.9139 -0.6580
   10MOL0     H 1322   4.936   6.478   3.482 -0.5517  0.5709  0.0860
   10MOL0     H 1323   5.099   6.224   3.533 -1.8520 -0.2424 -1.4097
   10MOL0     H 1324   5.161   6.338   3.408 -0.3278 -4.4164 -0.8379
   10MOL0     H 1325   5.133   6.517   3.585 -1.4912  0.1073  1.8657
   10MOL0     H 1326   5.277   6.414   3.588  0.5006 -0.5875  1.0112
   10MOL0     H 1327   5.017   6.414   3.752  0.5575  2.4631  0.1773
   10MOL0     H 1328   5.126   6.271   3.753 -1.6648 -0.1881 -2.7800
   10MOL0     H 1329   5.374   6.564   3.769  1.2609 -0.7387  0.7426
   10MOL0     H 1330   5.513   6.659   4.007  0.6725  0.7499 -0.2368
   10MOL0     H 1331   5.409   6.702   4.136 -1.0656  3.9768 -0.6247
   10MOL0     H 1332   5.393   6.812   3.853  1.2590  0.5884 -0.1618
   10MOL0     H 1333   5.261   6.818   3.979  0.9837  1.1377 -0.3361
   10MOL0     H 1334   5.374   7.024   3.979 -0.2105  0.1625  1.6598
   10MOL0     H 1335   5.375   6.916   4.131  2.6950 -1.8991  0.9923
   10MOL0     H 1336   5.603   6.873   4.090  1.3358  0.6659 -1.3018
   10MOL0     H 1337   5.604   6.935   3.929 -0.0160 -0.4660 -0.4526
   10MOL0     H 1338   5.685   7.191   3.856  1.3701  2.4161  0.0805
   10MOL0     H 1339   5.811   7.320   3.714 -0.1912  2.8318 -0.9065
   10MOL0     H 1340   5.975   7.250   3.701 -1.2527  0.2470 -0.0177
   10MOL0     H 1341   5.955   7.398   3.780  0.1467 -0.6992  0.0475
   10MOL0     H 1342   6.394   7.425   4.226  1.7181 -0.1459  1.4651
   10MOL0     H 1343   6.619   7.450   4.165  1.6929  1.3339 -1.6573
   10MOL0     H 1344   6.822   7.510   3.998  0.7963  0.6868  0.1737
   10MOL0     H 1345   6.874   7.373   4.089 -3.2606  2.9671  1.3608
   10MOL0     H 1346   7.030   7.490   3.925 -1.6828  2.1314 -1.2259
   10MOL0     H 1347   7.014   7.318   3.902  0.3420 -0.2991 -0.5335
   10MOL0     H 1348   6.906   7.550   3.733 -1.3309  1.0377  1.2425
   10MOL0     H 1349   6.821   7.399   3.720 -0.2078 -0.7797 -0.5450
   10MOL0     H 1350   7.048   7.285   3.644  2.5552  0.5740 -2.1678
   10MOL0     H 1351   7.127   7.430   3.675  0.1309 -0.9623  0.0017
   10MOL0     H 1352   6.903   7.389   3.477 -1.6240  0.6348  0.9838
   10MOL0     H 1353   6.970   7.552   3.521 -0.0031 -0.4909  2.7103
   10MOL0     H 1354   7.141   7.335   3.405 -1.4628  0.4283  0.4246
   10MOL0     H 1355   7.203   7.488   3.432 -0.0042  1.7946 -3.3070
   10MOL0     H 1356   6.976   7.413   3.249  1.3493 -0.9232  1.6596
   10MOL0     H 1357   7.143   7.442   3.191  0.8754 -0.1116 -0.7645
   10MOL0     H 1358   6.931   7.633   3.274  0.7392  1.0280  1.3291
   10MOL0     H 1359   7.034   7.635   3.134  1.6904 -0.7919 -0.2224
   10MOL0     H 1360   6.561   7.188   3.825 -0.9615  0.1711  0.7540
   10MOL0     H 1361   6.343   7.115   3.931  1.6278  0.4806 -1.8942
   10MOL0     H 1362   6.033   7.135   4.193 -1.0303  0.9805  0.6289
   10MOL0     H 1363   5.797   7.058   4.236 -0.5499 -1.4277  0.5751
   10MOL0     H 1364   4.280   6.282   3.462  0.3991  0.2190 -0.0274
   10MOL0     H 1365   4.061   6.338   3.480  0.2716 -2.6773  0.1003
   10MOL0     H 1366   3.695   6.406   3.446 -0.6987  2.2696  0.9377
   10MOL0     H 1367   3.470   6.464   3.528 -1.7972 -2.6809 -0.3539
   10MOL0     H 1368   3.291   6.749   3.261  1.4525 -0.6001  0.7056
   10MOL0     H 1369   3.130   6.701   3.322 -0.2974 -2.5350 -0.0936
   10MOL0     H 1370   3.393   6.788   3.474  0.5332  0.6855  2.0818
   10MOL0     H 1371   3.270   6.693   3.556  0.2185  2.0505  2.1219
   10MOL0     H 1372   3.263   6.937   3.580  0.3420 -4.3054  1.3344
   10MOL0     H 1373   3.264   6.953   3.399 -2.8369 -0.7270 -1.4233
   10MOL0     H 1374   3.034   6.998   3.542 -0.7761  0.2299 -1.8028
   10MOL0     H 1375   3.034   6.814   3.542  1.1332 -0.6229 -0.1506
   10MOL0     H 1376   2.921   6.980   3.158 -0.1699  2.6353  0.7378
   10MOL0     H 1377   3.362   6.559   3.118 -0.8870 -1.5834 -0.1759
   10MOL0     H 1378   3.698   6.557   2.996 -0.8717  3.3219  4.1865
   10MOL0     H 1379   3.584   6.436   2.933  1.2436  2.1147 -3.7607
   10MOL0     H 1380   3.528   6.597   2.962  1.4986  1.0872 -1.2506
   11MOL0     O 1381   8.197   1.333   2.323  0.1611  0.1517 -0.0375
   11MOL0     C 1382   8.219   1.434   2.264 -0.7568 -0.5378  0.2352
   11MOL0     O 1383   8.331   1.516   2.281 -0.3341  0.0726  0.4552
   11MOL0     C 1384   8.435   1.461   2.347  0.0890 -1.4701  0.5459
   11MOL0     C 1385   8.437   1.463   2.484  0.0566 -0.0855 -0.7046
   11MOL0     C 1386   8.559   1.424   2.549  0.6175  0.0743  0.2368
   11MOL0     C 1387   8.664   1.371   2.477  0.2322 -0.9161 -0.8387
   11MOL0     O 1388   8.796   1.348   2.525  0.2758  0.1607 -0.2932
   11MOL0     C 1389   8.832   1.402   2.652 -0.2736  0.1824  0.5927
   11MOL0     C 1390   8.977   1.367   2.697  0.5216 -0.2593  0.1646
   11MOL0     C 1391   9.081   1.458   2.622  0.3199  0.0695 -0.7452
   11MOL0     C 1392   9.225   1.433   2.668  0.0595  0.3741  0.4980
   11MOL0     C 1393   9.325   1.504   2.582 -0.2626 -0.8553 -1.0250
   11MOL0     C 1394   9.476   1.446   2.585  0.8600 -0.2488 -0.5063
   11MOL0     C 1395   9.591   1.540   2.546 -0.3659 -0.1406  0.4581
   11MOL0     C 1396   9.716   1.449   2.528 -0.1590  0.5832 -0.3448
   11MOL0     N 1397   9.837   1.529   2.494  0.3962 -0.3052  0.4188
   11MOL0     C 1398   9.917   1.591   2.588 -0.3493  0.3996  0.0776
   11MOL0     C 1399  10.008   1.666   2.514 -0.2257  0.7037 -0.7582
   11MOL0     C 1400  10.107   1.773   2.563  0.6106  0.1535  0.1535
   11MOL0     C 1401  10.205   1.698   2.658  0.0736  1.2385 -0.5030
   11MOL0     C 1402  10.323   1.646   2.591 -0.1440  0.0345 -0.2867
   11MOL0     C 1403  10.447   1.649   2.678 -0.1365 -0.5375 -0.6798
   11MOL0     O 1404  10.550   1.566   2.623  0.1999  0.0075  0.5145
   11MOL0     C 1405  10.538   1.426   2.647 -0.5259 -0.5117  0.2246
   11MOL0     C 1406  10.445   1.353   2.705  0.1692  0.4147 -0.3122
   11MOL0     C 1407  10.453   1.208   2.719  0.1681  0.2493  0.5556
   11MOL0     C 1408  10.340   1.143   2.788  0.0849 -0.1141 -0.0914
   11MOL0     C 1409  10.563   1.133   2.662 -0.4877 -0.6205 -0.3360
   11MOL0     C 1410  10.582   0.984   2.659  0.3243 -0.4445 -0.0633
   11MOL0     O 1411  10.688   0.934   2.596  0.1634 -0.2277  0.2314
   11MOL0     C 1412  10.684   0.802   2.571 -0.5053 -0.3400 -0.1305
   11MOL0     C 1413  10.779   0.714   2.634 -0.1107 -0.7909  1.6059
   11MOL0     C 1414  10.799   0.582   2.595  0.5986  0.2584 -0.1181
   11MOL0     C 1415  10.719   0.530   2.493  0.0703  0.6723  0.5088
   11MOL0     O 1416  10.738   0.406   2.432  0.2150 -1.1105  0.2166
   11MOL0     C 1417  10.831   0.322   2.499  0.3890 -0.3612 -0.2360
   11MOL0     C 1418  10.832   0.180   2.449  0.2680  0.2816  0.2665
   11MOL0     C 1419  10.704   0.112   2.477 -0.3547  0.1376  0.7268
   11MOL0     C 1420  10.735  -0.033   2.467 -0.0150  0.4832  0.7155
   11MOL0     C 1421  10.603  -0.116   2.484  0.2153 -0.2490  0.2642
   11MOL0     C 1422  10.505  -0.105   2.367  1.2530 -0.1807 -0.4903
   11MOL0     C 1423  10.362  -0.098   2.440 -0.1301 -0.3536 -0.7692
   11MOL0     C 1424  10.244  -0.048   2.357  0.0759  0.6927  0.7032
   11MOL0    Cl 1425  10.211  -0.175   2.232  0.1186  0.5321  0.2017
   11MOL0     C 1426  10.622   0.608   2.432  0.1336 -0.4571  0.2943
   11MOL0     C 1427  10.594   0.745   2.480 -0.2211  0.8108 -0.2870
   11MOL0     O 1428  10.497   0.914   2.712  0.5703  0.6014  0.7223
   11MOL0     C 1429  10.669   1.221   2.606  0.6234 -0.9555  0.5026
   11MOL0     C 1430  10.654   1.356   2.600  1.0858  0.2371  0.4566
   11MOL0     N 1431   9.976   1.651   2.382  0.2713 -0.2204  0.2375
   11MOL0     N 1432   9.890   1.561   2.376 -0.0746  0.4765  0.2385
   11MOL0     C 1433   8.649   1.352   2.336  0.2672 -0.7021 -0.2164
   11MOL0     C 1434   8.540   1.400   2.264  0.1836 -0.0329  0.0733
   11MOL0     C 1435   8.110   1.500   2.185  0.1853 -0.8447 -0.1699
   11MOL0     C 1436   8.123   1.634   2.146 -0.8927  0.4849  0.2268
   11MOL0     C 1437   8.016   1.700   2.085 -0.0592  0.4866  0.4419
   11MOL0     C 1438   7.894   1.635   2.063  0.0423 -0.0143 -0.5098
   11MOL0     O 1439   7.774   1.687   2.010 -0.5364 -0.7720  0.2081
   11MOL0     C 1440   7.780   1.809   1.935 -0.2116  0.2929 -0.0107
   11MOL0     C 1441   7.751   1.916   2.045 -0.5386  0.2758  0.1767
   11MOL0     C 1442   7.603   1.952   2.044 -0.8789  0.7110 -0.1858
   11MOL0     C 1443   7.561   2.072   1.950 -0.0245  0.4759  0.0830
   11MOL0     C 1444   7.561   2.031   1.807  0.5058 -0.0625  0.2109
   11MOL0     C 1445   7.577   2.006   1.689 -0.4004  0.1411 -0.0922
   11MOL0     C 1446   7.880   1.497   2.098 -0.5722 -0.1711  0.0917
   11MOL0     C 1447   7.986   1.438   2.162 -0.2696  0.1795 -0.1321
   11MOL0     C 1448   7.965   1.287   2.181  0.0990  0.0901 -0.1038
   11MOL0     H 1449   8.353   1.512   2.532  0.0858  1.5143 -2.1767
   11MOL0     H 1450   8.565   1.447   2.655  0.0669 -1.5874  0.6735
   11MOL0     H 1451   8.769   1.340   2.716  0.8860 -0.5936  1.0181
   11MOL0     H 1452   8.813   1.509   2.660 -1.2315 -0.0436  1.6023
   11MOL0     H 1453   8.989   1.377   2.805 -1.9258  0.5472  0.4233
   11MOL0     H 1454   8.998   1.262   2.673  0.4652 -0.1213 -0.4917
   11MOL0     H 1455   9.072   1.433   2.516 -0.0747 -1.2214 -0.4267
   11MOL0     H 1456   9.051   1.562   2.639 -3.8544 -0.7686 -1.7812
   11MOL0     H 1457   9.244   1.473   2.767  3.0377 -0.4054  0.3217
   11MOL0     H 1458   9.240   1.325   2.665  0.1679  0.3926 -1.5012
   11MOL0     H 1459   9.329   1.611   2.608 -0.2974 -0.9228 -0.7389
   11MOL0     H 1460   9.306   1.500   2.475 -2.2611 -1.2649 -0.6863
   11MOL0     H 1461   9.493   1.410   2.687  1.9217  2.0432  0.1890
   11MOL0     H 1462   9.472   1.363   2.515 -1.4487  0.8779 -1.8278
   11MOL0     H 1463   9.619   1.616   2.619 -1.5923 -1.2303  2.1551
   11MOL0     H 1464   9.561   1.580   2.449  0.9003 -0.6309 -0.1606
   11MOL0     H 1465   9.748   1.417   2.627  0.9817  1.5567 -0.3729
   11MOL0     H 1466   9.704   1.364   2.459  0.8801 -0.3976  0.6496
   11MOL0     H 1467   9.913   1.593   2.696 -0.4938  0.8271  0.0654
   11MOL0     H 1468  10.060   1.854   2.620 -2.4264 -1.4774  0.1463
   11MOL0     H 1469  10.157   1.822   2.479  3.6044 -2.1347  0.4424
   11MOL0     H 1470  10.240   1.764   2.738  0.8763 -1.9687  2.0256
   11MOL0     H 1471  10.154   1.611   2.700  0.0778  0.9565 -1.0727
   11MOL0     H 1472  10.295   1.545   2.558 -3.1346  1.0160 -1.0716
   11MOL0     H 1473  10.349   1.710   2.506  0.6621  1.4107  0.9480
   11MOL0     H 1474  10.480   1.753   2.685  1.0933 -1.0481  2.7401
   11MOL0     H 1475  10.438   1.615   2.781  1.4016 -0.7795 -0.6038
   11MOL0     H 1476  10.364   1.401   2.758  0.4550  1.5483 -0.8800
   11MOL0     H 1477  10.254   1.210   2.786  1.0571  1.1805 -2.1137
   11MOL0     H 1478  10.367   1.132   2.893  0.3516  4.2767  0.4863
   11MOL0     H 1479  10.303   1.046   2.754 -0.8894  0.3956 -0.5257
   11MOL0     H 1480  10.856   0.751   2.701  2.9166 -1.8758 -0.9624
   11MOL0     H 1481  10.870   0.521   2.649  0.2521 -0.0540 -0.0095
   11MOL0     H 1482  10.934   0.359   2.493 -0.1432  1.0217 -1.7164
   11MOL0     H 1483  10.803   0.315   2.604  1.2173  0.9119  0.0847
   11MOL0     H 1484  10.859   0.166   2.344  0.3159 -0.9432  0.4304
   11MOL0     H 1485  10.911   0.134   2.508  0.9809 -0.6053 -1.3102
   11MOL0     H 1486  10.635   0.152   2.402  1.2411  1.3389 -0.1664
   11MOL0     H 1487  10.682   0.131   2.582  0.2628  2.2841  0.5244
   11MOL0     H 1488  10.810  -0.057   2.543 -1.0271  0.3051  1.6751
   11MOL0     H 1489  10.765  -0.066   2.367 -0.8307 -0.3363  0.7289
   11MOL0     H 1490  10.618  -0.224   2.490 -3.1317 -0.7636  1.3577
   11MOL0     H 1491  10.565  -0.082   2.580  0.6540  2.7744 -0.5142
   11MOL0     H 1492  10.503  -0.195   2.304 -0.4723 -0.3616 -0.2272
   11MOL0     H 1493  10.520  -0.025   2.293 -1.3964 -0.3764 -1.3222
   11MOL0     H 1494  10.362  -0.037   2.531  2.7494  0.0960 -0.9564
   11MOL0     H 1495  10.332  -0.197   2.473 -2.4170  0.7241  0.6352
   11MOL0     H 1496  10.265   0.048   2.309 -0.8386  0.8717  0.6467
   11MOL0     H 1497  10.147  -0.033   2.406 -1.3083 -0.3157 -1.5772
   11MOL0     H 1498  10.565   0.567   2.350  0.1642 -0.1850  0.1331
   11MOL0     H 1499  10.517   0.802   2.429 -0.4808  0.7438  0.0225
   11MOL0     H 1500  10.770   1.188   2.586 -0.0138 -2.7840  0.0412
   11MOL0     H 1501  10.736   1.418   2.566  0.9066  0.3078  0.1495
   11MOL0     H 1502   8.725   1.303   2.277 -0.0458 -2.6374  0.8874
   11MOL0     H 1503   8.543   1.399   2.155  3.3959  4.1658 -0.1237
   11MOL0     H 1504   8.212   1.694   2.164  0.0714  0.0312 -2.5988
   11MOL0     H 1505   8.029   1.805   2.063 -1.0944  0.4489 -0.4361
   11MOL0     H 1506   7.879   1.815   1.887 -0.1514  3.1511  0.3041
   11MOL0     H 1507   7.711   1.819   1.851  1.4984  3.3357 -1.2183
   11MOL0     H 1508   7.812   2.003   2.020  1.1762 -1.0718 -0.5083
   11MOL0     H 1509   7.770   1.890   2.149 -0.0232  2.7792  0.7694
   11MOL0     H 1510   7.540   1.863   2.049  0.6840 -0.3629  1.2452
   11MOL0     H 1511   7.579   1.999   2.140 -0.3097  1.2811 -0.3152
   11MOL0     H 1512   7.617   2.163   1.972  2.6782 -0.9690 -0.2572
   11MOL0     H 1513   7.459   2.093   1.982 -0.4152 -1.6055  0.3454
   11MOL0     H 1514   7.603   1.989   1.587 -0.6910  2.1914 -0.5595
   11MOL0     H 1515   7.789   1.441   2.078  0.4327 -2.9199  2.4453
   11MOL0     H 1516   7.974   1.261   2.287  0.0127 -0.7475 -0.2957
   11MOL0     H 1517   7.869   1.250   2.144  0.8537 -3.8983  1.3612
   11MOL0     H 1518   8.054   1.239   2.137  1.0187 -2.8881  4.3025
   12MOL0     O 1519   2.508   9.803   6.488 -0.4820 -0.2197 -0.0030
   12MOL0     C 1520   2.457   9.792   6.600  0.1179  0.1334 -0.4041
   12MOL0     O 1521   2.518   9.835   6.711 -0.1434 -0.0356 -1.2230
   12MOL0     C 1522   2.638   9.902   6.708  0.8180  0.0485  0.0350
   12MOL0     C 1523   2.660  10.013   6.795  0.0719  0.1853  0.1856
   12MOL0     C 1524   2.768  10.101   6.780 -0.4831  0.7075 -0.2583
   12MOL0     C 1525   2.879  10.069   6.694  0.5454  0.3124 -0.0908
   12MOL0     O 1526   2.976  10.158   6.676  0.2784 -0.0007 -0.3448
   12MOL0     C 1527   3.078  10.118   6.582  0.1244  0.3430 -0.8424
   12MOL0     C 1528   3.180  10.232   6.564 -0.5791 -0.0875 -0.4203
   12MOL0     C 1529   3.247  10.268   6.692 -0.4958 -0.4778  0.9332
   12MOL0     C 1530   3.362  10.355   6.650 -0.0771  0.9173 -0.7365
   12MOL0     C 1531   3.439  10.408   6.772  0.0151 -0.2560 -0.5424
   12MOL0     C 1532   3.545  10.505   6.717  0.3657  0.5980 -0.8782
   12MOL0     C 1533   3.669  10.517   6.812 -0.9950  0.7932  1.4689
   12MOL0     C 1534   3.636  10.573   6.937 -0.5397  0.4413  0.3879
   12MOL0     N 1535   3.753  10.600   7.019 -0.3523 -0.4207 -0.2872
   12MOL0     C 1536   3.861  10.671   6.973 -0.7184  0.2148 -0.2558
   12MOL0     C 1537   3.963  10.634   7.059  0.0830 -0.2073  0.7175
   12MOL0     C 1538   4.115  10.668   7.027  0.3775 -0.6616  0.4761
   12MOL0     C 1539   4.210  10.634   7.140 -0.0009  0.0297  0.5613
   12MOL0     C 1540   4.197  10.737   7.248 -0.7430 -0.0666 -0.3299
   12MOL0     C 1541   4.280  10.701   7.368 -0.3424 -0.0648 -0.2724
   12MOL0     O 1542   4.416  10.668   7.331  0.2700  0.5121 -0.9301
   12MOL0     C 1543   4.506  10.641   7.432 -0.1456  0.1908 -0.1300
   12MOL0     C 1544   4.485  10.641   7.573  0.1999  0.5505 -0.4551
   12MOL0     C 1545   4.600  10.615   7.664  1.0097 -0.7219 -0.2705
   12MOL0     C 1546   4.575  10.604   7.812  0.1973 -0.5897 -0.1960
   12MOL0     C 1547   4.732  10.593   7.617 -0.4492  1.0020  0.8980
   12MOL0     C 1548   4.852  10.572   7.708 -0.1225  0.0954 -0.0131
   12MOL0     O 1549   4.937  10.472   7.667  0.8163 -0.7640  0.1086
   12MOL0     C 1550   5.055  10.447   7.726  0.8881 -0.0111  1.0139
   12MOL0     C 1551   5.155  10.405   7.646 -0.0190  0.1150 -0.7871
   12MOL0     C 1552   5.282  10.369   7.698  0.1595 -0.0784 -0.5076
   12MOL0     C 1553   5.296  10.360   7.840 -0.3612 -0.0991 -0.0426
   12MOL0     O 1554   5.405  10.315   7.906  0.1177 -0.2030 -0.2944
   12MOL0     C 1555   5.472  10.187   7.865  0.2417 -0.0280 -0.1611
   12MOL0     C 1556   5.605  10.183   7.934 -0.4964  1.0146 -0.6642
   12MOL0     C 1557   5.674  10.054   7.904 -0.5323 -1.3553 -0.2953
   12MOL0     C 1558   5.812  10.038   7.956 -0.5167  0.0359  0.2414
   12MOL0     C 1559   5.873   9.903   7.923  0.4111  0.6969 -0.8205
   12MOL0     C 1560   6.027   9.920   7.898 -0.7133 -0.6903  0.4551
   12MOL0     C 1561   6.091   9.790   7.833  0.2592  0.3079  0.1968
   12MOL0     C 1562   6.244   9.816   7.800  0.3179  0.1797 -0.5819
   12MOL0    Cl 1563   6.311   9.647   7.755  0.4276 -0.2708 -0.3039
   12MOL0     C 1564   5.192  10.403   7.922 -0.5981 -1.0963  0.6464
   12MOL0     C 1565   5.078  10.457   7.864  0.0547 -0.6920 -0.3160
   12MOL0     O 1566   4.870  10.641   7.806  0.8243 -0.1670 -0.6012
   12MOL0     C 1567   4.748  10.585   7.476  0.0931  0.6522 -0.2647
   12MOL0     C 1568   4.637  10.601   7.393  0.5465  0.4938  0.2535
   12MOL0     N 1569   3.910  10.563   7.159 -0.2699 -0.6894  1.0340
   12MOL0     N 1570   3.786  10.537   7.134 -0.1081 -0.4661 -0.3004
   12MOL0     C 1571   2.868   9.945   6.620 -0.2019 -0.8735 -0.1523
   12MOL0     C 1572   2.742   9.875   6.619 -1.2883  0.1476 -0.4136
   12MOL0     C 1573   2.323   9.724   6.630 -0.6402 -0.0901 -0.4650
   12MOL0     C 1574   2.278   9.729   6.765  0.1841 -0.0521 -0.8508
   12MOL0     C 1575   2.148   9.682   6.788  0.9905 -0.1523 -0.1032
   12MOL0     C 1576   2.070   9.638   6.688 -0.4757  0.8968  0.4642
   12MOL0     O 1577   1.939   9.607   6.704  0.1217 -0.8223 -0.0134
   12MOL0     C 1578   1.873   9.617   6.836 -0.0127 -0.3184  0.3433
   12MOL0     C 1579   1.726   9.579   6.831  0.1577  0.0038 -0.3292
   12MOL0     C 1580   1.641   9.685   6.767  0.0485  0.2323  0.4167
   12MOL0     C 1581   1.492   9.658   6.776  0.3715  0.3898  0.3619
   12MOL0     C 1582   1.456   9.558   6.669 -0.5722 -0.2111  0.1474
   12MOL0     C 1583   1.430   9.484   6.579  0.4525  0.1818 -0.1565
   12MOL0     C 1584   2.113   9.628   6.552  0.3724  0.5083  0.7649
   12MOL0     C 1585   2.246   9.669   6.530  0.0650  0.0723 -0.8561
   12MOL0     C 1586   2.295   9.656   6.394 -0.1961 -0.6495  0.2013
   12MOL0     H 1587   2.582  10.042   6.864  1.3973  1.1264  1.3451
   12MOL0     H 1588   2.778  10.193   6.836  0.0846  0.7727 -0.4672
   12MOL0     H 1589   3.030  10.095   6.487  2.1333 -3.6214 -1.0884
   12MOL0     H 1590   3.127  10.026   6.614  1.8857  0.3260 -3.3174
   12MOL0     H 1591   3.260  10.190   6.502  1.5130  0.5017  1.7332
   12MOL0     H 1592   3.137  10.318   6.513  2.4577  0.3844 -2.4685
   12MOL0     H 1593   3.170  10.322   6.748 -0.6953  1.8663 -1.4174
   12MOL0     H 1594   3.279  10.170   6.728  0.2174 -1.4784 -2.1056
   12MOL0     H 1595   3.437  10.307   6.586 -2.0335  1.2662 -3.4725
   12MOL0     H 1596   3.322  10.439   6.593 -0.1543  0.2208 -1.7321
   12MOL0     H 1597   3.476  10.325   6.833  0.9401  0.3733 -0.2248
   12MOL0     H 1598   3.360  10.453   6.833 -0.3437 -1.2731 -0.2359
   12MOL0     H 1599   3.572  10.477   6.615 -1.1681  0.4008 -1.2569
   12MOL0     H 1600   3.502  10.605   6.707 -1.9196 -0.2858 -0.3543
   12MOL0     H 1601   3.735  10.587   6.760  0.6252  1.6245  4.4028
   12MOL0     H 1602   3.717  10.419   6.819  1.7193  1.7929 -0.8909
   12MOL0     H 1603   3.590  10.670   6.916 -1.8965 -0.3126 -0.2376
   12MOL0     H 1604   3.557  10.516   6.987 -0.5747  0.2799  0.1499
   12MOL0     H 1605   3.862  10.730   6.882  3.8747  1.8715  0.5964
   12MOL0     H 1606   4.116  10.777   7.014 -1.1717 -0.6115  0.5071
   12MOL0     H 1607   4.151  10.629   6.931 -0.9679  2.0060 -1.2424
   12MOL0     H 1608   4.195  10.534   7.180 -1.6840  1.1419  2.9676
   12MOL0     H 1609   4.315  10.643   7.108 -0.2408 -1.0137 -0.5864
   12MOL0     H 1610   4.239  10.825   7.200  1.7189 -0.4011  1.0622
   12MOL0     H 1611   4.091  10.753   7.272 -1.3248 -2.1210 -1.3366
   12MOL0     H 1612   4.297  10.790   7.429  2.0577 -0.5938 -0.0374
   12MOL0     H 1613   4.234  10.618   7.423 -1.2077 -0.9209 -2.1842
   12MOL0     H 1614   4.390  10.666   7.618  0.4279 -3.1392  2.5707
   12MOL0     H 1615   4.467  10.610   7.827  0.0154 -4.2183  0.8315
   12MOL0     H 1616   4.625  10.677   7.877  1.5462 -2.3952  0.9065
   12MOL0     H 1617   4.587  10.501   7.847 -4.0477 -0.8880  0.8745
   12MOL0     H 1618   5.146  10.413   7.538  0.9904  1.3138 -0.8008
   12MOL0     H 1619   5.363  10.346   7.630 -1.0765 -2.7071 -1.2071
   12MOL0     H 1620   5.410  10.101   7.894  0.7693 -0.5846 -0.6563
   12MOL0     H 1621   5.477  10.178   7.756 -1.3890  0.0672 -0.2665
   12MOL0     H 1622   5.662  10.267   7.893 -1.0815  1.0145 -1.4963
   12MOL0     H 1623   5.575  10.188   8.039 -1.0224  1.3100 -0.8245
   12MOL0     H 1624   5.681  10.047   7.795 -1.2102 -1.8460 -0.3122
   12MOL0     H 1625   5.613   9.970   7.938 -2.7951 -0.6748 -2.3714
   12MOL0     H 1626   5.809  10.055   8.065  2.5457  4.1454 -0.0709
   12MOL0     H 1627   5.875  10.120   7.920  3.8824 -0.5960  5.2133
   12MOL0     H 1628   5.868   9.833   8.007  0.0629  2.0917  0.3601
   12MOL0     H 1629   5.820   9.866   7.834 -1.3029  0.3599  0.2827
   12MOL0     H 1630   6.066   9.944   7.998 -1.3956  1.2685  0.2995
   12MOL0     H 1631   6.052  10.001   7.829 -0.9594 -0.0596  1.0974
   12MOL0     H 1632   6.038   9.761   7.742  1.0222  1.4477 -0.6362
   12MOL0     H 1633   6.081   9.704   7.900  1.0199 -1.1654 -1.5096
   12MOL0     H 1634   6.298   9.848   7.889 -2.4023 -0.7996  1.5498
   12MOL0     H 1635   6.261   9.881   7.714  1.3868  0.8743  0.1359
   12MOL0     H 1636   5.199  10.395   8.030  1.4692  2.8813  0.9982
   12MOL0     H 1637   4.996  10.492   7.925 -0.2318 -1.3575 -0.3106
   12MOL0     H 1638   4.849  10.570   7.438 -0.3324 -1.9360 -0.5092
   12MOL0     H 1639   4.654  10.596   7.285  0.4628 -0.2237  0.2709
   12MOL0     H 1640   2.950   9.913   6.557  1.4023  3.0103 -0.3501
   12MOL0     H 1641   2.740   9.781   6.565  0.1956 -0.2813  0.2147
   12MOL0     H 1642   2.344   9.760   6.846  1.0760 -4.1233  0.2358
   12MOL0     H 1643   2.119   9.689   6.893  1.0502 -2.4536  0.1188
   12MOL0     H 1644   1.930   9.549   6.901  0.0857 -0.5766 -0.0094
   12MOL0     H 1645   1.882   9.717   6.878  1.9849 -0.6641  0.8624
   12MOL0     H 1646   1.696   9.571   6.935  1.1250 -0.3636 -0.0639
   12MOL0     H 1647   1.725   9.481   6.783  0.8069  0.7330 -1.9177
   12MOL0     H 1648   1.660   9.779   6.820  3.9037  0.9109 -1.8351
   12MOL0     H 1649   1.658   9.709   6.662 -0.9496  1.2784  0.4725
   12MOL0     H 1650   1.435   9.749   6.757  0.5959  0.3869 -0.3674
   12MOL0     H 1651   1.460   9.633   6.878  4.4676  1.4136  2.1003
   12MOL0     H 1652   1.397   9.410   6.509 -1.5450  0.0423  0.8577
   12MOL0     H 1653   2.047   9.599   6.472  1.3695  3.8453 -1.4800
   12MOL0     H 1654   2.225   9.588   6.345 -0.7470 -1.0900  1.5255
   12MOL0     H 1655   2.270   9.753   6.349 -1.2041  0.1403  2.2760
   12MOL0     H 1656   2.399   9.629   6.375 -0.4248 -0.2542 -1.7755
   13MOL0     O 1657   1.342   3.151   6.044  0.2155 -0.3126  0.4736
   13MOL0     C 1658   1.377   3.254   6.097  0.2029 -0.1022 -0.1817
   13MOL0     O 1659   1.294   3.340   6.168 -0.3639  0.4028  0.0708
   13MOL0     C 1660   1.161   3.309   6.200 -0.4801 -0.1626 -0.3567
   13MOL0     C 1661   1.052   3.341   6.123 -0.8201  0.4976  0.6773
   13MOL0     C 1662   0.923   3.310   6.163 -0.0528  0.1876  0.0068
   13MOL0     C 1663   0.901   3.238   6.282 -0.4952 -0.3586 -1.1709
   13MOL0     O 1664   0.774   3.216   6.324 -0.0471  0.2591 -0.4780
   13MOL0     C 1665   0.682   3.161   6.224  0.5321 -0.6928 -0.4821
   13MOL0     C 1666   0.549   3.204   6.259 -0.0609  0.1814  0.5302
   13MOL0     C 1667   0.429   3.146   6.189  0.0600 -0.8921 -0.8749
   13MOL0     C 1668   0.305   3.216   6.260 -0.3810 -0.6475 -0.2340
   13MOL0     C 1669   0.174   3.183   6.190  0.4595 -0.8114 -0.8891
   13MOL0     C 1670   0.052   3.275   6.223 -0.6240 -0.9219  0.1263
   13MOL0     C 1671  -0.081   3.234   6.167  0.0586  0.3835 -0.5983
   13MOL0     C 1672  -0.192   3.340   6.175  0.2653 -0.0519 -0.0902
   13MOL0     N 1673  -0.223   3.386   6.315  0.9715 -0.0618 -0.3391
   13MOL0     C 1674  -0.142   3.479   6.376 -0.1470 -0.2022  0.5000
   13MOL0     C 1675  -0.200   3.502   6.493  0.5864  0.4874 -0.0532
   13MOL0     C 1676  -0.154   3.587   6.603 -0.1321  0.0902 -0.9369
   13MOL0     C 1677  -0.107   3.723   6.564  1.2582  0.1248 -0.1180
   13MOL0     C 1678  -0.100   3.818   6.682 -0.0640  0.5254 -0.1996
   13MOL0     C 1679  -0.065   3.959   6.635 -0.1146 -0.6400 -0.8421
   13MOL0     O 1680   0.040   3.972   6.539 -0.1919  0.1087  0.2440
   13MOL0     C 1681   0.172   3.965   6.578 -0.2230 -0.3282 -0.1797
   13MOL0     C 1682   0.271   4.009   6.486  0.5862 -0.6887 -0.2784
   13MOL0     C 1683   0.401   4.024   6.523  0.2150 -0.3537  0.7002
   13MOL0     C 1684   0.493   4.085   6.416  0.1554  0.4677  0.0445
   13MOL0     C 1685   0.443   3.997   6.654  0.1757 -0.0848 -0.1573
   13MOL0     C 1686   0.582   4.018   6.704  0.1653  0.2429  0.1743
   13MOL0     O 1687   0.622   3.924   6.801  0.5365  0.3473 -0.3461
   13MOL0     C 1688   0.756   3.917   6.819 -0.3545  0.3416 -0.3968
   13MOL0     C 1689   0.837   3.870   6.716 -0.4550  0.5274 -0.4525
   13MOL0     C 1690   0.971   3.865   6.753 -0.7560  0.9781 -0.0308
   13MOL0     C 1691   1.027   3.915   6.868  0.5719  0.2613  0.6111
   13MOL0     O 1692   1.163   3.897   6.885  0.2388 -0.1228 -0.2401
   13MOL0     C 1693   1.225   3.979   6.982  0.4053 -0.4409  0.0021
   13MOL0     C 1694   1.368   4.025   6.939 -0.0810  0.4038 -0.1687
   13MOL0     C 1695   1.471   3.905   6.935 -0.1388 -0.7255  0.4406
   13MOL0     C 1696   1.600   3.947   6.850  0.1813  0.2448  0.3010
   13MOL0     C 1697   1.698   4.023   6.945  0.2044  0.1698 -0.0355
   13MOL0     C 1698   1.786   3.931   7.028  0.4516  0.8333 -0.1574
   13MOL0     C 1699   1.858   3.806   6.963  0.4429  0.0295 -0.4682
   13MOL0     C 1700   1.942   3.737   7.079  0.1439 -0.2415  0.7114
   13MOL0    Cl 1701   2.038   3.599   7.006 -0.2018 -0.1225 -0.1495
   13MOL0     C 1702   0.941   3.969   6.968  0.5314  0.0650  0.2817
   13MOL0     C 1703   0.804   3.970   6.938 -0.1158 -0.0992 -0.5637
   13MOL0     O 1704   0.647   4.118   6.667  0.1226  0.3395  0.2134
   13MOL0     C 1705   0.347   3.933   6.743  0.0063 -0.7341  0.6728
   13MOL0     C 1706   0.219   3.926   6.700  0.1905  0.3917 -0.5585
   13MOL0     N 1707  -0.317   3.422   6.506 -0.0995 -0.0978  0.0651
   13MOL0     N 1708  -0.324   3.346   6.398  0.5967 -0.5106 -0.0032
   13MOL0     C 1709   1.015   3.195   6.347  0.2142 -0.7717 -0.7501
   13MOL0     C 1710   1.146   3.224   6.313  0.1455 -0.2418 -0.6582
   13MOL0     C 1711   1.519   3.292   6.097  0.0613  0.4258 -0.3261
   13MOL0     C 1712   1.576   3.349   6.215 -0.2150  0.6663  0.4103
   13MOL0     C 1713   1.709   3.379   6.214 -0.3100 -0.6737  0.3694
   13MOL0     C 1714   1.788   3.369   6.101  0.3299  0.9366  0.3251
   13MOL0     O 1715   1.911   3.421   6.090 -0.3110  0.6082  0.1317
   13MOL0     C 1716   1.971   3.491   6.204  0.2803 -0.0571  0.5038
   13MOL0     C 1717   2.107   3.547   6.186 -0.3346 -0.3390  0.7966
   13MOL0     C 1718   2.212   3.440   6.167 -1.0739  0.2283  0.9032
   13MOL0     C 1719   2.320   3.493   6.065  0.8525  0.4342 -0.1557
   13MOL0     C 1720   2.415   3.585   6.128 -0.2977  0.6898 -0.8412
   13MOL0     C 1721   2.503   3.651   6.175  0.4879 -0.4504 -0.0424
   13MOL0     C 1722   1.735   3.315   5.990 -0.8293  1.0709 -0.2133
   13MOL0     C 1723   1.597   3.271   5.983  0.0760  0.2930  0.5315
   13MOL0     C 1724   1.536   3.234   5.845  0.3452 -0.5720  0.0691
   13MOL0     H 1725   1.067   3.385   6.025  0.8517 -0.7248  0.3532
   13MOL0     H 1726   0.839   3.353   6.109 -0.8166  0.1669  1.1447
   13MOL0     H 1727   0.677   3.051   6.229 -1.0958 -0.6826 -1.4554
   13MOL0     H 1728   0.701   3.194   6.122 -1.4886  0.5613 -0.4843
   13MOL0     H 1729   0.541   3.182   6.366  2.7566 -2.1415  0.3887
   13MOL0     H 1730   0.555   3.312   6.240  0.7161  0.3483  1.6127
   13MOL0     H 1731   0.446   3.173   6.084  0.0995  2.0203 -0.2236
   13MOL0     H 1732   0.419   3.038   6.204  0.6928 -1.0526 -1.5481
   13MOL0     H 1733   0.302   3.180   6.363  3.6246  2.3107  1.1579
   13MOL0     H 1734   0.314   3.324   6.266 -0.5560 -0.7099  2.3556
   13MOL0     H 1735   0.155   3.078   6.213 -0.6401  0.1676  3.7388
   13MOL0     H 1736   0.189   3.201   6.083 -1.1201  4.2959 -0.5292
   13MOL0     H 1737   0.035   3.281   6.331 -1.7076  2.7356 -0.1199
   13MOL0     H 1738   0.078   3.374   6.186  3.7664 -1.1252  2.0530
   13MOL0     H 1739  -0.120   3.150   6.225  4.0082 -0.3287  1.3555
   13MOL0     H 1740  -0.064   3.201   6.064 -1.6763 -0.4758 -0.6494
   13MOL0     H 1741  -0.155   3.426   6.117  0.1504  0.0222 -0.0540
   13MOL0     H 1742  -0.287   3.320   6.126  0.4607 -1.1207 -0.0506
   13MOL0     H 1743  -0.055   3.528   6.332  0.0435 -0.7034  0.3155
   13MOL0     H 1744  -0.077   3.538   6.663 -0.1775  1.4751  0.3050
   13MOL0     H 1745  -0.229   3.596   6.683  1.0449 -0.8021  0.3174
   13MOL0     H 1746  -0.017   3.721   6.501  2.3370 -0.4799  1.3557
   13MOL0     H 1747  -0.181   3.764   6.495 -1.4544 -3.6267  0.2811
   13MOL0     H 1748  -0.197   3.816   6.732 -0.2162 -0.1188 -0.5031
   13MOL0     H 1749  -0.028   3.776   6.752 -1.7300 -0.6317  0.8896
   13MOL0     H 1750  -0.153   4.002   6.586 -1.0651  0.1760  1.4260
   13MOL0     H 1751  -0.054   4.013   6.729 -0.2500 -0.4333 -0.9440
   13MOL0     H 1752   0.243   4.035   6.385  1.8417 -0.9758 -0.7217
   13MOL0     H 1753   0.445   4.074   6.319 -1.4985  0.6968  0.7891
   13MOL0     H 1754   0.583   4.024   6.428  0.2328  0.7925  1.2597
   13MOL0     H 1755   0.508   4.192   6.437 -2.2090  0.9620 -0.4677
   13MOL0     H 1756   0.801   3.835   6.620  0.5223 -0.8675 -0.3307
   13MOL0     H 1757   1.052   3.827   6.691  0.3819  2.4858  0.4624
   13MOL0     H 1758   1.172   4.073   7.002 -2.2508 -1.3446 -2.0419
   13MOL0     H 1759   1.238   3.929   7.079  0.2488  0.1972  0.3565
   13MOL0     H 1760   1.362   4.075   6.842 -0.5592 -1.3461 -1.0836
   13MOL0     H 1761   1.399   4.092   7.020 -4.9909  2.3571  0.4031
   13MOL0     H 1762   1.425   3.821   6.882  0.9809 -0.2241 -1.3712
   13MOL0     H 1763   1.496   3.864   7.034 -1.5721 -1.8764  0.3642
   13MOL0     H 1764   1.563   4.020   6.779  2.0742  0.5382 -0.4555
   13MOL0     H 1765   1.647   3.865   6.794  1.9357 -0.6631  2.8961
   13MOL0     H 1766   1.763   4.081   6.878 -0.6658 -0.5946 -1.5778
   13MOL0     H 1767   1.647   4.096   7.009  3.2345  2.7068 -0.2500
   13MOL0     H 1768   1.717   3.896   7.105  0.1650 -0.2399 -0.8821
   13MOL0     H 1769   1.857   4.002   7.071 -0.5500  2.7360 -1.4585
   13MOL0     H 1770   1.926   3.846   6.887 -0.0390 -2.1936 -2.1793
   13MOL0     H 1771   1.787   3.746   6.905 -0.8229  1.6176 -0.6133
   13MOL0     H 1772   1.878   3.688   7.152 -1.1597  0.7452  0.2581
   13MOL0     H 1773   2.006   3.811   7.127 -0.2583 -0.7586  2.0765
   13MOL0     H 1774   0.983   3.983   7.067  3.9100 -0.0747 -1.0199
   13MOL0     H 1775   0.736   3.999   7.018 -0.3101 -0.4811 -0.5879
   13MOL0     H 1776   0.367   3.895   6.843 -1.5081 -1.9464  0.5618
   13MOL0     H 1777   0.148   3.883   6.770 -0.3589  0.4770 -1.0555
   13MOL0     H 1778   0.998   3.129   6.432 -0.9953 -0.5828 -0.8262
   13MOL0     H 1779   1.232   3.183   6.366 -0.6275  0.5069  1.2899
   13MOL0     H 1780   1.514   3.371   6.301 -1.2073 -1.4055  0.3025
   13MOL0     H 1781   1.749   3.427   6.302  1.0969  0.4070 -0.8084
   13MOL0     H 1782   1.909   3.576   6.235  1.1455  0.8379 -0.1886
   13MOL0     H 1783   1.963   3.428   6.294 -0.5693 -1.9795 -0.8336
   13MOL0     H 1784   2.148   3.604   6.270  5.7576 -1.5070 -0.8912
   13MOL0     H 1785   2.095   3.614   6.100 -0.8557  0.8184  1.7307
   13MOL0     H 1786   2.256   3.414   6.264  0.2264  0.5260  0.4044
   13MOL0     H 1787   2.163   3.348   6.132 -0.8532 -0.0643  1.3515
   13MOL0     H 1788   2.273   3.544   5.980 -1.0804 -0.6477  0.1929
   13MOL0     H 1789   2.377   3.406   6.031  1.3907  0.7122  0.0275
   13MOL0     H 1790   2.582   3.706   6.222  0.1534 -1.9881  2.5624
   13MOL0     H 1791   1.799   3.327   5.903 -0.2324  2.5675  0.4030
   13MOL0     H 1792   1.427   3.249   5.853  0.3963 -0.3766  0.4146
   13MOL0     H 1793   1.575   3.308   5.775  1.8284  0.5538  2.0192
   13MOL0     H 1794   1.555   3.130   5.817 -0.1041 -1.3150  2.3286
   14MOL0     O 1795   2.857   5.212   8.153 -0.7091  0.3526 -0.0239
   14MOL0     C 1796   2.858   5.099   8.102  0.3050 -0.7154  0.1874
   14MOL0     O 1797   2.953   5.053   8.011 -0.4527  0.0417 -0.5618
   14MOL0     C 1798   3.027   5.147   7.952 -0.2991  0.7270 -0.3148
   14MOL0     C 1799   2.971   5.239   7.868  0.3139 -1.0105  0.6555
   14MOL0     C 1800   3.055   5.330   7.798 -0.0816  0.3255  0.4658
   14MOL0     C 1801   3.192   5.324   7.814 -0.1737 -0.1895  0.4425
   14MOL0     O 1802   3.260   5.427   7.744  0.8910  0.1511 -0.6547
   14MOL0     C 1803   3.399   5.437   7.750  0.2483  0.4182  0.3834
   14MOL0     C 1804   3.450   5.502   7.625 -0.1291 -0.1722 -0.4217
   14MOL0     C 1805   3.602   5.477   7.619 -0.0446 -0.1898 -0.1026
   14MOL0     C 1806   3.668   5.517   7.490  0.9705 -0.1044 -0.1995
   14MOL0     C 1807   3.816   5.495   7.492 -0.9064 -0.1273 -0.8704
   14MOL0     C 1808   3.886   5.514   7.355  0.1857 -0.3675  0.3377
   14MOL0     C 1809   4.036   5.498   7.361 -0.3579 -0.8296 -0.2660
   14MOL0     C 1810   4.094   5.450   7.228  0.1833 -0.2491  0.4126
   14MOL0     N 1811   4.240   5.420   7.229 -0.1309 -0.6502  0.2441
   14MOL0     C 1812   4.303   5.344   7.315 -0.0030 -0.1035 -0.7145
   14MOL0     C 1813   4.429   5.337   7.270 -0.5523 -0.2065 -0.2368
   14MOL0     C 1814   4.542   5.254   7.338 -0.4469 -0.1965  1.2280
   14MOL0     C 1815   4.619   5.344   7.431 -0.4072  0.1722  0.5464
   14MOL0     C 1816   4.698   5.453   7.350 -0.7231 -0.6111  0.6325
   14MOL0     C 1817   4.794   5.513   7.451  0.5671  0.5104  0.7408
   14MOL0     O 1818   4.851   5.617   7.371 -0.1215  0.7523  0.3366
   14MOL0     C 1819   4.961   5.686   7.405 -0.0004 -0.4042 -0.3421
   14MOL0     C 1820   5.015   5.751   7.294 -0.2558 -0.2101 -0.0258
   14MOL0     C 1821   5.135   5.819   7.306  0.8620  0.3095 -0.9420
   14MOL0     C 1822   5.199   5.874   7.181 -0.0779 -0.1696  0.3221
   14MOL0     C 1823   5.192   5.826   7.434  1.3090 -0.1621  0.7112
   14MOL0     C 1824   5.322   5.886   7.457  0.0771  0.8855 -0.4448
   14MOL0     O 1825   5.416   5.810   7.502  0.1584  0.4156 -0.4579
   14MOL0     C 1826   5.546   5.855   7.510 -0.1951  0.2732  0.0553
   14MOL0     C 1827   5.614   5.879   7.389  0.5028 -0.7356 -0.1885
   14MOL0     C 1828   5.746   5.929   7.395  0.5878 -0.0395  0.9448
   14MOL0     C 1829   5.799   5.972   7.516 -0.8324  0.3966 -0.0698
   14MOL0     O 1830   5.920   6.018   7.531 -0.5927  0.4461 -0.0142
   14MOL0     C 1831   5.963   6.125   7.442 -0.7745  0.3901  1.1068
   14MOL0     C 1832   6.112   6.163   7.480  0.1289  0.7383 -0.1443
   14MOL0     C 1833   6.212   6.050   7.443 -0.3688 -0.1075  1.3032
   14MOL0     C 1834   6.259   6.076   7.298  0.3991  0.2102  0.2182
   14MOL0     C 1835   6.323   5.955   7.241 -0.5107  0.9035  0.2860
   14MOL0     C 1836   6.464   5.940   7.293 -0.2777  0.0565  0.7029
   14MOL0     C 1837   6.542   5.835   7.218 -0.0827  0.2217 -0.1024
   14MOL0     C 1838   6.656   5.777   7.306  0.2144  0.0159 -0.2952
   14MOL0    Cl 1839   6.786   5.902   7.350  0.1965  0.0796  0.3446
   14MOL0     C 1840   5.728   5.964   7.634  0.3602  0.1558 -0.0552
   14MOL0     C 1841   5.598   5.908   7.631 -0.4312  1.1732 -0.2396
   14MOL0     O 1842   5.343   6.006   7.429 -0.1481 -0.1132  0.1723
   14MOL0     C 1843   5.136   5.766   7.549  0.9456  0.0905 -0.0996
   14MOL0     C 1844   5.016   5.692   7.536 -0.3006  0.3569 -0.0488
   14MOL0     N 1845   4.445   5.409   7.151  0.2648 -0.3144 -0.5121
   14MOL0     N 1846   4.327   5.464   7.135 -0.4980  0.0748  0.2203
   14MOL0     C 1847   3.245   5.240   7.911  0.1478  0.4200 -0.8041
   14MOL0     C 1848   3.161   5.153   7.988 -0.0445 -0.5115  0.7194
   14MOL0     C 1849   2.747   5.007   8.132  0.4749 -0.0911  0.5861
   14MOL0     C 1850   2.714   4.922   8.020 -0.3052  0.6465 -1.0150
   14MOL0     C 1851   2.603   4.832   8.028 -0.2234 -0.3987 -0.7362
   14MOL0     C 1852   2.517   4.833   8.140 -0.0318  0.7902 -0.4748
   14MOL0     O 1853   2.435   4.729   8.140  0.5732  0.1120 -0.0501
   14MOL0     C 1854   2.296   4.746   8.177  0.4275 -0.8752 -0.4609
   14MOL0     C 1855   2.213   4.844   8.085 -0.0544  0.2577 -0.9893
   14MOL0     C 1856   2.167   4.773   7.953  0.0487 -0.2422  0.0479
   14MOL0     C 1857   2.280   4.734   7.857 -0.3665  0.9439 -0.2873
   14MOL0     C 1858   2.229   4.748   7.721  0.2145  1.0422 -0.6716
   14MOL0     C 1859   2.194   4.756   7.531  0.1924 -0.5618 -0.0565
   14MOL0     C 1860   2.554   4.909   8.249 -0.0465 -0.2589 -0.1269
   14MOL0     C 1861   2.663   5.006   8.249 -0.3791 -0.1370  0.2320
   14MOL0     C 1862   2.675   5.080   8.377  0.0483  0.2375 -0.3819
   14MOL0     H 1863   2.867   5.249   7.839  0.7446 -0.6763 -0.9002
   14MOL0     H 1864   3.015   5.395   7.720  1.9288 -2.3247 -3.0629
   14MOL0     H 1865   3.442   5.337   7.759  0.4109 -0.1064 -3.9946
   14MOL0     H 1866   3.425   5.497   7.838 -0.0568  0.2264  0.6038
   14MOL0     H 1867   3.404   5.455   7.538 -1.6195  0.6658 -0.1144
   14MOL0     H 1868   3.425   5.609   7.631  1.1891  0.1123  0.5391
   14MOL0     H 1869   3.647   5.528   7.705  0.5208 -2.0777  0.7748
   14MOL0     H 1870   3.625   5.371   7.633  1.0694  0.1417  0.7406
   14MOL0     H 1871   3.619   5.464   7.407 -1.1555  1.8741 -0.2953
   14MOL0     H 1872   3.639   5.621   7.479  0.4220 -0.2838 -0.4975
   14MOL0     H 1873   3.839   5.396   7.532 -0.5560  1.4891  3.4370
   14MOL0     H 1874   3.853   5.563   7.569  1.2854  0.3537 -2.2523
   14MOL0     H 1875   3.839   5.454   7.277  0.2734  0.2967 -0.2397
   14MOL0     H 1876   3.875   5.615   7.314 -2.9532 -0.2274  1.2348
   14MOL0     H 1877   4.048   5.414   7.431  0.1961 -0.6856 -0.1790
   14MOL0     H 1878   4.096   5.585   7.391  0.9161 -0.5491 -3.3043
   14MOL0     H 1879   4.036   5.363   7.195 -2.3073  0.3538  2.7342
   14MOL0     H 1880   4.084   5.534   7.160  2.3725  0.3940  0.8237
   14MOL0     H 1881   4.268   5.322   7.415  0.4760  4.9673  0.8323
   14MOL0     H 1882   4.599   5.204   7.259 -0.2739 -0.4191  1.4931
   14MOL0     H 1883   4.489   5.177   7.393 -1.5655 -2.4707 -2.6243
   14MOL0     H 1884   4.560   5.400   7.503 -0.3067  1.4878 -0.3696
   14MOL0     H 1885   4.677   5.268   7.484 -1.5010 -2.0049 -1.1985
   14MOL0     H 1886   4.749   5.417   7.261 -0.8068 -2.6757  1.3562
   14MOL0     H 1887   4.620   5.524   7.320 -0.7349  0.3592  2.7406
   14MOL0     H 1888   4.747   5.555   7.540  1.6940 -2.5091  2.8977
   14MOL0     H 1889   4.873   5.445   7.482  1.7484 -0.1562 -3.1351
   14MOL0     H 1890   4.972   5.745   7.194  0.7238 -2.4603 -0.3733
   14MOL0     H 1891   5.184   5.806   7.097  3.2581 -0.6772  0.0084
   14MOL0     H 1892   5.308   5.872   7.186  0.0709 -2.2450 -1.9430
   14MOL0     H 1893   5.167   5.977   7.162  0.4153 -0.0610  0.0466
   14MOL0     H 1894   5.562   5.867   7.294 -1.8395 -0.8856  1.0366
   14MOL0     H 1895   5.812   5.952   7.311  0.5107 -1.7323  0.3779
   14MOL0     H 1896   5.954   6.097   7.336 -0.9228 -2.2409  1.7459
   14MOL0     H 1897   5.892   6.205   7.461  1.0662  2.3020  0.3300
   14MOL0     H 1898   6.141   6.259   7.436  0.3157  0.9287  0.3875
   14MOL0     H 1899   6.119   6.174   7.588 -0.8032 -4.7509  0.7800
   14MOL0     H 1900   6.158   5.954   7.447 -2.0190  0.3528 -3.3577
   14MOL0     H 1901   6.300   6.066   7.505  1.9517  4.8231 -2.5825
   14MOL0     H 1902   6.322   6.164   7.291 -0.0892  0.5106 -0.4875
   14MOL0     H 1903   6.168   6.099   7.241 -0.9692  2.5684  3.0465
   14MOL0     H 1904   6.267   5.865   7.268  1.7316 -0.9749 -0.9045
   14MOL0     H 1905   6.333   5.958   7.132  1.5284  1.3597  0.4435
   14MOL0     H 1906   6.464   5.920   7.401  2.8228 -1.9234  0.4738
   14MOL0     H 1907   6.513   6.037   7.275 -1.7562  0.3213 -2.4629
   14MOL0     H 1908   6.585   5.884   7.130  0.1952  1.1547  0.5407
   14MOL0     H 1909   6.480   5.753   7.180 -0.7078  0.2872  0.7460
   14MOL0     H 1910   6.694   5.691   7.250  0.2337 -0.8764  1.0637
   14MOL0     H 1911   6.625   5.732   7.400 -0.9785 -1.7385 -1.4759
   14MOL0     H 1912   5.768   5.996   7.730  0.2071 -1.1526  0.4586
   14MOL0     H 1913   5.534   5.901   7.719 -2.8304 -0.4038 -1.9493
   14MOL0     H 1914   5.197   5.759   7.639  0.9853  0.9901 -0.0510
   14MOL0     H 1915   4.977   5.635   7.620 -0.4053 -1.6342 -1.3923
   14MOL0     H 1916   3.349   5.253   7.940  0.0617 -0.0262 -0.2821
   14MOL0     H 1917   3.207   5.082   8.057  1.8782  0.5903  0.6201
   14MOL0     H 1918   2.767   4.907   7.927 -1.2554 -2.0746 -1.1880
   14MOL0     H 1919   2.592   4.767   7.942 -0.2595 -1.4595  0.0421
   14MOL0     H 1920   2.249   4.649   8.156 -3.4904  0.7279  0.0135
   14MOL0     H 1921   2.293   4.773   8.283  3.6464  1.8219 -0.8899
   14MOL0     H 1922   2.262   4.940   8.068 -2.0985  1.3696 -0.9277
   14MOL0     H 1923   2.120   4.865   8.139 -0.3450 -3.1958  0.0721
   14MOL0     H 1924   2.107   4.688   7.985  1.3367 -0.7518  1.1615
   14MOL0     H 1925   2.100   4.853   7.918  0.2202 -0.4726 -0.8415
   14MOL0     H 1926   2.312   4.632   7.877  1.3589  1.7520  1.3509
   14MOL0     H 1927   2.369   4.797   7.860  1.3558 -1.2849 -1.5438
   14MOL0     H 1928   2.163   4.768   7.429 -0.6178 -1.0122  0.1251
   14MOL0     H 1929   2.492   4.896   8.338  1.5668 -0.1079  1.0557
   14MOL0     H 1930   2.603   5.163   8.378  0.5873  0.7572 -2.0398
   14MOL0     H 1931   2.660   5.020   8.467 -2.6643  1.1354 -0.1253
   14MOL0     H 1932   2.772   5.129   8.393  0.3840  0.4726 -2.8311
   15MOL0     O 1933   7.714   9.730   6.417 -0.6500  0.0354 -0.7633
   15MOL0     C 1934   7.722   9.857   6.413 -0.5027  0.2873 -0.5810
   15MOL0     O 1935   7.824   9.927   6.357 -0.3565  0.5374 -0.9687
   15MOL0     C 1936   7.921   9.862   6.292  0.1254  0.8185  0.0988
   15MOL0     C 1937   8.052   9.892   6.319 -0.2318 -0.0247  0.6020
   15MOL0     C 1938   8.154   9.832   6.241 -0.4141  0.4629  0.1173
   15MOL0     C 1939   8.130   9.751   6.132  0.0537  0.1188  0.0129
   15MOL0     O 1940   8.232   9.717   6.053 -0.5146  0.1773 -1.1364
   15MOL0     C 1941   8.191   9.718   5.922  0.2533  0.7293 -0.4265
   15MOL0     C 1942   8.332   9.744   5.842  0.1139  0.2900  0.4292
   15MOL0     C 1943   8.430   9.624   5.849  0.2339 -1.0351 -0.1068
   15MOL0     C 1944   8.565   9.655   5.793 -0.1010 -0.0931 -0.6515
   15MOL0     C 1945   8.665   9.540   5.819  0.3067  0.7293  0.0237
   15MOL0     C 1946   8.808   9.558   5.772 -0.5132 -0.7436 -0.0259
   15MOL0     C 1947   8.883   9.435   5.797 -0.8721  0.6036  0.0697
   15MOL0     C 1948   9.025   9.456   5.732  0.5028 -0.2421  0.3387
   15MOL0     N 1949   9.113   9.348   5.769  0.1016 -0.0005 -0.5211
   15MOL0     C 1950   9.206   9.351   5.875  1.1259 -0.3692  0.3865
   15MOL0     C 1951   9.263   9.229   5.874  0.0402 -0.2057 -0.2275
   15MOL0     C 1952   9.367   9.190   5.970 -0.7303 -0.0983 -0.1187
   15MOL0     C 1953   9.344   9.044   6.018 -0.1729 -0.5517 -0.0491
   15MOL0     C 1954   9.480   8.982   6.068  0.7300 -0.6157 -0.2900
   15MOL0     C 1955   9.461   8.836   6.111  0.9482  0.1682  0.4121
   15MOL0     O 1956   9.441   8.752   5.992  0.8152 -0.0794 -0.1626
   15MOL0     C 1957   9.539   8.703   5.911 -0.5718  0.2086 -0.2423
   15MOL0     C 1958   9.515   8.657   5.781  0.3110  0.3595 -0.8376
   15MOL0     C 1959   9.611   8.609   5.697 -0.5487 -0.6194  0.2455
   15MOL0     C 1960   9.563   8.546   5.565 -0.1563  0.1437  0.2224
   15MOL0     C 1961   9.745   8.606   5.744 -0.5748 -0.0449  0.5469
   15MOL0     C 1962   9.873   8.580   5.659  0.1324 -0.0020 -0.4166
   15MOL0     O 1963   9.851   8.539   5.531  0.3107 -0.5603 -0.7542
   15MOL0     C 1964   9.954   8.505   5.458  0.2061 -0.0233 -0.9519
   15MOL0     C 1965  10.033   8.388   5.481 -0.4056  0.2473  0.8914
   15MOL0     C 1966  10.152   8.365   5.413 -1.2371 -0.3089  0.2591
   15MOL0     C 1967  10.186   8.444   5.302 -0.0420  0.6906  0.3553
   15MOL0     O 1968  10.291   8.425   5.212  1.0576  0.3042 -0.4034
   15MOL0     C 1969  10.358   8.299   5.212 -0.0411 -0.1514  0.9787
   15MOL0     C 1970  10.468   8.292   5.109  0.3119 -0.5173  0.0360
   15MOL0     C 1971  10.411   8.290   4.965  0.2529  0.1999  0.1912
   15MOL0     C 1972  10.516   8.233   4.871  0.2911 -0.1242  0.0907
   15MOL0     C 1973  10.465   8.219   4.726 -0.5121  0.4037  0.7469
   15MOL0     C 1974  10.554   8.147   4.620  0.5591 -0.7027  0.2516
   15MOL0     C 1975  10.691   8.204   4.587  0.5994 -0.5784  0.1487
   15MOL0     C 1976  10.767   8.119   4.492  0.0832  0.4569  0.0584
   15MOL0    Cl 1977  10.804   7.953   4.543 -0.0321  0.0460  0.3815
   15MOL0     C 1978  10.104   8.553   5.272  0.5832  0.4253 -0.5993
   15MOL0     C 1979   9.992   8.581   5.352  0.4595  0.1240 -0.4823
   15MOL0     O 1980   9.983   8.584   5.709 -0.5130  0.0740  0.3079
   15MOL0     C 1981   9.776   8.644   5.873 -0.2505 -0.4884 -0.1228
   15MOL0     C 1982   9.673   8.695   5.952 -1.1189 -0.0923 -0.4364
   15MOL0     N 1983   9.221   9.163   5.760  0.3546 -1.1425  0.0032
   15MOL0     N 1984   9.125   9.231   5.707  0.4351  0.6256 -0.0299
   15MOL0     C 1985   7.994   9.707   6.118  0.4622  0.0393  0.2376
   15MOL0     C 1986   7.896   9.760   6.205 -0.1690 -0.3659 -0.9381
   15MOL0     C 1987   7.623   9.950   6.469 -0.2231  0.1480 -0.7821
   15MOL0     C 1988   7.639  10.089   6.455 -0.1714 -0.0761 -0.9497
   15MOL0     C 1989   7.563  10.189   6.512  1.0331  0.4110 -0.8421
   15MOL0     C 1990   7.460  10.146   6.595 -0.1460  0.8901 -0.1595
   15MOL0     O 1991   7.396  10.247   6.663 -0.3210  0.2752 -0.5331
   15MOL0     C 1992   7.287  10.215   6.748  0.5257 -0.3634 -0.2881
   15MOL0     C 1993   7.243  10.351   6.807 -0.4073  0.1148 -0.0004
   15MOL0     C 1994   7.354  10.402   6.903 -0.1166  0.3603  0.5107
   15MOL0     C 1995   7.314  10.516   6.999 -0.6455 -0.1361 -0.3655
   15MOL0     C 1996   7.442  10.543   7.072  1.0923  0.4183 -0.6110
   15MOL0     C 1997   7.542  10.564   7.145 -0.5109 -0.2073 -0.2046
   15MOL0     C 1998   7.433  10.003   6.605  0.5998  0.0046  0.6993
   15MOL0     C 1999   7.505   9.909   6.539  0.7723 -0.2750 -0.6866
   15MOL0     C 2000   7.463   9.772   6.549  0.5132 -0.5666  0.5394
   15MOL0     H 2001   8.074   9.963   6.399 -1.3433 -0.0788  0.9746
   15MOL0     H 2002   8.258   9.859   6.260  0.5580 -0.8599 -2.7539
   15MOL0     H 2003   8.128   9.805   5.905  0.4177  1.0972  0.7492
   15MOL0     H 2004   8.153   9.615   5.919  0.2036  0.7133  0.3910
   15MOL0     H 2005   8.295   9.763   5.741 -1.5802  0.3622  1.0161
   15MOL0     H 2006   8.383   9.834   5.879 -0.5898  1.4493 -1.2950
   15MOL0     H 2007   8.427   9.598   5.955 -1.1547  2.7289  0.9572
   15MOL0     H 2008   8.391   9.540   5.790 -1.6518  0.9849 -1.9426
   15MOL0     H 2009   8.546   9.664   5.686 -0.7443 -1.0377 -0.6373
   15MOL0     H 2010   8.607   9.748   5.832 -0.2500  0.4504 -1.7700
   15MOL0     H 2011   8.637   9.442   5.779  3.1537 -0.3757  0.4992
   15MOL0     H 2012   8.670   9.516   5.926  0.4564 -0.5854 -0.2533
   15MOL0     H 2013   8.802   9.581   5.665 -1.6146  1.7900  0.4958
   15MOL0     H 2014   8.860   9.638   5.825  0.7652 -0.4433 -1.6605
   15MOL0     H 2015   8.828   9.349   5.757 -1.5122  0.5542  1.0099
   15MOL0     H 2016   8.903   9.421   5.904 -1.7079 -1.2104  0.0242
   15MOL0     H 2017   9.020   9.457   5.622  2.0205  1.8750  0.2222
   15MOL0     H 2018   9.071   9.551   5.759 -0.5420  1.2942 -2.8334
   15MOL0     H 2019   9.220   9.433   5.944 -1.0702  0.0901  0.3769
   15MOL0     H 2020   9.390   9.263   6.048  0.6537 -3.9127  3.4018
   15MOL0     H 2021   9.456   9.183   5.907 -2.4672  2.3245 -3.1372
   15MOL0     H 2022   9.266   9.046   6.094  0.9284  1.5862  1.1259
   15MOL0     H 2023   9.323   8.985   5.928  1.0651 -0.3633 -0.4899
   15MOL0     H 2024   9.561   8.972   5.996  1.1207 -0.7978  0.1612
   15MOL0     H 2025   9.510   9.037   6.158  2.5924 -2.1382  0.0912
   15MOL0     H 2026   9.544   8.798   6.171 -0.7440 -2.8997  1.0194
   15MOL0     H 2027   9.379   8.835   6.183  2.4228  2.6426  2.2868
   15MOL0     H 2028   9.411   8.654   5.749 -0.3332 -1.0146  1.2581
   15MOL0     H 2029   9.582   8.438   5.575  0.8499  0.1989 -0.7542
   15MOL0     H 2030   9.610   8.583   5.473 -3.7589  0.3023 -1.7278
   15MOL0     H 2031   9.459   8.560   5.536  0.4691  3.7954 -0.7051
   15MOL0     H 2032  10.012   8.318   5.561 -1.6890  1.5293  1.7351
   15MOL0     H 2033  10.216   8.281   5.436  1.1492  1.7595  1.6661
   15MOL0     H 2034  10.418   8.301   5.303  1.9017 -0.9685 -0.2141
   15MOL0     H 2035  10.290   8.214   5.204 -0.3663 -0.2250  3.6724
   15MOL0     H 2036  10.545   8.369   5.114  1.4535 -1.6117 -0.1501
   15MOL0     H 2037  10.522   8.198   5.123 -0.4328 -0.7207  1.7193
   15MOL0     H 2038  10.398   8.396   4.942 -1.5912  0.3261  1.6315
   15MOL0     H 2039  10.315   8.240   4.948 -0.0928  1.5176 -2.1758
   15MOL0     H 2040  10.546   8.140   4.921 -1.1524  0.1551  1.5510
   15MOL0     H 2041  10.606   8.295   4.870 -0.6260  1.2549  0.5494
   15MOL0     H 2042  10.372   8.160   4.732 -0.3514 -0.0885 -1.0171
   15MOL0     H 2043  10.437   8.320   4.696  0.4554  0.7562  0.9956
   15MOL0     H 2044  10.502   8.140   4.524  4.0387  0.6586 -1.9017
   15MOL0     H 2045  10.567   8.045   4.658  2.4181 -0.0619  1.4726
   15MOL0     H 2046  10.757   8.202   4.674  1.6772 -4.8468 -0.5495
   15MOL0     H 2047  10.692   8.310   4.559  3.3210 -1.0102 -1.8055
   15MOL0     H 2048  10.856   8.177   4.467 -0.3301  1.5443  1.0509
   15MOL0     H 2049  10.710   8.110   4.399  2.9583 -1.5824 -1.6800
   15MOL0     H 2050  10.119   8.616   5.185 -0.8769  1.9902  0.2250
   15MOL0     H 2051   9.923   8.662   5.330  1.1428  0.7685 -0.2886
   15MOL0     H 2052   9.877   8.646   5.914 -0.0394  0.5763 -0.6669
   15MOL0     H 2053   9.700   8.740   6.047 -1.9932 -0.7891  0.1624
   15MOL0     H 2054   7.961   9.630   6.049  0.1553 -1.2950  1.8024
   15MOL0     H 2055   7.797   9.721   6.187 -0.9227  0.6558  0.7689
   15MOL0     H 2056   7.726  10.129   6.404  0.2825 -0.3887 -0.4241
   15MOL0     H 2057   7.589  10.294   6.501  1.1964  0.5992  1.0520
   15MOL0     H 2058   7.209  10.170   6.685 -0.5994 -2.4073  2.3904
   15MOL0     H 2059   7.315  10.151   6.832 -2.5760 -0.1777  0.9938
   15MOL0     H 2060   7.145  10.349   6.856 -0.6478 -0.6381 -0.4885
   15MOL0     H 2061   7.230  10.424   6.727  0.9503  0.9095  0.4757
   15MOL0     H 2062   7.394  10.314   6.955  0.2076  0.2305  0.0432
   15MOL0     H 2063   7.437  10.441   6.844 -0.4780 -2.3012 -1.9619
   15MOL0     H 2064   7.231  10.493   7.068 -0.8746  2.2720  0.2443
   15MOL0     H 2065   7.290  10.605   6.941  1.1646  0.5347 -0.1683
   15MOL0     H 2066   7.633  10.583   7.199  1.3679 -2.9345 -2.1042
   15MOL0     H 2067   7.359   9.960   6.672  0.8191  0.7151  1.4082
   15MOL0     H 2068   7.549   9.715   6.589  2.5080  1.3992 -0.7164
   15MOL0     H 2069   7.377   9.754   6.614  0.4277  1.7988  1.1604
   15MOL0     H 2070   7.438   9.747   6.446  2.5315  1.3026 -0.4765
   16MOL0     O 2071   6.233   9.466   8.804  0.0797 -0.7009 -0.2290
   16MOL0     C 2072   6.143   9.388   8.839 -0.6915 -0.1243 -0.6006
   16MOL0     O 2073   6.160   9.256   8.877  0.2816 -0.0824  0.6211
   16MOL0     C 2074   6.257   9.185   8.808  1.0131 -0.0173  0.3954
   16MOL0     C 2075   6.216   9.104   8.703 -0.1259  0.3069 -0.3815
   16MOL0     C 2076   6.315   9.046   8.612  0.2640  0.2440 -1.4018
   16MOL0     C 2077   6.452   9.066   8.632 -0.0612 -0.0687  0.1222
   16MOL0     O 2078   6.547   9.006   8.552 -0.1306  0.1502  0.5129
   16MOL0     C 2079   6.514   8.946   8.429  0.2456  0.1762  0.2030
   16MOL0     C 2080   6.628   8.943   8.322  0.8902  0.3694  0.2048
   16MOL0     C 2081   6.676   9.082   8.279 -0.3440  0.2655  0.3515
   16MOL0     C 2082   6.760   9.076   8.147  0.1352  0.8121 -0.4279
   16MOL0     C 2083   6.904   9.019   8.169 -0.2398  0.1596  0.3895
   16MOL0     C 2084   6.995   9.013   8.047  0.0560 -0.0698  0.0124
   16MOL0     C 2085   7.133   8.955   8.078  0.5555  0.1091  0.0539
   16MOL0     C 2086   7.243   9.040   8.025 -0.2979  0.7033  0.0178
   16MOL0     N 2087   7.249   9.159   8.110 -0.1917 -0.0160 -0.5743
   16MOL0     C 2088   7.187   9.279   8.084 -0.0879 -0.4956 -0.5624
   16MOL0     C 2089   7.198   9.346   8.206 -0.0334 -1.1149 -0.0755
   16MOL0     C 2090   7.129   9.482   8.231  0.4687  0.7445 -0.0801
   16MOL0     C 2091   7.233   9.592   8.244 -0.4001 -0.6425  0.1456
   16MOL0     C 2092   7.321   9.606   8.115 -0.9083  0.0880 -0.2336
   16MOL0     C 2093   7.379   9.747   8.097 -0.7867 -0.2313  0.3006
   16MOL0     O 2094   7.428   9.749   7.959 -0.0329 -0.0042 -0.3030
   16MOL0     C 2095   7.554   9.703   7.933 -0.4932 -0.1461  0.4481
   16MOL0     C 2096   7.650   9.668   8.020 -1.0336 -0.3863  0.0742
   16MOL0     C 2097   7.770   9.616   7.975 -0.1906  0.1899  0.0994
   16MOL0     C 2098   7.865   9.596   8.089  0.0618 -0.9207  0.9724
   16MOL0     C 2099   7.796   9.588   7.848 -0.7345  0.1715  0.2184
   16MOL0     C 2100   7.922   9.509   7.800 -1.0906  0.3291  0.9549
   16MOL0     O 2101   7.919   9.482   7.668  0.2262  0.4641  0.5242
   16MOL0     C 2102   8.032   9.444   7.600  0.3471  0.6238  0.4671
   16MOL0     C 2103   8.153   9.502   7.614  0.0396  0.1435 -1.0429
   16MOL0     C 2104   8.258   9.469   7.524 -1.3008  0.7543 -0.1011
   16MOL0     C 2105   8.237   9.384   7.422 -0.1491 -0.3387 -0.6046
   16MOL0     O 2106   8.330   9.374   7.322  0.7468  0.6587 -0.4657
   16MOL0     C 2107   8.476   9.382   7.349  0.1848  0.4013 -0.1663
   16MOL0     C 2108   8.544   9.310   7.249  0.1027  0.8775 -0.2665
   16MOL0     C 2109   8.690   9.316   7.261  0.4690  0.0302 -1.0237
   16MOL0     C 2110   8.760   9.197   7.182 -0.2869  0.0472 -0.3947
   16MOL0     C 2111   8.915   9.187   7.192 -0.5211  0.8354 -0.9563
   16MOL0     C 2112   8.986   9.315   7.157  0.3670 -0.4348  0.9729
   16MOL0     C 2113   9.135   9.288   7.140  0.6622  0.1487  0.3400
   16MOL0     C 2114   9.206   9.291   7.273  0.0517 -0.9902  0.2270
   16MOL0    Cl 2115   9.367   9.206   7.255  0.0667  0.3730  0.0952
   16MOL0     C 2116   8.117   9.317   7.412  0.7554  0.1901 -0.2859
   16MOL0     C 2117   8.016   9.349   7.499 -0.2178  0.7702  0.9966
   16MOL0     O 2118   8.009   9.461   7.875  0.2474 -0.0153 -0.3888
   16MOL0     C 2119   7.693   9.632   7.752 -0.1751  0.6024 -0.5154
   16MOL0     C 2120   7.573   9.687   7.791  0.0006 -0.3738  0.1610
   16MOL0     N 2121   7.256   9.268   8.295 -0.1269  0.0074 -0.3948
   16MOL0     N 2122   7.281   9.152   8.247 -0.1837  0.0116  0.2129
   16MOL0     C 2123   6.491   9.137   8.750  0.3015  1.2145  0.4251
   16MOL0     C 2124   6.393   9.203   8.829 -0.0450 -0.5753 -0.2786
   16MOL0     C 2125   6.007   9.447   8.868 -0.1742 -0.5761 -0.6008
   16MOL0     C 2126   5.937   9.394   8.981 -0.0645  0.2001  0.1990
   16MOL0     C 2127   5.804   9.424   9.010  0.2668 -0.0542 -0.4445
   16MOL0     C 2128   5.745   9.512   8.927 -0.0292 -0.0715 -0.0188
   16MOL0     O 2129   5.613   9.528   8.941 -0.0650 -0.2136  0.3207
   16MOL0     C 2130   5.524   9.413   8.917 -1.0618  0.1346 -0.8007
   16MOL0     C 2131   5.379   9.470   8.896 -0.2175  0.1940  0.3861
   16MOL0     C 2132   5.265   9.366   8.885 -0.0937  0.5353 -0.2561
   16MOL0     C 2133   5.249   9.314   8.747  0.4807 -0.6581 -0.6434
   16MOL0     C 2134   5.187   9.423   8.666 -0.3052  0.4165 -0.8882
   16MOL0     C 2135   5.134   9.511   8.598 -0.7222 -0.1051 -0.3358
   16MOL0     C 2136   5.810   9.576   8.822 -0.5968  0.4999 -0.0071
   16MOL0     C 2137   5.948   9.547   8.791 -0.3278 -0.4675  0.1112
   16MOL0     C 2138   6.007   9.610   8.662  0.9469 -0.1741  0.3407
   16MOL0     H 2139   6.114   9.068   8.692  0.2908 -0.9540 -0.3352
   16MOL0     H 2140   6.287   8.963   8.548 -1.6476  0.2080 -0.5853
   16MOL0     H 2141   6.426   8.982   8.376 -0.7890 -4.0909 -1.3867
   16MOL0     H 2142   6.475   8.845   8.445 -0.5273 -0.4888 -4.6013
   16MOL0     H 2143   6.715   8.893   8.366  0.3859 -0.0534  0.7398
   16MOL0     H 2144   6.593   8.882   8.239  1.8902  0.3512 -0.2252
   16MOL0     H 2145   6.583   9.137   8.262 -1.1930 -0.6265  1.9305
   16MOL0     H 2146   6.743   9.132   8.349  2.7332 -2.0950 -0.6825
   16MOL0     H 2147   6.695   9.031   8.072 -0.2685 -0.2067  0.5002
   16MOL0     H 2148   6.784   9.179   8.120  5.3780 -0.0316  0.0078
   16MOL0     H 2149   6.901   8.914   8.201  2.8579 -0.5172 -1.1326
   16MOL0     H 2150   6.960   9.082   8.238  0.2388  0.6415 -0.4287
   16MOL0     H 2151   6.942   8.946   7.978 -1.4169  2.5041 -1.5285
   16MOL0     H 2152   6.989   9.115   8.010 -3.0501  0.2526  1.1032
   16MOL0     H 2153   7.138   8.856   8.030 -0.7463  0.3928 -0.7117
   16MOL0     H 2154   7.150   8.944   8.185  0.2883  1.3475  0.2296
   16MOL0     H 2155   7.337   8.984   8.022 -1.9701 -2.2658 -0.9475
   16MOL0     H 2156   7.233   9.058   7.918 -1.3842 -1.4824 -0.3145
   16MOL0     H 2157   7.140   9.315   7.993  0.0854 -2.5708 -1.5348
   16MOL0     H 2158   7.079   9.468   8.328  0.0927  1.1954 -0.2082
   16MOL0     H 2159   7.047   9.505   8.164  1.1987  1.9328 -0.6016
   16MOL0     H 2160   7.182   9.685   8.271  1.0217 -0.5227  2.7752
   16MOL0     H 2161   7.299   9.561   8.325 -0.1302 -2.6392 -0.7829
   16MOL0     H 2162   7.407   9.538   8.119 -1.7386 -1.0785 -1.4312
   16MOL0     H 2163   7.261   9.578   8.028  1.3100 -1.0864 -1.4816
   16MOL0     H 2164   7.315   9.836   8.109 -0.7149 -0.3278  1.6016
   16MOL0     H 2165   7.455   9.755   8.175  3.0418 -2.8713 -2.7508
   16MOL0     H 2166   7.653   9.697   8.125 -0.9937  0.5232 -0.1692
   16MOL0     H 2167   7.881   9.488   8.097 -0.2209 -1.0419  0.0230
   16MOL0     H 2168   7.838   9.649   8.180 -1.2113  0.0981  0.0386
   16MOL0     H 2169   7.961   9.636   8.055 -0.5424  0.9133  1.3611
   16MOL0     H 2170   8.162   9.570   7.697 -2.0696 -2.8475  1.8921
   16MOL0     H 2171   8.355   9.513   7.545 -1.6314  1.3108  0.2840
   16MOL0     H 2172   8.513   9.485   7.354 -0.4868  0.9023 -3.3165
   16MOL0     H 2173   8.491   9.325   7.441  0.3631  0.6430 -0.0469
   16MOL0     H 2174   8.524   9.204   7.268  1.3760  0.8185  0.8941
   16MOL0     H 2175   8.518   9.340   7.147 -1.0407  2.3301  0.4085
   16MOL0     H 2176   8.716   9.315   7.367 -0.2332 -1.6887 -0.8387
   16MOL0     H 2177   8.722   9.415   7.225  1.9497 -0.0053  0.1189
   16MOL0     H 2178   8.747   9.205   7.074  0.4850  0.2159 -0.4839
   16MOL0     H 2179   8.721   9.107   7.231  0.8123  0.6220  1.6740
   16MOL0     H 2180   8.951   9.148   7.287  2.7199  3.3421 -0.9483
   16MOL0     H 2181   8.947   9.115   7.117  0.6760  2.2435 -1.8754
   16MOL0     H 2182   8.967   9.390   7.234 -3.5532 -0.5528  0.2883
   16MOL0     H 2183   8.954   9.355   7.061 -0.4560 -0.4623  1.2331
   16MOL0     H 2184   9.180   9.366   7.079  4.7057 -0.7180  1.9160
   16MOL0     H 2185   9.153   9.198   7.080  0.1195  1.0019 -1.1479
   16MOL0     H 2186   9.158   9.236   7.355 -2.4223  0.4196 -0.1818
   16MOL0     H 2187   9.223   9.389   7.317  3.6165 -1.1985 -0.4083
   16MOL0     H 2188   8.102   9.233   7.345  0.2851 -0.9138  1.1525
   16MOL0     H 2189   7.925   9.290   7.493  1.3547 -1.6632 -0.1812
   16MOL0     H 2190   7.704   9.617   7.645  0.2038  0.1963 -0.4240
   16MOL0     H 2191   7.496   9.708   7.718 -0.7662 -0.4011  0.9457
   16MOL0     H 2192   6.596   9.147   8.775  0.5998 -0.8390  0.1683
   16MOL0     H 2193   6.419   9.283   8.897 -0.3449  1.9940 -2.9970
   16MOL0     H 2194   5.987   9.312   9.034 -2.0477  0.0125  1.9072
   16MOL0     H 2195   5.754   9.369   9.088  0.3139 -0.5278 -0.7435
   16MOL0     H 2196   5.559   9.362   8.827  1.3595  0.0638  0.1057
   16MOL0     H 2197   5.523   9.345   9.002 -2.3198  1.5637  0.3910
   16MOL0     H 2198   5.378   9.515   8.797  3.2559 -2.9657 -1.3534
   16MOL0     H 2199   5.360   9.544   8.974  2.0450 -0.3475  1.5637
   16MOL0     H 2200   5.301   9.278   8.939 -1.6450  0.2433  0.3413
   16MOL0     H 2201   5.174   9.404   8.932  0.1782  0.8545  0.0147
   16MOL0     H 2202   5.177   9.233   8.742  0.9669 -1.0742 -1.0801
   16MOL0     H 2203   5.335   9.277   8.690 -3.1456 -4.0825 -4.5821
   16MOL0     H 2204   5.098   9.594   8.539 -0.8849  0.2848  0.3018
   16MOL0     H 2205   5.746   9.644   8.767 -1.1105  1.3446  1.5500
   16MOL0     H 2206   6.109   9.647   8.677 -0.2264  3.5702  0.0828
   16MOL0     H 2207   6.002   9.544   8.575 -1.7272  2.4146 -1.6915
   16MOL0     H 2208   5.947   9.698   8.638 -0.1822 -0.8180  0.7096
   17MOL0     O 2209   8.176   6.376   7.941  0.5138  0.2679 -0.2760
   17MOL0     C 2210   8.121   6.450   8.028  0.1779  0.3945  0.0900
   17MOL0     O 2211   8.016   6.409   8.099 -0.7572  0.3388  0.5071
   17MOL0     C 2212   7.957   6.284   8.065  0.7453  0.5299 -0.4124
   17MOL0     C 2213   7.929   6.199   8.169  0.7195 -0.3085 -1.0649
   17MOL0     C 2214   7.873   6.073   8.153  0.1009  0.5091  0.2225
   17MOL0     C 2215   7.854   6.024   8.024 -0.6087 -0.4264 -0.7842
   17MOL0     O 2216   7.826   5.894   7.993  0.6724  0.2761 -0.6170
   17MOL0     C 2217   7.760   5.815   8.099  0.3313 -0.2583 -0.1340
   17MOL0     C 2218   7.733   5.684   8.030  0.0767  0.0216  1.2640
   17MOL0     C 2219   7.623   5.597   8.092  0.5867 -0.1273  1.1340
   17MOL0     C 2220   7.625   5.580   8.247 -0.5551 -1.0384  0.1382
   17MOL0     C 2221   7.536   5.472   8.291  0.1650  0.3958  0.4592
   17MOL0     C 2222   7.543   5.461   8.446  1.5126  0.5098 -0.4425
   17MOL0     C 2223   7.436   5.360   8.506 -0.7693  0.3869 -0.0278
   17MOL0     C 2224   7.486   5.216   8.491  0.4605 -0.1905  0.5060
   17MOL0     N 2225   7.367   5.127   8.486  0.5107  0.1153  0.3698
   17MOL0     C 2226   7.312   5.055   8.592  0.4889  0.0182 -0.4236
   17MOL0     C 2227   7.206   4.992   8.531 -0.6377  0.0795 -0.0581
   17MOL0     C 2228   7.104   4.894   8.576  0.3075  0.2988 -0.9856
   17MOL0     C 2229   7.166   4.759   8.622 -0.3059  0.6394 -0.1155
   17MOL0     C 2230   7.220   4.737   8.762 -0.3369 -0.1465  0.7894
   17MOL0     C 2231   7.289   4.593   8.777  0.3858 -0.8229  0.1028
   17MOL0     O 2232   7.283   4.564   8.911 -0.1357  0.1402 -0.6393
   17MOL0     C 2233   7.387   4.584   8.996  0.0622 -0.0945 -0.5809
   17MOL0     C 2234   7.353   4.592   9.131  1.1587 -0.6912  0.8166
   17MOL0     C 2235   7.438   4.642   9.233 -0.3514 -0.4650  0.1469
   17MOL0     C 2236   7.389   4.644   9.375  0.0016  0.6492  0.2811
   17MOL0     C 2237   7.576   4.672   9.196  0.1453  0.5683 -0.4725
   17MOL0     C 2238   7.683   4.707   9.299 -0.2427 -0.4336  0.6351
   17MOL0     O 2239   7.640   4.773   9.405  0.0039 -1.0820  0.0105
   17MOL0     C 2240   7.724   4.804   9.509  0.2314  0.0429  0.1924
   17MOL0     C 2241   7.814   4.912   9.505 -0.7471 -1.1826  0.5391
   17MOL0     C 2242   7.896   4.936   9.619 -0.5874  0.0846 -0.1979
   17MOL0     C 2243   7.885   4.857   9.736 -0.8173 -1.2242 -0.1751
   17MOL0     O 2244   7.963   4.881   9.848  0.1753 -0.0229  0.6281
   17MOL0     C 2245   8.049   4.993   9.848 -0.5773 -0.9093  0.4514
   17MOL0     C 2246   8.070   5.035   9.991 -0.4361 -0.9211  0.2507
   17MOL0     C 2247   8.130   4.924  10.080  0.1839 -0.3241 -0.4073
   17MOL0     C 2248   8.117   4.969  10.228 -0.6481  0.0388 -1.2408
   17MOL0     C 2249   8.187   4.860  10.323  0.6819  0.6625  0.1888
   17MOL0     C 2250   8.173   4.901  10.470  0.1744  0.0073  0.2522
   17MOL0     C 2251   8.190   4.785  10.553 -1.0178 -0.2076 -1.4676
   17MOL0     C 2252   8.187   4.833  10.698  0.1193  0.4212 -0.2916
   17MOL0    Cl 2253   8.017   4.830  10.759  0.1453 -0.0766 -0.3574
   17MOL0     C 2254   7.790   4.754   9.738  0.4424  0.5749 -0.1864
   17MOL0     C 2255   7.714   4.725   9.622 -0.7201  0.1367  0.4501
   17MOL0     O 2256   7.800   4.685   9.276 -0.1159  0.1002 -0.5538
   17MOL0     C 2257   7.611   4.665   9.056  0.0616 -0.4164 -0.8547
   17MOL0     C 2258   7.515   4.621   8.965 -0.3464 -0.2928 -0.8100
   17MOL0     N 2259   7.200   5.039   8.401  0.4128 -0.5952 -0.1714
   17MOL0     N 2260   7.287   5.119   8.368  0.0508  0.3119 -0.1850
   17MOL0     C 2261   7.876   6.106   7.914  0.2914 -0.7323 -1.0384
   17MOL0     C 2262   7.927   6.237   7.934  1.4049  0.4616 -0.6018
   17MOL0     C 2263   8.168   6.594   8.057  0.5613  0.4929 -0.2214
   17MOL0     C 2264   8.108   6.664   8.160  0.5290 -0.7102 -0.5588
   17MOL0     C 2265   8.161   6.785   8.213  0.1974 -0.0705 -0.5586
   17MOL0     C 2266   8.274   6.839   8.162 -0.6315 -0.1375  1.1268
   17MOL0     O 2267   8.328   6.954   8.212  0.4634 -0.3683 -0.4184
   17MOL0     C 2268   8.460   7.000   8.182  0.7039  0.4885  0.1199
   17MOL0     C 2269   8.443   7.122   8.088 -0.7980 -0.2325  0.4839
   17MOL0     C 2270   8.579   7.187   8.059  0.0349 -0.0300  0.1278
   17MOL0     C 2271   8.661   7.131   7.941  1.0649  0.0622  0.1623
   17MOL0     C 2272   8.700   6.992   7.966 -0.2470 -0.8520 -0.6322
   17MOL0     C 2273   8.741   6.884   8.008  0.4802  0.1344 -0.5065
   17MOL0     C 2274   8.329   6.769   8.052 -0.1359 -0.7640 -0.0603
   17MOL0     C 2275   8.278   6.651   7.991  0.7457 -0.1873  0.3098
   17MOL0     C 2276   8.374   6.586   7.883  0.0310  0.3301 -0.0532
   17MOL0     H 2277   7.943   6.231   8.272  1.0760  0.6426 -1.4004
   17MOL0     H 2278   7.851   6.011   8.240  0.7239  1.9841  1.4623
   17MOL0     H 2279   7.669   5.872   8.121 -0.3383 -0.0186 -3.1115
   17MOL0     H 2280   7.828   5.807   8.184  1.0397 -0.2415 -0.6976
   17MOL0     H 2281   7.707   5.703   7.926  0.8717  0.8803  1.2100
   17MOL0     H 2282   7.821   5.620   8.019 -0.5303 -0.4623 -1.2983
   17MOL0     H 2283   7.533   5.655   8.067  0.3756 -1.3238 -1.1325
   17MOL0     H 2284   7.612   5.497   8.049 -0.1062  0.8478 -1.1031
   17MOL0     H 2285   7.728   5.560   8.274 -0.3751  2.0890  2.3094
   17MOL0     H 2286   7.601   5.675   8.297 -0.3714 -2.2297  2.5921
   17MOL0     H 2287   7.565   5.377   8.245  0.0074  0.6796 -0.2252
   17MOL0     H 2288   7.431   5.492   8.269  0.6597  0.7766 -1.7442
   17MOL0     H 2289   7.641   5.425   8.479  1.9508  0.7889 -1.4171
   17MOL0     H 2290   7.545   5.565   8.480  0.5160  0.2270  0.5293
   17MOL0     H 2291   7.345   5.386   8.452  1.2161  1.4538 -3.1990
   17MOL0     H 2292   7.418   5.378   8.612 -0.8463 -1.5316  0.3342
   17MOL0     H 2293   7.536   5.202   8.394  2.6293  1.2128  1.3463
   17MOL0     H 2294   7.548   5.201   8.580 -1.1524  1.0532  1.9038
   17MOL0     H 2295   7.345   5.068   8.695 -0.1991 -0.5476 -0.1208
   17MOL0     H 2296   7.049   4.870   8.484 -0.6654  0.1902 -0.3897
   17MOL0     H 2297   7.027   4.934   8.643  0.5396  1.3943 -1.3507
   17MOL0     H 2298   7.085   4.687   8.602 -1.3868  0.3199  4.3443
   17MOL0     H 2299   7.248   4.750   8.550  0.8438  1.2638  1.0799
   17MOL0     H 2300   7.302   4.803   8.789  2.6979 -3.3460  0.1691
   17MOL0     H 2301   7.130   4.749   8.823 -0.7615 -1.0736  0.3764
   17MOL0     H 2302   7.222   4.521   8.728 -2.3220  0.4267  1.7349
   17MOL0     H 2303   7.388   4.582   8.732  1.2055 -0.6090  1.7564
   17MOL0     H 2304   7.246   4.585   9.145  0.9586 -1.9680 -0.9846
   17MOL0     H 2305   7.439   4.574   9.444  0.6943  1.3093  0.4635
   17MOL0     H 2306   7.281   4.630   9.387  0.0891  0.3062  0.7120
   17MOL0     H 2307   7.398   4.738   9.429  0.2310  0.1683  1.1017
   17MOL0     H 2308   7.814   4.977   9.419  1.3270 -2.8650 -0.8183
   17MOL0     H 2309   7.960   5.024   9.613 -1.8236  1.3111  2.6595
   17MOL0     H 2310   8.146   4.967   9.805 -0.8286  0.9467 -1.4210
   17MOL0     H 2311   8.015   5.083   9.794  3.5282 -0.7442 -2.3584
   17MOL0     H 2312   8.134   5.123   9.999 -0.6130 -0.4972 -2.1338
   17MOL0     H 2313   7.973   5.073  10.024 -0.6518 -0.3852 -0.9242
   17MOL0     H 2314   8.237   4.909  10.062 -0.4652 -1.3057 -4.0872
   17MOL0     H 2315   8.079   4.830  10.057 -0.6598 -0.2595  1.0375
   17MOL0     H 2316   8.013   4.969  10.262 -1.1827 -2.3247 -2.6039
   17MOL0     H 2317   8.166   5.064  10.246 -3.0585  1.0447  0.5396
   17MOL0     H 2318   8.141   4.764  10.297 -0.4597  1.0380  0.7083
   17MOL0     H 2319   8.293   4.852  10.300  0.0952  0.5095 -2.9228
   17MOL0     H 2320   8.082   4.948  10.507 -1.2659 -3.6953  1.9445
   17MOL0     H 2321   8.259   4.966  10.489  2.1650 -2.6013  0.8661
   17MOL0     H 2322   8.287   4.738  10.534 -0.7202 -0.1833 -0.1171
   17MOL0     H 2323   8.115   4.707  10.537 -0.9522 -0.4331 -0.7075
   17MOL0     H 2324   8.213   4.939  10.708 -1.4296  0.7110  1.0911
   17MOL0     H 2325   8.244   4.772  10.767 -2.1968  1.2876  2.6131
   17MOL0     H 2326   7.773   4.681   9.816 -4.1486  0.3583 -1.0920
   17MOL0     H 2327   7.641   4.645   9.615 -0.5369 -0.3155  2.7781
   17MOL0     H 2328   7.713   4.681   9.024 -0.2833 -0.6905 -2.2052
   17MOL0     H 2329   7.543   4.630   8.860  0.5738  0.8724 -0.4876
   17MOL0     H 2330   7.843   6.081   7.814 -4.0137  2.2247 -0.6253
   17MOL0     H 2331   7.954   6.302   7.852  1.9420  1.0258  0.0101
   17MOL0     H 2332   8.020   6.620   8.206 -1.8787  2.1542 -2.1281
   17MOL0     H 2333   8.098   6.834   8.287  0.2004  1.6354 -1.6327
   17MOL0     H 2334   8.510   7.040   8.271  0.6552  2.1588 -0.5541
   17MOL0     H 2335   8.528   6.923   8.144 -1.1037 -1.7914  1.2497
   17MOL0     H 2336   8.375   7.192   8.137 -0.8984  0.1533 -0.1847
   17MOL0     H 2337   8.390   7.089   7.998 -1.8728 -0.8205  1.3094
   17MOL0     H 2338   8.562   7.295   8.045 -1.4527 -0.2123  0.3835
   17MOL0     H 2339   8.647   7.175   8.144  0.2511  1.3364  0.1823
   17MOL0     H 2340   8.748   7.193   7.917  0.6576 -0.1511 -2.1536
   17MOL0     H 2341   8.602   7.127   7.848  0.8883 -1.7939  0.3115
   17MOL0     H 2342   8.763   6.793   8.060 -2.2636  0.5011  1.5929
   17MOL0     H 2343   8.405   6.823   7.996 -0.3255 -0.4305  0.0050
   17MOL0     H 2344   8.338   6.623   7.786 -0.0859  0.2768 -0.0305
   17MOL0     H 2345   8.475   6.619   7.910 -0.1157 -0.8739  2.1562
   17MOL0     H 2346   8.385   6.478   7.882 -3.4121 -0.1372 -0.2807
   18MOL0     O 2347   3.931   1.889   7.025 -0.3602 -0.5596 -0.5738
   18MOL0     C 2348   3.999   1.843   7.122  0.4692  0.2370 -0.6766
   18MOL0     O 2349   4.136   1.828   7.138  0.2204 -0.0039  0.0591
   18MOL0     C 2350   4.231   1.894   7.063 -0.2758  0.6983 -0.0519
   18MOL0     C 2351   4.360   1.836   7.068  0.2434 -0.7936  1.2113
   18MOL0     C 2352   4.458   1.896   6.995  0.0707 -0.2673 -0.5237
   18MOL0     C 2353   4.449   2.018   6.926  0.3324 -0.4867 -0.5691
   18MOL0     O 2354   4.563   2.061   6.867 -0.0235  0.7032 -0.2778
   18MOL0     C 2355   4.566   2.181   6.800 -1.3120 -0.3009  0.0314
   18MOL0     C 2356   4.712   2.241   6.780  0.0805  0.9761 -1.2039
   18MOL0     C 2357   4.814   2.139   6.728  0.3639 -0.1100  0.0020
   18MOL0     C 2358   4.949   2.207   6.694  0.7035  0.4069 -0.1809
   18MOL0     C 2359   5.061   2.113   6.651  0.3619 -0.2533 -0.1836
   18MOL0     C 2360   5.183   2.183   6.583 -0.0917  0.2349  0.2094
   18MOL0     C 2361   5.239   2.307   6.655 -0.2079  0.7876  0.0760
   18MOL0     C 2362   5.359   2.362   6.574  0.5593  0.3842 -0.6754
   18MOL0     N 2363   5.429   2.450   6.663 -0.0242 -0.5117  0.1173
   18MOL0     C 2364   5.387   2.574   6.711 -0.0685  0.6783  0.6216
   18MOL0     C 2365   5.479   2.618   6.803  0.3430 -0.2407 -0.2118
   18MOL0     C 2366   5.478   2.752   6.858  0.1093 -0.8090  0.0513
   18MOL0     C 2367   5.610   2.819   6.834 -0.1885 -0.6844 -0.2018
   18MOL0     C 2368   5.641   2.827   6.685  0.3700  0.8988  0.0512
   18MOL0     C 2369   5.785   2.877   6.664  0.7772  0.1834  0.1924
   18MOL0     O 2370   5.802   3.005   6.726 -0.3039  0.6796 -0.1751
   18MOL0     C 2371   5.902   3.087   6.686 -1.0231 -0.5735 -0.3814
   18MOL0     C 2372   5.897   3.218   6.726  0.1687 -0.9936  0.6894
   18MOL0     C 2373   5.996   3.316   6.697 -0.3403  1.0472  0.1238
   18MOL0     C 2374   5.981   3.459   6.757  0.0688  0.4859  0.1898
   18MOL0     C 2375   6.106   3.280   6.619 -0.6418 -0.7345 -0.0312
   18MOL0     C 2376   6.213   3.365   6.590 -0.7105 -0.7018 -1.0145
   18MOL0     O 2377   6.242   3.473   6.660 -0.7091 -0.4008 -0.6339
   18MOL0     C 2378   6.357   3.542   6.618 -0.4466  0.2491 -0.3754
   18MOL0     C 2379   6.486   3.500   6.625  0.3642 -0.1514 -0.8370
   18MOL0     C 2380   6.595   3.571   6.570 -0.3383  0.1945  0.4663
   18MOL0     C 2381   6.569   3.694   6.512 -1.5376  0.1570 -0.3673
   18MOL0     O 2382   6.650   3.761   6.428  0.2256  0.3785  0.0049
   18MOL0     C 2383   6.786   3.730   6.434 -0.2949 -0.8457 -0.0882
   18MOL0     C 2384   6.848   3.866   6.382  0.3197  0.1669 -0.6054
   18MOL0     C 2385   6.993   3.854   6.333 -0.0070 -0.1844 -0.7058
   18MOL0     C 2386   7.093   3.827   6.441 -0.4922  0.1321  0.2401
   18MOL0     C 2387   7.241   3.807   6.394  0.7181  0.9922  0.5141
   18MOL0     C 2388   7.330   3.804   6.519  0.3044  0.8452 -0.2411
   18MOL0     C 2389   7.474   3.756   6.486  0.7243 -0.7782 -0.1492
   18MOL0     C 2390   7.551   3.863   6.404  0.5505  0.0808  0.9124
   18MOL0    Cl 2391   7.535   4.035   6.459  0.3916  0.2400 -0.1612
   18MOL0     C 2392   6.438   3.743   6.519 -0.3665  0.7497 -0.6267
   18MOL0     C 2393   6.335   3.665   6.566  0.8231  0.2828  1.0188
   18MOL0     O 2394   6.287   3.324   6.502  0.0808  0.7737  0.0734
   18MOL0     C 2395   6.111   3.143   6.579  0.5318 -0.1346 -0.3382
   18MOL0     C 2396   6.014   3.049   6.621  0.4659 -0.1073  0.5456
   18MOL0     N 2397   5.568   2.516   6.817 -0.3694  0.5082 -0.2011
   18MOL0     N 2398   5.540   2.421   6.737 -0.2117  0.1385  0.4972
   18MOL0     C 2399   4.324   2.077   6.933  0.8107  0.4041  0.2792
   18MOL0     C 2400   4.212   2.014   6.996  0.0928 -0.4631 -0.4342
   18MOL0     C 2401   3.922   1.795   7.244  0.7456  0.0327  0.4442
   18MOL0     C 2402   3.992   1.758   7.365 -0.7168  0.2688 -0.5154
   18MOL0     C 2403   3.925   1.708   7.481 -0.2821 -0.5545 -0.1819
   18MOL0     C 2404   3.788   1.703   7.478 -0.2249 -0.7889  0.4411
   18MOL0     O 2405   3.721   1.652   7.584  0.5519 -0.4944 -0.1378
   18MOL0     C 2406   3.666   1.523   7.574  0.3566  0.4055  0.2083
   18MOL0     C 2407   3.700   1.418   7.692  0.0465 -0.1128 -1.2559
   18MOL0     C 2408   3.655   1.281   7.666  0.0280 -0.0686 -0.1256
   18MOL0     C 2409   3.710   1.195   7.780 -0.9140  0.1645  0.5374
   18MOL0     C 2410   3.677   1.050   7.748  0.0320 -0.2527 -0.1643
   18MOL0     C 2411   3.644   0.941   7.718  0.0230  0.6377  0.2528
   18MOL0     C 2412   3.715   1.744   7.366  0.4188  0.2753 -0.4965
   18MOL0     C 2413   3.778   1.788   7.250  0.1969 -0.0159  1.0109
   18MOL0     C 2414   3.678   1.806   7.131 -0.0481  0.5788  0.3258
   18MOL0     H 2415   4.374   1.737   7.108  0.7550 -1.1904  0.0982
   18MOL0     H 2416   4.546   1.834   6.990 -0.7650 -1.5118 -0.2159
   18MOL0     H 2417   4.508   2.255   6.855 -2.4626  0.0039 -1.5485
   18MOL0     H 2418   4.511   2.178   6.706 -2.9313 -0.9646  0.9509
   18MOL0     H 2419   4.714   2.332   6.719  0.8978  0.6163 -1.7342
   18MOL0     H 2420   4.750   2.279   6.875  0.5093  2.9587 -2.1027
   18MOL0     H 2421   4.833   2.054   6.795  0.9904  0.6006  0.7444
   18MOL0     H 2422   4.773   2.098   6.635 -1.8754  1.7627  0.0904
   18MOL0     H 2423   4.933   2.280   6.614  0.8860  1.1157  0.4208
   18MOL0     H 2424   4.985   2.264   6.780 -1.8507 -0.2000  1.3950
   18MOL0     H 2425   5.021   2.048   6.573 -3.0654  2.3657 -0.8722
   18MOL0     H 2426   5.104   2.050   6.729 -0.7440 -1.4509 -0.5040
   18MOL0     H 2427   5.263   2.109   6.573 -2.3804 -2.3624 -0.2078
   18MOL0     H 2428   5.143   2.222   6.489 -2.3263 -0.5949  0.7543
   18MOL0     H 2429   5.261   2.279   6.759 -4.7534 -2.2763  0.5490
   18MOL0     H 2430   5.159   2.381   6.661 -0.4247  0.6149 -0.6607
   18MOL0     H 2431   5.424   2.278   6.547 -1.3512 -1.8053  1.1712
   18MOL0     H 2432   5.327   2.413   6.483 -0.0244  0.8682 -0.2059
   18MOL0     H 2433   5.294   2.625   6.690  0.4717  1.3939 -0.0679
   18MOL0     H 2434   5.443   2.748   6.961 -2.0972  1.6186 -0.4842
   18MOL0     H 2435   5.405   2.810   6.800  1.1674  0.5253  0.0035
   18MOL0     H 2436   5.601   2.915   6.885 -1.3425 -1.5816  1.3806
   18MOL0     H 2437   5.691   2.769   6.887  0.8828  2.2158  1.0653
   18MOL0     H 2438   5.630   2.724   6.649 -0.4715  0.5036  1.3840
   18MOL0     H 2439   5.568   2.890   6.633  0.6469  2.2625  1.2499
   18MOL0     H 2440   5.859   2.803   6.698 -2.7683 -3.6451  0.4924
   18MOL0     H 2441   5.791   2.891   6.556  2.1062  0.5258  0.2936
   18MOL0     H 2442   5.814   3.239   6.792 -0.1487 -0.8185  0.2403
   18MOL0     H 2443   6.059   3.482   6.830  0.8355 -2.0733  0.2735
   18MOL0     H 2444   5.886   3.457   6.812  0.8292 -2.2439  1.6223
   18MOL0     H 2445   5.991   3.540   6.684  0.7159 -0.0888 -0.3716
   18MOL0     H 2446   6.503   3.407   6.677 -1.5781 -1.5191 -2.4980
   18MOL0     H 2447   6.697   3.533   6.578 -0.3145  0.1071 -0.2462
   18MOL0     H 2448   6.826   3.718   6.535  3.3777  0.1615 -1.2706
   18MOL0     H 2449   6.809   3.651   6.362 -0.1561  1.1451 -2.3456
   18MOL0     H 2450   6.782   3.898   6.301 -0.4971 -0.4642 -0.2013
   18MOL0     H 2451   6.845   3.935   6.467 -0.1093  0.0843 -0.5501
   18MOL0     H 2452   7.029   3.947   6.288  0.5716 -0.5654 -1.0425
   18MOL0     H 2453   6.997   3.777   6.256  1.8687 -1.6589  0.7570
   18MOL0     H 2454   7.080   3.730   6.490  2.3538 -0.2190  0.4419
   18MOL0     H 2455   7.089   3.906   6.517 -0.7975  1.1759 -0.8356
   18MOL0     H 2456   7.230   3.721   6.327  0.4760  0.8413  0.7433
   18MOL0     H 2457   7.283   3.887   6.333  0.0740  1.6463  0.9208
   18MOL0     H 2458   7.291   3.722   6.580  4.7570 -1.3194  0.1237
   18MOL0     H 2459   7.329   3.899   6.573  2.6744  1.3048 -0.8966
   18MOL0     H 2460   7.455   3.660   6.438 -2.9229 -1.2122  1.8124
   18MOL0     H 2461   7.517   3.735   6.585 -0.3636 -4.2975 -0.2790
   18MOL0     H 2462   7.516   3.852   6.300  0.5740  1.8754  0.6963
   18MOL0     H 2463   7.652   3.821   6.393 -0.3905 -3.2690  3.3631
   18MOL0     H 2464   6.419   3.847   6.492 -0.9773  1.9236  3.6535
   18MOL0     H 2465   6.236   3.709   6.566  0.3054 -0.7692 -0.7112
   18MOL0     H 2466   6.185   3.108   6.508 -0.0429 -2.2177  0.0397
   18MOL0     H 2467   6.020   2.942   6.605  3.5167  0.3481 -2.7953
   18MOL0     H 2468   4.300   2.168   6.877  2.8495 -0.6328 -2.5106
   18MOL0     H 2469   4.116   2.062   7.014  0.5227  0.5809 -0.8191
   18MOL0     H 2470   4.101   1.754   7.370 -0.8042 -1.0969  0.8047
   18MOL0     H 2471   3.990   1.668   7.559  0.9709  2.5473  0.5374
   18MOL0     H 2472   3.559   1.527   7.554 -0.0260  0.9960  2.1014
   18MOL0     H 2473   3.718   1.480   7.488  0.6708 -0.9836  1.0690
   18MOL0     H 2474   3.653   1.454   7.784 -0.5424 -4.0058  0.1621
   18MOL0     H 2475   3.809   1.423   7.705 -0.0856 -1.5984  0.8074
   18MOL0     H 2476   3.545   1.277   7.660 -0.0831  2.4962 -1.3692
   18MOL0     H 2477   3.670   1.248   7.564 -5.2985 -0.8441 -0.9824
   18MOL0     H 2478   3.686   1.229   7.881  4.0206  2.1521  1.3213
   18MOL0     H 2479   3.819   1.193   7.781 -0.9036 -1.9651  2.2703
   18MOL0     H 2480   3.633   0.844   7.672  0.3164  1.3199 -1.3102
   18MOL0     H 2481   3.607   1.740   7.375  0.4177  2.4622  1.6759
   18MOL0     H 2482   3.713   1.745   7.047  4.2976  0.3693  2.0296
   18MOL0     H 2483   3.579   1.783   7.169 -1.0634 -0.8537 -2.8436
   18MOL0     H 2484   3.686   1.912   7.102  0.1371  1.2583  2.6449
   19MOL0     O 2485  10.804   3.350   7.926 -0.1975 -0.2896 -0.0255
   19MOL0     C 2486  10.879   3.398   8.012 -0.3431  0.2790 -0.1434
   19MOL0     O 2487  10.901   3.338   8.128 -0.9937  0.4867  0.1570
   19MOL0     C 2488  10.875   3.205   8.143  1.0171  1.1061 -0.9285
   19MOL0     C 2489  10.750   3.150   8.151  0.4775 -0.0614  0.0887
   19MOL0     C 2490  10.727   3.016   8.192 -0.0376 -0.6050 -1.1717
   19MOL0     C 2491  10.833   2.941   8.226 -0.8897  0.3575 -0.6576
   19MOL0     O 2492  10.827   2.816   8.280  0.1412  0.0623 -0.1200
   19MOL0     C 2493  10.699   2.750   8.311 -0.4442  0.1963 -0.0888
   19MOL0     C 2494  10.712   2.622   8.383  0.4821  0.4905 -0.7413
   19MOL0     C 2495  10.754   2.633   8.531  0.4375 -0.2115  0.2392
   19MOL0     C 2496  10.909   2.671   8.543  0.1964 -0.4883 -0.0974
   19MOL0     C 2497  10.979   2.624   8.674 -0.0343 -0.3064  0.9865
   19MOL0     C 2498  11.126   2.615   8.645 -0.6948  0.2361  0.8225
   19MOL0     C 2499  11.202   2.596   8.777 -0.1381  0.2973 -0.0714
   19MOL0     C 2500  11.159   2.460   8.840  0.6367 -0.8846  0.0616
   19MOL0     N 2501  11.172   2.336   8.760  0.0673 -0.5145 -0.5307
   19MOL0     C 2502  11.288   2.276   8.715  0.7729 -0.6510 -0.9041
   19MOL0     C 2503  11.248   2.161   8.644  0.4102  0.6309 -0.4958
   19MOL0     C 2504  11.344   2.052   8.609  0.8801 -1.1382 -0.0603
   19MOL0     C 2505  11.358   1.955   8.727 -0.2499 -0.4174  0.1111
   19MOL0     C 2506  11.237   1.864   8.734  0.3215  0.6187  0.7452
   19MOL0     C 2507  11.252   1.761   8.846  0.5547 -0.5219  0.2751
   19MOL0     O 2508  11.157   1.656   8.831  0.3140  0.3441  0.1432
   19MOL0     C 2509  11.201   1.538   8.883 -1.0300  0.4450 -0.2183
   19MOL0     C 2510  11.137   1.474   8.985  0.3958  0.9367  0.1229
   19MOL0     C 2511  11.179   1.358   9.048 -0.4049  0.2671 -0.6346
   19MOL0     C 2512  11.097   1.302   9.163 -0.3797 -0.5923  0.1378
   19MOL0     C 2513  11.302   1.308   9.003  0.4020  0.4028  0.8278
   19MOL0     C 2514  11.364   1.190   9.055 -0.3615 -0.7967 -0.1129
   19MOL0     O 2515  11.447   1.122   8.980 -0.4493  0.3628  0.7847
   19MOL0     C 2516  11.502   0.998   9.014 -0.1755 -0.3375 -0.2466
   19MOL0     C 2517  11.424   0.882   9.018 -0.4276 -0.1757  0.0779
   19MOL0     C 2518  11.486   0.757   9.056  1.1823  0.0908  0.1542
   19MOL0     C 2519  11.619   0.756   9.077 -0.2390 -0.3303  0.4084
   19MOL0     O 2520  11.687   0.651   9.122 -0.5996  0.3844 -0.0697
   19MOL0     C 2521  11.619   0.543   9.172 -0.0503 -0.1079  0.0147
   19MOL0     C 2522  11.716   0.450   9.245 -0.3881  0.2032 -0.1839
   19MOL0     C 2523  11.649   0.324   9.310  0.2106 -0.1908 -0.1304
   19MOL0     C 2524  11.759   0.225   9.337  0.7069 -0.0258 -0.0739
   19MOL0     C 2525  11.693   0.098   9.401 -0.6167  0.1153  0.2482
   19MOL0     C 2526  11.775  -0.015   9.459 -0.8937 -0.0605  0.0297
   19MOL0     C 2527  11.873  -0.064   9.359 -0.5215 -0.4592 -0.2719
   19MOL0     C 2528  11.963  -0.179   9.426  0.4972  0.1610  0.5247
   19MOL0    Cl 2529  12.091  -0.224   9.315  0.1955  0.0764 -0.1898
   19MOL0     C 2530  11.700   0.866   9.058 -0.3328  0.9317 -0.6947
   19MOL0     C 2531  11.644   0.986   9.037 -0.5192 -0.4898  0.6256
   19MOL0     O 2532  11.354   1.179   9.177  1.0496 -0.1955  0.5617
   19MOL0     C 2533  11.373   1.370   8.896 -0.4858  1.1496 -0.6916
   19MOL0     C 2534  11.322   1.482   8.842 -0.1050 -0.1589  0.4661
   19MOL0     N 2535  11.108   2.163   8.646  1.2205  0.0387  0.5168
   19MOL0     N 2536  11.070   2.265   8.711  0.0839 -0.4489 -0.2088
   19MOL0     C 2537  10.967   2.986   8.208  0.0268  0.1070  0.0023
   19MOL0     C 2538  10.985   3.116   8.170 -0.1836 -0.2375  0.0095
   19MOL0     C 2539  10.964   3.516   7.984  0.1443  0.4616  0.2303
   19MOL0     C 2540  11.067   3.551   8.079  0.3055 -0.2693 -0.0720
   19MOL0     C 2541  11.149   3.657   8.057 -0.2827 -0.0020  0.3631
   19MOL0     C 2542  11.149   3.730   7.946 -0.3981 -0.0318 -0.6453
   19MOL0     O 2543  11.239   3.840   7.935  0.8026  0.2503  0.3611
   19MOL0     C 2544  11.185   3.944   7.848  0.1875  0.1683  0.4361
   19MOL0     C 2545  11.277   4.059   7.865  0.9290  0.3289  0.6819
   19MOL0     C 2546  11.211   4.193   7.826  0.6837 -0.0725  1.1167
   19MOL0     C 2547  11.307   4.312   7.829 -0.1970  0.1849 -0.5083
   19MOL0     C 2548  11.402   4.330   7.943  0.3713  0.2625  0.9876
   19MOL0     C 2549  11.491   4.367   8.009  0.1278 -0.2157  0.1636
   19MOL0     C 2550  11.059   3.691   7.850 -0.4398 -0.2745  0.7225
   19MOL0     C 2551  10.955   3.597   7.867 -0.2097 -0.0405 -0.1792
   19MOL0     C 2552  10.875   3.555   7.739 -0.2998 -0.3614  0.0712
   19MOL0     H 2553  10.663   3.205   8.119  0.3129 -1.7610 -2.6945
   19MOL0     H 2554  10.634   2.972   8.225  0.7067 -1.8298 -0.6017
   19MOL0     H 2555  10.637   2.745   8.221  1.3933  1.2384 -1.4815
   19MOL0     H 2556  10.632   2.805   8.377 -0.2417 -0.1399  0.4094
   19MOL0     H 2557  10.625   2.556   8.385 -0.4669  1.7198 -0.4459
   19MOL0     H 2558  10.789   2.565   8.330  1.3641  1.3445 -0.4065
   19MOL0     H 2559  10.691   2.705   8.585  3.5270  1.4436  1.8983
   19MOL0     H 2560  10.741   2.535   8.577  0.1443  0.9373  2.8052
   19MOL0     H 2561  10.961   2.640   8.452 -1.2215  0.7817 -1.4128
   19MOL0     H 2562  10.911   2.781   8.540  1.0054 -0.3908  2.1042
   19MOL0     H 2563  10.929   2.531   8.703 -1.6211  0.0185 -0.4773
   19MOL0     H 2564  10.961   2.692   8.757 -3.1210 -1.3183  1.3075
   19MOL0     H 2565  11.134   2.522   8.589  0.2588  0.5568  0.4040
   19MOL0     H 2566  11.175   2.701   8.599 -1.8411  1.3119  1.5524
   19MOL0     H 2567  11.198   2.677   8.852  1.6316 -0.6767  1.1538
   19MOL0     H 2568  11.306   2.594   8.743 -0.8613  1.4971 -2.6206
   19MOL0     H 2569  11.223   2.446   8.927  1.5277 -0.3176 -0.4859
   19MOL0     H 2570  11.055   2.473   8.872  0.9926 -1.3281  1.4679
   19MOL0     H 2571  11.389   2.307   8.739  1.4260 -4.5708  2.5606
   19MOL0     H 2572  11.434   2.110   8.588 -1.3833  1.8869 -2.2218
   19MOL0     H 2573  11.313   2.000   8.518  0.9180 -0.6879 -0.3328
   19MOL0     H 2574  11.444   1.889   8.710  0.4298  0.8961 -1.8401
   19MOL0     H 2575  11.364   2.018   8.816 -0.1135 -0.7105  0.3123
   19MOL0     H 2576  11.145   1.923   8.740  0.9878  1.6119  1.4157
   19MOL0     H 2577  11.241   1.800   8.645  0.2156 -0.2152  1.3285
   19MOL0     H 2578  11.357   1.730   8.846  0.0565 -2.3354 -0.2644
   19MOL0     H 2579  11.234   1.808   8.943 -0.0241 -0.3164  0.0740
   19MOL0     H 2580  11.043   1.513   9.023 -0.6801 -0.9936 -0.4296
   19MOL0     H 2581  11.099   1.362   9.254 -0.7706 -2.7711  1.6433
   19MOL0     H 2582  11.133   1.206   9.201  2.2026  1.5625  3.8497
   19MOL0     H 2583  10.999   1.301   9.116  0.4191 -0.9496 -1.5986
   19MOL0     H 2584  11.317   0.875   8.996 -0.4203 -0.9665  0.2376
   19MOL0     H 2585  11.419   0.671   9.060 -0.2330  1.1618  0.4167
   19MOL0     H 2586  11.537   0.572   9.238  1.2170  0.3264  1.4353
   19MOL0     H 2587  11.578   0.485   9.088 -1.0952 -0.1073  0.5098
   19MOL0     H 2588  11.802   0.419   9.186 -0.1835  0.7315 -0.1740
   19MOL0     H 2589  11.767   0.513   9.319  3.3884  0.0469 -2.4398
   19MOL0     H 2590  11.568   0.284   9.249 -1.9485 -0.3739  2.6251
   19MOL0     H 2591  11.601   0.353   9.404  2.2180  0.1003  0.8804
   19MOL0     H 2592  11.830   0.275   9.405 -1.2312 -0.6419  2.5604
   19MOL0     H 2593  11.796   0.192   9.240  0.7534  1.3184 -0.5394
   19MOL0     H 2594  11.635   0.130   9.488 -3.2379  0.2772 -1.4128
   19MOL0     H 2595  11.628   0.053   9.325  0.2130  1.4453 -1.3067
   19MOL0     H 2596  11.717  -0.105   9.482 -0.2070 -0.6601 -0.5397
   19MOL0     H 2597  11.824   0.021   9.550 -1.1154 -2.4878  1.1786
   19MOL0     H 2598  11.940   0.016   9.325 -2.2997  2.0627  1.7485
   19MOL0     H 2599  11.806  -0.115   9.290 -2.6419  0.2736  1.1538
   19MOL0     H 2600  11.908  -0.268   9.456 -0.1584  0.6127  0.6915
   19MOL0     H 2601  12.001  -0.132   9.517 -0.3249  2.0395 -0.0288
   19MOL0     H 2602  11.807   0.873   9.071  0.2275 -3.8041 -0.8677
   19MOL0     H 2603  11.709   1.073   9.030 -0.9295 -0.2126  0.2087
   19MOL0     H 2604  11.470   1.339   8.859 -1.6633 -2.1172 -1.2899
   19MOL0     H 2605  11.357   1.525   8.749  1.2221 -2.8176 -0.3589
   19MOL0     H 2606  11.049   2.916   8.225  0.7593  1.1236  0.7394
   19MOL0     H 2607  11.089   3.147   8.168 -0.0792 -0.6128 -0.3469
   19MOL0     H 2608  11.089   3.495   8.169 -0.0685  0.8164  0.7163
   19MOL0     H 2609  11.223   3.683   8.132  2.8511 -0.9733 -2.1762
   19MOL0     H 2610  11.175   3.926   7.740 -1.5545  4.2166 -0.2779
   19MOL0     H 2611  11.085   3.973   7.880 -1.3234  0.1663 -3.6389
   19MOL0     H 2612  11.373   4.044   7.815  0.5566  0.0956  0.0240
   19MOL0     H 2613  11.308   4.066   7.969  1.5312  3.7058  0.3774
   19MOL0     H 2614  11.167   4.182   7.726  0.3246 -1.0697  1.3807
   19MOL0     H 2615  11.130   4.221   7.894 -1.6835  0.2350 -1.6081
   19MOL0     H 2616  11.247   4.403   7.828 -0.1605  0.2080 -1.1310
   19MOL0     H 2617  11.366   4.314   7.736 -1.3191  0.2563 -1.2356
   19MOL0     H 2618  11.571   4.410   8.066 -0.1758  0.1298  0.3355
   19MOL0     H 2619  11.048   3.730   7.749 -1.0056 -3.1449 -0.4544
   19MOL0     H 2620  10.768   3.562   7.760 -0.2687 -2.0924  1.0251
   19MOL0     H 2621  10.893   3.618   7.652 -3.0508 -0.7191 -0.8270
   19MOL0     H 2622  10.892   3.450   7.712 -1.4177 -1.0322  1.7722
   20MOL0     O 2623   3.783   5.249   5.374 -0.0194  0.0721 -0.8044
   20MOL0     C 2624   3.678   5.291   5.321 -0.3656  0.5551  0.2737
   20MOL0     O 2625   3.651   5.293   5.190 -0.0841 -0.5546  0.4141
   20MOL0     C 2626   3.767   5.286   5.110 -0.1853 -0.3866 -0.1111
   20MOL0     C 2627   3.778   5.189   5.008  1.2704 -0.5482  0.0836
   20MOL0     C 2628   3.876   5.187   4.908  0.3027 -0.6257  0.1188
   20MOL0     C 2629   3.983   5.288   4.912  0.3323  0.1805 -0.2275
   20MOL0     O 2630   4.096   5.290   4.824  0.2988 -0.6111 -0.7585
   20MOL0     C 2631   4.094   5.234   4.690  0.3408  1.3312 -0.2023
   20MOL0     C 2632   4.219   5.266   4.599  0.8901  0.0438  0.2760
   20MOL0     C 2633   4.352   5.217   4.666  0.5258  0.0436 -0.8015
   20MOL0     C 2634   4.442   5.136   4.576  0.2429 -0.5080  0.4685
   20MOL0     C 2635   4.585   5.128   4.628 -0.4318  0.1982  0.4788
   20MOL0     C 2636   4.674   5.250   4.587 -0.2284 -0.0789  0.3445
   20MOL0     C 2637   4.822   5.227   4.628  0.0226 -0.1814 -0.6304
   20MOL0     C 2638   4.899   5.341   4.556 -0.1418  0.0700 -0.3534
   20MOL0     N 2639   5.040   5.350   4.595 -0.4248  0.1149  0.3249
   20MOL0     C 2640   5.138   5.287   4.524 -0.2688 -0.0612 -0.3898
   20MOL0     C 2641   5.240   5.274   4.613  0.1294  0.1720 -0.2220
   20MOL0     C 2642   5.378   5.224   4.581 -0.2050 -0.6998  0.2453
   20MOL0     C 2643   5.483   5.332   4.615  1.0010 -0.3986  0.5999
   20MOL0     C 2644   5.465   5.472   4.543 -0.1852  0.6239 -0.1815
   20MOL0     C 2645   5.585   5.569   4.582  0.6733  0.1876 -0.0950
   20MOL0     O 2646   5.706   5.540   4.517 -0.2431 -0.1607 -0.4091
   20MOL0     C 2647   5.817   5.616   4.545 -0.0435  1.0291 -0.2585
   20MOL0     C 2648   5.813   5.734   4.617  0.6530 -0.3701  1.0125
   20MOL0     C 2649   5.929   5.812   4.646  0.5180 -0.2513  0.2155
   20MOL0     C 2650   5.908   5.947   4.712  0.0876  0.5018  0.2192
   20MOL0     C 2651   6.053   5.748   4.618  0.4323 -0.0581 -0.3848
   20MOL0     C 2652   6.181   5.803   4.664 -0.0490  0.0157 -0.4079
   20MOL0     O 2653   6.297   5.718   4.666 -0.5492  0.3286  0.0415
   20MOL0     C 2654   6.414   5.780   4.687  0.6610 -0.3345 -0.4369
   20MOL0     C 2655   6.450   5.819   4.815 -0.5727  0.1464 -0.2061
   20MOL0     C 2656   6.580   5.852   4.857  0.4269 -0.2076  0.4155
   20MOL0     C 2657   6.674   5.854   4.755 -0.1121  0.0981 -0.4598
   20MOL0     O 2658   6.801   5.907   4.780 -0.2473 -0.2984 -0.1104
   20MOL0     C 2659   6.821   6.022   4.861 -1.2032  0.1281 -0.6344
   20MOL0     C 2660   6.960   6.045   4.901 -0.5747  0.3728 -0.3656
   20MOL0     C 2661   7.000   5.957   5.028  0.1885 -0.2652 -0.3730
   20MOL0     C 2662   7.138   6.008   5.048 -0.6198 -0.3745  0.3125
   20MOL0     C 2663   7.217   5.941   5.160  0.5668  0.1846 -0.5636
   20MOL0     C 2664   7.371   5.955   5.151 -0.0531 -0.2174 -0.2430
   20MOL0     C 2665   7.435   5.854   5.243  0.0196 -0.2153  0.2394
   20MOL0     C 2666   7.585   5.881   5.241  0.2502 -0.5106  0.8454
   20MOL0    Cl 2667   7.634   6.047   5.298  0.0595 -0.1485  0.1550
   20MOL0     C 2668   6.651   5.803   4.629  0.4146  0.5289 -0.1591
   20MOL0     C 2669   6.512   5.772   4.596  0.5513 -0.2751 -0.1784
   20MOL0     O 2670   6.187   5.921   4.688  0.5244  0.7268  0.5555
   20MOL0     C 2671   6.054   5.633   4.546 -0.1091  0.1255 -0.0048
   20MOL0     C 2672   5.940   5.564   4.511  0.2738  0.8377 -0.2725
   20MOL0     N 2673   5.194   5.324   4.737 -0.5908 -0.0808  0.1125
   20MOL0     N 2674   5.073   5.368   4.728  0.0677  1.1675 -0.1673
   20MOL0     C 2675   3.975   5.378   5.022 -0.3487  0.3720  0.6802
   20MOL0     C 2676   3.868   5.383   5.111  0.3302 -0.3586  0.6367
   20MOL0     C 2677   3.559   5.314   5.406 -0.3874 -0.2805 -0.5172
   20MOL0     C 2678   3.440   5.249   5.369 -0.3959 -0.1433 -0.3203
   20MOL0     C 2679   3.330   5.272   5.456  1.3141  0.0790 -0.0016
   20MOL0     C 2680   3.328   5.340   5.576 -0.0292  0.1011 -0.5271
   20MOL0     O 2681   3.207   5.365   5.640 -0.6377 -0.4626 -0.1013
   20MOL0     C 2682   3.217   5.385   5.785 -0.1341 -0.2275 -0.9398
   20MOL0     C 2683   3.236   5.250   5.856 -0.3972 -0.5179  0.6367
   20MOL0     C 2684   3.176   5.242   6.000 -0.4989  0.4037  0.5358
   20MOL0     C 2685   3.218   5.117   6.076 -0.6756 -0.1927  1.1963
   20MOL0     C 2686   3.363   5.125   6.103 -0.1346  0.0477 -0.3182
   20MOL0     C 2687   3.486   5.117   6.129 -0.0163 -0.6265  0.0390
   20MOL0     C 2688   3.452   5.385   5.614 -0.3947 -0.0272 -0.2214
   20MOL0     C 2689   3.567   5.386   5.532  0.6646 -0.2787  0.0211
   20MOL0     C 2690   3.687   5.468   5.573 -0.2842  0.3906  0.5786
   20MOL0     H 2691   3.699   5.115   5.004  0.5352  0.2495 -0.2897
   20MOL0     H 2692   3.883   5.107   4.835  1.6868 -1.8616  1.5272
   20MOL0     H 2693   3.994   5.257   4.652 -0.5132  1.1012  1.7856
   20MOL0     H 2694   4.097   5.125   4.699  0.7577  1.2991 -0.6648
   20MOL0     H 2695   4.211   5.206   4.508  2.7176 -1.5265  1.0814
   20MOL0     H 2696   4.226   5.367   4.556  0.5221 -1.2659 -3.1933
   20MOL0     H 2697   4.402   5.310   4.694  3.3302 -1.0762 -1.8025
   20MOL0     H 2698   4.334   5.160   4.758  0.3816  1.4858  0.1010
   20MOL0     H 2699   4.401   5.034   4.571 -2.2786  0.4887 -0.6600
   20MOL0     H 2700   4.445   5.182   4.477  0.4011  2.6894  1.8599
   20MOL0     H 2701   4.635   5.037   4.593  0.1088  0.4842  0.4969
   20MOL0     H 2702   4.594   5.133   4.737  1.2762  1.4429  0.3169
   20MOL0     H 2703   4.672   5.249   4.477 -0.4838 -1.6969  0.3324
   20MOL0     H 2704   4.634   5.340   4.634 -0.7761 -0.5806  0.8601
   20MOL0     H 2705   4.852   5.128   4.594 -0.6871  0.3614 -3.0467
   20MOL0     H 2706   4.829   5.232   4.737 -0.5030 -1.3224 -0.5282
   20MOL0     H 2707   4.900   5.341   4.447 -0.4021  0.8705 -0.3658
   20MOL0     H 2708   4.849   5.432   4.590  0.1542 -0.5560  1.8894
   20MOL0     H 2709   5.146   5.270   4.417 -2.2254  0.9427 -0.7368
   20MOL0     H 2710   5.376   5.222   4.472 -2.1350  1.6767  0.1629
   20MOL0     H 2711   5.411   5.128   4.622  3.3296  0.5268  0.6973
   20MOL0     H 2712   5.473   5.362   4.720 -2.4299 -0.7565  0.4795
   20MOL0     H 2713   5.585   5.298   4.594  1.1969  0.3783  0.2286
   20MOL0     H 2714   5.462   5.461   4.434 -5.1961  1.0192 -0.3364
   20MOL0     H 2715   5.366   5.507   4.574 -1.2703 -2.1868 -0.2234
   20MOL0     H 2716   5.547   5.670   4.563  0.1155 -0.2736 -1.5539
   20MOL0     H 2717   5.594   5.563   4.691 -1.4241  2.0844  0.2542
   20MOL0     H 2718   5.719   5.784   4.638  1.5857  1.4138  1.1410
   20MOL0     H 2719   5.965   6.025   4.662  1.7742 -0.9863 -0.2384
   20MOL0     H 2720   5.946   5.942   4.815  2.0374 -1.3083 -0.5316
   20MOL0     H 2721   5.801   5.971   4.708 -0.1523 -0.4725  0.6103
   20MOL0     H 2722   6.374   5.821   4.893  0.5340  1.2796  0.8757
   20MOL0     H 2723   6.601   5.886   4.958 -0.0254 -0.2303  0.5207
   20MOL0     H 2724   6.791   6.117   4.817 -0.4943  1.2961  1.2996
   20MOL0     H 2725   6.761   6.014   4.952  0.5797  1.0419  0.6752
   20MOL0     H 2726   7.020   6.017   4.814 -3.3670 -1.0376 -1.9837
   20MOL0     H 2727   6.975   6.152   4.915  1.0758 -0.0038  1.1751
   20MOL0     H 2728   7.006   5.850   5.010  1.0707 -0.6812  2.0377
   20MOL0     H 2729   6.936   5.987   5.111  0.0839 -1.0072 -0.1833
   20MOL0     H 2730   7.142   6.117   5.055 -0.6142 -0.3891  0.5613
   20MOL0     H 2731   7.184   5.979   4.953 -0.4848  0.3565  0.1523
   20MOL0     H 2732   7.195   5.988   5.257  3.9052  0.5307  0.1274
   20MOL0     H 2733   7.184   5.837   5.174  2.5278 -0.2956  0.9014
   20MOL0     H 2734   7.408   6.056   5.174 -0.9866 -0.3815  2.3078
   20MOL0     H 2735   7.398   5.934   5.047 -1.0136 -0.2701 -0.4970
   20MOL0     H 2736   7.414   5.757   5.198 -0.2930  0.4501 -1.0871
   20MOL0     H 2737   7.402   5.867   5.347  2.0018  3.9961  0.5460
   20MOL0     H 2738   7.624   5.871   5.139 -0.6487 -1.4882  0.5804
   20MOL0     H 2739   7.632   5.806   5.305 -1.1362 -0.5878  1.8201
   20MOL0     H 2740   6.734   5.802   4.559  0.4607  0.1777 -0.1008
   20MOL0     H 2741   6.481   5.728   4.502  1.5586 -0.1731 -0.5614
   20MOL0     H 2742   6.148   5.585   4.517 -0.1081 -0.0638  0.3090
   20MOL0     H 2743   5.938   5.471   4.454 -2.6050  0.4627  0.2476
   20MOL0     H 2744   4.058   5.448   5.028 -0.1077 -0.0234  4.5838
   20MOL0     H 2745   3.880   5.461   5.184  1.1066 -2.1724  2.5502
   20MOL0     H 2746   3.435   5.197   5.274  2.6558  0.6408 -1.0216
   20MOL0     H 2747   3.237   5.237   5.412  3.4622 -0.7422 -4.4323
   20MOL0     H 2748   3.288   5.456   5.828  1.8273 -3.3287  1.3544
   20MOL0     H 2749   3.116   5.409   5.820 -0.3056 -2.4883  0.3112
   20MOL0     H 2750   3.345   5.239   5.851 -0.2618  1.1519 -0.9306
   20MOL0     H 2751   3.200   5.167   5.795  3.1991 -0.1003 -2.3800
   20MOL0     H 2752   3.207   5.336   6.047 -2.9063  3.6552 -3.6245
   20MOL0     H 2753   3.067   5.238   5.990 -0.4182 -0.6227 -0.0185
   20MOL0     H 2754   3.188   5.027   6.020 -1.4641  0.8603 -0.1474
   20MOL0     H 2755   3.168   5.110   6.173 -1.7162 -0.3179  0.6729
   20MOL0     H 2756   3.590   5.105   6.151 -0.2177 -0.5410  1.0602
   20MOL0     H 2757   3.472   5.414   5.717  1.8906 -2.1374  0.0286
   20MOL0     H 2758   3.692   5.561   5.516  2.8689  0.2781  0.4897
   20MOL0     H 2759   3.675   5.497   5.677 -2.8246 -2.9362  1.3434
   20MOL0     H 2760   3.787   5.424   5.562  0.0647  1.3913 -0.5343
   21MOL0     O 2761   1.282  10.336   0.627  0.5968  0.0275 -0.7096
   21MOL0     C 2762   1.197  10.413   0.576  0.2217 -0.4147 -0.7637
   21MOL0     O 2763   1.211  10.545   0.555  0.2093 -0.3630  0.1311
   21MOL0     C 2764   1.328  10.601   0.607  0.9014 -0.0752  0.3234
   21MOL0     C 2765   1.301  10.711   0.684 -0.5793 -0.3959  0.1690
   21MOL0     C 2766   1.402  10.791   0.741 -0.8028  0.1927  0.8541
   21MOL0     C 2767   1.536  10.770   0.703  0.3140  0.2034 -0.2213
   21MOL0     O 2768   1.639  10.848   0.757 -0.5646  0.2570  0.2776
   21MOL0     C 2769   1.628  10.906   0.885 -0.0500  0.4396  0.2636
   21MOL0     C 2770   1.765  10.945   0.934 -0.5584 -0.2529  0.0006
   21MOL0     C 2771   1.849  10.823   0.970  0.4854 -0.0146  0.8249
   21MOL0     C 2772   1.883  10.815   1.112 -0.9731 -0.4598  0.4390
   21MOL0     C 2773   1.949  10.673   1.132 -0.0763 -0.7413  0.9534
   21MOL0     C 2774   1.932  10.620   1.274  0.3549  0.9853 -0.0663
   21MOL0     C 2775   2.008  10.700   1.375  0.1350 -0.1767  0.8188
   21MOL0     C 2776   1.981  10.654   1.523 -1.1204  0.1532  0.6063
   21MOL0     N 2777   2.047  10.739   1.623  0.2987 -1.1195  1.0073
   21MOL0     C 2778   2.185  10.757   1.626 -0.5950  0.2942 -0.2558
   21MOL0     C 2779   2.212  10.831   1.737 -0.6014  0.0480 -0.1134
   21MOL0     C 2780   2.348  10.862   1.788  0.3366  0.0112  0.3434
   21MOL0     C 2781   2.410  10.992   1.727  0.1166  0.1264 -0.2501
   21MOL0     C 2782   2.346  11.124   1.782 -0.2962  0.8388 -0.0735
   21MOL0     C 2783   2.400  11.250   1.730 -0.4070 -0.7552 -0.4624
   21MOL0     O 2784   2.367  11.246   1.586  0.3681 -0.8383  0.1535
   21MOL0     C 2785   2.421  11.345   1.506 -0.2089  0.2475 -0.1426
   21MOL0     C 2786   2.361  11.366   1.383 -1.0436  0.1482  0.4419
   21MOL0     C 2787   2.406  11.466   1.299  0.2182 -0.2575 -0.0145
   21MOL0     C 2788   2.318  11.492   1.173 -0.1074 -0.6151 -0.4177
   21MOL0     C 2789   2.512  11.549   1.336  0.0438 -0.1482 -1.2924
   21MOL0     C 2790   2.585  11.654   1.249  0.7338  0.2527  0.2324
   21MOL0     O 2791   2.611  11.778   1.310 -0.1916 -0.0249 -0.0542
   21MOL0     C 2792   2.687  11.858   1.235 -0.3692 -0.9989  0.1496
   21MOL0     C 2793   2.656  11.998   1.239  0.6275 -1.5157  0.1348
   21MOL0     C 2794   2.739  12.096   1.181 -0.1275 -0.1561 -0.8095
   21MOL0     C 2795   2.851  12.057   1.103 -0.7726  0.2545  0.4276
   21MOL0     O 2796   2.939  12.145   1.040  0.2478 -0.4177 -0.0881
   21MOL0     C 2797   2.890  12.277   0.986 -0.3032  0.6034 -0.5434
   21MOL0     C 2798   2.928  12.401   1.076  0.6342 -0.7662  0.0480
   21MOL0     C 2799   2.854  12.525   1.036 -0.0183  0.3649  0.0966
   21MOL0     C 2800   2.893  12.599   0.908  0.3410  0.0535 -1.0176
   21MOL0     C 2801   2.792  12.721   0.875 -0.9548  0.8524 -0.1473
   21MOL0     C 2802   2.836  12.805   0.756  0.0640  0.2164  0.0769
   21MOL0     C 2803   2.976  12.864   0.756 -0.2531  0.5149 -0.4251
   21MOL0     C 2804   2.980  12.997   0.678 -0.1677 -0.1225  0.9446
   21MOL0    Cl 2805   3.138  13.066   0.694 -0.0366  0.2087 -0.7667
   21MOL0     C 2806   2.878  11.927   1.098  0.4304  0.3314  0.0408
   21MOL0     C 2807   2.800  11.829   1.155 -0.4792  0.3357  0.1537
   21MOL0     O 2808   2.607  11.628   1.129 -0.2375  0.0152 -0.2156
   21MOL0     C 2809   2.569  11.524   1.465  0.6788 -0.7311 -0.3672
   21MOL0     C 2810   2.521  11.428   1.555 -0.4621  0.2194 -0.4054
   21MOL0     N 2811   2.092  10.871   1.787 -0.4836  0.5158 -0.1989
   21MOL0     N 2812   1.990  10.814   1.723  0.4285 -0.7820  0.0490
   21MOL0     C 2813   1.571  10.667   0.616 -0.3805  0.2316 -0.9888
   21MOL0     C 2814   1.461  10.574   0.576 -0.2545 -0.8140  0.5908
   21MOL0     C 2815   1.062  10.365   0.561 -0.0778 -0.1222 -0.1946
   21MOL0     C 2816   0.949  10.448   0.584  0.2883 -0.2609 -0.3725
   21MOL0     C 2817   0.816  10.406   0.574  0.2911 -0.0273 -0.1685
   21MOL0     C 2818   0.796  10.273   0.565  0.6344 -0.1666  0.4166
   21MOL0     O 2819   0.660  10.243   0.543 -0.3362  0.7658  0.2892
   21MOL0     C 2820   0.591  10.193   0.657 -1.1538  0.2920  0.1481
   21MOL0     C 2821   0.458  10.254   0.652 -1.0542  0.0201 -0.3880
   21MOL0     C 2822   0.378  10.233   0.776  0.2914  0.3519 -0.4068
   21MOL0     C 2823   0.243  10.303   0.776 -0.3660  0.1207 -0.5842
   21MOL0     C 2824   0.162  10.247   0.669  0.6454 -0.8050  0.3420
   21MOL0     C 2825   0.088  10.196   0.587 -0.3982  0.0851  0.3268
   21MOL0     C 2826   0.900  10.189   0.546  1.3871  0.4215 -0.9351
   21MOL0     C 2827   1.028  10.226   0.544  0.2538 -0.6308 -0.2636
   21MOL0     C 2828   1.131  10.125   0.504 -0.2033  0.6751  0.4248
   21MOL0     H 2829   1.202  10.739   0.719 -0.0364  0.1136  1.3619
   21MOL0     H 2830   1.371  10.871   0.809  0.2215  0.1852  1.3494
   21MOL0     H 2831   1.588  10.827   0.949 -1.4447  0.7828 -0.1545
   21MOL0     H 2832   1.558  10.989   0.875 -0.4139 -0.1049 -2.2044
   21MOL0     H 2833   1.830  11.000   0.865 -0.3170  2.5435  2.2816
   21MOL0     H 2834   1.762  11.007   1.024 -0.0321 -0.5656  0.2431
   21MOL0     H 2835   1.803  10.728   0.938  1.0012  0.6398 -2.1781
   21MOL0     H 2836   1.944  10.835   0.917  1.1002 -0.9616  1.6673
   21MOL0     H 2837   1.951  10.890   1.154 -0.1751 -0.5738 -0.6148
   21MOL0     H 2838   1.789  10.815   1.168 -0.7377  0.1567  0.8576
   21MOL0     H 2839   2.056  10.681   1.114  0.4062 -4.5381  1.3910
   21MOL0     H 2840   1.901  10.600   1.067  1.5774  0.6091 -1.9968
   21MOL0     H 2841   1.825  10.610   1.296  0.6983  3.3695  3.4915
   21MOL0     H 2842   1.977  10.520   1.274  0.8217  1.1833 -1.0958
   21MOL0     H 2843   1.987  10.807   1.369  0.4614 -0.1166  0.6879
   21MOL0     H 2844   2.113  10.685   1.344  0.0073  1.4733 -0.5614
   21MOL0     H 2845   1.873  10.655   1.544 -1.0354  0.2389  1.0585
   21MOL0     H 2846   2.017  10.556   1.556  0.9006  0.7570  0.2869
   21MOL0     H 2847   2.268  10.710   1.575  0.3895 -0.6897  2.0838
   21MOL0     H 2848   2.409  10.772   1.775 -1.6157 -2.0105  3.7220
   21MOL0     H 2849   2.329  10.863   1.895 -2.3245  0.0121 -0.0347
   21MOL0     H 2850   2.519  10.989   1.739  0.0107  2.3955  2.5620
   21MOL0     H 2851   2.380  10.988   1.622 -2.4428  1.3777  0.3501
   21MOL0     H 2852   2.241  11.118   1.752  0.4111 -0.0027 -2.6510
   21MOL0     H 2853   2.360  11.118   1.890 -0.2733  2.7952  0.0598
   21MOL0     H 2854   2.370  11.341   1.783  2.2551  0.5866 -1.0714
   21MOL0     H 2855   2.509  11.244   1.739 -0.4661 -0.1484  0.8381
   21MOL0     H 2856   2.290  11.287   1.363  0.7216 -2.7588  4.2310
   21MOL0     H 2857   2.343  11.582   1.117 -1.0602  1.7058  2.6472
   21MOL0     H 2858   2.217  11.510   1.211 -0.4393  0.1609 -1.6115
   21MOL0     H 2859   2.324  11.408   1.103  1.0599 -1.4868  0.6776
   21MOL0     H 2860   2.580  12.029   1.310  2.0248  0.5107  0.8265
   21MOL0     H 2861   2.710  12.198   1.203  0.5068  0.2235 -1.6681
   21MOL0     H 2862   2.929  12.281   0.884  0.6020 -1.8977 -0.3619
   21MOL0     H 2863   2.780  12.274   0.981 -0.3864 -0.8109  1.1318
   21MOL0     H 2864   2.888  12.378   1.176  0.5230 -1.0448 -0.0607
   21MOL0     H 2865   3.034  12.425   1.089  0.6171 -0.4944 -0.3214
   21MOL0     H 2866   2.876  12.596   1.117  0.8639 -1.8233  1.8848
   21MOL0     H 2867   2.746  12.510   1.024  0.3592 -0.8496 -2.0672
   21MOL0     H 2868   2.898  12.524   0.828 -0.3806 -3.5218  2.0050
   21MOL0     H 2869   2.992  12.636   0.935  2.0699 -1.0370 -5.0266
   21MOL0     H 2870   2.690  12.685   0.854 -1.7430  2.3530  0.9202
   21MOL0     H 2871   2.774  12.772   0.970  0.6507 -1.7940  1.7244
   21MOL0     H 2872   2.762  12.882   0.732  0.0773 -0.4819 -2.4132
   21MOL0     H 2873   2.830  12.739   0.669  2.0838  2.0017 -1.5358
   21MOL0     H 2874   3.043  12.796   0.702  0.1222  1.6912 -1.4791
   21MOL0     H 2875   3.000  12.869   0.862  1.2092 -4.6277 -0.2692
   21MOL0     H 2876   2.909  13.067   0.724 -1.3965 -0.8276  0.1676
   21MOL0     H 2877   2.949  12.984   0.574  0.4904 -0.7950  0.8252
   21MOL0     H 2878   2.966  11.896   1.042  1.8840  0.8917  1.9106
   21MOL0     H 2879   2.837  11.727   1.153  1.3061  0.9216  1.1254
   21MOL0     H 2880   2.646  11.594   1.496 -0.8896  0.3416  1.3334
   21MOL0     H 2881   2.559  11.419   1.656 -1.4766  0.3086 -0.0103
   21MOL0     H 2882   1.676  10.653   0.593 -0.0263 -0.4560  0.8703
   21MOL0     H 2883   1.492  10.487   0.518 -0.1957  0.0683 -0.7299
   21MOL0     H 2884   0.958  10.552   0.613  1.3945 -0.6577  0.8169
   21MOL0     H 2885   0.737  10.476   0.600 -0.9177 -2.2985  2.8523
   21MOL0     H 2886   0.588  10.084   0.660  2.3249  0.0715  0.4287
   21MOL0     H 2887   0.650  10.224   0.744  0.8264  0.1097 -1.0561
   21MOL0     H 2888   0.404  10.223   0.562 -1.7266 -0.4260  0.1531
   21MOL0     H 2889   0.472  10.362   0.640 -1.7305  0.3215  1.2403
   21MOL0     H 2890   0.352  10.127   0.787 -2.7064  1.0296  0.0129
   21MOL0     H 2891   0.427  10.259   0.870 -1.0576 -0.6355  0.6112
   21MOL0     H 2892   0.238  10.412   0.775 -2.8286  0.1347  1.2699
   21MOL0     H 2893   0.197  10.277   0.873 -1.0995 -1.2642 -1.2772
   21MOL0     H 2894   0.015  10.160   0.517 -1.5483  2.8546 -0.0302
   21MOL0     H 2895   0.875  10.083   0.542 -1.0791  0.9585 -1.2889
   21MOL0     H 2896   1.221  10.120   0.566  0.5795 -0.8552 -0.7690
   21MOL0     H 2897   1.087  10.024   0.504  0.6291  0.2862 -1.1368
   21MOL0     H 2898   1.165  10.143   0.402 -1.9818  1.2827 -0.0936
   22MOL0     O 2899   1.113   3.733   0.478 -0.6690 -0.3464  0.1053
   22MOL0     C 2900   1.052   3.705   0.376 -0.1402  0.4347  0.8162
   22MOL0     O 2901   1.016   3.786   0.274  0.8958 -0.0867 -0.9109
   22MOL0     C 2902   1.074   3.914   0.262  0.6788  1.0820 -0.2043
   22MOL0     C 2903   1.161   3.947   0.157  0.1376 -0.5283 -0.0581
   22MOL0     C 2904   1.196   4.077   0.137  0.4478 -1.0666 -0.4727
   22MOL0     C 2905   1.141   4.180   0.217 -0.0492  0.5792 -0.3227
   22MOL0     O 2906   1.187   4.307   0.196  0.1903 -1.0971 -0.5005
   22MOL0     C 2907   1.196   4.388   0.307 -0.4945  0.3973 -0.1710
   22MOL0     C 2908   1.290   4.498   0.271 -0.1765 -0.0202 -0.2039
   22MOL0     C 2909   1.295   4.619   0.362  0.2386  0.3438  0.1525
   22MOL0     C 2910   1.385   4.723   0.309  0.2895  0.1057  0.2201
   22MOL0     C 2911   1.396   4.848   0.396  0.0979  0.1630  0.4002
   22MOL0     C 2912   1.507   4.953   0.352 -0.1171  0.3032 -1.4545
   22MOL0     C 2913   1.554   5.040   0.472  0.0427 -0.2277 -0.4469
   22MOL0     C 2914   1.654   5.147   0.425 -0.2393  0.4336  0.0102
   22MOL0     N 2915   1.694   5.229   0.544  0.1669 -0.3298 -0.1328
   22MOL0     C 2916   1.683   5.364   0.539  0.8119  0.1590 -0.0655
   22MOL0     C 2917   1.705   5.402   0.674 -0.2673  0.1476  0.6200
   22MOL0     C 2918   1.695   5.537   0.737  0.2468 -0.2379  0.0395
   22MOL0     C 2919   1.822   5.592   0.785 -0.1401 -0.1068  0.5892
   22MOL0     C 2920   1.931   5.618   0.683  0.2785 -0.0335 -0.0594
   22MOL0     C 2921   2.058   5.670   0.751  0.3279 -0.6653  1.3208
   22MOL0     O 2922   2.162   5.695   0.656  0.3634  0.7052  0.2462
   22MOL0     C 2923   2.290   5.717   0.689 -0.9001 -0.3538  1.1315
   22MOL0     C 2924   2.376   5.750   0.585  0.2048 -0.0375  0.0023
   22MOL0     C 2925   2.512   5.764   0.599  0.2063  0.0923 -0.6477
   22MOL0     C 2926   2.598   5.808   0.490  0.2387 -0.3949  0.0729
   22MOL0     C 2927   2.573   5.742   0.731  0.0677  0.5167 -0.0213
   22MOL0     C 2928   2.722   5.749   0.758  0.0117  0.2597 -0.4624
   22MOL0     O 2929   2.761   5.778   0.889 -0.4524 -0.6709  0.1875
   22MOL0     C 2930   2.896   5.781   0.895 -0.1085  0.0587  0.1011
   22MOL0     C 2931   2.964   5.896   0.874  0.3513 -0.0516  0.8422
   22MOL0     C 2932   3.103   5.901   0.869 -0.1867 -0.0302 -0.1578
   22MOL0     C 2933   3.175   5.779   0.886  0.4710 -0.1941  0.4399
   22MOL0     O 2934   3.309   5.787   0.877 -0.9249  0.4106  0.0612
   22MOL0     C 2935   3.388   5.683   0.938 -1.0663 -0.4455 -0.3675
   22MOL0     C 2936   3.543   5.738   0.942  0.3563 -0.1382 -0.0681
   22MOL0     C 2937   3.603   5.720   0.801 -0.0397 -0.5866 -0.3780
   22MOL0     C 2938   3.750   5.769   0.790 -0.3249  0.0762 -0.6254
   22MOL0     C 2939   3.777   5.792   0.637  0.3916  0.4654 -0.8211
   22MOL0     C 2940   3.923   5.855   0.623  0.6781  1.5100 -0.2339
   22MOL0     C 2941   4.031   5.768   0.671 -0.4318 -0.0061 -0.1423
   22MOL0     C 2942   4.165   5.841   0.671  0.0192  0.1865  0.4003
   22MOL0    Cl 2943   4.296   5.717   0.678  0.4094  0.3790  0.4017
   22MOL0     C 2944   3.102   5.663   0.916  0.6763 -0.2772  0.2411
   22MOL0     C 2945   2.962   5.660   0.907  0.4652 -0.4531  0.1584
   22MOL0     O 2946   2.794   5.725   0.664 -0.0816  0.1418 -0.6103
   22MOL0     C 2947   2.482   5.724   0.837  0.0005 -0.3147  0.3552
   22MOL0     C 2948   2.343   5.715   0.814 -0.0788  0.8824 -0.0161
   22MOL0     N 2949   1.735   5.283   0.745 -0.0253 -0.0465 -0.6508
   22MOL0     N 2950   1.729   5.186   0.664 -0.2202 -0.2209  1.1583
   22MOL0     C 2951   1.054   4.145   0.325  0.4132  1.2585  0.0951
   22MOL0     C 2952   1.023   4.012   0.349  0.0292  0.0226  1.1524
   22MOL0     C 2953   1.002   3.568   0.357 -1.3259  0.0825  0.3923
   22MOL0     C 2954   0.940   3.511   0.467  0.0665  0.5038  0.5373
   22MOL0     C 2955   0.880   3.384   0.452  0.2863 -0.2773 -0.0206
   22MOL0     C 2956   0.897   3.310   0.333  0.0301  0.7765 -0.7397
   22MOL0     O 2957   0.865   3.175   0.322  0.0834  0.2360 -0.0646
   22MOL0     C 2958   0.790   3.117   0.427  0.2166 -0.7194 -0.6309
   22MOL0     C 2959   0.756   2.975   0.395 -0.0721 -0.1397 -0.6439
   22MOL0     C 2960   0.707   2.938   0.249 -0.4009  0.3777  0.3454
   22MOL0     C 2961   0.747   2.799   0.200 -0.0475 -0.2367 -0.4539
   22MOL0     C 2962   0.684   2.766   0.076  0.2916 -0.1697  0.5828
   22MOL0     C 2963   0.620   2.730  -0.021 -0.2803  0.1168 -0.4356
   22MOL0     C 2964   0.971   3.362   0.227 -1.1252 -0.8375  0.9230
   22MOL0     C 2965   1.024   3.493   0.240  0.3774  0.1396 -0.3330
   22MOL0     C 2966   1.102   3.542   0.112  0.9926  0.3054 -0.3784
   22MOL0     H 2967   1.191   3.868   0.089 -0.2298  0.1017 -0.9733
   22MOL0     H 2968   1.271   4.103   0.063  0.4019  1.1606  0.1999
   22MOL0     H 2969   1.234   4.325   0.387  0.7013 -0.7870 -1.6043
   22MOL0     H 2970   1.099   4.427   0.338 -0.9103 -1.1858  0.6224
   22MOL0     H 2971   1.387   4.447   0.269 -0.5843 -0.8098 -0.6025
   22MOL0     H 2972   1.259   4.532   0.172 -1.3918  1.2895  0.5921
   22MOL0     H 2973   1.195   4.664   0.357 -0.2860 -0.8634 -0.7418
   22MOL0     H 2974   1.315   4.594   0.467  0.2296  1.0882  0.3371
   22MOL0     H 2975   1.488   4.687   0.298  0.6165  0.8281  0.8278
   22MOL0     H 2976   1.347   4.756   0.212 -2.1683 -4.0497 -0.4736
   22MOL0     H 2977   1.427   4.829   0.499  0.9902  2.0166  0.5170
   22MOL0     H 2978   1.296   4.893   0.396  0.4988  1.0771 -0.1027
   22MOL0     H 2979   1.590   4.900   0.303  1.5023  0.6131  0.7834
   22MOL0     H 2980   1.458   5.012   0.275 -1.4141  2.7242  1.0403
   22MOL0     H 2981   1.606   4.978   0.546 -1.3879  0.1228  0.9048
   22MOL0     H 2982   1.464   5.079   0.519  0.7245 -2.6555  3.3537
   22MOL0     H 2983   1.744   5.107   0.377 -0.0773 -0.8575  1.3480
   22MOL0     H 2984   1.607   5.210   0.348  2.1682  4.1737  1.3544
   22MOL0     H 2985   1.651   5.433   0.461  0.3163  0.7718  0.6669
   22MOL0     H 2986   1.632   5.533   0.826 -0.3787 -1.4209 -0.4261
   22MOL0     H 2987   1.656   5.613   0.669  2.5816  1.1637  0.1497
   22MOL0     H 2988   1.793   5.680   0.844 -2.2883 -0.0406 -0.4640
   22MOL0     H 2989   1.858   5.513   0.852 -1.0398 -1.4706 -0.4940
   22MOL0     H 2990   1.964   5.518   0.652  0.1439 -0.0395 -0.1837
   22MOL0     H 2991   1.898   5.672   0.594  0.3639  1.7018  0.9236
   22MOL0     H 2992   2.036   5.762   0.806  2.0322 -0.3490  1.5329
   22MOL0     H 2993   2.090   5.592   0.821 -0.7410 -0.9731  1.4814
   22MOL0     H 2994   2.333   5.755   0.486 -0.7588  0.9609  0.4506
   22MOL0     H 2995   2.666   5.731   0.453  0.3018 -1.3939  2.1264
   22MOL0     H 2996   2.651   5.901   0.512 -0.5461  0.9027 -2.9992
   22MOL0     H 2997   2.527   5.840   0.413  0.2901  2.0525  0.9530
   22MOL0     H 2998   2.915   5.991   0.857 -0.0702 -0.4633 -0.3280
   22MOL0     H 2999   3.163   5.991   0.856 -0.0278  0.0366  0.9210
   22MOL0     H 3000   3.350   5.664   1.039 -1.5663  3.7198  0.4039
   22MOL0     H 3001   3.381   5.594   0.874  0.0584  0.4163 -1.7441
   22MOL0     H 3002   3.556   5.843   0.966 -1.9124  0.4355 -1.1035
   22MOL0     H 3003   3.596   5.671   1.010  0.5172 -2.0183 -1.9335
   22MOL0     H 3004   3.537   5.776   0.733  0.5997 -1.3432 -1.6354
   22MOL0     H 3005   3.602   5.613   0.778 -1.3348 -0.8028  0.5490
   22MOL0     H 3006   3.822   5.703   0.839 -0.9089 -0.4007 -0.3917
   22MOL0     H 3007   3.754   5.866   0.840 -3.0007 -0.3744  0.6083
   22MOL0     H 3008   3.767   5.692   0.593 -0.0143  0.4604 -0.7208
   22MOL0     H 3009   3.707   5.867   0.599  1.1174  1.4271 -0.3003
   22MOL0     H 3010   3.927   5.952   0.673  1.8902  0.8950  0.9332
   22MOL0     H 3011   3.926   5.869   0.515  1.9850  2.6191 -0.0797
   22MOL0     H 3012   4.025   5.682   0.604  3.6963 -1.2845  0.8600
   22MOL0     H 3013   4.020   5.726   0.772 -2.4120  1.3765  0.2770
   22MOL0     H 3014   4.169   5.917   0.749 -1.3836 -0.8579  1.5424
   22MOL0     H 3015   4.167   5.899   0.578 -4.8752  1.1830  0.6477
   22MOL0     H 3016   3.156   5.571   0.933  1.0898  0.1102  1.1049
   22MOL0     H 3017   2.906   5.568   0.898 -1.6206  0.6249  1.2261
   22MOL0     H 3018   2.522   5.713   0.937  1.4684  0.4522 -0.1158
   22MOL0     H 3019   2.263   5.705   0.887 -0.6573  1.3991 -0.5681
   22MOL0     H 3020   1.020   4.217   0.399  2.6083  0.6436  1.8004
   22MOL0     H 3021   0.952   3.985   0.426 -1.5481 -0.5002 -0.4112
   22MOL0     H 3022   0.936   3.557   0.565 -0.3858 -1.3075  1.4179
   22MOL0     H 3023   0.841   3.358   0.550 -1.0802  0.9545 -0.1994
   22MOL0     H 3024   0.847   3.116   0.521 -0.1724 -0.5885 -0.3937
   22MOL0     H 3025   0.699   3.176   0.438  0.9048  0.7028 -2.2486
   22MOL0     H 3026   0.685   2.945   0.473 -3.2057  2.8775 -2.0561
   22MOL0     H 3027   0.851   2.922   0.405 -0.4729 -0.8392 -0.4755
   22MOL0     H 3028   0.601   2.963   0.249 -0.0890  1.9415 -0.8812
   22MOL0     H 3029   0.746   3.009   0.174 -0.4679 -0.0806 -0.1307
   22MOL0     H 3030   0.711   2.731   0.278  3.5538 -0.8582  0.8898
   22MOL0     H 3031   0.857   2.795   0.194  0.3039  1.1368  2.8094
   22MOL0     H 3032   0.564   2.720  -0.112 -0.3737  0.4807 -0.4189
   22MOL0     H 3033   0.986   3.309   0.133  2.0166 -0.3339  1.0253
   22MOL0     H 3034   1.118   3.465   0.036  5.0791  0.1940  0.3441
   22MOL0     H 3035   1.042   3.622   0.068 -1.6105 -1.1155  0.3773
   22MOL0     H 3036   1.196   3.590   0.141  0.1499  2.4515 -1.0311
   23MOL0     O 3037   4.614  10.989  10.900 -0.2308 -0.1440 -0.0115
   23MOL0     C 3038   4.561  10.892  10.851  1.6485  0.0826 -0.2036
   23MOL0     O 3039   4.629  10.788  10.811 -0.2443  0.7892 -0.1128
   23MOL0     C 3040   4.769  10.782  10.817  0.4670 -0.6968 -0.6679
   23MOL0     C 3041   4.831  10.676  10.886 -0.0643 -0.6429  0.3240
   23MOL0     C 3042   4.967  10.674  10.901 -0.6175  0.1580  0.2451
   23MOL0     C 3043   5.044  10.780  10.848 -0.7641  0.0620  0.1509
   23MOL0     O 3044   5.177  10.759  10.863  0.0499  0.0386  0.2501
   23MOL0     C 3045   5.257  10.868  10.915  0.6619 -0.3707 -0.6584
   23MOL0     C 3046   5.396  10.823  10.955 -0.6394 -0.4622  0.8591
   23MOL0     C 3047   5.483  10.937  11.014 -0.3666  0.1815 -0.3584
   23MOL0     C 3048   5.612  10.869  11.075  0.7250 -1.4018 -0.3728
   23MOL0     C 3049   5.719  10.975  11.105  0.4930 -0.0413  0.4508
   23MOL0     C 3050   5.867  10.935  11.093  0.5440  0.6166  0.5423
   23MOL0     C 3051   5.909  10.803  11.161  0.2639  0.1665 -0.9899
   23MOL0     C 3052   5.898  10.797  11.314  1.0401  0.3573  0.0533
   23MOL0     N 3053   5.966  10.912  11.382 -0.2426 -0.0050 -0.6761
   23MOL0     C 3054   6.092  10.946  11.351 -0.3335  0.2352  0.0036
   23MOL0     C 3055   6.134  11.039  11.438  0.6669  0.1220 -0.5953
   23MOL0     C 3056   6.262  11.115  11.454  0.1769  0.7149 -0.1204
   23MOL0     C 3057   6.357  11.120  11.336  0.1832 -0.3215 -0.5560
   23MOL0     C 3058   6.494  11.177  11.392  0.8962 -0.5740  0.0054
   23MOL0     C 3059   6.611  11.158  11.291 -0.0120  0.4027 -1.0101
   23MOL0     O 3060   6.728  11.219  11.358 -0.0499 -0.4339  0.0569
   23MOL0     C 3061   6.849  11.226  11.293 -0.1229 -0.3638 -0.2561
   23MOL0     C 3062   6.884  11.158  11.184 -0.0726 -0.2033 -0.8480
   23MOL0     C 3063   7.010  11.174  11.126  0.1173  0.1627  0.1536
   23MOL0     C 3064   7.048  11.082  11.008  0.3174 -0.4136  0.4716
   23MOL0     C 3065   7.101  11.271  11.183 -0.6454  0.3036  0.0480
   23MOL0     C 3066   7.238  11.291  11.128 -1.3531  0.2165 -0.1721
   23MOL0     O 3067   7.307  11.384  11.202 -0.7807 -0.3190  0.3980
   23MOL0     C 3068   7.448  11.386  11.200  0.3516  0.2544  0.1291
   23MOL0     C 3069   7.516  11.271  11.240 -0.5616  0.2342 -0.1047
   23MOL0     C 3070   7.652  11.253  11.220 -0.2580 -0.3125  0.5964
   23MOL0     C 3071   7.720  11.354  11.146  0.0225 -0.0081  0.7919
   23MOL0     O 3072   7.852  11.330  11.127 -0.4704 -0.0469 -0.6184
   23MOL0     C 3073   7.955  11.415  11.069 -0.6128  0.7489 -0.0993
   23MOL0     C 3074   8.091  11.375  11.114  0.3903 -0.3628  0.8694
   23MOL0     C 3075   8.096  11.389  11.266  0.0621 -0.1903  0.4604
   23MOL0     C 3076   8.222  11.325  11.321 -0.9106 -0.3064  1.1246
   23MOL0     C 3077   8.340  11.404  11.263  0.6760 -0.1328 -1.0130
   23MOL0     C 3078   8.468  11.374  11.342 -0.6342 -0.0253  0.0306
   23MOL0     C 3079   8.503  11.221  11.347  0.8401  0.2986 -0.3990
   23MOL0     C 3080   8.530  11.161  11.210 -0.3467 -0.6290 -0.6416
   23MOL0    Cl 3081   8.607  11.002  11.219  0.1144 -0.5894  0.0041
   23MOL0     C 3082   7.653  11.470  11.106  0.5707 -0.3259  0.2283
   23MOL0     C 3083   7.517  11.483  11.128 -0.4581 -0.0127  0.1377
   23MOL0     O 3084   7.289  11.209  11.046  0.9657 -0.3436 -0.4584
   23MOL0     C 3085   7.063  11.343  11.293  0.4063  0.0025 -0.5112
   23MOL0     C 3086   6.939  11.315  11.350  0.1386 -0.6075  0.6228
   23MOL0     N 3087   6.021  11.059  11.517 -0.7506  0.4329 -0.5492
   23MOL0     N 3088   5.922  10.980  11.487  0.1969  0.5975  0.6515
   23MOL0     C 3089   4.982  10.879  10.769 -0.7734 -0.1303  0.1375
   23MOL0     C 3090   4.844  10.880  10.750  0.2466 -0.5510 -0.6569
   23MOL0     C 3091   4.404  10.892  10.859  0.0188  0.1510 -0.3244
   23MOL0     C 3092   4.332  10.979  10.941 -0.7924  0.0716 -0.3626
   23MOL0     C 3093   4.191  10.976  10.956  0.2334  1.0806  0.2854
   23MOL0     C 3094   4.117  10.883  10.877 -0.0019  0.2388  0.8207
   23MOL0     O 3095   3.977  10.858  10.888 -0.1837 -1.0075  0.1829
   23MOL0     C 3096   3.907  10.885  10.764  0.4736  0.2512  0.3451
   23MOL0     C 3097   3.752  10.899  10.794 -0.0250  0.8302  0.0522
   23MOL0     C 3098   3.681  10.765  10.827 -0.4747 -0.0351 -0.0979
   23MOL0     C 3099   3.541  10.784  10.892 -0.1241  0.2335 -1.7012
   23MOL0     C 3100   3.440  10.883  10.851 -0.1895 -0.7483  0.4423
   23MOL0     C 3101   3.353  10.960  10.815 -0.2138 -0.4182 -0.3215
   23MOL0     C 3102   4.183  10.813  10.785 -1.0932  0.0391  0.5308
   23MOL0     C 3103   4.328  10.811  10.782  0.7958  1.4311  0.1010
   23MOL0     C 3104   4.375  10.712  10.671 -0.7540 -1.0027  0.1455
   23MOL0     H 3105   4.778  10.595  10.933  0.4286 -0.6035  0.9638
   23MOL0     H 3106   5.015  10.604  10.969 -1.8422  0.8708  1.9471
   23MOL0     H 3107   5.202  10.907  11.001  1.0008  1.7661 -1.3350
   23MOL0     H 3108   5.257  10.946  10.837 -0.3721 -1.1008 -1.4186
   23MOL0     H 3109   5.380  10.734  11.016 -2.0971  0.1672  1.4324
   23MOL0     H 3110   5.458  10.798  10.868 -0.3985  2.1769  0.1989
   23MOL0     H 3111   5.527  11.006  10.942  3.0867 -0.8788  0.5254
   23MOL0     H 3112   5.437  10.997  11.093 -2.5055  0.8618 -2.0208
   23MOL0     H 3113   5.586  10.805  11.160  2.3730  1.6435  2.6942
   23MOL0     H 3114   5.658  10.798  11.005 -0.2090 -1.0286 -1.3939
   23MOL0     H 3115   5.704  11.019  11.204 -0.5200  0.7950 -0.0548
   23MOL0     H 3116   5.700  11.058  11.036 -1.5391 -0.9269 -0.1441
   23MOL0     H 3117   5.887  10.923  10.986  0.8565  1.1973  0.5296
   23MOL0     H 3118   5.927  11.019  11.130 -0.7104  1.4936  0.6565
   23MOL0     H 3119   6.014  10.780  11.136 -0.1854 -2.2713 -0.9236
   23MOL0     H 3120   5.856  10.715  11.122  2.4812 -3.4763  3.2247
   23MOL0     H 3121   5.795  10.804  11.350  0.7788  0.2478 -0.6493
   23MOL0     H 3122   5.951  10.708  11.349 -0.0205  0.0837  1.0155
   23MOL0     H 3123   6.148  10.897  11.272  0.6075  3.2993 -1.3850
   23MOL0     H 3124   6.321  11.062  11.530 -0.0893 -0.2177 -0.5493
   23MOL0     H 3125   6.236  11.206  11.508  1.3879  1.1559 -0.2532
   23MOL0     H 3126   6.390  11.023  11.299  2.2557  0.1799 -0.1210
   23MOL0     H 3127   6.314  11.184  11.259 -0.4078  2.5152  1.9125
   23MOL0     H 3128   6.467  11.283  11.400  0.8688 -0.7184  2.7513
   23MOL0     H 3129   6.511  11.135  11.491  1.2982 -0.0118  0.1797
   23MOL0     H 3130   6.623  11.052  11.266 -1.3160 -0.1326  0.4504
   23MOL0     H 3131   6.604  11.211  11.196  6.4395  3.7887 -0.1772
   23MOL0     H 3132   6.820  11.074  11.160 -1.1384  0.4208 -0.2852
   23MOL0     H 3133   6.957  11.043  10.961 -0.5911  1.6100  0.4717
   23MOL0     H 3134   7.106  10.996  11.043  0.8031 -1.6009 -2.9081
   23MOL0     H 3135   7.097  11.142  10.931 -0.6057 -1.2906 -0.8562
   23MOL0     H 3136   7.460  11.192  11.290  2.1773 -1.7513  0.0798
   23MOL0     H 3137   7.711  11.169  11.256  0.0756 -0.2603  0.1717
   23MOL0     H 3138   7.950  11.390  10.963 -1.9791 -0.0098  0.1296
   23MOL0     H 3139   7.943  11.522  11.088 -2.3302  0.8255 -1.3428
   23MOL0     H 3140   8.102  11.271  11.081 -0.8085 -0.0272 -0.7071
   23MOL0     H 3141   8.160  11.439  11.058  1.5045 -2.6229 -0.5215
   23MOL0     H 3142   8.005  11.347  11.311 -1.7973  0.0919 -2.7013
   23MOL0     H 3143   8.097  11.497  11.283 -0.7292  0.5084 -3.0751
   23MOL0     H 3144   8.239  11.221  11.292  2.3742  0.4287 -0.0143
   23MOL0     H 3145   8.220  11.335  11.430  1.0596  0.5441  1.1316
   23MOL0     H 3146   8.363  11.384  11.158 -0.0060 -0.1577 -1.1614
   23MOL0     H 3147   8.319  11.510  11.274 -1.7226 -0.7288  0.9230
   23MOL0     H 3148   8.453  11.409  11.445  1.9147 -0.1772  0.5010
   23MOL0     H 3149   8.561  11.423  11.312 -0.4164 -1.0571 -1.0572
   23MOL0     H 3150   8.427  11.162  11.399  1.3296  0.2250  0.2545
   23MOL0     H 3151   8.584  11.201  11.418 -0.7476  0.5597  1.5737
   23MOL0     H 3152   8.604  11.228  11.167  1.4253 -2.2901 -0.3235
   23MOL0     H 3153   8.440  11.163  11.147 -0.0429  1.7851 -1.0806
   23MOL0     H 3154   7.710  11.544  11.050  2.5786 -2.4680 -0.7675
   23MOL0     H 3155   7.460  11.563  11.081  2.5175  2.6997  0.7912
   23MOL0     H 3156   7.125  11.411  11.350  0.8628 -1.1482  0.4237
   23MOL0     H 3157   6.922  11.362  11.446 -2.0864  1.5899 -0.6939
   23MOL0     H 3158   5.041  10.954  10.716 -1.0913  2.6503  3.3592
   23MOL0     H 3159   4.791  10.953  10.690  0.5455  0.1951 -0.0283
   23MOL0     H 3160   4.382  11.050  11.006 -2.6924 -0.4284  1.7585
   23MOL0     H 3161   4.134  11.038  11.025 -1.2510  0.5394 -0.4191
   23MOL0     H 3162   3.944  10.981  10.727 -0.1953  0.1157 -0.7223
   23MOL0     H 3163   3.926  10.806  10.690 -0.4361 -3.3332  3.6191
   23MOL0     H 3164   3.707  10.937  10.702 -1.7556 -0.8197  0.1488
   23MOL0     H 3165   3.743  10.983  10.864  1.2024  1.3388 -0.3741
   23MOL0     H 3166   3.677  10.711  10.732 -0.0070  0.2499 -0.2883
   23MOL0     H 3167   3.744  10.706  10.894 -3.5391 -2.9333  0.4636
   23MOL0     H 3168   3.555  10.820  10.995 -0.3488 -1.0804 -1.1901
   23MOL0     H 3169   3.504  10.682  10.903  1.5385 -0.1956  0.6454
   23MOL0     H 3170   3.285  11.042  10.800  0.6605  0.0969 -1.7097
   23MOL0     H 3171   4.134  10.740  10.721  0.9330  1.7345 -3.3303
   23MOL0     H 3172   4.443  10.641  10.721 -1.3144  0.2194  2.7963
   23MOL0     H 3173   4.289  10.658  10.631  1.7916 -4.8131 -0.7723
   23MOL0     H 3174   4.433  10.771  10.599  0.3029 -2.5686 -0.3496
   24MOL0     O 3175   8.095   0.753   1.128  0.3233  0.0270 -0.0171
   24MOL0     C 3176   7.999   0.801   1.068 -0.0739 -0.0725 -0.4945
   24MOL0     O 3177   7.995   0.907   0.978  0.4161 -0.4009 -0.0513
   24MOL0     C 3178   8.107   0.983   0.952 -0.0717 -0.1562 -0.6394
   24MOL0     C 3179   8.217   1.013   1.038  1.0574 -0.4264  0.0799
   24MOL0     C 3180   8.334   1.086   0.999  0.3675 -1.0894 -0.2170
   24MOL0     C 3181   8.332   1.140   0.872 -0.0339 -0.3097 -0.3592
   24MOL0     O 3182   8.429   1.231   0.821  0.4899 -0.4421 -0.2744
   24MOL0     C 3183   8.544   1.252   0.905  0.8268  0.2823  0.7589
   24MOL0     C 3184   8.651   1.330   0.834  0.7244 -0.1282  0.8047
   24MOL0     C 3185   8.754   1.379   0.939 -0.7165 -0.8143  0.2560
   24MOL0     C 3186   8.831   1.274   1.016 -0.2405 -0.5056 -0.0635
   24MOL0     C 3187   8.977   1.299   1.028  0.0418  0.1550 -0.7364
   24MOL0     C 3188   9.045   1.175   1.081 -0.4855 -0.2751  0.0252
   24MOL0     C 3189   9.192   1.191   1.083 -0.0442  0.2403  0.0544
   24MOL0     C 3190   9.244   1.238   1.216 -0.2804  0.7069 -0.5376
   24MOL0     N 3191   9.390   1.219   1.234  0.4261  0.2151 -0.2256
   24MOL0     C 3192   9.471   1.145   1.148  0.1918 -0.5537 -0.2942
   24MOL0     C 3193   9.589   1.140   1.209  0.1552 -0.0421  0.4178
   24MOL0     C 3194   9.715   1.069   1.148  0.0606 -0.4070 -0.5905
   24MOL0     C 3195   9.732   1.102   1.000  0.2513  0.2137  0.1699
   24MOL0     C 3196   9.685   0.976   0.912 -0.0347 -0.5439  0.1436
   24MOL0     C 3197   9.669   1.014   0.764  0.0468 -0.1696  0.3733
   24MOL0     O 3198   9.796   1.051   0.698  0.0064 -0.0289 -0.2395
   24MOL0     C 3199   9.783   1.113   0.574 -0.2563  0.3740  0.8924
   24MOL0     C 3200   9.661   1.143   0.512  0.5235 -0.5771 -0.0401
   24MOL0     C 3201   9.653   1.174   0.376  0.8247 -0.4115  0.6988
   24MOL0     C 3202   9.512   1.195   0.316 -0.0127 -0.7489 -0.6690
   24MOL0     C 3203   9.778   1.173   0.298  0.4310 -0.2041 -0.1342
   24MOL0     C 3204   9.771   1.198   0.157 -0.3826 -0.6402  0.8167
   24MOL0     O 3205   9.855   1.118   0.084  0.2707  0.2905 -0.2578
   24MOL0     C 3206   9.924   1.175  -0.022  0.6020 -0.3107 -0.0088
   24MOL0     C 3207  10.056   1.220  -0.019  0.5797  0.1481 -0.4332
   24MOL0     C 3208  10.127   1.275  -0.134  0.2568  0.0063 -0.4130
   24MOL0     C 3209  10.059   1.265  -0.257 -0.6562  0.8593  0.3783
   24MOL0     O 3210  10.099   1.317  -0.376 -0.4218  0.9670  0.4672
   24MOL0     C 3211  10.228   1.387  -0.380 -0.4764  0.5630 -0.1937
   24MOL0     C 3212  10.242   1.522  -0.335  0.4629 -0.1984 -0.0694
   24MOL0     C 3213  10.167   1.633  -0.413 -0.0452  0.4633  0.2826
   24MOL0     C 3214  10.233   1.760  -0.371  0.5626 -0.2957  0.6386
   24MOL0     C 3215  10.181   1.881  -0.455  0.1989  1.0489  0.1973
   24MOL0     C 3216  10.267   2.008  -0.436 -0.0057  0.3754  0.0423
   24MOL0     C 3217  10.233   2.112  -0.538  0.6808 -0.8743 -0.5471
   24MOL0     C 3218  10.348   2.211  -0.546 -0.8550 -0.8777  0.3584
   24MOL0    Cl 3219  10.340   2.320  -0.408  0.0384 -0.4255  0.0918
   24MOL0     C 3220   9.922   1.227  -0.256  0.3079 -1.0457  0.0287
   24MOL0     C 3221   9.851   1.181  -0.139  0.7846 -0.4272  0.1617
   24MOL0     O 3222   9.691   1.270   0.102  0.1716 -0.9617  0.1487
   24MOL0     C 3223   9.898   1.152   0.367 -0.1015  0.6662  0.8461
   24MOL0     C 3224   9.899   1.132   0.504 -0.8233 -0.1193 -0.7729
   24MOL0     N 3225   9.580   1.207   1.328  0.5070  0.2884 -0.2857
   24MOL0     N 3226   9.464   1.263   1.343 -0.0838  0.1537  0.6396
   24MOL0     C 3227   8.226   1.113   0.784  0.2905 -0.0292 -0.0399
   24MOL0     C 3228   8.116   1.048   0.824  0.1237 -0.0014 -0.3311
   24MOL0     C 3229   7.866   0.736   1.096 -0.5966 -0.0853  0.1001
   24MOL0     C 3230   7.749   0.815   1.076  1.2893 -0.2103  0.4501
   24MOL0     C 3231   7.624   0.757   1.110  0.3123 -0.3499 -0.5678
   24MOL0     C 3232   7.616   0.636   1.178 -0.7859  0.5649  0.2621
   24MOL0     O 3233   7.487   0.592   1.211 -0.0424 -0.2590  0.0072
   24MOL0     C 3234   7.458   0.455   1.192 -0.2063  0.1428  0.3286
   24MOL0     C 3235   7.301   0.450   1.193  0.1124  0.8248 -0.7893
   24MOL0     C 3236   7.243   0.309   1.171 -0.4751  0.7365  0.0018
   24MOL0     C 3237   7.279   0.210   1.273  0.4393  0.1622 -0.1306
   24MOL0     C 3238   7.187   0.190   1.382  0.6210  0.2367  0.0787
   24MOL0     C 3239   7.106   0.169   1.466 -0.2969  1.3330  0.0230
   24MOL0     C 3240   7.734   0.556   1.201 -0.4431  0.2390  0.0923
   24MOL0     C 3241   7.854   0.608   1.154  0.6295 -0.1449 -0.4897
   24MOL0     C 3242   7.968   0.510   1.176  0.1770 -0.6062 -0.0006
   24MOL0     H 3243   8.211   0.977   1.140  1.2463 -3.7699 -0.9832
   24MOL0     H 3244   8.414   1.102   1.070 -1.1221  2.7309  0.8412
   24MOL0     H 3245   8.581   1.154   0.936 -0.4810 -0.7825 -0.9091
   24MOL0     H 3246   8.510   1.314   0.989 -1.2355  2.6991 -1.6404
   24MOL0     H 3247   8.694   1.289   0.741 -0.5923  0.3242 -0.0249
   24MOL0     H 3248   8.605   1.424   0.804  0.8684  0.0572  1.1551
   24MOL0     H 3249   8.821   1.447   0.886  2.5122 -1.5197  3.1178
   24MOL0     H 3250   8.710   1.441   1.017  0.6750  0.3216  0.1669
   24MOL0     H 3251   8.785   1.275   1.115  0.2732  0.4709  0.1704
   24MOL0     H 3252   8.811   1.172   0.980 -0.0459 -0.8833  0.8702
   24MOL0     H 3253   8.988   1.382   1.098  1.6406 -1.7176  1.4287
   24MOL0     H 3254   9.027   1.320   0.933  0.8228  3.5721  0.3034
   24MOL0     H 3255   9.000   1.156   1.179  1.1084 -4.3415  0.1233
   24MOL0     H 3256   9.019   1.090   1.017 -0.4912  1.2379 -2.0762
   24MOL0     H 3257   9.237   1.250   1.002  3.4691 -3.2202 -0.8427
   24MOL0     H 3258   9.235   1.094   1.058 -1.1892  0.0122 -1.1018
   24MOL0     H 3259   9.219   1.345   1.218 -0.5128  0.7027 -1.9096
   24MOL0     H 3260   9.195   1.184   1.297 -1.8692 -1.5682 -2.8410
   24MOL0     H 3261   9.455   1.105   1.048  2.4450 -0.9430 -0.5614
   24MOL0     H 3262   9.711   0.959   1.149 -0.3415 -0.4261 -2.3258
   24MOL0     H 3263   9.801   1.107   1.204 -1.5596  1.8322  0.5434
   24MOL0     H 3264   9.680   1.194   0.975  2.7194  1.6852  0.0724
   24MOL0     H 3265   9.836   1.125   0.973  0.2715  0.8801  0.8092
   24MOL0     H 3266   9.766   0.903   0.913  0.4423 -0.1821 -3.0504
   24MOL0     H 3267   9.591   0.932   0.946  0.6845 -1.2166  1.3634
   24MOL0     H 3268   9.610   0.943   0.704  1.3331 -0.2969 -0.8042
   24MOL0     H 3269   9.608   1.104   0.756  0.6264  0.1169 -1.5151
   24MOL0     H 3270   9.571   1.117   0.566 -0.6718  0.4403 -1.4498
   24MOL0     H 3271   9.496   1.302   0.295 -2.4520 -0.8305  0.4573
   24MOL0     H 3272   9.432   1.157   0.380 -1.0818  1.0287 -0.8800
   24MOL0     H 3273   9.516   1.135   0.225 -0.9876 -0.2300 -1.0692
   24MOL0     H 3274  10.105   1.216   0.078 -1.4179 -3.6616  0.6373
   24MOL0     H 3275  10.226   1.319  -0.135  0.1458  0.2656 -0.2742
   24MOL0     H 3276  10.302   1.322  -0.331 -1.9738 -0.0745  1.3178
   24MOL0     H 3277  10.258   1.379  -0.485 -0.3443 -1.7016 -0.0402
   24MOL0     H 3278  10.223   1.541  -0.229  1.8975  0.0195  0.1816
   24MOL0     H 3279  10.350   1.540  -0.343  0.5902 -0.7652  0.3002
   24MOL0     H 3280  10.060   1.631  -0.394 -0.8389 -0.0976 -3.5273
   24MOL0     H 3281  10.180   1.615  -0.520  0.9439 -0.3224  0.5076
   24MOL0     H 3282  10.341   1.759  -0.387  0.4626  4.1276 -1.7087
   24MOL0     H 3283  10.216   1.790  -0.267  0.5074  1.5961  0.1309
   24MOL0     H 3284  10.166   1.839  -0.554 -0.0387 -1.6601  1.2930
   24MOL0     H 3285  10.077   1.892  -0.423 -1.0147 -2.3260 -2.0669
   24MOL0     H 3286  10.372   1.979  -0.442  0.2669  0.3726  3.2405
   24MOL0     H 3287  10.245   2.044  -0.335 -3.4622  0.4848 -0.6359
   24MOL0     H 3288  10.139   2.162  -0.515  1.3680 -0.4640  1.5878
   24MOL0     H 3289  10.221   2.073  -0.639  1.4244  0.9819 -1.3836
   24MOL0     H 3290  10.342   2.250  -0.648 -0.4597  0.1245  0.7067
   24MOL0     H 3291  10.444   2.158  -0.548 -0.4614 -0.1615 -0.2681
   24MOL0     H 3292   9.853   1.257  -0.334 -0.4262  1.1013  1.4028
   24MOL0     H 3293   9.746   1.151  -0.136  0.6912 -0.1194  2.9400
   24MOL0     H 3294   9.987   1.169   0.307 -1.5186  3.6122 -0.6361
   24MOL0     H 3295   9.990   1.130   0.563  0.3488 -0.1134 -2.5190
   24MOL0     H 3296   8.238   1.164   0.689  2.2592  0.8237  0.6210
   24MOL0     H 3297   8.029   1.023   0.765 -1.2300 -0.4557  1.7321
   24MOL0     H 3298   7.755   0.912   1.026  1.6621 -0.6293 -0.3342
   24MOL0     H 3299   7.534   0.810   1.084  0.5139  1.3132  1.7909
   24MOL0     H 3300   7.519   0.424   1.107  1.1821 -3.3342  2.3617
   24MOL0     H 3301   7.489   0.395   1.278  1.4138 -0.1919 -0.4628
   24MOL0     H 3302   7.260   0.509   1.111  0.9980  3.1689  0.3517
   24MOL0     H 3303   7.262   0.480   1.291 -1.4657 -2.8534 -0.1086
   24MOL0     H 3304   7.134   0.318   1.167 -0.6035 -0.9304 -1.4267
   24MOL0     H 3305   7.271   0.271   1.072 -1.8775  0.7630 -0.4190
   24MOL0     H 3306   7.384   0.210   1.304  0.5024  0.6928 -0.3422
   24MOL0     H 3307   7.279   0.115   1.218 -0.0291  0.5496 -0.8113
   24MOL0     H 3308   7.025   0.156   1.535 -0.6574  0.4385 -0.5507
   24MOL0     H 3309   7.723   0.455   1.237  1.4984 -0.8586 -2.1473
   24MOL0     H 3310   8.008   0.471   1.082  1.5461  0.1497  0.2267
   24MOL0     H 3311   8.056   0.535   1.237 -0.4654 -1.3494  1.2899
   24MOL0     H 3312   7.950   0.422   1.238  3.7681 -1.4517  0.1062
   25MOL0     O 3313   1.613   8.666   2.101 -0.4396 -0.7599  0.1903
   25MOL0     C 3314   1.620   8.661   2.222 -0.5144 -0.8533 -0.9291
   25MOL0     O 3315   1.748   8.648   2.292 -0.0903  0.0979  0.1322
   25MOL0     C 3316   1.863   8.655   2.222  0.1835  0.6444  0.5390
   25MOL0     C 3317   1.902   8.554   2.133  0.3431  0.6634 -0.0183
   25MOL0     C 3318   2.004   8.580   2.044  0.0788  0.1778  0.3390
   25MOL0     C 3319   2.082   8.702   2.049  0.1945 -0.0059 -0.0780
   25MOL0     O 3320   2.171   8.711   1.944 -0.1553 -0.4619  0.3388
   25MOL0     C 3321   2.276   8.813   1.946  0.0598 -0.3938  0.2921
   25MOL0     C 3322   2.357   8.805   1.812 -0.4255  0.7333  0.6735
   25MOL0     C 3323   2.451   8.680   1.809  0.8185  0.9919 -0.1356
   25MOL0     C 3324   2.382   8.535   1.794 -0.1067 -0.2800  0.1374
   25MOL0     C 3325   2.485   8.439   1.726 -0.6453  0.3418 -0.4051
   25MOL0     C 3326   2.451   8.288   1.727 -0.3633  0.1637  0.8825
   25MOL0     C 3327   2.320   8.254   1.661  0.0001 -0.3955 -0.0561
   25MOL0     C 3328   2.291   8.102   1.645 -0.0604 -0.1993 -0.0835
   25MOL0     N 3329   2.200   8.061   1.536 -0.5535 -0.0263  0.3795
   25MOL0     C 3330   2.073   8.021   1.555 -0.2636 -0.3688  0.0948
   25MOL0     C 3331   2.022   7.999   1.434 -0.2897  0.3010 -0.6335
   25MOL0     C 3332   1.879   7.980   1.385  0.3846  1.1276 -0.7747
   25MOL0     C 3333   1.779   7.886   1.461  0.3818 -1.0270  0.1977
   25MOL0     C 3334   1.781   7.902   1.612 -0.0896  0.1984 -0.0912
   25MOL0     C 3335   1.675   7.795   1.672 -0.3327 -0.5203 -0.0503
   25MOL0     O 3336   1.642   7.845   1.802 -0.4944  0.3133  0.4617
   25MOL0     C 3337   1.529   7.793   1.866  0.0903 -0.5788  0.1956
   25MOL0     C 3338   1.448   7.699   1.817  0.2554  0.7969  0.2516
   25MOL0     C 3339   1.336   7.648   1.884  0.2271 -0.0581  0.3016
   25MOL0     C 3340   1.275   7.528   1.816 -0.4903 -0.1903  0.9972
   25MOL0     C 3341   1.308   7.684   2.016  0.2594  0.1149  0.3323
   25MOL0     C 3342   1.196   7.647   2.099  0.5508  0.4262  1.2693
   25MOL0     O 3343   1.206   7.674   2.232 -0.3617 -0.0046  0.2924
   25MOL0     C 3344   1.084   7.700   2.301 -0.6701 -0.0441  0.3969
   25MOL0     C 3345   1.052   7.832   2.318 -0.9195  0.4587 -0.9958
   25MOL0     C 3346   0.939   7.868   2.395 -0.2738 -0.3683 -0.7596
   25MOL0     C 3347   0.860   7.773   2.455  0.4752  0.0057  0.9808
   25MOL0     O 3348   0.748   7.813   2.522 -0.1135 -0.3973  0.6179
   25MOL0     C 3349   0.662   7.730   2.599 -0.3161  0.1038  1.2273
   25MOL0     C 3350   0.560   7.654   2.509  0.0012 -0.5118 -0.3772
   25MOL0     C 3351   0.418   7.666   2.556  0.3184  0.1397 -0.1092
   25MOL0     C 3352   0.386   7.609   2.693  0.0630  0.5232  0.5781
   25MOL0     C 3353   0.245   7.654   2.744 -0.1026 -0.7027  0.1981
   25MOL0     C 3354   0.227   7.590   2.887  0.2349 -0.8997  0.4661
   25MOL0     C 3355   0.083   7.632   2.928  0.0660  0.4856  0.0458
   25MOL0     C 3356   0.046   7.586   3.067 -0.0080 -0.1638  0.3015
   25MOL0    Cl 3357   0.058   7.402   3.081  0.3381 -0.5503  0.0951
   25MOL0     C 3358   0.898   7.637   2.436  0.4174 -0.1204  0.7173
   25MOL0     C 3359   1.004   7.601   2.356  0.0058 -0.8356  0.4279
   25MOL0     O 3360   1.099   7.600   2.038  0.6223  0.0604 -0.3447
   25MOL0     C 3361   1.390   7.788   2.069  0.0258  0.4488  0.2716
   25MOL0     C 3362   1.496   7.837   1.997  0.1738  0.7988 -0.1997
   25MOL0     N 3363   2.131   8.010   1.345 -0.6253 -0.4536 -0.1861
   25MOL0     N 3364   2.229   8.051   1.412  0.3167 -0.0060  0.5466
   25MOL0     C 3365   2.053   8.789   2.154 -0.9465  0.5653  0.2690
   25MOL0     C 3366   1.946   8.764   2.239 -0.0793 -0.5301  0.4148
   25MOL0     C 3367   1.492   8.641   2.294 -0.1448 -0.6293 -1.0323
   25MOL0     C 3368   1.505   8.620   2.433 -1.1255  0.8338 -0.3967
   25MOL0     C 3369   1.400   8.601   2.519  0.6740 -0.0210 -0.1062
   25MOL0     C 3370   1.275   8.599   2.472  0.3568  0.5619  0.5474
   25MOL0     O 3371   1.186   8.575   2.573  0.4972  0.7661  0.8858
   25MOL0     C 3372   1.052   8.535   2.523 -0.1630  0.2870  0.1004
   25MOL0     C 3373   0.953   8.510   2.639 -0.2132 -0.2530  0.1490
   25MOL0     C 3374   0.806   8.491   2.573  0.1377  0.6400 -0.3541
   25MOL0     C 3375   0.690   8.503   2.677  0.3038  0.3405 -0.5124
   25MOL0     C 3376   0.559   8.479   2.621  0.5183  0.0803 -0.1480
   25MOL0     C 3377   0.450   8.441   2.578 -0.1865  0.2251 -0.3568
   25MOL0     C 3378   1.250   8.614   2.334 -0.9494 -0.6288 -0.1956
   25MOL0     C 3379   1.356   8.630   2.251 -0.0461  0.2485 -0.1925
   25MOL0     C 3380   1.326   8.630   2.100 -0.6002 -0.0457 -0.5128
   25MOL0     H 3381   1.839   8.466   2.134 -1.0480  1.6343  0.5676
   25MOL0     H 3382   2.022   8.496   1.978  0.9335  1.1283 -0.6688
   25MOL0     H 3383   2.335   8.792   2.036 -2.1276 -1.3849  1.5648
   25MOL0     H 3384   2.227   8.910   1.961 -1.6981 -1.4235  1.4606
   25MOL0     H 3385   2.291   8.802   1.724 -0.6771 -1.4755  0.8770
   25MOL0     H 3386   2.412   8.899   1.811  0.7006  0.1383 -1.9757
   25MOL0     H 3387   2.506   8.692   1.715 -0.1210 -2.0548 -1.2060
   25MOL0     H 3388   2.530   8.691   1.884  1.6295 -1.7157 -0.4554
   25MOL0     H 3389   2.344   8.497   1.889  0.2665  0.9354  0.8009
   25MOL0     H 3390   2.292   8.549   1.734 -1.5650 -2.7773  1.6196
   25MOL0     H 3391   2.582   8.456   1.774  0.2837 -0.2623 -2.0047
   25MOL0     H 3392   2.491   8.469   1.621  1.9092 -1.2251 -0.8105
   25MOL0     H 3393   2.532   8.246   1.667 -0.8061 -0.2035  0.5307
   25MOL0     H 3394   2.452   8.242   1.826  0.6380  1.6328  1.5832
   25MOL0     H 3395   2.329   8.309   1.567  1.5890 -0.0923  0.2526
   25MOL0     H 3396   2.243   8.291   1.729  1.2495 -0.0933  1.2322
   25MOL0     H 3397   2.384   8.046   1.633 -0.1652 -0.5489  0.6849
   25MOL0     H 3398   2.248   8.069   1.740  0.3378  1.5243  0.7330
   25MOL0     H 3399   2.015   8.016   1.646 -1.1362 -1.8488 -0.4966
   25MOL0     H 3400   1.882   7.947   1.281 -1.8666 -2.5648  0.1354
   25MOL0     H 3401   1.834   8.079   1.384 -2.3078 -0.0038  0.0736
   25MOL0     H 3402   1.682   7.915   1.421  1.2261  2.6668  0.4395
   25MOL0     H 3403   1.800   7.787   1.421  1.6978 -0.1069 -1.5605
   25MOL0     H 3404   1.877   7.876   1.657 -0.0875 -0.9376 -0.7349
   25MOL0     H 3405   1.761   8.006   1.643  0.4398 -0.6064  3.4568
   25MOL0     H 3406   1.581   7.797   1.616 -0.8746 -2.6836  0.7015
   25MOL0     H 3407   1.712   7.693   1.683 -0.0900 -0.4230  0.0457
   25MOL0     H 3408   1.475   7.664   1.718  2.7074 -0.8048  1.3784
   25MOL0     H 3409   1.355   7.469   1.770  0.3003  1.9453 -0.4852
   25MOL0     H 3410   1.204   7.558   1.739  0.8724  1.3960  0.2984
   25MOL0     H 3411   1.221   7.460   1.883 -4.7368 -0.7685 -2.5800
   25MOL0     H 3412   1.115   7.903   2.265 -0.4822 -0.3144 -1.5324
   25MOL0     H 3413   0.917   7.973   2.411  2.2217  0.6470 -3.1029
   25MOL0     H 3414   0.721   7.662   2.661 -0.5557 -3.2648 -1.9407
   25MOL0     H 3415   0.618   7.800   2.671  0.5979  2.1307 -0.1025
   25MOL0     H 3416   0.562   7.694   2.407  3.1145 -0.8436 -0.5572
   25MOL0     H 3417   0.604   7.554   2.500  0.3274 -0.2285 -2.5951
   25MOL0     H 3418   0.356   7.626   2.475  2.0902  0.0044 -1.4530
   25MOL0     H 3419   0.396   7.774   2.552 -0.0770  0.1691  1.7992
   25MOL0     H 3420   0.457   7.653   2.764  0.5212  2.0151 -0.7564
   25MOL0     H 3421   0.383   7.499   2.698  1.7553  0.3704 -0.9028
   25MOL0     H 3422   0.242   7.763   2.742 -1.0564 -0.7212 -0.0397
   25MOL0     H 3423   0.170   7.629   2.668 -0.5064  0.5273  0.1681
   25MOL0     H 3424   0.296   7.626   2.964 -1.5194 -1.6792  2.5066
   25MOL0     H 3425   0.233   7.481   2.896 -0.0763 -0.9110  0.5239
   25MOL0     H 3426   0.008   7.598   2.857 -0.0398  2.0172 -0.6294
   25MOL0     H 3427   0.076   7.740   2.911 -1.5439  0.3334 -0.3913
   25MOL0     H 3428  -0.060   7.612   3.075 -0.3623 -0.3750 -2.6646
   25MOL0     H 3429   0.104   7.628   3.150  0.1499 -0.3765  0.2992
   25MOL0     H 3430   0.827   7.562   2.467 -0.9232  0.1317 -1.4880
   25MOL0     H 3431   1.030   7.498   2.333 -0.5404 -0.7225 -0.7780
   25MOL0     H 3432   1.372   7.838   2.163 -0.0363  0.3886  0.2921
   25MOL0     H 3433   1.554   7.920   2.035 -1.2976  1.7057  0.1172
   25MOL0     H 3434   2.103   8.884   2.169 -1.8116  0.9801  0.5934
   25MOL0     H 3435   1.918   8.843   2.309  0.2997 -1.3127  1.4627
   25MOL0     H 3436   1.600   8.608   2.484 -0.4535  1.0226 -1.5756
   25MOL0     H 3437   1.410   8.577   2.624  0.3745  1.9715  0.4078
   25MOL0     H 3438   1.013   8.616   2.460  0.2634 -0.0542 -0.6161
   25MOL0     H 3439   1.055   8.445   2.460 -2.7601  1.8336 -2.4937
   25MOL0     H 3440   0.947   8.602   2.698 -3.2301 -0.1285 -0.1798
   25MOL0     H 3441   0.980   8.423   2.699  0.3573 -1.8449 -2.2897
   25MOL0     H 3442   0.791   8.570   2.499  0.8203 -1.2173 -2.6048
   25MOL0     H 3443   0.805   8.398   2.514 -1.0091 -0.2514  0.9869
   25MOL0     H 3444   0.677   8.607   2.707 -3.3979  0.3348 -1.5961
   25MOL0     H 3445   0.710   8.438   2.762  1.1331  2.5730  1.1047
   25MOL0     H 3446   0.350   8.419   2.546  0.0540 -1.4658 -0.0601
   25MOL0     H 3447   1.151   8.606   2.290 -0.2772 -0.2795 -1.8307
   25MOL0     H 3448   1.220   8.608   2.080 -0.7278  0.5046 -0.4412
   25MOL0     H 3449   1.362   8.728   2.067  0.0960 -0.3498 -0.6719
   25MOL0     H 3450   1.387   8.556   2.047  0.7345 -0.6168  1.7195
   26MOL0     O 3451   7.261   7.366   0.559 -0.0970  0.3312  0.1747
   26MOL0     C 3452   7.310   7.475   0.573  0.5219 -0.0797  0.4027
   26MOL0     O 3453   7.416   7.525   0.499 -0.5064  0.5653 -1.0802
   26MOL0     C 3454   7.469   7.439   0.405  0.5189 -0.4304  0.0868
   26MOL0     C 3455   7.605   7.417   0.393  0.0604  0.1661 -0.2816
   26MOL0     C 3456   7.652   7.342   0.283 -0.5526  0.1300 -0.5376
   26MOL0     C 3457   7.573   7.301   0.181 -0.7104  0.2973  0.0121
   26MOL0     O 3458   7.646   7.251   0.071  0.4390 -0.0070 -0.5627
   26MOL0     C 3459   7.576   7.228  -0.050 -0.2081 -0.2276  0.0749
   26MOL0     C 3460   7.666   7.156  -0.151  0.5768  0.5929 -0.0038
   26MOL0     C 3461   7.698   7.018  -0.098 -0.0374 -0.2492 -0.1920
   26MOL0     C 3462   7.784   6.934  -0.202  0.4578 -0.9738 -0.3421
   26MOL0     C 3463   7.789   6.785  -0.160 -0.6903  0.0916  0.2899
   26MOL0     C 3464   7.660   6.714  -0.162 -0.3831  0.7846  0.7945
   26MOL0     C 3465   7.651   6.558  -0.194 -0.0869  0.6893  0.0432
   26MOL0     C 3466   7.731   6.478  -0.089  0.8210 -0.3838  0.2832
   26MOL0     N 3467   7.700   6.342  -0.075  0.5307  0.4004 -0.5411
   26MOL0     C 3468   7.765   6.230  -0.137 -0.0743  0.1713 -0.0099
   26MOL0     C 3469   7.689   6.130  -0.104  0.2948  0.1576  0.6953
   26MOL0     C 3470   7.696   5.994  -0.164  0.0661 -0.6884 -0.6271
   26MOL0     C 3471   7.831   5.925  -0.154 -0.1475 -0.5033 -0.7041
   26MOL0     C 3472   7.854   5.843  -0.031 -0.1757  0.2222 -0.4167
   26MOL0     C 3473   7.993   5.764  -0.016  0.5829 -0.8617  0.1166
   26MOL0     O 3474   8.090   5.869   0.006 -0.0396  0.1463  0.0628
   26MOL0     C 3475   8.219   5.830   0.019  0.3020 -0.8297  0.2045
   26MOL0     C 3476   8.304   5.930   0.068 -1.1135  0.0345  0.5523
   26MOL0     C 3477   8.444   5.900   0.092  0.0420  0.3911  0.3143
   26MOL0     C 3478   8.518   6.014   0.153  0.3302 -1.4387 -0.0471
   26MOL0     C 3479   8.501   5.768   0.063  0.1052 -0.4090 -0.1351
   26MOL0     C 3480   8.649   5.741   0.074 -0.1133  0.0479 -0.3310
   26MOL0     O 3481   8.698   5.620   0.031  0.4129 -0.6391 -0.4695
   26MOL0     C 3482   8.830   5.592   0.047  0.3008 -0.1669  0.0318
   26MOL0     C 3483   8.874   5.543   0.165 -0.7005  0.4217  0.1475
   26MOL0     C 3484   9.017   5.532   0.190  0.2973  0.1054  0.2287
   26MOL0     C 3485   9.105   5.579   0.090 -0.6014 -1.3837 -0.3494
   26MOL0     O 3486   9.248   5.581   0.100  0.2089  0.1333 -0.1149
   26MOL0     C 3487   9.314   5.523   0.219 -0.9182  0.3333  0.0989
   26MOL0     C 3488   9.461   5.555   0.194  0.1281 -0.0224  0.1923
   26MOL0     C 3489   9.559   5.494   0.304  0.8146  1.8033  0.2260
   26MOL0     C 3490   9.707   5.520   0.272  0.3280  0.8592  0.0572
   26MOL0     C 3491   9.767   5.629   0.358  0.7744  0.6767  0.4186
   26MOL0     C 3492   9.920   5.617   0.328  0.1569 -0.6422 -0.2472
   26MOL0     C 3493   9.989   5.711   0.432 -0.2006 -0.0360  0.4700
   26MOL0     C 3494  10.143   5.698   0.451  0.2091  0.0949 -0.5484
   26MOL0    Cl 3495  10.168   5.841   0.557 -0.2675  0.1623 -0.0806
   26MOL0     C 3496   9.057   5.638  -0.030  0.1585  1.3766  0.2557
   26MOL0     C 3497   8.920   5.637  -0.057  0.9119  0.7947 -0.4719
   26MOL0     O 3498   8.725   5.826   0.131 -0.5246 -0.0053 -0.9872
   26MOL0     C 3499   8.406   5.672   0.020  0.9524  0.5076 -0.2903
   26MOL0     C 3500   8.270   5.699  -0.001 -0.2206  0.3395 -0.6954
   26MOL0     N 3501   7.588   6.164  -0.026 -0.1659 -0.7863  0.2632
   26MOL0     N 3502   7.593   6.292  -0.004  0.3840  0.9559  0.1320
   26MOL0     C 3503   7.436   7.326   0.193 -1.4901  0.5340  0.7626
   26MOL0     C 3504   7.388   7.385   0.311 -0.0899  1.1295  0.4524
   26MOL0     C 3505   7.216   7.563   0.647 -1.1647  0.1811 -0.4611
   26MOL0     C 3506   7.224   7.706   0.621  0.8035 -0.2043  0.3890
   26MOL0     C 3507   7.135   7.806   0.688 -0.1013  0.6166  0.3178
   26MOL0     C 3508   7.043   7.761   0.782 -0.1913  0.0138  0.8611
   26MOL0     O 3509   6.973   7.857   0.852  0.4412  0.1967  0.5189
   26MOL0     C 3510   6.888   7.827   0.963  0.2038 -0.1648  0.7194
   26MOL0     C 3511   6.858   7.954   1.047 -0.4444  0.4687  1.0231
   26MOL0     C 3512   6.748   7.914   1.143 -0.4082  0.2154 -0.1696
   26MOL0     C 3513   6.702   8.025   1.233  0.2099 -0.1977 -0.6990
   26MOL0     C 3514   6.657   8.149   1.160  0.0609  1.0324 -0.9920
   26MOL0     C 3515   6.597   8.237   1.101 -0.4305 -0.1605  0.6212
   26MOL0     C 3516   7.028   7.625   0.798 -0.7662  0.5327 -0.8799
   26MOL0     C 3517   7.113   7.523   0.739 -0.2371  0.8739 -0.2670
   26MOL0     C 3518   7.073   7.385   0.777 -0.3216  0.3412 -0.2045
   26MOL0     H 3519   7.670   7.458   0.468 -0.6511  0.5069  0.1616
   26MOL0     H 3520   7.757   7.313   0.280 -0.3183  0.8984 -0.0929
   26MOL0     H 3521   7.523   7.314  -0.094 -2.7770 -1.0283  1.3589
   26MOL0     H 3522   7.492   7.159  -0.033 -0.4885  0.3980  1.4045
   26MOL0     H 3523   7.623   7.140  -0.251  0.3030  0.7069  0.0969
   26MOL0     H 3524   7.760   7.211  -0.161  0.2052  1.0271 -1.2760
   26MOL0     H 3525   7.747   7.015  -0.001 -0.1536 -2.0220 -0.1649
   26MOL0     H 3526   7.605   6.961  -0.086  2.0540 -3.4664  2.3171
   26MOL0     H 3527   7.747   6.951  -0.303  1.8953  2.2984 -0.4402
   26MOL0     H 3528   7.885   6.971  -0.182 -0.1023 -1.4370  4.6996
   26MOL0     H 3529   7.837   6.774  -0.062 -0.0559  0.7801  0.0621
   26MOL0     H 3530   7.857   6.734  -0.229 -1.0379 -0.8507  0.6215
   26MOL0     H 3531   7.624   6.734  -0.060 -1.6981  2.8606 -0.0028
   26MOL0     H 3532   7.598   6.759  -0.240 -1.9999 -1.5606  0.6303
   26MOL0     H 3533   7.683   6.541  -0.297 -0.9084  3.1714 -0.6935
   26MOL0     H 3534   7.546   6.529  -0.181 -0.2161  1.9012  2.1434
   26MOL0     H 3535   7.836   6.484  -0.121  0.5469 -0.0583 -0.5991
   26MOL0     H 3536   7.724   6.529   0.008 -2.0695 -0.9109  0.4248
   26MOL0     H 3537   7.857   6.225  -0.194 -0.6383  2.7434 -1.2801
   26MOL0     H 3538   7.671   6.009  -0.269 -2.9089 -1.0763 -0.0781
   26MOL0     H 3539   7.612   5.947  -0.111 -0.7871  1.1797 -0.2731
   26MOL0     H 3540   7.836   5.860  -0.242  0.2162 -1.1670 -0.1996
   26MOL0     H 3541   7.906   6.005  -0.158 -0.4603  0.0899  2.5476
   26MOL0     H 3542   7.848   5.899   0.063  2.1829 -0.2512  0.0733
   26MOL0     H 3543   7.776   5.766  -0.031 -0.9568  0.8307 -4.0301
   26MOL0     H 3544   7.992   5.697   0.070 -2.0074 -0.4404  0.4982
   26MOL0     H 3545   8.011   5.711  -0.110  0.0619 -0.2309 -0.3516
   26MOL0     H 3546   8.269   6.030   0.088  1.3123  1.1129 -0.2281
   26MOL0     H 3547   8.593   6.052   0.083  0.0185 -1.3570 -0.3407
   26MOL0     H 3548   8.570   5.990   0.246  2.0700 -2.4346 -1.2057
   26MOL0     H 3549   8.450   6.093   0.186  3.5074  0.7137  1.9652
   26MOL0     H 3550   8.797   5.508   0.234 -0.6307  0.1134  0.0705
   26MOL0     H 3551   9.048   5.474   0.276 -2.0874 -1.3639  0.1956
   26MOL0     H 3552   9.284   5.558   0.318 -1.1157 -1.1157  0.5811
   26MOL0     H 3553   9.303   5.414   0.228 -4.0366  0.5601  0.0012
   26MOL0     H 3554   9.487   5.508   0.099 -0.4326  2.7723 -1.4831
   26MOL0     H 3555   9.480   5.663   0.185  2.6274 -0.3708  0.4932
   26MOL0     H 3556   9.528   5.390   0.316 -3.1685  2.4946 -2.2199
   26MOL0     H 3557   9.529   5.532   0.402 -1.3924 -2.7850  1.6125
   26MOL0     H 3558   9.717   5.554   0.168 -0.7092  0.7658 -0.0809
   26MOL0     H 3559   9.759   5.425   0.285 -2.1277 -0.8411 -1.5541
   26MOL0     H 3560   9.734   5.728   0.324  1.4955  0.3995 -1.1561
   26MOL0     H 3561   9.742   5.608   0.463  1.7828  0.9259  0.7180
   26MOL0     H 3562   9.939   5.649   0.225  0.3156 -0.2915 -0.1108
   26MOL0     H 3563   9.960   5.517   0.350  0.4351 -0.3371  0.6753
   26MOL0     H 3564   9.946   5.683   0.529 -0.3743 -3.3458 -0.4522
   26MOL0     H 3565   9.968   5.817   0.419  0.3998  0.0140 -0.1174
   26MOL0     H 3566  10.195   5.706   0.355 -1.6555 -0.3757 -1.6573
   26MOL0     H 3567  10.169   5.600   0.494 -0.6469  0.1802  0.2058
   26MOL0     H 3568   9.134   5.681  -0.094  3.4570  3.4594  4.9685
   26MOL0     H 3569   8.881   5.668  -0.153 -1.3568 -0.7476 -0.1147
   26MOL0     H 3570   8.436   5.570   0.002 -0.3536  0.0054  0.2406
   26MOL0     H 3571   8.202   5.617  -0.022  0.8489 -0.7596 -0.0002
   26MOL0     H 3572   7.378   7.292   0.107  0.9812 -4.9371  0.7939
   26MOL0     H 3573   7.281   7.399   0.320 -0.4570 -1.3108  0.7701
   26MOL0     H 3574   7.303   7.749   0.561  2.0197  0.0144  2.0867
   26MOL0     H 3575   7.136   7.910   0.655 -4.6965  0.5869 -0.5787
   26MOL0     H 3576   6.799   7.782   0.920  1.7683 -0.7783 -2.0977
   26MOL0     H 3577   6.931   7.757   1.035 -0.6340 -2.2241 -0.7011
   26MOL0     H 3578   6.831   8.032   0.975 -1.3185  0.4067  1.2745
   26MOL0     H 3579   6.940   7.993   1.107 -0.1260  0.1585  0.7992
   26MOL0     H 3580   6.662   7.889   1.080  1.5295 -1.7315 -2.2390
   26MOL0     H 3581   6.771   7.824   1.201  0.7796  0.1460 -0.7086
   26MOL0     H 3582   6.784   8.058   1.298 -0.5858  0.2522  0.0893
   26MOL0     H 3583   6.620   7.984   1.292  0.2617 -1.9619 -1.7591
   26MOL0     H 3584   6.552   8.316   1.044  3.4148 -0.0794 -2.8265
   26MOL0     H 3585   6.958   7.592   0.874  2.4538 -1.8829  1.3008
   26MOL0     H 3586   7.018   7.335   0.696 -0.9296 -0.4468  0.6778
   26MOL0     H 3587   7.154   7.315   0.802 -0.8512 -1.0947 -2.2549
   26MOL0     H 3588   7.010   7.392   0.866 -0.0055  0.8938 -0.0219
   27MOL0     O 3589   7.626   3.390  10.325  0.5822 -0.0500 -0.7649
   27MOL0     C 3590   7.568   3.496  10.303  0.1863 -0.4081 -0.0397
   27MOL0     O 3591   7.604   3.621  10.353  0.9401 -0.0916  0.0422
   27MOL0     C 3592   7.696   3.616  10.457 -0.1264 -0.2948  0.0962
   27MOL0     C 3593   7.659   3.601  10.592  0.8043 -0.7754 -0.0450
   27MOL0     C 3594   7.748   3.607  10.696 -0.3426 -0.0661  0.6304
   27MOL0     C 3595   7.885   3.620  10.666  0.5265  0.3147 -0.6193
   27MOL0     O 3596   7.987   3.614  10.760 -0.0581 -0.1555  0.4684
   27MOL0     C 3597   7.964   3.533  10.870  0.2933  0.1559 -0.9999
   27MOL0     C 3598   8.099   3.472  10.921  0.4222 -1.0185  0.1076
   27MOL0     C 3599   8.167   3.400  10.804 -0.7402 -0.1189  0.2596
   27MOL0     C 3600   8.315   3.392  10.847 -0.4257 -0.3022  0.7904
   27MOL0     C 3601   8.395   3.288  10.760  0.6229  0.6525 -1.5016
   27MOL0     C 3602   8.543   3.297  10.787  0.1581  0.6418  0.7104
   27MOL0     C 3603   8.624   3.235  10.663 -0.0984 -0.6085  0.1531
   27MOL0     C 3604   8.775   3.220  10.688  0.7505  0.1849 -0.1273
   27MOL0     N 3605   8.842   3.336  10.754 -0.2531  0.9907  0.0229
   27MOL0     C 3606   8.827   3.464  10.712 -0.4534 -0.7651  0.4092
   27MOL0     C 3607   8.922   3.533  10.778 -0.3364 -0.3035 -0.0611
   27MOL0     C 3608   8.955   3.683  10.756 -0.1009 -0.0273 -0.3885
   27MOL0     C 3609   9.108   3.706  10.790  0.3034  0.3190 -0.0128
   27MOL0     C 3610   9.134   3.843  10.842 -0.4863 -0.8151 -0.0965
   27MOL0     C 3611   9.280   3.885  10.827  0.3003 -1.0344 -0.1149
   27MOL0     O 3612   9.377   3.839  10.919  0.7878  0.2309  0.0349
   27MOL0     C 3613   9.498   3.901  10.903  0.2576 -0.0169  0.3128
   27MOL0     C 3614   9.523   4.035  10.945  1.2378 -0.1232  0.5598
   27MOL0     C 3615   9.656   4.092  10.965  0.1579 -0.2360  0.0267
   27MOL0     C 3616   9.661   4.237  10.996 -1.0020  0.8212 -0.6698
   27MOL0     C 3617   9.765   4.021  10.925  0.1769  0.0143 -0.2903
   27MOL0     C 3618   9.910   4.064  10.927  0.6387 -0.4365  0.9358
   27MOL0     O 3619  10.002   3.978  10.881 -0.2083  0.6591 -0.5824
   27MOL0     C 3620  10.134   4.018  10.883 -0.2334 -1.3129 -0.7203
   27MOL0     C 3621  10.205   4.025  10.764  0.0389  0.2753 -0.2167
   27MOL0     C 3622  10.342   4.049  10.748  0.9281 -0.2241  0.1071
   27MOL0     C 3623  10.412   4.074  10.864 -0.1643 -0.2015  0.8022
   27MOL0     O 3624  10.549   4.091  10.838 -0.3721 -0.0168 -0.2175
   27MOL0     C 3625  10.640   4.125  10.947 -0.4016 -0.3934 -0.0155
   27MOL0     C 3626  10.785   4.164  10.885 -0.5637 -0.7562  0.5908
   27MOL0     C 3627  10.800   4.319  10.849 -0.1164  0.5000  0.0370
   27MOL0     C 3628  10.806   4.409  10.974 -0.1471 -0.1901  0.2138
   27MOL0     C 3629  10.848   4.559  10.933 -0.1461  0.2499 -0.0042
   27MOL0     C 3630  10.734   4.646  10.877 -0.1737  0.1610 -0.2769
   27MOL0     C 3631  10.650   4.698  10.995  1.0022  0.5587  0.1382
   27MOL0     C 3632  10.520   4.771  10.954 -0.6419  0.2976 -0.6590
   27MOL0    Cl 3633  10.427   4.806  11.103 -0.0131 -0.0129 -0.5845
   27MOL0     C 3634  10.348   4.080  10.987  0.3046 -0.0005  0.0492
   27MOL0     C 3635  10.214   4.055  10.994  0.2593  0.0941  0.2296
   27MOL0     O 3636   9.929   4.179  10.956  0.4618 -0.2033  0.2180
   27MOL0     C 3637   9.738   3.886  10.883  0.0778  0.3211  0.6055
   27MOL0     C 3638   9.611   3.826  10.866 -0.1850 -0.5239  0.6580
   27MOL0     N 3639   8.997   3.447  10.862  0.3008  0.4732 -0.6709
   27MOL0     N 3640   8.933   3.332  10.845  0.0169  0.4112  0.3700
   27MOL0     C 3641   7.930   3.631  10.532  1.1537  0.5114 -0.1422
   27MOL0     C 3642   7.832   3.630  10.427  0.1368  0.1158  0.3281
   27MOL0     C 3643   7.452   3.488  10.212  0.7197  1.3450  0.2507
   27MOL0     C 3644   7.403   3.601  10.150  0.5184 -0.3359  0.8423
   27MOL0     C 3645   7.289   3.603  10.067 -0.5017 -0.0153  0.9926
   27MOL0     C 3646   7.211   3.493  10.057  0.8579 -0.5034 -1.0550
   27MOL0     O 3647   7.087   3.500   9.982 -1.2917  0.6627  0.1235
   27MOL0     C 3648   6.984   3.404  10.006  0.3101  1.4199  0.6009
   27MOL0     C 3649   7.004   3.271   9.919  0.4722 -1.0923  0.4683
   27MOL0     C 3650   6.919   3.164   9.976 -0.2976 -0.4801 -0.5144
   27MOL0     C 3651   6.930   3.037   9.893  0.3697 -0.6346 -0.5114
   27MOL0     C 3652   7.060   2.978   9.911  0.2520 -0.3259  0.0829
   27MOL0     C 3653   7.177   2.930   9.915  1.2780 -0.0564  0.1493
   27MOL0     C 3654   7.246   3.380  10.135 -0.6629 -0.1831  0.5834
   27MOL0     C 3655   7.373   3.369  10.195 -0.1572  0.3405  0.2142
   27MOL0     C 3656   7.401   3.232  10.255 -0.5860  0.5018 -0.5406
   27MOL0     H 3657   7.553   3.591  10.612  0.3337  0.1531 -1.8232
   27MOL0     H 3658   7.726   3.617  10.802  1.2783  2.5512  0.8208
   27MOL0     H 3659   7.894   3.452  10.847 -1.2600  0.0546  3.2139
   27MOL0     H 3660   7.924   3.588  10.955 -1.0439 -1.2150 -0.6933
   27MOL0     H 3661   8.168   3.539  10.973  0.2809 -0.4255 -0.4586
   27MOL0     H 3662   8.072   3.403  11.002 -1.6190  1.2984  1.5764
   27MOL0     H 3663   8.117   3.308  10.771 -1.5716  0.5034 -0.2588
   27MOL0     H 3664   8.160   3.460  10.713 -0.0191  1.9736  1.5191
   27MOL0     H 3665   8.356   3.491  10.825 -2.7430  0.2631 -1.5393
   27MOL0     H 3666   8.340   3.364  10.950 -1.5594 -0.5434  1.0104
   27MOL0     H 3667   8.372   3.308  10.655 -2.7849 -0.1777 -1.0094
   27MOL0     H 3668   8.360   3.190  10.792 -0.2833  1.2220 -0.6768
   27MOL0     H 3669   8.591   3.394  10.794  1.9683 -0.3222  2.9817
   27MOL0     H 3670   8.581   3.237  10.870 -1.5002 -2.0916 -0.3356
   27MOL0     H 3671   8.621   3.312  10.586  1.2990  0.3058  0.9744
   27MOL0     H 3672   8.582   3.139  10.631  1.1854 -2.3128  3.0919
   27MOL0     H 3673   8.780   3.132  10.754 -0.4443 -2.5904 -3.4368
   27MOL0     H 3674   8.815   3.198  10.589 -4.2026  1.0007 -2.6255
   27MOL0     H 3675   8.763   3.511  10.639 -1.0865 -0.8077  0.9272
   27MOL0     H 3676   8.906   3.748  10.829 -0.6859 -1.4241  0.4840
   27MOL0     H 3677   8.950   3.724  10.654  0.8541  1.2182  0.0304
   27MOL0     H 3678   9.148   3.638  10.865 -1.3995 -0.1324  0.5458
   27MOL0     H 3679   9.154   3.667  10.699 -0.8299 -0.8142 -0.1301
   27MOL0     H 3680   9.077   3.916  10.784  1.4862  0.8130 -0.1005
   27MOL0     H 3681   9.104   3.846  10.947  0.9652 -0.9774  0.3455
   27MOL0     H 3682   9.317   3.855  10.728  1.1879 -2.9557  0.7421
   27MOL0     H 3683   9.289   3.994  10.821 -0.3634 -1.0498 -3.8850
   27MOL0     H 3684   9.441   4.099  10.975  1.6893 -0.2772  2.2686
   27MOL0     H 3685   9.700   4.306  10.922  1.2624  1.1592  0.7388
   27MOL0     H 3686   9.704   4.253  11.096 -1.0793 -1.1392 -0.2756
   27MOL0     H 3687   9.556   4.266  11.008 -1.2472 -0.6494  1.3772
   27MOL0     H 3688  10.147   4.001  10.675 -3.8496 -0.5640  2.2798
   27MOL0     H 3689  10.386   4.041  10.649  1.2472 -2.7286  0.3816
   27MOL0     H 3690  10.610   4.213  11.004 -2.5070  1.5022 -3.6281
   27MOL0     H 3691  10.659   4.045  11.019  0.9796 -1.7083 -1.7251
   27MOL0     H 3692  10.858   4.146  10.964  0.0732  3.2620  1.1762
   27MOL0     H 3693  10.812   4.106  10.797  1.6867 -1.4018  1.6273
   27MOL0     H 3694  10.710   4.341  10.791  0.0766 -1.3043 -1.0244
   27MOL0     H 3695  10.891   4.326  10.788 -1.4440 -0.2449 -2.1126
   27MOL0     H 3696  10.877   4.362  11.043 -0.4403  0.8879  1.2945
   27MOL0     H 3697  10.711   4.415  11.027 -1.7126 -4.3867 -1.6888
   27MOL0     H 3698  10.886   4.608  11.023 -2.0185 -2.1627  2.2501
   27MOL0     H 3699  10.929   4.555  10.859 -0.7309 -0.2173 -0.6277
   27MOL0     H 3700  10.674   4.586  10.808  0.6465 -2.4825  1.1914
   27MOL0     H 3701  10.782   4.731  10.828 -0.7216 -0.5682 -2.1529
   27MOL0     H 3702  10.707   4.764  11.060  2.7277 -1.5408  0.8498
   27MOL0     H 3703  10.617   4.613  11.055  1.2872 -0.8214 -1.5872
   27MOL0     H 3704  10.459   4.709  10.889  0.1564 -0.2978 -0.8487
   27MOL0     H 3705  10.534   4.853  10.882 -0.7057 -0.9894 -2.1969
   27MOL0     H 3706  10.394   4.106  11.082 -1.1942  1.0648  0.5148
   27MOL0     H 3707  10.157   4.046  11.086  1.0572 -1.9542  0.5754
   27MOL0     H 3708   9.821   3.821  10.855 -2.5276 -2.4375 -1.3802
   27MOL0     H 3709   9.591   3.723  10.840 -3.7756  0.1849  0.0755
   27MOL0     H 3710   8.038   3.639  10.525  1.1910 -0.2837 -0.6279
   27MOL0     H 3711   7.865   3.634  10.323  0.0338  0.1468  0.2959
   27MOL0     H 3712   7.444   3.700  10.164 -1.2749  0.7223 -0.8534
   27MOL0     H 3713   7.262   3.696  10.017  0.1984  0.4414  1.4448
   27MOL0     H 3714   6.976   3.378  10.112 -2.9736 -1.3776 -0.1600
   27MOL0     H 3715   6.885   3.444   9.985 -0.0626 -0.2519 -1.1509
   27MOL0     H 3716   7.108   3.235   9.920  0.4020 -1.2951  1.6476
   27MOL0     H 3717   6.979   3.301   9.817  0.4767  0.0924  0.7936
   27MOL0     H 3718   6.950   3.149  10.080  1.0075  1.2471 -0.6279
   27MOL0     H 3719   6.816   3.199   9.981  0.1592  1.0556 -1.3530
   27MOL0     H 3720   6.921   3.074   9.791  3.3993  3.1724  0.3754
   27MOL0     H 3721   6.851   2.967   9.921  2.0916 -2.2462  0.5330
   27MOL0     H 3722   7.277   2.907   9.886  0.8711  1.7828 -3.1673
   27MOL0     H 3723   7.186   3.290  10.133  1.1679 -1.4909  1.7311
   27MOL0     H 3724   7.327   3.157  10.225  2.2153 -0.9313 -4.7213
   27MOL0     H 3725   7.501   3.191  10.236  1.1947  3.4598  1.6508
   27MOL0     H 3726   7.408   3.235  10.364  2.2018 -1.3581 -0.5469
   28MOL0     O 3727  10.340   5.525   1.232  0.2244  0.2771 -0.3454
   28MOL0     C 3728  10.285   5.573   1.333  0.5548 -0.2320  1.0214
   28MOL0     O 3729  10.341   5.661   1.424  0.6565 -0.4132  0.0919
   28MOL0     C 3730  10.463   5.713   1.395 -0.5322  0.3822 -0.3610
   28MOL0     C 3731  10.497   5.773   1.263 -0.3656 -0.3635 -0.1352
   28MOL0     C 3732  10.625   5.826   1.258 -0.0187  0.5858  0.7143
   28MOL0     C 3733  10.723   5.817   1.361 -0.2253  0.5555 -0.2641
   28MOL0     O 3734  10.857   5.858   1.360 -0.5525  0.6072  0.2383
   28MOL0     C 3735  10.937   5.858   1.245  0.0583 -0.0602  0.3623
   28MOL0     C 3736  11.074   5.921   1.277  0.5570  0.1330 -0.4838
   28MOL0     C 3737  11.155   5.835   1.376 -0.3075 -0.2066 -0.2602
   28MOL0     C 3738  11.296   5.900   1.395 -0.0906  0.1082 -0.8574
   28MOL0     C 3739  11.284   6.041   1.463  0.8505 -0.3527 -0.4896
   28MOL0     C 3740  11.416   6.101   1.512  0.3776  1.4255  0.2185
   28MOL0     C 3741  11.392   6.246   1.549 -0.4069  0.3479 -0.3948
   28MOL0     C 3742  11.525   6.290   1.595 -0.6611  0.5846 -0.3562
   28MOL0     N 3743  11.553   6.243   1.734  0.4603  0.6157 -0.4002
   28MOL0     C 3744  11.475   6.280   1.840  0.0148 -0.2276 -0.0779
   28MOL0     C 3745  11.542   6.222   1.950 -0.6917  0.3456  0.1763
   28MOL0     C 3746  11.482   6.230   2.090 -0.1160  0.3610  0.6640
   28MOL0     C 3747  11.589   6.251   2.198 -0.5303  0.0119 -0.7906
   28MOL0     C 3748  11.520   6.283   2.343 -0.5479 -0.2956  0.1057
   28MOL0     C 3749  11.604   6.253   2.465 -0.5365 -0.0048  0.0467
   28MOL0     O 3750  11.723   6.328   2.468 -0.1853  0.5321  0.0093
   28MOL0     C 3751  11.797   6.322   2.583 -0.3097  0.0383 -0.0239
   28MOL0     C 3752  11.761   6.253   2.700  0.4603  0.0487  0.0311
   28MOL0     C 3753  11.834   6.250   2.816 -0.9650 -0.3157 -0.5064
   28MOL0     C 3754  11.797   6.147   2.920 -0.3006  1.2373  0.6495
   28MOL0     C 3755  11.952   6.336   2.824  0.5575  0.3743 -0.1803
   28MOL0     C 3756  12.043   6.351   2.947  0.2105  0.2884 -0.5117
   28MOL0     O 3757  12.165   6.412   2.926 -0.1983  0.5205 -0.6502
   28MOL0     C 3758  12.242   6.449   3.033  0.0480 -0.4210 -0.9912
   28MOL0     C 3759  12.371   6.482   2.991  0.1847 -0.2555 -0.3849
   28MOL0     C 3760  12.466   6.530   3.080 -0.6748 -0.3788  0.5290
   28MOL0     C 3761  12.437   6.560   3.215  0.1593 -0.1878  0.4359
   28MOL0     O 3762  12.522   6.599   3.313 -0.5054 -0.5291  0.2860
   28MOL0     C 3763  12.657   6.630   3.268  0.1199 -0.8213 -0.1545
   28MOL0     C 3764  12.750   6.631   3.389  0.2314 -0.5031  0.1431
   28MOL0     C 3765  12.835   6.756   3.398  1.2255 -0.1659 -0.3498
   28MOL0     C 3766  12.947   6.762   3.295  0.5940  1.1642 -0.4245
   28MOL0     C 3767  13.027   6.889   3.319 -0.1673 -0.1408 -0.2410
   28MOL0     C 3768  13.128   6.865   3.433  0.1553 -0.0176  0.3658
   28MOL0     C 3769  13.229   6.978   3.465  0.0471 -0.2200  0.5598
   28MOL0     C 3770  13.298   6.959   3.602  0.6905  0.8843  0.0064
   28MOL0    Cl 3771  13.412   6.821   3.583  0.1181 -0.5852 -0.2037
   28MOL0     C 3772  12.307   6.538   3.256  0.3393  0.8049  0.4308
   28MOL0     C 3773  12.208   6.476   3.173  0.6156 -0.1907  0.2097
   28MOL0     O 3774  12.007   6.306   3.054 -0.6353 -0.0208  0.1697
   28MOL0     C 3775  11.990   6.401   2.704 -0.7671 -0.2488  0.0701
   28MOL0     C 3776  11.913   6.396   2.583 -1.5291 -0.1935 -0.3590
   28MOL0     N 3777  11.659   6.160   1.911 -0.4836 -0.3853  0.3674
   28MOL0     N 3778  11.665   6.169   1.778  0.2067  0.4838 -0.5373
   28MOL0     C 3779  10.683   5.758   1.483 -0.8241 -0.8305  0.0502
   28MOL0     C 3780  10.551   5.724   1.506  1.0411 -0.3516  0.5017
   28MOL0     C 3781  10.137   5.539   1.362 -0.2096 -0.4696  0.2894
   28MOL0     C 3782  10.071   5.622   1.450  0.0027 -0.0532  0.5041
   28MOL0     C 3783   9.942   5.589   1.490  0.1342 -0.6561  0.9512
   28MOL0     C 3784   9.872   5.481   1.434 -0.1492 -0.2063 -0.2556
   28MOL0     O 3785   9.742   5.455   1.465  1.0961  0.6422 -0.3482
   28MOL0     C 3786   9.654   5.374   1.378 -0.2282  0.3108 -0.8836
   28MOL0     C 3787   9.567   5.320   1.478  0.2330  0.7567 -0.3546
   28MOL0     C 3788   9.437   5.284   1.410 -0.7171  0.4802 -0.3683
   28MOL0     C 3789   9.347   5.175   1.465 -0.5364 -0.1636  0.0554
   28MOL0     C 3790   9.416   5.050   1.495 -0.0111 -0.4197 -0.0048
   28MOL0     C 3791   9.463   4.952   1.535 -0.2927  0.6809  0.5713
   28MOL0     C 3792   9.942   5.408   1.338  0.4224  0.4091 -0.4786
   28MOL0     C 3793  10.073   5.432   1.302 -0.3474 -0.3411 -0.3269
   28MOL0     C 3794  10.140   5.329   1.209  0.1920 -0.4225 -0.1336
   28MOL0     H 3795  10.440   5.782   1.171  1.1705  0.3053 -1.0547
   28MOL0     H 3796  10.648   5.868   1.161 -3.1776 -2.2338 -1.4910
   28MOL0     H 3797  10.884   5.920   1.172 -2.4537 -2.1586  0.2556
   28MOL0     H 3798  10.962   5.764   1.194 -0.0579 -0.9114  1.8298
   28MOL0     H 3799  11.132   5.935   1.186 -1.4284  0.5167 -1.7559
   28MOL0     H 3800  11.059   6.015   1.331  1.4048 -1.5457  2.9882
   28MOL0     H 3801  11.111   5.827   1.476 -0.3713  2.3679  0.0032
   28MOL0     H 3802  11.171   5.731   1.346  1.6603 -0.9563  2.8199
   28MOL0     H 3803  11.356   5.839   1.464 -0.5595 -1.3528 -1.6905
   28MOL0     H 3804  11.346   5.909   1.299 -0.7928  2.7065 -1.0473
   28MOL0     H 3805  11.217   6.028   1.548  0.9730 -2.4263 -0.6658
   28MOL0     H 3806  11.249   6.112   1.388  0.3250  2.2923  2.0689
   28MOL0     H 3807  11.452   6.045   1.599 -0.1124 -2.2065 -1.7096
   28MOL0     H 3808  11.488   6.081   1.431 -1.2896 -2.7719 -0.4968
   28MOL0     H 3809  11.318   6.249   1.630  0.4418 -1.2611  0.4870
   28MOL0     H 3810  11.357   6.305   1.464 -1.3946  0.6184  0.1835
   28MOL0     H 3811  11.606   6.250   1.533  2.3119  1.5142  2.5781
   28MOL0     H 3812  11.531   6.399   1.591 -0.7751  0.7715  2.3411
   28MOL0     H 3813  11.379   6.330   1.843  1.2955  2.5277 -0.7161
   28MOL0     H 3814  11.438   6.133   2.116  3.7097 -1.8247 -0.1967
   28MOL0     H 3815  11.406   6.308   2.090 -1.2254 -0.6763 -0.4136
   28MOL0     H 3816  11.651   6.162   2.203  1.0369  0.8500 -3.3914
   28MOL0     H 3817  11.658   6.331   2.171 -2.2300  2.0394  0.5255
   28MOL0     H 3818  11.492   6.388   2.334 -0.4197 -0.4540 -3.3839
   28MOL0     H 3819  11.427   6.226   2.346 -1.4785  1.1900  0.6944
   28MOL0     H 3820  11.548   6.286   2.553  1.0673 -0.6248  1.3595
   28MOL0     H 3821  11.620   6.145   2.470 -1.7701 -0.3550 -2.1895
   28MOL0     H 3822  11.674   6.189   2.706 -0.1960  0.9281  0.0546
   28MOL0     H 3823  11.753   6.056   2.878 -1.0904  1.2733  1.3927
   28MOL0     H 3824  11.726   6.179   2.996  1.1908  0.2793  2.5572
   28MOL0     H 3825  11.891   6.121   2.970 -0.1286 -1.5863 -0.9637
   28MOL0     H 3826  12.391   6.465   2.886  0.6953 -0.3602 -0.2692
   28MOL0     H 3827  12.569   6.521   3.044  1.0104  0.3264  4.6440
   28MOL0     H 3828  12.700   6.563   3.194 -0.0609 -2.1498  0.9146
   28MOL0     H 3829  12.648   6.730   3.224  2.7936  0.4237  1.8838
   28MOL0     H 3830  12.694   6.600   3.478 -0.9614  0.0085 -0.4052
   28MOL0     H 3831  12.823   6.553   3.365  2.5686  2.1968 -2.2245
   28MOL0     H 3832  12.880   6.750   3.497  0.3430 -0.0663  0.0704
   28MOL0     H 3833  12.768   6.842   3.392  1.9334  0.3678 -0.6145
   28MOL0     H 3834  12.915   6.754   3.190 -1.3767  0.5324  0.1674
   28MOL0     H 3835  13.001   6.668   3.313 -1.9681  0.0534  2.3374
   28MOL0     H 3836  13.072   6.927   3.226  0.9567  0.5694  0.5725
   28MOL0     H 3837  12.957   6.970   3.342 -2.0326 -1.5158 -0.8304
   28MOL0     H 3838  13.187   6.773   3.425 -0.3228 -0.1959 -1.6015
   28MOL0     H 3839  13.062   6.853   3.519 -1.3528  0.1681 -0.7229
   28MOL0     H 3840  13.172   7.071   3.470 -2.0509 -0.7238 -5.4938
   28MOL0     H 3841  13.298   6.981   3.380  1.8001  1.2796  1.9492
   28MOL0     H 3842  13.219   6.939   3.676  0.3656 -1.5612 -0.9097
   28MOL0     H 3843  13.361   7.046   3.623  0.7863  0.6480  0.7164
   28MOL0     H 3844  12.271   6.558   3.357 -0.5197  1.2115  0.0546
   28MOL0     H 3845  12.122   6.453   3.235  1.3751 -0.1466  1.3208
   28MOL0     H 3846  12.080   6.460   2.719  1.4619 -4.0808  4.7600
   28MOL0     H 3847  11.953   6.450   2.498 -0.7892 -0.0113  0.0954
   28MOL0     H 3848  10.749   5.746   1.568 -0.2630 -0.2714 -0.3046
   28MOL0     H 3849  10.521   5.699   1.607  0.7155 -0.8896  0.2719
   28MOL0     H 3850  10.119   5.708   1.496 -0.6198  1.2662 -1.1981
   28MOL0     H 3851   9.905   5.640   1.579  0.7939  2.6333 -0.5112
   28MOL0     H 3852   9.596   5.441   1.315  0.0338  1.4269  0.0292
   28MOL0     H 3853   9.699   5.298   1.313 -0.0857 -0.1087 -0.3141
   28MOL0     H 3854   9.538   5.403   1.544 -1.3148  0.3117 -0.4387
   28MOL0     H 3855   9.608   5.237   1.536 -0.1651  2.0384  1.9221
   28MOL0     H 3856   9.376   5.374   1.398  0.7004  1.3452 -1.4532
   28MOL0     H 3857   9.458   5.232   1.316 -1.9620 -1.3818  0.3341
   28MOL0     H 3858   9.259   5.171   1.401 -0.6916  0.4843  0.2225
   28MOL0     H 3859   9.301   5.206   1.559 -1.7650 -0.8229 -0.3183
   28MOL0     H 3860   9.508   4.856   1.553  1.6263  0.8024 -2.7748
   28MOL0     H 3861   9.895   5.320   1.293 -2.3282  2.3706 -1.7160
   28MOL0     H 3862  10.228   5.285   1.259 -0.0095  1.0586  1.6461
   28MOL0     H 3863  10.078   5.240   1.191  1.3979 -2.4661  4.3015
   28MOL0     H 3864  10.162   5.376   1.113 -2.9939 -3.3853 -2.5505
   29MOL0     O 3865   2.373   2.630   3.564  1.0847 -1.1384 -0.3187
   29MOL0     C 3866   2.434   2.617   3.670 -0.0907 -0.2494  0.1665
   29MOL0     O 3867   2.560   2.674   3.702  0.3543  0.3474  0.2376
   29MOL0     C 3868   2.618   2.741   3.602 -1.0075 -0.4404 -0.0839
   29MOL0     C 3869   2.716   2.679   3.522 -0.2891  0.2504  0.5780
   29MOL0     C 3870   2.782   2.764   3.431 -0.1512  0.6272  0.1303
   29MOL0     C 3871   2.765   2.903   3.417 -0.0114 -0.4188  0.4553
   29MOL0     O 3872   2.830   2.980   3.330 -0.2732 -0.6601 -0.0526
   29MOL0     C 3873   2.754   3.064   3.249 -0.3268 -0.1069  0.2574
   29MOL0     C 3874   2.851   3.158   3.174 -0.3186  0.3684  0.1682
   29MOL0     C 3875   2.975   3.082   3.104 -0.0175 -1.5851 -0.9667
   29MOL0     C 3876   3.013   3.168   2.986  0.1039  0.4466  0.8253
   29MOL0     C 3877   3.151   3.140   2.931 -1.5094 -0.4545  0.3195
   29MOL0     C 3878   3.182   3.230   2.811  0.2625 -0.1008 -0.2830
   29MOL0     C 3879   3.307   3.193   2.722  0.7855  0.9030 -0.3509
   29MOL0     C 3880   3.297   3.271   2.593  0.1738 -1.4063  0.0426
   29MOL0     N 3881   3.414   3.234   2.516 -1.2006 -0.0399  0.6122
   29MOL0     C 3882   3.448   3.116   2.467  0.1132  0.0137  0.3685
   29MOL0     C 3883   3.582   3.122   2.437 -0.0213 -0.0946 -0.2165
   29MOL0     C 3884   3.646   3.004   2.371 -1.1792  0.3388 -0.6975
   29MOL0     C 3885   3.802   3.009   2.384  0.5493 -0.1264 -0.0459
   29MOL0     C 3886   3.851   2.965   2.520 -0.2980  0.7942 -0.6649
   29MOL0     C 3887   4.000   2.953   2.514 -0.1723 -0.4385 -0.9099
   29MOL0     O 3888   4.058   2.852   2.431  0.5277  0.4376  0.4158
   29MOL0     C 3889   4.069   2.722   2.476  0.0290 -0.0905  0.6527
   29MOL0     C 3890   4.041   2.666   2.598 -0.2339 -0.5684 -0.6619
   29MOL0     C 3891   4.052   2.529   2.631  0.8422 -0.2410  0.2832
   29MOL0     C 3892   4.008   2.477   2.768 -0.8918 -0.4411 -0.0302
   29MOL0     C 3893   4.084   2.437   2.529  0.3233 -0.1285 -0.8235
   29MOL0     C 3894   4.096   2.291   2.550 -0.6792 -0.8197  0.2407
   29MOL0     O 3895   4.120   2.252   2.681  0.7856 -0.0760  1.3022
   29MOL0     C 3896   4.110   2.117   2.705  0.0601 -0.3212  0.3553
   29MOL0     C 3897   3.994   2.060   2.739  0.2430  0.6159  0.3272
   29MOL0     C 3898   3.985   1.924   2.779 -0.1070 -1.1036  0.1325
   29MOL0     C 3899   4.105   1.851   2.780 -0.1345  0.7021  0.7609
   29MOL0     O 3900   4.123   1.721   2.813 -0.1960 -0.5221 -0.2845
   29MOL0     C 3901   4.014   1.633   2.843  0.3042 -0.4614 -0.1010
   29MOL0     C 3902   4.071   1.514   2.911  0.2789 -0.0191 -0.0534
   29MOL0     C 3903   3.963   1.409   2.951  0.6148 -0.2384  0.0509
   29MOL0     C 3904   4.030   1.304   3.045  0.2775  0.6009  0.1446
   29MOL0     C 3905   3.934   1.188   3.073  0.3244  0.3047  0.1548
   29MOL0     C 3906   3.798   1.226   3.133 -0.0178  0.5626  0.0022
   29MOL0     C 3907   3.705   1.119   3.202  0.1991 -0.3036  0.2501
   29MOL0     C 3908   3.650   1.004   3.115  0.1762 -0.2277 -0.0355
   29MOL0    Cl 3909   3.527   0.918   3.214 -0.1202 -0.2230 -0.0460
   29MOL0     C 3910   4.227   1.902   2.727  0.5714  0.4488 -0.1036
   29MOL0     C 3911   4.221   2.031   2.690 -0.1228 -0.4618  0.7668
   29MOL0     O 3912   4.098   2.219   2.452 -0.0665 -0.2125  1.3045
   29MOL0     C 3913   4.101   2.489   2.401 -1.3010 -0.4523 -0.0082
   29MOL0     C 3914   4.096   2.628   2.375 -0.5336 -0.1816 -1.0023
   29MOL0     N 3915   3.629   3.246   2.462  0.1766 -0.7506 -0.0031
   29MOL0     N 3916   3.530   3.307   2.517 -0.9155  0.4590  0.2220
   29MOL0     C 3917   2.664   2.960   3.496  0.3188 -0.3373  0.1273
   29MOL0     C 3918   2.601   2.875   3.589 -0.5205  0.5426  0.3460
   29MOL0     C 3919   2.338   2.575   3.777  0.1066  0.0315  0.6266
   29MOL0     C 3920   2.224   2.499   3.732 -0.2646  0.1633  0.3202
   29MOL0     C 3921   2.132   2.462   3.832  0.0168 -0.0583  1.1829
   29MOL0     C 3922   2.161   2.485   3.967 -0.2256  0.1857 -0.7282
   29MOL0     O 3923   2.064   2.445   4.058 -0.5947  0.2284 -0.2487
   29MOL0     C 3924   2.086   2.435   4.203  0.5768 -0.3539 -0.5053
   29MOL0     C 3925   2.019   2.547   4.286 -0.1487 -0.0114 -0.3517
   29MOL0     C 3926   1.884   2.596   4.225 -0.4421 -0.6638 -0.6147
   29MOL0     C 3927   1.818   2.715   4.294  0.4660  0.5298  0.3971
   29MOL0     C 3928   1.807   2.722   4.444  0.0474 -0.4532  0.0430
   29MOL0     C 3929   1.782   2.727   4.562 -0.7818 -0.4669 -0.5014
   29MOL0     C 3930   2.276   2.548   4.002 -0.3328 -0.3263  0.0812
   29MOL0     C 3931   2.364   2.601   3.914 -0.1528  0.6491  0.3402
   29MOL0     C 3932   2.496   2.655   3.970 -0.5500  0.2271 -0.0778
   29MOL0     H 3933   2.735   2.573   3.529 -2.1068 -0.1449 -0.0932
   29MOL0     H 3934   2.848   2.707   3.366 -0.1149  0.3827  0.3819
   29MOL0     H 3935   2.697   3.130   3.315  1.2113  1.1801  0.3622
   29MOL0     H 3936   2.695   3.008   3.177  0.1151 -2.5677  1.6890
   29MOL0     H 3937   2.796   3.220   3.103  1.6623  2.5936  0.4735
   29MOL0     H 3938   2.883   3.231   3.249  1.4387 -0.7337  0.5373
   29MOL0     H 3939   3.060   3.087   3.172 -1.2300  1.4208  0.5539
   29MOL0     H 3940   2.962   2.977   3.080  0.8859 -1.7919 -0.5940
   29MOL0     H 3941   2.942   3.128   2.913 -1.8010 -0.6342  3.1575
   29MOL0     H 3942   2.996   3.273   3.009 -0.5322  1.0242 -1.8529
   29MOL0     H 3943   3.163   3.034   2.909 -0.2718 -0.5018  1.1071
   29MOL0     H 3944   3.222   3.163   3.011 -0.5602 -1.8329 -0.0975
   29MOL0     H 3945   3.097   3.228   2.742  0.1768 -2.5919 -0.1788
   29MOL0     H 3946   3.194   3.332   2.847  2.0848 -0.1894 -0.5727
   29MOL0     H 3947   3.306   3.086   2.701 -3.5014  0.6321  0.2806
   29MOL0     H 3948   3.397   3.225   2.776  1.6487 -1.0103 -0.5511
   29MOL0     H 3949   3.204   3.247   2.541  1.5195 -0.3013 -3.1373
   29MOL0     H 3950   3.299   3.377   2.619  1.1194 -0.5464 -3.1512
   29MOL0     H 3951   3.388   3.027   2.451  0.0696 -0.2960  2.0920
   29MOL0     H 3952   3.628   3.004   2.264 -0.8406  0.0303 -0.7580
   29MOL0     H 3953   3.607   2.909   2.408 -0.8672  0.4487 -0.0567
   29MOL0     H 3954   3.830   2.933   2.310 -0.9081  0.1057 -0.8807
   29MOL0     H 3955   3.844   3.107   2.360 -0.6720  0.4721  0.1958
   29MOL0     H 3956   3.816   3.035   2.595 -0.7779 -0.4640  0.3304
   29MOL0     H 3957   3.820   2.863   2.546  2.4581  0.0796  0.1150
   29MOL0     H 3958   4.044   3.048   2.483  1.9181 -0.9477  0.3324
   29MOL0     H 3959   4.029   2.944   2.619 -1.2182  1.1148 -0.4549
   29MOL0     H 3960   4.007   2.722   2.684 -0.0412  1.7148 -1.9980
   29MOL0     H 3961   4.089   2.452   2.837 -0.4841  2.6477  0.7871
   29MOL0     H 3962   3.940   2.392   2.764 -1.3405 -0.2157  1.7774
   29MOL0     H 3963   3.939   2.548   2.815  1.5641 -1.1750  5.4776
   29MOL0     H 3964   3.903   2.118   2.733  0.2699  0.6332  0.0283
   29MOL0     H 3965   3.886   1.887   2.806 -0.3364 -1.1675 -0.7428
   29MOL0     H 3966   3.946   1.677   2.916  1.1030 -1.1213  1.0761
   29MOL0     H 3967   3.966   1.601   2.750  2.0639 -3.0130 -0.2381
   29MOL0     H 3968   4.136   1.467   2.837  0.8259 -0.0387  0.4353
   29MOL0     H 3969   4.132   1.544   2.997 -0.6407  1.2955  0.1699
   29MOL0     H 3970   3.920   1.355   2.866 -1.7151  0.7022  0.5652
   29MOL0     H 3971   3.880   1.462   2.999  0.5175  0.2111 -0.6141
   29MOL0     H 3972   4.073   1.352   3.134  1.5487  0.0312 -0.1455
   29MOL0     H 3973   4.115   1.255   2.997 -1.2632 -1.4396 -0.6395
   29MOL0     H 3974   3.942   1.131   2.980  1.6205 -2.1477  1.6797
   29MOL0     H 3975   3.960   1.115   3.149 -1.1739 -1.6716 -1.1259
   29MOL0     H 3976   3.728   1.267   3.059 -1.6494 -0.9805  0.6257
   29MOL0     H 3977   3.821   1.304   3.206  1.3764  0.6086 -0.4640
   29MOL0     H 3978   3.617   1.163   3.250 -0.3771 -0.8060 -0.3211
   29MOL0     H 3979   3.762   1.075   3.284  0.0412 -1.7846 -0.4103
   29MOL0     H 3980   3.733   0.938   3.088 -0.6766 -1.0702 -0.6270
   29MOL0     H 3981   3.590   1.032   3.028 -0.7555  1.8296  1.1900
   29MOL0     H 3982   4.320   1.848   2.713  0.4432  0.1470  0.1825
   29MOL0     H 3983   4.293   2.071   2.619 -1.8638 -0.5170 -1.1142
   29MOL0     H 3984   4.133   2.426   2.319  3.8438  1.5019  0.1101
   29MOL0     H 3985   4.123   2.659   2.274 -0.8214 -0.6107 -1.2129
   29MOL0     H 3986   2.632   3.063   3.494 -1.3882 -0.8481 -0.7401
   29MOL0     H 3987   2.523   2.914   3.653  1.3336  0.3858  2.8248
   29MOL0     H 3988   2.212   2.474   3.627 -0.5871 -0.1834  0.4396
   29MOL0     H 3989   2.044   2.412   3.793 -1.2522  1.4203  2.0139
   29MOL0     H 3990   2.032   2.342   4.223 -1.0161  0.8397  0.9096
   29MOL0     H 3991   2.191   2.442   4.234  0.0993 -1.5460  1.6001
   29MOL0     H 3992   2.098   2.622   4.295  2.7303 -2.9489  0.6440
   29MOL0     H 3993   1.994   2.513   4.387 -1.5972  0.9495 -0.3586
   29MOL0     H 3994   1.891   2.626   4.120  0.2621 -0.8896 -0.6377
   29MOL0     H 3995   1.816   2.510   4.230  1.1317 -2.2341 -3.5503
   29MOL0     H 3996   1.713   2.724   4.264 -0.2839 -2.8767  1.4907
   29MOL0     H 3997   1.868   2.805   4.258 -1.3581  2.8728  3.2735
   29MOL0     H 3998   1.797   2.737   4.668  1.1662 -0.4808 -0.7276
   29MOL0     H 3999   2.292   2.561   4.108 -0.7874 -1.2012  0.2593
   29MOL0     H 4000   2.482   2.668   4.078  3.8036  0.4468  0.6453
   29MOL0     H 4001   2.582   2.590   3.957 -0.6540 -0.4085  2.0135
   29MOL0     H 4002   2.509   2.758   3.933  0.3937  1.6973  3.8679
   30MOL0     O 4003   4.371  10.924   1.821  0.3962  0.8672 -0.1670
   30MOL0     C 4004   4.445  10.828   1.830  0.2445  0.3920 -0.0251
   30MOL0     O 4005   4.450  10.716   1.746 -0.0312  0.2988 -0.0886
   30MOL0     C 4006   4.366  10.691   1.641  0.1639 -0.8852  0.4121
   30MOL0     C 4007   4.406  10.585   1.560  0.6355 -0.0223 -0.2155
   30MOL0     C 4008   4.328  10.539   1.446  0.2167 -0.5854  0.3588
   30MOL0     C 4009   4.219  10.614   1.400 -0.3924 -0.4249 -0.0966
   30MOL0     O 4010   4.151  10.572   1.284  0.2878 -0.1103 -0.6083
   30MOL0     C 4011   4.009  10.610   1.276  0.3641 -0.8002 -0.1788
   30MOL0     C 4012   3.946  10.535   1.159  0.1420  0.1867 -0.3667
   30MOL0     C 4013   3.813  10.587   1.124 -0.0883 -0.5076  0.5501
   30MOL0     C 4014   3.776  10.572   0.977  1.0201 -0.4622 -0.4960
   30MOL0     C 4015   3.645  10.623   0.925  0.7510  0.1450 -0.0594
   30MOL0     C 4016   3.608  10.575   0.785 -0.2027 -0.6711  0.2273
   30MOL0     C 4017   3.721  10.575   0.689  0.0669 -0.3483  0.1302
   30MOL0     C 4018   3.680  10.529   0.546 -0.2248 -0.3065  0.5824
   30MOL0     N 4019   3.740  10.391   0.518  0.6632 -0.1594  0.4659
   30MOL0     C 4020   3.663  10.278   0.483 -0.5608 -0.0196  0.0480
   30MOL0     C 4021   3.753  10.183   0.464  0.3135  0.5995  0.2808
   30MOL0     C 4022   3.708  10.040   0.443  0.2155 -0.5721 -1.1795
   30MOL0     C 4023   3.823   9.954   0.398 -0.0027  0.4115 -0.3280
   30MOL0     C 4024   3.781   9.822   0.323 -0.6821 -0.6078 -0.4652
   30MOL0     C 4025   3.692   9.732   0.415  0.5433 -0.5585 -0.1116
   30MOL0     O 4026   3.685   9.593   0.383 -0.1327  0.7416  0.7301
   30MOL0     C 4027   3.565   9.550   0.342  0.7439  0.4970 -0.3287
   30MOL0     C 4028   3.575   9.454   0.237 -0.4519 -0.6511  0.5999
   30MOL0     C 4029   3.460   9.384   0.182 -1.0173  0.4059 -0.1672
   30MOL0     C 4030   3.479   9.279   0.075 -0.1481  0.5338 -0.4826
   30MOL0     C 4031   3.334   9.415   0.234  0.5648  0.4819  0.3144
   30MOL0     C 4032   3.215   9.331   0.207  0.1122  0.4078 -0.1624
   30MOL0     O 4033   3.101   9.388   0.248  0.5135  0.0384 -0.1414
   30MOL0     C 4034   2.972   9.364   0.198  0.4788  0.7773 -0.1216
   30MOL0     C 4035   2.855   9.415   0.272 -0.7390 -0.9128  1.5883
   30MOL0     C 4036   2.734   9.380   0.214  0.6506 -0.0436 -0.7761
   30MOL0     C 4037   2.719   9.287   0.109 -0.5130  1.0859 -0.7542
   30MOL0     O 4038   2.594   9.266   0.057 -0.1686  0.4973 -0.7923
   30MOL0     C 4039   2.560   9.129   0.048  0.2877 -0.3210  0.2260
   30MOL0     C 4040   2.458   9.122  -0.065 -0.2122 -0.6388  0.0947
   30MOL0     C 4041   2.422   8.975  -0.080  0.4764  0.4050 -0.0230
   30MOL0     C 4042   2.301   8.948   0.003  0.3516 -0.7762 -0.1394
   30MOL0     C 4043   2.215   8.823  -0.036 -0.4660 -0.2505 -0.2249
   30MOL0     C 4044   2.077   8.821   0.036  0.1963 -0.0040 -0.2692
   30MOL0     C 4045   2.090   8.840   0.195  0.4578  0.3854  0.2267
   30MOL0     C 4046   1.948   8.825   0.252  0.2247  1.1920  0.6383
   30MOL0    Cl 4047   1.854   8.975   0.226 -0.2298  0.0715  0.1908
   30MOL0     C 4048   2.832   9.246   0.049 -0.0820  0.2030  0.4104
   30MOL0     C 4049   2.962   9.281   0.083  1.0733  0.1581 -0.4654
   30MOL0     O 4050   3.231   9.206   0.195  0.3808 -0.2205 -0.1079
   30MOL0     C 4051   3.328   9.508   0.336  0.2345  0.3277  0.6908
   30MOL0     C 4052   3.435   9.572   0.388  0.0156  0.1623 -0.2037
   30MOL0     N 4053   3.881  10.235   0.481 -0.8186  0.3887  0.5666
   30MOL0     N 4054   3.870  10.363   0.510 -0.1546  0.2936 -0.2627
   30MOL0     C 4055   4.188  10.730   1.470  0.5173 -0.2599 -0.0901
   30MOL0     C 4056   4.257  10.764   1.589  0.0179 -0.3350 -0.7124
   30MOL0     C 4057   4.535  10.812   1.946  0.7333  0.4129 -0.1108
   30MOL0     C 4058   4.523  10.698   2.022  0.5576  0.6760 -0.4620
   30MOL0     C 4059   4.603  10.670   2.132 -0.5240  0.4248  0.2063
   30MOL0     C 4060   4.698  10.760   2.180 -0.5510  0.2558  0.1757
   30MOL0     O 4061   4.758  10.726   2.295  0.1497  0.5905 -0.3126
   30MOL0     C 4062   4.855  10.809   2.359  0.7339  0.5473  0.7545
   30MOL0     C 4063   4.936  10.741   2.461  0.3790 -0.8033  0.4743
   30MOL0     C 4064   5.006  10.839   2.561 -0.4213  0.2180  0.4194
   30MOL0     C 4065   5.154  10.819   2.570 -0.0707  0.1677 -0.7189
   30MOL0     C 4066   5.181  10.685   2.623  0.2220  0.2295  0.5331
   30MOL0     C 4067   5.200  10.578   2.667 -0.7848  0.0816  0.7092
   30MOL0     C 4068   4.708  10.882   2.106  0.0557  0.4656  0.2170
   30MOL0     C 4069   4.632  10.903   1.983  0.7923 -0.3588 -0.3447
   30MOL0     C 4070   4.658  11.036   1.918  0.3164 -0.1892 -0.2891
   30MOL0     H 4071   4.490  10.526   1.596 -1.6496 -3.2350  0.3196
   30MOL0     H 4072   4.340  10.444   1.396  0.2554 -1.5430  2.0872
   30MOL0     H 4073   4.003  10.719   1.271 -2.4310 -0.7788  1.5300
   30MOL0     H 4074   3.972  10.576   1.374 -0.5246 -2.2056 -0.9537
   30MOL0     H 4075   4.009  10.545   1.070 -1.5314  1.2787 -1.4931
   30MOL0     H 4076   3.934  10.429   1.182 -1.0574 -0.7076 -4.3531
   30MOL0     H 4077   3.744  10.534   1.190 -1.7063  0.1939 -0.5188
   30MOL0     H 4078   3.801  10.691   1.154  0.1045 -0.7790  1.6238
   30MOL0     H 4079   3.858  10.607   0.913  0.1764  0.1503 -1.2651
   30MOL0     H 4080   3.764  10.464   0.963  0.9892 -0.3404 -1.5261
   30MOL0     H 4081   3.661  10.731   0.928  2.9617 -0.1668  1.5393
   30MOL0     H 4082   3.563  10.598   0.993  0.9604 -0.5137 -0.0452
   30MOL0     H 4083   3.570  10.474   0.798 -0.2998 -0.3785  2.7568
   30MOL0     H 4084   3.533  10.642   0.743  0.7251  0.2936  0.0544
   30MOL0     H 4085   3.799  10.508   0.726  0.2589 -0.8543 -1.1380
   30MOL0     H 4086   3.763  10.676   0.693 -2.1994  0.7209 -1.1616
   30MOL0     H 4087   3.572  10.515   0.534  0.2819 -3.9078 -0.8955
   30MOL0     H 4088   3.709  10.614   0.483 -0.4825 -0.1187  0.7133
   30MOL0     H 4089   3.556  10.271   0.465 -0.2656 -0.8233 -1.5796
   30MOL0     H 4090   3.632  10.033   0.364 -0.0197 -2.2501 -0.8403
   30MOL0     H 4091   3.679   9.990   0.536  1.9801  0.6156  0.0681
   30MOL0     H 4092   3.878  10.007   0.320 -0.8719  0.2690 -1.0606
   30MOL0     H 4093   3.877   9.940   0.492  2.5791  0.6040 -1.7217
   30MOL0     H 4094   3.721   9.850   0.236  1.6091 -1.5754 -2.4696
   30MOL0     H 4095   3.870   9.770   0.288  0.1487 -0.3667  1.2228
   30MOL0     H 4096   3.737   9.736   0.515  0.0713 -0.2591  0.0909
   30MOL0     H 4097   3.588   9.762   0.429  0.2346 -0.5027 -2.2298
   30MOL0     H 4098   3.673   9.429   0.198  0.0423  0.9705  0.7390
   30MOL0     H 4099   3.567   9.309   0.017 -1.1023 -0.4240 -2.5013
   30MOL0     H 4100   3.394   9.279   0.007 -3.0309  0.1524  2.8261
   30MOL0     H 4101   3.489   9.180   0.122  0.4175  1.0023  0.4171
   30MOL0     H 4102   2.864   9.470   0.366 -3.0983  1.3773  0.5877
   30MOL0     H 4103   2.641   9.418   0.255 -0.0198  0.3892 -2.5699
   30MOL0     H 4104   2.638   9.055   0.031 -1.8971 -3.4531  2.6766
   30MOL0     H 4105   2.514   9.097   0.142  1.0903 -1.0599  0.3770
   30MOL0     H 4106   2.376   9.191  -0.042 -0.5833 -1.5211  1.5224
   30MOL0     H 4107   2.508   9.154  -0.156 -1.4436  0.5958 -0.1890
   30MOL0     H 4108   2.502   8.905  -0.053  0.9141 -0.2927 -2.7591
   30MOL0     H 4109   2.401   8.956  -0.186 -0.5788 -0.3044  0.3028
   30MOL0     H 4110   2.241   9.040  -0.005  0.6405 -0.5010  0.7374
   30MOL0     H 4111   2.333   8.941   0.107  2.6732  2.4356 -0.4983
   30MOL0     H 4112   2.193   8.833  -0.143 -1.3480 -0.9052 -0.1145
   30MOL0     H 4113   2.275   8.732  -0.025 -1.4430 -0.8518  0.2425
   30MOL0     H 4114   2.038   8.724   0.005  2.5976 -1.5679  1.2841
   30MOL0     H 4115   2.018   8.904  -0.004 -0.6202 -1.0026 -1.1922
   30MOL0     H 4116   2.135   8.938   0.214 -0.5178  1.0438 -0.7717
   30MOL0     H 4117   2.155   8.765   0.242  3.7296  2.7457 -0.1466
   30MOL0     H 4118   1.956   8.801   0.358  2.7388  0.6843  0.4033
   30MOL0     H 4119   1.900   8.735   0.213  2.5812 -1.4802  3.4323
   30MOL0     H 4120   2.833   9.172  -0.030 -0.7559 -0.5545  1.0938
   30MOL0     H 4121   3.051   9.240   0.037  1.1805  0.1695 -0.2710
   30MOL0     H 4122   3.229   9.521   0.378 -2.0756 -0.4879 -3.8229
   30MOL0     H 4123   3.404   9.638   0.469 -0.0765 -1.8462  1.4733
   30MOL0     H 4124   4.113  10.800   1.434  0.8456  1.6316  2.6844
   30MOL0     H 4125   4.222  10.859   1.628 -2.7173 -0.4605 -2.5567
   30MOL0     H 4126   4.481  10.612   1.970  0.5970 -0.4546  1.3079
   30MOL0     H 4127   4.585  10.578   2.186  4.2873  0.3927  2.2238
   30MOL0     H 4128   4.931  10.836   2.285  1.2776  0.1537  1.1673
   30MOL0     H 4129   4.820  10.904   2.401  1.3986  0.3582  1.7653
   30MOL0     H 4130   5.011  10.688   2.401  1.5830  1.8695 -0.5386
   30MOL0     H 4131   4.871  10.672   2.516  0.5383 -1.6428 -0.3639
   30MOL0     H 4132   4.991  10.941   2.523 -0.5899  1.3523  3.3215
   30MOL0     H 4133   4.955  10.841   2.657  1.2723  0.2894  1.3475
   30MOL0     H 4134   5.189  10.901   2.633 -0.4939  1.0055 -1.5474
   30MOL0     H 4135   5.207  10.826   2.475  1.1652  2.2734  0.0502
   30MOL0     H 4136   5.217  10.484   2.715  1.9248 -0.7117 -1.5453
   30MOL0     H 4137   4.784  10.956   2.131 -0.7690  0.8557  1.6962
   30MOL0     H 4138   4.630  11.042   1.812  2.3485  4.5196 -0.8058
   30MOL0     H 4139   4.605  11.114   1.974 -0.6122 -0.4170 -0.8309
   30MOL0     H 4140   4.763  11.063   1.931  0.1422  1.5935 -2.1271
   31MOL0     O 4141   2.522   6.182   3.131  0.6784 -0.2187 -0.0957
   31MOL0     C 4142   2.465   6.203   3.025  0.6343  0.3464 -0.0984
   31MOL0     O 4143   2.462   6.127   2.912 -0.3401 -0.0694  0.5431
   31MOL0     C 4144   2.551   6.029   2.892 -0.1839  0.5192  0.0868
   31MOL0     C 4145   2.680   6.052   2.838 -0.0343 -0.1603 -0.2641
   31MOL0     C 4146   2.774   5.951   2.823 -0.0410 -0.7839 -0.3462
   31MOL0     C 4147   2.744   5.827   2.870  0.4892  0.0638  0.2554
   31MOL0     O 4148   2.838   5.722   2.852 -0.4967  0.2866  0.4924
   31MOL0     C 4149   2.818   5.609   2.936  0.6286 -0.4640  0.2512
   31MOL0     C 4150   2.943   5.527   2.942  0.4058  0.4192 -0.4985
   31MOL0     C 4151   3.054   5.609   3.005 -0.0719 -0.9243  0.0724
   31MOL0     C 4152   3.175   5.528   3.045  0.5490 -0.1775 -0.3347
   31MOL0     C 4153   3.283   5.619   3.102  0.2587 -0.0015  0.9731
   31MOL0     C 4154   3.391   5.532   3.148  0.2409  0.6958  0.2503
   31MOL0     C 4155   3.493   5.595   3.231 -0.0765  0.0648  0.1322
   31MOL0     C 4156   3.445   5.652   3.366 -0.7253 -0.5846 -0.6605
   31MOL0     N 4157   3.566   5.677   3.455  0.1510 -0.7685 -0.2950
   31MOL0     C 4158   3.627   5.577   3.526  0.3466 -0.7301  0.0469
   31MOL0     C 4159   3.706   5.647   3.617  0.8501 -0.8309  0.1924
   31MOL0     C 4160   3.795   5.578   3.728  0.2707 -0.4004  0.0367
   31MOL0     C 4161   3.919   5.666   3.740 -0.9488  0.4127  0.3578
   31MOL0     C 4162   4.024   5.572   3.802  0.6755 -0.6178 -0.1977
   31MOL0     C 4163   4.154   5.648   3.829 -0.3922  0.1734 -0.4288
   31MOL0     O 4164   4.213   5.698   3.702 -0.4072  0.7488 -0.6997
   31MOL0     C 4165   4.340   5.735   3.703  0.3071  0.6918  0.2080
   31MOL0     C 4166   4.436   5.716   3.810  0.3901 -0.9724 -0.5284
   31MOL0     C 4167   4.564   5.757   3.793 -0.7318 -0.3860 -0.2823
   31MOL0     C 4168   4.662   5.728   3.911 -0.3812  0.7500 -0.3448
   31MOL0     C 4169   4.617   5.815   3.680 -1.1178  0.9241  0.3440
   31MOL0     C 4170   4.753   5.856   3.648 -0.1302 -0.0228 -0.0003
   31MOL0     O 4171   4.850   5.779   3.694  0.2259 -0.5372  0.4702
   31MOL0     C 4172   4.976   5.806   3.641 -0.6973 -0.0091  0.0400
   31MOL0     C 4173   5.008   5.779   3.503  0.1195  0.3621 -1.0819
   31MOL0     C 4174   5.135   5.804   3.453  0.0728  0.2808  0.0472
   31MOL0     C 4175   5.232   5.855   3.540 -0.1051 -0.0517 -0.7966
   31MOL0     O 4176   5.365   5.872   3.499  0.8293  0.4918 -0.1182
   31MOL0     C 4177   5.440   5.793   3.399 -0.5095  0.3609 -0.5555
   31MOL0     C 4178   5.582   5.849   3.379 -0.3364 -0.0406  1.1368
   31MOL0     C 4179   5.695   5.756   3.432  0.2926  0.6362  0.1413
   31MOL0     C 4180   5.763   5.810   3.561  0.8163  0.0951  1.2600
   31MOL0     C 4181   5.890   5.728   3.575  0.1256 -0.5704  0.0908
   31MOL0     C 4182   5.875   5.573   3.586 -0.0180  0.8519  0.9808
   31MOL0     C 4183   5.986   5.514   3.668  0.0811  0.2548 -0.7864
   31MOL0     C 4184   5.933   5.426   3.777 -0.5249 -0.0587 -0.6909
   31MOL0    Cl 4185   5.842   5.291   3.712 -0.2411  0.0231  0.2088
   31MOL0     C 4186   5.204   5.886   3.671 -0.3870  0.0104 -0.4148
   31MOL0     C 4187   5.074   5.868   3.722 -0.0752  0.1303 -0.4545
   31MOL0     O 4188   4.770   5.954   3.581  0.4957 -0.0292 -0.8674
   31MOL0     C 4189   4.514   5.849   3.584 -0.5682 -0.6133 -0.2750
   31MOL0     C 4190   4.379   5.806   3.596  0.4202  0.3805 -0.2979
   31MOL0     N 4191   3.704   5.778   3.589 -0.6675  0.7350 -0.7882
   31MOL0     N 4192   3.615   5.798   3.492 -0.4012 -0.1855 -0.5173
   31MOL0     C 4193   2.621   5.802   2.921  0.4910 -0.3406  0.6536
   31MOL0     C 4194   2.522   5.892   2.936 -0.0423  0.6556 -0.0649
   31MOL0     C 4195   2.364   6.310   3.026 -0.3394  0.3235  0.4136
   31MOL0     C 4196   2.285   6.331   2.919  0.6302 -0.2560 -0.0629
   31MOL0     C 4197   2.200   6.444   2.902 -0.2780  0.9502 -0.6547
   31MOL0     C 4198   2.172   6.523   3.011  0.4220 -0.0025  0.3440
   31MOL0     O 4199   2.089   6.631   2.984  1.1450 -0.4872  0.1593
   31MOL0     C 4200   2.033   6.704   3.101  0.6392 -0.1839  0.4140
   31MOL0     C 4201   1.934   6.800   3.036  0.0969  0.4798 -0.5249
   31MOL0     C 4202   1.801   6.742   2.993  0.5099  0.2720 -1.0102
   31MOL0     C 4203   1.706   6.822   2.905 -0.1627  0.8381 -0.1470
   31MOL0     C 4204   1.575   6.761   2.898 -0.3755 -0.1216  0.0186
   31MOL0     C 4205   1.470   6.706   2.868  0.4585 -0.0618 -0.4179
   31MOL0     C 4206   2.240   6.495   3.126  0.1888 -0.7135  0.2608
   31MOL0     C 4207   2.345   6.401   3.131  0.3682  0.1016 -0.5216
   31MOL0     C 4208   2.435   6.412   3.249 -0.1690 -0.1827  0.5527
   31MOL0     H 4209   2.720   6.148   2.804  0.6009 -0.3640 -0.1055
   31MOL0     H 4210   2.876   5.962   2.785 -0.0417  1.7302  0.1739
   31MOL0     H 4211   2.742   5.546   2.890 -1.2200  1.2934  0.7314
   31MOL0     H 4212   2.786   5.648   3.033 -0.9053 -1.0471  0.0137
   31MOL0     H 4213   2.923   5.437   3.000 -1.6303 -0.6042 -2.6144
   31MOL0     H 4214   2.969   5.483   2.845  0.7977  1.2063 -0.7648
   31MOL0     H 4215   3.094   5.692   2.946  1.6769  1.2212  3.9003
   31MOL0     H 4216   3.010   5.656   3.093 -0.7959 -0.4272 -0.5446
   31MOL0     H 4217   3.139   5.453   3.116  1.3827  0.0327  0.3171
   31MOL0     H 4218   3.212   5.479   2.954 -4.6286  1.1745 -3.6322
   31MOL0     H 4219   3.247   5.684   3.182 -0.6659 -0.8893  1.3071
   31MOL0     H 4220   3.311   5.686   3.021  0.3606  0.2100  1.1833
   31MOL0     H 4221   3.353   5.453   3.213 -0.4990  0.4579 -0.4643
   31MOL0     H 4222   3.433   5.493   3.055  0.4482  2.2189 -0.3368
   31MOL0     H 4223   3.539   5.674   3.172 -1.7025  0.4887 -0.6178
   31MOL0     H 4224   3.580   5.530   3.248  0.3544  0.4251 -0.6466
   31MOL0     H 4225   3.387   5.744   3.358  1.4117  1.0448  1.2287
   31MOL0     H 4226   3.385   5.579   3.421 -3.1082  0.5524 -1.6010
   31MOL0     H 4227   3.619   5.469   3.519 -0.1647 -0.6622 -0.4271
   31MOL0     H 4228   3.822   5.478   3.693  3.1006  0.0800  0.5733
   31MOL0     H 4229   3.738   5.582   3.822 -3.3750 -0.2334 -2.0178
   31MOL0     H 4230   3.959   5.701   3.644  1.5313 -2.2946  0.2221
   31MOL0     H 4231   3.898   5.752   3.804  2.6867  2.8554 -1.4111
   31MOL0     H 4232   3.983   5.534   3.896 -0.3442 -2.6523 -1.3839
   31MOL0     H 4233   4.034   5.482   3.740 -4.0475 -3.3187  2.4017
   31MOL0     H 4234   4.121   5.734   3.889 -1.8943 -0.3980 -0.3920
   31MOL0     H 4235   4.218   5.582   3.888 -2.9415  0.0489  2.4456
   31MOL0     H 4236   4.403   5.670   3.903 -0.8477 -0.5900 -0.7475
   31MOL0     H 4237   4.731   5.807   3.941 -2.4348  3.3528 -1.9648
   31MOL0     H 4238   4.702   5.629   3.886 -1.8319  0.2028 -0.6144
   31MOL0     H 4239   4.606   5.713   4.003  0.3274  0.5188  0.0543
   31MOL0     H 4240   4.935   5.728   3.441 -1.0163  2.3724 -1.4918
   31MOL0     H 4241   5.150   5.776   3.349 -2.1322 -2.8157  0.4209
   31MOL0     H 4242   5.451   5.688   3.426 -0.0281  0.8982  1.5006
   31MOL0     H 4243   5.390   5.781   3.303  1.8467 -3.2607 -1.5357
   31MOL0     H 4244   5.594   5.865   3.272 -2.0010  2.7230  1.2837
   31MOL0     H 4245   5.590   5.952   3.414 -0.6370  1.1947 -2.1604
   31MOL0     H 4246   5.765   5.734   3.352 -0.4198 -1.5870  0.0690
   31MOL0     H 4247   5.661   5.656   3.461  0.9631 -0.6823 -3.1616
   31MOL0     H 4248   5.704   5.799   3.652 -0.3418  2.1303  0.8180
   31MOL0     H 4249   5.793   5.910   3.530 -2.3458  0.1774 -2.3299
   31MOL0     H 4250   5.951   5.742   3.486 -0.5202 -3.2391 -0.8534
   31MOL0     H 4251   5.941   5.771   3.662 -1.7479  0.8927  0.5271
   31MOL0     H 4252   5.877   5.539   3.483  0.9311  1.1933  0.8724
   31MOL0     H 4253   5.776   5.549   3.625 -0.0282  0.8104  0.9288
   31MOL0     H 4254   6.053   5.590   3.707 -2.8237  1.6452  1.9268
   31MOL0     H 4255   6.040   5.447   3.600  0.1262 -1.2108  0.6443
   31MOL0     H 4256   5.868   5.474   3.851 -2.1299 -4.8808  1.4060
   31MOL0     H 4257   6.016   5.386   3.837 -0.8601 -0.4022 -0.4558
   31MOL0     H 4258   5.272   5.930   3.744 -2.4704 -0.7835  2.1332
   31MOL0     H 4259   5.049   5.896   3.824  1.8911  0.3205  0.0073
   31MOL0     H 4260   4.537   5.914   3.500 -2.2854  1.8915  1.0602
   31MOL0     H 4261   4.309   5.846   3.523 -2.3027  0.2246  2.0514
   31MOL0     H 4262   2.583   5.703   2.945  0.5653 -0.4332  0.3958
   31MOL0     H 4263   2.420   5.875   2.971  0.7648  0.7018  2.4759
   31MOL0     H 4264   2.283   6.254   2.844  1.6301 -2.2862  1.8683
   31MOL0     H 4265   2.138   6.458   2.814 -0.6042 -1.6327 -0.9045
   31MOL0     H 4266   1.994   6.641   3.182  0.9894 -0.5989  0.2634
   31MOL0     H 4267   2.121   6.758   3.136 -0.5907  1.0193  1.8232
   31MOL0     H 4268   1.975   6.849   2.947 -0.1511  1.5002 -0.0926
   31MOL0     H 4269   1.908   6.873   3.112  0.4971 -1.0773  1.1810
   31MOL0     H 4270   1.815   6.648   2.940  1.4251 -0.6906  0.8368
   31MOL0     H 4271   1.739   6.723   3.081  0.8782  3.2324  0.0182
   31MOL0     H 4272   1.752   6.808   2.807 -0.4427 -0.1182 -0.1541
   31MOL0     H 4273   1.689   6.928   2.927  1.3052  1.5371 -2.0751
   31MOL0     H 4274   1.378   6.672   2.826  1.6754 -1.8063 -1.8451
   31MOL0     H 4275   2.232   6.554   3.217 -1.9512 -0.2959 -0.1605
   31MOL0     H 4276   2.541   6.414   3.222 -0.1024  0.5588  0.8282
   31MOL0     H 4277   2.422   6.510   3.296  1.6690  0.0654  0.6006
   31MOL0     H 4278   2.414   6.338   3.326  1.8780 -0.6780  0.6935
   32MOL0     O 4279   5.266   1.238   1.337 -0.0853 -0.2867  0.0148
   32MOL0     C 4280   5.202   1.201   1.432 -0.1802  0.3618 -0.1988
   32MOL0     O 4281   5.264   1.141   1.541  0.7219 -0.2988  0.0610
   32MOL0     C 4282   5.397   1.103   1.532 -0.1660 -0.4660 -0.2578
   32MOL0     C 4283   5.484   1.122   1.645  0.4224  0.3541  1.0775
   32MOL0     C 4284   5.617   1.085   1.643  0.1230 -0.3092 -0.2927
   32MOL0     C 4285   5.674   1.021   1.531  0.6707  0.1622 -0.3401
   32MOL0     O 4286   5.802   0.969   1.523  0.4986 -0.6010  0.1189
   32MOL0     C 4287   5.888   0.979   1.633  0.0380 -0.7388 -0.0348
   32MOL0     C 4288   6.018   0.908   1.591 -0.1413 -0.1722 -0.6217
   32MOL0     C 4289   5.995   0.757   1.583  0.4546  0.0919  0.3237
   32MOL0     C 4290   6.127   0.688   1.576  0.7178 -0.1810 -1.1474
   32MOL0     C 4291   6.115   0.545   1.522  0.1762  0.5687 -0.0885
   32MOL0     C 4292   6.254   0.483   1.502  1.2372 -1.0456  0.6475
   32MOL0     C 4293   6.363   0.512   1.595 -0.4668  0.0081  0.0018
   32MOL0     C 4294   6.485   0.430   1.547 -1.2058  0.2932 -0.2506
   32MOL0     N 4295   6.614   0.455   1.622  0.2660 -0.2905 -0.8516
   32MOL0     C 4296   6.673   0.580   1.629  0.0313  0.4593  0.1837
   32MOL0     C 4297   6.797   0.555   1.689 -0.2973  0.3823  0.1141
   32MOL0     C 4298   6.902   0.663   1.721  0.7447 -0.4251 -0.2772
   32MOL0     C 4299   6.981   0.696   1.602 -0.1598  0.2285  0.2524
   32MOL0     C 4300   7.077   0.586   1.562  0.8376 -2.0301  0.8510
   32MOL0     C 4301   7.216   0.615   1.621  0.1923 -0.2085 -0.3398
   32MOL0     O 4302   7.294   0.499   1.580 -0.7472 -0.0290 -0.9278
   32MOL0     C 4303   7.434   0.506   1.591  0.0601 -0.2513 -0.7550
   32MOL0     C 4304   7.506   0.380   1.598 -0.6470  0.2931  0.2168
   32MOL0     C 4305   7.646   0.377   1.627 -0.4306  0.1844  0.2474
   32MOL0     C 4306   7.712   0.238   1.615 -0.4959 -0.0536  0.1138
   32MOL0     C 4307   7.715   0.499   1.658 -0.4915 -0.9005 -0.8877
   32MOL0     C 4308   7.859   0.498   1.692 -0.5096  0.2134  0.0101
   32MOL0     O 4309   7.930   0.378   1.692 -0.4837 -0.0812  0.5181
   32MOL0     C 4310   8.069   0.372   1.692 -0.7669 -0.2184  0.1830
   32MOL0     C 4311   8.161   0.455   1.616  0.5812 -0.0805  0.3089
   32MOL0     C 4312   8.302   0.430   1.629  0.0899  0.2440 -0.4930
   32MOL0     C 4313   8.349   0.334   1.712 -0.2093  0.0051 -0.2669
   32MOL0     O 4314   8.485   0.331   1.708  0.0977  0.0489 -0.0355
   32MOL0     C 4315   8.557   0.306   1.829 -0.1616  0.3491 -1.2653
   32MOL0     C 4316   8.702   0.278   1.806  0.6863 -0.4792  0.1180
   32MOL0     C 4317   8.792   0.283   1.937 -0.1426  0.3383 -0.4269
   32MOL0     C 4318   8.928   0.231   1.894  0.6126  0.1567 -0.1654
   32MOL0     C 4319   9.032   0.327   1.829  0.6639 -0.1247 -0.1128
   32MOL0     C 4320   9.027   0.467   1.890  0.2850  0.6958  0.2109
   32MOL0     C 4321   9.147   0.556   1.855 -0.3723  0.5239  0.1791
   32MOL0     C 4322   9.164   0.592   1.710  0.3845  0.4894  0.6606
   32MOL0    Cl 4323   9.262   0.739   1.672 -0.2148 -0.4149  0.2713
   32MOL0     C 4324   8.260   0.248   1.774 -0.0291 -0.6583 -0.0564
   32MOL0     C 4325   8.122   0.264   1.760  0.1500 -0.3508  0.6437
   32MOL0     O 4326   7.914   0.605   1.718  0.0098 -0.7426 -0.5674
   32MOL0     C 4327   7.645   0.623   1.655 -0.3329  0.0856  0.1139
   32MOL0     C 4328   7.509   0.627   1.616 -0.6391 -0.5729  0.2976
   32MOL0     N 4329   6.807   0.419   1.725 -0.7713 -0.3789 -0.1670
   32MOL0     N 4330   6.700   0.361   1.683  0.4371 -0.1862  0.3875
   32MOL0     C 4331   5.590   1.001   1.426  0.0468 -0.0411  1.2681
   32MOL0     C 4332   5.455   1.034   1.425 -0.1417 -0.1350 -0.7675
   32MOL0     C 4333   5.043   1.212   1.443 -0.1181 -0.6267  0.5432
   32MOL0     C 4334   4.984   1.172   1.559 -0.0336 -0.9236  0.0820
   32MOL0     C 4335   4.844   1.171   1.574 -0.3592 -0.0332 -0.1978
   32MOL0     C 4336   4.767   1.208   1.461 -0.4880  0.5849 -0.1809
   32MOL0     O 4337   4.629   1.207   1.460  0.2670  0.4233 -0.4492
   32MOL0     C 4338   4.564   1.079   1.504 -0.0693  0.4954 -0.4037
   32MOL0     C 4339   4.576   0.975   1.392 -0.2780 -0.5782  0.1224
   32MOL0     C 4340   4.717   0.910   1.388  0.1124  0.5274  0.6331
   32MOL0     C 4341   4.716   0.792   1.281  0.0391  0.1991  0.0860
   32MOL0     C 4342   4.752   0.861   1.155  0.3237 -0.7915  1.2050
   32MOL0     C 4343   4.786   0.911   1.048  0.0222  1.2718  0.5241
   32MOL0     C 4344   4.827   1.247   1.342 -0.8568  0.5072 -0.0674
   32MOL0     C 4345   4.967   1.252   1.329  0.7178  0.4141  0.6099
   32MOL0     C 4346   5.018   1.295   1.196  0.6114 -1.0613 -0.8412
   32MOL0     H 4347   5.452   1.174   1.735  1.7463  2.1319  0.5847
   32MOL0     H 4348   5.670   1.101   1.737 -2.9348 -2.2545  1.9641
   32MOL0     H 4349   5.847   0.927   1.721  1.4111  1.3032  1.9287
   32MOL0     H 4350   5.910   1.084   1.652  1.0661 -0.3131 -3.0976
   32MOL0     H 4351   6.059   0.944   1.496  0.1097 -2.3435 -1.3745
   32MOL0     H 4352   6.089   0.934   1.670 -3.3628 -0.1385  2.5030
   32MOL0     H 4353   5.935   0.725   1.669 -1.8474  1.6818 -0.5930
   32MOL0     H 4354   5.927   0.745   1.498  1.0994  1.1455 -0.3674
   32MOL0     H 4355   6.190   0.747   1.509 -0.6436  1.7571 -0.8226
   32MOL0     H 4356   6.165   0.689   1.678 -3.5095  2.3631  0.6734
   32MOL0     H 4357   6.066   0.545   1.424 -2.6410  1.1032  1.2033
   32MOL0     H 4358   6.057   0.479   1.587  0.6113  0.3533  0.0807
   32MOL0     H 4359   6.240   0.377   1.475 -0.8772 -0.4602 -0.7375
   32MOL0     H 4360   6.287   0.527   1.407  0.5596  0.7702  1.2199
   32MOL0     H 4361   6.335   0.476   1.694  1.6221  1.3093  1.1409
   32MOL0     H 4362   6.381   0.619   1.600  2.2042 -0.2225 -2.2170
   32MOL0     H 4363   6.456   0.325   1.553 -1.5169  0.2489 -2.0682
   32MOL0     H 4364   6.500   0.459   1.443 -1.7768  1.8325  0.0770
   32MOL0     H 4365   6.625   0.674   1.604 -0.5482  0.1329  0.0497
   32MOL0     H 4366   6.964   0.632   1.805 -1.0567  0.8997  1.6343
   32MOL0     H 4367   6.837   0.743   1.758 -1.6175 -2.3033 -0.1103
   32MOL0     H 4368   6.906   0.721   1.527 -0.4002  0.0012  0.4117
   32MOL0     H 4369   7.042   0.784   1.625  0.8581 -0.8101  1.7683
   32MOL0     H 4370   7.045   0.484   1.586  1.6814 -2.8189 -1.1723
   32MOL0     H 4371   7.087   0.592   1.453 -0.2651  0.2680  0.8199
   32MOL0     H 4372   7.257   0.714   1.596 -0.0846  0.5592  2.0165
   32MOL0     H 4373   7.205   0.615   1.729  1.0694 -1.7026 -0.2319
   32MOL0     H 4374   7.452   0.287   1.584  0.4133 -0.4860  1.0649
   32MOL0     H 4375   7.797   0.247   1.547  1.0919 -0.8998  1.8881
   32MOL0     H 4376   7.641   0.174   1.563 -2.9170  3.6491 -1.4807
   32MOL0     H 4377   7.742   0.205   1.715  1.1563 -1.0480 -0.6605
   32MOL0     H 4378   8.133   0.531   1.544 -0.5523  0.7516  1.5961
   32MOL0     H 4379   8.370   0.502   1.584 -0.5297  2.0623  1.3236
   32MOL0     H 4380   8.544   0.394   1.892  2.1469 -0.2958  0.2416
   32MOL0     H 4381   8.514   0.218   1.879 -2.0534  1.4397 -0.8692
   32MOL0     H 4382   8.701   0.176   1.765 -2.0735 -0.5786  0.2230
   32MOL0     H 4383   8.740   0.352   1.735  1.2178 -0.7656  0.0992
   32MOL0     H 4384   8.738   0.221   2.009 -2.4967  1.3634 -1.2187
   32MOL0     H 4385   8.810   0.382   1.979  0.6819  0.1581 -0.3311
   32MOL0     H 4386   8.912   0.146   1.826 -1.6138  0.6496 -0.3228
   32MOL0     H 4387   8.985   0.196   1.980  0.0895 -1.4093 -0.4094
   32MOL0     H 4388   9.134   0.288   1.833  0.4374 -0.7699 -0.4804
   32MOL0     H 4389   9.013   0.344   1.723  0.2647 -1.5679 -0.2900
   32MOL0     H 4390   9.026   0.448   1.998 -2.2447  1.3031  0.3570
   32MOL0     H 4391   8.944   0.533   1.863  0.5062  0.8898  0.0025
   32MOL0     H 4392   9.241   0.507   1.884 -0.3658 -0.2988 -1.1700
   32MOL0     H 4393   9.142   0.639   1.926 -0.1198  0.3875  0.3618
   32MOL0     H 4394   9.066   0.616   1.667  1.4925  0.7845 -1.8643
   32MOL0     H 4395   9.201   0.507   1.652 -0.8677 -1.5295  2.6652
   32MOL0     H 4396   8.295   0.160   1.827 -2.1969 -2.3030 -1.1986
   32MOL0     H 4397   8.064   0.204   1.830  1.3041 -1.9517  0.3002
   32MOL0     H 4398   7.701   0.711   1.681 -1.7974  0.5016  2.1408
   32MOL0     H 4399   7.462   0.725   1.615  0.4895 -0.0070  0.6532
   32MOL0     H 4400   5.632   0.945   1.343  0.4583 -0.5466  1.8139
   32MOL0     H 4401   5.391   1.024   1.339  0.0811  1.9109 -1.2421
   32MOL0     H 4402   5.039   1.146   1.648 -1.7455 -2.1687  0.8483
   32MOL0     H 4403   4.799   1.162   1.673 -0.7952  2.1924 -0.1350
   32MOL0     H 4404   4.607   1.030   1.592  0.6190 -0.2840 -1.1604
   32MOL0     H 4405   4.457   1.099   1.515 -0.4543 -1.4576 -0.2369
   32MOL0     H 4406   4.550   1.024   1.297 -1.9180 -1.9927 -0.2136
   32MOL0     H 4407   4.508   0.894   1.420  0.7376 -1.4058  0.2287
   32MOL0     H 4408   4.792   0.982   1.356 -0.0569  0.5685  0.3257
   32MOL0     H 4409   4.753   0.865   1.481  0.9443  0.8067  0.4547
   32MOL0     H 4410   4.623   0.737   1.293  0.8536 -1.0237  0.9654
   32MOL0     H 4411   4.800   0.724   1.298  0.8645  0.1403 -3.3630
   32MOL0     H 4412   4.828   0.942   0.955  0.7844  0.1516  0.4730
   32MOL0     H 4413   4.764   1.285   1.263  0.1023  0.4067 -0.8926
   32MOL0     H 4414   5.096   1.223   1.167  2.8136  0.7957  0.1958
   32MOL0     H 4415   4.940   1.322   1.124 -1.3738 -0.5131  1.3934
   32MOL0     H 4416   5.076   1.387   1.205  0.1146 -0.9733  2.8216
   33MOL0     O 4417   7.001  10.761   2.361  0.3441  0.9832 -0.1458
   33MOL0     C 4418   7.006  10.725   2.483 -0.4522 -0.2423  0.3910
   33MOL0     O 4419   7.114  10.737   2.566 -0.5089  0.2731  0.7522
   33MOL0     C 4420   7.237  10.773   2.526 -0.1005 -0.4911  0.6159
   33MOL0     C 4421   7.332  10.816   2.624  0.2565 -0.3986  0.8361
   33MOL0     C 4422   7.469  10.829   2.592  0.4205 -0.4179  0.1049
   33MOL0     C 4423   7.511  10.792   2.462  0.2714 -0.1676  0.2336
   33MOL0     O 4424   7.643  10.772   2.438  1.0326  0.1595  0.2528
   33MOL0     C 4425   7.731  10.867   2.494 -0.0164 -0.4482  0.3634
   33MOL0     C 4426   7.873  10.825   2.449 -0.0543 -0.1410 -0.4890
   33MOL0     C 4427   7.901  10.853   2.300  0.4546 -0.1841  0.0990
   33MOL0     C 4428   7.855  10.988   2.240 -0.1350  0.5257 -0.0563
   33MOL0     C 4429   7.931  11.115   2.286 -0.3151 -0.8649 -0.1966
   33MOL0     C 4430   8.072  11.143   2.229 -0.4487 -0.8519  0.4715
   33MOL0     C 4431   8.070  11.144   2.073 -0.0256  0.2712  0.5480
   33MOL0     C 4432   8.197  11.209   2.022 -0.2744 -0.3548  0.2545
   33MOL0     N 4433   8.322  11.147   2.071  0.4405 -0.1448 -0.6582
   33MOL0     C 4434   8.372  11.027   2.031 -1.0043 -0.2763  0.4266
   33MOL0     C 4435   8.480  11.015   2.111 -0.1813 -0.1538  0.1362
   33MOL0     C 4436   8.569  10.889   2.106 -0.0388  0.0037 -0.2341
   33MOL0     C 4437   8.690  10.882   2.200 -0.3392 -1.1377  0.2763
   33MOL0     C 4438   8.762  10.751   2.206 -0.0073  0.4601  0.5851
   33MOL0     C 4439   8.682  10.620   2.238  0.1792  0.9744 -0.2237
   33MOL0     O 4440   8.777  10.513   2.238 -0.0011  0.1281  0.5649
   33MOL0     C 4441   8.730  10.386   2.239 -0.2363 -0.1648 -0.6961
   33MOL0     C 4442   8.603  10.353   2.280 -0.3603  0.0141  0.5487
   33MOL0     C 4443   8.565  10.221   2.257  0.6231  0.4151 -0.6635
   33MOL0     C 4444   8.418  10.195   2.297 -0.7420 -0.0621 -0.1235
   33MOL0     C 4445   8.646  10.129   2.197 -0.2800 -0.5526 -0.1964
   33MOL0     C 4446   8.603   9.989   2.166 -0.7942  0.1038 -1.4168
   33MOL0     O 4447   8.710   9.907   2.153 -0.0113 -0.3173 -0.3011
   33MOL0     C 4448   8.682   9.778   2.138  0.5060  0.9130 -0.6291
   33MOL0     C 4449   8.705   9.683   2.238 -0.2224 -0.1829  0.4388
   33MOL0     C 4450   8.684   9.548   2.211  0.1119  0.2107 -0.5949
   33MOL0     C 4451   8.654   9.505   2.087 -0.3119 -0.1668  0.0725
   33MOL0     O 4452   8.632   9.375   2.056 -0.4176 -0.2286  0.2167
   33MOL0     C 4453   8.494   9.343   2.050 -0.6844 -0.1037  0.1516
   33MOL0     C 4454   8.478   9.197   2.022 -0.3391 -0.0067 -0.0532
   33MOL0     C 4455   8.571   9.105   2.108  0.0759  0.5005 -0.1303
   33MOL0     C 4456   8.560   8.954   2.080 -0.3739  0.2929  0.0319
   33MOL0     C 4457   8.637   8.865   2.177 -0.8114  0.2688 -0.0375
   33MOL0     C 4458   8.575   8.724   2.185  0.8623  0.2961  0.2273
   33MOL0     C 4459   8.576   8.661   2.046 -0.8213 -0.2595  0.1296
   33MOL0     C 4460   8.710   8.606   2.001 -0.3988 -0.6384 -0.6458
   33MOL0    Cl 4461   8.681   8.500   1.858  0.2573 -0.2055  0.3043
   33MOL0     C 4462   8.638   9.600   1.991 -0.7372  0.6058  0.9201
   33MOL0     C 4463   8.646   9.733   2.014 -0.1531 -0.1883  0.2251
   33MOL0     O 4464   8.487   9.955   2.162  0.3168  0.2467  0.2772
   33MOL0     C 4465   8.776  10.168   2.177 -0.8880  0.8427 -0.0723
   33MOL0     C 4466   8.822  10.294   2.205 -0.1720  0.3857  0.2241
   33MOL0     N 4467   8.499  11.124   2.190 -0.1035  0.3250 -1.0786
   33MOL0     N 4468   8.405  11.203   2.161  0.5700  0.3378 -0.4759
   33MOL0     C 4469   7.420  10.743   2.370 -0.2345  0.2186  0.5496
   33MOL0     C 4470   7.286  10.734   2.400  0.0055 -0.1277  0.0901
   33MOL0     C 4471   6.889  10.654   2.536  1.0479 -0.4136 -0.1502
   33MOL0     C 4472   6.868  10.657   2.679 -0.2673 -0.0280 -0.0341
   33MOL0     C 4473   6.759  10.597   2.746 -0.1027 -0.1978 -0.4047
   33MOL0     C 4474   6.658  10.539   2.665  0.2703  1.0322 -0.3267
   33MOL0     O 4475   6.540  10.476   2.709 -0.4860 -0.2127 -0.7212
   33MOL0     C 4476   6.496  10.476   2.848  0.8705  0.4484 -0.1403
   33MOL0     C 4477   6.409  10.359   2.880 -0.2220  0.3686  0.5017
   33MOL0     C 4478   6.313  10.388   2.990  0.5245 -0.8265  0.4314
   33MOL0     C 4479   6.216  10.274   3.004 -0.4355 -0.2475 -0.0159
   33MOL0     C 4480   6.116  10.258   2.894  0.1364 -0.5140 -0.5197
   33MOL0     C 4481   6.044  10.228   2.806 -0.2963  0.5382  0.8486
   33MOL0     C 4482   6.688  10.515   2.530  1.1963  0.2267 -0.7467
   33MOL0     C 4483   6.796  10.569   2.467 -0.0935 -0.6166 -0.3362
   33MOL0     C 4484   6.807  10.546   2.314  0.0529  0.2768  0.4645
   33MOL0     H 4485   7.297  10.844   2.723  2.7868  3.5312  0.8452
   33MOL0     H 4486   7.545  10.861   2.662  0.6666 -2.1811  0.6891
   33MOL0     H 4487   7.736  10.868   2.603  1.5929 -1.6566  0.3295
   33MOL0     H 4488   7.697  10.967   2.464 -2.2936 -1.2305  0.1193
   33MOL0     H 4489   7.948  10.874   2.512 -1.4359  0.7067  0.5518
   33MOL0     H 4490   7.886  10.718   2.464  1.5623 -0.3940 -3.0797
   33MOL0     H 4491   8.008  10.842   2.286  0.6326 -0.1527  1.3256
   33MOL0     H 4492   7.849  10.779   2.238  1.8754 -1.2858  0.1797
   33MOL0     H 4493   7.871  10.985   2.132  2.9627 -0.9769  0.3239
   33MOL0     H 4494   7.747  10.992   2.254 -0.2246 -2.4951  0.7519
   33MOL0     H 4495   7.950  11.112   2.393  3.0216 -0.4376 -0.6794
   33MOL0     H 4496   7.867  11.202   2.267 -0.4184 -1.1864 -1.4120
   33MOL0     H 4497   8.116  11.235   2.267 -1.9769  0.6564 -1.1831
   33MOL0     H 4498   8.138  11.063   2.262  2.8221  1.7242  0.6645
   33MOL0     H 4499   7.984  11.197   2.030  0.2975 -0.1400 -0.6316
   33MOL0     H 4500   8.064  11.042   2.034 -0.6848  0.1736  0.9038
   33MOL0     H 4501   8.187  11.211   1.913 -0.7364  2.1472  0.2957
   33MOL0     H 4502   8.188  11.316   2.042 -2.1086  0.6354 -4.4598
   33MOL0     H 4503   8.325  10.946   1.976  0.3066 -0.4100 -0.5306
   33MOL0     H 4504   8.588  10.873   2.000 -0.0099 -0.6976 -0.1295
   33MOL0     H 4505   8.515  10.796   2.127 -1.1502  0.4816 -0.8864
   33MOL0     H 4506   8.742  10.974   2.172 -2.9157 -0.3946 -2.6345
   33MOL0     H 4507   8.653  10.899   2.302 -0.1805 -0.6123  0.2485
   33MOL0     H 4508   8.805  10.724   2.109 -1.9162  0.0197 -0.1905
   33MOL0     H 4509   8.854  10.771   2.262 -0.2894  0.1062  1.1876
   33MOL0     H 4510   8.631  10.622   2.335 -1.5776  1.1773 -1.0987
   33MOL0     H 4511   8.609  10.600   2.159  0.6003 -2.9198  0.1700
   33MOL0     H 4512   8.544  10.426   2.335  1.2006  1.2237  0.6966
   33MOL0     H 4513   8.416  10.120   2.376 -0.0202  1.1810  1.1128
   33MOL0     H 4514   8.357  10.153   2.216 -1.4076  1.3274 -0.3874
   33MOL0     H 4515   8.371  10.289   2.327  2.4949  0.5395  3.8931
   33MOL0     H 4516   8.750   9.725   2.327 -1.5209  4.0464 -0.6702
   33MOL0     H 4517   8.692   9.477   2.292  0.1612  0.6680 -0.1943
   33MOL0     H 4518   8.439   9.362   2.142 -1.5132  1.3859 -0.6098
   33MOL0     H 4519   8.440   9.389   1.967  2.9053  0.4841 -2.0966
   33MOL0     H 4520   8.375   9.160   2.032  0.4676 -2.7874 -1.0947
   33MOL0     H 4521   8.509   9.177   1.919 -4.5535 -0.6620 -1.3990
   33MOL0     H 4522   8.558   9.125   2.215  2.6394 -1.8403  0.7177
   33MOL0     H 4523   8.678   9.126   2.099  0.0714  0.4556 -0.2736
   33MOL0     H 4524   8.598   8.928   1.980  1.8439 -2.9115  1.4949
   33MOL0     H 4525   8.452   8.937   2.084 -0.2969 -0.1592  0.2654
   33MOL0     H 4526   8.742   8.862   2.148 -0.4288  1.5112  1.0955
   33MOL0     H 4527   8.626   8.909   2.277  1.6046  0.3080  0.2754
   33MOL0     H 4528   8.472   8.731   2.221  0.7733  1.3209 -0.1839
   33MOL0     H 4529   8.635   8.668   2.257 -1.9774 -0.9504  1.8012
   33MOL0     H 4530   8.548   8.734   1.969 -0.8815 -0.1760  0.2296
   33MOL0     H 4531   8.500   8.582   2.043 -1.1977  0.0297  1.2308
   33MOL0     H 4532   8.766   8.550   2.078  3.6017  2.1183 -1.2620
   33MOL0     H 4533   8.782   8.683   1.976 -1.2769  1.1487  1.9100
   33MOL0     H 4534   8.606   9.558   1.897 -2.0831  1.0668  1.1479
   33MOL0     H 4535   8.631   9.802   1.932 -0.5868 -1.6035 -0.9423
   33MOL0     H 4536   8.848  10.096   2.141 -1.3723  0.4019 -0.1711
   33MOL0     H 4537   8.921  10.334   2.185 -0.3222  1.9006  2.1338
   33MOL0     H 4538   7.450  10.704   2.273  1.6168 -0.8465  1.5044
   33MOL0     H 4539   7.228  10.684   2.323  4.1050 -0.8433 -2.8998
   33MOL0     H 4540   6.938  10.715   2.739  0.0996 -1.1848  0.6878
   33MOL0     H 4541   6.740  10.607   2.852  2.1307 -1.3068  0.1701
   33MOL0     H 4542   6.583  10.456   2.910 -0.2201  0.6359  1.4986
   33MOL0     H 4543   6.457  10.578   2.862  0.7659  0.5661 -1.1417
   33MOL0     H 4544   6.481  10.281   2.908  1.5969  1.6311 -0.4596
   33MOL0     H 4545   6.355  10.319   2.793  1.0947  0.1620 -0.2486
   33MOL0     H 4546   6.363  10.403   3.086 -3.3136 -2.0519  2.8481
   33MOL0     H 4547   6.256  10.479   2.970  1.3429 -0.4055 -0.0612
   33MOL0     H 4548   6.159  10.301   3.094  2.6052  3.3890  1.0654
   33MOL0     H 4549   6.274  10.181   3.005 -0.8558 -0.5618 -1.5264
   33MOL0     H 4550   5.963  10.198   2.743 -0.8402  0.7299  1.4426
   33MOL0     H 4551   6.625  10.444   2.477  2.7987 -0.7746 -1.3846
   33MOL0     H 4552   6.908  10.508   2.294  0.2344  1.3509 -0.8062
   33MOL0     H 4553   6.733  10.480   2.268 -0.6882  1.6640 -0.3894
   33MOL0     H 4554   6.789  10.638   2.258  0.5433  0.4885  0.6454
   34MOL0     O 4555   2.554   3.351   6.700 -0.1752  0.5713 -0.1480
   34MOL0     C 4556   2.465   3.430   6.668 -0.6598  0.3430  0.3791
   34MOL0     O 4557   2.462   3.564   6.689  0.7159  0.2860  1.1220
   34MOL0     C 4558   2.574   3.641   6.676 -0.2390 -0.3381 -0.6957
   34MOL0     C 4559   2.572   3.771   6.738  0.2665 -0.2091  0.4202
   34MOL0     C 4560   2.686   3.838   6.747  0.5534 -1.4087  0.1354
   34MOL0     C 4561   2.813   3.792   6.702  1.0319 -0.8100 -0.1789
   34MOL0     O 4562   2.928   3.859   6.720  0.0895  0.3766 -0.2052
   34MOL0     C 4563   2.957   3.901   6.850 -0.4513  0.4329 -0.4028
   34MOL0     C 4564   3.071   3.996   6.835 -0.7634 -0.9344  0.1364
   34MOL0     C 4565   3.180   3.937   6.753 -0.5595 -0.1632 -0.3488
   34MOL0     C 4566   3.304   4.029   6.766 -0.1405  0.2412 -0.7584
   34MOL0     C 4567   3.441   3.978   6.717 -0.5514  0.7991  0.8071
   34MOL0     C 4568   3.455   3.983   6.566 -0.0131 -0.2344 -0.7549
   34MOL0     C 4569   3.587   4.036   6.511  0.6885  0.1903  0.1453
   34MOL0     C 4570   3.697   3.932   6.528  0.2827 -1.0310  0.4477
   34MOL0     N 4571   3.820   3.976   6.458 -0.9833 -0.3104  0.2625
   34MOL0     C 4572   3.826   4.047   6.341  0.1068 -0.4786 -0.2597
   34MOL0     C 4573   3.955   4.077   6.330  0.1050  0.2114  0.1768
   34MOL0     C 4574   4.023   4.140   6.221  0.6973 -0.9062  0.4874
   34MOL0     C 4575   4.015   4.290   6.248 -0.1688  0.0772  0.6745
   34MOL0     C 4576   4.102   4.373   6.157  0.0660 -0.6121  0.8390
   34MOL0     C 4577   4.260   4.336   6.144 -0.6818  0.2218 -0.1141
   34MOL0     O 4578   4.297   4.325   6.279 -0.5104  0.0881 -0.6676
   34MOL0     C 4579   4.432   4.318   6.306 -0.1976  1.0468  1.0561
   34MOL0     C 4580   4.536   4.380   6.239 -0.0497  1.0790  0.0742
   34MOL0     C 4581   4.674   4.358   6.262 -0.8170  0.2682 -0.3645
   34MOL0     C 4582   4.760   4.458   6.191  0.0516  0.5928 -0.4607
   34MOL0     C 4583   4.719   4.271   6.362  0.6421  0.0360  0.1228
   34MOL0     C 4584   4.859   4.238   6.395 -0.3295 -0.5514  0.0860
   34MOL0     O 4585   4.953   4.229   6.296  0.3898 -1.3259  0.4209
   34MOL0     C 4586   5.084   4.235   6.323 -0.5962 -0.9328  0.2193
   34MOL0     C 4587   5.161   4.115   6.325  0.9601 -0.2405  0.1435
   34MOL0     C 4588   5.304   4.120   6.336 -0.2706 -0.4704 -0.2022
   34MOL0     C 4589   5.377   4.236   6.341  0.6216  0.1791  0.1143
   34MOL0     O 4590   5.516   4.221   6.346 -0.5600 -0.0541 -0.2405
   34MOL0     C 4591   5.588   4.335   6.402  0.0126  1.1033 -0.0355
   34MOL0     C 4592   5.728   4.283   6.441  0.0456 -0.7598 -0.5819
   34MOL0     C 4593   5.796   4.392   6.526 -0.1690 -0.2080  0.7633
   34MOL0     C 4594   5.942   4.349   6.570 -0.2769  0.5094 -0.5866
   34MOL0     C 4595   5.990   4.425   6.698  0.3862 -0.2585  0.0447
   34MOL0     C 4596   6.112   4.363   6.773  0.1686 -0.0679  0.2005
   34MOL0     C 4597   6.163   4.460   6.880  0.4043  0.2919  0.6237
   34MOL0     C 4598   6.295   4.405   6.942 -0.1020  0.5502 -0.3428
   34MOL0    Cl 4599   6.440   4.391   6.825 -0.0537 -0.2560  0.3106
   34MOL0     C 4600   5.309   4.354   6.347 -0.4497 -0.1575 -0.1482
   34MOL0     C 4601   5.166   4.360   6.335  0.1825  0.3335  0.2587
   34MOL0     O 4602   4.881   4.213   6.514  0.2373 -0.3711 -0.0433
   34MOL0     C 4603   4.616   4.216   6.442  0.0571 -0.6493 -0.3178
   34MOL0     C 4604   4.481   4.245   6.416  0.9211  0.3108  0.1612
   34MOL0     N 4605   4.025   4.023   6.439  0.0303  0.9056  0.1046
   34MOL0     N 4606   3.947   3.958   6.507  0.1474 -0.3006  0.5304
   34MOL0     C 4607   2.812   3.670   6.639 -0.8061 -0.2625  0.0414
   34MOL0     C 4608   2.696   3.594   6.628  0.4953  0.7924 -0.0831
   34MOL0     C 4609   2.342   3.369   6.598 -0.2456 -0.2274  0.2391
   34MOL0     C 4610   2.223   3.430   6.618  0.4251 -0.1746  0.2968
   34MOL0     C 4611   2.109   3.371   6.581  1.1772  0.4216 -0.8197
   34MOL0     C 4612   2.109   3.252   6.502 -0.3219 -0.6491 -1.1845
   34MOL0     O 4613   1.999   3.197   6.449 -0.2964  0.3863  0.1733
   34MOL0     C 4614   1.899   3.154   6.542  0.0113  0.1239  0.3047
   34MOL0     C 4615   1.765   3.134   6.488  0.5117 -0.9030  0.0060
   34MOL0     C 4616   1.659   3.110   6.595 -0.4440  0.3494  0.7170
   34MOL0     C 4617   1.514   3.114   6.551  0.8744  0.1250 -0.4424
   34MOL0     C 4618   1.486   3.046   6.428  0.2857  0.1646  0.7759
   34MOL0     C 4619   1.464   3.007   6.309 -0.8378 -0.6546  0.9988
   34MOL0     C 4620   2.226   3.201   6.474  0.4663  0.7309  0.2039
   34MOL0     C 4621   2.344   3.252   6.521  0.3586  0.3565 -0.2823
   34MOL0     C 4622   2.470   3.178   6.479 -0.2681  0.8991  0.2232
   34MOL0     H 4623   2.476   3.804   6.778 -0.7958 -2.5872  0.0148
   34MOL0     H 4624   2.694   3.938   6.789 -3.4977 -0.4931 -0.7744
   34MOL0     H 4625   2.989   3.811   6.904 -2.1167 -0.6398 -1.1021
   34MOL0     H 4626   2.874   3.950   6.904  0.2935 -0.3984  1.6053
   34MOL0     H 4627   3.030   4.087   6.789  0.7244 -0.8131 -1.0185
   34MOL0     H 4628   3.110   4.014   6.935 -0.7324 -1.7200  0.2705
   34MOL0     H 4629   3.208   3.841   6.798  2.5887  0.9839  0.3884
   34MOL0     H 4630   3.157   3.926   6.646 -0.8992 -2.0270 -0.1177
   34MOL0     H 4631   3.288   4.124   6.715  0.2389  0.2937 -0.7810
   34MOL0     H 4632   3.326   4.048   6.872 -0.6690 -3.2779  0.0920
   34MOL0     H 4633   3.462   3.875   6.747 -0.1159 -0.0826 -2.1598
   34MOL0     H 4634   3.519   4.041   6.760 -1.1662  1.9893  0.2222
   34MOL0     H 4635   3.428   3.884   6.528 -5.9106  0.3182  1.0549
   34MOL0     H 4636   3.378   4.045   6.518 -1.7198 -2.9908 -1.8295
   34MOL0     H 4637   3.615   4.135   6.547  1.4870  1.8347 -4.2798
   34MOL0     H 4638   3.578   4.060   6.404  0.6656 -1.5174 -0.2709
   34MOL0     H 4639   3.722   3.924   6.634  0.4920 -2.2622  0.3147
   34MOL0     H 4640   3.664   3.839   6.481 -1.6509 -0.4956  0.6820
   34MOL0     H 4641   3.744   4.070   6.273  0.1441 -0.5781 -0.3385
   34MOL0     H 4642   3.983   4.107   6.125  1.2830  0.9048 -0.4383
   34MOL0     H 4643   4.126   4.103   6.212  0.6131 -0.8156 -1.2889
   34MOL0     H 4644   3.911   4.320   6.230  0.0077  0.2437 -0.0853
   34MOL0     H 4645   4.043   4.311   6.352 -2.0934 -1.5221  1.5886
   34MOL0     H 4646   4.058   4.392   6.059  0.4253 -0.5726  0.6836
   34MOL0     H 4647   4.091   4.471   6.204 -0.6206 -1.4230  2.4665
   34MOL0     H 4648   4.274   4.239   6.096 -0.6632 -0.4677  1.2355
   34MOL0     H 4649   4.319   4.424   6.115 -0.9192  0.5762  0.4407
   34MOL0     H 4650   4.506   4.465   6.178  0.6531 -0.0898 -2.0225
   34MOL0     H 4651   4.820   4.418   6.109 -1.2703 -0.2851 -1.0453
   34MOL0     H 4652   4.838   4.497   6.257 -0.2814 -0.8500  0.8578
   34MOL0     H 4653   4.696   4.541   6.159  0.1998  1.7373  1.9535
   34MOL0     H 4654   5.108   4.022   6.311 -0.5960  0.8516 -1.5013
   34MOL0     H 4655   5.360   4.028   6.334  0.5618  0.0285 -1.9537
   34MOL0     H 4656   5.592   4.419   6.331 -0.7438  2.5552  1.5635
   34MOL0     H 4657   5.546   4.367   6.497  1.9707  0.0430  1.2450
   34MOL0     H 4658   5.723   4.194   6.504  0.1377  0.4251  1.1554
   34MOL0     H 4659   5.785   4.252   6.352 -0.9762 -3.7710 -0.3172
   34MOL0     H 4660   5.728   4.404   6.611 -0.4659 -0.8751  0.6261
   34MOL0     H 4661   5.802   4.488   6.475  1.5651 -1.1798 -0.9697
   34MOL0     H 4662   6.016   4.368   6.492 -0.2674 -1.5891 -1.1312
   34MOL0     H 4663   5.938   4.242   6.589  0.0493  0.6419  0.2974
   34MOL0     H 4664   6.011   4.529   6.670  0.1350  0.0999  1.1536
   34MOL0     H 4665   5.913   4.424   6.775  1.5702  0.3611  1.2780
   34MOL0     H 4666   6.186   4.332   6.699  1.6753  0.4975  1.4232
   34MOL0     H 4667   6.081   4.275   6.830  2.6347  0.3429  2.3679
   34MOL0     H 4668   6.090   4.452   6.961 -0.7089  1.5730 -0.2177
   34MOL0     H 4669   6.175   4.561   6.840 -1.2476  0.0008 -0.7041
   34MOL0     H 4670   6.274   4.310   6.993  2.8978  1.0325  2.0474
   34MOL0     H 4671   6.334   4.464   7.026  1.6984 -1.6154  0.4498
   34MOL0     H 4672   5.360   4.450   6.343 -0.8322  0.0742  0.2657
   34MOL0     H 4673   5.109   4.453   6.336  1.1335  0.9822 -1.3393
   34MOL0     H 4674   4.637   4.154   6.528  2.0444  0.7097  0.2444
   34MOL0     H 4675   4.405   4.204   6.482 -0.2614 -0.0564 -1.3710
   34MOL0     H 4676   2.907   3.639   6.598 -0.1213  0.1170  1.2797
   34MOL0     H 4677   2.703   3.495   6.584  3.8124  0.0004  1.9023
   34MOL0     H 4678   2.218   3.524   6.671  1.1185  1.0838 -1.7226
   34MOL0     H 4679   2.012   3.418   6.597  0.1469 -1.4506 -1.2125
   34MOL0     H 4680   1.934   3.070   6.604 -2.1484  0.0076  1.4701
   34MOL0     H 4681   1.881   3.236   6.613  1.1165  0.1836  0.5341
   34MOL0     H 4682   1.776   3.050   6.419  0.4204 -0.6975 -0.2595
   34MOL0     H 4683   1.737   3.224   6.432 -0.4327 -2.4966 -2.2141
   34MOL0     H 4684   1.688   3.014   6.638  1.8433 -0.0389 -1.4913
   34MOL0     H 4685   1.684   3.191   6.665  0.4653  0.9386 -0.2544
   34MOL0     H 4686   1.481   3.218   6.545 -1.5225 -0.6319 -1.9292
   34MOL0     H 4687   1.450   3.077   6.631 -0.4232  2.2243 -0.4209
   34MOL0     H 4688   1.437   2.966   6.213 -3.3783  0.7603  1.0066
   34MOL0     H 4689   2.241   3.121   6.402 -3.0951 -0.2141  0.2925
   34MOL0     H 4690   2.460   3.141   6.376  2.1858  1.4479 -0.2904
   34MOL0     H 4691   2.562   3.238   6.474 -0.0029  0.3999 -2.5631
   34MOL0     H 4692   2.483   3.096   6.549  0.1353 -0.4405 -1.3566
   35MOL0     O 4693  11.300   4.221   4.802 -1.0686 -0.5085 -1.4230
   35MOL0     C 4694  11.356   4.317   4.745  0.1885  0.2461 -0.5690
   35MOL0     O 4695  11.322   4.364   4.624  0.9957  0.2995 -0.4459
   35MOL0     C 4696  11.188   4.354   4.574  0.1007  0.0825  0.2343
   35MOL0     C 4697  11.144   4.254   4.487  0.0891 -0.0974 -0.8774
   35MOL0     C 4698  11.018   4.253   4.430  0.0127 -0.8211 -0.3708
   35MOL0     C 4699  10.926   4.349   4.467  0.2426  0.5585 -0.0964
   35MOL0     O 4700  10.805   4.355   4.405  0.3612 -0.1490 -0.2235
   35MOL0     C 4701  10.715   4.455   4.432 -0.2526  0.1254  0.0302
   35MOL0     C 4702  10.593   4.452   4.336 -0.6790 -0.3499  0.3322
   35MOL0     C 4703  10.470   4.512   4.403  0.9094 -0.0921 -0.2020
   35MOL0     C 4704  10.349   4.504   4.310  0.3227  0.3402 -0.4645
   35MOL0     C 4705  10.343   4.611   4.192 -0.4912 -0.0763 -0.3299
   35MOL0     C 4706  10.313   4.749   4.252 -0.4401  0.3884 -0.1800
   35MOL0     C 4707  10.267   4.848   4.149  0.6215 -0.5816 -0.3891
   35MOL0     C 4708  10.245   4.991   4.215 -0.3182 -0.3737  0.6748
   35MOL0     N 4709  10.368   5.042   4.286 -0.1056  0.2486 -0.5255
   35MOL0     C 4710  10.399   5.045   4.424 -0.7708 -0.3387 -0.0617
   35MOL0     C 4711  10.527   5.094   4.433 -0.2305  0.0944  0.4028
   35MOL0     C 4712  10.595   5.113   4.564 -0.5787  0.1191  0.1000
   35MOL0     C 4713  10.573   4.981   4.653  1.0495 -0.8141 -0.1995
   35MOL0     C 4714  10.626   4.852   4.578 -0.4224  0.2163 -0.0976
   35MOL0     C 4715  10.779   4.838   4.555  1.2566  0.2495  0.0571
   35MOL0     O 4716  10.855   4.906   4.658  0.6472 -0.7809  0.2745
   35MOL0     C 4717  10.983   4.894   4.689  0.0121  0.3571 -0.0930
   35MOL0     C 4718  11.030   4.965   4.793 -0.7325  0.5422 -0.8514
   35MOL0     C 4719  11.167   4.975   4.823 -0.4666  0.0459 -0.0934
   35MOL0     C 4720  11.199   5.061   4.946  0.5952  0.1266 -0.5180
   35MOL0     C 4721  11.264   4.904   4.753  0.4290 -0.2090  0.0159
   35MOL0     C 4722  11.413   4.904   4.779 -0.5207  0.0124  0.0451
   35MOL0     O 4723  11.469   5.005   4.846  0.3407 -0.2667  1.1745
   35MOL0     C 4724  11.603   5.027   4.861  0.0900  0.6212 -0.5613
   35MOL0     C 4725  11.644   5.083   4.983  0.3506 -0.2862 -0.8879
   35MOL0     C 4726  11.772   5.115   5.002 -0.2512  0.4466 -0.5537
   35MOL0     C 4727  11.872   5.075   4.913  0.6123 -0.5764  0.5301
   35MOL0     O 4728  12.000   5.084   4.948 -0.1248 -0.0323  0.1348
   35MOL0     C 4729  12.095   5.097   4.838 -0.8788 -0.0770 -0.6046
   35MOL0     C 4730  12.221   5.172   4.872 -0.6463 -0.0269  0.2806
   35MOL0     C 4731  12.362   5.122   4.828 -0.7364  0.9981 -0.0668
   35MOL0     C 4732  12.406   4.997   4.915  0.1462 -0.5069  0.7109
   35MOL0     C 4733  12.551   4.960   4.911 -0.1116  0.6756  0.2607
   35MOL0     C 4734  12.585   4.854   4.812  0.1186  0.1259 -0.1420
   35MOL0     C 4735  12.737   4.820   4.795 -0.4114 -0.2117  0.6244
   35MOL0     C 4736  12.736   4.673   4.739  0.0888 -0.2634 -1.5059
   35MOL0    Cl 4737  12.667   4.694   4.579 -0.2652  0.0675 -0.3870
   35MOL0     C 4738  11.830   5.011   4.792 -0.5363  0.0336 -0.1219
   35MOL0     C 4739  11.697   4.994   4.762 -0.1390  0.5142 -0.1446
   35MOL0     O 4740  11.486   4.813   4.727  0.7695 -0.6060  0.2717
   35MOL0     C 4741  11.209   4.820   4.653 -0.6290  0.9042 -0.2257
   35MOL0     C 4742  11.074   4.817   4.619  0.4114 -1.2481 -0.3588
   35MOL0     N 4743  10.576   5.112   4.306  0.3786  0.4895  0.4537
   35MOL0     N 4744  10.483   5.071   4.223  0.2266  0.4321 -0.2332
   35MOL0     C 4745  10.964   4.442   4.568 -0.2053  0.3600 -0.4223
   35MOL0     C 4746  11.099   4.448   4.617 -0.3023  0.0436 -0.0666
   35MOL0     C 4747  11.484   4.371   4.806  0.2851  0.4531 -0.1263
   35MOL0     C 4748  11.550   4.478   4.745  0.2162 -0.3762 -1.0022
   35MOL0     C 4749  11.661   4.540   4.797  0.6599  0.0179 -0.1487
   35MOL0     C 4750  11.713   4.497   4.912  0.0380  0.0808  0.0157
   35MOL0     O 4751  11.830   4.542   4.961 -0.0849  0.4717  0.6716
   35MOL0     C 4752  11.917   4.605   4.861  0.5338 -1.0208 -0.3057
   35MOL0     C 4753  12.047   4.625   4.930 -0.5943 -0.6868  0.4969
   35MOL0     C 4754  12.108   4.493   4.980 -0.0420  0.2523 -0.5843
   35MOL0     C 4755  12.257   4.506   5.015 -0.1063  0.3878  0.7968
   35MOL0     C 4756  12.331   4.508   4.889  0.4022 -0.3845 -0.4710
   35MOL0     C 4757  12.394   4.491   4.788 -0.2155  0.1274 -0.4428
   35MOL0     C 4758  11.663   4.379   4.968 -0.3180  0.1887 -0.4512
   35MOL0     C 4759  11.547   4.312   4.915 -0.3563 -0.4297  0.0700
   35MOL0     C 4760  11.515   4.183   4.987  0.0314 -0.0228 -0.7797
   35MOL0     H 4761  11.203   4.164   4.477 -2.4036 -1.7634 -1.5827
   35MOL0     H 4762  10.983   4.175   4.362  0.7841 -0.5674 -1.0675
   35MOL0     H 4763  10.764   4.553   4.430 -2.1928  1.1357 -0.7903
   35MOL0     H 4764  10.677   4.425   4.530 -2.4477 -2.8920 -1.5890
   35MOL0     H 4765  10.619   4.511   4.247 -0.4072 -2.9813 -1.4496
   35MOL0     H 4766  10.566   4.353   4.298  0.0978 -0.5262  0.2197
   35MOL0     H 4767  10.443   4.451   4.489 -0.7865  2.0402  0.8783
   35MOL0     H 4768  10.487   4.611   4.447  0.1812 -1.6743  4.0681
   35MOL0     H 4769  10.345   4.406   4.263 -0.6321 -0.8447  1.9247
   35MOL0     H 4770  10.259   4.503   4.372  0.7908 -0.0768  0.2212
   35MOL0     H 4771  10.259   4.581   4.129 -1.6495  0.6641  0.8250
   35MOL0     H 4772  10.442   4.616   4.146 -1.2407 -2.1888 -2.3725
   35MOL0     H 4773  10.254   4.741   4.344  3.2160 -5.0545  2.2218
   35MOL0     H 4774  10.408   4.790   4.286  1.1991 -1.2995 -2.4670
   35MOL0     H 4775  10.177   4.808   4.102 -0.9009 -2.2136  3.5238
   35MOL0     H 4776  10.350   4.868   4.080  0.4460  2.1748  0.0673
   35MOL0     H 4777  10.221   5.069   4.142 -0.2249 -0.2459  0.7781
   35MOL0     H 4778  10.160   4.977   4.283  0.4136  0.8845  1.9202
   35MOL0     H 4779  10.337   5.023   4.510 -0.2744  1.9170  0.9451
   35MOL0     H 4780  10.557   5.199   4.621 -0.2150  0.7273 -0.5641
   35MOL0     H 4781  10.697   5.133   4.532  0.0641 -3.9052 -0.8857
   35MOL0     H 4782  10.628   4.989   4.748 -1.4711  4.0185  1.2137
   35MOL0     H 4783  10.467   4.965   4.676  1.0256 -1.5077 -0.7650
   35MOL0     H 4784  10.601   4.770   4.647  0.4441  0.3223  0.3510
   35MOL0     H 4785  10.589   4.831   4.478  3.7448  0.3205 -1.8418
   35MOL0     H 4786  10.811   4.733   4.560  1.9950  0.4944  0.6724
   35MOL0     H 4787  10.803   4.890   4.462  0.8807  0.6302  0.1707
   35MOL0     H 4788  10.965   5.035   4.843  0.5804  1.0214  0.2368
   35MOL0     H 4789  11.253   5.154   4.924  1.5493 -0.2771  0.0779
   35MOL0     H 4790  11.258   5.003   5.018 -1.9893 -0.5234  1.2136
   35MOL0     H 4791  11.105   5.088   4.994  2.4468  0.1419  3.4457
   35MOL0     H 4792  11.564   5.113   5.050  1.6298  3.1067 -0.6905
   35MOL0     H 4793  11.807   5.164   5.093  1.0368  1.1978 -1.4220
   35MOL0     H 4794  12.131   5.000   4.804 -0.7093 -0.8853  1.7076
   35MOL0     H 4795  12.062   5.157   4.752  1.4147  2.2804  0.0112
   35MOL0     H 4796  12.202   5.270   4.827 -1.0353 -1.2660 -2.4944
   35MOL0     H 4797  12.230   5.177   4.980  0.8000  0.6408  0.1483
   35MOL0     H 4798  12.439   5.199   4.821  1.4096 -1.0176  0.1085
   35MOL0     H 4799  12.352   5.088   4.725  3.4685 -2.2990  0.3694
   35MOL0     H 4800  12.354   4.905   4.888 -0.1614 -0.0647 -0.2537
   35MOL0     H 4801  12.392   5.031   5.018 -3.4545 -0.0490  0.2102
   35MOL0     H 4802  12.610   5.051   4.891  0.8784 -0.0707 -0.3357
   35MOL0     H 4803  12.595   4.930   5.006  0.6648 -1.1036 -0.6195
   35MOL0     H 4804  12.545   4.888   4.715  1.1419 -1.8017 -1.2997
   35MOL0     H 4805  12.535   4.759   4.831  0.4528 -0.7364 -3.0732
   35MOL0     H 4806  12.794   4.842   4.886  1.0523  0.6098 -0.4457
   35MOL0     H 4807  12.783   4.887   4.722  0.1650 -0.3862  0.8247
   35MOL0     H 4808  12.676   4.612   4.807 -0.5880  2.5175  0.5740
   35MOL0     H 4809  12.837   4.632   4.731  0.2940 -0.0806 -0.0173
   35MOL0     H 4810  11.897   4.974   4.715  1.6738  0.5342  1.4944
   35MOL0     H 4811  11.679   4.950   4.664  0.4388  1.8571 -0.8864
   35MOL0     H 4812  11.278   4.756   4.598  0.1103  1.1369  0.4227
   35MOL0     H 4813  11.042   4.740   4.550 -2.5537 -0.2271 -0.2350
   35MOL0     H 4814  10.895   4.512   4.613 -1.0902 -1.0308  0.4569
   35MOL0     H 4815  11.133   4.516   4.694  3.2430 -0.7252 -0.7823
   35MOL0     H 4816  11.508   4.528   4.659  2.0587  2.4629 -0.3894
   35MOL0     H 4817  11.696   4.625   4.739 -2.7619  1.4095 -0.4286
   35MOL0     H 4818  11.924   4.565   4.760 -1.7717  1.1264 -1.4486
   35MOL0     H 4819  11.876   4.704   4.837  0.8383 -0.8184  0.0029
   35MOL0     H 4820  12.041   4.699   5.010  1.9343  0.5099 -0.2994
   35MOL0     H 4821  12.120   4.649   4.852  0.7968 -2.4147  1.2054
   35MOL0     H 4822  12.047   4.488   5.071 -0.7804  2.8371 -0.8816
   35MOL0     H 4823  12.096   4.403   4.919  3.2519 -1.0965  0.5223
   35MOL0     H 4824  12.281   4.415   5.070  0.3795 -0.5344 -0.8696
   35MOL0     H 4825  12.274   4.592   5.080  3.0851 -0.7612  1.6593
   35MOL0     H 4826  12.454   4.484   4.699 -0.4433  0.1611 -0.6010
   35MOL0     H 4827  11.705   4.336   5.059  0.7352  2.1920  0.0754
   35MOL0     H 4828  11.414   4.199   5.024 -0.0712 -2.9607  0.5183
   35MOL0     H 4829  11.526   4.101   4.915 -3.9317 -0.2135 -1.3534
   35MOL0     H 4830  11.570   4.158   5.078 -0.6146  1.2416 -0.0141
   36MOL0     O 4831  10.609   4.728   3.679  0.7077  0.5352  0.9637
   36MOL0     C 4832  10.607   4.823   3.756  1.4549 -0.0451 -0.7079
   36MOL0     O 4833  10.713   4.869   3.815  0.2550 -0.3256 -0.3402
   36MOL0     C 4834  10.835   4.815   3.789  1.0258  0.1530 -1.3893
   36MOL0     C 4835  10.888   4.723   3.885 -0.1297 -0.0337 -0.5341
   36MOL0     C 4836  11.008   4.651   3.856 -0.5347 -0.1163  0.3741
   36MOL0     C 4837  11.078   4.686   3.735  0.6730  0.3723 -0.9645
   36MOL0     O 4838  11.189   4.625   3.692  0.5217  0.6032  0.1611
   36MOL0     C 4839  11.305   4.644   3.776  0.3240 -0.5112 -0.7957
   36MOL0     C 4840  11.430   4.589   3.708 -0.1845 -0.5095 -0.4514
   36MOL0     C 4841  11.557   4.618   3.782 -0.4361  0.2499  0.4120
   36MOL0     C 4842  11.681   4.571   3.712 -0.8396  1.1551  0.0281
   36MOL0     C 4843  11.810   4.626   3.769  1.0644 -0.2384 -0.3970
   36MOL0     C 4844  11.930   4.539   3.732  0.1053  0.6187  0.3793
   36MOL0     C 4845  12.039   4.575   3.830  0.1207  0.1204 -0.1006
   36MOL0     C 4846  12.175   4.494   3.803  0.1787  0.0018 -0.2394
   36MOL0     N 4847  12.180   4.364   3.873 -0.2120 -0.0606 -0.2548
   36MOL0     C 4848  12.102   4.257   3.842  0.0567 -0.5686 -0.4689
   36MOL0     C 4849  12.143   4.166   3.938  0.9209  0.7560 -0.1424
   36MOL0     C 4850  12.086   4.018   3.929  0.3584 -0.1623  0.0028
   36MOL0     C 4851  11.977   3.990   4.035  0.3509  0.0309  0.2377
   36MOL0     C 4852  12.035   3.984   4.177  0.2560 -0.1203  0.6650
   36MOL0     C 4853  12.121   3.858   4.210  0.3824 -0.7733  0.4884
   36MOL0     O 4854  12.158   3.865   4.347  0.0440 -0.1610  0.4356
   36MOL0     C 4855  12.255   3.948   4.406  0.1839 -0.0827  0.5864
   36MOL0     C 4856  12.338   4.020   4.317  0.0890  0.1711  0.3450
   36MOL0     C 4857  12.434   4.111   4.365 -0.3252 -0.3307 -0.7755
   36MOL0     C 4858  12.502   4.203   4.277 -0.8695  0.0590 -0.4901
   36MOL0     C 4859  12.462   4.114   4.507 -0.0657  0.2494  0.1921
   36MOL0     C 4860  12.572   4.192   4.572 -0.2371  1.0677  0.4837
   36MOL0     O 4861  12.649   4.277   4.494  0.9731 -0.4598  0.7947
   36MOL0     C 4862  12.765   4.322   4.532  0.2464  0.2220 -0.0516
   36MOL0     C 4863  12.851   4.255   4.627  0.3471 -0.1318  0.7630
   36MOL0     C 4864  12.968   4.314   4.657 -1.1760  0.5994 -0.3368
   36MOL0     C 4865  13.018   4.426   4.586  0.2939 -0.4069 -0.0919
   36MOL0     O 4866  13.135   4.492   4.634 -0.5910  0.5390  0.2845
   36MOL0     C 4867  13.246   4.415   4.683  0.0700 -0.7426  0.6907
   36MOL0     C 4868  13.358   4.409   4.579  0.5840 -0.1893 -0.2156
   36MOL0     C 4869  13.424   4.547   4.545 -0.0075 -0.3531 -0.3338
   36MOL0     C 4870  13.469   4.547   4.401 -0.2070 -0.5322  0.1416
   36MOL0     C 4871  13.525   4.689   4.383 -0.4480 -0.3162 -0.0685
   36MOL0     C 4872  13.603   4.729   4.256 -0.2809 -0.0330  0.5540
   36MOL0     C 4873  13.679   4.855   4.266 -0.3130 -0.6502 -0.0418
   36MOL0     C 4874  13.758   4.892   4.147  0.2875  0.3306  0.3288
   36MOL0    Cl 4875  13.815   5.061   4.142 -0.1673 -0.6699 -0.5919
   36MOL0     C 4876  12.934   4.489   4.491  0.2959  0.4357 -0.1023
   36MOL0     C 4877  12.810   4.441   4.468 -0.0632 -0.2970  0.7530
   36MOL0     O 4878  12.578   4.181   4.693 -0.2901  0.5620  0.0606
   36MOL0     C 4879  12.373   4.036   4.593 -0.4243 -0.9895  0.1840
   36MOL0     C 4880  12.265   3.960   4.541 -0.3134 -0.0323  0.2305
   36MOL0     N 4881  12.241   4.214   4.014  0.1019 -0.2987  0.3129
   36MOL0     N 4882  12.262   4.328   3.968 -0.2016 -0.4467  0.2533
   36MOL0     C 4883  11.025   4.786   3.652  1.1296 -0.8367  0.6294
   36MOL0     C 4884  10.898   4.846   3.678 -1.0052  0.1936  0.6465
   36MOL0     C 4885  10.471   4.887   3.787  0.6270  0.0932 -0.0306
   36MOL0     C 4886  10.351   4.824   3.749  0.0334 -0.5964  0.6051
   36MOL0     C 4887  10.225   4.884   3.759 -0.0624  0.3588  0.0588
   36MOL0     C 4888  10.217   5.008   3.830 -0.2801  0.6002  0.3849
   36MOL0     O 4889  10.094   5.064   3.876  0.6809  0.1690 -0.0861
   36MOL0     C 4890   9.979   5.050   3.791  0.7884 -0.2580 -0.1931
   36MOL0     C 4891   9.885   4.945   3.829  0.1549  1.4145 -0.4832
   36MOL0     C 4892   9.829   4.970   3.970  0.0373 -0.3792  0.5934
   36MOL0     C 4893   9.743   4.846   4.013  1.1353  0.2679  0.5591
   36MOL0     C 4894   9.652   4.880   4.124  0.4770  0.0730 -0.4450
   36MOL0     C 4895   9.604   4.905   4.233 -0.8030  0.3909 -0.0090
   36MOL0     C 4896  10.339   5.067   3.872 -0.5646 -0.3966  0.6356
   36MOL0     C 4897  10.467   5.014   3.848 -0.0835  0.5335  0.1953
   36MOL0     C 4898  10.578   5.098   3.894 -1.0082 -0.6292  0.7915
   36MOL0     H 4899  10.833   4.714   3.978 -1.8205  1.4336 -1.3334
   36MOL0     H 4900  11.046   4.575   3.923  1.9504  0.7973  0.0904
   36MOL0     H 4901  11.300   4.572   3.859  2.8091 -1.1946 -1.1421
   36MOL0     H 4902  11.310   4.750   3.803  0.0312 -0.5465 -0.6005
   36MOL0     H 4903  11.425   4.485   3.673 -0.1713 -0.1508 -1.5664
   36MOL0     H 4904  11.447   4.635   3.610 -0.9526  0.6735 -0.0524
   36MOL0     H 4905  11.569   4.726   3.798 -1.3618  0.6602 -1.3622
   36MOL0     H 4906  11.557   4.585   3.886 -1.1513  5.0926  2.1991
   36MOL0     H 4907  11.679   4.461   3.711 -0.2473  1.1408 -0.9146
   36MOL0     H 4908  11.677   4.596   3.606  1.4739  2.9455  0.2969
   36MOL0     H 4909  11.805   4.620   3.878 -1.2212 -0.0486 -0.4423
   36MOL0     H 4910  11.823   4.731   3.742 -0.4425 -0.3462 -1.7174
   36MOL0     H 4911  11.911   4.431   3.740 -1.5332  0.4507 -3.4128
   36MOL0     H 4912  11.964   4.554   3.629  1.3887 -0.6954  0.5652
   36MOL0     H 4913  12.002   4.552   3.931  2.1850  0.0896  0.6980
   36MOL0     H 4914  12.053   4.684   3.829 -0.4253  0.3892  3.8140
   36MOL0     H 4915  12.176   4.478   3.695 -1.7295  3.6741 -0.9522
   36MOL0     H 4916  12.261   4.545   3.847 -1.4393  0.7205  2.3646
   36MOL0     H 4917  12.032   4.250   3.759  0.5672  0.2599 -0.9785
   36MOL0     H 4918  12.168   3.947   3.944 -0.7172 -1.5012 -0.2525
   36MOL0     H 4919  12.046   3.996   3.830  0.1626 -0.5978  0.1748
   36MOL0     H 4920  11.906   4.073   4.026  1.6104  1.3841  2.0744
   36MOL0     H 4921  11.918   3.901   4.007 -1.2424  1.0318  0.2680
   36MOL0     H 4922  12.097   4.071   4.203  2.2125 -0.7130 -1.7064
   36MOL0     H 4923  11.949   3.983   4.245  1.7201 -1.9366  2.6088
   36MOL0     H 4924  12.071   3.763   4.188  1.2451 -1.0551 -0.3747
   36MOL0     H 4925  12.216   3.852   4.156  1.0589  1.1806  1.3889
   36MOL0     H 4926  12.315   4.028   4.211  1.4482  1.1577  0.0988
   36MOL0     H 4927  12.609   4.182   4.284 -0.6725  0.9748 -0.7201
   36MOL0     H 4928  12.489   4.307   4.308  5.2285  1.1514 -0.4080
   36MOL0     H 4929  12.477   4.197   4.171  1.0634 -4.4423 -0.9321
   36MOL0     H 4930  12.825   4.164   4.679  0.9659 -1.1034 -0.5640
   36MOL0     H 4931  13.024   4.265   4.737  0.2320  0.7874 -1.1638
   36MOL0     H 4932  13.283   4.452   4.780 -0.4598 -1.3121  1.1215
   36MOL0     H 4933  13.217   4.311   4.699  0.1895 -0.4088  3.7198
   36MOL0     H 4934  13.431   4.337   4.617 -0.6479 -0.4377  1.8378
   36MOL0     H 4935  13.308   4.366   4.492  1.8804  1.4413 -1.8743
   36MOL0     H 4936  13.514   4.568   4.604 -0.2933 -0.3568  0.1145
   36MOL0     H 4937  13.355   4.631   4.560 -1.7719 -1.6650 -0.8158
   36MOL0     H 4938  13.387   4.529   4.331 -0.2667 -1.0036  0.3306
   36MOL0     H 4939  13.542   4.466   4.403 -1.0539 -1.3055  0.4261
   36MOL0     H 4940  13.436   4.753   4.389 -0.5619 -0.1391 -2.5014
   36MOL0     H 4941  13.593   4.712   4.465  1.6955 -2.2173 -1.2214
   36MOL0     H 4942  13.529   4.733   4.176 -2.6173 -1.3430  2.5358
   36MOL0     H 4943  13.673   4.648   4.234 -2.1526 -0.8423 -3.3452
   36MOL0     H 4944  13.748   4.863   4.350 -1.1825  1.5341  0.5203
   36MOL0     H 4945  13.603   4.933   4.276 -0.0342 -0.5065  1.0747
   36MOL0     H 4946  13.705   4.874   4.053  1.4785  0.1321 -0.3278
   36MOL0     H 4947  13.844   4.824   4.146  1.0119  1.2059  0.7040
   36MOL0     H 4948  12.961   4.576   4.433  2.2220 -0.2271 -0.2955
   36MOL0     H 4949  12.742   4.499   4.406  0.0956  1.3523  2.0370
   36MOL0     H 4950  12.387   4.024   4.700  2.7592  2.0902  0.3025
   36MOL0     H 4951  12.212   3.891   4.606 -1.7783  1.6941  0.9630
   36MOL0     H 4952  11.063   4.802   3.551 -2.5391  0.2104 -0.7426
   36MOL0     H 4953  10.844   4.905   3.604  1.3198  1.4750 -0.1122
   36MOL0     H 4954  10.345   4.730   3.695  1.8162 -0.1181 -0.5065
   36MOL0     H 4955  10.140   4.836   3.712 -0.5391  2.6337 -1.5437
   36MOL0     H 4956   9.933   5.150   3.789 -0.4814 -0.8283 -1.0908
   36MOL0     H 4957  10.006   5.042   3.685  1.3042 -1.5438  0.0193
   36MOL0     H 4958   9.930   4.845   3.825 -0.0972  1.0823  2.8238
   36MOL0     H 4959   9.800   4.948   3.760 -1.0135  0.7626  0.8894
   36MOL0     H 4960   9.907   4.987   4.045 -0.7496  0.3202  1.2716
   36MOL0     H 4961   9.758   5.053   3.963  1.3988  1.0921  2.7623
   36MOL0     H 4962   9.799   4.755   4.038 -2.4505 -2.1267  0.6056
   36MOL0     H 4963   9.682   4.825   3.925  0.0382  2.8196  0.6184
   36MOL0     H 4964   9.568   4.917   4.333  0.9337 -4.1817  1.4430
   36MOL0     H 4965  10.349   5.142   3.949  2.0887 -1.3604  1.3265
   36MOL0     H 4966  10.620   5.081   3.993 -0.4917  4.6550  1.8064
   36MOL0     H 4967  10.657   5.107   3.818  0.3815 -1.8851  2.0425
   36MOL0     H 4968  10.558   5.205   3.907  0.5746 -0.3183  0.8705
   37MOL0     O 4969   1.417   0.449   6.064  0.6567  0.3124 -0.7863
   37MOL0     C 4970   1.305   0.471   6.015  0.3080  0.0049  0.1267
   37MOL0     O 4971   1.292   0.496   5.881 -0.2486 -0.6721 -0.8058
   37MOL0     C 4972   1.412   0.500   5.807 -0.8852 -0.0635  0.2135
   37MOL0     C 4973   1.471   0.621   5.776 -0.4550 -0.2722  0.3724
   37MOL0     C 4974   1.587   0.624   5.696 -0.2113  0.3652  0.0466
   37MOL0     C 4975   1.664   0.508   5.669  0.0172 -0.5717  0.4974
   37MOL0     O 4976   1.780   0.509   5.603 -0.5167  0.4370 -1.1268
   37MOL0     C 4977   1.858   0.630   5.595  0.0271  0.8930  0.5790
   37MOL0     C 4978   1.975   0.589   5.508  1.0756 -0.0775 -0.5958
   37MOL0     C 4979   2.081   0.705   5.487 -0.0944  0.6256  0.3492
   37MOL0     C 4980   2.122   0.788   5.614 -0.3140  1.2429  1.1246
   37MOL0     C 4981   2.221   0.908   5.588  0.6086  0.3500 -0.1792
   37MOL0     C 4982   2.337   0.878   5.500 -0.1305 -0.6494 -0.4483
   37MOL0     C 4983   2.456   0.804   5.564 -0.9535  0.3443  0.0888
   37MOL0     C 4984   2.566   0.794   5.460 -0.4305  0.0105  0.6936
   37MOL0     N 4985   2.634   0.919   5.454  0.0011 -0.8204 -0.4554
   37MOL0     C 4986   2.741   0.960   5.528  0.0373 -0.1949  0.6262
   37MOL0     C 4987   2.772   1.084   5.483  0.2493  0.1969  0.1665
   37MOL0     C 4988   2.888   1.172   5.531  0.6938  0.4803 -0.1838
   37MOL0     C 4989   2.949   1.268   5.420  0.4159  0.2541 -0.3937
   37MOL0     C 4990   3.057   1.365   5.449 -0.3249 -0.0379 -0.7932
   37MOL0     C 4991   3.135   1.417   5.328 -0.0611 -0.4141  0.5720
   37MOL0     O 4992   3.239   1.507   5.363 -0.1075 -0.6845 -0.0050
   37MOL0     C 4993   3.318   1.558   5.271  0.3406 -0.6520  0.0155
   37MOL0     C 4994   3.419   1.643   5.321 -0.1889 -0.0483  0.3877
   37MOL0     C 4995   3.516   1.699   5.242  0.2525 -0.0600 -0.5677
   37MOL0     C 4996   3.633   1.775   5.312 -0.4638 -0.1051  0.1986
   37MOL0     C 4997   3.506   1.673   5.103  0.5730  0.0031  0.0985
   37MOL0     C 4998   3.607   1.716   4.996  0.7739  0.3714  0.1523
   37MOL0     O 4999   3.583   1.659   4.874 -0.3580 -0.1107  0.4514
   37MOL0     C 5000   3.692   1.645   4.791 -0.7580 -0.4083 -0.5461
   37MOL0     C 5001   3.725   1.516   4.755 -0.3243  0.1504 -0.2443
   37MOL0     C 5002   3.828   1.493   4.665  1.6166  0.5640 -0.0910
   37MOL0     C 5003   3.898   1.603   4.611 -0.4337  0.5486 -0.0188
   37MOL0     O 5004   3.996   1.597   4.513 -0.0589 -0.1072  0.7746
   37MOL0     C 5005   4.054   1.472   4.482  0.2947 -0.5669  0.0206
   37MOL0     C 5006   4.187   1.489   4.404 -0.0136 -0.4642  0.4117
   37MOL0     C 5007   4.178   1.569   4.273  0.3273  0.8224 -0.2837
   37MOL0     C 5008   4.317   1.592   4.219 -0.3725  0.2293 -0.0669
   37MOL0     C 5009   4.327   1.670   4.078  0.1832 -0.5528  1.0686
   37MOL0     C 5010   4.475   1.719   4.054  0.5734  0.2643  0.4478
   37MOL0     C 5011   4.504   1.753   3.907  0.4504  0.4314  0.9897
   37MOL0     C 5012   4.640   1.813   3.860  0.1729  0.3570 -0.8711
   37MOL0    Cl 5013   4.668   1.978   3.930  0.0191 -0.0583  0.0962
   37MOL0     C 5014   3.865   1.731   4.654  0.1136 -0.5542  0.3352
   37MOL0     C 5015   3.758   1.755   4.736  0.0933 -0.5220 -0.4366
   37MOL0     O 5016   3.706   1.780   5.030  0.0032 -0.0463  0.6319
   37MOL0     C 5017   3.390   1.602   5.054 -0.4281 -0.2908 -0.4422
   37MOL0     C 5018   3.295   1.542   5.135  0.6041 -0.3831 -0.9589
   37MOL0     N 5019   2.687   1.117   5.378  0.3207 -0.4049 -0.4808
   37MOL0     N 5020   2.603   1.022   5.362 -0.0546  0.1512  0.8808
   37MOL0     C 5021   1.612   0.389   5.706  0.4167  0.2684 -1.0723
   37MOL0     C 5022   1.482   0.381   5.766  1.0627 -0.0781 -0.4733
   37MOL0     C 5023   1.189   0.472   6.106 -0.0068  0.3131 -0.0927
   37MOL0     C 5024   1.207   0.427   6.241 -0.3207  0.4022  0.3303
   37MOL0     C 5025   1.098   0.415   6.327 -0.2521  0.3023 -0.1169
   37MOL0     C 5026   0.971   0.449   6.288  0.1453 -0.0723 -0.3064
   37MOL0     O 5027   0.865   0.433   6.364  0.1254 -0.8224  0.0685
   37MOL0     C 5028   0.842   0.300   6.410 -0.5058 -0.5101  0.2845
   37MOL0     C 5029   0.746   0.304   6.518  0.0811 -0.4128  0.3876
   37MOL0     C 5030   0.798   0.375   6.648 -0.3783 -0.3466 -0.0225
   37MOL0     C 5031   0.696   0.402   6.756 -0.2045  0.0580 -0.4137
   37MOL0     C 5032   0.635   0.285   6.803  0.2509  0.4841 -0.4388
   37MOL0     C 5033   0.584   0.187   6.865  0.2762  0.6914 -0.1740
   37MOL0     C 5034   0.954   0.485   6.155  0.8338 -0.7346  0.2457
   37MOL0     C 5035   1.056   0.505   6.066  0.3222  0.1301  0.1805
   37MOL0     C 5036   1.016   0.550   5.932  0.0771  0.3001 -0.5319
   37MOL0     H 5037   1.406   0.707   5.789  1.3053  0.9470  1.6186
   37MOL0     H 5038   1.621   0.726   5.678 -1.3016  0.5184 -1.4244
   37MOL0     H 5039   1.879   0.660   5.698 -0.4585 -1.4259  1.4174
   37MOL0     H 5040   1.822   0.715   5.536  1.4609 -0.1080 -1.8667
   37MOL0     H 5041   2.023   0.514   5.571 -0.8848 -1.2604 -0.4285
   37MOL0     H 5042   1.940   0.544   5.415 -2.7092 -2.0847  1.5560
   37MOL0     H 5043   2.169   0.648   5.456 -2.8359 -4.9442  1.6287
   37MOL0     H 5044   2.053   0.772   5.405  0.5630  1.4389  0.7771
   37MOL0     H 5045   2.034   0.825   5.667 -0.6856  1.3852  0.4087
   37MOL0     H 5046   2.178   0.724   5.683  1.3803  1.5541  0.1142
   37MOL0     H 5047   2.246   0.947   5.687 -2.3653 -1.8756  1.6112
   37MOL0     H 5048   2.171   0.991   5.537 -1.9654 -0.9249  0.1395
   37MOL0     H 5049   2.317   0.830   5.404  1.8589  0.1510 -1.3269
   37MOL0     H 5050   2.370   0.978   5.470 -1.3527 -0.0810  0.0407
   37MOL0     H 5051   2.420   0.703   5.585 -0.4961  0.0720 -0.4344
   37MOL0     H 5052   2.487   0.852   5.657 -2.0717  0.6056  0.3404
   37MOL0     H 5053   2.628   0.716   5.504 -2.8455 -1.7028  1.2695
   37MOL0     H 5054   2.539   0.749   5.364  0.0914 -1.6558  1.2935
   37MOL0     H 5055   2.786   0.909   5.612 -2.2483 -1.4193  1.1877
   37MOL0     H 5056   2.975   1.122   5.574 -0.7416 -1.6366  0.4033
   37MOL0     H 5057   2.853   1.224   5.621  1.2826 -2.7935  2.0851
   37MOL0     H 5058   2.981   1.210   5.334  1.8567  3.7986 -2.4519
   37MOL0     H 5059   2.866   1.331   5.385  0.9550  2.3069  1.7143
   37MOL0     H 5060   3.022   1.445   5.515  1.1803  1.0093 -1.2177
   37MOL0     H 5061   3.136   1.324   5.512 -0.8515  1.5414  1.0052
   37MOL0     H 5062   3.187   1.337   5.274  3.0887  2.0795 -0.4106
   37MOL0     H 5063   3.059   1.465   5.266 -1.1952 -1.8947  0.7469
   37MOL0     H 5064   3.419   1.644   5.429 -2.8939 -1.4463  0.4824
   37MOL0     H 5065   3.631   1.880   5.283  1.1148 -0.2915 -0.7295
   37MOL0     H 5066   3.728   1.727   5.284  0.2616  0.9839  0.7225
   37MOL0     H 5067   3.625   1.762   5.420 -0.7974  2.4851  0.5454
   37MOL0     H 5068   3.670   1.431   4.794 -2.5056  2.4105  1.9485
   37MOL0     H 5069   3.846   1.393   4.629  1.0280  0.8735 -1.2895
   37MOL0     H 5070   4.078   1.418   4.574 -0.2419 -2.3500 -0.8317
   37MOL0     H 5071   3.978   1.417   4.425  0.0941  1.1617 -1.4686
   37MOL0     H 5072   4.258   1.544   4.466 -0.6682 -1.1845  1.8520
   37MOL0     H 5073   4.223   1.386   4.398  1.9070  0.1539  0.7491
   37MOL0     H 5074   4.133   1.667   4.288 -0.3127  0.3970  0.6014
   37MOL0     H 5075   4.126   1.504   4.202  2.6561 -1.5269 -0.0272
   37MOL0     H 5076   4.363   1.493   4.219 -1.4712 -0.3568  2.7755
   37MOL0     H 5077   4.371   1.639   4.301 -2.2782 -1.7382  2.4744
   37MOL0     H 5078   4.279   1.617   3.996 -0.4924  1.4095  0.1165
   37MOL0     H 5079   4.261   1.757   4.083 -0.6046 -1.1324  0.9033
   37MOL0     H 5080   4.546   1.644   4.091  1.1014  1.3834  1.8333
   37MOL0     H 5081   4.487   1.806   4.120 -0.0251  0.5914  0.1341
   37MOL0     H 5082   4.430   1.828   3.881  1.3436  1.1275  0.4165
   37MOL0     H 5083   4.482   1.665   3.846 -1.5268  0.9350  0.9175
   37MOL0     H 5084   4.630   1.816   3.751 -0.9601 -0.2512 -0.8016
   37MOL0     H 5085   4.720   1.748   3.897 -0.6997 -1.0468 -1.3204
   37MOL0     H 5086   3.929   1.811   4.618 -0.5853 -0.2074 -0.1621
   37MOL0     H 5087   3.725   1.854   4.765  0.5482 -0.5036  0.0472
   37MOL0     H 5088   3.374   1.575   4.950  0.3436 -3.1618  0.1132
   37MOL0     H 5089   3.222   1.471   5.099  2.5958 -2.9878 -0.2206
   37MOL0     H 5090   1.668   0.296   5.701  0.3902 -0.1285  2.7334
   37MOL0     H 5091   1.447   0.288   5.810 -0.3377  0.7492  0.2804
   37MOL0     H 5092   1.303   0.394   6.280 -0.1497  1.3193  0.7130
   37MOL0     H 5093   1.107   0.383   6.430 -1.6164 -0.6670 -0.2671
   37MOL0     H 5094   0.817   0.228   6.332 -0.2803 -1.5384  1.1341
   37MOL0     H 5095   0.933   0.255   6.452  0.2693  1.6415  1.0818
   37MOL0     H 5096   0.719   0.200   6.541 -3.6208  0.2340 -0.5290
   37MOL0     H 5097   0.655   0.348   6.478 -0.3037 -0.8999  0.7074
   37MOL0     H 5098   0.891   0.334   6.689 -0.3415 -0.6271 -0.3834
   37MOL0     H 5099   0.827   0.475   6.612 -1.6598 -0.0689 -0.3244
   37MOL0     H 5100   0.613   0.449   6.703 -2.3455 -0.8156  1.9549
   37MOL0     H 5101   0.726   0.470   6.836 -0.2930 -1.1276  0.6587
   37MOL0     H 5102   0.538   0.101   6.910  2.4218 -0.5527 -0.2576
   37MOL0     H 5103   0.855   0.498   6.114  0.6529 -4.5863 -0.8690
   37MOL0     H 5104   1.066   0.645   5.914 -0.6229  1.3017  2.2062
   37MOL0     H 5105   1.048   0.482   5.853 -1.5724 -2.4089  0.9460
   37MOL0     H 5106   0.908   0.566   5.921 -0.3604 -1.5336  0.6738
   38MOL0     O 5107   7.351   4.875   1.676  0.4265  0.4444  0.6396
   38MOL0     C 5108   7.325   4.908   1.792 -0.1529  0.5516 -0.9684
   38MOL0     O 5109   7.275   5.026   1.829 -0.2416 -0.5002  0.6216
   38MOL0     C 5110   7.201   5.106   1.733  0.1344  0.9974  0.8652
   38MOL0     C 5111   7.058   5.123   1.738 -0.2536  1.1629 -0.3005
   38MOL0     C 5112   6.984   5.211   1.660  0.4323  0.9382  0.3329
   38MOL0     C 5113   7.054   5.285   1.566  0.6070  0.3111  0.5203
   38MOL0     O 5114   6.976   5.359   1.479 -0.7754 -0.0112  0.0791
   38MOL0     C 5115   6.964   5.307   1.348 -0.9504  0.2920 -0.7757
   38MOL0     C 5116   6.933   5.413   1.249  0.0804 -1.3171  0.5974
   38MOL0     C 5117   7.059   5.499   1.227  0.1559 -0.1231  0.6096
   38MOL0     C 5118   7.046   5.578   1.096 -0.0666  0.1547 -0.4537
   38MOL0     C 5119   7.154   5.681   1.100  0.4885  0.2420  0.3960
   38MOL0     C 5120   7.274   5.630   1.020 -0.2766  0.2602  0.8584
   38MOL0     C 5121   7.381   5.732   1.026 -0.0543 -0.0339  0.1915
   38MOL0     C 5122   7.493   5.724   0.918 -0.1622 -0.5519 -0.4933
   38MOL0     N 5123   7.608   5.814   0.963  0.2074  0.3689  0.6461
   38MOL0     C 5124   7.614   5.957   1.002 -1.3842 -0.4061 -0.0706
   38MOL0     C 5125   7.749   5.980   0.992  0.4818 -1.0522  0.0185
   38MOL0     C 5126   7.812   6.116   1.024 -0.7863  0.7924  0.2365
   38MOL0     C 5127   7.962   6.112   1.078  0.0015  0.0462 -0.2961
   38MOL0     C 5128   8.070   6.082   0.964  0.3985 -0.3354  0.4933
   38MOL0     C 5129   8.215   6.091   1.004  0.0957  0.5662  0.1630
   38MOL0     O 5130   8.256   6.224   1.040  0.0816  0.1855  0.0872
   38MOL0     C 5131   8.383   6.236   1.086 -0.1167  0.5090 -0.2121
   38MOL0     C 5132   8.423   6.364   1.117 -0.7831 -0.2780 -0.2440
   38MOL0     C 5133   8.562   6.399   1.151 -0.3460  0.5306 -0.0222
   38MOL0     C 5134   8.592   6.548   1.161  0.5106 -0.5466  0.6841
   38MOL0     C 5135   8.650   6.296   1.179 -0.3701  0.1563  0.8542
   38MOL0     C 5136   8.796   6.313   1.215 -0.0621  0.1658 -0.3807
   38MOL0     O 5137   8.864   6.197   1.250  0.2897  0.3776 -0.4533
   38MOL0     C 5138   8.962   6.213   1.346 -0.0130 -0.0935 -0.4045
   38MOL0     C 5139   8.968   6.145   1.471 -0.1180 -0.0622 -0.4947
   38MOL0     C 5140   9.075   6.162   1.560  0.2292  0.4247  0.3476
   38MOL0     C 5141   9.192   6.232   1.520 -0.1620 -0.1424  0.7703
   38MOL0     O 5142   9.301   6.239   1.607  0.2756  0.6317  0.1428
   38MOL0     C 5143   9.400   6.340   1.600 -0.6512  0.9139 -0.2579
   38MOL0     C 5144   9.517   6.270   1.528 -0.1086 -0.7220  0.9999
   38MOL0     C 5145   9.593   6.164   1.610 -0.1742 -0.2397  0.2894
   38MOL0     C 5146   9.736   6.143   1.555  0.0769 -0.0712 -0.2038
   38MOL0     C 5147   9.782   5.993   1.573  0.3176 -0.1546 -0.3242
   38MOL0     C 5148   9.936   5.964   1.540 -0.1289 -0.3068  0.5860
   38MOL0     C 5149  10.038   6.077   1.530 -0.8532 -0.5794 -1.1183
   38MOL0     C 5150  10.174   6.024   1.480  0.3663  0.1257 -0.3485
   38MOL0    Cl 5151  10.238   5.907   1.599  0.1157 -0.0074 -0.1820
   38MOL0     C 5152   9.199   6.283   1.389 -0.8296  0.3239  0.0623
   38MOL0     C 5153   9.079   6.280   1.307  0.2504  0.2827  0.5283
   38MOL0     O 5154   8.849   6.424   1.198  0.7377  0.3734  0.1022
   38MOL0     C 5155   8.595   6.165   1.162 -0.0890 -0.3641 -0.7619
   38MOL0     C 5156   8.477   6.132   1.104 -0.1159 -0.3533 -0.4792
   38MOL0     N 5157   7.814   5.862   0.950  0.3700  0.4514 -0.3045
   38MOL0     N 5158   7.731   5.770   0.929  0.8513 -0.5532  0.6296
   38MOL0     C 5159   7.189   5.262   1.549  0.0286  0.0561  0.1267
   38MOL0     C 5160   7.262   5.180   1.631 -0.3357 -0.3238  0.9897
   38MOL0     C 5161   7.369   4.809   1.896  0.5526 -0.7575  0.0436
   38MOL0     C 5162   7.283   4.798   2.016 -0.7304 -0.0571  0.2554
   38MOL0     C 5163   7.310   4.696   2.106 -0.2577  0.6839  0.3173
   38MOL0     C 5164   7.417   4.607   2.091  0.5425  0.2864  0.2227
   38MOL0     O 5165   7.434   4.517   2.189  0.4132  0.1451 -0.0801
   38MOL0     C 5166   7.538   4.413   2.176  0.2261  0.3031 -0.3528
   38MOL0     C 5167   7.505   4.306   2.279 -0.8140  0.0159  0.0636
   38MOL0     C 5168   7.382   4.221   2.247  0.5520 -0.2430 -0.0434
   38MOL0     C 5169   7.388   4.116   2.134 -1.0155 -0.1658 -0.2629
   38MOL0     C 5170   7.383   4.165   1.994 -0.0700  0.3169 -0.1162
   38MOL0     C 5171   7.374   4.197   1.875 -0.2793 -0.0589  0.0889
   38MOL0     C 5172   7.501   4.620   1.979  0.6875  0.7257  0.4269
   38MOL0     C 5173   7.478   4.721   1.885 -0.5853  0.3331  0.4781
   38MOL0     C 5174   7.574   4.723   1.767  0.1459 -0.0147  0.5716
   38MOL0     H 5175   7.004   5.073   1.817 -1.4226  2.0979 -0.4701
   38MOL0     H 5176   6.878   5.214   1.683 -0.3210 -2.7348 -1.8782
   38MOL0     H 5177   6.882   5.234   1.342  0.5224 -1.3183 -3.0406
   38MOL0     H 5178   7.054   5.256   1.312 -2.3355  0.1499 -4.4104
   38MOL0     H 5179   6.885   5.362   1.165  1.2832  0.1931 -1.1036
   38MOL0     H 5180   6.859   5.482   1.290  0.8399 -0.3097  0.3327
   38MOL0     H 5181   7.067   5.566   1.312  0.8237 -0.0267  0.4730
   38MOL0     H 5182   7.156   5.449   1.223  1.2307  1.2750  4.8293
   38MOL0     H 5183   7.044   5.508   1.012 -0.0819 -0.5468  0.1184
   38MOL0     H 5184   6.957   5.639   1.112  0.5379  0.3837  2.6200
   38MOL0     H 5185   7.196   5.702   1.199  0.5098 -0.7746  0.6130
   38MOL0     H 5186   7.136   5.775   1.047  1.0499  0.3501  0.3892
   38MOL0     H 5187   7.313   5.536   1.059  2.1558  1.1812  0.8267
   38MOL0     H 5188   7.240   5.625   0.916 -0.5415  2.5393  0.7823
   38MOL0     H 5189   7.431   5.726   1.123 -2.0617 -0.5254  1.2496
   38MOL0     H 5190   7.338   5.833   1.023  3.3630  1.6351  1.8842
   38MOL0     H 5191   7.534   5.623   0.909 -0.3052 -0.5427 -1.3854
   38MOL0     H 5192   7.456   5.744   0.817 -1.1515  0.2771  0.0197
   38MOL0     H 5193   7.539   6.031   1.025  0.6547  1.5578  0.5445
   38MOL0     H 5194   7.756   6.167   1.103 -0.6419 -0.0119  0.8752
   38MOL0     H 5195   7.820   6.172   0.931 -0.7329 -1.2866 -1.0664
   38MOL0     H 5196   7.982   6.209   1.126  0.1444  0.0515 -0.3675
   38MOL0     H 5197   7.959   6.032   1.153 -1.1850 -1.0300 -1.4450
   38MOL0     H 5198   8.050   5.978   0.933 -0.8200 -0.9692  3.1202
   38MOL0     H 5199   8.056   6.154   0.883  0.3990  1.6007  2.1473
   38MOL0     H 5200   8.238   6.025   1.088 -1.6587  0.7346  0.7995
   38MOL0     H 5201   8.281   6.052   0.926 -1.2877 -1.0975 -0.2157
   38MOL0     H 5202   8.347   6.441   1.104 -0.9448 -0.4286 -0.1941
   38MOL0     H 5203   8.656   6.571   1.246  2.1404 -1.4193 -0.2594
   38MOL0     H 5204   8.499   6.603   1.176  1.8764  1.8323  0.9993
   38MOL0     H 5205   8.640   6.582   1.068 -1.4093  0.4915  0.0219
   38MOL0     H 5206   8.883   6.085   1.504  0.7450 -0.4908  1.0393
   38MOL0     H 5207   9.064   6.111   1.655  2.1308 -0.2559  0.2458
   38MOL0     H 5208   9.370   6.426   1.540  2.7612  0.2240 -3.3207
   38MOL0     H 5209   9.429   6.384   1.696 -1.2326  0.8210 -0.0306
   38MOL0     H 5210   9.488   6.233   1.429  3.5411 -0.9805 -0.1529
   38MOL0     H 5211   9.596   6.344   1.516 -0.0287 -0.7001  1.6397
   38MOL0     H 5212   9.534   6.076   1.584 -0.5746  0.0096  0.3435
   38MOL0     H 5213   9.587   6.189   1.716  2.5555 -2.1440  1.0129
   38MOL0     H 5214   9.810   6.200   1.612  1.0442 -2.7517  1.4307
   38MOL0     H 5215   9.737   6.170   1.449 -0.2403 -2.8577 -0.9890
   38MOL0     H 5216   9.769   5.978   1.681 -0.7319  2.0679 -0.0833
   38MOL0     H 5217   9.722   5.919   1.519  0.3688  0.6091 -1.4630
   38MOL0     H 5218   9.942   5.908   1.446 -2.9327  1.7835 -0.9936
   38MOL0     H 5219   9.974   5.900   1.620 -0.1121  0.5953  1.3324
   38MOL0     H 5220  10.037   6.133   1.625  1.5419 -2.4083  0.0696
   38MOL0     H 5221   9.998   6.145   1.454 -1.7762 -0.3800 -0.4782
   38MOL0     H 5222  10.249   6.100   1.457  1.0788 -0.6714 -0.6864
   38MOL0     H 5223  10.164   5.977   1.382 -0.1047 -0.6144  0.0451
   38MOL0     H 5224   9.297   6.314   1.356  0.2548 -2.0161  0.8410
   38MOL0     H 5225   9.094   6.315   1.206  2.6414 -1.4205  0.1990
   38MOL0     H 5226   8.658   6.082   1.194  3.8823  2.9200  0.9076
   38MOL0     H 5227   8.455   6.027   1.088 -0.7131 -0.9571  3.3212
   38MOL0     H 5228   7.231   5.318   1.465 -1.2096 -0.2663 -0.7342
   38MOL0     H 5229   7.366   5.158   1.609 -0.8578 -0.9784 -1.1472
   38MOL0     H 5230   7.204   4.871   2.032 -1.3750 -0.2097 -1.9358
   38MOL0     H 5231   7.241   4.673   2.187  1.1530 -0.1569  1.3258
   38MOL0     H 5232   7.555   4.367   2.079  3.6477  0.1486  0.1807
   38MOL0     H 5233   7.636   4.455   2.201  1.4462 -1.6065 -1.7317
   38MOL0     H 5234   7.501   4.341   2.382  1.6838 -0.4950  0.3932
   38MOL0     H 5235   7.589   4.236   2.278 -1.2560 -0.5825 -2.6425
   38MOL0     H 5236   7.366   4.159   2.336  2.0032 -0.6736 -0.0530
   38MOL0     H 5237   7.297   4.285   2.223 -0.7126 -1.5203  0.8361
   38MOL0     H 5238   7.313   4.038   2.148 -0.0070 -1.6745 -2.7760
   38MOL0     H 5239   7.476   4.054   2.153 -2.0917 -1.2901  1.3448
   38MOL0     H 5240   7.380   4.239   1.777 -0.6274  0.4586  0.2883
   38MOL0     H 5241   7.577   4.546   1.961  0.6279  0.8984 -0.5642
   38MOL0     H 5242   7.616   4.824   1.766  0.1506 -0.0167  0.5757
   38MOL0     H 5243   7.659   4.656   1.781  1.6344  0.6517 -3.7879
   38MOL0     H 5244   7.530   4.697   1.670  0.1877  0.8679  0.3040
   39MOL0     O 5245   1.816   2.007  10.539 -0.2695  0.1012 -0.1143
   39MOL0     C 5246   1.763   2.108  10.581 -0.3620 -0.0835  0.0336
   39MOL0     O 5247   1.807   2.233  10.548 -0.4478  0.1188  0.2658
   39MOL0     C 5248   1.912   2.248  10.455 -0.2459  0.2189  0.4117
   39MOL0     C 5249   1.912   2.202  10.322  0.4397  0.0507  0.1279
   39MOL0     C 5250   2.028   2.221  10.244 -0.2727  0.5091 -0.6028
   39MOL0     C 5251   2.141   2.293  10.297 -0.2943 -0.5045  0.6731
   39MOL0     O 5252   2.258   2.308  10.227  0.1834  0.1390 -0.0721
   39MOL0     C 5253   2.268   2.255  10.097 -0.1351 -0.1598 -0.0882
   39MOL0     C 5254   2.398   2.302  10.026  0.4438  0.0789  0.9483
   39MOL0     C 5255   2.527   2.248  10.094 -0.5014 -0.2480  0.3254
   39MOL0     C 5256   2.527   2.091  10.099  0.1845 -0.2717 -0.5820
   39MOL0     C 5257   2.660   2.023  10.106  0.8740  0.0717  0.4274
   39MOL0     C 5258   2.639   1.883  10.067 -0.1919  0.3521 -1.3430
   39MOL0     C 5259   2.773   1.801  10.072 -0.1422 -0.3359  0.1834
   39MOL0     C 5260   2.877   1.831   9.950  0.0426  0.0920 -0.2940
   39MOL0     N 5261   2.991   1.734   9.956 -0.0596  0.2657  0.4773
   39MOL0     C 5262   3.107   1.736  10.035  0.3458 -0.2841 -0.1546
   39MOL0     C 5263   3.167   1.619  10.019 -0.4001 -1.3338  0.5783
   39MOL0     C 5264   3.287   1.567  10.094  0.4239 -0.3016 -0.7204
   39MOL0     C 5265   3.403   1.585   9.992  0.4226  0.4876  0.1242
   39MOL0     C 5266   3.534   1.555  10.067 -0.5529  0.6161  0.6937
   39MOL0     C 5267   3.660   1.587   9.987  0.2861  0.7271 -0.2386
   39MOL0     O 5268   3.757   1.562  10.084  0.0749 -0.0736  0.0113
   39MOL0     C 5269   3.885   1.548  10.043  0.7383  0.0981 -0.2120
   39MOL0     C 5270   3.968   1.456  10.112  0.4010  0.5726  0.0208
   39MOL0     C 5271   4.104   1.455  10.108 -1.0648  0.5530  0.3057
   39MOL0     C 5272   4.174   1.375  10.220  0.0843 -0.1877  0.4267
   39MOL0     C 5273   4.165   1.526  10.002  0.0493  0.1585 -1.0304
   39MOL0     C 5274   4.309   1.529   9.971 -1.6192  0.4978  0.1904
   39MOL0     O 5275   4.354   1.560   9.839 -0.0068 -0.2399  0.3888
   39MOL0     C 5276   4.483   1.547   9.809 -0.8045  0.9423 -0.3899
   39MOL0     C 5277   4.570   1.439   9.860 -0.6468 -0.2349 -0.3394
   39MOL0     C 5278   4.709   1.444   9.845 -0.6774  0.7188  0.0291
   39MOL0     C 5279   4.767   1.543   9.762 -0.4774 -0.0036 -0.5625
   39MOL0     O 5280   4.899   1.561   9.744  0.1533  0.7126 -0.5020
   39MOL0     C 5281   4.971   1.559   9.868 -0.1934 -0.1959 -0.4115
   39MOL0     C 5282   5.051   1.425   9.869  0.2374  0.1752 -0.1626
   39MOL0     C 5283   5.153   1.433   9.976  0.8596  0.1467 -0.9381
   39MOL0     C 5284   5.279   1.508   9.934  0.1071 -0.5820  0.3693
   39MOL0     C 5285   5.377   1.470  10.046  0.7124  0.4765  0.3524
   39MOL0     C 5286   5.514   1.539  10.030 -0.0532 -0.1581 -0.0185
   39MOL0     C 5287   5.605   1.505  10.140 -0.2208 -0.0940 -0.1645
   39MOL0     C 5288   5.747   1.548  10.110  0.0355 -1.1638 -1.1503
   39MOL0    Cl 5289   5.847   1.486  10.248 -0.3648  0.4015 -0.1049
   39MOL0     C 5290   4.681   1.641   9.703  0.8065 -1.0029 -0.6257
   39MOL0     C 5291   4.541   1.643   9.730 -0.4522 -0.4285 -1.0931
   39MOL0     O 5292   4.388   1.495  10.062  0.0605 -0.6139 -0.3563
   39MOL0     C 5293   4.084   1.599   9.919 -0.6260 -0.1634  0.3755
   39MOL0     C 5294   3.949   1.619   9.948  0.6274 -0.2869 -0.5130
   39MOL0     N 5295   3.098   1.550   9.926  0.0721  0.1004  1.0478
   39MOL0     N 5296   2.993   1.616   9.889 -0.8031  0.7672 -0.6520
   39MOL0     C 5297   2.132   2.350  10.419 -0.2392  0.1468  0.2840
   39MOL0     C 5298   2.022   2.314  10.501  0.2622  0.0962 -0.7281
   39MOL0     C 5299   1.637   2.090  10.665 -0.3123  0.1822  0.4707
   39MOL0     C 5300   1.585   1.961  10.684  0.0801  0.5338 -0.4458
   39MOL0     C 5301   1.483   1.943  10.777 -0.2484 -0.5022 -0.2205
   39MOL0     C 5302   1.424   2.044  10.846  0.2329 -0.3376 -0.7531
   39MOL0     O 5303   1.315   2.018  10.931 -0.5874 -0.0762  0.5226
   39MOL0     C 5304   1.195   1.984  10.863  0.7851  0.5429  0.6083
   39MOL0     C 5305   1.083   2.078  10.910  0.7288  0.0499  0.0731
   39MOL0     C 5306   1.048   2.054  11.061 -0.7417 -0.2871  0.5942
   39MOL0     C 5307   0.950   1.942  11.080 -0.6683 -0.0996 -0.5697
   39MOL0     C 5308   0.816   1.992  11.079 -0.3577 -0.4030  1.0746
   39MOL0     C 5309   0.701   2.040  11.092 -1.4696  0.7204  0.0565
   39MOL0     C 5310   1.483   2.166  10.841  0.1311 -0.3827 -0.4257
   39MOL0     C 5311   1.596   2.189  10.755  0.2111 -0.7142  0.4734
   39MOL0     C 5312   1.673   2.322  10.772 -0.0678  0.2983 -0.0188
   39MOL0     H 5313   1.824   2.158  10.277  0.9582 -1.4257  0.5010
   39MOL0     H 5314   2.032   2.177  10.145  4.8786 -3.0853  0.7970
   39MOL0     H 5315   2.185   2.284  10.032  2.0273 -3.4609 -4.9529
   39MOL0     H 5316   2.263   2.145  10.093 -0.7437 -0.1182 -0.5923
   39MOL0     H 5317   2.398   2.266   9.923  1.3156 -0.8348  1.2535
   39MOL0     H 5318   2.407   2.411  10.025  1.7588  0.0702 -2.5459
   39MOL0     H 5319   2.616   2.276  10.037  1.5866 -1.5442  2.7294
   39MOL0     H 5320   2.530   2.297  10.192  0.1217  1.7298 -0.6341
   39MOL0     H 5321   2.463   2.043  10.173  1.2752 -1.0101 -0.0830
   39MOL0     H 5322   2.478   2.060  10.006 -1.2667 -1.6044  0.5712
   39MOL0     H 5323   2.699   2.031  10.208 -0.0332  2.1073  0.6518
   39MOL0     H 5324   2.734   2.071  10.042 -0.8637  0.7714 -1.1313
   39MOL0     H 5325   2.562   1.838  10.130 -0.1950 -0.5763 -1.9775
   39MOL0     H 5326   2.611   1.883   9.961  2.6705 -2.0889 -2.2339
   39MOL0     H 5327   2.750   1.695  10.055  3.6716 -1.3500  0.3881
   39MOL0     H 5328   2.820   1.813  10.170  1.1385 -0.4963 -0.3846
   39MOL0     H 5329   2.820   1.826   9.856  1.0022 -1.5879 -0.8161
   39MOL0     H 5330   2.912   1.934   9.958  1.9832 -0.4158 -1.6000
   39MOL0     H 5331   3.141   1.809  10.108  1.6399  1.5279 -2.4255
   39MOL0     H 5332   3.280   1.460  10.119  0.1306 -0.3835 -1.1447
   39MOL0     H 5333   3.306   1.622  10.187  0.8442 -1.5503 -0.0308
   39MOL0     H 5334   3.381   1.518   9.908 -1.0701  0.9274  0.1397
   39MOL0     H 5335   3.416   1.692   9.973  4.0073  0.7915  3.0524
   39MOL0     H 5336   3.534   1.603  10.165  0.7554  2.2253 -0.0563
   39MOL0     H 5337   3.547   1.449  10.091 -0.9474  0.6727  1.1778
   39MOL0     H 5338   3.680   1.515   9.907 -1.0879 -2.7760  2.2830
   39MOL0     H 5339   3.652   1.688   9.947 -3.4479  0.7610  0.2813
   39MOL0     H 5340   3.917   1.391  10.183  0.5279  0.0583 -0.3584
   39MOL0     H 5341   4.252   1.435  10.268 -0.0683  1.5532 -1.3538
   39MOL0     H 5342   4.221   1.288  10.174  2.0479  0.5606  0.9197
   39MOL0     H 5343   4.101   1.348  10.297  0.3498 -0.3702  0.6177
   39MOL0     H 5344   4.535   1.364   9.930  2.5733 -0.6099  1.0447
   39MOL0     H 5345   4.765   1.380   9.912 -0.1767  0.1860 -0.8755
   39MOL0     H 5346   5.022   1.656   9.876  0.3469 -0.5403  0.4206
   39MOL0     H 5347   4.912   1.553   9.960  0.2125  0.8663 -0.0658
   39MOL0     H 5348   4.989   1.339   9.897 -1.3712  1.7374  1.3923
   39MOL0     H 5349   5.100   1.410   9.773 -0.4432  0.6574 -0.5996
   39MOL0     H 5350   5.177   1.327   9.995 -0.3596 -0.2794 -1.6767
   39MOL0     H 5351   5.110   1.488  10.060  1.3194 -1.2646  0.2786
   39MOL0     H 5352   5.275   1.617   9.924  1.0822 -0.6244 -0.6969
   39MOL0     H 5353   5.320   1.469   9.841 -0.1673 -1.1370  0.4780
   39MOL0     H 5354   5.313   1.498  10.130  0.1030  0.7347 -0.1874
   39MOL0     H 5355   5.392   1.362  10.052 -1.3098  0.1416  0.0424
   39MOL0     H 5356   5.487   1.644  10.018  1.7075  0.2485 -0.9072
   39MOL0     H 5357   5.561   1.505   9.937 -0.5415 -1.5578  0.2184
   39MOL0     H 5358   5.609   1.395  10.143 -0.0233 -0.2372 -3.0371
   39MOL0     H 5359   5.563   1.533  10.237  2.3346 -1.7268  1.5627
   39MOL0     H 5360   5.750   1.656  10.093  0.2647 -0.7222  1.3176
   39MOL0     H 5361   5.784   1.490  10.025  2.4839 -2.8978  0.9269
   39MOL0     H 5362   4.727   1.712   9.635  0.9327 -2.0771 -1.7082
   39MOL0     H 5363   4.487   1.718   9.675 -1.9902  0.1984  1.1263
   39MOL0     H 5364   4.120   1.646   9.828  0.9724 -0.3766  0.8672
   39MOL0     H 5365   3.895   1.693   9.889  0.3936 -0.6776 -0.7889
   39MOL0     H 5366   2.216   2.411  10.453  0.3657 -1.5548  2.0915
   39MOL0     H 5367   2.019   2.339  10.607 -0.0801 -0.2357 -0.6572
   39MOL0     H 5368   1.622   1.867  10.643 -1.8638 -1.3951  1.8901
   39MOL0     H 5369   1.451   1.841  10.794 -2.3091  0.2895  1.0913
   39MOL0     H 5370   1.208   1.992  10.755 -0.9925  0.8281  0.3746
   39MOL0     H 5371   1.172   1.880  10.887  0.2249  0.9407  1.9007
   39MOL0     H 5372   0.989   2.056  10.859  1.2062 -3.2663  0.4004
   39MOL0     H 5373   1.107   2.184  10.895 -1.2672  0.4724 -0.4074
   39MOL0     H 5374   1.142   2.041  11.116 -0.4355  0.9926  0.4056
   39MOL0     H 5375   1.016   2.148  11.107  0.7529  1.2380 -1.2705
   39MOL0     H 5376   0.955   1.895  11.179 -3.3714  1.3735  0.3397
   39MOL0     H 5377   0.976   1.870  11.002  2.6475 -0.4291  0.6753
   39MOL0     H 5378   0.602   2.080  11.098 -1.5431  0.4845  0.4589
   39MOL0     H 5379   1.436   2.239  10.907 -0.6380 -2.4451  1.4598
   39MOL0     H 5380   1.652   2.380  10.681  0.2116 -2.5560 -2.0432
   39MOL0     H 5381   1.639   2.385  10.855 -5.0696 -1.2432 -0.5615
   39MOL0     H 5382   1.780   2.310  10.791  0.2737 -1.1476 -2.4267
   40MOL0     O 5383   1.424   2.136   7.892 -0.0557 -0.8131 -0.3608
   40MOL0     C 5384   1.361   2.030   7.880 -0.0623  0.3152  0.6050
   40MOL0     O 5385   1.403   1.926   7.813 -0.6096 -0.1665  0.0749
   40MOL0     C 5386   1.526   1.926   7.754  0.5020  0.1989 -0.7623
   40MOL0     C 5387   1.625   1.840   7.792  0.1911  0.5165 -0.0455
   40MOL0     C 5388   1.746   1.836   7.725 -0.2353 -0.1412 -0.1250
   40MOL0     C 5389   1.768   1.932   7.618 -0.9837  0.4009  0.3383
   40MOL0     O 5390   1.894   1.918   7.558 -0.4537 -0.1252  0.5356
   40MOL0     C 5391   1.954   2.034   7.506 -0.2172  0.5352 -0.3254
   40MOL0     C 5392   2.004   2.010   7.365  0.1571  0.1364  0.2438
   40MOL0     C 5393   2.028   2.141   7.289  1.0102 -0.6139  0.5735
   40MOL0     C 5394   1.920   2.249   7.284  0.1023  0.2023  0.8543
   40MOL0     C 5395   1.974   2.373   7.224  0.7371 -0.3251 -0.0644
   40MOL0     C 5396   1.876   2.489   7.226  0.1808  0.6117 -0.6787
   40MOL0     C 5397   1.918   2.600   7.134 -0.0161  0.6108  0.1059
   40MOL0     C 5398   1.872   2.551   6.993  0.0343  0.6810 -0.2305
   40MOL0     N 5399   1.913   2.646   6.888  0.0590 -0.1533 -0.2856
   40MOL0     C 5400   2.027   2.627   6.817  0.3995  0.3336  0.0161
   40MOL0     C 5401   2.028   2.719   6.714  0.3044 -0.0371  0.6615
   40MOL0     C 5402   2.119   2.735   6.598 -0.1494 -0.3357  0.3008
   40MOL0     C 5403   2.242   2.812   6.639 -0.6102 -0.0986  0.3352
   40MOL0     C 5404   2.347   2.843   6.532  0.0364 -0.3564  0.4116
   40MOL0     C 5405   2.413   2.725   6.452 -0.4633  0.8313  0.4223
   40MOL0     O 5406   2.493   2.774   6.339  0.1945  0.3546  0.0771
   40MOL0     C 5407   2.470   2.715   6.221 -0.0263  0.8026 -0.2077
   40MOL0     C 5408   2.418   2.585   6.203 -0.5493  0.3484  0.1418
   40MOL0     C 5409   2.408   2.514   6.073  0.0103 -0.2142 -1.2401
   40MOL0     C 5410   2.363   2.369   6.060 -0.3334  0.3515  0.2148
   40MOL0     C 5411   2.425   2.604   5.963  0.3082  0.8323 -0.1684
   40MOL0     C 5412   2.414   2.563   5.822 -0.2647 -0.9065 -0.8423
   40MOL0     O 5413   2.512   2.610   5.734  0.0314 -0.4477 -0.0764
   40MOL0     C 5414   2.510   2.612   5.597  0.9204  0.0276 -0.2316
   40MOL0     C 5415   2.423   2.529   5.524  0.2562  0.9468  0.1849
   40MOL0     C 5416   2.434   2.530   5.384 -0.9899 -0.4058 -0.2868
   40MOL0     C 5417   2.539   2.600   5.318  0.2485  0.2168 -0.0237
   40MOL0     O 5418   2.525   2.589   5.176  0.5431  0.4140 -0.1107
   40MOL0     C 5419   2.620   2.657   5.092  0.4581  0.1689 -0.3133
   40MOL0     C 5420   2.601   2.594   4.954 -0.8025  1.0542  0.7005
   40MOL0     C 5421   2.668   2.664   4.842 -0.2655 -0.3721  0.9991
   40MOL0     C 5422   2.818   2.642   4.846  0.0508  0.2941  0.3731
   40MOL0     C 5423   2.878   2.697   4.708  0.3241  0.8560 -0.3307
   40MOL0     C 5424   3.029   2.673   4.718  0.5736 -0.6176 -0.4325
   40MOL0     C 5425   3.102   2.700   4.596  0.0986  0.1005 -0.1824
   40MOL0     C 5426   3.259   2.674   4.600  0.2272  0.2002  0.1137
   40MOL0    Cl 5427   3.334   2.692   4.440 -0.7125  0.9904  0.2821
   40MOL0     C 5428   2.626   2.677   5.391 -0.3123  0.5369 -0.3871
   40MOL0     C 5429   2.607   2.686   5.527  0.1516  0.2946 -0.4195
   40MOL0     O 5430   2.310   2.500   5.797 -0.2118  0.7975  0.7061
   40MOL0     C 5431   2.471   2.736   5.980  0.5405 -0.3785  0.4409
   40MOL0     C 5432   2.492   2.793   6.110  0.4092  0.9107 -0.5220
   40MOL0     N 5433   1.921   2.803   6.735 -0.2283  0.2716 -0.4465
   40MOL0     N 5434   1.857   2.765   6.842  0.1517  0.2277  0.0903
   40MOL0     C 5435   1.667   2.020   7.579  0.0533  0.4810  0.5118
   40MOL0     C 5436   1.544   2.022   7.649 -1.1015 -1.4249 -0.4297
   40MOL0     C 5437   1.229   2.008   7.939  0.5953  1.3006  0.3437
   40MOL0     C 5438   1.183   1.876   7.955 -0.1668 -0.9999  0.7529
   40MOL0     C 5439   1.059   1.856   8.018  0.0736  0.6113  0.3040
   40MOL0     C 5440   0.971   1.953   8.045  0.5467 -0.4777 -0.0522
   40MOL0     O 5441   0.849   1.913   8.098 -0.3331  0.0721 -0.6482
   40MOL0     C 5442   0.753   2.015   8.140 -0.1218  0.0850 -0.2441
   40MOL0     C 5443   0.611   1.955   8.176 -0.1820  0.9474  0.1463
   40MOL0     C 5444   0.615   1.875   8.306  0.4070 -0.3214 -0.1757
   40MOL0     C 5445   0.479   1.803   8.319 -0.2508  0.4716 -0.0826
   40MOL0     C 5446   0.486   1.766   8.471 -0.8414 -0.0814  1.2094
   40MOL0     C 5447   0.474   1.764   8.588 -0.5940 -0.1193  0.3389
   40MOL0     C 5448   1.020   2.086   8.034  0.6055 -0.1466  0.2410
   40MOL0     C 5449   1.148   2.116   7.985 -0.1291  0.5272 -0.2051
   40MOL0     C 5450   1.205   2.257   8.000 -0.7165 -0.0466 -0.1336
   40MOL0     H 5451   1.608   1.763   7.866  0.1294 -1.2089 -1.7705
   40MOL0     H 5452   1.827   1.769   7.751  1.2049  1.0787 -1.3128
   40MOL0     H 5453   2.031   2.071   7.575  1.4998  0.0530 -1.9155
   40MOL0     H 5454   1.883   2.118   7.501 -2.1232 -1.0603 -2.3658
   40MOL0     H 5455   2.095   1.950   7.374 -0.3343 -0.6005  0.2927
   40MOL0     H 5456   1.925   1.957   7.312  2.6050 -0.0902 -3.5722
   40MOL0     H 5457   2.128   2.179   7.315  1.0459 -1.4384  1.7138
   40MOL0     H 5458   2.044   2.124   7.182 -2.5606 -2.6627  0.2116
   40MOL0     H 5459   1.834   2.216   7.225 -0.6002  1.1727  1.2946
   40MOL0     H 5460   1.880   2.285   7.380  0.6727  0.2526  1.0751
   40MOL0     H 5461   2.000   2.345   7.122  2.1087 -0.8555  0.4153
   40MOL0     H 5462   2.066   2.401   7.276  0.8483 -0.9575  0.0891
   40MOL0     H 5463   1.777   2.450   7.201  0.0275 -0.6666  1.5961
   40MOL0     H 5464   1.872   2.506   7.334  0.6712 -2.4552 -0.0744
   40MOL0     H 5465   2.025   2.620   7.123 -0.1366  2.2763  1.4482
   40MOL0     H 5466   1.869   2.696   7.156 -2.1253 -0.3362 -0.1423
   40MOL0     H 5467   1.920   2.454   6.978  0.4709  0.7610  0.5722
   40MOL0     H 5468   1.763   2.545   6.993 -0.1559  2.9596  0.5165
   40MOL0     H 5469   2.108   2.556   6.828  1.6125  1.7834  0.8270
   40MOL0     H 5470   2.065   2.795   6.524  0.7994  0.8276  0.5235
   40MOL0     H 5471   2.156   2.648   6.542 -0.0872 -0.0206 -0.1602
   40MOL0     H 5472   2.210   2.908   6.679 -0.8794  0.0539 -0.2369
   40MOL0     H 5473   2.282   2.750   6.720 -0.7779  2.8399  2.8276
   40MOL0     H 5474   2.300   2.916   6.465 -2.7394 -0.3889  2.1529
   40MOL0     H 5475   2.433   2.890   6.581 -0.2016  0.4068  0.1141
   40MOL0     H 5476   2.473   2.657   6.513 -0.2941 -0.5050 -1.1445
   40MOL0     H 5477   2.333   2.658   6.417 -0.0231  0.2168  0.5634
   40MOL0     H 5478   2.404   2.514   6.284 -0.2441 -0.0371 -0.1364
   40MOL0     H 5479   2.254   2.362   6.059 -0.7053  3.4765  2.4749
   40MOL0     H 5480   2.389   2.327   6.157  0.2588 -0.1769 -0.1623
   40MOL0     H 5481   2.418   2.316   5.981  0.5689 -0.0744  1.1071
   40MOL0     H 5482   2.342   2.467   5.561  0.9241 -0.5077 -0.7220
   40MOL0     H 5483   2.371   2.468   5.320 -0.4120 -0.3653 -0.8999
   40MOL0     H 5484   2.599   2.764   5.102 -0.9143 -0.3110  3.4589
   40MOL0     H 5485   2.715   2.630   5.139 -0.9398 -1.7614  1.6094
   40MOL0     H 5486   2.642   2.493   4.965 -1.2556  0.5831 -1.4410
   40MOL0     H 5487   2.494   2.577   4.938 -0.2196 -1.8037 -0.8522
   40MOL0     H 5488   2.651   2.772   4.837  2.0695 -0.0111 -1.8565
   40MOL0     H 5489   2.640   2.621   4.746 -0.1568  0.3580  0.6316
   40MOL0     H 5490   2.851   2.538   4.855 -2.2690 -0.5715 -0.5059
   40MOL0     H 5491   2.865   2.699   4.926  0.5868 -0.7798  0.8504
   40MOL0     H 5492   2.829   2.637   4.631  0.1426  2.0973 -1.2002
   40MOL0     H 5493   2.856   2.802   4.688 -2.6428  0.1530 -1.1828
   40MOL0     H 5494   3.046   2.568   4.742 -0.5652 -0.5774  0.6752
   40MOL0     H 5495   3.064   2.745   4.793  2.5620 -0.5338 -1.3908
   40MOL0     H 5496   3.099   2.809   4.584 -1.3333  0.0716 -0.3194
   40MOL0     H 5497   3.056   2.637   4.519 -2.6268  1.8029 -0.1058
   40MOL0     H 5498   3.281   2.572   4.634  0.2023 -1.3431 -3.8806
   40MOL0     H 5499   3.306   2.742   4.671  1.2892 -1.3664  0.9870
   40MOL0     H 5500   2.697   2.734   5.332 -0.3324  0.0086 -0.9304
   40MOL0     H 5501   2.678   2.749   5.580 -3.0560 -0.3238  5.4838
   40MOL0     H 5502   2.488   2.808   5.901 -0.8131  1.4407  1.7396
   40MOL0     H 5503   2.522   2.896   6.128 -2.2141  1.5199  0.9980
   40MOL0     H 5504   1.672   2.066   7.481 -0.8030 -1.1525 -0.3460
   40MOL0     H 5505   1.470   2.098   7.630 -0.4049 -1.1571 -2.2863
   40MOL0     H 5506   1.245   1.791   7.929  0.2186 -0.7538  0.8635
   40MOL0     H 5507   1.042   1.754   8.049  0.4192  0.8596  1.3281
   40MOL0     H 5508   0.799   2.070   8.223  1.3572 -2.4441  0.7173
   40MOL0     H 5509   0.734   2.080   8.054  1.4012  0.0354 -0.6504
   40MOL0     H 5510   0.594   1.883   8.095 -0.1625 -0.1466  1.0925
   40MOL0     H 5511   0.524   2.022   8.179 -0.7417  0.2429  0.1472
   40MOL0     H 5512   0.689   1.795   8.301  1.0242  0.2978 -1.0215
   40MOL0     H 5513   0.631   1.936   8.395  2.1742  1.0767 -1.3959
   40MOL0     H 5514   0.457   1.718   8.254  0.6792 -0.6438  1.0047
   40MOL0     H 5515   0.392   1.868   8.317 -0.2469  0.4625 -0.6108
   40MOL0     H 5516   0.466   1.782   8.694 -3.3162  0.5671  0.0903
   40MOL0     H 5517   0.960   2.168   8.074 -1.7566 -2.2217  1.2576
   40MOL0     H 5518   1.238   2.295   7.903  0.7313 -2.1909 -0.5448
   40MOL0     H 5519   1.122   2.322   8.029 -0.0509  1.3137 -1.1828
   40MOL0     H 5520   1.294   2.262   8.062 -0.0925  1.0784 -1.0839
   41MOL0     O 5521  10.057   5.368  10.859  0.1564 -0.5684  0.2203
   41MOL0     C 5522   9.997   5.463  10.815  1.3710  0.0849  0.0081
   41MOL0     O 5523   9.863   5.474  10.799  0.0973  0.4712  0.0068
   41MOL0     C 5524   9.771   5.379  10.841 -0.6989  0.2947 -0.0341
   41MOL0     C 5525   9.643   5.433  10.832 -0.8784  0.3119 -1.3580
   41MOL0     C 5526   9.535   5.356  10.872 -0.0345 -0.7435  0.6207
   41MOL0     C 5527   9.547   5.223  10.909 -0.0689  0.1052 -0.4132
   41MOL0     O 5528   9.427   5.161  10.948 -0.1543 -0.3244  0.1273
   41MOL0     C 5529   9.417   5.023  10.962  0.1883  0.9726 -0.2030
   41MOL0     C 5530   9.292   4.995  11.043  0.3221  0.2428 -0.4735
   41MOL0     C 5531   9.154   5.029  10.986 -0.2456 -0.1642 -0.2373
   41MOL0     C 5532   9.087   4.908  10.940  0.0454  0.3505  0.0816
   41MOL0     C 5533   8.943   4.955  10.917  1.1091  0.3719 -0.5045
   41MOL0     C 5534   8.840   4.842  10.889  0.6224 -0.7169 -1.3364
   41MOL0     C 5535   8.692   4.877  10.920 -0.4168  0.1839  0.0087
   41MOL0     C 5536   8.632   4.989  10.845  0.2339 -0.6775  0.4721
   41MOL0     N 5537   8.613   4.964  10.696 -0.8071  0.1606 -0.3344
   41MOL0     C 5538   8.709   4.931  10.605  0.3859  0.2228  0.3045
   41MOL0     C 5539   8.631   4.907  10.491 -0.3902 -0.4382 -0.6930
   41MOL0     C 5540   8.702   4.875  10.355 -0.5355  0.1698 -0.3413
   41MOL0     C 5541   8.852   4.824  10.359 -0.0788 -0.5014 -0.3206
   41MOL0     C 5542   8.856   4.690  10.437 -0.8651 -0.7327 -0.5177
   41MOL0     C 5543   8.998   4.625  10.436 -0.0519  0.4703 -0.3044
   41MOL0     O 5544   9.085   4.724  10.496 -0.3135  0.7520 -0.4818
   41MOL0     C 5545   9.220   4.708  10.484  0.0873  0.0273 -0.2170
   41MOL0     C 5546   9.295   4.824  10.514 -0.2921 -0.0014 -0.1663
   41MOL0     C 5547   9.431   4.830  10.494 -0.2621  0.4692 -0.6966
   41MOL0     C 5548   9.490   4.963  10.518 -0.5889  0.7394  0.0883
   41MOL0     C 5549   9.506   4.720  10.457 -0.4518 -0.0704 -0.4959
   41MOL0     C 5550   9.651   4.717  10.444  0.1148  1.2266  0.4688
   41MOL0     O 5551   9.709   4.588  10.448 -0.3967 -0.3929  0.1504
   41MOL0     C 5552   9.834   4.561  10.405  0.5110  0.3769  0.2080
   41MOL0     C 5553   9.863   4.444  10.339  0.1513  0.5541 -0.2235
   41MOL0     C 5554   9.988   4.423  10.278 -0.5736  0.7237 -0.0975
   41MOL0     C 5555  10.088   4.519  10.289  0.3548 -0.3878 -0.4680
   41MOL0     O 5556  10.221   4.509  10.237 -0.7360  0.6186  0.4043
   41MOL0     C 5557  10.238   4.461  10.104 -0.1335  0.1568 -0.0811
   41MOL0     C 5558  10.321   4.550  10.005 -0.2045  0.3616 -0.3579
   41MOL0     C 5559  10.310   4.492   9.867  0.5159  0.4738  0.2221
   41MOL0     C 5560  10.308   4.598   9.756  0.4226  0.0515  0.2945
   41MOL0     C 5561  10.280   4.539   9.612 -0.2943  0.1724 -0.0191
   41MOL0     C 5562  10.134   4.499   9.575 -0.1434 -0.1624 -0.1088
   41MOL0     C 5563  10.115   4.468   9.426 -0.8529 -0.7718 -0.5392
   41MOL0     C 5564   9.979   4.400   9.400 -0.1599 -0.5245 -0.0962
   41MOL0    Cl 5565   9.971   4.329   9.243  0.0572 -0.0786  0.5798
   41MOL0     C 5566  10.066   4.631  10.364  0.7299 -0.2177 -0.6458
   41MOL0     C 5567   9.939   4.649  10.427  1.5008 -0.8780  0.2054
   41MOL0     O 5568   9.710   4.813  10.416 -0.2016 -0.4260  0.0105
   41MOL0     C 5569   9.433   4.603  10.432 -0.0402 -0.0203  0.6220
   41MOL0     C 5570   9.289   4.596  10.454 -0.8242  0.2301  0.3635
   41MOL0     N 5571   8.497   4.905  10.520  0.1147  0.3949  0.2878
   41MOL0     N 5572   8.491   4.941  10.641  0.3905 -0.2721 -0.0217
   41MOL0     C 5573   9.677   5.170  10.932  0.6574 -0.3166  1.0975
   41MOL0     C 5574   9.789   5.248  10.886  0.3000  0.0752  0.3855
   41MOL0     C 5575  10.085   5.592  10.814  0.5286  0.1206  0.1585
   41MOL0     C 5576  10.223   5.581  10.804  0.3743 -0.3800 -0.3778
   41MOL0     C 5577  10.300   5.691  10.787  0.8113  0.7944  0.5318
   41MOL0     C 5578  10.251   5.825  10.790  0.1769 -0.2770  0.2418
   41MOL0     O 5579  10.343   5.930  10.786  1.0981 -0.1713 -0.5262
   41MOL0     C 5580  10.304   6.060  10.755 -0.0807 -0.4559 -1.0890
   41MOL0     C 5581  10.220   6.093  10.630 -0.1299  0.4797  0.6880
   41MOL0     C 5582  10.242   6.248  10.597  1.4775  0.2207  0.2421
   41MOL0     C 5583  10.141   6.260  10.481 -0.5963 -0.5450  0.6054
   41MOL0     C 5584  10.140   6.402  10.434 -0.5215  0.1847  0.2712
   41MOL0     C 5585  10.138   6.516  10.385  0.2433 -0.0902  0.0680
   41MOL0     C 5586  10.109   5.833  10.804  0.1539  0.2459  0.2731
   41MOL0     C 5587  10.025   5.720  10.814 -0.1196  0.3403 -0.7085
   41MOL0     C 5588   9.872   5.744  10.809  0.3951  0.2866 -1.0915
   41MOL0     H 5589   9.620   5.535  10.804 -2.5311  0.3269 -0.0678
   41MOL0     H 5590   9.436   5.401  10.869  0.0801 -0.5246 -0.1243
   41MOL0     H 5591   9.498   4.983  11.024  1.7909  0.1675 -2.6470
   41MOL0     H 5592   9.411   4.971  10.865 -1.0933  1.1949 -0.2526
   41MOL0     H 5593   9.295   4.892  11.079  0.0569  0.1740 -0.6454
   41MOL0     H 5594   9.305   5.058  11.131  0.5875 -3.4688  2.3724
   41MOL0     H 5595   9.092   5.087  11.055  0.6781 -0.7451  1.1171
   41MOL0     H 5596   9.172   5.087  10.895  3.1398  1.8650  1.5239
   41MOL0     H 5597   9.107   4.874  10.838  2.5959  0.1090  0.5957
   41MOL0     H 5598   9.105   4.827  11.011  0.8526 -0.1131 -0.6346
   41MOL0     H 5599   8.938   5.029  10.837 -1.1892  1.1125  0.2381
   41MOL0     H 5600   8.906   5.010  11.003  2.7534  1.2352 -0.3030
   41MOL0     H 5601   8.850   4.800  10.788 -1.1701 -1.1143 -1.3810
   41MOL0     H 5602   8.867   4.752  10.945  0.5013 -1.3309 -2.2540
   41MOL0     H 5603   8.695   4.891  11.029 -2.5725 -1.2953  0.3210
   41MOL0     H 5604   8.629   4.791  10.895 -0.7886  0.8666 -1.5084
   41MOL0     H 5605   8.534   5.018  10.884 -0.2010 -0.4698 -0.7454
   41MOL0     H 5606   8.697   5.077  10.856  0.4462 -0.4192 -2.1557
   41MOL0     H 5607   8.817   4.938  10.606  0.4116 -0.1221 -0.1075
   41MOL0     H 5608   8.702   4.967  10.296  0.6764  0.3909 -0.0296
   41MOL0     H 5609   8.643   4.800  10.302 -3.4265  0.2780  2.4481
   41MOL0     H 5610   8.886   4.816  10.255  1.5284  0.3058  0.1177
   41MOL0     H 5611   8.904   4.907  10.408  1.2707 -1.6504  0.2702
   41MOL0     H 5612   8.839   4.704  10.544  1.3803 -0.4003 -0.1651
   41MOL0     H 5613   8.779   4.619  10.403  0.2304 -1.5068 -1.4480
   41MOL0     H 5614   8.997   4.534  10.496 -1.0825 -0.0841 -1.1121
   41MOL0     H 5615   9.029   4.606  10.333 -1.7715 -1.8083 -0.4911
   41MOL0     H 5616   9.250   4.922  10.518  1.4752  1.0658 -2.8908
   41MOL0     H 5617   9.587   4.960  10.568  0.5798  0.3807 -2.0771
   41MOL0     H 5618   9.428   5.022  10.586 -2.7953 -1.7344  0.3998
   41MOL0     H 5619   9.508   5.017  10.425  0.6307  2.5612  1.3210
   41MOL0     H 5620   9.787   4.366  10.342  0.8445 -0.1844 -1.0608
   41MOL0     H 5621   9.996   4.328  10.227 -1.1971 -0.5782  2.0932
   41MOL0     H 5622  10.283   4.362  10.113  3.6687  1.5311 -1.8408
   41MOL0     H 5623  10.142   4.450  10.052 -1.2188 -1.9172  2.1163
   41MOL0     H 5624  10.287   4.654  10.010 -0.6640  0.1594  0.8616
   41MOL0     H 5625  10.426   4.563  10.031 -0.1178  1.3110 -1.1084
   41MOL0     H 5626  10.222   4.427   9.858  2.8258 -2.9783  0.4734
   41MOL0     H 5627  10.402   4.434   9.856 -0.5362 -1.7384  2.1722
   41MOL0     H 5628  10.404   4.651   9.760  1.1334 -1.1847 -0.0081
   41MOL0     H 5629  10.225   4.667   9.775  0.6919  0.3211  0.5058
   41MOL0     H 5630  10.310   4.612   9.536 -0.8941 -0.5160 -0.9516
   41MOL0     H 5631  10.351   4.457   9.598  1.6187  2.1349 -2.8472
   41MOL0     H 5632  10.072   4.584   9.604  0.1297 -0.6011  1.9466
   41MOL0     H 5633  10.109   4.413   9.639  0.5899  0.1189  0.5686
   41MOL0     H 5634  10.195   4.401   9.396 -0.5835 -1.3960  1.4463
   41MOL0     H 5635  10.120   4.564   9.375  1.0155  0.9260  2.5214
   41MOL0     H 5636   9.899   4.475   9.403  2.1962  2.1585  0.5968
   41MOL0     H 5637   9.971   4.320   9.474  0.7579  1.6664  2.5560
   41MOL0     H 5638  10.151   4.696  10.384  0.2928 -0.1742  1.3064
   41MOL0     H 5639   9.931   4.737  10.490  1.3301 -0.4129 -0.4640
   41MOL0     H 5640   9.487   4.514  10.400  1.4001  1.2002 -0.5207
   41MOL0     H 5641   9.237   4.501  10.461 -1.9314  0.8386  0.6057
   41MOL0     H 5642   9.694   5.067  10.962 -0.4119 -1.7996 -2.7777
   41MOL0     H 5643   9.885   5.200  10.882 -0.4004 -1.2931 -1.5524
   41MOL0     H 5644  10.268   5.483  10.792 -2.4513 -2.0036  1.2042
   41MOL0     H 5645  10.408   5.679  10.780  0.7416 -0.3180  1.0694
   41MOL0     H 5646  10.240   6.086  10.840 -1.1499  0.0455 -2.0226
   41MOL0     H 5647  10.399   6.113  10.749 -0.0080 -0.7439 -3.2449
   41MOL0     H 5648  10.117   6.063  10.650 -0.0703  0.1959  0.5668
   41MOL0     H 5649  10.263   6.040  10.544 -0.3512  2.4129 -0.6832
   41MOL0     H 5650  10.206   6.315  10.675 -0.0869 -0.5986  0.2678
   41MOL0     H 5651  10.346   6.260  10.563  1.6475 -1.3748  0.1118
   41MOL0     H 5652  10.044   6.226  10.518 -0.5773 -1.8535 -0.4353
   41MOL0     H 5653  10.172   6.194  10.399  1.4433 -0.2315  1.0593
   41MOL0     H 5654  10.096   6.608  10.350  0.1687  0.7221  2.1533
   41MOL0     H 5655  10.076   5.937  10.802 -0.5156  0.0487  0.8218
   41MOL0     H 5656   9.830   5.700  10.899  2.3110  0.8716  0.1525
   41MOL0     H 5657   9.846   5.850  10.816 -1.3430 -0.1390 -0.6276
   41MOL0     H 5658   9.837   5.706  10.713 -0.1077  3.0968 -2.1204
   42MOL0     O 5659   6.985   4.588   3.654  0.4014  0.8645 -0.2634
   42MOL0     C 5660   7.002   4.704   3.680 -0.1294 -0.3385  0.7683
   42MOL0     O 5661   6.905   4.786   3.724  0.4646 -0.7322  0.7404
   42MOL0     C 5662   6.769   4.744   3.710 -0.5108 -0.6595  0.3684
   42MOL0     C 5663   6.695   4.810   3.613 -0.4406 -0.0509 -0.2445
   42MOL0     C 5664   6.552   4.795   3.615 -1.0881 -0.1648  0.0292
   42MOL0     C 5665   6.488   4.710   3.707 -0.4251 -0.3559 -0.4325
   42MOL0     O 5666   6.351   4.716   3.702  0.2954  0.3322 -0.3001
   42MOL0     C 5667   6.268   4.667   3.813 -0.0542  0.8129 -0.4371
   42MOL0     C 5668   6.244   4.787   3.914  0.2215  0.0054  0.3918
   42MOL0     C 5669   6.182   4.722   4.042 -0.6815 -0.6044  0.0826
   42MOL0     C 5670   6.153   4.828   4.150  0.1651  0.1134 -0.5256
   42MOL0     C 5671   6.068   4.768   4.268 -0.0323 -0.2907 -0.6932
   42MOL0     C 5672   6.055   4.879   4.381 -0.6426 -0.8224  0.2832
   42MOL0     C 5673   5.978   5.009   4.347 -1.0353  0.4408 -0.4581
   42MOL0     C 5674   5.942   5.091   4.474  0.4824  0.0303  0.1773
   42MOL0     N 5675   6.064   5.145   4.533  0.0153  0.4459 -0.2162
   42MOL0     C 5676   6.096   5.176   4.663 -0.4402 -0.9544  0.4870
   42MOL0     C 5677   6.213   5.246   4.656 -0.7786 -1.2035 -0.1089
   42MOL0     C 5678   6.294   5.298   4.779  0.1159  0.5675  0.3466
   42MOL0     C 5679   6.446   5.325   4.765  0.1659 -0.6760  0.5529
   42MOL0     C 5680   6.523   5.340   4.896  0.3250 -0.1541 -0.6453
   42MOL0     C 5681   6.541   5.479   4.936 -0.2188 -0.9543  0.2960
   42MOL0     O 5682   6.655   5.507   5.024  0.8740  0.1380 -0.3203
   42MOL0     C 5683   6.777   5.527   4.966  0.2064  0.7700  0.4649
   42MOL0     C 5684   6.809   5.524   4.826 -0.6596  0.3004  0.1451
   42MOL0     C 5685   6.941   5.555   4.783 -0.0238 -0.2093  0.3537
   42MOL0     C 5686   6.959   5.539   4.630 -0.0876 -0.3742 -0.1004
   42MOL0     C 5687   7.041   5.584   4.877  0.5763  0.5561 -0.2001
   42MOL0     C 5688   7.179   5.598   4.842 -0.7419  0.0029  0.1520
   42MOL0     O 5689   7.250   5.703   4.898  0.1207 -0.0852  0.2696
   42MOL0     C 5690   7.377   5.710   4.854 -0.0154 -0.4316  0.0556
   42MOL0     C 5691   7.417   5.828   4.803  0.3216 -0.0639  0.1806
   42MOL0     C 5692   7.545   5.856   4.773 -0.3866 -0.0846  0.8025
   42MOL0     C 5693   7.649   5.756   4.787 -0.6016  0.2027 -0.6879
   42MOL0     O 5694   7.770   5.794   4.750 -0.5342 -0.1154 -0.7781
   42MOL0     C 5695   7.889   5.730   4.797  0.2931  0.0272 -0.6851
   42MOL0     C 5696   7.919   5.782   4.936  1.0511 -0.4062 -1.0312
   42MOL0     C 5697   7.960   5.932   4.941  0.5600  0.1662  0.2258
   42MOL0     C 5698   7.846   6.013   5.000  0.6047 -0.0023  0.3818
   42MOL0     C 5699   7.871   6.167   4.977 -0.5489 -0.8963 -0.4428
   42MOL0     C 5700   7.784   6.255   5.071  0.0464  1.1889  0.9090
   42MOL0     C 5701   7.638   6.253   5.045 -0.1230  0.1554 -0.4470
   42MOL0     C 5702   7.589   6.311   4.909 -0.0070  0.2182 -0.1108
   42MOL0    Cl 5703   7.630   6.485   4.911  0.1390  0.2210 -0.0374
   42MOL0     C 5704   7.608   5.633   4.845  0.6873 -0.5381 -0.2815
   42MOL0     C 5705   7.474   5.609   4.881 -0.1157 -0.3140  0.9864
   42MOL0     O 5706   7.226   5.513   4.766 -0.2713  1.1386  0.6998
   42MOL0     C 5707   7.009   5.608   5.014 -0.4288 -0.0570  0.1965
   42MOL0     C 5708   6.878   5.582   5.052 -0.0199  0.5545 -0.6011
   42MOL0     N 5709   6.249   5.268   4.523 -0.1625 -0.5011 -0.0497
   42MOL0     N 5710   6.155   5.208   4.450 -0.2248 -0.9418  0.1706
   42MOL0     C 5711   6.567   4.634   3.792 -0.6824 -0.2797  1.0035
   42MOL0     C 5712   6.705   4.657   3.788  1.1739  0.4320  0.1782
   42MOL0     C 5713   7.141   4.760   3.674 -0.4497 -0.1442  0.2221
   42MOL0     C 5714   7.149   4.899   3.695 -0.2986 -0.1685  0.5100
   42MOL0     C 5715   7.275   4.955   3.699 -0.2845 -0.1533  0.8198
   42MOL0     C 5716   7.391   4.888   3.658 -0.5928 -0.1383 -0.1465
   42MOL0     O 5717   7.516   4.949   3.667  0.2222  0.7225 -0.2521
   42MOL0     C 5718   7.553   5.025   3.786 -0.0193  0.4188  0.4025
   42MOL0     C 5719   7.629   5.154   3.756 -0.4588 -0.3902  0.9053
   42MOL0     C 5720   7.523   5.264   3.730 -0.6666 -0.1619  0.5296
   42MOL0     C 5721   7.443   5.308   3.855  0.4459  0.0675  0.1657
   42MOL0     C 5722   7.508   5.373   3.966 -0.2626 -0.2301 -0.3581
   42MOL0     C 5723   7.568   5.415   4.065 -0.5679 -0.1079  0.7971
   42MOL0     C 5724   7.378   4.755   3.614  1.1854 -0.4232  0.3920
   42MOL0     C 5725   7.257   4.689   3.629 -0.2977 -0.1125  0.6820
   42MOL0     C 5726   7.254   4.545   3.585  0.3893  0.0982  0.7156
   42MOL0     H 5727   6.747   4.876   3.544  0.6042 -0.8331 -0.2234
   42MOL0     H 5728   6.473   4.826   3.547 -1.6265 -2.7574 -0.6351
   42MOL0     H 5729   6.307   4.575   3.858  0.2074  0.0284 -2.1498
   42MOL0     H 5730   6.174   4.637   3.767  0.1992 -1.2954  0.3100
   42MOL0     H 5731   6.343   4.827   3.937  0.0595  1.2593 -0.9800
   42MOL0     H 5732   6.184   4.862   3.863 -1.8019 -1.4112  0.5255
   42MOL0     H 5733   6.092   4.670   4.008  0.3169 -0.7566 -2.6537
   42MOL0     H 5734   6.247   4.643   4.083  1.5524  0.0879 -1.8532
   42MOL0     H 5735   6.245   4.872   4.190 -0.8920 -0.0707  2.3786
   42MOL0     H 5736   6.089   4.910   4.117 -1.9526 -2.0776 -2.1500
   42MOL0     H 5737   6.120   4.686   4.319  0.8111 -0.4660 -1.7699
   42MOL0     H 5738   5.973   4.732   4.228 -0.8701 -0.7613  1.6202
   42MOL0     H 5739   6.011   4.833   4.470  0.8341 -3.0356 -0.0282
   42MOL0     H 5740   6.155   4.920   4.396 -0.9394  0.2825 -0.6430
   42MOL0     H 5741   5.888   4.972   4.295 -1.6345  2.0599 -0.6098
   42MOL0     H 5742   6.033   5.064   4.270 -0.3644  1.0514  0.4354
   42MOL0     H 5743   5.872   5.172   4.450 -0.0689 -0.9274 -1.5719
   42MOL0     H 5744   5.884   5.039   4.551 -3.0563  2.7304 -0.3802
   42MOL0     H 5745   6.048   5.143   4.754 -0.1392 -1.3242  0.5154
   42MOL0     H 5746   6.275   5.237   4.868  1.7446  2.9544  2.4608
   42MOL0     H 5747   6.243   5.390   4.809 -1.9224 -0.3831 -0.0310
   42MOL0     H 5748   6.495   5.240   4.716 -0.2070  0.1560 -1.3765
   42MOL0     H 5749   6.459   5.406   4.693 -0.1600 -1.1785 -0.0884
   42MOL0     H 5750   6.464   5.290   4.973  0.0498  0.5080 -0.4169
   42MOL0     H 5751   6.620   5.289   4.894  0.6680  0.4671 -0.5088
   42MOL0     H 5752   6.555   5.540   4.846  1.4422  0.2927  1.3465
   42MOL0     H 5753   6.449   5.505   4.990 -1.2217  0.2162 -1.8558
   42MOL0     H 5754   6.733   5.492   4.755 -1.2432  2.6037 -0.3615
   42MOL0     H 5755   7.040   5.603   4.593  1.2527 -1.1043  1.4077
   42MOL0     H 5756   6.869   5.578   4.582 -0.6429  0.0591  1.2323
   42MOL0     H 5757   6.976   5.432   4.614  1.3880  0.0054 -1.3251
   42MOL0     H 5758   7.348   5.911   4.796  0.0794 -0.3326 -0.6696
   42MOL0     H 5759   7.580   5.951   4.733  1.7948 -1.9289 -2.0289
   42MOL0     H 5760   7.881   5.621   4.802  1.7973 -0.1100 -0.8352
   42MOL0     H 5761   7.973   5.744   4.728  1.9359 -3.1749  0.4379
   42MOL0     H 5762   7.828   5.769   4.995  1.8050  1.6148  0.6988
   42MOL0     H 5763   7.997   5.724   4.987 -0.0990 -1.4247 -0.3605
   42MOL0     H 5764   7.985   5.970   4.842  1.6534 -0.8178  0.1080
   42MOL0     H 5765   8.048   5.930   5.006 -0.4056  1.3237  1.6617
   42MOL0     H 5766   7.847   6.010   5.110 -2.9724 -0.9887  0.5310
   42MOL0     H 5767   7.748   5.978   4.966 -0.4571  1.5818  1.6460
   42MOL0     H 5768   7.969   6.200   5.010 -1.7034  1.9127  0.4905
   42MOL0     H 5769   7.856   6.190   4.871 -1.6576 -0.6334 -0.2412
   42MOL0     H 5770   7.830   6.351   5.047  1.3953  0.6732  1.2971
   42MOL0     H 5771   7.818   6.240   5.174 -0.0202  1.1697  0.9287
   42MOL0     H 5772   7.603   6.311   5.131  3.4626  2.2798 -0.2048
   42MOL0     H 5773   7.599   6.152   5.062  0.3072  0.2860  1.4930
   42MOL0     H 5774   7.483   6.290   4.893 -0.1443  0.9757 -0.2296
   42MOL0     H 5775   7.642   6.264   4.826  1.9039  1.0403  0.5879
   42MOL0     H 5776   7.683   5.558   4.870  1.1811 -0.6642 -1.9802
   42MOL0     H 5777   7.451   5.516   4.931  1.8316 -0.5924  1.4248
   42MOL0     H 5778   7.074   5.656   5.086  0.4571  2.3271 -2.0386
   42MOL0     H 5779   6.861   5.593   5.159 -1.2064 -0.3177 -0.6734
   42MOL0     H 5780   6.528   4.559   3.860  0.5381 -1.6771  0.2492
   42MOL0     H 5781   6.763   4.585   3.846  0.9798  0.9848  1.0738
   42MOL0     H 5782   7.058   4.955   3.715  1.2786  2.1756  1.5856
   42MOL0     H 5783   7.287   5.057   3.735  3.5000  0.8025 -2.4478
   42MOL0     H 5784   7.458   5.041   3.837 -1.7673  0.9279 -2.7089
   42MOL0     H 5785   7.616   4.960   3.847 -0.9895  1.5608  2.7398
   42MOL0     H 5786   7.695   5.148   3.669  0.0903 -2.2627  1.3910
   42MOL0     H 5787   7.695   5.171   3.842  0.4429 -1.9579  0.5561
   42MOL0     H 5788   7.579   5.351   3.695 -0.1915  1.0001  3.7703
   42MOL0     H 5789   7.448   5.241   3.654  0.2332  0.5899 -0.6199
   42MOL0     H 5790   7.378   5.232   3.901  1.2644 -1.6752 -1.4265
   42MOL0     H 5791   7.365   5.376   3.818  0.7688  1.3703  1.7968
   42MOL0     H 5792   7.620   5.451   4.151  0.6887  0.3581 -0.1301
   42MOL0     H 5793   7.463   4.716   3.557  0.6193 -0.2496 -0.5952
   42MOL0     H 5794   7.199   4.533   3.491 -1.3308 -0.7714  1.7888
   42MOL0     H 5795   7.355   4.504   3.570 -0.3830 -1.0452 -2.0929
   42MOL0     H 5796   7.214   4.467   3.651  0.3830 -1.0882 -0.6298
   43MOL0     O 5797   8.014   7.117   4.043  0.7984 -0.2490 -0.3533
   43MOL0     C 5798   7.926   7.060   4.113 -0.1183  0.6815  0.0458
   43MOL0     O 5799   7.935   6.927   4.138 -0.2258  0.4346  0.0953
   43MOL0     C 5800   8.047   6.859   4.086 -0.5076 -0.3837  0.5255
   43MOL0     C 5801   8.151   6.813   4.162 -0.7664  0.3182 -0.1454
   43MOL0     C 5802   8.245   6.728   4.104  0.1226  0.1434  0.2122
   43MOL0     C 5803   8.230   6.691   3.964 -0.2272  0.8303 -0.0989
   43MOL0     O 5804   8.322   6.606   3.904  0.0470  0.0748 -0.1600
   43MOL0     C 5805   8.346   6.612   3.765  0.5439  0.0222  0.2277
   43MOL0     C 5806   8.492   6.569   3.730 -0.0087  0.6896  0.1634
   43MOL0     C 5807   8.498   6.415   3.731  0.7789  0.4477  0.4341
   43MOL0     C 5808   8.639   6.360   3.700  0.3818  0.4647  0.1034
   43MOL0     C 5809   8.758   6.411   3.798  0.1126 -0.0589 -0.5986
   43MOL0     C 5810   8.877   6.318   3.777 -0.4176 -0.7934  0.0480
   43MOL0     C 5811   8.988   6.370   3.876 -0.3130 -0.2421  0.0198
   43MOL0     C 5812   9.118   6.299   3.855 -0.2355 -0.0348  0.2927
   43MOL0     N 5813   9.123   6.157   3.888 -0.1617 -0.2892  0.2205
   43MOL0     C 5814   9.114   6.057   3.795 -0.0731 -0.3983 -0.1309
   43MOL0     C 5815   9.126   5.948   3.874 -0.7049  0.4336 -0.8552
   43MOL0     C 5816   9.124   5.802   3.834 -0.4645 -0.2834 -0.6414
   43MOL0     C 5817   9.269   5.749   3.837 -0.6676  0.0414  0.1032
   43MOL0     C 5818   9.286   5.624   3.753  0.4460 -0.6044  0.9524
   43MOL0     C 5819   9.414   5.548   3.775  0.8997 -0.1505 -0.0768
   43MOL0     O 5820   9.525   5.622   3.717 -0.3567 -0.3554  0.3742
   43MOL0     C 5821   9.645   5.599   3.774 -0.5153 -0.7727 -0.0536
   43MOL0     C 5822   9.747   5.561   3.687  0.5753 -0.7686 -0.1143
   43MOL0     C 5823   9.881   5.549   3.734 -0.4312  0.3760  0.1331
   43MOL0     C 5824   9.983   5.496   3.625 -0.4498 -0.0636  0.2428
   43MOL0     C 5825   9.916   5.583   3.870  0.2683 -0.6205  1.0228
   43MOL0     C 5826  10.047   5.592   3.925  0.0435 -0.2495  0.6747
   43MOL0     O 5827  10.061   5.639   4.053 -0.3385 -0.3803  0.6480
   43MOL0     C 5828  10.161   5.610   4.147  0.1065  0.0395  0.1933
   43MOL0     C 5829  10.182   5.699   4.252  0.5722 -0.2409 -0.0335
   43MOL0     C 5830  10.286   5.692   4.345  0.0722 -0.2467  0.1620
   43MOL0     C 5831  10.369   5.580   4.341  0.2749  0.6421  0.4235
   43MOL0     O 5832  10.468   5.562   4.435 -0.0621  0.2327  0.0605
   43MOL0     C 5833  10.590   5.492   4.407 -0.1063  0.5160 -0.5552
   43MOL0     C 5834  10.683   5.521   4.529  0.1332  0.2716  0.3510
   43MOL0     C 5835  10.808   5.430   4.533 -0.2753 -0.1621  0.2545
   43MOL0     C 5836  10.938   5.514   4.562  0.1816 -0.3461 -0.3755
   43MOL0     C 5837  11.058   5.423   4.598 -0.3852 -0.8161 -0.2061
   43MOL0     C 5838  11.082   5.299   4.505 -0.0572 -0.5116 -0.2692
   43MOL0     C 5839  11.215   5.227   4.539  0.1739 -0.1867  0.7063
   43MOL0     C 5840  11.227   5.107   4.434  0.1562 -0.3443  0.0709
   43MOL0    Cl 5841  11.385   5.043   4.442  0.1105  0.0980  0.1224
   43MOL0     C 5842  10.346   5.490   4.237 -0.4519 -0.2701  0.9866
   43MOL0     C 5843  10.248   5.498   4.145  0.1147 -0.2367  1.2757
   43MOL0     O 5844  10.133   5.538   3.859  0.1401  1.1082  0.4553
   43MOL0     C 5845   9.806   5.631   3.948  0.4635 -0.1256  0.2294
   43MOL0     C 5846   9.674   5.646   3.902  0.0502  0.1957 -1.0010
   43MOL0     N 5847   9.160   5.983   4.002  0.8429  0.3446  0.2476
   43MOL0     N 5848   9.162   6.110   4.011  0.5531 -0.0557 -0.0509
   43MOL0     C 5849   8.136   6.742   3.889  1.3982 -0.2073 -0.8662
   43MOL0     C 5850   8.036   6.824   3.954 -0.0996 -0.0843  0.1494
   43MOL0     C 5851   7.816   7.134   4.183 -0.7799 -0.1379  0.1830
   43MOL0     C 5852   7.718   7.059   4.259  0.3005 -0.1621  0.1491
   43MOL0     C 5853   7.618   7.121   4.329 -0.2812 -0.3625 -0.5988
   43MOL0     C 5854   7.598   7.258   4.326  0.1640 -0.0495  0.7574
   43MOL0     O 5855   7.491   7.310   4.385 -0.6147  0.2019  0.7156
   43MOL0     C 5856   7.474   7.453   4.389  1.2638 -0.2783  0.8021
   43MOL0     C 5857   7.359   7.493   4.493 -0.2934  1.0510  0.9569
   43MOL0     C 5858   7.226   7.429   4.469  0.0879 -0.1192  1.1099
   43MOL0     C 5859   7.161   7.486   4.340  0.1308 -0.2043  0.8473
   43MOL0     C 5860   7.010   7.474   4.338 -0.0185 -0.6907 -0.4324
   43MOL0     C 5861   6.896   7.444   4.344 -0.4535 -0.0868 -0.2585
   43MOL0     C 5862   7.693   7.326   4.254 -0.0670 -0.1289  0.1104
   43MOL0     C 5863   7.802   7.270   4.184  0.3409 -0.7102  0.2533
   43MOL0     C 5864   7.898   7.366   4.115  0.2461 -0.1289 -0.3905
   43MOL0     H 5865   8.155   6.835   4.269  0.1224 -0.3611 -0.0270
   43MOL0     H 5866   8.333   6.694   4.159  0.1677  0.1550  0.1474
   43MOL0     H 5867   8.325   6.716   3.739 -0.1366  0.0141  0.7229
   43MOL0     H 5868   8.278   6.544   3.713  2.5353 -0.8305 -1.3911
   43MOL0     H 5869   8.524   6.601   3.631  1.0013  0.9725  0.5738
   43MOL0     H 5870   8.563   6.605   3.804  0.4376  2.5159 -1.0885
   43MOL0     H 5871   8.465   6.375   3.827  1.4994  1.5352  1.1601
   43MOL0     H 5872   8.426   6.386   3.653 -3.0520  3.5922  2.4012
   43MOL0     H 5873   8.617   6.253   3.699 -1.4163  0.7848 -1.3270
   43MOL0     H 5874   8.662   6.395   3.599 -0.8233  0.8982 -0.0346
   43MOL0     H 5875   8.715   6.413   3.899  1.3495  0.3400 -0.0638
   43MOL0     H 5876   8.785   6.516   3.782 -0.7938  0.6996  2.1558
   43MOL0     H 5877   8.840   6.219   3.806 -3.4672  1.4765  5.7060
   43MOL0     H 5878   8.913   6.321   3.674 -1.5937  3.7591 -0.4461
   43MOL0     H 5879   8.957   6.357   3.980 -1.5731  0.0046 -0.3121
   43MOL0     H 5880   9.016   6.474   3.858 -0.7647 -0.1510 -0.1556
   43MOL0     H 5881   9.135   6.313   3.747 -0.2694  1.2939  0.4348
   43MOL0     H 5882   9.191   6.359   3.910 -0.3346  0.6777 -0.3273
   43MOL0     H 5883   9.071   6.065   3.696 -0.8962 -0.1750  0.2330
   43MOL0     H 5884   9.062   5.789   3.745 -4.4786 -0.6626  1.9600
   43MOL0     H 5885   9.076   5.729   3.900 -2.3394 -1.8561 -3.5158
   43MOL0     H 5886   9.341   5.818   3.792 -0.5388  0.9957  1.7030
   43MOL0     H 5887   9.304   5.723   3.938  0.7062  1.2022 -0.0376
   43MOL0     H 5888   9.196   5.563   3.762 -0.6503  0.7403 -0.5483
   43MOL0     H 5889   9.299   5.648   3.648  0.6683 -2.3441  0.5472
   43MOL0     H 5890   9.424   5.531   3.882 -0.9366  0.0104  0.1516
   43MOL0     H 5891   9.414   5.450   3.727  2.2322  0.0755 -0.5698
   43MOL0     H 5892   9.728   5.541   3.583 -2.4123 -0.1372  0.2065
   43MOL0     H 5893  10.069   5.561   3.607 -1.3860  0.6766 -1.8235
   43MOL0     H 5894   9.931   5.486   3.529  0.8032  1.5376 -0.6487
   43MOL0     H 5895  10.019   5.396   3.650  1.4686 -0.0578 -2.1596
   43MOL0     H 5896  10.109   5.778   4.267 -3.6824 -3.9714  0.8904
   43MOL0     H 5897  10.303   5.775   4.413  0.6357 -0.2726  0.0634
   43MOL0     H 5898  10.581   5.384   4.424  0.0972  0.8055  1.8288
   43MOL0     H 5899  10.632   5.518   4.310  0.0682 -1.5946 -1.1056
   43MOL0     H 5900  10.726   5.621   4.514  0.6061  0.1273  0.7340
   43MOL0     H 5901  10.623   5.534   4.621 -0.3699  0.0460  0.0600
   43MOL0     H 5902  10.815   5.380   4.436  0.0757  0.9007 -0.2791
   43MOL0     H 5903  10.786   5.351   4.606 -0.9603  0.6045  0.8858
   43MOL0     H 5904  10.915   5.578   4.647  0.5932 -0.3890 -0.2332
   43MOL0     H 5905  10.970   5.569   4.473  4.0408  0.1033  1.1034
   43MOL0     H 5906  11.140   5.494   4.596  0.1434 -1.2783  1.9123
   43MOL0     H 5907  11.048   5.398   4.705 -1.6534  2.0855  0.4418
   43MOL0     H 5908  11.104   5.341   4.406 -2.8970  0.9370 -0.3613
   43MOL0     H 5909  10.994   5.234   4.504  0.4627 -1.2693  0.9359
   43MOL0     H 5910  11.185   5.188   4.637 -2.9309  0.9923  0.3492
   43MOL0     H 5911  11.301   5.294   4.536  1.0309 -1.2595  0.7838
   43MOL0     H 5912  11.218   5.131   4.327  2.2985 -3.5460 -0.9906
   43MOL0     H 5913  11.142   5.041   4.455  0.5521 -1.1559 -0.8143
   43MOL0     H 5914  10.407   5.402   4.224  1.1079  0.7503  1.1790
   43MOL0     H 5915  10.238   5.415   4.075  1.7740  1.5192 -1.2327
   43MOL0     H 5916   9.834   5.667   4.046  3.6754 -0.6044 -0.3812
   43MOL0     H 5917   9.601   5.694   3.967 -0.0696 -2.6982  1.1968
   43MOL0     H 5918   8.121   6.716   3.784  0.1642 -1.1718 -0.4742
   43MOL0     H 5919   7.954   6.861   3.894  1.1992 -0.3118 -1.8441
   43MOL0     H 5920   7.717   6.951   4.250 -0.3195 -0.0254 -2.2286
   43MOL0     H 5921   7.545   7.073   4.393  1.2974 -1.1154  0.7202
   43MOL0     H 5922   7.568   7.498   4.424  2.0871 -1.6451  0.4303
   43MOL0     H 5923   7.446   7.485   4.289  0.5804 -2.7917  0.1185
   43MOL0     H 5924   7.345   7.601   4.487  1.3662  1.1966 -2.5899
   43MOL0     H 5925   7.383   7.458   4.594  3.7095 -1.8558 -0.7104
   43MOL0     H 5926   7.227   7.320   4.467 -1.8842 -0.2348  2.9126
   43MOL0     H 5927   7.156   7.446   4.551 -1.1126 -0.6630  0.2372
   43MOL0     H 5928   7.194   7.431   4.251 -3.1609  0.7236 -1.1187
   43MOL0     H 5929   7.193   7.590   4.335 -1.3295  0.3197  1.8811
   43MOL0     H 5930   6.799   7.407   4.373 -1.2511  2.2751  0.3126
   43MOL0     H 5931   7.683   7.434   4.245  2.3562  0.4045  2.6064
   43MOL0     H 5932   8.003   7.340   4.133  0.1630  0.6184  1.3447
   43MOL0     H 5933   7.887   7.371   4.006  2.9212  1.1457 -0.6881
   43MOL0     H 5934   7.888   7.468   4.153  0.0119  0.5892 -2.2425
   44MOL0     O 5935   6.317   1.544   3.075  0.0163 -0.1052 -0.6620
   44MOL0     C 5936   6.285   1.565   2.965 -0.1573  0.4762  0.0696
   44MOL0     O 5937   6.368   1.556   2.853  0.6113  0.0385 -0.4285
   44MOL0     C 5938   6.504   1.551   2.877 -0.7449  0.7488  0.6450
   44MOL0     C 5939   6.571   1.674   2.875 -0.4844  0.2442  0.0439
   44MOL0     C 5940   6.705   1.677   2.896  0.2853  0.2501  0.3035
   44MOL0     C 5941   6.782   1.556   2.912  0.5852 -0.1184 -0.6672
   44MOL0     O 5942   6.917   1.549   2.940  0.6380 -0.1703 -0.0753
   44MOL0     C 5943   6.956   1.657   3.019 -0.0932  0.2683 -0.7246
   44MOL0     C 5944   7.083   1.620   3.093 -0.1706 -0.5892 -0.6365
   44MOL0     C 5945   7.131   1.743   3.180  0.5897  0.3976  0.7919
   44MOL0     C 5946   7.267   1.710   3.246 -0.4462  0.2664 -0.1110
   44MOL0     C 5947   7.394   1.702   3.144  0.1291  0.1450  0.4014
   44MOL0     C 5948   7.536   1.698   3.218  1.1016  0.2160  0.2138
   44MOL0     C 5949   7.640   1.633   3.130  0.0420 -0.7462  0.6403
   44MOL0     C 5950   7.650   1.669   2.985  0.1890 -0.5647 -0.6521
   44MOL0     N 5951   7.688   1.813   2.996 -0.2516  0.5355 -0.2886
   44MOL0     C 5952   7.816   1.860   3.034 -0.7421 -0.5894  0.2544
   44MOL0     C 5953   7.792   1.993   3.023  0.5159  0.7756  0.4855
   44MOL0     C 5954   7.899   2.095   3.048  0.6110  1.0953 -0.2807
   44MOL0     C 5955   7.849   2.238   3.045 -0.1958  0.0316  0.3295
   44MOL0     C 5956   7.954   2.332   3.110 -0.5936  0.1331 -0.0411
   44MOL0     C 5957   8.102   2.343   3.045  0.1952  0.4404  0.0686
   44MOL0     O 5958   8.168   2.445   3.116  0.2323  0.1977  0.5676
   44MOL0     C 5959   8.300   2.443   3.116  0.9244 -0.5851  0.9008
   44MOL0     C 5960   8.369   2.528   3.209 -0.5789  0.1041  0.5717
   44MOL0     C 5961   8.514   2.542   3.217 -0.0204  0.6477 -0.6222
   44MOL0     C 5962   8.574   2.631   3.321  0.1054  0.0746  0.0819
   44MOL0     C 5963   8.593   2.460   3.136  0.8412 -1.0591  0.8258
   44MOL0     C 5964   8.741   2.461   3.140 -0.3425  0.2655  0.4581
   44MOL0     O 5965   8.799   2.430   3.008  0.5768  1.0493 -0.1453
   44MOL0     C 5966   8.935   2.435   2.980  0.3383 -0.1026  0.5977
   44MOL0     C 5967   9.003   2.329   2.919  0.3639 -0.5955 -0.2256
   44MOL0     C 5968   9.136   2.337   2.886  0.7586  0.2390 -0.3361
   44MOL0     C 5969   9.212   2.453   2.913  0.4596  0.1008  0.1796
   44MOL0     O 5970   9.348   2.459   2.880  0.0987 -0.2603  0.4329
   44MOL0     C 5971   9.434   2.559   2.940  0.8492 -0.7163  0.6302
   44MOL0     C 5972   9.579   2.544   2.907  0.5893 -0.6913  0.3512
   44MOL0     C 5973   9.650   2.640   3.002  0.0543 -0.0142  0.1886
   44MOL0     C 5974   9.799   2.636   2.971  0.4672 -0.4895 -0.8224
   44MOL0     C 5975   9.871   2.757   3.028  1.1483 -0.3423  0.1788
   44MOL0     C 5976   9.891   2.727   3.178  0.6985  0.1427 -0.4269
   44MOL0     C 5977   9.955   2.845   3.259  0.1499 -0.3365 -0.1029
   44MOL0     C 5978  10.109   2.860   3.237 -0.6124 -0.8285 -0.1103
   44MOL0    Cl 5979  10.181   2.970   3.360 -0.2471 -0.2372 -0.4202
   44MOL0     C 5980   9.139   2.558   2.983 -0.7987  1.1797  0.7447
   44MOL0     C 5981   9.007   2.549   3.013  0.6998  0.1591 -0.3687
   44MOL0     O 5982   8.803   2.493   3.238  0.4501 -0.3132  0.4806
   44MOL0     C 5983   8.526   2.381   3.042  0.8377  0.2009  0.4406
   44MOL0     C 5984   8.386   2.368   3.035  0.6471 -0.2526  0.4177
   44MOL0     N 5985   7.674   2.023   2.959  1.2969  0.1369  0.0675
   44MOL0     N 5986   7.614   1.916   2.955  0.0625 -0.0192  0.4610
   44MOL0     C 5987   6.720   1.437   2.884 -0.0953  0.6741 -0.4094
   44MOL0     C 5988   6.580   1.430   2.879  0.5149 -0.1740  0.1989
   44MOL0     C 5989   6.140   1.584   2.942 -0.3385  0.1635  0.3632
   44MOL0     C 5990   6.079   1.526   2.831 -0.3464  0.0577  0.5910
   44MOL0     C 5991   5.942   1.549   2.796  0.9151 -0.7012 -1.3140
   44MOL0     C 5992   5.868   1.640   2.871  0.0312  0.2214  0.1213
   44MOL0     O 5993   5.738   1.649   2.828 -1.2217  0.4483 -0.2448
   44MOL0     C 5994   5.683   1.783   2.822  0.1138 -0.1479  0.2332
   44MOL0     C 5995   5.737   1.855   2.698  0.1258  0.4943  0.2232
   44MOL0     C 5996   5.725   1.782   2.559 -1.1259  0.8467  0.1724
   44MOL0     C 5997   5.605   1.798   2.479  0.7065 -0.1093 -0.0649
   44MOL0     C 5998   5.607   1.734   2.342 -0.2694  0.6416 -0.0024
   44MOL0     C 5999   5.609   1.676   2.240 -1.1835 -0.4627  0.3740
   44MOL0     C 6000   5.926   1.698   2.985  0.8269 -0.1772  0.4590
   44MOL0     C 6001   6.058   1.661   3.025 -0.2909 -0.7322  0.0472
   44MOL0     C 6002   6.119   1.727   3.147 -0.2410 -1.0144  0.3164
   44MOL0     H 6003   6.525   1.770   2.856 -0.5148 -0.1961 -2.4914
   44MOL0     H 6004   6.756   1.771   2.915  3.3353 -1.1768 -0.2436
   44MOL0     H 6005   6.886   1.674   3.101  1.5088 -0.3565  0.8431
   44MOL0     H 6006   6.969   1.754   2.971  0.4681  1.8556  2.3903
   44MOL0     H 6007   7.076   1.520   3.138  1.0745  0.1159  1.2845
   44MOL0     H 6008   7.162   1.610   3.019  0.8627  0.1094  0.3309
   44MOL0     H 6009   7.131   1.832   3.117  1.7829 -0.6052 -0.6997
   44MOL0     H 6010   7.058   1.754   3.261 -0.5516 -0.5614 -0.0729
   44MOL0     H 6011   7.292   1.788   3.318 -0.1954 -0.7874  0.9822
   44MOL0     H 6012   7.245   1.617   3.298  0.7758 -0.0940 -0.1882
   44MOL0     H 6013   7.385   1.785   3.074  0.3638 -0.1316  0.0356
   44MOL0     H 6014   7.386   1.607   3.090  0.3748 -0.8885  2.1215
   44MOL0     H 6015   7.548   1.800   3.256  0.8893  0.6030 -0.7163
   44MOL0     H 6016   7.537   1.646   3.314  1.7533 -0.2791 -0.0582
   44MOL0     H 6017   7.630   1.524   3.133 -1.0859 -0.6974 -0.5921
   44MOL0     H 6018   7.739   1.648   3.175  0.3243 -2.0527  0.5192
   44MOL0     H 6019   7.730   1.615   2.935  0.7440 -1.6318  1.2870
   44MOL0     H 6020   7.557   1.655   2.929  1.4131  1.3739 -3.4142
   44MOL0     H 6021   7.914   1.817   3.053  0.1291 -0.6116 -3.4465
   44MOL0     H 6022   7.983   2.081   2.979 -0.5355  1.0433 -1.6960
   44MOL0     H 6023   7.932   2.075   3.151  2.1013  1.2746 -0.6995
   44MOL0     H 6024   7.817   2.262   2.943 -1.2677  4.3673  1.4607
   44MOL0     H 6025   7.752   2.238   3.096 -1.1503  3.1588 -1.1836
   44MOL0     H 6026   7.913   2.433   3.113  1.1688  0.8839  3.0329
   44MOL0     H 6027   7.970   2.303   3.214 -1.9896 -0.4570  0.0388
   44MOL0     H 6028   8.149   2.246   3.063 -1.4104 -0.2420  0.8104
   44MOL0     H 6029   8.089   2.368   2.940  1.3508  4.4555  0.7055
   44MOL0     H 6030   8.310   2.585   3.279  0.2562 -1.4160  2.5895
   44MOL0     H 6031   8.625   2.566   3.393 -1.5216 -2.3427 -0.8136
   44MOL0     H 6032   8.490   2.679   3.373 -1.8419 -2.1658 -0.8175
   44MOL0     H 6033   8.645   2.704   3.281 -1.9222  2.7296  0.9694
   44MOL0     H 6034   8.942   2.244   2.889 -2.2366  2.3318 -4.2169
   44MOL0     H 6035   9.180   2.255   2.830 -2.4447 -1.8456 -0.0354
   44MOL0     H 6036   9.400   2.655   2.901  0.9284 -0.9605 -0.0490
   44MOL0     H 6037   9.418   2.565   3.048 -1.2757 -0.3197  0.3425
   44MOL0     H 6038   9.607   2.441   2.930 -1.3057 -0.7582  2.9173
   44MOL0     H 6039   9.599   2.575   2.805 -1.0109  1.7906  0.6986
   44MOL0     H 6040   9.631   2.616   3.107 -1.8457 -0.9810 -0.3213
   44MOL0     H 6041   9.617   2.740   2.973 -0.6837 -0.7417 -1.6600
   44MOL0     H 6042   9.816   2.633   2.863 -0.3160 -1.2362 -0.9364
   44MOL0     H 6043   9.845   2.541   2.997  0.7262 -0.9244 -2.7004
   44MOL0     H 6044   9.968   2.765   2.980  0.1795 -0.5594 -1.9438
   44MOL0     H 6045   9.810   2.844   3.001 -2.4510 -2.1751  1.5791
   44MOL0     H 6046   9.960   2.643   3.187 -0.4316 -0.7029  0.7468
   44MOL0     H 6047   9.794   2.694   3.218  0.1767 -1.0161 -2.5134
   44MOL0     H 6048   9.935   2.836   3.367  1.5567  1.2303  0.3343
   44MOL0     H 6049   9.900   2.934   3.229 -0.0696  0.7775  3.2182
   44MOL0     H 6050  10.129   2.904   3.138  2.0033 -3.1029 -0.7150
   44MOL0     H 6051  10.149   2.759   3.239 -2.1792 -1.4636  1.4989
   44MOL0     H 6052   9.187   2.654   2.998 -0.1399  1.1969 -1.1882
   44MOL0     H 6053   8.941   2.623   3.058 -2.9421 -3.0864  0.1226
   44MOL0     H 6054   8.581   2.319   2.972 -0.5690 -1.5150  0.7770
   44MOL0     H 6055   8.346   2.301   2.959 -0.4925  0.5573  0.2909
   44MOL0     H 6056   6.789   1.353   2.879  1.2872  1.8452 -1.7417
   44MOL0     H 6057   6.529   1.335   2.869  1.2669 -0.4732 -1.0456
   44MOL0     H 6058   6.121   1.455   2.760  0.6673  0.5882  0.6445
   44MOL0     H 6059   5.896   1.493   2.716  2.2835 -1.2359 -1.7596
   44MOL0     H 6060   5.574   1.770   2.811  0.4470 -2.3606 -1.0693
   44MOL0     H 6061   5.710   1.836   2.914  2.1434  1.9817 -1.4691
   44MOL0     H 6062   5.842   1.884   2.712  0.3948  0.3368 -1.3189
   44MOL0     H 6063   5.682   1.948   2.681 -1.0898 -0.4959 -1.4889
   44MOL0     H 6064   5.806   1.811   2.492 -2.3900 -2.0589 -2.8952
   44MOL0     H 6065   5.748   1.676   2.568 -1.2344  0.8665  0.7463
   44MOL0     H 6066   5.573   1.902   2.467  3.0790  0.8714  1.4268
   44MOL0     H 6067   5.518   1.748   2.523 -0.8119  0.9123 -1.7366
   44MOL0     H 6068   5.607   1.618   2.150 -0.7060  1.6194 -1.0421
   44MOL0     H 6069   5.849   1.746   3.045 -1.5997 -1.8495 -1.0868
   44MOL0     H 6070   6.147   1.647   3.216 -0.5393 -3.0669 -1.7986
   44MOL0     H 6071   6.207   1.784   3.115  1.7213 -3.0392  1.8282
   44MOL0     H 6072   6.051   1.795   3.199  2.0240  1.2441  0.5044
   45MOL0     O 6073   5.415  10.928   6.498 -0.3218 -0.1665  0.2135
   45MOL0     C 6074   5.400  11.043   6.461  0.1928 -0.5721  0.1894
   45MOL0     O 6075   5.483  11.149   6.504 -0.1547  0.0620  0.2035
   45MOL0     C 6076   5.592  11.123   6.584  0.6932 -0.9136  0.0976
   45MOL0     C 6077   5.703  11.049   6.534  0.5361  0.0332  0.5486
   45MOL0     C 6078   5.820  11.040   6.619  0.5411 -0.3496 -0.1932
   45MOL0     C 6079   5.824  11.100   6.745 -0.5370 -0.2450 -0.3526
   45MOL0     O 6080   5.935  11.094   6.814 -0.4844  0.8454  0.0381
   45MOL0     C 6081   5.923  11.063   6.955  0.6943  0.3455 -0.0083
   45MOL0     C 6082   6.060  11.002   6.996 -0.4774  0.1263 -0.2322
   45MOL0     C 6083   6.179  11.097   6.958  0.5688  0.2996 -0.0495
   45MOL0     C 6084   6.307  11.060   7.037  0.2427  1.1036  0.0254
   45MOL0     C 6085   6.419  11.133   6.960  0.4769  0.9746  0.1086
   45MOL0     C 6086   6.551  11.144   7.039  0.6406  0.2740 -0.1736
   45MOL0     C 6087   6.633  11.252   6.985 -1.1827 -0.4110 -0.6248
   45MOL0     C 6088   6.744  11.293   7.075  0.7442 -0.2828  0.1759
   45MOL0     N 6089   6.869  11.224   7.030  0.3585 -0.0255 -0.1559
   45MOL0     C 6090   6.932  11.123   7.099 -0.8049  0.1870 -0.0246
   45MOL0     C 6091   7.060  11.115   7.049 -0.2015 -0.2411  0.2331
   45MOL0     C 6092   7.161  11.014   7.078 -0.6054  0.4680  0.0758
   45MOL0     C 6093   7.311  11.056   7.047 -0.4876  0.1398 -1.1983
   45MOL0     C 6094   7.397  10.931   7.093 -0.3221 -0.4570  0.1794
   45MOL0     C 6095   7.547  10.965   7.105  0.3074  0.0245 -0.7321
   45MOL0     O 6096   7.571  11.057   7.209  0.0351 -0.5506 -0.3427
   45MOL0     C 6097   7.701  11.099   7.234 -0.0499  0.5524 -0.1052
   45MOL0     C 6098   7.714  11.195   7.337 -0.3078 -0.0031 -0.0035
   45MOL0     C 6099   7.840  11.243   7.367 -0.2665 -0.7060  0.3772
   45MOL0     C 6100   7.850  11.332   7.491 -0.0604  0.7412  0.3030
   45MOL0     C 6101   7.950  11.234   7.277  0.7471  1.5365  0.8842
   45MOL0     C 6102   8.078  11.309   7.289  0.1659  0.3975  0.2926
   45MOL0     O 6103   8.164  11.279   7.188  0.1119 -0.6136 -0.4139
   45MOL0     C 6104   8.289  11.329   7.187  0.7465 -0.8873  0.0614
   45MOL0     C 6105   8.387  11.253   7.119 -0.0707 -0.2500  0.0902
   45MOL0     C 6106   8.525  11.291   7.110 -0.6561 -0.1736  0.0154
   45MOL0     C 6107   8.562  11.415   7.161  0.6444 -0.2522  0.2260
   45MOL0     O 6108   8.695  11.453   7.140 -0.2458  0.2298 -0.5992
   45MOL0     C 6109   8.714  11.559   7.039 -0.5034  0.1066 -0.9572
   45MOL0     C 6110   8.681  11.521   6.889  0.2926  0.0225 -0.8533
   45MOL0     C 6111   8.758  11.402   6.844 -0.3656  0.3616  0.4521
   45MOL0     C 6112   8.716  11.368   6.700 -0.1205  0.8759  0.4119
   45MOL0     C 6113   8.806  11.245   6.655  0.7731  1.4024 -0.2470
   45MOL0     C 6114   8.763  11.111   6.712 -0.6809  0.5977  0.0707
   45MOL0     C 6115   8.845  10.996   6.637  0.8189  0.6837 -0.1845
   45MOL0     C 6116   8.812  10.857   6.694  0.1808  0.5207  0.9857
   45MOL0    Cl 6117   8.658  10.799   6.644  0.0767 -0.0382  0.2710
   45MOL0     C 6118   8.457  11.503   7.210 -0.0435 -1.1104 -0.2812
   45MOL0     C 6119   8.328  11.460   7.221  0.3275 -0.0915  0.2272
   45MOL0     O 6120   8.109  11.361   7.394  0.3780  0.4034 -0.0350
   45MOL0     C 6121   7.929  11.136   7.176  0.4482  0.2927  0.3795
   45MOL0     C 6122   7.811  11.068   7.151  0.9256 -0.2687  0.1523
   45MOL0     N 6123   7.060  11.210   6.945 -0.4846 -0.1164  0.5130
   45MOL0     N 6124   6.952  11.277   6.940  0.4305  0.4460 -0.3141
   45MOL0     C 6125   5.718  11.177   6.787 -0.1994 -0.2097  0.0447
   45MOL0     C 6126   5.602  11.185   6.711 -0.2174  0.0743 -0.6044
   45MOL0     C 6127   5.294  11.071   6.361 -0.1047 -1.1136  0.3067
   45MOL0     C 6128   5.183  10.988   6.356 -0.7498  0.8014  0.6855
   45MOL0     C 6129   5.079  10.999   6.268 -0.2296  0.1905  0.3898
   45MOL0     C 6130   5.076  11.098   6.171 -0.1812  0.2352 -0.1985
   45MOL0     O 6131   4.978  11.103   6.076  0.5196  0.1783 -0.4359
   45MOL0     C 6132   4.964  11.206   5.983  0.0534 -0.7712  1.0061
   45MOL0     C 6133   4.815  11.238   5.944  0.0624  0.2790 -0.1579
   45MOL0     C 6134   4.736  11.116   5.920 -0.1147  0.0437  0.3081
   45MOL0     C 6135   4.756  11.066   5.780  0.7145  0.6233 -0.1468
   45MOL0     C 6136   4.658  10.964   5.751  0.3236  0.0525 -0.8090
   45MOL0     C 6137   4.583  10.873   5.724  0.1935 -0.1401 -0.5601
   45MOL0     C 6138   5.193  11.181   6.169  0.3113 -0.1061  0.2592
   45MOL0     C 6139   5.295  11.176   6.269  0.2860 -0.1115  0.9560
   45MOL0     C 6140   5.395  11.285   6.265  0.6738 -0.3768  0.3333
   45MOL0     H 6141   5.692  10.995   6.441  0.8528 -1.6613  1.4524
   45MOL0     H 6142   5.904  10.983   6.580  0.3251  0.8206 -2.4825
   45MOL0     H 6143   5.839  10.998   6.977 -0.3752  1.8357  0.4852
   45MOL0     H 6144   5.919  11.150   7.021 -0.9867  0.7123 -0.5412
   45MOL0     H 6145   6.063  10.989   7.104  1.3192  0.3455 -0.2210
   45MOL0     H 6146   6.083  10.907   6.947  1.7853  0.1519  0.6482
   45MOL0     H 6147   6.193  11.106   6.850 -3.0021  3.7813 -0.4434
   45MOL0     H 6148   6.155  11.200   6.986 -4.0712 -0.6365  0.2815
   45MOL0     H 6149   6.307  11.078   7.145 -2.0433 -0.1745  0.3130
   45MOL0     H 6150   6.329  10.953   7.033  3.5129  1.6862 -0.0095
   45MOL0     H 6151   6.396  11.235   6.930  1.8758  1.2204 -0.2125
   45MOL0     H 6152   6.442  11.074   6.870 -0.1649 -0.8691  1.0925
   45MOL0     H 6153   6.534  11.169   7.144  0.8930  4.0377 -0.8838
   45MOL0     H 6154   6.588  11.041   7.040 -1.1219 -0.4492 -1.7798
   45MOL0     H 6155   6.567  11.335   6.959 -1.4031 -0.9116 -1.7032
   45MOL0     H 6156   6.685  11.215   6.896 -1.3564  0.2180 -0.9987
   45MOL0     H 6157   6.774  11.398   7.079 -0.2354 -0.0151  1.4358
   45MOL0     H 6158   6.730  11.261   7.179  4.2655  0.7699  1.1053
   45MOL0     H 6159   6.897  11.045   7.166  0.7411 -0.8006 -0.3176
   45MOL0     H 6160   7.146  10.930   7.009  2.2960  1.1569 -1.5961
   45MOL0     H 6161   7.143  10.985   7.182  1.4395  0.3364  0.4478
   45MOL0     H 6162   7.320  11.065   6.939  1.8198 -1.6038 -1.2120
   45MOL0     H 6163   7.342  11.158   7.071  0.5836 -0.3888 -0.2331
   45MOL0     H 6164   7.361  10.919   7.196 -0.2788 -2.4658 -0.0076
   45MOL0     H 6165   7.381  10.841   7.033 -0.0071  0.0366 -0.6593
   45MOL0     H 6166   7.599  10.871   7.128 -2.5750 -0.6940  4.3017
   45MOL0     H 6167   7.582  11.005   7.010 -2.2363  0.7455 -1.4422
   45MOL0     H 6168   7.628  11.213   7.401  1.5030 -1.1514  2.9927
   45MOL0     H 6169   7.755  11.327   7.545  1.1993  0.1226  2.5483
   45MOL0     H 6170   7.865  11.435   7.457  1.3779  0.0740 -1.2533
   45MOL0     H 6171   7.925  11.297   7.562 -1.0986  0.1420  1.1438
   45MOL0     H 6172   8.361  11.154   7.083  2.0484 -0.4915 -0.9153
   45MOL0     H 6173   8.597  11.233   7.053  0.1019  0.8242 -0.0705
   45MOL0     H 6174   8.678  11.655   7.078  0.1394  0.0393 -0.1817
   45MOL0     H 6175   8.823  11.564   7.050 -0.5216 -0.8736 -0.2242
   45MOL0     H 6176   8.576  11.494   6.878  0.7186 -2.8696  1.1814
   45MOL0     H 6177   8.702  11.608   6.825  0.6778  0.8880  0.4045
   45MOL0     H 6178   8.739  11.319   6.912  1.4721 -0.0295  0.5343
   45MOL0     H 6179   8.863  11.428   6.854 -0.5954  1.6785 -0.3236
   45MOL0     H 6180   8.746  11.452   6.637 -0.7738  1.6370  1.0923
   45MOL0     H 6181   8.608  11.354   6.697 -0.0028  0.0921 -1.4670
   45MOL0     H 6182   8.800  11.246   6.546 -3.1755 -0.5982 -0.2159
   45MOL0     H 6183   8.911  11.243   6.688  0.4767 -3.9662  1.3773
   45MOL0     H 6184   8.659  11.104   6.681 -0.6146 -0.4781  0.0637
   45MOL0     H 6185   8.781  11.112   6.820  1.8615  0.4295 -0.2776
   45MOL0     H 6186   8.951  10.989   6.664  0.8712 -0.1573 -0.5887
   45MOL0     H 6187   8.823  10.997   6.530 -1.1529 -0.5843  0.1556
   45MOL0     H 6188   8.809  10.862   6.803 -2.0947  0.8278  0.9535
   45MOL0     H 6189   8.884  10.783   6.658  0.8552  2.9358 -3.3443
   45MOL0     H 6190   8.484  11.604   7.236  3.2568 -1.2337 -2.7219
   45MOL0     H 6191   8.251  11.530   7.249  0.0438 -0.6832  0.9542
   45MOL0     H 6192   7.991  11.136   7.086  1.0945 -1.7814  0.7914
   45MOL0     H 6193   7.805  11.011   7.059  0.0259 -1.5754  0.9823
   45MOL0     H 6194   5.721  11.220   6.886 -0.4570  1.5906 -0.6897
   45MOL0     H 6195   5.528  11.250   6.756  1.2267  0.3732  1.4975
   45MOL0     H 6196   5.188  10.903   6.422  1.7265 -1.0192 -1.6113
   45MOL0     H 6197   5.000  10.925   6.269  2.7251 -3.2598  1.2152
   45MOL0     H 6198   5.020  11.294   6.016  1.1897 -1.9445  2.2996
   45MOL0     H 6199   5.026  11.166   5.903 -0.3734 -1.4607  1.0110
   45MOL0     H 6200   4.814  11.295   5.850  2.0159 -1.3839 -1.2713
   45MOL0     H 6201   4.777  11.299   6.027  0.2292  0.8841 -0.5169
   45MOL0     H 6202   4.753  11.042   5.999  0.5708 -2.7103 -2.2571
   45MOL0     H 6203   4.633  11.151   5.931  0.2672  0.5338  3.2047
   45MOL0     H 6204   4.857  11.023   5.771 -0.3258 -1.6634 -1.9346
   45MOL0     H 6205   4.752  11.147   5.706  0.1431  1.0448  0.3330
   45MOL0     H 6206   4.512  10.795   5.705  2.0436 -2.0233 -0.0512
   45MOL0     H 6207   5.193  11.252   6.087 -0.3317  0.2772  0.5851
   45MOL0     H 6208   5.372  11.334   6.360 -0.5925  0.7582 -0.5191
   45MOL0     H 6209   5.492  11.234   6.262  1.3187  0.8404 -0.7113
   45MOL0     H 6210   5.370  11.350   6.180  1.8561 -0.8575 -0.3976
   46MOL0     O 6211   6.033   8.551   6.376  0.1375  0.1467 -0.8655
   46MOL0     C 6212   5.996   8.650   6.315  0.4292 -0.1118 -0.8491
   46MOL0     O 6213   6.068   8.728   6.246  0.0579 -0.5414 -0.3235
   46MOL0     C 6214   6.200   8.737   6.266  0.1189  0.0826 -0.5135
   46MOL0     C 6215   6.305   8.673   6.189  1.3949 -0.5229 -0.7017
   46MOL0     C 6216   6.435   8.722   6.213 -0.3106  0.5336  0.0896
   46MOL0     C 6217   6.470   8.810   6.318 -0.1407 -0.5951  0.0978
   46MOL0     O 6218   6.591   8.863   6.338 -0.8441 -0.1428 -0.1019
   46MOL0     C 6219   6.698   8.788   6.283 -0.6683  0.1206  0.8711
   46MOL0     C 6220   6.741   8.833   6.144  0.7073  0.1265 -0.6670
   46MOL0     C 6221   6.825   8.963   6.154 -0.5472  0.0561 -0.1140
   46MOL0     C 6222   6.920   8.993   6.032  0.1667 -0.2477  0.5398
   46MOL0     C 6223   7.021   9.106   6.067 -0.5761 -0.8310 -0.1430
   46MOL0     C 6224   7.108   9.145   5.948  0.8456 -0.0581 -0.0314
   46MOL0     C 6225   7.202   9.262   5.983  0.0569  0.2400  0.6066
   46MOL0     C 6226   7.280   9.308   5.852 -0.7818 -0.3351 -0.3395
   46MOL0     N 6227   7.373   9.204   5.814 -0.3739 -0.2223 -0.1538
   46MOL0     C 6228   7.476   9.149   5.892 -0.0351  0.3044 -0.0312
   46MOL0     C 6229   7.539   9.059   5.813 -0.1619  0.1402  0.5885
   46MOL0     C 6230   7.670   8.995   5.847 -0.4835  0.5433  0.4201
   46MOL0     C 6231   7.787   9.083   5.810 -0.5150 -0.3521  0.1629
   46MOL0     C 6232   7.922   9.031   5.848  0.6140  0.0315  0.3013
   46MOL0     C 6233   8.049   9.098   5.801  0.4367  0.0301 -0.5067
   46MOL0     O 6234   8.032   9.125   5.661  0.2745 -0.7954 -0.6975
   46MOL0     C 6235   8.142   9.147   5.589 -0.2460 -0.5673 -0.1522
   46MOL0     C 6236   8.125   9.140   5.455  0.3582 -0.6797  0.0282
   46MOL0     C 6237   8.232   9.169   5.362 -0.3843 -0.1314  0.2657
   46MOL0     C 6238   8.198   9.162   5.211  0.6216 -0.4660 -1.2834
   46MOL0     C 6239   8.366   9.193   5.413 -0.3891  0.4955 -0.4505
   46MOL0     C 6240   8.496   9.212   5.337 -0.6484  0.9321  0.3421
   46MOL0     O 6241   8.610   9.254   5.406  0.1564 -0.7318 -0.1304
   46MOL0     C 6242   8.732   9.254   5.345  0.3100  0.0828 -0.3335
   46MOL0     C 6243   8.753   9.297   5.214  0.0002 -0.5252  0.0109
   46MOL0     C 6244   8.888   9.318   5.169 -0.3169  0.2209 -0.3976
   46MOL0     C 6245   9.000   9.288   5.259 -0.0512 -0.1430  0.4274
   46MOL0     O 6246   9.133   9.312   5.229  0.7249  0.3043  0.1763
   46MOL0     C 6247   9.185   9.209   5.140  0.0131  0.2836 -0.3977
   46MOL0     C 6248   9.308   9.283   5.112 -0.4897 -0.5421  0.6265
   46MOL0     C 6249   9.408   9.295   5.239  0.9180  0.1094  0.5922
   46MOL0     C 6250   9.539   9.346   5.189 -0.2670  0.0028 -0.0215
   46MOL0     C 6251   9.652   9.354   5.297  0.3042  0.8344 -0.1088
   46MOL0     C 6252   9.795   9.347   5.237  0.4621  0.0787  0.1798
   46MOL0     C 6253   9.825   9.453   5.130  0.2368  0.1730 -0.1675
   46MOL0     C 6254   9.975   9.433   5.094 -0.5665 -0.4306 -0.5026
   46MOL0    Cl 6255  10.028   9.273   5.037  0.0506  0.1599  0.0533
   46MOL0     C 6256   8.972   9.263   5.385 -0.3801 -1.3112  0.5851
   46MOL0     C 6257   8.845   9.243   5.431 -0.3601 -0.7630  0.0397
   46MOL0     O 6258   8.489   9.184   5.216  0.4507 -0.2391  0.0966
   46MOL0     C 6259   8.377   9.210   5.557  0.6558 -0.0992  0.4856
   46MOL0     C 6260   8.269   9.185   5.646  0.1427  1.3239  0.5356
   46MOL0     N 6261   7.470   9.048   5.694  0.3045  0.3382  0.1680
   46MOL0     N 6262   7.374   9.129   5.702  0.3513 -0.2414  0.4147
   46MOL0     C 6263   6.372   8.858   6.393 -0.0094  0.0678 -0.5926
   46MOL0     C 6264   6.237   8.826   6.370 -0.2018 -0.5479  0.6044
   46MOL0     C 6265   5.854   8.687   6.330  0.0312 -0.2406  1.6533
   46MOL0     C 6266   5.819   8.811   6.267 -0.1690 -0.1384  0.3352
   46MOL0     C 6267   5.685   8.856   6.270  0.4064 -0.7517  0.6509
   46MOL0     C 6268   5.581   8.786   6.331  0.6131  0.3838 -0.5387
   46MOL0     O 6269   5.451   8.835   6.318  0.0160 -0.7885 -0.0763
   46MOL0     C 6270   5.346   8.780   6.389 -1.1528  0.6581 -0.0057
   46MOL0     C 6271   5.220   8.863   6.355  0.2294 -0.3776 -0.2742
   46MOL0     C 6272   5.097   8.843   6.444  0.6434  0.4427  0.1802
   46MOL0     C 6273   4.977   8.915   6.374 -0.6082 -0.0480  0.8654
   46MOL0     C 6274   4.848   8.860   6.415 -0.5229 -0.8201 -0.3382
   46MOL0     C 6275   4.754   8.800   6.462 -0.1829 -0.0419 -1.0194
   46MOL0     C 6276   5.619   8.658   6.385  0.4887 -0.1702 -0.3404
   46MOL0     C 6277   5.744   8.609   6.391  0.3601 -0.6022  1.5055
   46MOL0     C 6278   5.757   8.459   6.440  0.0262  0.4514  0.2506
   46MOL0     H 6279   6.275   8.607   6.109 -1.5602 -1.4538  1.0203
   46MOL0     H 6280   6.513   8.693   6.143  1.1722 -1.6892  2.4576
   46MOL0     H 6281   6.677   8.680   6.283 -0.6351  0.0812 -0.8684
   46MOL0     H 6282   6.782   8.782   6.352 -0.1261 -2.8823  0.1033
   46MOL0     H 6283   6.810   8.766   6.091  0.5483  1.4607 -2.6728
   46MOL0     H 6284   6.657   8.850   6.077  1.0317 -1.2691 -1.4654
   46MOL0     H 6285   6.751   9.043   6.157 -1.0987 -0.4148 -0.8762
   46MOL0     H 6286   6.889   8.971   6.242  1.6084  1.2440 -1.6855
   46MOL0     H 6287   6.972   8.899   6.011 -1.3716 -1.6187  2.4791
   46MOL0     H 6288   6.860   9.034   5.950  2.1816  2.4403  0.2765
   46MOL0     H 6289   7.085   9.081   6.152  0.4899 -0.7177 -0.8986
   46MOL0     H 6290   6.974   9.204   6.082  2.6161  1.4555 -3.3879
   46MOL0     H 6291   7.165   9.055   5.920 -1.6412 -1.2105 -1.7977
   46MOL0     H 6292   7.053   9.164   5.855 -0.3102 -1.3680  0.3543
   46MOL0     H 6293   7.271   9.222   6.058 -1.2567  0.0176  1.7424
   46MOL0     H 6294   7.137   9.343   6.018  0.2324  1.7669 -2.2648
   46MOL0     H 6295   7.211   9.331   5.770  0.2947 -2.3645 -1.9091
   46MOL0     H 6296   7.340   9.397   5.873 -1.8680  0.0993  1.0369
   46MOL0     H 6297   7.505   9.177   5.993  0.2077  0.0162 -0.0198
   46MOL0     H 6298   7.671   8.904   5.787 -0.6672  0.9019 -0.1280
   46MOL0     H 6299   7.673   8.969   5.954 -1.3936 -0.2624  0.2592
   46MOL0     H 6300   7.784   9.111   5.704  1.0041  2.3666  0.7306
   46MOL0     H 6301   7.767   9.186   5.842 -0.9983  0.0085 -1.1958
   46MOL0     H 6302   7.914   9.018   5.957 -0.9423 -0.1440  0.1982
   46MOL0     H 6303   7.932   8.932   5.801  0.0536  1.2265 -2.5270
   46MOL0     H 6304   8.055   9.192   5.858  2.1406  1.1417 -2.3569
   46MOL0     H 6305   8.132   9.031   5.821 -1.4361 -2.7996 -1.6569
   46MOL0     H 6306   8.028   9.107   5.418 -0.0618  2.2758 -1.9118
   46MOL0     H 6307   8.135   9.074   5.195  0.0819  0.0009 -1.7734
   46MOL0     H 6308   8.283   9.145   5.145  1.7569 -0.4867  0.1459
   46MOL0     H 6309   8.130   9.242   5.181  1.0410 -0.1615 -1.4311
   46MOL0     H 6310   8.671   9.323   5.149  1.3402 -0.6362 -1.8088
   46MOL0     H 6311   8.907   9.359   5.070 -1.0821  0.6914 -0.3537
   46MOL0     H 6312   9.201   9.116   5.195 -0.5934  1.6435  2.2309
   46MOL0     H 6313   9.120   9.191   5.054  2.5210 -0.8441 -2.1630
   46MOL0     H 6314   9.364   9.221   5.041  0.7882 -1.0514  2.0263
   46MOL0     H 6315   9.283   9.379   5.065  0.9697 -0.4964 -0.1401
   46MOL0     H 6316   9.420   9.195   5.282  1.2033 -0.4396 -0.7231
   46MOL0     H 6317   9.365   9.360   5.316  0.0120 -2.1438  2.0653
   46MOL0     H 6318   9.531   9.446   5.147  1.8940 -0.4139 -1.6343
   46MOL0     H 6319   9.587   9.288   5.109  3.6956  2.7105  0.1194
   46MOL0     H 6320   9.638   9.441   5.362 -2.2521  0.6993 -0.3913
   46MOL0     H 6321   9.639   9.272   5.367  2.9482  1.4124  1.1806
   46MOL0     H 6322   9.791   9.245   5.199  1.0294  0.1351 -0.0455
   46MOL0     H 6323   9.860   9.346   5.325  0.5127  1.1944  0.1652
   46MOL0     H 6324   9.805   9.554   5.167 -1.0210  0.0839 -0.5527
   46MOL0     H 6325   9.756   9.441   5.046 -0.3402  0.1676  0.3004
   46MOL0     H 6326  10.045   9.445   5.177  0.1939 -1.1134 -1.0265
   46MOL0     H 6327  10.016   9.500   5.018 -0.0515 -1.1100 -0.8420
   46MOL0     H 6328   9.061   9.252   5.447 -1.6302 -1.4486  2.4333
   46MOL0     H 6329   8.840   9.225   5.538  2.3473 -0.7655  0.2188
   46MOL0     H 6330   8.475   9.233   5.598  0.7074  0.9783 -0.1930
   46MOL0     H 6331   8.291   9.195   5.752  4.1823  1.8170 -0.2075
   46MOL0     H 6332   6.402   8.932   6.467 -0.9740 -0.0349 -0.0708
   46MOL0     H 6333   6.164   8.868   6.439 -1.6171 -0.4484 -0.8886
   46MOL0     H 6334   5.900   8.867   6.222 -0.2216 -0.2168  0.1416
   46MOL0     H 6335   5.669   8.948   6.215 -1.4733 -1.1915  0.3576
   46MOL0     H 6336   5.322   8.676   6.367 -1.9090  1.1646 -1.6966
   46MOL0     H 6337   5.367   8.778   6.497  0.4067 -2.7406 -0.2334
   46MOL0     H 6338   5.204   8.844   6.248 -1.5985  1.5426 -0.4173
   46MOL0     H 6339   5.248   8.969   6.351 -1.2190  0.0635  0.5413
   46MOL0     H 6340   5.072   8.737   6.443 -2.9497  1.0298 -3.9646
   46MOL0     H 6341   5.115   8.882   6.544  0.1542  2.8012 -0.5724
   46MOL0     H 6342   4.996   8.911   6.266  2.6848  2.2910  1.2074
   46MOL0     H 6343   4.977   9.023   6.387 -0.4283  0.3490 -1.8082
   46MOL0     H 6344   4.680   8.733   6.502  1.0490  0.3981  2.3507
   46MOL0     H 6345   5.533   8.598   6.412  0.2805 -0.9722 -2.5402
   46MOL0     H 6346   5.657   8.418   6.460 -1.5971  3.9801  0.1406
   46MOL0     H 6347   5.820   8.395   6.377 -1.6798 -0.4613 -0.6305
   46MOL0     H 6348   5.807   8.472   6.536 -0.1142  0.6193  0.3006
   47MOL0     O 6349   5.712   8.024   7.396  1.4207  0.4139  0.0623
   47MOL0     C 6350   5.787   8.098   7.330 -0.7110  0.0494 -0.1174
   47MOL0     O 6351   5.739   8.184   7.231  0.3768 -1.1235 -0.4820
   47MOL0     C 6352   5.603   8.180   7.227  0.3125  0.5335 -0.4967
   47MOL0     C 6353   5.534   8.241   7.332  0.7442  0.1207 -0.0930
   47MOL0     C 6354   5.399   8.248   7.341 -0.3609 -0.8153 -0.2342
   47MOL0     C 6355   5.328   8.187   7.239 -0.0520 -0.0346 -0.1905
   47MOL0     O 6356   5.196   8.180   7.237 -0.1635 -0.0167 -0.1966
   47MOL0     C 6357   5.127   8.175   7.358 -0.3449 -0.1652 -0.9399
   47MOL0     C 6358   4.986   8.171   7.331  0.5265 -0.6749 -0.3493
   47MOL0     C 6359   4.898   8.251   7.430  0.4735  0.1312 -0.7865
   47MOL0     C 6360   4.899   8.202   7.570  0.6194  0.2613 -0.1532
   47MOL0     C 6361   4.782   8.267   7.658  0.0723 -0.7296 -0.0880
   47MOL0     C 6362   4.807   8.416   7.685  0.1215 -0.7072  0.2774
   47MOL0     C 6363   4.694   8.476   7.769  0.4654  0.8196  0.2327
   47MOL0     C 6364   4.728   8.608   7.832  0.2826 -0.1135  0.1682
   47MOL0     N 6365   4.614   8.699   7.851  0.3831  0.5336 -0.3386
   47MOL0     C 6366   4.521   8.695   7.947  0.0063 -0.4024 -0.5234
   47MOL0     C 6367   4.436   8.794   7.924  0.1835  0.0017  0.3606
   47MOL0     C 6368   4.304   8.804   7.993 -0.4853 -0.2405 -0.7478
   47MOL0     C 6369   4.307   8.800   8.146  0.3235 -0.5202  0.4477
   47MOL0     C 6370   4.358   8.929   8.205 -0.4924  0.0723  0.0815
   47MOL0     C 6371   4.421   8.913   8.354  0.0447 -0.1046  0.0926
   47MOL0     O 6372   4.556   8.973   8.362 -0.3877  0.2702  0.1848
   47MOL0     C 6373   4.631   8.971   8.481  0.2075 -0.6597  0.5783
   47MOL0     C 6374   4.753   9.025   8.483 -0.9146 -0.4325 -0.5969
   47MOL0     C 6375   4.833   9.039   8.597 -1.1099  0.2004 -0.6166
   47MOL0     C 6376   4.983   9.080   8.576 -0.1332  0.4738  0.4324
   47MOL0     C 6377   4.775   8.999   8.729  0.5303  0.9500  0.4839
   47MOL0     C 6378   4.854   9.020   8.854 -0.2324  0.2066  0.2933
   47MOL0     O 6379   4.956   9.105   8.859 -0.3574 -1.0253 -0.4045
   47MOL0     C 6380   5.036   9.088   8.973 -0.3907  0.1968 -0.3466
   47MOL0     C 6381   5.112   8.973   9.009  0.2964 -0.1492 -0.3529
   47MOL0     C 6382   5.177   8.960   9.131 -0.4987  0.3181 -0.6944
   47MOL0     C 6383   5.164   9.058   9.229  0.0898 -0.3174 -0.8495
   47MOL0     O 6384   5.214   9.033   9.355  0.4905  0.0919  0.1070
   47MOL0     C 6385   5.188   9.119   9.466  0.1618 -0.9929  0.7813
   47MOL0     C 6386   5.041   9.110   9.517 -0.3165  0.6827  1.5884
   47MOL0     C 6387   5.001   9.205   9.635  1.0233 -0.3655 -0.0162
   47MOL0     C 6388   5.073   9.175   9.760 -0.1168 -0.1084  0.0276
   47MOL0     C 6389   5.022   9.273   9.863 -0.6228  0.0821 -1.0482
   47MOL0     C 6390   5.098   9.257   9.997 -0.4518 -0.8024 -0.5524
   47MOL0     C 6391   5.100   9.385  10.094  0.4867 -0.6619 -0.0007
   47MOL0     C 6392   5.177   9.344  10.217  0.2305 -0.1367 -0.8988
   47MOL0    Cl 6393   5.346   9.335  10.174  0.1904 -0.0810 -0.2338
   47MOL0     C 6394   5.105   9.175   9.186  0.4245 -0.1656 -0.6923
   47MOL0     C 6395   5.045   9.196   9.059  0.5177  0.8196 -0.7907
   47MOL0     O 6396   4.829   8.935   8.937 -0.3876 -0.2083 -0.0845
   47MOL0     C 6397   4.644   8.945   8.723  0.4432 -0.9069  0.2824
   47MOL0     C 6398   4.574   8.931   8.598  0.5928 -0.1198 -0.1804
   47MOL0     N 6399   4.475   8.862   7.807 -0.3601 -0.3854 -0.4216
   47MOL0     N 6400   4.592   8.813   7.783  0.3738  0.0718  0.7024
   47MOL0     C 6401   5.397   8.124   7.128 -0.2084 -0.2128 -0.3734
   47MOL0     C 6402   5.534   8.121   7.125  1.1603 -0.2471 -0.6239
   47MOL0     C 6403   5.935   8.101   7.362  0.0937  0.8415 -0.3783
   47MOL0     C 6404   6.024   8.167   7.277 -0.3935 -0.7799  0.0289
   47MOL0     C 6405   6.165   8.187   7.292 -0.2708 -0.5490  0.8221
   47MOL0     C 6406   6.228   8.130   7.405  0.4003 -0.0912  0.6473
   47MOL0     O 6407   6.360   8.133   7.443  0.1933 -0.4579  0.2514
   47MOL0     C 6408   6.442   8.160   7.332  0.1662  0.2134 -0.2959
   47MOL0     C 6409   6.586   8.108   7.372  0.5339  0.4517  0.5171
   47MOL0     C 6410   6.634   8.185   7.499  0.4693  0.5017 -0.1567
   47MOL0     C 6411   6.783   8.163   7.523 -0.2141  0.2789 -0.5104
   47MOL0     C 6412   6.880   8.221   7.431  0.4121 -0.4281  0.4324
   47MOL0     C 6413   6.962   8.274   7.364 -0.2587  0.3745 -0.1579
   47MOL0     C 6414   6.142   8.062   7.499  0.2287  0.4815 -0.0278
   47MOL0     C 6415   6.001   8.043   7.480 -0.5874  0.8713 -0.0953
   47MOL0     C 6416   5.933   7.955   7.586 -0.1399  0.5665  0.3317
   47MOL0     H 6417   5.590   8.289   7.411 -0.4475 -0.6625  1.2666
   47MOL0     H 6418   5.357   8.305   7.423  2.9423  1.3859  0.1080
   47MOL0     H 6419   5.142   8.272   7.406 -2.0059 -1.2245  2.0056
   47MOL0     H 6420   5.167   8.106   7.433 -0.8011 -1.2298 -1.6482
   47MOL0     H 6421   4.975   8.209   7.229 -0.0578  1.8159  0.5655
   47MOL0     H 6422   4.950   8.068   7.338 -0.3738 -0.4738 -1.6603
   47MOL0     H 6423   4.935   8.353   7.434  0.9527 -0.0691  2.4325
   47MOL0     H 6424   4.794   8.254   7.394  0.3631 -0.8124 -0.5913
   47MOL0     H 6425   4.877   8.095   7.561 -0.5608  0.5760 -1.1928
   47MOL0     H 6426   4.993   8.222   7.622 -0.8562 -2.8550  4.3483
   47MOL0     H 6427   4.782   8.215   7.754  0.3855 -0.5065  0.0330
   47MOL0     H 6428   4.680   8.248   7.622 -1.2716  2.6137  1.4788
   47MOL0     H 6429   4.906   8.424   7.729  0.4463 -2.9512  0.1117
   47MOL0     H 6430   4.806   8.472   7.591  0.5498 -4.2288 -2.0486
   47MOL0     H 6431   4.666   8.401   7.843 -1.0152  0.3286 -0.7831
   47MOL0     H 6432   4.602   8.501   7.716  0.8618  2.3135  0.1940
   47MOL0     H 6433   4.785   8.591   7.924 -2.3398  1.6315  2.2617
   47MOL0     H 6434   4.786   8.652   7.751 -2.2263 -1.3187 -2.4637
   47MOL0     H 6435   4.532   8.628   8.032 -1.6164  1.2542  1.0748
   47MOL0     H 6436   4.240   8.719   7.965 -2.4137  0.0649  2.2441
   47MOL0     H 6437   4.244   8.890   7.964 -0.9909 -0.0571  0.7541
   47MOL0     H 6438   4.207   8.781   8.184  1.1953 -0.9706  2.6277
   47MOL0     H 6439   4.379   8.719   8.161  3.2909  1.6490 -0.8049
   47MOL0     H 6440   4.434   8.975   8.141 -0.4081  2.9324  2.0603
   47MOL0     H 6441   4.277   9.003   8.205  1.9401  2.9652 -1.3052
   47MOL0     H 6442   4.364   8.972   8.426  0.6664  1.3792 -0.5924
   47MOL0     H 6443   4.432   8.808   8.384 -2.0798 -1.0104 -1.9766
   47MOL0     H 6444   4.793   9.053   8.386  0.3100 -0.7472 -0.1993
   47MOL0     H 6445   5.046   9.024   8.646  1.0578  0.5797 -0.5290
   47MOL0     H 6446   4.988   9.188   8.591  0.4158  0.3960  0.8538
   47MOL0     H 6447   5.018   9.060   8.475  0.2901  0.7193  0.5243
   47MOL0     H 6448   5.102   8.890   8.940 -0.6073  0.6636 -1.2180
   47MOL0     H 6449   5.226   8.866   9.157  0.3881  1.1285  0.6877
   47MOL0     H 6450   5.246   9.080   9.550  0.9269  0.0596  0.7582
   47MOL0     H 6451   5.210   9.222   9.440  1.4595 -1.4179  0.1177
   47MOL0     H 6452   4.969   9.123   9.436  0.5476  1.2258  0.8860
   47MOL0     H 6453   5.021   9.007   9.547  0.7378 -0.3164 -0.8284
   47MOL0     H 6454   4.893   9.191   9.653  1.1614 -0.1722  1.0506
   47MOL0     H 6455   5.020   9.309   9.609 -1.4616  0.5145  1.3132
   47MOL0     H 6456   5.182   9.185   9.750  0.1166 -1.5851  0.7072
   47MOL0     H 6457   5.046   9.073   9.790 -4.4700  0.5975 -0.9032
   47MOL0     H 6458   5.047   9.375   9.833 -1.7225  1.4241  2.1743
   47MOL0     H 6459   4.914   9.261   9.873 -0.5018 -2.8881 -2.2326
   47MOL0     H 6460   5.199   9.219   9.977  1.2270  2.0255  1.8312
   47MOL0     H 6461   5.048   9.183  10.059 -0.5016  0.7244  1.2982
   47MOL0     H 6462   4.992   9.397  10.110  0.9755  2.4773  1.9025
   47MOL0     H 6463   5.137   9.481  10.055 -1.4678  0.8031  1.5335
   47MOL0     H 6464   5.126   9.255  10.255  0.9700 -0.1663  0.0561
   47MOL0     H 6465   5.169   9.424  10.290 -0.7556 -1.1958  0.1862
   47MOL0     H 6466   5.093   9.266   9.243 -1.4662  0.4718 -1.9874
   47MOL0     H 6467   4.986   9.280   9.025  0.0560  0.3336 -1.2046
   47MOL0     H 6468   4.599   8.905   8.814 -4.4038 -0.7373 -1.7615
   47MOL0     H 6469   4.477   8.882   8.606  0.4933  0.3780  2.3871
   47MOL0     H 6470   5.331   8.081   7.054 -1.4586 -0.6963  0.9551
   47MOL0     H 6471   5.578   8.058   7.048 -2.1656 -0.6869 -2.3278
   47MOL0     H 6472   5.975   8.227   7.201  0.3660 -0.9031 -0.5683
   47MOL0     H 6473   6.219   8.243   7.217  0.4985 -2.5164 -0.1759
   47MOL0     H 6474   6.402   8.103   7.248  2.0034  0.1114 -1.1453
   47MOL0     H 6475   6.438   8.265   7.302  1.2459  0.2238 -0.4222
   47MOL0     H 6476   6.650   8.120   7.284  1.5287 -0.0757  1.1479
   47MOL0     H 6477   6.577   8.004   7.403 -0.2138 -0.4028 -2.2266
   47MOL0     H 6478   6.621   8.293   7.489 -2.9725  0.1245 -0.8846
   47MOL0     H 6479   6.574   8.156   7.586 -0.0866  0.8676 -0.4164
   47MOL0     H 6480   6.804   8.056   7.528  2.2786  0.7607  2.0400
   47MOL0     H 6481   6.805   8.212   7.619 -0.5303  0.3169 -0.4575
   47MOL0     H 6482   7.024   8.342   7.310  2.0145  0.5542  2.4773
   47MOL0     H 6483   6.189   8.009   7.582 -1.3784 -0.3478  0.3900
   47MOL0     H 6484   6.006   7.935   7.665  1.7416 -3.8440 -2.1640
   47MOL0     H 6485   5.842   8.005   7.620 -3.1118 -3.2046 -1.3069
   47MOL0     H 6486   5.896   7.867   7.532 -1.1200  1.7364 -0.9750
   48MOL0     O 6487   6.215   9.110   2.648 -0.1673 -0.0190 -0.3442
   48MOL0     C 6488   6.233   8.993   2.611 -0.9769 -0.9276 -0.3595
   48MOL0     O 6489   6.131   8.899   2.616 -0.2711 -0.1565  0.0938
   48MOL0     C 6490   6.020   8.927   2.696 -0.6089 -0.4144  0.2202
   48MOL0     C 6491   5.902   8.890   2.645  0.7216 -0.0089  0.0848
   48MOL0     C 6492   5.785   8.895   2.715  0.4537  0.1410 -0.5451
   48MOL0     C 6493   5.783   8.948   2.841  0.3134  0.1024 -0.0889
   48MOL0     O 6494   5.667   8.951   2.920  0.1990  0.2040  0.2254
   48MOL0     C 6495   5.566   8.849   2.919 -0.5469  0.0376  0.5531
   48MOL0     C 6496   5.449   8.867   3.018  0.2595  0.5115 -0.0056
   48MOL0     C 6497   5.335   8.762   3.009  0.2263  0.0885  0.3393
   48MOL0     C 6498   5.221   8.814   3.109 -0.5950  0.2851  0.1312
   48MOL0     C 6499   5.254   8.779   3.257  0.6002 -0.4767 -0.3296
   48MOL0     C 6500   5.193   8.878   3.357 -0.1988  0.0286  0.0926
   48MOL0     C 6501   5.242   9.029   3.352  0.0504 -0.1870 -0.0761
   48MOL0     C 6502   5.391   9.061   3.367 -0.0062 -0.5139  0.8383
   48MOL0     N 6503   5.420   9.193   3.423  0.3427 -0.5649 -0.0287
   48MOL0     C 6504   5.508   9.294   3.382  0.2079 -0.2631  0.7301
   48MOL0     C 6505   5.497   9.398   3.464  0.4651  0.4374 -0.2223
   48MOL0     C 6506   5.567   9.525   3.452 -0.1828  0.4989 -0.6852
   48MOL0     C 6507   5.716   9.512   3.470  0.0628 -0.9241 -0.2547
   48MOL0     C 6508   5.796   9.580   3.355  0.4499  0.4582  0.1583
   48MOL0     C 6509   5.949   9.577   3.379 -0.9971 -0.2661  0.5789
   48MOL0     O 6510   5.984   9.675   3.472 -0.7652  0.1716 -0.8976
   48MOL0     C 6511   6.113   9.705   3.495  0.3491  0.6233 -0.3700
   48MOL0     C 6512   6.218   9.635   3.439  0.4066 -0.6780  0.1976
   48MOL0     C 6513   6.355   9.663   3.468 -0.2965  0.2558  1.0843
   48MOL0     C 6514   6.444   9.573   3.395  0.8491  0.6091  0.2580
   48MOL0     C 6515   6.386   9.764   3.556 -0.5090 -0.5053  0.0539
   48MOL0     C 6516   6.523   9.823   3.580 -0.7566  0.1796  1.1518
   48MOL0     O 6517   6.628   9.784   3.503 -0.4464 -0.2654  0.5605
   48MOL0     C 6518   6.748   9.852   3.525 -0.1688  0.1437  1.1448
   48MOL0     C 6519   6.804   9.937   3.431 -0.6457  0.1385 -0.0847
   48MOL0     C 6520   6.930   9.986   3.450 -0.1835 -0.4262 -1.0351
   48MOL0     C 6521   6.993   9.978   3.574 -0.5059  0.2182  1.1514
   48MOL0     O 6522   7.126  10.011   3.598  0.2984 -0.3882  0.2949
   48MOL0     C 6523   7.200  10.090   3.501  0.4925 -0.1301 -0.1880
   48MOL0     C 6524   7.164  10.242   3.499 -0.0305  0.1120 -0.0053
   48MOL0     C 6525   7.182  10.308   3.636 -0.1653 -0.3851  0.0552
   48MOL0     C 6526   7.191  10.456   3.629 -0.0868 -0.0419 -0.2674
   48MOL0     C 6527   7.205  10.514   3.772 -0.5221 -0.3339  0.9953
   48MOL0     C 6528   7.183  10.668   3.765  0.0823 -0.1241  0.5230
   48MOL0     C 6529   7.300  10.737   3.694  0.1225  0.1751  1.0524
   48MOL0     C 6530   7.340  10.869   3.752  0.6328  0.5360 -0.2615
   48MOL0    Cl 6531   7.413  10.867   3.919  0.2066 -0.3765  0.2578
   48MOL0     C 6532   6.934   9.911   3.670  0.7863  0.2392  0.2441
   48MOL0     C 6533   6.813   9.842   3.648 -0.2888  0.0643  0.5787
   48MOL0     O 6534   6.524   9.910   3.672 -0.1641  0.9896 -0.5175
   48MOL0     C 6535   6.283   9.835   3.611  0.7017 -0.0873  0.5988
   48MOL0     C 6536   6.148   9.806   3.588  1.0675  0.0314 -0.1368
   48MOL0     N 6537   5.407   9.361   3.561  0.2338 -0.9935  0.1960
   48MOL0     N 6538   5.362   9.245   3.538  0.1490  0.0886 -0.8215
   48MOL0     C 6539   5.901   8.988   2.903 -0.0386  0.6517  0.2075
   48MOL0     C 6540   6.019   8.993   2.823  0.0939 -0.2522 -0.1473
   48MOL0     C 6541   6.370   8.938   2.603  0.5303 -0.8517  0.0503
   48MOL0     C 6542   6.385   8.801   2.577  0.6390  0.4287  0.0224
   48MOL0     C 6543   6.510   8.747   2.557  0.1177 -0.6497  0.4304
   48MOL0     C 6544   6.621   8.825   2.567  0.0392  0.1819 -1.0795
   48MOL0     O 6545   6.744   8.773   2.536  0.2743  0.1139  0.0766
   48MOL0     C 6546   6.800   8.819   2.419 -0.1446  0.1349  0.0789
   48MOL0     C 6547   6.955   8.821   2.400  0.7220 -0.0323 -0.7353
   48MOL0     C 6548   7.010   8.894   2.274 -0.2768  0.6123  0.2006
   48MOL0     C 6549   7.130   8.984   2.304  0.6430  0.7844  0.1822
   48MOL0     C 6550   7.167   9.059   2.191  0.0860 -0.5777  0.9775
   48MOL0     C 6551   7.196   9.136   2.104  0.4614 -0.0189  0.3276
   48MOL0     C 6552   6.614   8.955   2.614  0.1050 -0.8439  0.3483
   48MOL0     C 6553   6.485   9.018   2.632  0.4215  0.7506  0.7068
   48MOL0     C 6554   6.483   9.155   2.672 -0.2012 -0.6352 -0.1567
   48MOL0     H 6555   5.901   8.847   2.545  2.5058  0.0596  0.0086
   48MOL0     H 6556   5.694   8.862   2.667  0.1827 -0.9999  0.6887
   48MOL0     H 6557   5.609   8.753   2.946 -2.1869 -0.3395  1.9863
   48MOL0     H 6558   5.514   8.849   2.822 -0.6227  1.3108  0.5779
   48MOL0     H 6559   5.483   8.869   3.122 -0.8856  3.0114  0.4048
   48MOL0     H 6560   5.413   8.970   3.009  0.0696  0.5133  0.6950
   48MOL0     H 6561   5.289   8.752   2.911 -0.5588 -0.0636  0.7120
   48MOL0     H 6562   5.391   8.672   3.036 -0.6966 -0.4819  0.4121
   48MOL0     H 6563   5.209   8.922   3.094  0.4944  0.3940 -0.0004
   48MOL0     H 6564   5.128   8.767   3.073 -0.1898  0.6218 -1.4473
   48MOL0     H 6565   5.361   8.793   3.274  0.0495  2.2086  1.5784
   48MOL0     H 6566   5.222   8.677   3.281 -4.1807  0.4639 -1.7082
   48MOL0     H 6567   5.084   8.876   3.344 -0.2167 -0.3984  0.2701
   48MOL0     H 6568   5.213   8.838   3.457  0.7005 -0.6277 -0.3370
   48MOL0     H 6569   5.185   9.075   3.433 -2.2606 -1.0738 -1.1396
   48MOL0     H 6570   5.208   9.070   3.257  1.6442 -3.1060 -2.0611
   48MOL0     H 6571   5.437   8.980   3.424  0.1154  0.4049  2.1059
   48MOL0     H 6572   5.445   9.063   3.271  3.0496  0.3625  2.4208
   48MOL0     H 6573   5.566   9.288   3.290 -1.5270  0.4257 -0.4705
   48MOL0     H 6574   5.534   9.608   3.516  3.2087  1.1311  0.4094
   48MOL0     H 6575   5.544   9.558   3.350 -0.0558 -0.7489 -1.1309
   48MOL0     H 6576   5.750   9.563   3.560  0.1077 -3.2376  1.1291
   48MOL0     H 6577   5.756   9.410   3.481  2.9332 -0.1304 -2.0707
   48MOL0     H 6578   5.773   9.520   3.266  0.2291  0.9890 -0.1465
   48MOL0     H 6579   5.759   9.681   3.333  0.5854 -0.2281 -4.2470
   48MOL0     H 6580   5.983   9.477   3.408  0.8071  0.1500  0.0595
   48MOL0     H 6581   5.982   9.591   3.275 -2.2060 -0.3196  0.1663
   48MOL0     H 6582   6.201   9.559   3.364  1.1632 -1.7165  1.0318
   48MOL0     H 6583   6.537   9.615   3.356  2.0436 -2.6398 -0.7569
   48MOL0     H 6584   6.390   9.523   3.314  0.0409 -0.9687  1.7050
   48MOL0     H 6585   6.469   9.497   3.470 -0.9763  1.0952  1.4208
   48MOL0     H 6586   6.761   9.955   3.333 -1.2512  0.3754  0.2184
   48MOL0     H 6587   6.976  10.047   3.372  1.8740  0.1702  0.5559
   48MOL0     H 6588   7.303  10.091   3.535  0.1147  2.2416  1.0449
   48MOL0     H 6589   7.183  10.040   3.405 -1.5817  1.4470 -0.7223
   48MOL0     H 6590   7.225  10.294   3.425  0.3754  2.0743  1.6196
   48MOL0     H 6591   7.059  10.256   3.468  0.0692 -0.8754 -0.8419
   48MOL0     H 6592   7.274  10.272   3.683  2.4987  2.5672 -2.4584
   48MOL0     H 6593   7.089  10.285   3.688 -1.1953  0.8384 -1.1593
   48MOL0     H 6594   7.102  10.490   3.575 -1.4863 -0.6082  1.5997
   48MOL0     H 6595   7.283  10.486   3.577  1.0751  0.4408  1.9242
   48MOL0     H 6596   7.129  10.462   3.832  0.2335 -2.2943  0.3527
   48MOL0     H 6597   7.302  10.483   3.811 -0.2822  0.0442  0.7019
   48MOL0     H 6598   7.184  10.701   3.869 -1.9204  0.3318  0.4442
   48MOL0     H 6599   7.082  10.680   3.725 -0.8086 -2.9780  1.5966
   48MOL0     H 6600   7.271  10.746   3.589  2.9313  0.0786  0.1689
   48MOL0     H 6601   7.385  10.667   3.695 -0.7236 -0.9906 -1.2454
   48MOL0     H 6602   7.257  10.939   3.739  2.1639  2.2352 -1.5033
   48MOL0     H 6603   7.423  10.907   3.691  0.7716  1.1918  0.3176
   48MOL0     H 6604   6.976   9.898   3.770  2.2553  0.2958 -0.3436
   48MOL0     H 6605   6.767   9.777   3.722  2.0475 -3.2265 -0.6159
   48MOL0     H 6606   6.297   9.913   3.685  0.6010 -0.9871  1.5888
   48MOL0     H 6607   6.070   9.852   3.648  0.2068 -0.0730 -1.1479
   48MOL0     H 6608   5.905   9.024   3.006 -2.9821  2.3211 -0.1555
   48MOL0     H 6609   6.111   9.027   2.869  0.9258 -0.6147 -1.4888
   48MOL0     H 6610   6.298   8.738   2.562 -0.4035  2.0083 -0.7319
   48MOL0     H 6611   6.520   8.649   2.512  1.4675 -0.1055 -0.5128
   48MOL0     H 6612   6.765   8.738   2.354  1.2304 -2.9880  2.9247
   48MOL0     H 6613   6.767   8.915   2.378  1.1051 -0.0159 -1.3440
   48MOL0     H 6614   6.975   8.714   2.396 -3.2447 -1.0378  1.0557
   48MOL0     H 6615   7.008   8.865   2.485  1.1343 -1.8555 -0.0076
   48MOL0     H 6616   7.028   8.814   2.201  2.6399  2.7758 -1.6765
   48MOL0     H 6617   6.935   8.958   2.226 -1.5953 -0.9154  0.1193
   48MOL0     H 6618   7.214   8.919   2.328  2.1105  1.7440 -1.9758
   48MOL0     H 6619   7.105   9.058   2.380 -0.0500 -0.2637  1.0005
   48MOL0     H 6620   7.208   9.207   2.025  1.0593 -0.6468 -0.1560
   48MOL0     H 6621   6.709   9.005   2.628 -0.9723  1.8719 -1.2099
   48MOL0     H 6622   6.450   9.210   2.584  0.9344 -0.6394 -0.6092
   48MOL0     H 6623   6.419   9.154   2.761  1.0100  1.5309  0.8055
   48MOL0     H 6624   6.581   9.200   2.693  0.2506  0.6913 -4.2532
   49MOL0     O 6625   6.654   2.250   9.329  0.4764 -0.4668  0.0708
   49MOL0     C 6626   6.675   2.333   9.422  1.3586 -0.0109 -0.1246
   49MOL0     O 6627   6.776   2.428   9.415  0.0602 -0.2053  0.5211
   49MOL0     C 6628   6.861   2.407   9.314  0.1000 -0.2190 -0.0237
   49MOL0     C 6629   6.820   2.426   9.185 -0.9169 -0.1548 -0.0618
   49MOL0     C 6630   6.909   2.417   9.083  0.8768 -0.6117  0.9199
   49MOL0     C 6631   7.041   2.375   9.100  0.2248  0.1896 -0.8191
   49MOL0     O 6632   7.141   2.361   9.000  0.6116 -0.9035 -0.1313
   49MOL0     C 6633   7.086   2.379   8.862  0.0611 -0.4279 -0.2097
   49MOL0     C 6634   7.189   2.320   8.764  0.6338  0.3190 -0.4720
   49MOL0     C 6635   7.327   2.384   8.763 -0.2880 -0.4838  0.1404
   49MOL0     C 6636   7.312   2.528   8.710  0.3573  0.3417  0.0941
   49MOL0     C 6637   7.441   2.611   8.704  0.0729  0.8715  0.7532
   49MOL0     C 6638   7.545   2.572   8.596  0.8477 -0.3444 -0.7095
   49MOL0     C 6639   7.647   2.684   8.594  0.3909 -0.2023  0.2796
   49MOL0     C 6640   7.747   2.671   8.480 -0.3729  0.8221 -0.3827
   49MOL0     N 6641   7.840   2.561   8.500  0.6739 -0.2102  0.1554
   49MOL0     C 6642   7.949   2.554   8.588  0.1958  0.0894 -0.1373
   49MOL0     C 6643   8.003   2.435   8.549 -0.4652 -0.6148  0.4783
   49MOL0     C 6644   8.136   2.381   8.603 -0.2081 -0.2137  0.1951
   49MOL0     C 6645   8.261   2.473   8.589 -0.3251 -0.8749  0.1593
   49MOL0     C 6646   8.293   2.488   8.440 -0.0492  0.2216 -0.6106
   49MOL0     C 6647   8.409   2.400   8.419 -0.1595 -0.4027 -0.1549
   49MOL0     O 6648   8.460   2.414   8.290 -0.1700 -0.0543 -0.5093
   49MOL0     C 6649   8.576   2.352   8.264 -0.4988 -0.9190 -0.5746
   49MOL0     C 6650   8.583   2.215   8.262  0.1929  0.3160  0.8936
   49MOL0     C 6651   8.704   2.142   8.238 -0.5414  1.0621  0.4123
   49MOL0     C 6652   8.692   1.993   8.231 -0.6475  0.5062  1.1575
   49MOL0     C 6653   8.828   2.206   8.216  0.0921 -1.1477 -0.4857
   49MOL0     C 6654   8.968   2.141   8.189  0.3652 -0.4893  0.2256
   49MOL0     O 6655   9.077   2.227   8.197 -0.0059 -0.2398 -0.2759
   49MOL0     C 6656   9.199   2.163   8.180 -0.3124  0.2437 -0.4308
   49MOL0     C 6657   9.249   2.075   8.284  0.4496 -0.2947  0.2124
   49MOL0     C 6658   9.379   2.026   8.284  0.5594 -0.0637 -0.5281
   49MOL0     C 6659   9.458   2.055   8.169  0.3631 -0.1541  0.0404
   49MOL0     O 6660   9.580   1.997   8.145  0.2221  0.4157 -0.1154
   49MOL0     C 6661   9.654   1.921   8.247 -1.3415 -0.6908 -0.4050
   49MOL0     C 6662   9.778   1.879   8.180  0.8276  0.0687  0.0147
   49MOL0     C 6663   9.868   1.994   8.136  0.5792 -0.0090 -0.6648
   49MOL0     C 6664   9.973   1.949   8.029  0.5419 -0.4357 -0.1274
   49MOL0     C 6665  10.078   1.846   8.083  0.3833 -0.7036  0.0936
   49MOL0     C 6666  10.155   1.795   7.960  0.4106  0.0850 -0.4075
   49MOL0     C 6667  10.283   1.730   8.009  0.0901 -0.4433  0.7367
   49MOL0     C 6668  10.375   1.725   7.888 -0.3976  0.6613 -0.4169
   49MOL0    Cl 6669  10.520   1.624   7.928 -0.5935 -0.0982  0.2357
   49MOL0     C 6670   9.409   2.130   8.063  0.0218  0.0905 -0.3886
   49MOL0     C 6671   9.280   2.186   8.073 -0.6797 -0.8483 -0.0688
   49MOL0     O 6672   8.968   2.025   8.150 -0.1320 -0.4484 -0.7604
   49MOL0     C 6673   8.823   2.349   8.220 -0.0083  0.1823 -0.1700
   49MOL0     C 6674   8.700   2.421   8.243  0.2697  0.0730 -0.8222
   49MOL0     N 6675   7.935   2.376   8.448 -0.7211  0.3611 -0.4323
   49MOL0     N 6676   7.841   2.455   8.413  0.7271 -0.1153 -0.0700
   49MOL0     C 6677   7.084   2.343   9.233  0.9087 -0.4854  0.2792
   49MOL0     C 6678   6.991   2.355   9.334 -0.4370  0.8448  0.2503
   49MOL0     C 6679   6.587   2.321   9.551 -0.7604  0.1348  0.9577
   49MOL0     C 6680   6.614   2.404   9.664  1.0090 -0.3702  1.0433
   49MOL0     C 6681   6.541   2.408   9.789 -0.8563  0.3432 -0.2148
   49MOL0     C 6682   6.434   2.316   9.802 -1.0884 -0.3154  0.4518
   49MOL0     O 6683   6.359   2.305   9.908  0.0023  0.7342 -0.2597
   49MOL0     C 6684   6.283   2.414   9.960 -0.2099 -1.0837 -0.3760
   49MOL0     C 6685   6.131   2.416   9.909 -0.9623 -0.3571 -0.2858
   49MOL0     C 6686   6.057   2.542   9.954  0.1738 -0.5623  0.6576
   49MOL0     C 6687   6.126   2.669   9.895  0.1484 -0.5004 -0.4995
   49MOL0     C 6688   6.223   2.718   9.994 -0.5131 -0.0012 -0.2741
   49MOL0     C 6689   6.295   2.746  10.089  0.5147 -0.3786  0.0494
   49MOL0     C 6690   6.404   2.238   9.688 -1.2931  1.0484  0.6415
   49MOL0     C 6691   6.474   2.236   9.567 -0.1533 -0.5333  1.3965
   49MOL0     C 6692   6.421   2.156   9.455 -0.0105 -0.5719 -0.1714
   49MOL0     H 6693   6.721   2.472   9.181 -0.1385  1.7131  0.8499
   49MOL0     H 6694   6.871   2.458   8.990 -1.3851 -0.4875  1.8332
   49MOL0     H 6695   7.077   2.486   8.843  4.1261 -0.1893 -1.9070
   49MOL0     H 6696   6.985   2.337   8.856 -0.0591 -0.3897  1.1221
   49MOL0     H 6697   7.203   2.214   8.788 -2.0143  0.2926  1.3296
   49MOL0     H 6698   7.142   2.318   8.665  0.9346  1.2013 -0.6368
   49MOL0     H 6699   7.352   2.393   8.869 -0.6492 -1.8965  0.3634
   49MOL0     H 6700   7.385   2.318   8.698 -2.3722 -1.6513 -0.6466
   49MOL0     H 6701   7.267   2.517   8.610  1.4179 -2.5410 -0.1361
   49MOL0     H 6702   7.243   2.583   8.775 -1.1579 -0.8179 -0.4703
   49MOL0     H 6703   7.489   2.602   8.802 -1.5480  0.9547  1.5850
   49MOL0     H 6704   7.414   2.717   8.692 -2.0776  0.3009  0.1481
   49MOL0     H 6705   7.588   2.474   8.617 -0.9842 -1.3593 -1.5029
   49MOL0     H 6706   7.504   2.579   8.494  2.5581  2.6678 -1.3089
   49MOL0     H 6707   7.694   2.686   8.692 -1.0263  1.7706  0.9807
   49MOL0     H 6708   7.606   2.784   8.579  1.5892  0.5074  1.5044
   49MOL0     H 6709   7.690   2.657   8.388  2.0268 -0.9851 -1.6887
   49MOL0     H 6710   7.807   2.762   8.477 -0.1330  0.7010  0.4728
   49MOL0     H 6711   7.988   2.626   8.659 -0.4511 -2.6881  3.2506
   49MOL0     H 6712   8.153   2.283   8.558 -0.4756 -0.1073 -0.1436
   49MOL0     H 6713   8.123   2.363   8.710  0.3582  2.1045  0.7227
   49MOL0     H 6714   8.227   2.570   8.626 -0.2747 -1.4991  1.9330
   49MOL0     H 6715   8.348   2.455   8.652 -0.5175  0.4304  0.8345
   49MOL0     H 6716   8.209   2.469   8.374  0.4097 -1.4788 -0.7481
   49MOL0     H 6717   8.321   2.594   8.434  0.0283  0.6004  3.3288
   49MOL0     H 6718   8.492   2.417   8.489  0.2448 -1.8673 -0.2610
   49MOL0     H 6719   8.383   2.295   8.432  3.8760 -1.6277 -0.4926
   49MOL0     H 6720   8.492   2.156   8.256  0.3362  0.0738 -4.6445
   49MOL0     H 6721   8.594   1.974   8.276 -1.9155  2.2995 -0.6915
   49MOL0     H 6722   8.779   1.949   8.283  0.4138 -1.9540 -2.3073
   49MOL0     H 6723   8.695   1.965   8.125 -0.6341  2.3587  0.6359
   49MOL0     H 6724   9.191   2.064   8.375 -0.6199  0.0531 -0.4040
   49MOL0     H 6725   9.414   1.963   8.366 -1.1658  0.4710  0.6753
   49MOL0     H 6726   9.687   1.988   8.326  0.4009 -2.4728  0.4920
   49MOL0     H 6727   9.610   1.829   8.289  0.8366 -2.4303 -1.6812
   49MOL0     H 6728   9.838   1.811   8.240 -0.2822 -1.0998 -0.1553
   49MOL0     H 6729   9.743   1.820   8.095  2.2997 -1.5057  0.4688
   49MOL0     H 6730   9.918   2.030   8.227 -1.4699 -0.1289  0.5705
   49MOL0     H 6731   9.815   2.081   8.096 -0.3325  0.3207  1.1502
   49MOL0     H 6732  10.037   2.033   8.002  2.6221 -1.6533  0.7757
   49MOL0     H 6733   9.928   1.906   7.938 -3.2743  0.6010  1.0658
   49MOL0     H 6734  10.138   1.890   8.163 -3.0928  1.9212  1.5189
   49MOL0     H 6735  10.025   1.763   8.132  0.2527 -0.6974 -0.0361
   49MOL0     H 6736  10.168   1.883   7.897 -4.3645  0.5668 -1.1113
   49MOL0     H 6737  10.088   1.727   7.906  1.1292 -1.1714  0.2190
   49MOL0     H 6738  10.263   1.626   8.035 -1.9258 -1.4085 -3.7465
   49MOL0     H 6739  10.327   1.793   8.087  1.6155 -0.5299 -0.0201
   49MOL0     H 6740  10.414   1.823   7.860 -0.6053  1.2037  1.1347
   49MOL0     H 6741  10.331   1.681   7.798 -1.4095  1.2334 -0.2167
   49MOL0     H 6742   9.461   2.150   7.969  2.2557  0.0437  0.7786
   49MOL0     H 6743   9.240   2.260   8.004  0.8289 -2.1583 -2.4748
   49MOL0     H 6744   8.914   2.403   8.199  0.4075 -0.2837  0.3918
   49MOL0     H 6745   8.705   2.529   8.239 -1.3763  0.2066 -0.1154
   49MOL0     H 6746   7.183   2.300   9.241  0.8723 -0.4828  0.7734
   49MOL0     H 6747   7.028   2.337   9.435  1.2281  0.8288 -0.3233
   49MOL0     H 6748   6.693   2.478   9.662  0.4006  0.2868  1.0931
   49MOL0     H 6749   6.569   2.468   9.875 -0.0202 -1.9009  1.1463
   49MOL0     H 6750   6.274   2.397  10.068 -0.0583 -2.1277 -0.5219
   49MOL0     H 6751   6.326   2.509   9.927 -0.3699 -1.4656 -1.7127
   49MOL0     H 6752   6.079   2.328   9.947  0.2666 -0.7418  0.5970
   49MOL0     H 6753   6.128   2.401   9.801 -1.8663 -0.9494 -0.1897
   49MOL0     H 6754   5.958   2.537   9.908  0.9885  0.5885 -1.3165
   49MOL0     H 6755   6.029   2.557  10.059 -2.5561  1.9314 -0.2753
   49MOL0     H 6756   6.051   2.749   9.892 -1.4477 -1.7493  2.1515
   49MOL0     H 6757   6.175   2.678   9.798  1.1357  1.9578  0.1704
   49MOL0     H 6758   6.353   2.791  10.167 -0.5342  2.5161 -0.7032
   49MOL0     H 6759   6.316   2.175   9.694  0.0338 -0.8558  1.0106
   49MOL0     H 6760   6.322   2.123   9.487  0.0810  1.3166  2.4202
   49MOL0     H 6761   6.406   2.218   9.365 -1.2256  0.2998  0.5845
   49MOL0     H 6762   6.487   2.073   9.431  1.4058  0.3890  0.2657
   50MOL0     O 6763   1.434   8.757   4.479  0.8212 -0.4869  0.3294
   50MOL0     C 6764   1.473   8.875   4.468 -0.3235  0.0671 -0.1572
   50MOL0     O 6765   1.517   8.937   4.350 -0.0367 -0.0046  0.6323
   50MOL0     C 6766   1.502   8.866   4.235  0.6579  0.6985 -0.0493
   50MOL0     C 6767   1.599   8.867   4.140  0.0049  0.9251  1.2406
   50MOL0     C 6768   1.583   8.799   4.017 -0.6156  0.1689 -0.0945
   50MOL0     C 6769   1.462   8.740   3.983 -0.1680 -0.2168 -0.0535
   50MOL0     O 6770   1.458   8.674   3.866  0.2080 -1.0696 -0.1060
   50MOL0     C 6771   1.334   8.630   3.814 -1.1943  0.3263  1.1936
   50MOL0     C 6772   1.343   8.577   3.661  0.0064 -0.0368 -0.1460
   50MOL0     C 6773   1.413   8.442   3.662  0.9798 -0.5385  0.3815
   50MOL0     C 6774   1.379   8.376   3.521  0.6813 -0.2481  0.0641
   50MOL0     C 6775   1.471   8.257   3.525  0.5446  0.1465  0.3863
   50MOL0     C 6776   1.433   8.162   3.407  0.3960 -0.1480  0.5544
   50MOL0     C 6777   1.487   8.024   3.436 -0.3154 -0.4616 -0.3574
   50MOL0     C 6778   1.646   8.014   3.449 -0.5171  0.0992  0.4572
   50MOL0     N 6779   1.717   8.064   3.330  0.0516 -0.4759 -0.5007
   50MOL0     C 6780   1.819   8.158   3.344 -0.2517 -0.0883  0.9177
   50MOL0     C 6781   1.842   8.198   3.213  0.6037 -0.1493  0.1790
   50MOL0     C 6782   1.920   8.320   3.163 -0.3735 -0.0516 -0.4440
   50MOL0     C 6783   2.077   8.309   3.177 -0.1985  0.1031 -0.1770
   50MOL0     C 6784   2.142   8.202   3.089  0.6656  0.3975  0.9794
   50MOL0     C 6785   2.117   8.215   2.934  0.1367 -0.2027 -0.2312
   50MOL0     O 6786   2.173   8.342   2.892 -0.1351 -0.3654 -0.3683
   50MOL0     C 6787   2.304   8.334   2.846 -0.0273 -0.2128 -0.2047
   50MOL0     C 6788   2.392   8.436   2.881  1.0281  0.1740 -0.1191
   50MOL0     C 6789   2.520   8.444   2.845 -0.1168  0.1659 -0.0423
   50MOL0     C 6790   2.604   8.555   2.908  1.0556 -0.8773  0.2616
   50MOL0     C 6791   2.579   8.341   2.765  0.6476  0.5886  0.2542
   50MOL0     C 6792   2.717   8.343   2.733 -0.2493  0.4373 -0.5681
   50MOL0     O 6793   2.801   8.351   2.837 -0.5070 -0.2120  0.0665
   50MOL0     C 6794   2.933   8.371   2.817  0.4572 -0.2930  0.5909
   50MOL0     C 6795   3.027   8.276   2.856  0.3657 -0.5812 -0.5909
   50MOL0     C 6796   3.160   8.323   2.864 -0.4192 -0.6650 -0.0557
   50MOL0     C 6797   3.196   8.460   2.834 -0.6081  0.6669 -0.1133
   50MOL0     O 6798   3.322   8.499   2.839 -0.4870 -0.4340 -0.3001
   50MOL0     C 6799   3.424   8.411   2.885  0.1184 -0.1302  0.1328
   50MOL0     C 6800   3.545   8.490   2.897  0.3178  0.6827 -0.3504
   50MOL0     C 6801   3.662   8.394   2.949  0.4447 -0.6479  0.1226
   50MOL0     C 6802   3.662   8.355   3.092  0.7248  0.5882  0.0154
   50MOL0     C 6803   3.770   8.256   3.138 -0.2848  0.1636 -0.7680
   50MOL0     C 6804   3.772   8.225   3.295  0.8389  1.2812  0.2783
   50MOL0     C 6805   3.905   8.155   3.342  0.1339  0.4634 -0.1262
   50MOL0     C 6806   3.879   8.101   3.478 -0.1420  0.6588  0.3914
   50MOL0    Cl 6807   4.031   8.001   3.530  0.0631 -0.0571  0.5176
   50MOL0     C 6808   3.097   8.547   2.787  0.7911  0.0442 -0.3247
   50MOL0     C 6809   2.964   8.505   2.794 -0.0664  0.4504  0.4951
   50MOL0     O 6810   2.751   8.336   2.617 -0.1328  0.1953 -0.1831
   50MOL0     C 6811   2.490   8.250   2.712 -0.0901 -0.2763 -0.9708
   50MOL0     C 6812   2.351   8.243   2.744 -0.3424 -0.2095 -0.3145
   50MOL0     N 6813   1.759   8.112   3.126 -0.0919  0.6644 -0.7957
   50MOL0     N 6814   1.687   8.036   3.203 -0.8502 -0.5183 -0.0322
   50MOL0     C 6815   1.359   8.742   4.073 -0.4405 -0.2120 -0.0554
   50MOL0     C 6816   1.381   8.801   4.198  0.0868  0.3308  0.6330
   50MOL0     C 6817   1.481   8.954   4.599  0.1941 -0.2749 -0.7577
   50MOL0     C 6818   1.491   9.089   4.598 -0.3710  0.5927  1.0946
   50MOL0     C 6819   1.520   9.181   4.704  0.1655  0.6764  0.1865
   50MOL0     C 6820   1.545   9.122   4.831  0.1378 -0.2521  0.1008
   50MOL0     O 6821   1.591   9.206   4.933 -0.8048 -0.1564 -0.2415
   50MOL0     C 6822   1.661   9.142   5.042  0.2465  0.4955  0.8595
   50MOL0     C 6823   1.563   9.105   5.151  0.3161 -0.4509  0.7223
   50MOL0     C 6824   1.619   9.126   5.286  0.0227  0.2898 -0.2988
   50MOL0     C 6825   1.685   9.264   5.312  0.0123  0.2633  0.8213
   50MOL0     C 6826   1.716   9.282   5.449 -0.8128 -0.7012 -0.1295
   50MOL0     C 6827   1.760   9.314   5.555 -0.6979  0.9901 -0.4689
   50MOL0     C 6828   1.519   8.983   4.846 -0.8909 -0.1963 -0.5409
   50MOL0     C 6829   1.498   8.894   4.733  0.0313 -0.0448  0.0127
   50MOL0     C 6830   1.501   8.746   4.751  0.0975  0.1872 -0.0654
   50MOL0     H 6831   1.693   8.918   4.155 -0.2692  0.8293  3.5070
   50MOL0     H 6832   1.666   8.803   3.947 -0.6162  1.5038 -0.0392
   50MOL0     H 6833   1.265   8.714   3.823 -0.7779  0.8761 -0.4296
   50MOL0     H 6834   1.302   8.549   3.881 -1.1673 -0.3076  0.4584
   50MOL0     H 6835   1.241   8.564   3.621  0.8328 -2.7847 -1.6366
   50MOL0     H 6836   1.395   8.648   3.595 -0.4276  0.5818  0.1697
   50MOL0     H 6837   1.521   8.453   3.648  0.6973  0.2009 -1.5777
   50MOL0     H 6838   1.393   8.391   3.757 -2.1763 -0.1945  0.0257
   50MOL0     H 6839   1.273   8.351   3.512  0.2272  1.6190 -0.3051
   50MOL0     H 6840   1.410   8.446   3.442  2.9718  0.1914  1.2551
   50MOL0     H 6841   1.455   8.209   3.622  0.8139  1.8129  1.2938
   50MOL0     H 6842   1.578   8.282   3.519  0.6508 -0.3766  0.0315
   50MOL0     H 6843   1.324   8.156   3.399  0.5808 -2.7099 -0.9541
   50MOL0     H 6844   1.478   8.199   3.315 -0.7518 -1.1259 -0.4258
   50MOL0     H 6845   1.457   7.964   3.349  0.4177 -3.1891  1.1675
   50MOL0     H 6846   1.442   7.980   3.525  1.8147 -1.4001  0.3180
   50MOL0     H 6847   1.680   8.080   3.529  0.8236  0.5222 -0.4223
   50MOL0     H 6848   1.680   7.915   3.479 -0.0432  0.8514  2.5432
   50MOL0     H 6849   1.860   8.203   3.434  2.7911 -3.0061  1.2286
   50MOL0     H 6850   1.880   8.402   3.224  0.7121 -0.1180  0.3839
   50MOL0     H 6851   1.899   8.336   3.057 -1.9228 -2.2366 -0.5336
   50MOL0     H 6852   2.126   8.400   3.141 -0.2549  0.4317  0.5533
   50MOL0     H 6853   2.109   8.273   3.275 -1.6158  3.0660  1.5221
   50MOL0     H 6854   2.250   8.195   3.108  0.6404 -0.6811  0.7438
   50MOL0     H 6855   2.090   8.111   3.120 -0.6486  1.0683  0.8169
   50MOL0     H 6856   2.150   8.132   2.871  1.0285 -0.4210  0.5042
   50MOL0     H 6857   2.008   8.212   2.926  0.2215 -2.3865 -1.0444
   50MOL0     H 6858   2.355   8.521   2.936  1.6423  0.2432  0.1973
   50MOL0     H 6859   2.672   8.595   2.832  1.2818 -2.9426 -0.6974
   50MOL0     H 6860   2.649   8.501   2.992 -1.4978 -3.0948  0.3528
   50MOL0     H 6861   2.539   8.630   2.954 -2.3058 -3.3536 -0.0142
   50MOL0     H 6862   3.005   8.184   2.909 -0.0870  0.1178  0.4769
   50MOL0     H 6863   3.235   8.255   2.902 -0.2433  0.0215  0.8822
   50MOL0     H 6864   3.398   8.372   2.984  2.9734  1.4394  1.6408
   50MOL0     H 6865   3.435   8.332   2.810  1.1755 -0.1298  0.2824
   50MOL0     H 6866   3.570   8.536   2.801  0.3872  0.3080 -0.5133
   50MOL0     H 6867   3.521   8.575   2.961  0.0956  0.2785  0.1152
   50MOL0     H 6868   3.759   8.434   2.916 -1.1169  0.8326 -3.1501
   50MOL0     H 6869   3.651   8.297   2.898 -2.7360  0.0092 -0.6577
   50MOL0     H 6870   3.568   8.299   3.104  0.9608 -0.4256 -2.4355
   50MOL0     H 6871   3.673   8.441   3.159  2.6780 -0.1617  0.7167
   50MOL0     H 6872   3.763   8.160   3.086 -3.7460 -0.8944  1.3606
   50MOL0     H 6873   3.859   8.307   3.100 -0.2834 -0.8959 -2.3067
   50MOL0     H 6874   3.685   8.165   3.320  1.9331 -1.0774 -1.2653
   50MOL0     H 6875   3.759   8.322   3.345 -1.2506  2.0710 -1.6385
   50MOL0     H 6876   3.991   8.222   3.351 -0.4306  0.9251  2.7826
   50MOL0     H 6877   3.913   8.075   3.267 -2.6868 -1.9207  1.8874
   50MOL0     H 6878   3.790   8.043   3.502  0.5119 -0.1348  0.9957
   50MOL0     H 6879   3.870   8.188   3.544  0.5468  0.1059  1.2378
   50MOL0     H 6880   3.116   8.650   2.758 -1.6850  0.2271 -1.5594
   50MOL0     H 6881   2.887   8.576   2.764 -0.4851 -0.9176 -1.8982
   50MOL0     H 6882   2.538   8.185   2.639 -2.3881 -0.6387 -2.2327
   50MOL0     H 6883   2.277   8.174   2.704 -0.2100 -1.3551  1.3516
   50MOL0     H 6884   1.261   8.703   4.048 -0.8482  0.9108 -0.2343
   50MOL0     H 6885   1.299   8.804   4.270  1.0826 -2.3418  2.0192
   50MOL0     H 6886   1.472   9.136   4.502  1.2766 -1.3953 -0.2894
   50MOL0     H 6887   1.533   9.288   4.688 -3.5401  1.1351 -0.6878
   50MOL0     H 6888   1.714   9.053   5.008 -1.6638  0.1754 -1.5686
   50MOL0     H 6889   1.735   9.217   5.070  1.5521  1.0045 -3.2907
   50MOL0     H 6890   1.537   9.001   5.131 -2.7948  0.7427 -2.3817
   50MOL0     H 6891   1.467   9.156   5.141 -0.2681 -1.0041  2.8826
   50MOL0     H 6892   1.545   9.098   5.361  0.2998 -1.3696 -0.6128
   50MOL0     H 6893   1.692   9.045   5.292  0.6402  0.9384  2.7263
   50MOL0     H 6894   1.616   9.340   5.275 -0.5209 -0.8738 -0.5959
   50MOL0     H 6895   1.780   9.264   5.257  0.2603 -0.6272  1.2414
   50MOL0     H 6896   1.811   9.356   5.639 -1.6973  1.9088 -0.2950
   50MOL0     H 6897   1.540   8.934   4.941  1.0893 -2.3052 -1.9681
   50MOL0     H 6898   1.583   8.692   4.701  0.0040 -1.1733  1.1845
   50MOL0     H 6899   1.505   8.728   4.859 -1.8632 -0.7937 -0.1088
   50MOL0     H 6900   1.402   8.708   4.724 -0.4444  1.3902  0.1976
   51MOL0     O 6901   4.021   2.306   4.570 -0.7009 -0.6839  0.5727
   51MOL0     C 6902   3.965   2.202   4.609 -0.0863 -0.0228 -0.5217
   51MOL0     O 6903   4.008   2.079   4.577  0.7678  0.4834 -0.0934
   51MOL0     C 6904   4.050   2.061   4.452 -0.0823  0.6382  1.1282
   51MOL0     C 6905   4.186   2.080   4.423  0.2750 -0.1735 -0.1314
   51MOL0     C 6906   4.226   2.064   4.289 -0.2553 -0.3765  0.4524
   51MOL0     C 6907   4.129   2.033   4.193 -0.2891  0.6688  0.4304
   51MOL0     O 6908   4.185   2.013   4.064 -0.4173 -0.1229 -0.5080
   51MOL0     C 6909   4.094   2.006   3.948  0.4247  0.1137 -0.5248
   51MOL0     C 6910   4.173   2.031   3.823 -0.5156  0.3967 -0.5072
   51MOL0     C 6911   4.258   2.163   3.847 -1.2029 -0.2780  0.3037
   51MOL0     C 6912   4.343   2.212   3.720  0.5081 -0.6153  0.6024
   51MOL0     C 6913   4.245   2.248   3.610 -0.0961  0.0271 -0.3749
   51MOL0     C 6914   4.298   2.347   3.505 -0.2767 -0.0957  0.7627
   51MOL0     C 6915   4.189   2.416   3.409 -0.2643  0.6499 -0.6135
   51MOL0     C 6916   4.098   2.507   3.491  1.5480  0.2656  0.3607
   51MOL0     N 6917   4.178   2.621   3.553  0.1150 -0.3061  0.7905
   51MOL0     C 6918   4.238   2.635   3.676 -0.0581  0.5926  0.6382
   51MOL0     C 6919   4.301   2.754   3.679  0.8320 -0.3331  0.0368
   51MOL0     C 6920   4.390   2.804   3.797  0.6580 -0.6128  0.0387
   51MOL0     C 6921   4.500   2.701   3.828  0.2513 -0.1498  0.4378
   51MOL0     C 6922   4.577   2.645   3.705  0.5928  0.2158 -1.4044
   51MOL0     C 6923   4.674   2.530   3.740 -0.6541  0.1296  0.1219
   51MOL0     O 6924   4.748   2.491   3.622 -0.5793  0.3567  0.3907
   51MOL0     C 6925   4.876   2.452   3.624 -0.9720  0.7161 -0.7464
   51MOL0     C 6926   4.972   2.536   3.566  1.0100  0.9582 -0.1044
   51MOL0     C 6927   5.110   2.494   3.559  1.0969  0.5575 -0.2894
   51MOL0     C 6928   5.202   2.580   3.485 -0.2238 -0.0452 -0.4233
   51MOL0     C 6929   5.158   2.384   3.636 -0.1272  0.5204 -0.1359
   51MOL0     C 6930   5.303   2.348   3.655  0.0512  0.8152  0.6267
   51MOL0     O 6931   5.325   2.237   3.731 -0.1422  0.0179  0.6574
   51MOL0     C 6932   5.450   2.190   3.761 -0.5168 -0.1977  0.3471
   51MOL0     C 6933   5.537   2.114   3.677 -0.2956 -0.4113 -0.0968
   51MOL0     C 6934   5.665   2.069   3.732  0.3401  0.1816  0.9437
   51MOL0     C 6935   5.707   2.103   3.863  0.1858 -0.9296  0.3236
   51MOL0     O 6936   5.824   2.086   3.926  0.0846 -0.0606 -0.3756
   51MOL0     C 6937   5.897   1.968   3.897 -1.3082  0.4236 -0.2164
   51MOL0     C 6938   6.013   1.958   3.992 -0.3282 -1.0322 -0.0906
   51MOL0     C 6939   6.078   1.818   3.966 -0.7899  0.2326 -0.2913
   51MOL0     C 6940   6.227   1.829   4.011 -0.5676 -0.2759  0.5178
   51MOL0     C 6941   6.294   1.689   4.028 -0.4439 -0.7303 -0.4527
   51MOL0     C 6942   6.445   1.701   4.053 -1.4589  0.1031 -0.3073
   51MOL0     C 6943   6.480   1.729   4.196  0.3751  0.2296 -0.1875
   51MOL0     C 6944   6.631   1.772   4.218 -0.1534  0.7942  0.2810
   51MOL0    Cl 6945   6.737   1.615   4.219 -0.2241 -0.0791  0.0807
   51MOL0     C 6946   5.617   2.166   3.942  1.2745 -0.2890 -0.4212
   51MOL0     C 6947   5.491   2.210   3.891  0.1389 -0.1262 -0.1679
   51MOL0     O 6948   5.391   2.423   3.613 -0.2465  0.0288  0.3317
   51MOL0     C 6949   5.060   2.308   3.697  0.1443  0.8251  0.6496
   51MOL0     C 6950   4.922   2.340   3.700 -0.0698 -0.1831  0.2825
   51MOL0     N 6951   4.274   2.817   3.560 -0.1204  0.4120  0.4712
   51MOL0     N 6952   4.206   2.731   3.482  0.3933 -0.3730  0.1730
   51MOL0     C 6953   4.000   2.011   4.229 -0.1799 -0.3400 -0.5944
   51MOL0     C 6954   3.956   2.018   4.361  1.1283 -0.4491  0.0319
   51MOL0     C 6955   3.870   2.211   4.716 -0.0019  0.0719  0.8382
   51MOL0     C 6956   3.882   2.111   4.819 -0.6074 -0.0054 -0.0823
   51MOL0     C 6957   3.799   2.122   4.929 -1.2833 -0.0637 -0.7854
   51MOL0     C 6958   3.730   2.239   4.959  0.4222 -0.0230  0.0554
   51MOL0     O 6959   3.650   2.271   5.066 -0.2653 -0.2154 -0.2020
   51MOL0     C 6960   3.601   2.154   5.137 -0.1842 -0.7125  0.1165
   51MOL0     C 6961   3.517   2.221   5.246  0.3750  0.1738 -0.0502
   51MOL0     C 6962   3.422   2.124   5.308 -0.0749  0.7754 -0.0127
   51MOL0     C 6963   3.368   2.170   5.441  0.8481 -0.7135  0.0560
   51MOL0     C 6964   3.270   2.067   5.494  0.0966 -0.3686  0.6542
   51MOL0     C 6965   3.193   1.987   5.537 -0.5690 -0.8137 -0.1045
   51MOL0     C 6966   3.713   2.337   4.856  0.0084 -0.0350 -0.4953
   51MOL0     C 6967   3.785   2.323   4.734  0.8049  0.0099 -0.1105
   51MOL0     C 6968   3.748   2.421   4.617  0.1731  0.3421 -0.1421
   51MOL0     H 6969   4.249   2.130   4.496 -0.3216 -1.9722  1.7002
   51MOL0     H 6970   4.324   2.085   4.248 -0.2928 -2.3569 -0.7835
   51MOL0     H 6971   4.015   2.080   3.961  3.1860  3.2658 -0.4670
   51MOL0     H 6972   4.045   1.908   3.959  1.7225 -0.6067 -0.9548
   51MOL0     H 6973   4.236   1.942   3.808 -0.4993 -0.3718  3.2261
   51MOL0     H 6974   4.105   2.040   3.737 -0.2592  0.9931 -0.6515
   51MOL0     H 6975   4.193   2.247   3.874  0.7883  1.2011  0.7083
   51MOL0     H 6976   4.342   2.159   3.918  2.2331  1.8474 -3.2729
   51MOL0     H 6977   4.399   2.302   3.748  0.3790 -0.5220  0.5582
   51MOL0     H 6978   4.416   2.137   3.688  0.5904 -0.4549  0.4084
   51MOL0     H 6979   4.161   2.296   3.660 -0.1948  1.1781 -1.6075
   51MOL0     H 6980   4.216   2.162   3.549  0.8185  0.5293 -1.5442
   51MOL0     H 6981   4.367   2.417   3.551 -0.1114  1.4043 -1.5990
   51MOL0     H 6982   4.359   2.279   3.445  0.1519  0.8147  0.1390
   51MOL0     H 6983   4.136   2.340   3.350  1.1127 -1.8552  1.2057
   51MOL0     H 6984   4.242   2.475   3.334 -0.5558 -0.9957 -2.1964
   51MOL0     H 6985   4.019   2.546   3.426  0.2946 -0.0776  1.6264
   51MOL0     H 6986   4.046   2.447   3.567  1.0091 -3.5445 -2.7018
   51MOL0     H 6987   4.230   2.553   3.746 -3.0843  0.5021  0.3412
   51MOL0     H 6988   4.322   2.812   3.883  1.2048  0.4207  0.3875
   51MOL0     H 6989   4.427   2.903   3.769  1.2654 -0.7819  0.2366
   51MOL0     H 6990   4.568   2.748   3.900 -0.8689  0.7237  0.9608
   51MOL0     H 6991   4.450   2.624   3.887  0.6036  1.3172  2.7642
   51MOL0     H 6992   4.508   2.620   3.624  0.8581  1.7892 -2.1537
   51MOL0     H 6993   4.647   2.726   3.682  0.6755  1.6802  3.0603
   51MOL0     H 6994   4.749   2.544   3.819  1.7414 -0.1397 -1.9773
   51MOL0     H 6995   4.613   2.441   3.759 -1.2515  0.4657 -0.2073
   51MOL0     H 6996   4.927   2.616   3.508 -0.1346  0.0792 -0.4846
   51MOL0     H 6997   5.156   2.663   3.431 -0.3725 -0.9183 -1.6541
   51MOL0     H 6998   5.253   2.516   3.414  2.1362 -0.7883  1.7717
   51MOL0     H 6999   5.264   2.638   3.556 -1.0522 -1.3998  1.4957
   51MOL0     H 7000   5.519   2.092   3.572  0.2837  3.6614 -1.1961
   51MOL0     H 7001   5.720   2.001   3.668 -3.0584 -2.8827  0.9203
   51MOL0     H 7002   5.834   1.879   3.904 -1.4823  0.5311 -0.4161
   51MOL0     H 7003   5.941   1.981   3.798 -0.2982  1.0334  0.2895
   51MOL0     H 7004   6.093   2.029   3.971 -0.6844 -0.9550 -1.2838
   51MOL0     H 7005   5.988   1.969   4.098 -0.0905 -2.2118  0.1030
   51MOL0     H 7006   6.069   1.792   3.860 -2.8085 -3.5378  0.6065
   51MOL0     H 7007   6.033   1.739   4.027  0.9796 -0.7153 -0.1772
   51MOL0     H 7008   6.234   1.895   4.097 -2.0895  2.4528 -1.2920
   51MOL0     H 7009   6.279   1.884   3.932 -0.6369 -0.4236  0.3676
   51MOL0     H 7010   6.249   1.642   4.116  1.4702 -0.2901  0.8189
   51MOL0     H 7011   6.281   1.626   3.939 -1.8889  0.1959 -0.9319
   51MOL0     H 7012   6.485   1.789   4.000 -1.2376 -0.3730 -0.9410
   51MOL0     H 7013   6.491   1.607   4.021 -0.0843  0.0242  1.7380
   51MOL0     H 7014   6.453   1.643   4.258 -1.8410  0.2125 -1.0881
   51MOL0     H 7015   6.409   1.802   4.235  0.6053  0.6020 -0.4571
   51MOL0     H 7016   6.643   1.832   4.309  0.9007 -1.0494  1.4073
   51MOL0     H 7017   6.667   1.839   4.139  2.9463 -3.1016 -1.9795
   51MOL0     H 7018   5.651   2.203   4.038  0.4247 -0.7998  0.0879
   51MOL0     H 7019   5.430   2.266   3.962  0.3769 -1.4051  1.0873
   51MOL0     H 7020   5.094   2.227   3.760 -2.5087 -0.9629 -0.0151
   51MOL0     H 7021   4.859   2.272   3.756  0.2565 -1.1639 -0.5159
   51MOL0     H 7022   3.923   1.962   4.171 -0.2647  0.6100 -1.3200
   51MOL0     H 7023   3.856   1.999   4.399  0.4269  1.9483 -0.3712
   51MOL0     H 7024   3.948   2.027   4.801 -1.5443 -0.6751 -0.4618
   51MOL0     H 7025   3.801   2.047   5.008  1.1907 -1.5650 -2.1582
   51MOL0     H 7026   3.542   2.097   5.064 -1.8217  1.3425 -0.2924
   51MOL0     H 7027   3.678   2.094   5.184  0.8832  0.7510  0.3070
   51MOL0     H 7028   3.464   2.308   5.207 -1.3329 -1.2261 -0.9484
   51MOL0     H 7029   3.587   2.256   5.323  1.6237 -0.0251 -1.0577
   51MOL0     H 7030   3.340   2.100   5.240 -1.0722 -0.6379  1.5759
   51MOL0     H 7031   3.482   2.032   5.319  0.0094  0.9000  0.6516
   51MOL0     H 7032   3.320   2.268   5.434 -1.7152 -1.8726  0.1990
   51MOL0     H 7033   3.451   2.180   5.512  0.6418 -0.2096  0.2334
   51MOL0     H 7034   3.121   1.914   5.568  0.9703 -2.2267  0.2801
   51MOL0     H 7035   3.650   2.424   4.874  2.5990  1.9705 -0.5613
   51MOL0     H 7036   3.639   2.421   4.611  0.1371  0.6129  0.4257
   51MOL0     H 7037   3.786   2.523   4.626  0.9183  0.0654 -0.0966
   51MOL0     H 7038   3.786   2.387   4.521  0.1776  0.9290 -0.3487
   52MOL0     O 7039  10.461   3.527   4.230  0.6007  0.2941 -0.6624
   52MOL0     C 7040  10.471   3.646   4.215  0.7553  0.3893  0.1628
   52MOL0     O 7041  10.565   3.721   4.266 -0.6928 -0.1294 -0.0058
   52MOL0     C 7042  10.648   3.663   4.368  0.2608 -0.0310  0.4665
   52MOL0     C 7043  10.759   3.581   4.329  0.7265 -0.4253  0.6771
   52MOL0     C 7044  10.827   3.517   4.429  0.2921 -0.4670 -0.1185
   52MOL0     C 7045  10.802   3.536   4.560  0.0257  0.8160  0.6461
   52MOL0     O 7046  10.887   3.469   4.643  0.5334  0.9838 -0.2462
   52MOL0     C 7047  10.885   3.503   4.786  0.5136 -0.1505 -0.4875
   52MOL0     C 7048  11.010   3.449   4.850  0.5477  0.3687 -0.2160
   52MOL0     C 7049  11.026   3.293   4.848  0.6623 -0.6101  0.2661
   52MOL0     C 7050  11.156   3.244   4.901 -0.7951  0.6284  0.4336
   52MOL0     C 7051  11.203   3.095   4.902 -0.6193 -0.2901 -0.1362
   52MOL0     C 7052  11.106   3.008   4.972 -0.1547  0.4199 -0.2655
   52MOL0     C 7053  11.144   2.860   4.932  0.0020  0.0853  0.3296
   52MOL0     C 7054  11.075   2.818   4.798  0.0438 -0.2012  0.4593
   52MOL0     N 7055  11.087   2.670   4.789 -0.7198 -0.2397  0.1320
   52MOL0     C 7056  11.031   2.571   4.869  0.0351 -0.1547  0.3238
   52MOL0     C 7057  11.105   2.461   4.838  0.3677 -0.4090  0.0107
   52MOL0     C 7058  11.090   2.326   4.892  0.1605  0.7136 -0.7309
   52MOL0     C 7059  11.183   2.291   5.007  0.2956  0.2958  0.5497
   52MOL0     C 7060  11.124   2.175   5.089 -0.0398  0.4545 -0.2946
   52MOL0     C 7061  11.005   2.211   5.171  0.4308 -0.3049 -0.1483
   52MOL0     O 7062  10.991   2.130   5.289 -0.8517 -0.1546 -0.2001
   52MOL0     C 7063  10.875   2.149   5.357 -0.6305 -0.0315 -0.0767
   52MOL0     C 7064  10.838   2.042   5.437  0.4116 -0.1718 -0.1820
   52MOL0     C 7065  10.714   2.043   5.500 -0.3680  0.1198  0.4572
   52MOL0     C 7066  10.675   1.904   5.552 -0.3913 -0.2146  0.4976
   52MOL0     C 7067  10.631   2.162   5.508 -0.6709 -0.1535  0.2726
   52MOL0     C 7068  10.494   2.178   5.574  0.2359 -0.0840  0.0979
   52MOL0     O 7069  10.426   2.296   5.540  0.4270 -0.1575 -0.1909
   52MOL0     C 7070  10.294   2.316   5.566  0.1104 -0.4004  0.0140
   52MOL0     C 7071  10.195   2.220   5.557  0.4900  0.2795 -0.3062
   52MOL0     C 7072  10.064   2.260   5.592  0.8574 -0.5928 -0.0728
   52MOL0     C 7073  10.026   2.394   5.619 -0.7031 -0.0814  0.7453
   52MOL0     O 7074   9.900   2.429   5.656  0.0894  0.2154  0.1415
   52MOL0     C 7075   9.812   2.423   5.540  0.0571  0.6574 -0.9341
   52MOL0     C 7076   9.678   2.478   5.577 -0.0687 -0.4804 -0.2134
   52MOL0     C 7077   9.581   2.386   5.647  0.5937  0.2431 -0.2436
   52MOL0     C 7078   9.440   2.445   5.644  0.2273  0.2361 -0.2761
   52MOL0     C 7079   9.356   2.381   5.755 -0.7717  0.3163 -0.1397
   52MOL0     C 7080   9.225   2.441   5.787  0.0677  0.0600  0.0809
   52MOL0     C 7081   9.129   2.457   5.672 -0.4900  0.6887  0.4738
   52MOL0     C 7082   8.995   2.483   5.739 -0.2449 -0.3354 -0.6013
   52MOL0    Cl 7083   8.859   2.482   5.623 -0.4751  0.0971  0.3223
   52MOL0     C 7084  10.128   2.489   5.612 -0.5657  1.2395  0.1325
   52MOL0     C 7085  10.259   2.451   5.584  0.7632 -0.1391 -0.5745
   52MOL0     O 7086  10.450   2.084   5.645 -0.3265 -0.3337  0.0675
   52MOL0     C 7087  10.686   2.272   5.441 -0.8272  0.3942 -0.0236
   52MOL0     C 7088  10.806   2.266   5.360  0.2502 -1.1152 -0.4011
   52MOL0     N 7089  11.206   2.494   4.750  0.0509 -0.0123  0.3921
   52MOL0     N 7090  11.198   2.620   4.729  0.2546 -0.2767 -0.0213
   52MOL0     C 7091  10.703   3.619   4.598 -0.4335 -0.2907 -0.1929
   52MOL0     C 7092  10.633   3.685   4.502  0.1133 -0.7173  0.7167
   52MOL0     C 7093  10.369   3.714   4.131  0.6748  1.0102 -0.2080
   52MOL0     C 7094  10.388   3.853   4.114  0.0189 -0.3955  0.5705
   52MOL0     C 7095  10.297   3.931   4.039 -0.0920 -0.7444  0.0292
   52MOL0     C 7096  10.185   3.873   3.985 -0.2205  1.2810  0.3936
   52MOL0     O 7097  10.092   3.944   3.912  0.0653  0.2842  0.8086
   52MOL0     C 7098  10.079   4.082   3.911 -0.7193 -0.4318 -0.1451
   52MOL0     C 7099  10.045   4.121   4.052 -0.0579 -0.0291  0.0812
   52MOL0     C 7100   9.975   4.264   4.054 -0.4583  0.3753 -0.2351
   52MOL0     C 7101   9.993   4.316   4.201 -0.8072  0.0517  0.5415
   52MOL0     C 7102   9.941   4.456   4.205  0.5191 -0.7069  0.4467
   52MOL0     C 7103   9.908   4.570   4.206 -0.0169 -0.1613  0.0022
   52MOL0     C 7104  10.168   3.737   4.003  0.3827  0.0563  0.6899
   52MOL0     C 7105  10.252   3.647   4.073 -0.4800  0.4758 -0.3647
   52MOL0     C 7106  10.227   3.501   4.069 -0.6165  0.5486 -0.2394
   52MOL0     H 7107  10.791   3.577   4.225  3.2552  3.4359  1.1108
   52MOL0     H 7108  10.908   3.452   4.396  2.3655  2.3018 -0.9262
   52MOL0     H 7109  10.793   3.464   4.830 -0.8946  2.4094 -0.9200
   52MOL0     H 7110  10.890   3.612   4.799 -1.1105 -0.1640  0.6490
   52MOL0     H 7111  11.091   3.502   4.799  0.2842 -0.2757 -1.3344
   52MOL0     H 7112  11.009   3.490   4.951  2.1264  0.4139 -0.1936
   52MOL0     H 7113  10.939   3.250   4.898  0.4306  0.3276  0.7033
   52MOL0     H 7114  11.020   3.264   4.743  0.5055  1.0232 -0.2043
   52MOL0     H 7115  11.223   3.284   4.825  0.1542  1.3860  1.6376
   52MOL0     H 7116  11.167   3.284   5.002  0.7475 -2.8373  1.8032
   52MOL0     H 7117  11.296   3.095   4.959 -0.3808  0.4492 -0.5103
   52MOL0     H 7118  11.225   3.061   4.800 -1.3548 -1.0561 -0.0481
   52MOL0     H 7119  11.113   3.019   5.080  0.3816  1.7911 -0.4250
   52MOL0     H 7120  11.005   3.035   4.939  0.5661  2.3897 -0.9802
   52MOL0     H 7121  11.121   2.787   5.010  0.9930 -0.3889  0.1976
   52MOL0     H 7122  11.253   2.864   4.922  0.2485  1.7116  2.7859
   52MOL0     H 7123  10.973   2.856   4.803  0.0222 -0.2126  0.1252
   52MOL0     H 7124  11.131   2.865   4.717 -0.6123  1.3487  0.8697
   52MOL0     H 7125  10.952   2.591   4.941  2.2100  4.3924  1.8641
   52MOL0     H 7126  11.111   2.251   4.816  0.4358 -0.9177  0.8902
   52MOL0     H 7127  10.988   2.317   4.930  1.2118 -0.4211  2.1049
   52MOL0     H 7128  11.281   2.261   4.970 -0.4261 -0.3906 -0.8584
   52MOL0     H 7129  11.195   2.383   5.065 -0.1274  1.1732 -0.7175
   52MOL0     H 7130  11.097   2.099   5.015 -1.2337  2.6739 -2.2431
   52MOL0     H 7131  11.194   2.141   5.166 -0.2198 -0.3814 -0.4914
   52MOL0     H 7132  11.022   2.311   5.211  1.2883 -1.2813  2.0719
   52MOL0     H 7133  10.915   2.225   5.111 -1.7641  0.5324  3.0969
   52MOL0     H 7134  10.891   1.949   5.422  0.5381  0.1391 -1.7726
   52MOL0     H 7135  10.574   1.901   5.594 -2.0761 -0.4965 -3.1731
   52MOL0     H 7136  10.750   1.869   5.624 -1.8698  1.0106  2.7228
   52MOL0     H 7137  10.671   1.842   5.463 -0.7622 -0.5529  0.7502
   52MOL0     H 7138  10.201   2.117   5.521  1.6499  0.2899 -0.1784
   52MOL0     H 7139   9.978   2.194   5.589 -0.1823  0.5906  1.5220
   52MOL0     H 7140   9.852   2.477   5.454 -0.1731  0.1579 -1.3658
   52MOL0     H 7141   9.795   2.316   5.524 -2.2513  0.7939  0.1209
   52MOL0     H 7142   9.706   2.565   5.636  2.0238 -1.4792  0.3392
   52MOL0     H 7143   9.630   2.508   5.483 -1.9865 -1.0546  0.5410
   52MOL0     H 7144   9.610   2.354   5.747  0.7702  0.6126 -0.1772
   52MOL0     H 7145   9.581   2.294   5.587  0.8422 -0.0651  0.2238
   52MOL0     H 7146   9.385   2.439   5.549 -0.0946  2.4900 -0.2801
   52MOL0     H 7147   9.458   2.551   5.660  1.9647 -0.1552  0.5664
   52MOL0     H 7148   9.351   2.274   5.733  2.3809 -0.4051  2.0523
   52MOL0     H 7149   9.417   2.379   5.846 -1.3172  0.0745  0.2302
   52MOL0     H 7150   9.251   2.536   5.835  2.5110 -1.3242  1.7334
   52MOL0     H 7151   9.174   2.381   5.863 -0.5786  0.8515  0.2913
   52MOL0     H 7152   9.132   2.371   5.603  1.5448  1.2686 -0.2235
   52MOL0     H 7153   9.159   2.540   5.607  0.9661  0.2404  0.5305
   52MOL0     H 7154   9.007   2.573   5.800 -0.5368 -0.4037 -0.4382
   52MOL0     H 7155   8.970   2.407   5.815 -1.2664 -1.3387 -1.8972
   52MOL0     H 7156  10.114   2.595   5.628  1.7480  1.3836  1.8509
   52MOL0     H 7157  10.340   2.522   5.590  0.7661  0.2920 -4.0127
   52MOL0     H 7158  10.632   2.366   5.444 -2.7500 -0.6521 -0.2517
   52MOL0     H 7159  10.842   2.353   5.305  0.2266 -0.7359  0.1775
   52MOL0     H 7160  10.702   3.641   4.704  2.2078  0.1973 -0.2004
   52MOL0     H 7161  10.565   3.768   4.517  0.4019 -0.4390  0.5036
   52MOL0     H 7162  10.479   3.893   4.158  2.9234 -1.8778 -3.4805
   52MOL0     H 7163  10.313   4.037   4.024  0.0212 -0.9100 -1.1873
   52MOL0     H 7164  10.165   4.134   3.868  0.4515 -2.1159  0.0565
   52MOL0     H 7165   9.990   4.099   3.850 -1.5196 -1.2555  0.7424
   52MOL0     H 7166  10.141   4.129   4.103 -0.4544 -0.7576  0.9776
   52MOL0     H 7167   9.977   4.050   4.100  0.6825 -0.0523  1.1367
   52MOL0     H 7168  10.017   4.335   3.984 -0.6882  0.8687  0.1233
   52MOL0     H 7169   9.868   4.253   4.036 -0.4292  0.3367 -0.3831
   52MOL0     H 7170  10.098   4.327   4.230 -0.2906 -0.9789 -0.8500
   52MOL0     H 7171   9.939   4.252   4.271 -2.1990 -0.1477 -0.6954
   52MOL0     H 7172   9.866   4.668   4.216  0.1764 -0.0747 -0.0212
   52MOL0     H 7173  10.085   3.697   3.945  0.8566 -0.5167  0.3968
   52MOL0     H 7174  10.315   3.453   4.024 -0.3032  0.9392 -0.0420
   52MOL0     H 7175  10.216   3.462   4.171 -1.5305  1.0660 -0.1340
   52MOL0     H 7176  10.140   3.468   4.012 -2.7146  2.1064  1.8617
   53MOL0     O 7177   1.851   3.922   1.345  0.4391  0.4357  0.1417
   53MOL0     C 7178   1.791   3.854   1.260 -0.4685  0.2862  1.1451
   53MOL0     O 7179   1.826   3.848   1.123  1.2610 -0.4471 -0.0007
   53MOL0     C 7180   1.912   3.939   1.064 -0.7921  0.8677  0.1274
   53MOL0     C 7181   2.048   3.952   1.105  0.4988 -0.3475  0.2324
   53MOL0     C 7182   2.143   4.025   1.026  0.6149 -0.5457  0.7777
   53MOL0     C 7183   2.106   4.070   0.900  0.2491 -0.2472  0.6695
   53MOL0     O 7184   2.205   4.131   0.828  0.3855 -0.0263  0.5448
   53MOL0     C 7185   2.212   4.083   0.693 -0.1765  0.2879  0.2037
   53MOL0     C 7186   2.332   4.148   0.625  0.0740  0.2835 -0.3967
   53MOL0     C 7187   2.345   4.090   0.482  0.6257  0.4371 -0.0670
   53MOL0     C 7188   2.472   4.116   0.401 -0.9802 -0.5327 -0.2405
   53MOL0     C 7189   2.460   4.067   0.252  0.3448  0.2546 -0.4010
   53MOL0     C 7190   2.554   4.130   0.162  0.1044  0.5513  0.5447
   53MOL0     C 7191   2.510   4.124   0.021  0.0919  0.2949  0.1218
   53MOL0     C 7192   2.618   4.180  -0.073 -0.0292 -0.7078 -0.1643
   53MOL0     N 7193   2.591   4.172  -0.215  0.6002  0.1548 -0.8584
   53MOL0     C 7194   2.642   4.077  -0.300  0.3106  0.4171 -0.1175
   53MOL0     C 7195   2.585   4.104  -0.412 -0.1078 -0.3095 -0.4157
   53MOL0     C 7196   2.609   4.016  -0.538 -0.0993  0.2339 -0.2630
   53MOL0     C 7197   2.631   4.112  -0.652  0.2077  0.6933  0.8579
   53MOL0     C 7198   2.630   4.051  -0.794 -0.1569 -0.3335 -0.2119
   53MOL0     C 7199   2.692   3.915  -0.809  0.1004 -0.5617 -0.1412
   53MOL0     O 7200   2.700   3.886  -0.951 -0.4136  0.5128 -0.2508
   53MOL0     C 7201   2.786   3.789  -0.997  0.6301 -0.1693 -0.0647
   53MOL0     C 7202   2.864   3.710  -0.908 -0.2495  0.3873 -0.4391
   53MOL0     C 7203   2.944   3.599  -0.944  0.2396 -0.4829  0.7269
   53MOL0     C 7204   3.018   3.513  -0.841  0.3321  0.4406 -0.8494
   53MOL0     C 7205   2.945   3.571  -1.088 -0.3663 -0.1114  0.5982
   53MOL0     C 7206   3.021   3.464  -1.158 -0.0607  0.5389  0.2781
   53MOL0     O 7207   3.041   3.479  -1.298  0.1390  0.2666 -0.5555
   53MOL0     C 7208   3.126   3.387  -1.359 -0.3488 -0.0209  0.6375
   53MOL0     C 7209   3.100   3.250  -1.356  0.4420  0.3051  0.4838
   53MOL0     C 7210   3.189   3.160  -1.425 -0.5010 -0.6463  0.2467
   53MOL0     C 7211   3.309   3.207  -1.486 -0.5720 -0.1097  0.1142
   53MOL0     O 7212   3.409   3.114  -1.524 -0.3108 -0.3388 -0.4352
   53MOL0     C 7213   3.545   3.161  -1.551  0.0684 -0.3106  0.0543
   53MOL0     C 7214   3.631   3.029  -1.576 -0.2429 -0.3864  0.8704
   53MOL0     C 7215   3.628   2.928  -1.461  0.3195  0.4608 -0.8095
   53MOL0     C 7216   3.698   2.801  -1.507 -0.5548 -0.7192  0.5428
   53MOL0     C 7217   3.725   2.706  -1.382 -0.4829  0.1562  0.2635
   53MOL0     C 7218   3.715   2.561  -1.432  0.0105 -0.7819  0.9955
   53MOL0     C 7219   3.772   2.475  -1.309  0.6438  0.6494  0.5862
   53MOL0     C 7220   3.662   2.419  -1.221  0.3120 -0.0308  0.1414
   53MOL0    Cl 7221   3.729   2.324  -1.084 -0.4884 -0.2245  0.0514
   53MOL0     C 7222   3.326   3.350  -1.505 -0.4526  0.5875  0.6083
   53MOL0     C 7223   3.230   3.436  -1.446 -0.5801 -0.2614 -1.1411
   53MOL0     O 7224   3.057   3.369  -1.093 -0.1081  0.0689  0.4272
   53MOL0     C 7225   2.866   3.651  -1.177 -0.4250  0.4211  0.1496
   53MOL0     C 7226   2.791   3.754  -1.128  0.1323 -0.4718  0.7590
   53MOL0     N 7227   2.478   4.191  -0.390 -0.2861  0.3269  0.1970
   53MOL0     N 7228   2.487   4.237  -0.266 -0.5116  0.3494  0.2002
   53MOL0     C 7229   1.978   4.053   0.859  0.0840 -0.0569  0.9941
   53MOL0     C 7230   1.882   3.980   0.931  0.8862  0.1157  0.3897
   53MOL0     C 7231   1.676   3.770   1.314  1.0119  0.8722  0.0779
   53MOL0     C 7232   1.575   3.729   1.219  0.0439 -0.2505  0.0922
   53MOL0     C 7233   1.463   3.653   1.258 -0.0221  0.1222 -0.5356
   53MOL0     C 7234   1.445   3.614   1.391 -0.6574 -0.4287  0.2005
   53MOL0     O 7235   1.339   3.528   1.418 -0.0159  0.1278 -0.0877
   53MOL0     C 7236   1.233   3.574   1.516 -0.9651 -0.3982  0.9442
   53MOL0     C 7237   1.149   3.463   1.558 -0.3726  0.9132  0.3838
   53MOL0     C 7238   1.070   3.470   1.695  0.7051  0.3837  0.0012
   53MOL0     C 7239   0.997   3.602   1.700 -0.3656 -0.1223 -0.0418
   53MOL0     C 7240   0.942   3.639   1.834 -0.3040 -0.6592  0.2112
   53MOL0     C 7241   0.878   3.685   1.929 -0.9640 -0.1060  0.7009
   53MOL0     C 7242   1.537   3.664   1.485 -0.6634  0.4191 -0.1251
   53MOL0     C 7243   1.650   3.742   1.452  0.3052 -0.0431 -0.0808
   53MOL0     C 7244   1.756   3.768   1.552  0.6489 -0.2330 -0.0003
   53MOL0     H 7245   2.088   3.911   1.197  2.4759  0.3130 -0.2755
   53MOL0     H 7246   2.243   4.049   1.062  0.9587  1.1341 -1.1533
   53MOL0     H 7247   2.120   4.122   0.647 -1.0021 -0.0397  1.5182
   53MOL0     H 7248   2.208   3.974   0.695 -0.1606  0.2673 -0.6767
   53MOL0     H 7249   2.316   4.256   0.632  1.4899  0.5235 -0.5537
   53MOL0     H 7250   2.419   4.133   0.689 -0.3362 -0.1526  0.0612
   53MOL0     H 7251   2.332   3.983   0.499  1.2856  0.6636  2.0962
   53MOL0     H 7252   2.251   4.113   0.430 -0.0937 -1.1157  0.4745
   53MOL0     H 7253   2.482   4.225   0.413 -0.1199 -0.8624  2.9806
   53MOL0     H 7254   2.561   4.076   0.449 -0.1777  1.1486 -0.2503
   53MOL0     H 7255   2.356   4.089   0.225  0.2669  0.3290 -0.0492
   53MOL0     H 7256   2.463   3.959   0.240 -4.0159 -0.2761  1.3845
   53MOL0     H 7257   2.569   4.236   0.184  1.8401  0.5355 -0.3644
   53MOL0     H 7258   2.650   4.079   0.174  1.1743  2.4800  0.6106
   53MOL0     H 7259   2.411   4.165   0.001  0.9742  2.4185 -0.1905
   53MOL0     H 7260   2.490   4.020  -0.007 -0.1024  0.7048 -1.3482
   53MOL0     H 7261   2.630   4.284  -0.044 -2.1219  0.2557 -2.3650
   53MOL0     H 7262   2.714   4.132  -0.050 -1.5790 -2.8319  2.3776
   53MOL0     H 7263   2.722   4.008  -0.273  2.5084  2.1139 -1.9358
   53MOL0     H 7264   2.520   3.954  -0.543  0.3454 -0.6351  1.8127
   53MOL0     H 7265   2.702   3.958  -0.528  0.3513  1.0485  0.4152
   53MOL0     H 7266   2.550   4.185  -0.641 -1.0280 -0.4755 -0.1307
   53MOL0     H 7267   2.728   4.160  -0.642  1.9879 -2.0653 -1.5867
   53MOL0     H 7268   2.532   4.056  -0.842  1.4228  1.1941 -3.6087
   53MOL0     H 7269   2.686   4.126  -0.851 -3.1694  1.1679 -1.4186
   53MOL0     H 7270   2.787   3.919  -0.754 -0.1522  1.2279  0.2467
   53MOL0     H 7271   2.624   3.855  -0.748 -2.0611  1.3674 -0.5238
   53MOL0     H 7272   2.862   3.731  -0.802  1.7003  2.6484 -0.7655
   53MOL0     H 7273   2.997   3.557  -0.744 -1.6381 -1.5007 -0.3238
   53MOL0     H 7274   3.126   3.517  -0.858  0.2793 -0.5018 -1.5089
   53MOL0     H 7275   2.979   3.411  -0.844  0.8917  0.2013 -0.2158
   53MOL0     H 7276   3.011   3.214  -1.304 -1.1206  3.2706  0.0694
   53MOL0     H 7277   3.188   3.051  -1.420  1.2904 -0.6443  1.6238
   53MOL0     H 7278   3.549   3.227  -1.639 -3.6647  2.8696  1.9735
   53MOL0     H 7279   3.597   3.209  -1.468 -0.1876 -1.8068  1.1182
   53MOL0     H 7280   3.599   2.988  -1.672  1.5953 -0.5803  0.3039
   53MOL0     H 7281   3.737   3.059  -1.578 -0.0428 -1.1141 -0.8796
   53MOL0     H 7282   3.527   2.894  -1.439  1.4522 -0.8837  3.0480
   53MOL0     H 7283   3.672   2.977  -1.374  2.0883  0.3223 -1.5783
   53MOL0     H 7284   3.789   2.818  -1.565 -1.6131 -2.3946 -1.7785
   53MOL0     H 7285   3.629   2.755  -1.578 -1.7952  1.1762  0.4484
   53MOL0     H 7286   3.825   2.738  -1.353 -0.1322 -1.4359  0.9060
   53MOL0     H 7287   3.652   2.725  -1.303 -1.6913  2.7344 -1.3186
   53MOL0     H 7288   3.774   2.559  -1.525 -0.0562  0.1509  0.9245
   53MOL0     H 7289   3.614   2.537  -1.466 -0.2088  1.5513 -0.1996
   53MOL0     H 7290   3.845   2.531  -1.250  1.8241  1.8808 -1.8706
   53MOL0     H 7291   3.812   2.386  -1.360 -1.3255  1.2556 -2.2483
   53MOL0     H 7292   3.592   2.369  -1.289 -0.7730  2.1954 -0.4826
   53MOL0     H 7293   3.610   2.501  -1.170  0.7726  0.0981  0.4134
   53MOL0     H 7294   3.418   3.382  -1.552  1.0055  0.9542  3.4700
   53MOL0     H 7295   3.225   3.544  -1.447  1.6126 -0.0853  0.2586
   53MOL0     H 7296   2.871   3.640  -1.285  1.5057 -1.7534  0.3591
   53MOL0     H 7297   2.737   3.804  -1.208  0.7050 -0.5890  0.2856
   53MOL0     H 7298   1.952   4.103   0.766 -0.8295 -0.5818  0.9510
   53MOL0     H 7299   1.784   3.966   0.886  1.0352  1.0534 -0.2665
   53MOL0     H 7300   1.595   3.745   1.114  2.8059 -0.1612  0.5653
   53MOL0     H 7301   1.382   3.636   1.188 -1.4495  0.6673  0.9274
   53MOL0     H 7302   1.276   3.629   1.600  1.1604 -0.4234 -0.0722
   53MOL0     H 7303   1.168   3.645   1.464  1.4303  1.2962  0.0840
   53MOL0     H 7304   1.217   3.377   1.562  2.2307  2.8565  3.1997
   53MOL0     H 7305   1.080   3.438   1.477 -2.4028  0.0078  2.2903
   53MOL0     H 7306   0.993   3.392   1.699  2.3684 -1.3797 -1.0495
   53MOL0     H 7307   1.137   3.466   1.782  0.8916  0.8371 -0.1176
   53MOL0     H 7308   0.919   3.597   1.622 -1.7116 -3.7075  1.3214
   53MOL0     H 7309   1.075   3.672   1.669 -0.2429 -0.1910  0.1163
   53MOL0     H 7310   0.817   3.727   2.006  0.6914  1.3387  1.3000
   53MOL0     H 7311   1.522   3.643   1.590  0.0557  1.4408  0.1967
   53MOL0     H 7312   1.744   3.695   1.632 -0.9560 -0.5241 -0.4710
   53MOL0     H 7313   1.859   3.752   1.517  0.9481  0.2346  0.6471
   53MOL0     H 7314   1.742   3.874   1.574  1.5400 -0.0034 -0.4656
   54MOL0     O 7315   8.051   3.559   0.901  0.0344  0.0412  0.5782
   54MOL0     C 7316   8.067   3.456   0.972  0.3546  0.2027  0.1835
   54MOL0     O 7317   8.184   3.416   1.035  0.0982 -0.3259 -0.0988
   54MOL0     C 7318   8.297   3.491   1.048 -0.3172 -0.3119  0.9420
   54MOL0     C 7319   8.375   3.472   1.162  0.0550 -0.0052  0.2122
   54MOL0     C 7320   8.494   3.539   1.183 -0.2941 -0.8012  0.3419
   54MOL0     C 7321   8.540   3.638   1.091  0.4601  0.3204  0.5022
   54MOL0     O 7322   8.646   3.726   1.105  0.1591  0.2130  0.4639
   54MOL0     C 7323   8.712   3.735   1.232 -0.1089 -0.0877  0.6488
   54MOL0     C 7324   8.816   3.621   1.249  0.9298  0.1738  0.0541
   54MOL0     C 7325   8.891   3.630   1.369 -1.1347  0.3092 -0.2100
   54MOL0     C 7326   8.986   3.756   1.374  0.6132  0.6590  0.1806
   54MOL0     C 7327   9.097   3.740   1.476  0.1637 -0.1822 -0.6423
   54MOL0     C 7328   9.040   3.709   1.615 -0.5264  0.3115 -0.0648
   54MOL0     C 7329   9.157   3.719   1.717  0.2957  0.5837 -0.2874
   54MOL0     C 7330   9.262   3.597   1.699 -0.0584 -0.0304 -1.0232
   54MOL0     N 7331   9.368   3.615   1.800  0.6531  0.5138  0.6605
   54MOL0     C 7332   9.488   3.663   1.777  0.2518  0.3983  0.5702
   54MOL0     C 7333   9.552   3.629   1.890 -0.5427 -0.4080 -0.2311
   54MOL0     C 7334   9.695   3.664   1.922 -0.0550  1.0078 -0.2751
   54MOL0     C 7335   9.788   3.549   1.923 -0.4031  0.1348 -0.0086
   54MOL0     C 7336   9.934   3.600   1.935  0.4300 -0.0654 -0.3839
   54MOL0     C 7337  10.037   3.489   1.963  0.2447  0.2921  0.6874
   54MOL0     O 7338  10.169   3.538   1.925 -0.1042 -0.2400  0.0799
   54MOL0     C 7339  10.270   3.448   1.956  0.0640 -0.2894  0.1442
   54MOL0     C 7340  10.268   3.337   2.041  0.4143 -0.2309 -0.2666
   54MOL0     C 7341  10.381   3.263   2.080  0.2137 -0.6343 -0.2401
   54MOL0     C 7342  10.354   3.175   2.197 -0.3339 -0.1307 -0.1492
   54MOL0     C 7343  10.512   3.302   2.028 -0.0030  0.7667 -1.0781
   54MOL0     C 7344  10.637   3.229   2.071  0.2401  0.1763 -1.0421
   54MOL0     O 7345  10.618   3.106   2.133  0.5058 -0.5553 -0.0720
   54MOL0     C 7346  10.722   3.033   2.190 -0.3194 -0.0311 -0.5219
   54MOL0     C 7347  10.797   2.951   2.104  0.2998  0.0370  0.1249
   54MOL0     C 7348  10.910   2.878   2.152  0.2662 -0.1444  0.2220
   54MOL0     C 7349  10.957   2.901   2.285 -0.8709 -0.7789 -1.6988
   54MOL0     O 7350  11.052   2.812   2.329  0.1076  0.4068  0.8476
   54MOL0     C 7351  11.163   2.893   2.361 -0.9468  0.9241  0.2453
   54MOL0     C 7352  11.270   2.876   2.251 -0.6696 -0.1441  0.3630
   54MOL0     C 7353  11.394   2.957   2.279  0.5661 -0.1443  0.0024
   54MOL0     C 7354  11.496   2.904   2.392 -0.3383 -0.6316  0.5271
   54MOL0     C 7355  11.612   3.005   2.416 -0.0667  0.0170  0.4613
   54MOL0     C 7356  11.730   2.960   2.497  0.2833  0.4040 -0.4532
   54MOL0     C 7357  11.842   3.071   2.509  0.2818 -0.1248  0.0405
   54MOL0     C 7358  11.953   3.015   2.601 -0.0916 -0.0762  0.3097
   54MOL0    Cl 7359  12.067   3.151   2.632 -0.1527  0.0512 -0.0529
   54MOL0     C 7360  10.883   2.995   2.371  0.0011  0.4474  0.2470
   54MOL0     C 7361  10.763   3.050   2.324  0.4351  0.2722  1.0280
   54MOL0     O 7362  10.746   3.287   2.042  0.6330  0.3277  0.0323
   54MOL0     C 7363  10.512   3.407   1.933 -0.4932  0.0664 -0.4681
   54MOL0     C 7364  10.393   3.478   1.900  0.1847  0.1542 -0.5473
   54MOL0     N 7365   9.464   3.586   1.990  0.2216 -0.3655  0.1711
   54MOL0     N 7366   9.353   3.565   1.928 -0.1712  0.9185  0.4377
   54MOL0     C 7367   8.463   3.653   0.969  0.3297  0.5569 -0.4307
   54MOL0     C 7368   8.346   3.577   0.950 -0.0459  0.7419  0.6839
   54MOL0     C 7369   7.946   3.371   0.998 -0.6185 -0.3099 -0.0746
   54MOL0     C 7370   7.963   3.231   1.021 -0.0218  0.3096  0.4690
   54MOL0     C 7371   7.853   3.148   1.047  0.3953 -0.3434 -0.2781
   54MOL0     C 7372   7.727   3.203   1.062 -0.8426 -0.0411  0.5901
   54MOL0     O 7373   7.626   3.115   1.076 -0.0120 -0.0845  0.4541
   54MOL0     C 7374   7.504   3.159   1.139 -0.6597  0.3289  0.0816
   54MOL0     C 7375   7.481   3.062   1.248  0.0126  0.4550  0.3620
   54MOL0     C 7376   7.349   3.100   1.329 -0.8345 -0.0592  1.1166
   54MOL0     C 7377   7.377   3.189   1.451  0.9443  0.0812 -0.1233
   54MOL0     C 7378   7.258   3.259   1.498  0.5473 -0.0093 -0.4576
   54MOL0     C 7379   7.157   3.313   1.527 -0.1803 -0.0500  0.4106
   54MOL0     C 7380   7.707   3.337   1.049  0.9405 -0.4995  0.4824
   54MOL0     C 7381   7.813   3.424   1.019 -0.1171  0.7410 -0.0016
   54MOL0     C 7382   7.773   3.573   1.010  1.1820 -0.5076 -0.0291
   54MOL0     H 7383   8.352   3.400   1.239  1.8928 -0.7986  0.0758
   54MOL0     H 7384   8.546   3.530   1.278  0.0028  3.5166  0.8215
   54MOL0     H 7385   8.657   3.725   1.325 -0.1549 -1.3837  0.4929
   54MOL0     H 7386   8.773   3.826   1.239  2.4403 -1.5357 -1.0760
   54MOL0     H 7387   8.767   3.523   1.254 -0.2724  0.8194  1.5979
   54MOL0     H 7388   8.877   3.617   1.158 -0.6057 -3.4142 -1.0327
   54MOL0     H 7389   8.823   3.631   1.455  1.8877 -2.5965  2.5387
   54MOL0     H 7390   8.956   3.543   1.382  0.4022  1.2462 -1.2944
   54MOL0     H 7391   9.041   3.769   1.280 -0.7656 -1.3059 -0.9652
   54MOL0     H 7392   8.939   3.852   1.394 -2.6948 -0.7371 -0.2494
   54MOL0     H 7393   9.144   3.838   1.482 -0.9654  0.3452  0.0253
   54MOL0     H 7394   9.175   3.668   1.451  2.7662  1.1356  2.8660
   54MOL0     H 7395   8.961   3.778   1.646 -0.6593 -0.0859  0.4890
   54MOL0     H 7396   9.002   3.606   1.614  0.0018  0.1078 -1.2159
   54MOL0     H 7397   9.126   3.708   1.821  1.5396 -4.2275 -0.1832
   54MOL0     H 7398   9.213   3.812   1.706  0.6484  0.9171  3.2860
   54MOL0     H 7399   9.218   3.500   1.725 -3.3514  1.7752  0.7978
   54MOL0     H 7400   9.301   3.599   1.597  0.7641 -2.4427 -0.8239
   54MOL0     H 7401   9.521   3.686   1.676 -2.4505 -3.0689 -1.3173
   54MOL0     H 7402   9.683   3.708   2.022 -1.8924 -1.2211  0.5790
   54MOL0     H 7403   9.736   3.733   1.848  2.9612 -0.4467 -0.1129
   54MOL0     H 7404   9.757   3.482   2.004 -1.5824 -0.2278 -0.7465
   54MOL0     H 7405   9.791   3.491   1.831  2.2244  2.4894 -1.5707
   54MOL0     H 7406   9.958   3.659   1.846  2.2771  0.5823  0.4993
   54MOL0     H 7407   9.930   3.672   2.017  0.5925 -0.2513 -0.2107
   54MOL0     H 7408  10.029   3.459   2.067  2.4423  0.7431  1.0283
   54MOL0     H 7409  10.010   3.402   1.902  0.8589  0.1238  0.6523
   54MOL0     H 7410  10.170   3.321   2.086  0.2987 -1.5340 -0.9120
   54MOL0     H 7411  10.370   3.068   2.179  2.7233  0.2549 -0.3243
   54MOL0     H 7412  10.262   3.193   2.252  0.8074  1.6790  1.2907
   54MOL0     H 7413  10.438   3.195   2.264  1.3491 -2.4761 -1.3949
   54MOL0     H 7414  10.753   2.927   2.007  2.8942  1.4263 -1.5095
   54MOL0     H 7415  10.979   2.812   2.100 -0.8091 -1.8490  0.8357
   54MOL0     H 7416  11.148   3.000   2.378  2.5613  1.6979 -0.8214
   54MOL0     H 7417  11.208   2.867   2.457  1.2502  0.9865 -0.7070
   54MOL0     H 7418  11.302   2.772   2.242 -2.2026 -0.6052  0.0085
   54MOL0     H 7419  11.235   2.906   2.151 -0.2021 -1.1820 -0.1260
   54MOL0     H 7420  11.371   3.061   2.305  0.3240 -0.7306  2.3023
   54MOL0     H 7421  11.438   2.953   2.178 -1.7820 -1.5199 -1.0530
   54MOL0     H 7422  11.527   2.801   2.373  0.4445 -0.6473  1.7276
   54MOL0     H 7423  11.442   2.898   2.487 -1.5717  0.2907 -0.0843
   54MOL0     H 7424  11.650   3.034   2.317 -0.4022  2.7989  1.0423
   54MOL0     H 7425  11.571   3.095   2.462  0.6115 -1.4401  4.2452
   54MOL0     H 7426  11.768   2.867   2.453 -0.0818 -1.3384  2.6532
   54MOL0     H 7427  11.687   2.928   2.592 -1.7998  0.0995 -1.4257
   54MOL0     H 7428  11.808   3.166   2.551  3.8868  1.4287 -0.1799
   54MOL0     H 7429  11.880   3.102   2.411  0.9840  0.1377  0.3958
   54MOL0     H 7430  12.006   2.930   2.556 -1.6238 -1.8240  1.6848
   54MOL0     H 7431  11.914   2.990   2.700  1.4558  1.0563  1.2394
   54MOL0     H 7432  10.914   3.028   2.469  0.4408 -1.7369  0.8945
   54MOL0     H 7433  10.708   3.120   2.385  0.1783  0.4523  0.5928
   54MOL0     H 7434  10.599   3.456   1.890  0.6339  1.1572  2.7681
   54MOL0     H 7435  10.391   3.567   1.839  0.1774  1.0461  0.7161
   54MOL0     H 7436   8.503   3.723   0.896  0.8067  0.1773 -0.5409
   54MOL0     H 7437   8.302   3.592   0.852 -1.5606 -2.2540  0.8112
   54MOL0     H 7438   8.057   3.176   1.015 -0.5823 -0.5661 -0.5224
   54MOL0     H 7439   7.873   3.041   1.053 -0.4182 -0.5210 -0.5768
   54MOL0     H 7440   7.517   3.253   1.194  0.1027  0.1536  0.2010
   54MOL0     H 7441   7.413   3.177   1.080 -0.6714  1.6021  0.4621
   54MOL0     H 7442   7.568   3.056   1.314  1.2154  2.4986 -0.9148
   54MOL0     H 7443   7.464   2.959   1.215  1.5756  0.3269 -0.0896
   54MOL0     H 7444   7.288   3.153   1.255  2.1788  0.3669 -1.2845
   54MOL0     H 7445   7.290   3.011   1.354 -3.6400  0.1272 -3.5185
   54MOL0     H 7446   7.437   3.278   1.430  0.5508  0.2880 -0.3826
   54MOL0     H 7447   7.420   3.137   1.537 -0.9544  2.6416  2.6101
   54MOL0     H 7448   7.066   3.368   1.540 -1.5476 -1.6595 -1.6347
   54MOL0     H 7449   7.606   3.377   1.049  1.5618  1.1622  0.9243
   54MOL0     H 7450   7.698   3.597   1.086  0.2278 -0.1301 -1.0669
   54MOL0     H 7451   7.844   3.654   1.026  0.0281  0.7879 -1.2401
   54MOL0     H 7452   7.733   3.588   0.910  0.0395 -3.8390 -0.2230
   55MOL0     O 7453   8.288   2.077   2.727  0.0203 -0.2580  0.1016
   55MOL0     C 7454   8.248   2.171   2.655 -0.0723  0.7118  0.2197
   55MOL0     O 7455   8.321   2.285   2.610  0.9811 -0.1562  0.5019
   55MOL0     C 7456   8.453   2.266   2.612  0.3049  0.1176  0.4422
   55MOL0     C 7457   8.536   2.348   2.686  0.3140  0.2887  0.0989
   55MOL0     C 7458   8.674   2.334   2.686  0.2231  0.7048  0.5244
   55MOL0     C 7459   8.734   2.249   2.593 -0.3490  1.1675  0.1070
   55MOL0     O 7460   8.867   2.248   2.588  0.0767 -0.2156 -0.5781
   55MOL0     C 7461   8.920   2.278   2.455 -0.8194 -0.1731  0.1887
   55MOL0     C 7462   9.066   2.321   2.479  0.9529  0.0992  0.7661
   55MOL0     C 7463   9.167   2.211   2.492  0.6505  1.2760 -0.0481
   55MOL0     C 7464   9.303   2.265   2.538  1.1240  0.5484  0.1029
   55MOL0     C 7465   9.355   2.380   2.438  0.3886  0.0631  0.4314
   55MOL0     C 7466   9.507   2.386   2.445 -0.4414  0.9754 -0.4794
   55MOL0     C 7467   9.565   2.496   2.354 -0.2176  0.5372 -0.0700
   55MOL0     C 7468   9.715   2.463   2.324 -0.4280 -0.3767  0.1429
   55MOL0     N 7469   9.815   2.511   2.410 -0.4020 -0.1927  0.0085
   55MOL0     C 7470   9.845   2.470   2.541  0.2396  0.3757 -0.1906
   55MOL0     C 7471   9.963   2.518   2.575 -1.1302  0.0915 -0.1610
   55MOL0     C 7472  10.043   2.490   2.699 -0.5460 -0.2087 -0.1099
   55MOL0     C 7473  10.128   2.604   2.744 -0.4903 -0.2129  0.4415
   55MOL0     C 7474  10.203   2.575   2.877 -0.6182 -0.5865 -0.0001
   55MOL0     C 7475  10.277   2.699   2.928 -0.6229  0.4329 -0.3104
   55MOL0     O 7476  10.337   2.678   3.058 -0.0770  0.1993  0.1103
   55MOL0     C 7477  10.448   2.599   3.078 -1.1922 -0.4893  0.5448
   55MOL0     C 7478  10.474   2.559   3.215  0.7161  0.0469 -0.1540
   55MOL0     C 7479  10.567   2.458   3.246  1.2151 -0.9671 -0.1244
   55MOL0     C 7480  10.573   2.445   3.396  1.1431  0.8154 -0.3263
   55MOL0     C 7481  10.632   2.391   3.144  0.2157  1.1296 -0.1979
   55MOL0     C 7482  10.743   2.296   3.169 -0.4163  0.0409  0.1947
   55MOL0     O 7483  10.789   2.225   3.062 -0.6933 -0.2439 -0.3270
   55MOL0     C 7484  10.895   2.135   3.087 -0.4136  1.6064 -0.3496
   55MOL0     C 7485  10.893   2.041   3.198 -0.6898 -0.1958  0.2310
   55MOL0     C 7486  10.997   1.956   3.214  0.2307  1.4788  0.2266
   55MOL0     C 7487  11.105   1.954   3.132 -0.8589  0.0138 -0.2532
   55MOL0     O 7488  11.204   1.863   3.158 -0.3452  0.0058 -0.5242
   55MOL0     C 7489  11.338   1.911   3.139 -0.3535  0.5762 -0.3447
   55MOL0     C 7490  11.398   1.956   3.269  1.0021 -0.6608 -0.6115
   55MOL0     C 7491  11.541   2.000   3.250  0.7379 -0.2582  0.5869
   55MOL0     C 7492  11.644   1.890   3.262 -0.5691  0.0612  0.3154
   55MOL0     C 7493  11.780   1.952   3.214  0.3963  0.2331  0.3390
   55MOL0     C 7494  11.898   1.866   3.257  0.3697  1.2197  0.0686
   55MOL0     C 7495  12.025   1.928   3.201 -0.0297  0.6007 -0.2135
   55MOL0     C 7496  12.152   1.870   3.253  1.2309  0.2853  0.7521
   55MOL0    Cl 7497  12.289   1.903   3.155 -0.4504 -0.1727  0.1044
   55MOL0     C 7498  11.104   2.042   3.022  0.1929 -0.4259 -0.4321
   55MOL0     C 7499  11.005   2.137   3.004  0.5405 -0.2227 -0.2810
   55MOL0     O 7500  10.793   2.306   3.278  0.7060  0.1649 -0.0817
   55MOL0     C 7501  10.603   2.423   3.006  0.6556 -0.1212  0.2715
   55MOL0     C 7502  10.509   2.524   2.976 -0.2817  0.0875  1.1522
   55MOL0     N 7503  10.011   2.586   2.461  0.6371  0.2120 -0.4517
   55MOL0     N 7504   9.924   2.588   2.372 -0.2234  0.2894  0.0033
   55MOL0     C 7505   8.654   2.159   2.516  0.1367 -0.6912  0.7135
   55MOL0     C 7506   8.515   2.166   2.537 -0.1351 -0.1936 -0.3881
   55MOL0     C 7507   8.105   2.183   2.653 -0.2151  0.5746  0.3313
   55MOL0     C 7508   8.052   2.304   2.607  0.2905  0.2916  0.4927
   55MOL0     C 7509   7.913   2.325   2.595  0.4745  0.6453  0.5841
   55MOL0     C 7510   7.812   2.227   2.616  0.1155 -0.5552  0.7532
   55MOL0     O 7511   7.680   2.257   2.595  0.0316 -0.1095 -0.8454
   55MOL0     C 7512   7.580   2.162   2.642 -0.3841 -0.1349  0.1777
   55MOL0     C 7513   7.533   2.061   2.532 -0.9123 -0.2318 -0.4641
   55MOL0     C 7514   7.404   2.104   2.460  0.5467 -0.0424 -0.1940
   55MOL0     C 7515   7.437   2.211   2.357 -0.4224 -0.2647  0.5341
   55MOL0     C 7516   7.309   2.251   2.297 -0.8292 -0.5607 -0.4133
   55MOL0     C 7517   7.204   2.301   2.255 -0.1425  0.1573 -0.1996
   55MOL0     C 7518   7.871   2.107   2.658 -0.0661 -0.4251  0.0491
   55MOL0     C 7519   8.009   2.082   2.680  0.7502 -0.1491  0.8840
   55MOL0     C 7520   8.040   1.939   2.718  0.4748  0.3831  0.0803
   55MOL0     H 7521   8.481   2.431   2.729  0.1703  0.0722  0.3355
   55MOL0     H 7522   8.723   2.406   2.751  0.8817  0.5710  0.1750
   55MOL0     H 7523   8.857   2.354   2.409  0.1981 -1.2218 -3.1928
   55MOL0     H 7524   8.911   2.181   2.404  0.7750 -0.5382  0.5351
   55MOL0     H 7525   9.091   2.389   2.397 -1.2256 -2.1219 -1.9349
   55MOL0     H 7526   9.056   2.388   2.565 -0.1981 -0.2134  0.8860
   55MOL0     H 7527   9.122   2.148   2.570  0.3437  1.5877  0.0244
   55MOL0     H 7528   9.181   2.157   2.398 -0.4093 -3.8324  2.3864
   55MOL0     H 7529   9.301   2.310   2.637  1.2931  1.7945 -0.4495
   55MOL0     H 7530   9.377   2.185   2.550  1.7625  1.2807  1.2148
   55MOL0     H 7531   9.314   2.479   2.461 -1.2147 -0.7816  1.3645
   55MOL0     H 7532   9.318   2.358   2.337 -2.7061 -0.7529  1.6302
   55MOL0     H 7533   9.536   2.411   2.547 -1.5832  1.2301 -0.2104
   55MOL0     H 7534   9.539   2.285   2.417  2.0010  1.7179 -0.5757
   55MOL0     H 7535   9.560   2.598   2.391  0.6163  1.0699 -1.3528
   55MOL0     H 7536   9.510   2.494   2.259 -0.7571  0.0973  0.2442
   55MOL0     H 7537   9.720   2.353   2.320 -3.0862 -0.7275  2.8521
   55MOL0     H 7538   9.738   2.494   2.222  1.7430 -0.9827  0.4029
   55MOL0     H 7539   9.793   2.392   2.596  1.5688  0.3105  1.0214
   55MOL0     H 7540  10.104   2.403   2.675 -0.7328 -0.9219  1.8447
   55MOL0     H 7541   9.969   2.453   2.771 -2.7511  1.4079 -1.4284
   55MOL0     H 7542  10.198   2.612   2.661 -0.6320  3.5614  0.5139
   55MOL0     H 7543  10.069   2.696   2.739 -0.0880  0.1526  1.9501
   55MOL0     H 7544  10.133   2.538   2.953  0.5650 -1.8578  0.5231
   55MOL0     H 7545  10.280   2.501   2.854  0.2226 -0.1534  1.3047
   55MOL0     H 7546  10.342   2.737   2.849 -2.1168 -0.1710 -1.9059
   55MOL0     H 7547  10.201   2.777   2.937  0.6740  1.5951  0.9918
   55MOL0     H 7548  10.424   2.622   3.288  1.7259  0.6950  0.0085
   55MOL0     H 7549  10.522   2.361   3.445  0.8552  2.7584  3.0509
   55MOL0     H 7550  10.535   2.539   3.436  0.8702  0.3277  0.5966
   55MOL0     H 7551  10.678   2.441   3.428  3.2219  1.5168 -5.9582
   55MOL0     H 7552  10.804   2.042   3.261 -0.3202 -1.8081  0.8204
   55MOL0     H 7553  11.005   1.880   3.291 -2.4365  0.1251 -0.6722
   55MOL0     H 7554  11.402   1.829   3.108  1.5879  2.3721 -1.3388
   55MOL0     H 7555  11.350   1.985   3.060 -0.0947  0.0411 -0.8133
   55MOL0     H 7556  11.340   2.040   3.308 -1.0542 -0.6597 -3.3280
   55MOL0     H 7557  11.394   1.868   3.333  0.3416 -1.5087 -1.7668
   55MOL0     H 7558  11.558   2.080   3.322  2.7940  0.2916 -0.4312
   55MOL0     H 7559  11.538   2.054   3.155  0.2896  0.8362  1.2158
   55MOL0     H 7560  11.624   1.807   3.193  0.8953  0.1563 -0.2601
   55MOL0     H 7561  11.642   1.852   3.365 -0.5402 -2.7099 -0.6406
   55MOL0     H 7562  11.778   1.983   3.109  0.8845  1.4911  0.6815
   55MOL0     H 7563  11.797   2.044   3.270  0.3620  0.7679 -0.5116
   55MOL0     H 7564  11.883   1.764   3.221 -0.0592  0.1815  2.9733
   55MOL0     H 7565  11.909   1.869   3.366  2.0069 -0.6035  0.0115
   55MOL0     H 7566  12.013   2.035   3.219 -0.3014  0.4755  0.3679
   55MOL0     H 7567  12.032   1.915   3.093  2.8399  0.8694 -0.1335
   55MOL0     H 7568  12.150   1.760   3.257 -2.8569  0.1619 -0.6558
   55MOL0     H 7569  12.170   1.901   3.356  0.8065 -1.6850  1.4774
   55MOL0     H 7570  11.186   2.044   2.950  2.0630  1.9821  1.5711
   55MOL0     H 7571  11.005   2.208   2.921 -0.2303  2.9202  2.2128
   55MOL0     H 7572  10.653   2.382   2.919 -0.8567 -1.4117 -0.0437
   55MOL0     H 7573  10.487   2.551   2.873 -1.2137 -0.8823  1.0735
   55MOL0     H 7574   8.697   2.082   2.452 -1.4090 -0.6447 -0.4262
   55MOL0     H 7575   8.456   2.105   2.469 -1.2062 -0.0397  0.3722
   55MOL0     H 7576   8.109   2.393   2.584  1.9576 -0.8552 -0.0661
   55MOL0     H 7577   7.882   2.422   2.559  0.7745  1.0230  1.3081
   55MOL0     H 7578   7.613   2.112   2.733 -1.9391 -1.0042  0.2947
   55MOL0     H 7579   7.489   2.216   2.670  0.9887  3.2998 -1.4776
   55MOL0     H 7580   7.512   1.961   2.572  1.8442  0.5544  3.5055
   55MOL0     H 7581   7.619   2.042   2.467  1.0487 -0.9110  2.2011
   55MOL0     H 7582   7.351   2.020   2.413  0.0404 -0.1478  0.5415
   55MOL0     H 7583   7.325   2.142   2.527 -0.2794 -2.1569  0.1176
   55MOL0     H 7584   7.508   2.179   2.280 -2.0095  0.9496 -1.5474
   55MOL0     H 7585   7.480   2.297   2.409 -2.8062  0.1515  1.9804
   55MOL0     H 7586   7.111   2.339   2.217 -1.2465 -1.6414  0.5584
   55MOL0     H 7587   7.800   2.027   2.678 -0.7118  0.6725  2.4474
   55MOL0     H 7588   8.063   1.947   2.825 -3.6237  2.9279  0.9942
   55MOL0     H 7589   7.960   1.867   2.705 -0.7086  1.7180 -0.3100
   55MOL0     H 7590   8.128   1.916   2.656  1.2539  2.3966  0.3493
   56MOL0     O 7591   4.670   0.428  10.640  0.0709 -0.3102  0.3411
   56MOL0     C 7592   4.595   0.361  10.709  1.3624 -0.2399 -0.5257
   56MOL0     O 7593   4.635   0.260  10.801  0.8931  0.2207  0.0367
   56MOL0     C 7594   4.752   0.246  10.853 -0.1991 -0.1226 -0.7384
   56MOL0     C 7595   4.867   0.322  10.836  0.6312 -0.8781  0.3904
   56MOL0     C 7596   4.983   0.306  10.910  0.7181  1.3546  0.3866
   56MOL0     C 7597   4.986   0.203  11.000  0.2768  0.3461 -0.1531
   56MOL0     O 7598   5.096   0.191  11.088  0.0424  0.1820  0.4384
   56MOL0     C 7599   5.216   0.272  11.073 -0.4777 -0.0308 -0.1668
   56MOL0     C 7600   5.314   0.230  11.180  0.5380  0.4804  0.4021
   56MOL0     C 7601   5.449   0.284  11.153  0.2312  0.2705  0.0838
   56MOL0     C 7602   5.558   0.213  11.236  0.3866  0.0341  1.0161
   56MOL0     C 7603   5.702   0.240  11.185  0.8209  0.2196  0.3369
   56MOL0     C 7604   5.736   0.386  11.217 -0.2500 -0.3203 -0.8637
   56MOL0     C 7605   5.860   0.433  11.140  0.0967  0.1055 -0.1567
   56MOL0     C 7606   5.978   0.338  11.132  0.2031  0.7562 -0.0973
   56MOL0     N 7607   6.055   0.281  11.246  0.2987 -0.3678 -0.3322
   56MOL0     C 7608   6.151   0.355  11.313 -0.9270 -0.1638  0.7956
   56MOL0     C 7609   6.164   0.309  11.434 -0.5871  0.2350 -0.0898
   56MOL0     C 7610   6.258   0.345  11.544 -0.7977 -0.3059 -0.2351
   56MOL0     C 7611   6.402   0.306  11.527  0.3432 -0.2124  0.5891
   56MOL0     C 7612   6.438   0.163  11.470 -1.1450  0.2121  0.3002
   56MOL0     C 7613   6.597   0.143  11.441  0.3441 -0.1924 -0.5474
   56MOL0     O 7614   6.677   0.150  11.561 -0.2281  0.3756 -0.3732
   56MOL0     C 7615   6.796   0.219  11.561 -0.3350 -0.0832 -0.7241
   56MOL0     C 7616   6.848   0.243  11.679  0.0188  0.1924 -0.6804
   56MOL0     C 7617   6.965   0.312  11.704  0.4857 -1.1821  0.5199
   56MOL0     C 7618   7.008   0.342  11.841 -0.2343  0.5655 -0.3009
   56MOL0     C 7619   7.033   0.371  11.585  0.1693 -0.4895 -0.3967
   56MOL0     C 7620   7.162   0.458  11.596 -0.8998 -0.6679  0.5064
   56MOL0     O 7621   7.229   0.484  11.476  0.0672 -0.5926  0.3578
   56MOL0     C 7622   7.341   0.566  11.483  0.5146  0.1251 -0.0285
   56MOL0     C 7623   7.459   0.513  11.450 -0.1210  0.5244  0.3475
   56MOL0     C 7624   7.586   0.576  11.466  0.5488  0.8016 -0.7618
   56MOL0     C 7625   7.583   0.709  11.495  0.2686  0.2574 -0.2457
   56MOL0     O 7626   7.695   0.786  11.479 -0.6458  0.4124  0.4102
   56MOL0     C 7627   7.816   0.731  11.429  1.1766 -0.0411  0.1134
   56MOL0     C 7628   7.919   0.849  11.444  0.6506  0.3938 -0.0736
   56MOL0     C 7629   8.065   0.806  11.420  0.5034  1.3888 -0.6685
   56MOL0     C 7630   8.154   0.929  11.428 -0.5586  0.4180  0.5416
   56MOL0     C 7631   8.277   0.891  11.346  0.4329 -0.7619  0.0120
   56MOL0     C 7632   8.394   0.989  11.361 -0.6930 -0.4635  0.7014
   56MOL0     C 7633   8.526   0.924  11.302  0.3334 -0.5226  0.6139
   56MOL0     C 7634   8.638   1.035  11.299 -0.5207  0.7562  0.7346
   56MOL0    Cl 7635   8.666   1.105  11.463  0.3649  0.2322  0.0333
   56MOL0     C 7636   7.459   0.776  11.515 -0.4506  0.5116  0.3164
   56MOL0     C 7637   7.337   0.703  11.511  0.2130  0.1300  0.0536
   56MOL0     O 7638   7.200   0.504  11.700 -0.3770 -0.0096  0.2799
   56MOL0     C 7639   6.982   0.330  11.458  0.9883 -0.1987  0.1648
   56MOL0     C 7640   6.870   0.251  11.443  0.2071  0.7239 -0.1061
   56MOL0     N 7641   6.090   0.193  11.435  0.1417  0.4391 -0.2683
   56MOL0     N 7642   6.025   0.174  11.323 -0.2038 -0.7056  0.3979
   56MOL0     C 7643   4.879   0.118  11.014 -0.4173  0.2550 -0.2395
   56MOL0     C 7644   4.765   0.137  10.937  0.5953  0.7481 -0.4193
   56MOL0     C 7645   4.439   0.391  10.701 -0.7195 -1.3300 -0.1731
   56MOL0     C 7646   4.367   0.314  10.793 -0.3198 -0.3341  0.9988
   56MOL0     C 7647   4.227   0.322  10.788  0.0302  0.2226 -0.3982
   56MOL0     C 7648   4.163   0.404  10.690  0.1630 -0.9742 -0.3528
   56MOL0     O 7649   4.025   0.414  10.697  0.3461 -0.0517 -0.2890
   56MOL0     C 7650   3.979   0.542  10.717 -0.8856  1.0112 -0.5208
   56MOL0     C 7651   3.841   0.560  10.658  0.3798  0.6760 -0.5601
   56MOL0     C 7652   3.741   0.462  10.735  0.2367 -0.3878 -0.0594
   56MOL0     C 7653   3.670   0.385  10.625 -0.1168  0.4474  0.0930
   56MOL0     C 7654   3.579   0.477  10.555 -0.2721  0.0355 -0.3333
   56MOL0     C 7655   3.501   0.551  10.507 -1.1573  0.5472 -0.0206
   56MOL0     C 7656   4.242   0.469  10.598 -0.4857  0.2373 -0.3725
   56MOL0     C 7657   4.383   0.468  10.605 -0.6388  0.0098  0.7185
   56MOL0     C 7658   4.456   0.555  10.505 -0.3091  0.7178 -0.8240
   56MOL0     H 7659   4.862   0.403  10.764 -0.2967 -2.0316 -0.8975
   56MOL0     H 7660   5.071   0.367  10.893  1.0724  0.4058 -1.4602
   56MOL0     H 7661   5.199   0.380  11.071  0.2113  0.0801 -0.3008
   56MOL0     H 7662   5.263   0.242  10.978  2.8722 -0.3268  1.4224
   56MOL0     H 7663   5.270   0.251  11.278 -1.0086  1.1566 -0.4082
   56MOL0     H 7664   5.323   0.121  11.178  0.7074  0.4805  1.0358
   56MOL0     H 7665   5.466   0.270  11.045 -0.7234 -0.6805  0.0438
   56MOL0     H 7666   5.439   0.390  11.177 -1.2099  0.1170  0.2132
   56MOL0     H 7667   5.545   0.235  11.342  3.1059  1.3962  1.1412
   56MOL0     H 7668   5.538   0.105  11.232 -1.2853  0.2233  2.6685
   56MOL0     H 7669   5.700   0.229  11.076  1.4940  2.2249  0.0807
   56MOL0     H 7670   5.767   0.162  11.225  0.2355  0.6258  2.2137
   56MOL0     H 7671   5.648   0.447  11.192 -1.2167  0.3863  3.4734
   56MOL0     H 7672   5.752   0.405  11.323 -1.3735  2.2595 -1.0837
   56MOL0     H 7673   5.890   0.528  11.187 -0.2303  1.5567 -2.6817
   56MOL0     H 7674   5.841   0.479  11.043  0.3572 -0.3676 -0.4391
   56MOL0     H 7675   5.949   0.250  11.074  1.4548 -0.0550  0.4699
   56MOL0     H 7676   6.056   0.379  11.067  0.3564  1.3324  0.4362
   56MOL0     H 7677   6.194   0.450  11.282 -3.0346  0.2296 -1.2018
   56MOL0     H 7678   6.213   0.298  11.633  0.5112  1.0767  1.2226
   56MOL0     H 7679   6.240   0.451  11.563  0.3707 -0.0360 -0.5497
   56MOL0     H 7680   6.446   0.377  11.457  0.7002  0.3193  1.3521
   56MOL0     H 7681   6.442   0.314  11.628 -2.3210  0.8237  1.6434
   56MOL0     H 7682   6.403   0.083  11.537 -0.1027 -2.8875 -2.6176
   56MOL0     H 7683   6.394   0.141  11.372  2.2475  0.5644 -1.4321
   56MOL0     H 7684   6.617   0.053  11.382 -0.9702 -1.1294  0.3812
   56MOL0     H 7685   6.630   0.227  11.380  2.2702 -0.5952 -0.1041
   56MOL0     H 7686   6.799   0.201  11.767 -0.6644 -0.2352 -1.2552
   56MOL0     H 7687   6.951   0.278  11.909 -2.6900  1.1968 -1.6350
   56MOL0     H 7688   6.988   0.447  11.864  1.0082  0.0501  3.8281
   56MOL0     H 7689   7.113   0.313  11.848 -0.2466  0.1721 -1.5130
   56MOL0     H 7690   7.466   0.411  11.412  3.7250  0.2405  1.3504
   56MOL0     H 7691   7.676   0.521  11.442  2.3444  3.4041 -0.4513
   56MOL0     H 7692   7.846   0.638  11.479 -2.0179 -1.5484 -0.4568
   56MOL0     H 7693   7.818   0.706  11.322  0.1614 -2.1742  0.5337
   56MOL0     H 7694   7.896   0.930  11.374 -0.0486  2.0604  1.9834
   56MOL0     H 7695   7.920   0.877  11.550 -0.3862  0.6069 -0.1187
   56MOL0     H 7696   8.079   0.753  11.326 -1.9660 -0.9424  0.1664
   56MOL0     H 7697   8.094   0.739  11.501 -1.2945  0.7400 -0.5218
   56MOL0     H 7698   8.183   0.950  11.532 -0.9458  0.5580  0.6234
   56MOL0     H 7699   8.110   1.024  11.397 -1.0855  1.2848  3.6557
   56MOL0     H 7700   8.318   0.795  11.376  3.9039  0.4323 -0.4619
   56MOL0     H 7701   8.250   0.871  11.241 -2.5957 -2.2909  0.9485
   56MOL0     H 7702   8.411   1.003  11.468  1.2714  0.8944  0.2651
   56MOL0     H 7703   8.379   1.086  11.312  3.3372  0.2393  0.5116
   56MOL0     H 7704   8.519   0.900  11.195  2.8275  1.8717 -0.2040
   56MOL0     H 7705   8.563   0.840  11.362 -0.9889 -0.8604  0.9920
   56MOL0     H 7706   8.612   1.118  11.232  0.7206 -0.5201 -1.4511
   56MOL0     H 7707   8.728   0.985  11.261 -1.6888 -0.4042 -0.6502
   56MOL0     H 7708   7.462   0.883  11.531 -2.0831  0.4120  1.5819
   56MOL0     H 7709   7.249   0.765  11.516  1.8838  2.8366 -1.8396
   56MOL0     H 7710   7.023   0.355  11.361 -0.2868 -0.1557 -0.3943
   56MOL0     H 7711   6.838   0.226  11.342 -1.1996  0.2115  0.4376
   56MOL0     H 7712   4.889   0.038  11.087  2.3944  1.7364  1.1723
   56MOL0     H 7713   4.683   0.066  10.943  1.3777 -0.0964  0.8635
   56MOL0     H 7714   4.416   0.233  10.845  0.4291  0.3015  1.3091
   56MOL0     H 7715   4.175   0.253  10.854  1.6552 -2.2189 -1.4992
   56MOL0     H 7716   3.990   0.561  10.825 -0.4131 -0.7136 -0.2350
   56MOL0     H 7717   4.043   0.621  10.675 -2.8424  1.6385 -2.4665
   56MOL0     H 7718   3.846   0.524  10.555 -0.6573 -1.8464  0.1996
   56MOL0     H 7719   3.815   0.665  10.671  0.0871  0.4010  1.3049
   56MOL0     H 7720   3.800   0.390  10.792  1.5668  1.5429  1.1102
   56MOL0     H 7721   3.682   0.516  10.809  1.5403  0.9551  0.0688
   56MOL0     H 7722   3.621   0.293  10.657 -0.6022  0.5108 -0.4642
   56MOL0     H 7723   3.753   0.351  10.562 -0.2678  0.2076  0.0202
   56MOL0     H 7724   3.437   0.627  10.467 -1.2284 -1.3300 -3.9575
   56MOL0     H 7725   4.204   0.532  10.518  1.3224  3.6681  1.2456
   56MOL0     H 7726   4.514   0.501  10.430 -0.8757 -1.0807 -0.0347
   56MOL0     H 7727   4.391   0.617  10.442 -0.2069 -2.2866 -4.2085
   56MOL0     H 7728   4.514   0.629  10.561 -2.9015 -0.5396  4.1208
   57MOL0     O 7729   6.879   6.169   9.254  0.1935  0.0133  0.1749
   57MOL0     C 7730   6.830   6.151   9.367 -0.9808 -0.2614 -0.3783
   57MOL0     O 7731   6.899   6.165   9.479  0.1604  0.0603 -0.1394
   57MOL0     C 7732   7.019   6.234   9.483  0.0070 -0.2496  0.6993
   57MOL0     C 7733   7.116   6.191   9.580  1.2330  0.2002 -0.0646
   57MOL0     C 7734   7.240   6.248   9.598 -0.0240 -0.3369  0.8020
   57MOL0     C 7735   7.279   6.355   9.522 -0.1133  0.3341  0.8800
   57MOL0     O 7736   7.400   6.423   9.532  0.5049  0.4504 -0.2295
   57MOL0     C 7737   7.516   6.337   9.515  0.1234  0.2014  0.4151
   57MOL0     C 7738   7.542   6.313   9.370 -0.5030 -0.1360 -0.6449
   57MOL0     C 7739   7.666   6.220   9.349  0.0826  0.3060 -0.6080
   57MOL0     C 7740   7.700   6.195   9.201  0.2692  0.3801  0.5460
   57MOL0     C 7741   7.818   6.090   9.200  0.0772  0.1056  0.4254
   57MOL0     C 7742   7.946   6.151   9.248 -0.0734  0.6067  0.5280
   57MOL0     C 7743   8.068   6.084   9.177  0.6540  0.2925  0.0217
   57MOL0     C 7744   8.192   6.146   9.222 -1.4270  0.1960  0.3156
   57MOL0     N 7745   8.317   6.081   9.169 -0.7964  0.8335 -0.2384
   57MOL0     C 7746   8.344   5.942   9.163  1.1244 -0.4171  0.0309
   57MOL0     C 7747   8.469   5.937   9.113 -0.3523  0.1743  0.0400
   57MOL0     C 7748   8.554   5.813   9.116  0.3222 -0.7126  0.3874
   57MOL0     C 7749   8.660   5.799   9.233  0.2512  0.8098  1.6572
   57MOL0     C 7750   8.739   5.670   9.231 -0.9648  0.3925 -0.5133
   57MOL0     C 7751   8.843   5.673   9.343 -0.6957  0.5805 -0.1512
   57MOL0     O 7752   8.897   5.545   9.372 -0.1030 -0.2265  0.2418
   57MOL0     C 7753   9.012   5.550   9.450 -0.2589  0.4433  0.0916
   57MOL0     C 7754   9.132   5.492   9.396  0.3530  0.8977  1.3980
   57MOL0     C 7755   9.251   5.498   9.468  0.8686  1.2240 -0.4633
   57MOL0     C 7756   9.364   5.425   9.405  0.3697  0.0827  0.6268
   57MOL0     C 7757   9.256   5.554   9.596  1.2298  0.4476 -0.5445
   57MOL0     C 7758   9.382   5.571   9.678 -0.9360 -0.1825 -0.3923
   57MOL0     O 7759   9.379   5.661   9.775 -0.4246 -0.0714  0.4317
   57MOL0     C 7760   9.494   5.708   9.822  0.2138 -0.1870  0.2038
   57MOL0     C 7761   9.623   5.712   9.762 -0.6397  0.4461  0.3504
   57MOL0     C 7762   9.725   5.767   9.840 -0.1193 -0.5562  0.1557
   57MOL0     C 7763   9.714   5.830   9.968  0.5656  0.5341 -0.1129
   57MOL0     O 7764   9.823   5.883  10.028 -0.5592  0.3473  0.0372
   57MOL0     C 7765   9.808   6.010  10.098 -0.0970 -0.3421  0.5755
   57MOL0     C 7766   9.937   6.068  10.146  0.1361  0.4370 -0.8564
   57MOL0     C 7767  10.011   5.965  10.229  0.3394  0.3239  0.1653
   57MOL0     C 7768   9.930   5.930  10.356  0.2111  0.7066  0.0850
   57MOL0     C 7769  10.013   5.824  10.437  0.1172  0.3357 -0.1525
   57MOL0     C 7770  10.037   5.688  10.361 -0.6958 -0.4634 -0.5147
   57MOL0     C 7771  10.079   5.580  10.461 -0.0718 -0.3132  0.1794
   57MOL0     C 7772  10.155   5.463  10.389  0.5952  0.2130  0.3583
   57MOL0    Cl 7773  10.251   5.372  10.502 -0.0530  0.1832 -0.2841
   57MOL0     C 7774   9.581   5.828  10.017  0.1013 -0.1738 -0.5049
   57MOL0     C 7775   9.481   5.759   9.947 -0.4577 -0.2977 -0.5487
   57MOL0     O 7776   9.472   5.488   9.663  0.7848 -0.8429  0.1628
   57MOL0     C 7777   9.132   5.603   9.653 -0.6232 -0.4362 -0.4481
   57MOL0     C 7778   9.014   5.598   9.581 -0.2447 -0.4312 -0.3231
   57MOL0     N 7779   8.516   6.067   9.083  0.0033  0.0455  0.6588
   57MOL0     N 7780   8.422   6.148   9.127 -0.3569  0.1072  0.4266
   57MOL0     C 7781   7.191   6.403   9.420  0.3528  0.4393 -0.3627
   57MOL0     C 7782   7.064   6.347   9.402  0.1493 -0.5361 -0.4043
   57MOL0     C 7783   6.688   6.111   9.358 -1.3959  0.8046 -0.7102
   57MOL0     C 7784   6.639   6.071   9.233  0.4751  0.3084 -0.1539
   57MOL0     C 7785   6.517   6.016   9.218  0.4475 -0.0541  0.4700
   57MOL0     C 7786   6.431   6.016   9.323  0.0715  0.4984 -0.6311
   57MOL0     O 7787   6.299   5.984   9.309  0.4584 -0.1964 -0.3505
   57MOL0     C 7788   6.238   6.015   9.186 -0.9914 -0.0298 -0.1133
   57MOL0     C 7789   6.087   6.024   9.215 -0.1653 -0.2154 -0.1711
   57MOL0     C 7790   6.015   5.900   9.243 -0.5053  0.1347 -0.5256
   57MOL0     C 7791   6.011   5.782   9.135  0.0381  0.3129  0.3652
   57MOL0     C 7792   5.988   5.660   9.206  0.1895  0.3800 -0.2834
   57MOL0     C 7793   5.987   5.556   9.277  0.1322  0.5266  0.0023
   57MOL0     C 7794   6.468   6.065   9.447  0.3127  0.9260  0.3720
   57MOL0     C 7795   6.597   6.107   9.467 -0.2479  0.6344 -0.4754
   57MOL0     C 7796   6.629   6.135   9.607  0.3634 -1.1020  0.0944
   57MOL0     H 7797   7.087   6.101   9.634  0.8952 -0.3889 -1.1999
   57MOL0     H 7798   7.314   6.226   9.675  2.6904  2.3261 -0.8198
   57MOL0     H 7799   7.500   6.240   9.563  0.6638  0.7830  1.8180
   57MOL0     H 7800   7.600   6.384   9.566 -0.1088  0.0750  0.9189
   57MOL0     H 7801   7.458   6.256   9.329 -0.0055 -0.3906 -1.3222
   57MOL0     H 7802   7.572   6.405   9.320  1.0671  0.3484  1.0705
   57MOL0     H 7803   7.757   6.269   9.385  1.9282 -1.5544 -2.4169
   57MOL0     H 7804   7.648   6.123   9.396 -3.2110  0.7694 -0.7088
   57MOL0     H 7805   7.613   6.149   9.155  1.5716 -0.4821 -1.1891
   57MOL0     H 7806   7.729   6.286   9.147  0.1506  1.4789  2.2505
   57MOL0     H 7807   7.834   6.051   9.100  0.6669  0.1266  0.5102
   57MOL0     H 7808   7.787   6.003   9.258  1.8335  0.6636  2.3231
   57MOL0     H 7809   7.952   6.257   9.223 -1.0210  0.1061 -2.1037
   57MOL0     H 7810   7.951   6.133   9.356 -2.9367 -2.1680  0.3522
   57MOL0     H 7811   8.066   6.085   9.068 -0.4684 -1.0560 -0.0059
   57MOL0     H 7812   8.063   5.978   9.204  0.7065  0.0248 -0.9718
   57MOL0     H 7813   8.197   6.253   9.200  2.7861 -0.3420 -2.7772
   57MOL0     H 7814   8.190   6.148   9.331 -0.2117  0.7095  0.3463
   57MOL0     H 7815   8.278   5.861   9.193 -0.2748  0.2051 -1.2200
   57MOL0     H 7816   8.622   5.813   9.031 -0.4965 -1.8749 -0.2831
   57MOL0     H 7817   8.491   5.724   9.118 -1.0642  0.2073 -0.2626
   57MOL0     H 7818   8.726   5.886   9.223 -1.2927  2.1116  2.2601
   57MOL0     H 7819   8.609   5.803   9.330 -0.0975 -0.0853  1.5196
   57MOL0     H 7820   8.675   5.586   9.259  1.8887 -1.8690 -0.2603
   57MOL0     H 7821   8.786   5.642   9.136 -0.3952 -0.1117 -0.0852
   57MOL0     H 7822   8.922   5.744   9.316  1.2625 -1.0715  0.9575
   57MOL0     H 7823   8.792   5.698   9.437 -2.5785 -0.5816 -0.8067
   57MOL0     H 7824   9.128   5.459   9.293 -1.0650  1.0211  1.3888
   57MOL0     H 7825   9.457   5.481   9.409  0.7661 -0.5833  0.9345
   57MOL0     H 7826   9.346   5.414   9.298 -0.1370  0.0837  0.7062
   57MOL0     H 7827   9.363   5.321   9.438  0.3905  0.5315  2.1322
   57MOL0     H 7828   9.643   5.666   9.666 -0.6874  4.6534 -1.9074
   57MOL0     H 7829   9.825   5.757   9.800  0.3532  0.7984  0.9437
   57MOL0     H 7830   9.758   6.079  10.031  2.0216  1.4921  0.7689
   57MOL0     H 7831   9.742   6.006  10.186 -0.6226 -2.4613  0.1464
   57MOL0     H 7832  10.000   6.102  10.063  1.8039 -0.5632 -0.0763
   57MOL0     H 7833   9.901   6.152  10.205 -2.3626 -0.5609 -0.8310
   57MOL0     H 7834  10.105   6.010  10.262  0.0615  0.9692  0.1073
   57MOL0     H 7835  10.037   5.882  10.163 -0.6974  1.0201 -1.1678
   57MOL0     H 7836   9.832   5.888  10.330  1.2499 -0.0440 -3.0068
   57MOL0     H 7837   9.916   6.021  10.414  2.3374  1.3495 -0.3392
   57MOL0     H 7838  10.108   5.867  10.470  0.4623 -0.7916  0.3800
   57MOL0     H 7839   9.949   5.817  10.525  0.0831  0.5435 -0.1616
   57MOL0     H 7840  10.115   5.710  10.288 -1.4599  0.5587 -1.0643
   57MOL0     H 7841   9.942   5.657  10.316 -2.0897  1.5182  0.8971
   57MOL0     H 7842   9.994   5.549  10.524  1.4342  2.9182  4.2842
   57MOL0     H 7843  10.150   5.619  10.535 -3.2705  1.6446  2.4773
   57MOL0     H 7844  10.222   5.512  10.318  0.0248 -0.3425 -0.5871
   57MOL0     H 7845  10.094   5.382  10.347  0.6171 -0.6456  1.8877
   57MOL0     H 7846   9.559   5.870  10.115 -0.1129  0.6622 -0.9006
   57MOL0     H 7847   9.390   5.750  10.005  0.2115 -0.6633  0.4806
   57MOL0     H 7848   9.121   5.619   9.760  1.2933 -0.8159 -0.1606
   57MOL0     H 7849   8.929   5.649   9.624  0.3873  0.5054 -0.1629
   57MOL0     H 7850   7.233   6.467   9.343 -0.5049  0.5121 -0.7704
   57MOL0     H 7851   7.005   6.395   9.324 -0.7121  0.1102  0.6238
   57MOL0     H 7852   6.707   6.069   9.149 -0.4739 -1.7578 -0.9376
   57MOL0     H 7853   6.493   5.973   9.121 -0.7937  1.6162 -0.0036
   57MOL0     H 7854   6.271   6.113   9.151 -2.3744  0.5988  0.2443
   57MOL0     H 7855   6.256   5.934   9.114  0.6863 -1.9817  2.3312
   57MOL0     H 7856   6.046   6.058   9.119  0.4806  0.1004 -0.3388
   57MOL0     H 7857   6.060   6.099   9.290  0.4874  0.7554 -0.8701
   57MOL0     H 7858   6.049   5.858   9.339 -0.0970 -0.0368 -0.7415
   57MOL0     H 7859   5.912   5.932   9.262 -0.1732  0.7503  0.2973
   57MOL0     H 7860   6.097   5.779   9.068 -1.8900 -0.0678 -2.2674
   57MOL0     H 7861   5.926   5.794   9.066 -1.6200 -2.2975  1.8045
   57MOL0     H 7862   5.988   5.474   9.347 -2.7021 -1.5583 -2.1482
   57MOL0     H 7863   6.406   6.058   9.536 -0.1245  1.3041  0.0959
   57MOL0     H 7864   6.654   6.241   9.608  0.9648 -1.1113 -2.7955
   57MOL0     H 7865   6.549   6.114   9.679  0.4535  0.8193  0.8013
   57MOL0     H 7866   6.717   6.076   9.634 -0.8443 -1.2065  4.5903
   58MOL0     O 7867   9.173   7.056   1.024  0.8513 -0.3284  0.7651
   58MOL0     C 7868   9.176   6.937   0.998  0.3408  1.6681 -0.2760
   58MOL0     O 7869   9.290   6.860   1.008 -0.1907 -0.5439  0.7381
   58MOL0     C 7870   9.412   6.927   1.021 -0.1127 -0.5111 -0.4675
   58MOL0     C 7871   9.510   6.909   0.916 -0.2110  0.8545 -0.1136
   58MOL0     C 7872   9.638   6.957   0.932  0.3717 -0.4399 -0.5079
   58MOL0     C 7873   9.677   7.014   1.054  0.3988  0.0250 -0.5631
   58MOL0     O 7874   9.809   7.040   1.085 -0.0627  0.4769 -0.1206
   58MOL0     C 7875   9.917   7.054   0.988  0.5146 -0.1459  0.7622
   58MOL0     C 7876   9.910   7.189   0.909  0.5408 -0.1122 -0.2470
   58MOL0     C 7877  10.028   7.208   0.811  0.2862  0.4183 -0.3939
   58MOL0     C 7878  10.020   7.316   0.703  0.2161  0.3663  0.2844
   58MOL0     C 7879  10.129   7.291   0.604  0.0103  0.2895 -0.3062
   58MOL0     C 7880  10.132   7.414   0.519  0.1109 -0.7785 -0.2621
   58MOL0     C 7881  10.006   7.439   0.434  0.1859 -0.2656 -0.6140
   58MOL0     C 7882  10.022   7.546   0.310 -0.2558 -0.0983 -0.3114
   58MOL0     N 7883  10.080   7.498   0.186  0.2858 -0.7876  0.1046
   58MOL0     C 7884  10.209   7.487   0.161  0.2045 -0.2317 -0.5259
   58MOL0     C 7885  10.222   7.431   0.042 -0.3262  0.1139 -0.0340
   58MOL0     C 7886  10.349   7.398  -0.030 -0.2771  0.6688 -0.1019
   58MOL0     C 7887  10.481   7.440   0.044 -0.5076  0.4098  0.0407
   58MOL0     C 7888  10.596   7.402  -0.043  0.9191  0.0470 -0.9333
   58MOL0     C 7889  10.721   7.427   0.043 -0.3674 -0.0022 -0.7174
   58MOL0     O 7890  10.752   7.565   0.051  0.2029  0.0224  0.8379
   58MOL0     C 7891  10.878   7.614   0.028 -0.2926  0.7707 -0.1143
   58MOL0     C 7892  10.893   7.737  -0.023 -0.3784  0.2765 -0.4608
   58MOL0     C 7893  11.018   7.802  -0.036 -0.7518  0.3263  0.3328
   58MOL0     C 7894  11.024   7.932  -0.104 -0.8213  0.7532 -0.0951
   58MOL0     C 7895  11.133   7.734   0.000  0.1328 -0.1003  0.2020
   58MOL0     C 7896  11.273   7.783  -0.006  0.1013  0.1979 -0.6407
   58MOL0     O 7897  11.366   7.713   0.067 -0.3730 -0.5173 -0.0137
   58MOL0     C 7898  11.497   7.727   0.060 -0.9115 -0.2981  0.9643
   58MOL0     C 7899  11.573   7.783  -0.049 -0.2386  0.4759  1.2696
   58MOL0     C 7900  11.714   7.778  -0.048  0.8845  0.0166  0.3105
   58MOL0     C 7901  11.779   7.728   0.060 -0.5599  0.1354  1.1214
   58MOL0     O 7902  11.914   7.713   0.058 -0.9667 -0.3722 -0.6064
   58MOL0     C 7903  11.977   7.818   0.142  0.0985  0.2093 -0.1537
   58MOL0     C 7904  11.988   7.957   0.074 -0.2680 -0.3669  0.4469
   58MOL0     C 7905  12.094   7.979  -0.036 -0.3699  0.4814 -0.0814
   58MOL0     C 7906  12.046   7.915  -0.169  0.4784 -0.1979 -0.0191
   58MOL0     C 7907  12.126   7.930  -0.296  0.2037 -0.1741  1.1211
   58MOL0     C 7908  12.046   7.888  -0.418 -0.3475  0.7483  0.8470
   58MOL0     C 7909  12.084   7.738  -0.454 -0.2630 -0.2658  0.2114
   58MOL0     C 7910  12.220   7.712  -0.516 -0.0703 -0.0917  0.8019
   58MOL0    Cl 7911  12.213   7.540  -0.555  0.3163 -0.0869  0.1085
   58MOL0     C 7912  11.708   7.678   0.169 -0.3392  0.1315  0.1701
   58MOL0     C 7913  11.565   7.683   0.168 -1.0718  0.1071 -0.5100
   58MOL0     O 7914  11.297   7.880  -0.074 -0.0352 -0.9269 -0.2871
   58MOL0     C 7915  11.115   7.601   0.046 -0.2598  0.0159  0.2135
   58MOL0     C 7916  10.996   7.541   0.051  0.2695  0.5070 -0.4295
   58MOL0     N 7917  10.087   7.404  -0.005  0.0045  0.5251  0.1958
   58MOL0     N 7918   9.999   7.442   0.086 -0.1409  0.0397 -0.3013
   58MOL0     C 7919   9.578   7.024   1.163  0.1945 -0.0984 -0.3898
   58MOL0     C 7920   9.449   6.986   1.141  0.0810  1.8357 -0.3404
   58MOL0     C 7921   9.049   6.863   0.946 -0.1944  0.6427 -0.0899
   58MOL0     C 7922   9.069   6.738   0.885 -0.6257 -0.3971  0.9734
   58MOL0     C 7923   8.964   6.662   0.838  0.0359 -0.0992 -0.2896
   58MOL0     C 7924   8.833   6.704   0.858 -1.0036  0.4146 -0.1573
   58MOL0     O 7925   8.740   6.618   0.815 -0.6260 -0.2168 -0.1583
   58MOL0     C 7926   8.611   6.661   0.779  0.3494  0.3265  0.1946
   58MOL0     C 7927   8.538   6.547   0.688  0.2087  0.2684 -0.2750
   58MOL0     C 7928   8.541   6.405   0.749  0.7233  0.3101 -0.5502
   58MOL0     C 7929   8.423   6.318   0.700 -0.5610 -0.3645  0.0237
   58MOL0     C 7930   8.436   6.285   0.562 -0.3665 -1.2111  0.0434
   58MOL0     C 7931   8.446   6.261   0.447  0.0534  0.8461  0.4313
   58MOL0     C 7932   8.811   6.833   0.912 -0.3386 -0.1831  0.0335
   58MOL0     C 7933   8.915   6.914   0.956  0.3982  0.4200  0.3867
   58MOL0     C 7934   8.881   7.052   1.000 -0.4863 -0.9384 -0.3845
   58MOL0     H 7935   9.485   6.852   0.827  3.2582  1.4397 -1.6455
   58MOL0     H 7936   9.713   6.954   0.854  0.6162  2.8727 -0.5345
   58MOL0     H 7937   9.908   6.974   0.913 -0.8172 -0.6066  1.3867
   58MOL0     H 7938  10.012   7.054   1.042  0.1302 -0.0901  1.4376
   58MOL0     H 7939   9.823   7.200   0.844  0.5714 -0.7083 -0.3891
   58MOL0     H 7940   9.900   7.272   0.980 -0.7862 -1.5176  1.2977
   58MOL0     H 7941  10.123   7.223   0.862 -0.7203  0.4428  1.5791
   58MOL0     H 7942  10.032   7.107   0.768  1.2845 -0.1477  0.9812
   58MOL0     H 7943   9.924   7.325   0.651  0.4980  2.3809  0.0162
   58MOL0     H 7944  10.035   7.414   0.749 -3.9347  1.8634 -1.0429
   58MOL0     H 7945  10.114   7.202   0.542 -1.2277  0.1651  0.1388
   58MOL0     H 7946  10.217   7.286   0.668  0.0485 -0.0643 -0.3817
   58MOL0     H 7947  10.137   7.505   0.581 -0.2516  1.2677 -3.0191
   58MOL0     H 7948  10.222   7.416   0.457 -0.1196  0.5584 -0.5987
   58MOL0     H 7949   9.931   7.483   0.501  0.8203  0.5156 -0.4010
   58MOL0     H 7950   9.972   7.343   0.394 -0.5315 -0.5508  0.6083
   58MOL0     H 7951   9.919   7.581   0.299 -0.1609  0.7776  1.2613
   58MOL0     H 7952  10.079   7.635   0.338 -1.9678  0.3209  2.2399
   58MOL0     H 7953  10.292   7.508   0.228  1.5924 -2.0660 -1.5708
   58MOL0     H 7954  10.338   7.448  -0.127 -3.5363  1.1714  0.4198
   58MOL0     H 7955  10.345   7.289  -0.032 -1.1029  0.5707  2.6970
   58MOL0     H 7956  10.490   7.547   0.067  2.8700  0.5848 -1.5018
   58MOL0     H 7957  10.488   7.374   0.131  1.5551 -0.0012 -0.3695
   58MOL0     H 7958  10.586   7.302  -0.085  1.8064  0.2249 -1.6023
   58MOL0     H 7959  10.602   7.459  -0.137 -1.6750  2.1888  0.0615
   58MOL0     H 7960  10.702   7.398   0.147 -3.5178  2.9806 -0.2784
   58MOL0     H 7961  10.807   7.369   0.010  0.4860  0.6756  0.2487
   58MOL0     H 7962  10.801   7.794  -0.035  0.6710  3.4202  3.8416
   58MOL0     H 7963  10.921   7.954  -0.135 -0.7565  0.2655 -0.6734
   58MOL0     H 7964  11.086   7.924  -0.194 -2.4934 -1.7608 -1.1551
   58MOL0     H 7965  11.048   8.022  -0.047 -1.1320  2.9951 -3.2081
   58MOL0     H 7966  11.522   7.816  -0.139 -0.0179 -0.8988  0.6219
   58MOL0     H 7967  11.763   7.804  -0.141 -1.7956  0.1403 -1.2014
   58MOL0     H 7968  11.926   7.835   0.237  3.0406  1.0185  1.3878
   58MOL0     H 7969  12.076   7.782   0.171 -0.0243  0.6819  0.8807
   58MOL0     H 7970  11.889   7.990   0.040  0.3806  0.7078 -0.4681
   58MOL0     H 7971  12.026   8.023   0.153  2.6570 -2.9357  1.3803
   58MOL0     H 7972  12.184   7.929   0.002 -0.4257  0.7561  0.4217
   58MOL0     H 7973  12.111   8.087  -0.043 -4.7381  1.3387 -0.1055
   58MOL0     H 7974  11.945   7.951  -0.189  1.1342  1.5175 -0.4340
   58MOL0     H 7975  12.029   7.809  -0.149  0.2858  0.1234  1.6797
   58MOL0     H 7976  12.157   8.034  -0.306 -1.1685  0.4085  2.5665
   58MOL0     H 7977  12.222   7.877  -0.293  0.5156  0.3893  1.1990
   58MOL0     H 7978  12.084   7.949  -0.500  0.2276 -1.4291 -0.5973
   58MOL0     H 7979  11.938   7.902  -0.408 -0.6353 -2.1583  3.4120
   58MOL0     H 7980  12.004   7.708  -0.523 -1.0256 -0.3798  1.1325
   58MOL0     H 7981  12.074   7.669  -0.370 -2.6852 -0.6684 -0.3193
   58MOL0     H 7982  12.308   7.740  -0.458  0.0721  3.0869 -0.7281
   58MOL0     H 7983  12.237   7.764  -0.611 -1.0346  1.0597  1.2245
   58MOL0     H 7984  11.768   7.650   0.255 -0.7113  1.8169  1.0345
   58MOL0     H 7985  11.510   7.644   0.253  2.1467  0.3476  1.8963
   58MOL0     H 7986  11.203   7.548   0.079 -0.6038  0.1202  1.3405
   58MOL0     H 7987  10.991   7.437   0.082  2.6785  0.3745 -0.2663
   58MOL0     H 7988   9.617   7.048   1.261  1.1382 -2.8272 -0.0179
   58MOL0     H 7989   9.382   6.974   1.225  0.8438  0.2026  0.0716
   58MOL0     H 7990   9.168   6.695   0.879 -2.0821 -3.9443 -3.2739
   58MOL0     H 7991   8.991   6.564   0.801  1.2271  0.2689 -0.4135
   58MOL0     H 7992   8.556   6.666   0.873 -0.5301  2.9331 -0.3664
   58MOL0     H 7993   8.609   6.759   0.729  1.0647  0.4178  0.3354
   58MOL0     H 7994   8.586   6.549   0.590 -1.7600  5.3019 -1.4596
   58MOL0     H 7995   8.440   6.579   0.652 -0.8225 -2.1014  0.1879
   58MOL0     H 7996   8.639   6.367   0.721  0.4717  0.9847 -2.5451
   58MOL0     H 7997   8.541   6.421   0.857 -0.2918  0.8220 -0.6056
   58MOL0     H 7998   8.329   6.374   0.703  1.8042  4.0916 -0.3190
   58MOL0     H 7999   8.416   6.228   0.762  2.4384 -0.1604  0.8585
   58MOL0     H 8000   8.448   6.245   0.341 -1.5234 -0.1257  0.5235
   58MOL0     H 8001   8.708   6.866   0.918  0.1539  1.5097 -0.2523
   58MOL0     H 8002   8.772   7.063   1.003 -0.2680  2.1722 -0.3599
   58MOL0     H 8003   8.917   7.074   1.101 -1.9744 -2.1672  0.4586
   58MOL0     H 8004   8.921   7.132   0.937 -1.8681 -0.2094 -0.3727
   59MOL0     O 8005   1.295   1.635   6.897  0.5607  0.1150 -0.2120
   59MOL0     C 8006   1.238   1.639   6.786  0.4641 -0.2083  0.1838
   59MOL0     O 8007   1.288   1.590   6.667  0.6588  0.6739  0.6704
   59MOL0     C 8008   1.412   1.555   6.654  0.3994  0.0213 -0.2498
   59MOL0     C 8009   1.501   1.481   6.745 -0.5134 -0.0459  0.2094
   59MOL0     C 8010   1.625   1.432   6.690 -1.0494 -1.1046  0.3753
   59MOL0     C 8011   1.669   1.472   6.563 -0.3149 -0.5629 -0.3949
   59MOL0     O 8012   1.784   1.426   6.511  0.1565 -0.0767 -0.0412
   59MOL0     C 8013   1.770   1.327   6.410 -0.3198  0.1006 -0.1127
   59MOL0     C 8014   1.907   1.268   6.376 -0.6941 -0.7456  0.3339
   59MOL0     C 8015   2.013   1.376   6.329  1.3525  0.4145 -0.1291
   59MOL0     C 8016   2.152   1.317   6.335  0.0856  0.4180  0.4181
   59MOL0     C 8017   2.261   1.405   6.276  1.0563  0.2673 -0.2782
   59MOL0     C 8018   2.399   1.355   6.309 -0.5069 -0.2417 -0.5325
   59MOL0     C 8019   2.508   1.457   6.257  0.0782 -0.1119 -0.5387
   59MOL0     C 8020   2.647   1.389   6.273 -0.8171  0.4712 -0.3133
   59MOL0     N 8021   2.747   1.493   6.293  0.2910  0.0387  0.7364
   59MOL0     C 8022   2.879   1.464   6.319 -0.4350  0.9880  0.5620
   59MOL0     C 8023   2.952   1.574   6.277 -0.6532 -0.3653 -0.4710
   59MOL0     C 8024   3.103   1.594   6.291 -0.2782  0.2274  0.4918
   59MOL0     C 8025   3.128   1.725   6.374 -0.0927 -0.2543  0.4597
   59MOL0     C 8026   3.109   1.861   6.303  0.9201 -0.2942 -0.4138
   59MOL0     C 8027   3.129   1.981   6.392 -0.1956 -0.0447 -1.3642
   59MOL0     O 8028   3.122   2.101   6.313 -0.0031 -0.1728 -0.1260
   59MOL0     C 8029   3.232   2.180   6.275  0.4139 -0.0496 -0.4830
   59MOL0     C 8030   3.205   2.314   6.239 -0.2760 -0.6894  0.6808
   59MOL0     C 8031   3.303   2.404   6.199  0.4535 -0.5036 -0.1329
   59MOL0     C 8032   3.257   2.547   6.171 -0.1327 -0.5286 -0.4640
   59MOL0     C 8033   3.433   2.359   6.175  0.5084  0.2378 -0.3146
   59MOL0     C 8034   3.541   2.439   6.108  0.5848  0.8862 -0.1834
   59MOL0     O 8035   3.641   2.373   6.049  0.8852  0.7984 -0.0349
   59MOL0     C 8036   3.754   2.425   5.991  0.5218 -0.9955  0.5714
   59MOL0     C 8037   3.849   2.327   5.939  0.2151  0.3319 -0.6035
   59MOL0     C 8038   3.969   2.368   5.878 -0.1468  0.8203  0.0353
   59MOL0     C 8039   4.001   2.505   5.859  0.6772 -0.4067  0.3356
   59MOL0     O 8040   4.112   2.563   5.799 -0.2252 -0.9173 -0.9970
   59MOL0     C 8041   4.202   2.478   5.730 -0.0920  0.1369 -0.1760
   59MOL0     C 8042   4.314   2.562   5.682 -0.5165  0.1456 -0.1783
   59MOL0     C 8043   4.417   2.485   5.611 -0.6858  0.6765  0.2752
   59MOL0     C 8044   4.554   2.571   5.614 -0.0011  0.6233 -0.0613
   59MOL0     C 8045   4.669   2.509   5.544  0.2012  0.6882  0.0007
   59MOL0     C 8046   4.648   2.509   5.390 -0.2353  1.0341 -0.4146
   59MOL0     C 8047   4.762   2.418   5.329  0.6484  0.2680 -0.2420
   59MOL0     C 8048   4.746   2.263   5.297  0.5864 -0.8764  0.3672
   59MOL0    Cl 8049   4.651   2.253   5.139 -0.0434 -0.0601 -0.2526
   59MOL0     C 8050   3.905   2.597   5.904 -0.5206 -0.0262  0.2589
   59MOL0     C 8051   3.789   2.562   5.969  0.1233 -0.4196  0.0369
   59MOL0     O 8052   3.526   2.559   6.113 -0.5274  0.0689 -0.4704
   59MOL0     C 8053   3.460   2.223   6.207 -0.7411 -0.4877 -0.4076
   59MOL0     C 8054   3.364   2.137   6.262 -0.1166 -0.1424  0.5707
   59MOL0     N 8055   2.860   1.665   6.225  0.3663 -0.3315 -0.1867
   59MOL0     N 8056   2.744   1.620   6.241  0.3936 -0.1265  0.0751
   59MOL0     C 8057   1.585   1.561   6.486  0.3011 -1.0799 -0.3700
   59MOL0     C 8058   1.455   1.585   6.529  0.5566 -0.1815  0.1099
   59MOL0     C 8059   1.095   1.673   6.787 -0.6837 -0.1426  0.9457
   59MOL0     C 8060   1.057   1.737   6.665  0.4828 -0.7389  1.1077
   59MOL0     C 8061   0.922   1.767   6.657  0.0063  0.0858  0.1827
   59MOL0     C 8062   0.829   1.732   6.760 -1.0531  0.2392 -0.7708
   59MOL0     O 8063   0.688   1.747   6.753 -0.0787 -0.1223  0.5908
   59MOL0     C 8064   0.644   1.858   6.672  0.1405  0.0610  0.7567
   59MOL0     C 8065   0.510   1.910   6.725  0.0109  0.4233 -0.7639
   59MOL0     C 8066   0.454   2.022   6.637 -1.0676  1.1124 -1.3869
   59MOL0     C 8067   0.307   2.051   6.681 -0.7524 -0.7612  0.2860
   59MOL0     C 8068   0.266   2.176   6.618  0.1610  0.3638 -0.9160
   59MOL0     C 8069   0.237   2.275   6.561 -0.2139 -0.4109  0.3854
   59MOL0     C 8070   0.879   1.689   6.882  0.3956 -0.0365  0.9172
   59MOL0     C 8071   1.006   1.652   6.895 -1.1341  0.7997 -0.1043
   59MOL0     C 8072   1.038   1.589   7.032  0.2768 -0.4629 -1.4409
   59MOL0     H 8073   1.457   1.449   6.838 -1.9522 -2.0340 -1.0778
   59MOL0     H 8074   1.691   1.369   6.749 -0.2709 -1.8669 -1.2527
   59MOL0     H 8075   1.728   1.381   6.324  0.2244 -0.2707 -0.6215
   59MOL0     H 8076   1.697   1.252   6.442  0.7353 -0.2352  1.6465
   59MOL0     H 8077   1.941   1.215   6.465  0.6872 -0.1265  0.2161
   59MOL0     H 8078   1.887   1.203   6.290  0.5508 -0.0110 -0.5648
   59MOL0     H 8079   1.989   1.395   6.224 -0.2411 -0.5263  0.0339
   59MOL0     H 8080   2.008   1.469   6.387  1.6397  0.8364 -0.7751
   59MOL0     H 8081   2.187   1.303   6.437  0.7950 -0.9974  0.0060
   59MOL0     H 8082   2.154   1.219   6.286 -0.5655 -0.1616  1.5338
   59MOL0     H 8083   2.238   1.507   6.307 -0.5006  0.6159 -2.4195
   59MOL0     H 8084   2.240   1.410   6.169  0.3428  0.4524 -0.1276
   59MOL0     H 8085   2.416   1.343   6.416  0.5607  2.2530 -0.3546
   59MOL0     H 8086   2.421   1.258   6.264 -0.2781  0.6401 -2.4188
   59MOL0     H 8087   2.485   1.553   6.304  0.4331 -0.7323  0.9702
   59MOL0     H 8088   2.482   1.469   6.152 -2.2755  0.7416  0.0738
   59MOL0     H 8089   2.638   1.323   6.360 -1.3862  1.2569  0.2456
   59MOL0     H 8090   2.663   1.319   6.191  2.0634 -0.7229  1.1450
   59MOL0     H 8091   2.930   1.379   6.364  1.2396  2.2085  1.0845
   59MOL0     H 8092   3.145   1.607   6.191  1.1314 -4.5450  0.2488
   59MOL0     H 8093   3.149   1.502   6.328 -0.8038  0.5440  2.0126
   59MOL0     H 8094   3.062   1.714   6.460  0.1535 -1.3393  0.5214
   59MOL0     H 8095   3.232   1.735   6.408  0.2257 -2.1374  0.1574
   59MOL0     H 8096   3.178   1.872   6.218 -1.3814 -0.8726 -2.4575
   59MOL0     H 8097   3.012   1.869   6.254  0.8496  0.1611 -0.2045
   59MOL0     H 8098   3.065   1.979   6.480  1.2188  0.8558 -0.2541
   59MOL0     H 8099   3.230   1.987   6.433 -0.4167  1.6130 -0.9871
   59MOL0     H 8100   3.098   2.334   6.237 -0.6422 -2.4990 -0.6227
   59MOL0     H 8101   3.300   2.619   6.242 -0.8405 -1.1581  0.6324
   59MOL0     H 8102   3.149   2.557   6.184  0.1110  0.2477  1.3477
   59MOL0     H 8103   3.287   2.571   6.069  2.2120 -1.9345 -0.1764
   59MOL0     H 8104   3.814   2.225   5.954  0.1625  0.2141 -1.4389
   59MOL0     H 8105   4.034   2.289   5.842  0.2130  1.4258 -0.6732
   59MOL0     H 8106   4.241   2.404   5.801 -3.4134 -1.4906  0.1525
   59MOL0     H 8107   4.141   2.431   5.653  0.0869  1.2398 -1.0057
   59MOL0     H 8108   4.276   2.634   5.608  2.6788  1.8613 -0.3132
   59MOL0     H 8109   4.363   2.606   5.769  0.5952 -1.6237  0.1352
   59MOL0     H 8110   4.380   2.460   5.511  0.8744  1.2309 -0.4795
   59MOL0     H 8111   4.436   2.388   5.658 -1.6231  0.4189  0.1311
   59MOL0     H 8112   4.581   2.594   5.717  1.1659 -1.0295  0.0321
   59MOL0     H 8113   4.533   2.666   5.563 -0.3790  0.0513 -1.0094
   59MOL0     H 8114   4.756   2.571   5.568  1.2129 -1.2056  1.4703
   59MOL0     H 8115   4.694   2.408   5.579  3.0571 -0.0989 -3.5895
   59MOL0     H 8116   4.648   2.616   5.370 -0.4253  1.9682  3.7342
   59MOL0     H 8117   4.546   2.476   5.366 -0.3947  0.8712  0.4447
   59MOL0     H 8118   4.844   2.426   5.402  0.4068 -2.5054  0.4693
   59MOL0     H 8119   4.778   2.470   5.235 -0.0872  2.2247  0.6619
   59MOL0     H 8120   4.701   2.203   5.377  0.3084 -0.3534  0.6152
   59MOL0     H 8121   4.844   2.217   5.289  0.7346 -0.9993  2.2846
   59MOL0     H 8122   3.917   2.703   5.883 -1.5179 -0.0866 -0.6895
   59MOL0     H 8123   3.734   2.651   5.998  0.5239 -0.5574  1.3150
   59MOL0     H 8124   3.561   2.187   6.189 -0.8528 -0.4280 -1.2112
   59MOL0     H 8125   3.388   2.034   6.285 -0.9429 -0.9624 -1.8961
   59MOL0     H 8126   1.624   1.595   6.390 -0.1857 -1.8529 -0.8455
   59MOL0     H 8127   1.392   1.640   6.461  0.8682 -0.1978 -0.1940
   59MOL0     H 8128   1.133   1.751   6.589  0.3849  0.8170  1.2572
   59MOL0     H 8129   0.892   1.822   6.568 -2.8743  0.4432  1.2530
   59MOL0     H 8130   0.719   1.937   6.661 -0.9769  1.0583  0.0385
   59MOL0     H 8131   0.629   1.828   6.568 -0.2696  2.1341  0.1645
   59MOL0     H 8132   0.527   1.933   6.830 -1.9335 -1.9767  0.1783
   59MOL0     H 8133   0.437   1.829   6.733  1.9077 -1.4092 -1.1295
   59MOL0     H 8134   0.533   2.098   6.644 -0.5109  0.4014  0.5384
   59MOL0     H 8135   0.453   1.984   6.534  1.6801  1.9399 -1.8218
   59MOL0     H 8136   0.308   2.072   6.789  4.1678  0.6916  0.1895
   59MOL0     H 8137   0.246   1.970   6.641 -1.0070 -0.1637 -0.5555
   59MOL0     H 8138   0.209   2.360   6.503 -1.6433 -1.1426 -0.0576
   59MOL0     H 8139   0.808   1.688   6.964 -1.4968  0.4405 -0.6496
   59MOL0     H 8140   1.085   1.663   7.096 -0.4369 -0.5444 -0.8061
   59MOL0     H 8141   0.942   1.576   7.084 -0.1995 -1.3627 -2.4915
   59MOL0     H 8142   1.085   1.493   7.011 -0.9393 -0.9762 -1.9370
   60MOL0     O 8143   4.739   9.369   3.310  0.0829  0.8627  0.8065
   60MOL0     C 8144   4.789   9.319   3.212  0.2448  0.3769 -0.2245
   60MOL0     O 8145   4.842   9.386   3.108 -0.8979 -0.7458  0.0694
   60MOL0     C 8146   4.821   9.525   3.091  0.0984  0.0687  1.0337
   60MOL0     C 8147   4.700   9.583   3.131 -1.5066 -0.1845  0.2295
   60MOL0     C 8148   4.684   9.719   3.105 -1.3977  0.4167 -0.4258
   60MOL0     C 8149   4.780   9.806   3.045  1.4141  0.9553  0.6383
   60MOL0     O 8150   4.746   9.932   3.023 -0.0256  0.7549  0.2359
   60MOL0     C 8151   4.835  10.022   2.947  0.0474 -1.1408 -0.4815
   60MOL0     C 8152   4.782  10.160   2.962 -0.4643 -0.5028  0.6356
   60MOL0     C 8153   4.884  10.268   2.917  0.3003 -0.4823  0.2474
   60MOL0     C 8154   4.829  10.418   2.908 -0.6298  0.3813 -1.7240
   60MOL0     C 8155   4.751  10.471   3.025 -0.7983 -1.2355 -0.5325
   60MOL0     C 8156   4.838  10.509   3.142  0.2880 -0.1657  0.0896
   60MOL0     C 8157   4.941  10.619   3.120  0.1145  0.0806  1.0334
   60MOL0     C 8158   4.968  10.703   3.238 -0.2774 -0.2996 -0.2368
   60MOL0     N 8159   5.058  10.627   3.319 -0.2056 -0.3150 -0.1152
   60MOL0     C 8160   5.193  10.647   3.321  0.1088 -0.6326  0.6504
   60MOL0     C 8161   5.234  10.566   3.420  0.0195  0.1210 -0.0354
   60MOL0     C 8162   5.376  10.526   3.452 -0.5593  0.1172  0.3225
   60MOL0     C 8163   5.486  10.567   3.344  0.2574  0.0597  0.8022
   60MOL0     C 8164   5.628  10.532   3.390 -0.4247 -0.3576 -0.7115
   60MOL0     C 8165   5.719  10.510   3.268 -0.1159  0.7297 -0.2064
   60MOL0     O 8166   5.851  10.500   3.316  0.3652  0.4023 -0.2049
   60MOL0     C 8167   5.959  10.548   3.241  0.8596  0.1983 -0.0361
   60MOL0     C 8168   6.073  10.588   3.313 -0.3222  0.4187 -0.2519
   60MOL0     C 8169   6.186  10.652   3.255  0.7205  0.6532  0.7111
   60MOL0     C 8170   6.298  10.674   3.344 -0.2782  0.4486 -1.3389
   60MOL0     C 8171   6.181  10.686   3.116  0.1539 -0.6393  0.0021
   60MOL0     C 8172   6.290  10.755   3.036  0.2024 -0.2038  0.5192
   60MOL0     O 8173   6.414  10.773   3.095  0.4765  0.1999  0.2361
   60MOL0     C 8174   6.521  10.821   3.035 -0.4555  0.3422  0.6412
   60MOL0     C 8175   6.636  10.788   3.106  0.0814  0.0906  0.6057
   60MOL0     C 8176   6.759  10.824   3.054 -0.8764 -1.1729  0.1488
   60MOL0     C 8177   6.764  10.887   2.928  0.4781 -0.4253  0.5550
   60MOL0     O 8178   6.894  10.929   2.886 -0.1008  0.5402  0.2470
   60MOL0     C 8179   6.907  11.071   2.870 -0.3216 -0.2945  0.6963
   60MOL0     C 8180   6.986  11.097   2.736  0.7936  0.1491  0.4257
   60MOL0     C 8181   6.909  11.081   2.605  0.2783  0.0664  0.0951
   60MOL0     C 8182   6.992  11.146   2.487  0.3497  0.5840 -0.6822
   60MOL0     C 8183   6.923  11.136   2.356 -0.8235 -0.0422  0.2233
   60MOL0     C 8184   7.027  11.138   2.237 -0.4824 -0.1453 -0.1463
   60MOL0     C 8185   6.962  11.091   2.102 -0.1487 -0.1015  0.0824
   60MOL0     C 8186   6.960  10.941   2.108  0.0074 -0.1222  0.5465
   60MOL0    Cl 8187   6.936  10.876   1.950  0.2434 -0.1552  0.0796
   60MOL0     C 8188   6.651  10.923   2.855 -0.3359 -0.3636 -0.5258
   60MOL0     C 8189   6.531  10.890   2.914  0.4623  0.1909  0.1503
   60MOL0     O 8190   6.265  10.777   2.915  0.1755  0.3844 -0.3061
   60MOL0     C 8191   6.052  10.662   3.055 -0.0469 -1.2676  0.5648
   60MOL0     C 8192   5.947  10.589   3.109 -0.1563  0.2684  0.7712
   60MOL0     N 8193   5.125  10.502   3.476  0.6330  0.2453  0.1389
   60MOL0     N 8194   5.024  10.531   3.414  0.1286 -0.4749 -0.1463
   60MOL0     C 8195   4.896   9.743   2.997  0.3993 -0.2691 -0.2090
   60MOL0     C 8196   4.920   9.608   3.027 -0.1507 -0.2334  0.0884
   60MOL0     C 8197   4.821   9.170   3.215 -0.4370  0.9913 -0.7913
   60MOL0     C 8198   4.907   9.114   3.118  0.5504 -0.3342 -0.5513
   60MOL0     C 8199   4.927   8.978   3.107 -0.0896  0.9585  0.0250
   60MOL0     C 8200   4.865   8.874   3.181 -0.0805 -0.6865  0.3717
   60MOL0     O 8201   4.884   8.745   3.165  0.5527  0.4719  0.5012
   60MOL0     C 8202   4.824   8.653   3.258  0.0902 -0.3057  0.0095
   60MOL0     C 8203   4.790   8.519   3.198 -0.0777 -0.2034  0.3878
   60MOL0     C 8204   4.738   8.524   3.054  0.4239  0.3215 -0.4957
   60MOL0     C 8205   4.646   8.409   2.992 -1.1941  0.4489 -0.0759
   60MOL0     C 8206   4.711   8.285   3.028  0.3103  0.0614  0.0110
   60MOL0     C 8207   4.763   8.176   3.052  0.2777 -0.8048 -0.5616
   60MOL0     C 8208   4.783   8.935   3.282  0.0012  0.7696  0.0025
   60MOL0     C 8209   4.762   9.074   3.301  0.0093 -0.3589  0.3998
   60MOL0     C 8210   4.670   9.116   3.415 -0.2102  0.0139  0.6212
   60MOL0     H 8211   4.621   9.530   3.182 -1.4918 -1.6866 -1.2185
   60MOL0     H 8212   4.589   9.760   3.136  0.0058  1.2468  3.2100
   60MOL0     H 8213   4.840   9.987   2.844 -0.4591  0.6769 -1.1526
   60MOL0     H 8214   4.937  10.028   2.985 -0.0378  3.5496 -0.4793
   60MOL0     H 8215   4.693  10.160   2.899  0.2384 -1.8723 -0.4039
   60MOL0     H 8216   4.765  10.183   3.068 -0.0804  1.2611  0.3425
   60MOL0     H 8217   4.970  10.268   2.985  0.0138  0.0632  0.6262
   60MOL0     H 8218   4.911  10.261   2.812  0.7219  3.1449 -0.0313
   60MOL0     H 8219   4.911  10.490   2.900 -0.7708  0.9030  0.6406
   60MOL0     H 8220   4.766  10.427   2.819 -0.5339  0.6216 -1.7684
   60MOL0     H 8221   4.671  10.403   3.053  0.5764 -2.5869  0.2400
   60MOL0     H 8222   4.698  10.563   2.997  2.5783  0.0584 -3.5048
   60MOL0     H 8223   4.768  10.551   3.215  0.2883 -1.7760  1.0734
   60MOL0     H 8224   4.886  10.421   3.186  0.2370 -0.4532 -0.4267
   60MOL0     H 8225   4.897  10.683   3.043  0.4460 -0.8134  0.0832
   60MOL0     H 8226   5.033  10.583   3.072 -0.9855  1.2213 -2.2218
   60MOL0     H 8227   5.008  10.802   3.215 -2.0011  0.1877 -1.3738
   60MOL0     H 8228   4.876  10.718   3.296  0.7576 -1.5267  1.8567
   60MOL0     H 8229   5.249  10.722   3.266  0.3990 -1.2310  0.1219
   60MOL0     H 8230   5.368  10.417   3.455 -3.3767  0.2402  0.3798
   60MOL0     H 8231   5.403  10.573   3.547 -0.2527  0.9070 -0.1459
   60MOL0     H 8232   5.465  10.513   3.251 -1.5718 -0.3046  1.3870
   60MOL0     H 8233   5.473  10.673   3.321  0.1848  0.2459  1.6707
   60MOL0     H 8234   5.669  10.609   3.456 -1.6628 -1.2302  1.1494
   60MOL0     H 8235   5.618  10.438   3.444 -3.9072  0.7884  0.8650
   60MOL0     H 8236   5.674  10.421   3.223 -1.5740  0.4534  1.6742
   60MOL0     H 8237   5.712  10.591   3.195 -2.4148  1.7787  1.0474
   60MOL0     H 8238   6.070  10.559   3.418 -0.1913  2.4265  0.3427
   60MOL0     H 8239   6.324  10.780   3.345  1.0827  0.1517  0.5631
   60MOL0     H 8240   6.384  10.621   3.300 -0.1151  1.4037 -2.1846
   60MOL0     H 8241   6.289  10.638   3.448  0.0463  1.0596 -1.0967
   60MOL0     H 8242   6.617  10.739   3.202 -2.6485  2.2908  1.3088
   60MOL0     H 8243   6.848  10.796   3.110 -0.0834  1.2896  0.2369
   60MOL0     H 8244   6.809  11.117   2.856  1.0255  2.0322 -1.8742
   60MOL0     H 8245   6.955  11.116   2.957  0.9333 -3.5109  1.8566
   60MOL0     H 8246   7.024  11.200   2.738  2.1144 -0.3091  2.6705
   60MOL0     H 8247   7.074  11.033   2.724 -0.4008 -2.0916  2.8021
   60MOL0     H 8248   6.810  11.126   2.613 -0.0897 -0.3671 -1.5932
   60MOL0     H 8249   6.893  10.976   2.581 -1.0985  0.6287 -1.6671
   60MOL0     H 8250   7.079  11.082   2.475  0.8111  1.1568 -0.4357
   60MOL0     H 8251   7.021  11.249   2.510 -1.0147  0.4549  2.0409
   60MOL0     H 8252   6.875  11.037   2.357  3.3303 -2.2756  1.9948
   60MOL0     H 8253   6.843  11.210   2.348 -2.2775 -1.7303 -2.2806
   60MOL0     H 8254   7.119  11.085   2.264 -1.2933 -1.0845  0.9187
   60MOL0     H 8255   7.050  11.242   2.216 -2.1914  0.4042  0.5202
   60MOL0     H 8256   7.029  11.118   2.020  0.4272 -1.7639 -0.0118
   60MOL0     H 8257   6.871  11.146   2.076  0.0424 -0.1722 -0.7766
   60MOL0     H 8258   6.887  10.904   2.181  1.6190 -0.7861  1.9018
   60MOL0     H 8259   7.054  10.898   2.142 -0.1208 -0.4577  0.4811
   60MOL0     H 8260   6.655  10.989   2.768 -0.6188 -0.6518 -0.7571
   60MOL0     H 8261   6.451  10.924   2.849  1.2950  1.9857  0.0089
   60MOL0     H 8262   6.040  10.694   2.952 -0.3939  1.3334  1.3463
   60MOL0     H 8263   5.858  10.571   3.049  1.0385  0.4038 -1.1167
   60MOL0     H 8264   4.974   9.798   2.946  1.9086 -2.1514 -0.0328
   60MOL0     H 8265   5.015   9.564   2.997  0.3963  1.6895 -1.2169
   60MOL0     H 8266   4.955   9.183   3.049 -0.9998  1.0169 -0.3450
   60MOL0     H 8267   4.983   8.952   3.018  0.3470  1.3845  0.1676
   60MOL0     H 8268   4.892   8.640   3.343  1.1379  0.3315 -0.7019
   60MOL0     H 8269   4.727   8.679   3.301  0.4640 -0.8745  1.2450
   60MOL0     H 8270   4.715   8.463   3.255  0.7219 -0.3643  1.3004
   60MOL0     H 8271   4.885   8.466   3.192 -0.0602  0.0036 -1.9532
   60MOL0     H 8272   4.671   8.609   3.067  1.3948  0.6307  4.2882
   60MOL0     H 8273   4.826   8.547   2.994  0.2248  2.3806 -0.0791
   60MOL0     H 8274   4.650   8.420   2.884 -2.2138  2.6516  0.0542
   60MOL0     H 8275   4.542   8.413   3.026 -1.3673 -1.6983 -0.2427
   60MOL0     H 8276   4.789   8.077   3.085  2.2353  0.0569  0.7240
   60MOL0     H 8277   4.720   8.876   3.348  2.1118  0.6627  2.0545
   60MOL0     H 8278   4.734   9.139   3.501  2.4686 -3.0692 -0.3310
   60MOL0     H 8279   4.602   9.198   3.388  0.7871  0.2529 -1.3450
   60MOL0     H 8280   4.607   9.028   3.433  1.6271 -1.7045 -0.8273
   61MOL0     O 8281   9.830  11.142   7.805  0.6907  0.4112 -0.0986
   61MOL0     C 8282   9.762  11.172   7.897  0.0726 -0.0233  0.0834
   61MOL0     O 8283   9.801  11.252   8.000  0.5386  0.0262 -0.2774
   61MOL0     C 8284   9.933  11.259   8.037 -0.0397  0.6084 -0.5604
   61MOL0     C 8285   9.962  11.350   8.135 -0.0578  0.3412  0.1992
   61MOL0     C 8286  10.088  11.365   8.187 -0.6312  0.4210 -0.9021
   61MOL0     C 8287  10.188  11.272   8.150 -0.0939  0.7351  0.4351
   61MOL0     O 8288  10.317  11.278   8.198 -0.6369  0.1927 -0.3717
   61MOL0     C 8289  10.377  11.403   8.216 -0.7894 -0.0117 -0.5681
   61MOL0     C 8290  10.513  11.388   8.284  0.3408 -0.3102  0.2000
   61MOL0     C 8291  10.605  11.320   8.188  0.7324 -0.0557  0.4185
   61MOL0     C 8292  10.695  11.215   8.256  0.8476 -0.0233 -0.0119
   61MOL0     C 8293  10.841  11.266   8.271 -0.0853  0.3980  0.3765
   61MOL0     C 8294  10.936  11.147   8.291  0.2974 -0.1406  0.0503
   61MOL0     C 8295  11.088  11.184   8.297 -0.4756 -0.5622 -0.0980
   61MOL0     C 8296  11.146  11.162   8.159 -0.5569 -0.4829  0.6906
   61MOL0     N 8297  11.288  11.195   8.148 -0.3338 -0.0546 -1.0940
   61MOL0     C 8298  11.346  11.307   8.084  0.3543 -0.3461 -0.8479
   61MOL0     C 8299  11.477  11.280   8.074  0.0212  0.1001  0.9439
   61MOL0     C 8300  11.591  11.356   8.015 -0.7384  0.6976 -0.3012
   61MOL0     C 8301  11.692  11.376   8.133 -0.9356 -0.1857  0.6637
   61MOL0     C 8302  11.843  11.387   8.088  0.0338  0.9179 -0.0307
   61MOL0     C 8303  11.924  11.437   8.206 -0.5804 -0.5776  0.4723
   61MOL0     O 8304  12.058  11.424   8.146  0.3434 -0.2330 -0.1786
   61MOL0     C 8305  12.175  11.417   8.220 -0.5267  0.7574  0.0948
   61MOL0     C 8306  12.174  11.412   8.357  0.0800  0.3934  0.1958
   61MOL0     C 8307  12.286  11.395   8.438 -0.3298  0.4362  0.1539
   61MOL0     C 8308  12.262  11.386   8.586 -0.3811  0.5397  0.0258
   61MOL0     C 8309  12.415  11.395   8.364  0.1077  1.2488 -0.2111
   61MOL0     C 8310  12.542  11.370   8.429  0.5341  0.2457 -0.0523
   61MOL0     O 8311  12.619  11.280   8.362  0.0853  0.0255 -0.5003
   61MOL0     C 8312  12.749  11.293   8.383  0.4161  1.0483  0.5619
   61MOL0     C 8313  12.837  11.347   8.285  0.8415 -0.0760  0.9318
   61MOL0     C 8314  12.975  11.362   8.316  0.5882 -0.1831  0.3640
   61MOL0     C 8315  13.022  11.319   8.437  0.8454 -0.4398 -0.3465
   61MOL0     O 8316  13.144  11.351   8.479  0.8085  0.4475 -0.1984
   61MOL0     C 8317  13.253  11.330   8.387 -0.2866 -0.6983 -1.0211
   61MOL0     C 8318  13.389  11.326   8.460  0.4403  0.1912 -0.5234
   61MOL0     C 8319  13.489  11.234   8.388 -0.4251 -0.3348  0.8709
   61MOL0     C 8320  13.545  11.299   8.257 -0.9624 -0.2969  0.0632
   61MOL0     C 8321  13.624  11.416   8.277 -0.1414  0.5393 -0.3728
   61MOL0     C 8322  13.694  11.455   8.149 -0.0927 -0.5843  0.2264
   61MOL0     C 8323  13.805  11.562   8.162 -0.0262  0.7002 -0.2076
   61MOL0     C 8324  13.903  11.547   8.046  0.0320  0.9659  0.6321
   61MOL0    Cl 8325  14.064  11.625   8.078 -0.1281  0.1998 -0.0570
   61MOL0     C 8326  12.938  11.264   8.536 -0.2214 -1.3071 -0.2239
   61MOL0     C 8327  12.797  11.260   8.507 -0.8757  0.3354  0.0513
   61MOL0     O 8328  12.577  11.443   8.517  0.0887  0.0753 -0.3352
   61MOL0     C 8329  12.414  11.409   8.225 -0.2928 -0.3393  0.9493
   61MOL0     C 8330  12.297  11.414   8.151 -0.0433 -0.2695  0.2373
   61MOL0     N 8331  11.505  11.150   8.117  0.9696 -0.8913 -0.4760
   61MOL0     N 8332  11.388  11.097   8.159 -0.5024 -0.3411 -0.2378
   61MOL0     C 8333  10.160  11.165   8.063 -0.2285  0.3703 -0.9831
   61MOL0     C 8334  10.037  11.159   8.010 -0.0310  0.2571  0.0298
   61MOL0     C 8335   9.612  11.157   7.889  0.1408  0.1509 -0.0082
   61MOL0     C 8336   9.529  11.259   7.942 -0.1798 -0.5537  0.5540
   61MOL0     C 8337   9.393  11.242   7.940 -1.0681 -0.2411 -0.0722
   61MOL0     C 8338   9.339  11.129   7.878  0.0965 -0.1146  0.0148
   61MOL0     O 8339   9.203  11.117   7.892  0.2761 -0.1419  0.0593
   61MOL0     C 8340   9.133  10.996   7.868  0.2562 -0.4849  0.0581
   61MOL0     C 8341   8.982  11.032   7.853 -0.2263 -0.5481  0.1539
   61MOL0     C 8342   8.927  11.102   7.732  1.1207  0.8561 -0.0976
   61MOL0     C 8343   8.779  11.111   7.760 -0.2755  0.0153  0.2603
   61MOL0     C 8344   8.736  11.203   7.653  0.2226 -0.3566 -0.7087
   61MOL0     C 8345   8.688  11.279   7.570 -0.1634 -0.2064  0.0451
   61MOL0     C 8346   9.422  11.027   7.823 -0.3884 -0.2054 -0.1446
   61MOL0     C 8347   9.562  11.041   7.824 -0.1184 -0.0064 -0.8082
   61MOL0     C 8348   9.646  10.923   7.776  1.0081  0.2490 -1.0393
   61MOL0     H 8349   9.893  11.421   8.179 -0.4703 -0.2638  0.5394
   61MOL0     H 8350  10.106  11.433   8.270  0.9213 -0.2652 -0.6312
   61MOL0     H 8351  10.321  11.458   8.291 -0.2039  0.0769 -0.1891
   61MOL0     H 8352  10.393  11.458   8.122  1.1305  2.1731  0.9217
   61MOL0     H 8353  10.548  11.489   8.311  0.9801  0.1700 -2.2014
   61MOL0     H 8354  10.497  11.333   8.377  0.6873  0.8116  0.9446
   61MOL0     H 8355  10.548  11.269   8.110 -0.4546 -2.3004  2.6225
   61MOL0     H 8356  10.654  11.405   8.138 -0.9673  0.9040  0.3211
   61MOL0     H 8357  10.664  11.183   8.357  1.9630  0.7380  0.5955
   61MOL0     H 8358  10.690  11.128   8.190  2.2859  1.6825 -2.5023
   61MOL0     H 8359  10.860  11.334   8.354  2.7989  1.5116 -1.0892
   61MOL0     H 8360  10.874  11.315   8.180  1.0840 -0.7721  0.1350
   61MOL0     H 8361  10.917  11.097   8.386  0.9979 -0.3948  0.0679
   61MOL0     H 8362  10.915  11.076   8.211 -1.4452  0.4311 -0.0266
   61MOL0     H 8363  11.139  11.105   8.352 -0.3499 -1.0981 -0.9696
   61MOL0     H 8364  11.098  11.287   8.333 -3.1828 -0.1085 -0.3838
   61MOL0     H 8365  11.125  11.061   8.122  1.1699 -1.4507  2.2104
   61MOL0     H 8366  11.090  11.232   8.097 -1.2170 -0.4316  1.3363
   61MOL0     H 8367  11.290  11.392   8.046  1.3476  1.1967  0.9583
   61MOL0     H 8368  11.565  11.449   7.965  0.8258  1.1826 -0.2710
   61MOL0     H 8369  11.641  11.291   7.943 -0.4455 -1.8542  2.0114
   61MOL0     H 8370  11.667  11.473   8.176 -1.9133 -0.1088 -0.0278
   61MOL0     H 8371  11.683  11.302   8.213  0.3309 -0.4060  0.6273
   61MOL0     H 8372  11.876  11.286   8.061 -1.3323  0.5787 -0.5066
   61MOL0     H 8373  11.861  11.452   8.003  0.7645  1.6265  0.6565
   61MOL0     H 8374  11.909  11.543   8.227  0.9573  0.3628 -2.5706
   61MOL0     H 8375  11.905  11.386   8.301  1.1997 -0.1709  1.0912
   61MOL0     H 8376  12.076  11.418   8.404  0.0080  0.1421  0.0779
   61MOL0     H 8377  12.162  11.343   8.598  0.1330 -1.0213 -0.9836
   61MOL0     H 8378  12.268  11.483   8.637 -0.2902  0.6800 -0.2488
   61MOL0     H 8379  12.336  11.319   8.631  0.3796  1.5886  0.3740
   61MOL0     H 8380  12.797  11.403   8.201  2.2557 -1.0638 -0.4782
   61MOL0     H 8381  13.041  11.433   8.267 -1.4536  3.0410  1.9347
   61MOL0     H 8382  13.232  11.247   8.320 -0.2919  0.3415 -2.3608
   61MOL0     H 8383  13.257  11.422   8.328  0.7543  0.4280  0.7214
   61MOL0     H 8384  13.423  11.428   8.482 -0.0405  0.4404 -0.9314
   61MOL0     H 8385  13.377  11.277   8.558 -0.7798 -0.8472 -1.1665
   61MOL0     H 8386  13.441  11.139   8.363 -0.3655 -0.2077  0.2625
   61MOL0     H 8387  13.567  11.201   8.456 -0.8292 -2.5319  0.3313
   61MOL0     H 8388  13.465  11.314   8.184 -2.3567 -1.8970  1.1955
   61MOL0     H 8389  13.603  11.216   8.217 -1.6477 -0.4191 -0.7111
   61MOL0     H 8390  13.560  11.497   8.313 -1.6908 -0.7883 -0.0093
   61MOL0     H 8391  13.701  11.396   8.352 -0.7760  0.5207  0.2814
   61MOL0     H 8392  13.622  11.493   8.075  0.3826 -0.4032 -0.1483
   61MOL0     H 8393  13.743  11.366   8.108  1.5027  0.7033 -0.7895
   61MOL0     H 8394  13.855  11.537   8.256 -0.8580 -2.1294 -0.4131
   61MOL0     H 8395  13.759  11.661   8.158 -1.9811 -0.1595 -0.3587
   61MOL0     H 8396  13.862  11.566   7.947  0.4508 -0.9289  0.0557
   61MOL0     H 8397  13.913  11.438   8.040  0.7525  0.9767  1.4435
   61MOL0     H 8398  12.977  11.238   8.634 -1.7258  1.8141  1.3400
   61MOL0     H 8399  12.733  11.217   8.583  0.0260 -0.8485  0.1753
   61MOL0     H 8400  12.512  11.408   8.178 -0.6371  3.5718 -0.1315
   61MOL0     H 8401  12.284  11.437   8.046  0.4585 -0.5597  0.1132
   61MOL0     H 8402  10.232  11.084   8.056  0.0849  0.5131  0.4181
   61MOL0     H 8403  10.022  11.083   7.934  1.5419  0.6995 -0.7582
   61MOL0     H 8404   9.574  11.344   7.992 -0.3313  1.6999 -2.7906
   61MOL0     H 8405   9.326  11.314   7.985 -2.0238 -0.9457 -0.3177
   61MOL0     H 8406   9.156  10.971   7.764 -2.1273 -1.8997 -0.2096
   61MOL0     H 8407   9.149  10.909   7.933 -0.8080 -0.6701  0.0992
   61MOL0     H 8408   8.946  11.078   7.946  0.1807  2.7095 -1.1813
   61MOL0     H 8409   8.923  10.940   7.855  0.7061 -1.1581  1.0172
   61MOL0     H 8410   8.978  11.199   7.723  2.0708  0.2938 -1.0868
   61MOL0     H 8411   8.949  11.049   7.639  0.2474  1.8856 -0.9249
   61MOL0     H 8412   8.753  11.157   7.856  0.8434 -0.9610  1.0650
   61MOL0     H 8413   8.745  11.009   7.741  3.5215 -0.8437 -3.4452
   61MOL0     H 8414   8.641  11.332   7.490 -2.9477  0.1955  1.8211
   61MOL0     H 8415   9.365  10.941   7.790 -2.2415  2.0565 -3.3369
   61MOL0     H 8416   9.659  10.910   7.668  0.0310  2.7211 -1.5234
   61MOL0     H 8417   9.745  10.913   7.822 -0.4957  0.0370  2.5022
   61MOL0     H 8418   9.596  10.833   7.814  0.3993  1.1744  0.4412
   62MOL0     O 8419   8.580   5.726   6.090  0.3724 -0.1593 -0.4944
   62MOL0     C 8420   8.541   5.649   6.004  0.2135 -0.4674  0.0750
   62MOL0     O 8421   8.598   5.524   5.976  0.4330  0.0483  0.5399
   62MOL0     C 8422   8.721   5.500   6.027 -0.0566 -0.1003  0.3367
   62MOL0     C 8423   8.727   5.465   6.165  0.0719  0.1402  0.5421
   62MOL0     C 8424   8.846   5.447   6.224 -0.1242 -0.5841 -0.6761
   62MOL0     C 8425   8.963   5.451   6.152 -0.1567  0.4275  0.7817
   62MOL0     O 8426   9.068   5.408   6.212 -0.5528  0.5491  0.1893
   62MOL0     C 8427   9.174   5.348   6.143 -0.7035  1.3842  0.6122
   62MOL0     C 8428   9.282   5.314   6.251 -0.3218  0.2235 -0.4546
   62MOL0     C 8429   9.403   5.232   6.195 -0.5654 -0.2903 -0.3259
   62MOL0     C 8430   9.499   5.221   6.314  0.6452 -0.7632 -0.3942
   62MOL0     C 8431   9.636   5.155   6.276 -0.3610 -0.0727 -0.0196
   62MOL0     C 8432   9.739   5.184   6.390  0.5484 -1.1170 -0.1862
   62MOL0     C 8433   9.878   5.108   6.379  0.7728  0.1149  0.4793
   62MOL0     C 8434   9.969   5.164   6.255  0.7201  0.1329 -0.2915
   62MOL0     N 8435  10.101   5.105   6.261 -0.8272 -1.6093  0.6146
   62MOL0     C 8436  10.207   5.140   6.345  0.0792 -0.2851 -0.4929
   62MOL0     C 8437  10.303   5.044   6.323  0.1661  0.3591  0.4826
   62MOL0     C 8438  10.435   5.052   6.400  0.1272 -0.6842 -0.4441
   62MOL0     C 8439  10.538   5.162   6.352  0.8205  0.4236 -0.3876
   62MOL0     C 8440  10.647   5.144   6.462 -0.5626 -0.2118  0.2922
   62MOL0     C 8441  10.764   5.244   6.438  0.3781 -0.5779  0.3426
   62MOL0     O 8442  10.868   5.174   6.373 -0.7262 -0.0835  0.1886
   62MOL0     C 8443  10.975   5.247   6.334  0.1010 -0.3221  0.1063
   62MOL0     C 8444  11.009   5.375   6.381  0.0779  0.4226 -0.1716
   62MOL0     C 8445  11.115   5.456   6.329 -0.6521 -0.0978 -0.7671
   62MOL0     C 8446  11.134   5.594   6.394 -0.1229  0.6889 -0.6972
   62MOL0     C 8447  11.197   5.401   6.228 -0.3509 -0.5604 -0.1360
   62MOL0     C 8448  11.302   5.476   6.157 -0.7589 -0.2199  0.3360
   62MOL0     O 8449  11.407   5.411   6.103  0.5486 -0.3774  0.1958
   62MOL0     C 8450  11.519   5.472   6.067  0.5974  0.6471  0.5582
   62MOL0     C 8451  11.582   5.558   6.159 -0.3227  0.8476  0.9948
   62MOL0     C 8452  11.700   5.617   6.120 -1.0796  0.5350 -0.2448
   62MOL0     C 8453  11.760   5.596   5.989  0.3254 -0.3888 -1.1437
   62MOL0     O 8454  11.888   5.633   5.959  0.0034  0.4928  0.3191
   62MOL0     C 8455  12.000   5.597   6.044  0.2128 -0.1595 -0.4341
   62MOL0     C 8456  12.103   5.525   5.966 -0.2749  0.3446  0.2842
   62MOL0     C 8457  12.178   5.606   5.857 -0.6677  0.2272  0.2074
   62MOL0     C 8458  12.302   5.517   5.820 -0.1664 -0.1780 -0.0396
   62MOL0     C 8459  12.399   5.593   5.729 -0.0508  0.1959 -0.4078
   62MOL0     C 8460  12.499   5.486   5.669  0.1827  0.3038 -0.3155
   62MOL0     C 8461  12.586   5.549   5.556  0.5422  0.0193  0.8290
   62MOL0     C 8462  12.689   5.452   5.505  0.3425  0.4117 -0.1296
   62MOL0    Cl 8463  12.783   5.539   5.380  0.2043 -0.0345 -0.2466
   62MOL0     C 8464  11.692   5.526   5.896  0.4192  0.1814 -0.1760
   62MOL0     C 8465  11.571   5.463   5.932 -0.1990  0.2036 -0.3739
   62MOL0     O 8466  11.277   5.592   6.139 -0.2960  0.0503 -0.4095
   62MOL0     C 8467  11.164   5.268   6.189  0.5205  0.3039 -0.2267
   62MOL0     C 8468  11.067   5.188   6.254  0.8343  0.2688  0.0456
   62MOL0     N 8469  10.251   4.946   6.249 -0.2174 -0.0531 -0.2921
   62MOL0     N 8470  10.132   4.979   6.212  0.0759 -0.2412 -0.3254
   62MOL0     C 8471   8.956   5.465   6.007  0.7800 -0.0167  0.2910
   62MOL0     C 8472   8.838   5.493   5.948  0.9059 -0.7680 -0.0360
   62MOL0     C 8473   8.406   5.681   5.943  0.4054  0.3876  0.4525
   62MOL0     C 8474   8.318   5.577   5.903  0.0164 -0.0969 -0.7450
   62MOL0     C 8475   8.190   5.602   5.839 -0.7880 -0.9196 -0.0365
   62MOL0     C 8476   8.158   5.735   5.806 -0.2027  0.6886 -0.6572
   62MOL0     O 8477   8.039   5.764   5.753  0.9247  0.0610 -0.1263
   62MOL0     C 8478   8.002   5.699   5.642 -0.0955  0.7684  0.7117
   62MOL0     C 8479   7.935   5.793   5.548  0.8364 -0.2239  0.3209
   62MOL0     C 8480   8.031   5.889   5.479  0.4994  0.4063 -0.5539
   62MOL0     C 8481   7.962   5.988   5.396  0.8161  0.0178  0.3864
   62MOL0     C 8482   8.049   6.044   5.295 -0.7830 -0.0134  0.0761
   62MOL0     C 8483   8.122   6.113   5.229 -0.0473  0.3530  0.7499
   62MOL0     C 8484   8.240   5.835   5.854 -0.7264  0.1683  1.0882
   62MOL0     C 8485   8.372   5.814   5.906 -0.5343  1.5124 -0.3279
   62MOL0     C 8486   8.460   5.932   5.951 -0.6384  0.3930 -0.5391
   62MOL0     H 8487   8.639   5.467   6.229 -0.1765  0.6188  0.1918
   62MOL0     H 8488   8.848   5.420   6.330 -0.3827 -3.0169 -1.2254
   62MOL0     H 8489   9.223   5.409   6.066  0.1234  0.3660  0.3082
   62MOL0     H 8490   9.145   5.255   6.094  2.0746  0.0528  1.2895
   62MOL0     H 8491   9.318   5.410   6.288 -1.2504  1.2573 -2.0986
   62MOL0     H 8492   9.239   5.256   6.332 -0.4034  2.3582  1.1216
   62MOL0     H 8493   9.383   5.132   6.158  3.1479 -0.8039 -1.3573
   62MOL0     H 8494   9.454   5.283   6.113 -1.3630  1.1413  0.0305
   62MOL0     H 8495   9.508   5.325   6.348 -3.1870 -0.6308  0.7468
   62MOL0     H 8496   9.451   5.169   6.398  0.0340  2.2362  1.2647
   62MOL0     H 8497   9.673   5.192   6.180 -0.8951 -0.3407 -0.3276
   62MOL0     H 8498   9.621   5.047   6.278  2.7032 -0.5969  0.8070
   62MOL0     H 8499   9.763   5.290   6.397  1.7127 -1.2712 -1.4057
   62MOL0     H 8500   9.684   5.150   6.479  0.6462  0.9093  0.6982
   62MOL0     H 8501   9.861   5.000   6.375 -1.1001  0.2779  2.2629
   62MOL0     H 8502   9.929   5.126   6.474  0.2020 -1.1178  1.0404
   62MOL0     H 8503   9.913   5.137   6.164 -0.8664  2.6511 -0.1876
   62MOL0     H 8504   9.985   5.272   6.260  0.4654  0.5107 -4.2666
   62MOL0     H 8505  10.198   5.218   6.420  0.8348 -1.5866  1.0429
   62MOL0     H 8506  10.491   4.961   6.377 -0.1233 -0.8073 -0.5751
   62MOL0     H 8507  10.402   5.066   6.503 -0.1565 -0.8683 -0.5054
   62MOL0     H 8508  10.574   5.147   6.250  1.5897 -2.7215  0.2228
   62MOL0     H 8509  10.496   5.262   6.359 -2.2255 -0.8350  2.3137
   62MOL0     H 8510  10.609   5.172   6.561 -1.3631 -0.7235  0.1399
   62MOL0     H 8511  10.685   5.042   6.469 -0.1959 -0.1849 -1.1472
   62MOL0     H 8512  10.726   5.326   6.376 -0.8065 -3.6588 -3.4454
   62MOL0     H 8513  10.795   5.282   6.535  0.0599  4.9899 -1.3990
   62MOL0     H 8514  10.950   5.408   6.466 -0.2501  2.6101 -1.1937
   62MOL0     H 8515  11.101   5.674   6.328  2.7380  1.6564 -1.0610
   62MOL0     H 8516  11.239   5.609   6.419  0.1115 -2.8913  1.1896
   62MOL0     H 8517  11.073   5.601   6.485  2.7697 -1.6362  1.6377
   62MOL0     H 8518  11.535   5.570   6.256 -0.7675  0.2295  0.8630
   62MOL0     H 8519  11.758   5.675   6.191 -0.8497 -0.8657  0.7612
   62MOL0     H 8520  12.048   5.681   6.094  0.6227 -2.0271  2.5722
   62MOL0     H 8521  11.959   5.533   6.123 -0.3679  0.4752 -0.2150
   62MOL0     H 8522  12.169   5.478   6.039 -1.2327 -0.3245  0.7297
   62MOL0     H 8523  12.060   5.438   5.915  1.7234 -0.5028 -0.0579
   62MOL0     H 8524  12.216   5.700   5.896  0.1564 -0.7177  1.7895
   62MOL0     H 8525  12.124   5.621   5.763 -0.3043 -0.9013 -0.2066
   62MOL0     H 8526  12.267   5.429   5.766 -1.9162  0.9795 -0.9064
   62MOL0     H 8527  12.351   5.487   5.913 -0.0530  0.0033 -0.0396
   62MOL0     H 8528  12.352   5.653   5.651 -2.1477  0.9211  1.3247
   62MOL0     H 8529  12.456   5.662   5.793  1.0268  0.8028 -1.9524
   62MOL0     H 8530  12.430   5.406   5.639  0.7504  0.0024 -0.8476
   62MOL0     H 8531  12.561   5.445   5.749  1.4033 -0.0164 -1.4044
   62MOL0     H 8532  12.627   5.641   5.600 -1.4173  0.9305  0.8616
   62MOL0     H 8533  12.531   5.577   5.466 -0.8451 -0.5665  1.4816
   62MOL0     H 8534  12.641   5.366   5.458  1.1476  0.7139 -1.5490
   62MOL0     H 8535  12.759   5.420   5.583  3.0421  0.3212 -2.4560
   62MOL0     H 8536  11.734   5.507   5.797 -0.7403  2.1342 -1.0847
   62MOL0     H 8537  11.528   5.396   5.857  1.0275 -1.5805  0.4588
   62MOL0     H 8538  11.219   5.216   6.111  2.5238 -0.9954  1.9048
   62MOL0     H 8539  11.052   5.085   6.222 -1.0895 -0.0707  1.8227
   62MOL0     H 8540   9.040   5.472   5.940 -0.5837  1.9438 -1.3483
   62MOL0     H 8541   8.818   5.524   5.846 -0.3544 -3.1045 -0.5566
   62MOL0     H 8542   8.347   5.475   5.925  1.3332  0.8370  2.4078
   62MOL0     H 8543   8.106   5.534   5.827 -3.8573  2.6785 -0.9803
   62MOL0     H 8544   8.088   5.667   5.581 -1.6021 -1.1801 -0.5248
   62MOL0     H 8545   7.942   5.609   5.658 -0.0427  0.6136  0.0791
   62MOL0     H 8546   7.846   5.849   5.579  2.1990  4.7481 -3.4745
   62MOL0     H 8547   7.900   5.735   5.461 -0.4276  0.4503  0.3552
   62MOL0     H 8548   8.089   5.935   5.559 -1.2021 -2.1892  2.4278
   62MOL0     H 8549   8.109   5.838   5.422  3.6342  2.0646  1.9569
   62MOL0     H 8550   7.929   6.070   5.461 -1.4276 -0.9375  0.5431
   62MOL0     H 8551   7.880   5.936   5.346  0.5185  0.5075  0.3589
   62MOL0     H 8552   8.181   6.181   5.171  0.1202 -1.5421 -1.4089
   62MOL0     H 8553   8.215   5.938   5.830 -0.0277 -0.1167 -1.0903
   62MOL0     H 8554   8.458   5.947   6.059 -0.3730  1.1780 -0.6387
   62MOL0     H 8555   8.560   5.900   5.921 -1.4277 -2.2860 -0.6180
   62MOL0     H 8556   8.435   6.018   5.889 -0.4199  0.3493 -0.6912
   63MOL0     O 8557  10.464  11.355   3.646 -0.5450 -0.1289  0.5783
   63MOL0     C 8558  10.378  11.276   3.673 -0.9618 -0.2189  0.7220
   63MOL0     O 8559  10.385  11.141   3.654 -0.0950 -0.7516 -0.0039
   63MOL0     C 8560  10.509  11.079   3.651 -0.7491 -0.2039 -0.1116
   63MOL0     C 8561  10.606  11.117   3.745  0.6912  0.4529 -1.2760
   63MOL0     C 8562  10.728  11.052   3.768  0.5673 -0.2003 -0.6633
   63MOL0     C 8563  10.759  10.942   3.688  0.4226 -0.2963  0.7593
   63MOL0     O 8564  10.880  10.875   3.704  0.2647 -0.6223  1.3370
   63MOL0     C 8565  10.966  10.884   3.584  0.3390 -0.6261 -0.4946
   63MOL0     C 8566  10.992  10.728   3.541 -0.1065  0.2820 -0.4503
   63MOL0     C 8567  10.983  10.714   3.385  0.0868  0.2596 -0.6247
   63MOL0     C 8568  11.024  10.571   3.339  0.5896  0.0405  0.4835
   63MOL0     C 8569  11.072  10.565   3.193 -0.2635  0.7239 -0.2616
   63MOL0     C 8570  10.963  10.597   3.094  0.1618 -0.3671 -0.0025
   63MOL0     C 8571  10.865  10.482   3.066  0.7526  0.2117 -0.2565
   63MOL0     C 8572  10.744  10.524   2.979 -0.5556 -0.6060 -0.5168
   63MOL0     N 8573  10.786  10.581   2.854 -0.8719 -0.2828 -0.3160
   63MOL0     C 8574  10.796  10.715   2.839 -0.2972 -0.0030 -0.5589
   63MOL0     C 8575  10.837  10.724   2.709 -0.1540 -0.5724  0.0704
   63MOL0     C 8576  10.850  10.850   2.629 -0.4748  0.3589  0.0705
   63MOL0     C 8577  10.974  10.859   2.536 -0.2196  0.5413  0.1430
   63MOL0     C 8578  11.108  10.888   2.612 -0.6494  0.8225  0.7625
   63MOL0     C 8579  11.115  11.026   2.677 -0.5214  0.4418  0.2161
   63MOL0     O 8580  11.074  11.127   2.588 -0.2934 -0.2745 -0.1950
   63MOL0     C 8581  11.153  11.167   2.477 -0.9149  0.5113 -0.1837
   63MOL0     C 8582  11.278  11.109   2.445 -0.5210 -0.4542  0.0498
   63MOL0     C 8583  11.347  11.150   2.333  0.0821 -0.3694 -0.3893
   63MOL0     C 8584  11.475  11.063   2.304 -0.2459 -0.6933 -0.5438
   63MOL0     C 8585  11.293  11.257   2.256  0.2539 -0.3019 -0.2455
   63MOL0     C 8586  11.357  11.314   2.141 -0.6054  0.6484 -0.2488
   63MOL0     O 8587  11.487  11.344   2.171  0.1546 -1.1949  0.1813
   63MOL0     C 8588  11.565  11.395   2.070 -0.1985  0.3618  0.3123
   63MOL0     C 8589  11.608  11.521   2.055  0.4001  0.1445 -0.2663
   63MOL0     C 8590  11.708  11.552   1.961 -0.7982  0.1614  0.4840
   63MOL0     C 8591  11.773  11.464   1.880  0.2853  0.3654  0.1260
   63MOL0     O 8592  11.841  11.501   1.766 -0.0236 -0.1816 -0.0730
   63MOL0     C 8593  11.862  11.643   1.733  0.7991 -0.2853 -0.1685
   63MOL0     C 8594  11.946  11.666   1.608  0.5963 -0.4899  0.4486
   63MOL0     C 8595  12.082  11.620   1.631 -0.5424  0.2923 -0.5426
   63MOL0     C 8596  12.163  11.574   1.503  0.1426 -0.4215 -0.0943
   63MOL0     C 8597  12.302  11.532   1.541 -0.0333 -0.0547  0.2608
   63MOL0     C 8598  12.389  11.549   1.421 -0.2216  0.2512  1.0663
   63MOL0     C 8599  12.533  11.511   1.466 -0.5529 -0.0788 -0.5112
   63MOL0     C 8600  12.611  11.488   1.343 -0.4881 -0.4917 -0.5458
   63MOL0    Cl 8601  12.764  11.419   1.388  0.0248  0.5623 -0.6316
   63MOL0     C 8602  11.731  11.330   1.899  0.3854 -0.1129 -0.2958
   63MOL0     C 8603  11.630  11.300   1.990 -0.0535 -0.3071  0.4936
   63MOL0     O 8604  11.303  11.318   2.031 -0.1156 -0.1175 -0.5881
   63MOL0     C 8605  11.172  11.318   2.294  0.7297  0.0050  0.3825
   63MOL0     C 8606  11.106  11.267   2.405  0.9510  0.2938 -0.3349
   63MOL0     N 8607  10.848  10.600   2.657 -0.2976 -0.1711 -0.1710
   63MOL0     N 8608  10.819  10.508   2.743  0.2046  0.1605  0.6133
   63MOL0     C 8609  10.660  10.901   3.595 -0.1245 -0.1103  0.4107
   63MOL0     C 8610  10.537  10.961   3.578 -0.0012  0.1041 -0.7797
   63MOL0     C 8611  10.242  11.315   3.735 -0.7175 -0.2748 -0.0588
   63MOL0     C 8612  10.136  11.233   3.713 -0.3713  0.5256 -0.5417
   63MOL0     C 8613  10.007  11.261   3.763 -0.1987 -0.8131 -0.2403
   63MOL0     C 8614   9.986  11.381   3.822 -0.1183 -0.3124 -0.6257
   63MOL0     O 8615   9.864  11.422   3.879  0.3300 -0.1388  0.2864
   63MOL0     C 8616   9.752  11.335   3.865  0.8282 -0.5277  0.8292
   63MOL0     C 8617   9.637  11.414   3.916  0.5813 -0.5014 -0.0144
   63MOL0     C 8618   9.599  11.536   3.835  0.1489  0.1342  0.2448
   63MOL0     C 8619   9.572  11.508   3.687 -1.0259 -0.0071  0.1399
   63MOL0     C 8620   9.490  11.388   3.657 -0.9726  0.3879  0.5714
   63MOL0     C 8621   9.416  11.294   3.636  0.8752 -0.5828 -0.3147
   63MOL0     C 8622  10.094  11.463   3.850  0.0614  0.1853 -0.0832
   63MOL0     C 8623  10.225  11.433   3.810  1.1515  0.0174 -0.1684
   63MOL0     C 8624  10.325  11.540   3.832 -0.3801  0.3602 -0.4058
   63MOL0     H 8625  10.589  11.200   3.812  0.8855  0.3940 -1.1548
   63MOL0     H 8626  10.797  11.096   3.840  0.1224 -1.2035  0.3981
   63MOL0     H 8627  11.053  10.949   3.595  0.3143 -0.3514 -1.7597
   63MOL0     H 8628  10.905  10.916   3.499  0.3094  1.4480  0.2743
   63MOL0     H 8629  11.091  10.707   3.581 -0.8514  2.9716  3.3786
   63MOL0     H 8630  10.930  10.648   3.584  3.4750 -1.9337  1.0678
   63MOL0     H 8631  10.881  10.736   3.352 -0.3095  1.4041  1.2099
   63MOL0     H 8632  11.042  10.798   3.347 -0.0852  0.4129 -0.5619
   63MOL0     H 8633  11.088  10.513   3.407  0.3926 -0.1734  0.4894
   63MOL0     H 8634  10.937  10.508   3.358  0.5818 -0.0990 -0.0072
   63MOL0     H 8635  11.105  10.461   3.180 -1.4966  0.0668  1.3906
   63MOL0     H 8636  11.155  10.635   3.183 -0.2667  0.5667 -1.5698
   63MOL0     H 8637  10.904  10.684   3.126 -0.1180 -0.6711  0.3163
   63MOL0     H 8638  11.014  10.618   3.000  0.3086  0.0364  0.1656
   63MOL0     H 8639  10.818  10.447   3.159 -0.4588  2.0611 -0.1194
   63MOL0     H 8640  10.913  10.398   3.015 -2.3419 -3.0610  1.6851
   63MOL0     H 8641  10.669  10.448   2.957 -2.2091  0.3175  1.5392
   63MOL0     H 8642  10.685  10.594   3.039 -0.2025  0.1020 -0.9913
   63MOL0     H 8643  10.768  10.797   2.904 -0.4952  2.1315 -3.1521
   63MOL0     H 8644  10.852  10.942   2.688  1.7048  1.0462 -0.9961
   63MOL0     H 8645  10.756  10.848   2.573 -0.8658 -0.7734  0.7420
   63MOL0     H 8646  10.980  10.766   2.478 -3.2720  0.0565  0.4645
   63MOL0     H 8647  10.956  10.930   2.455 -0.4013  0.1765 -0.1434
   63MOL0     H 8648  11.098  10.812   2.690 -3.1196 -2.2170 -2.2454
   63MOL0     H 8649  11.192  10.864   2.547 -0.5907 -1.9598  1.7393
   63MOL0     H 8650  11.041  11.022   2.758  0.0512 -2.8460  0.7565
   63MOL0     H 8651  11.215  11.036   2.721 -0.4007  1.3311 -0.2535
   63MOL0     H 8652  11.334  11.032   2.498 -1.7802 -1.8115 -0.5506
   63MOL0     H 8653  11.564  11.101   2.354 -0.2468 -0.0597 -1.0073
   63MOL0     H 8654  11.490  11.065   2.195 -3.4599 -0.1191 -1.0885
   63MOL0     H 8655  11.463  10.958   2.331  0.4634  0.0293  2.9818
   63MOL0     H 8656  11.582  11.597   2.127  2.2573 -0.3790  1.0340
   63MOL0     H 8657  11.745  11.654   1.958 -1.6386  0.4631 -0.0843
   63MOL0     H 8658  11.765  11.689   1.712  1.4292  1.3819  0.4033
   63MOL0     H 8659  11.900  11.699   1.820  3.1447  0.8939 -1.8630
   63MOL0     H 8660  11.920  11.600   1.524  0.3813  2.0850 -1.6463
   63MOL0     H 8661  11.942  11.770   1.572  0.6829 -0.4797  0.4668
   63MOL0     H 8662  12.089  11.542   1.707  2.6143  1.3197  0.4058
   63MOL0     H 8663  12.129  11.709   1.675 -1.7624  0.4913  0.3898
   63MOL0     H 8664  12.158  11.654   1.428  0.4279  0.2301  0.5640
   63MOL0     H 8665  12.111  11.488   1.460 -0.1082 -1.3826  1.9934
   63MOL0     H 8666  12.338  11.586   1.629 -0.9290  0.9440  0.0228
   63MOL0     H 8667  12.290  11.425   1.562 -4.4980  0.4155  1.0786
   63MOL0     H 8668  12.385  11.645   1.369  1.5450 -0.8355 -1.2977
   63MOL0     H 8669  12.357  11.466   1.357  2.1106 -0.2528  0.4540
   63MOL0     H 8670  12.528  11.431   1.541 -1.0273 -0.4510 -0.9239
   63MOL0     H 8671  12.579  11.593   1.521  0.4988 -1.7625  1.2474
   63MOL0     H 8672  12.638  11.584   1.296 -0.4845  0.2605  0.9385
   63MOL0     H 8673  12.559  11.424   1.271 -2.1039 -0.6933  0.7392
   63MOL0     H 8674  11.774  11.257   1.832 -1.5266 -1.2009 -0.4417
   63MOL0     H 8675  11.602  11.195   2.000 -0.2856 -0.4717 -1.4222
   63MOL0     H 8676  11.143  11.396   2.225  1.5495  2.0025  2.2018
   63MOL0     H 8677  11.014  11.308   2.443  1.6008  1.6588 -0.1802
   63MOL0     H 8678  10.684  10.814   3.535 -0.6652  0.3553 -0.5066
   63MOL0     H 8679  10.463  10.926   3.507  0.2659 -0.1734 -0.9232
   63MOL0     H 8680  10.139  11.142   3.655 -0.2504  0.5176 -0.5209
   63MOL0     H 8681   9.923  11.199   3.735 -1.0403 -0.1849  0.8213
   63MOL0     H 8682   9.734  11.287   3.769 -1.3385 -0.4384  1.1613
   63MOL0     H 8683   9.766  11.245   3.925  0.4269  0.1127  1.9155
   63MOL0     H 8684   9.669  11.438   4.018  3.5735 -3.2550 -0.1406
   63MOL0     H 8685   9.562  11.335   3.915 -0.8508  0.8053 -1.7967
   63MOL0     H 8686   9.501  11.562   3.875 -1.5406 -1.2158 -2.7259
   63MOL0     H 8687   9.672  11.617   3.848  1.2486 -0.8404  0.2888
   63MOL0     H 8688   9.672  11.501   3.641 -1.8412  0.4583 -1.8114
   63MOL0     H 8689   9.533  11.594   3.633  0.3323 -1.0581 -2.7207
   63MOL0     H 8690   9.348  11.219   3.600  0.8809  0.3739 -2.5165
   63MOL0     H 8691  10.074  11.544   3.919  0.7154 -0.6228  1.0854
   63MOL0     H 8692  10.349  11.592   3.738  1.1690 -1.0669 -0.8403
   63MOL0     H 8693  10.302  11.616   3.907 -0.2935 -0.0636  0.0525
   63MOL0     H 8694  10.421  11.498   3.862  0.3528  3.0017  1.2869
   64MOL0     O 8695   5.847   9.105   9.002  0.6158  0.1862  0.1225
   64MOL0     C 8696   5.726   9.097   9.031 -0.0985 -0.4588  0.7339
   64MOL0     O 8697   5.671   9.121   9.156  0.6732 -0.6164  0.6313
   64MOL0     C 8698   5.753   9.138   9.275 -0.1436  0.8100  0.7323
   64MOL0     C 8699   5.690   9.192   9.378 -0.3435 -0.3152  0.0552
   64MOL0     C 8700   5.754   9.223   9.498 -1.1112  0.4724 -0.3422
   64MOL0     C 8701   5.895   9.194   9.516 -0.2709  0.5061 -0.6723
   64MOL0     O 8702   5.958   9.221   9.645  0.6759 -0.5432 -0.1682
   64MOL0     C 8703   6.089   9.174   9.669 -0.0680 -0.1031  0.5093
   64MOL0     C 8704   6.104   9.155   9.817 -0.3261  0.6978 -0.7365
   64MOL0     C 8705   6.070   9.285   9.898 -0.1706  0.3339 -0.7268
   64MOL0     C 8706   6.100   9.252  10.045 -0.1077 -0.2852  0.8557
   64MOL0     C 8707   6.249   9.269  10.086 -0.0428  0.8017  0.1781
   64MOL0     C 8708   6.309   9.410  10.063 -0.2593  1.1105  0.5215
   64MOL0     C 8709   6.457   9.430  10.112 -0.1365  0.2332  0.0152
   64MOL0     C 8710   6.550   9.358  10.010 -0.1367 -0.6881  0.1679
   64MOL0     N 8711   6.689   9.371  10.051 -0.5371  0.4576 -0.1866
   64MOL0     C 8712   6.758   9.483  10.039 -0.0570 -0.4615 -0.0456
   64MOL0     C 8713   6.883   9.450  10.077 -0.2416 -0.4584  0.1681
   64MOL0     C 8714   6.996   9.552  10.085 -0.5969 -0.5580 -0.4832
   64MOL0     C 8715   7.126   9.496  10.022  0.3974 -0.1250 -0.6610
   64MOL0     C 8716   7.240   9.585  10.060  0.0510  0.3967 -0.1395
   64MOL0     C 8717   7.370   9.536  10.006 -0.3794  0.4204  0.8247
   64MOL0     O 8718   7.397   9.568   9.862 -0.2003  0.1890 -0.4329
   64MOL0     C 8719   7.523   9.525   9.810  0.2806  0.4656  0.5757
   64MOL0     C 8720   7.613   9.456   9.888 -1.2279 -1.1288 -0.2433
   64MOL0     C 8721   7.747   9.438   9.838  0.0415 -0.0601  0.7291
   64MOL0     C 8722   7.841   9.375   9.941 -0.5128 -0.2360  0.1236
   64MOL0     C 8723   7.790   9.492   9.711  0.9219 -0.4578  0.2573
   64MOL0     C 8724   7.926   9.471   9.654  1.0774 -0.0837  1.4417
   64MOL0     O 8725   7.954   9.556   9.547  0.1545 -0.2455 -0.3312
   64MOL0     C 8726   8.078   9.559   9.500 -0.2288  0.0622 -0.4096
   64MOL0     C 8727   8.153   9.449   9.446  0.1280  0.6083  0.0195
   64MOL0     C 8728   8.281   9.461   9.399 -0.1684 -0.3687  0.1360
   64MOL0     C 8729   8.340   9.592   9.409  0.6242  0.6722  0.4755
   64MOL0     O 8730   8.471   9.607   9.367 -0.2353 -0.1455 -0.0329
   64MOL0     C 8731   8.526   9.740   9.345 -1.6905 -0.1550 -0.7237
   64MOL0     C 8732   8.651   9.741   9.262 -0.2211 -1.2460 -0.0912
   64MOL0     C 8733   8.609   9.667   9.133  0.3712  0.8182  0.6439
   64MOL0     C 8734   8.726   9.663   9.028  0.7257 -0.0963 -0.0919
   64MOL0     C 8735   8.771   9.797   8.967 -0.8537  0.2144  0.3367
   64MOL0     C 8736   8.891   9.776   8.874 -0.1427  0.3379  0.1851
   64MOL0     C 8737   9.026   9.742   8.935  0.2585  0.7166  0.6975
   64MOL0     C 8738   9.059   9.805   9.075  0.1431  0.7635  0.0805
   64MOL0    Cl 8739   9.230   9.752   9.096  0.1549 -0.2985  0.3738
   64MOL0     C 8740   8.265   9.704   9.454  0.1556 -0.2719 -0.1416
   64MOL0     C 8741   8.136   9.684   9.497  0.7796  0.3470  0.2599
   64MOL0     O 8742   8.003   9.383   9.694  0.2053 -0.1863  0.1669
   64MOL0     C 8743   7.687   9.553   9.633  0.7817 -0.4759  0.2036
   64MOL0     C 8744   7.560   9.568   9.685  0.0447  0.2957 -0.4053
   64MOL0     N 8745   6.886   9.310  10.104  0.7135 -0.7764  0.3825
   64MOL0     N 8746   6.765   9.268  10.107  0.2843 -0.2112 -0.2148
   64MOL0     C 8747   5.961   9.129   9.411  0.3551 -0.7372  1.2710
   64MOL0     C 8748   5.890   9.111   9.289  0.5642 -0.0719  0.5390
   64MOL0     C 8749   5.633   9.058   8.922  0.3560 -0.4549  0.4246
   64MOL0     C 8750   5.493   9.059   8.945 -0.4863  0.6347 -0.3037
   64MOL0     C 8751   5.400   9.028   8.845  0.6557  0.5173  0.1215
   64MOL0     C 8752   5.442   8.974   8.731  0.0552  0.1168 -0.4115
   64MOL0     O 8753   5.339   8.947   8.645  0.4195  0.5659 -0.2772
   64MOL0     C 8754   5.358   8.822   8.577  0.5363 -0.6690 -0.5401
   64MOL0     C 8755   5.225   8.774   8.520  0.1605  0.4895 -0.0138
   64MOL0     C 8756   5.120   8.744   8.624 -0.2501 -0.3116  0.0130
   64MOL0     C 8757   5.082   8.590   8.632 -0.4416  0.9197 -0.0220
   64MOL0     C 8758   5.198   8.511   8.676  0.4941  0.1424 -0.5400
   64MOL0     C 8759   5.293   8.447   8.708  0.3174 -0.0457 -0.0568
   64MOL0     C 8760   5.571   8.967   8.699  1.0013 -0.2545  0.0848
   64MOL0     C 8761   5.674   9.013   8.795  0.7715 -0.2325  0.1267
   64MOL0     C 8762   5.816   9.017   8.749 -0.4109  0.8210  0.4849
   64MOL0     H 8763   5.587   9.226   9.372 -0.1276  1.5466  3.7217
   64MOL0     H 8764   5.691   9.259   9.579 -0.1865  1.4014 -0.0139
   64MOL0     H 8765   6.154   9.259   9.645 -1.0138  0.6962  0.7000
   64MOL0     H 8766   6.123   9.086   9.613  0.4384  0.8554 -0.7575
   64MOL0     H 8767   6.039   9.077   9.856  0.5946  1.0728  1.7346
   64MOL0     H 8768   6.206   9.136   9.851 -0.6853  1.4654  0.8553
   64MOL0     H 8769   6.118   9.377   9.864  0.5150  0.2321 -0.0496
   64MOL0     H 8770   5.963   9.307   9.888 -0.4640 -1.5218 -2.3697
   64MOL0     H 8771   6.050   9.325  10.109 -0.0171  0.8939 -0.3483
   64MOL0     H 8772   6.054   9.155  10.065 -3.6139  0.9243 -0.5829
   64MOL0     H 8773   6.310   9.201  10.025 -1.3560  1.4131 -1.9462
   64MOL0     H 8774   6.260   9.252  10.193  1.0720 -1.3086 -0.2179
   64MOL0     H 8775   6.311   9.438   9.957  2.8612 -0.2436  0.1012
   64MOL0     H 8776   6.250   9.476  10.126  1.0941  0.3983  2.6366
   64MOL0     H 8777   6.470   9.402  10.217  3.6381  2.7821  0.4520
   64MOL0     H 8778   6.483   9.536  10.106 -0.3131  0.2823  0.1130
   64MOL0     H 8779   6.526   9.252  10.011  1.2815 -1.0376  1.3625
   64MOL0     H 8780   6.544   9.398   9.909  0.7964 -0.7414  0.0884
   64MOL0     H 8781   6.721   9.578  10.003 -0.7847 -1.6799 -2.8216
   64MOL0     H 8782   7.010   9.567  10.193  1.0963 -0.4922 -0.6953
   64MOL0     H 8783   6.962   9.645  10.040  1.0107 -0.4281 -1.4905
   64MOL0     H 8784   7.146   9.398  10.067 -0.2162  0.0715  0.0625
   64MOL0     H 8785   7.099   9.476   9.918  0.1094  0.4203 -0.6962
   64MOL0     H 8786   7.209   9.683  10.022 -2.2658  0.3394  1.4394
   64MOL0     H 8787   7.253   9.590  10.168 -1.0259  0.7128 -0.0174
   64MOL0     H 8788   7.440   9.575  10.080 -0.8155  0.5333  1.1810
   64MOL0     H 8789   7.365   9.429  10.025  2.7650  0.5039  2.8611
   64MOL0     H 8790   7.593   9.417   9.987  1.4952  0.8808  1.2329
   64MOL0     H 8791   7.943   9.414   9.941 -0.0934 -1.2756  0.9271
   64MOL0     H 8792   7.855   9.268   9.919  3.9438  0.4146 -1.2484
   64MOL0     H 8793   7.811   9.388  10.045 -0.7235 -1.0095  0.1653
   64MOL0     H 8794   8.105   9.351   9.440 -0.1245  0.7963 -1.2802
   64MOL0     H 8795   8.344   9.380   9.363 -1.7029 -1.5046 -0.0795
   64MOL0     H 8796   8.453   9.799   9.289 -0.3444  2.6873  0.3438
   64MOL0     H 8797   8.540   9.796   9.438 -0.1384 -0.5489 -0.6992
   64MOL0     H 8798   8.692   9.840   9.241  0.8191 -2.3937 -4.5301
   64MOL0     H 8799   8.720   9.678   9.318 -1.8240 -3.9846 -0.9981
   64MOL0     H 8800   8.519   9.711   9.089 -0.0108  2.3367  2.7901
   64MOL0     H 8801   8.589   9.565   9.167  0.4483  1.3281  2.3039
   64MOL0     H 8802   8.698   9.595   8.948  1.6882  0.2790 -0.7662
   64MOL0     H 8803   8.809   9.617   9.084 -0.5347 -2.6508 -0.1693
   64MOL0     H 8804   8.692   9.846   8.910 -0.8520  1.4205  1.3208
   64MOL0     H 8805   8.799   9.876   9.038  0.1662  0.9230 -0.8244
   64MOL0     H 8806   8.903   9.872   8.822 -3.4034 -0.1136 -1.6934
   64MOL0     H 8807   8.859   9.709   8.794 -0.7023  2.2772 -1.2942
   64MOL0     H 8808   9.102   9.773   8.862  2.2027  0.4376  2.5100
   64MOL0     H 8809   9.021   9.634   8.948 -2.2179  0.8072  0.9965
   64MOL0     H 8810   8.990   9.777   9.154 -0.3607  0.2815 -0.5234
   64MOL0     H 8811   9.055   9.914   9.083  2.0249  0.8529  0.4232
   64MOL0     H 8812   8.311   9.800   9.476  1.1679 -0.7070 -0.3056
   64MOL0     H 8813   8.076   9.768   9.532  0.4491  0.9051 -1.5795
   64MOL0     H 8814   7.697   9.593   9.533  1.1555 -0.3394  0.2953
   64MOL0     H 8815   7.485   9.624   9.631 -2.7832 -0.1811  2.6431
   64MOL0     H 8816   6.055   9.075   9.417  1.2795  0.4861 -0.9106
   64MOL0     H 8817   5.945   9.060   9.211 -0.8930 -0.9127  0.0241
   64MOL0     H 8818   5.454   9.095   9.040 -0.7773  0.1267 -0.2285
   64MOL0     H 8819   5.292   9.042   8.855 -0.0178 -4.1505  2.4944
   64MOL0     H 8820   5.436   8.826   8.500  0.5018  2.1979 -0.5339
   64MOL0     H 8821   5.386   8.751   8.655  1.3144 -0.1131 -0.2979
   64MOL0     H 8822   5.245   8.683   8.463 -0.9019  0.0304  0.3155
   64MOL0     H 8823   5.185   8.849   8.451  0.4025 -0.2967 -1.0337
   64MOL0     H 8824   5.156   8.775   8.723 -1.4722 -0.7968  0.6334
   64MOL0     H 8825   5.035   8.808   8.598  0.4347  0.1797 -1.0689
   64MOL0     H 8826   5.055   8.554   8.532 -2.2378  1.8179  0.1006
   64MOL0     H 8827   4.996   8.577   8.699 -1.7100  0.8864 -1.5707
   64MOL0     H 8828   5.373   8.375   8.712  2.2852  1.9566 -0.8256
   64MOL0     H 8829   5.604   8.929   8.603  2.3903  1.5826 -0.2098
   64MOL0     H 8830   5.859   9.114   8.724 -0.7263  0.8449  0.0350
   64MOL0     H 8831   5.878   8.963   8.822 -2.2489 -0.7562  0.9619
   64MOL0     H 8832   5.831   8.950   8.664  2.1519  2.4591 -0.4650
   65MOL0     O 8833   6.117   4.644   6.038 -0.0703 -0.3261 -0.8697
   65MOL0     C 8834   6.087   4.527   6.063 -0.2528 -0.6771 -0.3239
   65MOL0     O 8835   6.147   4.449   6.154 -0.1933 -0.3177  0.1797
   65MOL0     C 8836   6.269   4.485   6.200  0.1520 -0.5099  0.1374
   65MOL0     C 8837   6.373   4.560   6.145  0.4648 -0.6156 -0.3663
   65MOL0     C 8838   6.496   4.579   6.224 -0.3008  0.0099 -0.3176
   65MOL0     C 8839   6.509   4.527   6.356 -0.1758  0.5689 -0.2683
   65MOL0     O 8840   6.625   4.521   6.429 -0.4657  0.0489  0.0417
   65MOL0     C 8841   6.729   4.607   6.386  0.2768 -0.4520 -0.1691
   65MOL0     C 8842   6.823   4.629   6.505  0.0291 -0.5909  0.3961
   65MOL0     C 8843   6.943   4.711   6.458  1.0255  0.2806  0.3994
   65MOL0     C 8844   7.044   4.751   6.567 -0.2155 -0.7771 -0.2137
   65MOL0     C 8845   7.150   4.850   6.511 -0.1640 -0.3641 -0.3285
   65MOL0     C 8846   7.265   4.881   6.604  0.1165 -0.5027 -0.7466
   65MOL0     C 8847   7.362   4.991   6.547 -0.9690 -1.0876  0.0779
   65MOL0     C 8848   7.460   5.044   6.653  0.0185  0.1668  0.1749
   65MOL0     N 8849   7.558   4.942   6.683 -0.6116  1.0375 -0.5783
   65MOL0     C 8850   7.566   4.866   6.804  0.6480  0.7151  0.0739
   65MOL0     C 8851   7.665   4.780   6.790 -0.6899  0.2340  0.2662
   65MOL0     C 8852   7.700   4.671   6.899 -0.8986 -0.4811 -0.0838
   65MOL0     C 8853   7.672   4.526   6.858 -0.3862  0.1807  0.0935
   65MOL0     C 8854   7.681   4.397   6.953 -0.4246 -0.3360  0.5514
   65MOL0     C 8855   7.593   4.400   7.073 -0.1220  0.8996 -0.8993
   65MOL0     O 8856   7.625   4.508   7.161 -0.5150  0.3273  0.2917
   65MOL0     C 8857   7.621   4.480   7.295 -0.5400 -0.5281 -0.7328
   65MOL0     C 8858   7.724   4.404   7.336 -0.7971 -0.2203  1.2285
   65MOL0     C 8859   7.746   4.380   7.471  0.6870  0.1877 -0.1736
   65MOL0     C 8860   7.863   4.288   7.503  0.8209 -0.1440  0.0397
   65MOL0     C 8861   7.674   4.451   7.566  0.4272 -0.1366 -0.0231
   65MOL0     C 8862   7.676   4.405   7.711 -1.2572 -0.0485 -0.0288
   65MOL0     O 8863   7.552   4.392   7.771 -0.5765  0.0516 -0.1805
   65MOL0     C 8864   7.556   4.311   7.883 -0.3359  0.5918  0.2813
   65MOL0     C 8865   7.581   4.356   8.009 -0.9769 -0.1297 -0.0553
   65MOL0     C 8866   7.584   4.260   8.110 -0.4161  0.1448 -0.9642
   65MOL0     C 8867   7.561   4.119   8.091  0.6261  0.4193  0.3092
   65MOL0     O 8868   7.563   4.030   8.192  0.3573 -0.6552  0.4086
   65MOL0     C 8869   7.428   4.002   8.239 -1.0340  0.4780 -0.2226
   65MOL0     C 8870   7.428   3.969   8.391 -0.1937  0.4377 -0.1245
   65MOL0     C 8871   7.510   4.053   8.478 -1.4295 -0.0491 -0.1631
   65MOL0     C 8872   7.504   4.010   8.629 -0.2509 -0.5222 -0.2173
   65MOL0     C 8873   7.608   4.099   8.707 -0.8564 -0.7046 -1.3250
   65MOL0     C 8874   7.637   4.048   8.844 -0.0609  0.4502 -1.5024
   65MOL0     C 8875   7.510   4.052   8.937 -0.4691 -0.1159 -0.0780
   65MOL0     C 8876   7.439   4.193   8.936  0.2389 -1.2937  0.4099
   65MOL0    Cl 8877   7.291   4.213   8.831 -0.0695  0.0480 -0.2282
   65MOL0     C 8878   7.526   4.080   7.961 -0.0576 -0.3007  0.1570
   65MOL0     C 8879   7.531   4.177   7.859  0.1596  0.9876  0.3676
   65MOL0     O 8880   7.786   4.388   7.765  0.8451  0.6734 -0.1503
   65MOL0     C 8881   7.571   4.539   7.521  0.8266 -0.2402 -0.4108
   65MOL0     C 8882   7.553   4.555   7.382  0.3389  0.4568  0.2740
   65MOL0     N 8883   7.715   4.782   6.661  0.1503  0.1355 -0.2300
   65MOL0     N 8884   7.641   4.871   6.598 -0.7955 -0.0486 -0.3861
   65MOL0     C 8885   6.399   4.448   6.401  0.7786  0.1779  0.3451
   65MOL0     C 8886   6.280   4.428   6.327  0.2046  0.0434  0.1400
   65MOL0     C 8887   5.968   4.469   5.995  0.1399 -0.4751  0.0454
   65MOL0     C 8888   5.898   4.367   6.064 -0.5722 -0.0046 -0.0214
   65MOL0     C 8889   5.777   4.315   6.020  0.5886 -0.6711  0.4489
   65MOL0     C 8890   5.727   4.360   5.895 -0.2070  0.9677  0.0437
   65MOL0     O 8891   5.620   4.284   5.852  0.3003 -0.2995  0.4346
   65MOL0     C 8892   5.508   4.361   5.835 -0.6043 -0.4678  0.3185
   65MOL0     C 8893   5.437   4.392   5.973 -0.1964 -0.1471  0.3600
   65MOL0     C 8894   5.314   4.475   5.953  0.5280  1.4320 -0.1688
   65MOL0     C 8895   5.194   4.396   5.916  0.7583 -0.6315 -0.2807
   65MOL0     C 8896   5.082   4.485   5.879 -0.4041  0.1636 -0.3540
   65MOL0     C 8897   4.989   4.552   5.834 -1.0116  0.7518 -0.0235
   65MOL0     C 8898   5.791   4.466   5.827  0.2785 -0.0790  0.0627
   65MOL0     C 8899   5.913   4.519   5.872  0.0635 -0.4637 -0.1975
   65MOL0     C 8900   5.979   4.625   5.786  0.2703 -0.0595 -0.2772
   65MOL0     H 8901   6.382   4.607   6.047  1.6096 -0.0415 -0.0004
   65MOL0     H 8902   6.568   4.628   6.160 -0.1438 -1.4616 -1.3297
   65MOL0     H 8903   6.687   4.704   6.359  1.5465  0.0694 -0.3269
   65MOL0     H 8904   6.779   4.566   6.298 -0.7367 -1.1156 -0.4542
   65MOL0     H 8905   6.768   4.683   6.582  2.2391 -1.7920  2.9692
   65MOL0     H 8906   6.854   4.533   6.548  1.4623 -0.0776  0.5823
   65MOL0     H 8907   6.993   4.644   6.389 -1.1811 -0.0957 -0.9203
   65MOL0     H 8908   6.910   4.798   6.401  0.7996  0.3133  0.5778
   65MOL0     H 8909   6.995   4.809   6.646  2.1035  1.3514 -0.2153
   65MOL0     H 8910   7.095   4.665   6.612  2.3082 -0.3969 -2.1110
   65MOL0     H 8911   7.095   4.940   6.483 -1.1544 -0.2196  1.8586
   65MOL0     H 8912   7.187   4.808   6.418 -0.9040 -1.9507  0.0518
   65MOL0     H 8913   7.221   4.906   6.701  0.7360  2.9642 -1.2440
   65MOL0     H 8914   7.335   4.797   6.614  1.3389  0.4769 -0.8267
   65MOL0     H 8915   7.299   5.074   6.512 -0.0535 -0.4721 -0.1374
   65MOL0     H 8916   7.405   4.951   6.455  1.1320 -0.1472  0.5958
   65MOL0     H 8917   7.503   5.138   6.618 -2.5308  0.9855 -1.0316
   65MOL0     H 8918   7.403   5.071   6.742 -0.7026  2.5482 -0.9151
   65MOL0     H 8919   7.506   4.895   6.889  0.8082  1.8964 -0.2027
   65MOL0     H 8920   7.657   4.697   6.996 -1.2203  3.8249 -1.1475
   65MOL0     H 8921   7.808   4.680   6.912 -1.2932  0.6947  3.4745
   65MOL0     H 8922   7.567   4.524   6.827 -0.6118 -2.6015  0.7543
   65MOL0     H 8923   7.737   4.509   6.772 -0.9965  1.9679 -0.7887
   65MOL0     H 8924   7.650   4.312   6.892  1.0635 -1.2418  0.9962
   65MOL0     H 8925   7.784   4.375   6.984  0.2559 -0.0496 -1.3971
   65MOL0     H 8926   7.493   4.415   7.032 -0.0274  1.3886 -0.9578
   65MOL0     H 8927   7.598   4.307   7.131 -0.0294  2.0857  1.1136
   65MOL0     H 8928   7.783   4.355   7.259 -3.0980 -1.2648  0.0144
   65MOL0     H 8929   7.928   4.338   7.575 -2.7867  1.1097  2.7064
   65MOL0     H 8930   7.914   4.262   7.410 -3.5140 -3.3066 -1.8012
   65MOL0     H 8931   7.830   4.193   7.546 -1.1697 -0.1951 -1.4099
   65MOL0     H 8932   7.609   4.459   8.030 -1.7374  0.1196 -0.2312
   65MOL0     H 8933   7.625   4.286   8.207  0.7137  0.9862 -1.6500
   65MOL0     H 8934   7.362   4.087   8.221 -0.2321  0.9448 -1.0381
   65MOL0     H 8935   7.375   3.925   8.181  0.6821  1.0553 -2.7494
   65MOL0     H 8936   7.324   3.971   8.425 -0.4572  0.6558 -0.9208
   65MOL0     H 8937   7.465   3.867   8.399 -0.7447 -0.0711 -2.9693
   65MOL0     H 8938   7.479   4.157   8.464 -2.0987 -0.4154 -1.5983
   65MOL0     H 8939   7.615   4.049   8.446 -1.7976  0.2619 -1.4637
   65MOL0     H 8940   7.522   3.904   8.644 -3.7355 -1.5012 -1.8876
   65MOL0     H 8941   7.403   4.040   8.659  0.3997  1.3974  0.2378
   65MOL0     H 8942   7.703   4.086   8.655  1.7433 -0.3103  2.8058
   65MOL0     H 8943   7.578   4.204   8.704 -1.8954 -0.8892  0.6259
   65MOL0     H 8944   7.718   4.098   8.897 -1.0753  0.2402  0.3562
   65MOL0     H 8945   7.673   3.945   8.833 -0.4997  0.3496 -2.0307
   65MOL0     H 8946   7.522   4.019   9.041  0.6125  1.2864  0.2688
   65MOL0     H 8947   7.452   3.967   8.898 -0.3778 -1.8994  3.2414
   65MOL0     H 8948   7.509   4.270   8.905 -0.0450 -0.0468  2.6682
   65MOL0     H 8949   7.412   4.217   9.039 -3.7777  0.1650 -0.7748
   65MOL0     H 8950   7.509   3.973   7.948 -2.1281  0.1976 -2.0063
   65MOL0     H 8951   7.520   4.138   7.758  0.7614 -3.7185  1.8525
   65MOL0     H 8952   7.510   4.593   7.593  3.8227 -0.2076  2.3306
   65MOL0     H 8953   7.488   4.636   7.350  0.2183  1.4916  2.8930
   65MOL0     H 8954   6.410   4.399   6.497 -0.9029 -0.2145  0.3565
   65MOL0     H 8955   6.199   4.361   6.354 -1.5575  1.1298 -2.1138
   65MOL0     H 8956   5.936   4.333   6.160  1.8123  0.2462 -0.8133
   65MOL0     H 8957   5.742   4.239   6.088 -2.0905  1.3735  1.5633
   65MOL0     H 8958   5.536   4.456   5.789  3.6063 -2.6151 -2.2172
   65MOL0     H 8959   5.443   4.303   5.769 -0.8302 -0.4640  0.5355
   65MOL0     H 8960   5.501   4.456   6.034 -2.0098  1.4238  0.6974
   65MOL0     H 8961   5.410   4.300   6.025 -1.9926  0.5738  0.7710
   65MOL0     H 8962   5.298   4.521   6.051 -2.8816 -0.5008  0.3323
   65MOL0     H 8963   5.339   4.555   5.884  1.1895  0.4133 -1.1377
   65MOL0     H 8964   5.161   4.334   6.000 -0.6057 -1.4001 -1.3472
   65MOL0     H 8965   5.208   4.313   5.846 -1.0089 -2.1268  1.0457
   65MOL0     H 8966   4.906   4.608   5.796  0.2160  1.3239 -2.0451
   65MOL0     H 8967   5.759   4.499   5.729 -1.2727  0.6587  0.7697
   65MOL0     H 8968   5.956   4.616   5.680  1.5398  1.0026 -0.6662
   65MOL0     H 8969   5.943   4.725   5.815  1.5149  0.3650 -0.1268
   65MOL0     H 8970   6.088   4.622   5.796  0.0853  0.5192  3.5904
   66MOL0     O 8971  11.104  10.160   4.668 -0.3858  0.4133  0.3189
   66MOL0     C 8972  11.026  10.140   4.576  0.1452 -0.2519 -0.2111
   66MOL0     O 8973  11.034  10.178   4.441 -0.7454 -0.2586 -0.0860
   66MOL0     C 8974  11.154  10.234   4.396  0.3529 -0.3765 -0.1767
   66MOL0     C 8975  11.263  10.159   4.342  0.2731 -0.4545  0.3981
   66MOL0     C 8976  11.379  10.228   4.298 -0.3365 -0.0840 -0.3884
   66MOL0     C 8977  11.405  10.357   4.332  0.2355  0.4922 -1.1411
   66MOL0     O 8978  11.531  10.394   4.308 -0.3736  0.0181 -0.4887
   66MOL0     C 8979  11.584  10.512   4.367  0.3130  0.3520 -0.2144
   66MOL0     C 8980  11.728  10.527   4.320 -0.4387  0.1679  0.3326
   66MOL0     C 8981  11.820  10.425   4.392 -0.7448  0.2016 -0.5774
   66MOL0     C 8982  11.963  10.426   4.328 -0.5642 -0.2748  0.8292
   66MOL0     C 8983  12.079  10.376   4.418  1.0480 -1.2331  0.6016
   66MOL0     C 8984  12.214  10.411   4.371 -0.3430 -0.3556  0.4350
   66MOL0     C 8985  12.324  10.381   4.476  0.5747 -0.2298 -0.4340
   66MOL0     C 8986  12.444  10.486   4.465  0.5006 -0.4008  0.8044
   66MOL0     N 8987  12.517  10.478   4.335 -0.8626 -0.2920  0.4215
   66MOL0     C 8988  12.570  10.372   4.278  0.0607 -0.5059 -0.7340
   66MOL0     C 8989  12.663  10.414   4.187 -0.5024  0.1511 -0.9281
   66MOL0     C 8990  12.753  10.324   4.100  0.2118 -0.6007  0.2234
   66MOL0     C 8991  12.890  10.393   4.068  0.1099  0.8401  0.0269
   66MOL0     C 8992  12.967  10.355   3.942  0.4794  0.1478  0.2572
   66MOL0     C 8993  12.974  10.199   3.930  0.9825 -0.3350  0.0269
   66MOL0     O 8994  13.060  10.165   3.827 -0.3102 -0.7789 -0.2347
   66MOL0     C 8995  13.195  10.171   3.847  0.0954  0.4442  0.1167
   66MOL0     C 8996  13.271  10.142   3.733  0.3267  0.3557  0.2171
   66MOL0     C 8997  13.407  10.133   3.740 -0.7056 -0.1848  0.4280
   66MOL0     C 8998  13.493  10.125   3.615  0.0868 -0.2380 -0.3827
   66MOL0     C 8999  13.473  10.143   3.869  0.3341  0.4171  0.9228
   66MOL0     C 9000  13.619  10.126   3.883 -0.5582 -1.0824 -0.0928
   66MOL0     O 9001  13.680  10.033   3.802  0.3416  0.5721 -0.4612
   66MOL0     C 9002  13.822  10.021   3.813  1.1418 -0.8055 -0.6299
   66MOL0     C 9003  13.875   9.956   3.930 -0.3105  0.3070  0.2468
   66MOL0     C 9004  14.012   9.961   3.949  0.0024  0.4526 -0.1673
   66MOL0     C 9005  14.101  10.037   3.870 -0.1286 -0.4501  0.4606
   66MOL0     O 9006  14.238  10.049   3.892  0.0614 -0.6390 -0.0246
   66MOL0     C 9007  14.317  10.170   3.882 -0.0690  0.5389 -0.2731
   66MOL0     C 9008  14.440  10.133   3.832 -0.1956  0.2894 -0.3926
   66MOL0     C 9009  14.540  10.253   3.796  0.5528 -0.0400  0.0618
   66MOL0     C 9010  14.668  10.225   3.712  0.4843  0.4537  0.1976
   66MOL0     C 9011  14.755  10.345   3.688 -0.1689  0.6672 -0.4954
   66MOL0     C 9012  14.882  10.309   3.612 -0.0133 -0.7935 -0.0842
   66MOL0     C 9013  14.985  10.432   3.622  0.7315  0.1162 -0.3394
   66MOL0     C 9014  15.113  10.361   3.586  0.2550  0.1860 -0.0358
   66MOL0    Cl 9015  15.240  10.478   3.588  0.1136 -0.1249  0.2508
   66MOL0     C 9016  14.034  10.117   3.777  0.1972  0.0312  0.1854
   66MOL0     C 9017  13.898  10.115   3.740 -0.5420  0.3916  0.4186
   66MOL0     O 9018  13.675  10.189   3.969  0.4646 -0.2736 -0.5126
   66MOL0     C 9019  13.400  10.170   3.987 -0.0712  0.0938 -0.0407
   66MOL0     C 9020  13.261  10.186   3.973 -0.5102  0.0982  0.1234
   66MOL0     N 9021  12.644  10.551   4.176 -0.5755 -0.3022  0.2448
   66MOL0     N 9022  12.558  10.590   4.260 -0.5077  0.4503  0.3226
   66MOL0     C 9023  11.302  10.442   4.378  0.7102 -0.0407  0.0647
   66MOL0     C 9024  11.176  10.376   4.406 -0.0279 -1.7092 -0.1880
   66MOL0     C 9025  10.914  10.048   4.603 -0.1539  0.9292 -0.0132
   66MOL0     C 9026  10.864   9.970   4.498  0.0570  0.7032 -0.1157
   66MOL0     C 9027  10.743   9.898   4.509 -0.7710  0.5259 -0.6040
   66MOL0     C 9028  10.686   9.887   4.635  0.4135  0.1395 -0.6352
   66MOL0     O 9029  10.580   9.809   4.652  0.0512  0.3044 -0.1819
   66MOL0     C 9030  10.474   9.816   4.554 -0.1132  0.2497  0.1020
   66MOL0     C 9031  10.371   9.708   4.597  0.4520 -0.0443 -0.2137
   66MOL0     C 9032  10.313   9.721   4.741  0.0897  0.0175  0.2624
   66MOL0     C 9033  10.229   9.606   4.788  0.1508 -0.5117  1.1319
   66MOL0     C 9034  10.123   9.592   4.688 -0.4924 -0.5267 -0.5244
   66MOL0     C 9035  10.027   9.579   4.615 -0.4728  0.0290  0.0282
   66MOL0     C 9036  10.753   9.945   4.745  0.7620 -0.9503 -0.3253
   66MOL0     C 9037  10.857  10.038   4.737 -0.2273  0.2873  1.2042
   66MOL0     C 9038  10.889  10.125   4.864 -0.0535  0.4748  0.6666
   66MOL0     H 9039  11.257  10.052   4.331  0.5350 -0.3434 -0.9952
   66MOL0     H 9040  11.460  10.173   4.251  0.2135 -0.9718  1.4897
   66MOL0     H 9041  11.588  10.507   4.476  5.0181  1.0728 -0.1331
   66MOL0     H 9042  11.523  10.600   4.346  0.5148  0.3765 -0.7220
   66MOL0     H 9043  11.738  10.507   4.213  2.1292 -2.7971  0.9976
   66MOL0     H 9044  11.760  10.631   4.336 -1.2556  0.6739 -1.0576
   66MOL0     H 9045  11.817  10.450   4.498 -4.8839 -0.4463 -0.3728
   66MOL0     H 9046  11.771  10.328   4.379  0.0879 -0.3819  0.5530
   66MOL0     H 9047  11.967  10.373   4.233  0.2193  0.3824  0.4819
   66MOL0     H 9048  11.980  10.533   4.312 -0.5926 -0.3171  0.5018
   66MOL0     H 9049  12.080  10.267   4.427  0.4571 -1.7502 -3.5317
   66MOL0     H 9050  12.067  10.416   4.519 -0.0582  0.7086 -0.2365
   66MOL0     H 9051  12.246  10.362   4.278  2.3278  0.2147  0.9728
   66MOL0     H 9052  12.227  10.517   4.348  2.2378 -1.1898 -2.7876
   66MOL0     H 9053  12.366  10.284   4.449  1.0303  0.0716 -0.8169
   66MOL0     H 9054  12.277  10.379   4.575 -0.1512 -0.7541 -0.7784
   66MOL0     H 9055  12.396  10.582   4.483  0.2737 -0.6801  1.7985
   66MOL0     H 9056  12.511  10.467   4.550 -0.1224 -0.7400  1.2341
   66MOL0     H 9057  12.546  10.273   4.317 -1.3968 -0.1946 -0.8043
   66MOL0     H 9058  12.689  10.303   4.014 -2.3677  0.4594  1.7714
   66MOL0     H 9059  12.769  10.226   4.147 -1.1755 -2.2543 -2.5520
   66MOL0     H 9060  12.873  10.499   4.049  2.2458  1.0835 -0.7807
   66MOL0     H 9061  12.947  10.378   4.160 -0.5309 -1.9207  0.0530
   66MOL0     H 9062  12.900  10.391   3.864 -1.2885 -1.9191  0.7130
   66MOL0     H 9063  13.065  10.402   3.957  0.0807 -0.0140  5.0889
   66MOL0     H 9064  13.010  10.163   4.027  0.6825  1.3780  0.8200
   66MOL0     H 9065  12.881  10.152   3.897 -0.0718  1.9508 -0.5013
   66MOL0     H 9066  13.214  10.133   3.641 -2.0664 -0.0194  1.6435
   66MOL0     H 9067  13.437  10.153   3.526  2.5117  0.2432 -1.8596
   66MOL0     H 9068  13.520  10.019   3.608 -0.1588 -0.5421  2.3389
   66MOL0     H 9069  13.568  10.204   3.619 -0.6882  0.8130 -3.5126
   66MOL0     H 9070  13.810   9.902   3.998  1.1495 -1.3618  0.3935
   66MOL0     H 9071  14.061   9.906   4.029  1.4220  0.2071 -1.1627
   66MOL0     H 9072  14.279  10.253   3.821  0.4226  1.6737  0.9110
   66MOL0     H 9073  14.330  10.211   3.983  3.6247 -0.5543 -0.1806
   66MOL0     H 9074  14.493  10.070   3.904  3.5338  0.9160 -2.2811
   66MOL0     H 9075  14.429  10.062   3.749  0.4407 -1.2907  0.8126
   66MOL0     H 9076  14.575  10.296   3.891  0.8211  1.5101 -0.7113
   66MOL0     H 9077  14.486  10.329   3.738  3.6501 -0.4873 -3.8226
   66MOL0     H 9078  14.629  10.193   3.615 -0.0707 -0.5316  0.7292
   66MOL0     H 9079  14.723  10.134   3.739 -0.0684 -0.0885 -0.4615
   66MOL0     H 9080  14.700  10.418   3.627  1.9451  1.5195 -1.4613
   66MOL0     H 9081  14.776  10.395   3.783 -0.0670 -1.1870  0.4954
   66MOL0     H 9082  14.862  10.279   3.509  1.5464  2.0903 -1.3489
   66MOL0     H 9083  14.938  10.227   3.657  0.7997  0.5088  1.3784
   66MOL0     H 9084  15.002  10.472   3.722  2.1188  0.1446 -0.5652
   66MOL0     H 9085  14.960  10.509   3.548 -2.9270  0.4565  1.0633
   66MOL0     H 9086  15.091  10.317   3.488  0.7417  1.6423 -0.8181
   66MOL0     H 9087  15.140  10.284   3.659 -2.2825 -1.3310 -0.5900
   66MOL0     H 9088  14.091  10.184   3.714 -1.2460 -0.3932 -1.6618
   66MOL0     H 9089  13.864  10.178   3.659  2.3180  0.0232 -1.2181
   66MOL0     H 9090  13.452  10.192   4.080 -0.7045  0.3525  0.2614
   66MOL0     H 9091  13.201  10.217   4.058 -0.9515  1.3814 -0.6373
   66MOL0     H 9092  11.317  10.549   4.377  3.8763 -0.3714  0.6431
   66MOL0     H 9093  11.090  10.439   4.425  1.1179  0.7318 -2.3254
   66MOL0     H 9094  10.918   9.968   4.403  1.4399 -0.3233  0.6504
   66MOL0     H 9095  10.699   9.853   4.421 -4.3211  0.9124  0.8236
   66MOL0     H 9096  10.422   9.912   4.549 -0.5026 -0.0147 -1.4186
   66MOL0     H 9097  10.508   9.773   4.460 -2.2741 -2.2199  0.3518
   66MOL0     H 9098  10.411   9.608   4.578  0.4982 -0.5796  2.2883
   66MOL0     H 9099  10.287   9.718   4.528  0.7390  0.9421 -0.4335
   66MOL0     H 9100  10.399   9.736   4.807 -0.9228 -1.4482  2.0091
   66MOL0     H 9101  10.264   9.818   4.754 -0.1099 -0.1942  1.1588
   66MOL0     H 9102  10.180   9.625   4.884  1.7891 -0.9349  2.1058
   66MOL0     H 9103  10.291   9.516   4.798  2.2826  0.3453 -2.5941
   66MOL0     H 9104   9.967   9.569   4.527 -0.0276 -1.6296 -0.1228
   66MOL0     H 9105  10.696   9.943   4.838  0.3364  2.8644 -0.3374
   66MOL0     H 9106  10.949  10.061   4.930  1.3054 -2.2289 -2.8277
   66MOL0     H 9107  10.933  10.222   4.838  0.1678 -0.2050 -1.7783
   66MOL0     H 9108  10.796  10.155   4.914 -1.7261 -2.6151 -0.3156
   67MOL0     O 9109  10.012   5.317   6.740  0.1815 -0.2507  0.7064
   67MOL0     C 9110  10.003   5.386   6.845  0.1547 -0.1397  0.2987
   67MOL0     O 9111  10.102   5.408   6.942 -0.3307 -0.8433  0.3663
   67MOL0     C 9112  10.223   5.344   6.918  0.0591  0.5339  0.3261
   67MOL0     C 9113  10.298   5.374   6.805  0.0691 -0.3817 -0.4796
   67MOL0     C 9114  10.412   5.307   6.782  0.4876 -0.6832 -0.1446
   67MOL0     C 9115  10.454   5.211   6.861 -1.1010  1.4848 -0.2761
   67MOL0     O 9116  10.570   5.154   6.824 -0.5665 -0.0754  0.3693
   67MOL0     C 9117  10.613   5.021   6.852  0.2967 -0.3890 -0.8499
   67MOL0     C 9118  10.742   4.976   6.773  1.0568  0.6966 -0.7725
   67MOL0     C 9119  10.861   5.081   6.773 -0.0325  0.1563 -0.3629
   67MOL0     C 9120  10.974   5.032   6.690 -0.8210  0.2254  0.0559
   67MOL0     C 9121  11.079   5.145   6.677  0.0756  0.3281 -0.9986
   67MOL0     C 9122  11.206   5.104   6.600  0.4210 -0.1924 -0.3582
   67MOL0     C 9123  11.306   5.212   6.594 -0.1767  0.4543 -0.1693
   67MOL0     C 9124  11.384   5.231   6.724 -0.3295  0.9094 -0.3321
   67MOL0     N 9125  11.470   5.347   6.739 -0.0579 -0.4235  0.1226
   67MOL0     C 9126  11.431   5.475   6.743 -0.2731 -0.5074  0.4806
   67MOL0     C 9127  11.540   5.553   6.744  0.6059  0.1082  1.2438
   67MOL0     C 9128  11.564   5.706   6.742 -0.5534 -0.3628  0.2066
   67MOL0     C 9129  11.654   5.747   6.619  0.8831  0.9822 -0.5402
   67MOL0     C 9130  11.731   5.882   6.633  1.1091  0.3015 -0.5217
   67MOL0     C 9131  11.808   5.902   6.508 -0.4344  0.3576  0.1222
   67MOL0     O 9132  11.911   5.801   6.486 -0.7742  0.4652  0.5686
   67MOL0     C 9133  12.017   5.832   6.401 -0.4360 -0.0634  0.0254
   67MOL0     C 9134  12.117   5.734   6.403  0.8448 -0.1350  0.1952
   67MOL0     C 9135  12.232   5.746   6.324  0.4600 -0.9039  0.5702
   67MOL0     C 9136  12.320   5.626   6.325 -0.4568 -0.8500 -0.6526
   67MOL0     C 9137  12.251   5.857   6.237 -0.3527  0.5479  1.0789
   67MOL0     C 9138  12.364   5.883   6.148 -0.3217  0.3331  0.0096
   67MOL0     O 9139  12.403   6.019   6.109 -0.1088 -0.2451  0.1566
   67MOL0     C 9140  12.522   6.038   6.037 -0.6744  0.4237 -0.6627
   67MOL0     C 9141  12.615   6.120   6.096  0.4181  0.3471 -0.1826
   67MOL0     C 9142  12.741   6.137   6.039 -0.5046  0.6110 -0.7345
   67MOL0     C 9143  12.779   6.066   5.925  0.7167  0.3457  0.6671
   67MOL0     O 9144  12.905   6.088   5.881 -0.1001  0.1921  0.4717
   67MOL0     C 9145  12.913   6.182   5.773 -0.1992 -0.2873  0.1279
   67MOL0     C 9146  13.047   6.171   5.711  0.1894  0.4732 -0.6014
   67MOL0     C 9147  13.042   6.232   5.574 -0.0619 -0.8968  0.3567
   67MOL0     C 9148  13.183   6.226   5.509  0.2993  0.0151  0.0641
   67MOL0     C 9149  13.204   6.352   5.419 -0.4060  0.1699  0.7077
   67MOL0     C 9150  13.101   6.367   5.305  0.4009  0.1903  0.5861
   67MOL0     C 9151  13.158   6.457   5.186  0.9461 -0.2451 -0.2753
   67MOL0     C 9152  13.043   6.496   5.096  0.3442 -0.4371  0.2251
   67MOL0    Cl 9153  12.921   6.597   5.190  0.0353  0.3868  0.2026
   67MOL0     C 9154  12.693   5.985   5.858 -0.5565  0.5940 -0.1018
   67MOL0     C 9155  12.559   5.968   5.917 -1.2987  0.0669 -1.1589
   67MOL0     O 9156  12.413   5.775   6.103 -0.3021  0.6160 -0.5381
   67MOL0     C 9157  12.146   5.953   6.232  0.5043  0.0363  0.4552
   67MOL0     C 9158  12.041   5.946   6.317  0.7880  0.0640  0.5720
   67MOL0     N 9159  11.638   5.465   6.742  0.6056  0.0198 -0.2870
   67MOL0     N 9160  11.604   5.341   6.744 -0.8015  0.3719  0.6039
   67MOL0     C 9161  10.404   5.200   6.989  1.3183  0.6409 -0.2634
   67MOL0     C 9162  10.275   5.265   7.020  0.0069  0.5361  0.1006
   67MOL0     C 9163   9.876   5.470   6.878 -0.3667 -0.2784  0.6517
   67MOL0     C 9164   9.862   5.504   7.007 -0.1065 -0.3426 -0.0591
   67MOL0     C 9165   9.756   5.587   7.043  0.0946 -0.8489 -0.2028
   67MOL0     C 9166   9.664   5.639   6.953 -0.1006  0.2402  0.7089
   67MOL0     O 9167   9.567   5.733   6.989 -0.1128  0.1376 -0.1143
   67MOL0     C 9168   9.534   5.747   7.126  0.5679 -0.7284  0.7464
   67MOL0     C 9169   9.387   5.805   7.138 -0.0398 -0.2534  0.0553
   67MOL0     C 9170   9.350   5.899   7.024 -0.4817  0.2988 -0.1309
   67MOL0     C 9171   9.222   5.977   7.051  0.3691  0.5674 -0.0256
   67MOL0     C 9172   9.101   5.887   7.053  0.1515 -0.3552  0.2931
   67MOL0     C 9173   9.013   5.802   7.054  0.0739  0.3879  0.6828
   67MOL0     C 9174   9.675   5.595   6.822 -0.3478 -0.2577  0.2462
   67MOL0     C 9175   9.793   5.524   6.778  0.2592 -0.4963 -0.6316
   67MOL0     C 9176   9.808   5.496   6.629  0.2187  0.4894  0.3014
   67MOL0     H 9177  10.270   5.459   6.745 -2.4751  0.6665  1.9703
   67MOL0     H 9178  10.465   5.330   6.691 -0.6225 -1.9257 -1.1518
   67MOL0     H 9179  10.529   4.953   6.836  0.3369 -1.3260  2.3677
   67MOL0     H 9180  10.639   5.021   6.958 -0.3272  0.3229 -0.6843
   67MOL0     H 9181  10.778   4.880   6.812 -0.7226  1.4857  3.3290
   67MOL0     H 9182  10.709   4.959   6.670  1.7333 -2.1783 -0.6035
   67MOL0     H 9183  10.826   5.177   6.734 -0.9502 -0.5675 -1.3840
   67MOL0     H 9184  10.902   5.105   6.872 -0.6816  2.4566 -0.5978
   67MOL0     H 9185  11.016   4.943   6.738  0.1930  0.6512 -0.0279
   67MOL0     H 9186  10.946   5.005   6.588  0.5217 -2.7713  0.3719
   67MOL0     H 9187  11.113   5.178   6.775 -0.9536 -3.9090  1.0620
   67MOL0     H 9188  11.028   5.232   6.635 -1.0701  1.4781  2.4383
   67MOL0     H 9189  11.257   5.027   6.659  3.2610  1.8918  0.0773
   67MOL0     H 9190  11.187   5.068   6.499  0.1574  0.9271 -0.7226
   67MOL0     H 9191  11.258   5.303   6.556 -1.4859 -0.2860 -0.3294
   67MOL0     H 9192  11.388   5.184   6.528  2.9051  1.8921  2.7243
   67MOL0     H 9193  11.312   5.225   6.806  0.6115 -3.8584  0.3971
   67MOL0     H 9194  11.449   5.144   6.734 -0.7097  0.1181 -3.6342
   67MOL0     H 9195  11.328   5.508   6.739 -0.7204 -1.6632  1.6664
   67MOL0     H 9196  11.616   5.730   6.835  0.8218  0.8987 -0.8420
   67MOL0     H 9197  11.468   5.756   6.729 -0.0969  0.1199 -1.6888
   67MOL0     H 9198  11.728   5.667   6.609  1.7495  1.8185 -0.9570
   67MOL0     H 9199  11.594   5.735   6.528 -0.5270  1.5822  0.2860
   67MOL0     H 9200  11.661   5.966   6.639 -2.0204 -2.1436  0.2320
   67MOL0     H 9201  11.794   5.876   6.723  0.2201  0.8196  0.1480
   67MOL0     H 9202  11.739   5.892   6.424 -2.2279  4.6442  0.8474
   67MOL0     H 9203  11.854   6.002   6.513 -0.9708  0.6532 -0.6598
   67MOL0     H 9204  12.110   5.661   6.482  1.8046  0.9196  1.2893
   67MOL0     H 9205  12.315   5.574   6.229 -0.4445 -1.5605 -0.2756
   67MOL0     H 9206  12.296   5.556   6.406 -1.1033  0.7741  0.6334
   67MOL0     H 9207  12.424   5.657   6.335 -0.2142 -2.0699  1.3615
   67MOL0     H 9208  12.590   6.160   6.193  0.5002 -1.0363  0.4374
   67MOL0     H 9209  12.819   6.199   6.081 -0.4185  1.2381 -1.7810
   67MOL0     H 9210  12.836   6.155   5.700  1.5512 -0.4972 -1.7030
   67MOL0     H 9211  12.911   6.287   5.804  0.6727  0.5540 -2.4158
   67MOL0     H 9212  13.132   6.214   5.765  1.0320 -0.1515 -1.4033
   67MOL0     H 9213  13.067   6.063   5.709 -1.4822  0.0767  0.9588
   67MOL0     H 9214  13.005   6.334   5.587 -3.9176 -2.2459  1.6895
   67MOL0     H 9215  12.979   6.174   5.505 -1.9662  1.9446 -0.4553
   67MOL0     H 9216  13.190   6.138   5.444 -0.1205  0.6002 -0.7893
   67MOL0     H 9217  13.259   6.221   5.588  3.0544 -2.1171 -2.4767
   67MOL0     H 9218  13.199   6.445   5.476 -4.1188  1.2730 -1.1040
   67MOL0     H 9219  13.307   6.337   5.386 -0.6650 -1.0854  0.3897
   67MOL0     H 9220  13.007   6.410   5.340  0.4953  0.4227  0.5532
   67MOL0     H 9221  13.072   6.271   5.261 -0.0920  1.5368 -2.2295
   67MOL0     H 9222  13.235   6.402   5.130 -0.8379 -2.1439 -1.0134
   67MOL0     H 9223  13.201   6.548   5.229  2.6839 -1.4247  0.6202
   67MOL0     H 9224  12.983   6.409   5.067  0.6640 -0.8752  0.8695
   67MOL0     H 9225  13.075   6.562   5.014 -1.9912  0.0727 -0.3602
   67MOL0     H 9226  12.717   5.934   5.766 -5.7765 -0.8449 -1.0023
   67MOL0     H 9227  12.497   5.889   5.876 -2.0794 -0.3133  0.6468
   67MOL0     H 9228  12.158   6.032   6.159  0.0567 -1.1148 -0.8918
   67MOL0     H 9229  11.952   6.006   6.305  1.0563  0.4936  0.7034
   67MOL0     H 9230  10.460   5.140   7.059  2.4601  1.7199 -0.2130
   67MOL0     H 9231  10.228   5.252   7.116 -2.2977 -2.4413 -1.2841
   67MOL0     H 9232   9.928   5.478   7.090 -0.4690 -0.4180  0.2098
   67MOL0     H 9233   9.745   5.625   7.144  0.5535 -0.0396 -0.4485
   67MOL0     H 9234   9.537   5.655   7.186  1.5185 -0.9274  0.4194
   67MOL0     H 9235   9.611   5.817   7.160  0.6969 -0.1092 -0.7421
   67MOL0     H 9236   9.369   5.858   7.232 -3.2179 -2.0969  0.6263
   67MOL0     H 9237   9.312   5.726   7.147  0.0190 -0.2317  0.7639
   67MOL0     H 9238   9.429   5.973   7.010  0.2602 -0.6907 -1.2880
   67MOL0     H 9239   9.342   5.843   6.930 -0.5169 -1.2145  0.7425
   67MOL0     H 9240   9.222   6.049   6.969  1.6483 -0.4657 -0.9737
   67MOL0     H 9241   9.224   6.041   7.139  0.1313  1.5803 -0.7349
   67MOL0     H 9242   8.936   5.727   7.053  1.1134 -0.7211 -0.2765
   67MOL0     H 9243   9.604   5.630   6.748  1.2586  0.2406 -1.1015
   67MOL0     H 9244   9.759   5.402   6.605  3.5528 -1.7129  1.4534
   67MOL0     H 9245   9.771   5.581   6.570  0.2128  0.9097  0.9031
   67MOL0     H 9246   9.914   5.485   6.603  0.3579  0.1031  1.0189
   68MOL0     O 9247   2.876   4.032   4.517  0.7544 -0.4000 -0.6084
   68MOL0     C 9248   2.806   3.928   4.498  0.4561 -0.5228  0.2884
   68MOL0     O 9249   2.838   3.826   4.420  0.3769 -0.4619  0.1281
   68MOL0     C 9250   2.963   3.804   4.353  0.1323 -0.4471 -0.4184
   68MOL0     C 9251   3.073   3.893   4.353  0.1495  0.0027  0.2668
   68MOL0     C 9252   3.193   3.856   4.283 -0.6202 -0.6997 -0.3505
   68MOL0     C 9253   3.201   3.746   4.201 -0.2337 -1.5236 -0.1517
   68MOL0     O 9254   3.308   3.717   4.117  0.3805  0.3097 -0.3815
   68MOL0     C 9255   3.383   3.829   4.069 -0.2149  0.2147 -0.0308
   68MOL0     C 9256   3.452   3.775   3.942  0.7923 -0.0781  0.4687
   68MOL0     C 9257   3.539   3.878   3.870  0.0112  0.2142 -0.1689
   68MOL0     C 9258   3.596   3.813   3.735  0.1924 -0.3108  0.0501
   68MOL0     C 9259   3.685   3.911   3.649 -0.7352  0.4113  0.2135
   68MOL0     C 9260   3.745   3.832   3.533  0.4078  0.8314 -0.3549
   68MOL0     C 9261   3.845   3.909   3.439  0.9969 -0.1059 -0.2101
   68MOL0     C 9262   3.775   4.029   3.366 -0.2596 -0.7483 -0.2673
   68MOL0     N 9263   3.883   4.086   3.285  0.0413  0.7545  0.3495
   68MOL0     C 9264   3.983   4.166   3.323 -0.3105  0.2211  0.4299
   68MOL0     C 9265   4.054   4.188   3.206 -0.8332 -0.2229 -0.1526
   68MOL0     C 9266   4.170   4.290   3.191 -0.1113  0.3967 -0.2307
   68MOL0     C 9267   4.305   4.213   3.187 -0.2730 -0.5464 -0.3087
   68MOL0     C 9268   4.401   4.316   3.234  0.7105 -0.3303 -0.8452
   68MOL0     C 9269   4.544   4.258   3.218  0.1775 -0.5975  0.1543
   68MOL0     O 9270   4.629   4.335   3.301  0.6583  0.1541 -0.2981
   68MOL0     C 9271   4.703   4.433   3.245 -0.7281 -0.0220 -0.5303
   68MOL0     C 9272   4.701   4.497   3.114 -0.3076  0.0007 -0.2852
   68MOL0     C 9273   4.812   4.563   3.064 -0.0936 -0.6448  0.6250
   68MOL0     C 9274   4.786   4.636   2.936 -0.2286  0.1674 -0.1418
   68MOL0     C 9275   4.928   4.571   3.141 -0.6053 -0.5108  1.1076
   68MOL0     C 9276   5.053   4.643   3.095 -0.3159  0.6327  0.1037
   68MOL0     O 9277   5.152   4.646   3.187 -1.3272  0.1731 -0.5483
   68MOL0     C 9278   5.267   4.712   3.161  0.9300 -0.1365  0.3561
   68MOL0     C 9279   5.263   4.841   3.095  0.2163  0.1594  0.0373
   68MOL0     C 9280   5.390   4.898   3.060  0.1710 -0.5945  0.1960
   68MOL0     C 9281   5.506   4.842   3.096  0.4739  0.2755 -0.4841
   68MOL0     O 9282   5.614   4.923   3.069  0.7775  0.0211  0.6852
   68MOL0     C 9283   5.746   4.895   3.129  0.7752 -0.0649  0.1287
   68MOL0     C 9284   5.846   4.843   3.016 -0.3770  0.3318 -0.5153
   68MOL0     C 9285   5.987   4.845   3.071 -0.3879  0.7393 -0.1578
   68MOL0     C 9286   6.072   4.809   2.954  0.2305 -0.6797  0.0143
   68MOL0     C 9287   6.215   4.786   3.005 -0.0749  0.2822  0.1010
   68MOL0     C 9288   6.313   4.767   2.886  0.1342 -0.1422  0.4060
   68MOL0     C 9289   6.457   4.746   2.931 -0.4252 -0.2290  0.3739
   68MOL0     C 9290   6.526   4.866   3.001 -0.8444  0.0773  0.2955
   68MOL0    Cl 9291   6.598   4.985   2.871  0.6630  0.0719 -0.0026
   68MOL0     C 9292   5.508   4.720   3.160 -0.3265 -0.7159 -0.2132
   68MOL0     C 9293   5.392   4.649   3.191 -0.0451 -0.5495 -0.4412
   68MOL0     O 9294   5.069   4.669   2.971 -0.0605 -0.2961 -0.4590
   68MOL0     C 9295   4.929   4.530   3.275 -0.0998  0.0498 -0.4973
   68MOL0     C 9296   4.824   4.453   3.322  0.1186  0.5314  0.7669
   68MOL0     N 9297   3.994   4.114   3.103  1.0408  0.0782  0.2189
   68MOL0     N 9298   3.901   4.042   3.155  0.0073 -0.3727  0.1146
   68MOL0     C 9299   3.093   3.657   4.210  0.4467  0.4591 -0.3288
   68MOL0     C 9300   2.978   3.681   4.282  0.6946 -0.4004 -0.6346
   68MOL0     C 9301   2.680   3.920   4.586  0.3499  0.1116  0.3722
   68MOL0     C 9302   2.647   4.029   4.667 -0.3043 -0.2861 -0.6506
   68MOL0     C 9303   2.551   4.013   4.773 -0.0990 -0.5808  0.4329
   68MOL0     C 9304   2.474   3.904   4.785 -0.2552 -0.0037  0.0101
   68MOL0     O 9305   2.368   3.902   4.873 -0.1822  0.0515  0.0924
   68MOL0     C 9306   2.251   3.816   4.843 -0.2055 -0.1886  0.7809
   68MOL0     C 9307   2.138   3.839   4.946 -0.2349  0.6547  0.2254
   68MOL0     C 9308   2.181   3.856   5.097  0.7687  0.2542  0.0028
   68MOL0     C 9309   2.068   3.894   5.179  0.1406 -0.2859 -0.3909
   68MOL0     C 9310   1.962   3.787   5.199 -0.3319  0.7464 -0.2672
   68MOL0     C 9311   1.893   3.683   5.219 -0.2467 -0.5257  0.8933
   68MOL0     C 9312   2.502   3.794   4.703 -0.3689 -0.2465 -0.0834
   68MOL0     C 9313   2.599   3.797   4.599  0.7572  0.0178  1.3027
   68MOL0     C 9314   2.619   3.676   4.501 -0.0955 -0.3906 -0.4985
   68MOL0     H 9315   3.067   3.992   4.396  1.8313 -0.2136  1.1297
   68MOL0     H 9316   3.277   3.924   4.296 -0.6623 -0.8982  1.0998
   68MOL0     H 9317   3.460   3.850   4.144 -0.7606  2.1202  0.0415
   68MOL0     H 9318   3.329   3.923   4.059  1.3624  1.5664  2.9500
   68MOL0     H 9319   3.500   3.678   3.958  2.0307  0.7152  1.7512
   68MOL0     H 9320   3.367   3.753   3.876 -0.6514  1.8127  1.5914
   68MOL0     H 9321   3.482   3.968   3.849  0.3870  0.9675  1.8005
   68MOL0     H 9322   3.628   3.907   3.927  1.8988 -2.2919 -1.6218
   68MOL0     H 9323   3.654   3.724   3.758  1.2209  0.4253  0.3673
   68MOL0     H 9324   3.510   3.782   3.675 -0.2087 -3.9126  2.2245
   68MOL0     H 9325   3.773   3.952   3.700  0.5607  2.6165 -3.4462
   68MOL0     H 9326   3.629   3.997   3.611  1.0890  0.4506 -2.6647
   68MOL0     H 9327   3.804   3.758   3.588 -0.2125 -0.2338 -1.1013
   68MOL0     H 9328   3.663   3.791   3.474  1.1321  2.2137 -2.4512
   68MOL0     H 9329   3.874   3.836   3.363  2.5730  1.9699 -1.7195
   68MOL0     H 9330   3.935   3.931   3.498  2.2027 -1.1225 -1.5887
   68MOL0     H 9331   3.692   3.988   3.307 -0.7029  0.4762 -0.5133
   68MOL0     H 9332   3.745   4.095   3.447  0.4504 -1.7506  0.8496
   68MOL0     H 9333   4.019   4.189   3.423  1.6491 -0.0011 -0.1688
   68MOL0     H 9334   4.161   4.361   3.274  0.1349  0.6535 -0.4236
   68MOL0     H 9335   4.162   4.347   3.099 -1.4755  0.4076 -0.1203
   68MOL0     H 9336   4.302   4.131   3.259 -0.7271  0.0375  0.3479
   68MOL0     H 9337   4.325   4.177   3.086 -3.3706 -1.3530 -0.7441
   68MOL0     H 9338   4.388   4.409   3.176  2.7462  0.5715  0.0394
   68MOL0     H 9339   4.390   4.340   3.340 -0.5757 -0.1123 -1.0057
   68MOL0     H 9340   4.551   4.160   3.267 -0.0327 -0.1366  1.1239
   68MOL0     H 9341   4.576   4.248   3.113 -1.4886  1.8646 -0.6658
   68MOL0     H 9342   4.615   4.485   3.048 -0.0952  3.1550 -1.3176
   68MOL0     H 9343   4.852   4.600   2.857 -0.2113 -1.6933  0.6464
   68MOL0     H 9344   4.805   4.742   2.952  1.0202  0.2250 -1.7179
   68MOL0     H 9345   4.681   4.635   2.907 -0.1410  5.5142 -1.5344
   68MOL0     H 9346   5.163   4.873   3.068 -1.7144 -1.6922  4.1548
   68MOL0     H 9347   5.373   4.993   3.010 -1.4040 -0.7898  0.3178
   68MOL0     H 9348   5.781   4.991   3.169  0.5665 -0.0174  0.1984
   68MOL0     H 9349   5.740   4.827   3.215  1.6697  0.6470  0.7822
   68MOL0     H 9350   5.811   4.741   2.994  0.9994  0.4343 -3.6025
   68MOL0     H 9351   5.838   4.910   2.930  2.4404 -1.1310 -2.0515
   68MOL0     H 9352   6.004   4.764   3.143  2.3594  0.3162 -1.1728
   68MOL0     H 9353   6.022   4.938   3.117 -2.8181  1.6874 -0.0609
   68MOL0     H 9354   6.077   4.899   2.891 -1.0705  1.6362  2.9863
   68MOL0     H 9355   6.034   4.730   2.888 -1.7789 -0.1921  0.5275
   68MOL0     H 9356   6.230   4.876   3.065 -1.8101  0.2987  0.5741
   68MOL0     H 9357   6.227   4.695   3.065 -1.4299 -0.5729 -0.8497
   68MOL0     H 9358   6.322   4.847   2.812  1.1860 -0.9670 -0.3960
   68MOL0     H 9359   6.264   4.680   2.841 -0.6463 -1.4012  3.4712
   68MOL0     H 9360   6.514   4.704   2.847 -0.6477 -0.2145  0.2158
   68MOL0     H 9361   6.439   4.669   3.006 -0.6005 -0.5269  0.0297
   68MOL0     H 9362   6.614   4.825   3.052  0.3933  2.7882  0.5037
   68MOL0     H 9363   6.466   4.928   3.068 -1.0175  0.0055  0.2056
   68MOL0     H 9364   5.602   4.677   3.194 -0.1522 -1.9595 -2.1375
   68MOL0     H 9365   5.380   4.550   3.233  0.6212 -1.1455 -1.5929
   68MOL0     H 9366   5.013   4.540   3.344 -0.3766  2.2112 -0.4143
   68MOL0     H 9367   4.827   4.410   3.422  1.7007  0.9623  0.9353
   68MOL0     H 9368   3.102   3.556   4.171 -1.7736  0.6084 -1.4171
   68MOL0     H 9369   2.892   3.617   4.297  1.6502 -1.8462 -1.1792
   68MOL0     H 9370   2.703   4.120   4.649 -1.2525  0.7142  1.1544
   68MOL0     H 9371   2.541   4.097   4.840 -0.2719 -1.7485  1.9211
   68MOL0     H 9372   2.219   3.830   4.740 -3.1027 -2.6131  1.2113
   68MOL0     H 9373   2.273   3.710   4.855 -3.0916 -1.0790 -0.9058
   68MOL0     H 9374   2.060   3.768   4.916 -0.0627  1.7245 -3.2977
   68MOL0     H 9375   2.105   3.933   4.900  1.5957 -0.2998 -3.4522
   68MOL0     H 9376   2.229   3.764   5.132  2.3888  2.2424  3.4115
   68MOL0     H 9377   2.256   3.934   5.107  1.5889 -0.6941  1.7260
   68MOL0     H 9378   2.013   3.974   5.127 -0.4049 -0.6891 -0.4485
   68MOL0     H 9379   2.106   3.928   5.276  0.5379 -2.1448  0.1287
   68MOL0     H 9380   1.830   3.601   5.249  0.0761  0.1828  3.8713
   68MOL0     H 9381   2.436   3.710   4.718 -1.0083  0.1694 -0.4958
   68MOL0     H 9382   2.534   3.607   4.502  0.2879 -0.8900 -1.2555
   68MOL0     H 9383   2.609   3.718   4.400 -0.2242  3.3701  0.9252
   68MOL0     H 9384   2.715   3.625   4.513 -0.8122 -1.6532  0.1585
   69MOL0     O 9385   9.876   2.229   6.466  0.6107  0.3445 -0.3640
   69MOL0     C 9386   9.791   2.198   6.547  0.7530 -0.4593  0.1055
   69MOL0     O 9387   9.812   2.110   6.654 -0.8899  0.3157  0.5672
   69MOL0     C 9388   9.930   2.039   6.651 -0.9636 -0.7243 -0.2662
   69MOL0     C 9389   9.971   1.964   6.539  0.3954 -0.4465 -0.2227
   69MOL0     C 9390  10.095   1.897   6.541 -0.2510 -0.6901  0.6291
   69MOL0     C 9391  10.190   1.900   6.644  0.6807  0.0282  0.3491
   69MOL0     O 9392  10.304   1.825   6.648 -0.5122  0.2153 -0.1254
   69MOL0     C 9393  10.351   1.756   6.530  0.9054  0.2450 -0.1569
   69MOL0     C 9394  10.440   1.865   6.461 -0.6644  0.9256 -0.2373
   69MOL0     C 9395  10.565   1.871   6.554 -0.3119 -1.1571  0.7590
   69MOL0     C 9396  10.673   1.963   6.514  0.3200 -0.2601  0.3816
   69MOL0     C 9397  10.782   1.973   6.621  0.1268  0.1108  0.3419
   69MOL0     C 9398  10.886   2.084   6.578  0.3699 -0.5156  0.5423
   69MOL0     C 9399  11.011   2.074   6.659  0.8988  0.6915 -0.2954
   69MOL0     C 9400  11.128   2.152   6.591  0.4242 -0.6183  0.9821
   69MOL0     N 9401  11.181   2.081   6.479  0.1107  0.0983 -0.5354
   69MOL0     C 9402  11.304   2.007   6.490  0.5655  0.1942  0.1939
   69MOL0     C 9403  11.337   1.989   6.360  0.2008  0.7593 -0.1071
   69MOL0     C 9404  11.447   1.901   6.315 -0.0769  0.1200  0.1204
   69MOL0     C 9405  11.402   1.754   6.289 -0.6067 -0.3271  0.1040
   69MOL0     C 9406  11.309   1.749   6.162 -0.2774 -0.3353  0.6091
   69MOL0     C 9407  11.378   1.755   6.027  0.4277  0.0384  0.3134
   69MOL0     O 9408  11.498   1.669   6.005  0.7034  0.2216 -0.9390
   69MOL0     C 9409  11.544   1.659   5.875 -0.1514  0.8812  0.2396
   69MOL0     C 9410  11.591   1.534   5.843 -0.4659 -1.1211  0.3403
   69MOL0     C 9411  11.644   1.516   5.714  0.6674 -0.1300 -0.0125
   69MOL0     C 9412  11.710   1.384   5.680 -0.2791 -0.3283  0.3727
   69MOL0     C 9413  11.633   1.618   5.615  0.0642 -0.7692 -0.1562
   69MOL0     C 9414  11.681   1.609   5.467  0.0209  0.0201 -1.2925
   69MOL0     O 9415  11.721   1.720   5.410 -0.2361  0.0399  0.3740
   69MOL0     C 9416  11.744   1.715   5.274  0.1138  0.5682  0.9949
   69MOL0     C 9417  11.864   1.757   5.209 -0.5246  0.6095  0.0154
   69MOL0     C 9418  11.881   1.755   5.074 -0.3223  0.1689  0.2064
   69MOL0     C 9419  11.775   1.699   4.993 -0.0606 -0.0777 -0.0299
   69MOL0     O 9420  11.777   1.710   4.860 -0.0721 -0.1695  0.0028
   69MOL0     C 9421  11.895   1.690   4.791  0.0487 -0.3253  0.5448
   69MOL0     C 9422  11.863   1.666   4.641 -0.1022  0.4217 -0.2652
   69MOL0     C 9423  11.976   1.649   4.530 -0.3744  0.0698  0.7428
   69MOL0     C 9424  12.092   1.555   4.563  0.1411 -0.1586 -0.1027
   69MOL0     C 9425  12.181   1.544   4.440 -0.4127  0.4272  0.6089
   69MOL0     C 9426  12.297   1.458   4.469  0.0622 -0.1729  0.8530
   69MOL0     C 9427  12.391   1.435   4.352  0.6855  0.7460 -0.2302
   69MOL0     C 9428  12.473   1.556   4.308 -0.0719 -0.0392  0.7476
   69MOL0    Cl 9429  12.553   1.493   4.164  0.1609 -0.7194 -0.0215
   69MOL0     C 9430  11.654   1.656   5.054  0.2426  0.1807  0.0226
   69MOL0     C 9431  11.644   1.661   5.192 -0.9455 -0.5200  0.3985
   69MOL0     O 9432  11.692   1.491   5.423 -0.6115  0.6971  0.1292
   69MOL0     C 9433  11.575   1.744   5.651 -1.1151 -0.4202 -0.0365
   69MOL0     C 9434  11.535   1.764   5.777  0.5641  0.0155  0.4523
   69MOL0     N 9435  11.243   2.059   6.280 -0.8780  0.5695  0.1729
   69MOL0     N 9436  11.153   2.108   6.346 -0.7656 -0.0416 -0.3228
   69MOL0     C 9437  10.153   1.981   6.754 -0.1292 -0.7021  0.3733
   69MOL0     C 9438  10.029   2.047   6.759  0.7564  0.4334 -0.0443
   69MOL0     C 9439   9.664   2.267   6.539 -0.1691 -0.2679  0.7751
   69MOL0     C 9440   9.562   2.205   6.600  0.1273  0.1425 -0.0357
   69MOL0     C 9441   9.445   2.273   6.624  1.1217 -0.3419 -0.1582
   69MOL0     C 9442   9.420   2.403   6.578  0.2375  0.2046  0.4248
   69MOL0     O 9443   9.303   2.478   6.586  0.2654  0.3732  0.6967
   69MOL0     C 9444   9.188   2.423   6.644 -0.2517 -0.0078 -0.5575
   69MOL0     C 9445   9.101   2.342   6.547 -0.4271 -0.0018 -0.4370
   69MOL0     C 9446   8.999   2.261   6.627 -0.2379  0.3008  0.4483
   69MOL0     C 9447   8.937   2.155   6.538 -0.1202  0.6846  0.5259
   69MOL0     C 9448   8.849   2.212   6.435  0.0396  0.0235 -0.2312
   69MOL0     C 9449   8.791   2.271   6.350 -0.4878  0.3097 -0.2524
   69MOL0     C 9450   9.524   2.464   6.514 -0.1863 -0.6890 -0.7415
   69MOL0     C 9451   9.649   2.404   6.492 -0.1636 -0.8725  0.3063
   69MOL0     C 9452   9.747   2.488   6.416  0.2031  0.0633  0.3561
   69MOL0     H 9453   9.912   1.973   6.448  0.1766 -0.3524 -0.0741
   69MOL0     H 9454  10.106   1.837   6.451 -1.8359 -2.0572  1.2973
   69MOL0     H 9455  10.269   1.709   6.474  0.3653 -0.4291  1.1495
   69MOL0     H 9456  10.417   1.675   6.559 -1.1206 -1.8651 -1.1082
   69MOL0     H 9457  10.465   1.845   6.356  2.1111  0.7434  0.3723
   69MOL0     H 9458  10.388   1.961   6.461 -1.0908  0.7664  2.3622
   69MOL0     H 9459  10.534   1.908   6.652  0.3514  2.7457 -0.3438
   69MOL0     H 9460  10.614   1.773   6.550  2.3796  0.0171  1.9983
   69MOL0     H 9461  10.710   1.931   6.415 -0.9869  1.6643 -0.7914
   69MOL0     H 9462  10.628   2.062   6.508 -0.9968 -0.7125  2.2018
   69MOL0     H 9463  10.833   1.876   6.629  0.8819  0.6368  2.6555
   69MOL0     H 9464  10.739   1.999   6.718  1.5948  1.9475  0.5502
   69MOL0     H 9465  10.903   2.064   6.471 -0.0296  0.1584  0.3444
   69MOL0     H 9466  10.851   2.186   6.596  3.6586  0.6835  0.8521
   69MOL0     H 9467  11.037   1.969   6.677  1.0683  0.6898 -0.5378
   69MOL0     H 9468  10.987   2.123   6.753 -3.3835  2.3220 -1.9913
   69MOL0     H 9469  11.099   2.243   6.537 -0.1035 -0.6610  1.1958
   69MOL0     H 9470  11.209   2.164   6.664 -0.8766  0.8383  2.2383
   69MOL0     H 9471  11.347   1.975   6.585 -1.4185  0.3783  1.2128
   69MOL0     H 9472  11.523   1.894   6.394 -0.5377  2.2957  0.8179
   69MOL0     H 9473  11.498   1.946   6.229 -0.5837 -0.4091 -0.4718
   69MOL0     H 9474  11.491   1.694   6.267  0.8878  1.8049  0.0057
   69MOL0     H 9475  11.363   1.717   6.385 -0.6500  1.0967  0.6659
   69MOL0     H 9476  11.245   1.661   6.174 -0.7582  0.2999  3.3676
   69MOL0     H 9477  11.234   1.828   6.168 -0.2113 -0.3677  2.0689
   69MOL0     H 9478  11.299   1.733   5.953 -2.1317 -0.2791  2.9600
   69MOL0     H 9479  11.398   1.859   6.001  0.2365 -0.3862 -1.7096
   69MOL0     H 9480  11.603   1.459   5.921 -2.1368 -1.8026 -0.0241
   69MOL0     H 9481  11.802   1.398   5.624 -0.7622  2.7797  0.1611
   69MOL0     H 9482  11.638   1.318   5.630  0.9396 -0.3232 -1.4840
   69MOL0     H 9483  11.730   1.326   5.771 -0.1687 -2.5200 -0.9689
   69MOL0     H 9484  11.936   1.796   5.280 -0.3768 -0.6630  0.5877
   69MOL0     H 9485  11.970   1.800   5.032 -0.3001  0.9422  1.0505
   69MOL0     H 9486  11.961   1.777   4.798 -1.0738  0.5104  1.0110
   69MOL0     H 9487  11.937   1.597   4.830 -2.3854 -1.1225  1.4226
   69MOL0     H 9488  11.803   1.575   4.634  1.0797 -0.2703 -2.6954
   69MOL0     H 9489  11.793   1.742   4.606 -0.7409  1.1039  2.2796
   69MOL0     H 9490  12.016   1.747   4.504  0.2759 -0.1041  1.0746
   69MOL0     H 9491  11.927   1.615   4.438  1.3127  0.5848 -0.3855
   69MOL0     H 9492  12.057   1.454   4.589  1.5347 -0.0609  2.5645
   69MOL0     H 9493  12.146   1.580   4.655 -0.5580 -3.2639  1.3041
   69MOL0     H 9494  12.116   1.505   4.361  0.4357  2.2939 -1.0958
   69MOL0     H 9495  12.218   1.640   4.403 -0.1523  0.4544  0.9317
   69MOL0     H 9496  12.248   1.367   4.505 -0.4160  0.6002  2.2136
   69MOL0     H 9497  12.354   1.516   4.542  0.5168  2.3192 -1.3458
   69MOL0     H 9498  12.337   1.384   4.272  0.9849 -0.2636  0.1888
   69MOL0     H 9499  12.464   1.359   4.380 -0.6229 -0.6560 -0.4857
   69MOL0     H 9500  12.546   1.592   4.381  2.0632  1.2930 -1.8524
   69MOL0     H 9501  12.407   1.639   4.283  2.4577  2.1689  1.0100
   69MOL0     H 9502  11.574   1.610   4.996 -0.1479  2.4631 -1.3397
   69MOL0     H 9503  11.550   1.626   5.233 -0.5038 -2.4988 -0.1464
   69MOL0     H 9504  11.578   1.823   5.577 -1.4707  1.2525  1.6592
   69MOL0     H 9505  11.483   1.857   5.797 -2.1005 -0.1638 -4.2282
   69MOL0     H 9506  10.216   1.982   6.843  0.0790  0.3284  0.2248
   69MOL0     H 9507   9.991   2.107   6.841 -0.7289  0.9916 -1.0975
   69MOL0     H 9508   9.569   2.101   6.631 -4.0205 -0.6001 -0.9702
   69MOL0     H 9509   9.355   2.227   6.663 -0.1311  1.5774 -0.6321
   69MOL0     H 9510   9.220   2.356   6.725 -0.2139 -0.6068 -1.0628
   69MOL0     H 9511   9.134   2.506   6.692  2.5337  1.2461  0.7099
   69MOL0     H 9512   9.164   2.272   6.492 -0.1079 -0.9710  1.0935
   69MOL0     H 9513   9.048   2.410   6.481  0.8593 -1.3539 -3.0306
   69MOL0     H 9514   9.046   2.211   6.713 -1.6047 -1.4635  0.2135
   69MOL0     H 9515   8.926   2.334   6.664 -0.0584  0.3770  0.6563
   69MOL0     H 9516   8.877   2.080   6.590  1.6855 -1.2262 -0.0311
   69MOL0     H 9517   9.019   2.102   6.489 -0.3709  1.4248 -0.7353
   69MOL0     H 9518   8.751   2.336   6.274  0.0618  0.7060 -0.2105
   69MOL0     H 9519   9.501   2.556   6.461  0.6320 -0.2744 -0.3876
   69MOL0     H 9520   9.707   2.586   6.388  0.5421  0.0711 -0.1146
   69MOL0     H 9521   9.844   2.480   6.466 -0.6904 -2.8263  1.8155
   69MOL0     H 9522   9.768   2.435   6.323 -1.6146 -1.2056  0.6296
   70MOL0     O 9523   2.142   8.610   1.252 -0.1519  0.2717 -0.1120
   70MOL0     C 9524   2.147   8.544   1.347 -0.0769  0.0162  0.0767
   70MOL0     O 9525   2.262   8.512   1.413  0.0726  0.4684 -0.3283
   70MOL0     C 9526   2.387   8.539   1.362  0.5677  0.5928  0.1646
   70MOL0     C 9527   2.456   8.427   1.306  0.8518  0.0184  0.4530
   70MOL0     C 9528   2.581   8.448   1.246  0.0325 -0.2405  0.0970
   70MOL0     C 9529   2.630   8.573   1.237 -0.7094 -0.7984  0.5096
   70MOL0     O 9530   2.751   8.597   1.179 -0.2451 -0.4719 -0.5718
   70MOL0     C 9531   2.855   8.559   1.265  1.1955 -0.0614 -0.4360
   70MOL0     C 9532   2.997   8.581   1.213 -0.2714  0.7343 -0.2578
   70MOL0     C 9533   3.041   8.721   1.182  0.5131 -0.2736  0.6410
   70MOL0     C 9534   3.162   8.726   1.082  1.0294 -0.5547 -0.1886
   70MOL0     C 9535   3.256   8.849   1.113 -0.6828 -0.3866 -0.3466
   70MOL0     C 9536   3.346   8.834   1.235  0.0787 -0.3241  0.5416
   70MOL0     C 9537   3.476   8.913   1.212  0.1933  0.4937  0.7897
   70MOL0     C 9538   3.453   9.060   1.165  0.4701  0.1719  0.5715
   70MOL0     N 9539   3.376   9.147   1.256  0.6836 -0.0793  0.0658
   70MOL0     C 9540   3.442   9.230   1.342  0.9830  0.1046 -0.3612
   70MOL0     C 9541   3.341   9.317   1.392  0.2140  0.3363 -0.1450
   70MOL0     C 9542   3.362   9.432   1.490  0.7669 -0.5432  0.4033
   70MOL0     C 9543   3.490   9.501   1.465 -0.0333  0.1228 -0.1436
   70MOL0     C 9544   3.516   9.622   1.554 -0.0194  0.1464  0.0103
   70MOL0     C 9545   3.565   9.595   1.696  0.6332  0.1432 -0.8754
   70MOL0     O 9546   3.683   9.508   1.687 -0.1951 -0.0493 -0.7105
   70MOL0     C 9547   3.786   9.515   1.768 -0.5144 -0.8917  0.2864
   70MOL0     C 9548   3.784   9.587   1.890  0.7229 -0.3616  0.5722
   70MOL0     C 9549   3.890   9.580   1.985 -0.4781 -0.2491 -0.2107
   70MOL0     C 9550   3.874   9.668   2.110 -0.7317  0.8023 -0.0130
   70MOL0     C 9551   4.008   9.508   1.948 -0.4003  0.1311 -0.1505
   70MOL0     C 9552   4.127   9.487   2.042  0.1379 -0.3507 -0.6255
   70MOL0     O 9553   4.227   9.402   1.999 -0.1770  0.1006 -0.5561
   70MOL0     C 9554   4.357   9.410   2.061 -0.1005  0.5072  0.1817
   70MOL0     C 9555   4.384   9.393   2.196 -0.8814 -0.6615 -0.6434
   70MOL0     C 9556   4.514   9.387   2.239  0.0702  0.3734 -0.1887
   70MOL0     C 9557   4.620   9.388   2.148 -0.0797  0.6085  0.1915
   70MOL0     O 9558   4.748   9.357   2.176 -0.4625 -0.4372 -0.0343
   70MOL0     C 9559   4.802   9.453   2.262 -0.3925  0.6285 -0.3009
   70MOL0     C 9560   4.943   9.430   2.298  0.3212 -0.1771 -0.4587
   70MOL0     C 9561   5.040   9.373   2.191  0.4350  0.0864  0.7419
   70MOL0     C 9562   5.186   9.403   2.216  0.2541  0.0966 -0.9068
   70MOL0     C 9563   5.290   9.338   2.132  0.2245  0.1916 -0.6159
   70MOL0     C 9564   5.299   9.397   1.989  0.3678 -0.3003 -0.5394
   70MOL0     C 9565   5.384   9.307   1.896  0.7205  0.0552 -0.4481
   70MOL0     C 9566   5.418   9.371   1.768  0.3285  1.1391  0.6053
   70MOL0    Cl 9567   5.505   9.245   1.677  0.2384  0.0926  0.2534
   70MOL0     C 9568   4.589   9.423   2.019 -0.0114  0.8253  1.2150
   70MOL0     C 9569   4.458   9.419   1.970  0.7232  0.1096 -0.1448
   70MOL0     O 9570   4.139   9.565   2.139  0.1925  0.3984  0.1226
   70MOL0     C 9571   4.010   9.435   1.832  0.4140  0.2342  0.3386
   70MOL0     C 9572   3.905   9.439   1.738 -0.1732 -0.7951 -0.3262
   70MOL0     N 9573   3.216   9.271   1.340 -0.1733  0.0073  0.1394
   70MOL0     N 9574   3.243   9.183   1.255 -0.6418  1.2305  0.3292
   70MOL0     C 9575   2.564   8.687   1.300 -0.5183  1.1941  0.4669
   70MOL0     C 9576   2.439   8.669   1.358  0.1879  0.4608 -0.6937
   70MOL0     C 9577   2.021   8.473   1.394  0.0080 -0.0468 -0.0355
   70MOL0     C 9578   2.033   8.393   1.509 -0.2176  1.1997  0.1376
   70MOL0     C 9579   1.912   8.334   1.565  0.1728 -0.9207 -0.1436
   70MOL0     C 9580   1.789   8.342   1.495  0.2771  0.1130 -0.0178
   70MOL0     O 9581   1.686   8.282   1.563  0.4086 -0.4320  0.0157
   70MOL0     C 9582   1.578   8.229   1.486 -0.4233  0.0089  0.0745
   70MOL0     C 9583   1.504   8.142   1.587  0.2187  0.5914 -0.7403
   70MOL0     C 9584   1.438   8.221   1.697 -0.1923  0.1435  0.3466
   70MOL0     C 9585   1.291   8.215   1.684  0.5276 -0.4573  0.5300
   70MOL0     C 9586   1.237   8.084   1.723  0.3103 -0.8183 -0.0993
   70MOL0     C 9587   1.199   7.973   1.751  0.1393  0.0271 -0.3852
   70MOL0     C 9588   1.787   8.423   1.382  0.4122  0.0811  0.8415
   70MOL0     C 9589   1.896   8.491   1.328  0.3519 -0.7587 -0.5444
   70MOL0     C 9590   1.860   8.578   1.201 -0.6392 -0.5860 -0.7851
   70MOL0     H 9591   2.409   8.329   1.309  3.3535 -1.3673 -1.3052
   70MOL0     H 9592   2.622   8.365   1.190  0.7549  0.0229  0.2247
   70MOL0     H 9593   2.843   8.453   1.291  1.6195 -0.5307 -2.0734
   70MOL0     H 9594   2.840   8.608   1.362  2.3737 -1.9892  0.7978
   70MOL0     H 9595   3.055   8.541   1.296 -2.4260 -0.3932  0.7831
   70MOL0     H 9596   3.010   8.519   1.124  1.5766 -1.1141  1.1940
   70MOL0     H 9597   2.955   8.769   1.134  1.0309 -1.9678 -2.2508
   70MOL0     H 9598   3.065   8.773   1.275  2.4514 -1.7957  1.0649
   70MOL0     H 9599   3.220   8.633   1.089  3.4746  0.9980  1.7959
   70MOL0     H 9600   3.125   8.747   0.982  1.2831 -0.3093 -0.2326
   70MOL0     H 9601   3.201   8.940   1.138 -1.3505 -0.8300 -0.1576
   70MOL0     H 9602   3.324   8.859   1.028  0.4245 -2.0070  0.3038
   70MOL0     H 9603   3.301   8.872   1.327  2.1026  3.5046  0.1561
   70MOL0     H 9604   3.374   8.729   1.251  0.4775 -0.3731 -0.4083
   70MOL0     H 9605   3.525   8.870   1.124 -0.8968 -1.6898  1.1791
   70MOL0     H 9606   3.549   8.896   1.292  0.6757 -0.8381  0.1028
   70MOL0     H 9607   3.553   9.103   1.155  0.8154 -0.1946  2.0833
   70MOL0     H 9608   3.416   9.060   1.062  0.9019  0.1161  0.4118
   70MOL0     H 9609   3.543   9.231   1.381  0.2099 -0.0525  1.8436
   70MOL0     H 9610   3.353   9.388   1.590 -1.8811 -2.0127 -0.3589
   70MOL0     H 9611   3.272   9.493   1.472  1.8473  1.0162  0.0727
   70MOL0     H 9612   3.568   9.428   1.488 -2.5655 -2.6927  0.2109
   70MOL0     H 9613   3.507   9.524   1.359  0.1123 -1.4334 -0.4844
   70MOL0     H 9614   3.594   9.663   1.489  1.9546 -1.6288  1.1400
   70MOL0     H 9615   3.427   9.685   1.565 -1.2045 -1.8358  3.6421
   70MOL0     H 9616   3.581   9.691   1.746  1.5328 -1.7650  2.8402
   70MOL0     H 9617   3.496   9.535   1.757  2.4097 -0.5808  0.4881
   70MOL0     H 9618   3.700   9.650   1.915 -0.6871 -0.8120 -2.5461
   70MOL0     H 9619   3.892   9.604   2.197  2.1725  0.2396 -0.9227
   70MOL0     H 9620   3.770   9.703   2.117 -0.9844  0.1732 -0.5157
   70MOL0     H 9621   3.937   9.756   2.106 -0.0015  0.3841  1.5497
   70MOL0     H 9622   4.302   9.377   2.265  0.6125 -0.2979  1.3254
   70MOL0     H 9623   4.533   9.374   2.345  3.8064 -1.9638 -0.9322
   70MOL0     H 9624   4.806   9.552   2.218  3.0320  0.3886 -0.7549
   70MOL0     H 9625   4.745   9.452   2.356 -3.9687 -2.6026 -2.2083
   70MOL0     H 9626   4.972   9.533   2.320 -0.2145 -0.5264  2.2810
   70MOL0     H 9627   4.954   9.356   2.378 -2.0269  0.6768  0.7829
   70MOL0     H 9628   5.015   9.411   2.091 -1.2130  0.2146  1.1769
   70MOL0     H 9629   5.022   9.265   2.185  0.4995  0.1446 -1.3618
   70MOL0     H 9630   5.204   9.359   2.314  4.3089 -0.8191 -1.8937
   70MOL0     H 9631   5.212   9.508   2.232  1.7468 -0.4986  0.8509
   70MOL0     H 9632   5.385   9.358   2.182  1.3561 -2.7876 -1.3285
   70MOL0     H 9633   5.261   9.233   2.123 -1.6369  0.5711  0.3794
   70MOL0     H 9634   5.333   9.500   1.996  3.4604 -1.3032  0.4895
   70MOL0     H 9635   5.196   9.397   1.952 -0.6003 -1.1438  1.9400
   70MOL0     H 9636   5.338   9.208   1.882  0.0014  0.3764 -0.3949
   70MOL0     H 9637   5.478   9.288   1.949 -0.4977 -1.2758  1.4056
   70MOL0     H 9638   5.475   9.463   1.782  0.2747  1.3785 -0.5883
   70MOL0     H 9639   5.332   9.390   1.703  0.6438 -2.2074 -1.0389
   70MOL0     H 9640   4.672   9.430   1.950 -0.4475  2.9550  0.8468
   70MOL0     H 9641   4.439   9.428   1.864 -2.0516 -0.0734  0.2860
   70MOL0     H 9642   4.099   9.375   1.825  2.4982  2.8975  2.0929
   70MOL0     H 9643   3.912   9.392   1.641  2.6620 -1.1170 -0.0352
   70MOL0     H 9644   2.595   8.791   1.290  1.6745  0.3530 -4.7622
   70MOL0     H 9645   2.391   8.752   1.409 -0.5091 -1.2007  1.5195
   70MOL0     H 9646   2.131   8.400   1.556 -1.0132  2.1574  1.7305
   70MOL0     H 9647   1.924   8.283   1.661 -1.3314  2.3201  1.9225
   70MOL0     H 9648   1.510   8.306   1.450  1.4556  0.6812 -2.3200
   70MOL0     H 9649   1.612   8.177   1.396 -0.7920  1.3910 -0.8817
   70MOL0     H 9650   1.574   8.077   1.641  0.9872  1.0738 -1.1286
   70MOL0     H 9651   1.442   8.066   1.538  0.7408 -0.0885 -0.3710
   70MOL0     H 9652   1.467   8.189   1.798 -1.0225 -0.3414  0.4394
   70MOL0     H 9653   1.464   8.325   1.678  3.0633 -0.7703 -1.1432
   70MOL0     H 9654   1.251   8.239   1.585  2.5847  1.0586 -0.0045
   70MOL0     H 9655   1.254   8.291   1.754 -0.9760  0.5802 -1.2857
   70MOL0     H 9656   1.182   7.871   1.778  0.8668  0.1179  0.4472
   70MOL0     H 9657   1.691   8.439   1.333  1.1859  0.6710 -0.5405
   70MOL0     H 9658   1.913   8.542   1.112  2.4555  1.2112  0.1679
   70MOL0     H 9659   1.753   8.585   1.179 -1.1169 -1.4749  1.0659
   70MOL0     H 9660   1.899   8.679   1.218 -3.0784  1.6587 -6.1068
   71MOL0     O 9661  10.861   1.750  10.977 -0.6451 -0.6295  0.6555
   71MOL0     C 9662  10.860   1.868  11.017 -0.6434 -0.6530 -0.6340
   71MOL0     O 9663  10.923   1.973  10.954 -0.3866 -0.2143 -0.2516
   71MOL0     C 9664  11.006   1.960  10.851 -0.7289  0.6967 -0.2153
   71MOL0     C 9665  10.995   1.871  10.741 -0.0238  0.5843  0.2362
   71MOL0     C 9666  11.106   1.854  10.658  0.0421  0.4428  0.7130
   71MOL0     C 9667  11.226   1.926  10.675 -0.0549  0.3289 -0.1271
   71MOL0     O 9668  11.333   1.887  10.600 -0.0378  1.1465  0.0602
   71MOL0     C 9669  11.456   1.900  10.672  0.4091 -0.3315 -0.2394
   71MOL0     C 9670  11.547   1.805  10.599  1.5312 -0.0359  0.0509
   71MOL0     C 9671  11.691   1.842  10.616 -0.5640 -0.1184  0.4252
   71MOL0     C 9672  11.781   1.742  10.550  0.2421 -0.3213  0.0755
   71MOL0     C 9673  11.930   1.776  10.528  0.6181  0.3809  0.3984
   71MOL0     C 9674  11.998   1.658  10.462  0.3361  0.7246  0.1047
   71MOL0     C 9675  12.148   1.697  10.444 -0.0094 -0.0552 -0.4500
   71MOL0     C 9676  12.211   1.757  10.558  0.8035 -0.5739 -0.6067
   71MOL0     N 9677  12.359   1.746  10.553 -0.3569 -0.1264 -0.2047
   71MOL0     C 9678  12.440   1.780  10.441  0.7803  0.4006  1.2782
   71MOL0     C 9679  12.567   1.783  10.484  0.9676 -0.2779  0.7953
   71MOL0     C 9680  12.689   1.805  10.404 -1.0357 -0.5495  0.3766
   71MOL0     C 9681  12.715   1.954  10.382  0.5410  0.0220  0.8922
   71MOL0     C 9682  12.814   1.980  10.272 -0.6760  1.1657  0.3588
   71MOL0     C 9683  12.950   1.905  10.300  0.8457  0.5367 -0.2533
   71MOL0     O 9684  13.038   1.945  10.196 -0.5163 -0.6569  0.0840
   71MOL0     C 9685  13.156   1.878  10.186  0.5934  0.0576 -0.2378
   71MOL0     C 9686  13.233   1.913  10.078 -0.1485 -0.6596 -0.8303
   71MOL0     C 9687  13.362   1.854  10.059  0.5918  0.1141  0.8676
   71MOL0     C 9688  13.427   1.882   9.925 -0.2715  0.0272  0.7125
   71MOL0     C 9689  13.421   1.761  10.150 -0.0245 -0.4427 -0.2638
   71MOL0     C 9690  13.556   1.699  10.143 -0.9727  0.2311  0.3977
   71MOL0     O 9691  13.576   1.596  10.223 -0.4767 -0.0596  0.1697
   71MOL0     C 9692  13.699   1.547  10.229 -0.2330 -0.4374 -0.2547
   71MOL0     C 9693  13.731   1.426  10.154 -0.6456 -0.0779 -0.2832
   71MOL0     C 9694  13.862   1.386  10.139 -0.5328  1.0518  0.0009
   71MOL0     C 9695  13.965   1.445  10.212 -0.0917 -0.0350  1.0568
   71MOL0     O 9696  14.090   1.394  10.213 -0.0223 -0.4301  0.6187
   71MOL0     C 9697  14.201   1.481  10.251  1.0749 -0.0621 -0.0187
   71MOL0     C 9698  14.335   1.424  10.222  0.5685  0.2962 -0.3156
   71MOL0     C 9699  14.339   1.285  10.283  0.5089 -0.3174  0.2380
   71MOL0     C 9700  14.482   1.236  10.293  0.6125  0.1341  0.1103
   71MOL0     C 9701  14.490   1.100  10.351  0.1772  0.3910 -0.1035
   71MOL0     C 9702  14.631   1.047  10.333 -0.0709  0.5829  0.4143
   71MOL0     C 9703  14.665   0.913  10.408  0.5677 -0.3284  0.9721
   71MOL0     C 9704  14.732   0.925  10.542 -0.2782  0.8970  0.2522
   71MOL0    Cl 9705  14.895   0.988  10.529  0.0301 -0.3839 -0.1101
   71MOL0     C 9706  13.933   1.558  10.296  0.1788 -0.0145  1.0465
   71MOL0     C 9707  13.808   1.609  10.300  0.8210  0.2821  0.5406
   71MOL0     O 9708  13.640   1.761  10.073  0.1773  0.1597  0.1858
   71MOL0     C 9709  13.340   1.730  10.261 -0.2152 -0.1916  0.0571
   71MOL0     C 9710  13.210   1.785  10.270 -0.7955 -0.3008  0.5413
   71MOL0     N 9711  12.558   1.750  10.622 -0.6272  0.0452 -0.3000
   71MOL0     N 9712  12.440   1.720  10.660 -0.1267  0.0803  0.5784
   71MOL0     C 9713  11.223   2.035  10.773  0.4685  0.0747 -0.0174
   71MOL0     C 9714  11.108   2.052  10.850  0.4354 -1.1090 -0.1484
   71MOL0     C 9715  10.773   1.903  11.130  0.4881  0.5001 -0.2585
   71MOL0     C 9716  10.714   2.030  11.133  0.2368 -0.2603 -0.5091
   71MOL0     C 9717  10.630   2.071  11.234 -0.1999  0.1820  0.7787
   71MOL0     C 9718  10.611   1.989  11.341  0.0813  0.4797 -0.6188
   71MOL0     O 9719  10.529   2.011  11.454  0.1335  0.4863  0.3013
   71MOL0     C 9720  10.450   2.133  11.453  0.3234  0.3901  0.1130
   71MOL0     C 9721  10.317   2.121  11.359  0.7383 -0.3812 -0.2625
   71MOL0     C 9722  10.236   2.002  11.395 -1.0120 -0.4144  0.3883
   71MOL0     C 9723  10.101   2.020  11.321  0.0658  0.7172 -0.0843
   71MOL0     C 9724  10.013   2.118  11.380  0.1647 -0.1257  0.1050
   71MOL0     C 9725   9.952   2.214  11.435  0.4887  0.3525 -0.7438
   71MOL0     C 9726  10.672   1.861  11.349  0.3862  0.1498  0.0979
   71MOL0     C 9727  10.757   1.821  11.244  0.4818  0.6009 -0.4617
   71MOL0     C 9728  10.831   1.692  11.258  0.2545 -0.6219  0.2287
   71MOL0     H 9729  10.909   1.809  10.723 -0.9409  1.0089  2.7290
   71MOL0     H 9730  11.105   1.790  10.570  0.1831  0.9122  0.3664
   71MOL0     H 9731  11.450   1.889  10.781  2.9934  0.5038  0.0709
   71MOL0     H 9732  11.496   2.001  10.656 -1.7710  0.7339  0.6642
   71MOL0     H 9733  11.532   1.710  10.652  0.0837  0.5880  0.8359
   71MOL0     H 9734  11.511   1.803  10.495 -1.4654  3.5530  0.8326
   71MOL0     H 9735  11.694   1.941  10.568 -1.3628 -0.4969 -0.4404
   71MOL0     H 9736  11.717   1.853  10.721  0.1544  0.3680  0.2117
   71MOL0     H 9737  11.792   1.655  10.614  3.0687 -1.0032 -1.1755
   71MOL0     H 9738  11.726   1.719  10.458 -0.0352 -2.4031  0.7152
   71MOL0     H 9739  11.967   1.799  10.629 -0.6904 -0.2873  1.0601
   71MOL0     H 9740  11.942   1.864  10.464  0.1655 -1.0247 -1.7190
   71MOL0     H 9741  11.993   1.565  10.520 -1.0730  0.5646 -0.2357
   71MOL0     H 9742  11.956   1.637  10.364  1.6033  2.5381 -0.8928
   71MOL0     H 9743  12.161   1.773  10.367 -0.9100  0.6501  0.0708
   71MOL0     H 9744  12.213   1.615  10.416  1.7819  1.1634 -0.0194
   71MOL0     H 9745  12.181   1.862  10.560  0.4188 -0.5760 -3.3848
   71MOL0     H 9746  12.174   1.707  10.648 -0.0670 -1.4937 -1.4530
   71MOL0     H 9747  12.410   1.798  10.339 -0.9637  0.9526  1.8622
   71MOL0     H 9748  12.671   1.754  10.309 -1.9215 -1.3086  0.9377
   71MOL0     H 9749  12.775   1.759  10.455 -1.5274 -0.1174  1.6359
   71MOL0     H 9750  12.618   2.000  10.358 -0.4679 -1.2582  2.2951
   71MOL0     H 9751  12.748   2.008  10.471  1.5578  3.7620 -1.4989
   71MOL0     H 9752  12.775   1.948  10.176 -0.2767  1.3096  0.1469
   71MOL0     H 9753  12.829   2.089  10.271 -2.9913  1.6153 -3.4485
   71MOL0     H 9754  12.980   1.943  10.398 -2.9670 -1.1102  1.8007
   71MOL0     H 9755  12.934   1.797  10.303 -2.6797  0.9384  2.2839
   71MOL0     H 9756  13.202   1.991  10.010  1.8201  1.3023  0.4185
   71MOL0     H 9757  13.478   1.787   9.906  0.3994  0.2230  1.4898
   71MOL0     H 9758  13.501   1.962   9.936 -0.5067  0.5825 -1.3075
   71MOL0     H 9759  13.350   1.908   9.852  1.1611 -0.0876 -0.9094
   71MOL0     H 9760  13.648   1.366  10.118 -2.5291  1.8795  0.5967
   71MOL0     H 9761  13.884   1.296  10.083 -1.9938  0.4162  0.4180
   71MOL0     H 9762  14.192   1.582  10.211  0.9083  0.6770  1.7661
   71MOL0     H 9763  14.193   1.487  10.360 -2.4053 -0.6950 -0.1289
   71MOL0     H 9764  14.349   1.416  10.114 -4.8204 -2.3496 -1.1972
   71MOL0     H 9765  14.406   1.491  10.270  2.6202 -2.5084  0.7911
   71MOL0     H 9766  14.287   1.215  10.217 -0.1155 -0.5321  0.9414
   71MOL0     H 9767  14.281   1.275  10.375  0.0649 -2.1216 -0.1982
   71MOL0     H 9768  14.545   1.305  10.349  0.1595 -0.8301  1.8569
   71MOL0     H 9769  14.511   1.229  10.188 -1.2314  1.4848 -0.5525
   71MOL0     H 9770  14.464   1.109  10.457  1.6593  1.7153  0.1823
   71MOL0     H 9771  14.422   1.024  10.312 -1.3393 -0.2073  3.3170
   71MOL0     H 9772  14.705   1.121  10.367 -0.0414  0.0108  1.6577
   71MOL0     H 9773  14.656   1.031  10.228  0.5915  0.4620  0.5842
   71MOL0     H 9774  14.731   0.853  10.346  0.8073  0.1322  0.7789
   71MOL0     H 9775  14.570   0.859  10.420 -0.7678  2.0799  1.9519
   71MOL0     H 9776  14.728   0.824  10.585 -1.2513 -0.6908 -3.2032
   71MOL0     H 9777  14.668   0.986  10.607 -0.6962  0.8191 -0.0759
   71MOL0     H 9778  14.004   1.605  10.364  0.4375 -0.5433  1.1486
   71MOL0     H 9779  13.794   1.708  10.342  3.0039  0.7676  0.2492
   71MOL0     H 9780  13.379   1.669  10.341 -0.7140  2.0158  2.1177
   71MOL0     H 9781  13.153   1.757  10.358 -0.2045 -2.0655  0.3949
   71MOL0     H 9782  11.319   2.084  10.780  0.1656  0.4923  1.7019
   71MOL0     H 9783  11.115   2.130  10.926  2.2307 -0.1256 -1.2651
   71MOL0     H 9784  10.735   2.083  11.041 -3.3573  0.2542 -1.1946
   71MOL0     H 9785  10.575   2.162  11.211  1.5112  1.1147  0.2837
   71MOL0     H 9786  10.429   2.139  11.560 -2.7675 -1.7329 -0.2828
   71MOL0     H 9787  10.517   2.215  11.424  1.4412 -0.2726  0.7434
   71MOL0     H 9788  10.347   2.125  11.254 -1.0761  1.5975 -0.7714
   71MOL0     H 9789  10.250   2.206  11.374  0.2380 -0.7004 -0.6660
   71MOL0     H 9790  10.291   1.910  11.373 -0.6912 -0.6786  2.1417
   71MOL0     H 9791  10.207   1.976  11.497 -1.1474 -0.5516  0.3154
   71MOL0     H 9792  10.060   1.920  11.339  2.1195 -0.0282  0.8326
   71MOL0     H 9793  10.117   2.043  11.215 -0.7635  2.0071  0.0543
   71MOL0     H 9794   9.886   2.279  11.490 -0.3311 -0.6493 -0.5197
   71MOL0     H 9795  10.642   1.806  11.437  1.0566  2.1295  1.6463
   71MOL0     H 9796  10.936   1.699  11.228  0.4889 -0.4907  1.0383
   71MOL0     H 9797  10.834   1.663  11.364 -0.2658  1.0854  0.7478
   71MOL0     H 9798  10.781   1.615  11.198  1.8212 -0.4199 -1.4107
   72MOL0     O 9799   1.048   6.411   5.956  0.4174  0.2995 -0.6228
   72MOL0     C 9800   1.010   6.478   5.861 -0.6108 -0.2295  0.0326
   72MOL0     O 9801   1.098   6.562   5.783 -0.0288  0.2729  0.0915
   72MOL0     C 9802   1.235   6.570   5.795 -0.6036 -0.3724  0.3733
   72MOL0     C 9803   1.308   6.520   5.909  0.7826  0.0053 -0.0588
   72MOL0     C 9804   1.446   6.532   5.918  0.0219 -0.3589 -0.4407
   72MOL0     C 9805   1.517   6.606   5.824 -0.8636 -0.5351  0.0703
   72MOL0     O 9806   1.657   6.616   5.845  0.1476 -0.0254  0.2155
   72MOL0     C 9807   1.731   6.710   5.766  0.3968 -0.3885  0.4830
   72MOL0     C 9808   1.877   6.724   5.811 -0.6988  0.7131  0.9298
   72MOL0     C 9809   1.966   6.602   5.749 -0.2479 -0.3700 -0.0106
   72MOL0     C 9810   1.946   6.469   5.813  0.2488 -0.5742  0.3017
   72MOL0     C 9811   2.040   6.354   5.768 -0.5673 -0.6378 -0.9078
   72MOL0     C 9812   2.040   6.232   5.860  0.5932 -0.1267 -0.3767
   72MOL0     C 9813   2.137   6.116   5.807 -0.0796 -0.1193  0.3680
   72MOL0     C 9814   2.289   6.141   5.837  0.2916 -0.2137 -0.3791
   72MOL0     N 9815   2.310   6.182   5.983  0.1651 -0.2459 -0.0166
   72MOL0     C 9816   2.266   6.115   6.091 -0.3408  0.3972  0.5282
   72MOL0     C 9817   2.313   6.184   6.198  0.0308 -0.5884 -0.3560
   72MOL0     C 9818   2.291   6.139   6.346 -0.4412 -0.1586  0.2918
   72MOL0     C 9819   2.399   6.047   6.405  0.5596 -0.2494 -0.1142
   72MOL0     C 9820   2.526   6.136   6.434  0.3486 -0.5227  0.4123
   72MOL0     C 9821   2.650   6.068   6.498  1.2114 -1.1327 -0.0016
   72MOL0     O 9822   2.755   6.166   6.480  0.2816 -0.1544 -0.3435
   72MOL0     C 9823   2.867   6.144   6.553  0.0725  0.1323 -0.1476
   72MOL0     C 9824   2.882   6.069   6.671  0.2845  0.0281 -0.0083
   72MOL0     C 9825   3.002   6.061   6.735  0.8154 -0.0801  0.4643
   72MOL0     C 9826   2.991   5.986   6.866 -0.0107 -0.6265 -0.2287
   72MOL0     C 9827   3.117   6.121   6.687  0.8223 -0.7653 -0.4075
   72MOL0     C 9828   3.246   6.129   6.762 -0.4865  0.5464  0.0270
   72MOL0     O 9829   3.326   6.221   6.723 -0.3469 -0.7593  0.5951
   72MOL0     C 9830   3.463   6.215   6.751  0.1314 -0.2110  0.9485
   72MOL0     C 9831   3.527   6.094   6.771  0.1567  0.8785  0.4843
   72MOL0     C 9832   3.661   6.087   6.812  0.0542 -0.3397 -0.3756
   72MOL0     C 9833   3.742   6.195   6.825  0.5676  0.2421 -0.2591
   72MOL0     O 9834   3.864   6.168   6.875 -0.5431 -0.3550  0.0766
   72MOL0     C 9835   3.965   6.275   6.885  0.5910  0.0056 -0.2207
   72MOL0     C 9836   4.104   6.218   6.877 -0.0149 -0.0647  0.7333
   72MOL0     C 9837   4.206   6.327   6.919  0.6571  0.3782 -0.4472
   72MOL0     C 9838   4.335   6.269   6.961 -0.4008  0.1109 -0.3163
   72MOL0     C 9839   4.442   6.384   6.983  0.0178 -0.0477  0.0786
   72MOL0     C 9840   4.582   6.328   7.002 -0.3212  0.2197 -0.2749
   72MOL0     C 9841   4.695   6.415   7.038 -0.1109 -0.8670 -0.2528
   72MOL0     C 9842   4.734   6.514   6.930  0.4647 -0.9627  0.8006
   72MOL0    Cl 9843   4.855   6.638   6.995 -0.3256  0.4403  0.2052
   72MOL0     C 9844   3.676   6.319   6.800  0.8040 -0.0119 -0.2095
   72MOL0     C 9845   3.542   6.330   6.760  0.2169 -0.2726  0.5878
   72MOL0     O 9846   3.254   6.060   6.866 -0.4059 -0.1534  0.1602
   72MOL0     C 9847   3.104   6.191   6.570 -0.2902  0.5676 -0.2770
   72MOL0     C 9848   2.981   6.209   6.512  0.0243  0.1946 -0.4807
   72MOL0     N 9849   2.365   6.304   6.151 -0.0407  0.5495  0.7566
   72MOL0     N 9850   2.360   6.305   6.022  0.1899  0.9014  0.6120
   72MOL0     C 9851   1.445   6.667   5.718 -1.0085  0.3607  0.8460
   72MOL0     C 9852   1.310   6.641   5.704  0.4499 -0.1298  0.5130
   72MOL0     C 9853   0.869   6.469   5.824 -0.2620 -0.0687 -0.2148
   72MOL0     C 9854   0.815   6.572   5.749  0.2174  0.1203  0.3808
   72MOL0     C 9855   0.679   6.568   5.710 -0.4367  0.6945 -0.5606
   72MOL0     C 9856   0.588   6.478   5.768 -0.8097  0.2574 -0.3781
   72MOL0     O 9857   0.455   6.473   5.754  0.0268 -0.8156 -0.1445
   72MOL0     C 9858   0.406   6.469   5.623  0.4790  0.7762  0.0903
   72MOL0     C 9859   0.257   6.503   5.626 -0.6149 -0.5890 -1.4430
   72MOL0     C 9860   0.173   6.410   5.713 -0.0455  0.0813  0.1757
   72MOL0     C 9861   0.158   6.272   5.648  0.3431  0.2844  0.4629
   72MOL0     C 9862   0.063   6.188   5.717 -0.1718  1.4406  0.3014
   72MOL0     C 9863  -0.022   6.130   5.778 -0.0635  0.4549 -0.4417
   72MOL0     C 9864   0.653   6.375   5.835  0.8464  0.0265 -0.6720
   72MOL0     C 9865   0.789   6.361   5.858 -0.4976 -0.1656 -0.6749
   72MOL0     C 9866   0.831   6.241   5.942 -0.5928 -0.4667  0.8310
   72MOL0     H 9867   1.251   6.473   5.989 -3.5746  2.3265 -1.4849
   72MOL0     H 9868   1.504   6.486   5.997 -0.5985 -1.5179 -0.6239
   72MOL0     H 9869   1.671   6.801   5.776  0.6684 -0.1440 -0.0633
   72MOL0     H 9870   1.728   6.676   5.662  2.1789  3.5033 -1.0738
   72MOL0     H 9871   1.913   6.820   5.773 -2.0184  1.0758  0.5307
   72MOL0     H 9872   1.884   6.728   5.920 -2.7512  3.9661  1.0708
   72MOL0     H 9873   1.948   6.589   5.642  0.8356 -1.9953 -0.0247
   72MOL0     H 9874   2.073   6.623   5.759 -0.4549  1.3249 -1.0381
   72MOL0     H 9875   1.945   6.481   5.922  0.7583  0.2249  0.2227
   72MOL0     H 9876   1.841   6.451   5.786  0.3030  0.0852 -0.3748
   72MOL0     H 9877   2.143   6.389   5.772 -0.8623  0.2368 -0.8432
   72MOL0     H 9878   2.013   6.321   5.667 -1.9206 -3.2883  0.2003
   72MOL0     H 9879   2.072   6.269   5.958  0.1535  1.3864 -0.7734
   72MOL0     H 9880   1.939   6.191   5.860  0.7516 -0.5528  0.6403
   72MOL0     H 9881   2.126   6.099   5.700  1.0904 -3.9668  0.7109
   72MOL0     H 9882   2.111   6.017   5.846  0.8211 -0.1454  0.9333
   72MOL0     H 9883   2.352   6.055   5.814  1.3237  0.5785 -0.5995
   72MOL0     H 9884   2.328   6.222   5.774 -3.9373  0.6193 -2.3293
   72MOL0     H 9885   2.226   6.015   6.084 -3.5413  1.6654 -1.0826
   72MOL0     H 9886   2.195   6.088   6.338 -1.8563  2.3234  0.3805
   72MOL0     H 9887   2.273   6.224   6.413 -0.4040 -0.8586  1.2093
   72MOL0     H 9888   2.364   6.000   6.497 -0.1287  1.0546  0.3120
   72MOL0     H 9889   2.419   5.968   6.331  2.6386  1.0263 -0.9754
   72MOL0     H 9890   2.556   6.173   6.335 -1.7141  1.4389  0.4411
   72MOL0     H 9891   2.495   6.225   6.490  1.2294 -0.4991  0.8695
   72MOL0     H 9892   2.637   6.043   6.603  0.9180 -0.0241  0.2334
   72MOL0     H 9893   2.675   5.979   6.438  0.5051 -4.0811  3.7220
   72MOL0     H 9894   2.798   6.013   6.712 -0.6242  1.4567  0.1332
   72MOL0     H 9895   2.894   5.940   6.884 -2.3706  3.8060 -0.1985
   72MOL0     H 9896   2.998   6.058   6.948  3.8705 -0.6119 -0.3746
   72MOL0     H 9897   3.067   5.907   6.872  0.4912 -0.1378  0.0276
   72MOL0     H 9898   3.472   6.001   6.757  0.8852  0.2961  1.3202
   72MOL0     H 9899   3.706   5.991   6.836  1.3363 -0.2986 -2.3724
   72MOL0     H 9900   3.946   6.357   6.816  2.3810  0.9833  0.4078
   72MOL0     H 9901   3.955   6.314   6.987 -0.8461  2.1580 -1.1255
   72MOL0     H 9902   4.107   6.140   6.954 -0.1760 -0.9976 -0.1919
   72MOL0     H 9903   4.131   6.181   6.778  0.5119 -2.2511  1.6330
   72MOL0     H 9904   4.164   6.393   6.996  1.6104  0.6921 -0.1826
   72MOL0     H 9905   4.228   6.395   6.836  1.5723  0.0320 -0.4975
   72MOL0     H 9906   4.361   6.199   6.881  0.6564  0.9597 -0.7249
   72MOL0     H 9907   4.329   6.213   7.055 -1.6634  0.9188  0.1042
   72MOL0     H 9908   4.441   6.453   6.899  1.4907 -0.0593  0.0268
   72MOL0     H 9909   4.418   6.436   7.076  0.4100 -1.1831  0.8460
   72MOL0     H 9910   4.607   6.278   6.909 -1.5409 -0.9621 -0.0018
   72MOL0     H 9911   4.577   6.253   7.082  1.5108  1.9031  1.5357
   72MOL0     H 9912   4.779   6.346   7.050  1.9045  1.4277 -0.3214
   72MOL0     H 9913   4.678   6.466   7.134 -3.0814  1.1689 -1.6877
   72MOL0     H 9914   4.653   6.583   6.906  0.8376 -0.6914  0.3149
   72MOL0     H 9915   4.758   6.462   6.837 -0.6135  3.5647 -2.3178
   72MOL0     H 9916   3.736   6.409   6.814  1.4539  0.3474 -4.1427
   72MOL0     H 9917   3.498   6.429   6.753 -1.0569 -0.8236  0.5372
   72MOL0     H 9918   3.185   6.248   6.525  0.9234 -0.3181  0.7376
   72MOL0     H 9919   2.983   6.263   6.418  2.2024  2.1349  0.5813
   72MOL0     H 9920   1.479   6.741   5.647 -3.1589  2.9959  2.3699
   72MOL0     H 9921   1.246   6.689   5.632 -0.0601 -1.9742 -0.3177
   72MOL0     H 9922   0.880   6.656   5.724 -0.2275  0.9374  1.8549
   72MOL0     H 9923   0.633   6.646   5.652  0.5446  2.9556  1.5394
   72MOL0     H 9924   0.453   6.553   5.571 -1.9437  2.0167 -0.2041
   72MOL0     H 9925   0.419   6.371   5.576 -0.3783  0.7907 -0.1904
   72MOL0     H 9926   0.216   6.514   5.525 -1.1246  0.8936 -1.0915
   72MOL0     H 9927   0.259   6.593   5.687  0.3329 -1.5472  0.0089
   72MOL0     H 9928   0.202   6.395   5.817 -0.5947 -0.8171  0.2155
   72MOL0     H 9929   0.076   6.460   5.714 -0.7668 -1.2694  0.8921
   72MOL0     H 9930   0.259   6.231   5.650  1.1532  1.9923 -1.9531
   72MOL0     H 9931   0.119   6.279   5.547  1.1026 -1.4776  0.0062
   72MOL0     H 9932  -0.093   6.071   5.833 -0.3430  1.3758  0.2277
   72MOL0     H 9933   0.583   6.303   5.876  3.1435 -0.3314  3.1070
   72MOL0     H 9934   0.762   6.156   5.932 -3.0992  1.7004 -2.9035
   72MOL0     H 9935   0.928   6.209   5.904  0.0288  2.3917 -0.1537
   72MOL0     H 9936   0.851   6.276   6.043 -2.7290  2.0423  0.4919
   73MOL0     O 9937   6.536   7.197  11.222 -0.0530 -0.4554 -0.5413
   73MOL0     C 9938   6.526   7.076  11.202 -0.5922  0.1604  0.9446
   73MOL0     O 9939   6.623   6.993  11.172 -0.2849 -0.1444 -0.0668
   73MOL0     C 9940   6.744   7.044  11.144 -0.2494  0.3051  0.1735
   73MOL0     C 9941   6.791   7.053  11.016 -0.0576 -0.2229 -0.5620
   73MOL0     C 9942   6.922   7.096  10.992 -0.4929 -0.2364 -0.0628
   73MOL0     C 9943   7.005   7.127  11.104 -0.4844 -0.0679  0.3882
   73MOL0     O 9944   7.133   7.184  11.096  0.6414  0.0586  0.9427
   73MOL0     C 9945   7.208   7.139  10.989  0.1884  0.0086  0.1174
   73MOL0     C 9946   7.356   7.158  11.033 -0.3606 -0.6266 -0.9851
   73MOL0     C 9947   7.466   7.138  10.930  0.5489  0.5283  0.6862
   73MOL0     C 9948   7.476   6.995  10.879 -0.3844  0.5400  0.0502
   73MOL0     C 9949   7.605   6.990  10.796 -0.4895 -0.2693  0.0893
   73MOL0     C 9950   7.619   6.849  10.746 -0.4440 -0.6752  1.1888
   73MOL0     C 9951   7.726   6.817  10.636 -0.8777 -0.8760 -0.6764
   73MOL0     C 9952   7.866   6.843  10.687  0.3034 -0.4653  0.6047
   73MOL0     N 9953   7.962   6.804  10.584 -0.9574  0.5731 -0.5690
   73MOL0     C 9954   7.994   6.675  10.543 -0.0806  0.7601  0.8117
   73MOL0     C 9955   8.090   6.690  10.450  0.1894  0.6016  0.4961
   73MOL0     C 9956   8.145   6.585  10.353 -0.2388  0.2999 -0.5437
   73MOL0     C 9957   8.156   6.624  10.201 -0.8918  0.1442  0.4603
   73MOL0     C 9958   8.244   6.519  10.126  0.2669  0.4424  0.1354
   73MOL0     C 9959   8.225   6.528   9.978  0.1411 -1.9036  0.2946
   73MOL0     O 9960   8.313   6.445   9.895  0.3084 -0.3275 -0.0114
   73MOL0     C 9961   8.437   6.493   9.864  0.9386 -0.0004 -0.8236
   73MOL0     C 9962   8.489   6.627   9.886  1.3620  0.3434 -0.7413
   73MOL0     C 9963   8.615   6.667   9.835 -0.4976 -0.2478  0.3638
   73MOL0     C 9964   8.662   6.811   9.873 -0.4984  0.3224 -0.2803
   73MOL0     C 9965   8.695   6.574   9.767  0.5171 -0.6984 -0.7393
   73MOL0     C 9966   8.828   6.602   9.709 -0.1569 -0.3539 -0.5424
   73MOL0     O 9967   8.868   6.518   9.612  0.9836 -0.1663 -0.0950
   73MOL0     C 9968   8.992   6.527   9.555  0.4294 -0.6311 -0.5005
   73MOL0     C 9969   9.029   6.642   9.481  0.1117  0.6357 -0.1279
   73MOL0     C 9970   9.156   6.654   9.430  0.1093  0.2586  0.3329
   73MOL0     C 9971   9.257   6.568   9.457 -0.5488  0.2963 -0.5586
   73MOL0     O 9972   9.383   6.589   9.409  0.2738  0.1350 -0.2231
   73MOL0     C 9973   9.485   6.485   9.403 -0.2665 -0.1585 -1.2165
   73MOL0     C 9974   9.453   6.383   9.286  0.0450 -0.1291 -0.1805
   73MOL0     C 9975   9.471   6.459   9.150  0.0067  0.2598  0.6761
   73MOL0     C 9976   9.538   6.369   9.040  0.1916 -0.0799  0.3385
   73MOL0     C 9977   9.691   6.321   9.063 -0.2916  0.8731  0.1725
   73MOL0     C 9978   9.724   6.198   8.980 -0.3593  0.5791  0.1938
   73MOL0     C 9979   9.846   6.111   9.023 -0.0797 -0.3701  0.2501
   73MOL0     C 9980   9.875   5.991   8.926  0.3854  0.2790 -0.8079
   73MOL0    Cl 9981   9.885   6.046   8.754  0.3709 -0.3245  0.5948
   73MOL0     C 9982   9.219   6.447   9.525  0.3449 -0.0707  0.4099
   73MOL0     C 9983   9.088   6.432   9.581 -0.0296  0.3910  0.6969
   73MOL0     O 9984   8.887   6.709   9.734 -0.1001  0.9511 -0.6216
   73MOL0     C 9985   8.651   6.447   9.753  0.4040 -0.4145 -0.4669
   73MOL0     C 9986   8.522   6.409   9.796  0.1752  0.0816 -0.5098
   73MOL0     N 9987   8.121   6.823  10.447 -0.6865 -0.5894  0.2832
   73MOL0     N 9988   8.044   6.896  10.520  0.6250  0.0288 -0.5082
   73MOL0     C 9989   6.953   7.116  11.232  0.4001 -0.0537 -0.6063
   73MOL0     C 9990   6.827   7.073  11.245 -0.0802 -0.5619  0.1619
   73MOL0     C 9991   6.401   7.003  11.210  0.0568 -0.1339  0.0517
   73MOL0     C 9992   6.349   6.946  11.090 -1.2992  0.7736 -0.0252
   73MOL0     C 9993   6.221   6.903  11.088  0.1837  0.1539  0.3765
   73MOL0     C 9994   6.140   6.914  11.209 -0.9689  0.8200  0.1465
   73MOL0     O 9995   6.010   6.876  11.206 -0.2437  0.2852  0.1559
   73MOL0     C 9996   5.938   6.839  11.327 -0.1831  0.0092 -0.2621
   73MOL0     C 9997   5.810   6.772  11.281  0.0142  1.1254  0.4347
   73MOL0     C 9998   5.711   6.764  11.401 -0.1970  0.0391 -0.3483
   73MOL0     C 9999   5.729   6.643  11.498 -0.8242 -0.2477 -0.2497
   73MOL0     C10000   5.687   6.513  11.434  0.0617 -0.4198 -0.1233
   73MOL0     C10001   5.659   6.402  11.386  0.0518 -0.2366 -0.5165
   73MOL0     C10002   6.194   6.973  11.327 -0.0612  0.0951 -0.5660
   73MOL0     C10003   6.325   7.016  11.326 -0.3668 -0.4098  0.9256
   73MOL0     C10004   6.380   7.085  11.445  0.5914  0.2044  0.4416
   73MOL0     H10005   6.721   7.020  10.940 -1.0296 -1.1710  0.7011
   73MOL0     H10006   6.951   7.075  10.889 -2.3734 -2.3527 -0.2321
   73MOL0     H10007   7.189   7.195  10.897  0.8838 -0.0618 -0.0782
   73MOL0     H10008   7.180   7.038  10.957 -1.0600  0.9652 -2.0763
   73MOL0     H10009   7.376   7.261  11.066 -1.2064 -1.0313  0.9149
   73MOL0     H10010   7.379   7.095  11.119  1.5855  0.6115 -0.5286
   73MOL0     H10011   7.429   7.192  10.843  1.2035 -1.4740 -0.9115
   73MOL0     H10012   7.562   7.182  10.958  1.9476 -0.6081 -1.9212
   73MOL0     H10013   7.468   6.911  10.949  3.2506 -2.1188 -2.3783
   73MOL0     H10014   7.388   6.985  10.815 -1.0794  2.8751  0.5266
   73MOL0     H10015   7.696   7.019  10.849  0.7132 -2.8268 -0.4000
   73MOL0     H10016   7.579   7.046  10.705 -1.4406  2.8307  2.1047
   73MOL0     H10017   7.647   6.781  10.828  1.1018 -2.9628 -1.0900
   73MOL0     H10018   7.517   6.828  10.714 -0.2900  1.6926 -1.2189
   73MOL0     H10019   7.710   6.879  10.547 -1.1448  0.6213  0.3664
   73MOL0     H10020   7.709   6.714  10.604 -1.6911 -0.8779 -0.2402
   73MOL0     H10021   7.873   6.943  10.729 -2.9233 -0.0006  0.3147
   73MOL0     H10022   7.882   6.782  10.776  2.4469  0.7601  1.1168
   73MOL0     H10023   7.941   6.585  10.571 -1.2136  1.5874  1.4407
   73MOL0     H10024   8.091   6.491  10.370  1.8245 -0.5368  2.1556
   73MOL0     H10025   8.246   6.564  10.391 -1.4147 -0.2055  2.6085
   73MOL0     H10026   8.053   6.611  10.166 -2.0426  2.8953  2.4806
   73MOL0     H10027   8.190   6.728  10.200  1.3924 -0.4011  3.9312
   73MOL0     H10028   8.350   6.537  10.142 -0.1672  1.0627  2.7662
   73MOL0     H10029   8.218   6.419  10.164  0.2793 -1.3448 -4.0193
   73MOL0     H10030   8.127   6.481   9.963 -2.1076  1.6548  2.3855
   73MOL0     H10031   8.225   6.631   9.941  0.2512 -1.3644  1.7326
   73MOL0     H10032   8.430   6.698   9.943 -1.3875 -2.1542 -0.2300
   73MOL0     H10033   8.715   6.862   9.793  5.4166 -1.5169  1.9157
   73MOL0     H10034   8.727   6.805   9.961  0.8653  0.3934 -1.2620
   73MOL0     H10035   8.578   6.879   9.894  1.7029  3.9772 -2.3089
   73MOL0     H10036   8.960   6.719   9.448  1.7191  1.4267 -1.8451
   73MOL0     H10037   9.171   6.745   9.374  0.4579  0.4977  0.8076
   73MOL0     H10038   9.588   6.521   9.394 -0.4538  1.5507  1.9822
   73MOL0     H10039   9.490   6.427   9.496  0.8171 -1.5118 -2.0692
   73MOL0     H10040   9.523   6.298   9.284  0.6295  0.3509 -0.3812
   73MOL0     H10041   9.353   6.340   9.297  0.3782 -0.9972 -0.4212
   73MOL0     H10042   9.536   6.547   9.158 -1.0716  1.3831 -1.6349
   73MOL0     H10043   9.370   6.497   9.129 -0.4780 -1.3768 -0.1223
   73MOL0     H10044   9.546   6.425   8.946  2.0038 -1.3022 -0.3039
   73MOL0     H10045   9.470   6.284   9.026 -0.7505  0.2077  2.7168
   73MOL0     H10046   9.752   6.402   9.022 -1.0882  0.8109 -1.1859
   73MOL0     H10047   9.713   6.314   9.170 -0.0574 -0.4312  0.0501
   73MOL0     H10048   9.724   6.222   8.873 -1.2693 -0.7987 -0.1392
   73MOL0     H10049   9.641   6.135   9.010 -0.9659  1.1093 -0.3340
   73MOL0     H10050   9.812   6.067   9.117 -1.1563  0.8754  0.4714
   73MOL0     H10051   9.927   6.183   9.037 -1.8371  1.8849 -0.4865
   73MOL0     H10052   9.794   5.918   8.924  2.1735 -1.9828  1.9713
   73MOL0     H10053   9.970   5.942   8.951 -0.8486 -1.3979  0.8239
   73MOL0     H10054   9.290   6.365   9.536  0.4154 -0.0501  0.1195
   73MOL0     H10055   9.056   6.343   9.635 -4.0092  1.5480  0.5759
   73MOL0     H10056   8.706   6.363   9.711  1.8562 -0.7746  1.9460
   73MOL0     H10057   8.493   6.308   9.770 -0.0530 -0.0371  0.1783
   73MOL0     H10058   7.020   7.127  11.316 -0.0257  1.5149 -0.4362
   73MOL0     H10059   6.790   7.068  11.347 -1.0562  1.7841 -0.0336
   73MOL0     H10060   6.414   6.940  11.003 -1.5266 -3.3110 -0.0870
   73MOL0     H10061   6.177   6.859  10.998 -0.5622  1.2428  0.1976
   73MOL0     H10062   5.997   6.768  11.386  2.4460  0.9476 -1.6038
   73MOL0     H10063   5.907   6.925  11.387  2.6145  2.2245 -1.7388
   73MOL0     H10064   5.827   6.673  11.238  4.1266  1.5309  0.7815
   73MOL0     H10065   5.768   6.833  11.201  3.1189  0.0933 -2.2057
   73MOL0     H10066   5.702   6.856  11.460 -3.7246 -1.0518  1.1236
   73MOL0     H10067   5.613   6.730  11.367  0.4061 -3.8674  1.3059
   73MOL0     H10068   5.669   6.658  11.588 -0.6830  3.4116 -0.6279
   73MOL0     H10069   5.836   6.643  11.523 -1.2656  0.1554  1.9030
   73MOL0     H10070   5.636   6.299  11.366 -1.1342  0.1286 -1.1693
   73MOL0     H10071   6.130   6.980  11.414 -1.2343  1.2953 -1.4965
   73MOL0     H10072   6.461   7.022  11.481  0.4726 -0.7409 -0.8872
   73MOL0     H10073   6.427   7.183  11.430 -2.7299  1.6908 -1.3059
   73MOL0     H10074   6.305   7.087  11.525  0.8950 -3.3879  0.9793
   74MOL0     O10075   9.308   1.057   2.622  0.4949  0.5868  0.5254
   74MOL0     C10076   9.370   1.035   2.728 -0.0776 -0.7935  0.1788
   74MOL0     O10077   9.316   1.029   2.853 -0.9402 -0.6367  1.0745
   74MOL0     C10078   9.183   1.039   2.876  0.1867  0.5287  0.1089
   74MOL0     C10079   9.153   1.113   2.993  0.6468 -0.4129  0.5431
   74MOL0     C10080   9.014   1.131   3.023 -0.3978 -0.1484 -0.3827
   74MOL0     C10081   8.911   1.076   2.949 -0.5964  0.3277  0.1549
   74MOL0     O10082   8.785   1.120   2.979  0.6749  0.0020 -0.0199
   74MOL0     C10083   8.676   1.045   2.930  0.1621 -0.1328 -0.2152
   74MOL0     C10084   8.545   1.124   2.977 -0.6232  0.7904  0.3676
   74MOL0     C10085   8.511   1.238   2.886  0.2357 -1.5042 -0.3997
   74MOL0     C10086   8.379   1.293   2.927  0.0614  0.7540  0.2695
   74MOL0     C10087   8.345   1.425   2.863 -0.1014 -1.2563 -0.1830
   74MOL0     C10088   8.425   1.544   2.935 -0.0309 -0.3172 -0.2845
   74MOL0     C10089   8.373   1.685   2.894  0.6921 -0.0507  0.1481
   74MOL0     C10090   8.443   1.757   2.780  0.6984 -0.7721 -0.4812
   74MOL0     N10091   8.583   1.780   2.797 -0.0586 -0.4191  0.1585
   74MOL0     C10092   8.647   1.901   2.803 -0.6512  0.4818  0.4506
   74MOL0     C10093   8.784   1.878   2.798 -0.4352 -0.0491 -0.3231
   74MOL0     C10094   8.880   1.992   2.829  0.1025  0.1685 -0.7163
   74MOL0     C10095   9.014   1.944   2.877 -0.4599 -0.0362  0.0923
   74MOL0     C10096   9.099   1.884   2.772  0.0742 -0.4916 -0.5915
   74MOL0     C10097   9.228   1.820   2.815 -0.3394 -0.5532 -0.2471
   74MOL0     O10098   9.314   1.932   2.840 -0.7987  0.1056 -0.5880
   74MOL0     C10099   9.453   1.915   2.847  0.4794  0.1417  0.8229
   74MOL0     C10100   9.526   2.023   2.895  0.9577  0.0939 -0.2098
   74MOL0     C10101   9.665   2.020   2.925  0.9482 -0.8013  0.8686
   74MOL0     C10102   9.719   2.152   2.983  0.9541  0.5917 -0.1203
   74MOL0     C10103   9.739   1.907   2.890  0.6308 -0.6141 -0.1691
   74MOL0     C10104   9.886   1.907   2.886 -0.2759 -0.1404  0.3008
   74MOL0     O10105   9.956   2.014   2.934 -0.2985  0.3922 -0.1194
   74MOL0     C10106  10.092   2.004   2.940 -0.6278  0.3010 -0.4640
   74MOL0     C10107  10.169   2.063   2.828  0.5209  0.2930 -0.3907
   74MOL0     C10108  10.303   2.040   2.825  0.2115  0.1680 -0.4054
   74MOL0     C10109  10.375   1.965   2.923 -0.4991 -0.7483 -0.0557
   74MOL0     O10110  10.515   1.963   2.907  0.1554  0.3854 -0.2114
   74MOL0     C10111  10.581   1.852   2.964 -0.6135  0.2197 -0.0358
   74MOL0     C10112  10.721   1.835   2.919 -1.0318 -0.1250  0.3143
   74MOL0     C10113  10.813   1.725   2.990 -0.8010  0.2642  0.5405
   74MOL0     C10114  10.959   1.716   2.928 -0.0582 -0.5311  0.2142
   74MOL0     C10115  11.030   1.603   3.003 -0.2730 -0.0561  0.5590
   74MOL0     C10116  11.176   1.592   2.946 -0.7403 -0.5992 -0.2176
   74MOL0     C10117  11.269   1.530   3.046  0.1521  0.3744  0.0215
   74MOL0     C10118  11.409   1.515   2.999  0.8092 -0.1738 -0.5024
   74MOL0    Cl10119  11.522   1.572   3.122  0.3227 -0.1786 -0.4110
   74MOL0     C10120  10.296   1.907   3.030 -0.2941  0.4110 -0.2705
   74MOL0     C10121  10.161   1.926   3.036  0.0314  0.2562  0.7917
   74MOL0     O10122   9.937   1.797   2.848  1.1278 -0.0736  0.0804
   74MOL0     C10123   9.670   1.792   2.842  0.0449  0.4278 -0.2787
   74MOL0     C10124   9.526   1.795   2.827  0.3964 -0.9641 -0.0729
   74MOL0     N10125   8.797   1.741   2.780  0.4661 -0.0212 -0.3206
   74MOL0     N10126   8.679   1.688   2.786  0.2048  0.1527  0.6704
   74MOL0     C10127   8.950   0.992   2.838  0.1282 -0.4272 -0.3797
   74MOL0     C10128   9.085   0.983   2.797  0.3294 -0.3902 -0.0664
   74MOL0     C10129   9.519   1.039   2.728  1.5650  1.0783  0.9600
   74MOL0     C10130   9.581   1.124   2.809 -0.2910 -0.1819 -0.7600
   74MOL0     C10131   9.717   1.151   2.795  0.2497 -0.2610  0.0011
   74MOL0     C10132   9.780   1.110   2.681  0.1622 -0.3572  1.0524
   74MOL0     O10133   9.912   1.152   2.664  0.4038  0.2332 -0.0207
   74MOL0     C10134   9.983   1.128   2.536 -0.4626 -0.3584  0.1808
   74MOL0     C10135  10.036   0.981   2.540  0.1343 -0.1627 -0.7139
   74MOL0     C10136  10.107   0.953   2.410  0.2483  0.1586  0.8930
   74MOL0     C10137  10.199   0.821   2.417  0.0862  0.3532 -0.4470
   74MOL0     C10138  10.208   0.761   2.283 -0.2058 -0.0153 -0.7648
   74MOL0     C10139  10.220   0.722   2.170  0.1952 -0.3060  0.8117
   74MOL0     C10140   9.711   1.026   2.595 -0.5689  0.4526  0.6841
   74MOL0     C10141   9.587   0.980   2.621  0.0542  0.5614  0.1889
   74MOL0     C10142   9.539   0.877   2.522  0.6607 -0.0766  0.3118
   74MOL0     H10143   9.222   1.172   3.053  0.8525  2.2977 -2.1053
   74MOL0     H10144   8.982   1.201   3.100  0.2920  1.1802 -1.2462
   74MOL0     H10145   8.678   0.948   2.979  1.7018  0.3627  0.7744
   74MOL0     H10146   8.679   1.040   2.820 -0.5958 -0.0831 -0.2478
   74MOL0     H10147   8.453   1.066   2.962 -0.0117  0.4316 -2.4029
   74MOL0     H10148   8.553   1.149   3.084  3.6494  2.1628 -0.1106
   74MOL0     H10149   8.589   1.313   2.899 -1.3705 -0.1712  2.2678
   74MOL0     H10150   8.508   1.212   2.779 -2.2582  1.1933 -1.1107
   74MOL0     H10151   8.308   1.217   2.895  0.3804  0.1122  1.0549
   74MOL0     H10152   8.368   1.314   3.034  1.7975  1.7342  0.2932
   74MOL0     H10153   8.237   1.431   2.883  0.4361 -0.7793  3.1673
   74MOL0     H10154   8.361   1.425   2.755  2.7219  1.5992  0.0837
   74MOL0     H10155   8.407   1.529   3.042  0.1283 -0.8660 -0.3329
   74MOL0     H10156   8.532   1.540   2.914 -0.2115  3.0694 -2.7097
   74MOL0     H10157   8.386   1.739   2.989  0.2982 -1.3426  0.9585
   74MOL0     H10158   8.267   1.669   2.872  0.6809  0.8344 -0.5274
   74MOL0     H10159   8.414   1.724   2.680 -2.3180  0.7180 -0.2183
   74MOL0     H10160   8.400   1.857   2.789  0.3088 -0.7365 -2.3934
   74MOL0     H10161   8.611   2.002   2.819 -0.2138  0.9278 -1.1674
   74MOL0     H10162   8.850   2.032   2.926 -0.2808 -5.6025  1.9456
   74MOL0     H10163   8.892   2.055   2.740 -0.2526  2.0256  0.4732
   74MOL0     H10164   9.060   2.037   2.912 -1.9814 -0.0815  2.4657
   74MOL0     H10165   9.008   1.872   2.960  1.0672  0.3367  0.5557
   74MOL0     H10166   9.041   1.805   2.722  0.8555 -0.6668 -1.2458
   74MOL0     H10167   9.127   1.952   2.690  0.0262  0.0968 -0.1216
   74MOL0     H10168   9.218   1.746   2.895 -1.4347 -0.7160 -0.5191
   74MOL0     H10169   9.271   1.769   2.728  2.6630  2.5792 -0.8217
   74MOL0     H10170   9.471   2.114   2.916  3.2606  1.8930 -1.4365
   74MOL0     H10171   9.780   2.138   3.073  3.2993  2.4903 -1.2878
   74MOL0     H10172   9.632   2.213   3.010  1.2646  1.1371 -0.3228
   74MOL0     H10173   9.788   2.210   2.920  2.0039  1.3232  1.6163
   74MOL0     H10174  10.118   2.130   2.761  2.6827  2.2213 -0.2171
   74MOL0     H10175  10.361   2.061   2.736 -0.3854 -0.0512 -0.8572
   74MOL0     H10176  10.586   1.854   3.073  1.6438  3.3070 -0.0695
   74MOL0     H10177  10.517   1.766   2.941 -0.9481  0.3171  0.5127
   74MOL0     H10178  10.726   1.824   2.810  2.2106  1.1783  0.2380
   74MOL0     H10179  10.770   1.929   2.947 -0.0230 -0.0238 -1.6236
   74MOL0     H10180  10.764   1.627   2.985 -0.4922  0.0812  1.0581
   74MOL0     H10181  10.830   1.761   3.091 -0.0363  1.5208 -0.0067
   74MOL0     H10182  11.009   1.813   2.938  2.4264 -1.6175 -0.8888
   74MOL0     H10183  10.957   1.695   2.821  1.9534  0.5663 -0.0963
   74MOL0     H10184  11.051   1.639   3.104  3.7001 -0.9590  0.2220
   74MOL0     H10185  10.985   1.504   3.005  2.7714 -1.7018 -2.2076
   74MOL0     H10186  11.196   1.693   2.911  0.7959 -1.5820 -2.3865
   74MOL0     H10187  11.178   1.536   2.852  0.5424 -0.3430 -0.3493
   74MOL0     H10188  11.232   1.428   3.064 -0.0068 -0.1234 -2.7486
   74MOL0     H10189  11.265   1.579   3.144 -1.0277  1.2049 -0.4262
   74MOL0     H10190  11.417   1.572   2.905 -1.0732  1.4349  0.2377
   74MOL0     H10191  11.421   1.408   2.983  1.2083 -0.3259  0.7349
   74MOL0     H10192  10.337   1.838   3.103 -2.5400 -4.5604 -3.2030
   74MOL0     H10193  10.100   1.877   3.112 -0.5658 -0.9451 -0.4154
   74MOL0     H10194   9.718   1.699   2.813 -1.5920 -0.6317  0.2888
   74MOL0     H10195   9.473   1.701   2.814 -1.1354  0.0292 -1.3903
   74MOL0     H10196   8.881   0.945   2.768  1.3247 -1.4847 -0.8984
   74MOL0     H10197   9.112   0.915   2.717 -0.1751 -0.3658 -0.2643
   74MOL0     H10198   9.528   1.189   2.878 -0.1999 -0.1933 -0.6786
   74MOL0     H10199   9.773   1.216   2.861  1.0007  0.4658 -1.3070
   74MOL0     H10200   9.925   1.146   2.445  1.5589 -2.9970 -1.8145
   74MOL0     H10201  10.072   1.191   2.532  0.8640 -2.1414  0.1347
   74MOL0     H10202   9.955   0.909   2.556  1.5166 -1.8541 -0.9837
   74MOL0     H10203  10.108   0.966   2.621 -1.5343  3.8505  1.8460
   74MOL0     H10204  10.027   0.930   2.338  0.1024 -1.3085  1.4978
   74MOL0     H10205  10.170   1.037   2.381  2.6342 -1.5272  0.9463
   74MOL0     H10206  10.156   0.756   2.494  1.7213 -0.7412 -0.3963
   74MOL0     H10207  10.304   0.840   2.440  0.3823 -1.5018 -0.1041
   74MOL0     H10208  10.240   0.680   2.074 -0.3737 -1.0699  1.0157
   74MOL0     H10209   9.761   0.976   2.513 -2.5438 -1.1971  0.3976
   74MOL0     H10210   9.621   0.818   2.481 -0.9871 -0.4348 -2.7464
   74MOL0     H10211   9.472   0.806   2.570  1.5903 -1.4893 -0.4203
   74MOL0     H10212   9.483   0.917   2.437  0.3210 -1.2529 -0.0320
   75MOL0     O10213   9.536   0.482   6.881 -0.0619  0.7017  0.0075
   75MOL0     C10214   9.460   0.550   6.818 -0.4150  0.1743  0.2642
   75MOL0     O10215   9.422   0.528   6.686  0.5989  0.3955  0.0854
   75MOL0     C10216   9.473   0.414   6.639 -0.1127  0.5692 -0.2417
   75MOL0     C10217   9.585   0.411   6.555 -0.2585  0.4124  0.3241
   75MOL0     C10218   9.647   0.295   6.509  0.2681 -0.1285 -0.4363
   75MOL0     C10219   9.587   0.171   6.540  0.5395  0.3168 -0.4647
   75MOL0     O10220   9.646   0.055   6.491 -0.2166  0.3032 -0.5278
   75MOL0     C10221   9.726   0.000   6.601  0.3704  0.2222  0.9410
   75MOL0     C10222   9.688  -0.144   6.609 -0.4258 -0.3569 -0.0278
   75MOL0     C10223   9.766  -0.217   6.710  0.1685 -0.0694  0.1571
   75MOL0     C10224   9.694  -0.350   6.744 -0.6744  0.2043  0.3978
   75MOL0     C10225   9.771  -0.428   6.853  0.2681  0.0701  0.9200
   75MOL0     C10226   9.912  -0.486   6.816  0.9801  0.4638  0.0045
   75MOL0     C10227   9.979  -0.546   6.940  0.5555  0.1018  0.2821
   75MOL0     C10228  10.114  -0.614   6.899 -0.1152 -0.0879  0.9616
   75MOL0     N10229  10.195  -0.639   7.021  0.2238  0.4158  0.7709
   75MOL0     C10230  10.255  -0.546   7.100 -0.3087  0.0500  0.4022
   75MOL0     C10231  10.318  -0.615   7.201 -0.3216  0.8147  0.1096
   75MOL0     C10232  10.418  -0.555   7.297  0.7449  0.1328  0.0114
   75MOL0     C10233  10.562  -0.568   7.239  0.4910  0.5649  0.2954
   75MOL0     C10234  10.671  -0.526   7.342  0.8080  0.3446  0.1426
   75MOL0     C10235  10.812  -0.552   7.286 -0.1984 -0.5111 -0.0181
   75MOL0     O10236  10.843  -0.462   7.180 -0.8596  0.1810  0.1169
   75MOL0     C10237  10.960  -0.475   7.110  0.5872 -0.3606 -0.0275
   75MOL0     C10238  10.971  -0.411   6.989  0.2658 -0.1385 -0.0825
   75MOL0     C10239  11.089  -0.426   6.913  0.0344 -0.3781  0.1760
   75MOL0     C10240  11.085  -0.348   6.788 -0.4553 -1.3789 -0.1443
   75MOL0     C10241  11.204  -0.501   6.955  0.2544 -0.0168  0.6312
   75MOL0     C10242  11.334  -0.512   6.873  0.1222  0.7880  0.0005
   75MOL0     O10243  11.440  -0.555   6.938 -0.1567 -0.8304 -0.5178
   75MOL0     C10244  11.566  -0.543   6.881 -0.0201  0.3553  0.7209
   75MOL0     C10245  11.657  -0.650   6.884  0.3067 -0.4878  0.0545
   75MOL0     C10246  11.788  -0.627   6.828 -0.5177 -0.0592  0.1373
   75MOL0     C10247  11.819  -0.503   6.759  0.8266  0.1429 -0.0345
   75MOL0     O10248  11.940  -0.470   6.700  0.7508 -0.2230  0.4468
   75MOL0     C10249  12.034  -0.578   6.680  0.3768 -0.8510  0.7415
   75MOL0     C10250  12.162  -0.504   6.645 -0.4769 -0.3475 -0.0950
   75MOL0     C10251  12.247  -0.482   6.782 -0.7632  0.6669  0.4090
   75MOL0     C10252  12.383  -0.410   6.758  0.6186 -0.3412 -0.2723
   75MOL0     C10253  12.484  -0.429   6.871 -1.2139 -0.3675 -1.2978
   75MOL0     C10254  12.595  -0.321   6.850  0.0734  0.0288  0.0315
   75MOL0     C10255  12.708  -0.322   6.952 -0.4855 -0.1223 -0.1008
   75MOL0     C10256  12.812  -0.220   6.912 -0.0238  0.1108  0.5247
   75MOL0    Cl10257  12.925  -0.199   7.044 -0.2989 -0.0705  0.1041
   75MOL0     C10258  11.725  -0.403   6.759  0.6887  0.0421  0.4589
   75MOL0     C10259  11.601  -0.420   6.823  0.6289 -0.5813 -1.1205
   75MOL0     O10260  11.331  -0.496   6.749 -0.6176  0.6185  0.0880
   75MOL0     C10261  11.189  -0.565   7.081 -0.5591  0.3923 -0.4972
   75MOL0     C10262  11.074  -0.549   7.159 -0.4417 -1.0576 -0.4539
   75MOL0     N10263  10.296  -0.748   7.176  0.0361  0.0539 -0.1296
   75MOL0     N10264  10.211  -0.762   7.077  0.4456  0.0905  0.4126
   75MOL0     C10265   9.481   0.177   6.626  0.5657 -0.3097 -0.2131
   75MOL0     C10266   9.421   0.294   6.673 -0.9834  0.1942  0.0899
   75MOL0     C10267   9.396   0.662   6.890 -0.1665 -0.2749 -0.4626
   75MOL0     C10268   9.281   0.724   6.830 -0.0815  0.2304 -0.2808
   75MOL0     C10269   9.228   0.852   6.876 -0.0425 -0.1356  1.0011
   75MOL0     C10270   9.280   0.913   6.985  0.2632  0.5717 -0.7689
   75MOL0     O10271   9.220   1.031   7.027 -0.7372  0.1681  0.4038
   75MOL0     C10272   9.269   1.085   7.143 -0.1215  0.1511 -0.1232
   75MOL0     C10273   9.175   1.197   7.173  0.2315 -0.5512 -0.2639
   75MOL0     C10274   9.214   1.295   7.284  0.1547 -0.0938 -0.1395
   75MOL0     C10275   9.139   1.430   7.294  0.1734 -0.5103 -0.4913
   75MOL0     C10276   8.995   1.410   7.344 -0.0962  0.7103  0.7660
   75MOL0     C10277   8.887   1.395   7.384  0.4391  0.5368 -0.0517
   75MOL0     C10278   9.378   0.840   7.059 -0.9351 -0.3119 -0.3173
   75MOL0     C10279   9.446   0.725   7.009  0.1597  0.2509  0.7550
   75MOL0     C10280   9.561   0.674   7.092  0.1598  0.5597 -0.1551
   75MOL0     H10281   9.627   0.501   6.510  1.9574 -0.4653  0.4915
   75MOL0     H10282   9.732   0.310   6.443  2.0551  0.1033  1.8018
   75MOL0     H10283   9.695   0.039   6.698  2.0371 -3.6794  3.2424
   75MOL0     H10284   9.833   0.017   6.584  1.1531 -2.4083  2.7525
   75MOL0     H10285   9.582  -0.145   6.638 -0.9988  0.0264 -1.9584
   75MOL0     H10286   9.692  -0.190   6.510  0.9209  2.4127 -1.3563
   75MOL0     H10287   9.862  -0.237   6.660 -0.4668 -0.0047 -1.1317
   75MOL0     H10288   9.773  -0.159   6.802  3.1000  2.3942 -1.4044
   75MOL0     H10289   9.593  -0.332   6.784 -1.5606 -5.6143  1.6015
   75MOL0     H10290   9.681  -0.417   6.659 -2.1694 -1.3533  1.7707
   75MOL0     H10291   9.704  -0.511   6.878 -4.8805  3.3178 -0.4948
   75MOL0     H10292   9.784  -0.363   6.940  1.0294  0.0839  0.7977
   75MOL0     H10293   9.916  -0.553   6.729  3.5845 -0.0143  0.3946
   75MOL0     H10294   9.969  -0.399   6.783  2.8929 -0.5037  0.5865
   75MOL0     H10295   9.917  -0.624   6.985 -0.3110  0.2498 -0.6206
   75MOL0     H10296   9.992  -0.467   7.016 -2.4029  1.1035 -0.1201
   75MOL0     H10297  10.088  -0.712   6.858  1.6928 -0.2891  0.2168
   75MOL0     H10298  10.173  -0.559   6.825 -0.6976 -1.6794 -0.7599
   75MOL0     H10299  10.257  -0.438   7.088 -2.1560 -0.0988 -1.6467
   75MOL0     H10300  10.402  -0.610   7.391 -1.1335  0.7161  0.0659
   75MOL0     H10301  10.389  -0.452   7.319  2.9670  0.6833  0.6642
   75MOL0     H10302  10.574  -0.669   7.200  1.6931  0.7600  0.1256
   75MOL0     H10303  10.570  -0.504   7.150  0.0542 -1.0625 -0.9680
   75MOL0     H10304  10.670  -0.418   7.361  2.4447  0.1705  1.5020
   75MOL0     H10305  10.650  -0.581   7.435 -0.9312 -0.6104 -0.7642
   75MOL0     H10306  10.879  -0.532   7.370 -1.5213 -0.6932  1.1201
   75MOL0     H10307  10.817  -0.659   7.261  1.1215 -0.1453 -1.4319
   75MOL0     H10308  10.892  -0.349   6.946  1.6348  1.3810 -0.5268
   75MOL0     H10309  10.997  -0.283   6.782  1.1840  0.9744  0.2047
   75MOL0     H10310  11.081  -0.398   6.690 -0.0277 -1.1256 -0.2936
   75MOL0     H10311  11.160  -0.271   6.769 -3.7324  1.3698 -3.5448
   75MOL0     H10312  11.617  -0.739   6.931 -1.5263  1.0961  1.6872
   75MOL0     H10313  11.867  -0.701   6.830  1.9557  2.4225  0.9922
   75MOL0     H10314  12.049  -0.641   6.769  2.0944  1.6219  2.3499
   75MOL0     H10315  11.991  -0.625   6.591 -1.5223 -1.1475  1.7517
   75MOL0     H10316  12.223  -0.561   6.575 -0.4455 -0.2766 -0.1251
   75MOL0     H10317  12.136  -0.413   6.592 -0.2604 -0.8510 -1.0910
   75MOL0     H10318  12.283  -0.577   6.824 -0.0255  0.2853 -1.0185
   75MOL0     H10319  12.197  -0.422   6.859  0.1901  0.7758  0.9686
   75MOL0     H10320  12.365  -0.303   6.741 -2.8037 -0.7348  0.2829
   75MOL0     H10321  12.425  -0.451   6.665  0.5162  1.1698 -1.0123
   75MOL0     H10322  12.439  -0.427   6.970  1.3511 -1.8661  0.0027
   75MOL0     H10323  12.529  -0.528   6.860 -1.6739 -0.5913 -1.1810
   75MOL0     H10324  12.541  -0.226   6.842 -2.0717 -1.2099 -1.4186
   75MOL0     H10325  12.647  -0.333   6.755  1.6922  3.8524  0.2615
   75MOL0     H10326  12.768  -0.413   6.967  0.9633  1.0467  1.5898
   75MOL0     H10327  12.660  -0.290   7.044 -3.9139 -0.7096 -1.5338
   75MOL0     H10328  12.761  -0.125   6.897 -2.2771 -1.2778 -1.5034
   75MOL0     H10329  12.863  -0.259   6.823 -0.3219 -1.2051  0.9034
   75MOL0     H10330  11.745  -0.308   6.709 -0.8565  1.4444  2.3461
   75MOL0     H10331  11.533  -0.338   6.842  1.1715 -0.8172  2.7172
   75MOL0     H10332  11.281  -0.608   7.121  0.8932  4.3240  0.8294
   75MOL0     H10333  11.076  -0.599   7.255 -2.1158  1.0745  0.7882
   75MOL0     H10334   9.430   0.087   6.661  1.2463 -0.2897  0.8449
   75MOL0     H10335   9.336   0.302   6.741  0.3194  0.1997  1.7839
   75MOL0     H10336   9.235   0.684   6.740 -0.2200  0.2613 -0.2249
   75MOL0     H10337   9.141   0.877   6.816  0.8888  0.4444 -0.1722
   75MOL0     H10338   9.272   1.010   7.222 -0.1253  0.5922  0.2967
   75MOL0     H10339   9.368   1.126   7.123  0.4098 -1.8779 -2.1357
   75MOL0     H10340   9.085   1.145   7.207  1.2162 -2.0581  0.1477
   75MOL0     H10341   9.148   1.264   7.091  0.9222  1.7259  1.2714
   75MOL0     H10342   9.209   1.245   7.382  0.1188 -0.2209 -0.2057
   75MOL0     H10343   9.321   1.312   7.273 -0.0286  0.8346 -0.5185
   75MOL0     H10344   9.138   1.489   7.202 -0.7501  1.0392  0.4817
   75MOL0     H10345   9.191   1.493   7.366 -0.0704 -1.0082  0.1301
   75MOL0     H10346   8.783   1.384   7.406  0.1158  1.7989 -0.8876
   75MOL0     H10347   9.422   0.865   7.155  1.4249 -1.4693 -1.0288
   75MOL0     H10348   9.528   0.619   7.181  2.3837  0.7845  0.8944
   75MOL0     H10349   9.628   0.618   7.027 -0.7268  1.3038 -1.7590
   75MOL0     H10350   9.626   0.751   7.133 -0.0725  1.2650 -1.0871
   76MOL0     O10351   1.946   5.019   2.722  0.0511  0.0152  0.9033
   76MOL0     C10352   1.844   5.017   2.799 -0.4761  1.4888  0.0823
   76MOL0     O10353   1.829   5.083   2.923 -0.2159 -0.7919 -0.0994
   76MOL0     C10354   1.938   5.159   2.959  0.0618 -0.1475  0.2901
   76MOL0     C10355   1.999   5.137   3.087 -0.8115  0.1506 -0.6455
   76MOL0     C10356   2.121   5.204   3.128 -0.1747 -0.4919 -0.4495
   76MOL0     C10357   2.165   5.306   3.041  0.4428 -0.1401  0.3748
   76MOL0     O10358   2.265   5.389   3.081  0.1890  0.1092 -0.4111
   76MOL0     C10359   2.226   5.468   3.193 -0.1422 -0.2859 -0.1572
   76MOL0     C10360   2.304   5.604   3.183  0.1303 -0.2808  0.1838
   76MOL0     C10361   2.451   5.585   3.224  0.7192  0.0726 -0.1780
   76MOL0     C10362   2.502   5.713   3.265 -0.2527 -1.1745 -0.2537
   76MOL0     C10363   2.646   5.705   3.311 -0.2270 -0.2159 -0.1742
   76MOL0     C10364   2.710   5.822   3.393  0.1161 -0.2113 -0.6517
   76MOL0     C10365   2.731   5.937   3.293  0.4893  0.4675  0.0063
   76MOL0     C10366   2.772   6.077   3.351  0.0254  0.4695 -0.4499
   76MOL0     N10367   2.902   6.063   3.408 -1.0979  0.8378 -0.1137
   76MOL0     C10368   3.014   6.025   3.340 -0.0684  0.8486 -0.1168
   76MOL0     C10369   3.110   6.021   3.438  0.0057 -0.3685  0.4201
   76MOL0     C10370   3.253   6.012   3.405  0.3836  0.6279  0.4300
   76MOL0     C10371   3.312   6.152   3.414  0.2595 -0.4740  0.0616
   76MOL0     C10372   3.368   6.164   3.555 -0.5396  0.3140 -0.2034
   76MOL0     C10373   3.518   6.132   3.562  1.0014  0.6554  0.1587
   76MOL0     O10374   3.582   6.166   3.679  0.5654 -0.4685 -0.1259
   76MOL0     C10375   3.720   6.158   3.685 -0.2220 -0.1790 -0.2222
   76MOL0     C10376   3.790   6.216   3.794  0.5516  0.5532  0.5835
   76MOL0     C10377   3.929   6.200   3.809 -0.0846  0.0575 -0.8318
   76MOL0     C10378   3.981   6.280   3.926  0.5161  0.0854 -0.1331
   76MOL0     C10379   4.009   6.126   3.719  0.1407 -0.6812  0.4415
   76MOL0     C10380   4.140   6.090   3.749  0.2976 -0.1384 -0.7179
   76MOL0     O10381   4.174   6.088   3.890  0.2479  0.4924 -0.4252
   76MOL0     C10382   4.309   6.085   3.928  0.8764 -0.4998 -0.1443
   76MOL0     C10383   4.412   6.116   3.842  0.1761 -0.0842  1.2906
   76MOL0     C10384   4.546   6.091   3.886 -0.6985  0.7007  0.3709
   76MOL0     C10385   4.578   6.040   4.010  0.0965 -0.7784  0.5622
   76MOL0     O10386   4.715   6.025   4.035 -0.3916  0.5916  0.5719
   76MOL0     C10387   4.757   6.013   4.166  0.3595  0.0376 -0.2619
   76MOL0     C10388   4.899   5.969   4.171 -1.0258 -0.3931 -0.0952
   76MOL0     C10389   5.002   6.066   4.105  0.0327  0.2686  0.0849
   76MOL0     C10390   5.151   6.026   4.118  0.8854  0.6249  0.3545
   76MOL0     C10391   5.249   6.119   4.049 -0.9763 -0.3477  0.8689
   76MOL0     C10392   5.397   6.066   4.067  1.2258 -0.0455  0.0237
   76MOL0     C10393   5.499   6.177   4.028  0.3298  0.7849  0.1506
   76MOL0     C10394   5.505   6.193   3.876  0.0309  0.2412 -0.2527
   76MOL0    Cl10395   5.570   6.039   3.795  0.2215 -0.3874 -0.2904
   76MOL0     C10396   4.470   6.016   4.099  0.2884 -0.5746  0.1776
   76MOL0     C10397   4.334   6.043   4.059 -0.7013 -0.7503 -0.7575
   76MOL0     O10398   4.211   6.060   3.655 -0.4717  0.3757 -0.2303
   76MOL0     C10399   3.941   6.080   3.608 -0.5707  0.1320  0.0866
   76MOL0     C10400   3.799   6.095   3.586 -0.7845 -0.0230 -0.6199
   76MOL0     N10401   3.055   6.044   3.560 -0.0872  0.1617 -0.9822
   76MOL0     N10402   2.932   6.075   3.537 -0.8544 -0.1894 -0.1751
   76MOL0     C10403   2.100   5.333   2.924  0.0174 -0.9695  0.5065
   76MOL0     C10404   1.985   5.262   2.882  0.2537 -0.5244  1.0074
   76MOL0     C10405   1.715   4.941   2.760 -0.3568 -0.2256  0.3323
   76MOL0     C10406   1.594   4.994   2.808  0.4318 -0.3845  0.4536
   76MOL0     C10407   1.476   4.940   2.773  0.6577 -0.1357  0.1928
   76MOL0     C10408   1.467   4.839   2.683 -0.1909  0.7447 -0.0836
   76MOL0     O10409   1.343   4.790   2.663  0.4845 -0.3035  0.2653
   76MOL0     C10410   1.294   4.670   2.730  0.1143  0.3351  0.1874
   76MOL0     C10411   1.162   4.612   2.675 -0.3840 -1.0924  0.2794
   76MOL0     C10412   1.034   4.689   2.713  0.4817 -0.2093  0.9138
   76MOL0     C10413   0.905   4.629   2.651  0.0471  0.3570 -0.5345
   76MOL0     C10414   0.866   4.504   2.712  0.3985 -0.3481 -0.1146
   76MOL0     C10415   0.836   4.384   2.737  0.2287 -0.4384 -0.4271
   76MOL0     C10416   1.579   4.791   2.624 -0.2180 -0.1431 -0.4146
   76MOL0     C10417   1.710   4.845   2.659  0.6988  0.3159  1.1227
   76MOL0     C10418   1.830   4.795   2.577 -1.1222  0.0452 -0.1660
   76MOL0     H10419   1.959   5.055   3.145 -0.1727 -0.5739 -1.1995
   76MOL0     H10420   2.167   5.178   3.222  3.0864 -2.1242 -2.3344
   76MOL0     H10421   2.255   5.414   3.284 -3.5312 -0.9303  0.6928
   76MOL0     H10422   2.117   5.475   3.202 -0.1931 -0.4309 -0.6520
   76MOL0     H10423   2.308   5.641   3.080 -0.1079  2.2813  1.0146
   76MOL0     H10424   2.243   5.670   3.245 -0.3440 -1.5000  1.0467
   76MOL0     H10425   2.458   5.528   3.317 -1.5132  0.8811  0.5552
   76MOL0     H10426   2.509   5.542   3.143  2.5684 -0.8799  1.5671
   76MOL0     H10427   2.494   5.780   3.179  0.9904 -0.2369  0.3292
   76MOL0     H10428   2.435   5.742   3.347 -1.1933  2.2324 -2.0542
   76MOL0     H10429   2.713   5.681   3.227  1.0822  0.6009  0.5957
   76MOL0     H10430   2.637   5.619   3.379 -1.0565  0.2288  0.2916
   76MOL0     H10431   2.653   5.858   3.479  1.6159  2.1578 -0.5403
   76MOL0     H10432   2.801   5.787   3.442  0.4845  0.5085 -0.7986
   76MOL0     H10433   2.638   5.951   3.236 -1.3224 -2.2496  2.0429
   76MOL0     H10434   2.810   5.914   3.222  1.0786  2.5987 -0.0947
   76MOL0     H10435   2.771   6.155   3.275 -1.6915  1.0835  0.1575
   76MOL0     H10436   2.708   6.096   3.438 -0.2068 -1.4443 -0.1364
   76MOL0     H10437   3.023   6.008   3.233  1.4896 -0.2790  0.1419
   76MOL0     H10438   3.280   5.977   3.305  1.0761  0.5283  0.6531
   76MOL0     H10439   3.300   5.946   3.478  1.5036 -0.5091 -1.2544
   76MOL0     H10440   3.395   6.172   3.346 -0.4512 -1.1593 -1.0265
   76MOL0     H10441   3.233   6.225   3.394  1.0103  0.1897 -0.5063
   76MOL0     H10442   3.353   6.269   3.583 -2.6629  0.5364 -1.9336
   76MOL0     H10443   3.310   6.107   3.629 -0.0270  2.6358  2.1410
   76MOL0     H10444   3.535   6.025   3.546  0.2821  0.7191 -1.2318
   76MOL0     H10445   3.575   6.178   3.480  1.8975 -0.4566  0.1446
   76MOL0     H10446   3.733   6.275   3.866  0.4398  0.1111  0.8627
   76MOL0     H10447   4.081   6.320   3.913 -0.0046  0.7775 -2.3916
   76MOL0     H10448   3.986   6.207   4.007 -0.2154  2.0940  1.8289
   76MOL0     H10449   3.915   6.358   3.966 -0.5488 -0.7865 -0.1199
   76MOL0     H10450   4.395   6.157   3.743 -0.1124 -0.4505  1.1880
   76MOL0     H10451   4.630   6.104   3.818  0.0450 -0.6887  0.9823
   76MOL0     H10452   4.740   6.094   4.237  1.7719 -0.7089  0.9841
   76MOL0     H10453   4.701   5.931   4.213 -1.3719  0.6834 -1.1033
   76MOL0     H10454   4.933   5.972   4.275  0.6276  2.8470 -0.6085
   76MOL0     H10455   4.909   5.867   4.134  0.7122 -0.7573  1.2517
   76MOL0     H10456   4.986   6.167   4.144 -0.2667  0.8644 -1.4906
   76MOL0     H10457   4.971   6.082   4.001 -1.8332  0.4198  0.6301
   76MOL0     H10458   5.175   5.924   4.085  2.4684  1.1632 -0.2599
   76MOL0     H10459   5.181   6.031   4.224  2.7305 -0.4745 -0.0587
   76MOL0     H10460   5.226   6.141   3.944  1.8801 -0.4371  0.1500
   76MOL0     H10461   5.238   6.213   4.104  1.5960  0.2952  0.3871
   76MOL0     H10462   5.396   5.976   4.005 -1.2017 -0.8490  1.0680
   76MOL0     H10463   5.417   6.034   4.170 -1.1704 -0.6151  0.3778
   76MOL0     H10464   5.594   6.150   4.075 -0.4181 -0.5213  0.9757
   76MOL0     H10465   5.462   6.272   4.067 -1.1795  0.0083  0.6632
   76MOL0     H10466   5.578   6.269   3.845  0.4088 -0.1272 -0.2872
   76MOL0     H10467   5.410   6.217   3.828 -0.1585  1.5258  0.7103
   76MOL0     H10468   4.479   5.967   4.195 -0.8440  1.0544  1.1637
   76MOL0     H10469   4.246   6.028   4.120 -0.4867  2.2488  0.4621
   76MOL0     H10470   4.004   6.029   3.535 -0.8091 -0.5056  0.3251
   76MOL0     H10471   3.757   6.041   3.502 -1.8225  1.5196 -1.1213
   76MOL0     H10472   2.146   5.410   2.862  1.0392 -1.6038  0.4542
   76MOL0     H10473   1.934   5.298   2.793  1.7539  1.1766  0.7798
   76MOL0     H10474   1.596   5.069   2.886  0.0554 -0.3233  0.4075
   76MOL0     H10475   1.387   4.964   2.831 -1.6773 -1.6263 -2.5270
   76MOL0     H10476   1.376   4.598   2.720 -1.2340 -0.9892 -2.6298
   76MOL0     H10477   1.275   4.692   2.835  0.5103 -2.1007  0.8267
   76MOL0     H10478   1.154   4.512   2.718 -0.1996  0.1990  3.5916
   76MOL0     H10479   1.171   4.599   2.567 -0.3912 -0.7127  0.2325
   76MOL0     H10480   1.023   4.686   2.821  1.8752 -1.4178  1.0479
   76MOL0     H10481   1.046   4.792   2.679  2.8723 -0.0521  2.0271
   76MOL0     H10482   0.904   4.633   2.542 -1.1167 -1.0540 -0.6036
   76MOL0     H10483   0.827   4.700   2.680  0.8520  1.1288 -0.2178
   76MOL0     H10484   0.830   4.277   2.748 -0.2420 -0.4257 -0.5479
   76MOL0     H10485   1.575   4.721   2.542  0.5499 -1.5260  0.6771
   76MOL0     H10486   1.873   4.877   2.520  2.0496  1.0538  3.2868
   76MOL0     H10487   1.909   4.761   2.644  0.2740  1.3170 -1.1131
   76MOL0     H10488   1.796   4.718   2.508 -2.3402 -2.2061  2.7156
   77MOL0     O10489   4.132  11.034   9.818  0.0556  1.0403  0.3415
   77MOL0     C10490   4.050  11.042   9.733 -0.3752 -0.3564  0.4018
   77MOL0     O10491   4.062  11.120   9.615  0.1849  0.4326 -0.1598
   77MOL0     C10492   4.189  11.144   9.587  0.2886 -0.2300 -0.3543
   77MOL0     C10493   4.229  11.274   9.582  0.7250  0.4496  0.2332
   77MOL0     C10494   4.356  11.314   9.547 -0.5001  0.3641  0.6046
   77MOL0     C10495   4.446  11.214   9.504  0.4581  0.9285  0.2566
   77MOL0     O10496   4.573  11.242   9.475  0.7477  0.7333  0.1174
   77MOL0     C10497   4.663  11.157   9.541  0.5331 -0.4556  0.5630
   77MOL0     C10498   4.800  11.233   9.553 -0.3239  0.7730 -0.7393
   77MOL0     C10499   4.885  11.204   9.671 -0.2444 -0.3387  0.1820
   77MOL0     C10500   5.021  11.268   9.646 -0.2941 -0.2995 -0.7499
   77MOL0     C10501   5.133  11.216   9.748  0.3935 -0.9431  0.5140
   77MOL0     C10502   5.118  11.267   9.886 -0.1687 -0.9471 -0.6392
   77MOL0     C10503   5.253  11.253   9.971  0.8306 -0.4610  0.2499
   77MOL0     C10504   5.341  11.368   9.933  0.5667 -0.5767  0.0959
   77MOL0     N10505   5.469  11.368  10.020 -0.6538  0.3586  0.0745
   77MOL0     C10506   5.560  11.264  10.048 -0.0680  0.2903  0.6036
   77MOL0     C10507   5.637  11.316  10.150  0.0886  0.1553  0.3381
   77MOL0     C10508   5.731  11.249  10.248 -0.0708 -0.6846 -0.4701
   77MOL0     C10509   5.874  11.302  10.223 -0.1704  0.4974 -0.2835
   77MOL0     C10510   5.973  11.254  10.330  0.0941  0.0009 -0.7371
   77MOL0     C10511   5.945  11.309  10.469 -0.2040 -0.5460 -0.3997
   77MOL0     O10512   6.063  11.383  10.507  0.9113 -0.0367  0.0723
   77MOL0     C10513   6.176  11.314  10.533 -0.5163 -0.3150  0.4303
   77MOL0     C10514   6.212  11.176  10.509  0.3115 -0.0263 -0.3827
   77MOL0     C10515   6.339  11.126  10.521 -1.2854  0.1644 -0.9397
   77MOL0     C10516   6.360  10.983  10.496  0.6432  0.9261  1.0260
   77MOL0     C10517   6.446  11.209  10.565  0.1216  0.1327  0.4403
   77MOL0     C10518   6.588  11.171  10.600  0.3609  0.0607  0.8657
   77MOL0     O10519   6.676  11.268  10.604  0.0805  0.0016  0.2872
   77MOL0     C10520   6.804  11.245  10.559 -0.0227  0.4765 -0.1663
   77MOL0     C10521   6.852  11.204  10.432 -0.0926 -0.2451 -0.4480
   77MOL0     C10522   6.990  11.208  10.419  1.1942  0.2488  0.4029
   77MOL0     C10523   7.081  11.237  10.522 -0.7795  0.5869 -0.3582
   77MOL0     O10524   7.216  11.227  10.500  0.2321  0.3310 -0.0858
   77MOL0     C10525   7.295  11.329  10.558  0.3463 -0.7517  0.3834
   77MOL0     C10526   7.427  11.326  10.495 -0.8297 -0.0133 -0.6169
   77MOL0     C10527   7.533  11.421  10.554 -0.0234 -0.9608  0.2621
   77MOL0     C10528   7.675  11.390  10.512 -0.2273 -0.1497 -0.0585
   77MOL0     C10529   7.768  11.513  10.516  0.2761  0.2888 -0.8133
   77MOL0     C10530   7.776  11.579  10.657  1.2134 -0.4911 -0.3020
   77MOL0     C10531   7.863  11.704  10.651 -1.6032  1.6017  0.4946
   77MOL0     C10532   7.924  11.736  10.791  0.1415  0.4263 -0.1138
   77MOL0    Cl10533   8.058  11.621  10.813 -0.0884  0.1044  0.0727
   77MOL0     C10534   7.027  11.267  10.650  0.2940  0.1198 -0.3981
   77MOL0     C10535   6.890  11.266  10.671  0.1753  0.8524  0.0966
   77MOL0     O10536   6.619  11.054  10.636  0.1004 -0.2897  0.7352
   77MOL0     C10537   6.416  11.344  10.582  0.8436 -0.2711  0.3762
   77MOL0     C10538   6.288  11.390  10.571  0.6612 -0.7669 -0.2909
   77MOL0     N10539   5.608  11.450  10.147 -0.4054  0.5092 -0.9481
   77MOL0     N10540   5.510  11.479  10.076  0.0773  0.0531 -0.0106
   77MOL0     C10541   4.396  11.078   9.497 -0.4980 -0.5174 -0.2070
   77MOL0     C10542   4.268  11.039   9.546 -0.0016  0.2274 -0.1772
   77MOL0     C10543   3.923  10.971   9.767 -0.5015  0.1105  0.8539
   77MOL0     C10544   3.908  10.919   9.902 -0.2511  0.0986 -0.4662
   77MOL0     C10545   3.787  10.855   9.942 -0.8553  0.3617 -0.5070
   77MOL0     C10546   3.686  10.831   9.846  0.5778 -0.1542 -0.4925
   77MOL0     O10547   3.567  10.760   9.884 -0.5672 -0.0853 -0.2549
   77MOL0     C10548   3.559  10.703  10.016  0.9678 -0.3651  0.4787
   77MOL0     C10549   3.415  10.658  10.042  0.0071  0.5234  0.1911
   77MOL0     C10550   3.336  10.617   9.916  0.0868  0.1547 -0.0394
   77MOL0     C10551   3.196  10.553   9.938  0.2940  0.0568 -0.4804
   77MOL0     C10552   3.104  10.634  10.016  0.4387 -1.1148  0.1757
   77MOL0     C10553   3.021  10.707  10.066 -1.2427 -0.0772 -0.2488
   77MOL0     C10554   3.704  10.867   9.708 -0.8428 -0.2405 -0.8687
   77MOL0     C10555   3.818  10.943   9.669  0.1909 -0.1575 -0.6476
   77MOL0     C10556   3.815  10.995   9.530 -0.0654  0.1321  0.1200
   77MOL0     H10557   4.161  11.350   9.620 -0.7707 -1.3124  1.2306
   77MOL0     H10558   4.390  11.417   9.546  1.4372 -0.1673 -2.0067
   77MOL0     H10559   4.684  11.072   9.475 -0.3471 -0.3935  0.1821
   77MOL0     H10560   4.621  11.116   9.634  0.4177  0.3389  0.8635
   77MOL0     H10561   4.857  11.208   9.464 -0.1768 -1.2259 -0.1286
   77MOL0     H10562   4.786  11.342   9.559  0.3641  0.7723  3.2433
   77MOL0     H10563   4.852  11.255   9.763  0.5120 -0.6822  0.6499
   77MOL0     H10564   4.896  11.099   9.698 -2.1164 -0.3003  1.2860
   77MOL0     H10565   5.061  11.246   9.546  0.3120  0.0515 -0.5845
   77MOL0     H10566   5.009  11.376   9.650 -0.7930 -0.2912 -1.8874
   77MOL0     H10567   5.233  11.230   9.706  0.8539 -1.4264  1.4363
   77MOL0     H10568   5.121  11.108   9.761 -1.2564 -0.7152  1.1234
   77MOL0     H10569   5.083  11.370   9.878  1.3476 -0.4589 -1.3353
   77MOL0     H10570   5.037  11.208   9.929 -1.6442  0.3706 -1.5211
   77MOL0     H10571   5.297  11.154   9.950 -0.1377 -0.5969 -1.2681
   77MOL0     H10572   5.230  11.249  10.078  2.7020 -2.1224  0.6594
   77MOL0     H10573   5.368  11.357   9.828 -1.3116  0.7703 -0.5967
   77MOL0     H10574   5.288  11.464   9.939 -0.6863 -1.2676  0.5867
   77MOL0     H10575   5.555  11.158  10.027  1.3445  0.2267  0.5368
   77MOL0     H10576   5.727  11.139  10.253 -0.6077 -0.6193  1.1682
   77MOL0     H10577   5.679  11.283  10.338  0.7089 -3.4973  1.1742
   77MOL0     H10578   5.904  11.276  10.121  0.0134  0.4911 -0.2277
   77MOL0     H10579   5.873  11.411  10.212  0.5893  0.5610  0.2570
   77MOL0     H10580   5.975  11.146  10.341 -2.1458 -0.2393 -2.0176
   77MOL0     H10581   6.066  11.299  10.294  1.3568 -1.3435  0.7216
   77MOL0     H10582   5.857  11.375  10.467  0.5809  0.5858 -3.8404
   77MOL0     H10583   5.934  11.219  10.530 -0.5597 -0.8811 -0.9449
   77MOL0     H10584   6.144  11.102  10.469 -0.1598 -0.0303  0.4046
   77MOL0     H10585   6.358  10.916  10.583  3.5857 -0.3275  0.2720
   77MOL0     H10586   6.460  10.965  10.455  0.1516 -0.3591  0.3379
   77MOL0     H10587   6.289  10.942  10.424  1.3608  1.1599  0.1666
   77MOL0     H10588   6.796  11.183  10.341  1.0275 -0.1825 -1.1802
   77MOL0     H10589   7.027  11.189  10.318 -0.4230 -0.0137 -0.1692
   77MOL0     H10590   7.257  11.430  10.542  3.1125  0.1535 -1.0745
   77MOL0     H10591   7.315  11.312  10.665 -0.7057 -1.0372  0.5418
   77MOL0     H10592   7.473  11.226  10.502  2.7593  1.5282  0.3706
   77MOL0     H10593   7.419  11.352  10.389  1.2686 -1.2647 -1.1393
   77MOL0     H10594   7.526  11.419  10.663  0.7018  1.5389  0.4187
   77MOL0     H10595   7.507  11.524  10.529 -0.6697 -1.0418  0.5910
   77MOL0     H10596   7.675  11.352  10.409 -3.2651  1.6600 -0.8578
   77MOL0     H10597   7.713  11.310  10.576 -0.6045 -1.5406 -1.4965
   77MOL0     H10598   7.861  11.486  10.464  0.4361 -0.0459 -0.3628
   77MOL0     H10599   7.719  11.586  10.451 -0.2791  2.0909  1.5134
   77MOL0     H10600   7.818  11.500  10.720  3.8256 -1.5350 -3.1029
   77MOL0     H10601   7.677  11.609  10.692  1.6199  1.3578 -0.6512
   77MOL0     H10602   7.797  11.786  10.622 -1.0317  1.4652 -1.3021
   77MOL0     H10603   7.938  11.686  10.573 -1.5198 -1.6349  1.1580
   77MOL0     H10604   7.850  11.729  10.872 -1.1958  1.3009 -1.2256
   77MOL0     H10605   7.974  11.833  10.792  1.9709 -0.4745  0.6536
   77MOL0     H10606   7.085  11.301  10.735  0.4072 -0.9196 -0.0573
   77MOL0     H10607   6.845  11.275  10.769 -1.0987  1.0581 -0.4850
   77MOL0     H10608   6.493  11.413  10.615  0.9334 -1.1120  2.0810
   77MOL0     H10609   6.263  11.495  10.583 -0.6743 -0.8858 -1.6991
   77MOL0     H10610   4.462  11.002   9.455  0.7971  0.6297 -0.3310
   77MOL0     H10611   4.217  10.944   9.537 -3.0848  1.8271 -0.8275
   77MOL0     H10612   3.988  10.935   9.974 -1.7488 -1.7946  1.7335
   77MOL0     H10613   3.780  10.820  10.044  0.3420 -1.7669 -1.0827
   77MOL0     H10614   3.631  10.621  10.029  2.0574  0.4613 -0.1844
   77MOL0     H10615   3.574  10.787  10.085  0.9092 -1.6643  2.1241
   77MOL0     H10616   3.362  10.747  10.079 -1.8237 -0.4135 -0.0315
   77MOL0     H10617   3.414  10.573  10.111 -3.8330 -0.7403 -1.1309
   77MOL0     H10618   3.334  10.705   9.851  0.8039  2.9697  3.4238
   77MOL0     H10619   3.392  10.540   9.862  0.7216  0.1286  0.6323
   77MOL0     H10620   3.212  10.462   9.997  1.6168  0.8023  0.3589
   77MOL0     H10621   3.152  10.520   9.843  0.2966  2.0685 -1.2385
   77MOL0     H10622   2.949  10.769  10.116 -0.0696  0.3382  1.0083
   77MOL0     H10623   3.619  10.840   9.646 -0.8888  0.9319 -1.3252
   77MOL0     H10624   3.736  10.942   9.475 -0.1596 -1.4502  1.6657
   77MOL0     H10625   3.796  11.102   9.524 -0.2391  0.1479  0.8579
   77MOL0     H10626   3.907  10.975   9.474 -0.4494  2.6868 -1.5944
   78MOL0     O10627   4.685   7.822   3.672  0.0694  0.1484 -0.7184
   78MOL0     C10628   4.654   7.823   3.791 -0.1857 -0.0580  0.8168
   78MOL0     O10629   4.738   7.823   3.899 -0.7171  0.4075 -0.4010
   78MOL0     C10630   4.870   7.865   3.867 -0.2116  0.5463 -0.0088
   78MOL0     C10631   4.971   7.764   3.856 -0.2246  0.5770 -0.3352
   78MOL0     C10632   5.099   7.797   3.813 -0.3853  0.5625 -0.3812
   78MOL0     C10633   5.123   7.935   3.779 -0.6158 -0.1103 -0.5320
   78MOL0     O10634   5.256   7.952   3.733  0.1842 -1.2376  0.2481
   78MOL0     C10635   5.296   8.092   3.734  0.1689 -0.0182 -0.7417
   78MOL0     C10636   5.447   8.092   3.713 -0.3795 -0.6973  0.6601
   78MOL0     C10637   5.520   8.220   3.725  0.1810  0.0514  0.7819
   78MOL0     C10638   5.669   8.208   3.672 -0.0311 -0.8643 -0.5106
   78MOL0     C10639   5.769   8.319   3.718 -0.5891  0.5290 -0.0904
   78MOL0     C10640   5.908   8.314   3.658 -0.1889  0.0261  0.3774
   78MOL0     C10641   5.998   8.429   3.704  0.8399 -0.9419  0.0764
   78MOL0     C10642   5.936   8.565   3.668 -0.3722 -0.0488  0.5102
   78MOL0     N10643   6.034   8.677   3.670  0.8438  0.4711 -0.3403
   78MOL0     C10644   6.128   8.692   3.774  0.2383 -0.2937 -0.0785
   78MOL0     C10645   6.152   8.823   3.785 -0.0239 -0.1529 -0.3984
   78MOL0     C10646   6.247   8.880   3.892 -0.2278 -0.0820 -0.3302
   78MOL0     C10647   6.398   8.822   3.888 -0.2554  0.2272 -0.1791
   78MOL0     C10648   6.472   8.879   3.759 -0.3607  0.1509  0.4297
   78MOL0     C10649   6.600   8.800   3.719  0.1429 -0.0273 -0.2940
   78MOL0     O10650   6.693   8.813   3.824  0.5917 -0.3044  0.0206
   78MOL0     C10651   6.816   8.847   3.793  0.3397 -0.2590  0.1281
   78MOL0     C10652   6.840   8.978   3.803 -0.1914 -0.5278 -0.1471
   78MOL0     C10653   6.956   9.038   3.757 -1.0265 -0.2188  0.5521
   78MOL0     C10654   6.988   9.184   3.764  0.3787 -0.2957 -0.4646
   78MOL0     C10655   7.054   8.956   3.686  0.0626 -0.0329 -0.4319
   78MOL0     C10656   7.175   9.011   3.621  1.0689 -0.0981 -0.3513
   78MOL0     O10657   7.158   9.102   3.513 -0.9884 -0.7033  0.0460
   78MOL0     C10658   7.274   9.160   3.470  0.1595 -0.6951 -0.5598
   78MOL0     C10659   7.292   9.298   3.471 -0.2844 -0.4145  0.2368
   78MOL0     C10660   7.412   9.362   3.428 -0.2932 -0.6743  0.1623
   78MOL0     C10661   7.511   9.278   3.362 -0.3567 -0.1471  0.7869
   78MOL0     O10662   7.628   9.323   3.304  0.5076  0.8374  0.0936
   78MOL0     C10663   7.672   9.459   3.311 -0.5443  0.5827 -0.9596
   78MOL0     C10664   7.613   9.547   3.200  0.3082  0.0833 -0.1908
   78MOL0     C10665   7.635   9.497   3.057 -0.0289 -0.8822 -0.3081
   78MOL0     C10666   7.780   9.452   3.036 -0.9735 -0.6532 -0.5272
   78MOL0     C10667   7.816   9.429   2.882  0.3712  0.5179  0.7526
   78MOL0     C10668   7.900   9.300   2.868 -0.0555  0.0508 -0.0663
   78MOL0     C10669   7.936   9.290   2.716 -0.1220 -0.3368  1.4266
   78MOL0     C10670   8.018   9.169   2.670  0.3058 -0.1182 -0.6008
   78MOL0    Cl10671   8.152   9.143   2.788 -0.1212  0.0951 -0.6543
   78MOL0     C10672   7.491   9.140   3.354  0.8146  0.7811  0.1345
   78MOL0     C10673   7.377   9.078   3.409  0.3024  0.1415  0.0415
   78MOL0     O10674   7.276   8.964   3.662 -0.2256 -0.5709 -0.0888
   78MOL0     C10675   7.025   8.815   3.683  0.6992 -0.7580 -0.1775
   78MOL0     C10676   6.913   8.759   3.739  0.0169 -0.6564 -0.3049
   78MOL0     N10677   6.080   8.891   3.692  0.5658  0.0533 -0.2176
   78MOL0     N10678   6.008   8.800   3.625  0.1115 -0.1552  0.2426
   78MOL0     C10679   5.026   8.031   3.787  0.3535 -0.1605  0.1564
   78MOL0     C10680   4.896   8.000   3.833 -0.3534 -0.2664  0.8054
   78MOL0     C10681   4.508   7.817   3.815  0.1436 -0.8364  0.1388
   78MOL0     C10682   4.476   7.785   3.947 -0.3802  0.4657  0.2445
   78MOL0     C10683   4.346   7.767   3.987  0.5664  0.2823  0.6867
   78MOL0     C10684   4.235   7.784   3.905 -0.2059 -0.0347 -0.1246
   78MOL0     O10685   4.100   7.759   3.948 -0.5000  0.4739 -0.0652
   78MOL0     C10686   4.003   7.874   3.961 -1.7681  0.1542  0.0629
   78MOL0     C10687   4.025   7.940   4.094 -0.4372 -0.4962 -0.1113
   78MOL0     C10688   3.933   8.059   4.111 -0.2361 -0.4153  0.2247
   78MOL0     C10689   3.939   8.126   4.250  0.1505 -0.1186 -0.1385
   78MOL0     C10690   3.885   8.058   4.366 -0.1561 -0.5774  0.6771
   78MOL0     C10691   3.838   8.014   4.466 -0.2752  1.0377  0.2660
   78MOL0     C10692   4.266   7.832   3.773  0.1702 -0.1242  0.6663
   78MOL0     C10693   4.401   7.849   3.731  0.0842  0.7126 -0.0127
   78MOL0     C10694   4.421   7.898   3.587  0.1490 -0.3582  0.3588
   78MOL0     H10695   4.953   7.664   3.892 -2.4606  0.8237 -0.6344
   78MOL0     H10696   5.175   7.719   3.806  1.0505  1.8480  0.2520
   78MOL0     H10697   5.269   8.135   3.830 -1.8439  2.4407 -2.3086
   78MOL0     H10698   5.246   8.156   3.661 -0.6536 -0.0019 -0.1682
   78MOL0     H10699   5.496   8.013   3.770  2.0397 -0.6723 -1.2475
   78MOL0     H10700   5.457   8.062   3.608 -2.1180  4.7406 -1.4185
   78MOL0     H10701   5.463   8.294   3.667  1.4778  2.1765  2.0930
   78MOL0     H10702   5.517   8.248   3.830  1.4004  1.7941  0.4125
   78MOL0     H10703   5.712   8.113   3.707  0.9340 -0.2837 -0.0682
   78MOL0     H10704   5.666   8.196   3.563  1.6779 -0.5098 -0.6344
   78MOL0     H10705   5.785   8.324   3.826  1.3036 -0.7049 -0.2748
   78MOL0     H10706   5.725   8.411   3.677 -0.1532 -0.0583 -1.9306
   78MOL0     H10707   5.952   8.220   3.695 -0.3320 -0.2914 -0.2602
   78MOL0     H10708   5.910   8.303   3.550  0.2691 -1.7982  0.5273
   78MOL0     H10709   6.098   8.418   3.660  0.2544 -1.1570 -1.2459
   78MOL0     H10710   6.007   8.422   3.813 -4.1165  3.5830  1.1810
   78MOL0     H10711   5.918   8.553   3.561 -0.3714  0.1990  0.4826
   78MOL0     H10712   5.849   8.592   3.728  0.5169 -0.4039  2.0324
   78MOL0     H10713   6.173   8.619   3.840  1.3557 -0.6989 -1.2509
   78MOL0     H10714   6.199   8.857   3.987 -0.3283 -3.4261 -1.0833
   78MOL0     H10715   6.263   8.987   3.878  0.1046 -0.0056  0.5617
   78MOL0     H10716   6.455   8.865   3.972 -0.6196 -1.8556  1.2172
   78MOL0     H10717   6.407   8.714   3.901 -0.2123 -0.1239 -2.7114
   78MOL0     H10718   6.406   8.876   3.672  0.0336  0.1811  0.1254
   78MOL0     H10719   6.514   8.980   3.765 -0.5266  0.3470 -1.1516
   78MOL0     H10720   6.572   8.695   3.709 -1.6549  0.0679  2.6012
   78MOL0     H10721   6.644   8.834   3.624 -0.0570  0.6343 -0.1588
   78MOL0     H10722   6.770   9.045   3.851  0.4513  1.3629 -1.7122
   78MOL0     H10723   7.076   9.185   3.829  1.4835 -2.9058 -1.7718
   78MOL0     H10724   6.904   9.234   3.814 -0.1909 -2.2140  0.6190
   78MOL0     H10725   7.007   9.221   3.664  1.6361 -3.1397 -1.3903
   78MOL0     H10726   7.211   9.353   3.517 -0.3382  0.8377 -1.2488
   78MOL0     H10727   7.424   9.469   3.441 -2.1454 -0.6510  2.2095
   78MOL0     H10728   7.642   9.492   3.410  0.5921 -2.0763  0.3907
   78MOL0     H10729   7.781   9.466   3.317 -0.4819 -1.0834  1.3681
   78MOL0     H10730   7.506   9.571   3.207 -0.5648 -2.2095 -3.3338
   78MOL0     H10731   7.656   9.646   3.216 -2.6535  1.5749 -0.6784
   78MOL0     H10732   7.617   9.585   2.993  0.3914 -1.0158 -0.6210
   78MOL0     H10733   7.563   9.418   3.037  0.2232 -0.6315 -2.5077
   78MOL0     H10734   7.805   9.366   3.098 -2.8458 -1.2037 -0.4794
   78MOL0     H10735   7.844   9.534   3.071 -1.7245  0.6627 -2.0790
   78MOL0     H10736   7.724   9.411   2.825  0.8663  0.9768 -0.2201
   78MOL0     H10737   7.874   9.518   2.853  0.7596  0.2213  0.6056
   78MOL0     H10738   7.843   9.212   2.899  0.6773  0.4254  2.6400
   78MOL0     H10739   7.994   9.290   2.923  0.3928 -4.8933 -1.2862
   78MOL0     H10740   7.986   9.383   2.686 -2.0078  0.5432  0.8544
   78MOL0     H10741   7.843   9.301   2.659 -0.3618 -0.2345  1.8259
   78MOL0     H10742   8.063   9.189   2.572 -1.2237  2.1690 -0.9059
   78MOL0     H10743   7.955   9.081   2.656  0.9990 -0.9396  1.1524
   78MOL0     H10744   7.561   9.085   3.291 -0.9016 -2.8763  1.1405
   78MOL0     H10745   7.351   8.973   3.400 -3.8997  1.1087 -1.3833
   78MOL0     H10746   7.094   8.756   3.623  0.7493  1.7520 -2.8477
   78MOL0     H10747   6.879   8.656   3.745 -3.6052  0.4656  2.8921
   78MOL0     H10748   5.044   8.136   3.765 -0.7181 -0.0692 -0.3718
   78MOL0     H10749   4.811   8.068   3.839 -0.5361 -0.3313 -0.6301
   78MOL0     H10750   4.551   7.755   4.019 -1.7695 -1.9342  0.8087
   78MOL0     H10751   4.319   7.720   4.081 -0.1386 -1.9316 -0.5743
   78MOL0     H10752   4.014   7.956   3.890  0.0345  0.1713  0.3309
   78MOL0     H10753   3.903   7.829   3.956 -0.8974 -1.7382 -1.8511
   78MOL0     H10754   4.128   7.977   4.099 -0.3932 -0.7104  0.6054
   78MOL0     H10755   4.013   7.861   4.169  0.4638 -3.1198 -2.5359
   78MOL0     H10756   3.971   8.135   4.042  1.0591 -0.3040  1.0350
   78MOL0     H10757   3.830   8.038   4.079  0.1022  0.9702 -1.9983
   78MOL0     H10758   3.868   8.208   4.233  2.1295  1.4476 -1.4079
   78MOL0     H10759   4.043   8.157   4.266 -0.1416  1.1559 -0.6030
   78MOL0     H10760   3.802   7.997   4.566  1.0282  1.6761  0.8704
   78MOL0     H10761   4.190   7.855   3.699  1.3988 -0.8087 -0.8603
   78MOL0     H10762   4.514   7.868   3.539  1.6269  2.3677  1.3608
   78MOL0     H10763   4.342   7.860   3.521  1.3795  1.8818 -2.6323
   78MOL0     H10764   4.421   8.007   3.586 -0.2402 -0.2696  2.8746
   79MOL0     O10765   4.270   7.851   1.340 -0.3693 -0.2070 -0.7464
   79MOL0     C10766   4.303   7.788   1.442 -1.1523 -0.0896 -0.1054
   79MOL0     O10767   4.219   7.713   1.520 -0.2436  0.5503 -0.6066
   79MOL0     C10768   4.087   7.706   1.473  0.4909  0.1774 -0.4716
   79MOL0     C10769   3.984   7.712   1.571 -0.4221  0.3768  0.0072
   79MOL0     C10770   3.846   7.685   1.534 -0.5344  0.0678  1.0644
   79MOL0     C10771   3.814   7.647   1.405 -0.3491  0.4494 -0.2937
   79MOL0     O10772   3.687   7.606   1.387  0.7371  0.4224  0.8107
   79MOL0     C10773   3.567   7.681   1.439 -0.6898  0.1130 -0.1446
   79MOL0     C10774   3.450   7.600   1.385  0.2758 -0.0628 -0.0638
   79MOL0     C10775   3.416   7.608   1.236  0.0896  0.3493 -0.0675
   79MOL0     C10776   3.330   7.494   1.180 -0.0362  0.3720  0.6467
   79MOL0     C10777   3.303   7.521   1.027 -0.3038  0.5531  0.1501
   79MOL0     C10778   3.430   7.493   0.939 -0.1124 -0.5164  1.2597
   79MOL0     C10779   3.408   7.559   0.794 -0.5373  0.1080 -0.0758
   79MOL0     C10780   3.536   7.596   0.719 -0.5590 -0.0612 -0.0529
   79MOL0     N10781   3.612   7.712   0.780  0.3128 -0.0906 -0.5093
   79MOL0     C10782   3.715   7.686   0.865 -0.7624  0.1238  0.2077
   79MOL0     C10783   3.736   7.807   0.920  0.8815 -0.5190  0.5350
   79MOL0     C10784   3.823   7.831   1.035 -0.1740  0.3846  0.5999
   79MOL0     C10785   3.922   7.950   1.018  0.2904  0.4539 -0.1382
   79MOL0     C10786   3.978   7.988   1.161 -0.6939  0.1317  0.9568
   79MOL0     C10787   3.985   8.132   1.198 -0.0469  0.4154 -0.6051
   79MOL0     O10788   4.083   8.195   1.120  0.4354  0.4086 -0.0709
   79MOL0     C10789   4.128   8.317   1.164 -0.0343  0.5980  0.2158
   79MOL0     C10790   4.263   8.342   1.164 -0.8449 -0.0235  0.4915
   79MOL0     C10791   4.319   8.462   1.206  0.1787  0.6541 -0.1330
   79MOL0     C10792   4.463   8.472   1.207  0.6218 -0.4997  0.0707
   79MOL0     C10793   4.229   8.562   1.253  0.1573 -0.1458 -1.2931
   79MOL0     C10794   4.277   8.694   1.301 -1.2011 -0.4099 -0.3941
   79MOL0     O10795   4.209   8.809   1.266 -1.0111 -0.4172  0.3621
   79MOL0     C10796   4.257   8.924   1.306  1.1185 -0.1969  0.5614
   79MOL0     C10797   4.270   8.951   1.439 -0.1379 -1.2575  0.0226
   79MOL0     C10798   4.319   9.075   1.479  0.0029  0.0839 -0.4072
   79MOL0     C10799   4.346   9.180   1.385  0.5191  0.2575  0.6863
   79MOL0     O10800   4.398   9.298   1.422  0.1707  0.0557  0.1825
   79MOL0     C10801   4.385   9.336   1.562 -0.6645 -0.0944  0.5108
   79MOL0     C10802   4.368   9.485   1.565  0.3182 -0.7072  1.0781
   79MOL0     C10803   4.485   9.564   1.499  0.0419 -0.4874 -0.1864
   79MOL0     C10804   4.618   9.549   1.582 -0.3587 -0.1076  0.5177
   79MOL0     C10805   4.722   9.654   1.559  0.0663 -0.0748 -0.3475
   79MOL0     C10806   4.823   9.652   1.674  0.7847 -0.9028 -0.1489
   79MOL0     C10807   4.765   9.711   1.810 -0.3780 -0.4185  0.6514
   79MOL0     C10808   4.862   9.671   1.918  0.6153  0.0874  0.0098
   79MOL0    Cl10809   4.825   9.759   2.082 -0.1584 -0.4133  0.0386
   79MOL0     C10810   4.326   9.154   1.243 -0.4588  0.7147  0.0632
   79MOL0     C10811   4.288   9.017   1.208 -0.6268  0.3691 -0.0341
   79MOL0     O10812   4.384   8.692   1.366  0.0717  0.8810  0.1035
   79MOL0     C10813   4.091   8.539   1.248 -0.1996  0.2920  0.6564
   79MOL0     C10814   4.040   8.416   1.204 -0.7564  0.4684  0.3522
   79MOL0     N10815   3.647   7.897   0.863 -0.6978 -1.0316  0.1696
   79MOL0     N10816   3.572   7.838   0.777 -0.2964  0.0872  0.1876
   79MOL0     C10817   3.917   7.624   1.318  0.4775  0.4358 -0.0278
   79MOL0     C10818   4.050   7.658   1.346  0.2145 -0.2006 -0.1035
   79MOL0     C10819   4.445   7.797   1.483  0.3039  0.7798 -0.1886
   79MOL0     C10820   4.480   7.744   1.604  0.1414  0.4212 -0.0130
   79MOL0     C10821   4.610   7.736   1.649  0.4355  0.4428 -0.1208
   79MOL0     C10822   4.713   7.782   1.570 -0.3715 -0.3523 -0.0491
   79MOL0     O10823   4.839   7.772   1.618 -0.3796  0.4232 -0.0414
   79MOL0     C10824   4.939   7.863   1.570  0.6565  0.7012 -0.7870
   79MOL0     C10825   5.068   7.853   1.649  0.1921 -0.8535 -0.2068
   79MOL0     C10826   5.182   7.951   1.592  0.1040  0.4476 -0.5743
   79MOL0     C10827   5.303   7.929   1.684 -0.7617 -0.9004  0.1954
   79MOL0     C10828   5.424   7.975   1.616 -0.2535  0.5079 -0.2121
   79MOL0     C10829   5.503   8.009   1.534  0.1164 -0.9297  0.7405
   79MOL0     C10830   4.683   7.846   1.447  0.6508  0.1515 -0.0890
   79MOL0     C10831   4.551   7.852   1.403  0.6062  0.1903 -0.0250
   79MOL0     C10832   4.534   7.887   1.258  0.2464  0.5076  1.4281
   79MOL0     H10833   4.014   7.753   1.667 -4.4131  1.3299  1.0431
   79MOL0     H10834   3.766   7.685   1.608 -1.8743  1.4996 -0.2971
   79MOL0     H10835   3.553   7.783   1.402  2.7022  0.5070 -0.6958
   79MOL0     H10836   3.568   7.683   1.549  1.8934  0.3012 -0.0987
   79MOL0     H10837   3.454   7.494   1.412 -1.9230 -0.1191  0.2045
   79MOL0     H10838   3.355   7.625   1.434 -1.8339 -3.4002 -1.9993
   79MOL0     H10839   3.363   7.701   1.214  0.1825  0.1477 -1.2387
   79MOL0     H10840   3.512   7.615   1.185 -1.0598 -2.1530 -2.9085
   79MOL0     H10841   3.375   7.394   1.180  2.7459  1.4670 -2.2452
   79MOL0     H10842   3.231   7.484   1.226 -0.3612  1.1095  0.1350
   79MOL0     H10843   3.275   7.624   1.005 -0.1177 -0.1936 -4.4357
   79MOL0     H10844   3.212   7.476   0.987 -1.1311  4.2624 -2.7033
   79MOL0     H10845   3.522   7.531   0.984 -0.7645  2.8614  0.0260
   79MOL0     H10846   3.437   7.384   0.937 -1.6926 -0.6965  2.8394
   79MOL0     H10847   3.353   7.653   0.802  1.1006  0.9798  1.3951
   79MOL0     H10848   3.351   7.487   0.734 -3.1622  1.7603  0.2533
   79MOL0     H10849   3.600   7.508   0.730  2.0248  1.7817  0.6251
   79MOL0     H10850   3.521   7.616   0.613  0.3372 -0.1374 -0.2034
   79MOL0     H10851   3.753   7.587   0.886 -1.2375 -0.5848 -1.9998
   79MOL0     H10852   3.877   7.742   1.065 -0.5341 -0.7251 -1.8081
   79MOL0     H10853   3.759   7.858   1.120  1.5013 -0.7021  2.2957
   79MOL0     H10854   4.002   7.938   0.944  0.5807  2.5651 -0.2376
   79MOL0     H10855   3.856   8.030   0.983  1.3564  1.7819  0.7744
   79MOL0     H10856   3.927   7.937   1.244 -0.0951 -0.3729  1.0219
   79MOL0     H10857   4.081   7.953   1.162 -1.5260 -2.8428 -1.7827
   79MOL0     H10858   3.887   8.180   1.184 -1.1105 -1.4365  0.1456
   79MOL0     H10859   4.015   8.141   1.303  2.2299 -0.9201 -1.0715
   79MOL0     H10860   4.331   8.259   1.148  0.4755  1.1542 -0.1964
   79MOL0     H10861   4.501   8.546   1.136  2.2550 -2.5191 -1.3148
   79MOL0     H10862   4.521   8.383   1.178 -2.6682 -2.0756 -2.3133
   79MOL0     H10863   4.493   8.491   1.310  0.9646  0.5985 -0.2170
   79MOL0     H10864   4.236   8.876   1.510 -1.3962  0.4197  1.2817
   79MOL0     H10865   4.320   9.093   1.586  2.3152  1.1872 -0.5524
   79MOL0     H10866   4.299   9.295   1.617  0.0506 -1.4241  0.6665
   79MOL0     H10867   4.467   9.304   1.627 -1.9850 -0.5588  2.0188
   79MOL0     H10868   4.277   9.504   1.508  2.3439 -1.3686 -2.6922
   79MOL0     H10869   4.362   9.517   1.670  0.0314  0.2582  0.7710
   79MOL0     H10870   4.452   9.665   1.472 -1.4927 -1.1735 -0.9599
   79MOL0     H10871   4.502   9.521   1.400  0.9470  1.4528 -0.9456
   79MOL0     H10872   4.657   9.447   1.576 -1.6911 -0.7157  1.6946
   79MOL0     H10873   4.594   9.562   1.688  1.7636 -1.8912  1.2877
   79MOL0     H10874   4.774   9.635   1.465  1.0801  0.1857  0.1421
   79MOL0     H10875   4.667   9.748   1.561 -1.2537 -0.7846  2.8041
   79MOL0     H10876   4.906   9.717   1.643  1.4490 -0.0812  2.9764
   79MOL0     H10877   4.863   9.554   1.702 -0.5777 -1.0898  1.2552
   79MOL0     H10878   4.663   9.676   1.831 -0.7063  0.1843  0.1096
   79MOL0     H10879   4.749   9.818   1.794  3.3431 -0.1242 -2.6075
   79MOL0     H10880   4.963   9.702   1.890 -0.4542  3.2359 -0.7315
   79MOL0     H10881   4.861   9.564   1.942  0.5063 -0.2097 -1.2909
   79MOL0     H10882   4.353   9.236   1.177  2.3238  0.9464  1.3621
   79MOL0     H10883   4.274   8.999   1.102 -0.5372  2.3116 -0.4164
   79MOL0     H10884   4.028   8.619   1.285 -2.5607 -0.5728 -1.1626
   79MOL0     H10885   3.935   8.390   1.209 -0.1372 -2.2598  0.4300
   79MOL0     H10886   3.898   7.577   1.222  0.1492 -1.7902  1.0667
   79MOL0     H10887   4.124   7.640   1.268 -1.8988 -3.3420 -1.6024
   79MOL0     H10888   4.404   7.701   1.669  1.8164 -2.2240  0.3250
   79MOL0     H10889   4.627   7.702   1.751  1.2795  0.4049 -0.2658
   79MOL0     H10890   4.957   7.850   1.463 -0.4742 -1.9590 -0.7356
   79MOL0     H10891   4.894   7.962   1.584 -0.1764  0.1128  1.0456
   79MOL0     H10892   5.104   7.751   1.659 -0.0370 -0.8997  0.1368
   79MOL0     H10893   5.053   7.877   1.754  2.8690 -0.8238  0.2399
   79MOL0     H10894   5.214   7.921   1.492 -0.5570  0.8555 -0.9156
   79MOL0     H10895   5.142   8.052   1.581 -0.6576  0.3581  1.0729
   79MOL0     H10896   5.316   7.824   1.712 -1.9578 -0.7356  1.4463
   79MOL0     H10897   5.303   7.992   1.773  2.2133  0.1578 -0.4367
   79MOL0     H10898   5.578   8.060   1.477  0.7272  0.1340  2.4042
   79MOL0     H10899   4.765   7.879   1.383  1.8224 -2.0841  0.1694
   79MOL0     H10900   4.634   7.908   1.218 -0.0275  0.6239  0.7865
   79MOL0     H10901   4.489   7.805   1.200 -0.6118  2.0297 -0.1513
   79MOL0     H10902   4.480   7.981   1.248  1.4564  1.1406  0.5826
   80MOL0     O10903   7.852   4.345   8.494 -0.5372 -0.6713 -0.2025
   80MOL0     C10904   7.958   4.408   8.493  0.1104  0.3810  0.9270
   80MOL0     O10905   8.042   4.430   8.380 -0.5549  0.2333  0.1287
   80MOL0     C10906   8.050   4.330   8.286  0.4633  0.4068 -0.7569
   80MOL0     C10907   8.180   4.288   8.245  0.2352 -0.2605 -0.0003
   80MOL0     C10908   8.192   4.195   8.142  0.3240 -0.9655 -0.4503
   80MOL0     C10909   8.078   4.145   8.075 -0.4586  0.6082  0.8371
   80MOL0     O10910   8.074   4.053   7.970 -0.2703 -0.4576 -0.2424
   80MOL0     C10911   8.192   4.048   7.891  0.5352 -0.1331  0.0120
   80MOL0     C10912   8.298   3.941   7.932 -0.4457  0.4314 -0.5097
   80MOL0     C10913   8.241   3.794   7.941  0.4625 -0.9701  1.0511
   80MOL0     C10914   8.351   3.693   7.959 -0.3779  0.1184  0.4711
   80MOL0     C10915   8.309   3.568   8.036  0.5237 -0.6180 -0.1790
   80MOL0     C10916   8.168   3.513   7.996 -0.3696  0.4206  0.3414
   80MOL0     C10917   8.133   3.378   8.048 -0.2452 -0.1902 -0.4254
   80MOL0     C10918   7.995   3.321   8.000 -0.4273  0.4565 -0.3100
   80MOL0     N10919   7.986   3.269   7.860  0.1295 -0.3824  0.8294
   80MOL0     C10920   8.076   3.199   7.794 -0.1529 -0.2955 -0.3612
   80MOL0     C10921   8.028   3.177   7.668  0.1912 -0.2812  0.3899
   80MOL0     C10922   8.102   3.124   7.551 -0.1769 -0.0406 -0.2965
   80MOL0     C10923   8.116   2.969   7.543 -0.9016  1.2809  0.4151
   80MOL0     C10924   8.233   2.913   7.621 -0.4162 -0.3734 -0.4658
   80MOL0     C10925   8.372   2.917   7.567  0.5669 -0.2983 -0.9671
   80MOL0     O10926   8.415   3.055   7.552  1.0710 -0.3611 -0.4856
   80MOL0     C10927   8.551   3.080   7.584 -0.3055  0.7639 -0.2032
   80MOL0     C10928   8.592   3.202   7.641 -0.9837  0.0300 -0.5125
   80MOL0     C10929   8.727   3.234   7.662  0.0897  0.0902  0.8873
   80MOL0     C10930   8.763   3.371   7.704 -0.0089 -0.9176  0.7719
   80MOL0     C10931   8.828   3.133   7.637  0.3493  0.2483  0.5228
   80MOL0     C10932   8.973   3.155   7.657  0.6712  0.1361 -0.8331
   80MOL0     O10933   9.050   3.094   7.568 -0.5432 -0.6298 -0.2156
   80MOL0     C10934   9.187   3.093   7.592  0.0745 -0.4013 -0.5305
   80MOL0     C10935   9.280   3.176   7.529  0.2582  0.1803  0.1104
   80MOL0     C10936   9.412   3.171   7.557 -0.5992  0.1284  0.1079
   80MOL0     C10937   9.466   3.072   7.636  0.3307  0.3935  0.2378
   80MOL0     O10938   9.595   3.049   7.646  0.2786  0.3498 -0.0337
   80MOL0     C10939   9.688   3.155   7.645 -0.4880 -0.5190  0.0111
   80MOL0     C10940   9.822   3.108   7.694  0.3566 -0.2739  0.5966
   80MOL0     C10941   9.806   2.993   7.800 -0.7324 -0.1907 -0.5737
   80MOL0     C10942   9.947   2.952   7.855 -0.0625  0.4297 -0.1569
   80MOL0     C10943   9.938   2.872   7.986 -0.3273  1.6147 -0.8224
   80MOL0     C10944  10.070   2.840   8.055  0.7637 -0.5217 -0.3091
   80MOL0     C10945  10.140   2.734   7.975 -0.0779 -0.1043  0.3831
   80MOL0     C10946  10.261   2.678   8.060  0.4456  0.5312 -0.2621
   80MOL0    Cl10947  10.354   2.805   8.140 -0.4392 -0.1410 -0.4927
   80MOL0     C10948   9.371   2.983   7.693  0.6522  0.6227  0.2420
   80MOL0     C10949   9.236   2.984   7.664  0.3695  0.0198  0.5089
   80MOL0     O10950   9.015   3.215   7.757 -0.0253  0.1927  0.3768
   80MOL0     C10951   8.782   3.017   7.586 -1.2234  1.2089  0.9832
   80MOL0     C10952   8.650   2.990   7.548 -0.2925 -0.2810 -0.7046
   80MOL0     N10953   7.891   3.209   7.680  0.1292  0.1820  1.0062
   80MOL0     N10954   7.868   3.267   7.785  0.1360 -0.3883 -0.9639
   80MOL0     C10955   7.943   4.175   8.125 -0.5969 -0.0538 -0.3390
   80MOL0     C10956   7.935   4.265   8.231 -0.3360 -0.6330  0.1385
   80MOL0     C10957   7.985   4.500   8.600  0.2515 -0.2779 -0.6171
   80MOL0     C10958   8.075   4.603   8.570 -0.1985  0.2871 -0.4306
   80MOL0     C10959   8.117   4.696   8.667  0.1218 -0.1353  0.2308
   80MOL0     C10960   8.067   4.683   8.801 -0.8068 -1.0286 -0.9424
   80MOL0     O10961   8.124   4.778   8.883 -0.2065  0.0481 -0.2660
   80MOL0     C10962   8.124   4.737   9.018  0.5592  0.8227  0.5091
   80MOL0     C10963   8.194   4.836   9.115 -0.4187 -0.2707 -0.0185
   80MOL0     C10964   8.098   4.944   9.174  0.5444 -0.2895  0.0843
   80MOL0     C10965   8.169   5.080   9.189 -0.2887 -0.3242  0.2197
   80MOL0     C10966   8.075   5.191   9.218  0.0091  0.2539 -0.1790
   80MOL0     C10967   8.006   5.292   9.245 -0.0852  0.4134 -1.1236
   80MOL0     C10968   7.977   4.587   8.831  0.8261  0.5224  0.0426
   80MOL0     C10969   7.930   4.503   8.734 -0.0735  0.5972 -0.2983
   80MOL0     C10970   7.827   4.398   8.779  0.1571 -0.2858  0.0933
   80MOL0     H10971   8.271   4.315   8.299 -1.2500  0.0957  2.4723
   80MOL0     H10972   8.294   4.162   8.121  0.1794  0.0842 -3.1866
   80MOL0     H10973   8.238   4.147   7.882  1.4826 -0.7684 -3.3018
   80MOL0     H10974   8.163   4.022   7.789  1.9100 -0.9364 -0.1950
   80MOL0     H10975   8.384   3.937   7.864  0.7808  0.5645  0.9822
   80MOL0     H10976   8.333   3.973   8.031 -0.7358 -3.1139  0.8739
   80MOL0     H10977   8.172   3.790   8.026 -0.1929  3.1255  0.8938
   80MOL0     H10978   8.180   3.773   7.853  1.2784  0.4450  0.1182
   80MOL0     H10979   8.380   3.660   7.859  0.0230  1.6561  0.0555
   80MOL0     H10980   8.448   3.737   7.984  1.0510 -2.6558  0.1346
   80MOL0     H10981   8.297   3.600   8.140  1.9481  5.2267 -1.4737
   80MOL0     H10982   8.387   3.492   8.026 -0.0457 -1.5307  1.7200
   80MOL0     H10983   8.086   3.582   8.019 -0.9546 -0.0649 -0.2596
   80MOL0     H10984   8.172   3.507   7.887 -0.0740  2.7849  0.1645
   80MOL0     H10985   8.127   3.387   8.157 -0.2228  0.2508 -0.4610
   80MOL0     H10986   8.208   3.302   8.023 -1.3524 -1.5078  0.1547
   80MOL0     H10987   7.964   3.236   8.061 -1.1444  1.0642  0.1814
   80MOL0     H10988   7.922   3.402   8.008 -2.6187 -1.5585  1.7519
   80MOL0     H10989   8.176   3.182   7.831 -0.9834  0.6591  2.5493
   80MOL0     H10990   8.193   3.186   7.554 -1.5352  2.0148  1.9546
   80MOL0     H10991   8.049   3.158   7.461  1.1551  1.8341 -0.4479
   80MOL0     H10992   8.021   2.923   7.574 -2.6142  4.1915 -0.0963
   80MOL0     H10993   8.130   2.934   7.440  0.7657  0.2652  0.9584
   80MOL0     H10994   8.230   2.958   7.720 -4.0837 -0.0612 -0.5816
   80MOL0     H10995   8.217   2.806   7.638  0.4588 -0.3013  0.9144
   80MOL0     H10996   8.440   2.862   7.633  2.7685  0.9599 -2.0771
   80MOL0     H10997   8.357   2.866   7.472 -0.7145  0.6923 -1.3352
   80MOL0     H10998   8.512   3.273   7.656  0.2297  1.3532 -0.0973
   80MOL0     H10999   8.675   3.436   7.705 -1.2424 -2.4458  3.7190
   80MOL0     H11000   8.839   3.409   7.635 -0.6485 -0.6559  0.1995
   80MOL0     H11001   8.793   3.363   7.809  0.4857 -1.0244  0.6251
   80MOL0     H11002   9.233   3.252   7.467  0.3710  0.2909  0.1594
   80MOL0     H11003   9.471   3.255   7.522 -1.4979  0.5530 -0.4455
   80MOL0     H11004   9.680   3.200   7.546 -2.8268 -0.0315  0.3552
   80MOL0     H11005   9.652   3.235   7.710 -0.5889  1.0195 -1.8507
   80MOL0     H11006   9.878   3.062   7.612  0.5631  1.4844 -0.3048
   80MOL0     H11007   9.882   3.193   7.730 -0.1277 -0.1802  1.2063
   80MOL0     H11008   9.747   2.912   7.755 -0.5626 -0.6306 -0.0056
   80MOL0     H11009   9.749   3.023   7.888 -0.4931 -0.2224 -0.4062
   80MOL0     H11010  10.002   3.047   7.861  1.2031 -0.2972 -0.0332
   80MOL0     H11011  10.001   2.897   7.778  0.8676 -4.1356  3.3672
   80MOL0     H11012   9.882   2.931   8.059  2.8795  2.0448  1.5076
   80MOL0     H11013   9.879   2.782   7.970  1.0046  0.1059  1.9463
   80MOL0     H11014  10.060   2.814   8.161 -0.2919 -0.2970 -0.3406
   80MOL0     H11015  10.136   2.927   8.054  3.4936 -2.4661 -1.0323
   80MOL0     H11016  10.167   2.762   7.872 -4.1950 -1.7333 -1.3759
   80MOL0     H11017  10.069   2.652   7.964 -0.5984  0.0123  2.4570
   80MOL0     H11018  10.318   2.617   7.989 -1.0674  0.6662 -1.6337
   80MOL0     H11019  10.227   2.606   8.134 -0.7816  0.6309 -0.7162
   80MOL0     H11020   9.409   2.895   7.744  1.6914  0.4923 -0.7005
   80MOL0     H11021   9.168   2.906   7.697 -1.7910  2.3042  1.8615
   80MOL0     H11022   8.855   2.941   7.561 -2.3364  1.3127 -3.4616
   80MOL0     H11023   8.626   2.893   7.506 -1.3214 -0.1209 -0.5199
   80MOL0     H11024   7.848   4.153   8.076 -0.9361 -0.3554  0.4458
   80MOL0     H11025   7.839   4.296   8.271  0.1703  0.4111  0.5760
   80MOL0     H11026   8.119   4.634   8.476  3.9485  3.2701  2.1357
   80MOL0     H11027   8.176   4.783   8.638 -0.1340 -0.1220 -0.2542
   80MOL0     H11028   8.020   4.731   9.051  0.3551 -0.4091 -0.2928
   80MOL0     H11029   8.177   4.641   9.018  1.6138  1.3475 -1.3624
   80MOL0     H11030   8.275   4.887   9.062 -0.9524 -1.6234 -2.3141
   80MOL0     H11031   8.238   4.779   9.197 -2.6041 -1.5138  0.3666
   80MOL0     H11032   8.012   4.957   9.108 -1.3304  3.1534  2.8380
   80MOL0     H11033   8.058   4.924   9.275 -0.0304  3.5121  0.7674
   80MOL0     H11034   8.231   5.095   9.100  0.6031 -0.4546  0.8115
   80MOL0     H11035   8.237   5.064   9.273 -0.3199  0.7160  0.4590
   80MOL0     H11036   7.951   5.378   9.278 -1.5443 -0.2871 -1.6136
   80MOL0     H11037   7.937   4.577   8.931  2.8450 -1.5562  0.7147
   80MOL0     H11038   7.876   4.301   8.785 -1.4164 -1.0213  2.4292
   80MOL0     H11039   7.799   4.408   8.885  0.7830 -1.0937  0.3449
   80MOL0     H11040   7.749   4.410   8.704  0.6321  0.8927 -0.2413
   81MOL0     O11041   8.006   8.357   1.581  0.5553 -0.4774  0.1419
   81MOL0     C11042   7.953   8.247   1.614  0.8772 -0.0061 -1.1645
   81MOL0     O11043   7.971   8.120   1.556  0.1319  0.0620  0.0290
   81MOL0     C11044   8.058   8.095   1.449  0.0957 -0.0865 -0.3968
   81MOL0     C11045   8.142   7.988   1.456  0.3390  0.4613  0.1187
   81MOL0     C11046   8.241   7.953   1.361  0.0060  0.4393  0.4155
   81MOL0     C11047   8.248   8.027   1.248  0.6169  0.1034 -1.0052
   81MOL0     O11048   8.328   7.978   1.155  0.6090  0.2776  0.5411
   81MOL0     C11049   8.397   8.074   1.062  0.5446 -0.0716 -0.3282
   81MOL0     C11050   8.477   7.984   0.971  0.6322  0.4712 -0.3110
   81MOL0     C11051   8.586   7.920   1.056  0.3511 -0.6852  0.1706
   81MOL0     C11052   8.688   7.843   0.977 -0.4339 -0.0388  0.0016
   81MOL0     C11053   8.800   7.783   1.070 -0.0871  0.3470 -0.6637
   81MOL0     C11054   8.921   7.729   0.992 -0.4743  0.2167  0.0408
   81MOL0     C11055   8.980   7.831   0.892 -0.4774  0.6289  1.4437
   81MOL0     C11056   9.138   7.814   0.873 -0.3553 -1.0871 -0.6395
   81MOL0     N11057   9.201   7.940   0.833 -0.5638  0.0861 -0.2651
   81MOL0     C11058   9.144   8.048   0.770  0.5640 -0.4966 -0.3507
   81MOL0     C11059   9.248   8.134   0.761  0.0392  0.0095  0.7742
   81MOL0     C11060   9.230   8.265   0.685 -1.0844 -0.2502  0.2116
   81MOL0     C11061   9.359   8.304   0.604  0.2757 -0.2777  0.8969
   81MOL0     C11062   9.394   8.203   0.487 -0.9182  0.5222  0.0962
   81MOL0     C11063   9.540   8.218   0.437  0.1834 -0.3336 -0.8257
   81MOL0     O11064   9.568   8.348   0.384  0.1035  0.2173  0.7166
   81MOL0     C11065   9.667   8.377   0.294 -0.1495 -0.1366 -0.2491
   81MOL0     C11066   9.679   8.509   0.248 -0.8455  0.1330 -0.4273
   81MOL0     C11067   9.781   8.544   0.161 -0.4308 -1.1400  0.0344
   81MOL0     C11068   9.790   8.691   0.113 -0.4839 -0.3667 -0.8481
   81MOL0     C11069   9.886   8.456   0.132 -0.7141  1.1697  0.7912
   81MOL0     C11070  10.011   8.490   0.061 -0.3997  0.5064 -0.0620
   81MOL0     O11071  10.115   8.401   0.079  0.5527 -0.0952 -0.4918
   81MOL0     C11072  10.234   8.424   0.024  0.4728 -0.1793  0.2651
   81MOL0     C11073  10.302   8.305  -0.010  0.7772 -0.6313 -1.0414
   81MOL0     C11074  10.439   8.308  -0.064  0.2173  0.0612 -0.3920
   81MOL0     C11075  10.502   8.425  -0.090 -0.9267 -0.2585  0.6271
   81MOL0     O11076  10.619   8.447  -0.158 -0.1593 -0.3452 -0.3407
   81MOL0     C11077  10.685   8.334  -0.217 -0.0294 -0.2739 -0.3447
   81MOL0     C11078  10.817   8.382  -0.274  0.3678  0.8404  0.1936
   81MOL0     C11079  10.925   8.269  -0.268 -0.5130  0.1242 -0.0037
   81MOL0     C11080  11.046   8.313  -0.345  0.0310 -1.0185  0.6158
   81MOL0     C11081  11.167   8.235  -0.322 -0.8742  0.0990  0.8745
   81MOL0     C11082  11.241   8.282  -0.191  0.9487  0.2584  0.2495
   81MOL0     C11083  11.377   8.218  -0.206  0.2293  0.4317  0.2971
   81MOL0     C11084  11.489   8.258  -0.113 -0.2123  0.0401 -0.4440
   81MOL0    Cl11085  11.624   8.135  -0.097 -0.2449  0.1918 -0.0226
   81MOL0     C11086  10.437   8.545  -0.046 -0.2941  0.4866 -0.3810
   81MOL0     C11087  10.302   8.546   0.007  0.9324 -0.1006 -0.5324
   81MOL0     O11088  10.013   8.573  -0.029 -0.4059 -0.4388  0.5876
   81MOL0     C11089   9.884   8.327   0.194 -0.4009 -0.0192 -0.3652
   81MOL0     C11090   9.773   8.288   0.265  0.7517 -0.0811  0.4137
   81MOL0     N11091   9.360   8.084   0.820  0.9867 -0.2368  1.1595
   81MOL0     N11092   9.328   7.969   0.864  0.7310  0.1525  0.1933
   81MOL0     C11093   8.164   8.134   1.226 -0.2590  0.2592 -0.7444
   81MOL0     C11094   8.068   8.166   1.327  0.2854 -0.0757 -0.0993
   81MOL0     C11095   7.853   8.252   1.722 -0.0131  0.3322 -0.5633
   81MOL0     C11096   7.777   8.140   1.752  0.5375 -0.0935 -0.0454
   81MOL0     C11097   7.671   8.142   1.845  0.3466 -0.0861  0.1712
   81MOL0     C11098   7.648   8.259   1.916  0.3181 -0.0846 -0.2828
   81MOL0     O11099   7.544   8.281   2.009 -0.1450  0.7139 -0.3100
   81MOL0     C11100   7.554   8.200   2.123 -0.3049 -0.3172 -0.2062
   81MOL0     C11101   7.435   8.227   2.215 -0.6349 -0.3411 -0.5728
   81MOL0     C11102   7.305   8.161   2.169 -0.6633 -0.3081 -0.8356
   81MOL0     C11103   7.188   8.185   2.264 -0.3261 -0.4282 -0.5744
   81MOL0     C11104   7.217   8.129   2.397  0.3322  0.0845  0.4280
   81MOL0     C11105   7.234   8.066   2.496  0.9170  0.7631  0.4235
   81MOL0     C11106   7.728   8.372   1.907 -0.0727  0.4704  0.2144
   81MOL0     C11107   7.828   8.375   1.805 -0.4494 -0.0108 -0.6736
   81MOL0     C11108   7.880   8.512   1.774 -0.1348 -0.0401  0.6628
   81MOL0     H11109   8.119   7.923   1.540  0.6243  1.7951  1.2631
   81MOL0     H11110   8.307   7.867   1.361 -1.8480 -1.0740 -0.6942
   81MOL0     H11111   8.453   8.154   1.110 -2.0629  1.2010  0.7678
   81MOL0     H11112   8.328   8.127   0.997 -0.0225  0.1700  0.4474
   81MOL0     H11113   8.415   7.912   0.917  0.1479  0.8985 -0.3408
   81MOL0     H11114   8.519   8.048   0.892 -1.0087  0.5713 -1.1532
   81MOL0     H11115   8.630   8.001   1.115  0.8357  0.5266 -1.7646
   81MOL0     H11116   8.557   7.843   1.128  2.2166 -1.0239  0.6256
   81MOL0     H11117   8.639   7.764   0.919 -1.2840  0.1360  0.4719
   81MOL0     H11118   8.738   7.910   0.906  2.2190 -1.6917  0.1711
   81MOL0     H11119   8.751   7.707   1.132  1.0743  0.1911  0.0977
   81MOL0     H11120   8.839   7.865   1.131  3.2936 -0.0060 -2.1355
   81MOL0     H11121   9.000   7.694   1.058 -0.6260 -0.4264 -0.1088
   81MOL0     H11122   8.897   7.641   0.931  0.2249  1.4324 -2.1170
   81MOL0     H11123   8.959   7.935   0.921 -3.4556  0.8996 -1.1286
   81MOL0     H11124   8.927   7.813   0.798  0.9989  1.3404  0.4349
   81MOL0     H11125   9.180   7.782   0.969 -0.3734 -0.0795 -0.2790
   81MOL0     H11126   9.169   7.747   0.792  0.3004 -2.0483  0.3779
   81MOL0     H11127   9.040   8.058   0.742  0.5416  1.7189  0.3711
   81MOL0     H11128   9.217   8.338   0.764 -1.9075  1.6790 -1.6125
   81MOL0     H11129   9.143   8.270   0.618 -1.0608 -0.5655  0.1565
   81MOL0     H11130   9.339   8.395   0.547 -0.8273 -1.6596 -1.0611
   81MOL0     H11131   9.446   8.321   0.669 -0.0362  2.0910  0.7919
   81MOL0     H11132   9.388   8.101   0.526  2.0914  0.6378  1.1021
   81MOL0     H11133   9.335   8.236   0.401  1.5848  1.9866 -1.1788
   81MOL0     H11134   9.610   8.197   0.518  1.0249  4.3087 -0.0621
   81MOL0     H11135   9.547   8.147   0.354  1.8899 -0.6584 -0.4433
   81MOL0     H11136   9.597   8.576   0.275  0.5793  1.5805  0.4395
   81MOL0     H11137   9.819   8.699   0.007 -1.1802  0.1262 -1.0066
   81MOL0     H11138   9.853   8.751   0.179  1.2142 -2.4984 -0.3997
   81MOL0     H11139   9.695   8.744   0.119 -0.7484 -1.0375  1.7710
   81MOL0     H11140  10.268   8.205   0.014 -0.6552  0.0938  0.1004
   81MOL0     H11141  10.492   8.219  -0.097  0.2971  0.6379 -1.8833
   81MOL0     H11142  10.699   8.259  -0.139  1.2915  1.8127  1.5315
   81MOL0     H11143  10.623   8.290  -0.297 -0.0166  0.3275 -0.6878
   81MOL0     H11144  10.811   8.421  -0.376 -0.2106 -0.6520 -0.3720
   81MOL0     H11145  10.859   8.468  -0.221  0.4690  1.9006 -1.5400
   81MOL0     H11146  10.892   8.176  -0.315  0.7178  0.9461 -2.6840
   81MOL0     H11147  10.944   8.254  -0.161 -1.3814 -0.1311  0.1259
   81MOL0     H11148  11.064   8.418  -0.324 -0.0617 -0.7023 -0.7678
   81MOL0     H11149  11.016   8.309  -0.451 -2.1937 -1.0653  1.2002
   81MOL0     H11150  11.145   8.128  -0.319  0.7707 -0.2411  1.6146
   81MOL0     H11151  11.223   8.262  -0.412 -0.1416 -0.8395  1.0390
   81MOL0     H11152  11.183   8.253  -0.102 -2.0552  1.6915 -1.0632
   81MOL0     H11153  11.248   8.392  -0.193  2.5329  0.1835 -1.8193
   81MOL0     H11154  11.413   8.248  -0.306 -1.8096 -0.5074 -0.7710
   81MOL0     H11155  11.363   8.110  -0.200 -0.3043  0.3387 -1.8132
   81MOL0     H11156  11.454   8.287  -0.014  1.8192  0.1830  0.2775
   81MOL0     H11157  11.537   8.351  -0.145  1.3840 -0.8148 -0.6608
   81MOL0     H11158  10.496   8.635  -0.062  0.2539 -0.0664 -1.5370
   81MOL0     H11159  10.253   8.639   0.035  2.7346  0.4076  1.1710
   81MOL0     H11160   9.970   8.262   0.180  2.8004  4.0260 -1.2943
   81MOL0     H11161   9.778   8.194   0.318  2.1645  0.3842  1.1857
   81MOL0     H11162   8.172   8.196   1.137  0.3710  0.9344 -0.2398
   81MOL0     H11163   8.005   8.252   1.308  1.5199  0.8520 -0.0997
   81MOL0     H11164   7.784   8.048   1.696 -1.4607  0.8785 -2.0022
   81MOL0     H11165   7.614   8.052   1.868  0.2742 -0.4807 -1.4183
   81MOL0     H11166   7.553   8.097   2.088  0.7516 -1.4123  2.6873
   81MOL0     H11167   7.646   8.217   2.180  0.5552  0.4554 -1.7305
   81MOL0     H11168   7.421   8.334   2.230  2.1878 -0.2934  2.9873
   81MOL0     H11169   7.476   8.188   2.309  3.7236  0.0089 -2.1174
   81MOL0     H11170   7.284   8.204   2.071  0.6109  0.5002 -0.7788
   81MOL0     H11171   7.325   8.054   2.152  0.9993 -0.2155  0.2180
   81MOL0     H11172   7.104   8.133   2.217  0.0669 -0.3511 -1.3817
   81MOL0     H11173   7.171   8.293   2.273  3.3285  0.4677 -2.2987
   81MOL0     H11174   7.260   8.017   2.588  0.5219 -1.4953 -0.5912
   81MOL0     H11175   7.694   8.459   1.962 -0.9795  0.0150  0.3948
   81MOL0     H11176   7.841   8.588   1.842 -1.6385  1.2635 -1.5010
   81MOL0     H11177   7.989   8.517   1.779 -0.1401  0.1010  0.6681
   81MOL0     H11178   7.837   8.554   1.682 -2.5661 -0.2310  1.6286
   82MOL0     O11179   8.430   0.262   5.437 -0.7420  0.1335 -0.3885
   82MOL0     C11180   8.349   0.288   5.348 -0.9466  0.5369 -0.3020
   82MOL0     O11181   8.385   0.359   5.237 -0.1594  0.1210  0.2561
   82MOL0     C11182   8.513   0.390   5.218  0.1529  0.4069  0.0236
   82MOL0     C11183   8.607   0.294   5.186  0.4696 -0.2591 -0.7283
   82MOL0     C11184   8.737   0.336   5.163 -0.1819 -0.0719  0.6919
   82MOL0     C11185   8.779   0.472   5.167  0.0239  1.0327 -0.0053
   82MOL0     O11186   8.912   0.496   5.146  0.2271  0.7050 -0.6099
   82MOL0     C11187   8.939   0.567   5.026 -0.2087 -0.1059 -0.2322
   82MOL0     C11188   8.940   0.724   5.042  0.2108  0.0892  0.3699
   82MOL0     C11189   9.001   0.762   5.183  1.1529 -1.2238  0.4768
   82MOL0     C11190   9.146   0.727   5.203 -0.9036 -0.2664 -0.9439
   82MOL0     C11191   9.212   0.804   5.320  0.4655 -0.5788  0.0020
   82MOL0     C11192   9.360   0.766   5.359 -0.9991 -0.0410  0.0336
   82MOL0     C11193   9.447   0.856   5.447 -0.1540 -0.4397 -0.0123
   82MOL0     C11194   9.476   0.999   5.382 -0.4557 -0.0704  0.7794
   82MOL0     N11195   9.624   1.022   5.367  0.2362 -0.4034 -0.6352
   82MOL0     C11196   9.715   1.036   5.469 -0.6611 -0.0174 -0.2164
   82MOL0     C11197   9.834   1.050   5.401 -0.5070  0.6397 -0.0121
   82MOL0     C11198   9.970   1.076   5.460 -0.1629 -0.2855 -0.5561
   82MOL0     C11199  10.024   0.938   5.509  0.0354  0.3909  0.3420
   82MOL0     C11200  10.077   0.844   5.394 -0.0041  0.6949 -0.6157
   82MOL0     C11201   9.961   0.750   5.352  0.0162 -0.2466 -0.6613
   82MOL0     O11202   9.930   0.661   5.458  0.5462 -0.6785  0.1737
   82MOL0     C11203   9.814   0.591   5.459 -0.2684  0.5446 -0.5336
   82MOL0     C11204   9.809   0.495   5.561  0.2591  1.2468 -1.2171
   82MOL0     C11205   9.696   0.417   5.587  0.5854  0.4052 -0.8003
   82MOL0     C11206   9.708   0.330   5.700 -0.1299  0.3011 -0.1431
   82MOL0     C11207   9.585   0.427   5.497 -0.1863 -0.2210 -0.4328
   82MOL0     C11208   9.460   0.348   5.520  0.1968  0.9968  0.0731
   82MOL0     O11209   9.362   0.380   5.444  0.0498 -0.0856  0.1802
   82MOL0     C11210   9.231   0.327   5.460  0.0257 -0.5743  0.8358
   82MOL0     C11211   9.123   0.409   5.471  0.0600  0.0915 -0.9751
   82MOL0     C11212   8.993   0.353   5.468 -0.0917 -0.2709  0.1485
   82MOL0     C11213   8.970   0.209   5.461 -0.6055  0.2575 -1.0163
   82MOL0     O11214   8.847   0.154   5.471  0.1063  0.5953  0.4789
   82MOL0     C11215   8.730   0.222   5.520  0.3199 -0.2936  0.0532
   82MOL0     C11216   8.708   0.211   5.676  0.9274  0.0781 -0.1823
   82MOL0     C11217   8.722   0.075   5.732 -0.4112  0.3953  0.7312
   82MOL0     C11218   8.687   0.065   5.881 -0.4045  1.2081 -0.0164
   82MOL0     C11219   8.667  -0.081   5.939  0.5355 -1.0614 -0.6267
   82MOL0     C11220   8.592  -0.067   6.079  0.3103 -0.7756 -0.9149
   82MOL0     C11221   8.609  -0.188   6.172 -0.2226  0.2076 -0.3296
   82MOL0     C11222   8.542  -0.159   6.307 -0.9995  0.9927  0.7192
   82MOL0    Cl11223   8.563  -0.306   6.395  0.2527 -0.0596  0.1573
   82MOL0     C11224   9.086   0.128   5.461  0.5662  0.2558  0.3530
   82MOL0     C11225   9.212   0.188   5.453 -0.0251 -1.0152  0.0651
   82MOL0     O11226   9.458   0.264   5.613 -0.0957  0.1154  0.2494
   82MOL0     C11227   9.594   0.515   5.390  0.4211  0.4148 -0.0531
   82MOL0     C11228   9.706   0.600   5.376 -0.7300  0.5664 -0.2452
   82MOL0     N11229   9.815   1.038   5.263  0.0901 -0.6569 -0.1198
   82MOL0     N11230   9.686   1.019   5.247 -0.2618 -0.1526 -0.0866
   82MOL0     C11231   8.684   0.568   5.202 -0.1454  0.2485 -0.2785
   82MOL0     C11232   8.555   0.524   5.231  0.0324 -1.3751 -0.8462
   82MOL0     C11233   8.205   0.265   5.380  0.5042 -1.1996  0.1515
   82MOL0     C11234   8.107   0.353   5.320 -0.0574  0.2252 -0.3473
   82MOL0     C11235   7.970   0.321   5.328 -0.1605 -0.2739 -0.0839
   82MOL0     C11236   7.929   0.217   5.413 -0.6557 -0.1564 -0.0042
   82MOL0     O11237   7.798   0.192   5.421  0.5292  0.1854  0.9888
   82MOL0     C11238   7.702   0.288   5.451 -0.1267  0.1454 -0.7511
   82MOL0     C11239   7.570   0.231   5.519 -0.3731  0.5164 -0.6179
   82MOL0     C11240   7.608   0.221   5.670 -0.3038 -0.0123 -0.1272
   82MOL0     C11241   7.474   0.194   5.746  0.1025 -0.0770 -0.1335
   82MOL0     C11242   7.514   0.159   5.882  0.0133 -0.4694  0.5792
   82MOL0     C11243   7.565   0.133   5.991  0.3956  0.0561 -0.1276
   82MOL0     C11244   8.018   0.133   5.472 -0.6230 -0.1510  0.2751
   82MOL0     C11245   8.159   0.154   5.453  0.8727 -0.4113 -0.8070
   82MOL0     C11246   8.254   0.055   5.518 -0.5062  1.1286 -0.7336
   82MOL0     H11247   8.578   0.190   5.199 -0.8132  0.2051  0.3738
   82MOL0     H11248   8.800   0.253   5.134  1.2827  0.6985  1.5403
   82MOL0     H11249   8.871   0.548   4.943  1.4873 -2.0459 -1.2601
   82MOL0     H11250   9.042   0.543   4.996 -1.0760 -2.9104 -1.2426
   82MOL0     H11251   9.000   0.771   4.964  1.5301  0.4502  1.5599
   82MOL0     H11252   8.837   0.758   5.031 -0.3611 -0.8638  2.2710
   82MOL0     H11253   9.006   0.871   5.186 -0.9231 -1.0673  4.2917
   82MOL0     H11254   8.935   0.731   5.265  0.2729  1.2613  0.7982
   82MOL0     H11255   9.156   0.620   5.225  0.5822 -0.0431 -0.4334
   82MOL0     H11256   9.211   0.731   5.115  2.7124 -1.3341  1.4475
   82MOL0     H11257   9.145   0.784   5.404  0.3932  1.0794  0.3739
   82MOL0     H11258   9.214   0.910   5.293  2.6762 -0.6160 -0.1724
   82MOL0     H11259   9.344   0.676   5.419  1.0654  0.7737  1.9496
   82MOL0     H11260   9.428   0.744   5.276 -1.1743  0.0988 -0.1452
   82MOL0     H11261   9.545   0.817   5.476  0.5025  2.7790  2.7245
   82MOL0     H11262   9.396   0.882   5.541  0.1953  2.4781 -0.5334
   82MOL0     H11263   9.435   1.005   5.281  1.1066 -0.0170  0.1199
   82MOL0     H11264   9.439   1.078   5.448  2.8438  0.5912  2.0576
   82MOL0     H11265   9.684   1.038   5.573  0.4324 -1.2421  0.1594
   82MOL0     H11266   9.971   1.147   5.544 -1.4008  0.9924 -1.5605
   82MOL0     H11267  10.036   1.122   5.386 -0.5447 -1.8857 -1.9474
   82MOL0     H11268  10.115   0.958   5.565  0.4166 -1.3862  0.4190
   82MOL0     H11269   9.951   0.886   5.571  0.1339 -0.4919 -0.2685
   82MOL0     H11270  10.103   0.907   5.308  3.4422  0.3742  0.0766
   82MOL0     H11271  10.162   0.777   5.412 -0.4138  0.2270 -0.3826
   82MOL0     H11272   9.876   0.803   5.309  1.1838  1.0387 -1.4586
   82MOL0     H11273  10.007   0.690   5.273  0.1845 -0.3641 -0.4749
   82MOL0     H11274   9.897   0.483   5.623  0.5047  2.9128 -1.1790
   82MOL0     H11275   9.706   0.226   5.666 -1.1800  0.7018 -1.3634
   82MOL0     H11276   9.635   0.355   5.778  0.0795 -0.0651  0.1765
   82MOL0     H11277   9.809   0.338   5.743 -0.8723  1.3387  1.5233
   82MOL0     H11278   9.130   0.518   5.470 -1.3270  0.2578  0.9569
   82MOL0     H11279   8.909   0.422   5.460 -1.2673 -1.9134 -3.8067
   82MOL0     H11280   8.719   0.327   5.490  0.5138 -0.8028 -1.9135
   82MOL0     H11281   8.658   0.165   5.460 -0.5817  0.4359  0.4190
   82MOL0     H11282   8.771   0.288   5.721 -0.7049  1.2838  0.1012
   82MOL0     H11283   8.604   0.242   5.686  1.2323  1.6837 -1.6059
   82MOL0     H11284   8.816   0.026   5.706 -2.5036 -3.2884 -0.6448
   82MOL0     H11285   8.652   0.016   5.673  1.7020 -2.7205  1.1055
   82MOL0     H11286   8.591   0.113   5.903 -0.5181  0.9451  0.0606
   82MOL0     H11287   8.774   0.116   5.925  0.0113  0.5648 -0.0713
   82MOL0     H11288   8.595  -0.131   5.873 -0.9609 -0.2043  0.2889
   82MOL0     H11289   8.756  -0.143   5.952  2.2792  1.0416 -1.8242
   82MOL0     H11290   8.485  -0.047   6.074  0.1450  2.0065  4.7300
   82MOL0     H11291   8.631   0.023   6.129 -2.4317 -0.9709  1.8484
   82MOL0     H11292   8.715  -0.217   6.176  0.1611  1.5915  0.0668
   82MOL0     H11293   8.561  -0.275   6.127  0.3775 -0.4035  0.1697
   82MOL0     H11294   8.436  -0.132   6.307 -1.1183  0.7610  2.9857
   82MOL0     H11295   8.598  -0.081   6.360  0.8255 -0.5031  1.0963
   82MOL0     H11296   9.079   0.020   5.468 -3.0191  0.2063 -1.5156
   82MOL0     H11297   9.297   0.120   5.458 -1.0685 -2.4847 -0.9424
   82MOL0     H11298   9.509   0.526   5.324 -0.0157 -1.1854  0.1783
   82MOL0     H11299   9.717   0.668   5.292  2.7465  0.2376 -0.2004
   82MOL0     H11300   8.730   0.666   5.211  0.9508 -0.3592  1.1446
   82MOL0     H11301   8.482   0.603   5.246  0.7890 -0.7821 -0.2012
   82MOL0     H11302   8.128   0.438   5.256 -1.0462  1.6696  1.1363
   82MOL0     H11303   7.908   0.391   5.274  2.1872  0.8781 -1.4612
   82MOL0     H11304   7.749   0.352   5.526 -0.1518 -0.5762 -0.1112
   82MOL0     H11305   7.672   0.351   5.367  1.3381  2.7593  0.5690
   82MOL0     H11306   7.537   0.132   5.486 -0.6064 -0.4012  2.1190
   82MOL0     H11307   7.493   0.305   5.496  1.1030  1.3923 -3.1026
   82MOL0     H11308   7.675   0.136   5.684 -2.2361 -1.6855 -0.4893
   82MOL0     H11309   7.651   0.317   5.699  3.9655 -1.2436 -1.5625
   82MOL0     H11310   7.422   0.109   5.702  1.2532 -1.4273  1.0087
   82MOL0     H11311   7.408   0.281   5.747 -1.3542 -1.1419  0.2181
   82MOL0     H11312   7.623   0.109   6.078  2.5187  1.3582 -1.1152
   82MOL0     H11313   7.978   0.053   5.534 -2.5475  0.4541 -0.0936
   82MOL0     H11314   8.328   0.017   5.447 -1.8743 -2.2980 -0.5002
   82MOL0     H11315   8.305   0.104   5.602 -0.9242  2.6486 -1.3297
   82MOL0     H11316   8.207  -0.036   5.556  2.6786  0.3665  1.9271
   83MOL0     O11317   8.444   3.676   8.821 -0.1720  0.4440  0.2312
   83MOL0     C11318   8.377   3.672   8.920 -0.0681  1.4713 -0.7045
   83MOL0     O11319   8.380   3.774   9.009  1.4341 -0.8830 -0.7980
   83MOL0     C11320   8.487   3.860   8.996 -0.0663 -0.1735  1.4604
   83MOL0     C11321   8.610   3.842   9.056 -0.5392  0.3300  0.1940
   83MOL0     C11322   8.716   3.930   9.044  0.4379  0.0198  0.3125
   83MOL0     C11323   8.696   4.040   8.963 -0.0937 -0.5668 -0.3227
   83MOL0     O11324   8.797   4.128   8.968  0.0817 -1.2524  0.1592
   83MOL0     C11325   8.784   4.252   8.891 -0.4823 -0.2812 -0.5424
   83MOL0     C11326   8.916   4.342   8.871  0.1833 -0.1247  0.2626
   83MOL0     C11327   9.024   4.263   8.796  0.0721  0.4176  0.4784
   83MOL0     C11328   9.140   4.357   8.774 -0.9688  0.3527 -0.0386
   83MOL0     C11329   9.249   4.301   8.676 -0.2693 -0.0514 -0.1666
   83MOL0     C11330   9.220   4.307   8.528 -0.3055  0.0504 -0.3974
   83MOL0     C11331   9.225   4.452   8.468 -0.4020 -0.9773 -0.1497
   83MOL0     C11332   9.360   4.499   8.425 -0.5827 -0.5122 -0.1899
   83MOL0     N11333   9.438   4.394   8.360 -0.2787 -0.6533 -0.1408
   83MOL0     C11334   9.555   4.348   8.398 -0.2223 -1.2016 -0.0135
   83MOL0     C11335   9.592   4.274   8.292  0.0891 -0.5740 -0.6309
   83MOL0     C11336   9.720   4.195   8.280  0.0325 -0.0376  0.1496
   83MOL0     C11337   9.709   4.035   8.280 -0.2972  0.5123  0.3112
   83MOL0     C11338   9.831   3.975   8.364 -0.0987 -0.1171  0.2335
   83MOL0     C11339   9.805   4.006   8.512 -0.0272 -0.4085 -0.7147
   83MOL0     O11340   9.891   3.922   8.592  0.3442  0.6192  0.7060
   83MOL0     C11341  10.017   3.969   8.618  0.7695 -0.5397  0.3785
   83MOL0     C11342  10.126   3.887   8.637 -0.2180 -0.1999 -1.0733
   83MOL0     C11343  10.245   3.929   8.688  0.1537  0.4280 -0.0781
   83MOL0     C11344  10.355   3.825   8.705  0.6840  0.3578  1.1364
   83MOL0     C11345  10.269   4.063   8.723 -0.5035 -0.0942  0.2006
   83MOL0     C11346  10.383   4.121   8.791  0.8441 -0.8415  0.4304
   83MOL0     O11347  10.419   4.247   8.761  0.6077 -0.0313  0.2704
   83MOL0     C11348  10.536   4.290   8.815  0.2142 -0.1439 -0.2891
   83MOL0     C11349  10.540   4.366   8.937 -0.3522  0.5744  0.1535
   83MOL0     C11350  10.664   4.415   8.985 -0.0025 -0.3440 -0.7101
   83MOL0     C11351  10.777   4.414   8.902  0.4470 -0.6969  0.0925
   83MOL0     O11352  10.890   4.481   8.920 -0.1823  0.3424 -0.3251
   83MOL0     C11353  10.936   4.492   9.052  0.0442 -0.6135  0.4202
   83MOL0     C11354  11.072   4.431   9.061 -0.0114  0.0385  0.9971
   83MOL0     C11355  11.077   4.281   9.019  0.3222 -0.6057 -0.5777
   83MOL0     C11356  11.218   4.238   9.012 -0.5058  0.0806  0.3066
   83MOL0     C11357  11.224   4.080   9.037 -0.7039  0.6080 -0.6783
   83MOL0     C11358  11.360   4.033   9.073  1.1021  0.4583  0.1048
   83MOL0     C11359  11.360   3.877   9.057 -0.2611  0.4151 -0.5129
   83MOL0     C11360  11.511   3.840   9.042 -0.0777  0.2315 -0.3693
   83MOL0    Cl11361  11.507   3.662   9.005 -0.4822  0.1431  0.0122
   83MOL0     C11362  10.765   4.345   8.777 -0.0339 -0.1871 -0.4961
   83MOL0     C11363  10.648   4.274   8.737  0.5913 -0.3990  0.2174
   83MOL0     O11364  10.443   4.047   8.865 -0.0713 -0.0830 -0.5251
   83MOL0     C11365  10.159   4.151   8.703 -0.7908 -0.2021  0.3797
   83MOL0     C11366  10.040   4.109   8.654 -0.4061  0.1989 -0.3159
   83MOL0     N11367   9.493   4.273   8.198 -0.6870  0.0951  0.1062
   83MOL0     N11368   9.400   4.344   8.242 -0.1034  0.4327  0.3073
   83MOL0     C11369   8.583   4.056   8.883 -0.4481  0.1662 -0.2564
   83MOL0     C11370   8.474   3.965   8.900 -0.0056 -0.2252 -0.1439
   83MOL0     C11371   8.282   3.568   8.956 -0.9898  0.5847 -0.5269
   83MOL0     C11372   8.237   3.547   9.087 -0.2432  0.1616  0.7044
   83MOL0     C11373   8.138   3.459   9.116 -0.8682  0.4672 -0.3563
   83MOL0     C11374   8.067   3.392   9.015  0.5227 -0.4859  0.3148
   83MOL0     O11375   7.964   3.317   9.060 -0.6181 -0.3974 -0.1433
   83MOL0     C11376   7.875   3.258   8.967 -0.2249  0.1932  0.9643
   83MOL0     C11377   7.772   3.173   9.051  0.3467  0.1949  0.6193
   83MOL0     C11378   7.698   3.261   9.151  0.5208 -0.3599 -1.0793
   83MOL0     C11379   7.598   3.181   9.234 -0.9611 -0.0775  0.3327
   83MOL0     C11380   7.548   3.259   9.355  0.8535  0.1864  0.7664
   83MOL0     C11381   7.518   3.310   9.454 -0.0701 -0.4450 -0.2717
   83MOL0     C11382   8.113   3.410   8.882  0.6320 -0.2754 -0.8614
   83MOL0     C11383   8.227   3.484   8.853  0.2099 -0.3827  0.5721
   83MOL0     C11384   8.272   3.487   8.710 -0.3730 -0.7355 -0.5840
   83MOL0     H11385   8.610   3.751   9.115 -0.4576 -0.6846 -1.3239
   83MOL0     H11386   8.817   3.921   9.083  0.2282 -0.7677  0.6754
   83MOL0     H11387   8.702   4.302   8.944 -3.0594 -4.3750 -0.2605
   83MOL0     H11388   8.760   4.228   8.787 -1.4244  0.1490 -0.4295
   83MOL0     H11389   8.878   4.431   8.821 -0.4792  0.6369  2.0209
   83MOL0     H11390   8.951   4.380   8.968 -0.7894  2.1353 -0.2197
   83MOL0     H11391   9.065   4.188   8.865  2.0398 -0.3881 -1.4775
   83MOL0     H11392   8.983   4.227   8.702  0.5305  0.4792  0.2538
   83MOL0     H11393   9.091   4.443   8.728 -2.0533 -0.2138  0.0318
   83MOL0     H11394   9.183   4.383   8.871 -1.8856 -2.6141  1.2699
   83MOL0     H11395   9.263   4.197   8.706 -3.3654 -1.0446 -1.6580
   83MOL0     H11396   9.335   4.366   8.690 -0.7020  0.4720  0.1142
   83MOL0     H11397   9.290   4.242   8.475  0.8283  0.2975  0.7508
   83MOL0     H11398   9.119   4.265   8.524  0.9103 -3.6412  2.4679
   83MOL0     H11399   9.171   4.528   8.525 -1.3399 -1.5286 -0.2817
   83MOL0     H11400   9.165   4.442   8.377  0.1718  1.5272 -0.8710
   83MOL0     H11401   9.342   4.590   8.368  0.8472  1.1766  1.8924
   83MOL0     H11402   9.406   4.530   8.519  1.3120  2.2504 -1.8923
   83MOL0     H11403   9.605   4.365   8.493  1.5006  1.8567 -1.3307
   83MOL0     H11404   9.774   4.230   8.368  0.8935 -0.9014 -0.0206
   83MOL0     H11405   9.773   4.217   8.187 -1.0510 -2.0214 -1.0155
   83MOL0     H11406   9.616   4.008   8.330 -0.7759 -0.5726 -1.0900
   83MOL0     H11407   9.705   3.997   8.178 -2.3704  2.6675 -0.4998
   83MOL0     H11408   9.844   3.867   8.356 -2.2682 -0.5786  2.0904
   83MOL0     H11409   9.921   4.029   8.332  0.2548 -0.0840  1.2597
   83MOL0     H11410   9.814   4.114   8.529  4.0121 -0.0395 -3.7405
   83MOL0     H11411   9.705   3.977   8.546 -1.0969  2.8283 -0.7158
   83MOL0     H11412  10.106   3.787   8.598 -0.3791 -0.4902 -0.2655
   83MOL0     H11413  10.442   3.880   8.667  0.1013  0.6015  0.1139
   83MOL0     H11414  10.323   3.742   8.642  2.9708  1.9986 -2.5366
   83MOL0     H11415  10.374   3.789   8.807 -1.3326 -2.3180  0.6731
   83MOL0     H11416  10.446   4.374   8.990 -0.3480 -0.9259  0.4406
   83MOL0     H11417  10.673   4.460   9.083 -0.6688 -0.3803 -0.6310
   83MOL0     H11418  10.935   4.599   9.075  2.5167 -0.4355 -0.0304
   83MOL0     H11419  10.865   4.438   9.115 -0.4545 -2.2061 -1.3996
   83MOL0     H11420  11.141   4.483   8.995 -0.6509 -1.6252 -1.1039
   83MOL0     H11421  11.106   4.442   9.164 -1.3091 -3.0013  1.8622
   83MOL0     H11422  11.027   4.279   8.922 -1.3014  0.6812  0.1708
   83MOL0     H11423  11.015   4.219   9.085 -0.2332  0.5338 -0.0031
   83MOL0     H11424  11.277   4.288   9.089 -1.4177  0.0170  1.0733
   83MOL0     H11425  11.258   4.270   8.916 -2.3041  0.4617 -0.3669
   83MOL0     H11426  11.153   4.045   9.112 -1.4148  0.0075 -1.6069
   83MOL0     H11427  11.190   4.030   8.946 -1.7064 -3.0250  1.5062
   83MOL0     H11428  11.368   4.050   9.180 -2.7230  0.8259  0.4763
   83MOL0     H11429  11.442   4.085   9.023  1.2295 -1.6131 -2.0542
   83MOL0     H11430  11.314   3.837   8.967 -1.0748 -1.7805  0.7888
   83MOL0     H11431  11.306   3.831   9.140 -1.2263  0.0678 -1.3272
   83MOL0     H11432  11.567   3.865   9.133  0.2333 -4.0379  0.8269
   83MOL0     H11433  11.564   3.891   8.962  2.0356 -1.6614 -0.2518
   83MOL0     H11434  10.850   4.365   8.712  0.5637  3.2730  1.1281
   83MOL0     H11435  10.635   4.218   8.645 -3.7613  1.5195 -0.5970
   83MOL0     H11436  10.173   4.253   8.737 -2.8072 -0.4778  2.2906
   83MOL0     H11437   9.966   4.188   8.655  1.1233  1.6828 -0.4143
   83MOL0     H11438   8.560   4.141   8.820  3.4566  2.6558  1.3838
   83MOL0     H11439   8.390   3.967   8.831 -0.1862  0.6614  0.0835
   83MOL0     H11440   8.290   3.604   9.163 -0.0724 -0.4958  1.0895
   83MOL0     H11441   8.114   3.441   9.221  1.4188 -0.2696  0.1027
   83MOL0     H11442   7.813   3.332   8.916 -0.3749 -0.0732  0.7581
   83MOL0     H11443   7.924   3.188   8.898  1.5147  0.5173  1.8233
   83MOL0     H11444   7.818   3.087   9.101  0.3799  1.6152  3.2027
   83MOL0     H11445   7.698   3.129   8.984 -0.0187 -1.4201  2.0193
   83MOL0     H11446   7.772   3.307   9.218  2.7424 -1.7087 -2.4839
   83MOL0     H11447   7.653   3.350   9.106 -0.7271 -0.8706 -0.8747
   83MOL0     H11448   7.641   3.086   9.266  0.3515  0.6374  0.7611
   83MOL0     H11449   7.515   3.170   9.163  1.5582 -0.3145 -2.8175
   83MOL0     H11450   7.487   3.351   9.548 -0.4618 -1.8462  0.2394
   83MOL0     H11451   8.062   3.354   8.804  2.0647 -2.6779 -0.1661
   83MOL0     H11452   8.199   3.435   8.647 -0.4657 -0.2605 -0.8734
   83MOL0     H11453   8.269   3.593   8.684 -1.6865 -0.3923  0.8219
   83MOL0     H11454   8.374   3.451   8.692 -0.0078  0.7284 -1.6502
   84MOL0     O11455   8.695   3.906   5.838  0.0254  0.2423  0.0291
   84MOL0     C11456   8.641   3.972   5.924  0.1271  0.3238 -0.6593
   84MOL0     O11457   8.700   4.008   6.035 -0.0147 -1.2929 -0.3659
   84MOL0     C11458   8.837   3.985   6.046  0.0834  0.3853 -0.6802
   84MOL0     C11459   8.887   3.859   6.091  0.2826 -0.5022  0.9740
   84MOL0     C11460   9.021   3.835   6.102  0.3477 -0.5354  0.2671
   84MOL0     C11461   9.103   3.947   6.080 -0.0054  0.1126 -0.2913
   84MOL0     O11462   9.232   3.914   6.092  0.1836 -0.0818  0.4761
   84MOL0     C11463   9.304   4.000   6.176 -0.1496  0.1279 -0.3529
   84MOL0     C11464   9.257   4.012   6.332  0.1917  0.1367 -0.0256
   84MOL0     C11465   9.264   3.868   6.396  0.4732 -0.7293  0.2045
   84MOL0     C11466   9.407   3.822   6.416 -0.2667 -0.8460 -0.3599
   84MOL0     C11467   9.432   3.779   6.560  0.4468  0.3725  0.1310
   84MOL0     C11468   9.567   3.701   6.567  0.5476 -0.0251 -0.0046
   84MOL0     C11469   9.591   3.591   6.462 -0.2074 -1.2683 -0.0642
   84MOL0     C11470   9.478   3.482   6.458 -0.6776 -0.2249  0.9202
   84MOL0     N11471   9.516   3.352   6.520 -0.4454  0.8079  0.2771
   84MOL0     C11472   9.596   3.258   6.467  0.4165  0.1462 -0.1526
   84MOL0     C11473   9.608   3.165   6.567  0.6994 -0.1285  0.3783
   84MOL0     C11474   9.681   3.034   6.565 -0.3538 -0.1497 -0.3944
   84MOL0     C11475   9.828   3.043   6.615  0.1237  0.3345 -0.4129
   84MOL0     C11476   9.881   2.897   6.612 -0.2408 -0.1101  0.2175
   84MOL0     C11477  10.026   2.885   6.571 -0.3081 -0.2481 -0.2556
   84MOL0     O11478  10.073   2.751   6.538  0.3548  0.5444  0.3563
   84MOL0     C11479  10.178   2.685   6.600 -0.7348 -0.9109 -0.5632
   84MOL0     C11480  10.277   2.759   6.668  0.0888  0.1757 -0.4274
   84MOL0     C11481  10.394   2.705   6.722 -0.4702 -0.1509 -0.6239
   84MOL0     C11482  10.489   2.811   6.760  0.2758  0.5012 -0.0932
   84MOL0     C11483  10.415   2.562   6.709  0.7577 -0.7679  0.7117
   84MOL0     C11484  10.536   2.487   6.757  0.3606 -0.0438  0.4846
   84MOL0     O11485  10.613   2.551   6.854  0.0541  0.6933  0.5728
   84MOL0     C11486  10.741   2.518   6.882 -0.5800 -0.1125 -0.5247
   84MOL0     C11487  10.792   2.545   7.004  0.0760  0.3065 -0.3681
   84MOL0     C11488  10.926   2.510   7.033  0.0402 -0.6743 -0.1624
   84MOL0     C11489  11.007   2.446   6.938  0.4670  0.0560 -0.5686
   84MOL0     O11490  11.128   2.395   6.983 -0.3866 -0.2561  0.3788
   84MOL0     C11491  11.234   2.496   6.990  0.4379  0.9025  0.5913
   84MOL0     C11492  11.365   2.427   6.932  1.1111  0.7070  0.2438
   84MOL0     C11493  11.386   2.432   6.782 -0.5206 -0.0326 -0.1197
   84MOL0     C11494  11.398   2.581   6.732 -0.0977  0.1431  0.2812
   84MOL0     C11495  11.461   2.588   6.597 -0.0442 -0.6707  0.0251
   84MOL0     C11496  11.456   2.723   6.532 -0.1191  0.2916  0.5275
   84MOL0     C11497  11.530   2.704   6.399 -0.2119 -0.2036  0.3658
   84MOL0     C11498  11.571   2.846   6.335 -0.3919 -0.4744 -0.2266
   84MOL0    Cl11499  11.719   2.814   6.228  0.4086  0.0390  0.3237
   84MOL0     C11500  10.959   2.426   6.807 -0.1598  0.3770  0.0848
   84MOL0     C11501  10.831   2.465   6.781  0.5011  0.6599 -0.3465
   84MOL0     O11502  10.558   2.370   6.716  0.4699  0.2271 -0.4541
   84MOL0     C11503  10.314   2.492   6.632  0.4045  0.0550 -0.3475
   84MOL0     C11504  10.204   2.552   6.574  0.0761  0.9437  0.0169
   84MOL0     N11505   9.536   3.200   6.675  1.5157 -0.7965 -0.0360
   84MOL0     N11506   9.487   3.320   6.648 -0.0085  0.0511  0.3421
   84MOL0     C11507   9.062   4.067   6.022  0.9101  0.2588  0.0679
   84MOL0     C11508   8.926   4.083   6.015  1.8461 -0.2786  0.2181
   84MOL0     C11509   8.497   3.991   5.899 -0.3284  0.4388  0.1516
   84MOL0     C11510   8.438   3.976   5.770 -0.3540 -1.5836  0.1786
   84MOL0     C11511   8.303   3.988   5.742  0.7662  0.5298 -0.4109
   84MOL0     C11512   8.211   4.002   5.850  0.0387  0.3254 -0.6583
   84MOL0     O11513   8.078   3.989   5.833 -0.4217 -0.1766  0.0156
   84MOL0     C11514   8.014   4.104   5.773 -0.3925  0.6103 -0.1428
   84MOL0     C11515   7.953   4.082   5.628 -0.4174 -0.5006  0.2459
   84MOL0     C11516   7.827   4.000   5.597  0.0219  0.7753  0.3527
   84MOL0     C11517   7.694   4.049   5.648 -0.2395 -0.2269 -0.4545
   84MOL0     C11518   7.577   3.988   5.576  0.1086 -0.2008 -0.6343
   84MOL0     C11519   7.485   3.929   5.524  1.7253  0.1217 -0.1487
   84MOL0     C11520   8.264   4.022   5.977 -0.1922 -0.3678  0.5024
   84MOL0     C11521   8.405   4.021   6.002  0.2450  0.5435  0.4159
   84MOL0     C11522   8.444   4.040   6.147  0.1259  0.0781 -0.4804
   84MOL0     H11523   8.809   3.787   6.117 -0.1140 -0.6069 -0.4107
   84MOL0     H11524   9.055   3.735   6.130 -0.5111 -0.9668 -0.2019
   84MOL0     H11525   9.293   4.102   6.138 -1.3678 -0.2981 -1.2197
   84MOL0     H11526   9.408   3.968   6.181  0.3368  1.7907  1.0084
   84MOL0     H11527   9.316   4.091   6.379  0.5752  1.0913 -1.9895
   84MOL0     H11528   9.157   4.056   6.340  0.9026  1.7460  0.4494
   84MOL0     H11529   9.205   3.881   6.488  0.3817  0.0857  0.0385
   84MOL0     H11530   9.217   3.796   6.328 -0.0324  0.7984 -1.1337
   84MOL0     H11531   9.416   3.739   6.346 -1.2555 -0.6563 -0.7326
   84MOL0     H11532   9.470   3.908   6.392 -2.1636  1.7150  2.9031
   84MOL0     H11533   9.345   3.718   6.582  0.1437  0.1185 -1.5777
   84MOL0     H11534   9.432   3.858   6.635 -3.3940  0.3190  0.3778
   84MOL0     H11535   9.648   3.773   6.555 -1.5530  2.4505 -0.1950
   84MOL0     H11536   9.590   3.660   6.665  1.1559 -3.2175 -1.3652
   84MOL0     H11537   9.685   3.543   6.487 -1.4134 -3.1403  1.1197
   84MOL0     H11538   9.610   3.635   6.364 -0.8969 -0.6874  0.0541
   84MOL0     H11539   9.390   3.517   6.513 -2.1255  1.3735 -2.1777
   84MOL0     H11540   9.436   3.464   6.359 -0.1170 -0.7500  0.7677
   84MOL0     H11541   9.629   3.246   6.365 -1.6088  2.3385 -1.1639
   84MOL0     H11542   9.673   2.992   6.464 -1.9496 -0.9322  0.0249
   84MOL0     H11543   9.638   2.964   6.637  1.6199 -0.8885  0.1429
   84MOL0     H11544   9.885   3.107   6.548  0.6359 -1.8467 -2.1814
   84MOL0     H11545   9.837   3.081   6.717 -0.6283 -0.0144 -0.2047
   84MOL0     H11546   9.871   2.854   6.712  0.0860  2.6274  1.5152
   84MOL0     H11547   9.826   2.832   6.543  0.4293 -1.5822  1.0277
   84MOL0     H11548  10.042   2.939   6.477 -1.3750 -0.0313 -0.3267
   84MOL0     H11549  10.088   2.933   6.646  2.5447  0.2524 -2.7481
   84MOL0     H11550  10.255   2.863   6.687 -2.5704 -0.2788 -0.6683
   84MOL0     H11551  10.588   2.771   6.738  0.0867  1.1473 -2.2871
   84MOL0     H11552  10.485   2.842   6.865 -0.6343  4.1308 -1.0521
   84MOL0     H11553  10.478   2.901   6.700  2.0395  2.7881  2.7460
   84MOL0     H11554  10.728   2.593   7.078  1.0119  0.1685  0.5659
   84MOL0     H11555  10.971   2.524   7.131 -0.4859  1.1498 -0.1372
   84MOL0     H11556  11.211   2.587   6.934 -2.7974 -0.5184 -0.6484
   84MOL0     H11557  11.248   2.507   7.098 -0.1453  1.0722  0.6542
   84MOL0     H11558  11.442   2.474   6.994 -0.9364 -1.3002  4.7964
   84MOL0     H11559  11.363   2.321   6.961 -0.7608  0.6305  0.0070
   84MOL0     H11560  11.304   2.381   6.732  0.3146 -0.5186 -1.0177
   84MOL0     H11561  11.486   2.396   6.759 -0.4567  0.2400 -0.2753
   84MOL0     H11562  11.461   2.644   6.796 -0.7495 -2.1183  3.3937
   84MOL0     H11563  11.297   2.621   6.721 -0.0822  0.9025  2.4286
   84MOL0     H11564  11.565   2.559   6.618  0.0504 -0.6738 -0.4273
   84MOL0     H11565  11.411   2.515   6.533  0.4310 -0.5857 -0.4493
   84MOL0     H11566  11.499   2.800   6.597  1.6391  1.5081 -1.9140
   84MOL0     H11567  11.352   2.747   6.508 -0.4872 -2.3881 -0.9065
   84MOL0     H11568  11.469   2.650   6.326 -0.1852 -1.9272  1.5531
   84MOL0     H11569  11.626   2.652   6.409 -0.7632 -1.4665 -0.6982
   84MOL0     H11570  11.601   2.912   6.417  0.9730 -0.3813 -0.7606
   84MOL0     H11571  11.493   2.899   6.280 -0.6464  0.2154  0.7770
   84MOL0     H11572  11.012   2.381   6.724 -1.2235  2.9895 -2.1597
   84MOL0     H11573  10.795   2.455   6.679  0.8330  2.5427 -0.6749
   84MOL0     H11574  10.319   2.384   6.626  2.1504  0.1225 -0.4133
   84MOL0     H11575  10.141   2.481   6.521  1.8989 -1.3335  0.7352
   84MOL0     H11576   9.138   4.139   5.994  0.7500  0.3728 -0.0800
   84MOL0     H11577   8.892   4.172   5.964  1.5855 -0.8900 -0.6995
   84MOL0     H11578   8.499   3.974   5.681 -1.9299  2.0255 -1.1937
   84MOL0     H11579   8.258   3.981   5.644 -1.3180  2.6496  0.3008
   84MOL0     H11580   7.929   4.132   5.836 -0.0092  2.7194 -0.4695
   84MOL0     H11581   8.079   4.192   5.766 -0.9509  0.9873 -0.6937
   84MOL0     H11582   8.024   4.015   5.578 -0.8243 -1.6352  1.1309
   84MOL0     H11583   7.949   4.179   5.579  1.0368 -0.5773 -0.0570
   84MOL0     H11584   7.830   4.001   5.488  0.9433  2.2147  0.3588
   84MOL0     H11585   7.831   3.895   5.627 -4.1217 -0.5339 -2.7797
   84MOL0     H11586   7.704   4.158   5.641  0.0292 -0.3317 -1.9282
   84MOL0     H11587   7.688   4.020   5.754 -3.1955 -1.2826 -0.8162
   84MOL0     H11588   7.406   3.862   5.496  0.9680  1.4810 -1.4134
   84MOL0     H11589   8.194   4.039   6.058 -1.1192  0.3001 -0.4165
   84MOL0     H11590   8.532   4.106   6.149  0.9708 -0.9479 -1.8290
   84MOL0     H11591   8.367   4.099   6.197 -0.7392 -0.6412 -0.9451
   84MOL0     H11592   8.453   3.947   6.204 -0.2353 -0.4871 -1.3245
   85MOL0     O11593   7.115   1.863   7.880 -0.0705 -0.1503 -0.5674
   85MOL0     C11594   7.093   1.836   7.996 -0.5513 -0.4158 -0.9148
   85MOL0     O11595   7.151   1.740   8.074 -0.3679 -0.3027 -0.6999
   85MOL0     C11596   7.244   1.664   8.003  0.0289 -0.1759  0.1812
   85MOL0     C11597   7.216   1.549   7.938  0.1691  0.0040 -0.5163
   85MOL0     C11598   7.312   1.481   7.864 -0.5455  0.3193  0.5412
   85MOL0     C11599   7.446   1.517   7.864  0.3751 -0.7128  0.9147
   85MOL0     O11600   7.535   1.434   7.799 -0.6985 -0.1164  0.2995
   85MOL0     C11601   7.653   1.478   7.728 -1.0435  0.0098 -0.2112
   85MOL0     C11602   7.626   1.607   7.648  0.6791 -0.0389 -0.1133
   85MOL0     C11603   7.734   1.617   7.538  0.7758 -0.2372  0.1444
   85MOL0     C11604   7.870   1.664   7.593 -0.7466  0.0979 -0.1013
   85MOL0     C11605   7.867   1.816   7.622  0.4680 -0.5659 -0.1810
   85MOL0     C11606   8.024   1.864   7.619  0.0254 -0.0818  0.3780
   85MOL0     C11607   8.047   1.982   7.715 -0.6517 -0.0859 -0.0220
   85MOL0     C11608   8.047   2.124   7.641  0.1112 -0.0977 -0.2598
   85MOL0     N11609   8.068   2.233   7.731  0.7230 -0.2609 -0.2668
   85MOL0     C11610   8.194   2.247   7.793  0.4498  1.1348  0.1095
   85MOL0     C11611   8.171   2.352   7.873  0.8697  0.2243  0.4958
   85MOL0     C11612   8.279   2.423   7.959 -0.1602  0.4610  0.0967
   85MOL0     C11613   8.310   2.566   7.924  0.2218 -0.4558  0.1086
   85MOL0     C11614   8.438   2.629   7.995 -0.2834  0.6568  0.1438
   85MOL0     C11615   8.488   2.751   7.925  0.4608 -0.9562 -0.5275
   85MOL0     O11616   8.583   2.736   7.821  0.6344 -0.1641 -0.9055
   85MOL0     C11617   8.713   2.704   7.858  0.0968 -1.1465  0.2679
   85MOL0     C11618   8.798   2.675   7.749 -0.0639 -1.2504 -0.7210
   85MOL0     C11619   8.931   2.630   7.763  0.4207 -0.4118  0.1279
   85MOL0     C11620   9.017   2.590   7.640 -0.2932 -0.4986 -1.0892
   85MOL0     C11621   8.986   2.625   7.888 -0.1120 -0.6886 -0.0261
   85MOL0     C11622   9.122   2.577   7.920 -0.1973  0.1784 -0.4686
   85MOL0     O11623   9.226   2.632   7.838 -0.4875 -0.4667 -0.5865
   85MOL0     C11624   9.348   2.567   7.831 -0.0955  0.7420 -0.2918
   85MOL0     C11625   9.369   2.425   7.816 -0.3079 -0.3759  1.0286
   85MOL0     C11626   9.499   2.378   7.795  0.4302  0.2890  0.2345
   85MOL0     C11627   9.607   2.463   7.795 -0.6090  0.1512  0.1653
   85MOL0     O11628   9.740   2.413   7.775  0.0486  0.1328 -0.3753
   85MOL0     C11629   9.756   2.268   7.801  0.1951  0.0668  0.0008
   85MOL0     C11630   9.903   2.247   7.819 -0.5078  0.0568  0.4601
   85MOL0     C11631   9.974   2.266   7.688  0.8309 -0.1841  0.2982
   85MOL0     C11632  10.122   2.233   7.694  0.2958 -0.0307  0.8756
   85MOL0     C11633  10.138   2.082   7.663 -0.2047 -0.6127  0.2769
   85MOL0     C11634  10.287   2.030   7.668  0.3929 -0.5902 -0.2076
   85MOL0     C11635  10.369   2.077   7.540  0.3145  0.4487 -0.9339
   85MOL0     C11636  10.489   1.974   7.504  0.5236 -0.2364 -0.0228
   85MOL0    Cl11637  10.609   2.003   7.638  0.2851 -0.1790  0.0124
   85MOL0     C11638   9.582   2.593   7.834 -0.1098  1.1317 -0.2857
   85MOL0     C11639   9.455   2.650   7.855 -0.3851  0.6944 -0.7319
   85MOL0     O11640   9.149   2.502   8.022  0.5585 -0.7939 -0.1260
   85MOL0     C11641   8.903   2.641   7.994 -0.0236  0.9576 -0.3691
   85MOL0     C11642   8.767   2.677   7.982  0.0996 -0.1201 -0.1026
   85MOL0     N11643   8.035   2.395   7.862  0.3103  0.7464 -0.0319
   85MOL0     N11644   7.975   2.315   7.789  0.3190  0.4678  0.3614
   85MOL0     C11645   7.481   1.635   7.931 -0.3089 -0.1472 -0.6398
   85MOL0     C11646   7.381   1.712   7.999 -0.1099 -0.1032  0.5956
   85MOL0     C11647   6.982   1.905   8.070  0.7565  0.3867 -0.6167
   85MOL0     C11648   6.919   1.845   8.177  0.5371  0.0820 -0.1435
   85MOL0     C11649   6.817   1.901   8.249 -0.2036 -0.3702 -0.0349
   85MOL0     C11650   6.792   2.042   8.231  0.0713  0.9857  0.8042
   85MOL0     O11651   6.700   2.116   8.303  0.1742 -0.4087 -0.7226
   85MOL0     C11652   6.607   2.051   8.393 -0.5541 -0.1457  0.7508
   85MOL0     C11653   6.513   1.958   8.324 -0.1511  0.1122 -0.3110
   85MOL0     C11654   6.423   2.028   8.226 -0.6061  0.0671 -0.3950
   85MOL0     C11655   6.351   2.150   8.277  0.7351 -0.2749 -0.3551
   85MOL0     C11656   6.278   2.121   8.398  0.2131  0.5632 -0.8577
   85MOL0     C11657   6.200   2.106   8.494 -0.2172  1.2578  0.3877
   85MOL0     C11658   6.861   2.105   8.121 -0.5350  0.3554  0.1405
   85MOL0     C11659   6.950   2.031   8.036  0.6261  1.2008  0.3395
   85MOL0     C11660   7.010   2.123   7.928  0.1802  0.0126 -0.4005
   85MOL0     H11661   7.115   1.509   7.943 -0.1265  0.2744 -3.1180
   85MOL0     H11662   7.285   1.392   7.808 -0.5166  0.0055  1.0230
   85MOL0     H11663   7.693   1.393   7.672 -0.5647 -0.7186  1.1869
   85MOL0     H11664   7.730   1.506   7.800  0.2152 -2.5906 -0.4136
   85MOL0     H11665   7.529   1.592   7.600 -0.5345 -2.5470  2.8376
   85MOL0     H11666   7.603   1.694   7.711 -1.6666  0.9587 -2.1496
   85MOL0     H11667   7.751   1.524   7.483  1.8869 -0.9266  1.5775
   85MOL0     H11668   7.701   1.688   7.462  1.2644 -0.3903 -0.2155
   85MOL0     H11669   7.925   1.609   7.670 -1.7456  1.1766  1.4574
   85MOL0     H11670   7.934   1.652   7.505  2.0029 -1.6986  1.9825
   85MOL0     H11671   7.823   1.829   7.721 -0.3661 -0.5546 -0.5492
   85MOL0     H11672   7.822   1.873   7.540  0.4010  0.2243  0.3931
   85MOL0     H11673   8.092   1.783   7.646  0.3188  0.0220 -0.0405
   85MOL0     H11674   8.044   1.902   7.519 -2.9980 -0.5531 -0.5297
   85MOL0     H11675   8.150   1.981   7.753  0.6423  1.4184 -3.1307
   85MOL0     H11676   7.978   1.980   7.800  2.9144 -0.2665  3.2009
   85MOL0     H11677   8.135   2.121   7.577  0.7288 -1.2080  0.6048
   85MOL0     H11678   7.952   2.134   7.588 -0.6395  1.6253  1.2604
   85MOL0     H11679   8.286   2.192   7.779 -0.1976 -0.3001  1.2333
   85MOL0     H11680   8.365   2.355   7.949 -0.6009 -0.1932  0.6385
   85MOL0     H11681   8.245   2.414   8.062 -0.7298  0.2243 -0.1095
   85MOL0     H11682   8.340   2.564   7.819  0.7620  1.9236  0.1616
   85MOL0     H11683   8.217   2.623   7.934 -0.8634 -2.1979  0.3431
   85MOL0     H11684   8.409   2.657   8.096  0.8424  1.7870  0.1785
   85MOL0     H11685   8.514   2.550   7.995 -1.7418 -0.8341 -1.3262
   85MOL0     H11686   8.398   2.808   7.901 -1.3366 -2.1867  2.7302
   85MOL0     H11687   8.531   2.819   7.999  2.2611 -0.4386 -1.9755
   85MOL0     H11688   8.764   2.682   7.646 -2.2419 -0.3132  0.0042
   85MOL0     H11689   8.961   2.572   7.548  0.2397  1.5328 -1.8591
   85MOL0     H11690   9.058   2.494   7.674  0.1674 -0.1416 -0.6089
   85MOL0     H11691   9.101   2.659   7.623 -0.8680 -0.0587 -2.2198
   85MOL0     H11692   9.276   2.372   7.799  0.0518 -0.1829 -2.3844
   85MOL0     H11693   9.505   2.271   7.781  2.1838  0.5708 -1.7109
   85MOL0     H11694   9.704   2.232   7.890 -1.0403 -1.5642 -1.3305
   85MOL0     H11695   9.719   2.204   7.721 -0.3564 -0.8894  0.9872
   85MOL0     H11696   9.948   2.318   7.889  0.2565 -1.5458  1.6414
   85MOL0     H11697   9.924   2.147   7.859 -1.2002  0.2730  1.3786
   85MOL0     H11698   9.949   2.367   7.654  1.1745 -1.0247 -2.7555
   85MOL0     H11699   9.929   2.202   7.611  0.0536 -1.1105  1.4830
   85MOL0     H11700  10.163   2.267   7.789 -0.8582  0.5093  1.2068
   85MOL0     H11701  10.185   2.283   7.619 -0.6622 -1.6994 -1.1535
   85MOL0     H11702  10.083   2.022   7.735 -0.2560  1.9815  2.5966
   85MOL0     H11703  10.106   2.067   7.559  0.0527 -1.5558  0.3294
   85MOL0     H11704  10.287   1.921   7.677 -0.2118 -0.4297  2.6526
   85MOL0     H11705  10.343   2.067   7.754 -0.6734  0.5509  0.0331
   85MOL0     H11706  10.411   2.177   7.554 -1.0489  1.0641 -1.1124
   85MOL0     H11707  10.303   2.073   7.453 -0.2958 -3.9311 -0.4939
   85MOL0     H11708  10.533   1.975   7.404  1.0470 -1.5887  0.1679
   85MOL0     H11709  10.455   1.871   7.521 -0.6483  0.0538 -0.4890
   85MOL0     H11710   9.673   2.652   7.849 -0.3576  1.5569 -0.4483
   85MOL0     H11711   9.452   2.756   7.877  3.5180  0.6340  0.8899
   85MOL0     H11712   8.938   2.637   8.097 -0.2129  4.3209 -0.0730
   85MOL0     H11713   8.704   2.695   8.069  1.5564 -0.2109  1.0081
   85MOL0     H11714   7.578   1.678   7.910  0.6561 -2.5243 -1.3765
   85MOL0     H11715   7.409   1.809   8.037 -1.0483  0.6588 -0.5956
   85MOL0     H11716   6.959   1.751   8.215 -0.0433  0.2375  0.8912
   85MOL0     H11717   6.777   1.838   8.328  0.3087 -1.6528 -0.7732
   85MOL0     H11718   6.662   1.984   8.460 -2.6106 -1.4047  1.3039
   85MOL0     H11719   6.550   2.127   8.448  2.1762  2.0515  0.7434
   85MOL0     H11720   6.460   1.902   8.401 -0.6350 -0.1019 -0.7910
   85MOL0     H11721   6.562   1.873   8.275  0.6899  1.1524 -1.3326
   85MOL0     H11722   6.490   2.050   8.142 -0.4298 -0.4653 -0.4001
   85MOL0     H11723   6.357   1.956   8.177 -0.8229 -1.0466  1.4813
   85MOL0     H11724   6.290   2.181   8.191 -0.4141  0.0295  0.5383
   85MOL0     H11725   6.421   2.230   8.302  1.3591 -1.6697  2.8370
   85MOL0     H11726   6.131   2.084   8.573 -0.3034 -1.8425 -0.4393
   85MOL0     H11727   6.849   2.210   8.094  0.3902  0.8891  1.6756
   85MOL0     H11728   6.995   2.229   7.953  0.8485 -0.0992  0.5494
   85MOL0     H11729   7.118   2.114   7.921  0.4933 -0.1727  2.8700
   85MOL0     H11730   6.964   2.108   7.830 -0.5116  0.9316 -0.2424
   86MOL0     O11731   7.899   7.667  10.005  0.9812  0.1104  0.4690
   86MOL0     C11732   7.873   7.577   9.918  0.6377 -0.7368 -0.0026
   86MOL0     O11733   7.936   7.561   9.797  0.5355  0.3719 -0.2017
   86MOL0     C11734   8.047   7.646   9.789  0.2155 -0.5020  0.3042
   86MOL0     C11735   8.154   7.602   9.866  0.7823 -1.0279  0.1526
   86MOL0     C11736   8.259   7.691   9.888  0.2531  0.3402 -0.9679
   86MOL0     C11737   8.262   7.815   9.819 -0.9510 -0.3176 -0.1573
   86MOL0     O11738   8.381   7.873   9.838 -0.7804 -0.4149  0.7276
   86MOL0     C11739   8.431   7.941   9.718 -0.6433 -0.2508 -0.4604
   86MOL0     C11740   8.430   8.094   9.735 -0.4770 -0.3574 -0.1229
   86MOL0     C11741   8.512   8.132   9.856  0.7449  0.5154  0.2230
   86MOL0     C11742   8.558   8.274   9.875  0.1938  0.0530 -0.0948
   86MOL0     C11743   8.713   8.278   9.887 -0.4085 -0.2655  0.1879
   86MOL0     C11744   8.769   8.414   9.871  0.3767  0.7362 -0.6755
   86MOL0     C11745   8.919   8.419   9.861  0.1366 -0.6123 -0.2480
   86MOL0     C11746   8.996   8.348   9.971  0.2984 -0.0232 -0.0592
   86MOL0     N11747   9.139   8.350   9.955  0.1100  0.1673  0.4633
   86MOL0     C11748   9.209   8.427   9.862 -0.2141  0.8180  0.0123
   86MOL0     C11749   9.337   8.419   9.903  0.2210 -0.0701  0.1938
   86MOL0     C11750   9.466   8.459   9.827 -0.1215  0.6694 -0.8125
   86MOL0     C11751   9.486   8.373   9.704 -0.5324 -0.0832  0.3668
   86MOL0     C11752   9.610   8.423   9.614  0.3088  0.0108 -0.0876
   86MOL0     C11753   9.751   8.387   9.663  0.0322 -0.3613 -0.2133
   86MOL0     O11754   9.769   8.246   9.681  0.3560  0.1656  0.0182
   86MOL0     C11755   9.881   8.200   9.738  0.1408  0.4218  0.4380
   86MOL0     C11756   9.882   8.065   9.772  0.1052 -0.2754 -0.7556
   86MOL0     C11757   9.984   7.992   9.825 -0.5587  0.2594  0.7197
   86MOL0     C11758   9.955   7.844   9.857  1.1449  0.8971 -0.6797
   86MOL0     C11759  10.111   8.052   9.835  0.2261 -0.3890  0.9258
   86MOL0     C11760  10.227   7.993   9.902 -0.4550 -0.6528 -1.0002
   86MOL0     O11761  10.214   7.872   9.955 -0.0224  0.5522  0.4060
   86MOL0     C11762  10.337   7.817   9.986  0.5709 -0.1575 -0.8407
   86MOL0     C11763  10.414   7.750   9.891  0.2510  0.4431  0.6226
   86MOL0     C11764  10.521   7.669   9.926 -0.2040  0.4167 -0.1849
   86MOL0     C11765  10.560   7.667  10.061  0.3598  0.0420  0.0513
   86MOL0     O11766  10.665   7.582  10.088 -0.2303 -0.7514 -0.3501
   86MOL0     C11767  10.742   7.596  10.207 -0.2344  0.6844 -0.0742
   86MOL0     C11768  10.835   7.716  10.205  0.0602  0.2315 -0.3624
   86MOL0     C11769  10.948   7.713  10.306  0.9143 -0.2653  0.3310
   86MOL0     C11770  11.029   7.849  10.294  0.0734 -0.1416  0.3681
   86MOL0     C11771  11.156   7.876  10.386  0.8251 -0.1740  0.3865
   86MOL0     C11772  11.268   7.781  10.368 -0.2828  1.1197 -0.2346
   86MOL0     C11773  11.379   7.811  10.462  0.5645 -0.7416  0.5326
   86MOL0     C11774  11.473   7.685  10.473 -0.0800 -0.0562 -0.1987
   86MOL0    Cl11775  11.536   7.657  10.310 -0.6275 -0.1124 -0.0111
   86MOL0     C11776  10.490   7.741  10.159 -0.5714 -0.4290  0.2727
   86MOL0     C11777  10.369   7.809  10.128  0.1469 -0.4199  0.5384
   86MOL0     O11778  10.329   8.063   9.921 -0.1448  0.2418  0.0639
   86MOL0     C11779  10.114   8.194   9.808  0.7885 -0.2640 -0.3556
   86MOL0     C11780   9.997   8.267   9.755 -0.1936 -0.6435 -0.0340
   86MOL0     N11781   9.352   8.354  10.023  0.2109 -0.2455 -0.8316
   86MOL0     N11782   9.229   8.309  10.044  0.3057 -0.3575 -0.3493
   86MOL0     C11783   8.153   7.855   9.735  0.2329 -0.2460  0.1520
   86MOL0     C11784   8.043   7.768   9.724  0.1747 -0.6234 -0.3865
   86MOL0     C11785   7.774   7.482   9.964 -0.1895  0.5628 -0.3360
   86MOL0     C11786   7.735   7.378   9.871  0.2480 -0.1703 -0.6756
   86MOL0     C11787   7.632   7.292   9.899 -0.4095 -0.1243 -0.1806
   86MOL0     C11788   7.574   7.288  10.024  0.1048 -0.5916 -0.3529
   86MOL0     O11789   7.471   7.198  10.046 -0.5673 -0.0615  0.2524
   86MOL0     C11790   7.360   7.240  10.131 -0.5143 -0.0555 -0.5446
   86MOL0     C11791   7.266   7.122  10.157  0.1350  0.1094  0.1532
   86MOL0     C11792   7.197   7.065  10.038 -0.2959 -0.0773 -0.0650
   86MOL0     C11793   7.140   6.921  10.058 -0.0662 -0.1726 -0.0615
   86MOL0     C11794   7.022   6.911  10.144  0.2606 -0.4153 -0.8710
   86MOL0     C11795   6.921   6.891  10.214 -0.0349  0.2080  0.4891
   86MOL0     C11796   7.610   7.392  10.114 -0.2115  1.1286 -0.3341
   86MOL0     C11797   7.699   7.485  10.082 -0.1691 -0.1609 -0.7669
   86MOL0     C11798   7.720   7.594  10.189  0.5552 -0.1252 -0.7782
   86MOL0     H11799   8.145   7.502   9.906 -2.4169 -1.2565 -0.9123
   86MOL0     H11800   8.337   7.659   9.956  2.1839  4.2910 -1.0390
   86MOL0     H11801   8.385   7.903   9.626  3.4994 -3.6100 -1.4523
   86MOL0     H11802   8.533   7.910   9.698  0.2437  3.2991 -2.3461
   86MOL0     H11803   8.479   8.150   9.655 -0.3526  2.6643  1.9120
   86MOL0     H11804   8.329   8.134   9.735  0.1917  1.4229 -0.2026
   86MOL0     H11805   8.448   8.116   9.943  0.4603  1.4431  0.1997
   86MOL0     H11806   8.595   8.061   9.851  0.4201  0.1527 -0.1728
   86MOL0     H11807   8.523   8.340   9.796  0.2096  0.1769  0.0002
   86MOL0     H11808   8.512   8.312   9.967  1.4297 -0.1825  0.6317
   86MOL0     H11809   8.753   8.218   9.805  0.6985  1.4012 -0.5493
   86MOL0     H11810   8.734   8.246   9.989 -1.1283 -0.2279  0.3520
   86MOL0     H11811   8.709   8.467   9.795 -1.9525  0.1463  0.6498
   86MOL0     H11812   8.734   8.471   9.957 -2.3123 -0.0445 -1.1453
   86MOL0     H11813   8.951   8.524   9.866  3.4430 -1.5643  2.5705
   86MOL0     H11814   8.958   8.379   9.767  0.7300 -1.4681  0.3458
   86MOL0     H11815   8.970   8.402  10.062  2.1204  1.9278 -0.5933
   86MOL0     H11816   8.957   8.247   9.983  4.0427 -1.7089 -0.6567
   86MOL0     H11817   9.180   8.486   9.775  2.4683  1.5077 -0.4910
   86MOL0     H11818   9.544   8.450   9.903 -0.7152  1.8788 -0.0249
   86MOL0     H11819   9.472   8.565   9.802 -2.0524  0.5791 -1.8721
   86MOL0     H11820   9.500   8.269   9.734 -0.0677 -0.2189 -0.3066
   86MOL0     H11821   9.394   8.390   9.648 -2.5438  1.0230  3.6944
   86MOL0     H11822   9.609   8.374   9.517 -2.9853  1.7394 -1.0558
   86MOL0     H11823   9.612   8.527   9.579  0.4588  0.1446  0.3106
   86MOL0     H11824   9.822   8.429   9.591 -1.2366  0.5024 -1.0063
   86MOL0     H11825   9.778   8.438   9.755  0.1343 -0.5848 -0.1180
   86MOL0     H11826   9.786   8.015   9.770 -0.0900 -0.0084  0.7272
   86MOL0     H11827   9.959   7.839   9.966  2.4455 -3.2251 -0.7615
   86MOL0     H11828  10.032   7.775   9.822  2.7991  1.4589  1.6899
   86MOL0     H11829   9.854   7.812   9.828  0.9418  0.9765 -0.0644
   86MOL0     H11830  10.382   7.745   9.787  1.6682  2.5500  0.0200
   86MOL0     H11831  10.571   7.605   9.853 -0.8969  0.4484 -0.7027
   86MOL0     H11832  10.677   7.598  10.296 -0.5391  0.2802 -0.2828
   86MOL0     H11833  10.810   7.510  10.213 -2.1732 -0.8728  1.2825
   86MOL0     H11834  10.886   7.715  10.108 -2.6087  0.0645 -1.8652
   86MOL0     H11835  10.773   7.805  10.190  2.1049  1.3870 -2.5759
   86MOL0     H11836  11.018   7.633  10.282  2.3519  1.5268 -1.8678
   86MOL0     H11837  10.911   7.688  10.405  1.4720 -1.4167  0.2684
   86MOL0     H11838  10.951   7.919  10.326 -0.6554 -1.8342  2.5779
   86MOL0     H11839  11.062   7.865  10.191  0.3023 -0.2470  0.4230
   86MOL0     H11840  11.196   7.975  10.362 -0.9616  0.0915 -1.8851
   86MOL0     H11841  11.129   7.875  10.492 -3.5769  0.7840 -0.5216
   86MOL0     H11842  11.306   7.785  10.266 -1.3981 -1.2084 -0.7835
   86MOL0     H11843  11.233   7.679  10.383  2.1261  0.6472  3.7964
   86MOL0     H11844  11.327   7.850  10.550 -0.7006  2.0204 -1.2757
   86MOL0     H11845  11.440   7.894  10.423 -0.8465 -0.5020 -1.3435
   86MOL0     H11846  11.416   7.595  10.498 -1.5427  0.5044 -1.3395
   86MOL0     H11847  11.549   7.703  10.549 -0.7981 -1.1414  0.8022
   86MOL0     H11848  10.535   7.754  10.257 -2.3481  0.0245  1.0785
   86MOL0     H11849  10.309   7.859  10.203  1.9078  2.8354 -0.0422
   86MOL0     H11850  10.201   8.260   9.814  1.8585 -1.7419  1.2193
   86MOL0     H11851  10.008   8.372   9.729  3.7465 -0.3042  2.1412
   86MOL0     H11852   8.146   7.949   9.682  2.2397 -1.1603 -1.9281
   86MOL0     H11853   7.961   7.804   9.663  1.0865  2.3120 -0.0290
   86MOL0     H11854   7.791   7.361   9.780  0.4083  1.7579 -0.9869
   86MOL0     H11855   7.604   7.224   9.820 -0.3635  1.4743 -1.6368
   86MOL0     H11856   7.393   7.278  10.228 -0.7051 -1.6810  0.1939
   86MOL0     H11857   7.307   7.315  10.072  1.5240  2.1714  0.2726
   86MOL0     H11858   7.197   7.166  10.230  1.9798  2.7615  0.3992
   86MOL0     H11859   7.312   7.031  10.197 -0.8488 -0.9130 -0.9594
   86MOL0     H11860   7.118   7.138  10.016  1.9202  2.5842  0.2906
   86MOL0     H11861   7.251   7.054   9.944 -1.2135  2.7846 -1.0443
   86MOL0     H11862   7.216   6.850  10.091 -0.3370 -0.2371  0.4206
   86MOL0     H11863   7.111   6.893   9.956  1.7842  3.3917 -1.7817
   86MOL0     H11864   6.843   6.857  10.278 -0.1024 -1.7011 -0.5561
   86MOL0     H11865   7.567   7.393  10.214  1.0993  0.0745  0.2793
   86MOL0     H11866   7.686   7.693  10.157  2.2544  1.0309  0.8112
   86MOL0     H11867   7.671   7.574  10.285  1.0831  3.5441  0.4147
   86MOL0     H11868   7.822   7.600  10.226  0.9326  1.1231 -1.9442
   87MOL0     O11869   7.187   4.457   8.424 -0.4087  0.3197 -0.1925
   87MOL0     C11870   7.256   4.401   8.336  0.3320 -0.7161  0.2586
   87MOL0     O11871   7.393   4.435   8.308 -0.8587  0.6194 -0.2196
   87MOL0     C11872   7.444   4.555   8.372 -0.0036  0.0540  0.1217
   87MOL0     C11873   7.391   4.681   8.344 -0.6800  0.5915 -0.6733
   87MOL0     C11874   7.451   4.791   8.406 -0.6044  0.3198  0.4085
   87MOL0     C11875   7.557   4.778   8.493  0.0616  0.1147 -0.2610
   87MOL0     O11876   7.613   4.894   8.547 -0.4372 -0.0186  0.7174
   87MOL0     C11877   7.732   4.884   8.619  0.2325  0.8555 -0.2834
   87MOL0     C11878   7.792   5.020   8.662  0.0156 -0.4465  1.1575
   87MOL0     C11879   7.936   5.005   8.704  0.2590 -0.0232 -0.7340
   87MOL0     C11880   8.002   5.148   8.739  0.2673  0.4671 -0.8795
   87MOL0     C11881   8.150   5.131   8.776  0.2070 -0.2921  0.0637
   87MOL0     C11882   8.221   5.267   8.759  0.3715 -0.6694  0.0782
   87MOL0     C11883   8.359   5.278   8.827 -0.7122 -0.2148 -0.0909
   87MOL0     C11884   8.470   5.318   8.733 -0.3869 -0.7213  0.0294
   87MOL0     N11885   8.601   5.332   8.797 -0.4116 -0.3777  0.1129
   87MOL0     C11886   8.672   5.226   8.839 -0.0179 -0.6446  0.2123
   87MOL0     C11887   8.759   5.284   8.930 -0.1208  0.6572  0.1314
   87MOL0     C11888   8.837   5.209   9.040 -0.0616  0.5152 -0.3288
   87MOL0     C11889   8.990   5.217   9.034  0.5597 -0.0475  0.0133
   87MOL0     C11890   9.048   5.129   9.144  0.4050  0.1903 -0.4726
   87MOL0     C11891   9.199   5.143   9.146 -0.2731  0.3212 -0.2117
   87MOL0     O11892   9.253   5.122   9.014  0.0192  0.3949 -0.5471
   87MOL0     C11893   9.389   5.128   8.994 -0.3241  0.3291  0.9578
   87MOL0     C11894   9.438   5.072   8.876  0.1177 -0.1784  0.1634
   87MOL0     C11895   9.573   5.083   8.836  0.0779 -0.7770  1.6424
   87MOL0     C11896   9.605   5.032   8.703 -0.0539 -0.3340  0.7961
   87MOL0     C11897   9.661   5.135   8.936  0.6362 -0.3595 -0.2679
   87MOL0     C11898   9.811   5.153   8.912 -0.1335  0.1132 -0.1946
   87MOL0     O11899   9.895   5.199   9.012 -0.0394 -0.2720  0.2178
   87MOL0     C11900  10.025   5.230   8.988 -0.2509  0.5597 -0.3913
   87MOL0     C11901  10.111   5.165   8.899 -1.1669 -0.5299  0.5863
   87MOL0     C11902  10.248   5.204   8.883 -0.6978  0.0940 -0.9587
   87MOL0     C11903  10.304   5.298   8.973  1.0537 -0.1275  0.1708
   87MOL0     O11904  10.436   5.321   8.961 -0.0931  0.4127 -0.4407
   87MOL0     C11905  10.508   5.381   9.075  0.5182 -1.2147 -0.1647
   87MOL0     C11906  10.657   5.370   9.055 -1.3575  0.2972 -0.3067
   87MOL0     C11907  10.737   5.407   9.182 -0.0565  0.0402 -0.2588
   87MOL0     C11908  10.885   5.413   9.151 -0.0336 -0.0707  0.7630
   87MOL0     C11909  10.964   5.498   9.265 -0.0498  0.4252  0.1478
   87MOL0     C11910  11.113   5.485   9.242  0.6217 -0.1573 -0.5236
   87MOL0     C11911  11.195   5.544   9.358  0.2000 -0.6601 -0.1845
   87MOL0     C11912  11.194   5.704   9.352  0.2373 -0.4955 -0.4608
   87MOL0    Cl11913  11.291   5.764   9.484 -0.2656 -0.7030 -0.0322
   87MOL0     C11914  10.220   5.350   9.077 -1.0084  0.6407  0.6089
   87MOL0     C11915  10.086   5.313   9.079  0.6349  0.3324 -0.6004
   87MOL0     O11916   9.852   5.104   8.808 -0.3567  0.8350  0.9468
   87MOL0     C11917   9.617   5.182   9.063  0.5823  0.0034 -0.6994
   87MOL0     C11918   9.478   5.169   9.090  0.2235 -0.4307 -0.5553
   87MOL0     N11919   8.742   5.425   8.927  0.2348  0.1458  0.2300
   87MOL0     N11920   8.656   5.448   8.841 -0.3943 -0.1361  0.5464
   87MOL0     C11921   7.603   4.650   8.523  0.2112  0.0476  0.6030
   87MOL0     C11922   7.557   4.539   8.457  0.6228  0.3343 -0.4217
   87MOL0     C11923   7.199   4.308   8.244  0.1393  0.7686  0.0294
   87MOL0     C11924   7.256   4.304   8.110  0.2111 -0.5111 -1.0187
   87MOL0     C11925   7.207   4.215   8.022 -0.2220  0.0195  0.0188
   87MOL0     C11926   7.106   4.121   8.051  0.3417 -0.7430 -0.4799
   87MOL0     O11927   7.067   4.034   7.957  0.3628  0.1597 -0.4831
   87MOL0     C11928   6.933   4.035   7.911 -1.1970  0.1611  0.5922
   87MOL0     C11929   6.827   4.019   8.007 -0.3944  0.4632 -0.9808
   87MOL0     C11930   6.691   3.973   7.945  0.3718 -0.5288  0.0777
   87MOL0     C11931   6.640   4.073   7.841 -0.2139 -0.2825  0.4945
   87MOL0     C11932   6.519   4.043   7.772  0.4979  0.9535  0.7257
   87MOL0     C11933   6.420   4.033   7.703  0.3193 -0.9290  0.4918
   87MOL0     C11934   7.066   4.117   8.187 -0.2566 -0.1246 -0.0336
   87MOL0     C11935   7.105   4.211   8.288  0.1222  0.1078 -0.0300
   87MOL0     C11936   7.049   4.189   8.428 -0.3367 -0.3551 -0.1395
   87MOL0     H11937   7.323   4.705   8.262 -1.8050  3.7360  1.0039
   87MOL0     H11938   7.403   4.888   8.392  0.7013  0.8791 -0.3627
   87MOL0     H11939   7.807   4.822   8.570 -0.1394  0.4397 -0.3354
   87MOL0     H11940   7.709   4.841   8.717  2.2367 -0.9511 -0.5297
   87MOL0     H11941   7.798   5.080   8.571 -2.7298 -1.0928  0.4693
   87MOL0     H11942   7.727   5.076   8.730 -0.1933  0.1200  0.5029
   87MOL0     H11943   7.942   4.947   8.796  2.0023 -0.0877 -0.8681
   87MOL0     H11944   8.001   4.965   8.626  0.2874  0.8715 -1.1875
   87MOL0     H11945   7.996   5.215   8.653 -0.2777  1.2607 -0.2364
   87MOL0     H11946   7.943   5.197   8.817  1.4209 -0.0535  0.3634
   87MOL0     H11947   8.203   5.057   8.716  0.7854  0.2385 -0.0944
   87MOL0     H11948   8.142   5.105   8.882 -3.0169  0.7554  0.1792
   87MOL0     H11949   8.217   5.303   8.656 -4.4802 -1.5437 -0.2723
   87MOL0     H11950   8.162   5.335   8.821  2.2898 -1.5189  3.0649
   87MOL0     H11951   8.373   5.179   8.870  0.6998  0.0389  0.0797
   87MOL0     H11952   8.356   5.349   8.911  2.4972 -0.4408  0.3405
   87MOL0     H11953   8.471   5.247   8.650 -0.7127 -0.5171 -0.1511
   87MOL0     H11954   8.444   5.411   8.682 -2.4538 -0.6084  1.1974
   87MOL0     H11955   8.654   5.119   8.832  2.2843 -0.9780 -4.2201
   87MOL0     H11956   8.809   5.103   9.036  0.5748  0.3727 -1.2638
   87MOL0     H11957   8.800   5.241   9.138 -0.6138 -0.6167 -0.1592
   87MOL0     H11958   9.029   5.191   8.935 -1.6074 -0.2808 -0.8497
   87MOL0     H11959   9.024   5.318   9.058  0.7089 -0.2172  0.5196
   87MOL0     H11960   9.006   5.165   9.239  0.2629 -1.2972  0.0545
   87MOL0     H11961   9.028   5.023   9.127  0.7368  0.4063 -2.5214
   87MOL0     H11962   9.228   5.242   9.184 -1.7295  0.1487  1.5130
   87MOL0     H11963   9.242   5.059   9.202 -1.7403  0.0425  0.5225
   87MOL0     H11964   9.376   5.014   8.808 -0.6899  1.8745 -0.9560
   87MOL0     H11965   9.670   5.101   8.649  2.3328 -1.2816  2.3200
   87MOL0     H11966   9.522   4.998   8.641  1.3471 -1.6779 -0.4401
   87MOL0     H11967   9.671   4.947   8.721  3.4012  1.8320 -0.6268
   87MOL0     H11968  10.081   5.081   8.839 -0.9727  0.4157 -0.8785
   87MOL0     H11969  10.323   5.169   8.813  1.0816  0.3835  0.7263
   87MOL0     H11970  10.484   5.487   9.090  1.2238 -0.6230 -2.6183
   87MOL0     H11971  10.472   5.319   9.157 -3.3985  0.3590 -0.4656
   87MOL0     H11972  10.688   5.269   9.027 -0.4174  0.7699 -1.0548
   87MOL0     H11973  10.684   5.441   8.976  0.2608 -2.2600 -2.2036
   87MOL0     H11974  10.719   5.330   9.258  2.4314  0.2169  0.5792
   87MOL0     H11975  10.704   5.505   9.216 -0.4082  0.1467 -0.8865
   87MOL0     H11976  10.894   5.470   9.058  1.5995  0.6138  1.3127
   87MOL0     H11977  10.922   5.312   9.132 -0.2075  0.4123 -2.9782
   87MOL0     H11978  10.934   5.603   9.254 -0.8037  0.1042 -1.0199
   87MOL0     H11979  10.927   5.454   9.358 -0.9760  2.1018  0.6123
   87MOL0     H11980  11.141   5.519   9.142 -0.6775 -2.2469 -1.6644
   87MOL0     H11981  11.136   5.379   9.246 -1.4281 -0.6133  2.8958
   87MOL0     H11982  11.298   5.508   9.347  0.5460  0.1253  0.4281
   87MOL0     H11983  11.153   5.521   9.456  1.0781 -0.6294  0.2081
   87MOL0     H11984  11.091   5.738   9.352 -0.4014 -2.3250  0.0752
   87MOL0     H11985  11.233   5.742   9.257 -0.1758  3.4848  0.7819
   87MOL0     H11986  10.256   5.426   9.146 -0.9489  0.9403  0.2473
   87MOL0     H11987  10.010   5.353   9.145 -0.6502 -1.8009 -0.6973
   87MOL0     H11988   9.690   5.222   9.132  0.6960 -1.6914  0.2161
   87MOL0     H11989   9.450   5.207   9.187 -0.6089  0.7659 -1.2517
   87MOL0     H11990   7.689   4.635   8.587  0.2335  1.2826  0.8865
   87MOL0     H11991   7.599   4.441   8.472 -3.6610 -1.4590  1.4084
   87MOL0     H11992   7.332   4.377   8.084 -2.0105  1.4805 -2.3285
   87MOL0     H11993   7.242   4.217   7.919 -0.7879 -1.9936 -0.2673
   87MOL0     H11994   6.916   4.130   7.860  1.7700 -0.4515 -1.8771
   87MOL0     H11995   6.931   3.956   7.836  1.3377  0.6486 -0.1085
   87MOL0     H11996   6.809   4.114   8.058  1.5348 -0.0473  0.8246
   87MOL0     H11997   6.852   3.943   8.081 -1.7594  0.6109 -0.3409
   87MOL0     H11998   6.707   3.876   7.896  1.2730 -0.0329 -0.6289
   87MOL0     H11999   6.620   3.956   8.027 -0.4721  2.3164  0.0597
   87MOL0     H12000   6.726   4.067   7.774 -0.3851  2.3524 -0.0534
   87MOL0     H12001   6.620   4.175   7.874 -1.9516 -0.0574 -1.1062
   87MOL0     H12002   6.333   4.012   7.644 -0.6557 -2.1426  2.2490
   87MOL0     H12003   7.013   4.032   8.229 -1.7960  1.2199  0.9026
   87MOL0     H12004   7.015   4.283   8.471 -2.2279 -1.6190  1.2689
   87MOL0     H12005   6.958   4.130   8.439 -1.2064  0.7176 -1.3341
   87MOL0     H12006   7.126   4.138   8.488 -0.6883  0.4025  0.9881
   88MOL0     O12007   0.395   3.321   8.058  0.6998 -0.1003  0.1499
   88MOL0     C12008   0.340   3.374   8.155 -0.5475  0.0395  0.5486
   88MOL0     O12009   0.387   3.487   8.225 -0.5243  0.7898  0.2069
   88MOL0     C12010   0.514   3.529   8.191  0.3821 -0.0664  0.3328
   88MOL0     C12011   0.627   3.451   8.212  0.2810  0.0911  0.0188
   88MOL0     C12012   0.749   3.496   8.173  0.7368 -0.1877 -1.2633
   88MOL0     C12013   0.765   3.610   8.097  0.3464  0.1831  0.3388
   88MOL0     O12014   0.884   3.663   8.053  0.0298  0.3070  0.0390
   88MOL0     C12015   0.997   3.576   8.026 -0.2403  0.2765 -0.9434
   88MOL0     C12016   1.126   3.645   8.023  0.4230  0.1086  0.6595
   88MOL0     C12017   1.125   3.716   7.885 -0.7267  0.4888 -0.7705
   88MOL0     C12018   1.256   3.806   7.870  0.6556 -0.0143  0.3213
   88MOL0     C12019   1.248   3.907   7.754 -0.6379 -0.3689 -0.6703
   88MOL0     C12020   1.381   3.978   7.753  0.2339  0.2210 -0.1661
   88MOL0     C12021   1.378   4.104   7.666 -0.2263 -0.0858 -0.1147
   88MOL0     C12022   1.405   4.077   7.520 -0.1419  0.3259 -0.2832
   88MOL0     N12023   1.398   4.197   7.433  0.1674 -0.1316  0.5798
   88MOL0     C12024   1.294   4.288   7.418 -0.7834  0.5095 -0.3323
   88MOL0     C12025   1.330   4.372   7.322  1.0546 -0.1929  0.5059
   88MOL0     C12026   1.252   4.490   7.275  0.2850 -0.7337 -0.4766
   88MOL0     C12027   1.103   4.461   7.252  0.6425 -0.5962 -0.3436
   88MOL0     C12028   1.001   4.526   7.351 -0.1012  0.0072 -0.2352
   88MOL0     C12029   0.860   4.514   7.284  0.6887 -0.0867  0.0438
   88MOL0     O12030   0.839   4.372   7.250 -0.4403 -0.6163 -0.1322
   88MOL0     C12031   0.721   4.336   7.197  0.6546  0.8302  0.5162
   88MOL0     C12032   0.661   4.406   7.090  0.5403  0.9827 -0.0139
   88MOL0     C12033   0.554   4.359   7.021  1.7782  0.0104  0.6805
   88MOL0     C12034   0.519   4.430   6.885  0.5864 -0.1395  0.5781
   88MOL0     C12035   0.478   4.247   7.072  0.5135 -0.3348  0.7044
   88MOL0     C12036   0.343   4.198   7.021  1.0550  0.0400 -0.4012
   88MOL0     O12037   0.298   4.072   7.063  0.6624 -0.1216  0.3853
   88MOL0     C12038   0.167   4.039   7.056  0.7149  0.4370  0.4248
   88MOL0     C12039   0.055   4.123   7.041  0.2655 -0.9813  0.4104
   88MOL0     C12040  -0.075   4.067   7.044  0.0158  0.2932  0.6273
   88MOL0     C12041  -0.095   3.928   7.034  0.0501 -0.0585 -0.7199
   88MOL0     O12042  -0.225   3.872   7.039 -0.2587  0.1259 -0.2529
   88MOL0     C12043  -0.330   3.941   6.973  0.2633 -0.4880 -0.3178
   88MOL0     C12044  -0.440   3.837   6.960  0.0293  0.3841 -0.5306
   88MOL0     C12045  -0.467   3.734   7.073  0.3834  0.0821  0.3573
   88MOL0     C12046  -0.602   3.659   7.035  0.4551 -0.2922  0.0677
   88MOL0     C12047  -0.648   3.573   7.152  0.7855  0.6810 -0.4166
   88MOL0     C12048  -0.689   3.648   7.277 -0.9424  0.2138  0.0831
   88MOL0     C12049  -0.776   3.773   7.266  1.3668  0.7381  0.4139
   88MOL0     C12050  -0.790   3.843   7.404 -0.5058  0.1804 -0.1261
   88MOL0    Cl12051  -0.635   3.878   7.481 -0.3496  0.6371  0.3089
   88MOL0     C12052   0.016   3.847   7.045 -0.2896  0.6620 -0.0072
   88MOL0     C12053   0.145   3.900   7.058 -0.2997  0.5923 -0.4442
   88MOL0     O12054   0.284   4.277   6.947 -0.2224 -0.2580  0.7950
   88MOL0     C12055   0.535   4.178   7.180 -0.0807  0.6717  0.4507
   88MOL0     C12056   0.659   4.217   7.233 -0.3713 -0.8325 -0.1931
   88MOL0     N12057   1.448   4.330   7.264 -0.6923  0.0021 -0.6630
   88MOL0     N12058   1.483   4.216   7.324  0.5105  0.0791 -0.5353
   88MOL0     C12059   0.642   3.685   8.065 -0.2494  0.3336  0.0554
   88MOL0     C12060   0.519   3.648   8.114 -0.6543  0.3186 -0.2316
   88MOL0     C12061   0.210   3.316   8.198 -0.8168 -1.0947 -0.5078
   88MOL0     C12062   0.203   3.176   8.205 -0.4877  0.2231 -0.8002
   88MOL0     C12063   0.089   3.111   8.254  0.2277  0.6584 -0.3744
   88MOL0     C12064  -0.026   3.190   8.289 -0.3191  0.3668 -0.1655
   88MOL0     O12065  -0.130   3.127   8.340  0.4945 -0.3299 -0.6703
   88MOL0     C12066  -0.201   3.190   8.449  0.3549 -0.4415  0.0908
   88MOL0     C12067  -0.307   3.101   8.511 -0.4043  0.8283  0.9486
   88MOL0     C12068  -0.364   3.161   8.635  0.4579  0.8308 -0.0682
   88MOL0     C12069  -0.487   3.081   8.670 -0.7294 -0.6568  0.1720
   88MOL0     C12070  -0.608   3.152   8.632 -0.0015  0.1486 -0.0843
   88MOL0     C12071  -0.697   3.226   8.611  0.2686  0.1967  0.0251
   88MOL0     C12072  -0.025   3.329   8.266 -0.8654  0.0149 -0.3525
   88MOL0     C12073   0.091   3.391   8.223  0.3684  1.1457 -0.1891
   88MOL0     C12074   0.077   3.541   8.203 -0.5959  0.4387 -1.7053
   88MOL0     H12075   0.620   3.356   8.264  3.0753  0.7766  1.8562
   88MOL0     H12076   0.833   3.435   8.204  0.0034 -1.1281 -1.0783
   88MOL0     H12077   0.979   3.512   7.939 -0.7615 -2.3883  0.9945
   88MOL0     H12078   0.992   3.512   8.115 -2.3987 -1.4728 -2.2249
   88MOL0     H12079   1.133   3.715   8.107 -3.1222  1.6402 -0.1625
   88MOL0     H12080   1.198   3.563   8.026 -0.5052 -0.7382  0.4360
   88MOL0     H12081   1.117   3.632   7.816  0.3612 -1.1160  0.9563
   88MOL0     H12082   1.032   3.775   7.889 -0.2120  1.3094  2.2430
   88MOL0     H12083   1.285   3.866   7.956 -0.4889 -2.5277  2.6103
   88MOL0     H12084   1.337   3.733   7.859 -0.4995 -1.0811 -1.8317
   88MOL0     H12085   1.164   3.976   7.766  1.4767  1.9341  2.2868
   88MOL0     H12086   1.244   3.854   7.658  4.4995 -1.7592 -0.4328
   88MOL0     H12087   1.410   4.006   7.854  0.8443 -0.5141 -0.1254
   88MOL0     H12088   1.456   3.907   7.717  0.3649 -0.2870  1.0558
   88MOL0     H12089   1.444   4.177   7.713 -0.3119 -0.1002  0.0290
   88MOL0     H12090   1.275   4.140   7.672  0.3555  1.8247 -0.7458
   88MOL0     H12091   1.502   4.028   7.510 -1.0981 -1.8420  0.2414
   88MOL0     H12092   1.325   4.012   7.482 -0.2942  0.0556  0.4711
   88MOL0     H12093   1.205   4.299   7.479 -2.3495  2.0988 -2.7316
   88MOL0     H12094   1.295   4.522   7.180 -0.1765  1.4404 -0.0055
   88MOL0     H12095   1.250   4.576   7.343 -0.3895 -1.9007  1.0587
   88MOL0     H12096   1.086   4.494   7.149 -0.2614  1.4498  0.4155
   88MOL0     H12097   1.091   4.352   7.255 -0.0446 -0.5080  1.0216
   88MOL0     H12098   0.989   4.481   7.449 -1.2680 -1.5595 -1.0634
   88MOL0     H12099   1.021   4.632   7.370 -1.7524 -0.0587  2.2818
   88MOL0     H12100   0.784   4.541   7.358  0.9257  0.2210  0.1785
   88MOL0     H12101   0.862   4.571   7.190  0.2629  0.0647  0.1207
   88MOL0     H12102   0.702   4.499   7.051 -0.0313  1.1331 -0.2703
   88MOL0     H12103   0.423   4.482   6.882  0.6656  0.0324  0.9637
   88MOL0     H12104   0.518   4.344   6.817  1.6002 -1.4564  2.1480
   88MOL0     H12105   0.602   4.496   6.859 -1.7067  1.9981 -1.8680
   88MOL0     H12106   0.040   4.230   7.040 -2.2946 -1.2803  0.5752
   88MOL0     H12107  -0.161   4.132   7.028  0.4836  0.5784 -0.8993
   88MOL0     H12108  -0.364   4.022   7.038  1.0452  0.8879 -1.5804
   88MOL0     H12109  -0.313   3.989   6.877  0.7135  1.2940  0.6148
   88MOL0     H12110  -0.533   3.892   6.944  0.5982  2.3826  2.1259
   88MOL0     H12111  -0.420   3.772   6.875  1.3193  1.1015 -0.8166
   88MOL0     H12112  -0.479   3.785   7.169 -0.1762 -1.7802  1.3156
   88MOL0     H12113  -0.389   3.658   7.080 -1.2823 -1.6167  1.4733
   88MOL0     H12114  -0.599   3.593   6.947 -1.3714 -1.3511  0.7370
   88MOL0     H12115  -0.679   3.730   7.006  2.7739  0.8366 -4.1077
   88MOL0     H12116  -0.729   3.508   7.117 -0.0379  1.1068  0.6618
   88MOL0     H12117  -0.571   3.502   7.184  1.2080  1.6242  0.7105
   88MOL0     H12118  -0.595   3.658   7.332 -0.7333  0.7401 -0.3561
   88MOL0     H12119  -0.750   3.585   7.341  1.3957 -1.0635  1.1842
   88MOL0     H12120  -0.874   3.774   7.216  0.9151  4.1908  1.1208
   88MOL0     H12121  -0.712   3.830   7.199  3.0472 -0.0058  1.3349
   88MOL0     H12122  -0.845   3.776   7.471  0.0880  1.5532  1.8482
   88MOL0     H12123  -0.847   3.934   7.381 -2.2636 -0.7309  0.4137
   88MOL0     H12124   0.006   3.739   7.044  1.1701  0.4975 -1.9094
   88MOL0     H12125   0.226   3.831   7.075  1.8188  2.2543 -3.0949
   88MOL0     H12126   0.485   4.094   7.226  1.0671  0.9879  2.3745
   88MOL0     H12127   0.701   4.148   7.306 -1.8941  0.2841  1.8313
   88MOL0     H12128   0.641   3.772   8.000  0.1570  1.7655  1.8805
   88MOL0     H12129   0.426   3.693   8.080 -0.6169  1.9873  1.7137
   88MOL0     H12130   0.291   3.113   8.196  0.4214  0.8428  2.3941
   88MOL0     H12131   0.095   3.004   8.273  2.0993  1.1217  2.1327
   88MOL0     H12132  -0.121   3.214   8.519  0.3345  3.7677 -1.0168
   88MOL0     H12133  -0.256   3.275   8.406  2.4773  0.7087 -0.5201
   88MOL0     H12134  -0.255   3.009   8.540  0.3857  0.1833 -2.1371
   88MOL0     H12135  -0.381   3.077   8.434 -1.4827  0.3584  2.1096
   88MOL0     H12136  -0.288   3.159   8.713 -0.1437  0.4294  0.5191
   88MOL0     H12137  -0.394   3.266   8.622  0.0811  0.7932  0.4659
   88MOL0     H12138  -0.483   3.062   8.778 -1.1419 -1.1777  0.1044
   88MOL0     H12139  -0.479   2.980   8.628  0.3189  0.2068 -1.8010
   88MOL0     H12140  -0.777   3.293   8.590 -2.0050 -1.3166  3.0470
   88MOL0     H12141  -0.110   3.393   8.288 -1.2224 -0.0089 -1.5777
   88MOL0     H12142   0.141   3.582   8.124  1.7285  0.0611 -0.1189
   88MOL0     H12143  -0.023   3.564   8.165 -1.9480  1.7956  2.1859
   88MOL0     H12144   0.091   3.591   8.300 -3.8868  4.3319 -2.9636
   89MOL0     O12145   5.808   1.003   8.893 -0.3285  0.2706  0.2592
   89MOL0     C12146   5.734   0.901   8.895  0.3672 -0.2193 -0.8087
   89MOL0     O12147   5.775   0.777   8.916  0.2918 -0.0636 -0.7746
   89MOL0     C12148   5.907   0.749   8.944 -0.4180  0.8329 -0.1607
   89MOL0     C12149   5.955   0.742   9.076 -0.6013 -0.7214 -0.2827
   89MOL0     C12150   6.091   0.716   9.108  0.6242  0.1784 -0.3128
   89MOL0     C12151   6.186   0.682   9.008  0.2321 -0.5039 -0.8687
   89MOL0     O12152   6.318   0.638   9.042  0.5050  0.4977  0.4508
   89MOL0     C12153   6.400   0.594   8.930  0.6206  0.1177  0.1809
   89MOL0     C12154   6.546   0.559   8.966 -0.0802  0.5576 -0.7434
   89MOL0     C12155   6.546   0.446   9.071 -0.5644  0.2065  0.3250
   89MOL0     C12156   6.687   0.401   9.099  0.6645 -0.7179 -0.1839
   89MOL0     C12157   6.682   0.268   9.186  0.1218 -0.6058 -0.1351
   89MOL0     C12158   6.819   0.210   9.216  0.8526 -0.4159 -0.1313
   89MOL0     C12159   6.819   0.089   9.313  0.4792  0.6696 -0.4394
   89MOL0     C12160   6.970   0.058   9.340 -0.5654 -0.1933  0.4717
   89MOL0     N12161   6.982  -0.077   9.385 -0.1936 -0.3585  0.4241
   89MOL0     C12162   7.039  -0.187   9.315 -0.4815  0.6902  0.0275
   89MOL0     C12163   7.040  -0.289   9.402  1.7105  0.5481 -0.5454
   89MOL0     C12164   7.113  -0.422   9.391 -1.2654  0.2935  0.5023
   89MOL0     C12165   7.257  -0.417   9.328 -0.6983 -0.3735 -0.4073
   89MOL0     C12166   7.356  -0.335   9.414  0.6276 -0.1012  0.0323
   89MOL0     C12167   7.506  -0.327   9.366  0.0451  1.3260  0.2376
   89MOL0     O12168   7.558  -0.457   9.348 -0.2893 -0.1499  0.5613
   89MOL0     C12169   7.687  -0.468   9.308 -0.1234  1.4558 -0.0205
   89MOL0     C12170   7.793  -0.438   9.392 -0.1101  0.8564 -0.1595
   89MOL0     C12171   7.926  -0.428   9.356 -0.5696 -0.3487  0.1032
   89MOL0     C12172   8.022  -0.389   9.472 -0.3512 -0.1403 -0.1898
   89MOL0     C12173   7.954  -0.482   9.228  0.3271 -0.5571 -0.3155
   89MOL0     C12174   8.096  -0.514   9.185  0.6569 -0.5083  0.0082
   89MOL0     O12175   8.152  -0.485   9.058 -0.4337 -0.1921 -0.6336
   89MOL0     C12176   8.290  -0.500   9.044  0.2443  0.9490 -0.7217
   89MOL0     C12177   8.327  -0.574   8.932 -0.2169  0.5545 -0.0949
   89MOL0     C12178   8.464  -0.588   8.901  0.2144 -0.6418 -0.4124
   89MOL0     C12179   8.558  -0.534   8.990  0.1479  0.0081 -0.3632
   89MOL0     O12180   8.694  -0.557   8.967  0.5478  0.3484  0.6774
   89MOL0     C12181   8.735  -0.602   8.839  0.7784 -0.2493 -0.1333
   89MOL0     C12182   8.885  -0.624   8.844 -0.6291  0.4285 -0.1486
   89MOL0     C12183   8.950  -0.649   8.706 -0.7351 -1.4664 -0.1075
   89MOL0     C12184   9.096  -0.611   8.717 -0.7552 -1.3070  0.4400
   89MOL0     C12185   9.164  -0.661   8.594  1.0280 -0.1275  0.0124
   89MOL0     C12186   9.092  -0.602   8.467  0.1564  0.0448 -0.2214
   89MOL0     C12187   9.188  -0.601   8.349  0.7881 -0.5227  0.2360
   89MOL0     C12188   9.129  -0.511   8.235  0.3302 -0.0996 -0.2226
   89MOL0    Cl12189   9.218  -0.350   8.252  0.0619  0.3326 -0.0483
   89MOL0     C12190   8.523  -0.468   9.115  0.2891  0.7536  0.0108
   89MOL0     C12191   8.387  -0.449   9.136  0.9099  0.3035  0.2750
   89MOL0     O12192   8.153  -0.569   9.281  0.0335  0.2904 -0.1395
   89MOL0     C12193   7.856  -0.519   9.135  0.6517 -0.1683 -0.0781
   89MOL0     C12194   7.722  -0.502   9.176  0.1779 -0.0384 -0.1274
   89MOL0     N12195   6.976  -0.247   9.516  1.0827 -0.0601 -0.0158
   89MOL0     N12196   6.948  -0.117   9.511 -0.4019  0.3063  0.0211
   89MOL0     C12197   6.139   0.702   8.875  1.0764  0.4198  0.8578
   89MOL0     C12198   6.002   0.729   8.840  0.0472 -0.4397 -0.3545
   89MOL0     C12199   5.586   0.930   8.882 -0.5582  0.8127  0.9781
   89MOL0     C12200   5.489   0.827   8.910 -0.4735 -0.2868 -0.1109
   89MOL0     C12201   5.355   0.834   8.871 -0.6240 -0.6011 -0.7843
   89MOL0     C12202   5.312   0.953   8.813  0.4885 -0.1176  0.5488
   89MOL0     O12203   5.178   0.967   8.784 -1.0050  0.3958  0.3564
   89MOL0     C12204   5.090   0.853   8.771  0.2191 -0.4609 -1.1244
   89MOL0     C12205   5.123   0.763   8.647  1.4347  1.0484  0.0483
   89MOL0     C12206   5.075   0.617   8.656 -0.0142  0.2118  0.2234
   89MOL0     C12207   4.932   0.606   8.622 -0.2499 -0.6070 -0.2344
   89MOL0     C12208   4.881   0.466   8.640 -0.2661 -0.5977  0.7262
   89MOL0     C12209   4.829   0.359   8.658 -0.0347 -0.4246 -0.1548
   89MOL0     C12210   5.399   1.061   8.791  0.6887 -0.2080  0.4429
   89MOL0     C12211   5.529   1.051   8.830  0.5557 -0.7873  0.3305
   89MOL0     C12212   5.607   1.180   8.807  0.1712 -0.4810 -0.1172
   89MOL0     H12213   5.887   0.760   9.159 -1.3514 -0.5100 -0.9344
   89MOL0     H12214   6.120   0.722   9.212  0.0937  1.3632 -0.2152
   89MOL0     H12215   6.397   0.676   8.858 -1.0281 -0.5838 -0.5929
   89MOL0     H12216   6.369   0.507   8.871 -1.1710  0.6702  0.2634
   89MOL0     H12217   6.599   0.523   8.877 -2.2298 -1.5365 -1.3027
   89MOL0     H12218   6.596   0.647   9.007 -2.4772  1.1915  1.0681
   89MOL0     H12219   6.498   0.483   9.161  0.8684 -0.9274  1.6128
   89MOL0     H12220   6.494   0.359   9.031 -0.2917  0.8167 -1.4514
   89MOL0     H12221   6.742   0.383   9.007  1.8413 -1.9070  0.7051
   89MOL0     H12222   6.750   0.469   9.157 -1.6069  1.1360  0.2435
   89MOL0     H12223   6.632   0.188   9.129  1.5200 -1.6438  0.0355
   89MOL0     H12224   6.630   0.284   9.281 -0.7909 -0.1545 -0.6955
   89MOL0     H12225   6.864   0.173   9.123  0.7793  0.8844 -0.7013
   89MOL0     H12226   6.880   0.289   9.262 -2.4428  1.2990  1.6798
   89MOL0     H12227   6.757   0.012   9.266 -0.3637 -2.3661  4.8956
   89MOL0     H12228   6.762   0.113   9.403  0.7392 -0.8872  0.1728
   89MOL0     H12229   7.023   0.062   9.244 -0.1910 -1.7123  0.6032
   89MOL0     H12230   7.010   0.126   9.416 -0.3910 -0.7129  0.8459
   89MOL0     H12231   7.094  -0.189   9.221  1.3978  2.9132  1.0090
   89MOL0     H12232   7.051  -0.489   9.331 -2.1531  0.1802  1.5219
   89MOL0     H12233   7.124  -0.461   9.492  1.3956  1.8321  0.8908
   89MOL0     H12234   7.308  -0.514   9.328  0.5776  0.2747  0.2143
   89MOL0     H12235   7.257  -0.377   9.226  1.5127 -0.1926 -0.3832
   89MOL0     H12236   7.326  -0.230   9.412  2.6383  0.5768  1.7117
   89MOL0     H12237   7.360  -0.368   9.518  1.7896  2.6284  0.9446
   89MOL0     H12238   7.504  -0.282   9.266 -1.8874 -1.7468 -1.2756
   89MOL0     H12239   7.572  -0.270   9.432 -0.9478  2.5690  0.1929
   89MOL0     H12240   7.773  -0.406   9.494  1.2215 -0.4418  0.5496
   89MOL0     H12241   8.118  -0.360   9.430 -1.5845  2.1051 -1.6009
   89MOL0     H12242   8.037  -0.474   9.540  0.8303  1.7140  2.0080
   89MOL0     H12243   7.982  -0.311   9.537 -1.0849 -1.6023  1.2003
   89MOL0     H12244   8.244  -0.607   8.870  1.4125 -0.2930 -1.9356
   89MOL0     H12245   8.494  -0.634   8.807 -0.9505 -1.4970 -0.3773
   89MOL0     H12246   8.682  -0.692   8.806  1.5652 -0.2802 -1.3943
   89MOL0     H12247   8.715  -0.529   8.760  1.8427 -0.7009 -0.8429
   89MOL0     H12248   8.929  -0.528   8.875 -0.6951  1.4263 -2.9377
   89MOL0     H12249   8.912  -0.696   8.922  2.8042 -2.5688 -3.6958
   89MOL0     H12250   8.904  -0.585   8.631  0.6872 -2.5176 -1.9736
   89MOL0     H12251   8.940  -0.751   8.669 -0.2311 -1.4307 -0.3541
   89MOL0     H12252   9.145  -0.653   8.806 -0.0560 -1.3838  0.0284
   89MOL0     H12253   9.108  -0.503   8.730  1.7066 -1.2265 -1.6462
   89MOL0     H12254   9.265  -0.619   8.600  1.1943 -0.2799 -1.3224
   89MOL0     H12255   9.175  -0.769   8.584  0.6006 -0.0268 -1.8716
   89MOL0     H12256   9.070  -0.495   8.478 -0.3497 -0.2217  1.6490
   89MOL0     H12257   9.004  -0.667   8.460  1.9222 -3.0184  2.9505
   89MOL0     H12258   9.200  -0.701   8.307 -1.4472 -1.4934  1.7696
   89MOL0     H12259   9.286  -0.565   8.383  0.5479 -0.1249  0.5151
   89MOL0     H12260   9.022  -0.491   8.244  0.5601  1.3372 -0.4143
   89MOL0     H12261   9.156  -0.555   8.139 -0.8518  1.7776 -1.4708
   89MOL0     H12262   8.597  -0.441   9.189 -0.7841 -0.5296  1.6408
   89MOL0     H12263   8.343  -0.400   9.222  1.5482 -0.4748  1.0565
   89MOL0     H12264   7.886  -0.568   9.043 -0.5394 -0.0010 -0.5697
   89MOL0     H12265   7.646  -0.519   9.100 -0.5336  1.2543  0.2600
   89MOL0     H12266   6.199   0.691   8.785 -0.6060 -1.5171 -0.0926
   89MOL0     H12267   5.968   0.743   8.738 -4.3056  0.9770  1.0556
   89MOL0     H12268   5.530   0.740   8.961  1.9509 -0.0842 -1.5811
   89MOL0     H12269   5.290   0.748   8.885 -1.4110 -0.1053 -1.2956
   89MOL0     H12270   5.069   0.800   8.865 -0.3230 -2.0927 -2.1289
   89MOL0     H12271   4.996   0.895   8.736 -0.8532  1.2592  3.1724
   89MOL0     H12272   5.231   0.776   8.630  1.1893  4.2640  0.2168
   89MOL0     H12273   5.083   0.807   8.555  2.0150  3.3215  0.8086
   89MOL0     H12274   5.133   0.563   8.580 -0.3882 -1.1295  0.8587
   89MOL0     H12275   5.098   0.575   8.754 -0.8893  0.0681  0.3771
   89MOL0     H12276   4.908   0.636   8.520  0.6321  0.7601 -0.0730
   89MOL0     H12277   4.884   0.681   8.687  3.4494  0.0791  1.9990
   89MOL0     H12278   4.782   0.263   8.665 -0.4248 -0.2522 -0.3375
   89MOL0     H12279   5.366   1.156   8.750 -0.1761 -0.2311  1.0616
   89MOL0     H12280   5.659   1.169   8.712  0.8448  1.7726 -0.0527
   89MOL0     H12281   5.534   1.260   8.793 -2.2723 -2.5520 -0.0382
   89MOL0     H12282   5.672   1.203   8.892 -1.7614  0.4330  1.2131
   90MOL0     O12283   9.093   2.164   5.222  1.0593 -0.0905  0.2989
   90MOL0     C12284   9.024   2.106   5.308  0.0076  0.1208 -0.7112
   90MOL0     O12285   9.076   2.011   5.399  0.2913  0.0292  0.1280
   90MOL0     C12286   9.199   1.959   5.371  0.8080  0.1154 -0.3283
   90MOL0     C12287   9.318   2.012   5.429  0.6671  0.1730 -0.3241
   90MOL0     C12288   9.443   1.949   5.401  0.3512  0.4282  0.2118
   90MOL0     C12289   9.456   1.848   5.305  1.6072  0.4291 -0.4318
   90MOL0     O12290   9.581   1.819   5.251 -0.2944 -0.2918  0.0630
   90MOL0     C12291   9.610   1.726   5.146  0.2962 -0.7552 -0.2926
   90MOL0     C12292   9.764   1.713   5.131 -0.0113  0.6094 -0.9074
   90MOL0     C12293   9.804   1.616   5.028 -0.1461  0.3790  0.6183
   90MOL0     C12294   9.794   1.470   5.061  0.7089  0.7135  0.4341
   90MOL0     C12295   9.905   1.409   5.146 -0.3869 -0.1124  0.0470
   90MOL0     C12296  10.033   1.394   5.065  0.3952 -0.3797  0.2720
   90MOL0     C12297  10.118   1.288   5.127 -0.6682  0.0148 -0.3241
   90MOL0     C12298  10.253   1.282   5.062  0.4619  0.7058 -0.2555
   90MOL0     N12299  10.333   1.161   5.114  0.0247  0.9598  0.9651
   90MOL0     C12300  10.341   1.126   5.244 -0.1494  0.4251 -0.7855
   90MOL0     C12301  10.429   1.026   5.242 -0.2079  0.2693  0.2514
   90MOL0     C12302  10.481   0.940   5.355  0.4239 -0.2090  0.1039
   90MOL0     C12303  10.457   0.794   5.318  0.0463  0.0779 -0.1505
   90MOL0     C12304  10.528   0.702   5.425  0.1859 -0.2128 -0.2839
   90MOL0     C12305  10.538   0.560   5.374  0.2522  0.7207  0.4497
   90MOL0     O12306  10.616   0.552   5.254  0.1449 -0.0249  0.6630
   90MOL0     C12307  10.740   0.497   5.270  0.4262  1.2960  0.4755
   90MOL0     C12308  10.779   0.378   5.343  0.4871 -0.4041  1.1369
   90MOL0     C12309  10.909   0.356   5.370 -0.2162 -0.5873 -0.3273
   90MOL0     C12310  10.946   0.234   5.458  0.4384  0.4134  0.3283
   90MOL0     C12311  11.013   0.445   5.327  0.7816  0.3582 -0.1737
   90MOL0     C12312  11.154   0.430   5.363 -0.5049  0.2167 -0.2391
   90MOL0     O12313  11.223   0.543   5.353  0.0121  0.4175 -0.5186
   90MOL0     C12314  11.360   0.542   5.353  0.2636  0.1193 -0.0894
   90MOL0     C12315  11.448   0.456   5.423 -0.2527 -0.7307  0.1482
   90MOL0     C12316  11.591   0.472   5.419  0.5241  0.0227  0.5766
   90MOL0     C12317  11.645   0.577   5.343  0.3226  0.7722  0.7594
   90MOL0     O12318  11.780   0.583   5.324 -0.4265 -0.3873 -0.2206
   90MOL0     C12319  11.863   0.570   5.434  0.3586 -0.3803 -1.0436
   90MOL0     C12320  12.012   0.599   5.398 -0.4020 -1.0794 -0.6709
   90MOL0     C12321  12.103   0.564   5.521  0.7369 -0.0081  0.6101
   90MOL0     C12322  12.151   0.422   5.507  0.1173 -0.5928 -0.4508
   90MOL0     C12323  12.215   0.380   5.640  0.5509 -0.0602 -0.2429
   90MOL0     C12324  12.120   0.376   5.763 -0.0681  0.6927  0.1891
   90MOL0     C12325  12.161   0.280   5.870 -0.4959  0.5224 -0.0466
   90MOL0     C12326  12.054   0.238   5.963 -0.1683 -0.7098 -0.2766
   90MOL0    Cl12327  12.111   0.124   6.082 -0.3179  0.4220  0.2927
   90MOL0     C12328  11.557   0.670   5.277  0.3186  0.5915 -0.1709
   90MOL0     C12329  11.419   0.647   5.284 -0.3412 -0.5380  0.2770
   90MOL0     O12330  11.197   0.321   5.402 -0.3550  0.4080  0.7303
   90MOL0     C12331  10.966   0.540   5.232 -0.0953 -0.3824 -0.1578
   90MOL0     C12332  10.836   0.568   5.206 -0.2966  0.2046  0.1025
   90MOL0     N12333  10.462   0.996   5.111  0.5154 -0.0862  0.0238
   90MOL0     N12334  10.404   1.077   5.028 -0.8193 -0.0459 -0.4581
   90MOL0     C12335   9.337   1.796   5.256  0.0585 -0.4103 -0.3998
   90MOL0     C12336   9.208   1.843   5.290 -0.0354 -0.1626 -0.2827
   90MOL0     C12337   8.885   2.161   5.331 -0.0448  0.3893  0.8610
   90MOL0     C12338   8.831   2.149   5.456 -0.9602 -0.1868 -0.1758
   90MOL0     C12339   8.704   2.195   5.490 -0.0333  0.1630 -0.8159
   90MOL0     C12340   8.614   2.243   5.392 -0.6638  0.0034  0.7720
   90MOL0     O12341   8.483   2.281   5.402 -0.2329  0.7414  0.6110
   90MOL0     C12342   8.426   2.277   5.534  0.7102 -0.7881 -0.0916
   90MOL0     C12343   8.274   2.302   5.522 -0.2740 -0.0549 -0.0555
   90MOL0     C12344   8.252   2.450   5.556  0.7567 -0.9135 -0.7704
   90MOL0     C12345   8.099   2.474   5.573  0.1439  0.3118 -0.1602
   90MOL0     C12346   8.073   2.601   5.639 -0.5173 -0.0560 -1.3835
   90MOL0     C12347   8.043   2.706   5.687  0.5888  0.1470 -0.2327
   90MOL0     C12348   8.671   2.246   5.259  0.0395  0.7303  0.0894
   90MOL0     C12349   8.804   2.216   5.233  0.0808 -0.3417  0.6919
   90MOL0     C12350   8.859   2.239   5.090  0.8053 -0.1626 -0.4807
   90MOL0     H12351   9.306   2.091   5.502  0.3091 -0.4109  0.2602
   90MOL0     H12352   9.526   1.990   5.457  0.5733  2.1136 -1.2727
   90MOL0     H12353   9.568   1.771   5.055  0.8142 -2.2291 -1.3122
   90MOL0     H12354   9.552   1.637   5.174  0.0600 -0.1362  1.2295
   90MOL0     H12355   9.804   1.814   5.115  1.5313  0.0056 -0.9759
   90MOL0     H12356   9.807   1.681   5.226  1.0628 -1.4133 -2.0131
   90MOL0     H12357   9.742   1.626   4.939 -0.4309  0.9195  0.8733
   90MOL0     H12358   9.910   1.628   5.001  0.6000 -3.7200  1.0404
   90MOL0     H12359   9.696   1.448   5.103 -0.4475  0.4785 -2.2063
   90MOL0     H12360   9.799   1.417   4.966  2.8502  1.5833 -0.0143
   90MOL0     H12361   9.876   1.309   5.179  0.1999  0.1677  1.5025
   90MOL0     H12362   9.928   1.465   5.238 -2.1803 -0.5094  0.7896
   90MOL0     H12363  10.029   1.388   4.956  2.2195  0.4589  0.1122
   90MOL0     H12364  10.084   1.490   5.078  1.9707 -1.3391  1.6783
   90MOL0     H12365  10.069   1.191   5.126  0.0168 -0.3376 -0.3301
   90MOL0     H12366  10.124   1.310   5.234 -1.9225 -1.4611  0.0788
   90MOL0     H12367  10.242   1.277   4.953 -2.2571 -0.3911 -0.0127
   90MOL0     H12368  10.320   1.363   5.091 -0.0053  1.1247 -0.3440
   90MOL0     H12369  10.297   1.185   5.324 -1.2713 -0.7416 -0.5209
   90MOL0     H12370  10.427   0.974   5.444 -0.6511  1.0136 -0.9654
   90MOL0     H12371  10.588   0.961   5.359  0.0864  1.7517 -0.1260
   90MOL0     H12372  10.352   0.770   5.303 -0.1108 -3.3651  4.4084
   90MOL0     H12373  10.523   0.783   5.231  3.8145  1.8487  2.2348
   90MOL0     H12374  10.627   0.741   5.450 -0.5829  2.7525 -1.4192
   90MOL0     H12375  10.474   0.702   5.520  1.3849  1.7338  0.4754
   90MOL0     H12376  10.586   0.495   5.447  2.5296 -1.1726 -2.4934
   90MOL0     H12377  10.443   0.510   5.352 -0.4060  2.0666  0.1338
   90MOL0     H12378  10.702   0.310   5.379  1.9778 -2.0740  1.3392
   90MOL0     H12379  11.019   0.175   5.401  1.0882  2.2594 -0.8123
   90MOL0     H12380  10.866   0.163   5.480 -0.2541  0.7966 -0.8968
   90MOL0     H12381  10.997   0.270   5.548  0.6127  1.4905 -0.1890
   90MOL0     H12382  11.412   0.378   5.489  1.5299 -0.9377  0.9373
   90MOL0     H12383  11.656   0.397   5.464  1.7972  0.5591 -0.3063
   90MOL0     H12384  11.821   0.636   5.511 -0.3032  0.2911 -1.9622
   90MOL0     H12385  11.859   0.475   5.488 -0.1427  0.2474  0.0508
   90MOL0     H12386  12.044   0.548   5.307 -3.5604 -0.9775 -1.9800
   90MOL0     H12387  12.028   0.702   5.365 -1.8698 -0.2221  1.0997
   90MOL0     H12388  12.030   0.574   5.603  0.0244  1.6091 -0.1816
   90MOL0     H12389  12.182   0.635   5.548  0.4960  1.1607 -1.5463
   90MOL0     H12390  12.218   0.403   5.423  0.8724 -3.5227  0.7106
   90MOL0     H12391  12.071   0.352   5.486 -0.7133 -0.0639  0.8161
   90MOL0     H12392  12.248   0.277   5.621  2.1113  0.5546 -1.0566
   90MOL0     H12393  12.301   0.445   5.659  0.8406  0.4125 -2.8335
   90MOL0     H12394  12.024   0.341   5.722  0.0581  2.7571 -2.1243
   90MOL0     H12395  12.101   0.477   5.800  3.5825  2.0188 -1.1070
   90MOL0     H12396  12.239   0.324   5.933  2.1226 -2.5161 -0.8782
   90MOL0     H12397  12.206   0.189   5.829  1.9170  1.6333 -0.0093
   90MOL0     H12398  11.975   0.179   5.917  0.5529 -3.5234  1.7967
   90MOL0     H12399  12.003   0.321   6.012  1.2151 -0.8649  1.5267
   90MOL0     H12400  11.592   0.757   5.223 -4.7424  1.2340 -3.0586
   90MOL0     H12401  11.358   0.721   5.233  0.2709 -1.2615 -1.5564
   90MOL0     H12402  11.043   0.605   5.192 -0.7055 -0.4859 -1.5391
   90MOL0     H12403  10.808   0.656   5.148  3.2670  2.8581  1.9804
   90MOL0     H12404   9.342   1.718   5.180  0.9295 -3.6715  2.7214
   90MOL0     H12405   9.116   1.795   5.256 -1.2275  2.6926 -1.4404
   90MOL0     H12406   8.884   2.098   5.536 -0.4641 -2.6703 -1.9655
   90MOL0     H12407   8.656   2.179   5.586 -1.2377 -0.1122 -1.4495
   90MOL0     H12408   8.436   2.179   5.581  1.0350 -1.1824 -0.9631
   90MOL0     H12409   8.472   2.351   5.599 -1.8477  0.9346 -0.0752
   90MOL0     H12410   8.213   2.240   5.588 -0.9814  0.1148 -0.5341
   90MOL0     H12411   8.235   2.290   5.420  0.8975  1.8291 -0.7747
   90MOL0     H12412   8.306   2.484   5.645 -0.9810  0.9609 -0.3693
   90MOL0     H12413   8.292   2.512   5.475 -1.0914  1.3557 -0.0479
   90MOL0     H12414   8.058   2.389   5.628  1.9065 -1.9674 -2.1579
   90MOL0     H12415   8.054   2.475   5.473  2.2401 -0.3569 -1.1670
   90MOL0     H12416   8.009   2.798   5.731 -1.5914 -1.2398  1.1111
   90MOL0     H12417   8.609   2.287   5.180 -2.6212  0.1721  1.7469
   90MOL0     H12418   8.962   2.274   5.080  1.3419 -2.0299 -2.0666
   90MOL0     H12419   8.840   2.145   5.036  1.7194 -1.5326  1.4893
   90MOL0     H12420   8.800   2.314   5.035  0.8791 -0.7640 -1.4089
   91MOL0     O12421  10.161   8.410   2.952 -0.0238  0.1055 -0.4383
   91MOL0     C12422  10.098   8.445   3.052 -0.0351  0.3085  0.6638
   91MOL0     O12423  10.100   8.574   3.109  0.1680  0.1966  1.0031
   91MOL0     C12424  10.156   8.681   3.042  0.9538 -0.3276  1.4711
   91MOL0     C12425  10.095   8.739   2.932  0.2149  0.3947 -0.5061
   91MOL0     C12426  10.169   8.833   2.855 -0.0978 -0.6678 -0.5752
   91MOL0     C12427  10.302   8.868   2.894  0.1843  0.3013 -0.0084
   91MOL0     O12428  10.381   8.958   2.828  0.1415 -0.4837  0.1375
   91MOL0     C12429  10.324   9.047   2.731  0.5893  0.4971  0.4689
   91MOL0     C12430  10.442   9.120   2.654 -0.0992 -0.0379 -1.0742
   91MOL0     C12431  10.524   9.213   2.742 -0.5618  0.3010  0.3213
   91MOL0     C12432  10.668   9.230   2.699 -0.6272 -0.4229  0.3867
   91MOL0     C12433  10.745   9.302   2.816  0.6871 -1.0235 -0.3160
   91MOL0     C12434  10.885   9.348   2.773 -0.5084  0.0515  0.3959
   91MOL0     C12435  10.967   9.380   2.899  0.1937  0.9478 -0.0155
   91MOL0     C12436  11.093   9.447   2.859  0.1014  0.3971 -0.4448
   91MOL0     N12437  11.202   9.361   2.808  0.0569 -0.2395  0.6196
   91MOL0     C12438  11.229   9.234   2.845  0.2726 -0.1756  0.3663
   91MOL0     C12439  11.353   9.209   2.796  0.0757  0.3238 -0.4430
   91MOL0     C12440  11.428   9.085   2.808 -0.5917  1.4767  0.3300
   91MOL0     C12441  11.580   9.097   2.819 -0.6631 -0.2747 -0.2903
   91MOL0     C12442  11.643   9.205   2.907 -0.6091  0.9437 -0.4721
   91MOL0     C12443  11.581   9.211   3.047  0.8438  0.1440 -0.0460
   91MOL0     O12444  11.663   9.296   3.126  0.2718  0.6918  0.1481
   91MOL0     C12445  11.625   9.314   3.253  0.8219  0.2106  0.0282
   91MOL0     C12446  11.643   9.214   3.349  0.6834 -0.7728 -0.8902
   91MOL0     C12447  11.629   9.243   3.488 -0.5267  0.6179 -0.8602
   91MOL0     C12448  11.637   9.132   3.589  0.3362 -0.4591 -0.0081
   91MOL0     C12449  11.591   9.374   3.528 -0.5874  0.1677 -0.1719
   91MOL0     C12450  11.587   9.411   3.667 -1.6068  0.0871  0.2373
   91MOL0     O12451  11.675   9.355   3.757  1.0819 -0.1685 -0.0828
   91MOL0     C12452  11.683   9.417   3.882  0.3707 -0.0618 -0.0236
   91MOL0     C12453  11.794   9.506   3.907  0.5595  0.2012 -0.0135
   91MOL0     C12454  11.798   9.580   4.026  0.4816 -0.3032  0.7986
   91MOL0     C12455  11.698   9.555   4.132  0.3625  0.2817  0.5617
   91MOL0     O12456  11.702   9.601   4.265  0.1165  0.0396  0.3162
   91MOL0     C12457  11.832   9.640   4.312 -0.6782 -0.2838  0.8306
   91MOL0     C12458  11.941   9.526   4.311 -0.0109  0.5857 -0.0488
   91MOL0     C12459  12.054   9.550   4.410 -0.2802  0.4450 -0.6007
   91MOL0     C12460  12.106   9.689   4.407 -0.0576 -0.8767  0.4504
   91MOL0     C12461  12.242   9.706   4.482  0.1887 -0.6587  0.6963
   91MOL0     C12462  12.259   9.849   4.536 -0.2843  0.9038  0.1264
   91MOL0     C12463  12.226   9.962   4.430  0.5626 -0.2430  0.3365
   91MOL0     C12464  12.309   9.952   4.305  0.7302  0.1594 -0.6386
   91MOL0    Cl12465  12.464  10.028   4.345 -0.2823 -0.3068 -0.2307
   91MOL0     C12466  11.599   9.460   4.110 -0.6203  1.2030 -0.5568
   91MOL0     C12467  11.595   9.389   3.986  0.3817 -0.2801  0.7517
   91MOL0     O12468  11.503   9.495   3.687 -0.0652  0.2666 -0.7678
   91MOL0     C12469  11.572   9.469   3.429 -0.2286  0.2521  0.9449
   91MOL0     C12470  11.593   9.447   3.294 -1.2489  0.7670  0.5022
   91MOL0     N12471  11.393   9.328   2.722 -0.2597  0.0473  0.1771
   91MOL0     N12472  11.309   9.418   2.741 -0.2826  0.5839  1.0518
   91MOL0     C12473  10.360   8.796   2.996  0.8541 -0.1325 -0.2254
   91MOL0     C12474  10.287   8.707   3.078  0.9846 -0.3610  0.2653
   91MOL0     C12475  10.010   8.347   3.124  0.5567 -0.5139  0.0648
   91MOL0     C12476   9.932   8.399   3.226  1.3604 -0.2849  0.2589
   91MOL0     C12477   9.834   8.330   3.300  0.0751  0.0484 -0.6487
   91MOL0     C12478   9.831   8.193   3.284 -0.6303  0.2676  0.0773
   91MOL0     O12479   9.743   8.092   3.331  0.0286  0.1707 -0.1954
   91MOL0     C12480   9.611   8.129   3.381 -0.5882 -0.8411 -0.3213
   91MOL0     C12481   9.522   8.115   3.261  0.2360 -0.3094 -0.3821
   91MOL0     C12482   9.383   8.156   3.298  0.4752 -0.5491 -0.0691
   91MOL0     C12483   9.350   8.301   3.247 -0.2423  0.6769 -0.2878
   91MOL0     C12484   9.387   8.402   3.347  0.0190  0.2549  0.6991
   91MOL0     C12485   9.403   8.477   3.434 -0.8861  0.4889 -0.7894
   91MOL0     C12486   9.915   8.139   3.182  0.2418 -0.2053  0.5342
   91MOL0     C12487   9.995   8.207   3.100  0.0615 -0.3228 -0.4250
   91MOL0     C12488  10.081   8.133   3.000 -0.1104 -0.0530  0.3415
   91MOL0     H12489   9.997   8.700   2.906  0.0198 -0.0641  0.8589
   91MOL0     H12490  10.115   8.882   2.774  2.0850 -0.0510 -1.7345
   91MOL0     H12491  10.262   9.123   2.779 -2.7111 -2.0265  0.5499
   91MOL0     H12492  10.261   8.996   2.658  1.8327  0.7075 -0.8083
   91MOL0     H12493  10.491   9.032   2.614 -1.1317 -0.3537 -1.6822
   91MOL0     H12494  10.400   9.180   2.573 -1.2065  0.3925 -0.2171
   91MOL0     H12495  10.478   9.311   2.755  2.8723  2.1365 -0.2159
   91MOL0     H12496  10.534   9.169   2.841  0.7763  0.1581  0.1400
   91MOL0     H12497  10.713   9.135   2.669  0.7648 -0.3120  1.9729
   91MOL0     H12498  10.673   9.295   2.611  2.2561 -0.1720  0.6631
   91MOL0     H12499  10.737   9.239   2.906 -0.5772  2.5601  2.3127
   91MOL0     H12500  10.694   9.390   2.857  2.5291  0.7969 -1.7377
   91MOL0     H12501  10.935   9.262   2.728 -2.6833  0.4778 -3.1424
   91MOL0     H12502  10.875   9.423   2.694 -3.2755 -1.6585 -1.0192
   91MOL0     H12503  10.991   9.292   2.961  2.0505  1.1202 -0.4359
   91MOL0     H12504  10.906   9.447   2.960 -0.4865  1.3431 -1.1064
   91MOL0     H12505  11.065   9.521   2.783 -2.8208 -0.7944 -0.6678
   91MOL0     H12506  11.132   9.499   2.947 -2.1819  1.1506  0.1975
   91MOL0     H12507  11.153   9.169   2.887  0.6840 -0.9037  0.0008
   91MOL0     H12508  11.427   9.029   2.714 -0.2569  0.3531  0.9879
   91MOL0     H12509  11.391   9.018   2.885  0.7510 -0.2154 -0.4320
   91MOL0     H12510  11.613   8.999   2.853  0.8129 -1.3405 -4.2541
   91MOL0     H12511  11.626   9.116   2.722  0.8542  0.7767  0.5931
   91MOL0     H12512  11.747   9.176   2.923 -0.1601  1.7522 -1.7493
   91MOL0     H12513  11.640   9.305   2.863 -1.3467  0.1728 -2.2787
   91MOL0     H12514  11.480   9.249   3.031  0.7939 -0.6403 -1.8496
   91MOL0     H12515  11.576   9.113   3.095 -0.4456 -0.3304 -1.0924
   91MOL0     H12516  11.670   9.116   3.310 -0.6002 -1.8175  0.6958
   91MOL0     H12517  11.736   9.126   3.636  0.4040  0.3224 -0.0451
   91MOL0     H12518  11.601   9.037   3.550  2.3031 -0.5568 -1.7489
   91MOL0     H12519  11.560   9.150   3.665 -0.8052  1.1002 -1.4918
   91MOL0     H12520  11.862   9.528   3.825 -0.4245  1.2952 -0.5730
   91MOL0     H12521  11.878   9.651   4.043  1.0130 -1.3881  3.3129
   91MOL0     H12522  11.864   9.722   4.247 -1.5774 -0.5279  0.0589
   91MOL0     H12523  11.817   9.678   4.413  4.6194  2.5298  0.8805
   91MOL0     H12524  11.901   9.426   4.327  1.2145  0.2820  1.2758
   91MOL0     H12525  11.982   9.522   4.210  2.7811  0.8835  0.9926
   91MOL0     H12526  12.134   9.479   4.386  0.0382  0.1669  1.1494
   91MOL0     H12527  12.014   9.525   4.509  0.8235  0.9886 -0.0144
   91MOL0     H12528  12.034   9.752   4.459  0.8862 -0.7356  1.6147
   91MOL0     H12529  12.113   9.721   4.303  0.0921 -0.3448  0.6244
   91MOL0     H12530  12.258   9.635   4.563 -0.0873 -0.7581  0.6638
   91MOL0     H12531  12.321   9.675   4.414  1.0247 -0.8650  1.7315
   91MOL0     H12532  12.358   9.867   4.580 -0.4742  0.7978  0.6077
   91MOL0     H12533  12.192   9.865   4.621  0.5481  0.5570  0.8670
   91MOL0     H12534  12.242  10.062   4.471  3.0842 -0.2837 -0.4272
   91MOL0     H12535  12.120   9.957   4.404  0.0669 -3.2965  2.3789
   91MOL0     H12536  12.250  10.002   4.229 -0.0979 -0.8125 -0.6596
   91MOL0     H12537  12.328   9.852   4.265  1.6301  0.0111  0.1206
   91MOL0     H12538  11.531   9.438   4.192 -1.1259  0.7307 -1.1002
   91MOL0     H12539  11.518   9.314   3.970  2.5102 -2.3674 -0.2651
   91MOL0     H12540  11.555   9.573   3.455  0.1819  0.5972 -0.0936
   91MOL0     H12541  11.585   9.533   3.228  0.6567 -0.1804 -1.0690
   91MOL0     H12542  10.462   8.819   3.026  1.1254  0.7179 -1.6530
   91MOL0     H12543  10.329   8.655   3.164  1.5145  0.9885  0.8559
   91MOL0     H12544   9.926   8.504   3.253 -1.3425 -0.7839  1.9724
   91MOL0     H12545   9.772   8.368   3.381  1.1889 -3.4119  2.1022
   91MOL0     H12546   9.579   8.064   3.462 -1.5655  1.1214  0.9475
   91MOL0     H12547   9.623   8.231   3.420  2.0782  0.1475 -3.1902
   91MOL0     H12548   9.509   8.012   3.226 -1.2223  0.6153 -2.7972
   91MOL0     H12549   9.559   8.172   3.175  1.7993  0.7692  0.9584
   91MOL0     H12550   9.312   8.079   3.268 -0.2990 -0.6909  1.9339
   91MOL0     H12551   9.369   8.155   3.407 -0.3321 -0.2242 -0.1683
   91MOL0     H12552   9.241   8.312   3.253  0.0506  3.4330  2.4549
   91MOL0     H12553   9.395   8.317   3.148  2.4020  1.3365  0.9314
   91MOL0     H12554   9.429   8.542   3.515  3.3211 -1.5047 -0.2790
   91MOL0     H12555   9.911   8.031   3.168 -1.5621  0.0139 -1.1990
   91MOL0     H12556  10.188   8.148   3.014  0.0561 -0.4973 -0.4425
   91MOL0     H12557  10.061   8.025   2.999 -1.0610  0.1019 -1.8103
   91MOL0     H12558  10.053   8.163   2.899 -2.5510 -1.2657  0.5568
   92MOL0     O12559   1.075   8.056   3.296 -0.2033  0.1275  0.3839
   92MOL0     C12560   1.139   8.055   3.191 -0.7771 -0.3239 -0.1665
   92MOL0     O12561   1.120   8.141   3.087 -0.2005 -1.0772  0.4299
   92MOL0     C12562   1.059   8.261   3.113 -0.6019 -0.0469  0.7629
   92MOL0     C12563   1.096   8.338   3.223 -0.1266  0.0704  0.3400
   92MOL0     C12564   1.026   8.454   3.258  0.8507 -1.0568  0.1291
   92MOL0     C12565   0.926   8.510   3.169  0.7868  0.1640  0.4637
   92MOL0     O12566   0.864   8.631   3.195  0.1975 -0.1625  0.3497
   92MOL0     C12567   0.931   8.747   3.247  0.1193  0.1326 -0.8623
   92MOL0     C12568   1.062   8.764   3.168  0.0504 -0.1364 -0.7048
   92MOL0     C12569   1.030   8.818   3.029  0.8048 -0.6205 -0.0311
   92MOL0     C12570   1.120   8.756   2.919 -0.2545  0.2491 -0.3916
   92MOL0     C12571   1.260   8.784   2.931 -0.3180  0.1111 -0.8808
   92MOL0     C12572   1.296   8.931   2.939 -0.2436  0.3237  1.0716
   92MOL0     C12573   1.450   8.950   2.932 -0.0150 -1.2104 -0.2595
   92MOL0     C12574   1.467   9.100   2.888  0.3286 -0.1645 -0.3300
   92MOL0     N12575   1.610   9.135   2.867  0.2789 -0.1099  0.0347
   92MOL0     C12576   1.706   9.126   2.965 -1.0101 -0.1820 -0.2305
   92MOL0     C12577   1.810   9.188   2.904  0.2708  0.4216  0.4181
   92MOL0     C12578   1.943   9.209   2.983  0.7461  0.4662  0.1533
   92MOL0     C12579   2.054   9.259   2.898 -0.6161  0.2663 -0.0708
   92MOL0     C12580   2.126   9.130   2.831  1.0720  0.4470 -0.8139
   92MOL0     C12581   2.223   9.172   2.721  0.3960  0.6342  0.9014
   92MOL0     O12582   2.314   9.272   2.782  0.2323 -0.2735  0.5771
   92MOL0     C12583   2.446   9.266   2.731 -0.1737  0.3665  0.0067
   92MOL0     C12584   2.543   9.275   2.830  0.0579 -0.5698 -0.5462
   92MOL0     C12585   2.680   9.289   2.798 -0.1654 -0.2647  0.8940
   92MOL0     C12586   2.777   9.289   2.919  0.7906 -0.7407  0.5136
   92MOL0     C12587   2.717   9.301   2.658 -0.1299  0.1606 -0.3447
   92MOL0     C12588   2.853   9.331   2.613  0.3013 -0.2365 -0.0878
   92MOL0     O12589   2.866   9.337   2.476 -0.1528 -0.6172 -0.2111
   92MOL0     C12590   2.984   9.357   2.417 -0.4577  0.0625  0.3664
   92MOL0     C12591   3.047   9.481   2.415  0.1808 -0.1513  0.4812
   92MOL0     C12592   3.167   9.491   2.346  0.4942 -0.2633  0.7941
   92MOL0     C12593   3.224   9.387   2.275  0.7579 -0.2021  0.0179
   92MOL0     O12594   3.330   9.390   2.190 -0.6230  0.2929 -0.4473
   92MOL0     C12595   3.428   9.482   2.227 -0.0067 -0.2768  0.7645
   92MOL0     C12596   3.550   9.469   2.135  0.0191 -0.0138  0.1700
   92MOL0     C12597   3.596   9.319   2.109  0.5946  0.1808  0.8478
   92MOL0     C12598   3.574   9.271   1.964  0.1228  0.2810 -0.5471
   92MOL0     C12599   3.632   9.133   1.957 -0.1890  0.0710 -0.1656
   92MOL0     C12600   3.640   9.073   1.809 -0.4517  0.0607  0.2575
   92MOL0     C12601   3.741   9.144   1.728  0.2047 -0.1934 -1.0588
   92MOL0     C12602   3.794   9.059   1.609 -0.6640  0.4886  0.4373
   92MOL0    Cl12603   3.654   8.977   1.527  0.0164 -0.1906 -0.0599
   92MOL0     C12604   3.155   9.268   2.277  0.8837 -0.0658 -0.0874
   92MOL0     C12605   3.037   9.252   2.355  0.6181  0.1532  0.7232
   92MOL0     O12606   2.933   9.374   2.696 -0.8947 -0.6570 -0.6315
   92MOL0     C12607   2.614   9.285   2.566 -0.6415 -0.0961  0.6178
   92MOL0     C12608   2.478   9.270   2.598 -0.2846  0.1697  0.2569
   92MOL0     N12609   1.778   9.221   2.775  0.2331 -0.6792  0.5165
   92MOL0     N12610   1.652   9.203   2.760 -0.1809  0.0563 -0.1755
   92MOL0     C12611   0.900   8.437   3.047  1.0351  0.7159  0.0330
   92MOL0     C12612   0.964   8.311   3.023  0.4391  0.6123 -0.1641
   92MOL0     C12613   1.222   7.936   3.165 -0.6853 -0.5195 -0.1784
   92MOL0     C12614   1.307   7.941   3.053  0.9410 -0.2931 -1.3382
   92MOL0     C12615   1.406   7.843   3.033 -0.8065  0.6298  0.2864
   92MOL0     C12616   1.416   7.738   3.114  0.7078  0.1483 -0.3387
   92MOL0     O12617   1.508   7.640   3.085 -1.1809 -0.2053  0.0288
   92MOL0     C12618   1.643   7.674   3.139 -0.8943  0.0540 -0.4585
   92MOL0     C12619   1.731   7.724   3.022 -0.3044  1.0251 -0.6420
   92MOL0     C12620   1.879   7.731   3.049  0.1051  0.1711 -0.4007
   92MOL0     C12621   1.925   7.798   3.181  0.2930 -0.1941  0.3852
   92MOL0     C12622   1.978   7.698   3.273  0.0647 -0.6713  0.6707
   92MOL0     C12623   2.023   7.627   3.365  0.2573  0.2459  0.4583
   92MOL0     C12624   1.335   7.731   3.223 -0.1160  0.6245  0.1204
   92MOL0     C12625   1.239   7.825   3.255  0.1797  0.9494 -0.0208
   92MOL0     C12626   1.166   7.807   3.389  0.3255  0.0238  0.1088
   92MOL0     H12627   1.178   8.300   3.283  1.3412  0.0750 -1.5758
   92MOL0     H12628   1.052   8.506   3.349  1.2090  0.1880 -0.6677
   92MOL0     H12629   0.951   8.731   3.354 -0.7200  0.6191 -0.6263
   92MOL0     H12630   0.876   8.841   3.242 -1.3302 -0.7442 -2.2445
   92MOL0     H12631   1.112   8.842   3.227 -1.6180  0.7749 -0.4114
   92MOL0     H12632   1.128   8.677   3.167  1.6396  0.9789  0.6680
   92MOL0     H12633   0.927   8.795   2.998  0.7764 -0.5059 -0.0189
   92MOL0     H12634   1.039   8.926   3.039  0.7417 -0.8379  3.4407
   92MOL0     H12635   1.101   8.648   2.924  0.0730  0.2066 -0.0509
   92MOL0     H12636   1.089   8.787   2.818  0.4117 -2.0795 -1.3905
   92MOL0     H12637   1.311   8.730   2.850  2.3327 -1.8685  1.8662
   92MOL0     H12638   1.297   8.730   3.019  1.5494  0.6002 -1.3186
   92MOL0     H12639   1.254   8.986   2.855 -3.1981 -3.6093 -0.3391
   92MOL0     H12640   1.264   8.978   3.032 -2.4250 -2.2662  1.7735
   92MOL0     H12641   1.506   8.878   2.872  0.1896 -1.5920  0.3756
   92MOL0     H12642   1.494   8.931   3.031 -0.0438 -1.0318 -0.2109
   92MOL0     H12643   1.419   9.124   2.792  0.8483 -1.1033 -0.8381
   92MOL0     H12644   1.422   9.172   2.956 -0.1709  0.1203 -0.9426
   92MOL0     H12645   1.697   9.077   3.061  2.5270  1.6336  1.1836
   92MOL0     H12646   1.972   9.116   3.032  0.4907 -0.5190 -1.4959
   92MOL0     H12647   1.912   9.283   3.058 -0.0292  2.0659 -1.6617
   92MOL0     H12648   2.008   9.325   2.824 -2.1159 -0.7481 -0.0921
   92MOL0     H12649   2.129   9.311   2.958  1.9656 -2.5576 -0.6175
   92MOL0     H12650   2.175   9.066   2.904  2.4283  0.1808 -1.9134
   92MOL0     H12651   2.048   9.068   2.786 -0.3923 -0.0082  2.1198
   92MOL0     H12652   2.287   9.091   2.684  2.0891  2.2733  0.0583
   92MOL0     H12653   2.158   9.204   2.639  0.0637 -0.1917  0.8339
   92MOL0     H12654   2.501   9.282   2.929 -2.1406  0.9368 -1.5072
   92MOL0     H12655   2.873   9.250   2.885  2.3586  4.0661 -1.4098
   92MOL0     H12656   2.742   9.219   2.996  0.4952 -0.3691  0.7227
   92MOL0     H12657   2.782   9.386   2.970 -3.4547 -0.3740  0.6287
   92MOL0     H12658   3.004   9.567   2.465  1.4300  0.9813 -0.3104
   92MOL0     H12659   3.199   9.594   2.334  0.5460 -0.2369  1.1629
   92MOL0     H12660   3.397   9.586   2.214  2.1893  0.2488 -1.0478
   92MOL0     H12661   3.463   9.459   2.328  1.7806  1.9780  0.7524
   92MOL0     H12662   3.522   9.520   2.043 -0.0571 -0.3825 -0.0102
   92MOL0     H12663   3.635   9.523   2.178 -0.4803  1.3480 -0.4959
   92MOL0     H12664   3.538   9.261   2.181  0.9222  2.4229  3.0729
   92MOL0     H12665   3.699   9.320   2.144  0.6356 -2.2881  0.9431
   92MOL0     H12666   3.616   9.334   1.886 -3.3863  1.1135 -1.9820
   92MOL0     H12667   3.466   9.263   1.948 -0.0484  0.4204  0.4917
   92MOL0     H12668   3.730   9.129   2.005  0.0797 -1.6791 -0.7860
   92MOL0     H12669   3.561   9.072   2.013  1.6137 -3.1969 -1.1351
   92MOL0     H12670   3.542   9.089   1.762 -1.7567 -1.3465  2.3681
   92MOL0     H12671   3.666   8.967   1.808 -1.2821 -0.1467 -0.0519
   92MOL0     H12672   3.826   9.167   1.792 -1.7747  0.6000  1.4598
   92MOL0     H12673   3.700   9.242   1.700  0.1694  0.2167  0.3776
   92MOL0     H12674   3.858   8.978   1.645 -0.3078 -0.1133 -1.4658
   92MOL0     H12675   3.852   9.123   1.542  2.9096 -3.2285 -0.4228
   92MOL0     H12676   3.195   9.180   2.226 -0.3173  0.3756 -1.8837
   92MOL0     H12677   2.996   9.152   2.363 -2.4781  1.2760  0.4053
   92MOL0     H12678   2.649   9.292   2.463  0.4122 -1.1238  0.8748
   92MOL0     H12679   2.408   9.275   2.516  2.1784 -0.2395 -2.0387
   92MOL0     H12680   0.823   8.469   2.978 -0.8140  0.9212  2.0639
   92MOL0     H12681   0.935   8.251   2.938  2.4768  0.9162 -1.1495
   92MOL0     H12682   1.304   8.030   2.990 -2.6375  0.4014 -0.4563
   92MOL0     H12683   1.479   7.856   2.954  0.3288 -1.0974  1.0100
   92MOL0     H12684   1.637   7.753   3.213  0.9060 -0.7671  0.6270
   92MOL0     H12685   1.691   7.590   3.191 -1.0855  0.2220 -0.0103
   92MOL0     H12686   1.690   7.824   3.000 -1.0418  0.8294 -0.1906
   92MOL0     H12687   1.717   7.667   2.930 -1.1334  1.0465 -0.5428
   92MOL0     H12688   1.915   7.630   3.026  0.0568  0.7655 -3.4490
   92MOL0     H12689   1.919   7.775   2.957 -2.9745 -0.4020 -2.1458
   92MOL0     H12690   1.850   7.865   3.225  0.8208  1.5435 -1.2018
   92MOL0     H12691   2.002   7.873   3.161  1.6180 -0.6738  3.2371
   92MOL0     H12692   2.067   7.569   3.444  0.7864 -2.1797 -1.4820
   92MOL0     H12693   1.341   7.646   3.291  0.4484  2.8447  3.0820
   92MOL0     H12694   1.059   7.821   3.374  0.2198  0.4837  1.1929
   92MOL0     H12695   1.185   7.708   3.432  0.2762  0.9701  2.4879
   92MOL0     H12696   1.199   7.882   3.462 -0.8696  0.4589  0.2139
   93MOL0     O12697  10.828   1.451  10.357 -0.3872 -0.3690 -0.1443
   93MOL0     C12698  10.744   1.386  10.414  0.5864  0.9237  0.0392
   93MOL0     O12699  10.664   1.287  10.351  0.0190  0.0509 -0.4835
   93MOL0     C12700  10.731   1.223  10.252  0.7031 -0.4979 -1.1024
   93MOL0     C12701  10.654   1.195  10.137  0.6635 -0.1643  0.0527
   93MOL0     C12702  10.699   1.090  10.044  1.0961 -0.1837  0.7577
   93MOL0     C12703  10.821   1.033  10.063 -0.6127  0.7588  0.0597
   93MOL0     O12704  10.863   0.925   9.981  0.6396 -0.8153 -0.7850
   93MOL0     C12705  10.824   0.801  10.043  0.0241  0.3123 -0.6421
   93MOL0     C12706  10.902   0.687   9.982 -0.1048 -0.3790  0.0588
   93MOL0     C12707  11.052   0.684  10.003  0.0933 -0.1380  0.4041
   93MOL0     C12708  11.128   0.767   9.903  0.1609  0.3821 -0.8714
   93MOL0     C12709  11.276   0.771   9.946 -0.2514 -0.3308  0.1892
   93MOL0     C12710  11.338   0.630   9.960 -0.7620 -0.3362  0.6614
   93MOL0     C12711  11.489   0.631   9.957 -0.8387  0.2024 -0.7368
   93MOL0     C12712  11.551   0.673  10.091 -0.1048 -0.2159  0.2323
   93MOL0     N12713  11.696   0.637  10.088 -0.3783 -0.3007 -0.7527
   93MOL0     C12714  11.744   0.516  10.090 -0.8362 -0.2492  0.7758
   93MOL0     C12715  11.873   0.529  10.121 -0.1232  0.7893 -0.1231
   93MOL0     C12716  11.966   0.418  10.136 -0.6763  0.0114 -0.1142
   93MOL0     C12717  12.112   0.451  10.093  0.3676  0.1815  0.2421
   93MOL0     C12718  12.206   0.324  10.085 -0.4974 -0.0809 -0.4698
   93MOL0     C12719  12.180   0.225  10.200 -0.2054  0.0917  0.6015
   93MOL0     O12720  12.277   0.127  10.172  1.0885 -0.2913  0.1041
   93MOL0     C12721  12.309   0.047  10.282 -0.2236 -0.6723  0.2722
   93MOL0     C12722  12.223   0.004  10.381  0.3804 -0.4894 -0.0413
   93MOL0     C12723  12.255  -0.090  10.475  0.0170  0.3597 -0.4462
   93MOL0     C12724  12.145  -0.148  10.573  0.1582 -0.5002  0.2992
   93MOL0     C12725  12.383  -0.149  10.477  0.9548  0.2759  0.6724
   93MOL0     C12726  12.439  -0.249  10.578 -0.3569  0.0458  0.1324
   93MOL0     O12727  12.563  -0.303  10.553 -0.7896 -0.5484 -0.5707
   93MOL0     C12728  12.638  -0.376  10.637 -0.0456  0.0006  0.2062
   93MOL0     C12729  12.732  -0.467  10.585 -0.5337 -0.8441 -0.1861
   93MOL0     C12730  12.842  -0.503  10.665 -0.9056  0.5060 -1.0553
   93MOL0     C12731  12.846  -0.468  10.801 -0.2135  1.4765  0.0097
   93MOL0     O12732  12.938  -0.532  10.887  0.1394  0.2136 -0.7478
   93MOL0     C12733  12.969  -0.477  11.021  0.1987 -0.2420  0.3016
   93MOL0     C12734  13.039  -0.333  11.030  0.5674  0.2811  0.6726
   93MOL0     C12735  13.184  -0.330  10.982  0.2609 -0.3058 -0.3804
   93MOL0     C12736  13.232  -0.186  10.977 -0.1065 -1.0035 -0.1313
   93MOL0     C12737  13.380  -0.166  11.006  0.1846 -0.6063 -0.0865
   93MOL0     C12738  13.403  -0.023  11.013  0.3660 -1.2252  0.1635
   93MOL0     C12739  13.548   0.013  11.045 -0.4353  0.4961 -0.4046
   93MOL0     C12740  13.654  -0.055  10.945 -0.3488 -0.1819  0.7004
   93MOL0    Cl12741  13.641   0.024  10.784 -0.2073  0.0716  0.0331
   93MOL0     C12742  12.744  -0.393  10.854 -0.5177 -0.8239 -0.1911
   93MOL0     C12743  12.651  -0.340  10.770 -0.2481 -0.4980 -0.2746
   93MOL0     O12744  12.376  -0.270  10.681  0.1906  0.1275  0.3513
   93MOL0     C12745  12.477  -0.104  10.380  0.1786  0.0514 -0.1691
   93MOL0     C12746  12.438  -0.007  10.280 -0.3985  0.1421  0.1884
   93MOL0     N12747  11.903   0.661  10.134 -0.5076  0.1127 -0.0216
   93MOL0     N12748  11.791   0.725  10.109  0.5045  0.0778 -0.2970
   93MOL0     C12749  10.909   1.075  10.165  0.3958 -0.0264  0.0743
   93MOL0     C12750  10.862   1.165  10.260  0.2547 -0.0594 -0.7899
   93MOL0     C12751  10.719   1.413  10.556  0.3241  0.2727 -0.8877
   93MOL0     C12752  10.596   1.382  10.618 -0.3061  0.4319 -0.3905
   93MOL0     C12753  10.570   1.386  10.754 -0.2966  0.6751 -0.1810
   93MOL0     C12754  10.660   1.443  10.839 -0.7904  0.2905  0.5443
   93MOL0     O12755  10.634   1.432  10.971 -0.5156 -0.5551 -0.4712
   93MOL0     C12756  10.726   1.348  11.043 -0.4078 -0.7521 -0.7161
   93MOL0     C12757  10.710   1.199  10.991 -0.5121 -0.4596 -1.0258
   93MOL0     C12758  10.567   1.149  11.013  0.2639  0.6903 -0.2840
   93MOL0     C12759  10.527   1.106  11.160 -0.3148  0.3645  0.4029
   93MOL0     C12760  10.386   1.061  11.170 -0.0723  0.0938 -0.1595
   93MOL0     C12761  10.278   1.003  11.169  0.1993  0.2959 -0.6730
   93MOL0     C12762  10.781   1.492  10.779 -0.2178  0.1987  0.6276
   93MOL0     C12763  10.813   1.472  10.647  1.0287 -0.2451  0.4592
   93MOL0     C12764  10.939   1.528  10.597  0.3775  0.0728 -0.0047
   93MOL0     H12765  10.562   1.253  10.132  0.4929  0.0401  3.2901
   93MOL0     H12766  10.636   1.057   9.962  1.6652  1.9867 -0.6605
   93MOL0     H12767  10.718   0.798  10.017 -0.6653  1.0910  1.8031
   93MOL0     H12768  10.819   0.806  10.152  0.7806 -1.2801 -0.5087
   93MOL0     H12769  10.860   0.593  10.019 -0.8417  0.1048  0.4794
   93MOL0     H12770  10.883   0.693   9.874  1.0125  2.1918 -0.0690
   93MOL0     H12771  11.074   0.720  10.104 -2.2579 -0.2150  0.9991
   93MOL0     H12772  11.075   0.577  10.011  0.8510  0.1240  2.1577
   93MOL0     H12773  11.130   0.717   9.806 -0.0322  2.0626 -1.7747
   93MOL0     H12774  11.086   0.868   9.901  1.3271  0.8868 -1.9399
   93MOL0     H12775  11.287   0.824  10.042 -0.7243  2.0381 -1.0048
   93MOL0     H12776  11.326   0.828   9.867  1.4223 -0.4990  1.0577
   93MOL0     H12777  11.306   0.587  10.055 -0.2262 -1.6001  0.2926
   93MOL0     H12778  11.309   0.562   9.878  2.1536  1.2854 -1.9109
   93MOL0     H12779  11.515   0.690   9.869  2.2517 -2.9424 -2.1861
   93MOL0     H12780  11.524   0.529   9.936 -2.5728 -0.4421 -0.6788
   93MOL0     H12781  11.532   0.779  10.107 -2.2396 -0.5020 -0.0914
   93MOL0     H12782  11.496   0.624  10.172  1.1699  2.7201  3.0552
   93MOL0     H12783  11.677   0.431  10.078 -1.5178  0.3275  0.4569
   93MOL0     H12784  11.929   0.327  10.088 -1.4871 -1.2091  2.6526
   93MOL0     H12785  11.978   0.407  10.244  1.1659 -1.8555 -0.4447
   93MOL0     H12786  12.113   0.498   9.994  3.4705 -0.9529 -0.3565
   93MOL0     H12787  12.143   0.526  10.166 -0.7701 -0.2766  1.2271
   93MOL0     H12788  12.189   0.268   9.993 -0.1791 -4.7598  1.9888
   93MOL0     H12789  12.311   0.351  10.074 -0.3667  0.9626  2.5117
   93MOL0     H12790  12.190   0.282  10.293  1.6314 -0.4242  0.7618
   93MOL0     H12791  12.081   0.181  10.188 -0.1161  0.2072 -0.6705
   93MOL0     H12792  12.119   0.035  10.368  0.3808 -0.7658 -0.7688
   93MOL0     H12793  12.163  -0.102  10.671  0.3558  4.4797 -1.7408
   93MOL0     H12794  12.151  -0.257  10.572  2.8799 -0.4889 -2.9559
   93MOL0     H12795  12.046  -0.119  10.536  0.2927 -0.2638  0.1135
   93MOL0     H12796  12.716  -0.510  10.487 -1.3156 -1.0667  0.0326
   93MOL0     H12797  12.924  -0.565  10.630 -1.9066 -1.6250  0.2033
   93MOL0     H12798  12.876  -0.470  11.079  0.8319  1.5147  1.1895
   93MOL0     H12799  13.029  -0.544  11.083 -1.3609 -1.1546  0.9117
   93MOL0     H12800  12.992  -0.260  10.963  0.2157 -1.0922 -0.6383
   93MOL0     H12801  13.047  -0.287  11.129 -2.7618  2.3046  0.1632
   93MOL0     H12802  13.188  -0.364  10.878  0.0723  1.0484 -0.8557
   93MOL0     H12803  13.253  -0.391  11.039 -0.2581  0.3588  0.9919
   93MOL0     H12804  13.175  -0.127  11.050  1.8708 -0.7795  1.3167
   93MOL0     H12805  13.210  -0.145  10.878 -0.1631 -2.9980 -1.0032
   93MOL0     H12806  13.395  -0.218  11.101 -0.1214 -0.8302 -0.1583
   93MOL0     H12807  13.446  -0.216  10.933  1.0385  0.5974 -0.1633
   93MOL0     H12808  13.339   0.027  11.087 -1.1304 -2.1795 -0.4549
   93MOL0     H12809  13.384   0.010  10.911 -0.2108 -0.2705  0.5625
   93MOL0     H12810  13.566  -0.032  11.143 -2.3856 -0.8125 -0.5882
   93MOL0     H12811  13.563   0.120  11.059  0.6398  0.1549  1.4258
   93MOL0     H12812  13.644  -0.162  10.927  0.9146 -0.4419  1.4360
   93MOL0     H12813  13.754  -0.041  10.988 -0.1974 -1.5582  0.8229
   93MOL0     H12814  12.735  -0.361  10.957 -0.8539 -0.0412 -0.4480
   93MOL0     H12815  12.595  -0.263  10.821  0.6659 -0.8899  1.3756
   93MOL0     H12816  12.583  -0.127  10.376  0.3400  0.8282 -0.6583
   93MOL0     H12817  12.504   0.014  10.197 -1.4335  1.6153 -0.2905
   93MOL0     H12818  11.006   1.027  10.173  0.3530 -0.0304  0.6032
   93MOL0     H12819  10.933   1.190  10.339  0.5448  1.2532 -1.4185
   93MOL0     H12820  10.520   1.327  10.564  1.6621 -3.6639  0.5363
   93MOL0     H12821  10.474   1.343  10.780 -0.9342  0.3920 -2.7329
   93MOL0     H12822  10.831   1.381  11.038 -0.5187 -0.5441 -2.1613
   93MOL0     H12823  10.704   1.351  11.150  1.5543 -0.9282 -0.2704
   93MOL0     H12824  10.782   1.139  11.047  0.4941  1.4508 -0.1770
   93MOL0     H12825  10.734   1.184  10.885 -0.7387  1.4123 -1.3714
   93MOL0     H12826  10.488   1.220  10.990 -1.3424 -0.5583  1.1487
   93MOL0     H12827  10.554   1.065  10.945  1.2975  1.6810 -1.7903
   93MOL0     H12828  10.541   1.184  11.237 -0.6932  1.4428 -0.5897
   93MOL0     H12829  10.584   1.018  11.191 -3.3270 -1.0298  2.4494
   93MOL0     H12830  10.182   0.956  11.158 -0.7819  1.8492  0.7637
   93MOL0     H12831  10.843   1.552  10.844  1.7220  0.3429 -1.2561
   93MOL0     H12832  10.900   1.610  10.536 -2.2283 -0.3826  0.9136
   93MOL0     H12833  10.993   1.579  10.677 -2.4135  1.3244  1.2072
   93MOL0     H12834  11.014   1.465  10.548 -0.2714 -0.4759 -0.3177
   94MOL0     O12835   0.925   2.009   7.346  0.2546 -0.4643 -0.0999
   94MOL0     C12836   0.946   2.025   7.465  0.4368 -0.3944 -0.1950
   94MOL0     O12837   1.064   2.048   7.515 -0.4764  0.6683 -0.5198
   94MOL0     C12838   1.175   2.025   7.437  0.1421 -0.2836 -0.1002
   94MOL0     C12839   1.256   1.901   7.465  0.1990  0.4103 -0.1730
   94MOL0     C12840   1.367   1.874   7.385 -0.1190 -0.2017  0.0519
   94MOL0     C12841   1.407   1.964   7.286  0.2120 -0.0528 -0.3694
   94MOL0     O12842   1.522   1.933   7.223 -0.4721  0.1893 -0.1369
   94MOL0     C12843   1.503   1.846   7.111 -0.4653  0.0213  0.1330
   94MOL0     C12844   1.643   1.814   7.054  0.5212  0.9802 -0.2995
   94MOL0     C12845   1.698   1.939   6.991 -0.0631  0.1768  0.1555
   94MOL0     C12846   1.840   1.908   6.938  0.0947  0.4363 -0.2238
   94MOL0     C12847   1.904   2.037   6.897 -0.0608 -0.3301 -0.0064
   94MOL0     C12848   2.051   2.021   6.893  0.0307  0.5072 -0.3827
   94MOL0     C12849   2.109   2.155   6.846  0.3725  0.1502  0.7772
   94MOL0     C12850   2.253   2.133   6.858  0.0310 -0.1443  0.2669
   94MOL0     N12851   2.324   2.250   6.811  0.6134 -0.0408  0.0284
   94MOL0     C12852   2.429   2.245   6.721 -0.1084  0.2415  0.1658
   94MOL0     C12853   2.479   2.371   6.698  0.6278  0.0854 -1.0672
   94MOL0     C12854   2.606   2.391   6.624  0.0219 -0.2743  0.0227
   94MOL0     C12855   2.716   2.372   6.721 -0.3581 -0.5060 -0.1995
   94MOL0     C12856   2.848   2.408   6.659  0.1054  0.3085 -0.1523
   94MOL0     C12857   2.958   2.308   6.683  0.1470  0.0002 -0.1255
   94MOL0     O12858   2.924   2.179   6.632  0.4396  0.3712 -0.0332
   94MOL0     C12859   2.963   2.070   6.706  0.2566  0.2558  0.7929
   94MOL0     C12860   2.879   1.956   6.689 -0.2822  0.5524 -0.3573
   94MOL0     C12861   2.902   1.829   6.741  0.1207 -0.3959 -0.3591
   94MOL0     C12862   2.806   1.712   6.695 -0.1601 -0.1397  0.1748
   94MOL0     C12863   3.028   1.815   6.810  0.2250 -0.2144  0.2020
   94MOL0     C12864   3.083   1.680   6.850 -0.8846 -0.2567  0.4000
   94MOL0     O12865   3.037   1.568   6.782  0.1385 -0.2881 -0.1849
   94MOL0     C12866   3.046   1.446   6.845  0.4692  0.2393  0.0403
   94MOL0     C12867   2.972   1.409   6.960  0.1426 -0.2076 -0.7094
   94MOL0     C12868   2.977   1.283   7.011 -0.7439  0.4366  0.4882
   94MOL0     C12869   3.070   1.189   6.961 -0.4893  0.2543 -0.2189
   94MOL0     O12870   3.090   1.057   7.002 -0.2591 -0.0417 -0.4401
   94MOL0     C12871   2.973   0.981   7.027 -0.1275  0.3330  0.3378
   94MOL0     C12872   2.884   0.963   6.900  0.1219  0.3569 -0.3103
   94MOL0     C12873   2.745   0.909   6.912  0.5034  0.0910 -0.2653
   94MOL0     C12874   2.701   0.847   6.783 -0.1285  0.2804  0.5941
   94MOL0     C12875   2.567   0.771   6.790  0.2331 -0.3624  0.5220
   94MOL0     C12876   2.530   0.737   6.644  0.4083 -0.1926 -0.4342
   94MOL0     C12877   2.416   0.638   6.647  0.0226  0.1292  0.0729
   94MOL0     C12878   2.289   0.714   6.697  0.2654  0.0475  1.0305
   94MOL0    Cl12879   2.144   0.607   6.696  0.0662 -0.3413 -0.2189
   94MOL0     C12880   3.143   1.226   6.855  0.2595  0.3997 -0.2163
   94MOL0     C12881   3.131   1.349   6.791  0.2522  0.4310  0.6156
   94MOL0     O12882   3.159   1.673   6.950  0.8978 -0.2597  0.0080
   94MOL0     C12883   3.108   1.929   6.844  0.0182  0.4722  0.2246
   94MOL0     C12884   3.077   2.048   6.784  0.2436 -0.4077 -0.2254
   94MOL0     N12885   2.406   2.452   6.797  0.1959 -0.0132 -0.4109
   94MOL0     N12886   2.308   2.384   6.852 -0.2525 -0.2321  0.9204
   94MOL0     C12887   1.336   2.080   7.260  0.0071 -0.3828  0.1021
   94MOL0     C12888   1.225   2.115   7.340  0.7806 -0.0147  0.1778
   94MOL0     C12889   0.825   2.012   7.555  0.0459 -0.4169  0.0779
   94MOL0     C12890   0.857   1.972   7.684  0.0581  0.3770 -0.4161
   94MOL0     C12891   0.754   1.928   7.771  0.7969  0.2344  0.1504
   94MOL0     C12892   0.624   1.938   7.727  0.2248  0.0906  0.3802
   94MOL0     O12893   0.519   1.913   7.819 -0.2541 -0.2424 -0.1464
   94MOL0     C12894   0.383   1.957   7.796  0.3408  0.5196  0.1567
   94MOL0     C12895   0.297   1.894   7.912  0.1109 -0.2781 -0.2446
   94MOL0     C12896   0.151   1.935   7.904 -0.5735 -0.0698  0.5836
   94MOL0     C12897   0.074   1.872   8.021 -0.4835 -0.6279 -0.2976
   94MOL0     C12898   0.105   1.933   8.147 -0.2059 -0.8960  0.5121
   94MOL0     C12899   0.142   1.993   8.246  0.3895 -0.4877 -0.5726
   94MOL0     C12900   0.595   1.993   7.596  0.5853  0.9407 -0.5389
   94MOL0     C12901   0.692   2.039   7.511  0.0261 -0.1278  0.5983
   94MOL0     C12902   0.637   2.117   7.385  0.6810 -0.0050  0.0417
   94MOL0     H12903   1.218   1.838   7.545  0.0243  1.9338  0.9920
   94MOL0     H12904   1.413   1.777   7.397 -1.3973 -1.0798 -1.7581
   94MOL0     H12905   1.448   1.908   7.040 -0.9439  2.3319  2.3561
   94MOL0     H12906   1.446   1.756   7.135 -0.7660  0.5398  1.4438
   94MOL0     H12907   1.707   1.777   7.134 -0.7485  0.1160  0.3627
   94MOL0     H12908   1.638   1.744   6.969  3.2836  2.3279 -1.6757
   94MOL0     H12909   1.634   1.977   6.912 -0.1017 -1.1460 -0.4857
   94MOL0     H12910   1.709   2.018   7.066  2.9359 -0.8464  0.9417
   94MOL0     H12911   1.898   1.857   7.015  1.4985 -0.6941 -1.9367
   94MOL0     H12912   1.834   1.834   6.858  0.7163  0.1896 -0.0505
   94MOL0     H12913   1.876   2.116   6.967 -0.3934 -1.9290  1.7629
   94MOL0     H12914   1.863   2.058   6.798 -2.0085 -3.0747  0.1058
   94MOL0     H12915   2.095   1.999   6.991 -1.3859  2.3073  0.7144
   94MOL0     H12916   2.087   1.950   6.817  1.0887  1.2224 -0.5767
   94MOL0     H12917   2.084   2.246   6.901  0.0077  2.6482 -3.1392
   94MOL0     H12918   2.080   2.166   6.741 -1.8650 -1.5692  1.1420
   94MOL0     H12919   2.288   2.116   6.960  5.0999  1.3680 -0.9411
   94MOL0     H12920   2.293   2.055   6.792  0.5060  1.5224 -1.5074
   94MOL0     H12921   2.464   2.152   6.677  2.2395  0.7234  0.9049
   94MOL0     H12922   2.618   2.492   6.582 -1.5863 -0.4467 -0.9270
   94MOL0     H12923   2.616   2.312   6.548 -0.1167  0.4388 -0.7582
   94MOL0     H12924   2.698   2.437   6.807 -2.3486 -3.3865  1.6966
   94MOL0     H12925   2.711   2.274   6.768  0.7849 -0.1476  0.7213
   94MOL0     H12926   2.821   2.393   6.554 -2.1766 -0.9747  0.5412
   94MOL0     H12927   2.883   2.507   6.690 -1.1809  0.7541 -0.0787
   94MOL0     H12928   3.042   2.355   6.632  0.9694  2.4667  3.1399
   94MOL0     H12929   2.994   2.296   6.786 -3.0174 -1.7207  0.9104
   94MOL0     H12930   2.789   1.964   6.629 -0.0393 -1.1098 -1.0011
   94MOL0     H12931   2.709   1.754   6.666  1.4810  2.7936 -1.5312
   94MOL0     H12932   2.792   1.643   6.779  0.7232 -0.4075  0.1038
   94MOL0     H12933   2.840   1.656   6.608 -3.2452  0.1271 -1.3459
   94MOL0     H12934   2.904   1.483   6.999  0.7814  0.2056 -0.3616
   94MOL0     H12935   2.910   1.254   7.091 -0.7470  0.9116  0.6561
   94MOL0     H12936   3.012   0.885   7.062  0.3486  0.5239  0.3257
   94MOL0     H12937   2.917   1.024   7.111  2.2928 -0.1693  2.3273
   94MOL0     H12938   2.878   1.064   6.859  2.6414  0.7880  0.1986
   94MOL0     H12939   2.942   0.894   6.838 -4.8943 -1.7256 -3.2749
   94MOL0     H12940   2.680   0.988   6.951  1.5757 -0.8177  3.7440
   94MOL0     H12941   2.739   0.828   6.985  0.4900 -0.0936 -0.4694
   94MOL0     H12942   2.776   0.776   6.747 -0.7819 -1.0765  1.8281
   94MOL0     H12943   2.706   0.923   6.704 -0.1472 -0.2076  0.1118
   94MOL0     H12944   2.580   0.688   6.859 -3.5693 -0.1389  1.7743
   94MOL0     H12945   2.494   0.839   6.835 -0.3901 -0.7281  0.0803
   94MOL0     H12946   2.615   0.680   6.604 -0.8365 -3.0675  0.7213
   94MOL0     H12947   2.510   0.827   6.585  0.3913 -1.0674 -1.8108
   94MOL0     H12948   2.429   0.550   6.711 -2.1828  0.1396  0.6135
   94MOL0     H12949   2.397   0.606   6.544 -1.6417  3.4874 -0.8036
   94MOL0     H12950   2.269   0.807   6.643 -1.1351 -0.2268  1.0368
   94MOL0     H12951   2.307   0.745   6.800  0.7761 -1.8458  1.5583
   94MOL0     H12952   3.206   1.147   6.814 -0.2235 -0.6675  1.0227
   94MOL0     H12953   3.186   1.377   6.702  0.2652 -0.8603  0.1976
   94MOL0     H12954   3.196   1.918   6.907  1.0290  0.0801 -1.1855
   94MOL0     H12955   3.138   2.135   6.805  2.2518 -1.4610 -1.4110
   94MOL0     H12956   1.369   2.147   7.181  3.2037 -2.6016 -0.6634
   94MOL0     H12957   1.177   2.209   7.315  1.4706  0.0074 -1.1037
   94MOL0     H12958   0.958   1.954   7.719 -1.0886 -1.0207  2.5412
   94MOL0     H12959   0.771   1.893   7.873 -1.1714  2.3133  1.3073
   94MOL0     H12960   0.374   2.066   7.796  1.8470  0.6737  0.8025
   94MOL0     H12961   0.335   1.904   7.713 -0.2997 -1.5480  1.7778
   94MOL0     H12962   0.341   1.907   8.012 -1.7003 -1.4026  0.7582
   94MOL0     H12963   0.301   1.785   7.903  0.0561 -0.6418  2.9348
   94MOL0     H12964   0.162   2.044   7.893 -0.1783 -0.2995 -1.8922
   94MOL0     H12965   0.108   1.898   7.811  4.3615 -1.7368 -1.3584
   94MOL0     H12966   0.086   1.765   8.039  0.5527 -0.9160 -2.4242
   94MOL0     H12967  -0.034   1.890   8.013 -1.2949 -2.5712  3.8589
   94MOL0     H12968   0.182   2.036   8.335  1.5960 -3.6132  0.5292
   94MOL0     H12969   0.493   2.005   7.562  0.8542  0.6837 -1.4769
   94MOL0     H12970   0.722   2.180   7.356  0.2899  1.0015  1.0144
   94MOL0     H12971   0.606   2.050   7.305 -1.1881  0.5636  0.2399
   94MOL0     H12972   0.559   2.192   7.400  1.0294  0.5545 -0.8336
   95MOL0     O12973   7.762   0.794   4.959  0.1889 -0.1608  0.3335
   95MOL0     C12974   7.855   0.734   5.014 -0.6332  0.4483  0.4880
   95MOL0     O12975   7.839   0.637   5.109 -0.3762 -0.7799 -0.3554
   95MOL0     C12976   7.706   0.598   5.137 -1.3602  0.1158 -0.7143
   95MOL0     C12977   7.611   0.678   5.213 -0.4388  0.3013 -0.5045
   95MOL0     C12978   7.487   0.621   5.253 -0.2190 -0.4977 -0.0218
   95MOL0     C12979   7.439   0.494   5.208 -1.1570  0.0835  0.0922
   95MOL0     O12980   7.308   0.457   5.242 -0.1093 -0.4454  0.5179
   95MOL0     C12981   7.260   0.330   5.200  0.5686 -0.5822  0.3426
   95MOL0     C12982   7.208   0.356   5.060  0.0338  0.3645  0.2411
   95MOL0     C12983   7.140   0.237   4.987 -0.0025  0.0472 -0.7638
   95MOL0     C12984   7.035   0.162   5.069  0.5885 -0.0507 -0.3614
   95MOL0     C12985   6.915   0.247   5.108  0.2891  0.0534  0.2973
   95MOL0     C12986   6.812   0.172   5.187 -0.1123  0.0157  0.3293
   95MOL0     C12987   6.686   0.248   5.224 -0.1051  0.0842 -0.5922
   95MOL0     C12988   6.589   0.271   5.118  0.3669 -0.1125 -0.2441
   95MOL0     N12989   6.562   0.155   5.034 -0.2442 -0.5380 -0.7568
   95MOL0     C12990   6.503   0.034   5.067  0.3837  0.3066  0.1581
   95MOL0     C12991   6.526  -0.046   4.958  0.7330  0.6573  0.0837
   95MOL0     C12992   6.481  -0.192   4.943 -0.7369  0.7213 -0.0830
   95MOL0     C12993   6.585  -0.293   4.874  0.2791 -0.9482  0.2962
   95MOL0     C12994   6.658  -0.386   4.968  0.5535  0.0601 -0.8490
   95MOL0     C12995   6.759  -0.309   5.050 -0.0408  0.0353  0.1911
   95MOL0     O12996   6.886  -0.296   4.978 -0.1620 -0.2003  0.0508
   95MOL0     C12997   7.000  -0.239   5.031 -0.1133  0.3921  0.6981
   95MOL0     C12998   7.003  -0.198   5.164 -0.2500  0.5050 -0.3747
   95MOL0     C12999   7.124  -0.144   5.223  0.2315 -0.2851 -0.1152
   95MOL0     C13000   7.124  -0.096   5.363  0.5068 -0.0786  0.3873
   95MOL0     C13001   7.227  -0.117   5.128 -0.4280  0.2776 -0.4293
   95MOL0     C13002   7.354  -0.045   5.157 -0.7459 -0.2467  0.5012
   95MOL0     O13003   7.428  -0.004   5.047  0.3687  0.3504  0.1110
   95MOL0     C13004   7.561   0.037   5.042  0.9576 -0.8495  0.0992
   95MOL0     C13005   7.594   0.104   4.929 -0.3413 -0.4512  0.5504
   95MOL0     C13006   7.729   0.152   4.908 -0.1176  0.2199 -0.5282
   95MOL0     C13007   7.827   0.140   5.010 -0.2990 -0.0162  0.2900
   95MOL0     O13008   7.960   0.185   5.005  0.1882 -0.5232 -0.0474
   95MOL0     C13009   8.011   0.252   4.891  0.4592 -0.2121  0.6364
   95MOL0     C13010   8.142   0.321   4.908 -0.0930  0.6165 -0.7013
   95MOL0     C13011   8.270   0.237   4.955 -0.0505  0.1031  0.0013
   95MOL0     C13012   8.307   0.140   4.834  1.1273  1.1694 -0.2730
   95MOL0     C13013   8.446   0.073   4.859 -0.8044 -0.0845  0.5861
   95MOL0     C13014   8.553   0.171   4.823  0.2581  0.4303 -1.2921
   95MOL0     C13015   8.689   0.113   4.844 -0.0757 -0.2569  1.0544
   95MOL0     C13016   8.789   0.224   4.823  0.2430  0.1297  0.3862
   95MOL0    Cl13017   8.955   0.154   4.791  0.0417  0.0205 -0.5141
   95MOL0     C13018   7.791   0.071   5.127 -0.1027 -0.1388  0.0256
   95MOL0     C13019   7.654   0.033   5.144  0.7202  0.3316  1.7351
   95MOL0     O13020   7.387  -0.035   5.271 -0.1121 -0.2916 -0.1777
   95MOL0     C13021   7.215  -0.162   4.998  0.2594 -0.1360  0.7653
   95MOL0     C13022   7.108  -0.227   4.947  0.4541 -0.8082  0.4093
   95MOL0     N13023   6.609   0.025   4.869  0.1203 -1.4019 -0.0061
   95MOL0     N13024   6.619   0.146   4.911  0.2471 -0.0515  0.8920
   95MOL0     C13025   7.532   0.424   5.122  0.5596  1.0314  0.0051
   95MOL0     C13026   7.657   0.483   5.090 -0.1030 -0.2715  0.9340
   95MOL0     C13027   8.004   0.753   4.977 -0.5068 -0.3296 -0.3594
   95MOL0     C13028   8.104   0.700   5.058  1.1147 -0.0955  0.0599
   95MOL0     C13029   8.243   0.706   5.024 -0.2602  0.2237 -0.9970
   95MOL0     C13030   8.282   0.760   4.904  0.6199 -0.1553  0.7960
   95MOL0     O13031   8.409   0.760   4.862 -0.3126  0.0369 -0.1405
   95MOL0     C13032   8.499   0.655   4.904  0.0974  0.5077 -0.5496
   95MOL0     C13033   8.578   0.599   4.788 -0.8337 -0.0365 -0.5551
   95MOL0     C13034   8.675   0.702   4.717  0.2603  0.5449  0.1186
   95MOL0     C13035   8.757   0.634   4.614 -0.6270 -0.6090  0.0167
   95MOL0     C13036   8.672   0.604   4.495  0.1770 -0.6116  0.0339
   95MOL0     C13037   8.596   0.577   4.401 -0.6728  0.1847 -0.4666
   95MOL0     C13038   8.179   0.813   4.818  0.7884  0.0575 -0.3488
   95MOL0     C13039   8.041   0.809   4.853  0.9686  0.0452  0.0314
   95MOL0     C13040   7.940   0.867   4.759 -0.4638  0.6777 -0.3280
   95MOL0     H13041   7.644   0.778   5.242  0.3053  0.1378 -0.7536
   95MOL0     H13042   7.415   0.671   5.316  0.0779  0.5936 -0.5140
   95MOL0     H13043   7.178   0.303   5.266  1.3426 -2.5743  0.5596
   95MOL0     H13044   7.336   0.252   5.212  0.8524 -0.0591  2.2009
   95MOL0     H13045   7.127   0.429   5.064 -1.5733 -1.3116 -0.2221
   95MOL0     H13046   7.294   0.395   5.004  2.7073 -0.4005  3.5220
   95MOL0     H13047   7.096   0.271   4.893 -0.5660 -1.8944 -1.2529
   95MOL0     H13048   7.221   0.180   4.941 -0.8207 -0.2085 -1.9502
   95MOL0     H13049   7.002   0.071   5.018 -0.5087 -0.9571  1.8266
   95MOL0     H13050   7.075   0.126   5.164 -1.3854 -0.9681  0.1581
   95MOL0     H13051   6.867   0.292   5.020  0.2309  2.0045  1.2731
   95MOL0     H13052   6.945   0.328   5.176 -1.3462  0.1329  0.9713
   95MOL0     H13053   6.779   0.087   5.127 -2.2545  0.3114  1.0069
   95MOL0     H13054   6.860   0.134   5.277 -0.1686 -0.2424  0.2514
   95MOL0     H13055   6.721   0.345   5.259  3.4416 -1.0484 -0.5897
   95MOL0     H13056   6.650   0.191   5.310 -0.6192  0.3379 -0.6411
   95MOL0     H13057   6.497   0.301   5.169 -0.4159 -2.0485 -0.4412
   95MOL0     H13058   6.625   0.348   5.049 -2.0966  0.6112 -0.8199
   95MOL0     H13059   6.437   0.019   5.152  0.2144 -0.1616 -0.0511
   95MOL0     H13060   6.386  -0.194   4.889 -0.8644  0.1185  0.1576
   95MOL0     H13061   6.456  -0.222   5.045 -1.6581  0.1466 -0.4663
   95MOL0     H13062   6.528  -0.350   4.800 -1.4253  2.6496 -1.4286
   95MOL0     H13063   6.662  -0.230   4.827 -0.8313 -0.5024 -0.9977
   95MOL0     H13064   6.588  -0.448   5.025 -1.0513 -0.5079 -3.2541
   95MOL0     H13065   6.705  -0.465   4.908 -0.8304  0.7416 -2.9382
   95MOL0     H13066   6.729  -0.210   5.085 -0.2486  1.5819 -3.8861
   95MOL0     H13067   6.772  -0.383   5.129 -2.9102 -0.0709  0.6870
   95MOL0     H13068   6.917  -0.214   5.228 -0.9247  1.5639 -0.9920
   95MOL0     H13069   7.144   0.011   5.362  1.2132 -0.2027 -0.8500
   95MOL0     H13070   7.200  -0.150   5.420  0.0722 -2.0477 -0.8016
   95MOL0     H13071   7.025  -0.114   5.406 -2.0282  1.3402 -4.2131
   95MOL0     H13072   7.513   0.114   4.857 -1.4806 -4.2814  1.0219
   95MOL0     H13073   7.763   0.193   4.814 -0.3074  0.1913 -0.6106
   95MOL0     H13074   8.020   0.175   4.814 -1.0483  0.7490 -0.5712
   95MOL0     H13075   7.941   0.328   4.856 -1.9913 -1.8749  1.6469
   95MOL0     H13076   8.163   0.369   4.812 -0.3790  1.4353 -0.3674
   95MOL0     H13077   8.127   0.397   4.985 -1.2174  0.0198 -0.2975
   95MOL0     H13078   8.259   0.176   5.045 -0.1876  1.2415  0.7772
   95MOL0     H13079   8.346   0.314   4.969 -1.1456  2.2639 -4.1947
   95MOL0     H13080   8.298   0.201   4.744  2.2565  3.1112  0.8404
   95MOL0     H13081   8.229   0.064   4.831  0.6591  1.6429 -0.2495
   95MOL0     H13082   8.456   0.050   4.966  4.4147  0.0982  0.4002
   95MOL0     H13083   8.453  -0.023   4.807  2.8526 -0.2571  1.1413
   95MOL0     H13084   8.534   0.258   4.887 -1.1931 -2.0101  1.8892
   95MOL0     H13085   8.545   0.202   4.719  0.0640  0.9478 -1.1277
   95MOL0     H13086   8.716   0.037   4.771  4.6438  2.1702 -0.1222
   95MOL0     H13087   8.692   0.064   4.942 -0.3868  0.1974  1.2944
   95MOL0     H13088   8.801   0.281   4.915  4.3065  0.3397 -0.0682
   95MOL0     H13089   8.771   0.287   4.736 -3.1598 -0.7203  0.3508
   95MOL0     H13090   7.859   0.054   5.210  1.7181  1.0293 -1.1557
   95MOL0     H13091   7.637  -0.010   5.242 -2.7833 -1.5882  0.4438
   95MOL0     H13092   7.288  -0.151   4.919 -1.2183 -2.5954 -1.0801
   95MOL0     H13093   7.117  -0.270   4.848 -1.0273 -1.2062  0.4271
   95MOL0     H13094   7.505   0.324   5.088  0.7250 -0.6940  4.3360
   95MOL0     H13095   7.729   0.415   5.046  0.2194 -0.0269  1.0788
   95MOL0     H13096   8.085   0.654   5.154  2.5895 -0.4272  0.2208
   95MOL0     H13097   8.313   0.660   5.093  1.0139  2.3965 -0.7515
   95MOL0     H13098   8.566   0.696   4.980  1.0970 -3.9549  1.3163
   95MOL0     H13099   8.443   0.578   4.958 -2.7737  1.9096 -1.3512
   95MOL0     H13100   8.503   0.548   4.727  0.0691 -3.7917  1.2283
   95MOL0     H13101   8.636   0.515   4.826 -4.1776 -3.3698 -2.1744
   95MOL0     H13102   8.631   0.796   4.682  0.0966  0.9920  1.4870
   95MOL0     H13103   8.741   0.747   4.792 -2.0003  3.2254  0.6913
   95MOL0     H13104   8.791   0.540   4.657 -1.4870 -1.4634 -1.0853
   95MOL0     H13105   8.843   0.698   4.593 -1.6983  1.0934  0.5583
   95MOL0     H13106   8.533   0.554   4.317 -1.1352 -2.4043  0.5058
   95MOL0     H13107   8.216   0.856   4.726  1.6807  2.0642  0.8809
   95MOL0     H13108   7.878   0.795   4.705 -1.7703  0.4832  1.3445
   95MOL0     H13109   7.862   0.935   4.796 -1.0700 -0.0171 -0.2938
   95MOL0     H13110   8.001   0.925   4.689 -0.3662 -1.1681 -1.8870
   96MOL0     O13111   7.909  10.892  10.102  0.8269 -0.0619 -0.2321
   96MOL0     C13112   7.890  10.983  10.023 -0.7339  0.6191 -0.2752
   96MOL0     O13113   7.981  11.073   9.980 -0.2263  0.1202 -0.6577
   96MOL0     C13114   8.109  11.048  10.022  0.0669 -0.9823  1.0082
   96MOL0     C13115   8.152  11.137  10.112  0.1283  0.0726 -0.6001
   96MOL0     C13116   8.289  11.140  10.146 -0.2936 -0.6596 -0.4181
   96MOL0     C13117   8.384  11.052  10.094 -0.3225  0.6510  0.3922
   96MOL0     O13118   8.521  11.046  10.121  0.9754 -0.2277  0.5374
   96MOL0     C13119   8.586  11.164  10.083 -0.1930  0.6650 -0.2691
   96MOL0     C13120   8.726  11.118  10.032 -0.2451  1.0182 -0.2409
   96MOL0     C13121   8.821  11.240  10.027  0.5328  0.8551 -0.0095
   96MOL0     C13122   8.966  11.194  10.005 -0.0712 -0.6904  0.1275
   96MOL0     C13123   9.013  11.149   9.861  0.2856  0.1198 -0.0750
   96MOL0     C13124   9.159  11.102   9.879 -0.2367  0.5578  0.6538
   96MOL0     C13125   9.213  11.045   9.751  0.5925  0.3658  0.9287
   96MOL0     C13126   9.153  10.907   9.713  0.0507  0.3646 -0.1454
   96MOL0     N13127   9.020  10.900   9.662 -0.3077 -0.8418  0.0547
   96MOL0     C13128   8.977  10.968   9.546  0.4670  0.1596  0.0656
   96MOL0     C13129   8.847  10.923   9.537  0.0545 -0.6642  0.0748
   96MOL0     C13130   8.744  10.973   9.440 -0.0581 -0.3132  0.4432
   96MOL0     C13131   8.620  11.043   9.516 -0.2085  0.0741  0.6063
   96MOL0     C13132   8.668  11.173   9.589  0.0818  0.2291  0.3612
   96MOL0     C13133   8.548  11.236   9.663 -0.3656 -0.3939 -0.6445
   96MOL0     O13134   8.451  11.301   9.576 -0.3684  0.1444 -0.3604
   96MOL0     C13135   8.320  11.310   9.625  0.0307  0.1709  0.0415
   96MOL0     C13136   8.225  11.356   9.535  0.8965 -0.6019 -0.4657
   96MOL0     C13137   8.090  11.373   9.574  0.6659 -0.9957 -0.3757
   96MOL0     C13138   8.005  11.445   9.464  0.9928  0.2138  0.4289
   96MOL0     C13139   8.053  11.355   9.709  0.3779 -0.5971 -0.1153
   96MOL0     C13140   7.912  11.375   9.759  0.5230  0.0214 -0.1481
   96MOL0     O13141   7.888  11.366   9.897 -0.0577 -0.3109 -0.5299
   96MOL0     C13142   7.762  11.392   9.952 -0.0099  0.2994 -0.6352
   96MOL0     C13143   7.655  11.474   9.901  0.9054  0.5036 -0.0131
   96MOL0     C13144   7.528  11.488   9.958  0.1682 -0.0897 -0.2142
   96MOL0     C13145   7.505  11.415  10.073 -0.2339  0.2527 -0.4145
   96MOL0     O13146   7.383  11.425  10.138  0.0657 -0.4976  0.1299
   96MOL0     C13147   7.297  11.537  10.124 -0.4368  0.2987 -0.2931
   96MOL0     C13148   7.185  11.545  10.211  0.8432 -0.4969 -0.7083
   96MOL0     C13149   7.119  11.687  10.219 -0.3749  0.6520 -0.6511
   96MOL0     C13150   6.971  11.674  10.262  0.5736 -0.3384  0.0948
   96MOL0     C13151   6.966  11.712  10.409 -0.0982 -0.1859  0.8258
   96MOL0     C13152   6.830  11.722  10.477  0.3032  0.4488 -0.4517
   96MOL0     C13153   6.788  11.588  10.540  0.0331 -0.4730 -0.3602
   96MOL0     C13154   6.692  11.617  10.659  1.0117 -0.1737 -0.3458
   96MOL0    Cl13155   6.555  11.722  10.598  0.1015 -0.2880  0.6360
   96MOL0     C13156   7.596  11.327  10.123 -0.8889 -1.5124 -0.2032
   96MOL0     C13157   7.724  11.315  10.067 -0.4326  0.2474  0.1273
   96MOL0     O13158   7.827  11.398   9.672  0.3282  0.7756  0.8104
   96MOL0     C13159   8.147  11.307   9.800 -0.2376 -0.2562  0.9169
   96MOL0     C13160   8.276  11.285   9.762 -0.7097 -0.1642  0.6786
   96MOL0     N13161   8.832  10.818   9.628  0.5516 -0.3344  0.7446
   96MOL0     N13162   8.936  10.804   9.693 -0.1739 -1.3015 -0.2650
   96MOL0     C13163   8.334  10.958  10.002  0.1451  0.6929  0.1708
   96MOL0     C13164   8.201  10.957   9.970  0.0550  0.6508  0.1989
   96MOL0     C13165   7.755  10.988   9.954 -0.0446 -0.0796  0.6915
   96MOL0     C13166   7.759  11.063   9.834 -0.4085 -1.0422 -0.2784
   96MOL0     C13167   7.643  11.109   9.770 -0.7877 -0.5834  0.7129
   96MOL0     C13168   7.519  11.062   9.820  0.7470  0.0774  0.1711
   96MOL0     O13169   7.401  11.110   9.755 -0.6205  0.0516 -0.3060
   96MOL0     C13170   7.367  11.246   9.790 -0.0669 -0.6992 -0.3958
   96MOL0     C13171   7.211  11.267   9.756 -0.6318 -0.0858  0.5002
   96MOL0     C13172   7.117  11.173   9.835  0.4117 -0.0315  0.0173
   96MOL0     C13173   7.097  11.211   9.984 -0.8168 -0.7392 -0.2541
   96MOL0     C13174   7.202  11.147  10.064  0.9777 -0.9748 -0.2563
   96MOL0     C13175   7.263  11.109  10.152  0.3926  0.1350 -0.1038
   96MOL0     C13176   7.513  10.984   9.939  0.4455  0.0472 -0.2920
   96MOL0     C13177   7.626  10.939  10.002  0.4239  0.3667 -0.7569
   96MOL0     C13178   7.611  10.850  10.130 -0.5171 -0.2150  0.1726
   96MOL0     H13179   8.082  11.207  10.156 -2.8081 -0.6444 -3.7573
   96MOL0     H13180   8.311  11.219  10.217  1.1139  0.6699 -2.2212
   96MOL0     H13181   8.605  11.224  10.172 -1.8420 -0.5667  0.9739
   96MOL0     H13182   8.529  11.220  10.008 -1.2384 -1.2171 -0.9639
   96MOL0     H13183   8.769  11.051  10.107 -0.9810  0.1637 -0.5642
   96MOL0     H13184   8.731  11.057   9.942  2.7338  0.7179  0.0231
   96MOL0     H13185   8.788  11.319   9.959  0.0715  0.4840 -0.2177
   96MOL0     H13186   8.820  11.282  10.128 -2.1500 -1.3493  1.0220
   96MOL0     H13187   9.037  11.274  10.027 -0.7050 -0.5905  1.9978
   96MOL0     H13188   8.988  11.117  10.080 -2.2187  0.5868  2.1787
   96MOL0     H13189   9.018  11.234   9.792  1.5734  3.2601  3.5221
   96MOL0     H13190   8.945  11.068   9.833 -0.7152  0.9193 -0.0369
   96MOL0     H13191   9.225  11.187   9.901  0.2687  0.2525  0.3404
   96MOL0     H13192   9.179  11.032   9.961 -0.2925  0.6941  0.7832
   96MOL0     H13193   9.320  11.028   9.769  0.8062  1.8309  1.1852
   96MOL0     H13194   9.204  11.115   9.667  0.5348 -1.2385 -0.4549
   96MOL0     H13195   9.218  10.863   9.636  1.1356  0.3391  0.7542
   96MOL0     H13196   9.166  10.845   9.802 -0.7530  0.8164  0.2992
   96MOL0     H13197   9.021  11.051   9.493 -1.2547  0.0805 -1.6190
   96MOL0     H13198   8.721  10.886   9.378 -0.3159 -0.6410  0.9951
   96MOL0     H13199   8.793  11.042   9.370 -1.1776 -0.6246 -0.6756
   96MOL0     H13200   8.536  11.068   9.451  0.7438  0.1131 -0.6426
   96MOL0     H13201   8.574  10.971   9.584 -2.9618 -0.2351 -1.3876
   96MOL0     H13202   8.751  11.143   9.654  0.3432 -0.8800 -0.4518
   96MOL0     H13203   8.718  11.250   9.531  0.4392  0.7044  1.2806
   96MOL0     H13204   8.503  11.159   9.727 -0.6836  1.0763  0.9877
   96MOL0     H13205   8.583  11.305   9.740 -0.9015 -3.1486  2.3002
   96MOL0     H13206   8.271  11.360   9.437 -2.1222 -1.1774 -2.0353
   96MOL0     H13207   8.061  11.470   9.373  0.1779 -0.1444 -0.1761
   96MOL0     H13208   7.976  11.541   9.507 -0.5124 -0.3762  0.7771
   96MOL0     H13209   7.919  11.383   9.440  2.1851 -0.6979 -1.7400
   96MOL0     H13210   7.660  11.529   9.807 -0.7143 -0.4930 -0.7174
   96MOL0     H13211   7.452  11.559   9.927  0.3617 -0.0588 -0.6237
   96MOL0     H13212   7.362  11.625  10.131  1.2671 -0.9635  0.4922
   96MOL0     H13213   7.257  11.527  10.023  0.0407  1.5923 -0.6267
   96MOL0     H13214   7.123  11.466  10.167  1.1398 -0.8887 -0.4310
   96MOL0     H13215   7.213  11.517  10.313  0.0097  1.4136  0.0862
   96MOL0     H13216   7.128  11.741  10.124 -0.4182  1.7795 -0.0290
   96MOL0     H13217   7.182  11.751  10.280 -0.8499 -0.0166  0.5724
   96MOL0     H13218   6.930  11.573  10.248  0.7476 -0.6587  1.6647
   96MOL0     H13219   6.906  11.750  10.217  1.7734  1.1067  0.7165
   96MOL0     H13220   7.021  11.639  10.470 -2.8094  0.2331  4.0818
   96MOL0     H13221   7.015  11.808  10.426 -1.5191  0.6241  0.5205
   96MOL0     H13222   6.755  11.746  10.401 -1.3358 -1.8933  0.3081
   96MOL0     H13223   6.820  11.792  10.560 -1.7247 -2.1226  1.6685
   96MOL0     H13224   6.874  11.531  10.577  0.5209 -1.0130 -2.2569
   96MOL0     H13225   6.743  11.532  10.458  1.4610 -1.3930 -0.5404
   96MOL0     H13226   6.739  11.675  10.739  0.6837 -0.0122 -0.2663
   96MOL0     H13227   6.655  11.526  10.707  2.5182 -0.7696 -0.2852
   96MOL0     H13228   7.568  11.267  10.208  1.9784  0.3942  2.3385
   96MOL0     H13229   7.786  11.238  10.113  2.0084  2.0101 -0.0314
   96MOL0     H13230   8.124  11.299   9.906  0.3116  1.4460  1.1973
   96MOL0     H13231   8.342  11.241   9.835  1.5637 -0.3929 -1.3673
   96MOL0     H13232   8.404  10.884   9.965 -2.0230 -0.7975 -1.1550
   96MOL0     H13233   8.170  10.890   9.890 -1.5407  1.0046  0.4854
   96MOL0     H13234   7.853  11.098   9.793 -0.6524 -0.7294 -0.5804
   96MOL0     H13235   7.649  11.170   9.682  1.4112 -2.2598 -0.3923
   96MOL0     H13236   7.392  11.268   9.894 -0.5171  1.0932 -0.6287
   96MOL0     H13237   7.424  11.320   9.733 -0.6612  0.3841  0.3659
   96MOL0     H13238   7.203  11.239   9.651  3.9414  1.2506 -0.4491
   96MOL0     H13239   7.188  11.371   9.783  0.4489  0.1507  0.5556
   96MOL0     H13240   7.015  11.175   9.795 -0.6282 -5.8928  1.4133
   96MOL0     H13241   7.155  11.071   9.822  3.8924  0.4990  3.9963
   96MOL0     H13242   6.994  11.180  10.006 -1.9811  2.3672 -0.6993
   96MOL0     H13243   7.096  11.320   9.992 -0.4483 -0.6741 -1.0268
   96MOL0     H13244   7.312  11.066  10.237 -0.9336  0.1730  0.7003
   96MOL0     H13245   7.420  10.940   9.975  0.9567 -1.4026 -0.6413
   96MOL0     H13246   7.695  10.780  10.137 -0.9223 -1.0105 -2.0877
   96MOL0     H13247   7.599  10.923  10.211  0.0073 -0.7955  0.7904
   96MOL0     H13248   7.523  10.786  10.130  0.4445 -1.6379 -1.9703
   97MOL0     O13249   9.985  10.172   5.779 -0.3032 -0.3707 -0.1058
   97MOL0     C13250   9.900  10.090   5.744  0.2314  0.3334  0.2951
   97MOL0     O13251   9.930   9.963   5.690  0.8885  0.6219 -0.1564
   97MOL0     C13252  10.060   9.928   5.681 -0.4865 -0.0973  0.3757
   97MOL0     C13253  10.137   9.879   5.793 -0.0577 -0.0366  0.9551
   97MOL0     C13254  10.264   9.825   5.773 -0.0190 -0.3010 -0.1213
   97MOL0     C13255  10.320   9.834   5.644 -0.7966  0.3982  0.3784
   97MOL0     O13256  10.454   9.791   5.623 -0.9550  0.2688 -0.6800
   97MOL0     C13257  10.549   9.886   5.567  0.4680  0.5992 -0.2121
   97MOL0     C13258  10.604   9.994   5.658  0.1474 -0.4596  0.4084
   97MOL0     C13259  10.692  10.097   5.581  0.1460  0.3468  0.3092
   97MOL0     C13260  10.714  10.223   5.669  0.0935 -0.3995 -0.1895
   97MOL0     C13261  10.787  10.336   5.584 -0.2747  0.9305 -0.4318
   97MOL0     C13262  10.786  10.466   5.656 -0.2966 -0.3150  0.3411
   97MOL0     C13263  10.863  10.481   5.780 -0.0962  0.1644 -0.2221
   97MOL0     C13264  11.017  10.488   5.740  1.2263 -0.1794 -0.3723
   97MOL0     N13265  11.095  10.555   5.840  0.1080 -0.9493 -0.7742
   97MOL0     C13266  11.131  10.689   5.843 -0.1288 -0.6796  0.0405
   97MOL0     C13267  11.190  10.708   5.960  0.2197 -0.2045 -0.0310
   97MOL0     C13268  11.223  10.843   6.001 -0.3547  0.0583 -0.8577
   97MOL0     C13269  11.110  10.894   6.084  0.6139 -1.1561  0.1303
   97MOL0     C13270  11.005  10.976   5.996 -1.1656  0.5236  0.4094
   97MOL0     C13271  10.889  11.023   6.086 -0.0636 -0.5903 -0.4157
   97MOL0     O13272  10.956  11.108   6.180  0.7007 -0.0986 -0.0303
   97MOL0     C13273  10.873  11.171   6.265 -0.2603 -0.4963  0.4409
   97MOL0     C13274  10.861  11.304   6.257  0.6415 -0.4891 -0.0089
   97MOL0     C13275  10.788  11.383   6.346  0.0957  0.3553 -0.0897
   97MOL0     C13276  10.795  11.536   6.330 -0.8502 -0.0247 -0.5013
   97MOL0     C13277  10.702  11.317   6.439  0.1026 -0.0026 -0.2035
   97MOL0     C13278  10.613  11.376   6.536  0.4886 -0.5281 -0.0855
   97MOL0     O13279  10.505  11.309   6.577 -0.7172  0.0904 -0.1049
   97MOL0     C13280  10.391  11.378   6.606 -0.2023  0.4728 -0.5035
   97MOL0     C13281  10.361  11.514   6.598  1.3684 -1.2087 -0.1806
   97MOL0     C13282  10.233  11.572   6.633  1.0646  0.0278  0.1269
   97MOL0     C13283  10.133  11.476   6.690 -0.4432  0.5671  0.3492
   97MOL0     O13284  10.007  11.518   6.742 -0.9227  0.6679 -0.6802
   97MOL0     C13285  10.000  11.638   6.830 -0.6469 -0.0547  0.5846
   97MOL0     C13286   9.934  11.746   6.744  0.4989 -0.1614  0.8990
   97MOL0     C13287   9.946  11.876   6.819 -0.2973 -0.3413  0.6352
   97MOL0     C13288   9.853  11.974   6.755 -0.7604  0.6570  0.1634
   97MOL0     C13289   9.882  12.113   6.809 -0.0529  0.4364 -0.6872
   97MOL0     C13290   9.827  12.218   6.724  0.7937  0.3233 -0.0070
   97MOL0     C13291   9.900  12.253   6.597  0.2529  0.1603 -0.5414
   97MOL0     C13292   9.875  12.394   6.555 -0.0809 -0.2754  0.2895
   97MOL0    Cl13293   9.939  12.512   6.674  0.0783  0.0157 -0.4888
   97MOL0     C13294  10.166  11.339   6.692  0.6551 -0.0497 -0.0421
   97MOL0     C13295  10.292  11.288   6.660 -1.0831 -0.7161 -0.2190
   97MOL0     O13296  10.657  11.479   6.589  0.8063 -0.5309  0.1384
   97MOL0     C13297  10.714  11.173   6.449  0.9160 -0.2955  0.0374
   97MOL0     C13298  10.803  11.099   6.369  0.3065 -0.0441  0.7580
   97MOL0     N13299  11.200  10.587   6.033 -0.7400 -0.0980 -0.5124
   97MOL0     N13300  11.141  10.496   5.955 -0.3261 -0.1460 -0.0132
   97MOL0     C13301  10.246   9.877   5.533 -0.7093 -0.5337  0.2152
   97MOL0     C13302  10.117   9.923   5.550 -0.2226  0.2108  0.3555
   97MOL0     C13303   9.756  10.120   5.736  0.1036 -0.2961 -0.4494
   97MOL0     C13304   9.662  10.009   5.722 -0.6606 -0.1569 -0.5693
   97MOL0     C13305   9.526  10.031   5.715  0.4389  1.4008 -0.5878
   97MOL0     C13306   9.472  10.156   5.713 -0.2887 -0.6551 -0.6361
   97MOL0     O13307   9.339  10.186   5.704  0.4019 -0.4106 -0.6712
   97MOL0     C13308   9.255  10.093   5.633  0.1089  0.5606 -0.1499
   97MOL0     C13309   9.112  10.136   5.643  0.0513  0.6078  0.2583
   97MOL0     C13310   9.078  10.272   5.569  0.5096  0.0763  0.3581
   97MOL0     C13311   8.930  10.272   5.525  0.0462 -0.3273  0.0926
   97MOL0     C13312   8.894  10.409   5.463 -0.2734  0.4863  0.0170
   97MOL0     C13313   8.871  10.527   5.444 -0.1886 -0.1577  0.5091
   97MOL0     C13314   9.559  10.264   5.733 -0.3120 -0.0334  0.2585
   97MOL0     C13315   9.701  10.251   5.745  0.2595  0.4664  0.0917
   97MOL0     C13316   9.774  10.379   5.772 -0.4751 -0.2957  0.7904
   97MOL0     H13317  10.089   9.871   5.891 -2.2166 -1.5557 -0.1453
   97MOL0     H13318  10.308   9.797   5.867 -1.7627  4.6460  2.5520
   97MOL0     H13319  10.506   9.937   5.480  1.9646  2.2616 -0.0392
   97MOL0     H13320  10.641   9.839   5.534  1.6306  2.3317  0.3984
   97MOL0     H13321  10.516  10.047   5.695  0.3925  0.0706  0.2404
   97MOL0     H13322  10.667   9.945   5.733  0.5914 -0.0892  0.2809
   97MOL0     H13323  10.780  10.043   5.546 -1.6330 -1.4919 -1.6276
   97MOL0     H13324  10.639  10.123   5.489  4.1916  0.0892 -2.3326
   97MOL0     H13325  10.624  10.270   5.709 -0.1224  0.5222 -1.6843
   97MOL0     H13326  10.784  10.184   5.744  1.3172 -0.5240 -1.3654
   97MOL0     H13327  10.734  10.360   5.492  2.1697  2.1719 -1.6206
   97MOL0     H13328  10.890  10.305   5.562 -0.4431  0.0028  0.0649
   97MOL0     H13329  10.821  10.547   5.592  3.2013 -1.3574  0.7068
   97MOL0     H13330  10.684  10.489   5.688 -0.1251 -1.0233  1.4821
   97MOL0     H13331  10.834  10.402   5.850  3.0649 -0.0631  1.0273
   97MOL0     H13332  10.837  10.575   5.829  1.4597  0.5990 -0.1888
   97MOL0     H13333  11.052  10.387   5.718  0.2012 -0.1548 -2.2562
   97MOL0     H13334  11.030  10.554   5.654 -0.1470 -0.0257 -0.4848
   97MOL0     H13335  11.099  10.759   5.766 -0.9440  0.4736  1.3783
   97MOL0     H13336  11.236  10.909   5.915  5.0612  1.9427  0.9528
   97MOL0     H13337  11.318  10.851   6.055  1.2409 -1.3145 -3.2730
   97MOL0     H13338  11.063  10.812   6.140 -0.2589 -0.0335  1.0887
   97MOL0     H13339  11.157  10.960   6.157 -0.1540 -2.3129  1.7466
   97MOL0     H13340  11.064  11.056   5.949  2.8831 -2.6836 -0.5487
   97MOL0     H13341  10.974  10.912   5.913 -0.6840  0.1829  0.4895
   97MOL0     H13342  10.814  11.072   6.023  0.8023 -0.7107 -1.5968
   97MOL0     H13343  10.832  10.951   6.144  1.3960 -0.9268  0.6660
   97MOL0     H13344  10.932  11.355   6.193  1.6958 -0.5420  1.0945
   97MOL0     H13345  10.861  11.574   6.409  0.5299 -0.2638 -1.4943
   97MOL0     H13346  10.695  11.578   6.346 -0.7745  0.1830 -0.5719
   97MOL0     H13347  10.831  11.571   6.233 -2.6486 -0.7417 -1.4607
   97MOL0     H13348  10.437  11.580   6.557 -0.0943 -0.0514 -1.1317
   97MOL0     H13349  10.221  11.680   6.627  2.6160  0.2902  1.1439
   97MOL0     H13350   9.937  11.614   6.916 -2.0465  1.1889 -0.0527
   97MOL0     H13351  10.102  11.667   6.857  0.2979 -2.2584 -0.3042
   97MOL0     H13352   9.989  11.756   6.650 -0.5009 -1.5538  0.1297
   97MOL0     H13353   9.828  11.724   6.724  0.6111  1.8322 -2.4214
   97MOL0     H13354  10.048  11.915   6.819  0.0866 -1.3282  0.0024
   97MOL0     H13355   9.914  11.870   6.924  2.2733  0.2658  1.5126
   97MOL0     H13356   9.751  11.935   6.764 -0.1062 -1.6912 -1.5765
   97MOL0     H13357   9.862  11.972   6.646  0.3539 -0.7617  0.2514
   97MOL0     H13358   9.843  12.129   6.910 -0.6796 -2.5379 -0.3811
   97MOL0     H13359   9.990  12.127   6.826 -0.2338 -0.7089  1.8412
   97MOL0     H13360   9.828  12.312   6.779  0.6995  3.3431 -4.6776
   97MOL0     H13361   9.718  12.206   6.715  0.9351 -0.6831 -0.6339
   97MOL0     H13362   9.863  12.188   6.517 -0.1617 -1.3390  0.8214
   97MOL0     H13363  10.007  12.236   6.610  0.7139  3.1922  0.3770
   97MOL0     H13364   9.767  12.405   6.538  0.2711  2.8376 -0.5433
   97MOL0     H13365   9.921  12.406   6.457  0.1551 -2.5306  0.0730
   97MOL0     H13366  10.089  11.270   6.724  0.5825 -1.4828 -3.0233
   97MOL0     H13367  10.310  11.181   6.660 -0.2419 -0.6299  2.0429
   97MOL0     H13368  10.651  11.125   6.523  1.7690 -1.9538 -0.2593
   97MOL0     H13369  10.816  10.992   6.373 -1.4509 -0.2536  1.3151
   97MOL0     H13370  10.291   9.875   5.435 -0.5020 -1.7022  0.3183
   97MOL0     H13371  10.060   9.951   5.461 -0.3980 -2.2807 -0.4063
   97MOL0     H13372   9.696   9.905   5.721 -0.2087 -0.0678  1.2959
   97MOL0     H13373   9.462   9.944   5.718  1.3437  0.5856 -2.5989
   97MOL0     H13374   9.300  10.091   5.533 -0.0914  4.8158 -0.4748
   97MOL0     H13375   9.260   9.992   5.676 -0.5421  0.2001 -0.8898
   97MOL0     H13376   9.091  10.148   5.750 -1.3526  1.1238 -0.0590
   97MOL0     H13377   9.046  10.056   5.609  1.4028 -0.4378  0.0202
   97MOL0     H13378   9.097  10.364   5.626  1.8151  1.6006 -2.3797
   97MOL0     H13379   9.149  10.274   5.487 -0.9903  0.0052 -0.9994
   97MOL0     H13380   8.862  10.260   5.609 -0.4498 -0.4278 -0.3215
   97MOL0     H13381   8.912  10.204   5.442  0.4408  1.9834 -2.0320
   97MOL0     H13382   8.856  10.633   5.436  2.7655  0.4112  1.1939
   97MOL0     H13383   9.511  10.362   5.731 -2.5161 -1.0666 -0.0090
   97MOL0     H13384   9.703  10.456   5.802 -2.0870 -0.4023 -2.3910
   97MOL0     H13385   9.849  10.362   5.850 -0.0964 -0.9712  0.2933
   97MOL0     H13386   9.820  10.422   5.683 -1.9312 -0.4530 -0.0528
   98MOL0     O13387   3.008  10.698   6.496 -0.5040 -0.2305 -0.2174
   98MOL0     C13388   2.918  10.682   6.411 -0.0757  0.5794 -0.5482
   98MOL0     O13389   2.918  10.736   6.282  0.0671 -0.2654 -0.1170
   98MOL0     C13390   3.019  10.824   6.248  0.3875 -0.4930 -0.4342
   98MOL0     C13391   2.982  10.932   6.168 -0.3827 -0.1587  0.2181
   98MOL0     C13392   3.078  11.023   6.116 -0.2083 -0.2122 -0.0543
   98MOL0     C13393   3.218  11.014   6.146 -0.6919  1.1497 -0.7490
   98MOL0     O13394   3.306  11.119   6.103  0.2374 -0.4301 -0.6376
   98MOL0     C13395   3.448  11.089   6.115  1.0877  0.0007 -0.2451
   98MOL0     C13396   3.523  11.177   6.016 -0.3600 -0.5201 -0.6703
   98MOL0     C13397   3.673  11.191   6.059 -0.0274  0.4383  0.4639
   98MOL0     C13398   3.746  11.285   5.967 -0.2237 -0.3396 -0.4697
   98MOL0     C13399   3.894  11.286   6.010 -0.3234 -0.5539  0.1036
   98MOL0     C13400   3.968  11.161   5.964  0.0687 -0.1016  0.0512
   98MOL0     C13401   4.115  11.168   6.003 -0.2284 -0.7976 -0.7162
   98MOL0     C13402   4.137  11.155   6.158  0.8518 -0.2214 -0.6434
   98MOL0     N13403   4.264  11.098   6.190  0.2371  0.5407  0.4518
   98MOL0     C13404   4.382  11.162   6.185 -0.8834 -0.7340 -0.8587
   98MOL0     C13405   4.471  11.071   6.239 -0.1991  0.4508 -0.6107
   98MOL0     C13406   4.609  11.109   6.293 -0.1897 -0.1342  0.2630
   98MOL0     C13407   4.632  11.062   6.433 -0.0271 -0.1605  0.2316
   98MOL0     C13408   4.764  11.106   6.479 -0.8245 -0.0476 -1.3324
   98MOL0     C13409   4.804  11.039   6.615 -0.2191 -0.1277 -0.3867
   98MOL0     O13410   4.830  10.900   6.608 -0.2756 -0.3262 -0.2957
   98MOL0     C13411   4.890  10.864   6.725 -1.0377  0.1634 -0.1153
   98MOL0     C13412   4.827  10.862   6.849 -0.0325 -0.3211  0.3460
   98MOL0     C13413   4.888  10.818   6.964  0.9285 -0.1094 -0.3646
   98MOL0     C13414   4.804  10.827   7.089  0.2831 -0.1768 -0.0611
   98MOL0     C13415   5.012  10.755   6.955 -0.4586  0.0695  0.8970
   98MOL0     C13416   5.086  10.697   7.067 -0.0441  0.0482 -0.5392
   98MOL0     O13417   5.211  10.672   7.034 -0.5597 -0.6991 -0.8369
   98MOL0     C13418   5.304  10.618   7.125  0.3100 -0.0687 -0.4884
   98MOL0     C13419   5.318  10.480   7.128  0.4160 -0.3920 -1.0238
   98MOL0     C13420   5.402  10.416   7.223  0.2579 -0.5222  0.3826
   98MOL0     C13421   5.467  10.495   7.321  0.2266  0.1000 -0.2787
   98MOL0     O13422   5.543  10.429   7.417 -0.6046 -0.0504  0.0411
   98MOL0     C13423   5.622  10.509   7.501  0.4239 -0.2346  0.4289
   98MOL0     C13424   5.696  10.404   7.566  0.4247 -0.1136 -0.5329
   98MOL0     C13425   5.805  10.339   7.478 -0.5184 -0.0269 -0.8063
   98MOL0     C13426   5.835  10.201   7.542 -0.1159 -0.1178 -0.1436
   98MOL0     C13427   5.955  10.137   7.473 -0.0492 -0.5364  0.6144
   98MOL0     C13428   6.002  10.003   7.535 -0.5003 -0.9376 -0.4155
   98MOL0     C13429   6.075   9.909   7.438  0.3683  0.2548  0.2410
   98MOL0     C13430   6.177   9.990   7.364 -0.4033 -0.3764  0.6751
   98MOL0    Cl13431   6.269  10.088   7.484 -0.4378  0.1870 -0.1374
   98MOL0     C13432   5.439  10.639   7.329 -0.5110 -0.1329  0.2797
   98MOL0     C13433   5.356  10.694   7.232 -0.0138  0.2246 -0.0854
   98MOL0     O13434   5.031  10.677   7.176  0.7123  0.0495  0.1782
   98MOL0     C13435   5.070  10.737   6.828 -0.4471 -0.0456 -0.6408
   98MOL0     C13436   5.009  10.792   6.716  0.6791  0.6721 -0.5925
   98MOL0     N13437   4.407  10.956   6.264  0.2122  0.2406 -0.4799
   98MOL0     N13438   4.282  10.971   6.232 -0.1214  0.0918 -0.4271
   98MOL0     C13439   3.257  10.903   6.230 -0.0037 -0.0407  0.2396
   98MOL0     C13440   3.162  10.810   6.277  0.0977 -1.0683  0.0349
   98MOL0     C13441   2.801  10.601   6.466  0.0031 -0.1425 -0.0360
   98MOL0     C13442   2.666  10.611   6.408  0.3670 -0.2596 -0.2847
   98MOL0     C13443   2.562  10.535   6.452  0.2700 -0.4625  0.8801
   98MOL0     C13444   2.575  10.449   6.558 -1.1366 -0.1909  0.1469
   98MOL0     O13445   2.461  10.380   6.597 -0.5810 -0.8699  0.1293
   98MOL0     C13446   2.476  10.273   6.684 -0.8084  0.8567  0.1264
   98MOL0     C13447   2.342  10.203   6.706 -0.7238 -0.1474  0.1251
   98MOL0     C13448   2.292  10.141   6.574  0.4152  0.1615  0.0678
   98MOL0     C13449   2.149  10.091   6.604 -0.4850  0.1276 -0.3159
   98MOL0     C13450   2.087  10.020   6.485 -0.0506  0.6546 -1.1925
   98MOL0     C13451   2.032   9.952   6.405 -0.6866 -0.2510  0.1625
   98MOL0     C13452   2.696  10.451   6.636 -0.2113 -0.5583  0.5016
   98MOL0     C13453   2.806  10.522   6.583  0.5558 -0.5717 -0.6186
   98MOL0     C13454   2.929  10.512   6.671 -0.3477 -0.1126  0.2302
   98MOL0     H13455   2.877  10.957   6.154  0.0218  2.5208  1.3890
   98MOL0     H13456   3.038  11.112   6.069 -0.7936  0.1792  1.1262
   98MOL0     H13457   3.459  10.983   6.090  0.1020 -0.9033  2.6831
   98MOL0     H13458   3.479  11.094   6.220 -2.2484 -0.3571  0.9048
   98MOL0     H13459   3.514  11.115   5.926  0.9575  0.3203 -1.4110
   98MOL0     H13460   3.474  11.274   6.008  2.1151  1.1952  2.5459
   98MOL0     H13461   3.679  11.227   6.162  0.8530  0.2093  0.5020
   98MOL0     H13462   3.717  11.091   6.060 -2.9009 -0.9205  1.8224
   98MOL0     H13463   3.735  11.261   5.861 -0.3114 -1.7973 -0.1473
   98MOL0     H13464   3.717  11.389   5.987  2.3797  0.5077 -0.6531
   98MOL0     H13465   3.902  11.308   6.117 -0.8726 -0.8082  0.1994
   98MOL0     H13466   3.934  11.377   5.964 -0.7114 -0.0197  0.8188
   98MOL0     H13467   3.926  11.074   6.015  1.5525 -1.5637 -1.0908
   98MOL0     H13468   3.954  11.144   5.857  0.8687  0.0436 -0.0842
   98MOL0     H13469   4.161  11.248   5.945 -2.2161 -0.3402 -1.7625
   98MOL0     H13470   4.166  11.079   5.966 -0.4541 -2.4202  2.5229
   98MOL0     H13471   4.147  11.253   6.205  2.9990 -0.3955 -0.6368
   98MOL0     H13472   4.058  11.090   6.196  1.4332 -0.1127  0.8023
   98MOL0     H13473   4.393  11.269   6.172 -1.5184 -0.3337  1.4900
   98MOL0     H13474   4.622  11.217   6.277  1.8455 -0.7065 -2.6689
   98MOL0     H13475   4.688  11.062   6.234  0.3691  0.2241  0.7169
   98MOL0     H13476   4.553  11.107   6.495  1.6866  2.7463  0.4911
   98MOL0     H13477   4.633  10.953   6.430  0.3433 -0.3046  2.8501
   98MOL0     H13478   4.854  11.091   6.420 -0.0716  1.1896 -0.5514
   98MOL0     H13479   4.770  11.213   6.501  2.7540 -0.0496 -1.7686
   98MOL0     H13480   4.898  11.088   6.641  0.5373 -2.2751  1.1695
   98MOL0     H13481   4.730  11.068   6.690  3.2705  1.0087  2.8684
   98MOL0     H13482   4.727  10.904   6.855  0.2156  0.2522  0.6126
   98MOL0     H13483   4.722  10.896   7.067  0.1075 -0.5137 -0.4602
   98MOL0     H13484   4.864  10.862   7.174  0.3013 -0.8481  0.2092
   98MOL0     H13485   4.766  10.728   7.116  0.3938 -0.3906 -0.6785
   98MOL0     H13486   5.250  10.441   7.053  0.9170  0.4585 -1.9460
   98MOL0     H13487   5.412  10.308   7.216 -1.7374 -0.7089 -0.2427
   98MOL0     H13488   5.689  10.579   7.449  0.6742 -0.2818  0.6864
   98MOL0     H13489   5.558  10.573   7.562  0.8573  1.3796 -0.7267
   98MOL0     H13490   5.751  10.450   7.649  0.7403 -0.0771 -0.7592
   98MOL0     H13491   5.618  10.336   7.600 -0.7909  1.4066 -0.1716
   98MOL0     H13492   5.891  10.406   7.469 -0.5665  0.4285  1.5848
   98MOL0     H13493   5.760  10.320   7.380 -0.0604 -0.5574 -0.9228
   98MOL0     H13494   5.748  10.136   7.525 -0.3226  0.0359  0.3076
   98MOL0     H13495   5.849  10.193   7.650 -0.1386 -1.5267 -0.2200
   98MOL0     H13496   5.931  10.112   7.369  4.3735 -1.3140 -0.4375
   98MOL0     H13497   6.037  10.209   7.477  1.7678 -2.5361  0.9282
   98MOL0     H13498   5.921   9.947   7.581 -0.4749  0.2978  1.2412
   98MOL0     H13499   6.068  10.032   7.617 -2.1596  3.0517 -0.2441
   98MOL0     H13500   5.996   9.869   7.374 -0.0456 -0.4837  1.1996
   98MOL0     H13501   6.130   9.838   7.501  1.6487 -0.8359 -1.9813
   98MOL0     H13502   6.123  10.049   7.289  1.1605 -0.7607 -0.7948
   98MOL0     H13503   6.234   9.919   7.304 -1.0295  1.2991 -2.0890
   98MOL0     H13504   5.474  10.703   7.409 -0.0389 -2.1257  1.7513
   98MOL0     H13505   5.339  10.801   7.244  2.4694  0.8653 -1.4349
   98MOL0     H13506   5.158  10.676   6.816  0.4009 -0.1116  3.8490
   98MOL0     H13507   5.066  10.770   6.627 -1.2590  1.9281 -2.2459
   98MOL0     H13508   3.359  10.884   6.261 -0.4285 -1.3953  0.8690
   98MOL0     H13509   3.207  10.726   6.329  1.8706  0.4100  1.0473
   98MOL0     H13510   2.655  10.659   6.312 -0.1144 -0.6159 -0.4091
   98MOL0     H13511   2.474  10.532   6.388 -0.1250 -0.9234  1.4368
   98MOL0     H13512   2.556  10.208   6.646 -0.6958  1.8747 -1.4780
   98MOL0     H13513   2.510  10.304   6.784 -1.4165  1.2739  0.2085
   98MOL0     H13514   2.276  10.281   6.745  1.6111  1.1373  1.7043
   98MOL0     H13515   2.342  10.123   6.780 -0.3381 -1.8707 -1.6412
   98MOL0     H13516   2.291  10.213   6.492  2.6393  2.6898  2.0596
   98MOL0     H13517   2.362  10.064   6.541 -0.5866 -0.7480  0.0493
   98MOL0     H13518   2.089  10.181   6.620 -0.3510  0.3158 -0.8578
   98MOL0     H13519   2.141  10.022   6.689  0.5964 -2.1510 -1.9625
   98MOL0     H13520   1.970   9.896   6.338 -1.9447  0.5030  0.6625
   98MOL0     H13521   2.707  10.399   6.731  4.0796 -0.6797  0.1233
   98MOL0     H13522   3.000  10.450   6.616  2.7255  2.1190  1.4267
   98MOL0     H13523   2.962  10.608   6.711 -1.1179 -1.1955  3.8545
   98MOL0     H13524   2.911  10.448   6.758  0.8889  0.7600  1.1613
   99MOL0     O13525   8.040   3.434   6.707  0.8373 -0.2571  0.5481
   99MOL0     C13526   8.118   3.486   6.786 -0.3047 -0.2837  0.5143
   99MOL0     O13527   8.098   3.509   6.911 -0.2355  0.2708 -0.1934
   99MOL0     C13528   7.994   3.465   6.987 -0.0620 -0.4052  0.0175
   99MOL0     C13529   7.861   3.478   6.947  0.8278 -0.3118  0.1627
   99MOL0     C13530   7.761   3.422   7.034 -0.3776  0.7035  0.4475
   99MOL0     C13531   7.788   3.355   7.152  0.3169  0.4073  0.2436
   99MOL0     O13532   7.680   3.300   7.217  0.5914  0.0883  0.5403
   99MOL0     C13533   7.702   3.236   7.344  0.4595  0.0472  0.7108
   99MOL0     C13534   7.727   3.077   7.333 -0.2632 -0.2527 -0.5998
   99MOL0     C13535   7.634   3.001   7.246  0.1045  0.1228 -0.1625
   99MOL0     C13536   7.654   2.846   7.271  0.0815 -0.0229 -0.2667
   99MOL0     C13537   7.544   2.772   7.195 -0.1694 -0.7067 -0.5902
   99MOL0     C13538   7.589   2.639   7.133  0.3104  0.3231 -0.0793
   99MOL0     C13539   7.490   2.543   7.070  0.6706  0.4972 -0.3041
   99MOL0     C13540   7.517   2.392   7.053 -0.4362 -0.1466 -0.9609
   99MOL0     N13541   7.660   2.364   7.028  0.4939 -0.7103  0.2943
   99MOL0     C13542   7.715   2.381   6.899  0.3354 -0.2579  0.0659
   99MOL0     C13543   7.843   2.397   6.924 -0.0047 -0.3291  0.4932
   99MOL0     C13544   7.949   2.449   6.829 -0.0544  0.3450  0.0092
   99MOL0     C13545   8.031   2.321   6.778 -0.0215  0.3384 -1.0369
   99MOL0     C13546   8.154   2.367   6.704 -0.4563  0.2984  0.5874
   99MOL0     C13547   8.271   2.434   6.790  0.1613  0.2181 -0.1508
   99MOL0     O13548   8.342   2.328   6.849 -1.0259  0.2015  0.6628
   99MOL0     C13549   8.472   2.343   6.887  0.5104 -0.5125  0.3505
   99MOL0     C13550   8.562   2.242   6.873  0.3606 -0.0960  0.3369
   99MOL0     C13551   8.695   2.251   6.907 -0.2009 -0.9038 -0.3702
   99MOL0     C13552   8.781   2.134   6.887  0.2619  0.2578  0.7425
   99MOL0     C13553   8.741   2.381   6.955  0.3548  0.9683 -0.5042
   99MOL0     C13554   8.884   2.413   6.998  0.1365  0.2323  0.4017
   99MOL0     O13555   8.909   2.539   7.035 -0.3051 -0.4208  0.0621
   99MOL0     C13556   9.017   2.563   7.123  0.5068 -0.2891 -0.1963
   99MOL0     C13557   9.078   2.476   7.217  0.2441  0.2610  0.1713
   99MOL0     C13558   9.178   2.516   7.309  1.0309 -0.2213  0.8935
   99MOL0     C13559   9.225   2.646   7.303  0.9132 -0.6584 -0.0248
   99MOL0     O13560   9.314   2.664   7.398 -0.1577 -0.0578 -0.4733
   99MOL0     C13561   9.440   2.700   7.341  0.1230 -0.2257  0.4078
   99MOL0     C13562   9.547   2.680   7.457 -0.9000  0.1287 -0.6718
   99MOL0     C13563   9.685   2.736   7.417 -0.4419 -0.6614  0.3774
   99MOL0     C13564   9.761   2.635   7.318  0.2165  0.3886 -0.2288
   99MOL0     C13565   9.905   2.690   7.276 -0.8100  0.4577 -0.1661
   99MOL0     C13566   9.986   2.702   7.406 -0.3172  0.3420 -0.5720
   99MOL0     C13567  10.138   2.681   7.368  0.0205  0.2457 -0.5128
   99MOL0     C13568  10.231   2.713   7.486  0.8146  0.0739 -0.1200
   99MOL0    Cl13569  10.186   2.636   7.637  0.1557 -0.3418 -0.2792
   99MOL0     C13570   9.164   2.736   7.212 -0.3006  0.2595  0.9550
   99MOL0     C13571   9.060   2.698   7.129  0.1040  0.4133 -0.0195
   99MOL0     O13572   8.964   2.326   6.988 -0.4203 -0.5397 -0.0609
   99MOL0     C13573   8.648   2.492   6.972  0.1036 -0.0641  0.2289
   99MOL0     C13574   8.516   2.476   6.930  0.5361 -0.2166 -0.4390
   99MOL0     N13575   7.871   2.380   7.057  0.3020  0.2536 -0.1241
   99MOL0     N13576   7.762   2.364   7.117  0.1426 -0.3514  0.2197
   99MOL0     C13577   7.923   3.361   7.190 -0.5680  0.1348  0.7919
   99MOL0     C13578   8.022   3.423   7.110  0.4772  0.7211 -0.3984
   99MOL0     C13579   8.235   3.553   6.720 -0.2977  0.5310  0.3639
   99MOL0     C13580   8.228   3.573   6.579  0.4291  0.7132 -0.4852
   99MOL0     C13581   8.331   3.630   6.511  0.5817 -0.4712 -0.3696
   99MOL0     C13582   8.439   3.695   6.573  0.9456  0.0555  0.8656
   99MOL0     O13583   8.531   3.757   6.482  0.3810  0.0988 -0.6656
   99MOL0     C13584   8.621   3.846   6.545 -0.8739  0.5775  0.2570
   99MOL0     C13585   8.735   3.877   6.442  0.2631  0.1116 -0.1536
   99MOL0     C13586   8.810   4.004   6.483 -0.0411  0.5709 -0.1737
   99MOL0     C13587   8.732   4.136   6.436 -0.1648  0.9495 -0.1441
   99MOL0     C13588   8.635   4.179   6.526 -0.0920 -0.8374 -0.4386
   99MOL0     C13589   8.541   4.207   6.606 -0.6836  0.0554  0.6110
   99MOL0     C13590   8.443   3.677   6.717  0.0697 -0.4553 -0.0938
   99MOL0     C13591   8.353   3.595   6.783  0.4834 -0.3944 -0.5166
   99MOL0     C13592   8.366   3.577   6.932 -0.1048 -0.4896  0.2172
   99MOL0     H13593   7.832   3.520   6.851 -0.5893  2.0459  1.5056
   99MOL0     H13594   7.660   3.422   6.995  0.5240  0.0317 -2.0876
   99MOL0     H13595   7.612   3.247   7.404 -0.1587 -1.5215  0.1416
   99MOL0     H13596   7.782   3.282   7.404 -1.7418  0.8521  3.2145
   99MOL0     H13597   7.822   3.055   7.284  0.4790  0.6188  0.4058
   99MOL0     H13598   7.728   3.047   7.438  2.0967 -0.3003 -0.5948
   99MOL0     H13599   7.529   3.032   7.244 -0.3942 -1.2597  1.8337
   99MOL0     H13600   7.675   3.019   7.146  1.8259  1.0543  0.6708
   99MOL0     H13601   7.752   2.819   7.233 -0.5741 -2.0197 -0.6607
   99MOL0     H13602   7.655   2.809   7.374 -0.0776  1.9928  0.5153
   99MOL0     H13603   7.512   2.844   7.119  1.4558  3.9624  2.6677
   99MOL0     H13604   7.454   2.766   7.257  0.4266 -2.6196  0.1639
   99MOL0     H13605   7.675   2.648   7.067  0.6985  0.6748  0.4673
   99MOL0     H13606   7.634   2.589   7.219  3.2406  0.0489 -1.6652
   99MOL0     H13607   7.458   2.589   6.975  2.6194 -1.2547 -1.9144
   99MOL0     H13608   7.406   2.550   7.140  1.3532 -3.0217  1.0917
   99MOL0     H13609   7.487   2.337   7.142 -0.0940  1.9394  0.5205
   99MOL0     H13610   7.462   2.354   6.967 -0.8518 -0.9130 -0.3674
   99MOL0     H13611   7.658   2.387   6.806  2.4303  0.4315 -1.2532
   99MOL0     H13612   8.003   2.518   6.894 -3.8041  0.5106  3.3517
   99MOL0     H13613   7.902   2.496   6.743 -2.5341  0.1531  1.1657
   99MOL0     H13614   8.063   2.263   6.865 -3.8586  0.3560  0.5784
   99MOL0     H13615   7.964   2.263   6.714 -2.2670 -0.0254  1.4856
   99MOL0     H13616   8.198   2.277   6.661  0.7082  2.1661 -2.4857
   99MOL0     H13617   8.109   2.432   6.628 -1.5402 -0.4744  0.5430
   99MOL0     H13618   8.331   2.502   6.730 -2.6382  0.3233 -3.0807
   99MOL0     H13619   8.229   2.503   6.864  2.0819  0.7154  0.5480
   99MOL0     H13620   8.519   2.149   6.838  0.5361  0.5007 -1.5896
   99MOL0     H13621   8.869   2.156   6.827  0.2488  3.4407  1.6641
   99MOL0     H13622   8.725   2.054   6.838 -1.6395  1.5898  0.6392
   99MOL0     H13623   8.819   2.091   6.981  1.6213 -2.5966 -0.9978
   99MOL0     H13624   9.051   2.371   7.216 -3.8729  1.1408 -0.2109
   99MOL0     H13625   9.237   2.454   7.376  1.4232 -0.6500  0.1686
   99MOL0     H13626   9.467   2.648   7.249 -0.7666  0.5571 -0.3120
   99MOL0     H13627   9.439   2.804   7.309 -0.3782 -1.0381 -2.4451
   99MOL0     H13628   9.511   2.723   7.552 -0.2099 -2.8211  1.0790
   99MOL0     H13629   9.550   2.572   7.475 -1.1562 -0.2999 -2.9785
   99MOL0     H13630   9.749   2.766   7.500  0.6360  1.4133 -1.1103
   99MOL0     H13631   9.679   2.833   7.367 -0.9499 -1.5382 -1.3520
   99MOL0     H13632   9.694   2.636   7.232 -0.7674 -1.4598  0.4501
   99MOL0     H13633   9.769   2.534   7.360  2.4669 -0.3379 -2.2094
   99MOL0     H13634   9.946   2.631   7.194  1.8468  0.2930  1.1888
   99MOL0     H13635   9.893   2.787   7.228 -1.1793 -0.0411 -1.1130
   99MOL0     H13636   9.960   2.627   7.481 -1.5416  0.7681 -0.5549
   99MOL0     H13637   9.975   2.799   7.454 -1.5077  0.3393 -0.8243
   99MOL0     H13638  10.158   2.752   7.287 -0.7003 -0.7108 -1.5416
   99MOL0     H13639  10.159   2.579   7.334 -2.4904  0.3829 -2.7622
   99MOL0     H13640  10.227   2.821   7.498 -2.8756 -0.1816  2.4494
   99MOL0     H13641  10.334   2.689   7.457  0.8201 -0.9870  0.7207
   99MOL0     H13642   9.193   2.840   7.220 -0.8493  0.4289  0.8266
   99MOL0     H13643   9.021   2.782   7.074  0.1597  0.4839  0.0486
   99MOL0     H13644   8.676   2.584   7.023 -1.1381  1.1070 -1.1200
   99MOL0     H13645   8.450   2.561   6.943  1.3971  0.1074  2.6716
   99MOL0     H13646   7.961   3.310   7.277  0.8020  1.7134  1.1708
   99MOL0     H13647   8.122   3.411   7.151  1.7427  2.1118 -2.8082
   99MOL0     H13648   8.143   3.529   6.526  0.3920 -1.7394  1.4233
   99MOL0     H13649   8.323   3.626   6.402  1.8929  0.2952 -0.5258
   99MOL0     H13650   8.574   3.937   6.583  0.7218  2.0710 -1.2156
   99MOL0     H13651   8.678   3.801   6.627 -0.9226 -1.1827 -0.6142
   99MOL0     H13652   8.702   3.878   6.337 -0.8124 -0.2032  0.1656
   99MOL0     H13653   8.807   3.795   6.451  0.1309  0.1770  2.0667
   99MOL0     H13654   8.827   3.997   6.590 -3.2911 -1.9190  0.3153
   99MOL0     H13655   8.912   4.005   6.443  0.1865 -1.1805  0.2796
   99MOL0     H13656   8.679   4.103   6.347  1.5045 -1.9431 -0.2035
   99MOL0     H13657   8.803   4.219   6.431  0.8999 -0.0042 -2.7978
   99MOL0     H13658   8.463   4.234   6.674  0.5593  2.7125  1.0708
   99MOL0     H13659   8.530   3.710   6.772  0.4838 -0.3683 -0.7925
   99MOL0     H13660   8.333   3.477   6.962  0.8231 -0.8093  0.1990
   99MOL0     H13661   8.470   3.586   6.965 -0.5150  1.3791  1.1746
   99MOL0     H13662   8.313   3.657   6.985  2.4590  0.7275  1.1066
  100MOL0     O13663   3.256   2.511   7.472 -0.2674  0.3579 -0.7441
  100MOL0     C13664   3.317   2.495   7.577 -0.9183 -0.0556  0.0600
  100MOL0     O13665   3.427   2.563   7.620 -0.5785 -0.2454 -0.0035
  100MOL0     C13666   3.490   2.652   7.532 -0.2750 -0.5825 -0.4774
  100MOL0     C13667   3.432   2.777   7.497 -0.2533  0.0671 -0.1470
  100MOL0     C13668   3.496   2.852   7.397  0.4670 -0.4451  0.6605
  100MOL0     C13669   3.622   2.816   7.344  0.1442 -0.6193  0.6157
  100MOL0     O13670   3.692   2.881   7.244 -0.0940  0.5493  0.5629
  100MOL0     C13671   3.681   3.020   7.222 -0.1287 -0.7374 -0.2639
  100MOL0     C13672   3.775   3.095   7.319  0.2807  0.0191 -0.0761
  100MOL0     C13673   3.695   3.125   7.448  0.8078  0.3014  0.0147
  100MOL0     C13674   3.778   3.182   7.560 -0.0217  0.5287 -0.4274
  100MOL0     C13675   3.696   3.235   7.681 -0.2188 -0.5269 -0.4135
  100MOL0     C13676   3.639   3.111   7.750 -0.0919  0.5328 -0.2731
  100MOL0     C13677   3.591   3.143   7.902  0.0004  0.9386  0.8810
  100MOL0     C13678   3.473   3.239   7.911 -0.2325  0.3952 -0.2539
  100MOL0     N13679   3.359   3.207   7.827  0.2907 -0.3727 -0.4198
  100MOL0     C13680   3.249   3.134   7.866 -0.4770  0.4985  0.9218
  100MOL0     C13681   3.172   3.123   7.756  0.1766 -0.3217 -0.4885
  100MOL0     C13682   3.060   3.032   7.758 -0.1219 -0.3550 -0.4292
  100MOL0     C13683   2.933   3.107   7.801 -0.7434 -0.6431  0.9251
  100MOL0     C13684   2.813   3.020   7.843 -0.1246 -0.3205  0.1027
  100MOL0     C13685   2.683   3.098   7.887 -0.2987  0.8968  0.4090
  100MOL0     O13686   2.617   3.032   7.996  0.4165 -0.0648  0.0637
  100MOL0     C13687   2.484   3.062   8.032  0.3901  0.1719  0.3448
  100MOL0     C13688   2.393   3.135   7.950  0.0327  0.7985 -0.2126
  100MOL0     C13689   2.252   3.141   7.982 -0.8804  0.0000 -0.9347
  100MOL0     C13690   2.153   3.202   7.890  0.3982  0.0665  0.1706
  100MOL0     C13691   2.210   3.096   8.109 -0.2451 -0.6033 -0.5356
  100MOL0     C13692   2.079   3.104   8.167  0.0955  1.4109 -0.7824
  100MOL0     O13693   2.047   2.997   8.248 -0.0568  0.6090  0.1727
  100MOL0     C13694   1.924   2.992   8.308  0.2899 -0.4664 -1.0311
  100MOL0     C13695   1.908   3.074   8.425 -0.1235  0.7973 -0.0353
  100MOL0     C13696   1.800   3.074   8.498  0.3748 -0.2172  0.6742
  100MOL0     C13697   1.695   3.000   8.445  0.4806 -0.0030 -0.4069
  100MOL0     O13698   1.571   3.002   8.499 -0.5916  0.0755  0.0481
  100MOL0     C13699   1.544   3.050   8.628 -0.0198 -0.2461 -0.5986
  100MOL0     C13700   1.609   2.958   8.735 -0.8497 -0.3454 -0.4713
  100MOL0     C13701   1.583   2.993   8.880  0.7485  0.6238  0.2820
  100MOL0     C13702   1.616   2.866   8.964 -0.0469  1.0093  0.1409
  100MOL0     C13703   1.595   2.896   9.119  0.1799 -0.0282  1.8379
  100MOL0     C13704   1.665   2.794   9.202  0.2707  0.1425  0.2081
  100MOL0     C13705   1.642   2.645   9.156 -0.2729  0.9592  0.2385
  100MOL0     C13706   1.689   2.558   9.266 -0.0693 -0.0310 -0.6170
  100MOL0    Cl13707   1.872   2.545   9.285 -0.2829  0.1946  0.3348
  100MOL0     C13708   1.697   2.924   8.330 -0.2605  0.2849  0.4210
  100MOL0     C13709   1.818   2.913   8.258 -0.1549  0.0765  0.2266
  100MOL0     O13710   2.021   3.210   8.155  0.2113 -0.1452  0.1219
  100MOL0     C13711   2.305   3.050   8.205  0.8406 -0.6965  0.0938
  100MOL0     C13712   2.433   3.024   8.162 -0.0937  0.6289  0.7764
  100MOL0     N13713   3.236   3.176   7.651  0.0432 -0.5820 -0.0776
  100MOL0     N13714   3.349   3.216   7.696 -0.2958  0.4257 -0.8653
  100MOL0     C13715   3.672   2.695   7.392 -0.2851 -0.0796  0.0130
  100MOL0     C13716   3.608   2.611   7.480  0.5906  0.4607  0.0483
  100MOL0     C13717   3.277   2.388   7.666  0.1705 -0.3054  0.0162
  100MOL0     C13718   3.363   2.351   7.768 -0.8714  0.1992  0.3589
  100MOL0     C13719   3.332   2.245   7.852 -0.1996 -0.6916  0.4331
  100MOL0     C13720   3.217   2.166   7.840 -0.7348 -0.4571 -0.0998
  100MOL0     O13721   3.198   2.060   7.925  0.3577 -0.2288  0.4619
  100MOL0     C13722   3.084   1.974   7.903  0.5693  0.0626 -0.6550
  100MOL0     C13723   2.961   2.034   7.955 -0.1522  0.0047  0.0048
  100MOL0     C13724   2.966   2.115   8.071  0.8018  0.6298 -0.3342
  100MOL0     C13725   2.827   2.145   8.127 -0.0210  0.5582  0.5687
  100MOL0     C13726   2.778   2.028   8.198 -0.3142 -0.0660  0.0888
  100MOL0     C13727   2.732   1.930   8.256 -0.4757  0.1057  0.6371
  100MOL0     C13728   3.133   2.206   7.740 -0.6203  0.4088  0.3515
  100MOL0     C13729   3.158   2.310   7.654 -0.1880 -1.1101  1.0329
  100MOL0     C13730   3.050   2.320   7.544  0.7889 -0.2281 -0.3151
  100MOL0     H13731   3.335   2.802   7.539 -1.5452 -0.2005 -2.7652
  100MOL0     H13732   3.448   2.946   7.371 -0.4083 -0.3009  2.6049
  100MOL0     H13733   3.578   3.058   7.224 -0.2973 -1.1717  1.2329
  100MOL0     H13734   3.733   3.031   7.127 -1.9181  0.1215 -1.1772
  100MOL0     H13735   3.864   3.037   7.343 -0.5609 -0.2032  3.0194
  100MOL0     H13736   3.819   3.186   7.279  0.7052  1.7577  3.9118
  100MOL0     H13737   3.621   3.203   7.425  0.2515 -0.9829 -3.1353
  100MOL0     H13738   3.649   3.035   7.490  0.1691 -0.3087 -1.8929
  100MOL0     H13739   3.858   3.116   7.596 -1.9049 -0.6031  2.0346
  100MOL0     H13740   3.836   3.263   7.517  2.3805 -1.5785 -1.4155
  100MOL0     H13741   3.615   3.295   7.639  1.1548 -0.8866 -3.9351
  100MOL0     H13742   3.756   3.292   7.753 -1.2813  0.3615 -0.2068
  100MOL0     H13743   3.556   3.074   7.690  0.1968 -2.3108  0.9172
  100MOL0     H13744   3.715   3.033   7.761  0.8305  1.7150  5.3314
  100MOL0     H13745   3.668   3.193   7.962 -0.5942 -0.7595  3.2163
  100MOL0     H13746   3.564   3.050   7.952 -0.6024  1.4393  1.5073
  100MOL0     H13747   3.453   3.253   8.017  1.3978  0.7068  0.0493
  100MOL0     H13748   3.504   3.341   7.884  0.8934  0.1675  0.1005
  100MOL0     H13749   3.227   3.073   7.952 -1.9177  0.3307  0.4651
  100MOL0     H13750   3.088   2.961   7.837  3.7237  0.7531 -0.5594
  100MOL0     H13751   3.057   2.985   7.660  0.0012 -1.4449  0.0733
  100MOL0     H13752   2.969   3.167   7.886 -1.0595  1.3868 -0.3052
  100MOL0     H13753   2.913   3.163   7.709 -1.1383  0.9167  1.9184
  100MOL0     H13754   2.790   2.950   7.761  0.7236 -1.7124  1.0143
  100MOL0     H13755   2.835   2.956   7.928 -0.7592  1.2300  1.4806
  100MOL0     H13756   2.704   3.201   7.915  0.5502  0.9967 -0.5271
  100MOL0     H13757   2.615   3.097   7.801 -0.2747 -0.0310  0.3827
  100MOL0     H13758   2.427   3.174   7.854  2.7100  1.3204  0.8417
  100MOL0     H13759   2.132   3.309   7.901  1.9639  0.1836  3.1920
  100MOL0     H13760   2.061   3.144   7.904  0.2728  0.0541 -0.6706
  100MOL0     H13761   2.178   3.179   7.786 -2.0027 -2.4546  0.0343
  100MOL0     H13762   1.993   3.135   8.456 -1.1182  0.4572  3.9200
  100MOL0     H13763   1.791   3.132   8.589  0.2047 -0.6827  0.9569
  100MOL0     H13764   1.564   3.156   8.645 -0.5625 -0.4755  1.7979
  100MOL0     H13765   1.436   3.037   8.639 -0.1231  0.6656 -0.4704
  100MOL0     H13766   1.577   2.855   8.717 -3.4691  0.4704 -0.8589
  100MOL0     H13767   1.718   2.958   8.724 -0.8625  0.4015 -0.6402
  100MOL0     H13768   1.480   3.023   8.900  0.9682  1.1498  0.6402
  100MOL0     H13769   1.645   3.079   8.905  0.1790  1.1613 -0.1281
  100MOL0     H13770   1.716   2.829   8.939 -0.8578  0.8461 -3.3953
  100MOL0     H13771   1.539   2.792   8.937  0.8073  0.4122 -0.7231
  100MOL0     H13772   1.633   2.995   9.149  1.9138 -0.0353 -0.0667
  100MOL0     H13773   1.487   2.902   9.133 -0.8104 -2.8747 -2.7120
  100MOL0     H13774   1.626   2.796   9.304  1.2153  1.0655  0.5702
  100MOL0     H13775   1.773   2.810   9.207  0.1245  1.4625 -0.4438
  100MOL0     H13776   1.709   2.624   9.072  0.0830  2.8787  0.0038
  100MOL0     H13777   1.538   2.629   9.128  0.4572 -2.9132 -0.9353
  100MOL0     H13778   1.653   2.456   9.249  0.5306  0.0784 -2.8259
  100MOL0     H13779   1.632   2.595   9.352  1.6372 -1.5767  1.3071
  100MOL0     H13780   1.609   2.877   8.289  0.5801  0.6774 -2.0334
  100MOL0     H13781   1.828   2.861   8.163 -1.8237  1.6092 -0.8545
  100MOL0     H13782   2.274   3.031   8.307 -0.3842  1.4483  0.1872
  100MOL0     H13783   2.501   2.991   8.240  0.4966 -1.0324 -0.3776
  100MOL0     H13784   3.770   2.686   7.346 -0.0541  0.8997  0.3049
  100MOL0     H13785   3.645   2.515   7.516 -0.1448  0.7760  1.7595
  100MOL0     H13786   3.463   2.394   7.774 -1.0969  0.6546  1.0226
  100MOL0     H13787   3.398   2.217   7.933  2.9899 -1.1773 -2.1311
  100MOL0     H13788   3.091   1.955   7.796  0.7591  2.6880 -1.1729
  100MOL0     H13789   3.086   1.888   7.971 -1.3159  2.0314  2.1608
  100MOL0     H13790   2.880   1.961   7.954 -0.2724  0.1110 -1.8445
  100MOL0     H13791   2.923   2.112   7.888  3.5532  3.9193  1.9766
  100MOL0     H13792   3.028   2.062   8.144 -0.0827 -0.3813 -0.2855
  100MOL0     H13793   3.018   2.209   8.052 -0.7075  1.6437  0.3160
  100MOL0     H13794   2.759   2.174   8.046  1.3982 -1.4890 -1.4743
  100MOL0     H13795   2.834   2.230   8.196  2.0241  2.0640 -1.3653
  100MOL0     H13796   2.695   1.846   8.311  0.4543  0.6195  2.0922
  100MOL0     H13797   3.036   2.158   7.734 -0.1970 -0.4382  0.1941
  100MOL0     H13798   2.955   2.310   7.597  3.1973  3.1460  5.7202
  100MOL0     H13799   3.047   2.414   7.487 -0.9030 -0.1934 -0.2065
  100MOL0     H13800   3.068   2.251   7.461  0.1733 -2.8685  1.6347
  101MOL0     O13801   4.308   7.605   6.234  0.4138 -0.0190 -0.1867
  101MOL0     C13802   4.185   7.627   6.238  0.4043  0.4120 -0.1268
  101MOL0     O13803   4.129   7.744   6.211  0.2367 -0.5727  0.7154
  101MOL0     C13804   4.208   7.850   6.174 -0.3864  0.1225 -0.5687
  101MOL0     C13805   4.162   7.940   6.075 -0.0236  1.2700  0.7752
  101MOL0     C13806   4.238   8.048   6.041 -0.1949 -0.5602 -0.1576
  101MOL0     C13807   4.362   8.079   6.104  0.8440  0.7478  0.2919
  101MOL0     O13808   4.439   8.181   6.052 -0.1434 -0.2504  0.2718
  101MOL0     C13809   4.505   8.144   5.930 -0.2054 -0.1497  0.3149
  101MOL0     C13810   4.651   8.195   5.947  0.7348  0.0672 -1.1798
  101MOL0     C13811   4.737   8.194   5.824  0.6695 -0.2349 -0.0276
  101MOL0     C13812   4.870   8.262   5.832 -0.2076 -0.1149 -0.3186
  101MOL0     C13813   4.933   8.291   5.692  0.3135 -0.8733  0.5088
  101MOL0     C13814   5.016   8.179   5.627  0.4426  1.6187 -0.5589
  101MOL0     C13815   5.087   8.227   5.511 -0.3466  1.0383  0.4351
  101MOL0     C13816   5.193   8.125   5.456  0.6228  0.6823  0.0619
  101MOL0     N13817   5.324   8.132   5.528  0.5983  0.2198  0.0763
  101MOL0     C13818   5.400   8.250   5.529 -0.0562  0.4277 -0.8118
  101MOL0     C13819   5.506   8.211   5.618  0.6967 -0.2558  0.0830
  101MOL0     C13820   5.618   8.297   5.655  0.6825  0.3466  0.1142
  101MOL0     C13821   5.744   8.276   5.564 -0.0204 -0.6114  0.0454
  101MOL0     C13822   5.811   8.141   5.565 -0.0123  0.0256 -0.2375
  101MOL0     C13823   5.957   8.145   5.510  0.2786  0.5900 -0.4007
  101MOL0     O13824   5.957   8.220   5.388 -0.6284  0.2755  0.6285
  101MOL0     C13825   6.085   8.249   5.331  0.2601 -0.3728 -0.0789
  101MOL0     C13826   6.077   8.323   5.212  0.6344  0.3288  0.5413
  101MOL0     C13827   6.200   8.363   5.153  0.1070 -0.0339  0.7170
  101MOL0     C13828   6.191   8.441   5.029  0.1311 -0.2135 -0.4247
  101MOL0     C13829   6.329   8.320   5.204  0.4589 -0.2748 -0.0565
  101MOL0     C13830   6.456   8.357   5.146  0.2378 -0.1609  0.9128
  101MOL0     O13831   6.573   8.335   5.222 -0.2160 -0.4224 -0.1000
  101MOL0     C13832   6.697   8.301   5.172  0.7419 -0.6133  0.0897
  101MOL0     C13833   6.721   8.251   5.046  0.0729  0.4675  0.6002
  101MOL0     C13834   6.854   8.212   5.007 -0.5885  0.4187 -1.1264
  101MOL0     C13835   6.963   8.237   5.093 -0.7410  0.2523  0.0804
  101MOL0     O13836   7.090   8.208   5.056  0.1324  0.3201  0.2091
  101MOL0     C13837   7.190   8.167   5.151 -0.1527 -0.2391 -0.7560
  101MOL0     C13838   7.285   8.073   5.073  0.7410 -0.4912 -0.4214
  101MOL0     C13839   7.419   8.053   5.144 -0.2445  0.1651 -0.1400
  101MOL0     C13840   7.534   8.009   5.055 -0.1698  0.1046 -0.2782
  101MOL0     C13841   7.672   7.979   5.115 -0.1532 -1.0293 -0.1081
  101MOL0     C13842   7.770   7.931   5.000 -0.8965  0.4347 -0.4319
  101MOL0     C13843   7.882   8.033   4.989 -0.4056  0.3166 -0.3528
  101MOL0     C13844   7.992   7.990   4.886  0.1916  0.2576  0.3325
  101MOL0    Cl13845   8.119   8.126   4.903  0.4070  0.2414  0.1243
  101MOL0     C13846   6.937   8.285   5.219 -0.2643  0.7028  0.3460
  101MOL0     C13847   6.806   8.311   5.261 -0.5210  0.8992  0.4994
  101MOL0     O13848   6.467   8.393   5.025 -0.0075 -0.1090  0.4475
  101MOL0     C13849   6.327   8.254   5.324 -0.5650 -0.1048  0.3261
  101MOL0     C13850   6.209   8.210   5.390 -0.6333 -0.2698  0.9727
  101MOL0     N13851   5.487   8.076   5.649  0.2314 -0.5229  0.1297
  101MOL0     N13852   5.380   8.028   5.596  0.1240  0.5873 -0.5113
  101MOL0     C13853   4.403   7.997   6.211 -0.4099 -1.2035  0.3419
  101MOL0     C13854   4.330   7.887   6.241  0.4233 -0.4014 -0.0657
  101MOL0     C13855   4.090   7.506   6.265  0.5014 -0.6195 -0.2976
  101MOL0     C13856   3.955   7.524   6.216 -0.7158  0.7711  0.4468
  101MOL0     C13857   3.857   7.425   6.232  0.1149 -0.2462  0.0268
  101MOL0     C13858   3.894   7.303   6.286  0.3926 -1.0212 -0.4218
  101MOL0     O13859   3.809   7.200   6.298  0.1395  0.5394 -0.3582
  101MOL0     C13860   3.758   7.194   6.432  0.3320  0.2631  0.5200
  101MOL0     C13861   3.606   7.172   6.434  0.7045 -0.1438 -0.0406
  101MOL0     C13862   3.556   7.019   6.416  0.1537 -0.2707  0.2128
  101MOL0     C13863   3.409   7.003   6.379  0.5882 -0.0687 -0.2584
  101MOL0     C13864   3.382   7.071   6.255 -0.1720  0.6019 -0.8492
  101MOL0     C13865   3.362   7.133   6.152 -0.3372 -0.8519  0.2940
  101MOL0     C13866   4.029   7.281   6.320  0.2258  0.0939  0.2367
  101MOL0     C13867   4.134   7.381   6.314  0.5728  0.2636  0.8980
  101MOL0     C13868   4.272   7.336   6.347 -0.2218  0.0626  1.0846
  101MOL0     H13869   4.073   7.904   6.023 -1.2081 -0.1538  3.5543
  101MOL0     H13870   4.201   8.119   5.968  2.8858  0.9280 -0.4313
  101MOL0     H13871   4.460   8.185   5.839  0.9173 -4.0259 -2.2425
  101MOL0     H13872   4.521   8.036   5.915  0.0362 -0.0496 -0.1518
  101MOL0     H13873   4.642   8.299   5.980  0.8876 -0.7001  1.4385
  101MOL0     H13874   4.698   8.140   6.028 -1.7862 -0.1592  0.2368
  101MOL0     H13875   4.754   8.094   5.781  0.9116 -0.0008 -0.4851
  101MOL0     H13876   4.673   8.251   5.757  0.9377  0.4482  0.2897
  101MOL0     H13877   4.849   8.358   5.879 -2.1647 -0.5948 -0.1344
  101MOL0     H13878   4.945   8.213   5.896  3.2574  2.3526 -2.1319
  101MOL0     H13879   4.991   8.384   5.691  1.6411 -1.6247  2.5927
  101MOL0     H13880   4.846   8.318   5.631  0.3139 -0.8208  0.5314
  101MOL0     H13881   5.086   8.149   5.705 -0.2787 -1.8091 -1.0979
  101MOL0     H13882   4.943   8.101   5.605 -1.4305  3.6464 -1.9899
  101MOL0     H13883   5.149   8.315   5.530  2.0342  0.0630 -2.1231
  101MOL0     H13884   5.020   8.248   5.427 -1.1226  0.3451  0.8668
  101MOL0     H13885   5.151   8.025   5.467  1.8195  0.0452 -0.8140
  101MOL0     H13886   5.215   8.141   5.349  2.0056  3.1165  0.6131
  101MOL0     H13887   5.392   8.345   5.476 -4.2270 -1.0698 -3.2847
  101MOL0     H13888   5.635   8.281   5.762 -0.2862 -2.2867 -0.0409
  101MOL0     H13889   5.588   8.402   5.649  3.0405  1.3830  3.3225
  101MOL0     H13890   5.719   8.308   5.462  0.1185  1.2185  0.5578
  101MOL0     H13891   5.822   8.348   5.593 -0.5307 -0.1689  0.3308
  101MOL0     H13892   5.809   8.110   5.670 -2.4208  1.1336  0.0981
  101MOL0     H13893   5.759   8.070   5.500 -0.1261 -1.0552  0.9787
  101MOL0     H13894   6.022   8.195   5.582 -1.6455  1.4525  0.8320
  101MOL0     H13895   5.997   8.044   5.494 -0.9363 -0.0742  0.5036
  101MOL0     H13896   5.981   8.352   5.172  0.2181 -0.8835  0.6347
  101MOL0     H13897   6.086   8.462   5.008  0.3522  0.7070 -0.6769
  101MOL0     H13898   6.236   8.403   4.937  1.4411  1.8829 -0.7225
  101MOL0     H13899   6.240   8.537   5.049  0.1918 -0.4027  0.3857
  101MOL0     H13900   6.636   8.237   4.980  0.1826  1.0353  0.3275
  101MOL0     H13901   6.865   8.154   4.916 -0.1705 -2.1845  0.4815
  101MOL0     H13902   7.254   8.249   5.185  1.2008 -0.9614 -1.4287
  101MOL0     H13903   7.134   8.130   5.238 -2.4029  1.2980 -1.4762
  101MOL0     H13904   7.228   7.980   5.071 -0.8812  0.4767 -1.1266
  101MOL0     H13905   7.299   8.116   4.973 -0.1295  0.8496  0.0084
  101MOL0     H13906   7.407   7.981   5.226 -2.0717  0.5448 -0.0420
  101MOL0     H13907   7.453   8.148   5.186  0.8849 -0.2386 -0.1147
  101MOL0     H13908   7.542   8.079   4.972  1.1802 -0.1996 -0.4317
  101MOL0     H13909   7.496   7.912   5.021 -0.8303 -0.6900  2.4583
  101MOL0     H13910   7.719   8.065   5.164  0.7826 -2.4382  1.5845
  101MOL0     H13911   7.672   7.897   5.187 -0.8702  0.4553  1.6397
  101MOL0     H13912   7.714   7.933   4.906  0.4514  0.7417 -1.2464
  101MOL0     H13913   7.807   7.829   5.011 -1.8956 -0.1344 -1.9266
  101MOL0     H13914   7.931   8.045   5.086 -2.6898  1.3646  0.7475
  101MOL0     H13915   7.834   8.126   4.957  1.8842  1.2368 -1.4061
  101MOL0     H13916   7.951   7.992   4.785 -1.5927  4.2537  0.9479
  101MOL0     H13917   8.015   7.887   4.915 -1.5502 -0.3648 -0.4049
  101MOL0     H13918   7.015   8.301   5.293 -1.2302 -0.3364  1.6507
  101MOL0     H13919   6.779   8.337   5.363 -1.6725 -3.6936  1.6037
  101MOL0     H13920   6.414   8.235   5.386 -3.3681 -0.8079  4.5269
  101MOL0     H13921   6.222   8.151   5.480  0.3623 -1.5996 -0.0059
  101MOL0     H13922   4.492   8.023   6.268 -0.1572  1.2898 -1.0704
  101MOL0     H13923   4.347   7.832   6.332  3.7930  0.5330  0.0129
  101MOL0     H13924   3.924   7.608   6.154 -0.1416 -1.4797 -3.1669
  101MOL0     H13925   3.753   7.445   6.206  0.3212  1.3926  0.3892
  101MOL0     H13926   3.781   7.100   6.484 -0.9167  0.2269  1.0529
  101MOL0     H13927   3.793   7.273   6.500 -1.4443  1.7795 -0.2348
  101MOL0     H13928   3.551   7.231   6.361 -0.5950 -0.3544  0.7383
  101MOL0     H13929   3.564   7.202   6.530 -1.4580  1.5598 -1.4157
  101MOL0     H13930   3.621   6.962   6.348  1.2589  0.3182  0.7385
  101MOL0     H13931   3.568   6.964   6.510 -1.5656  0.7206  1.0560
  101MOL0     H13932   3.356   7.065   6.451  0.8308  0.8113 -0.8222
  101MOL0     H13933   3.374   6.900   6.381 -1.5858  0.6436  1.4684
  101MOL0     H13934   3.346   7.190   6.062  1.3854 -0.4888  0.1912
  101MOL0     H13935   4.058   7.180   6.346 -1.4488 -0.3465  0.5069
  101MOL0     H13936   4.331   7.412   6.400 -2.8439  2.2539  1.1235
  101MOL0     H13937   4.266   7.246   6.410 -1.4540 -0.5279  0.1617
  101MOL0     H13938   4.322   7.304   6.256 -0.1684  2.5479  0.1512
  102MOL0     O13939  10.362   1.262   9.339  0.3672  0.2465 -0.4641
  102MOL0     C13940  10.353   1.140   9.331 -0.3119 -0.0663  0.1344
  102MOL0     O13941  10.455   1.050   9.349 -0.0503 -0.4356  0.4214
  102MOL0     C13942  10.554   1.081   9.442  1.1812  0.1500  0.2944
  102MOL0     C13943  10.524   1.122   9.576 -0.4510  0.0574  0.4571
  102MOL0     C13944  10.629   1.164   9.654  0.4202 -0.1973  0.2360
  102MOL0     C13945  10.760   1.161   9.611  0.0600  0.3435  0.4391
  102MOL0     O13946  10.849   1.184   9.705 -0.1076 -0.4651 -0.2846
  102MOL0     C13947  10.959   1.087   9.721  0.8196  0.1278 -0.3353
  102MOL0     C13948  11.065   1.149   9.813  0.5104 -0.0813  0.6554
  102MOL0     C13949  11.130   1.277   9.755  0.1974  0.6742  1.0472
  102MOL0     C13950  11.202   1.267   9.619  0.1538 -0.9529  0.8137
  102MOL0     C13951  11.228   1.402   9.559 -0.3704  0.6198 -0.0761
  102MOL0     C13952  11.315   1.490   9.635  0.2741 -0.0082 -0.5375
  102MOL0     C13953  11.303   1.634   9.583  0.2891 -0.4279  0.1529
  102MOL0     C13954  11.361   1.738   9.672 -0.7577 -0.6907  0.3045
  102MOL0     N13955  11.501   1.763   9.634  0.8573  0.7756  0.0674
  102MOL0     C13956  11.601   1.677   9.668 -0.7878 -0.2701 -0.2486
  102MOL0     C13957  11.703   1.707   9.583  0.7526  0.0975 -0.7970
  102MOL0     C13958  11.827   1.633   9.577  0.0267  0.3359 -0.0505
  102MOL0     C13959  11.904   1.636   9.435  0.1341  0.0339 -0.4492
  102MOL0     C13960  12.048   1.584   9.435  0.0417 -0.3890  0.8686
  102MOL0     C13961  12.162   1.658   9.504 -0.5425 -0.4879 -0.5991
  102MOL0     O13962  12.264   1.680   9.406 -0.6433 -0.8663 -0.2811
  102MOL0     C13963  12.395   1.631   9.422  0.1976 -0.4751  0.1668
  102MOL0     C13964  12.491   1.680   9.325  0.2318  0.0669  0.0559
  102MOL0     C13965  12.626   1.640   9.334  0.4498  0.0331 -0.1821
  102MOL0     C13966  12.721   1.673   9.221  0.1223 -0.4670  0.8531
  102MOL0     C13967  12.667   1.554   9.440 -0.4384  0.7871 -0.8325
  102MOL0     C13968  12.800   1.487   9.448 -0.8463  1.1379 -0.1187
  102MOL0     O13969  12.796   1.359   9.497 -0.4502  0.1105  0.4167
  102MOL0     C13970  12.905   1.272   9.495 -0.4855 -0.8193  0.2524
  102MOL0     C13971  12.879   1.131   9.485 -0.6060 -0.4140  0.4856
  102MOL0     C13972  12.992   1.037   9.497 -0.3987 -0.0605 -0.4680
  102MOL0     C13973  13.125   1.081   9.537  1.1672  0.9571  0.5059
  102MOL0     O13974  13.225   0.985   9.536 -0.0323  0.6291  0.1330
  102MOL0     C13975  13.358   1.031   9.560  0.0663 -0.9272 -0.1200
  102MOL0     C13976  13.449   0.914   9.542 -0.2925  0.2343  0.1498
  102MOL0     C13977  13.593   0.941   9.601  0.7995  0.0942 -0.2981
  102MOL0     C13978  13.695   0.838   9.582  0.1392 -0.2471  0.0841
  102MOL0     C13979  13.827   0.886   9.648 -0.5934 -0.1673  0.2705
  102MOL0     C13980  13.908   0.770   9.698  0.5084 -0.1489  0.0467
  102MOL0     C13981  13.948   0.664   9.592 -0.8085  1.2392  1.1497
  102MOL0     C13982  14.041   0.561   9.654 -0.8355  0.1050  0.0992
  102MOL0    Cl13983  14.195   0.641   9.693  0.3966  0.1022 -0.2837
  102MOL0     C13984  13.144   1.221   9.542  0.0992  0.5052 -0.9883
  102MOL0     C13985  13.039   1.314   9.527 -1.0707 -0.1514 -0.0147
  102MOL0     O13986  12.904   1.548   9.422 -0.4952 -0.4287  0.1193
  102MOL0     C13987  12.571   1.513   9.533  0.6399 -0.7831 -0.7142
  102MOL0     C13988  12.436   1.535   9.514 -0.0489 -0.5926 -0.1696
  102MOL0     N13989  11.665   1.816   9.506  0.1398  0.0433  0.1023
  102MOL0     N13990  11.545   1.834   9.533  0.8529 -0.0492  0.2246
  102MOL0     C13991  10.788   1.123   9.479  0.7284 -0.6188  1.1509
  102MOL0     C13992  10.681   1.077   9.391  0.2866 -0.6501  0.0412
  102MOL0     C13993  10.220   1.088   9.270 -0.6247  0.7055 -0.1322
  102MOL0     C13994  10.219   0.956   9.224 -0.0079  0.0454 -0.4000
  102MOL0     C13995  10.107   0.900   9.163  1.6492 -0.5242 -0.3296
  102MOL0     C13996   9.997   0.985   9.146  0.8508  0.4404 -0.4668
  102MOL0     O13997   9.886   0.931   9.085 -0.0853 -0.5503 -0.2678
  102MOL0     C13998   9.905   0.921   8.944 -0.1274  0.5356  1.1440
  102MOL0     C13999   9.859   1.043   8.869 -0.0890  0.0371  0.1817
  102MOL0     C14000   9.706   1.064   8.862  1.2519  0.5582  0.1514
  102MOL0     C14001   9.638   0.958   8.774  1.0191 -0.3347 -0.5435
  102MOL0     C14002   9.662   0.984   8.630 -0.2852 -0.4798  0.1360
  102MOL0     C14003   9.681   1.007   8.509 -0.4915  0.3081 -0.1666
  102MOL0     C14004   9.994   1.121   9.188 -0.0126  0.1543 -0.1920
  102MOL0     C14005  10.104   1.179   9.255  0.3174  1.2456  0.4686
  102MOL0     C14006  10.091   1.319   9.307 -0.2142  0.1640  0.3521
  102MOL0     H14007  10.424   1.131   9.616 -2.4841 -0.7800 -3.8844
  102MOL0     H14008  10.618   1.180   9.761  1.4861 -2.1419  0.6865
  102MOL0     H14009  11.005   1.065   9.625  1.9439  0.2321  0.1699
  102MOL0     H14010  10.919   0.994   9.761 -1.6601  1.5623  0.7709
  102MOL0     H14011  11.021   1.181   9.907  2.5341  4.0141  0.4906
  102MOL0     H14012  11.144   1.084   9.852 -0.0784  0.1414  2.2960
  102MOL0     H14013  11.054   1.356   9.752 -0.9686  0.0465 -6.9091
  102MOL0     H14014  11.200   1.304   9.834  2.5564  0.7693 -0.9751
  102MOL0     H14015  11.307   1.242   9.639  0.2925 -0.9275  0.1606
  102MOL0     H14016  11.159   1.194   9.550  3.9460 -2.6215 -0.0276
  102MOL0     H14017  11.138   1.457   9.529 -1.7350 -0.9306  1.0094
  102MOL0     H14018  11.269   1.384   9.459 -1.6952  1.0442 -0.7187
  102MOL0     H14019  11.283   1.489   9.739 -2.0297 -0.3045 -1.1904
  102MOL0     H14020  11.417   1.455   9.620  0.3221  1.0340 -3.1933
  102MOL0     H14021  11.197   1.656   9.565  0.8581  1.3528 -1.3253
  102MOL0     H14022  11.354   1.632   9.486 -0.6323  0.8449 -0.3898
  102MOL0     H14023  11.298   1.827   9.675  0.5199  0.2402  0.3312
  102MOL0     H14024  11.357   1.707   9.777 -0.9642 -0.2309  0.4334
  102MOL0     H14025  11.598   1.612   9.755 -1.6648  0.7969  0.5512
  102MOL0     H14026  11.813   1.529   9.606  0.0193  0.2580 -0.3273
  102MOL0     H14027  11.905   1.667   9.645  1.4356 -1.0446 -0.8906
  102MOL0     H14028  11.852   1.582   9.356  0.9048 -0.9906 -0.2804
  102MOL0     H14029  11.912   1.741   9.407  1.5615  0.4484  1.3573
  102MOL0     H14030  12.050   1.487   9.487  1.6985 -1.3455 -0.8383
  102MOL0     H14031  12.081   1.572   9.332  3.0208 -2.2517  1.9155
  102MOL0     H14032  12.124   1.754   9.538  1.6576  0.6536 -1.1736
  102MOL0     H14033  12.194   1.603   9.593  0.5457  2.1113  0.7252
  102MOL0     H14034  12.461   1.755   9.252 -1.2581  2.6185  3.0264
  102MOL0     H14035  12.677   1.746   9.153 -1.3292 -1.9350  0.1527
  102MOL0     H14036  12.726   1.577   9.168  1.0519 -0.7942  1.4848
  102MOL0     H14037  12.824   1.695   9.251  0.3200  0.1898 -0.2875
  102MOL0     H14038  12.782   1.094   9.453 -0.2621 -1.1323  0.2517
  102MOL0     H14039  12.972   0.930   9.489 -0.8841 -0.0395  0.2964
  102MOL0     H14040  13.385   1.110   9.491  0.8627 -2.4187 -1.5788
  102MOL0     H14041  13.358   1.078   9.659  0.3252 -1.1097 -0.0308
  102MOL0     H14042  13.405   0.831   9.598 -2.2194  0.8696 -0.3383
  102MOL0     H14043  13.460   0.883   9.438  1.0835 -1.6120  0.7936
  102MOL0     H14044  13.578   0.953   9.708 -0.1694  0.9192 -0.5093
  102MOL0     H14045  13.633   1.038   9.570  1.2124 -0.2483 -0.8690
  102MOL0     H14046  13.708   0.823   9.474 -0.8025 -1.1040  0.0753
  102MOL0     H14047  13.659   0.748   9.632  2.8464 -0.2717  2.2069
  102MOL0     H14048  13.892   0.934   9.575  1.1097 -3.6465 -0.7089
  102MOL0     H14049  13.812   0.959   9.729  0.0195  0.2730 -0.0096
  102MOL0     H14050  13.850   0.723   9.778  0.8273  3.2401  2.4499
  102MOL0     H14051  14.000   0.802   9.747 -1.2290  2.4649  1.8681
  102MOL0     H14052  13.998   0.716   9.510 -0.5285  0.4315  0.8018
  102MOL0     H14053  13.865   0.609   9.547 -0.7735  1.3201  0.9852
  102MOL0     H14054  14.059   0.476   9.587 -1.1924 -0.5808  0.8474
  102MOL0     H14055  13.987   0.510   9.734 -3.7253  2.5241 -0.1844
  102MOL0     H14056  13.241   1.268   9.534  1.4793 -1.6567  1.6629
  102MOL0     H14057  13.054   1.421   9.538 -0.2928 -0.2093 -0.4646
  102MOL0     H14058  12.598   1.443   9.612  2.1309  0.0633 -0.4507
  102MOL0     H14059  12.363   1.485   9.576 -0.0209  0.1432  0.4736
  102MOL0     H14060  10.887   1.139   9.437 -0.3574  0.2216 -1.2105
  102MOL0     H14061  10.705   1.046   9.290  1.3177  1.4793 -0.4274
  102MOL0     H14062  10.309   0.900   9.244  0.3171  0.9551  0.7753
  102MOL0     H14063  10.094   0.797   9.132  0.0254 -0.1566 -0.9692
  102MOL0     H14064  10.007   0.895   8.916 -0.1896  2.6736 -1.3967
  102MOL0     H14065   9.840   0.837   8.918  1.6037 -0.2586 -0.8737
  102MOL0     H14066   9.906   1.038   8.770  0.3845 -2.7089  0.4852
  102MOL0     H14067   9.901   1.136   8.908 -0.0617  1.3717 -2.7496
  102MOL0     H14068   9.680   1.056   8.968  2.5894 -1.0673  0.3910
  102MOL0     H14069   9.682   1.164   8.825 -0.0007  0.8369  1.6243
  102MOL0     H14070   9.530   0.958   8.789  1.2065  1.2267  1.3360
  102MOL0     H14071   9.677   0.862   8.809  0.8135  0.4392  2.0923
  102MOL0     H14072   9.691   1.023   8.404 -0.8566 -1.6454 -0.5389
  102MOL0     H14073   9.911   1.188   9.169 -0.0708  0.2282  0.3183
  102MOL0     H14074  10.005   1.363   9.255  0.8430  0.4135 -1.2438
  102MOL0     H14075  10.077   1.313   9.416  1.3337 -2.4221  0.4983
  102MOL0     H14076  10.178   1.383   9.295 -0.9807  1.1325 -0.1461
  103MOL0     O14077   2.952   7.825   5.871 -0.5757  0.8051  0.3548
  103MOL0     C14078   2.961   7.935   5.922 -0.4385 -0.3810 -0.1540
  103MOL0     O14079   2.858   8.027   5.938  0.1459  0.0574  0.2443
  103MOL0     C14080   2.723   7.994   5.928 -0.1291 -0.3856  0.8825
  103MOL0     C14081   2.664   7.896   5.843 -0.2190  0.9005  0.0582
  103MOL0     C14082   2.526   7.880   5.843  0.5585 -0.4332  0.4664
  103MOL0     C14083   2.442   7.974   5.917 -0.0408 -0.4577  0.7778
  103MOL0     O14084   2.309   7.951   5.901  0.7654 -0.0895 -0.0520
  103MOL0     C14085   2.219   8.008   5.995 -0.1321 -0.1934  0.5255
  103MOL0     C14086   2.094   7.926   5.997 -0.1161  0.0091 -0.2597
  103MOL0     C14087   1.993   7.982   6.085 -0.1803 -0.0596  0.0061
  103MOL0     C14088   1.854   7.910   6.068 -0.3141  0.0643 -1.1582
  103MOL0     C14089   1.756   7.946   6.187 -0.1814  0.0784 -0.4852
  103MOL0     C14090   1.799   7.895   6.328  0.7206 -0.7133  0.4994
  103MOL0     C14091   1.792   7.735   6.327 -0.0932 -0.5131 -0.1995
  103MOL0     C14092   1.821   7.677   6.466  1.4229 -0.0233 -0.5075
  103MOL0     N14093   1.958   7.689   6.515 -0.2890 -1.1593  0.5122
  103MOL0     C14094   2.071   7.627   6.465 -0.9672  1.0620 -0.7950
  103MOL0     C14095   2.176   7.660   6.542  0.2193  0.1175 -0.8168
  103MOL0     C14096   2.311   7.585   6.534 -0.2061 -0.4459 -0.3461
  103MOL0     C14097   2.415   7.678   6.473 -0.6292  0.2311 -0.6684
  103MOL0     C14098   2.459   7.797   6.564 -0.0807  0.0696  0.5128
  103MOL0     C14099   2.376   7.927   6.536  0.2304  0.0408  0.2795
  103MOL0     O14100   2.452   7.999   6.427 -1.0250  0.0012 -0.1102
  103MOL0     C14101   2.576   8.047   6.458 -0.6121  0.1633  0.2893
  103MOL0     C14102   2.681   8.035   6.369  0.0699  0.1695  0.3713
  103MOL0     C14103   2.809   8.083   6.385  0.0915  0.0398  0.1467
  103MOL0     C14104   2.902   8.062   6.277 -1.2091 -0.0109  0.0759
  103MOL0     C14105   2.847   8.130   6.512  0.8636  0.3499 -0.7698
  103MOL0     C14106   2.982   8.170   6.557 -0.4940  0.4200 -0.1208
  103MOL0     O14107   3.086   8.175   6.461  0.1441 -0.5337 -0.6231
  103MOL0     C14108   3.213   8.167   6.506 -0.5404  0.6244 -0.4185
  103MOL0     C14109   3.291   8.053   6.480 -0.0218 -0.5399 -0.0158
  103MOL0     C14110   3.420   8.041   6.527 -0.1323 -0.0375  0.0121
  103MOL0     C14111   3.481   8.148   6.592 -0.5228 -0.4619  0.0785
  103MOL0     O14112   3.608   8.122   6.631  0.9626  0.4452  0.2511
  103MOL0     C14113   3.690   8.233   6.593 -0.2136  0.1103 -1.1383
  103MOL0     C14114   3.831   8.197   6.642 -0.9040 -0.0431 -0.5251
  103MOL0     C14115   3.940   8.295   6.591  0.4960  0.2071  0.2893
  103MOL0     C14116   4.080   8.232   6.594  0.9865  0.6960  0.1554
  103MOL0     C14117   4.192   8.341   6.572  0.2246 -0.6770 -0.2933
  103MOL0     C14118   4.258   8.334   6.435 -0.5296 -0.0461 -0.0108
  103MOL0     C14119   4.382   8.417   6.434 -0.6777  0.1971 -0.0810
  103MOL0     C14120   4.454   8.394   6.298 -0.5032  0.5671 -0.2663
  103MOL0    Cl14121   4.616   8.461   6.302 -0.1024  0.2048 -0.3651
  103MOL0     C14122   3.394   8.259   6.629 -0.2616 -0.3833 -0.2801
  103MOL0     C14123   3.262   8.272   6.575 -0.6540  0.1442 -0.9935
  103MOL0     O14124   2.998   8.195   6.679 -0.3690 -0.0418 -0.4832
  103MOL0     C14125   2.743   8.143   6.612 -0.2831 -0.0686  0.3717
  103MOL0     C14126   2.611   8.109   6.578  0.4093  0.3427 -0.8896
  103MOL0     N14127   2.130   7.757   6.631 -0.3798 -0.5237 -0.0822
  103MOL0     N14128   2.004   7.778   6.611  0.5788 -0.0444  0.2467
  103MOL0     C14129   2.507   8.073   5.987  0.6061 -0.5989  0.5955
  103MOL0     C14130   2.644   8.076   6.003  0.5420 -0.2790  0.1739
  103MOL0     C14131   3.102   7.983   5.962  1.1245 -0.6076 -0.1856
  103MOL0     C14132   3.147   8.107   5.926  0.2206 -0.8249 -0.8648
  103MOL0     C14133   3.272   8.145   5.962  0.1007 -0.9713  0.0814
  103MOL0     C14134   3.354   8.068   6.035  0.2304 -0.0421 -0.8080
  103MOL0     O14135   3.472   8.124   6.067 -0.6165 -0.2415 -0.6431
  103MOL0     C14136   3.577   8.046   6.130 -0.2157  0.1912  0.1005
  103MOL0     C14137   3.651   7.956   6.019  0.4840 -0.8552  0.4630
  103MOL0     C14138   3.757   7.859   6.071  0.4673 -0.9009 -0.4695
  103MOL0     C14139   3.824   7.913   6.204 -0.2368 -0.2907 -0.0759
  103MOL0     C14140   3.895   8.044   6.211  0.7665 -0.2800  0.1843
  103MOL0     C14141   3.955   8.145   6.238  0.5011 -0.2061 -0.4327
  103MOL0     C14142   3.317   7.935   6.064  0.7172  0.6172  0.6766
  103MOL0     C14143   3.186   7.897   6.028 -0.0606 -0.1810  0.7284
  103MOL0     C14144   3.140   7.759   6.087  0.0547 -0.0697 -0.4966
  103MOL0     H14145   2.732   7.840   5.779  0.8360  1.3086  0.7895
  103MOL0     H14146   2.487   7.795   5.788 -0.5444  2.4878 -3.7929
  103MOL0     H14147   2.186   8.108   5.966 -1.0019 -0.1721  1.5079
  103MOL0     H14148   2.253   8.008   6.099 -1.8854 -2.5888  1.2035
  103MOL0     H14149   2.055   7.920   5.894 -0.1257  3.0498 -0.5062
  103MOL0     H14150   2.127   7.825   6.021 -1.4456 -0.6145 -0.9261
  103MOL0     H14151   2.038   7.968   6.184  0.8161 -0.3086 -0.4633
  103MOL0     H14152   1.987   8.090   6.069  3.2958  0.4938  1.5913
  103MOL0     H14153   1.800   7.936   5.976 -3.5834 -0.3584  0.4912
  103MOL0     H14154   1.871   7.802   6.065  0.6993  0.2297 -1.8333
  103MOL0     H14155   1.660   7.899   6.163 -0.7907  1.1395 -0.1836
  103MOL0     H14156   1.749   8.055   6.186 -3.5817 -0.0293 -0.2912
  103MOL0     H14157   1.895   7.944   6.345  0.4030  0.8996 -1.9490
  103MOL0     H14158   1.725   7.930   6.401 -1.1904 -1.3984 -0.9985
  103MOL0     H14159   1.871   7.693   6.264  0.2373 -1.5393  0.8602
  103MOL0     H14160   1.694   7.703   6.291 -0.4196 -0.4246  0.5866
  103MOL0     H14161   1.748   7.722   6.533  2.4354  0.6144  0.1976
  103MOL0     H14162   1.806   7.570   6.451 -1.0183  0.3150 -0.8781
  103MOL0     H14163   2.061   7.551   6.389 -0.8400  0.3220 -0.0833
  103MOL0     H14164   2.284   7.503   6.467 -1.5141 -0.5362  0.2529
  103MOL0     H14165   2.340   7.551   6.634 -1.9951 -0.1057  0.3260
  103MOL0     H14166   2.504   7.620   6.449  0.5649  1.5261  0.4605
  103MOL0     H14167   2.367   7.718   6.382 -2.1641 -0.1981 -0.0767
  103MOL0     H14168   2.443   7.770   6.669 -1.4464 -3.7941 -0.4969
  103MOL0     H14169   2.567   7.816   6.556  0.2604 -1.9711 -0.5409
  103MOL0     H14170   2.282   7.902   6.485  0.7903 -0.0065 -0.7693
  103MOL0     H14171   2.364   7.986   6.627 -3.3195  0.1891 -0.1493
  103MOL0     H14172   2.666   7.979   6.277 -1.9706  2.0040 -0.5160
  103MOL0     H14173   2.991   8.011   6.315  0.3464  0.2852 -2.8907
  103MOL0     H14174   2.933   8.162   6.245  2.9200 -1.6089 -1.5495
  103MOL0     H14175   2.855   8.013   6.191 -2.3854  1.7125 -0.3106
  103MOL0     H14176   3.248   7.979   6.414 -1.3330 -0.0315  0.2419
  103MOL0     H14177   3.483   7.953   6.513 -0.2236  0.1047 -1.4864
  103MOL0     H14178   3.696   8.225   6.484 -0.7838 -0.9722 -1.1102
  103MOL0     H14179   3.661   8.335   6.619 -0.4202 -0.3478  0.5815
  103MOL0     H14180   3.828   8.178   6.750  0.8606  0.3482 -0.3716
  103MOL0     H14181   3.849   8.097   6.600 -0.1959  0.2062 -0.8353
  103MOL0     H14182   3.943   8.390   6.646  1.9444  0.6763 -0.5431
  103MOL0     H14183   3.911   8.330   6.492 -0.3648 -0.7889  0.1714
  103MOL0     H14184   4.087   8.154   6.518 -0.6060  0.7263 -0.0664
  103MOL0     H14185   4.096   8.192   6.695  2.3159 -3.0294 -1.3652
  103MOL0     H14186   4.167   8.444   6.601  2.6773  0.0297 -0.4612
  103MOL0     H14187   4.270   8.326   6.648 -0.1976  0.9437  0.5064
  103MOL0     H14188   4.188   8.366   6.357  2.4473 -0.9690 -3.3843
  103MOL0     H14189   4.268   8.228   6.409  3.3549 -0.3682  1.9984
  103MOL0     H14190   4.452   8.380   6.510  0.0713  1.4861 -0.1125
  103MOL0     H14191   4.364   8.520   6.465  0.1320  0.3741 -0.1548
  103MOL0     H14192   4.395   8.449   6.224 -1.3091  0.9507  0.6304
  103MOL0     H14193   4.451   8.286   6.286 -0.8118  0.5664 -0.2073
  103MOL0     H14194   3.444   8.330   6.693  1.5391  0.0831 -2.0978
  103MOL0     H14195   3.202   8.360   6.595 -1.6303 -0.6937 -0.1989
  103MOL0     H14196   2.769   8.178   6.711  3.9387  2.0283 -1.2158
  103MOL0     H14197   2.528   8.123   6.647 -1.4003  0.1431 -2.9318
  103MOL0     H14198   2.447   8.143   6.043 -0.4552 -0.8963 -0.1284
  103MOL0     H14199   2.675   8.152   6.074 -0.7920  0.2951  0.1552
  103MOL0     H14200   3.074   8.175   5.882 -2.2977 -1.4182  2.0498
  103MOL0     H14201   3.314   8.238   5.924  0.9396 -2.3156 -2.5484
  103MOL0     H14202   3.644   8.120   6.174 -2.4399  2.7437 -0.5129
  103MOL0     H14203   3.536   7.990   6.214 -1.5988 -0.2576 -0.8418
  103MOL0     H14204   3.709   8.017   5.949  0.5594  0.1878  1.4088
  103MOL0     H14205   3.578   7.895   5.964 -0.1963  0.5698 -0.2867
  103MOL0     H14206   3.719   7.759   6.096  2.2075 -1.0870  1.7187
  103MOL0     H14207   3.838   7.845   5.999 -0.7579 -0.8025 -1.9310
  103MOL0     H14208   3.902   7.842   6.233  0.9365  1.7485  2.1687
  103MOL0     H14209   3.759   7.903   6.291 -1.3398 -1.7631 -1.0334
  103MOL0     H14210   4.001   8.237   6.270  0.4344 -0.8134  1.5462
  103MOL0     H14211   3.380   7.864   6.117  0.1694 -0.8847 -0.6149
  103MOL0     H14212   3.167   7.674   6.023  1.6436 -0.2698  0.3825
  103MOL0     H14213   3.176   7.730   6.186  0.4682  1.0353 -0.3096
  103MOL0     H14214   3.032   7.749   6.100  0.1320 -2.5378 -1.1381
  104MOL0     O14215   3.521   0.670   5.046 -0.5716  0.1077  0.6969
  104MOL0     C14216   3.458   0.716   4.951 -0.3284  0.6115 -0.0575
  104MOL0     O14217   3.512   0.746   4.830 -0.4091 -0.3340  0.0996
  104MOL0     C14218   3.648   0.752   4.809  0.2319 -0.4338  0.1340
  104MOL0     C14219   3.740   0.648   4.853 -0.4901  0.6334  0.9143
  104MOL0     C14220   3.875   0.663   4.821  0.6332  0.2416 -0.0109
  104MOL0     C14221   3.920   0.771   4.751 -1.0037  0.0574  0.5649
  104MOL0     O14222   4.056   0.794   4.728  0.6768  0.7887 -0.5425
  104MOL0     C14223   4.146   0.695   4.759 -0.1069  0.2052  0.2067
  104MOL0     C14224   4.290   0.750   4.728 -0.2856  0.2266  0.8636
  104MOL0     C14225   4.382   0.626   4.739  0.7270 -0.2662 -0.4833
  104MOL0     C14226   4.526   0.648   4.696 -0.8859 -0.4194 -0.5576
  104MOL0     C14227   4.611   0.518   4.696 -0.3869 -0.4585  0.1883
  104MOL0     C14228   4.729   0.519   4.599 -0.1795 -0.4221  0.0718
  104MOL0     C14229   4.785   0.374   4.580 -0.4180 -0.2860  0.3524
  104MOL0     C14230   4.916   0.364   4.501  0.5996 -0.0929  0.4271
  104MOL0     N14231   5.020   0.409   4.604 -0.0762  0.0235  0.5301
  104MOL0     C14232   5.079   0.327   4.698  0.1172  0.1304  0.2336
  104MOL0     C14233   5.172   0.413   4.760  0.4223 -0.3753  0.8377
  104MOL0     C14234   5.246   0.379   4.889 -0.2199 -0.3658  0.5349
  104MOL0     C14235   5.154   0.319   5.000 -0.7388 -0.6393  0.0481
  104MOL0     C14236   5.030   0.406   5.037 -0.4154  0.6162  0.1747
  104MOL0     C14237   4.955   0.343   5.146  0.6197  0.7534 -0.7242
  104MOL0     O14238   4.919   0.203   5.125  0.5099 -0.5682 -0.7578
  104MOL0     C14239   4.824   0.168   5.029  0.3321  0.0477  0.3464
  104MOL0     C14240   4.691   0.226   5.023 -0.3218  0.0519 -0.2324
  104MOL0     C14241   4.605   0.189   4.921 -0.2681 -1.0689 -0.1155
  104MOL0     C14242   4.470   0.266   4.928 -0.0511  0.3235 -0.1069
  104MOL0     C14243   4.638   0.092   4.824  0.1257  0.1793 -0.2270
  104MOL0     C14244   4.557   0.056   4.705 -0.0173 -0.6323  0.1867
  104MOL0     O14245   4.478   0.149   4.649  0.7860  0.4173 -0.4041
  104MOL0     C14246   4.413   0.108   4.530 -0.5247 -0.0467  0.2024
  104MOL0     C14247   4.481   0.046   4.423  0.0968  0.4528 -1.2677
  104MOL0     C14248   4.418   0.011   4.310  0.7890  0.2474  0.7958
  104MOL0     C14249   4.284   0.044   4.286  0.5008  0.4192  0.0071
  104MOL0     O14250   4.213   0.015   4.171  0.2394 -0.1039 -0.5935
  104MOL0     C14251   4.210   0.121   4.076 -0.9457 -0.3641  0.6038
  104MOL0     C14252   4.114   0.077   3.968  0.3705  0.0594  0.0005
  104MOL0     C14253   3.985   0.056   4.044  0.0967  0.1921 -0.8619
  104MOL0     C14254   3.871   0.002   3.952  0.4903 -0.4603 -0.4063
  104MOL0     C14255   3.743  -0.043   4.030 -0.0219  0.2215  0.6312
  104MOL0     C14256   3.623  -0.085   3.933  0.0038 -0.2107 -0.1716
  104MOL0     C14257   3.501  -0.102   4.022 -0.4709  0.5930 -0.4162
  104MOL0     C14258   3.398  -0.189   3.946  0.7451 -0.0454  0.0692
  104MOL0    Cl14259   3.267  -0.195   4.068 -0.4106  0.6965  0.6497
  104MOL0     C14260   4.216   0.107   4.387 -0.9399 -0.4018 -1.2000
  104MOL0     C14261   4.281   0.142   4.499 -0.2911  0.1330 -0.4278
  104MOL0     O14262   4.565  -0.068   4.676  0.0923 -0.1599 -0.1982
  104MOL0     C14263   4.770   0.026   4.837  0.3171 -0.9392  0.8897
  104MOL0     C14264   4.857   0.068   4.937  0.3709  0.2164 -0.4094
  104MOL0     N14265   5.167   0.537   4.702 -0.4638  0.7770 -0.1049
  104MOL0     N14266   5.071   0.532   4.616  0.3038 -0.5797 -0.1432
  104MOL0     C14267   3.834   0.869   4.708 -0.8447  0.2577 -0.2489
  104MOL0     C14268   3.701   0.861   4.731  0.5355  0.4457 -1.2620
  104MOL0     C14269   3.310   0.727   4.967 -0.0362 -0.2684 -0.6331
  104MOL0     C14270   3.249   0.663   5.077  0.9049  0.5851  0.7936
  104MOL0     C14271   3.115   0.687   5.112  0.0610  0.2177 -0.0335
  104MOL0     C14272   3.034   0.753   5.030 -0.6991 -0.2178 -0.3064
  104MOL0     O14273   2.911   0.763   5.081  0.3483  0.2421 -0.5364
  104MOL0     C14274   2.799   0.794   5.007 -0.7282 -0.4189 -0.1724
  104MOL0     C14275   2.751   0.941   5.042 -0.3104  0.2028  0.7439
  104MOL0     C14276   2.840   1.044   4.968 -0.1658  0.2242 -0.3142
  104MOL0     C14277   2.829   1.094   4.819  0.1625  0.8401 -0.5228
  104MOL0     C14278   2.694   1.131   4.763  0.1423 -0.0705 -0.8449
  104MOL0     C14279   2.591   1.167   4.716  0.7099  0.8668  0.1208
  104MOL0     C14280   3.084   0.805   4.908  0.6099 -0.0167  0.8114
  104MOL0     C14281   3.218   0.802   4.879  0.4936 -0.7453 -0.5198
  104MOL0     C14282   3.268   0.887   4.768  0.3401 -0.5584  0.0523
  104MOL0     H14283   3.701   0.559   4.902  0.7111  1.5767  3.7820
  104MOL0     H14284   3.943   0.583   4.848  1.0992 -0.3387 -2.6365
  104MOL0     H14285   4.118   0.606   4.701  0.4067 -0.5104  1.0325
  104MOL0     H14286   4.133   0.680   4.866  0.0467 -0.8405  0.0844
  104MOL0     H14287   4.293   0.796   4.629 -2.3641 -3.4100 -1.0750
  104MOL0     H14288   4.304   0.825   4.807 -0.2218  0.3057  0.7763
  104MOL0     H14289   4.380   0.584   4.840 -1.8640 -0.0115 -0.3643
  104MOL0     H14290   4.341   0.543   4.680  0.0822  0.2236 -0.7292
  104MOL0     H14291   4.516   0.692   4.596 -4.2035 -0.9368 -0.5539
  104MOL0     H14292   4.581   0.719   4.759  0.1099 -1.6488 -0.0008
  104MOL0     H14293   4.547   0.440   4.652 -2.8206  2.2250 -1.4087
  104MOL0     H14294   4.640   0.492   4.798 -1.3300  1.7081  1.0687
  104MOL0     H14295   4.704   0.565   4.502  2.2155  1.9778  0.4853
  104MOL0     H14296   4.815   0.569   4.642 -0.7829  2.2075 -1.5496
  104MOL0     H14297   4.713   0.311   4.527  2.6500 -3.2731 -0.5958
  104MOL0     H14298   4.790   0.322   4.676 -2.8420  0.3919  0.9283
  104MOL0     H14299   4.933   0.259   4.477 -1.3564 -0.8573  2.0846
  104MOL0     H14300   4.916   0.432   4.415  1.0020  1.9109  1.9297
  104MOL0     H14301   5.048   0.229   4.733 -0.1583 -0.0196 -0.3965
  104MOL0     H14302   5.298   0.464   4.935  3.4470 -1.8479 -0.5206
  104MOL0     H14303   5.332   0.313   4.879  0.0961  0.1837 -0.4403
  104MOL0     H14304   5.121   0.221   4.965 -0.1293 -0.4977 -0.9458
  104MOL0     H14305   5.213   0.307   5.092 -1.8083 -2.5856  0.5420
  104MOL0     H14306   5.069   0.502   5.074  1.6162 -0.6796  1.6607
  104MOL0     H14307   4.963   0.415   4.952  1.4317 -0.8929 -1.5362
  104MOL0     H14308   5.023   0.330   5.230 -0.6999 -0.7684  0.1733
  104MOL0     H14309   4.874   0.403   5.189 -0.0216 -0.0686 -0.7522
  104MOL0     H14310   4.654   0.294   5.099 -2.0228 -2.2136  1.1129
  104MOL0     H14311   4.471   0.359   4.871  2.3937 -0.3871 -1.3682
  104MOL0     H14312   4.465   0.296   5.033  1.3770  1.9126 -0.4530
  104MOL0     H14313   4.383   0.204   4.906  2.0447 -1.8762 -2.9924
  104MOL0     H14314   4.588   0.038   4.435 -0.2755 -0.7761  2.6549
  104MOL0     H14315   4.482  -0.041   4.239  1.8124 -0.4434  2.1629
  104MOL0     H14316   4.160   0.211   4.112 -2.3182 -1.0538  0.4864
  104MOL0     H14317   4.306   0.137   4.026 -1.3820  0.9535  0.1432
  104MOL0     H14318   4.103   0.157   3.894  0.3473  0.5316  0.5035
  104MOL0     H14319   4.145  -0.008   3.907  3.2851  0.6416  0.5118
  104MOL0     H14320   3.962   0.151   4.093  0.3564 -0.1956  0.0360
  104MOL0     H14321   3.992  -0.009   4.132 -2.4127 -1.1120 -1.5512
  104MOL0     H14322   3.899  -0.091   3.903 -2.0755 -1.1274 -0.7592
  104MOL0     H14323   3.845   0.082   3.882 -0.4423  0.2638  0.7323
  104MOL0     H14324   3.760  -0.132   4.091  0.3403 -0.1581 -0.0099
  104MOL0     H14325   3.711   0.041   4.092 -0.0036  0.5450  0.2096
  104MOL0     H14326   3.656  -0.170   3.871  0.7152  1.0393 -1.5778
  104MOL0     H14327   3.605  -0.001   3.866 -1.2172 -0.5225 -0.2518
  104MOL0     H14328   3.457  -0.006   4.050 -2.1577 -0.1763 -0.2654
  104MOL0     H14329   3.524  -0.151   4.117 -4.9422 -1.1656  0.0466
  104MOL0     H14330   3.433  -0.287   3.912 -1.8583 -0.8719 -0.5226
  104MOL0     H14331   3.369  -0.134   3.856 -0.7239  1.8121  1.5785
  104MOL0     H14332   4.111   0.131   4.377 -1.8462 -2.4545  2.0114
  104MOL0     H14333   4.230   0.196   4.578 -0.5544 -1.3289  0.4487
  104MOL0     H14334   4.797  -0.056   4.771 -0.0503  2.1512 -3.6007
  104MOL0     H14335   4.958   0.031   4.926  0.6205  1.0520 -1.0177
  104MOL0     H14336   3.865   0.957   4.653 -0.7060  0.8635  0.7853
  104MOL0     H14337   3.631   0.938   4.699 -0.7818 -1.6052 -3.6178
  104MOL0     H14338   3.300   0.593   5.142 -0.2224 -0.5933  0.4420
  104MOL0     H14339   3.084   0.630   5.199  1.1937 -1.7720 -0.8630
  104MOL0     H14340   2.806   0.776   4.900 -2.4248  1.4038 -0.6548
  104MOL0     H14341   2.720   0.725   5.038 -1.0040 -0.1179 -0.1960
  104MOL0     H14342   2.754   0.956   5.151  0.1092  2.2299  0.4869
  104MOL0     H14343   2.649   0.954   5.003  0.3192 -0.1203 -1.1063
  104MOL0     H14344   2.814   1.133   5.026  2.8823  0.6364  0.5916
  104MOL0     H14345   2.945   1.021   4.986 -0.2272 -1.1220 -1.5081
  104MOL0     H14346   2.873   1.017   4.754  0.6631 -2.0189  2.9023
  104MOL0     H14347   2.905   1.173   4.813  0.4691  0.4662 -2.1166
  104MOL0     H14348   2.496   1.180   4.669 -0.1143  1.9285  1.9652
  104MOL0     H14349   3.020   0.859   4.838  2.3185  1.8577  0.5999
  104MOL0     H14350   3.186   0.953   4.738 -0.4342 -0.7569  1.6267
  104MOL0     H14351   3.342   0.955   4.810  0.8718 -0.8085 -0.4490
  104MOL0     H14352   3.303   0.828   4.682 -0.5937 -4.3518  2.0470
  105MOL0     O14353   9.574   3.878   0.233  0.0019  0.2559 -0.5298
  105MOL0     C14354   9.506   3.774   0.240  0.2866 -0.7197  0.6321
  105MOL0     O14355   9.467   3.706   0.357 -0.0529 -0.1299  0.1732
  105MOL0     C14356   9.564   3.704   0.456  1.0735 -0.6520 -0.8249
  105MOL0     C14357   9.626   3.587   0.491 -0.0485  0.0932  0.3918
  105MOL0     C14358   9.720   3.588   0.593  0.2457  0.2729  1.0658
  105MOL0     C14359   9.752   3.704   0.661 -0.1594 -1.5288  0.1929
  105MOL0     O14360   9.820   3.701   0.778 -0.0267 -0.0020  0.1580
  105MOL0     C14361   9.926   3.798   0.787 -0.2095 -0.7896 -0.3596
  105MOL0     C14362  10.029   3.766   0.890 -0.2037  0.6435 -0.3900
  105MOL0     C14363  10.165   3.830   0.877 -0.0501 -0.1150 -0.2706
  105MOL0     C14364  10.254   3.803   1.007  0.0220 -0.0894 -0.3105
  105MOL0     C14365  10.397   3.841   0.977  0.5387 -0.0804  0.6728
  105MOL0     C14366  10.492   3.796   1.087  0.5254 -0.0536  0.2642
  105MOL0     C14367  10.630   3.774   1.027 -0.7083  0.1252 -0.0999
  105MOL0     C14368  10.711   3.748   1.150 -0.0250  0.7782 -0.1075
  105MOL0     N14369  10.839   3.680   1.103 -0.0642  0.4226  0.0062
  105MOL0     C14370  10.943   3.740   1.035  0.2702  0.8680  0.0586
  105MOL0     C14371  11.029   3.637   1.000  0.6051  0.0176  0.3467
  105MOL0     C14372  11.164   3.641   0.936 -0.0946  0.3259  0.9513
  105MOL0     C14373  11.271   3.609   1.037  0.4074  0.4254  0.6141
  105MOL0     C14374  11.403   3.563   0.985  0.4087  0.0859 -0.2613
  105MOL0     C14375  11.479   3.662   0.894 -0.3878 -0.3997 -0.2162
  105MOL0     O14376  11.491   3.797   0.949  0.0161  0.7133 -0.0990
  105MOL0     C14377  11.552   3.881   0.861 -0.4264  0.2181  0.0431
  105MOL0     C14378  11.482   3.999   0.819  0.0131  0.5386 -0.0220
  105MOL0     C14379  11.555   4.092   0.741 -0.2032  0.2601  1.1560
  105MOL0     C14380  11.479   4.224   0.721 -0.0826  0.1413 -0.1583
  105MOL0     C14381  11.682   4.062   0.678  0.3082 -0.2513 -0.9956
  105MOL0     C14382  11.747   4.144   0.574 -0.4875  0.7006  0.1379
  105MOL0     O14383  11.884   4.117   0.562 -0.0168  0.1024  0.3450
  105MOL0     C14384  11.962   4.203   0.476 -0.4405  0.4954 -0.0810
  105MOL0     C14385  12.030   4.311   0.528  0.8904  0.8558 -0.0105
  105MOL0     C14386  12.105   4.395   0.453 -0.0860 -0.8598 -0.4737
  105MOL0     C14387  12.110   4.361   0.318 -0.2468  0.2425 -0.2213
  105MOL0     O14388  12.179   4.437   0.227  0.4030  0.0488  0.3337
  105MOL0     C14389  12.242   4.557   0.275  0.4156 -0.4699  0.2051
  105MOL0     C14390  12.318   4.610   0.150  0.4285 -1.3791 -0.1505
  105MOL0     C14391  12.350   4.763   0.163 -0.3138 -0.5040  0.1750
  105MOL0     C14392  12.452   4.810   0.061 -0.2409 -0.1423  0.1010
  105MOL0     C14393  12.457   4.962   0.046 -0.3388  0.5393  0.2060
  105MOL0     C14394  12.343   5.027  -0.036 -0.4466 -0.5012  0.0935
  105MOL0     C14395  12.333   5.174  -0.015 -0.1425 -0.9630  0.1598
  105MOL0     C14396  12.220   5.235  -0.104  0.6024  0.1880 -0.1896
  105MOL0    Cl14397  12.055   5.219  -0.038  0.1058  0.4075 -0.1745
  105MOL0     C14398  12.050   4.249   0.265  0.9337  1.7630  0.9878
  105MOL0     C14399  11.970   4.160   0.344 -0.6479 -0.1437 -0.2880
  105MOL0     O14400  11.691   4.234   0.516 -0.7026 -0.3842  0.2906
  105MOL0     C14401  11.746   3.947   0.732 -0.0986 -0.4531 -0.0127
  105MOL0     C14402  11.687   3.860   0.823  0.3808 -0.2848 -0.2482
  105MOL0     N14403  10.978   3.522   1.057  0.0324 -0.2973  0.7045
  105MOL0     N14404  10.873   3.551   1.123 -0.3016  0.3578  0.0078
  105MOL0     C14405   9.700   3.831   0.617 -0.1224  0.5933  0.1061
  105MOL0     C14406   9.606   3.823   0.511 -0.2012 -0.7186 -0.2038
  105MOL0     C14407   9.427   3.725   0.121 -0.3860  0.0440  0.0640
  105MOL0     C14408   9.306   3.659   0.142  0.9494 -0.1325 -1.0026
  105MOL0     C14409   9.220   3.616   0.032  0.2551 -0.2691 -1.2117
  105MOL0     C14410   9.256   3.639  -0.100 -0.0712 -0.1286 -0.4166
  105MOL0     O14411   9.183   3.606  -0.208 -0.3834 -0.8116 -0.0712
  105MOL0     C14412   9.064   3.518  -0.208 -0.0563  0.1963  0.0613
  105MOL0     C14413   8.955   3.628  -0.203 -0.5394 -0.0892 -0.2982
  105MOL0     C14414   8.818   3.565  -0.223  0.6377 -0.8130 -0.0404
  105MOL0     C14415   8.710   3.648  -0.155 -0.8723  0.9197 -0.0981
  105MOL0     C14416   8.597   3.639  -0.238  0.5030  0.0803  0.8913
  105MOL0     C14417   8.504   3.633  -0.327  0.0931 -0.6486  0.1604
  105MOL0     C14418   9.369   3.718  -0.117 -0.3307 -0.8588  0.0196
  105MOL0     C14419   9.461   3.763  -0.014  0.3686 -0.2268 -0.2164
  105MOL0     C14420   9.581   3.845  -0.053 -0.7232 -1.4766 -0.7728
  105MOL0     H14421   9.591   3.493   0.451 -0.3699  0.6458 -0.6331
  105MOL0     H14422   9.763   3.497   0.634  1.6412  0.0039 -0.8627
  105MOL0     H14423   9.882   3.896   0.808  1.5705  0.2022 -0.9731
  105MOL0     H14424   9.978   3.802   0.690 -0.2888 -2.2798 -0.4773
  105MOL0     H14425   9.969   3.784   0.980 -3.1413 -2.1680 -1.5752
  105MOL0     H14426  10.050   3.659   0.883  2.7053  1.0477  0.9655
  105MOL0     H14427  10.218   3.790   0.790  0.8249  1.2063 -0.3684
  105MOL0     H14428  10.164   3.939   0.868  1.8327 -0.0637 -0.1365
  105MOL0     H14429  10.216   3.852   1.096  1.2126 -0.9878  0.7406
  105MOL0     H14430  10.255   3.694   1.018  0.6847 -0.1327 -0.7358
  105MOL0     H14431  10.393   3.951   0.975  0.6530 -0.0741 -1.4592
  105MOL0     H14432  10.423   3.790   0.884  0.1001 -0.4215  0.7340
  105MOL0     H14433  10.483   3.863   1.172 -2.2906  0.2860 -0.2148
  105MOL0     H14434  10.459   3.699   1.125 -3.1752  0.2921 -1.6336
  105MOL0     H14435  10.664   3.863   0.974  0.4089  0.3865  1.0233
  105MOL0     H14436  10.625   3.694   0.953 -3.7870 -0.8269  0.9511
  105MOL0     H14437  10.735   3.841   1.203 -0.7173 -0.9856  3.6187
  105MOL0     H14438  10.662   3.684   1.223  2.2868 -0.2681  0.6375
  105MOL0     H14439  10.948   3.846   1.009  0.2584  1.0311  0.6937
  105MOL0     H14440  11.190   3.738   0.893  0.1664  0.1036  0.6051
  105MOL0     H14441  11.151   3.558   0.865  0.7518  1.0030 -0.0246
  105MOL0     H14442  11.284   3.692   1.107 -0.6866 -0.3884  1.8274
  105MOL0     H14443  11.228   3.528   1.098 -0.2721  0.2522 -0.0826
  105MOL0     H14444  11.456   3.548   1.079 -1.1779  1.1344  0.8432
  105MOL0     H14445  11.392   3.470   0.928 -0.8220 -0.7488  1.2469
  105MOL0     H14446  11.573   3.620   0.857 -2.2663 -1.9166 -3.6884
  105MOL0     H14447  11.421   3.674   0.803 -1.7442  0.9704  0.7768
  105MOL0     H14448  11.388   4.028   0.865 -0.8604  0.0236 -1.4154
  105MOL0     H14449  11.384   4.202   0.670  0.4374 -4.8452  0.4645
  105MOL0     H14450  11.532   4.298   0.661  1.2254 -2.6397 -2.7539
  105MOL0     H14451  11.464   4.265   0.820 -5.0249 -1.7742  0.1666
  105MOL0     H14452  12.002   4.332   0.631 -0.6693  0.6891 -0.3751
  105MOL0     H14453  12.159   4.474   0.505  0.2063 -0.7462 -0.9501
  105MOL0     H14454  12.163   4.623   0.312 -1.5668 -2.2240 -0.6933
  105MOL0     H14455  12.312   4.544   0.359  1.1321 -1.9209 -0.5722
  105MOL0     H14456  12.409   4.553   0.129  1.7133  0.2715  0.7716
  105MOL0     H14457  12.262   4.602   0.056  0.8667 -1.0601 -0.4406
  105MOL0     H14458  12.396   4.789   0.258  0.2341  1.8324 -0.6636
  105MOL0     H14459  12.261   4.826   0.147  0.4256  0.3265 -0.8185
  105MOL0     H14460  12.441   4.759  -0.036 -0.5347  0.8724 -0.4124
  105MOL0     H14461  12.554   4.781   0.088  0.0338  1.4525  0.8908
  105MOL0     H14462  12.462   4.992   0.151  1.1771  1.1622 -0.0173
  105MOL0     H14463  12.544   4.992  -0.013 -0.7530 -0.4775 -0.9734
  105MOL0     H14464  12.256   4.971   0.001  0.5352 -2.9901 -1.1015
  105MOL0     H14465  12.353   5.019  -0.145 -0.2800  2.6982 -0.2162
  105MOL0     H14466  12.432   5.218  -0.032 -0.4089  1.0600  3.1971
  105MOL0     H14467  12.293   5.202   0.082 -0.2317  0.3059 -0.2225
  105MOL0     H14468  12.225   5.193  -0.205  2.8755 -0.0678 -0.0310
  105MOL0     H14469  12.239   5.341  -0.123  0.4565  1.2486  4.5455
  105MOL0     H14470  12.064   4.229   0.160 -0.2500  0.7773  0.9996
  105MOL0     H14471  11.913   4.076   0.307 -2.3479  1.3637 -1.2869
  105MOL0     H14472  11.846   3.920   0.699 -0.1359  0.6165 -1.0470
  105MOL0     H14473  11.749   3.777   0.855 -2.7697 -2.4948  0.5921
  105MOL0     H14474   9.724   3.928   0.659  4.5290 -0.4778  0.4384
  105MOL0     H14475   9.573   3.920   0.476  0.4109  0.8396  3.2121
  105MOL0     H14476   9.269   3.640   0.242 -0.4583  1.9025 -1.0753
  105MOL0     H14477   9.125   3.570   0.059 -0.5643  0.6692 -2.4007
  105MOL0     H14478   9.059   3.437  -0.282  2.3569  0.6650 -0.6911
  105MOL0     H14479   9.054   3.460  -0.115 -0.6479  1.3662  0.7482
  105MOL0     H14480   8.961   3.704  -0.282  0.2725 -0.4249 -0.5609
  105MOL0     H14481   8.950   3.686  -0.111 -0.5243  0.3393 -0.5623
  105MOL0     H14482   8.813   3.555  -0.332  2.4097 -1.7157 -0.0895
  105MOL0     H14483   8.825   3.462  -0.185 -1.1744 -2.0554 -2.7497
  105MOL0     H14484   8.729   3.756  -0.161 -0.4998  0.7856 -2.0055
  105MOL0     H14485   8.700   3.617  -0.050  0.9401 -1.1521 -0.4722
  105MOL0     H14486   8.429   3.640  -0.403 -0.9416 -1.4878  1.0763
  105MOL0     H14487   9.403   3.737  -0.219 -4.9118  3.4541 -1.1016
  105MOL0     H14488   9.664   3.799   0.002  0.3500 -0.8108 -1.7781
  105MOL0     H14489   9.617   3.848  -0.157 -0.1086  3.0631 -0.6090
  105MOL0     H14490   9.574   3.947  -0.014  1.4891 -1.4151 -0.4352
  106MOL0     O14491   8.873   8.834   7.444  0.9035 -0.5054 -0.0839
  106MOL0     C14492   8.863   8.922   7.526  0.0675 -0.1154 -0.5575
  106MOL0     O14493   8.964   8.994   7.569 -0.1139  0.3222  0.6863
  106MOL0     C14494   9.080   8.926   7.588  0.3849 -0.2313 -0.6275
  106MOL0     C14495   9.078   8.821   7.677  0.1339 -0.2961  0.0253
  106MOL0     C14496   9.198   8.752   7.699  0.3694  0.0740 -0.1050
  106MOL0     C14497   9.314   8.786   7.635  0.2557 -0.0615  0.2216
  106MOL0     O14498   9.429   8.708   7.662  0.2388 -0.0018  0.2368
  106MOL0     C14499   9.543   8.748   7.584  1.0460 -0.7902  0.2905
  106MOL0     C14500   9.656   8.652   7.622  0.2937  0.0030 -0.0106
  106MOL0     C14501   9.787   8.699   7.558  1.1335 -0.5074  0.6714
  106MOL0     C14502   9.910   8.603   7.588 -1.0652 -0.4325  0.0541
  106MOL0     C14503  10.026   8.654   7.498  1.1854  0.3593 -0.0967
  106MOL0     C14504  10.168   8.592   7.541 -0.1045 -0.0338  0.6956
  106MOL0     C14505  10.227   8.630   7.682  0.0453  0.4193  0.3962
  106MOL0     C14506  10.378   8.580   7.696 -0.5330  0.0951  0.6112
  106MOL0     N14507  10.435   8.589   7.837 -0.5358  0.3680  0.4759
  106MOL0     C14508  10.422   8.504   7.940  0.5368 -0.3715 -1.4622
  106MOL0     C14509  10.505   8.548   8.041 -0.1561  0.0254 -0.4930
  106MOL0     C14510  10.528   8.469   8.168 -0.2009  0.3168 -0.2750
  106MOL0     C14511  10.670   8.426   8.181 -0.5320 -0.7682  0.6234
  106MOL0     C14512  10.717   8.368   8.312 -0.2690  0.1105  0.2070
  106MOL0     C14513  10.647   8.239   8.342  0.0391  0.8715  0.0756
  106MOL0     O14514  10.691   8.186   8.467 -0.6083  0.0891  0.0203
  106MOL0     C14515  10.814   8.123   8.461  0.8099  0.9814 -0.3476
  106MOL0     C14516  10.843   8.003   8.383  0.6670  0.0752  0.9884
  106MOL0     C14517  10.972   7.942   8.385 -0.0406 -0.6099  0.7240
  106MOL0     C14518  10.997   7.826   8.297  0.9362 -0.2765  0.0244
  106MOL0     C14519  11.072   8.014   8.461 -0.1363 -0.7490 -0.1573
  106MOL0     C14520  11.215   7.975   8.462  0.0219 -0.8224  0.8006
  106MOL0     O14521  11.288   7.997   8.569  0.1761  0.2808 -0.6770
  106MOL0     C14522  11.421   8.007   8.553 -0.5432  0.3107 -0.3739
  106MOL0     C14523  11.490   8.114   8.509 -0.2667 -0.0055  0.1132
  106MOL0     C14524  11.632   8.105   8.469  0.1208 -0.7306 -0.3922
  106MOL0     C14525  11.700   7.982   8.469  0.1951  0.6092 -0.2671
  106MOL0     O14526  11.837   7.959   8.437 -0.5761 -0.0327 -0.7855
  106MOL0     C14527  11.923   8.068   8.386 -0.0443 -0.4197  0.1692
  106MOL0     C14528  12.061   8.009   8.358 -0.6443 -0.2087 -0.9466
  106MOL0     C14529  12.160   8.121   8.373 -0.3372  0.4475 -0.1644
  106MOL0     C14530  12.287   8.099   8.291  0.3665  0.7067  0.3892
  106MOL0     C14531  12.384   8.219   8.284 -0.5544 -0.6505 -0.4840
  106MOL0     C14532  12.517   8.167   8.226 -0.1966  0.1783  0.3768
  106MOL0     C14533  12.605   8.282   8.218  0.0641 -0.0408  0.1783
  106MOL0     C14534  12.611   8.345   8.073 -0.1610  0.4739 -0.0124
  106MOL0    Cl14535  12.738   8.467   8.033  0.1933 -0.4841 -0.2986
  106MOL0     C14536  11.633   7.875   8.528 -0.3764  0.9366  0.2482
  106MOL0     C14537  11.496   7.892   8.565 -0.2228  0.3422 -0.3067
  106MOL0     O14538  11.256   7.925   8.360 -0.4376 -0.0124  0.3661
  106MOL0     C14539  11.042   8.131   8.534  1.3561 -0.2091 -0.1794
  106MOL0     C14540  10.917   8.180   8.530  0.1154 -0.0809  0.1092
  106MOL0     N14541  10.569   8.653   7.993 -0.2944  0.3437 -0.8524
  106MOL0     N14542  10.528   8.679   7.872 -0.7066 -0.1503  0.0006
  106MOL0     C14543   9.300   8.881   7.537 -0.0966 -0.6093 -0.1859
  106MOL0     C14544   9.186   8.963   7.521  0.1124 -0.5407  0.2122
  106MOL0     C14545   8.725   8.974   7.560 -0.5063 -1.0602  0.2497
  106MOL0     C14546   8.724   9.101   7.628  0.4472  1.2895  0.4566
  106MOL0     C14547   8.603   9.163   7.662 -0.4646  0.2112 -0.0359
  106MOL0     C14548   8.493   9.092   7.641  0.0528 -1.3026  0.5446
  106MOL0     O14549   8.375   9.155   7.689  0.4083  0.0076  0.6879
  106MOL0     C14550   8.247   9.103   7.663 -0.1261 -0.0389 -0.8887
  106MOL0     C14551   8.223   9.002   7.780  0.3783 -0.0901  0.4648
  106MOL0     C14552   8.075   8.994   7.819  0.2647  0.3146  0.0771
  106MOL0     C14553   8.008   8.864   7.789 -0.7666  0.0979  0.2679
  106MOL0     C14554   7.965   8.861   7.644  0.6764  0.1813  0.0696
  106MOL0     C14555   7.921   8.863   7.530 -0.5754  0.0813  0.3232
  106MOL0     C14556   8.491   8.966   7.576 -0.1431 -0.4318 -0.5142
  106MOL0     C14557   8.603   8.904   7.529 -0.0897 -0.1085 -0.2239
  106MOL0     C14558   8.583   8.763   7.473  0.4372  1.0303  0.5012
  106MOL0     H14559   8.985   8.793   7.725 -0.7390 -1.3444 -2.1926
  106MOL0     H14560   9.193   8.664   7.762 -0.8408  0.0147 -0.2622
  106MOL0     H14561   9.587   8.844   7.614 -1.9837  1.6132 -2.2327
  106MOL0     H14562   9.527   8.756   7.476  3.0392  1.5661  0.0658
  106MOL0     H14563   9.671   8.649   7.731  0.6953  0.2233 -0.0575
  106MOL0     H14564   9.638   8.549   7.591  0.7834 -0.1157  0.0905
  106MOL0     H14565   9.771   8.712   7.450 -1.8816 -0.0755  1.0678
  106MOL0     H14566   9.815   8.797   7.598 -0.7349  0.2303  0.2922
  106MOL0     H14567   9.937   8.608   7.693 -0.4910  2.6725 -0.1398
  106MOL0     H14568   9.880   8.504   7.552 -0.5492 -1.7095  2.9236
  106MOL0     H14569  10.046   8.761   7.506  2.4303  0.2045 -0.9355
  106MOL0     H14570   9.994   8.648   7.394  1.3419  2.3999 -0.3052
  106MOL0     H14571  10.172   8.484   7.529 -2.1623  0.0342 -1.3885
  106MOL0     H14572  10.234   8.638   7.466 -1.4228  1.5487  0.4447
  106MOL0     H14573  10.173   8.579   7.763  1.9797  3.4758  3.9554
  106MOL0     H14574  10.211   8.736   7.702  0.9523  0.6754 -0.1718
  106MOL0     H14575  10.389   8.476   7.666  2.3589  0.2020  1.0123
  106MOL0     H14576  10.443   8.634   7.627  0.2074 -1.9236 -0.3491
  106MOL0     H14577  10.351   8.422   7.938 -0.0767  0.1415 -3.0375
  106MOL0     H14578  10.471   8.375   8.166  2.4595 -1.4428  0.6915
  106MOL0     H14579  10.496   8.520   8.260 -0.0316  0.2619 -0.1863
  106MOL0     H14580  10.696   8.359   8.100  1.2378 -0.9615  1.3107
  106MOL0     H14581  10.733   8.515   8.169  0.2005 -1.3680 -0.0123
  106MOL0     H14582  10.823   8.342   8.301 -0.0394  1.6668 -2.0146
  106MOL0     H14583  10.703   8.445   8.388 -1.5025  1.3324 -1.1973
  106MOL0     H14584  10.541   8.266   8.348  0.3089  1.9067  0.3457
  106MOL0     H14585  10.666   8.181   8.251 -0.8619  2.8734 -1.5022
  106MOL0     H14586  10.759   7.966   8.325  0.0159 -0.2200  2.1018
  106MOL0     H14587  11.063   7.847   8.212 -1.6424  1.3635 -1.7453
  106MOL0     H14588  10.906   7.785   8.251 -0.0783  1.2736  0.5716
  106MOL0     H14589  11.055   7.758   8.359  3.5368  1.3064 -0.5442
  106MOL0     H14590  11.439   8.209   8.499 -2.9154 -1.4391 -0.8595
  106MOL0     H14591  11.687   8.193   8.435  1.0251 -1.5977 -1.2355
  106MOL0     H14592  11.882   8.111   8.295 -1.1504  2.5344  1.9288
  106MOL0     H14593  11.933   8.147   8.461 -1.2453  0.2260 -0.3280
  106MOL0     H14594  12.085   7.930   8.430  0.5309 -0.7564 -1.8989
  106MOL0     H14595  12.051   7.963   8.259 -2.0444  0.7485 -1.2803
  106MOL0     H14596  12.181   8.146   8.477 -1.0202  0.0955  0.0647
  106MOL0     H14597  12.108   8.210   8.337 -2.2435  0.0683  1.4615
  106MOL0     H14598  12.258   8.062   8.192  1.6479 -1.6980  0.8386
  106MOL0     H14599  12.341   8.017   8.339  2.0461  0.6115 -1.5295
  106MOL0     H14600  12.329   8.290   8.221 -1.5701 -0.9752  0.0042
  106MOL0     H14601  12.405   8.246   8.388  0.1581 -0.7943 -0.5864
  106MOL0     H14602  12.506   8.112   8.132 -0.0189  0.2698  0.3036
  106MOL0     H14603  12.571   8.103   8.297  0.2062 -0.2703 -0.3194
  106MOL0     H14604  12.704   8.237   8.234 -0.8991 -2.1369  0.5682
  106MOL0     H14605  12.594   8.357   8.296  0.7046  0.7709 -0.4975
  106MOL0     H14606  12.515   8.396   8.062 -1.4795 -2.0916 -1.5725
  106MOL0     H14607  12.620   8.262   8.002  1.6504  1.5810 -1.1697
  106MOL0     H14608  11.697   7.791   8.552 -0.7482  0.4751 -0.3468
  106MOL0     H14609  11.445   7.810   8.613  0.3297  0.7378  1.0346
  106MOL0     H14610  11.109   8.185   8.600 -0.4067  2.7555 -0.6201
  106MOL0     H14611  10.887   8.275   8.573 -1.3401  0.7249 -2.4786
  106MOL0     H14612   9.380   8.900   7.467 -0.8231  0.7347 -0.6792
  106MOL0     H14613   9.176   9.047   7.453 -1.0702 -2.0763 -1.6261
  106MOL0     H14614   8.811   9.156   7.662  1.0925 -0.0769  1.1147
  106MOL0     H14615   8.612   9.259   7.711  1.5778 -0.0773  0.2266
  106MOL0     H14616   8.171   9.181   7.669 -2.7187 -2.4205 -0.4428
  106MOL0     H14617   8.228   9.065   7.562 -0.3887  0.0412 -0.8700
  106MOL0     H14618   8.275   9.034   7.870  1.2943  1.2847 -0.5137
  106MOL0     H14619   8.266   8.903   7.763  2.7808  1.1000 -0.7832
  106MOL0     H14620   8.066   9.010   7.927  1.7609 -0.5199  0.3474
  106MOL0     H14621   8.023   9.075   7.766  1.9120  0.3858 -1.5126
  106MOL0     H14622   7.913   8.863   7.843  0.3475  2.1444  2.4218
  106MOL0     H14623   8.062   8.776   7.825  0.1637  1.0008  1.1247
  106MOL0     H14624   7.871   8.865   7.435 -2.2062 -1.2699  1.1055
  106MOL0     H14625   8.395   8.917   7.560  0.2605 -0.6358 -2.7146
  106MOL0     H14626   8.478   8.742   7.451  0.8060 -0.3614 -0.0084
  106MOL0     H14627   8.630   8.749   7.376 -0.9221 -0.5175  0.0096
  106MOL0     H14628   8.622   8.685   7.539  0.5483 -0.6006 -1.3939
  107MOL0     O14629   6.015   1.829   6.516  0.0217 -0.1405 -0.3916
  107MOL0     C14630   5.949   1.929   6.473 -0.6118 -0.9149  0.4399
  107MOL0     O14631   6.003   2.039   6.405  0.0878  0.3202  0.0554
  107MOL0     C14632   6.139   2.065   6.421 -0.1476 -0.3249 -0.3572
  107MOL0     C14633   6.177   2.134   6.531  0.4760 -0.7733 -0.0148
  107MOL0     C14634   6.311   2.159   6.554  0.1379  0.7305 -0.1314
  107MOL0     C14635   6.402   2.111   6.465  0.0350 -0.4173 -0.7627
  107MOL0     O14636   6.535   2.128   6.487  0.4239 -0.6527  0.1745
  107MOL0     C14637   6.589   2.261   6.521 -0.1165 -0.0119 -0.5613
  107MOL0     C14638   6.617   2.348   6.402 -0.2836 -0.7625 -0.1615
  107MOL0     C14639   6.691   2.477   6.439 -0.3779  0.7003  0.4317
  107MOL0     C14640   6.745   2.548   6.321  0.6870 -0.9571  0.0716
  107MOL0     C14641   6.810   2.680   6.369 -1.2151 -0.9688 -0.0391
  107MOL0     C14642   6.841   2.766   6.251  0.3829  0.0327 -0.3933
  107MOL0     C14643   6.913   2.898   6.279 -0.2343  0.3758 -1.0807
  107MOL0     C14644   7.062   2.882   6.307 -0.2050 -0.0039 -0.0215
  107MOL0     N14645   7.159   2.911   6.202 -0.2072  0.1015 -0.0713
  107MOL0     C14646   7.182   3.029   6.130 -0.0037  0.1248  0.0283
  107MOL0     C14647   7.296   3.008   6.056  0.4410  0.1523  0.3614
  107MOL0     C14648   7.381   3.103   5.971 -0.0233 -0.7900 -0.2916
  107MOL0     C14649   7.309   3.172   5.863  1.4862 -0.0143  1.3716
  107MOL0     C14650   7.202   3.278   5.911 -0.5635  0.0868 -0.0478
  107MOL0     C14651   7.148   3.357   5.790 -0.0481 -0.2970  0.0008
  107MOL0     O14652   7.099   3.268   5.689 -0.1395  0.0224 -0.0195
  107MOL0     C14653   6.970   3.274   5.657  0.5295 -0.1936  0.5512
  107MOL0     C14654   6.907   3.157   5.606  0.5734  0.0863  0.1106
  107MOL0     C14655   6.772   3.160   5.583 -0.3656 -0.0082 -0.0176
  107MOL0     C14656   6.716   3.041   5.514 -0.3825  0.3580  0.8277
  107MOL0     C14657   6.695   3.275   5.614  0.8288 -0.0697  1.2182
  107MOL0     C14658   6.549   3.270   5.613 -0.3402  0.3025  0.0214
  107MOL0     O14659   6.483   3.397   5.599  0.1732 -0.2900 -0.9645
  107MOL0     C14660   6.348   3.405   5.621  0.2597  0.0745  1.1148
  107MOL0     C14661   6.258   3.407   5.519  0.2270  0.6311 -0.2700
  107MOL0     C14662   6.124   3.425   5.552  0.6757 -0.6389 -0.0965
  107MOL0     C14663   6.083   3.441   5.689  0.0567 -0.6402  0.2353
  107MOL0     O14664   5.950   3.450   5.708  0.5109  0.1176  0.2226
  107MOL0     C14665   5.899   3.429   5.845 -0.2916 -0.2102 -0.2955
  107MOL0     C14666   5.891   3.293   5.898 -0.3321  0.1912 -1.0134
  107MOL0     C14667   5.784   3.212   5.824  0.4239 -0.2613 -0.1801
  107MOL0     C14668   5.746   3.086   5.904  0.1256  0.0777  0.1618
  107MOL0     C14669   5.591   3.086   5.914 -0.3664  0.7019  0.7875
  107MOL0     C14670   5.525   3.054   5.778  0.2271 -0.1743  0.2756
  107MOL0     C14671   5.375   3.033   5.820  0.2913 -0.2276  0.1846
  107MOL0     C14672   5.289   2.984   5.700 -0.5672  0.4069  0.2352
  107MOL0    Cl14673   5.290   2.809   5.702 -0.1252  0.2395 -0.0278
  107MOL0     C14674   6.179   3.437   5.784  1.2626  0.1238  0.5287
  107MOL0     C14675   6.311   3.416   5.752  0.1077  0.0556 -0.4497
  107MOL0     O14676   6.494   3.163   5.628 -0.1580  0.6453 -0.7990
  107MOL0     C14677   6.751   3.391   5.653 -1.2115  0.0224 -0.6169
  107MOL0     C14678   6.891   3.385   5.675 -0.2617  0.7165  0.5103
  107MOL0     N14679   7.315   2.863   6.060  0.4803 -0.5153 -0.0196
  107MOL0     N14680   7.238   2.812   6.147 -0.2880  0.1033  0.2914
  107MOL0     C14681   6.362   2.045   6.348 -0.0417  1.2979  0.1268
  107MOL0     C14682   6.228   2.018   6.329 -0.1531 -0.0514 -0.7792
  107MOL0     C14683   5.796   1.910   6.473 -1.0864  0.4999 -0.9764
  107MOL0     C14684   5.747   1.777   6.453  0.2785 -0.6093  0.2923
  107MOL0     C14685   5.608   1.751   6.450 -0.5508 -0.0541  0.4666
  107MOL0     C14686   5.519   1.854   6.466 -0.5166  0.1639  0.1383
  107MOL0     O14687   5.387   1.835   6.463 -0.0794 -0.5546 -0.2473
  107MOL0     C14688   5.336   1.703   6.474 -0.6461  0.2706  0.2590
  107MOL0     C14689   5.194   1.690   6.535 -0.7963 -0.0553  0.0935
  107MOL0     C14690   5.088   1.746   6.436 -0.0473  0.0300 -0.0590
  107MOL0     C14691   4.946   1.744   6.486 -0.5561 -0.0467 -0.0587
  107MOL0     C14692   4.902   1.610   6.527 -0.6875  0.1175 -0.1014
  107MOL0     C14693   4.868   1.508   6.580  0.1061 -0.6524  0.0261
  107MOL0     C14694   5.566   1.985   6.472 -0.2970  0.6295 -0.2706
  107MOL0     C14695   5.704   2.011   6.474 -0.1291  0.1844 -0.5000
  107MOL0     C14696   5.734   2.154   6.487  0.2699  0.3790 -0.3277
  107MOL0     H14697   6.100   2.164   6.601  0.8709 -2.4775  1.1960
  107MOL0     H14698   6.346   2.206   6.645  2.0473  2.2522 -1.5638
  107MOL0     H14699   6.692   2.248   6.558 -0.7884  2.7783  2.8434
  107MOL0     H14700   6.541   2.317   6.602  1.4667 -1.8323  1.8055
  107MOL0     H14701   6.681   2.288   6.335 -0.5295 -1.0811 -0.1134
  107MOL0     H14702   6.529   2.380   6.345  0.9684  3.4596 -0.0938
  107MOL0     H14703   6.620   2.542   6.490 -2.5872 -1.2752  0.0587
  107MOL0     H14704   6.777   2.464   6.506 -0.1894  0.6994  0.1886
  107MOL0     H14705   6.828   2.484   6.290  0.8017 -1.0471  0.5662
  107MOL0     H14706   6.662   2.556   6.249 -1.1242  0.2318  2.1715
  107MOL0     H14707   6.895   2.661   6.436 -2.1891  1.4986  2.0993
  107MOL0     H14708   6.740   2.739   6.430  0.7314 -0.9305  2.3445
  107MOL0     H14709   6.890   2.704   6.175 -0.4179  0.4984 -1.3072
  107MOL0     H14710   6.741   2.796   6.219  0.8770  1.8057 -0.4054
  107MOL0     H14711   6.869   2.944   6.368 -0.4306  0.9235 -1.4585
  107MOL0     H14712   6.899   2.964   6.194 -1.2373  1.7738  0.1086
  107MOL0     H14713   7.107   2.934   6.392  0.2443 -0.6069  0.1149
  107MOL0     H14714   7.075   2.778   6.338 -2.0395 -0.2632 -0.0056
  107MOL0     H14715   7.125   3.119   6.150 -0.2721  0.5962 -2.5483
  107MOL0     H14716   7.456   3.033   5.932  0.7932 -0.1047 -0.0030
  107MOL0     H14717   7.426   3.179   6.036  2.7438 -0.1229 -2.7535
  107MOL0     H14718   7.370   3.225   5.789  0.2013 -1.1205 -0.5572
  107MOL0     H14719   7.255   3.092   5.811  0.7503  0.2580  1.7057
  107MOL0     H14720   7.126   3.230   5.974  0.7871 -1.8399  0.1998
  107MOL0     H14721   7.252   3.345   5.982 -0.0378 -1.9294  1.5968
  107MOL0     H14722   7.067   3.418   5.832 -2.1863 -1.9349 -1.5186
  107MOL0     H14723   7.233   3.415   5.753 -0.1447  0.2871  0.6603
  107MOL0     H14724   6.966   3.069   5.580  2.2340  1.2529 -0.2409
  107MOL0     H14725   6.687   2.960   5.583  4.4379 -2.3586  0.1276
  107MOL0     H14726   6.791   3.003   5.445 -2.2698 -1.7544 -0.1879
  107MOL0     H14727   6.634   3.061   5.445  1.7858  0.6320 -1.8302
  107MOL0     H14728   6.276   3.387   5.414 -0.2462  0.5237 -0.3346
  107MOL0     H14729   6.045   3.429   5.477  1.6906  0.6943 -1.1596
  107MOL0     H14730   5.962   3.491   5.909  1.5808 -2.2603 -0.0142
  107MOL0     H14731   5.803   3.480   5.851  0.7472  1.6894  1.8679
  107MOL0     H14732   5.991   3.249   5.898 -0.3451  0.1014  0.5389
  107MOL0     H14733   5.861   3.304   6.002 -0.4323 -1.6079 -0.8192
  107MOL0     H14734   5.829   3.170   5.734  2.1263  0.2023  0.4070
  107MOL0     H14735   5.699   3.274   5.796 -0.8972 -1.1465  1.6606
  107MOL0     H14736   5.779   3.097   6.008 -1.2327  0.2987  0.5831
  107MOL0     H14737   5.787   2.991   5.870  1.6642  0.7751 -0.0117
  107MOL0     H14738   5.577   2.999   5.980  2.0749 -0.6123 -0.3063
  107MOL0     H14739   5.542   3.177   5.950 -3.3927 -0.2631 -0.5627
  107MOL0     H14740   5.566   2.962   5.734 -2.0652 -0.7980 -0.7295
  107MOL0     H14741   5.519   3.133   5.703 -3.3311 -0.8478 -0.3418
  107MOL0     H14742   5.327   3.126   5.850 -2.4324 -0.7234 -2.2487
  107MOL0     H14743   5.365   2.953   5.895 -1.3787 -0.7692 -0.5631
  107MOL0     H14744   5.329   3.014   5.602  0.6742 -1.2561  0.1772
  107MOL0     H14745   5.185   3.014   5.714 -0.8851  0.5055 -1.9387
  107MOL0     H14746   6.165   3.467   5.887 -2.0303  1.2167 -0.1318
  107MOL0     H14747   6.384   3.413   5.831  1.0740 -1.0419 -1.3461
  107MOL0     H14748   6.706   3.487   5.676  0.1814  0.5497  0.0845
  107MOL0     H14749   6.934   3.474   5.720  2.9108 -1.1491  1.4357
  107MOL0     H14750   6.432   2.004   6.276 -0.9643  1.0274 -0.6402
  107MOL0     H14751   6.201   1.975   6.233 -0.2331  2.0000 -1.7431
  107MOL0     H14752   5.812   1.691   6.445  0.5019 -0.3245 -1.0877
  107MOL0     H14753   5.574   1.650   6.430 -0.3977 -0.3476  1.6259
  107MOL0     H14754   5.341   1.651   6.379  1.3496 -0.3887  0.6729
  107MOL0     H14755   5.400   1.646   6.542  2.2364  2.5207 -0.3399
  107MOL0     H14756   5.190   1.741   6.631  2.3616  5.4739 -2.2770
  107MOL0     H14757   5.176   1.584   6.560 -0.3860  0.2077  1.6202
  107MOL0     H14758   5.106   1.848   6.400 -3.7130 -0.2923 -3.4856
  107MOL0     H14759   5.095   1.695   6.340  0.6376  1.4312 -0.7873
  107MOL0     H14760   4.875   1.791   6.418 -0.8736  0.8929  0.9050
  107MOL0     H14761   4.936   1.814   6.569  1.2609  0.0414  0.1140
  107MOL0     H14762   4.831   1.412   6.606 -1.9950  0.0166 -0.3448
  107MOL0     H14763   5.494   2.066   6.480 -0.7426  0.2652 -0.5226
  107MOL0     H14764   5.652   2.193   6.548 -0.1317 -2.1730  0.8799
  107MOL0     H14765   5.830   2.178   6.533 -0.6808  1.3083  1.2701
  107MOL0     H14766   5.734   2.196   6.386 -0.0011  1.2064  0.0106
  108MOL0     O14767   5.674  10.834   6.250  0.1165 -0.3834 -0.2396
  108MOL0     C14768   5.639  10.875   6.142  0.7093  0.2157 -0.5511
  108MOL0     O14769   5.725  10.917   6.044  0.2329 -0.2722  1.3524
  108MOL0     C14770   5.847  10.963   6.093  0.1121 -0.2564 -0.9800
  108MOL0     C14771   5.959  10.900   6.064 -0.1571 -1.3359  0.0046
  108MOL0     C14772   6.088  10.946   6.113  0.6117 -1.2240  0.2965
  108MOL0     C14773   6.101  11.059   6.194  0.8635 -0.1144  0.4159
  108MOL0     O14774   6.220  11.081   6.246  0.7155 -0.6313 -0.3553
  108MOL0     C14775   6.232  11.133   6.381 -0.2016 -0.0639  0.5636
  108MOL0     C14776   6.231  11.030   6.489  0.3192 -0.1874  0.0104
  108MOL0     C14777   6.362  10.954   6.477  0.3139  0.8080  0.2673
  108MOL0     C14778   6.463  10.995   6.583  0.3172  0.6885  0.9069
  108MOL0     C14779   6.595  10.916   6.562 -1.1915 -0.0601 -0.3822
  108MOL0     C14780   6.683  10.923   6.689 -0.0296 -0.0143 -0.4270
  108MOL0     C14781   6.833  10.900   6.673  0.7080  0.1745 -1.1792
  108MOL0     C14782   6.909  10.883   6.801 -0.6254 -0.2484  0.7926
  108MOL0     N14783   7.051  10.847   6.763  0.1126  1.4668 -0.0503
  108MOL0     C14784   7.134  10.917   6.678 -0.4748 -0.0428 -0.3705
  108MOL0     C14785   7.240  10.831   6.653  0.0479 -1.3560  0.1532
  108MOL0     C14786   7.365  10.882   6.585  0.7311 -0.9554  0.4473
  108MOL0     C14787   7.491  10.796   6.616 -0.3476  0.0453  0.4449
  108MOL0     C14788   7.530  10.746   6.751 -0.8040 -0.4309 -0.4599
  108MOL0     C14789   7.665  10.675   6.754  0.7339  0.4850  0.4310
  108MOL0     O14790   7.687  10.591   6.642 -0.1594  0.9156  0.2573
  108MOL0     C14791   7.808  10.512   6.646  0.0535 -0.4287  0.4086
  108MOL0     C14792   7.843  10.426   6.538  0.2002 -0.4506 -0.6037
  108MOL0     C14793   7.953  10.342   6.545 -1.0302  0.6923 -0.7145
  108MOL0     C14794   7.973  10.252   6.432  0.4410  0.7140 -0.0698
  108MOL0     C14795   8.048  10.355   6.649 -0.4757 -0.1810 -1.0624
  108MOL0     C14796   8.182  10.282   6.656 -0.4368  0.5699  0.3033
  108MOL0     O14797   8.199  10.178   6.569 -0.0744 -0.0872  0.0401
  108MOL0     C14798   8.305  10.094   6.587  0.1831  0.4238  0.7452
  108MOL0     C14799   8.325  10.026   6.707  0.2334  1.2122 -0.3884
  108MOL0     C14800   8.435   9.951   6.731 -0.1200  0.5509  0.7916
  108MOL0     C14801   8.537   9.931   6.630 -0.1561  0.3620 -0.5654
  108MOL0     O14802   8.644   9.839   6.644 -0.2845 -0.4703 -0.0557
  108MOL0     C14803   8.775   9.897   6.670 -0.4937  0.1093 -1.1373
  108MOL0     C14804   8.796   9.950   6.812 -0.4918  0.5601 -0.5540
  108MOL0     C14805   8.917  10.022   6.844 -0.4611 -0.3139  0.3260
  108MOL0     C14806   9.044   9.943   6.817 -0.5931 -0.0825  0.5940
  108MOL0     C14807   9.177   9.995   6.884  0.9200 -0.5044  0.5048
  108MOL0     C14808   9.304   9.955   6.804  0.0586  0.4075  0.5917
  108MOL0     C14809   9.424  10.011   6.879 -0.3733 -0.0256 -0.0364
  108MOL0     C14810   9.567   9.976   6.823  0.7195  0.1232  0.8738
  108MOL0    Cl14811   9.590  10.076   6.674 -0.6293 -0.1505  0.4028
  108MOL0     C14812   8.506   9.989   6.505 -0.1972 -0.4834  0.4303
  108MOL0     C14813   8.400  10.075   6.483  0.1126  0.9633 -0.1441
  108MOL0     O14814   8.260  10.318   6.737 -0.6376 -0.0483  0.1385
  108MOL0     C14815   8.020  10.446   6.755 -0.2865 -0.2229  0.1318
  108MOL0     C14816   7.903  10.522   6.752 -0.0526  0.4389  1.3545
  108MOL0     N14817   7.220  10.711   6.720 -0.4130 -0.1899  0.7406
  108MOL0     N14818   7.105  10.723   6.781  0.0682 -0.3805 -0.6460
  108MOL0     C14819   5.977  11.132   6.217  0.8478 -0.2387  0.3516
  108MOL0     C14820   5.855  11.084   6.170  0.3202 -0.1499  0.0863
  108MOL0     C14821   5.497  10.842   6.109 -0.2535  0.4441  0.3275
  108MOL0     C14822   5.450  10.716   6.118  0.6443 -0.1176  0.0157
  108MOL0     C14823   5.318  10.671   6.090  0.0335  0.6059 -0.4531
  108MOL0     C14824   5.228  10.756   6.029 -0.0795 -0.5034  0.1457
  108MOL0     O14825   5.108  10.697   5.997  0.3473  0.4452  0.0996
  108MOL0     C14826   5.008  10.779   5.944 -0.3482 -0.0582 -0.2905
  108MOL0     C14827   4.874  10.697   5.946  0.4377 -0.1640  0.1493
  108MOL0     C14828   4.864  10.575   5.851 -0.0094 -0.7649 -0.6708
  108MOL0     C14829   4.911  10.602   5.702  0.5571 -0.2458  0.5914
  108MOL0     C14830   5.055  10.590   5.680 -0.5453  0.6077 -0.2062
  108MOL0     C14831   5.177  10.577   5.677 -0.2894  0.2369 -0.1822
  108MOL0     C14832   5.284  10.888   5.997  1.1730 -0.5406 -0.1240
  108MOL0     C14833   5.411  10.932   6.037 -0.8720  0.4211  0.0090
  108MOL0     C14834   5.463  11.072   5.977  0.0364 -0.3396  0.1097
  108MOL0     H14835   5.945  10.804   6.015  1.5779 -1.7533  0.2514
  108MOL0     H14836   6.182  10.891   6.111  0.3517 -1.6775 -1.3966
  108MOL0     H14837   6.150  11.202   6.401  0.7660  0.4120  3.3563
  108MOL0     H14838   6.326  11.189   6.387  0.6915 -0.9197 -3.1793
  108MOL0     H14839   6.229  11.079   6.586  2.8437 -1.8288  0.9889
  108MOL0     H14840   6.144  10.968   6.463 -1.3377  2.0799 -0.1257
  108MOL0     H14841   6.338  10.847   6.476  2.3185  0.2982 -1.2884
  108MOL0     H14842   6.403  10.967   6.376  0.0438  0.3830  0.0994
  108MOL0     H14843   6.483  11.102   6.581 -1.4966  1.0438  0.0754
  108MOL0     H14844   6.425  10.970   6.682  1.0375  0.5603  1.1532
  108MOL0     H14845   6.628  10.954   6.465 -1.6125  1.8688  0.1962
  108MOL0     H14846   6.575  10.810   6.546 -1.3136 -0.5058  2.2801
  108MOL0     H14847   6.673  11.023   6.733 -3.5206 -0.6983  0.7181
  108MOL0     H14848   6.645  10.855   6.766 -2.1536  1.0926 -0.4204
  108MOL0     H14849   6.869  10.987   6.617 -1.9218  0.9058 -1.8626
  108MOL0     H14850   6.840  10.800   6.630 -1.5012 -1.0879  1.1415
  108MOL0     H14851   6.918  10.980   6.851 -0.6062 -0.8410  1.9814
  108MOL0     H14852   6.860  10.811   6.868  0.3953 -0.8102  0.9620
  108MOL0     H14853   7.128  11.020   6.643  3.8684  0.9150  1.0513
  108MOL0     H14854   7.384  10.988   6.603  1.4121 -0.7765 -1.1545
  108MOL0     H14855   7.344  10.882   6.477  0.4809 -0.7834  0.4968
  108MOL0     H14856   7.485  10.708   6.551 -1.3515 -0.2300  0.8961
  108MOL0     H14857   7.579  10.855   6.588 -0.1045  0.4105  1.9171
  108MOL0     H14858   7.528  10.830   6.821 -3.6238  0.3139 -1.3031
  108MOL0     H14859   7.453  10.672   6.776 -1.7403 -0.5807 -3.3680
  108MOL0     H14860   7.748  10.745   6.743  2.4450 -1.4380  0.3935
  108MOL0     H14861   7.675  10.632   6.854 -0.8354  0.9939  0.8346
  108MOL0     H14862   7.770  10.428   6.457 -1.3572 -0.8557  0.7284
  108MOL0     H14863   7.908  10.289   6.351  0.4870  4.9235  1.5915
  108MOL0     H14864   7.964  10.147   6.462 -0.2057  1.2209  1.6081
  108MOL0     H14865   8.070  10.263   6.383  0.9525 -1.1191  0.4822
  108MOL0     H14866   8.249  10.051   6.780 -3.9631 -0.3473 -3.7871
  108MOL0     H14867   8.435   9.888   6.819  0.2097  0.4095  0.6923
  108MOL0     H14868   8.852   9.820   6.659 -1.0910 -0.4725 -1.2466
  108MOL0     H14869   8.791   9.973   6.593 -1.1945  1.7432  0.2529
  108MOL0     H14870   8.717  10.023   6.832  1.2828  2.2394  0.7037
  108MOL0     H14871   8.780   9.868   6.883 -1.4986  1.3530  0.1667
  108MOL0     H14872   8.919  10.045   6.951  1.6352 -1.3616  0.5743
  108MOL0     H14873   8.916  10.113   6.784 -3.1272 -0.1094  0.5639
  108MOL0     H14874   9.046   9.946   6.708 -1.5118  0.5114  0.5845
  108MOL0     H14875   9.037   9.838   6.848 -1.0231 -0.8344 -1.8396
  108MOL0     H14876   9.183  10.104   6.884 -1.3221 -0.3153 -0.5361
  108MOL0     H14877   9.173   9.964   6.988  1.4181  0.0075  0.6787
  108MOL0     H14878   9.313   9.996   6.703 -1.6889  0.5063  0.4570
  108MOL0     H14879   9.300   9.846   6.799  0.0677  0.3869  0.9879
  108MOL0     H14880   9.423   9.984   6.985 -1.3902 -3.1437 -0.7338
  108MOL0     H14881   9.410  10.119   6.876 -0.8898 -0.1110 -1.8246
  108MOL0     H14882   9.600   9.873   6.807  0.5507  0.1292  0.4795
  108MOL0     H14883   9.631  10.023   6.899 -1.1367 -1.3291  3.4739
  108MOL0     H14884   8.571   9.961   6.422 -1.9531  0.4743 -1.3648
  108MOL0     H14885   8.373  10.120   6.389 -0.2516 -1.4278 -1.2617
  108MOL0     H14886   8.097  10.465   6.829 -0.4204 -3.0127  1.0954
  108MOL0     H14887   7.883  10.606   6.817 -4.2362  0.1173  0.7632
  108MOL0     H14888   5.968  11.218   6.283 -1.9174 -0.9243  1.0125
  108MOL0     H14889   5.766  11.140   6.194  0.5443  0.0739  0.3921
  108MOL0     H14890   5.522  10.645   6.158  0.1885 -0.9813 -0.6647
  108MOL0     H14891   5.287  10.569   6.106  0.4772  0.7039  1.2463
  108MOL0     H14892   4.989  10.870   6.001 -2.2927 -1.6860  1.8700
  108MOL0     H14893   5.033  10.801   5.840  3.0085 -1.5316  0.0667
  108MOL0     H14894   4.789  10.756   5.910 -0.1295 -0.7059  0.5570
  108MOL0     H14895   4.860  10.659   6.048  0.9582 -2.0772 -0.4497
  108MOL0     H14896   4.929  10.503   5.902 -1.0036  0.6194  2.9125
  108MOL0     H14897   4.759  10.547   5.861 -0.7263  1.8910  0.1911
  108MOL0     H14898   4.883  10.701   5.667 -0.4194 -0.7442 -0.1041
  108MOL0     H14899   4.869  10.527   5.634 -1.8506  2.0975 -0.7153
  108MOL0     H14900   5.282  10.560   5.665 -0.3220  1.7384 -4.0746
  108MOL0     H14901   5.220  10.953   5.939  0.9878 -0.4771  0.1466
  108MOL0     H14902   5.374  11.128   5.946  0.0823 -0.3358 -0.0122
  108MOL0     H14903   5.527  11.127   6.046 -0.4066  0.4668 -0.1054
  108MOL0     H14904   5.517  11.044   5.886 -1.0004  0.4619 -0.7752
  109MOL0     O14905   1.298   0.221   3.460  0.2279 -0.1771  0.3231
  109MOL0     C14906   1.310   0.188   3.340  0.1182 -0.7179  0.1787
  109MOL0     O14907   1.421   0.165   3.275 -0.3906  0.2911 -0.3606
  109MOL0     C14908   1.546   0.156   3.331 -0.3633 -0.0583 -0.8745
  109MOL0     C14909   1.644   0.068   3.280 -0.6251  0.0030  0.0061
  109MOL0     C14910   1.777   0.065   3.324 -0.2129  0.3024 -0.7030
  109MOL0     C14911   1.806   0.135   3.442 -0.9175  0.5200  0.4449
  109MOL0     O14912   1.930   0.134   3.502 -0.1904  0.5228  0.4774
  109MOL0     C14913   2.049   0.146   3.416 -0.2873 -0.5860  0.4164
  109MOL0     C14914   2.069   0.295   3.390  0.3592 -1.3392 -0.0564
  109MOL0     C14915   2.115   0.365   3.517 -0.2860  0.8610 -0.1986
  109MOL0     C14916   2.144   0.511   3.504  0.3504 -0.0976  0.7282
  109MOL0     C14917   2.189   0.572   3.634  0.0069 -0.9535  0.6342
  109MOL0     C14918   2.223   0.726   3.623  0.8277  0.5932 -0.9503
  109MOL0     C14919   2.275   0.785   3.760  0.0876 -0.2849  0.4550
  109MOL0     C14920   2.295   0.935   3.737 -0.0311  0.3112 -0.3346
  109MOL0     N14921   2.396   0.969   3.639  0.1176 -0.2514  0.4583
  109MOL0     C14922   2.378   1.047   3.531  0.3136  0.4178  0.6358
  109MOL0     C14923   2.508   1.073   3.482  0.5593  0.3121  1.0315
  109MOL0     C14924   2.555   1.143   3.355 -0.0935  0.2638 -0.0392
  109MOL0     C14925   2.540   1.058   3.230  0.0905  0.4177  0.0042
  109MOL0     C14926   2.574   1.147   3.114  0.0690  0.4640  0.8669
  109MOL0     C14927   2.582   1.066   2.985 -0.4019  0.3203  0.0669
  109MOL0     O14928   2.683   0.967   2.984 -0.9574  0.1521 -0.4180
  109MOL0     C14929   2.796   1.011   2.917 -1.2420 -0.4041  0.3416
  109MOL0     C14930   2.885   0.914   2.894  0.3761  0.1452 -0.3663
  109MOL0     C14931   3.008   0.936   2.838 -0.6686 -0.8125  1.3255
  109MOL0     C14932   3.094   0.814   2.821  0.1680  0.3033 -0.2174
  109MOL0     C14933   3.052   1.069   2.797  0.1974  0.1604  0.5747
  109MOL0     C14934   3.190   1.100   2.744  0.5933  0.9834  0.5018
  109MOL0     O14935   3.250   1.207   2.795 -0.0387 -0.0618  0.3578
  109MOL0     C14936   3.365   1.248   2.743 -0.7636 -1.3543 -0.1547
  109MOL0     C14937   3.482   1.246   2.820 -0.1738 -0.5447  0.7463
  109MOL0     C14938   3.610   1.278   2.768 -0.9516 -0.3993  0.3583
  109MOL0     C14939   3.620   1.318   2.631  0.3900 -0.5450 -0.2702
  109MOL0     O14940   3.747   1.346   2.579 -0.4912 -0.3348 -0.0935
  109MOL0     C14941   3.765   1.467   2.509  0.7504 -0.1770  0.3303
  109MOL0     C14942   3.923   1.482   2.479  0.4864  0.1719  0.2189
  109MOL0     C14943   3.949   1.626   2.450  0.5247 -0.4585  1.1376
  109MOL0     C14944   4.099   1.645   2.438  0.6733  0.7675 -0.5992
  109MOL0     C14945   4.129   1.786   2.388 -0.5979 -1.2096  0.2852
  109MOL0     C14946   4.116   1.802   2.238 -0.0980 -0.3066  0.4663
  109MOL0     C14947   4.163   1.947   2.201  0.3826 -0.4087  0.8529
  109MOL0     C14948   4.096   1.997   2.075 -0.0260  0.0731  0.7447
  109MOL0    Cl14949   4.138   2.164   2.029 -0.0332 -0.4048 -0.2780
  109MOL0     C14950   3.499   1.325   2.563  0.2175  0.3553  0.7057
  109MOL0     C14951   3.379   1.304   2.615  0.5462 -0.1833 -0.3878
  109MOL0     O14952   3.245   1.018   2.668 -0.2017 -0.7504  0.2801
  109MOL0     C14953   2.962   1.173   2.834  0.9300  0.1852 -0.2974
  109MOL0     C14954   2.839   1.142   2.887  1.2191 -0.9404  0.0351
  109MOL0     N14955   2.597   0.992   3.560  0.1112  0.1307  0.3172
  109MOL0     N14956   2.530   0.946   3.656 -0.3208  0.1560  0.1490
  109MOL0     C14957   1.719   0.220   3.501  0.5328 -0.4278 -0.3831
  109MOL0     C14958   1.588   0.232   3.450  0.0392 -0.8605 -0.5215
  109MOL0     C14959   1.183   0.125   3.299 -0.0681  0.5594 -0.1635
  109MOL0     C14960   1.140   0.013   3.371  0.3507 -0.4008 -0.7133
  109MOL0     C14961   1.016  -0.046   3.337 -0.5570  0.6852 -0.0633
  109MOL0     C14962   0.944  -0.004   3.220  0.3266  0.0102 -0.4158
  109MOL0     O14963   0.824  -0.064   3.204 -0.5749 -0.1437  0.1587
  109MOL0     C14964   0.744  -0.035   3.088  0.2209  0.1141  0.4061
  109MOL0     C14965   0.608   0.003   3.128  0.0389 -0.1827  0.1272
  109MOL0     C14966   0.520  -0.121   3.156 -0.0975  1.0893 -0.2751
  109MOL0     C14967   0.394  -0.072   3.215  0.9535 -0.3783 -0.6728
  109MOL0     C14968   0.308  -0.191   3.228  0.0374  0.1609 -0.7983
  109MOL0     C14969   0.234  -0.288   3.217 -0.0545  0.6497  0.4475
  109MOL0     C14970   0.996   0.104   3.144 -0.6179  0.1190 -0.4235
  109MOL0     C14971   1.115   0.167   3.181  0.4126  0.3330  0.0776
  109MOL0     C14972   1.159   0.294   3.111 -0.2909  0.6291  0.3262
  109MOL0     H14973   1.609   0.003   3.199 -0.9299 -0.5982  0.6064
  109MOL0     H14974   1.840  -0.016   3.289 -1.1589 -1.3540  1.2547
  109MOL0     H14975   2.047   0.088   3.323  0.5886  1.8336 -1.2084
  109MOL0     H14976   2.139   0.111   3.467 -0.2921  1.1033  1.6932
  109MOL0     H14977   2.138   0.302   3.306 -0.1796 -2.9022 -0.6627
  109MOL0     H14978   1.975   0.341   3.360  1.0523  1.1692  1.3282
  109MOL0     H14979   2.044   0.350   3.598 -1.3914  2.0784 -0.8963
  109MOL0     H14980   2.207   0.314   3.548 -0.7339  0.2460  0.1389
  109MOL0     H14981   2.214   0.532   3.422 -1.1503 -0.9914 -0.8670
  109MOL0     H14982   2.061   0.575   3.471  0.5112 -0.1346  0.2312
  109MOL0     H14983   2.282   0.523   3.662  0.2425  0.6602  3.0071
  109MOL0     H14984   2.111   0.562   3.710  0.4214 -1.6420  0.9718
  109MOL0     H14985   2.308   0.746   3.557  1.9568  0.2035  0.3319
  109MOL0     H14986   2.133   0.779   3.590 -0.1817  0.0493  0.8141
  109MOL0     H14987   2.372   0.742   3.790  0.1522  0.6022  1.6208
  109MOL0     H14988   2.211   0.747   3.840  1.0105 -0.1095  1.3063
  109MOL0     H14989   2.198   0.979   3.715 -2.1017 -1.2078  4.4970
  109MOL0     H14990   2.327   0.970   3.836 -1.6299 -3.0341  1.5391
  109MOL0     H14991   2.282   1.077   3.492  0.5909  0.5851  0.0685
  109MOL0     H14992   2.663   1.152   3.369 -0.1216  1.0287 -0.2514
  109MOL0     H14993   2.502   1.237   3.339  0.4092  0.6721  0.6659
  109MOL0     H14994   2.587   0.959   3.237 -2.3219 -0.7095  2.2516
  109MOL0     H14995   2.434   1.032   3.217 -0.2458  2.0670 -0.7400
  109MOL0     H14996   2.485   1.209   3.100  0.1031 -0.0585 -2.7228
  109MOL0     H14997   2.669   1.198   3.131  2.6262 -3.3621 -0.5194
  109MOL0     H14998   2.483   1.018   2.981 -0.6658  0.7934  0.6788
  109MOL0     H14999   2.582   1.127   2.894 -0.9185  0.8884  0.4335
  109MOL0     H15000   2.845   0.817   2.924 -1.7514  1.0241 -0.1583
  109MOL0     H15001   3.200   0.838   2.833  0.3642 -0.5895 -0.0766
  109MOL0     H15002   3.089   0.770   2.721  1.9095 -1.5638  0.4490
  109MOL0     H15003   3.075   0.745   2.904  0.2850 -0.6773 -0.9963
  109MOL0     H15004   3.478   1.213   2.923  2.7351 -1.4062  0.6836
  109MOL0     H15005   3.704   1.271   2.821  0.6459  0.4098 -2.1551
  109MOL0     H15006   3.714   1.453   2.413  0.2339 -1.9145  0.8127
  109MOL0     H15007   3.727   1.549   2.570  1.7012  0.8695 -0.4550
  109MOL0     H15008   3.986   1.444   2.560  0.3531  1.8138  1.1580
  109MOL0     H15009   3.952   1.422   2.392 -4.0310  3.3222 -3.9854
  109MOL0     H15010   3.891   1.693   2.515 -4.2945 -0.1368 -2.8913
  109MOL0     H15011   3.897   1.635   2.355  3.1029 -0.8992 -0.4286
  109MOL0     H15012   4.135   1.570   2.368 -0.9892  0.9131 -1.6592
  109MOL0     H15013   4.140   1.634   2.539  0.4858  0.7226 -0.5260
  109MOL0     H15014   4.070   1.857   2.446  1.8426  1.3893 -0.1548
  109MOL0     H15015   4.232   1.812   2.417 -0.4215 -0.5670 -0.8538
  109MOL0     H15016   4.012   1.788   2.205 -0.5655  1.2374  1.1923
  109MOL0     H15017   4.172   1.717   2.197 -1.2361 -2.7583  3.5481
  109MOL0     H15018   4.272   1.947   2.187  0.5984 -0.3201  2.2999
  109MOL0     H15019   4.128   2.015   2.279 -1.1832  1.8684 -1.6908
  109MOL0     H15020   3.988   1.984   2.087 -0.2863  2.4481  1.3940
  109MOL0     H15021   4.129   1.933   1.993  0.2956  1.1544  0.0116
  109MOL0     H15022   3.510   1.347   2.457 -0.3852 -0.2665  0.5061
  109MOL0     H15023   3.294   1.312   2.548 -0.0181 -1.0225  0.1999
  109MOL0     H15024   2.993   1.277   2.826  0.7716  0.5377  2.6147
  109MOL0     H15025   2.771   1.227   2.890  0.4651 -1.5497  1.2638
  109MOL0     H15026   1.747   0.278   3.589  1.0375 -0.4589 -0.5195
  109MOL0     H15027   1.522   0.299   3.503  2.2085  0.8345  0.1821
  109MOL0     H15028   1.190  -0.013   3.464  0.8174  2.5648 -0.0309
  109MOL0     H15029   0.965  -0.119   3.398 -1.5312  0.4364 -1.1370
  109MOL0     H15030   0.778   0.050   3.027  0.8266  1.0735  2.0143
  109MOL0     H15031   0.743  -0.122   3.022 -0.8935 -0.6270  1.3630
  109MOL0     H15032   0.569   0.062   3.045  0.7310 -1.4332 -1.1462
  109MOL0     H15033   0.616   0.073   3.211  3.1659 -0.6827  0.3738
  109MOL0     H15034   0.494  -0.186   3.072 -2.6120 -2.2471  2.8020
  109MOL0     H15035   0.563  -0.192   3.226 -0.9061 -2.6996 -3.2935
  109MOL0     H15036   0.343  -0.007   3.143  0.6055  0.2126  0.0896
  109MOL0     H15037   0.416  -0.017   3.307  0.0690 -1.8625  0.4561
  109MOL0     H15038   0.182  -0.379   3.195  2.1436 -0.2698 -1.3611
  109MOL0     H15039   0.944   0.138   3.055  0.7592 -0.0480 -1.3384
  109MOL0     H15040   1.208   0.354   3.188  1.0675 -0.0791  0.0336
  109MOL0     H15041   1.229   0.265   3.032  0.6254  0.0394  1.3285
  109MOL0     H15042   1.079   0.358   3.071  0.1292  1.4764  0.8155
  110MOL0     O15043   1.813   5.716   1.312 -0.9274  0.1228 -0.8952
  110MOL0     C15044   1.705   5.742   1.361 -0.5256  0.7538  0.9790
  110MOL0     O15045   1.682   5.853   1.433  0.6010  0.2229 -0.6010
  110MOL0     C15046   1.793   5.930   1.474 -0.3876 -0.0675 -0.1720
  110MOL0     C15047   1.820   6.055   1.421 -0.4742  0.3282  0.2482
  110MOL0     C15048   1.921   6.136   1.481  0.0678  0.2848  0.6250
  110MOL0     C15049   2.012   6.073   1.564 -0.8368  0.1788  0.4352
  110MOL0     O15050   2.120   6.151   1.602 -0.2693 -0.2441 -0.2684
  110MOL0     C15051   2.210   6.122   1.713  0.2114  0.1648  0.8531
  110MOL0     C15052   2.283   6.247   1.749  0.0185  0.0402  1.5875
  110MOL0     C15053   2.336   6.219   1.891  0.1520  0.0114  0.7772
  110MOL0     C15054   2.446   6.308   1.913 -0.9066 -0.9466  0.9625
  110MOL0     C15055   2.513   6.277   2.052 -1.0216  0.1619  0.2579
  110MOL0     C15056   2.603   6.393   2.095 -0.2127 -0.2144 -0.4690
  110MOL0     C15057   2.618   6.391   2.250  0.7416  0.6314 -0.2259
  110MOL0     C15058   2.685   6.521   2.301 -0.2747 -0.3176  0.9596
  110MOL0     N15059   2.821   6.544   2.265 -0.3230 -0.2482 -0.0727
  110MOL0     C15060   2.865   6.603   2.149 -0.5314 -0.5778  0.5128
  110MOL0     C15061   2.997   6.629   2.168 -0.0590 -0.1710 -0.0265
  110MOL0     C15062   3.086   6.689   2.069 -0.1291 -0.6367  0.4547
  110MOL0     C15063   3.089   6.603   1.939  0.5403  0.0463 -0.2324
  110MOL0     C15064   3.191   6.637   1.833 -0.3362 -0.0429 -0.3461
  110MOL0     C15065   3.212   6.529   1.725  0.2273 -0.8593 -0.1893
  110MOL0     O15066   3.282   6.580   1.609  1.1059 -0.1381  0.5382
  110MOL0     C15067   3.415   6.615   1.615  0.1350 -0.1330  1.0869
  110MOL0     C15068   3.462   6.710   1.520 -0.2423  0.1446 -0.6071
  110MOL0     C15069   3.598   6.751   1.514 -0.9961 -0.5665 -0.1931
  110MOL0     C15070   3.633   6.862   1.407  0.1070  1.4140 -0.4885
  110MOL0     C15071   3.692   6.690   1.599 -0.4954  0.0050 -0.7426
  110MOL0     C15072   3.840   6.725   1.599 -0.2406  0.3479  0.7931
  110MOL0     O15073   3.896   6.696   1.719 -0.0520 -0.7903  0.9994
  110MOL0     C15074   4.021   6.742   1.732 -0.6651 -0.2324 -0.0692
  110MOL0     C15075   4.047   6.868   1.790  0.1699  0.1589  0.3216
  110MOL0     C15076   4.179   6.911   1.792  0.2544  0.0266 -0.2582
  110MOL0     C15077   4.289   6.839   1.751  0.0577  0.8586 -0.3690
  110MOL0     O15078   4.421   6.878   1.769 -0.2664  0.6998 -0.2634
  110MOL0     C15079   4.522   6.778   1.787 -0.1826  0.5494 -0.3756
  110MOL0     C15080   4.639   6.846   1.861 -0.3779 -0.1766  0.4302
  110MOL0     C15081   4.718   6.769   1.974  0.0898 -0.1549  0.2485
  110MOL0     C15082   4.869   6.798   1.958 -0.0827 -0.7432 -0.6257
  110MOL0     C15083   4.952   6.735   2.078 -0.6076  0.6652 -0.0025
  110MOL0     C15084   5.102   6.744   2.027  0.9992 -0.3232 -1.1199
  110MOL0     C15085   5.184   6.677   2.147 -0.2156 -0.1942 -0.2301
  110MOL0     C15086   5.329   6.676   2.106 -0.0008  0.3432  0.1343
  110MOL0    Cl15087   5.407   6.846   2.063  0.5552 -0.1058  0.2894
  110MOL0     C15088   4.260   6.709   1.696  0.6315 -0.6622 -0.1581
  110MOL0     C15089   4.127   6.663   1.690  0.6135  0.2464  1.0624
  110MOL0     O15090   3.896   6.768   1.499 -0.2108 -0.4202  0.4925
  110MOL0     C15091   3.640   6.590   1.689 -0.1713  0.2505  0.0971
  110MOL0     C15092   3.506   6.560   1.702 -0.3853 -0.8575  0.1455
  110MOL0     N15093   3.022   6.612   2.306 -0.2176  0.1194 -0.3670
  110MOL0     N15094   2.920   6.555   2.357  0.4996 -0.1934 -0.4846
  110MOL0     C15095   1.982   5.950   1.624 -0.3708  0.0236  0.4488
  110MOL0     C15096   1.869   5.884   1.585  0.2587 -0.2169 -0.1874
  110MOL0     C15097   1.596   5.650   1.326 -0.1478 -0.3405 -0.6673
  110MOL0     C15098   1.481   5.653   1.405  1.0323  0.7043 -0.2020
  110MOL0     C15099   1.377   5.556   1.402  0.9936  0.5658 -0.4879
  110MOL0     C15100   1.384   5.457   1.308  0.2774  0.6210 -0.4295
  110MOL0     O15101   1.299   5.352   1.301  0.0936 -0.0248 -0.1667
  110MOL0     C15102   1.171   5.379   1.361  0.0825 -0.4643 -0.2780
  110MOL0     C15103   1.091   5.252   1.346  0.8324  0.8602  0.0514
  110MOL0     C15104   1.115   5.153   1.463  0.4891 -0.1190  0.0542
  110MOL0     C15105   1.068   5.005   1.410  1.1269 -0.3755 -0.2537
  110MOL0     C15106   0.923   4.995   1.375 -0.0758 -0.1240 -0.5103
  110MOL0     C15107   0.805   4.992   1.336 -0.8311 -0.2963  0.2745
  110MOL0     C15108   1.495   5.452   1.224 -0.0823  0.4706 -0.5089
  110MOL0     C15109   1.601   5.544   1.226 -0.1951  0.5918 -0.4159
  110MOL0     C15110   1.707   5.527   1.116  0.3573  0.7692 -0.6282
  110MOL0     H15111   1.745   6.079   1.346 -0.2849 -0.1559 -0.1079
  110MOL0     H15112   1.947   6.235   1.444  1.6161  0.5628  2.2958
  110MOL0     H15113   2.269   6.040   1.672  0.0723  0.0165  0.9473
  110MOL0     H15114   2.151   6.085   1.797 -0.7716 -4.8236 -1.5894
  110MOL0     H15115   2.355   6.277   1.672 -2.0915  2.0147  0.2578
  110MOL0     H15116   2.207   6.326   1.745 -0.5148 -0.5264 -0.4405
  110MOL0     H15117   2.256   6.237   1.963 -1.5755  0.6701 -1.1985
  110MOL0     H15118   2.358   6.112   1.899 -0.4909 -0.0858  1.4033
  110MOL0     H15119   2.519   6.294   1.833  0.5675  0.5228  1.9717
  110MOL0     H15120   2.412   6.412   1.913  1.1890 -0.1008 -2.3119
  110MOL0     H15121   2.570   6.185   2.061 -2.3802 -0.5559  2.0072
  110MOL0     H15122   2.427   6.259   2.117 -0.9410 -0.2333  0.2545
  110MOL0     H15123   2.702   6.379   2.050 -1.0328  0.7459 -2.6721
  110MOL0     H15124   2.557   6.486   2.063 -1.5264 -1.4269 -2.2932
  110MOL0     H15125   2.695   6.319   2.279 -1.8328 -1.6525  1.3348
  110MOL0     H15126   2.526   6.363   2.302  1.4356 -2.6235 -0.5636
  110MOL0     H15127   2.630   6.609   2.268 -1.0640  0.1202  3.2661
  110MOL0     H15128   2.676   6.522   2.410 -1.0049 -1.2974  0.9238
  110MOL0     H15129   2.794   6.628   2.070  0.5145 -1.3394 -0.7115
  110MOL0     H15130   3.183   6.718   2.111 -1.6563  2.4947  2.1351
  110MOL0     H15131   3.028   6.779   2.049 -0.9292 -1.0770  0.7751
  110MOL0     H15132   3.115   6.502   1.971  0.2243 -0.0992 -0.4292
  110MOL0     H15133   2.990   6.587   1.896  0.5402 -0.8825  0.1004
  110MOL0     H15134   3.168   6.731   1.784  1.9330  0.9752  0.4441
  110MOL0     H15135   3.290   6.649   1.877 -0.6522 -0.1719  0.4315
  110MOL0     H15136   3.275   6.456   1.776 -0.9072 -0.8604  1.3073
  110MOL0     H15137   3.115   6.491   1.692  1.2025 -1.8698 -2.0279
  110MOL0     H15138   3.400   6.771   1.455  0.6672  2.4198  0.5688
  110MOL0     H15139   3.706   6.926   1.456  2.0348 -2.5217  2.2706
  110MOL0     H15140   3.545   6.919   1.375 -0.2756  0.9007 -0.3777
  110MOL0     H15141   3.684   6.809   1.326  2.6605 -1.4961  2.7250
  110MOL0     H15142   3.968   6.932   1.829 -0.5362 -1.4764  1.6964
  110MOL0     H15143   4.191   7.008   1.838 -2.5455  1.7673 -2.8544
  110MOL0     H15144   4.475   6.710   1.859  0.2343  0.7921  0.1265
  110MOL0     H15145   4.544   6.728   1.692 -2.6840  2.5485 -2.1527
  110MOL0     H15146   4.705   6.885   1.783 -0.2744 -0.2274  0.4931
  110MOL0     H15147   4.598   6.933   1.913  1.5681  0.8992  0.2938
  110MOL0     H15148   4.694   6.662   1.979 -1.2446  0.1806  1.7924
  110MOL0     H15149   4.680   6.803   2.070  2.4493  0.5588  0.9908
  110MOL0     H15150   4.887   6.905   1.966  0.9453 -0.9458 -0.1103
  110MOL0     H15151   4.911   6.771   1.861 -0.0937 -1.2086 -0.5074
  110MOL0     H15152   4.933   6.797   2.166 -0.9389 -1.0444  1.1646
  110MOL0     H15153   4.923   6.632   2.097  1.0007  0.4149  1.2552
  110MOL0     H15154   5.126   6.850   2.018 -0.9887  0.4098  1.3160
  110MOL0     H15155   5.127   6.689   1.935  2.5755 -2.4846  0.5111
  110MOL0     H15156   5.150   6.573   2.153  1.3498 -0.7000  0.2288
  110MOL0     H15157   5.184   6.732   2.241  0.0962  0.0230 -0.3570
  110MOL0     H15158   5.336   6.618   2.014 -0.6415 -0.8753  0.8222
  110MOL0     H15159   5.393   6.632   2.183  0.7929  1.4442  0.1332
  110MOL0     H15160   4.340   6.651   1.651  0.6896 -0.3885 -0.4145
  110MOL0     H15161   4.103   6.569   1.642  1.7027 -0.0845  1.1415
  110MOL0     H15162   3.710   6.537   1.753  1.0676 -2.7389 -3.4176
  110MOL0     H15163   3.486   6.486   1.780  0.4041  0.9824  2.2053
  110MOL0     H15164   2.043   5.897   1.696 -0.6811 -1.6117 -0.4491
  110MOL0     H15165   1.844   5.788   1.630  0.9790 -1.0346 -1.4453
  110MOL0     H15166   1.470   5.723   1.487 -2.3895  0.3160 -0.1953
  110MOL0     H15167   1.307   5.558   1.484  1.9950  3.3913  0.4132
  110MOL0     H15168   1.177   5.409   1.466  2.5176 -0.9838 -0.2019
  110MOL0     H15169   1.120   5.464   1.314 -1.0760 -1.4646 -0.8690
  110MOL0     H15170   1.119   5.211   1.248 -1.3298  3.7351 -1.9392
  110MOL0     H15171   0.982   5.265   1.342  0.4327 -1.0254  2.3569
  110MOL0     H15172   1.221   5.146   1.484  0.4713 -1.2946 -0.1643
  110MOL0     H15173   1.057   5.186   1.550  0.9854  1.4339 -0.1840
  110MOL0     H15174   1.080   4.925   1.484  1.9223  0.1773  0.2381
  110MOL0     H15175   1.128   4.982   1.322  0.2169 -0.4706 -0.8601
  110MOL0     H15176   0.707   4.985   1.293 -0.0514 -3.1373 -1.3163
  110MOL0     H15177   1.501   5.366   1.158  0.5529  0.4802 -0.4672
  110MOL0     H15178   1.712   5.618   1.056  0.6075  3.3796  2.9867
  110MOL0     H15179   1.810   5.511   1.151  1.4663  4.9923 -1.4218
  110MOL0     H15180   1.686   5.444   1.048  0.3962  1.9527 -2.1312
  111MOL0     O15181   9.044   4.998   8.132  0.2476 -0.1514  0.2839
  111MOL0     C15182   9.010   4.981   8.017 -0.0217  0.0112  0.6397
  111MOL0     O15183   8.947   5.070   7.938  0.3057  0.1445 -0.4158
  111MOL0     C15184   8.946   5.200   7.956  0.5549 -0.1737 -0.2832
  111MOL0     C15185   9.057   5.275   8.005 -0.2815 -0.1486 -0.1394
  111MOL0     C15186   9.052   5.417   8.006 -0.0330 -0.3641 -0.5880
  111MOL0     C15187   8.940   5.487   7.938  0.1269  0.6895  0.8123
  111MOL0     O15188   8.919   5.615   7.920 -0.2872 -0.4970 -0.1058
  111MOL0     C15189   9.028   5.698   7.960 -0.2223  0.2874  0.9868
  111MOL0     C15190   8.997   5.848   7.923  0.0238 -0.1825  0.5448
  111MOL0     C15191   8.890   5.900   8.019  0.4772  0.1341 -0.2484
  111MOL0     C15192   8.847   6.038   7.969  0.5745  0.5827  0.4963
  111MOL0     C15193   8.752   6.104   8.065  0.6859 -0.7743 -0.2268
  111MOL0     C15194   8.708   6.239   8.012 -0.3605 -0.7795 -0.1766
  111MOL0     C15195   8.663   6.334   8.128  0.2011 -0.1306  0.4731
  111MOL0     C15196   8.539   6.283   8.192  0.0964  0.0867 -0.7950
  111MOL0     N15197   8.508   6.372   8.303 -0.0645 -0.3806 -0.4075
  111MOL0     C15198   8.477   6.506   8.293 -0.1115  0.0670  0.7833
  111MOL0     C15199   8.451   6.536   8.418  0.0280 -0.5374  0.0741
  111MOL0     C15200   8.418   6.679   8.464  0.2823  0.6317  0.6487
  111MOL0     C15201   8.535   6.751   8.516  0.0762  0.2314  0.7499
  111MOL0     C15202   8.648   6.770   8.406 -0.3218  0.2106  0.4676
  111MOL0     C15203   8.751   6.878   8.429 -0.8772 -0.9136 -0.3329
  111MOL0     O15204   8.827   6.913   8.309 -0.8473  0.2142  0.1028
  111MOL0     C15205   8.963   6.887   8.325 -0.3494 -0.6969 -0.1004
  111MOL0     C15206   9.015   6.787   8.243 -0.9822 -0.0168  0.5178
  111MOL0     C15207   9.150   6.752   8.248  0.2644 -0.0722 -0.2006
  111MOL0     C15208   9.203   6.677   8.134  0.3010  0.0129  0.2984
  111MOL0     C15209   9.236   6.810   8.347 -0.2412 -0.4870  0.1156
  111MOL0     C15210   9.385   6.778   8.361  0.3561  0.5126 -0.6691
  111MOL0     O15211   9.430   6.671   8.292 -0.1235  0.5660 -0.3173
  111MOL0     C15212   9.552   6.618   8.339 -1.2803 -0.2555 -0.7433
  111MOL0     C15213   9.559   6.581   8.475 -0.2343 -0.0034  0.2264
  111MOL0     C15214   9.687   6.565   8.540 -0.0793  0.4329  0.1456
  111MOL0     C15215   9.804   6.553   8.464 -0.6236 -0.9399  0.9560
  111MOL0     O15216   9.932   6.512   8.500 -0.1776  0.2018  0.9473
  111MOL0     C15217   9.953   6.423   8.606  0.1909  0.5103  0.5370
  111MOL0     C15218  10.084   6.364   8.578  0.1623 -0.1013  0.3203
  111MOL0     C15219  10.126   6.247   8.661  0.1493  0.1301 -0.3378
  111MOL0     C15220  10.279   6.217   8.660 -0.1218  0.0268  0.0323
  111MOL0     C15221  10.332   6.110   8.761 -0.0339 -0.1779 -0.3772
  111MOL0     C15222  10.485   6.079   8.739 -0.0523 -0.8184 -0.2744
  111MOL0     C15223  10.570   6.184   8.809 -0.0638 -0.5422 -0.6580
  111MOL0     C15224  10.716   6.151   8.817 -0.3664 -0.0947  0.1825
  111MOL0    Cl15225  10.781   6.078   8.657 -0.0368 -0.0052  0.1384
  111MOL0     C15226   9.801   6.588   8.327  0.1085 -0.5380 -0.3061
  111MOL0     C15227   9.672   6.619   8.272  0.0076 -0.0258 -0.2643
  111MOL0     O15228   9.454   6.852   8.436 -0.0613  0.2362 -0.2084
  111MOL0     C15229   9.177   6.907   8.439 -0.3579  0.1037 -0.6337
  111MOL0     C15230   9.047   6.944   8.424 -0.1753  0.5727 -0.1633
  111MOL0     N15231   8.460   6.430   8.507 -0.0730 -0.3739  0.3047
  111MOL0     N15232   8.489   6.326   8.435  0.2249 -0.5907 -0.3784
  111MOL0     C15233   8.829   5.410   7.899 -0.0330 -0.4645 -0.0799
  111MOL0     C15234   8.832   5.270   7.907 -0.6405 -0.0059 -0.1039
  111MOL0     C15235   9.029   4.848   7.946 -0.6159 -0.5676  0.5192
  111MOL0     C15236   8.983   4.840   7.813  0.4670  0.3030 -0.1630
  111MOL0     C15237   9.001   4.725   7.741 -0.2587  0.8907 -0.7683
  111MOL0     C15238   9.079   4.618   7.794  0.1115  0.3760  0.1641
  111MOL0     O15239   9.094   4.500   7.724 -0.3669  0.0688  0.4000
  111MOL0     C15240   9.125   4.377   7.788  0.0971 -0.1760 -0.1995
  111MOL0     C15241   9.117   4.264   7.683  0.1008 -0.6070 -0.2110
  111MOL0     C15242   9.173   4.125   7.723  0.1313 -0.9565  0.5369
  111MOL0     C15243   9.214   4.058   7.594  0.0647  0.0167 -0.0163
  111MOL0     C15244   9.270   3.924   7.641  0.0976 -0.2345 -0.6362
  111MOL0     C15245   9.315   3.817   7.678  0.9067  0.5829 -0.0266
  111MOL0     C15246   9.119   4.634   7.929  0.2622  0.8462  1.2596
  111MOL0     C15247   9.090   4.737   8.008 -0.3851  0.2579 -1.2295
  111MOL0     C15248   9.138   4.731   8.153  0.0924  0.1021 -0.6263
  111MOL0     H15249   9.145   5.241   8.060  1.2328  1.7578 -1.2639
  111MOL0     H15250   9.132   5.467   8.061  0.1582 -2.0061  0.7171
  111MOL0     H15251   9.113   5.665   7.901 -0.4440  1.8273 -0.2665
  111MOL0     H15252   9.077   5.690   8.058  2.2837 -1.7723 -0.3220
  111MOL0     H15253   9.091   5.898   7.947  1.8868 -2.9124 -0.6226
  111MOL0     H15254   8.961   5.863   7.821  0.1142 -1.7513  0.2625
  111MOL0     H15255   8.806   5.832   8.004  2.0576 -1.9960  0.2030
  111MOL0     H15256   8.919   5.905   8.124  0.2950  0.3222 -0.2061
  111MOL0     H15257   8.936   6.102   7.972  0.2680  1.0312  0.1001
  111MOL0     H15258   8.796   6.039   7.872 -3.0860  1.4127  2.2393
  111MOL0     H15259   8.793   6.123   8.165 -0.4541  0.4489  0.0462
  111MOL0     H15260   8.654   6.055   8.074 -1.0291  2.2538 -0.8179
  111MOL0     H15261   8.802   6.281   7.977 -0.2405 -1.3074 -0.5004
  111MOL0     H15262   8.634   6.236   7.931 -0.5895  2.4434 -0.2173
  111MOL0     H15263   8.645   6.429   8.078  0.0735  0.0195  0.7982
  111MOL0     H15264   8.738   6.345   8.207 -1.7121 -2.2025  2.7561
  111MOL0     H15265   8.453   6.287   8.125 -1.2281  0.8013  0.8763
  111MOL0     H15266   8.543   6.179   8.225  1.7705  0.7969  1.4788
  111MOL0     H15267   8.488   6.566   8.204  0.3419 -1.6886 -0.3804
  111MOL0     H15268   8.338   6.673   8.538 -0.3203 -0.7377 -0.0689
  111MOL0     H15269   8.371   6.726   8.377  2.7126  0.5296 -0.8052
  111MOL0     H15270   8.505   6.854   8.538 -1.3460  0.3849 -1.5216
  111MOL0     H15271   8.574   6.709   8.609  0.7503 -2.1833 -0.5509
  111MOL0     H15272   8.702   6.675   8.403 -0.3551  0.2133 -0.2490
  111MOL0     H15273   8.590   6.782   8.314 -1.3774 -1.6451  0.8350
  111MOL0     H15274   8.712   6.974   8.462  0.0739 -0.5596 -0.2122
  111MOL0     H15275   8.816   6.854   8.514  0.5232 -1.1902 -1.4328
  111MOL0     H15276   8.961   6.742   8.161 -1.9568 -0.3886  1.3486
  111MOL0     H15277   9.232   6.576   8.162 -0.5459 -0.6436 -1.0911
  111MOL0     H15278   9.289   6.718   8.080  0.4361 -0.9794 -0.2573
  111MOL0     H15279   9.125   6.668   8.058  1.8466 -2.5738 -1.1045
  111MOL0     H15280   9.463   6.586   8.524 -0.7876  2.3808 -0.9629
  111MOL0     H15281   9.692   6.540   8.645  1.6267 -0.0294 -0.0032
  111MOL0     H15282   9.973   6.474   8.701  3.5770 -2.7313  1.7877
  111MOL0     H15283   9.868   6.355   8.608  0.1590  0.5285 -0.0548
  111MOL0     H15284  10.089   6.333   8.474 -1.6539  0.7966 -0.0744
  111MOL0     H15285  10.152   6.449   8.594 -0.7717  0.2995  2.5499
  111MOL0     H15286  10.076   6.158   8.619  0.3777  0.1367 -0.6281
  111MOL0     H15287  10.089   6.259   8.763 -0.5440  1.0924 -0.6926
  111MOL0     H15288  10.322   6.315   8.687 -1.8859  1.5186 -2.2175
  111MOL0     H15289  10.320   6.187   8.563 -0.3543 -1.7093  0.4456
  111MOL0     H15290  10.315   6.161   8.856 -0.4259  1.0294 -1.0704
  111MOL0     H15291  10.269   6.020   8.764 -0.3921  0.0930  1.2398
  111MOL0     H15292  10.516   6.082   8.634  1.5305 -2.2167  0.1182
  111MOL0     H15293  10.516   5.984   8.783  1.0007  0.4552  1.9285
  111MOL0     H15294  10.537   6.199   8.912 -1.5722 -2.4078 -0.7946
  111MOL0     H15295  10.559   6.283   8.764 -0.6628  0.8067  2.2540
  111MOL0     H15296  10.728   6.087   8.905  1.1219  1.3413  1.0749
  111MOL0     H15297  10.777   6.242   8.824  1.1799 -0.8625 -2.0281
  111MOL0     H15298   9.891   6.585   8.265 -0.1721 -1.8580 -0.6620
  111MOL0     H15299   9.647   6.650   8.171 -0.7347  2.4546  0.6180
  111MOL0     H15300   9.245   6.945   8.515 -0.5528 -0.5583 -0.1166
  111MOL0     H15301   9.011   7.018   8.495 -2.0090 -0.8972  0.5180
  111MOL0     H15302   8.747   5.463   7.852  1.5608  0.6765 -1.7055
  111MOL0     H15303   8.740   5.217   7.883  0.2727 -1.2622 -0.9726
  111MOL0     H15304   8.918   4.907   7.758 -0.1650 -1.2831 -1.4431
  111MOL0     H15305   8.955   4.720   7.643  1.9780  1.3724 -1.9179
  111MOL0     H15306   9.226   4.392   7.826  0.9554  1.5083 -2.8158
  111MOL0     H15307   9.059   4.349   7.871 -1.3546 -0.0813 -1.2639
  111MOL0     H15308   9.178   4.292   7.597 -0.3198 -0.5414 -0.4906
  111MOL0     H15309   9.008   4.256   7.671  0.0652 -4.7574  1.3099
  111MOL0     H15310   9.261   4.139   7.787 -0.5681  1.6067  1.0774
  111MOL0     H15311   9.107   4.065   7.787  0.5374 -3.3128 -1.1502
  111MOL0     H15312   9.285   4.121   7.539 -0.9385  0.0013 -1.3734
  111MOL0     H15313   9.132   4.040   7.525 -0.8886 -2.7646  1.6772
  111MOL0     H15314   9.353   3.720   7.703 -3.9226 -3.5259 -5.7694
  111MOL0     H15315   9.179   4.557   7.977 -1.0197 -0.9087  0.1713
  111MOL0     H15316   9.145   4.628   8.191 -1.4275  0.2709  0.1835
  111MOL0     H15317   9.233   4.781   8.175  2.3940 -4.2471  0.5479
  111MOL0     H15318   9.059   4.774   8.215 -0.0396 -1.2840  0.2196
  112MOL0     O15319   9.048   0.226  10.226 -0.5382 -0.1958  0.1430
  112MOL0     C15320   9.006   0.172  10.327  0.3938 -0.1915  0.3018
  112MOL0     O15321   9.055   0.055  10.374  0.3842  0.2792  0.0338
  112MOL0     C15322   9.169  -0.005  10.327 -0.3130  0.3169  0.2211
  112MOL0     C15323   9.152  -0.134  10.284 -0.2968  0.1490 -0.4382
  112MOL0     C15324   9.260  -0.210  10.226  0.5066  0.1089 -0.2428
  112MOL0     C15325   9.381  -0.148  10.201 -0.1490 -0.2997 -0.6427
  112MOL0     O15326   9.477  -0.209  10.133  0.2977 -0.0880 -0.0316
  112MOL0     C15327   9.584  -0.136  10.074 -0.2325 -0.0979 -0.4607
  112MOL0     C15328   9.713  -0.134  10.161  0.1443  0.4061  0.0318
  112MOL0     C15329   9.846  -0.114  10.084 -0.1219 -0.0766  0.1114
  112MOL0     C15330   9.964  -0.100  10.179  0.2002  0.4610  0.2814
  112MOL0     C15331  10.105  -0.098  10.113 -0.0444 -0.0844  0.4329
  112MOL0     C15332  10.217  -0.078  10.221  0.2069 -0.1155 -0.9404
  112MOL0     C15333  10.357  -0.021  10.174 -0.2233 -0.4134 -0.7717
  112MOL0     C15334  10.418  -0.099  10.053 -0.4014 -0.1502  0.6457
  112MOL0     N15335  10.450  -0.241  10.075  0.3428 -0.0384 -1.0996
  112MOL0     C15336  10.482  -0.298  10.197 -0.0579 -0.2262  0.4195
  112MOL0     C15337  10.473  -0.431  10.182  0.6601  0.5097  0.6396
  112MOL0     C15338  10.467  -0.533  10.289  0.2462 -0.0917 -0.5504
  112MOL0     C15339  10.606  -0.555  10.354  0.5324 -0.1079  0.1569
  112MOL0     C15340  10.680  -0.678  10.285 -0.6858 -0.4788  0.2229
  112MOL0     C15341  10.830  -0.705  10.321  0.5316  0.7836 -0.4610
  112MOL0     O15342  10.874  -0.818  10.242 -0.6434  0.3248 -0.3656
  112MOL0     C15343  11.007  -0.795  10.205 -0.7041  0.8823 -0.0233
  112MOL0     C15344  11.046  -0.795  10.068 -0.1662 -0.5148 -0.5453
  112MOL0     C15345  11.181  -0.784  10.029 -0.6300  0.7405 -0.4758
  112MOL0     C15346  11.200  -0.768   9.875  0.5410  0.1057  0.1496
  112MOL0     C15347  11.290  -0.788  10.123 -0.0319  0.2549  0.0060
  112MOL0     C15348  11.434  -0.783  10.082 -0.2538  0.2502  0.0664
  112MOL0     O15349  11.522  -0.758  10.185  1.1085 -0.5629 -0.2730
  112MOL0     C15350  11.650  -0.817  10.194  0.5773  0.5265  0.1267
  112MOL0     C15351  11.752  -0.751  10.260 -0.3932 -0.1005 -0.3254
  112MOL0     C15352  11.877  -0.801  10.250  0.0966  0.1474 -0.6447
  112MOL0     C15353  11.897  -0.930  10.197  0.6789 -0.0949 -0.5951
  112MOL0     O15354  12.022  -0.981  10.182  0.4656  0.8501 -0.0115
  112MOL0     C15355  12.106  -0.968  10.296 -0.6106  0.2550 -0.7891
  112MOL0     C15356  12.185  -1.097  10.312 -0.0128  0.1020 -0.4360
  112MOL0     C15357  12.215  -1.113  10.462 -0.4873  0.7717  0.0725
  112MOL0     C15358  12.319  -1.216  10.498 -0.7463  0.2548  0.6170
  112MOL0     C15359  12.355  -1.205  10.644 -0.2211  0.2953 -0.2392
  112MOL0     C15360  12.479  -1.287  10.670 -0.0561  0.5419  0.1489
  112MOL0     C15361  12.529  -1.278  10.811  0.4153 -0.9730 -0.6510
  112MOL0     C15362  12.624  -1.389  10.860 -0.0763  0.0024 -0.4107
  112MOL0    Cl15363  12.776  -1.383  10.766 -0.0182  0.2412  0.3923
  112MOL0     C15364  11.795  -1.007  10.146 -0.6417  0.4551  0.3321
  112MOL0     C15365  11.668  -0.950  10.142  0.3210  0.2864  0.1210
  112MOL0     O15366  11.470  -0.800   9.966 -0.0706 -0.0056 -0.5435
  112MOL0     C15367  11.252  -0.786  10.262 -0.5813 -0.4586  0.1549
  112MOL0     C15368  11.113  -0.792  10.305  0.3832  0.2606 -0.3463
  112MOL0     N15369  10.444  -0.461  10.045  0.6299  0.0159 -0.0910
  112MOL0     N15370  10.431  -0.349   9.986 -0.1711  0.1267 -0.2938
  112MOL0     C15371   9.398  -0.018  10.260  0.0463 -0.0559 -0.7946
  112MOL0     C15372   9.290   0.058  10.318 -0.8781 -1.1487 -0.2755
  112MOL0     C15373   8.872   0.212  10.376 -0.2057 -0.1448  0.2322
  112MOL0     C15374   8.799   0.120  10.445  0.2489 -0.1722  0.4682
  112MOL0     C15375   8.665   0.146  10.489  0.2356 -0.2683 -0.0234
  112MOL0     C15376   8.607   0.272  10.458 -0.5427  0.1996  0.3503
  112MOL0     O15377   8.475   0.299  10.491 -0.5801 -0.4388  0.6187
  112MOL0     C15378   8.416   0.224  10.603  0.5820 -0.7603 -0.4995
  112MOL0     C15379   8.327   0.105  10.557 -0.6386  0.2320 -0.3552
  112MOL0     C15380   8.233   0.139  10.447 -0.0089 -0.4881 -0.6944
  112MOL0     C15381   8.145   0.027  10.413  0.1415  0.0076  0.0839
  112MOL0     C15382   8.075   0.062  10.293  0.0843 -0.2410  0.1230
  112MOL0     C15383   8.015   0.090  10.196 -0.1779 -0.5763  1.4625
  112MOL0     C15384   8.681   0.358  10.376  0.3564  0.4102  0.3318
  112MOL0     C15385   8.815   0.336  10.345 -0.1546  0.1210  0.9043
  112MOL0     C15386   8.875   0.445  10.265 -0.0475 -1.5304 -0.4610
  112MOL0     H15387   9.051  -0.175  10.287 -0.1799 -0.1004  1.9826
  112MOL0     H15388   9.236  -0.304  10.178  2.3985 -1.2490  1.3328
  112MOL0     H15389   9.558  -0.031  10.058 -2.3829 -0.8463 -2.3174
  112MOL0     H15390   9.613  -0.185   9.981  2.5306 -1.2598  0.9198
  112MOL0     H15391   9.706  -0.068  10.248 -2.2368 -1.6746  1.5740
  112MOL0     H15392   9.714  -0.230  10.214  0.9075  0.0598 -0.5771
  112MOL0     H15393   9.873  -0.200  10.022  2.2489 -0.1324  1.0885
  112MOL0     H15394   9.847  -0.024  10.022 -2.0179 -0.6528 -0.8334
  112MOL0     H15395   9.958  -0.004  10.232  1.0470 -0.3828  1.9651
  112MOL0     H15396   9.966  -0.180  10.253 -0.8170  0.0479 -0.1180
  112MOL0     H15397  10.100  -0.027  10.030 -0.3013  0.2098  0.6987
  112MOL0     H15398  10.128  -0.195  10.066 -2.9824 -0.5982 -0.1855
  112MOL0     H15399  10.176  -0.012  10.298  1.2097  1.5953 -1.8206
  112MOL0     H15400  10.226  -0.172  10.276  1.0238  0.2164 -0.4972
  112MOL0     H15401  10.426  -0.009  10.258 -0.3830 -0.3259 -0.6532
  112MOL0     H15402  10.339   0.082  10.144 -0.7994  0.8313  3.2917
  112MOL0     H15403  10.362  -0.086   9.960  2.4797  0.5226 -1.1159
  112MOL0     H15404  10.503  -0.033  10.041 -1.6491  1.5183  0.6562
  112MOL0     H15405  10.508  -0.246  10.289  0.0313 -1.7893  1.3175
  112MOL0     H15406  10.427  -0.627  10.249 -1.4892  0.2152  0.3471
  112MOL0     H15407  10.402  -0.500  10.371  1.7145 -0.5631  0.8553
  112MOL0     H15408  10.673  -0.468  10.347 -0.7716  0.8664 -0.7907
  112MOL0     H15409  10.611  -0.590  10.457  1.0011  1.0662  0.5595
  112MOL0     H15410  10.632  -0.769  10.322  1.3004 -1.1238  1.3772
  112MOL0     H15411  10.676  -0.668  10.176 -2.0266  0.1184  0.3126
  112MOL0     H15412  10.889  -0.616  10.300  0.9700  0.3586 -1.0613
  112MOL0     H15413  10.843  -0.713  10.430 -3.5789 -1.7475  0.0629
  112MOL0     H15414  10.967  -0.805   9.994 -0.2380 -1.0978 -0.3977
  112MOL0     H15415  11.277  -0.693   9.857 -0.2152  0.6614 -0.8908
  112MOL0     H15416  11.103  -0.750   9.828  1.0744  1.4108 -0.5005
  112MOL0     H15417  11.241  -0.858   9.829 -1.5909 -0.8128 -0.0499
  112MOL0     H15418  11.751  -0.652  10.303  1.7572 -1.2521  2.7188
  112MOL0     H15419  11.952  -0.745  10.304  0.0607 -1.5526  1.3063
  112MOL0     H15420  12.167  -0.880  10.278 -0.8090  0.3048 -1.2254
  112MOL0     H15421  12.048  -0.951  10.388  0.1400 -0.7599 -0.1027
  112MOL0     H15422  12.117  -1.179  10.289  0.1901  0.1581 -1.2920
  112MOL0     H15423  12.279  -1.097  10.255  2.1750 -3.5892  2.6386
  112MOL0     H15424  12.126  -1.143  10.519 -0.5598  0.1948 -0.3409
  112MOL0     H15425  12.255  -1.016  10.492 -1.3576  1.8656 -2.1106
  112MOL0     H15426  12.411  -1.194  10.443 -0.0510 -2.1116  0.7299
  112MOL0     H15427  12.297  -1.320  10.470  2.0613  0.2671 -2.2060
  112MOL0     H15428  12.370  -1.104  10.684  1.2920 -0.3345  0.8813
  112MOL0     H15429  12.277  -1.253  10.704 -0.1402 -0.0709 -0.4258
  112MOL0     H15430  12.565  -1.257  10.611  1.9421 -0.0962  2.5729
  112MOL0     H15431  12.436  -1.385  10.644  0.5274  0.3553 -0.1237
  112MOL0     H15432  12.437  -1.293  10.869  0.0665  1.0726 -0.5829
  112MOL0     H15433  12.576  -1.181  10.834 -1.3398 -0.0546 -0.7129
  112MOL0     H15434  12.572  -1.485  10.853  1.0162 -0.8510  1.9079
  112MOL0     H15435  12.650  -1.368  10.964 -0.4709  0.7969 -0.4668
  112MOL0     H15436  11.817  -1.100  10.095 -0.8316  0.5789  0.0167
  112MOL0     H15437  11.582  -1.004  10.103 -1.0205  0.5227  2.5385
  112MOL0     H15438  11.339  -0.783  10.327  0.0283 -0.0033 -0.6551
  112MOL0     H15439  11.094  -0.795  10.412  1.7180 -1.7343 -0.1042
  112MOL0     H15440   9.496   0.027  10.249  0.5794 -1.3543 -1.5615
  112MOL0     H15441   9.311   0.156  10.358 -2.1288 -0.0473 -2.1767
  112MOL0     H15442   8.839   0.020  10.461 -2.6051 -1.4515  0.2258
  112MOL0     H15443   8.606   0.070  10.539 -1.5077 -0.8473 -2.7174
  112MOL0     H15444   8.498   0.204  10.672  0.0804 -1.6159 -0.1365
  112MOL0     H15445   8.357   0.293  10.664  1.1592 -1.5656  1.0446
  112MOL0     H15446   8.272   0.078  10.648  2.5050 -2.0570  1.0439
  112MOL0     H15447   8.390   0.020  10.530  0.4910  0.5787  1.0586
  112MOL0     H15448   8.178   0.233  10.461  1.0954  0.0837 -0.0697
  112MOL0     H15449   8.300   0.155  10.361  1.7886  2.3980  1.0877
  112MOL0     H15450   8.077   0.004  10.495  1.1654  0.5265  1.1037
  112MOL0     H15451   8.204  -0.063  10.394  0.2222  0.3538 -1.4809
  112MOL0     H15452   7.954   0.122  10.114  1.0928 -0.0594  0.6872
  112MOL0     H15453   8.642   0.456  10.351  0.5148 -0.1876 -2.6080
  112MOL0     H15454   8.897   0.414  10.162 -2.5733 -0.0524 -1.5297
  112MOL0     H15455   8.820   0.539  10.253  0.3005 -1.2895 -0.1899
  112MOL0     H15456   8.972   0.480  10.298 -0.5812  0.3938 -0.8379
  113MOL0     O15457  10.289   9.328   1.201  0.0651 -0.2227  0.3902
  113MOL0     C15458  10.272   9.207   1.214 -0.6692  0.0929 -0.6844
  113MOL0     O15459  10.367   9.110   1.232  0.3155 -0.0622  0.2907
  113MOL0     C15460  10.496   9.152   1.212 -0.1803  0.6668  0.1635
  113MOL0     C15461  10.537   9.240   1.110  0.6267 -0.1475  0.2927
  113MOL0     C15462  10.676   9.268   1.085  0.7459  0.5488 -0.0670
  113MOL0     C15463  10.775   9.194   1.159 -0.7765  0.3498 -0.2024
  113MOL0     O15464  10.907   9.234   1.135 -0.2666  0.5690 -0.4134
  113MOL0     C15465  11.006   9.186   1.236 -0.2650  0.0281  0.6021
  113MOL0     C15466  11.155   9.223   1.211 -0.3699 -0.5879 -0.6795
  113MOL0     C15467  11.248   9.207   1.338 -0.4523 -0.9811  0.2398
  113MOL0     C15468  11.395   9.175   1.299 -0.6286 -0.6266  0.0669
  113MOL0     C15469  11.507   9.160   1.403 -0.7781 -0.0561 -0.2452
  113MOL0     C15470  11.622   9.096   1.336  0.6712 -0.1395 -0.8104
  113MOL0     C15471  11.742   9.087   1.426 -0.1316 -0.0693 -0.9385
  113MOL0     C15472  11.731   8.955   1.517  0.8492  0.0691  0.3048
  113MOL0     N15473  11.866   8.918   1.565 -0.1612  0.1931  0.1155
  113MOL0     C15474  11.923   8.963   1.681 -0.2351 -0.2776  0.8057
  113MOL0     C15475  12.054   8.924   1.677 -0.0958  0.0088 -0.0659
  113MOL0     C15476  12.148   8.979   1.786  0.1486  0.2549  0.6450
  113MOL0     C15477  12.288   8.926   1.752  0.3652  0.3354 -0.0962
  113MOL0     C15478  12.399   8.988   1.836 -0.7206  0.1430 -0.1570
  113MOL0     C15479  12.429   9.135   1.805 -0.6146  0.0020 -0.0887
  113MOL0     O15480  12.537   9.173   1.892  1.0223  0.1630  0.0846
  113MOL0     C15481  12.519   9.228   2.018  0.0607  0.6711 -0.0217
  113MOL0     C15482  12.390   9.235   2.081 -0.1752  0.1670  0.5517
  113MOL0     C15483  12.384   9.304   2.204  0.4093  0.0830 -0.3123
  113MOL0     C15484  12.251   9.304   2.277 -0.1550 -0.0843  0.3513
  113MOL0     C15485  12.499   9.355   2.268 -0.3285 -0.3917 -0.0883
  113MOL0     C15486  12.497   9.413   2.405  0.5652  0.0727 -0.1449
  113MOL0     O15487  12.404   9.508   2.421  0.0291 -0.3972 -0.4137
  113MOL0     C15488  12.418   9.581   2.535  0.1748 -0.7170  0.3511
  113MOL0     C15489  12.481   9.704   2.531  0.0288 -0.4000  0.1104
  113MOL0     C15490  12.488   9.786   2.643 -0.0176  1.0520  1.2214
  113MOL0     C15491  12.436   9.743   2.763 -0.2163 -0.8974  0.2686
  113MOL0     O15492  12.455   9.820   2.877  0.5832  0.0141 -0.2369
  113MOL0     C15493  12.392   9.787   2.997  0.5015 -0.5279 -0.5748
  113MOL0     C15494  12.459   9.883   3.096 -0.0818 -0.7046 -0.5311
  113MOL0     C15495  12.425   9.844   3.238 -0.2885 -0.2470 -0.5671
  113MOL0     C15496  12.500   9.721   3.290 -0.6412 -0.4228 -0.4898
  113MOL0     C15497  12.507   9.716   3.443  0.1306 -0.7021  0.2844
  113MOL0     C15498  12.559   9.576   3.492 -0.1659  0.9503  0.5705
  113MOL0     C15499  12.530   9.577   3.641  0.7548  0.4325 -0.9869
  113MOL0     C15500  12.580   9.456   3.718  0.0724  0.0180  0.1429
  113MOL0    Cl15501  12.481   9.315   3.675  0.3999  0.3759 -0.0998
  113MOL0     C15502  12.366   9.622   2.765  0.7480  0.5470  0.4535
  113MOL0     C15503  12.349   9.540   2.653 -1.1219  0.1805 -0.8035
  113MOL0     O15504  12.574   9.367   2.485 -0.4043 -0.1339 -0.2538
  113MOL0     C15505  12.619   9.344   2.208 -0.2036  0.5227  0.3591
  113MOL0     C15506  12.627   9.289   2.071  0.2038  0.3637 -0.2583
  113MOL0     N15507  12.070   8.846   1.558 -0.3984 -0.5205 -0.1134
  113MOL0     N15508  11.950   8.845   1.491 -0.0917  0.4784  0.2686
  113MOL0     C15509  10.729   9.112   1.259 -1.0008  0.5949  0.1867
  113MOL0     C15510  10.597   9.083   1.280 -0.4734  0.5773 -0.9200
  113MOL0     C15511  10.136   9.149   1.198 -0.0835  1.2593 -0.2040
  113MOL0     C15512  10.112   9.038   1.286 -0.1423 -0.5925 -0.3435
  113MOL0     C15513   9.990   8.971   1.283  0.3800  0.4928  1.2062
  113MOL0     C15514   9.887   9.019   1.202  1.1259 -0.0104  0.6271
  113MOL0     O15515   9.768   8.956   1.186  0.6350 -0.6341 -0.4129
  113MOL0     C15516   9.718   8.902   1.311  0.6728 -0.0332 -0.1925
  113MOL0     C15517   9.564   8.909   1.312  0.1178 -0.6332  0.6391
  113MOL0     C15518   9.514   8.792   1.405  0.3429 -0.7054  0.0425
  113MOL0     C15519   9.363   8.769   1.408  0.5127  0.0453  0.1361
  113MOL0     C15520   9.338   8.648   1.486  0.4713  1.2963 -0.3278
  113MOL0     C15521   9.351   8.538   1.540 -0.1179 -0.0975  1.6568
  113MOL0     C15522   9.906   9.140   1.130  0.6687 -0.2886 -0.4734
  113MOL0     C15523  10.032   9.206   1.124 -0.1863  0.4837 -0.2176
  113MOL0     C15524  10.059   9.309   1.018 -0.5277  0.5788  0.2741
  113MOL0     H15525  10.459   9.273   1.042  1.4742  0.3731 -0.4623
  113MOL0     H15526  10.693   9.338   1.003 -2.4412  1.0715 -0.4117
  113MOL0     H15527  11.012   9.077   1.240  0.9302  0.1075  1.5467
  113MOL0     H15528  10.976   9.230   1.332 -1.0874 -3.5235  2.1071
  113MOL0     H15529  11.195   9.160   1.130 -1.3658  0.0506 -1.6933
  113MOL0     H15530  11.166   9.326   1.176 -1.6486 -1.3847 -3.7947
  113MOL0     H15531  11.240   9.296   1.401 -0.3887 -0.3292 -0.6522
  113MOL0     H15532  11.206   9.127   1.400 -2.6618 -0.3462 -0.3655
  113MOL0     H15533  11.391   9.081   1.243 -0.8305 -0.2518 -0.5609
  113MOL0     H15534  11.424   9.257   1.233 -1.0150  1.6031  2.4840
  113MOL0     H15535  11.482   9.095   1.488  2.7335 -3.5851 -1.5833
  113MOL0     H15536  11.522   9.263   1.435 -1.2172  0.7439 -2.4349
  113MOL0     H15537  11.591   8.999   1.295 -0.2729  0.1347 -0.7866
  113MOL0     H15538  11.638   9.158   1.247  0.0238 -0.3130 -1.0553
  113MOL0     H15539  11.758   9.183   1.475  1.9763  0.7824 -3.0876
  113MOL0     H15540  11.823   9.065   1.356 -0.4529 -0.1042 -1.3070
  113MOL0     H15541  11.666   8.970   1.603 -0.6306 -3.2867 -0.0706
  113MOL0     H15542  11.681   8.868   1.472 -0.1083  1.8532 -2.3927
  113MOL0     H15543  11.888   9.036   1.753  0.4205  1.6580 -0.7269
  113MOL0     H15544  12.118   8.942   1.884  1.7096 -0.5539  0.8593
  113MOL0     H15545  12.152   9.087   1.774 -3.0140  0.5248  1.2362
  113MOL0     H15546  12.282   8.818   1.762  1.2879 -0.1853 -3.7156
  113MOL0     H15547  12.294   8.942   1.644 -2.8626 -1.1454 -0.6073
  113MOL0     H15548  12.371   8.974   1.941 -1.8602  2.8692 -0.0062
  113MOL0     H15549  12.486   8.926   1.813 -1.0705 -0.3703 -0.1210
  113MOL0     H15550  12.451   9.146   1.699 -0.2349  0.3998  0.0264
  113MOL0     H15551  12.337   9.191   1.827 -0.4547  0.0257  0.5354
  113MOL0     H15552  12.302   9.183   2.046 -2.1752  1.9957  2.5816
  113MOL0     H15553  12.175   9.248   2.222  0.9004 -1.6924  0.4667
  113MOL0     H15554  12.210   9.405   2.283  2.9933  1.2520  1.1212
  113MOL0     H15555  12.272   9.270   2.379 -1.0760  0.4599  0.7333
  113MOL0     H15556  12.531   9.736   2.440  2.2246 -2.1826  0.5889
  113MOL0     H15557  12.545   9.878   2.638 -1.7936  2.1232 -1.2546
  113MOL0     H15558  12.286   9.810   2.979  0.7244 -0.3558 -1.7828
  113MOL0     H15559  12.399   9.683   3.030 -2.0915 -1.5919 -2.8950
  113MOL0     H15560  12.568   9.877   3.090 -0.1785 -1.7695 -1.4672
  113MOL0     H15561  12.429   9.985   3.071 -0.7378 -1.3915 -2.7377
  113MOL0     H15562  12.317   9.831   3.245 -0.2741 -0.7489 -1.1852
  113MOL0     H15563  12.449   9.926   3.306 -3.2980 -0.8016  1.3218
  113MOL0     H15564  12.606   9.732   3.265  0.2812  0.3723  3.1394
  113MOL0     H15565  12.452   9.634   3.245  2.6645 -1.4392 -2.3338
  113MOL0     H15566  12.564   9.798   3.487 -1.9207  0.3326  1.1192
  113MOL0     H15567  12.410   9.735   3.490  0.8061 -0.0615  1.4609
  113MOL0     H15568  12.662   9.554   3.462  0.1326  1.3963  1.2448
  113MOL0     H15569  12.502   9.494   3.448 -0.5244  0.1486  2.4369
  113MOL0     H15570  12.422   9.560   3.640  0.4936  1.8989 -0.5971
  113MOL0     H15571  12.555   9.672   3.690 -1.9915  0.1027  1.3383
  113MOL0     H15572  12.571   9.483   3.824  2.4386  0.6579  0.2281
  113MOL0     H15573  12.682   9.429   3.689  0.4084 -1.4499  2.4156
  113MOL0     H15574  12.310   9.580   2.848 -1.4902  1.6012 -0.4174
  113MOL0     H15575  12.296   9.447   2.668  1.0264 -1.0732 -0.5698
  113MOL0     H15576  12.709   9.381   2.255  0.6851  1.0636 -1.6428
  113MOL0     H15577  12.723   9.290   2.019 -0.0595  2.6595 -0.8361
  113MOL0     H15578  10.805   9.062   1.318 -0.5334  0.4144 -0.5548
  113MOL0     H15579  10.562   9.015   1.356 -0.9792  1.6184 -0.1902
  113MOL0     H15580  10.195   9.004   1.347  2.3582  1.6819 -2.2413
  113MOL0     H15581   9.981   8.877   1.337 -0.0128 -0.4248 -0.4047
  113MOL0     H15582   9.741   8.795   1.305 -0.1865 -0.1840 -0.8970
  113MOL0     H15583   9.752   8.951   1.403 -2.2517  0.9199  0.4790
  113MOL0     H15584   9.540   8.895   1.206  2.0469 -0.9842  0.2228
  113MOL0     H15585   9.531   9.005   1.353  1.7292  0.5808 -0.7782
  113MOL0     H15586   9.556   8.698   1.369  0.0939 -0.3221 -1.2982
  113MOL0     H15587   9.545   8.820   1.507  0.4705 -0.2975 -0.1070
  113MOL0     H15588   9.335   8.754   1.303 -2.5298  2.0018  0.5469
  113MOL0     H15589   9.308   8.856   1.445  0.9467  1.4579 -2.3276
  113MOL0     H15590   9.360   8.445   1.593  2.4284 -0.1064  1.3114
  113MOL0     H15591   9.820   9.186   1.081 -0.5068 -1.4126  0.4495
  113MOL0     H15592  10.153   9.289   0.967 -0.5143 -0.4322  0.6614
  113MOL0     H15593   9.979   9.295   0.945  1.1121 -2.8434 -1.1180
  113MOL0     H15594  10.056   9.408   1.063  0.7993 -0.9149  4.1022
  114MOL0     O15595   2.943  10.944   3.341  0.2100  0.4404  0.8270
  114MOL0     C15596   2.830  10.975   3.314 -0.3589  0.3283 -0.0727
  114MOL0     O15597   2.783  11.096   3.275 -1.0831 -0.0277  0.7330
  114MOL0     C15598   2.883  11.192   3.260  0.7001  0.6657 -0.2165
  114MOL0     C15599   2.884  11.299   3.359  0.0761  0.0450  0.6118
  114MOL0     C15600   2.948  11.415   3.334  0.6412  0.2573 -0.5190
  114MOL0     C15601   3.039  11.412   3.231  0.1435  0.8695  0.3668
  114MOL0     O15602   3.117  11.518   3.243 -0.3021  0.0259 -0.0013
  114MOL0     C15603   3.232  11.542   3.162 -0.0679 -0.8284 -0.3994
  114MOL0     C15604   3.308  11.665   3.220 -1.2235  0.5659 -0.1961
  114MOL0     C15605   3.220  11.784   3.204  0.7508  0.3568 -0.0412
  114MOL0     C15606   3.299  11.910   3.251 -0.6519 -0.0560 -0.1901
  114MOL0     C15607   3.379  11.984   3.148 -0.4157  0.6088 -0.2641
  114MOL0     C15608   3.515  11.914   3.106  0.6459  0.2505  0.7466
  114MOL0     C15609   3.612  12.022   3.067 -0.1581  0.3040  0.3223
  114MOL0     C15610   3.755  11.960   3.041 -0.6456  0.0534 -0.1676
  114MOL0     N15611   3.758  11.873   2.920  0.6737 -0.4631 -0.4432
  114MOL0     C15612   3.808  11.915   2.801 -0.1662  0.0066 -0.3406
  114MOL0     C15613   3.813  11.797   2.729  0.2205  0.6789  0.3700
  114MOL0     C15614   3.870  11.778   2.590  1.7058  0.5238  0.3007
  114MOL0     C15615   3.800  11.848   2.466 -0.6854 -0.8508  0.4118
  114MOL0     C15616   3.823  11.768   2.343 -0.6365  0.6620  0.0851
  114MOL0     C15617   3.781  11.831   2.206 -0.9432  0.4071  0.1123
  114MOL0     O15618   3.661  11.907   2.199 -1.0607  0.3417  0.3091
  114MOL0     C15619   3.636  11.982   2.092 -0.2734 -0.2671  0.7186
  114MOL0     C15620   3.511  12.038   2.079  1.0094  0.2812  0.0556
  114MOL0     C15621   3.474  12.124   1.973  0.3095  0.3439  0.1341
  114MOL0     C15622   3.339  12.194   1.986  1.2180 -0.1740 -0.1615
  114MOL0     C15623   3.578  12.149   1.876  0.2019 -0.1233 -0.6297
  114MOL0     C15624   3.558  12.238   1.757 -0.0175  0.3188  0.2156
  114MOL0     O15625   3.672  12.267   1.683 -0.2733 -0.0606  0.4235
  114MOL0     C15626   3.674  12.348   1.568  0.0645  0.2685 -0.5051
  114MOL0     C15627   3.741  12.314   1.448 -0.5310  0.3657  0.0259
  114MOL0     C15628   3.731  12.405   1.338 -0.2121  0.2533 -1.1770
  114MOL0     C15629   3.673  12.535   1.348 -0.4868  0.3530 -0.1381
  114MOL0     O15630   3.656  12.627   1.253  0.3777  0.3473 -0.2915
  114MOL0     C15631   3.745  12.609   1.133 -0.4828 -0.6480  0.3401
  114MOL0     C15632   3.761  12.745   1.075  0.8425 -0.0209 -0.0028
  114MOL0     C15633   3.825  12.836   1.174 -0.6352 -0.7459  0.4956
  114MOL0     C15634   3.876  12.963   1.102 -0.0737 -0.3111 -1.4730
  114MOL0     C15635   3.921  13.081   1.200 -0.0150  0.3165 -0.0768
  114MOL0     C15636   3.798  13.173   1.217 -0.1648 -0.2048 -0.4755
  114MOL0     C15637   3.847  13.299   1.289 -0.3505 -0.6558  0.1910
  114MOL0     C15638   3.720  13.381   1.332  0.3261 -0.4570  0.1177
  114MOL0    Cl15639   3.755  13.489   1.465 -0.0012 -0.3610 -0.3483
  114MOL0     C15640   3.610  12.559   1.465  0.0205 -0.2060 -0.2003
  114MOL0     C15641   3.610  12.474   1.580 -0.2974 -0.6378  0.7219
  114MOL0     O15642   3.440  12.262   1.721 -0.0267  0.3155 -0.2789
  114MOL0     C15643   3.699  12.083   1.887 -0.6437 -0.2671 -0.6673
  114MOL0     C15644   3.730  11.994   1.989  0.1318 -1.1490 -0.1680
  114MOL0     N15645   3.749  11.696   2.802  0.5434  0.0800 -0.4304
  114MOL0     N15646   3.712  11.746   2.917  0.6901  0.0687 -0.9635
  114MOL0     C15647   3.051  11.301   3.140  0.4989  0.9214 -0.2678
  114MOL0     C15648   2.967  11.195   3.158  0.5719 -0.4401  0.5098
  114MOL0     C15649   2.726  10.874   3.342 -1.1891 -0.1255  0.6960
  114MOL0     C15650   2.591  10.906   3.315 -0.3090  0.2965 -0.0900
  114MOL0     C15651   2.479  10.823   3.346 -0.5324 -0.1282 -0.0836
  114MOL0     C15652   2.515  10.696   3.405 -0.2470  0.3378 -1.2270
  114MOL0     O15653   2.422  10.591   3.428  0.4004  1.1009 -0.5915
  114MOL0     C15654   2.288  10.636   3.421  0.8310 -1.3115 -0.6348
  114MOL0     C15655   2.186  10.525   3.429 -0.0655 -0.1179 -0.0539
  114MOL0     C15656   2.056  10.566   3.346 -0.4967 -0.8296 -1.0655
  114MOL0     C15657   1.953  10.463   3.375  0.1643  0.1789 -0.8817
  114MOL0     C15658   1.814  10.524   3.356  0.3441  0.5419 -0.2179
  114MOL0     C15659   1.703  10.574   3.333 -0.2643 -0.1769 -0.2831
  114MOL0     C15660   2.650  10.656   3.410 -0.7035  0.7942 -0.2140
  114MOL0     C15661   2.754  10.737   3.388  0.4936 -0.5686  0.7213
  114MOL0     C15662   2.901  10.684   3.406 -0.3745  0.9041  0.1997
  114MOL0     H15663   2.819  11.293   3.446  0.6109 -1.4005  0.9336
  114MOL0     H15664   2.934  11.500   3.400 -0.3672  0.1169 -0.5332
  114MOL0     H15665   3.194  11.558   3.061  0.4003  0.4332 -0.3952
  114MOL0     H15666   3.301  11.458   3.178 -1.1186 -1.5527  0.4865
  114MOL0     H15667   3.339  11.657   3.325  2.9845  1.6466 -1.2011
  114MOL0     H15668   3.400  11.672   3.162 -0.2335 -0.3450  1.1978
  114MOL0     H15669   3.204  11.801   3.097  1.1821  0.2145 -0.1298
  114MOL0     H15670   3.132  11.772   3.268  0.1811 -2.4511 -1.1887
  114MOL0     H15671   3.215  11.975   3.276 -2.4031 -1.7428 -1.4104
  114MOL0     H15672   3.357  11.886   3.341  2.4471  1.1211 -1.7222
  114MOL0     H15673   3.410  12.077   3.197  1.2560 -1.1060  2.1600
  114MOL0     H15674   3.321  12.010   3.059  1.2517  3.0727 -0.7555
  114MOL0     H15675   3.547  11.847   3.186  1.1459  0.0320  0.3704
  114MOL0     H15676   3.492  11.850   3.021  3.3277 -1.5735  1.2827
  114MOL0     H15677   3.621  12.100   3.142  0.8755 -0.2091  0.7652
  114MOL0     H15678   3.578  12.066   2.973  1.5474 -1.4735 -1.2494
  114MOL0     H15679   3.825  12.043   3.026 -0.5523  0.2590  1.2946
  114MOL0     H15680   3.795  11.909   3.129 -1.1960  3.3438  2.2118
  114MOL0     H15681   3.853  12.012   2.782 -1.0574  0.9044  1.8080
  114MOL0     H15682   3.861  11.671   2.569  1.5707  0.8058 -1.1588
  114MOL0     H15683   3.976  11.806   2.592  1.6779  0.9998 -2.2007
  114MOL0     H15684   3.692  11.845   2.479 -0.9748  0.2465 -1.3473
  114MOL0     H15685   3.844  11.947   2.450  0.2146 -1.4513 -0.9650
  114MOL0     H15686   3.929  11.741   2.337 -0.8554  0.0617 -2.5662
  114MOL0     H15687   3.780  11.670   2.363  1.1610 -0.3988 -0.9421
  114MOL0     H15688   3.865  11.893   2.173 -2.0913  2.2905  0.6062
  114MOL0     H15689   3.765  11.745   2.140 -0.6762 -0.2236  0.8438
  114MOL0     H15690   3.437  12.026   2.158  0.8253 -0.9902 -0.2819
  114MOL0     H15691   3.281  12.204   1.894  1.0429  3.0574  0.1842
  114MOL0     H15692   3.340  12.297   2.022 -1.8251 -0.3597  0.6965
  114MOL0     H15693   3.281  12.138   2.060 -1.2423  1.6719 -0.5419
  114MOL0     H15694   3.799  12.223   1.456 -1.3130 -0.3843 -2.1909
  114MOL0     H15695   3.775  12.374   1.243  2.1523  1.8732 -0.6950
  114MOL0     H15696   3.844  12.567   1.152 -1.0521 -1.7014  1.0516
  114MOL0     H15697   3.699  12.546   1.057  1.0110 -0.5072 -0.7207
  114MOL0     H15698   3.809  12.748   0.977 -2.3842  1.0885 -1.7127
  114MOL0     H15699   3.662  12.790   1.056  0.9668  0.8042  1.1239
  114MOL0     H15700   3.908  12.781   1.219  1.0073  0.3889 -1.0293
  114MOL0     H15701   3.754  12.877   1.247 -2.8363 -0.5423 -1.6424
  114MOL0     H15702   3.810  13.004   1.025  1.1119  2.5779 -1.0869
  114MOL0     H15703   3.965  12.931   1.048 -0.4416 -0.9364 -1.7216
  114MOL0     H15704   3.955  13.050   1.299  2.4155  1.3633 -0.5185
  114MOL0     H15705   4.000  13.137   1.148  1.7420 -2.1959 -0.2642
  114MOL0     H15706   3.732  13.114   1.281 -0.0155 -2.1706 -2.0113
  114MOL0     H15707   3.767  13.205   1.117 -1.2204  1.3444  0.3067
  114MOL0     H15708   3.913  13.366   1.234 -0.6002 -0.0490  0.6270
  114MOL0     H15709   3.898  13.262   1.378  0.3153 -1.2204 -0.4085
  114MOL0     H15710   3.641  13.321   1.377 -0.3412 -0.3002 -0.8184
  114MOL0     H15711   3.679  13.436   1.247  1.0977 -1.1909 -0.7557
  114MOL0     H15712   3.560  12.653   1.486  2.0546  0.7322  0.7789
  114MOL0     H15713   3.551  12.505   1.666 -2.7617  0.7140 -1.2832
  114MOL0     H15714   3.763  12.102   1.801 -1.2043  1.2810 -0.7871
  114MOL0     H15715   3.828  11.947   1.983  0.5287 -0.3112 -0.5648
  114MOL0     H15716   3.109  11.301   3.049 -1.5194  0.9575 -1.6248
  114MOL0     H15717   2.956  11.106   3.097 -1.3151  0.0040  0.1234
  114MOL0     H15718   2.560  11.004   3.281 -0.5540  1.2382  2.5932
  114MOL0     H15719   2.376  10.852   3.331 -1.7215 -2.2053  3.0408
  114MOL0     H15720   2.261  10.708   3.499 -0.5146  0.9418 -2.9865
  114MOL0     H15721   2.266  10.684   3.325 -0.6577 -1.4287 -0.3815
  114MOL0     H15722   2.162  10.517   3.536  3.4921  0.6811  0.9361
  114MOL0     H15723   2.228  10.432   3.388  0.4847 -0.8583  2.0652
  114MOL0     H15724   2.016  10.662   3.379 -0.3049 -1.6064  1.6915
  114MOL0     H15725   2.080  10.570   3.240  1.9704  1.0979 -0.5200
  114MOL0     H15726   1.958  10.422   3.477  0.5021  1.4154 -0.3833
  114MOL0     H15727   1.965  10.373   3.315  0.1234 -0.0777 -0.5063
  114MOL0     H15728   1.599  10.597   3.322 -0.9293 -1.5467  2.2807
  114MOL0     H15729   2.679  10.564   3.459  3.0661  2.1539  0.4321
  114MOL0     H15730   2.970  10.743   3.466  1.5298 -0.5942 -0.4141
  114MOL0     H15731   2.898  10.585   3.452 -1.7848  1.5958  1.6918
  114MOL0     H15732   2.942  10.666   3.306 -0.5617  3.0969 -0.3397
  115MOL0     O15733  11.056   8.083   1.990  0.3720  0.2996  0.5547
  115MOL0     C15734  11.056   7.963   2.013 -0.4347  1.0148  0.2928
  115MOL0     O15735  11.161   7.881   1.990 -0.4121 -0.5685  0.1425
  115MOL0     C15736  11.269   7.928   1.917 -0.7903 -0.3353 -0.0404
  115MOL0     C15737  11.272   7.939   1.777  0.7417  0.1802  0.2592
  115MOL0     C15738  11.386   7.996   1.717 -0.1951  0.2384  0.4629
  115MOL0     C15739  11.495   8.039   1.785 -0.1327  0.0285  0.2136
  115MOL0     O15740  11.604   8.096   1.723 -0.1955 -0.1071 -0.1185
  115MOL0     C15741  11.641   8.068   1.588  0.2189 -0.3929  0.7514
  115MOL0     C15742  11.781   8.134   1.558 -0.0293 -0.1139  0.5162
  115MOL0     C15743  11.826   8.130   1.421 -0.3062 -0.5310  0.2710
  115MOL0     C15744  11.734   8.207   1.322 -0.0438 -0.1225  0.0422
  115MOL0     C15745  11.774   8.188   1.179 -0.4908  0.4889  0.0705
  115MOL0     C15746  11.698   8.296   1.095 -0.1006  0.9349 -0.3570
  115MOL0     C15747  11.775   8.330   0.967  0.1482  0.4277 -0.6526
  115MOL0     C15748  11.765   8.204   0.866  0.5599  0.6520 -0.4967
  115MOL0     N15749  11.633   8.151   0.819  0.4284  0.1299 -0.9455
  115MOL0     C15750  11.533   8.229   0.760 -0.3533 -0.0806 -0.5122
  115MOL0     C15751  11.435   8.132   0.739  0.0780 -0.2790  0.6655
  115MOL0     C15752  11.310   8.162   0.664 -0.9131  0.1918  0.3850
  115MOL0     C15753  11.190   8.106   0.735 -0.1166  0.1436  0.3425
  115MOL0     C15754  11.058   8.112   0.666 -0.2235  0.3126  0.1539
  115MOL0     C15755  10.943   8.078   0.760 -0.0229  0.2374  0.4466
  115MOL0     O15756  10.822   8.108   0.689 -0.5772 -0.5387 -0.3723
  115MOL0     C15757  10.701   8.111   0.748  0.7506  0.0516 -0.5813
  115MOL0     C15758  10.586   8.130   0.669  0.1452  0.2900 -0.8318
  115MOL0     C15759  10.454   8.131   0.726  0.0112  0.3000  1.4770
  115MOL0     C15760  10.340   8.148   0.623 -0.8438  0.5144 -0.3771
  115MOL0     C15761  10.437   8.109   0.864 -0.9226 -0.5966  0.1653
  115MOL0     C15762  10.307   8.089   0.931 -0.4942  0.4617  1.0023
  115MOL0     O15763  10.199   8.146   0.875 -0.1861  0.5949 -0.4115
  115MOL0     C15764  10.088   8.139   0.955  0.1026  0.2923  0.0381
  115MOL0     C15765  10.057   8.221   1.056  0.3099 -0.1973 -0.3050
  115MOL0     C15766   9.937   8.219   1.124 -0.1110 -0.5004 -0.7741
  115MOL0     C15767   9.843   8.129   1.098  0.0413  0.0969  0.8509
  115MOL0     O15768   9.724   8.137   1.167  0.0971  0.2912  0.1170
  115MOL0     C15769   9.642   8.019   1.156 -0.1705 -0.7705 -0.3353
  115MOL0     C15770   9.562   8.010   1.285 -0.0271 -0.3279  0.1100
  115MOL0     C15771   9.657   7.988   1.408  0.0081  1.0275  0.0337
  115MOL0     C15772   9.572   7.941   1.527  0.0369 -0.8998  0.2389
  115MOL0     C15773   9.632   7.975   1.666 -0.3825 -0.6649 -0.0107
  115MOL0     C15774   9.540   7.944   1.787  0.7660 -0.0712  0.5314
  115MOL0     C15775   9.425   8.049   1.796  0.5428 -0.1966  0.1331
  115MOL0     C15776   9.469   8.194   1.790 -0.4906  0.2863 -0.8769
  115MOL0    Cl15777   9.623   8.207   1.884  0.3012 -0.4113 -0.1045
  115MOL0     C15778   9.871   8.038   0.993  0.1194  0.4313 -0.6749
  115MOL0     C15779   9.992   8.036   0.927  0.0157 -0.4719  0.8414
  115MOL0     O15780  10.301   8.013   1.031 -0.7175 -0.0568  0.5460
  115MOL0     C15781  10.549   8.081   0.939 -0.2889  0.3112 -0.0469
  115MOL0     C15782  10.679   8.093   0.885 -0.3825 -0.3408  0.2612
  115MOL0     N15783  11.486   8.007   0.770  0.5388  1.1659  0.1745
  115MOL0     N15784  11.599   8.023   0.822  0.2903 -0.0480  0.8048
  115MOL0     C15785  11.496   8.016   1.922  0.0153  0.7345  0.2701
  115MOL0     C15786  11.384   7.961   1.983 -0.1513 -0.4008  0.2748
  115MOL0     C15787  10.934   7.911   2.080 -0.0819  0.1330  0.8222
  115MOL0     C15788  10.866   7.802   2.020 -0.9599 -0.7217 -0.1197
  115MOL0     C15789  10.751   7.762   2.077 -0.2455  0.6600  0.8662
  115MOL0     C15790  10.699   7.808   2.194  0.6277 -0.6314 -0.5065
  115MOL0     O15791  10.575   7.762   2.241 -0.7650  0.4191  0.6032
  115MOL0     C15792  10.573   7.709   2.374  0.1517 -0.5123  0.3272
  115MOL0     C15793  10.469   7.779   2.458 -0.0934  0.8276  1.2900
  115MOL0     C15794  10.338   7.796   2.390 -0.4175  0.1882 -0.1847
  115MOL0     C15795  10.270   7.660   2.359 -0.0717 -0.3942 -0.5570
  115MOL0     C15796  10.223   7.599   2.484 -0.2963 -1.3148 -0.3551
  115MOL0     C15797  10.188   7.572   2.596 -0.5403  0.3403  0.6252
  115MOL0     C15798  10.770   7.911   2.257 -0.4756 -0.0829 -0.3631
  115MOL0     C15799  10.893   7.962   2.208  0.3813 -0.3618  0.4746
  115MOL0     C15800  10.968   8.062   2.291 -0.3419  0.4227 -0.2424
  115MOL0     H15801  11.195   7.893   1.716 -1.0834  1.9857  1.0648
  115MOL0     H15802  11.394   8.001   1.609  0.9680  0.7204  0.5535
  115MOL0     H15803  11.570   8.095   1.510  0.7823 -1.1393 -0.0359
  115MOL0     H15804  11.654   7.961   1.570  0.5460 -0.5301  1.7181
  115MOL0     H15805  11.758   8.238   1.583 -2.2615 -0.6989  1.1283
  115MOL0     H15806  11.860   8.090   1.621  1.1558  0.4061 -0.5608
  115MOL0     H15807  11.928   8.170   1.419 -0.6106  0.5871  2.6370
  115MOL0     H15808  11.832   8.028   1.383 -2.7829 -0.9681  0.9044
  115MOL0     H15809  11.629   8.176   1.333 -0.1993 -0.5397 -2.2320
  115MOL0     H15810  11.750   8.315   1.334  1.1148 -0.3424  0.5499
  115MOL0     H15811  11.740   8.093   1.137 -0.3136  0.8044 -0.8236
  115MOL0     H15812  11.883   8.182   1.166 -0.5152  0.1010  0.0542
  115MOL0     H15813  11.595   8.266   1.070 -0.3340  0.1476  1.3347
  115MOL0     H15814  11.691   8.389   1.152  1.6364 -0.0175  1.5517
  115MOL0     H15815  11.881   8.347   0.988  0.3935 -0.1291 -1.3786
  115MOL0     H15816  11.734   8.417   0.916 -1.6466  0.2603  0.4111
  115MOL0     H15817  11.815   8.236   0.774 -0.8289  0.4105 -1.3659
  115MOL0     H15818  11.823   8.118   0.899  0.4843  1.3399  1.6091
  115MOL0     H15819  11.528   8.333   0.732  0.6583 -0.1367 -0.9204
  115MOL0     H15820  11.321   8.125   0.562 -3.2478 -2.6524  1.0470
  115MOL0     H15821  11.301   8.271   0.655  0.6322  0.2316 -1.3771
  115MOL0     H15822  11.209   8.002   0.763  0.9622 -0.2207 -1.5271
  115MOL0     H15823  11.188   8.170   0.824 -1.8583 -1.1124  1.2842
  115MOL0     H15824  11.046   8.216   0.635  0.4058  0.0948 -0.8440
  115MOL0     H15825  11.055   8.034   0.589  1.9176  1.9525 -1.7206
  115MOL0     H15826  10.944   7.970   0.782 -5.2531  0.2188  2.0450
  115MOL0     H15827  10.958   8.143   0.846  0.3280 -0.1313  0.6704
  115MOL0     H15828  10.602   8.159   0.566  1.3341  0.8761 -0.5098
  115MOL0     H15829  10.255   8.087   0.653  1.8055 -2.5131  1.6735
  115MOL0     H15830  10.377   8.113   0.526  0.5373 -1.3539  0.7367
  115MOL0     H15831  10.313   8.252   0.604  4.0361  1.6783 -2.6456
  115MOL0     H15832  10.128   8.296   1.091 -2.4950  1.4379  2.3433
  115MOL0     H15833   9.924   8.285   1.209  1.3789 -1.4282  0.2215
  115MOL0     H15834   9.584   8.040   1.065  0.3500 -1.0764 -0.7403
  115MOL0     H15835   9.701   7.928   1.145 -1.0497 -1.0536 -4.4430
  115MOL0     H15836   9.511   8.106   1.286 -2.0026 -1.3380  0.3784
  115MOL0     H15837   9.496   7.923   1.278 -0.7958  0.2054  0.6475
  115MOL0     H15838   9.702   8.082   1.443  0.8908  0.4332  0.5416
  115MOL0     H15839   9.715   7.900   1.380 -0.3754  0.0380  2.1633
  115MOL0     H15840   9.557   7.833   1.520 -0.4990 -1.0510  2.6516
  115MOL0     H15841   9.469   7.978   1.521 -0.4533 -2.0460  1.0718
  115MOL0     H15842   9.729   7.927   1.680 -0.5593 -0.7587  0.9090
  115MOL0     H15843   9.660   8.081   1.668  0.0054 -0.7105 -1.4802
  115MOL0     H15844   9.610   7.954   1.870  1.4566 -0.2906 -0.0197
  115MOL0     H15845   9.515   7.837   1.782  1.4257 -0.1849 -0.7779
  115MOL0     H15846   9.376   8.033   1.893  1.3931  0.8593  0.7586
  115MOL0     H15847   9.350   8.043   1.716 -0.3203  0.1213  0.8968
  115MOL0     H15848   9.394   8.249   1.847 -0.2835  1.5250 -1.7639
  115MOL0     H15849   9.473   8.235   1.688 -0.5915  1.9018 -0.2606
  115MOL0     H15850   9.800   7.967   0.953  0.9258  0.0617 -1.4873
  115MOL0     H15851  10.016   7.962   0.852 -2.2584  1.2040 -1.7411
  115MOL0     H15852  10.529   8.034   1.035 -2.3337  0.0864 -0.5282
  115MOL0     H15853  10.762   8.082   0.954 -2.3469 -0.0381  2.8215
  115MOL0     H15854  11.586   8.035   1.978  3.2662 -2.6693 -3.2247
  115MOL0     H15855  11.384   7.959   2.092 -0.2641 -1.6123  0.2624
  115MOL0     H15856  10.912   7.756   1.933  1.3556  1.8530 -0.3971
  115MOL0     H15857  10.690   7.687   2.027  1.5895 -0.7241  0.5587
  115MOL0     H15858  10.547   7.603   2.367 -1.4598 -0.0411 -1.7544
  115MOL0     H15859  10.670   7.720   2.424  0.9175  0.0494 -1.2172
  115MOL0     H15860  10.495   7.882   2.485  0.3551  0.9490  0.4290
  115MOL0     H15861  10.462   7.722   2.551 -1.6246 -1.9653 -0.4000
  115MOL0     H15862  10.269   7.867   2.435 -1.7816 -0.3516 -1.3244
  115MOL0     H15863  10.363   7.834   2.290  0.5770  0.7084  0.2539
  115MOL0     H15864  10.331   7.584   2.310  0.8690  1.9827 -3.3954
  115MOL0     H15865  10.186   7.669   2.289 -0.3865  1.1318 -0.0328
  115MOL0     H15866  10.152   7.528   2.686  1.0356  2.0417  2.1692
  115MOL0     H15867  10.735   7.962   2.347 -0.7392  0.5483 -0.8151
  115MOL0     H15868  10.944   8.040   2.396 -0.3395  0.0347 -0.3199
  115MOL0     H15869  11.075   8.050   2.272 -0.3447  0.1024 -0.0818
  115MOL0     H15870  10.953   8.168   2.269  0.3135  0.5112 -0.2849
  116MOL0     O15871   5.374   9.633   5.021  0.2307 -0.0440 -0.1509
  116MOL0     C15872   5.380   9.537   4.944  0.0607  0.3558 -0.2315
  116MOL0     O15873   5.494   9.487   4.882  0.6154  0.0593 -0.2459
  116MOL0     C15874   5.607   9.561   4.908 -0.4995 -0.3557  0.3900
  116MOL0     C15875   5.677   9.611   4.800  0.6218 -0.3781 -0.2725
  116MOL0     C15876   5.790   9.690   4.821 -0.5685 -0.4899 -0.5174
  116MOL0     C15877   5.832   9.705   4.955  0.2307  0.6778 -0.5826
  116MOL0     O15878   5.935   9.791   4.986  0.5337  0.4110 -0.1212
  116MOL0     C15879   5.907   9.928   4.984  0.6118 -0.1475  0.0187
  116MOL0     C15880   6.037   9.997   5.033  0.5027 -0.4399 -0.6111
  116MOL0     C15881   6.031  10.153   5.046 -0.6841  0.5216 -0.1942
  116MOL0     C15882   6.098  10.212   4.915 -0.0954  0.6874 -0.1617
  116MOL0     C15883   6.090  10.368   4.897 -0.1874 -0.1735 -0.1070
  116MOL0     C15884   6.146  10.450   5.013  0.1229 -0.5803 -0.0274
  116MOL0     C15885   6.296  10.420   5.038  0.3497  0.0595 -0.7908
  116MOL0     C15886   6.383  10.456   4.922  0.3902  0.6857 -0.3747
  116MOL0     N15887   6.520  10.491   4.972  0.5882 -0.0282  0.7554
  116MOL0     C15888   6.565  10.617   5.005  0.4273  0.0026  0.0263
  116MOL0     C15889   6.695  10.592   5.049  1.2178 -0.1721 -0.5184
  116MOL0     C15890   6.783  10.706   5.094 -0.3647 -0.3873  0.8646
  116MOL0     C15891   6.912  10.672   5.176  0.7035  0.6201  0.2746
  116MOL0     C15892   6.998  10.791   5.208  0.9119 -0.2837 -0.5797
  116MOL0     C15893   7.130  10.742   5.260  0.3045 -0.1211 -0.2041
  116MOL0     O15894   7.200  10.861   5.302 -0.1959  0.5156  0.5042
  116MOL0     C15895   7.309  10.896   5.226 -0.1156 -0.1012  0.3049
  116MOL0     C15896   7.315  10.918   5.090  0.7447  0.1242  0.1914
  116MOL0     C15897   7.429  10.949   5.024  0.5992  0.1490  0.1813
  116MOL0     C15898   7.406  10.983   4.874 -0.1846  0.2872 -0.1575
  116MOL0     C15899   7.548  10.952   5.095  0.2350 -0.2416  0.8130
  116MOL0     C15900   7.676  10.976   5.016 -0.0535 -0.4388 -0.5410
  116MOL0     O15901   7.673  11.052   4.903 -0.4778 -0.3684 -0.2191
  116MOL0     C15902   7.786  11.089   4.836 -1.1078  0.2478 -0.3612
  116MOL0     C15903   7.874  11.183   4.883  0.5165 -0.3888 -0.9810
  116MOL0     C15904   7.985  11.220   4.809 -0.0153  0.5728 -0.3056
  116MOL0     C15905   8.016  11.161   4.687  1.1211 -0.0372  0.0353
  116MOL0     O15906   8.126  11.210   4.614 -0.1270 -0.2890 -0.0468
  116MOL0     C15907   8.190  11.120   4.525 -1.0538 -1.1143  0.3256
  116MOL0     C15908   8.327  11.180   4.493 -0.0978 -0.4452 -0.0680
  116MOL0     C15909   8.417  11.094   4.417  0.2384 -0.1625 -0.7724
  116MOL0     C15910   8.523  11.182   4.340 -0.2579  0.4527 -0.5039
  116MOL0     C15911   8.592  11.091   4.235 -0.2886  0.1508  0.7338
  116MOL0     C15912   8.704  11.177   4.178  0.7630  0.2949  0.3885
  116MOL0     C15913   8.801  11.083   4.104 -0.0954  0.8449 -0.2672
  116MOL0     C15914   8.924  11.168   4.064 -0.4086  0.5925 -0.7793
  116MOL0    Cl15915   8.873  11.279   3.919 -0.1000  0.0023  0.0635
  116MOL0     C15916   7.927  11.060   4.640  0.5438 -0.6073 -0.5785
  116MOL0     C15917   7.809  11.032   4.707 -0.6737  1.2342  0.3137
  116MOL0     O15918   7.779  10.937   5.074  1.2475 -0.4307  0.8901
  116MOL0     C15919   7.549  10.926   5.227  0.0106  0.1608 -0.2903
  116MOL0     C15920   7.432  10.885   5.294 -0.6397  0.6660 -0.8034
  116MOL0     N15921   6.724  10.460   5.015  0.5470  0.2097 -0.3056
  116MOL0     N15922   6.620  10.399   4.967 -0.2690 -0.0203 -0.3842
  116MOL0     C15923   5.756   9.656   5.072 -1.1375  0.2222  0.3448
  116MOL0     C15924   5.651   9.576   5.041 -0.3749  0.4030 -0.3921
  116MOL0     C15925   5.258   9.462   4.904 -0.0597 -0.3518 -0.0478
  116MOL0     C15926   5.250   9.409   4.773 -0.5923 -0.6367 -1.0402
  116MOL0     C15927   5.126   9.367   4.721  0.8045  0.4156  0.1981
  116MOL0     C15928   5.007   9.363   4.797 -0.5452 -0.1568  0.8777
  116MOL0     O15929   4.891   9.308   4.750  0.9799  0.0726  0.5873
  116MOL0     C15930   4.868   9.292   4.611  0.0505  0.1189 -0.2770
  116MOL0     C15931   4.721   9.287   4.586  0.3346  0.9910  0.0470
  116MOL0     C15932   4.649   9.180   4.659 -0.1465 -0.8197 -0.1125
  116MOL0     C15933   4.682   9.038   4.616 -0.4302  0.5192  0.1498
  116MOL0     C15934   4.599   8.943   4.690  0.3537  0.2384  0.4025
  116MOL0     C15935   4.529   8.854   4.748  0.0209 -0.3474  0.2049
  116MOL0     C15936   5.017   9.401   4.935 -0.2804 -0.8806  0.3851
  116MOL0     C15937   5.140   9.464   4.986  0.7379  0.2409 -0.4161
  116MOL0     C15938   5.131   9.509   5.131  0.7414 -0.1142 -0.8760
  116MOL0     H15939   5.627   9.608   4.704  1.6584  0.4516 -0.8591
  116MOL0     H15940   5.849   9.746   4.749 -0.7501 -0.3631 -0.5705
  116MOL0     H15941   5.831   9.957   5.057  0.9349  1.1599 -0.1402
  116MOL0     H15942   5.879   9.963   4.885 -1.5182 -0.4332  0.4636
  116MOL0     H15943   6.075   9.944   5.121 -0.0920 -1.2293 -0.8135
  116MOL0     H15944   6.109   9.968   4.956 -0.0312  0.2413 -1.3868
  116MOL0     H15945   5.927  10.185   5.048 -1.0343 -0.6029  0.2395
  116MOL0     H15946   6.086  10.189   5.134 -2.7699  0.0230  1.3911
  116MOL0     H15947   6.204  10.185   4.919  0.1056  1.5543  0.5675
  116MOL0     H15948   6.052  10.164   4.828 -0.8277  0.8223  0.1506
  116MOL0     H15949   5.985  10.400   4.895 -0.6710 -1.6669 -0.3684
  116MOL0     H15950   6.132  10.401   4.801 -0.9808 -1.9653 -1.1350
  116MOL0     H15951   6.144  10.555   4.984 -0.8257  0.3749  3.0742
  116MOL0     H15952   6.075  10.438   5.096 -1.2734 -0.8116 -1.2103
  116MOL0     H15953   6.317  10.322   5.081 -0.9726 -0.2043 -0.7301
  116MOL0     H15954   6.332  10.490   5.114  1.2271 -0.0434 -1.0966
  116MOL0     H15955   6.386  10.378   4.846 -4.2138  2.3174 -2.5966
  116MOL0     H15956   6.345  10.545   4.871 -0.9481 -0.3746 -1.2820
  116MOL0     H15957   6.511  10.711   5.007 -0.6303 -0.5116 -1.5244
  116MOL0     H15958   6.723  10.778   5.151 -0.7915 -1.0761  1.3102
  116MOL0     H15959   6.831  10.739   5.002 -0.3861  0.6712  1.2240
  116MOL0     H15960   6.877  10.620   5.266  0.9398 -3.5865 -1.7950
  116MOL0     H15961   6.962  10.587   5.128 -3.0250 -1.4923 -0.3110
  116MOL0     H15962   7.020  10.840   5.113  0.6562 -1.6280 -1.3497
  116MOL0     H15963   6.951  10.861   5.278 -0.3378  1.2581 -2.8466
  116MOL0     H15964   7.108  10.677   5.345 -0.7893  0.4941  0.0086
  116MOL0     H15965   7.188  10.689   5.184  3.1013 -0.4293  1.9643
  116MOL0     H15966   7.221  10.907   5.037  2.2273 -1.5938 -2.2745
  116MOL0     H15967   7.301  10.972   4.845 -0.1594  2.6311 -1.4386
  116MOL0     H15968   7.482  10.926   4.821  1.5463  0.9430  1.5163
  116MOL0     H15969   7.423  11.090   4.856  0.9988  0.7380  2.9929
  116MOL0     H15970   7.845  11.222   4.980  0.1983  1.4450 -1.7705
  116MOL0     H15971   8.051  11.298   4.847  1.8983 -1.0394 -0.1915
  116MOL0     H15972   8.190  11.027   4.583  1.4627 -0.6038  1.2900
  116MOL0     H15973   8.133  11.095   4.436 -1.4331  1.8863 -0.3742
  116MOL0     H15974   8.307  11.271   4.437 -0.2052 -0.1485  0.4484
  116MOL0     H15975   8.364  11.212   4.591  2.0833  2.7175 -1.7484
  116MOL0     H15976   8.359  11.040   4.342  0.0313 -2.7344  1.0891
  116MOL0     H15977   8.468  11.017   4.476 -0.7265  1.0763  1.8677
  116MOL0     H15978   8.594  11.219   4.415  0.9451 -0.0434 -1.3486
  116MOL0     H15979   8.471  11.270   4.303 -0.7955 -0.4792 -2.0639
  116MOL0     H15980   8.631  11.002   4.285 -1.6283 -1.6539 -1.2354
  116MOL0     H15981   8.525  11.047   4.160  2.2940 -2.7857 -0.0774
  116MOL0     H15982   8.752  11.237   4.256  1.5153  0.3481 -0.1073
  116MOL0     H15983   8.658  11.248   4.109  3.0197  0.8784 -0.5999
  116MOL0     H15984   8.741  11.035   4.026 -0.5437 -0.2101  0.6885
  116MOL0     H15985   8.834  11.007   4.176 -0.4701  2.3641  1.5699
  116MOL0     H15986   9.001  11.098   4.030  0.0120  0.0746  1.0916
  116MOL0     H15987   8.960  11.225   4.151  0.1685  1.1337 -1.3670
  116MOL0     H15988   7.938  11.005   4.547  0.8571 -1.9602  0.2249
  116MOL0     H15989   7.733  10.968   4.665 -1.3110 -0.3401  3.5494
  116MOL0     H15990   7.648  10.933   5.271  1.4367 -1.6809 -2.9718
  116MOL0     H15991   7.440  10.866   5.401 -2.4001  0.6319 -0.6524
  116MOL0     H15992   5.792   9.680   5.171  1.7172  0.6018 -0.6808
  116MOL0     H15993   5.607   9.513   5.118  1.1709  0.2507  0.4077
  116MOL0     H15994   5.334   9.401   4.705 -0.0366 -1.4849 -0.2728
  116MOL0     H15995   5.112   9.350   4.615 -0.9066  3.0357 -0.0949
  116MOL0     H15996   4.919   9.377   4.563  3.9176 -0.9903  1.4688
  116MOL0     H15997   4.909   9.197   4.575 -4.1876 -2.2066  0.4036
  116MOL0     H15998   4.704   9.278   4.479 -1.1965  1.4384  0.2364
  116MOL0     H15999   4.673   9.382   4.611  0.3003  1.3901 -1.4768
  116MOL0     H16000   4.662   9.186   4.767  0.9915 -1.8484 -0.1634
  116MOL0     H16001   4.544   9.199   4.637  0.0427  3.2202  1.6749
  116MOL0     H16002   4.788   9.014   4.634 -0.4818  0.4015  0.3059
  116MOL0     H16003   4.658   9.014   4.512 -0.0534 -3.4209  0.7954
  116MOL0     H16004   4.467   8.788   4.806 -0.8026  1.1620  1.1181
  116MOL0     H16005   4.924   9.397   4.990 -1.6960  3.9146 -1.1537
  116MOL0     H16006   5.144   9.618   5.135 -1.4305  0.2081 -1.3703
  116MOL0     H16007   5.035   9.490   5.178  1.4272 -0.2960  0.5068
  116MOL0     H16008   5.207   9.461   5.194 -1.8011 -4.3865 -0.6814
  117MOL0     O16009   1.900   1.487   8.482  0.5538 -0.7549  0.0016
  117MOL0     C16010   1.827   1.412   8.415  0.2293 -0.2968 -0.3562
  117MOL0     O16011   1.876   1.332   8.310 -0.1414 -0.6089 -0.2512
  117MOL0     C16012   2.011   1.332   8.297  0.5599 -0.2664  0.4996
  117MOL0     C16013   2.088   1.230   8.365  0.0598 -0.2213 -0.5332
  117MOL0     C16014   2.215   1.208   8.333 -0.2297  0.3430 -0.1868
  117MOL0     C16015   2.279   1.285   8.233  0.4403  0.4536 -1.0354
  117MOL0     O16016   2.411   1.265   8.197  0.4802  0.0391 -0.2769
  117MOL0     C16017   2.467   1.131   8.203  0.2963  0.2660  0.0827
  117MOL0     C16018   2.618   1.155   8.187  0.1920  0.3510 -0.1615
  117MOL0     C16019   2.675   1.208   8.317 -0.7249  0.6674  0.1017
  117MOL0     C16020   2.826   1.176   8.328 -0.5245  0.3515 -0.8345
  117MOL0     C16021   2.885   1.316   8.376 -0.0331  0.1206 -0.3263
  117MOL0     C16022   3.031   1.293   8.411 -0.4853 -0.0268 -0.0499
  117MOL0     C16023   3.121   1.399   8.359  0.6935 -0.6370 -1.0142
  117MOL0     C16024   3.262   1.386   8.415 -0.7080 -0.3796 -0.1581
  117MOL0     N16025   3.359   1.331   8.329  1.0606  0.0542  0.0038
  117MOL0     C16026   3.407   1.203   8.346 -0.5560 -0.3318  0.2066
  117MOL0     C16027   3.517   1.195   8.264  0.2323 -0.9668  0.5968
  117MOL0     C16028   3.579   1.059   8.246 -0.0555 -0.1353 -0.0127
  117MOL0     C16029   3.736   1.064   8.284 -0.5147 -0.4089  1.1472
  117MOL0     C16030   3.829   1.110   8.170  0.9630  0.1143 -0.4177
  117MOL0     C16031   3.973   1.096   8.216  1.7536  0.2289  0.1074
  117MOL0     O16032   4.040   1.094   8.091  0.5364  0.0822 -0.0905
  117MOL0     C16033   4.170   1.125   8.071  0.7740 -0.3696  0.2507
  117MOL0     C16034   4.278   1.113   8.159 -0.3953 -0.2883 -0.3542
  117MOL0     C16035   4.419   1.114   8.121  1.1350  0.4058 -0.8217
  117MOL0     C16036   4.515   1.097   8.244  0.4291 -0.4362  0.9567
  117MOL0     C16037   4.447   1.146   7.989 -1.1478 -0.2394  0.0622
  117MOL0     C16038   4.585   1.162   7.936  0.1378 -0.3329 -0.2793
  117MOL0     O16039   4.688   1.110   8.010  0.0728  0.3310 -0.0083
  117MOL0     C16040   4.811   1.092   7.951  0.5058 -0.3423 -0.2016
  117MOL0     C16041   4.886   1.196   7.891 -0.2375 -0.4723  0.0727
  117MOL0     C16042   5.016   1.166   7.850  0.4196 -0.1341  0.6324
  117MOL0     C16043   5.080   1.049   7.887  0.1345  0.1622  0.8284
  117MOL0     O16044   5.213   1.037   7.865 -0.3291  0.7257 -0.5912
  117MOL0     C16045   5.289   0.935   7.940 -0.0467 -0.8417  0.4332
  117MOL0     C16046   5.426   0.946   7.870 -0.1940  0.0600 -0.5727
  117MOL0     C16047   5.543   1.011   7.944 -0.1559  0.4889  0.6559
  117MOL0     C16048   5.669   1.018   7.851  0.2569 -0.0263  0.2378
  117MOL0     C16049   5.785   1.104   7.923  0.8091 -0.4463 -0.4376
  117MOL0     C16050   5.906   1.129   7.830  0.2245 -0.3316  0.2666
  117MOL0     C16051   5.992   1.000   7.816  0.7130  0.3399 -0.2142
  117MOL0     C16052   6.081   0.994   7.945 -0.3870  0.7173 -0.1280
  117MOL0    Cl16053   6.209   0.877   7.934 -0.7308  0.3587  0.2317
  117MOL0     C16054   5.003   0.951   7.940 -0.8075  0.1999  0.0909
  117MOL0     C16055   4.863   0.969   7.966 -0.5655  0.1180 -0.4451
  117MOL0     O16056   4.604   1.213   7.819  0.3470  0.7696  0.6056
  117MOL0     C16057   4.345   1.174   7.906 -0.2001  0.0206  0.2546
  117MOL0     C16058   4.209   1.164   7.939 -0.3370 -0.0430  0.6996
  117MOL0     N16059   3.535   1.319   8.200 -0.2787 -0.2445  0.1880
  117MOL0     N16060   3.435   1.394   8.235 -0.0327 -0.2358 -0.3966
  117MOL0     C16061   2.209   1.387   8.179  0.4077 -1.1214  0.4347
  117MOL0     C16062   2.076   1.421   8.212 -0.4548 -0.1162  0.4652
  117MOL0     C16063   1.682   1.414   8.440  0.7699 -0.0588 -0.4142
  117MOL0     C16064   1.610   1.298   8.416  0.4055 -0.6483  0.0542
  117MOL0     C16065   1.474   1.287   8.424  1.0753 -0.0642 -0.6128
  117MOL0     C16066   1.402   1.398   8.460  0.2842  0.3769 -0.2558
  117MOL0     O16067   1.261   1.404   8.462  0.0889  0.4246 -0.1216
  117MOL0     C16068   1.194   1.327   8.359 -0.3194 -0.0274  0.1711
  117MOL0     C16069   1.053   1.367   8.331  0.7550  0.5743  0.4093
  117MOL0     C16070   0.954   1.290   8.426 -0.0833 -0.8737 -0.5345
  117MOL0     C16071   0.941   1.370   8.558  0.2796  0.6898 -0.9732
  117MOL0     C16072   0.865   1.490   8.547 -1.3385  0.8383 -0.5416
  117MOL0     C16073   0.824   1.601   8.534 -0.8088 -0.8863  0.0885
  117MOL0     C16074   1.473   1.511   8.500 -0.2572 -0.1872 -0.8443
  117MOL0     C16075   1.620   1.523   8.500  0.6569 -0.3950  0.0011
  117MOL0     C16076   1.686   1.651   8.550  0.1432 -0.7511 -0.2339
  117MOL0     H16077   2.041   1.166   8.438  0.2018 -0.5688 -0.7434
  117MOL0     H16078   2.265   1.129   8.387 -1.8596 -1.3500 -1.0396
  117MOL0     H16079   2.432   1.074   8.117  1.7820 -3.1541  1.5614
  117MOL0     H16080   2.437   1.078   8.294 -2.0540 -0.1004 -0.8388
  117MOL0     H16081   2.665   1.062   8.153  2.0356  1.0703  0.3132
  117MOL0     H16082   2.627   1.228   8.106 -1.0186  0.5584 -0.1367
  117MOL0     H16083   2.644   1.313   8.325 -2.9414  0.0129  0.6256
  117MOL0     H16084   2.616   1.163   8.397  1.2478 -0.5939  0.9297
  117MOL0     H16085   2.833   1.106   8.412 -3.2939  0.9442  0.0161
  117MOL0     H16086   2.871   1.150   8.232  0.1457 -0.0025 -0.4272
  117MOL0     H16087   2.833   1.362   8.461  1.2646 -0.3200  0.7449
  117MOL0     H16088   2.875   1.386   8.293  0.8731  1.3762  0.5802
  117MOL0     H16089   3.043   1.289   8.520 -0.2880 -2.1603 -0.1145
  117MOL0     H16090   3.067   1.193   8.386 -2.4871 -0.8429  0.1419
  117MOL0     H16091   3.094   1.501   8.388 -0.5746 -0.8890 -1.2462
  117MOL0     H16092   3.099   1.394   8.252 -0.8405  2.4412 -0.9417
  117MOL0     H16093   3.296   1.488   8.433  1.9775 -0.9864 -1.2859
  117MOL0     H16094   3.266   1.339   8.514  1.1342  2.1062  1.0670
  117MOL0     H16095   3.377   1.114   8.401  2.0423 -1.7399 -0.5026
  117MOL0     H16096   3.567   1.032   8.141  1.4186  2.0562 -0.8047
  117MOL0     H16097   3.528   0.986   8.309  0.5690  0.5299  1.3073
  117MOL0     H16098   3.752   1.126   8.373 -2.7528 -0.2864  1.5233
  117MOL0     H16099   3.756   0.958   8.302 -0.3900 -1.2342 -2.9885
  117MOL0     H16100   3.796   1.056   8.081 -1.8638 -3.4917  2.5086
  117MOL0     H16101   3.807   1.216   8.150  0.9905  0.5542  1.6959
  117MOL0     H16102   4.002   1.177   8.283  3.0261 -0.0796 -0.0468
  117MOL0     H16103   3.989   1.010   8.282 -0.0953  0.9392  1.5612
  117MOL0     H16104   4.241   1.099   8.261 -2.7266 -0.4233 -1.1494
  117MOL0     H16105   4.574   1.189   8.249  1.1934 -0.4749 -3.4044
  117MOL0     H16106   4.582   1.012   8.228  0.8812  0.3013 -1.2982
  117MOL0     H16107   4.460   1.087   8.339 -1.9414  1.7636 -0.0654
  117MOL0     H16108   4.841   1.294   7.881  3.7890  1.3129 -2.9049
  117MOL0     H16109   5.085   1.238   7.807 -0.5536 -0.8293 -2.2927
  117MOL0     H16110   5.309   0.952   8.046 -2.0814 -1.6576  0.9863
  117MOL0     H16111   5.240   0.838   7.949 -0.5931 -0.7297 -1.0634
  117MOL0     H16112   5.454   0.848   7.832  0.1771  0.6929 -2.0170
  117MOL0     H16113   5.423   1.010   7.781  3.7439 -0.3811 -1.1881
  117MOL0     H16114   5.565   0.953   8.034 -1.1781 -1.1648 -0.1371
  117MOL0     H16115   5.522   1.116   7.969 -1.4491 -0.3007  3.1336
  117MOL0     H16116   5.656   1.074   7.758  2.8283  0.9107  0.3441
  117MOL0     H16117   5.702   0.916   7.832  3.7013  1.0561 -0.3156
  117MOL0     H16118   5.746   1.205   7.941  1.0583 -0.9416  3.7331
  117MOL0     H16119   5.826   1.059   8.014  5.6778 -2.6644 -3.3230
  117MOL0     H16120   5.971   1.203   7.877  2.2324 -2.6981  1.4261
  117MOL0     H16121   5.873   1.170   7.734  1.3706  0.5969  0.2521
  117MOL0     H16122   6.053   1.008   7.726 -1.7812 -0.5945 -2.1099
  117MOL0     H16123   5.933   0.909   7.803 -1.0975  1.3996  0.2753
  117MOL0     H16124   6.017   0.970   8.030 -0.6626 -2.8931 -1.1740
  117MOL0     H16125   6.133   1.089   7.962  1.4829 -0.1812 -0.4533
  117MOL0     H16126   5.045   0.853   7.961 -2.0070 -0.4862 -0.5901
  117MOL0     H16127   4.802   0.899   8.022  0.7018  0.6708  1.7356
  117MOL0     H16128   4.371   1.198   7.803  0.2845 -1.2463  0.0652
  117MOL0     H16129   4.140   1.195   7.861 -0.2115  1.1496  1.0434
  117MOL0     H16130   2.235   1.458   8.100 -2.9878  2.7592  2.4436
  117MOL0     H16131   2.020   1.496   8.157 -0.5280 -1.0416 -0.7523
  117MOL0     H16132   1.672   1.214   8.386  1.6332  0.6555 -1.2148
  117MOL0     H16133   1.421   1.198   8.391 -2.9296  1.6726  0.5818
  117MOL0     H16134   1.246   1.340   8.264  0.0267 -1.1112  0.2000
  117MOL0     H16135   1.195   1.221   8.384  0.4203  0.2803  1.5886
  117MOL0     H16136   1.019   1.329   8.234 -0.8911 -2.4216  2.0212
  117MOL0     H16137   1.031   1.474   8.323 -0.3186  0.2726 -0.8982
  117MOL0     H16138   0.856   1.278   8.379 -2.5490  1.9090  3.2493
  117MOL0     H16139   0.991   1.191   8.451  3.3018  1.2471  4.3907
  117MOL0     H16140   1.041   1.402   8.589  0.5453 -1.6613  0.8140
  117MOL0     H16141   0.899   1.309   8.638 -0.2135  0.9574 -1.0266
  117MOL0     H16142   0.782   1.699   8.526 -1.7537 -1.0876  1.9915
  117MOL0     H16143   1.419   1.598   8.537 -1.2002 -0.0361 -2.4788
  117MOL0     H16144   1.754   1.639   8.635  1.5476  1.9430 -0.8755
  117MOL0     H16145   1.758   1.691   8.478 -0.9705 -0.4876 -1.2415
  117MOL0     H16146   1.617   1.732   8.578 -0.0474  0.1010 -2.9033
  118MOL0     O16147   5.193   4.644  10.191 -0.4867 -0.0115 -0.0262
  118MOL0     C16148   5.218   4.732  10.272  0.1805  1.2068 -0.1864
  118MOL0     O16149   5.339   4.771  10.294 -0.5713 -0.5913  0.8694
  118MOL0     C16150   5.436   4.733  10.213  0.6944 -0.2799  0.0033
  118MOL0     C16151   5.540   4.652  10.267  0.0074  0.1067  0.4471
  118MOL0     C16152   5.640   4.609  10.184 -0.1782  0.0242 -0.4283
  118MOL0     C16153   5.643   4.640  10.047 -0.0019  0.1119 -0.8624
  118MOL0     O16154   5.739   4.600   9.957 -0.5187 -0.5042 -0.1028
  118MOL0     C16155   5.811   4.478   9.997 -0.4382  0.3367  0.2488
  118MOL0     C16156   5.885   4.422   9.870  0.7118 -0.1358  0.4481
  118MOL0     C16157   5.772   4.364   9.781  0.6550 -0.3524 -0.7075
  118MOL0     C16158   5.704   4.236   9.843 -0.3579  0.1001 -0.0719
  118MOL0     C16159   5.799   4.119   9.883 -0.7801  0.6856 -0.1570
  118MOL0     C16160   5.906   4.068   9.773  0.2594 -0.3163 -0.0471
  118MOL0     C16161   5.984   3.936   9.809  1.1097 -0.4256 -0.0199
  118MOL0     C16162   6.043   3.943   9.947 -0.2921  0.1404  0.1415
  118MOL0     N16163   6.159   4.032   9.962 -0.4764  0.3867  0.0405
  118MOL0     C16164   6.159   4.147  10.036  0.6760  0.4722  0.7827
  118MOL0     C16165   6.291   4.185  10.038 -0.3365  0.3033 -0.0620
  118MOL0     C16166   6.359   4.292  10.122 -0.5684 -0.5051 -0.0651
  118MOL0     C16167   6.503   4.274  10.150 -0.5459  0.2448 -0.4899
  118MOL0     C16168   6.557   4.401  10.220  0.0349  0.3677  0.5304
  118MOL0     C16169   6.688   4.376  10.300 -0.1186 -0.4709 -0.1220
  118MOL0     O16170   6.776   4.307  10.220  0.7099 -0.3269  0.2122
  118MOL0     C16171   6.903   4.276  10.274 -0.0864  0.5120 -0.7795
  118MOL0     C16172   7.007   4.251  10.182 -0.5727 -0.1841 -0.3146
  118MOL0     C16173   7.141   4.238  10.209 -0.5721  0.4167 -0.5212
  118MOL0     C16174   7.241   4.221  10.097 -0.9048 -0.1389 -0.3676
  118MOL0     C16175   7.170   4.223  10.349 -0.9167  1.0089 -0.8302
  118MOL0     C16176   7.306   4.207  10.409  0.1955  0.3199 -0.3713
  118MOL0     O16177   7.404   4.166  10.323  0.3748 -0.2218  0.0517
  118MOL0     C16178   7.526   4.140  10.394  0.2578 -0.1650  0.2964
  118MOL0     C16179   7.553   4.006  10.428 -0.4800  0.0767 -0.4961
  118MOL0     C16180   7.662   3.975  10.506 -0.0959  0.1740  0.9570
  118MOL0     C16181   7.748   4.067  10.566  0.2191  0.3074  0.8721
  118MOL0     O16182   7.842   4.031  10.652 -0.1701  0.1142 -0.7941
  118MOL0     C16183   7.976   4.088  10.628 -0.0858  0.3204  0.7598
  118MOL0     C16184   8.069   3.979  10.652 -0.4695 -0.1836 -0.1708
  118MOL0     C16185   8.212   3.998  10.594  0.1309  0.1148 -0.3766
  118MOL0     C16186   8.317   3.897  10.635  0.2313 -0.2326 -0.0934
  118MOL0     C16187   8.313   3.874  10.787 -0.0827 -0.6409  0.0242
  118MOL0     C16188   8.379   3.990  10.860  0.0441 -0.7458  0.3998
  118MOL0     C16189   8.519   4.042  10.805  0.5513  0.1788 -0.0215
  118MOL0     C16190   8.586   4.134  10.909  0.5846  0.0926 -1.0175
  118MOL0    Cl16191   8.503   4.293  10.954  0.2338  0.2282 -0.1667
  118MOL0     C16192   7.723   4.203  10.527 -0.4968 -0.6438  0.0063
  118MOL0     C16193   7.614   4.233  10.448  0.4550  0.4677  0.9780
  118MOL0     O16194   7.329   4.233  10.527 -0.0345 -0.4149  0.4033
  118MOL0     C16195   7.067   4.232  10.448 -0.4581 -0.6755  0.6599
  118MOL0     C16196   6.930   4.262  10.406  0.2756 -0.3835  0.5437
  118MOL0     N16197   6.361   4.092   9.959 -0.0672 -0.3305 -0.1398
  118MOL0     N16198   6.283   3.996   9.938  0.5692  0.2798  1.1898
  118MOL0     C16199   5.547   4.718   9.998 -0.2348  0.0395 -0.3007
  118MOL0     C16200   5.443   4.763  10.084  1.0050  0.5235  0.2275
  118MOL0     C16201   5.117   4.793  10.363 -0.3334 -0.3313  0.6975
  118MOL0     C16202   5.134   4.931  10.398  0.3866  0.5561  0.4520
  118MOL0     C16203   5.036   4.997  10.467  0.6238 -0.0332 -1.0255
  118MOL0     C16204   4.915   4.932  10.512 -0.3666 -0.0226  0.0812
  118MOL0     O16205   4.827   5.004  10.594  0.0259  0.1238  0.3811
  118MOL0     C16206   4.790   5.134  10.553  0.2010  0.8684  0.3436
  118MOL0     C16207   4.638   5.171  10.593 -0.3568  0.6372  0.8438
  118MOL0     C16208   4.546   5.059  10.530 -0.4891  0.0037  0.0861
  118MOL0     C16209   4.406   5.063  10.587 -0.6763  0.0393  0.0850
  118MOL0     C16210   4.335   5.188  10.563 -0.5413 -0.8096 -0.1086
  118MOL0     C16211   4.267   5.289  10.541  0.0460  0.3434  0.1480
  118MOL0     C16212   4.903   4.795  10.490 -0.1885 -0.5924  0.3891
  118MOL0     C16213   5.000   4.730  10.405  0.1548  0.4935 -0.3570
  118MOL0     C16214   4.974   4.588  10.375 -0.7695 -0.0049  0.3477
  118MOL0     H16215   5.533   4.606  10.365  2.0460  0.3930  0.7765
  118MOL0     H16216   5.723   4.547  10.216  0.6070  0.9888 -0.5599
  118MOL0     H16217   5.747   4.404  10.045  1.5872 -0.9404  1.1050
  118MOL0     H16218   5.885   4.508  10.071  0.0545 -0.0112 -0.0981
  118MOL0     H16219   5.934   4.502   9.814 -0.6538  0.1825 -0.3518
  118MOL0     H16220   5.965   4.350   9.888  0.5275  0.3310  3.7903
  118MOL0     H16221   5.693   4.434   9.753  0.8713  1.1865  2.1087
  118MOL0     H16222   5.816   4.332   9.686 -1.5861 -1.9038 -1.2992
  118MOL0     H16223   5.648   4.265   9.932 -2.7926 -3.2772 -0.3151
  118MOL0     H16224   5.620   4.211   9.778 -2.6591  3.8584  1.1191
  118MOL0     H16225   5.732   4.033   9.897 -0.7899  0.7293  0.0576
  118MOL0     H16226   5.856   4.147   9.972  1.5890  1.1860 -1.7302
  118MOL0     H16227   5.858   4.045   9.677 -2.2604  0.7880  0.8650
  118MOL0     H16228   5.977   4.149   9.758 -0.8120  0.3790 -1.5322
  118MOL0     H16229   6.067   3.911   9.743  2.9694 -1.6001  2.5707
  118MOL0     H16230   5.917   3.850   9.811  0.9665 -0.3049  1.2375
  118MOL0     H16231   5.963   3.974  10.015 -0.5819 -0.4802  0.0941
  118MOL0     H16232   6.064   3.838   9.971 -0.7509 -0.6491 -2.5685
  118MOL0     H16233   6.084   4.185  10.104 -1.9135 -1.4638 -0.8118
  118MOL0     H16234   6.295   4.294  10.210 -0.4571 -0.0172  0.0058
  118MOL0     H16235   6.339   4.384  10.067  2.3273  1.1142  1.3499
  118MOL0     H16236   6.520   4.189  10.216  0.7320 -0.6522 -1.9102
  118MOL0     H16237   6.557   4.249  10.059 -1.8664  0.7119 -1.4433
  118MOL0     H16238   6.576   4.483  10.149 -2.0525  0.6184  0.2057
  118MOL0     H16239   6.485   4.441  10.291 -1.5095  0.2241 -0.9035
  118MOL0     H16240   6.737   4.467  10.337 -3.8560  1.6587  0.0438
  118MOL0     H16241   6.663   4.307  10.382 -0.4892 -1.2202 -0.8528
  118MOL0     H16242   6.981   4.247  10.077  0.7690  2.8093 -0.8457
  118MOL0     H16243   7.267   4.116  10.088 -0.9790 -0.1345 -0.6267
  118MOL0     H16244   7.322   4.292  10.115 -0.6344 -0.1917 -1.3621
  118MOL0     H16245   7.207   4.257  10.000 -0.8385 -0.6239 -0.5693
  118MOL0     H16246   7.507   3.919  10.382 -1.4677  0.6627 -0.6575
  118MOL0     H16247   7.674   3.874  10.543 -4.8861  0.0607  2.9985
  118MOL0     H16248   7.999   4.100  10.522 -0.6220 -2.9524  0.1421
  118MOL0     H16249   7.998   4.173  10.692  0.9077  0.8292 -0.2179
  118MOL0     H16250   8.063   3.970  10.761 -1.1711 -0.4521 -0.2243
  118MOL0     H16251   8.037   3.880  10.615  1.7300 -1.3538  0.8731
  118MOL0     H16252   8.241   4.093  10.639 -2.0724  1.5522 -1.7895
  118MOL0     H16253   8.203   4.012  10.486  1.6698  3.9968 -0.1601
  118MOL0     H16254   8.410   3.946  10.606 -0.2820  2.4599  2.3328
  118MOL0     H16255   8.307   3.798  10.588  0.9817  0.1297 -1.0444
  118MOL0     H16256   8.219   3.859  10.839  0.9994 -0.1916  2.2254
  118MOL0     H16257   8.368   3.784  10.816  0.0091  0.4620  3.8470
  118MOL0     H16258   8.394   3.964  10.965  0.9481  1.6710  0.9236
  118MOL0     H16259   8.306   4.071  10.863  1.6706  0.8243 -0.6137
  118MOL0     H16260   8.500   4.096  10.712 -0.4704 -0.5898 -0.2846
  118MOL0     H16261   8.587   3.960  10.779 -1.1258 -0.9306 -1.1443
  118MOL0     H16262   8.683   4.156  10.863  1.4844  0.1282  0.8053
  118MOL0     H16263   8.610   4.072  10.996 -0.6271  1.0784  0.0658
  118MOL0     H16264   7.768   4.292  10.568  0.2800 -1.2476  0.4924
  118MOL0     H16265   7.606   4.334  10.409  0.5321  0.7755  1.7413
  118MOL0     H16266   7.096   4.229  10.552  1.3003 -1.0097  0.1883
  118MOL0     H16267   6.859   4.288  10.484  1.1575 -3.1518  2.4389
  118MOL0     H16268   5.539   4.760   9.898 -4.6244  3.0514  1.0092
  118MOL0     H16269   5.364   4.828  10.048 -1.7522 -2.0500  1.2152
  118MOL0     H16270   5.227   4.979  10.368 -0.7462  1.2082 -2.3961
  118MOL0     H16271   5.050   5.101  10.494 -4.6308  0.6658  0.1407
  118MOL0     H16272   4.858   5.205  10.602 -0.1481  3.9027 -3.1610
  118MOL0     H16273   4.803   5.150  10.446 -1.3871 -1.0837 -0.1998
  118MOL0     H16274   4.617   5.274  10.561  1.4278  0.2877 -1.7669
  118MOL0     H16275   4.620   5.160  10.700  0.0151  1.3713  0.9895
  118MOL0     H16276   4.547   5.075  10.422  3.3904 -1.1781 -0.1860
  118MOL0     H16277   4.594   4.962  10.549 -0.8530 -0.2143 -0.0842
  118MOL0     H16278   4.420   5.039  10.693  1.0697 -0.2704 -0.1891
  118MOL0     H16279   4.352   4.977  10.547  0.3668 -0.6390  0.1122
  118MOL0     H16280   4.219   5.381  10.513 -1.0665 -0.7140 -1.5957
  118MOL0     H16281   4.819   4.741  10.532 -0.5721 -1.1041 -0.9618
  118MOL0     H16282   5.068   4.538  10.396  0.4766  2.2043  0.3365
  118MOL0     H16283   4.894   4.536  10.429 -1.0485 -0.3719 -0.4004
  118MOL0     H16284   4.941   4.582  10.270  0.9121 -1.2287 -0.1399
  119MOL0     O16285  10.568   6.804   4.446 -0.3227 -0.5389 -0.0855
  119MOL0     C16286  10.481   6.722   4.443 -1.0851 -0.0869 -0.2487
  119MOL0     O16287  10.489   6.595   4.368  0.2801  0.6230 -0.2551
  119MOL0     C16288  10.609   6.550   4.323 -0.6658  0.4094 -0.0838
  119MOL0     C16289  10.632   6.423   4.367 -0.9338  0.5809 -0.9474
  119MOL0     C16290  10.748   6.349   4.334  0.2495 -0.1070  0.4535
  119MOL0     C16291  10.840   6.412   4.251  0.2142 -0.4226 -0.3439
  119MOL0     O16292  10.943   6.342   4.196  0.4937  0.2192  0.2628
  119MOL0     C16293  11.061   6.364   4.283 -0.5092 -0.2283  0.1097
  119MOL0     C16294  11.168   6.266   4.246  0.0924  0.2153 -0.1949
  119MOL0     C16295  11.203   6.260   4.095  0.2919  0.0581  1.0313
  119MOL0     C16296  11.319   6.171   4.086  0.4976 -0.5871 -0.1836
  119MOL0     C16297  11.349   6.167   3.932 -0.7477  0.4154  0.9177
  119MOL0     C16298  11.487   6.102   3.899  0.4165  0.4393 -0.4734
  119MOL0     C16299  11.539   6.132   3.760 -0.1385  1.2638 -0.7114
  119MOL0     C16300  11.448   6.085   3.655 -0.9731 -0.9051 -0.4635
  119MOL0     N16301  11.440   5.934   3.652 -0.5891 -0.0094  0.3601
  119MOL0     C16302  11.335   5.874   3.571 -0.0562  0.1934 -0.9743
  119MOL0     C16303  11.392   5.751   3.556  0.1531  0.5643  0.1092
  119MOL0     C16304  11.330   5.657   3.459  0.1293 -0.1717  0.0377
  119MOL0     C16305  11.301   5.727   3.317  1.5459  0.5628 -0.6523
  119MOL0     C16306  11.428   5.780   3.258  0.0375  0.7535  0.5743
  119MOL0     C16307  11.524   5.672   3.225 -0.6585 -0.8266  0.0243
  119MOL0     O16308  11.648   5.739   3.187 -0.0866 -0.0722 -0.0913
  119MOL0     C16309  11.763   5.667   3.159 -0.0287  0.1633 -0.8813
  119MOL0     C16310  11.763   5.526   3.178 -0.2150 -0.4926  0.6248
  119MOL0     C16311  11.884   5.454   3.145 -0.0919 -0.2777  0.0186
  119MOL0     C16312  11.865   5.299   3.139 -0.2514 -0.1301  0.3616
  119MOL0     C16313  12.006   5.523   3.098 -0.2877 -0.3162 -0.0163
  119MOL0     C16314  12.134   5.451   3.069  1.5159 -0.4830  0.0800
  119MOL0     O16315  12.233   5.536   3.026 -0.4606  0.0297  0.2991
  119MOL0     C16316  12.353   5.481   2.982  0.5255  0.6678  0.0735
  119MOL0     C16317  12.471   5.500   3.060  0.8690  0.1688  0.0912
  119MOL0     C16318  12.594   5.450   3.020 -0.3655 -0.7077 -0.2366
  119MOL0     C16319  12.615   5.404   2.891 -0.0638 -0.0181 -0.2108
  119MOL0     O16320  12.749   5.379   2.864 -0.4705  0.3578 -0.0364
  119MOL0     C16321  12.777   5.349   2.723  0.4109  0.7811 -0.1426
  119MOL0     C16322  12.927   5.347   2.690 -0.5380 -0.0216 -0.4958
  119MOL0     C16323  12.977   5.499   2.688  0.0822 -0.9520 -0.1939
  119MOL0     C16324  13.126   5.496   2.715 -0.8047  0.6651 -0.3487
  119MOL0     C16325  13.182   5.638   2.721 -0.4894 -0.1463  0.1473
  119MOL0     C16326  13.318   5.629   2.786  0.4628 -0.1322 -0.4905
  119MOL0     C16327  13.359   5.770   2.821  0.0314 -0.1498  0.4085
  119MOL0     C16328  13.486   5.752   2.914  0.6032  0.1162  0.3183
  119MOL0    Cl16329  13.628   5.695   2.817 -0.1015 -0.3258  0.1131
  119MOL0     C16330  12.510   5.391   2.804  0.4267  0.1688 -0.2017
  119MOL0     C16331  12.379   5.425   2.855  0.0197  0.7194 -0.7359
  119MOL0     O16332  12.140   5.327   3.076 -0.2566  0.0007  0.1156
  119MOL0     C16333  11.998   5.670   3.093 -0.5685  0.5298  0.0777
  119MOL0     C16334  11.875   5.734   3.122  0.1584  0.3792 -0.2526
  119MOL0     N16335  11.516   5.736   3.623 -0.4381 -0.7487  0.5956
  119MOL0     N16336  11.536   5.844   3.694  0.2665  0.4244  0.0836
  119MOL0     C16337  10.824   6.543   4.207  0.8459 -0.1194  0.2284
  119MOL0     C16338  10.707   6.614   4.242  0.2962 -0.2496 -0.7726
  119MOL0     C16339  10.353   6.757   4.501 -0.1952  0.1487  0.5193
  119MOL0     C16340  10.340   6.771   4.640 -0.0784 -0.3419  0.7151
  119MOL0     C16341  10.220   6.807   4.702 -0.6776  0.4120  0.0886
  119MOL0     C16342  10.101   6.824   4.630 -0.0204 -0.2522  0.5352
  119MOL0     O16343   9.976   6.851   4.678 -0.3078 -0.4001  0.3667
  119MOL0     C16344   9.954   6.865   4.815  0.2063  0.8815  0.1631
  119MOL0     C16345   9.801   6.893   4.832 -0.3167 -1.1012 -0.3521
  119MOL0     C16346   9.760   6.911   4.979 -0.4335  0.0492  0.2305
  119MOL0     C16347   9.818   7.041   5.032  0.1669  0.5537 -1.5599
  119MOL0     C16348   9.955   7.033   5.075 -0.3743  0.5519 -0.0180
  119MOL0     C16349  10.074   7.021   5.108  0.0595  0.1627 -0.5911
  119MOL0     C16350  10.113   6.807   4.487  0.2541  0.6204 -0.3543
  119MOL0     C16351  10.242   6.788   4.426  0.5019 -0.1634  0.5293
  119MOL0     C16352  10.234   6.775   4.268 -0.1881  0.7005 -1.0446
  119MOL0     H16353  10.565   6.360   4.424  0.9020 -1.2307 -0.6619
  119MOL0     H16354  10.780   6.257   4.382  0.8618 -0.3854 -0.4578
  119MOL0     H16355  11.042   6.350   4.389  1.2025 -2.5952  0.2040
  119MOL0     H16356  11.085   6.469   4.266 -1.9535  0.2604  0.9178
  119MOL0     H16357  11.261   6.287   4.300  0.3893  1.3841 -1.1130
  119MOL0     H16358  11.134   6.165   4.270 -0.1559  0.4911  0.6805
  119MOL0     H16359  11.120   6.214   4.041 -1.3663  1.2855  2.4276
  119MOL0     H16360  11.235   6.362   4.069  0.3716 -0.4598 -1.0513
  119MOL0     H16361  11.400   6.228   4.132  0.2674 -0.5655  0.2078
  119MOL0     H16362  11.305   6.070   4.125  2.4178 -1.2884 -1.1809
  119MOL0     H16363  11.357   6.267   3.889  0.5051  0.4435  1.1623
  119MOL0     H16364  11.262   6.129   3.878  0.3424  0.1289 -0.7496
  119MOL0     H16365  11.563   6.141   3.967  0.3886 -1.3615  0.6583
  119MOL0     H16366  11.482   5.994   3.920 -0.6587  0.5256 -0.2470
  119MOL0     H16367  11.639   6.089   3.752 -1.8723 -3.1417 -1.1926
  119MOL0     H16368  11.556   6.240   3.752 -1.5499  1.4703 -1.3357
  119MOL0     H16369  11.348   6.124   3.678  0.8531  3.2351  1.4984
  119MOL0     H16370  11.484   6.123   3.559  0.2841  0.7742  0.6170
  119MOL0     H16371  11.247   5.919   3.528  0.7788  1.7409 -1.1366
  119MOL0     H16372  11.233   5.632   3.502  0.1480 -1.1716 -0.4611
  119MOL0     H16373  11.384   5.562   3.448  0.3667  0.0063 -0.3755
  119MOL0     H16374  11.244   5.666   3.247 -0.2823  2.3991 -0.8785
  119MOL0     H16375  11.230   5.811   3.323  0.7734 -0.0538 -0.9524
  119MOL0     H16376  11.405   5.836   3.167  0.7198 -1.5687 -1.1340
  119MOL0     H16377  11.472   5.852   3.327 -0.1500  0.6745  0.7763
  119MOL0     H16378  11.528   5.612   3.317 -3.6327 -0.4963  0.4520
  119MOL0     H16379  11.481   5.609   3.147  0.0588  1.4719 -2.3522
  119MOL0     H16380  11.666   5.481   3.200 -1.3575  1.3461 -0.3978
  119MOL0     H16381  11.885   5.270   3.035  0.5889  2.0737 -0.1433
  119MOL0     H16382  11.766   5.268   3.173  0.0367 -0.0476  1.3250
  119MOL0     H16383  11.940   5.246   3.200  0.0813  1.2615  1.2023
  119MOL0     H16384  12.455   5.529   3.163  0.6655  2.4186 -0.5194
  119MOL0     H16385  12.681   5.444   3.085 -0.4299 -0.1868 -0.0983
  119MOL0     H16386  12.737   5.250   2.699  1.7666  0.0840  0.3451
  119MOL0     H16387  12.729   5.415   2.651 -0.2936  1.9287  1.3309
  119MOL0     H16388  12.975   5.287   2.767  0.2347  0.4025 -0.6320
  119MOL0     H16389  12.948   5.309   2.589  0.3430 -1.1637  0.1001
  119MOL0     H16390  12.930   5.557   2.767  0.3372  0.8570 -1.3183
  119MOL0     H16391  12.955   5.546   2.592  0.4801  0.3876  0.3549
  119MOL0     H16392  13.176   5.427   2.647  0.4741  0.9952  0.2336
  119MOL0     H16393  13.141   5.452   2.814 -0.3302  1.6797  0.0430
  119MOL0     H16394  13.184   5.688   2.624 -2.4674 -2.9753 -1.4820
  119MOL0     H16395  13.112   5.705   2.772 -0.2279  0.0350  0.2745
  119MOL0     H16396  13.393   5.580   2.723  0.8531  1.7284 -1.5624
  119MOL0     H16397  13.307   5.568   2.876  0.3205  0.8470  0.1686
  119MOL0     H16398  13.273   5.822   2.864 -0.0883  3.1078 -3.2398
  119MOL0     H16399  13.367   5.817   2.722 -2.2388 -0.4955 -0.0002
  119MOL0     H16400  13.469   5.694   3.005 -0.9158  1.5591  1.0039
  119MOL0     H16401  13.496   5.853   2.955 -4.5298 -0.1025  3.0261
  119MOL0     H16402  12.517   5.350   2.704 -2.9078 -0.5329 -0.2608
  119MOL0     H16403  12.287   5.429   2.798 -0.9806 -0.0418  0.7741
  119MOL0     H16404  12.079   5.735   3.061  1.6815 -2.0946  0.0256
  119MOL0     H16405  11.868   5.843   3.123 -1.4657  0.3252 -1.3682
  119MOL0     H16406  10.890   6.587   4.133  0.8047  2.0979  1.4227
  119MOL0     H16407  10.701   6.719   4.217  0.3676  0.8851  3.3628
  119MOL0     H16408  10.422   6.764   4.710 -0.1724  1.0009  0.9894
  119MOL0     H16409  10.222   6.819   4.810 -0.3053 -0.2360  0.1578
  119MOL0     H16410   9.982   6.775   4.870 -0.8695  0.2490 -0.2921
  119MOL0     H16411  10.011   6.953   4.846 -0.5910  1.2844  0.5426
  119MOL0     H16412   9.747   6.808   4.789 -0.5727 -1.6522  1.0173
  119MOL0     H16413   9.780   6.981   4.770  0.5912 -0.2273  0.5379
  119MOL0     H16414   9.652   6.922   4.978 -0.5356  0.6172 -4.3079
  119MOL0     H16415   9.779   6.822   5.039 -1.4705  1.3369  2.6095
  119MOL0     H16416   9.749   7.064   5.114  3.1356  1.8417  0.7528
  119MOL0     H16417   9.811   7.114   4.950 -1.6857 -0.4985 -2.4074
  119MOL0     H16418  10.179   7.013   5.128 -0.1144  1.8319  1.2824
  119MOL0     H16419  10.024   6.815   4.426 -0.6103  0.1646  0.8020
  119MOL0     H16420  10.171   6.852   4.222  0.1396  1.3304 -0.4675
  119MOL0     H16421  10.335   6.773   4.226 -0.0711  1.1781 -0.8004
  119MOL0     H16422  10.181   6.683   4.243 -0.3620 -0.1130  1.9294
  120MOL0     O16423   9.263  10.839   7.557 -0.4760 -0.0840  0.0054
  120MOL0     C16424   9.180  10.875   7.479  0.0993 -0.3825  0.1066
  120MOL0     O16425   9.172  10.998   7.424  0.1110  0.1216 -0.0855
  120MOL0     C16426   9.271  11.092   7.432 -0.0595 -0.6617  0.5814
  120MOL0     C16427   9.237  11.233   7.443  0.1678  0.0521  0.3078
  120MOL0     C16428   9.336  11.324   7.459  0.0490 -0.2722 -0.3492
  120MOL0     C16429   9.471  11.287   7.439 -0.1479  0.0273 -0.0556
  120MOL0     O16430   9.570  11.382   7.435 -0.1692 -0.2390 -0.0185
  120MOL0     C16431   9.581  11.457   7.554  0.8219 -0.0316  0.1742
  120MOL0     C16432   9.708  11.524   7.584 -0.5170 -0.5079 -0.0880
  120MOL0     C16433   9.813  11.423   7.635 -0.2940  0.4484 -0.1626
  120MOL0     C16434   9.952  11.481   7.644  0.1498 -0.1921  0.5103
  120MOL0     C16435  10.061  11.393   7.714 -0.1285  0.2939 -0.0221
  120MOL0     C16436  10.195  11.461   7.726  0.0671  0.5351  0.0783
  120MOL0     C16437  10.214  11.522   7.861 -0.0730 -0.8215 -0.7874
  120MOL0     C16438  10.348  11.595   7.865  0.1830  0.3326 -0.1194
  120MOL0     N16439  10.468  11.520   7.819 -0.3806  0.8414  0.0920
  120MOL0     C16440  10.510  11.510   7.685 -0.6262  0.0029 -0.6569
  120MOL0     C16441  10.614  11.427   7.693 -0.1163  0.3855 -0.6869
  120MOL0     C16442  10.703  11.374   7.585 -0.3318  0.2687 -0.2346
  120MOL0     C16443  10.771  11.486   7.493  0.0984 -0.9116 -0.5176
  120MOL0     C16444  10.801  11.445   7.352  0.3938  0.0884  0.0260
  120MOL0     C16445  10.891  11.318   7.356 -0.5669 -0.1183  0.0059
  120MOL0     O16446  11.013  11.372   7.406 -0.0413 -0.3670 -0.2735
  120MOL0     C16447  11.135  11.312   7.383 -0.9091 -0.5089 -0.0733
  120MOL0     C16448  11.246  11.382   7.424  0.2166  0.1078  0.2005
  120MOL0     C16449  11.379  11.350   7.386  0.4216  0.5403 -0.4242
  120MOL0     C16450  11.489  11.444   7.426 -0.6994 -0.1713 -0.0892
  120MOL0     C16451  11.397  11.228   7.312  0.3437  0.3547  0.6244
  120MOL0     C16452  11.530  11.178   7.268 -0.7016  0.2030  0.2130
  120MOL0     O16453  11.626  11.276   7.251  0.4820  0.6068 -0.3244
  120MOL0     C16454  11.747  11.242   7.205  0.1315 -0.3707 -0.0288
  120MOL0     C16455  11.775  11.184   7.087 -0.1765  0.2764  0.1415
  120MOL0     C16456  11.907  11.177   7.036  0.3519 -0.3568  0.7534
  120MOL0     C16457  12.023  11.223   7.103  0.5967  0.0156  0.3077
  120MOL0     O16458  12.146  11.215   7.048 -0.6102  0.4144  0.5704
  120MOL0     C16459  12.247  11.313   7.098  0.5692  0.3034  0.6353
  120MOL0     C16460  12.385  11.288   7.040  0.3550 -0.2582  0.1265
  120MOL0     C16461  12.489  11.396   7.053  0.5222 -0.1510  1.1348
  120MOL0     C16462  12.522  11.446   7.192  0.6345 -0.6413 -0.4709
  120MOL0     C16463  12.658  11.508   7.205 -0.3232  0.5795 -0.2566
  120MOL0     C16464  12.691  11.606   7.097  0.4403  0.0727  0.5343
  120MOL0     C16465  12.820  11.686   7.118  0.4171  0.1788  0.7253
  120MOL0     C16466  12.946  11.591   7.127 -0.1992  0.3458 -0.4792
  120MOL0    Cl16467  12.968  11.546   6.952  0.3053 -0.5614 -0.6628
  120MOL0     C16468  11.992  11.270   7.229  0.2207  0.3077 -0.4160
  120MOL0     C16469  11.859  11.283   7.275  0.1003 -0.0541 -0.3354
  120MOL0     O16470  11.547  11.060   7.227 -0.4861 -0.7998 -0.5222
  120MOL0     C16471  11.283  11.148   7.284 -0.3174 -0.3388  0.0409
  120MOL0     C16472  11.152  11.196   7.313 -0.1708  0.6383 -0.5064
  120MOL0     N16473  10.654  11.416   7.832  0.2084  0.0596  0.2087
  120MOL0     N16474  10.563  11.476   7.903 -0.2878  0.5854 -0.2291
  120MOL0     C16475   9.506  11.158   7.407 -0.7979 -0.1077 -0.3411
  120MOL0     C16476   9.400  11.065   7.404 -0.0923  0.3436 -0.2603
  120MOL0     C16477   9.074  10.778   7.446 -0.1850  0.0630 -0.5978
  120MOL0     C16478   8.945  10.828   7.417  0.9655  0.0447 -0.3614
  120MOL0     C16479   8.842  10.742   7.389 -0.0163  0.3126 -0.0075
  120MOL0     C16480   8.869  10.603   7.361  0.1480 -0.0352 -0.0964
  120MOL0     O16481   8.775  10.513   7.312 -0.6627 -0.4111  0.1931
  120MOL0     C16482   8.639  10.546   7.360 -0.0439  0.2252  0.3235
  120MOL0     C16483   8.559  10.425   7.351  0.1921  0.3162  0.1852
  120MOL0     C16484   8.608  10.319   7.460  0.0916  0.6157 -0.1466
  120MOL0     C16485   8.718  10.233   7.438 -1.3647 -0.1316 -0.1999
  120MOL0     C16486   8.701  10.154   7.312 -0.5217 -0.7861 -0.9584
  120MOL0     C16487   8.678  10.089   7.215  0.0246  0.5843 -0.1382
  120MOL0     C16488   8.998  10.550   7.388  0.6843 -0.3255  0.2644
  120MOL0     C16489   9.095  10.636   7.438  0.0854  0.3714 -0.3811
  120MOL0     C16490   9.214  10.559   7.472 -1.2249  0.0193  0.3636
  120MOL0     H16491   9.140  11.266   7.479  1.5820  3.9211  1.0716
  120MOL0     H16492   9.290  11.421   7.473 -0.5667 -0.5740 -0.2489
  120MOL0     H16493   9.552  11.395   7.641 -0.8287 -2.3746 -1.8896
  120MOL0     H16494   9.509  11.538   7.540  0.3025 -0.8629 -2.5441
  120MOL0     H16495   9.751  11.566   7.493 -3.0009  1.1387 -0.6034
  120MOL0     H16496   9.689  11.611   7.647  1.2257  2.3393 -3.1733
  120MOL0     H16497   9.778  11.391   7.733 -3.4386  2.1677 -0.5876
  120MOL0     H16498   9.807  11.334   7.571 -1.9710 -1.0099  1.8707
  120MOL0     H16499   9.996  11.492   7.544  3.5030 -1.6468  1.7012
  120MOL0     H16500   9.952  11.577   7.695  1.3478  0.0177  0.1461
  120MOL0     H16501  10.078  11.301   7.657  3.5779  0.6288  0.3548
  120MOL0     H16502  10.018  11.357   7.809 -1.5959  1.0775 -0.3566
  120MOL0     H16503  10.273  11.389   7.699  0.7064  1.5579 -0.8834
  120MOL0     H16504  10.198  11.535   7.645  0.5494 -0.4075 -0.7986
  120MOL0     H16505  10.214  11.444   7.938 -0.0407  0.7474  0.8592
  120MOL0     H16506  10.135  11.593   7.885 -0.1539 -1.2884  0.3855
  120MOL0     H16507  10.332  11.684   7.804  0.7512 -0.8682 -2.1273
  120MOL0     H16508  10.363  11.625   7.969 -0.7826 -0.8839  0.3885
  120MOL0     H16509  10.461  11.560   7.603 -0.5932 -0.0717 -0.7222
  120MOL0     H16510  10.638  11.311   7.524  1.3141  0.5407 -2.3970
  120MOL0     H16511  10.771  11.310   7.641 -0.0876 -0.5127 -1.3756
  120MOL0     H16512  10.719  11.582   7.496 -0.3484 -1.1440  2.5064
  120MOL0     H16513  10.863  11.503   7.550  0.8662  0.9520 -2.1721
  120MOL0     H16514  10.712  11.422   7.294  1.2457 -1.2355 -0.8118
  120MOL0     H16515  10.855  11.518   7.290 -0.5255 -0.8905 -1.9949
  120MOL0     H16516  10.847  11.243   7.423 -0.8598  0.6718  0.7057
  120MOL0     H16517  10.902  11.261   7.263  0.3339 -1.3897  0.8530
  120MOL0     H16518  11.225  11.473   7.480 -0.6895  1.2962 -1.9631
  120MOL0     H16519  11.573  11.400   7.479 -0.9857  0.7133  1.1300
  120MOL0     H16520  11.466  11.525   7.496  0.6379 -0.6488  0.9293
  120MOL0     H16521  11.520  11.505   7.340  0.8935  0.4991  0.9095
  120MOL0     H16522  11.691  11.147   7.030 -1.5067 -0.2040  2.2902
  120MOL0     H16523  11.930  11.134   6.939  2.7665  0.8223  0.7367
  120MOL0     H16524  12.225  11.416   7.068  3.4602  1.0398  0.7187
  120MOL0     H16525  12.261  11.310   7.206 -0.5964  2.3896  0.9152
  120MOL0     H16526  12.415  11.193   7.085  1.4694  0.3240  0.6460
  120MOL0     H16527  12.363  11.261   6.936  2.7935  1.2672 -0.8566
  120MOL0     H16528  12.458  11.482   6.993  2.8857 -0.7329 -1.1166
  120MOL0     H16529  12.574  11.349   7.004  0.5962  1.2175 -0.1242
  120MOL0     H16530  12.525  11.360   7.259  1.5033 -0.5731 -0.4085
  120MOL0     H16531  12.439  11.511   7.223  0.4787 -1.7592  1.6415
  120MOL0     H16532  12.667  11.559   7.302 -0.7452 -0.5628  0.4018
  120MOL0     H16533  12.734  11.430   7.215 -2.1454 -1.1319  0.7108
  120MOL0     H16534  12.615  11.684   7.105  1.3983  1.0311  0.4421
  120MOL0     H16535  12.685  11.554   7.001  0.4457  0.4912  0.3077
  120MOL0     H16536  12.820  11.748   7.208  2.5817 -1.3910  1.8927
  120MOL0     H16537  12.817  11.755   7.033 -2.4726  1.1551  1.5049
  120MOL0     H16538  12.927  11.511   7.199  1.2404  1.0628  0.7571
  120MOL0     H16539  13.043  11.637   7.152 -1.9164  3.1472  1.5651
  120MOL0     H16540  12.075  11.312   7.285  0.0174  1.2169 -0.7742
  120MOL0     H16541  11.843  11.338   7.368 -1.3992  2.2061 -1.8141
  120MOL0     H16542  11.298  11.058   7.225 -3.3330 -1.3385  0.6117
  120MOL0     H16543  11.064  11.141   7.281 -0.9437  1.0718  0.7862
  120MOL0     H16544   9.610  11.131   7.390 -0.6334 -0.0501  0.5080
  120MOL0     H16545   9.429  10.964   7.377  0.7365  0.6033 -0.3727
  120MOL0     H16546   8.928  10.934   7.433 -0.7069 -0.4643  1.7060
  120MOL0     H16547   8.740  10.779   7.385  0.1228  0.6310 -0.7809
  120MOL0     H16548   8.631  10.576   7.464  0.4091 -0.4512  0.5632
  120MOL0     H16549   8.596  10.626   7.299  0.1458  0.1954  0.1464
  120MOL0     H16550   8.565  10.380   7.251  0.5484 -0.3607  0.5085
  120MOL0     H16551   8.456  10.455   7.373 -0.8671 -2.1338 -1.0821
  120MOL0     H16552   8.634  10.357   7.559 -1.4646 -1.4676  1.1471
  120MOL0     H16553   8.520  10.257   7.480  0.8684 -1.1114 -1.7679
  120MOL0     H16554   8.735  10.161   7.518 -3.0591  0.0808  0.3709
  120MOL0     H16555   8.813  10.284   7.421 -2.1368  1.9350  1.3584
  120MOL0     H16556   8.656  10.028   7.130 -0.2645 -3.8327  2.7395
  120MOL0     H16557   9.005  10.442   7.388 -1.4681 -0.5251 -0.4697
  120MOL0     H16558   9.299  10.586   7.409  0.9663 -1.6557  2.3935
  120MOL0     H16559   9.241  10.595   7.572 -2.8701  2.0956  0.1300
  120MOL0     H16560   9.212  10.450   7.465 -1.7530  0.1355 -2.6926
  121MOL0     O16561   1.806   3.396   2.351 -0.3483  0.2832  0.0793
  121MOL0     C16562   1.766   3.299   2.282  0.9865 -0.2921  0.4636
  121MOL0     O16563   1.767   3.300   2.145  0.8526 -0.5911  0.1074
  121MOL0     C16564   1.823   3.411   2.082  1.0272  0.0626 -0.6163
  121MOL0     C16565   1.775   3.540   2.096 -0.1371  0.2028 -0.4265
  121MOL0     C16566   1.830   3.646   2.026  0.1495 -0.5030 -0.2262
  121MOL0     C16567   1.929   3.627   1.934  0.2849 -0.0212 -0.7598
  121MOL0     O16568   1.955   3.739   1.863 -0.3774 -0.5185  0.5871
  121MOL0     C16569   2.056   3.738   1.757 -0.9534 -0.2974  0.0496
  121MOL0     C16570   2.091   3.880   1.721 -0.3823 -0.5005  0.7265
  121MOL0     C16571   2.207   3.888   1.621 -0.3689 -0.1269 -0.3719
  121MOL0     C16572   2.220   4.016   1.549 -0.8400 -0.7481  0.8334
  121MOL0     C16573   2.351   4.024   1.468  0.4629  0.7036  0.3143
  121MOL0     C16574   2.378   4.159   1.398 -0.2672 -0.3259 -0.0237
  121MOL0     C16575   2.519   4.165   1.342  0.5024  0.1844  0.0632
  121MOL0     C16576   2.524   4.270   1.230  0.4179  0.3126  0.3689
  121MOL0     N16577   2.656   4.284   1.176  1.0306 -0.3387  0.1296
  121MOL0     C16578   2.692   4.264   1.048  0.1575 -0.0559 -0.8477
  121MOL0     C16579   2.830   4.290   1.055 -0.1715  0.1335 -1.0040
  121MOL0     C16580   2.934   4.247   0.945  0.0326 -0.1585 -0.5268
  121MOL0     C16581   3.043   4.153   0.986  0.1329  0.1445 -0.8804
  121MOL0     C16582   3.169   4.145   0.899 -0.3032  0.0299  0.1711
  121MOL0     C16583   3.273   4.047   0.954 -0.6964 -0.5249  0.0531
  121MOL0     O16584   3.386   4.060   0.864 -0.3317 -0.1107 -0.2627
  121MOL0     C16585   3.486   4.149   0.892 -0.1841  0.6653 -0.0050
  121MOL0     C16586   3.608   4.131   0.817 -0.1781 -0.2367 -1.5233
  121MOL0     C16587   3.729   4.196   0.845 -0.3186 -0.0434 -0.6103
  121MOL0     C16588   3.845   4.171   0.755 -0.1604 -0.1082  0.0392
  121MOL0     C16589   3.727   4.299   0.935  0.6380 -0.3447 -0.2458
  121MOL0     C16590   3.841   4.388   0.957 -0.6010  1.2401 -0.4552
  121MOL0     O16591   3.825   4.510   0.917 -0.5176 -0.2416 -0.9375
  121MOL0     C16592   3.898   4.601   0.989  0.3767 -0.2924 -0.3712
  121MOL0     C16593   4.030   4.611   0.971  0.2558  0.3395  0.2942
  121MOL0     C16594   4.103   4.702   1.055 -0.1123  0.0027  0.4226
  121MOL0     C16595   4.041   4.769   1.161  0.4079  0.0352 -0.3245
  121MOL0     O16596   4.102   4.857   1.247  0.1371 -0.2197  1.2293
  121MOL0     C16597   4.161   4.975   1.197  0.0420 -0.2708 -0.1026
  121MOL0     C16598   4.135   5.091   1.283  0.1622  0.9935 -0.2646
  121MOL0     C16599   4.194   5.226   1.235 -0.1971 -0.5471  0.1338
  121MOL0     C16600   4.351   5.220   1.258 -0.2607 -0.4781  0.0428
  121MOL0     C16601   4.423   5.349   1.216  0.1902 -0.2177 -0.8911
  121MOL0     C16602   4.577   5.336   1.229  0.7451  1.1110 -0.3967
  121MOL0     C16603   4.658   5.462   1.204 -0.1454 -0.7280 -0.2270
  121MOL0     C16604   4.637   5.516   1.054  0.2167  0.3249 -0.7428
  121MOL0    Cl16605   4.673   5.390   0.938 -0.1084  0.2302  0.6107
  121MOL0     C16606   3.902   4.750   1.179 -0.9052 -0.8104 -0.1318
  121MOL0     C16607   3.833   4.668   1.095  0.4561  0.1926 -0.3994
  121MOL0     O16608   3.937   4.350   1.025 -0.1052  0.1313 -0.1620
  121MOL0     C16609   3.611   4.328   1.008 -0.9744 -0.4317  0.1016
  121MOL0     C16610   3.491   4.248   0.998 -0.6971 -0.1051  0.3250
  121MOL0     N16611   2.862   4.337   1.184  0.2635 -0.1598  0.4973
  121MOL0     N16612   2.757   4.325   1.252 -0.4306  0.0565  0.1879
  121MOL0     C16613   1.972   3.492   1.913 -0.8999  0.0056  0.4424
  121MOL0     C16614   1.922   3.389   1.986  0.4038  0.2434  0.4934
  121MOL0     C16615   1.710   3.183   2.361  1.0000 -0.0930  0.6775
  121MOL0     C16616   1.736   3.185   2.499 -0.2672  0.4984  0.6024
  121MOL0     C16617   1.670   3.094   2.579  0.4998 -0.1657 -0.3513
  121MOL0     C16618   1.555   3.030   2.531  0.0284  0.0806 -0.4363
  121MOL0     O16619   1.487   2.946   2.606 -0.2809 -0.4791  0.3981
  121MOL0     C16620   1.536   2.885   2.731  0.5741 -0.6180  0.8528
  121MOL0     C16621   1.421   2.806   2.796  0.7927 -0.5146  0.0684
  121MOL0     C16622   1.422   2.667   2.738  0.6896  0.2463 -0.8730
  121MOL0     C16623   1.334   2.576   2.824 -1.0227 -0.0200  0.2693
  121MOL0     C16624   1.195   2.606   2.826 -0.8952 -0.3301  0.5094
  121MOL0     C16625   1.083   2.640   2.818 -0.2800  0.4336 -0.5730
  121MOL0     C16626   1.527   3.029   2.397 -0.7938  0.6435  0.4424
  121MOL0     C16627   1.610   3.101   2.307 -0.2856 -0.3543 -0.7666
  121MOL0     C16628   1.577   3.092   2.161 -0.2989 -0.0209 -0.2514
  121MOL0     H16629   1.687   3.570   2.153  0.6377  0.6614  0.5609
  121MOL0     H16630   1.785   3.743   2.043 -2.3807 -1.6633  0.2007
  121MOL0     H16631   2.019   3.679   1.672  0.0832 -1.6438  0.5127
  121MOL0     H16632   2.144   3.690   1.801  1.4499  2.4932 -1.3035
  121MOL0     H16633   1.997   3.920   1.682 -1.3572 -1.2989  2.1918
  121MOL0     H16634   2.122   3.933   1.812  2.0570  1.9155 -1.3044
  121MOL0     H16635   2.295   3.871   1.684  0.7989  0.2168 -1.8700
  121MOL0     H16636   2.199   3.803   1.553 -0.1726 -0.5206  0.0875
  121MOL0     H16637   2.128   4.032   1.492  0.6198  1.0182 -1.2099
  121MOL0     H16638   2.224   4.092   1.627 -0.1246 -2.6280  2.7367
  121MOL0     H16639   2.333   3.958   1.383 -0.4748 -1.8803  2.3719
  121MOL0     H16640   2.434   3.996   1.534 -2.1643  0.2618  3.7507
  121MOL0     H16641   2.300   4.183   1.326  0.2568  4.1528  0.6460
  121MOL0     H16642   2.364   4.242   1.468 -2.7061  0.5440 -1.4295
  121MOL0     H16643   2.554   4.077   1.286  0.4816  0.2243 -0.0121
  121MOL0     H16644   2.590   4.194   1.419  2.4026  3.0083 -2.5590
  121MOL0     H16645   2.452   4.257   1.148  0.1797  3.0963  0.0186
  121MOL0     H16646   2.489   4.367   1.266  1.5705  2.0254 -2.7275
  121MOL0     H16647   2.639   4.226   0.961 -1.0313 -2.3092  0.7505
  121MOL0     H16648   2.965   4.342   0.901 -0.7968  1.6568  2.5375
  121MOL0     H16649   2.882   4.202   0.860  0.4204  0.9376 -1.3695
  121MOL0     H16650   3.073   4.187   1.085 -0.9803 -1.6579  0.1333
  121MOL0     H16651   3.001   4.051   0.985 -0.8802  0.4850  1.4866
  121MOL0     H16652   3.129   4.118   0.801 -0.7148  2.4220 -0.3674
  121MOL0     H16653   3.208   4.246   0.889 -3.0384  1.2006  0.3187
  121MOL0     H16654   3.306   4.071   1.056 -1.2335 -2.8789  0.8535
  121MOL0     H16655   3.247   3.943   0.976  3.1091 -2.0212 -1.6934
  121MOL0     H16656   3.602   4.060   0.736 -3.5916  0.0538 -1.6947
  121MOL0     H16657   3.945   4.181   0.798  0.3013 -0.6196 -0.8921
  121MOL0     H16658   3.838   4.224   0.660 -0.6633 -0.5738 -0.1877
  121MOL0     H16659   3.832   4.066   0.727 -1.2433 -0.6764  2.4001
  121MOL0     H16660   4.083   4.561   0.890 -0.1330 -1.7667  1.2871
  121MOL0     H16661   4.207   4.719   1.031 -0.6756 -1.8499 -4.4772
  121MOL0     H16662   4.268   4.952   1.187  0.0864  0.4788 -1.7520
  121MOL0     H16663   4.118   4.998   1.098  0.5794 -1.7808 -0.7194
  121MOL0     H16664   4.028   5.104   1.296  0.3314  1.9818  0.2490
  121MOL0     H16665   4.171   5.065   1.383  0.6671  1.8976 -0.2038
  121MOL0     H16666   4.151   5.309   1.291  1.5516 -1.1164  2.4983
  121MOL0     H16667   4.173   5.246   1.129 -0.1881 -1.6672 -0.0964
  121MOL0     H16668   4.391   5.133   1.205 -0.4733  0.8691 -2.5011
  121MOL0     H16669   4.371   5.202   1.364 -1.5250 -1.4366  0.1502
  121MOL0     H16670   4.402   5.370   1.111  2.1614  0.5427 -1.1931
  121MOL0     H16671   4.381   5.433   1.273 -0.1522 -1.3069  0.5240
  121MOL0     H16672   4.596   5.264   1.149 -0.0001  2.3222 -1.7229
  121MOL0     H16673   4.599   5.277   1.318 -0.2603 -2.6686 -2.4305
  121MOL0     H16674   4.765   5.446   1.219  0.0801 -0.7283 -1.6790
  121MOL0     H16675   4.634   5.541   1.275 -0.3790 -0.8499 -0.1694
  121MOL0     H16676   4.708   5.600   1.050 -0.8389  1.3719  1.1788
  121MOL0     H16677   4.539   5.558   1.030  1.5301  2.9911 -1.8713
  121MOL0     H16678   3.855   4.805   1.260  0.5129 -2.5319  1.9708
  121MOL0     H16679   3.726   4.652   1.100  0.5425 -1.7095 -2.7045
  121MOL0     H16680   3.624   4.399   1.089  1.7193 -1.4227  0.6460
  121MOL0     H16681   3.409   4.269   1.067 -0.3193 -0.4353  0.8814
  121MOL0     H16682   2.039   3.470   1.831 -0.3902 -0.6128  1.0146
  121MOL0     H16683   1.955   3.287   1.968 -2.4934 -1.0326  1.6244
  121MOL0     H16684   1.809   3.250   2.546  1.5791  0.1476 -1.5907
  121MOL0     H16685   1.692   3.074   2.683  1.5305  0.1743 -0.4978
  121MOL0     H16686   1.624   2.824   2.709  0.8569  0.9517 -3.0861
  121MOL0     H16687   1.556   2.966   2.802 -1.8492 -1.6490  2.8921
  121MOL0     H16688   1.324   2.855   2.782  0.5752 -1.3061 -1.3140
  121MOL0     H16689   1.442   2.810   2.904  0.5676  0.0006  0.0925
  121MOL0     H16690   1.370   2.663   2.642 -3.0211 -2.5334  0.9816
  121MOL0     H16691   1.522   2.624   2.722  0.0152 -1.2359 -1.2947
  121MOL0     H16692   1.372   2.566   2.926  2.6301  0.5622 -0.8707
  121MOL0     H16693   1.337   2.481   2.770 -2.3956  0.5075 -0.8126
  121MOL0     H16694   0.982   2.674   2.814  0.6779  4.1867  1.8919
  121MOL0     H16695   1.453   2.962   2.354  1.4114 -3.8917  2.9138
  121MOL0     H16696   1.497   3.021   2.136  0.4700 -0.6888 -0.8959
  121MOL0     H16697   1.553   3.191   2.122  0.6348  0.4912  0.4659
  121MOL0     H16698   1.661   3.065   2.097 -0.4304 -1.3828  0.1200
  122MOL0     O16699   5.276   1.486   0.454  0.7938 -0.0339  0.0318
  122MOL0     C16700   5.241   1.384   0.386  0.4253 -1.0302 -0.6672
  122MOL0     O16701   5.313   1.276   0.357  0.3022 -0.1437 -0.8028
  122MOL0     C16702   5.445   1.253   0.394  0.0023  0.0180 -0.2746
  122MOL0     C16703   5.530   1.344   0.467 -0.1166  0.3495 -0.1002
  122MOL0     C16704   5.663   1.307   0.497  0.7930  0.0972 -0.6875
  122MOL0     C16705   5.722   1.188   0.454  0.3805  0.1819 -0.0206
  122MOL0     O16706   5.847   1.164   0.501 -0.6376 -0.6438 -0.1927
  122MOL0     C16707   5.927   1.055   0.443  0.0581  0.3805 -0.2774
  122MOL0     C16708   6.069   1.066   0.479 -0.0610  0.2507 -0.2788
  122MOL0     C16709   6.149   0.973   0.383  0.7603  0.1230  0.3659
  122MOL0     C16710   6.291   0.968   0.407 -0.5457  0.8124  1.3425
  122MOL0     C16711   6.361   1.089   0.357  0.3039 -0.8382  0.6466
  122MOL0     C16712   6.499   1.116   0.435  0.5827  0.3956 -0.9942
  122MOL0     C16713   6.567   1.245   0.396 -0.0631  0.7466 -0.2147
  122MOL0     C16714   6.603   1.256   0.244 -0.1285  0.7948  0.4329
  122MOL0     N16715   6.635   1.401   0.224  0.0722  0.4677  0.6001
  122MOL0     C16716   6.750   1.472   0.238  0.1174 -0.1414 -0.1740
  122MOL0     C16717   6.720   1.598   0.188  0.4432 -0.8594  0.0203
  122MOL0     C16718   6.815   1.720   0.196  0.2088  0.4712 -0.8432
  122MOL0     C16719   6.763   1.832   0.292 -0.0337 -0.0303  0.2100
  122MOL0     C16720   6.854   1.952   0.283  0.2617  0.1483  0.7258
  122MOL0     C16721   6.990   1.936   0.355 -0.2607  0.9087  0.1317
  122MOL0     O16722   6.958   1.940   0.496 -0.0008 -0.2018 -0.5446
  122MOL0     C16723   7.029   2.030   0.575  0.0487 -0.0220 -0.4058
  122MOL0     C16724   6.957   2.132   0.637 -0.5188 -0.3330 -0.1132
  122MOL0     C16725   7.023   2.226   0.723  0.5929 -0.2586  0.4790
  122MOL0     C16726   6.933   2.333   0.787 -0.6094  0.1014 -0.1255
  122MOL0     C16727   7.166   2.226   0.731  1.1833 -0.0993 -0.0282
  122MOL0     C16728   7.246   2.325   0.811  0.4236 -0.3606 -0.3581
  122MOL0     O16729   7.382   2.309   0.800  0.0261 -0.9645  0.3342
  122MOL0     C16730   7.465   2.385   0.877  0.9065  0.4464 -1.1238
  122MOL0     C16731   7.537   2.318   0.978  0.5203 -0.1724  0.0061
  122MOL0     C16732   7.626   2.394   1.059 -0.1375  0.1077 -1.0669
  122MOL0     C16733   7.623   2.536   1.053  0.0034 -0.1126  0.0048
  122MOL0     O16734   7.712   2.596   1.136 -0.3021 -0.0756  0.7821
  122MOL0     C16735   7.763   2.730   1.117  0.3363  0.4541  1.2644
  122MOL0     C16736   7.906   2.726   1.170  0.1733 -0.2355  0.2268
  122MOL0     C16737   8.016   2.637   1.111 -0.5378 -0.2313  0.0884
  122MOL0     C16738   8.005   2.601   0.965 -0.6993 -0.1569 -0.5642
  122MOL0     C16739   8.128   2.525   0.909 -1.1286 -0.4488 -0.2611
  122MOL0     C16740   8.268   2.602   0.949 -0.1629  0.9320 -1.0393
  122MOL0     C16741   8.394   2.553   0.883  0.0304 -0.1192  0.0539
  122MOL0     C16742   8.415   2.399   0.896  0.6429  0.3676 -0.3517
  122MOL0    Cl16743   8.450   2.364   1.069  0.3907  0.3463  0.0651
  122MOL0     C16744   7.549   2.604   0.947  0.5762 -0.1358 -0.2876
  122MOL0     C16745   7.472   2.526   0.853 -0.0321 -0.1280  0.0123
  122MOL0     O16746   7.190   2.394   0.899 -0.9863  0.1720  0.1934
  122MOL0     C16747   7.234   2.131   0.662 -0.6586 -0.2794 -0.1040
  122MOL0     C16748   7.168   2.034   0.587  0.2853  0.7397  0.3768
  122MOL0     N16749   6.592   1.595   0.137 -0.0471 -0.4112  0.0347
  122MOL0     N16750   6.539   1.475   0.162 -0.6604 -0.2313  0.2027
  122MOL0     C16751   5.642   1.102   0.380  0.6081  0.0411  0.1846
  122MOL0     C16752   5.505   1.141   0.350 -0.6718 -0.1174  0.1519
  122MOL0     C16753   5.106   1.386   0.328  0.3416 -0.2728  0.3287
  122MOL0     C16754   5.073   1.309   0.217  0.2867  0.2885  0.5892
  122MOL0     C16755   4.941   1.310   0.160  0.7355 -0.1096  0.3533
  122MOL0     C16756   4.844   1.399   0.207  0.2753  1.0502 -0.2877
  122MOL0     O16757   4.714   1.413   0.155  0.0640 -0.4367 -0.7394
  122MOL0     C16758   4.681   1.344   0.035 -0.4471  0.8013  0.4502
  122MOL0     C16759   4.538   1.374  -0.003 -0.0293 -0.0492 -0.7070
  122MOL0     C16760   4.436   1.361   0.112  0.2663 -0.2338  0.3400
  122MOL0     C16761   4.292   1.421   0.083  0.9957 -0.3549 -0.0193
  122MOL0     C16762   4.298   1.564   0.091 -0.0567 -0.4951  0.8618
  122MOL0     C16763   4.307   1.679   0.065  0.3748  0.7042 -0.7294
  122MOL0     C16764   4.880   1.479   0.314  0.6770 -0.0757  0.3240
  122MOL0     C16765   5.006   1.480   0.377  0.1951  0.3358  0.1894
  122MOL0     C16766   5.018   1.566   0.498 -0.5037 -0.4368  0.2497
  122MOL0     H16767   5.495   1.437   0.512 -0.0315 -0.2364  1.2317
  122MOL0     H16768   5.729   1.369   0.557  1.0337 -2.1180  1.4530
  122MOL0     H16769   5.904   1.060   0.337 -4.1628  0.9164  0.4748
  122MOL0     H16770   5.894   0.954   0.472 -0.5638  0.1507 -1.7195
  122MOL0     H16771   6.110   1.167   0.464  2.4856 -0.0417  3.4015
  122MOL0     H16772   6.081   1.041   0.585  0.2627  0.7784 -0.1880
  122MOL0     H16773   6.099   0.876   0.383 -0.0918  0.5519  0.4308
  122MOL0     H16774   6.134   1.020   0.285 -1.3801 -0.7432  0.2174
  122MOL0     H16775   6.302   0.948   0.514 -1.2776  0.3065  1.3329
  122MOL0     H16776   6.332   0.888   0.345 -0.5543 -0.2893  2.7076
  122MOL0     H16777   6.303   1.182   0.363  2.5925  0.6995  0.3174
  122MOL0     H16778   6.392   1.077   0.253  0.1451  1.1193  0.3225
  122MOL0     H16779   6.480   1.139   0.540 -0.0773  1.2634 -1.2897
  122MOL0     H16780   6.563   1.029   0.421 -0.5644 -0.5954 -0.2659
  122MOL0     H16781   6.657   1.264   0.455 -0.8672  0.4968  1.1401
  122MOL0     H16782   6.497   1.324   0.425 -0.3816  0.8645 -1.2647
  122MOL0     H16783   6.685   1.185   0.229 -1.1887 -0.7054  1.5115
  122MOL0     H16784   6.529   1.228   0.168  2.2763 -0.7058 -1.5392
  122MOL0     H16785   6.841   1.432   0.280 -0.9245 -2.5199 -0.0443
  122MOL0     H16786   6.828   1.766   0.098 -1.0101 -1.7628 -2.1275
  122MOL0     H16787   6.913   1.689   0.232  1.4658  1.8649 -2.9048
  122MOL0     H16788   6.663   1.864   0.263  0.2738  0.0568 -0.8303
  122MOL0     H16789   6.763   1.812   0.399  1.1087  1.5450  0.5420
  122MOL0     H16790   6.869   1.977   0.178 -1.8596 -0.2367  0.2836
  122MOL0     H16791   6.803   2.038   0.328  0.2785 -0.0117  1.0584
  122MOL0     H16792   7.042   1.844   0.326 -1.6958 -0.7166  2.3754
  122MOL0     H16793   7.055   2.022   0.334 -1.0239  1.0004 -2.0941
  122MOL0     H16794   6.849   2.128   0.641 -0.6816 -0.4888 -2.9056
  122MOL0     H16795   6.918   2.309   0.892  1.2497 -3.1618 -0.4638
  122MOL0     H16796   6.835   2.336   0.739  0.2300 -1.1565 -2.0332
  122MOL0     H16797   6.985   2.428   0.773  1.7864 -1.0875  0.1886
  122MOL0     H16798   7.523   2.210   0.981 -1.3076 -0.0585 -1.8512
  122MOL0     H16799   7.698   2.344   1.123  0.1428  0.2153 -1.2939
  122MOL0     H16800   7.766   2.746   1.008  0.4612 -0.7798  1.0639
  122MOL0     H16801   7.693   2.798   1.164 -0.1472  0.8747 -0.0241
  122MOL0     H16802   7.949   2.825   1.154 -0.8689 -0.2596 -3.8279
  122MOL0     H16803   7.891   2.716   1.278 -2.2546  0.1182 -0.0264
  122MOL0     H16804   8.028   2.551   1.178  0.9222  0.2350  0.4600
  122MOL0     H16805   8.101   2.706   1.115  0.0251 -0.8587 -0.6799
  122MOL0     H16806   7.981   2.686   0.901  1.5956 -1.3468 -3.2310
  122MOL0     H16807   7.922   2.532   0.945 -0.9296  0.2717 -1.1018
  122MOL0     H16808   8.143   2.423   0.946 -0.0455  0.2958  1.5382
  122MOL0     H16809   8.124   2.521   0.800  2.8517  1.0799 -0.6332
  122MOL0     H16810   8.281   2.601   1.058  0.9253  4.1687 -1.0115
  122MOL0     H16811   8.260   2.708   0.921  2.2610  0.5036 -3.7398
  122MOL0     H16812   8.475   2.608   0.930 -1.0330  0.7775  0.9124
  122MOL0     H16813   8.396   2.589   0.780  4.7736  0.2949  0.0783
  122MOL0     H16814   8.498   2.368   0.833  2.4361 -1.8334  2.8479
  122MOL0     H16815   8.323   2.347   0.868  0.2829  1.1714 -0.6804
  122MOL0     H16816   7.535   2.712   0.945 -2.1635 -0.4043  0.4255
  122MOL0     H16817   7.406   2.567   0.777 -0.7154 -2.4829 -0.7588
  122MOL0     H16818   7.341   2.120   0.677 -0.7557 -1.1060  0.0360
  122MOL0     H16819   7.223   1.962   0.528 -2.9611  0.4850 -2.6669
  122MOL0     H16820   5.678   1.007   0.341 -3.0634 -1.3043 -0.3157
  122MOL0     H16821   5.446   1.076   0.285  0.4262 -1.8920  0.8429
  122MOL0     H16822   5.139   1.237   0.169  1.0384  1.0285  0.4829
  122MOL0     H16823   4.929   1.243   0.075  0.6370  0.5261 -0.1459
  122MOL0     H16824   4.739   1.371  -0.053 -1.2238 -1.4337 -0.8286
  122MOL0     H16825   4.687   1.237   0.055  1.6909  0.9116  0.5508
  122MOL0     H16826   4.500   1.316  -0.088 -2.3710 -0.8251  0.7605
  122MOL0     H16827   4.544   1.478  -0.037  0.9386  0.1867  0.1334
  122MOL0     H16828   4.421   1.253   0.121 -3.2807 -0.0104 -0.8646
  122MOL0     H16829   4.464   1.411   0.205  0.9611 -1.4505  0.8073
  122MOL0     H16830   4.225   1.388   0.163  1.6014  1.2947  1.2183
  122MOL0     H16831   4.259   1.394  -0.018 -1.9657 -0.0628  0.7928
  122MOL0     H16832   4.305   1.784   0.041 -1.1527  1.0272  0.6532
  122MOL0     H16833   4.802   1.539   0.360 -1.7994 -3.1483  0.5412
  122MOL0     H16834   5.055   1.503   0.579  0.8168  0.5476  0.4318
  122MOL0     H16835   5.076   1.656   0.475 -0.8123 -0.9068 -2.8392
  122MOL0     H16836   4.920   1.598   0.536  0.1577  1.3268  0.5837
  123MOL0     O16837   5.256  11.338   5.812  0.0996 -0.3159 -0.3003
  123MOL0     C16838   5.289  11.441   5.760 -1.1420  0.5911  0.1111
  123MOL0     O16839   5.231  11.497   5.651  0.0258 -0.1995 -0.1096
  123MOL0     C16840   5.122  11.431   5.595  0.3278 -1.1209  0.3259
  123MOL0     C16841   5.005  11.500   5.589 -0.1926  0.8965  0.2934
  123MOL0     C16842   4.889  11.451   5.532  0.3857  0.1973 -0.3500
  123MOL0     C16843   4.890  11.324   5.478  0.1128 -0.6168  0.2752
  123MOL0     O16844   4.774  11.281   5.424  0.1855  0.2086  0.5656
  123MOL0     C16845   4.755  11.140   5.388  0.7814 -0.1355  0.4802
  123MOL0     C16846   4.610  11.114   5.353 -0.7892  0.5606 -0.0361
  123MOL0     C16847   4.570  11.174   5.214 -0.2163 -0.2746 -0.2132
  123MOL0     C16848   4.419  11.171   5.182  0.3734  0.4274 -0.4016
  123MOL0     C16849   4.405  11.271   5.057  0.0327 -0.7016 -0.2703
  123MOL0     C16850   4.274  11.240   4.991 -0.0443  0.2518 -0.5642
  123MOL0     C16851   4.246  11.349   4.879 -0.4695  0.3244  0.1471
  123MOL0     C16852   4.140  11.294   4.786  0.1432 -0.8287  0.2960
  123MOL0     N16853   4.180  11.174   4.721 -0.2403  0.1013 -0.7679
  123MOL0     C16854   4.261  11.165   4.609  0.9860  0.2088 -0.3210
  123MOL0     C16855   4.246  11.043   4.574 -0.5644 -0.0311 -0.3044
  123MOL0     C16856   4.307  10.979   4.447 -0.2922 -0.0875 -1.1702
  123MOL0     C16857   4.457  10.963   4.464 -0.6423 -0.0481 -0.3168
  123MOL0     C16858   4.493  10.831   4.522  0.6594  0.2371  0.4424
  123MOL0     C16859   4.646  10.811   4.549 -0.5042 -0.4596  0.2027
  123MOL0     O16860   4.727  10.858   4.441 -0.1955  0.0872 -0.5011
  123MOL0     C16861   4.810  10.952   4.477 -0.2515  0.1078  0.4226
  123MOL0     C16862   4.928  10.912   4.533  0.7994 -0.1447 -0.4868
  123MOL0     C16863   5.029  11.002   4.572 -0.4840 -0.2356  0.2673
  123MOL0     C16864   5.158  10.950   4.621  0.3860  0.1626 -0.3176
  123MOL0     C16865   4.997  11.140   4.558  0.2481 -0.6904  0.1775
  123MOL0     C16866   5.094  11.250   4.599  0.8691 -0.4795 -0.1889
  123MOL0     O16867   5.232  11.224   4.604 -0.8419  0.6379 -0.3340
  123MOL0     C16868   5.313  11.324   4.654  0.5780  0.3048  0.0883
  123MOL0     C16869   5.304  11.455   4.613 -0.6555  0.1285  0.2437
  123MOL0     C16870   5.406  11.545   4.651 -0.2880 -0.6552 -0.4222
  123MOL0     C16871   5.503  11.512   4.745  1.3027 -0.1781 -0.2365
  123MOL0     O16872   5.592  11.616   4.780  0.2740 -0.4026 -0.0114
  123MOL0     C16873   5.667  11.668   4.667 -0.1434 -0.4025 -0.4417
  123MOL0     C16874   5.797  11.738   4.709 -0.2358 -0.1690 -0.6923
  123MOL0     C16875   5.873  11.632   4.804  0.7841 -0.4128  0.9230
  123MOL0     C16876   5.981  11.718   4.873  0.0529 -0.2767  0.0498
  123MOL0     C16877   6.091  11.775   4.786 -0.0437 -0.3079  0.9508
  123MOL0     C16878   6.167  11.684   4.694 -0.0437 -0.1083 -0.1498
  123MOL0     C16879   6.231  11.564   4.765  0.6435  0.0981  0.2095
  123MOL0     C16880   6.305  11.487   4.665 -0.5545 -0.0160 -0.0566
  123MOL0    Cl16881   6.194  11.426   4.537  0.1832  0.0814  0.1053
  123MOL0     C16882   5.511  11.378   4.789  0.6525  0.4320  0.1869
  123MOL0     C16883   5.427  11.285   4.732  1.5123  0.3494 -0.7055
  123MOL0     O16884   5.038  11.359   4.628 -0.0502 -0.1601  0.5407
  123MOL0     C16885   4.876  11.180   4.496  0.2872  0.1236 -0.6401
  123MOL0     C16886   4.787  11.079   4.462  0.3298  0.0348  0.4005
  123MOL0     N16887   4.163  10.977   4.660  0.3183  0.4459  0.0616
  123MOL0     N16888   4.127  11.054   4.752  0.2020  0.0335  0.1390
  123MOL0     C16889   5.001  11.249   5.495 -0.3247  1.0071 -0.4074
  123MOL0     C16890   5.117  11.303   5.547  0.0443  0.3303  0.4939
  123MOL0     C16891   5.392  11.526   5.824  0.0353  0.7660  0.6353
  123MOL0     C16892   5.455  11.476   5.938 -0.2050  0.0723  0.0781
  123MOL0     C16893   5.537  11.550   6.017 -0.4147 -0.4131 -0.5141
  123MOL0     C16894   5.573  11.683   5.972  0.4509 -0.0605  0.6032
  123MOL0     O16895   5.659  11.764   6.037  0.3016  0.0192  0.3665
  123MOL0     C16896   5.729  11.722   6.160 -0.2832 -0.3905 -0.5519
  123MOL0     C16897   5.875  11.710   6.129  0.6362 -0.2379  0.0849
  123MOL0     C16898   5.960  11.714   6.259 -0.8756  0.8282  0.0023
  123MOL0     C16899   6.009  11.571   6.297  0.9948 -0.1413 -1.0483
  123MOL0     C16900   5.907  11.475   6.356 -0.2136  0.2336  0.1251
  123MOL0     C16901   5.825  11.404   6.410  1.2770 -0.8414 -0.3994
  123MOL0     C16902   5.522  11.732   5.851  0.2816  0.8607  0.3809
  123MOL0     C16903   5.431  11.660   5.777  0.1728  0.0360  0.8232
  123MOL0     C16904   5.374  11.730   5.653 -0.2948 -0.2522  1.0579
  123MOL0     H16905   5.000  11.602   5.628 -2.0680  2.3264 -3.2463
  123MOL0     H16906   4.805  11.519   5.518 -0.9196 -0.9866  1.3529
  123MOL0     H16907   4.764  11.077   5.477  4.0124 -0.3059  0.1465
  123MOL0     H16908   4.816  11.121   5.300 -0.7090  2.6812 -1.3071
  123MOL0     H16909   4.588  11.007   5.344 -0.9392 -0.0030  4.4763
  123MOL0     H16910   4.545  11.142   5.437  1.3867 -1.0539  2.3572
  123MOL0     H16911   4.591  11.281   5.228 -0.0770 -0.3962  0.5147
  123MOL0     H16912   4.623  11.135   5.126 -0.2358  0.2386 -0.4592
  123MOL0     H16913   4.384  11.068   5.171 -0.1631  0.5538  0.0666
  123MOL0     H16914   4.352  11.200   5.264  0.3075 -3.6650  1.2318
  123MOL0     H16915   4.487  11.256   4.987  1.0315  1.0232  0.4556
  123MOL0     H16916   4.409  11.379   5.076  0.0277 -0.1733 -2.8844
  123MOL0     H16917   4.275  11.136   4.957 -5.2069 -1.4206  3.0606
  123MOL0     H16918   4.194  11.240   5.066  0.7020 -1.9627  0.2820
  123MOL0     H16919   4.337  11.369   4.823 -0.7451 -1.5409 -1.0611
  123MOL0     H16920   4.211  11.444   4.921 -0.7691  0.3685 -0.1942
  123MOL0     H16921   4.045  11.286   4.839 -1.0785  0.2880 -1.6002
  123MOL0     H16922   4.123  11.371   4.710  2.6527  1.8295  2.1861
  123MOL0     H16923   4.315  11.235   4.546 -0.8587  1.3768 -0.6842
  123MOL0     H16924   4.283  11.041   4.359 -0.5031 -0.4783 -1.3901
  123MOL0     H16925   4.266  10.881   4.422  1.5922 -0.7902 -1.7241
  123MOL0     H16926   4.509  10.972   4.369  2.5187 -0.7145  1.2190
  123MOL0     H16927   4.504  11.036   4.531  2.2223 -1.0950 -1.0698
  123MOL0     H16928   4.434  10.816   4.613  0.5307 -3.9400 -0.1585
  123MOL0     H16929   4.456  10.749   4.459 -1.2426  1.0441  0.4205
  123MOL0     H16930   4.666  10.855   4.648  2.0344 -1.1813  0.0726
  123MOL0     H16931   4.672  10.706   4.568 -0.9006 -0.1859  2.6842
  123MOL0     H16932   4.945  10.805   4.539  0.1448 -0.5126 -3.4264
  123MOL0     H16933   5.156  10.842   4.603  0.6349 -0.2031  1.6752
  123MOL0     H16934   5.179  10.969   4.726  0.9249 -1.4759 -0.1159
  123MOL0     H16935   5.246  10.985   4.566  1.8297  0.1353  1.8468
  123MOL0     H16936   5.219  11.492   4.558  1.0950  1.4562 -1.6912
  123MOL0     H16937   5.405  11.646   4.611 -2.1045  0.3962  2.0089
  123MOL0     H16938   5.684  11.589   4.593  0.2155  0.4174 -1.2590
  123MOL0     H16939   5.601  11.745   4.625  0.2619 -0.5545 -1.3756
  123MOL0     H16940   5.867  11.756   4.627 -0.7801  1.7251 -0.7920
  123MOL0     H16941   5.778  11.826   4.771  0.4671 -1.8358  2.0383
  123MOL0     H16942   5.918  11.544   4.756  2.4747  1.3717 -1.0176
  123MOL0     H16943   5.804  11.593   4.878 -2.8904  2.5003 -0.6281
  123MOL0     H16944   6.034  11.656   4.945 -0.4296 -2.2965 -1.2610
  123MOL0     H16945   5.951  11.813   4.918 -0.4134  0.2104 -1.2465
  123MOL0     H16946   6.031  11.852   4.737  0.0439 -0.5972  0.3743
  123MOL0     H16947   6.167  11.820   4.850  1.1287  1.1387 -1.3245
  123MOL0     H16948   6.240  11.736   4.632  2.0078 -3.4093 -0.7957
  123MOL0     H16949   6.083  11.657   4.629  0.2554 -0.4769 -0.3887
  123MOL0     H16950   6.158  11.491   4.801 -0.6060  0.0606 -2.1866
  123MOL0     H16951   6.295  11.601   4.846 -0.5543  2.1743  0.2832
  123MOL0     H16952   6.361  11.399   4.698 -0.6211 -0.1855 -0.3944
  123MOL0     H16953   6.387  11.544   4.621  1.3107 -2.4883 -0.0263
  123MOL0     H16954   5.587  11.350   4.862 -0.2679 -0.2427  0.9198
  123MOL0     H16955   5.451  11.180   4.747  1.1256  0.5265  1.4239
  123MOL0     H16956   4.848  11.284   4.488 -0.4698  0.0253  0.5516
  123MOL0     H16957   4.690  11.103   4.420  1.1472  0.8693 -1.1018
  123MOL0     H16958   5.003  11.156   5.440  0.9438  1.7887 -1.7352
  123MOL0     H16959   5.205  11.239   5.544  0.3329  0.6050  2.0942
  123MOL0     H16960   5.436  11.377   5.978 -0.0215  0.5322  1.3482
  123MOL0     H16961   5.575  11.507   6.110  0.6550  1.2697 -0.1317
  123MOL0     H16962   5.715  11.807   6.228 -1.0703 -1.5513  0.7908
  123MOL0     H16963   5.697  11.639   6.223 -0.7555  1.2165  1.4223
  123MOL0     H16964   5.890  11.799   6.066  1.0913 -0.6288 -0.3635
  123MOL0     H16965   5.882  11.622   6.064  1.9476 -0.1531  0.1018
  123MOL0     H16966   6.048  11.779   6.257  0.4299 -0.8302  1.0742
  123MOL0     H16967   5.894  11.753   6.338 -0.1239 -1.9235  2.1438
  123MOL0     H16968   6.083  11.591   6.375  1.5671  2.5081 -2.1649
  123MOL0     H16969   6.060  11.531   6.209 -0.4402  0.5706 -2.2558
  123MOL0     H16970   5.746  11.349   6.458  1.2097  0.2112  0.7279
  123MOL0     H16971   5.554  11.828   5.812  2.1862 -0.3767 -1.3758
  123MOL0     H16972   5.265  11.715   5.652 -0.1059 -1.8321  0.0283
  123MOL0     H16973   5.403  11.835   5.640  0.2753 -0.6154 -0.9107
  123MOL0     H16974   5.413  11.664   5.575  0.5980 -1.1454  2.2304
  124MOL0     O16975   1.902  11.308   9.174  0.2034 -0.1837 -0.1630
  124MOL0     C16976   1.850  11.367   9.076 -0.4338  0.3794  0.4764
  124MOL0     O16977   1.903  11.371   8.956  0.6169 -0.4814  0.5846
  124MOL0     C16978   2.006  11.301   8.909 -0.4166 -0.4343  0.1924
  124MOL0     C16979   2.086  11.374   8.815  0.5443  0.1238 -0.2599
  124MOL0     C16980   2.199  11.322   8.763 -0.4877 -0.2434  0.4487
  124MOL0     C16981   2.241  11.200   8.794 -0.2429  0.0465 -0.1958
  124MOL0     O16982   2.357  11.155   8.747 -0.3395 -0.1273  0.1549
  124MOL0     C16983   2.390  11.015   8.755 -0.5632 -0.8411 -0.5979
  124MOL0     C16984   2.508  11.000   8.658  0.4869  0.1532  0.1695
  124MOL0     C16985   2.558  10.859   8.645  0.3391  0.6161  0.7423
  124MOL0     C16986   2.672  10.841   8.559  0.0934  0.4693  0.3011
  124MOL0     C16987   2.636  10.837   8.411  0.5442 -0.2388  0.0062
  124MOL0     C16988   2.772  10.848   8.329  1.4728  1.2622  0.4670
  124MOL0     C16989   2.860  10.723   8.356 -0.3419 -0.4742  0.2074
  124MOL0     C16990   2.983  10.705   8.260  0.2406 -0.0723  0.0012
  124MOL0     N16991   3.085  10.806   8.283  0.3498  0.6940 -0.6691
  124MOL0     C16992   3.087  10.935   8.257  1.3016  0.9605 -0.3130
  124MOL0     C16993   3.204  10.987   8.306  0.0816  0.6038  0.0916
  124MOL0     C16994   3.268  11.124   8.300 -0.1944 -1.2962  0.0601
  124MOL0     C16995   3.385  11.137   8.192  0.6801  0.4564 -0.3964
  124MOL0     C16996   3.425  11.280   8.143 -0.4213 -0.1847 -0.4906
  124MOL0     C16997   3.559  11.275   8.061  0.5424 -0.2975 -0.0626
  124MOL0     O16998   3.577  11.408   8.018 -0.2423  0.0820 -0.8294
  124MOL0     C16999   3.674  11.453   7.929 -0.1162 -0.2287  0.6667
  124MOL0     C17000   3.695  11.592   7.912  0.3665 -0.0570 -0.2934
  124MOL0     C17001   3.807  11.638   7.844 -0.0664 -0.5056  0.1894
  124MOL0     C17002   3.809  11.786   7.807 -0.3401 -0.8100  0.4811
  124MOL0     C17003   3.911  11.553   7.789  0.3705  0.2264 -1.0502
  124MOL0     C17004   4.039  11.596   7.725  0.2674  0.1521 -0.4782
  124MOL0     O17005   4.088  11.495   7.652 -0.5081 -0.4750 -0.8471
  124MOL0     C17006   4.211  11.520   7.591 -0.1291 -1.1253 -1.0324
  124MOL0     C17007   4.330  11.473   7.649 -0.0268  1.0594 -0.5598
  124MOL0     C17008   4.452  11.461   7.571  0.6779 -0.1246 -0.0336
  124MOL0     C17009   4.445  11.502   7.437 -0.9010  0.3788 -0.2019
  124MOL0     O17010   4.545  11.484   7.337 -1.4722 -0.0965 -0.0454
  124MOL0     C17011   4.672  11.437   7.377  0.5594  0.0467  0.2035
  124MOL0     C17012   4.768  11.412   7.253 -0.3712  0.0450  0.0418
  124MOL0     C17013   4.908  11.383   7.309 -0.7761  0.6310 -0.6330
  124MOL0     C17014   5.031  11.377   7.209  0.4760  0.4128  0.4173
  124MOL0     C17015   5.154  11.348   7.285 -0.1565  0.3281 -0.1452
  124MOL0     C17016   5.180  11.210   7.343 -0.2755 -0.6362  0.7613
  124MOL0     C17017   5.292  11.210   7.445  0.2854  0.4065  0.6613
  124MOL0     C17018   5.249  11.268   7.584  0.5395 -0.0587  0.7162
  124MOL0    Cl17019   5.073  11.295   7.612  0.5624  0.2731  0.2931
  124MOL0     C17020   4.330  11.565   7.389 -0.6794  0.4510  0.0644
  124MOL0     C17021   4.210  11.572   7.463  0.2757 -0.0019  0.1281
  124MOL0     O17022   4.094  11.710   7.739 -0.8752 -0.2717 -0.2179
  124MOL0     C17023   3.884  11.415   7.809 -0.3304 -0.9396  0.1771
  124MOL0     C17024   3.772  11.365   7.879 -0.0883  0.0242  0.3380
  124MOL0     N17025   3.267  10.879   8.362 -0.1484  0.5794 -0.1407
  124MOL0     N17026   3.192  10.774   8.365 -0.8773  0.3532 -0.0965
  124MOL0     C17027   2.157  11.124   8.882 -0.4018  0.4578  0.5755
  124MOL0     C17028   2.040  11.175   8.942 -0.4350  0.0463  0.1906
  124MOL0     C17029   1.718  11.429   9.098 -0.0441 -0.1607  0.2706
  124MOL0     C17030   1.697  11.501   9.210  0.0798 -0.0630 -0.6314
  124MOL0     C17031   1.592  11.588   9.241  0.3213 -0.6038  0.2226
  124MOL0     C17032   1.501  11.611   9.134 -0.0743 -0.3832 -1.2780
  124MOL0     O17033   1.406  11.713   9.124 -0.0730 -0.0334 -0.4309
  124MOL0     C17034   1.408  11.811   9.222  0.5242  0.4764 -0.1477
  124MOL0     C17035   1.343  11.935   9.169 -0.2197  0.1976 -0.6904
  124MOL0     C17036   1.187  11.932   9.169  0.4362 -0.0670 -0.4026
  124MOL0     C17037   1.114  12.064   9.186  0.1033 -0.8930  0.4689
  124MOL0     C17038   1.119  12.138   9.067  0.6692 -0.5038  1.3075
  124MOL0     C17039   1.102  12.203   8.963  0.5183 -0.3342 -0.2252
  124MOL0     C17040   1.514  11.537   9.020  0.1268  0.9787 -0.5967
  124MOL0     C17041   1.617  11.435   9.004 -1.6341 -0.3032 -0.5989
  124MOL0     C17042   1.624  11.358   8.878 -0.4551 -0.3028 -0.7821
  124MOL0     H17043   2.052  11.474   8.792 -0.8370 -0.4432 -0.7782
  124MOL0     H17044   2.257  11.386   8.698  0.6176 -2.8310 -1.3167
  124MOL0     H17045   2.301  10.962   8.719 -2.2794  1.3469  0.1951
  124MOL0     H17046   2.414  10.987   8.858 -1.5440 -1.8199 -0.6212
  124MOL0     H17047   2.479  11.033   8.558 -0.4415 -1.1133  0.0046
  124MOL0     H17048   2.587  11.057   8.707  0.1988  0.2096  0.5792
  124MOL0     H17049   2.598  10.845   8.746  0.7314  0.6010  0.5854
  124MOL0     H17050   2.476  10.787   8.629  0.2483  0.5018  1.6618
  124MOL0     H17051   2.737  10.929   8.569  2.8635 -1.4192  0.0358
  124MOL0     H17052   2.725  10.750   8.589  2.0584  1.5402  0.2726
  124MOL0     H17053   2.578  10.928   8.396  0.0387 -0.2240  1.8388
  124MOL0     H17054   2.575  10.749   8.388 -0.8024  0.4484  0.8626
  124MOL0     H17055   2.738  10.847   8.225 -1.8044 -2.9820  1.3180
  124MOL0     H17056   2.819  10.944   8.354 -2.6466  3.7698 -0.3826
  124MOL0     H17057   2.801  10.632   8.343  0.8476 -1.2194 -0.1944
  124MOL0     H17058   2.900  10.738   8.457 -0.9067  4.2596 -0.0629
  124MOL0     H17059   3.022  10.604   8.275 -2.1803 -0.6684  3.3749
  124MOL0     H17060   2.946  10.722   8.158  2.3844  1.2065 -0.6288
  124MOL0     H17061   3.015  10.980   8.189  0.1598 -0.9286 -0.4421
  124MOL0     H17062   3.317  11.146   8.395  0.5872 -0.2453 -0.5680
  124MOL0     H17063   3.188  11.193   8.274 -0.8680 -1.8524  0.6356
  124MOL0     H17064   3.477  11.093   8.232 -0.1046  1.2410  2.5694
  124MOL0     H17065   3.356  11.074   8.108  0.1402  0.9930 -0.6184
  124MOL0     H17066   3.344  11.330   8.088 -2.0069  1.0522  2.7219
  124MOL0     H17067   3.447  11.342   8.230 -0.0479 -0.1357 -0.6175
  124MOL0     H17068   3.647  11.243   8.118  1.1355  3.6303  1.5520
  124MOL0     H17069   3.555  11.215   7.969 -0.4651 -2.1145  1.0943
  124MOL0     H17070   3.622  11.666   7.945 -0.3748  0.4435 -2.8744
  124MOL0     H17071   3.841  11.840   7.896  0.3462 -0.5943  0.1138
  124MOL0     H17072   3.712  11.821   7.772 -1.3121 -1.5513  2.3076
  124MOL0     H17073   3.875  11.815   7.724  0.7675 -0.2747  1.5158
  124MOL0     H17074   4.323  11.434   7.750 -0.1324 -2.1293 -1.6975
  124MOL0     H17075   4.540  11.434   7.629 -1.2697  0.7740  3.6849
  124MOL0     H17076   4.714  11.507   7.450  0.0693 -0.9040  1.4245
  124MOL0     H17077   4.662  11.337   7.421  2.3639 -0.1356  0.2902
  124MOL0     H17078   4.733  11.328   7.193  2.2808 -0.3045 -1.1259
  124MOL0     H17079   4.764  11.498   7.185 -4.0228  1.4482  1.7303
  124MOL0     H17080   4.906  11.288   7.363 -1.2314  0.2498 -1.3082
  124MOL0     H17081   4.924  11.460   7.386 -1.9261 -1.0471  1.3899
  124MOL0     H17082   5.037  11.478   7.168 -1.2897  0.4948  0.2911
  124MOL0     H17083   5.035  11.310   7.123  1.1722 -0.7302  1.3191
  124MOL0     H17084   5.238  11.366   7.216 -0.1367  1.8502  0.2463
  124MOL0     H17085   5.158  11.424   7.363 -2.9531 -1.8013  2.2755
  124MOL0     H17086   5.215  11.150   7.259 -0.3722  1.7012 -1.0362
  124MOL0     H17087   5.089  11.161   7.380 -0.7332  0.4324  1.0717
  124MOL0     H17088   5.381  11.263   7.411 -0.1905  1.2324  0.6601
  124MOL0     H17089   5.311  11.103   7.456  0.5515  0.3372 -0.3646
  124MOL0     H17090   5.304  11.362   7.586  2.0115 -0.8963  1.7058
  124MOL0     H17091   5.280  11.204   7.667  0.2486  0.7261  1.4503
  124MOL0     H17092   4.324  11.581   7.282 -2.7252 -2.8454 -0.4467
  124MOL0     H17093   4.116  11.597   7.415 -0.3624 -1.0263  0.8089
  124MOL0     H17094   3.954  11.347   7.760  1.4355  1.0861 -0.3063
  124MOL0     H17095   3.754  11.258   7.893 -0.0859  0.0515  0.5527
  124MOL0     H17096   2.197  11.026   8.908 -1.3209  0.7003  3.1816
  124MOL0     H17097   1.979  11.124   9.016 -1.4539  0.7386 -0.1522
  124MOL0     H17098   1.783  11.504   9.277  0.2913  1.7623 -0.9481
  124MOL0     H17099   1.586  11.644   9.334  0.0263 -0.1281 -0.0736
  124MOL0     H17100   1.356  11.777   9.312 -0.1114  2.1666  0.1614
  124MOL0     H17101   1.512  11.833   9.248  1.6624 -2.1890 -2.0490
  124MOL0     H17102   1.373  11.955   9.066 -0.8527  1.6011 -0.6281
  124MOL0     H17103   1.375  12.017   9.234  0.5904  2.2371 -3.4711
  124MOL0     H17104   1.148  11.876   9.084  2.6053 -1.1013 -0.7893
  124MOL0     H17105   1.163  11.878   9.261 -2.3695 -0.2482 -1.1520
  124MOL0     H17106   1.158  12.117   9.271  0.8218 -1.5220  0.5109
  124MOL0     H17107   1.010  12.036   9.207 -0.7073  1.3667 -0.2668
  124MOL0     H17108   1.081  12.251   8.869 -2.4997 -2.8919 -1.0273
  124MOL0     H17109   1.450  11.552   8.934 -0.9503  0.9272  0.1789
  124MOL0     H17110   1.676  11.418   8.803  0.8580  2.3081  2.0110
  124MOL0     H17111   1.669  11.260   8.895  0.6557  0.0131 -1.8095
  124MOL0     H17112   1.520  11.346   8.847 -1.7188 -0.0404  2.8723
  125MOL0     O17113   4.895   7.204   1.550  0.0301  0.5801  0.7240
  125MOL0     C17114   4.938   7.292   1.629  0.3028  0.1795 -0.0623
  125MOL0     O17115   4.859   7.391   1.688 -0.2552 -0.0119  0.2338
  125MOL0     C17116   4.721   7.363   1.677  0.3645 -0.1336  0.1024
  125MOL0     C17117   4.661   7.258   1.752 -0.2350 -0.0274  0.4167
  125MOL0     C17118   4.525   7.222   1.734 -0.4893 -0.1527  0.0319
  125MOL0     C17119   4.445   7.284   1.647 -0.0138 -0.2783  0.7659
  125MOL0     O17120   4.310   7.256   1.643 -0.4856  0.4786  1.0308
  125MOL0     C17121   4.224   7.377   1.642  0.0255 -0.2564 -0.2495
  125MOL0     C17122   4.088   7.331   1.695 -0.4479  0.0077  0.5927
  125MOL0     C17123   3.994   7.304   1.579  0.2685 -0.1892 -0.3671
  125MOL0     C17124   3.866   7.240   1.627  0.2015 -0.6775  0.1781
  125MOL0     C17125   3.788   7.165   1.514 -0.2661 -0.2494 -0.2808
  125MOL0     C17126   3.754   7.258   1.398 -0.2398 -0.9509  0.5533
  125MOL0     C17127   3.700   7.171   1.291  0.5093 -0.5493 -0.0455
  125MOL0     C17128   3.676   7.241   1.151 -0.4257 -0.3029  0.5802
  125MOL0     N17129   3.790   7.231   1.057  0.9930  0.1045  0.2750
  125MOL0     C17130   3.832   7.114   0.996  0.2128  0.3299  0.0490
  125MOL0     C17131   3.933   7.156   0.912  0.2936 -0.1269 -0.0870
  125MOL0     C17132   4.045   7.077   0.850 -0.4115  0.1253  0.8342
  125MOL0     C17133   4.081   7.128   0.709  0.6501 -0.1318  0.3159
  125MOL0     C17134   4.113   7.016   0.609 -0.0074 -0.3045  0.1224
  125MOL0     C17135   4.260   7.012   0.559  0.3120  0.5147  0.3537
  125MOL0     O17136   4.356   7.009   0.668 -0.1826 -0.4591 -0.2392
  125MOL0     C17137   4.486   7.035   0.629  0.5490 -0.3393  0.1317
  125MOL0     C17138   4.548   7.047   0.503  0.4080  0.5729  1.1325
  125MOL0     C17139   4.688   7.049   0.488 -0.4194 -0.1769 -0.6536
  125MOL0     C17140   4.755   7.016   0.349 -0.2592  0.2090  0.5397
  125MOL0     C17141   4.766   7.063   0.603 -0.5373 -0.5387  0.0705
  125MOL0     C17142   4.914   7.086   0.603 -0.0129  0.1751  0.4994
  125MOL0     O17143   4.968   7.074   0.728 -0.2962  0.4627 -0.2471
  125MOL0     C17144   5.108   7.077   0.740  0.2440 -0.4908 -1.1421
  125MOL0     C17145   5.152   7.110   0.864 -0.5103 -0.3775  0.5009
  125MOL0     C17146   5.289   7.126   0.897 -0.9710 -1.0727 -0.2350
  125MOL0     C17147   5.387   7.090   0.796  0.1097  0.4632  0.1775
  125MOL0     O17148   5.519   7.101   0.834 -0.2597 -0.6446  0.2714
  125MOL0     C17149   5.615   7.126   0.729  0.5630  0.0993  0.0793
  125MOL0     C17150   5.734   7.189   0.790  0.0197  0.0565  0.9649
  125MOL0     C17151   5.864   7.121   0.739  0.5710  0.3189 -1.2832
  125MOL0     C17152   5.882   6.987   0.808 -0.1112 -0.2982  0.2269
  125MOL0     C17153   6.005   6.930   0.749  0.6541  0.4554 -0.8898
  125MOL0     C17154   6.016   6.774   0.766 -0.1037 -0.1702  0.3727
  125MOL0     C17155   6.157   6.718   0.722 -0.5512  0.4188  0.1842
  125MOL0     C17156   6.268   6.714   0.831  0.3438 -0.5827  0.1530
  125MOL0    Cl17157   6.414   6.617   0.761  0.0965 -0.0357 -0.1264
  125MOL0     C17158   5.340   7.035   0.676  0.4162 -0.7986 -0.6033
  125MOL0     C17159   5.200   7.030   0.643  0.8593  0.5536  0.1330
  125MOL0     O17160   4.969   7.121   0.499 -0.4381  0.4956  0.4873
  125MOL0     C17161   4.706   7.066   0.731 -0.0604  1.4292  0.3671
  125MOL0     C17162   4.569   7.048   0.741  0.3767 -0.4173 -0.0026
  125MOL0     N17163   3.937   7.290   0.917 -0.7727 -0.3777 -0.3260
  125MOL0     N17164   3.852   7.339   1.000  0.2597 -0.3847 -0.1970
  125MOL0     C17165   4.502   7.383   1.565  1.2011  0.0285 -0.0570
  125MOL0     C17166   4.637   7.421   1.574 -0.7190  0.0532 -0.0942
  125MOL0     C17167   5.082   7.285   1.672  0.7193 -0.3355  0.3391
  125MOL0     C17168   5.147   7.400   1.726  0.0668 -0.0649  0.2893
  125MOL0     C17169   5.275   7.390   1.775  0.6473 -0.4412 -0.9343
  125MOL0     C17170   5.346   7.265   1.761  0.5348 -0.5079 -0.5332
  125MOL0     O17171   5.479   7.259   1.793  0.1032  0.2245  0.0476
  125MOL0     C17172   5.522   7.264   1.930 -0.5723 -0.9111 -0.3790
  125MOL0     C17173   5.551   7.122   1.960 -0.2459  0.2827  0.1497
  125MOL0     C17174   5.684   7.070   1.906 -0.2494 -0.3149 -0.7163
  125MOL0     C17175   5.715   6.925   1.947  0.0875 -0.7064  0.2835
  125MOL0     C17176   5.860   6.895   1.934  1.2459 -0.5961  0.5582
  125MOL0     C17177   5.977   6.870   1.929 -0.9627 -0.1243 -0.6022
  125MOL0     C17178   5.275   7.154   1.728 -0.8297 -0.0930  0.0693
  125MOL0     C17179   5.147   7.157   1.682  0.5283  0.1139 -0.5993
  125MOL0     C17180   5.089   7.018   1.660  0.5505 -0.2749  1.4573
  125MOL0     H17181   4.727   7.195   1.812 -0.9562 -2.1201 -0.8977
  125MOL0     H17182   4.494   7.135   1.791 -0.7734 -0.6217 -0.8162
  125MOL0     H17183   4.212   7.425   1.544  2.0353  0.1242 -0.3645
  125MOL0     H17184   4.267   7.449   1.713 -0.1235 -2.3704  2.1060
  125MOL0     H17185   4.099   7.234   1.745 -0.0373  0.1232  0.7304
  125MOL0     H17186   4.047   7.400   1.769  2.5033  0.4307  1.9783
  125MOL0     H17187   3.975   7.393   1.517 -2.2842 -0.7405 -0.5123
  125MOL0     H17188   4.046   7.231   1.517  1.5286 -1.1349  1.7150
  125MOL0     H17189   3.883   7.174   1.712 -2.8857  0.7984  2.1179
  125MOL0     H17190   3.805   7.327   1.656 -0.8405 -1.4011  0.2043
  125MOL0     H17191   3.698   7.118   1.556  0.2528  0.6031  1.9664
  125MOL0     H17192   3.851   7.082   1.480  0.1102 -0.6565  1.2835
  125MOL0     H17193   3.683   7.335   1.429 -0.1003 -1.1235  1.3170
  125MOL0     H17194   3.843   7.310   1.360 -1.1314  0.5635  0.4679
  125MOL0     H17195   3.603   7.149   1.337  0.5671 -1.6807 -0.4165
  125MOL0     H17196   3.751   7.074   1.280  1.3787 -0.1166  0.1080
  125MOL0     H17197   3.582   7.209   1.105  0.7029  0.2877 -2.3718
  125MOL0     H17198   3.674   7.347   1.176  1.3095 -0.1384  0.1213
  125MOL0     H17199   3.812   7.012   1.024 -2.6851  0.8024  0.0499
  125MOL0     H17200   4.010   6.973   0.850 -0.1078  0.0217  0.2288
  125MOL0     H17201   4.139   7.086   0.904  0.3161  2.2548 -0.6879
  125MOL0     H17202   4.004   7.189   0.661  2.6257  1.6443 -0.8150
  125MOL0     H17203   4.168   7.195   0.713 -1.0273  2.3261 -1.2260
  125MOL0     H17204   4.076   6.927   0.661 -0.9745  0.8462  1.5209
  125MOL0     H17205   4.057   7.012   0.516  2.4906  0.7773 -1.5184
  125MOL0     H17206   4.276   6.920   0.503 -2.0775  1.0357 -1.3563
  125MOL0     H17207   4.291   7.089   0.487  2.4483 -0.7538 -0.1842
  125MOL0     H17208   4.483   7.040   0.416  0.2764 -0.6818  1.3150
  125MOL0     H17209   4.767   7.105   0.286 -2.5343 -0.9149 -1.6592
  125MOL0     H17210   4.686   6.962   0.284 -2.0545  1.9292  0.9097
  125MOL0     H17211   4.854   6.971   0.359 -0.3344 -0.2078 -0.4825
  125MOL0     H17212   5.083   7.150   0.939  2.1885 -1.0707  3.5901
  125MOL0     H17213   5.333   7.172   0.985  0.4655 -2.1651 -0.3343
  125MOL0     H17214   5.627   7.030   0.679 -1.8999  0.5046 -1.4995
  125MOL0     H17215   5.573   7.195   0.654 -1.9766  0.7936  1.9818
  125MOL0     H17216   5.725   7.296   0.767 -2.9203 -0.0620  1.2415
  125MOL0     H17217   5.729   7.171   0.898 -0.0123  2.6154  1.4465
  125MOL0     H17218   5.946   7.185   0.771 -0.1845  0.6051  0.1871
  125MOL0     H17219   5.866   7.114   0.630  1.1594 -0.0951 -1.2498
  125MOL0     H17220   5.792   6.930   0.782 -1.3030  1.8845 -0.7330
  125MOL0     H17221   5.878   7.002   0.916 -1.2396 -1.4392  0.3607
  125MOL0     H17222   6.019   6.944   0.641  0.4906 -2.6560 -1.4062
  125MOL0     H17223   6.094   6.975   0.796  0.8783  0.1085 -0.9805
  125MOL0     H17224   5.937   6.732   0.703  1.0295  0.4252 -1.5081
  125MOL0     H17225   6.003   6.752   0.873 -0.8827  1.3026  0.6000
  125MOL0     H17226   6.196   6.775   0.638 -1.7735  3.5578  1.5894
  125MOL0     H17227   6.135   6.620   0.679 -0.4008  0.8773 -0.9533
  125MOL0     H17228   6.227   6.679   0.926  0.2534 -0.8343  0.0248
  125MOL0     H17229   6.305   6.816   0.842  0.8216 -1.0050  3.4822
  125MOL0     H17230   5.406   7.008   0.595 -1.4963 -1.1557 -2.1179
  125MOL0     H17231   5.172   6.991   0.546 -0.5928 -0.8473  1.0674
  125MOL0     H17232   4.762   7.081   0.823  0.0966  3.2964  0.0266
  125MOL0     H17233   4.517   7.037   0.835 -1.0210 -1.5265 -0.8607
  125MOL0     H17234   4.458   7.421   1.473  2.4073 -2.5161 -1.7998
  125MOL0     H17235   4.676   7.489   1.500 -3.1320  0.0879 -1.4489
  125MOL0     H17236   5.092   7.494   1.728 -0.4362 -0.3127 -1.1989
  125MOL0     H17237   5.323   7.469   1.832  0.7174 -0.8835 -0.3665
  125MOL0     H17238   5.608   7.331   1.934 -0.7223 -0.6714 -1.0490
  125MOL0     H17239   5.443   7.304   1.994 -0.4474  0.0942 -0.8364
  125MOL0     H17240   5.477   7.052   1.919  0.9426 -1.8735  1.4745
  125MOL0     H17241   5.550   7.138   2.068 -2.8543  1.5524  0.0076
  125MOL0     H17242   5.692   7.087   1.799 -0.8962 -0.1888 -0.7469
  125MOL0     H17243   5.763   7.129   1.953 -0.2342 -0.6447 -0.3221
  125MOL0     H17244   5.648   6.862   1.886 -2.1013 -0.8205  2.6494
  125MOL0     H17245   5.688   6.902   2.050  1.0240 -1.0826  0.4549
  125MOL0     H17246   6.082   6.853   1.932 -1.2234 -2.0627 -1.1161
  125MOL0     H17247   5.326   7.059   1.736  3.0580  1.5572 -2.3964
  125MOL0     H17248   5.091   6.993   1.553  0.3274  0.8005  1.1813
  125MOL0     H17249   5.123   6.933   1.719  0.8545 -1.6691 -0.6246
  125MOL0     H17250   4.983   7.023   1.686  0.1537 -3.0169  0.6348
  126MOL0     O17251   2.984   8.399   7.459 -0.5124 -0.0357  0.3732
  126MOL0     C17252   2.966   8.406   7.578 -0.3885 -0.2090  0.0282
  126MOL0     O17253   3.065   8.437   7.668 -0.1406 -0.0645 -0.3862
  126MOL0     C17254   3.176   8.506   7.618  0.0743 -1.0820  0.1465
  126MOL0     C17255   3.193   8.638   7.640 -0.4776 -0.2421 -0.0392
  126MOL0     C17256   3.315   8.707   7.599  0.7496 -0.1227  0.0942
  126MOL0     C17257   3.411   8.640   7.521  0.0433 -0.4821  0.3363
  126MOL0     O17258   3.530   8.701   7.482 -0.6010 -0.0671  0.4546
  126MOL0     C17259   3.609   8.787   7.568 -0.2698  0.3556 -1.6115
  126MOL0     C17260   3.752   8.749   7.540 -0.1760 -0.4185 -0.1181
  126MOL0     C17261   3.859   8.837   7.603  0.4639 -0.2509  0.4124
  126MOL0     C17262   3.999   8.823   7.528 -0.2567  0.1246  0.4976
  126MOL0     C17263   4.112   8.919   7.587 -0.4048 -0.2477  0.8690
  126MOL0     C17264   4.258   8.873   7.551 -0.8319  0.3783 -0.1212
  126MOL0     C17265   4.287   8.856   7.401  0.6670 -0.0029  0.9122
  126MOL0     C17266   4.439   8.844   7.362  0.5179 -1.0758  0.7530
  126MOL0     N17267   4.451   8.829   7.220  0.4421 -0.0048  0.2917
  126MOL0     C17268   4.392   8.716   7.144 -0.3179 -0.3356  0.0811
  126MOL0     C17269   4.397   8.751   7.013 -0.0277 -0.4923 -0.2884
  126MOL0     C17270   4.353   8.670   6.885  0.6936 -0.6535 -0.5884
  126MOL0     C17271   4.453   8.566   6.836  0.6389 -0.1696 -0.0756
  126MOL0     C17272   4.603   8.609   6.829 -0.1603 -0.0474 -0.7908
  126MOL0     C17273   4.691   8.514   6.748 -0.0619  0.1420  0.3937
  126MOL0     O17274   4.830   8.554   6.760 -0.2046  0.8734  0.6756
  126MOL0     C17275   4.921   8.497   6.666 -0.4589  0.0873 -0.0403
  126MOL0     C17276   4.885   8.423   6.551 -0.4547  0.1203 -0.1251
  126MOL0     C17277   4.979   8.378   6.458  0.3584  0.3762  0.1248
  126MOL0     C17278   4.930   8.278   6.350 -0.0753 -0.3823 -0.4948
  126MOL0     C17279   5.115   8.411   6.470 -0.5436  0.3410 -0.0614
  126MOL0     C17280   5.222   8.372   6.366  0.4194  0.2798  0.8315
  126MOL0     O17281   5.186   8.270   6.272 -1.3002  0.5111 -0.4118
  126MOL0     C17282   5.290   8.207   6.210  0.0946  0.1866 -0.0892
  126MOL0     C17283   5.404   8.147   6.279  1.1487 -0.0669  0.0080
  126MOL0     C17284   5.501   8.068   6.216 -0.1965  0.1120  0.7221
  126MOL0     C17285   5.493   8.033   6.085  0.7483 -0.6977  0.6370
  126MOL0     O17286   5.592   7.956   6.039  0.6450  0.1042 -0.1760
  126MOL0     C17287   5.559   7.816   6.021  0.2264  0.3513 -0.2135
  126MOL0     C17288   5.685   7.725   6.039  0.1014 -0.3229 -0.4036
  126MOL0     C17289   5.743   7.716   6.180 -0.4920 -0.4121 -0.5336
  126MOL0     C17290   5.651   7.705   6.304  0.2026 -0.5799 -0.3472
  126MOL0     C17291   5.726   7.695   6.437  0.0163  0.3292  0.6225
  126MOL0     C17292   5.624   7.656   6.547  0.2791 -0.4081  0.0758
  126MOL0     C17293   5.612   7.511   6.573  0.1467 -0.4568  0.2376
  126MOL0     C17294   5.497   7.485   6.668  0.3183 -0.8493 -0.6612
  126MOL0    Cl17295   5.543   7.564   6.827 -0.2324 -0.1855  0.2390
  126MOL0     C17296   5.381   8.079   6.014  0.8663 -0.1280 -0.7312
  126MOL0     C17297   5.283   8.170   6.074  0.5131 -0.8995  0.6895
  126MOL0     O17298   5.333   8.414   6.387 -0.4970 -0.8256  0.0163
  126MOL0     C17299   5.154   8.484   6.586 -0.6405  0.3119 -0.4797
  126MOL0     C17300   5.057   8.517   6.680 -0.0480 -0.3434  0.1279
  126MOL0     N17301   4.463   8.869   7.005  0.1152 -0.4719 -0.3878
  126MOL0     N17302   4.503   8.910   7.121 -0.3847  0.3464 -0.2115
  126MOL0     C17303   3.383   8.509   7.482 -0.5190  0.0743 -0.0953
  126MOL0     C17304   3.272   8.440   7.539  0.8146  0.0091 -0.7202
  126MOL0     C17305   2.829   8.373   7.612  0.0556 -0.2018 -0.2793
  126MOL0     C17306   2.752   8.285   7.538 -0.1337 -0.8808 -0.5860
  126MOL0     C17307   2.632   8.230   7.580  0.0257 -0.1731  0.3170
  126MOL0     C17308   2.591   8.271   7.711  0.2174  0.4784  0.0547
  126MOL0     O17309   2.485   8.220   7.781  0.5378 -0.4385  0.1901
  126MOL0     C17310   2.441   8.091   7.741  0.0130 -0.2471 -0.0894
  126MOL0     C17311   2.317   8.061   7.832 -0.8006 -0.5819  0.2017
  126MOL0     C17312   2.261   7.917   7.804  0.2798 -0.6803  0.6573
  126MOL0     C17313   2.110   7.912   7.765 -0.3517 -0.0429  0.3127
  126MOL0     C17314   2.092   7.996   7.650  0.7924 -0.1556  0.4281
  126MOL0     C17315   2.064   8.078   7.564 -0.5756 -0.3509 -1.1017
  126MOL0     C17316   2.665   8.359   7.790 -0.0010  0.1623 -0.1667
  126MOL0     C17317   2.781   8.409   7.741 -0.1922 -0.0270 -0.3449
  126MOL0     C17318   2.858   8.514   7.823 -0.2028  0.9692  0.1837
  126MOL0     H17319   3.117   8.695   7.693  1.0331  0.4149  1.5291
  126MOL0     H17320   3.349   8.806   7.625  3.3403 -0.8993  0.0063
  126MOL0     H17321   3.593   8.766   7.674  3.2764  2.3016 -0.5214
  126MOL0     H17322   3.590   8.894   7.553  0.7199  1.2321  2.2298
  126MOL0     H17323   3.779   8.645   7.564 -0.6664 -0.0703  2.1236
  126MOL0     H17324   3.750   8.754   7.431 -3.1205 -2.4501 -0.2631
  126MOL0     H17325   3.817   8.938   7.600 -1.8106 -1.1283  0.6745
  126MOL0     H17326   3.872   8.809   7.708 -0.5069 -3.1639 -0.1481
  126MOL0     H17327   4.030   8.718   7.534 -1.2153 -0.3298 -1.5280
  126MOL0     H17328   3.987   8.852   7.423 -1.4086  0.0336  0.5881
  126MOL0     H17329   4.108   8.917   7.696 -1.0852 -1.4886  0.8421
  126MOL0     H17330   4.076   9.017   7.552 -4.2053 -2.2290 -1.4553
  126MOL0     H17331   4.329   8.952   7.580  1.4544 -0.8134 -2.0814
  126MOL0     H17332   4.290   8.790   7.615 -0.2151 -0.0955 -1.0243
  126MOL0     H17333   4.250   8.945   7.348 -2.0832 -0.9287  1.0919
  126MOL0     H17334   4.230   8.774   7.356  1.8554 -1.0270  1.2223
  126MOL0     H17335   4.485   8.938   7.392 -2.5247  0.4169  1.1353
  126MOL0     H17336   4.480   8.757   7.414 -3.4830 -4.0077 -0.4965
  126MOL0     H17337   4.334   8.629   7.174  1.3002 -1.0546  1.2348
  126MOL0     H17338   4.350   8.749   6.810  1.2969  1.9609  1.9762
  126MOL0     H17339   4.250   8.634   6.891  1.0924 -1.9102 -0.9274
  126MOL0     H17340   4.445   8.465   6.876 -4.3257 -0.1169 -0.2929
  126MOL0     H17341   4.414   8.548   6.735  3.4697 -2.0773 -0.9492
  126MOL0     H17342   4.614   8.712   6.793  3.2396  0.9280  2.3869
  126MOL0     H17343   4.649   8.609   6.928  1.7956  0.8723 -1.6213
  126MOL0     H17344   4.670   8.411   6.776 -1.4223  0.0755 -0.7566
  126MOL0     H17345   4.658   8.516   6.644 -0.3590 -2.2923  0.3827
  126MOL0     H17346   4.780   8.397   6.538 -0.0788 -1.7306  0.3611
  126MOL0     H17347   4.982   8.182   6.351  1.8176  0.5079  2.7646
  126MOL0     H17348   4.939   8.326   6.252 -0.3309 -1.7312 -1.2014
  126MOL0     H17349   4.826   8.251   6.372 -0.6851  2.4419  0.4559
  126MOL0     H17350   5.423   8.154   6.385 -0.0703 -0.6610  0.2870
  126MOL0     H17351   5.577   8.029   6.283 -0.8611 -1.5875  0.5373
  126MOL0     H17352   5.475   7.776   6.078 -0.6291 -0.0567 -1.7078
  126MOL0     H17353   5.527   7.801   5.918  0.9264 -1.2479 -0.2383
  126MOL0     H17354   5.656   7.624   6.007  0.4694 -0.9863  1.2656
  126MOL0     H17355   5.765   7.758   5.972  0.7112  0.7073  0.7922
  126MOL0     H17356   5.789   7.814   6.196 -1.8608  0.7196 -2.9606
  126MOL0     H17357   5.817   7.635   6.177 -1.5028 -1.4532  1.0341
  126MOL0     H17358   5.587   7.617   6.287 -0.3949 -0.1806 -0.1859
  126MOL0     H17359   5.590   7.796   6.303  2.9042  1.3533  0.0727
  126MOL0     H17360   5.792   7.609   6.425 -0.3533 -0.0141  0.9981
  126MOL0     H17361   5.774   7.790   6.464  0.7022  0.1845 -0.0597
  126MOL0     H17362   5.526   7.695   6.517  1.9735  2.7341 -1.8851
  126MOL0     H17363   5.662   7.714   6.632  2.3130 -2.3865  0.5983
  126MOL0     H17364   5.700   7.468   6.623  0.8649  0.8286  0.1266
  126MOL0     H17365   5.595   7.456   6.480 -0.0639 -1.9665  1.1379
  126MOL0     H17366   5.487   7.376   6.679 -0.3446 -1.1468 -3.4154
  126MOL0     H17367   5.410   7.535   6.625  1.4946  0.7803 -1.2563
  126MOL0     H17368   5.374   8.053   5.909 -0.1461 -3.1491 -0.0330
  126MOL0     H17369   5.197   8.198   6.015 -0.8348  0.7406  3.2487
  126MOL0     H17370   5.256   8.510   6.611 -0.3500 -0.8858 -0.3637
  126MOL0     H17371   5.095   8.575   6.764 -2.1085  2.0684 -0.4640
  126MOL0     H17372   3.456   8.455   7.421 -2.0364 -2.5446  0.2569
  126MOL0     H17373   3.245   8.340   7.510 -0.7610  0.4727 -0.9416
  126MOL0     H17374   2.789   8.249   7.442 -0.0153 -1.9491 -0.1573
  126MOL0     H17375   2.589   8.145   7.529  1.9987 -0.4716 -0.9318
  126MOL0     H17376   2.406   8.087   7.637 -1.8884 -4.0419  0.5237
  126MOL0     H17377   2.527   8.024   7.745  0.8704  0.6749 -1.8260
  126MOL0     H17378   2.237   8.134   7.823 -1.1853 -1.0217  0.0040
  126MOL0     H17379   2.368   8.051   7.929 -2.3534 -2.2537  0.8958
  126MOL0     H17380   2.322   7.865   7.729  0.6284  0.4614  0.1280
  126MOL0     H17381   2.270   7.859   7.896  0.4308 -0.7569  0.5939
  126MOL0     H17382   2.059   7.958   7.850 -0.4149 -1.6579  1.1852
  126MOL0     H17383   2.063   7.815   7.747 -1.2853  0.6424 -1.1694
  126MOL0     H17384   2.026   8.143   7.488 -1.1387  2.7787  1.6199
  126MOL0     H17385   2.646   8.376   7.895 -0.6537 -2.9947  0.3298
  126MOL0     H17386   2.801   8.538   7.914 -2.6327 -0.1833 -0.9451
  126MOL0     H17387   2.947   8.468   7.865  0.0345  0.6908 -0.6105
  126MOL0     H17388   2.882   8.604   7.766  1.6923 -0.1938 -0.9491
  127MOL0     O17389   8.106   5.600   0.524 -0.2615 -0.7885 -0.1086
  127MOL0     C17390   8.018   5.608   0.605 -0.5855  0.1645 -0.0951
  127MOL0     O17391   8.034   5.589   0.738 -0.3150 -0.4829 -0.1701
  127MOL0     C17392   8.156   5.598   0.804 -0.4717 -0.5042  0.3474
  127MOL0     C17393   8.173   5.692   0.907  0.7212 -0.4308 -0.1442
  127MOL0     C17394   8.296   5.723   0.968 -0.5864 -0.6317  0.6765
  127MOL0     C17395   8.414   5.661   0.926 -0.4003  0.4474 -0.4613
  127MOL0     O17396   8.534   5.710   0.980 -0.0585 -0.0623  0.2773
  127MOL0     C17397   8.647   5.648   0.927 -0.3080 -0.1299  0.0847
  127MOL0     C17398   8.779   5.699   0.985 -1.2919  0.6200 -0.5624
  127MOL0     C17399   8.818   5.840   0.949  0.6375  0.3428  0.3914
  127MOL0     C17400   8.960   5.890   0.988 -0.2373 -0.7815  0.0167
  127MOL0     C17401   9.049   5.866   0.861  0.4703 -0.2841 -0.6110
  127MOL0     C17402   9.187   5.916   0.903 -0.2981 -0.7442 -0.1898
  127MOL0     C17403   9.296   5.909   0.796 -0.1510 -0.0603  0.1304
  127MOL0     C17404   9.430   5.949   0.861 -0.2091 -0.0407  0.5612
  127MOL0     N17405   9.535   5.939   0.759 -0.6815 -0.0167 -0.0633
  127MOL0     C17406   9.584   6.044   0.683  0.9897  0.2180  0.2835
  127MOL0     C17407   9.671   5.990   0.593  0.0574  0.4555  0.5871
  127MOL0     C17408   9.758   6.070   0.505 -0.4249 -0.6447 -0.0140
  127MOL0     C17409   9.893   6.109   0.559  0.4871 -0.2236 -0.6533
  127MOL0     C17410   9.966   6.200   0.467 -0.8868 -0.1266 -0.5796
  127MOL0     C17411   9.937   6.342   0.499 -0.2006 -0.1422  0.4585
  127MOL0     O17412   9.979   6.429   0.402 -0.4704 -0.1002  0.2437
  127MOL0     C17413  10.108   6.452   0.376 -0.2811  0.3550  0.0547
  127MOL0     C17414  10.138   6.474   0.246 -0.0742  0.5575 -0.4886
  127MOL0     C17415  10.275   6.493   0.200 -0.3086  0.3408 -0.4399
  127MOL0     C17416  10.293   6.509   0.043 -0.1738 -0.4883  0.1257
  127MOL0     C17417  10.384   6.495   0.288  0.2102 -0.2603 -0.7033
  127MOL0     C17418  10.530   6.515   0.255 -0.2798 -0.0930 -0.8906
  127MOL0     O17419  10.624   6.500   0.359  0.5385  0.2265  0.0927
  127MOL0     C17420  10.759   6.496   0.338 -0.2023 -0.0865  0.4878
  127MOL0     C17421  10.842   6.555   0.438  0.0161 -0.0947 -0.0559
  127MOL0     C17422  10.987   6.540   0.426  0.6796  0.5765 -0.2482
  127MOL0     C17423  11.047   6.462   0.325  0.7102 -0.1507  0.5402
  127MOL0     O17424  11.180   6.463   0.305 -0.7955  0.1723  0.0901
  127MOL0     C17425  11.241   6.499   0.175  0.3490  0.7851  0.4575
  127MOL0     C17426  11.388   6.490   0.212  0.0808 -0.1738  0.0932
  127MOL0     C17427  11.465   6.532   0.090 -0.5453  0.7830 -0.4135
  127MOL0     C17428  11.613   6.562   0.123 -0.3623 -1.3784 -0.0937
  127MOL0     C17429  11.694   6.604   0.009  0.0766 -0.2553  0.7754
  127MOL0     C17430  11.756   6.481  -0.068 -0.1298  0.7234 -0.5415
  127MOL0     C17431  11.857   6.528  -0.167 -0.1647 -0.1825 -0.2667
  127MOL0     C17432  11.798   6.588  -0.294  0.5999 -0.9817 -0.0777
  127MOL0    Cl17433  11.928   6.626  -0.413  0.0066  0.1258 -0.2419
  127MOL0     C17434  10.959   6.405   0.235 -0.5243 -0.4446 -0.6305
  127MOL0     C17435  10.821   6.426   0.236 -0.5774 -0.1762  0.9149
  127MOL0     O17436  10.563   6.563   0.150  0.2115  0.3131  0.3589
  127MOL0     C17437  10.346   6.483   0.427 -0.4051  0.8173  0.1934
  127MOL0     C17438  10.214   6.450   0.470 -0.1668 -0.1561 -0.7824
  127MOL0     N17439   9.672   5.852   0.617  0.5719 -0.5937 -0.5631
  127MOL0     N17440   9.583   5.824   0.699 -0.6377 -0.0418  0.6395
  127MOL0     C17441   8.397   5.554   0.835 -0.1261  0.1527  0.1837
  127MOL0     C17442   8.273   5.534   0.773  0.9228  0.2207  0.1198
  127MOL0     C17443   7.880   5.631   0.569 -0.9238  0.6706 -0.1170
  127MOL0     C17444   7.781   5.573   0.649 -0.0434  0.1925  0.3541
  127MOL0     C17445   7.650   5.585   0.619 -0.0101  0.1600  1.1125
  127MOL0     C17446   7.613   5.655   0.503 -0.4987 -0.1378 -0.4390
  127MOL0     O17447   7.478   5.668   0.480 -0.7345 -0.0058 -0.2049
  127MOL0     C17448   7.441   5.654   0.344 -0.0112  0.7156 -0.3105
  127MOL0     C17449   7.290   5.626   0.326 -0.4344  0.6043  0.0666
  127MOL0     C17450   7.186   5.737   0.366 -0.6994  0.4826  0.4424
  127MOL0     C17451   7.146   5.814   0.244  0.5838  0.1242  0.4382
  127MOL0     C17452   7.257   5.900   0.187  0.9207  0.3221  0.2592
  127MOL0     C17453   7.340   5.980   0.146  0.0145  0.3222  0.1351
  127MOL0     C17454   7.702   5.715   0.416 -0.2760  0.6386  0.1915
  127MOL0     C17455   7.838   5.702   0.448 -0.2318  0.1810 -0.0011
  127MOL0     C17456   7.935   5.786   0.364 -0.1757  0.1820  0.3142
  127MOL0     H17457   8.087   5.747   0.943  0.3208 -0.1746 -1.4727
  127MOL0     H17458   8.309   5.803   1.041 -0.3092  1.3986 -1.4649
  127MOL0     H17459   8.653   5.669   0.820 -1.5230 -1.9618 -0.3827
  127MOL0     H17460   8.640   5.542   0.952  1.0869 -0.1961  0.2627
  127MOL0     H17461   8.774   5.691   1.094  0.7349 -1.9028 -0.5448
  127MOL0     H17462   8.859   5.632   0.950  0.5472  0.9905  2.4654
  127MOL0     H17463   8.806   5.854   0.841  1.1802  1.8935  0.5097
  127MOL0     H17464   8.746   5.907   0.997  0.6418  0.9641 -0.4549
  127MOL0     H17465   8.959   5.993   1.024 -0.2788 -0.8608  0.2429
  127MOL0     H17466   9.003   5.842   1.076 -1.9093  0.0157  1.3253
  127MOL0     H17467   9.011   5.927   0.779 -1.7967 -2.0242 -0.9552
  127MOL0     H17468   9.048   5.759   0.836 -0.3872  0.3359 -3.6363
  127MOL0     H17469   9.171   6.024   0.917  0.8636 -0.7910  1.8954
  127MOL0     H17470   9.221   5.873   0.998  0.3317 -0.9606 -0.5067
  127MOL0     H17471   9.267   5.971   0.711 -0.2177 -0.4345 -0.1205
  127MOL0     H17472   9.305   5.805   0.764 -2.2783 -0.1651 -0.2514
  127MOL0     H17473   9.436   6.051   0.899 -1.1336  0.0887  0.3589
  127MOL0     H17474   9.457   5.875   0.937  0.1664 -0.6120 -0.1175
  127MOL0     H17475   9.570   6.149   0.703  1.6528  0.6063 -1.1651
  127MOL0     H17476   9.705   6.163   0.482  1.2325  0.8916  1.9407
  127MOL0     H17477   9.780   6.013   0.414 -0.5128  0.1940 -0.5721
  127MOL0     H17478   9.886   6.154   0.659  2.9062 -0.3655 -0.3647
  127MOL0     H17479   9.948   6.015   0.570 -2.4709 -2.2821 -1.8922
  127MOL0     H17480  10.073   6.183   0.481 -1.1729 -0.6596  1.2253
  127MOL0     H17481   9.943   6.176   0.363 -0.1495 -1.5746 -0.4267
  127MOL0     H17482   9.828   6.342   0.511 -0.5361  2.1350 -1.7792
  127MOL0     H17483   9.988   6.368   0.592  3.4260 -1.6368 -0.9531
  127MOL0     H17484  10.053   6.468   0.180  0.9565  1.8668 -2.0195
  127MOL0     H17485  10.198   6.513  -0.011 -0.0320  0.6149 -0.0690
  127MOL0     H17486  10.363   6.432   0.009  1.5474  1.3418 -0.6725
  127MOL0     H17487  10.338   6.606   0.021  2.9569 -1.4771  1.5523
  127MOL0     H17488  10.798   6.611   0.520 -0.0508 -0.4912  0.1856
  127MOL0     H17489  11.062   6.575   0.496  1.7266 -0.9922 -0.5387
  127MOL0     H17490  11.223   6.425   0.097  2.4922 -0.2976  0.9208
  127MOL0     H17491  11.202   6.598   0.150 -2.7184 -0.3140  0.4902
  127MOL0     H17492  11.395   6.557   0.298 -3.0815 -1.2802  1.3777
  127MOL0     H17493  11.423   6.392   0.246 -1.9825 -0.0582  2.9325
  127MOL0     H17494  11.419   6.617   0.038 -1.1123  1.7329  1.5293
  127MOL0     H17495  11.459   6.448   0.021  3.1572 -0.9353  1.0660
  127MOL0     H17496  11.660   6.478   0.175 -0.5321 -3.1062 -2.5936
  127MOL0     H17497  11.610   6.648   0.190  3.5266 -1.0043 -0.2173
  127MOL0     H17498  11.643   6.673  -0.059  1.4193  0.6500  0.6466
  127MOL0     H17499  11.778   6.660   0.051  0.0782 -0.7084  1.3827
  127MOL0     H17500  11.675   6.420  -0.108 -0.2920  1.7516 -1.8574
  127MOL0     H17501  11.820   6.429   0.004  0.2216  2.0791  0.1552
  127MOL0     H17502  11.912   6.435  -0.186  0.8487  0.2583  0.4608
  127MOL0     H17503  11.917   6.609  -0.126 -0.2811 -0.2836  0.1133
  127MOL0     H17504  11.736   6.675  -0.271  2.1318  0.1765 -0.2149
  127MOL0     H17505  11.734   6.513  -0.341 -0.2056  0.5641 -1.5462
  127MOL0     H17506  11.007   6.361   0.148 -0.8819  2.0258 -2.1817
  127MOL0     H17507  10.763   6.398   0.149  0.0122  1.9433 -0.2376
  127MOL0     H17508  10.422   6.496   0.504 -1.1518  0.5697  1.0005
  127MOL0     H17509  10.182   6.447   0.573 -0.9423  0.4400 -0.9985
  127MOL0     H17510   8.482   5.487   0.821  0.7042  0.4249  3.2789
  127MOL0     H17511   8.272   5.469   0.686 -2.0539 -0.9209  0.8780
  127MOL0     H17512   7.810   5.513   0.735  1.6017 -1.6480 -1.3670
  127MOL0     H17513   7.588   5.525   0.684 -0.3583 -1.0479 -0.2967
  127MOL0     H17514   7.468   5.746   0.292  1.8136 -0.4523 -1.5093
  127MOL0     H17515   7.501   5.574   0.299  1.0175  1.7783 -0.8654
  127MOL0     H17516   7.270   5.542   0.394  1.9614  0.1397  0.3182
  127MOL0     H17517   7.275   5.593   0.223 -1.5403  3.6109 -0.8231
  127MOL0     H17518   7.100   5.687   0.411 -1.0130  1.9486  1.5188
  127MOL0     H17519   7.227   5.812   0.434  0.5030 -0.0132  0.3044
  127MOL0     H17520   7.070   5.886   0.276  3.5322  2.4915  2.6188
  127MOL0     H17521   7.108   5.744   0.169 -1.2438 -1.1378  2.3937
  127MOL0     H17522   7.419   6.051   0.129 -1.0392  1.4174 -0.3213
  127MOL0     H17523   7.674   5.776   0.331 -2.0047  1.0309  0.9939
  127MOL0     H17524   8.017   5.722   0.331 -1.5200 -0.2376 -2.5447
  127MOL0     H17525   7.887   5.817   0.270  1.6617  1.5247 -0.2308
  127MOL0     H17526   7.969   5.881   0.407  1.2811 -1.3511  2.7648
  128MOL0     O17527   8.063   0.021   0.460  0.2232 -0.2159 -0.3901
  128MOL0     C17528   8.044  -0.015   0.342 -0.7216  0.3365  0.2200
  128MOL0     O17529   8.119   0.021   0.234  0.3376 -0.1072  0.0191
  128MOL0     C17530   8.230   0.096   0.249  0.5294  0.0566 -0.6892
  128MOL0     C17531   8.257   0.208   0.170 -0.1370 -0.0438 -0.1126
  128MOL0     C17532   8.371   0.276   0.170  0.7538 -0.1192 -0.4128
  128MOL0     C17533   8.468   0.254   0.275  0.8642 -0.8254 -0.1042
  128MOL0     O17534   8.568   0.344   0.280 -0.5601 -0.0315  0.0056
  128MOL0     C17535   8.639   0.344   0.406  0.6224 -0.2283 -0.9374
  128MOL0     C17536   8.746   0.461   0.405 -0.5175 -0.1344  0.0158
  128MOL0     C17537   8.869   0.434   0.336 -0.4054  0.8291  0.3486
  128MOL0     C17538   8.952   0.561   0.312 -0.6954  0.4703 -0.3688
  128MOL0     C17539   9.088   0.532   0.242 -0.2103 -0.3864  0.5429
  128MOL0     C17540   9.188   0.469   0.341  0.8307 -0.6773  0.6573
  128MOL0     C17541   9.313   0.434   0.261  0.5569  0.0186 -0.6939
  128MOL0     C17542   9.426   0.372   0.346  0.3653 -0.9601  0.5334
  128MOL0     N17543   9.536   0.320   0.269 -0.4330 -0.6220 -0.0837
  128MOL0     C17544   9.649   0.391   0.242 -0.8046  0.0042 -0.4037
  128MOL0     C17545   9.720   0.308   0.159  0.4720 -0.5565  0.0730
  128MOL0     C17546   9.842   0.347   0.097  0.4377  0.1553  0.1747
  128MOL0     C17547   9.980   0.295   0.168 -0.2318 -0.0485 -0.2365
  128MOL0     C17548   9.988   0.144   0.163 -0.7665 -0.2372 -0.1787
  128MOL0     C17549  10.112   0.101   0.243  0.3770 -0.2985 -0.6883
  128MOL0     O17550  10.233   0.146   0.189 -0.5449 -0.0458  0.4865
  128MOL0     C17551  10.355   0.116   0.253  0.4838 -0.1483 -0.7114
  128MOL0     C17552  10.477   0.157   0.191 -0.4064  0.1701 -0.3989
  128MOL0     C17553  10.601   0.138   0.247  0.1392  0.6994 -0.2220
  128MOL0     C17554  10.725   0.195   0.169  0.2323  0.1084  0.8595
  128MOL0     C17555  10.610   0.059   0.368  0.1454 -0.2645  0.4448
  128MOL0     C17556  10.730   0.043   0.449  0.4655  1.0044 -0.1720
  128MOL0     O17557  10.755  -0.068   0.522 -0.0308  0.2196 -0.5466
  128MOL0     C17558  10.856  -0.076   0.608  0.2122 -1.4993  0.4488
  128MOL0     C17559  10.820  -0.099   0.739  0.3417 -0.5744 -0.2824
  128MOL0     C17560  10.923  -0.136   0.832  1.4821 -0.6149  0.1531
  128MOL0     C17561  11.058  -0.129   0.802  0.4260  0.5577  0.5790
  128MOL0     O17562  11.154  -0.142   0.901 -0.4047  1.2959 -0.1109
  128MOL0     C17563  11.119  -0.155   1.045  0.0032 -0.6348 -0.0272
  128MOL0     C17564  11.253  -0.181   1.112  0.1404 -0.4009 -0.4812
  128MOL0     C17565  11.362  -0.070   1.091 -0.9402 -0.0674  0.1726
  128MOL0     C17566  11.469  -0.085   1.202 -1.1333 -0.4705 -0.2304
  128MOL0     C17567  11.546   0.043   1.235  0.3261  0.4724 -0.0182
  128MOL0     C17568  11.634   0.095   1.118  0.8876  0.4723 -0.1172
  128MOL0     C17569  11.733   0.207   1.159 -0.2093 -0.6238 -0.1086
  128MOL0     C17570  11.872   0.153   1.174 -0.3957 -0.7536 -0.2201
  128MOL0    Cl17571  11.883   0.046   1.310 -0.4920 -0.0511 -0.3196
  128MOL0     C17572  11.094  -0.106   0.667 -0.7074 -0.0681  0.1290
  128MOL0     C17573  10.990  -0.079   0.572  0.0112 -0.0471  0.4406
  128MOL0     O17574  10.802   0.142   0.454 -0.0590 -0.3609 -0.3360
  128MOL0     C17575  10.493   0.025   0.437 -0.1038  0.3622  0.1740
  128MOL0     C17576  10.371   0.039   0.379 -0.1164  0.7843  0.0755
  128MOL0     N17577   9.651   0.185   0.143  0.3777  0.0829 -0.5992
  128MOL0     N17578   9.540   0.197   0.210  0.2109 -0.5390 -0.0345
  128MOL0     C17579   8.441   0.155   0.369 -0.0813 -0.3388 -0.5034
  128MOL0     C17580   8.328   0.075   0.354  0.9812  1.1044  0.1447
  128MOL0     C17581   7.935  -0.099   0.297 -0.2187 -0.1814 -0.6791
  128MOL0     C17582   7.968  -0.184   0.185  0.1132  0.3640  0.3522
  128MOL0     C17583   7.864  -0.258   0.125 -0.0445 -0.1556 -0.1580
  128MOL0     C17584   7.735  -0.257   0.181 -0.5018  0.3203 -0.4730
  128MOL0     O17585   7.636  -0.340   0.137  0.4594  0.2190 -0.4450
  128MOL0     C17586   7.659  -0.458   0.061  0.3907 -0.6777 -0.1680
  128MOL0     C17587   7.753  -0.558   0.138  0.0530  0.1032 -0.1404
  128MOL0     C17588   7.767  -0.689   0.051 -0.1648  0.2458 -1.1527
  128MOL0     C17589   7.873  -0.790   0.104 -1.0382  0.0738 -0.1076
  128MOL0     C17590   7.911  -0.882  -0.004 -0.0219 -0.1407 -0.1978
  128MOL0     C17591   7.951  -0.966  -0.081 -0.2663 -0.3251  0.3497
  128MOL0     C17592   7.707  -0.179   0.291  1.0879 -0.2771 -0.2239
  128MOL0     C17593   7.808  -0.098   0.352 -0.2412  0.2384 -0.0922
  128MOL0     C17594   7.767  -0.000   0.456  0.3149  0.3246 -0.6258
  128MOL0     H17595   8.185   0.242   0.096  1.3757  0.2462 -1.5065
  128MOL0     H17596   8.392   0.345   0.089  2.8395 -1.0000 -0.6966
  128MOL0     H17597   8.687   0.250   0.434 -0.2628 -0.0695  1.3288
  128MOL0     H17598   8.566   0.352   0.488 -1.9851  0.2633 -3.1541
  128MOL0     H17599   8.690   0.539   0.351 -2.1710 -1.1114  0.2393
  128MOL0     H17600   8.763   0.496   0.507  1.2447  1.8784 -0.8834
  128MOL0     H17601   8.924   0.354   0.387 -2.8398 -2.3636 -1.6644
  128MOL0     H17602   8.844   0.388   0.240  0.0790 -1.0980  1.0933
  128MOL0     H17603   8.902   0.639   0.253  1.4908  3.0258  0.9615
  128MOL0     H17604   8.981   0.609   0.406  1.4068 -1.7875  0.2187
  128MOL0     H17605   9.135   0.620   0.198  1.1498 -0.3075  2.0434
  128MOL0     H17606   9.059   0.470   0.157 -1.2016  0.1189  0.4989
  128MOL0     H17607   9.201   0.538   0.425 -3.6459 -0.6263  1.5832
  128MOL0     H17608   9.141   0.379   0.382  0.6538 -0.6323  0.5579
  128MOL0     H17609   9.366   0.523   0.225  0.2726  0.3082 -0.3968
  128MOL0     H17610   9.293   0.364   0.178  0.6973 -0.1889 -0.5552
  128MOL0     H17611   9.465   0.451   0.412  0.2292 -1.3084  1.0346
  128MOL0     H17612   9.392   0.295   0.415 -0.4384  0.0732  1.3316
  128MOL0     H17613   9.682   0.484   0.287  0.2168 -0.8159  0.6143
  128MOL0     H17614   9.832   0.456   0.095  0.4516  0.1484 -0.2371
  128MOL0     H17615   9.846   0.311  -0.006  1.0735  3.7390 -1.2097
  128MOL0     H17616  10.073   0.329   0.121 -0.1044 -0.4542 -0.2780
  128MOL0     H17617   9.976   0.342   0.266 -0.9620 -0.9529  0.1799
  128MOL0     H17618   9.893   0.098   0.190 -1.3556 -0.3031 -2.1571
  128MOL0     H17619  10.004   0.118   0.058  1.2151 -0.1970  0.0749
  128MOL0     H17620  10.095   0.132   0.347  3.6377 -0.9173  0.1651
  128MOL0     H17621  10.108  -0.008   0.256 -1.1462 -0.0638  1.2291
  128MOL0     H17622  10.478   0.202   0.092 -0.4519  0.0349 -0.4624
  128MOL0     H17623  10.753   0.295   0.202  0.8848  0.7922 -1.5738
  128MOL0     H17624  10.710   0.190   0.061  1.6505  1.4759  0.5738
  128MOL0     H17625  10.815   0.135   0.188  0.0464 -0.0686  1.1905
  128MOL0     H17626  10.717  -0.120   0.767  0.9840 -5.8045 -0.7349
  128MOL0     H17627  10.883  -0.171   0.927  0.5223 -0.5170 -0.2064
  128MOL0     H17628  11.075  -0.060   1.077  4.3199  2.0834 -1.1928
  128MOL0     H17629  11.049  -0.236   1.067  0.9359 -1.7745 -1.1069
  128MOL0     H17630  11.221  -0.201   1.215 -3.9248  1.2549 -1.2312
  128MOL0     H17631  11.287  -0.279   1.075  0.1856  0.2806 -2.3406
  128MOL0     H17632  11.313   0.028   1.102  0.3360  0.9581 -2.2936
  128MOL0     H17633  11.410  -0.078   0.993 -0.3727  0.7007  0.3786
  128MOL0     H17634  11.522  -0.175   1.170 -1.5121 -0.0629 -2.1207
  128MOL0     H17635  11.424  -0.110   1.298 -1.6197  0.2604 -0.2639
  128MOL0     H17636  11.478   0.120   1.274 -1.0834 -1.9480  2.6626
  128MOL0     H17637  11.622   0.023   1.310 -0.2762 -1.7528  0.0547
  128MOL0     H17638  11.570   0.128   1.036  0.2972 -3.3814 -1.4514
  128MOL0     H17639  11.689   0.012   1.072 -0.0615 -0.7969  0.9243
  128MOL0     H17640  11.690   0.247   1.252 -0.5490  0.8326 -0.8725
  128MOL0     H17641  11.732   0.283   1.081  3.3881  0.5464  0.7917
  128MOL0     H17642  11.935   0.241   1.187  0.5728 -1.0673 -2.3859
  128MOL0     H17643  11.911   0.100   1.087  0.9351  1.7439 -1.2429
  128MOL0     H17644  11.194  -0.133   0.632  0.3365 -0.7233  3.2866
  128MOL0     H17645  11.022  -0.068   0.469 -1.7870 -0.6367 -0.1998
  128MOL0     H17646  10.489  -0.025   0.533  0.4000  1.1772  0.6212
  128MOL0     H17647  10.277  -0.001   0.416 -0.3678  1.9021  0.6967
  128MOL0     H17648   8.509   0.136   0.452 -0.7717 -1.3728 -0.1490
  128MOL0     H17649   8.327  -0.000   0.432  3.3922  0.6035 -0.2247
  128MOL0     H17650   8.061  -0.190   0.129 -1.4935 -0.8468 -2.3856
  128MOL0     H17651   7.890  -0.319   0.040  0.5009 -1.4058  0.8784
  128MOL0     H17652   7.565  -0.514   0.056 -0.3912  0.1232  3.3002
  128MOL0     H17653   7.699  -0.432  -0.038  0.0903 -0.6587 -0.2847
  128MOL0     H17654   7.696  -0.589   0.226 -1.2050 -1.0166 -1.2938
  128MOL0     H17655   7.844  -0.509   0.173 -0.9874  1.8146  0.3260
  128MOL0     H17656   7.674  -0.744   0.040 -0.0889  0.1176 -1.1542
  128MOL0     H17657   7.779  -0.655  -0.053 -0.0346  2.4545 -0.4838
  128MOL0     H17658   7.834  -0.846   0.189 -0.7542 -2.5787 -1.6259
  128MOL0     H17659   7.960  -0.738   0.145 -0.7718  0.1122 -0.7037
  128MOL0     H17660   7.984  -1.035  -0.155 -1.2286  1.2522 -1.6336
  128MOL0     H17661   7.603  -0.188   0.322  1.3618  1.7114  1.4507
  128MOL0     H17662   7.801   0.104   0.449  1.5435  0.3864  3.4658
  128MOL0     H17663   7.659   0.011   0.462  0.2111 -0.6502 -0.4436
  128MOL0     H17664   7.804  -0.041   0.550 -1.3958  0.1675  0.0015
  129MOL0     O17665   9.349  10.602  11.371  0.2192 -0.4276 -0.2487
  129MOL0     C17666   9.417  10.504  11.334 -0.9635 -0.0611 -0.7866
  129MOL0     O17667   9.388  10.382  11.327  0.6030  0.3279 -0.0118
  129MOL0     C17668   9.271  10.343  11.395 -0.0400  0.2184  0.3728
  129MOL0     C17669   9.163  10.333  11.311 -0.6048 -0.0911  0.2196
  129MOL0     C17670   9.034  10.303  11.356 -0.1176  0.9405  0.2338
  129MOL0     C17671   9.015  10.273  11.495  0.6257 -0.0365  0.1320
  129MOL0     O17672   8.889  10.249  11.545 -0.5163 -0.4905  0.3503
  129MOL0     C17673   8.808  10.173  11.459 -0.5573  0.6620 -0.3098
  129MOL0     C17674   8.696  10.107  11.546  0.6682 -0.0368  0.0891
  129MOL0     C17675   8.616  10.220  11.617  0.2818 -0.7543  0.7473
  129MOL0     C17676   8.518  10.298  11.526 -0.2362  0.4825 -0.1735
  129MOL0     C17677   8.449  10.431  11.575 -0.2458 -0.5792 -0.0958
  129MOL0     C17678   8.336  10.482  11.487 -0.2371 -0.4641  0.2413
  129MOL0     C17679   8.398  10.510  11.349  0.2489  0.6828  0.7175
  129MOL0     C17680   8.302  10.581  11.256  0.1202 -0.5592 -0.4128
  129MOL0     N17681   8.357  10.610  11.121 -0.5304 -0.3316  0.5517
  129MOL0     C17682   8.465  10.682  11.091 -0.5736 -0.4010  0.0164
  129MOL0     C17683   8.468  10.700  10.959  0.9022 -1.0259 -0.2195
  129MOL0     C17684   8.569  10.770  10.869  0.2532  0.8165 -0.4066
  129MOL0     C17685   8.667  10.667  10.810 -0.7307 -0.2712 -0.0121
  129MOL0     C17686   8.769  10.726  10.711  0.4524  0.0380 -0.2326
  129MOL0     C17687   8.878  10.634  10.669  0.3324  0.1646 -0.2793
  129MOL0     O17688   8.977  10.633  10.778 -0.4784 -0.2080  0.3955
  129MOL0     C17689   9.095  10.563  10.761 -0.3702 -0.4413  0.1675
  129MOL0     C17690   9.174  10.551  10.874 -0.5045  0.4447  0.1075
  129MOL0     C17691   9.288  10.470  10.872  0.1172  0.4959 -1.0082
  129MOL0     C17692   9.372  10.474  10.989 -0.7279 -0.4080 -0.0066
  129MOL0     C17693   9.334  10.405  10.755  0.4189 -0.3901 -0.3151
  129MOL0     C17694   9.453  10.325  10.751  0.2304 -0.1908 -0.1868
  129MOL0     O17695   9.539  10.352  10.648 -0.4912  0.5723  0.0217
  129MOL0     C17696   9.665  10.296  10.644  0.1310 -0.4580  0.4201
  129MOL0     C17697   9.771  10.363  10.706  0.7760 -0.8318  0.4221
  129MOL0     C17698   9.901  10.297  10.709 -0.0630  0.3369  0.0125
  129MOL0     C17699   9.929  10.176  10.637 -0.0994  0.2481 -0.1988
  129MOL0     O17700  10.039  10.099  10.639  0.2842  0.6778  0.0154
  129MOL0     C17701  10.119  10.109  10.759 -0.0038 -0.0967  0.2950
  129MOL0     C17702  10.238  10.009  10.741 -0.4686 -0.5721 -0.2860
  129MOL0     C17703  10.368  10.076  10.682 -0.4096  0.2709 -0.2504
  129MOL0     C17704  10.479   9.975  10.671  0.3051  0.2787 -0.1165
  129MOL0     C17705  10.620  10.029  10.698 -0.1621  0.3217 -0.9353
  129MOL0     C17706  10.662  10.101  10.568 -0.3474  0.5161  0.2603
  129MOL0     C17707  10.788  10.183  10.599 -0.5123  1.5542 -0.1427
  129MOL0     C17708  10.836  10.251  10.476  0.6716  0.5468  0.5735
  129MOL0    Cl17709  10.993  10.342  10.490 -0.1759 -0.0170 -0.2762
  129MOL0     C17710   9.818  10.122  10.572 -0.3953  0.8446  0.4881
  129MOL0     C17711   9.691  10.180  10.577  0.5899 -1.3151  0.8660
  129MOL0     O17712   9.473  10.244  10.845 -0.3601  0.5549  0.3700
  129MOL0     C17713   9.268  10.440  10.640  0.6453 -0.0763 -0.6833
  129MOL0     C17714   9.139  10.508  10.647 -0.9495 -0.0158  0.7715
  129MOL0     N17715   8.375  10.615  10.903  0.4773 -0.2587  0.6877
  129MOL0     N17716   8.300  10.566  11.001  0.5243  1.0207 -0.3623
  129MOL0     C17717   9.123  10.289  11.577  0.6604 -0.2687 -0.1569
  129MOL0     C17718   9.256  10.322  11.530  0.8731  0.2093  0.5873
  129MOL0     C17719   9.561  10.532  11.315  0.4046  0.5143 -0.1327
  129MOL0     C17720   9.648  10.427  11.344 -1.0644 -0.1512 -0.6221
  129MOL0     C17721   9.787  10.436  11.309 -0.3494  0.1430  0.9172
  129MOL0     C17722   9.849  10.554  11.263 -0.4851  0.5124 -0.0666
  129MOL0     O17723   9.986  10.569  11.224  1.0137  0.9511 -0.1304
  129MOL0     C17724  10.039  10.469  11.137  1.5739 -0.1343  0.8490
  129MOL0     C17725  10.192  10.488  11.119 -0.0512 -0.0146  0.3266
  129MOL0     C17726  10.245  10.388  11.016  0.6383  0.3545 -0.1998
  129MOL0     C17727  10.392  10.409  10.973  0.3995 -0.2266 -1.0369
  129MOL0     C17728  10.487  10.420  11.081 -0.6823  0.9595  0.1894
  129MOL0     C17729  10.569  10.431  11.177 -0.1096 -0.2269 -0.1453
  129MOL0     C17730   9.757  10.655  11.234 -0.0780  0.1550  0.9532
  129MOL0     C17731   9.619  10.647  11.245  0.6703  0.4800  0.9851
  129MOL0     C17732   9.546  10.770  11.199 -0.7543  0.7686 -0.3138
  129MOL0     H17733   9.177  10.359  11.206  0.0708  0.1982  0.3759
  129MOL0     H17734   8.954  10.289  11.284  1.1152 -1.5613 -0.7608
  129MOL0     H17735   8.854  10.092  11.402  1.1327  1.0679  0.4385
  129MOL0     H17736   8.762  10.233  11.380 -3.6146 -0.1133  0.7088
  129MOL0     H17737   8.623  10.056  11.483 -0.5132  0.3979  1.0602
  129MOL0     H17738   8.734  10.046  11.628  0.1246 -1.5998 -0.7804
  129MOL0     H17739   8.557  10.172  11.696  1.8151 -1.8317  1.3021
  129MOL0     H17740   8.684  10.289  11.667  0.1648 -1.6772  2.2555
  129MOL0     H17741   8.582  10.328  11.442  0.4144 -1.7847 -0.5521
  129MOL0     H17742   8.433  10.235  11.499  0.1849 -0.3244  0.3587
  129MOL0     H17743   8.532  10.501  11.588  0.0007 -1.1019  1.3844
  129MOL0     H17744   8.413  10.415  11.678 -0.6027  0.1414 -0.0988
  129MOL0     H17745   8.268  10.398  11.472  1.2434 -2.1660  2.3525
  129MOL0     H17746   8.273  10.565  11.520 -1.2943 -0.9533 -0.4914
  129MOL0     H17747   8.419  10.414  11.301 -1.6382 -0.4213  2.0002
  129MOL0     H17748   8.495  10.559  11.364  0.5837 -0.0209  0.9061
  129MOL0     H17749   8.220  10.512  11.235  0.2375 -0.4072 -1.3983
  129MOL0     H17750   8.258  10.667  11.308  0.7001  0.6970 -1.9278
  129MOL0     H17751   8.532  10.738  11.155 -0.3459  1.4939 -1.8002
  129MOL0     H17752   8.626  10.849  10.919  1.6918  0.4127 -1.3329
  129MOL0     H17753   8.518  10.800  10.777  1.1140 -1.7816 -1.8180
  129MOL0     H17754   8.727  10.626  10.892 -0.8304  2.6968  1.6876
  129MOL0     H17755   8.608  10.589  10.761  0.0349 -2.5737  2.4733
  129MOL0     H17756   8.717  10.772  10.626  0.4667  0.4799 -0.0021
  129MOL0     H17757   8.816  10.812  10.759 -1.1410  0.3229  0.8969
  129MOL0     H17758   8.832  10.539  10.640 -0.6547  1.2572 -2.4972
  129MOL0     H17759   8.922  10.677  10.579  0.1713 -1.3097 -1.0868
  129MOL0     H17760   9.152  10.606  10.966 -0.3783 -1.4091  1.3021
  129MOL0     H17761   9.368  10.396  11.066  0.2900 -0.1086  0.3720
  129MOL0     H17762   9.346  10.570  11.036 -2.9065 -0.0189 -1.8516
  129MOL0     H17763   9.477  10.479  10.959  0.4751  1.5021  3.7858
  129MOL0     H17764   9.759  10.450  10.771 -1.1211 -1.1343  0.5294
  129MOL0     H17765   9.984  10.343  10.762  0.6976 -0.7268 -0.2333
  129MOL0     H17766  10.155  10.212  10.772 -0.7533  0.4091 -1.3291
  129MOL0     H17767  10.050  10.070  10.834 -1.5051 -3.0369 -2.3663
  129MOL0     H17768  10.261   9.979  10.844  0.0213  2.4447  0.5743
  129MOL0     H17769  10.213   9.910  10.701 -2.5529 -0.6002  0.9414
  129MOL0     H17770  10.397  10.155  10.753 -0.2302 -1.0170  1.1539
  129MOL0     H17771  10.348  10.119  10.583 -2.7602 -0.4067 -0.1269
  129MOL0     H17772  10.481   9.916  10.579 -0.4023 -0.4169  0.2965
  129MOL0     H17773  10.469   9.909  10.758 -2.8148  0.6311 -0.0761
  129MOL0     H17774  10.606  10.085  10.791 -1.0191  0.4926 -1.1557
  129MOL0     H17775  10.691   9.948  10.717 -2.9465 -1.6443  2.2632
  129MOL0     H17776  10.579  10.160  10.527 -0.2141  1.6508  1.5657
  129MOL0     H17777  10.677  10.021  10.495 -4.4478  0.0859 -0.3799
  129MOL0     H17778  10.868  10.123  10.644 -0.0493  2.9583  1.0018
  129MOL0     H17779  10.763  10.258  10.675 -1.4865 -0.7349  1.9294
  129MOL0     H17780  10.757  10.318  10.440  1.7673  0.7878 -1.6060
  129MOL0     H17781  10.853  10.181  10.393  0.3074  2.0037 -0.7756
  129MOL0     H17782   9.832  10.026  10.523  0.0802  1.9959 -1.7500
  129MOL0     H17783   9.607  10.142  10.521  2.6819 -1.4719 -2.4285
  129MOL0     H17784   9.310  10.412  10.544  2.7285  1.8746 -0.4231
  129MOL0     H17785   9.087  10.538  10.557 -1.3894 -0.5145  0.8516
  129MOL0     H17786   9.110  10.254  11.679 -4.6527 -0.4305 -0.5845
  129MOL0     H17787   9.344  10.336  11.592  1.2436  1.9166 -0.2594
  129MOL0     H17788   9.615  10.330  11.380 -2.7929  1.0949  1.3367
  129MOL0     H17789   9.861  10.357  11.318  2.1861  2.4059  0.9611
  129MOL0     H17790  10.009  10.371  11.175 -0.4401  0.4968  0.9569
  129MOL0     H17791  10.006  10.469  11.032 -1.6273 -1.0680  1.7530
  129MOL0     H17792  10.243  10.466  11.213  0.1198 -2.2549 -0.2413
  129MOL0     H17793  10.218  10.589  11.084 -1.2223 -0.6863 -2.8063
  129MOL0     H17794  10.241  10.288  11.059  2.1239 -1.2145 -3.4148
  129MOL0     H17795  10.179  10.393  10.928 -1.4029 -0.1348  1.2321
  129MOL0     H17796  10.399  10.502  10.915 -3.8594  0.7405 -0.3136
  129MOL0     H17797  10.423  10.320  10.918  1.3923 -1.1091  0.8316
  129MOL0     H17798  10.647  10.448  11.249  0.7127 -1.2205 -0.7680
  129MOL0     H17799   9.791  10.744  11.181  2.9837 -1.9433 -0.9545
  129MOL0     H17800   9.540  10.834  11.287 -0.2570 -0.9384  1.0303
  129MOL0     H17801   9.609  10.813  11.121  2.7760 -1.6937  0.9235
  129MOL0     H17802   9.441  10.758  11.170 -1.4962  2.9257  1.2274
  130MOL0     O17803   0.002  10.721   8.609  0.1324  0.2004 -0.8139
  130MOL0     C17804   0.018  10.598   8.581  0.3546 -0.3450  0.2923
  130MOL0     O17805   0.105  10.553   8.489 -0.1256 -0.2159 -0.0861
  130MOL0     C17806   0.173  10.646   8.409  0.9185 -0.8480 -0.2528
  130MOL0     C17807   0.133  10.775   8.363 -0.2028 -0.2046 -0.0298
  130MOL0     C17808   0.215  10.847   8.269 -0.2493 -0.4059 -0.0153
  130MOL0     C17809   0.329  10.791   8.217 -0.0774  0.6136  0.0733
  130MOL0     O17810   0.411  10.845   8.125 -0.3273 -0.6420  0.2282
  130MOL0     C17811   0.382  10.974   8.055  0.0080  0.0608 -0.0807
  130MOL0     C17812   0.500  11.010   7.964  0.0225 -0.4168  0.1262
  130MOL0     C17813   0.626  11.028   8.047 -0.0771  0.6834 -1.1723
  130MOL0     C17814   0.754  11.069   7.971  0.1478  0.1491 -0.0487
  130MOL0     C17815   0.877  11.035   8.056  0.3349  0.2996  0.0140
  130MOL0     C17816   0.999  11.088   7.978 -0.9085 -0.0460 -0.1134
  130MOL0     C17817   1.131  11.052   8.052 -0.0542  0.4248 -0.4871
  130MOL0     C17818   1.251  11.138   7.989 -0.2321  0.3522  0.2435
  130MOL0     N17819   1.382  11.073   8.007 -0.0018 -0.0630 -0.1178
  130MOL0     C17820   1.436  11.035   8.134  0.2758 -0.4470  0.1909
  130MOL0     C17821   1.541  10.961   8.100 -0.8049  0.1498 -0.2717
  130MOL0     C17822   1.660  10.912   8.191 -0.7269  0.2652  0.3949
  130MOL0     C17823   1.749  10.789   8.133  1.0289  0.9838 -0.4174
  130MOL0     C17824   1.673  10.654   8.114 -1.6727 -0.4050 -0.0136
  130MOL0     C17825   1.688  10.580   8.247  0.1714 -0.0269  0.3243
  130MOL0     O17826   1.830  10.553   8.257  0.2723  0.1933  0.1830
  130MOL0     C17827   1.884  10.424   8.229  0.5436 -0.3564 -0.6138
  130MOL0     C17828   2.014  10.402   8.268  0.5700 -0.4083  0.7910
  130MOL0     C17829   2.082  10.287   8.247 -0.7213 -0.1391  0.7231
  130MOL0     C17830   2.220  10.277   8.306 -0.3288 -0.2283 -0.1750
  130MOL0     C17831   2.017  10.179   8.184  0.0835  0.6361 -0.5190
  130MOL0     C17832   2.068  10.043   8.192 -0.4115 -0.3021 -0.0025
  130MOL0     O17833   2.189  10.019   8.130 -0.2912 -0.0188  0.0247
  130MOL0     C17834   2.251   9.895   8.148 -0.2359 -1.1841 -0.1293
  130MOL0     C17835   2.301   9.823   8.041 -0.8774  0.5960 -0.4400
  130MOL0     C17836   2.372   9.703   8.060  0.6275 -1.2932  0.5300
  130MOL0     C17837   2.382   9.651   8.191  0.0185 -0.2802  0.6504
  130MOL0     O17838   2.438   9.529   8.201  0.3185 -0.3297 -0.0533
  130MOL0     C17839   2.489   9.480   8.327  1.6984  0.0451  0.4277
  130MOL0     C17840   2.534   9.333   8.327  0.5617 -0.0065 -0.2282
  130MOL0     C17841   2.644   9.297   8.237 -0.6747 -0.6014 -0.0019
  130MOL0     C17842   2.784   9.334   8.292  0.5600  0.0187 -0.0306
  130MOL0     C17843   2.894   9.242   8.249 -0.6945 -0.1386 -0.1076
  130MOL0     C17844   3.029   9.298   8.297  0.3387 -0.1829  0.4937
  130MOL0     C17845   3.146   9.218   8.234 -0.2756  0.0667 -0.8094
  130MOL0     C17846   3.272   9.305   8.267 -0.2233 -0.4622 -0.0462
  130MOL0    Cl17847   3.416   9.206   8.202 -0.1955  0.3555  0.0142
  130MOL0     C17848   2.327   9.723   8.298  0.5262 -0.6743 -0.4721
  130MOL0     C17849   2.260   9.841   8.273 -0.0076 -0.2308 -0.3774
  130MOL0     O17850   1.996   9.956   8.237 -0.6322 -0.1505  0.4335
  130MOL0     C17851   1.884  10.197   8.142  0.7136  0.2417  0.8983
  130MOL0     C17852   1.821  10.321   8.167 -0.4198 -0.0806 -0.2373
  130MOL0     N17853   1.550  10.941   7.963  0.7506  0.3369 -0.4409
  130MOL0     N17854   1.446  11.001   7.911 -0.6491  0.0354 -0.1092
  130MOL0     C17855   0.367  10.665   8.263 -0.7826  0.9087 -0.1810
  130MOL0     C17856   0.287  10.594   8.355 -0.1702  0.2989 -0.5925
  130MOL0     C17857  -0.065  10.504   8.656  0.0557  1.1923  0.4212
  130MOL0     C17858  -0.160  10.552   8.753  0.0032  0.8935  0.9696
  130MOL0     C17859  -0.235  10.465   8.834 -0.1727 -0.2701  1.1653
  130MOL0     C17860  -0.231  10.327   8.816  0.5253 -0.0650  0.5098
  130MOL0     O17861  -0.304  10.239   8.893  0.5107 -0.5128  0.7055
  130MOL0     C17862  -0.446  10.268   8.891  0.2274 -0.2389 -0.1453
  130MOL0     C17863  -0.496  10.309   9.029  0.5792 -0.9093 -0.0348
  130MOL0     C17864  -0.475  10.200   9.137  0.0547  0.8992  0.3066
  130MOL0     C17865  -0.550  10.237   9.262 -0.3287 -0.3758  0.2632
  130MOL0     C17866  -0.519  10.150   9.372 -0.4729  0.3517  0.3577
  130MOL0     C17867  -0.489  10.065   9.462 -0.1309 -1.0764 -0.1173
  130MOL0     C17868  -0.138  10.273   8.732  0.3975  0.9400  0.2354
  130MOL0     C17869  -0.056  10.354   8.652  0.7401 -0.3030 -0.2069
  130MOL0     C17870   0.030  10.283   8.550 -0.2945  0.4234 -0.1198
  130MOL0     H17871   0.038  10.821   8.389  0.1146  0.6797 -0.3909
  130MOL0     H17872   0.189  10.948   8.238  0.4566 -0.9352 -2.5322
  130MOL0     H17873   0.385  11.057   8.127 -0.9926  0.4801 -0.5073
  130MOL0     H17874   0.285  10.971   8.005  1.4894  1.2195 -3.2960
  130MOL0     H17875   0.520  10.932   7.890  2.6188 -0.7432  1.0885
  130MOL0     H17876   0.468  11.105   7.919  1.5242 -0.3625 -0.9261
  130MOL0     H17877   0.608  11.106   8.122  0.5064 -0.8671  0.6761
  130MOL0     H17878   0.648  10.938   8.105 -0.4913  0.4740 -1.3370
  130MOL0     H17879   0.760  11.020   7.873 -0.7946 -2.2183  0.9916
  130MOL0     H17880   0.750  11.176   7.948 -0.0485 -0.3082 -2.3965
  130MOL0     H17881   0.880  10.932   8.091  0.0793  1.2327  3.1539
  130MOL0     H17882   0.863  11.087   8.152  0.0000  1.0659 -0.4374
  130MOL0     H17883   0.996  11.023   7.890  0.4902 -0.9007  0.4357
  130MOL0     H17884   0.983  11.194   7.959  0.2059  0.0527 -0.5865
  130MOL0     H17885   1.145  10.944   8.050 -0.2191  0.2715  2.2272
  130MOL0     H17886   1.110  11.084   8.155  3.0123 -2.5887  1.2785
  130MOL0     H17887   1.238  11.138   7.880 -0.1225  3.2775  0.1563
  130MOL0     H17888   1.243  11.242   8.022 -1.8473 -0.1491  1.5472
  130MOL0     H17889   1.412  11.061   8.237  1.6332  1.0946  0.1471
  130MOL0     H17890   1.607  10.891   8.285 -2.1752  1.8991 -0.0035
  130MOL0     H17891   1.737  10.987   8.207  1.8583 -2.2376  0.5636
  130MOL0     H17892   1.774  10.817   8.031  0.6163 -0.0356 -0.8056
  130MOL0     H17893   1.834  10.780   8.201 -0.4202 -0.3441  1.3202
  130MOL0     H17894   1.568  10.672   8.088 -0.8644 -0.9106 -4.3910
  130MOL0     H17895   1.718  10.582   8.045  0.7906  0.7331  0.3171
  130MOL0     H17896   1.661  10.639   8.335 -1.8916  1.0040 -0.9149
  130MOL0     H17897   1.635  10.484   8.253 -2.8076  1.4039 -1.0043
  130MOL0     H17898   2.059  10.490   8.314 -0.8565  0.2961  0.9081
  130MOL0     H17899   2.214  10.302   8.412  0.3639  0.9635 -0.4013
  130MOL0     H17900   2.283  10.353   8.258 -0.0264 -2.0457 -2.9433
  130MOL0     H17901   2.262  10.177   8.289 -3.2446 -1.7158  0.7486
  130MOL0     H17902   2.282   9.860   7.941 -1.5286  0.6657 -0.2979
  130MOL0     H17903   2.416   9.656   7.973  1.8565 -0.3245  0.5917
  130MOL0     H17904   2.573   9.545   8.354  1.3097 -0.0342  1.9598
  130MOL0     H17905   2.404   9.492   8.395 -2.9009  0.5497 -4.7371
  130MOL0     H17906   2.564   9.325   8.432  2.9312 -0.0343 -0.8461
  130MOL0     H17907   2.438   9.282   8.318 -1.8722  3.6621  1.9320
  130MOL0     H17908   2.641   9.349   8.141  1.0948 -2.6517 -1.2980
  130MOL0     H17909   2.641   9.189   8.216  0.7867 -1.0527  1.8416
  130MOL0     H17910   2.797   9.338   8.400  1.8978  3.0666 -0.2049
  130MOL0     H17911   2.803   9.439   8.267  1.6046  0.7194  3.2814
  130MOL0     H17912   2.875   9.140   8.283  0.5763  0.7002  3.6563
  130MOL0     H17913   2.900   9.233   8.140 -0.4612 -2.9977  0.0654
  130MOL0     H17914   3.045   9.288   8.404  1.5328  3.5820  0.8215
  130MOL0     H17915   3.042   9.405   8.277  0.5378 -0.0161  1.4714
  130MOL0     H17916   3.135   9.206   8.126 -0.9555  1.0128 -0.8546
  130MOL0     H17917   3.156   9.121   8.284  2.8130  0.9591  0.5825
  130MOL0     H17918   3.284   9.317   8.376  1.0476  2.3074 -0.3923
  130MOL0     H17919   3.263   9.400   8.213 -0.9067 -2.2829 -3.3917
  130MOL0     H17920   2.325   9.680   8.398  1.7162 -1.7175 -0.8639
  130MOL0     H17921   2.209   9.887   8.357  0.3219 -2.3161  1.0524
  130MOL0     H17922   1.829  10.113   8.102  1.4386  0.5723 -0.8358
  130MOL0     H17923   1.715  10.330   8.143 -0.9361 -3.2285  0.4075
  130MOL0     H17924   0.446  10.611   8.213 -0.2087  1.1709  0.4339
  130MOL0     H17925   0.320  10.497   8.390 -2.3388  0.1141  1.1378
  130MOL0     H17926  -0.168  10.661   8.756  1.8739  1.2347 -2.0310
  130MOL0     H17927  -0.295  10.522   8.904  1.0912  3.1818 -0.3351
  130MOL0     H17928  -0.470  10.352   8.825 -1.0152 -0.6878 -0.2900
  130MOL0     H17929  -0.505  10.183   8.855 -1.6670  1.6311 -1.7293
  130MOL0     H17930  -0.603  10.324   9.014  0.4326  0.6288  2.1165
  130MOL0     H17931  -0.446  10.399   9.066 -0.4297 -0.5999  0.5920
  130MOL0     H17932  -0.531  10.112   9.103 -0.3131  0.3148  2.2778
  130MOL0     H17933  -0.369  10.188   9.162  1.0958  3.9204 -2.0512
  130MOL0     H17934  -0.656  10.218   9.245 -0.0952 -0.6661 -0.9385
  130MOL0     H17935  -0.530  10.341   9.291  0.9251 -0.8119  1.0379
  130MOL0     H17936  -0.472   9.999   9.544  0.5893 -2.4804 -1.3448
  130MOL0     H17937  -0.142  10.164   8.735 -2.0282  0.9726  1.9849
  130MOL0     H17938   0.017  10.314   8.446  0.9655  0.8034 -0.1780
  130MOL0     H17939   0.136  10.290   8.574 -0.3730  1.1727  0.0344
  130MOL0     H17940   0.005  10.177   8.544 -2.4061  0.9031 -0.6705
  131MOL0     O17941  10.127   5.251   7.621 -0.5645  0.5029 -0.0364
  131MOL0     C17942  10.172   5.274   7.735  0.0404  0.2646  0.5809
  131MOL0     O17943  10.258   5.197   7.805 -0.1114  1.0786 -0.4946
  131MOL0     C17944  10.305   5.070   7.771 -0.0351  0.6820  1.0392
  131MOL0     C17945  10.430   5.043   7.819 -0.3535 -0.0484  0.3434
  131MOL0     C17946  10.474   4.914   7.805 -0.6904  0.9552 -0.2422
  131MOL0     C17947  10.416   4.806   7.736  0.2376  0.9194 -0.2040
  131MOL0     O17948  10.469   4.677   7.727 -0.0903 -0.6997 -0.1785
  131MOL0     C17949  10.545   4.662   7.605 -0.5851  0.5853  0.5828
  131MOL0     C17950  10.548   4.516   7.583  0.9969 -0.5934  0.4797
  131MOL0     C17951  10.621   4.477   7.454  0.3656 -0.1383 -0.7564
  131MOL0     C17952  10.689   4.342   7.453 -0.4072  0.3440 -1.5823
  131MOL0     C17953  10.766   4.316   7.323  0.7713  1.2950  0.1351
  131MOL0     C17954  10.882   4.217   7.346 -0.5280  0.3488 -0.4109
  131MOL0     C17955  11.016   4.284   7.389  0.2262 -0.6415  0.4415
  131MOL0     C17956  11.069   4.365   7.263  0.4457  0.0219 -0.5660
  131MOL0     N17957  11.201   4.433   7.287  0.6084  0.1547  0.1101
  131MOL0     C17958  11.258   4.474   7.404  0.0020  0.4923  0.0951
  131MOL0     C17959  11.380   4.517   7.371  0.1586  0.2490 -0.1913
  131MOL0     C17960  11.483   4.557   7.470 -0.9425 -0.1579  0.4362
  131MOL0     C17961  11.484   4.711   7.508  0.0011 -0.7266  0.3137
  131MOL0     C17962  11.509   4.802   7.384  0.1171 -0.1369 -0.4004
  131MOL0     C17963  11.654   4.786   7.334 -0.4030 -0.1571 -0.2594
  131MOL0     O17964  11.707   4.892   7.249  0.6176 -0.5025 -0.3340
  131MOL0     C17965  11.848   4.905   7.244  0.7795  0.2830  0.5099
  131MOL0     C17966  11.885   5.011   7.170  1.0433 -0.0581  0.7873
  131MOL0     C17967  12.019   5.035   7.136 -0.4818 -0.2181 -0.6713
  131MOL0     C17968  12.048   5.149   7.039  0.3789  0.0163  0.6852
  131MOL0     C17969  12.121   4.951   7.190 -1.3622 -0.6310 -0.0226
  131MOL0     C17970  12.266   4.963   7.161 -0.0489  0.9089 -0.1985
  131MOL0     O17971  12.346   4.871   7.225 -0.1360  0.4616  0.2139
  131MOL0     C17972  12.479   4.870   7.200 -0.7159  0.1470  0.5209
  131MOL0     C17973  12.537   4.795   7.094 -0.1430 -0.3807  0.1385
  131MOL0     C17974  12.675   4.808   7.079 -1.1217  0.3544  0.0255
  131MOL0     C17975  12.758   4.889   7.165 -0.5852  0.1434 -0.0619
  131MOL0     O17976  12.891   4.904   7.141 -0.4507 -0.9697  0.0980
  131MOL0     C17977  12.968   4.783   7.142 -0.1450 -0.2900 -0.1899
  131MOL0     C17978  13.014   4.730   7.280 -0.3741  0.5500  0.1164
  131MOL0     C17979  13.153   4.655   7.278 -0.2380  0.9405  0.6943
  131MOL0     C17980  13.150   4.545   7.182 -0.5787  0.8966  0.7008
  131MOL0     C17981  13.259   4.444   7.206 -0.6345 -0.8248  0.1940
  131MOL0     C17982  13.410   4.502   7.189  0.4226 -0.4422  0.0738
  131MOL0     C17983  13.520   4.394   7.208  0.0150 -0.8226  0.5270
  131MOL0     C17984  13.655   4.437   7.155  1.0929  0.4301 -0.5380
  131MOL0    Cl17985  13.702   4.592   7.242  0.0408 -0.3729 -0.0137
  131MOL0     C17986  12.706   4.959   7.265 -0.1121  0.5483  0.1450
  131MOL0     C17987  12.566   4.948   7.280 -0.3819  0.7907  0.7521
  131MOL0     O17988  12.301   5.047   7.086 -0.2158  0.2425 -0.0495
  131MOL0     C17989  12.078   4.849   7.278  0.1693  0.0667  0.5954
  131MOL0     C17990  11.942   4.821   7.306 -0.7411  0.5946  0.4011
  131MOL0     N17991  11.413   4.474   7.246  0.0478  0.0840 -0.4498
  131MOL0     N17992  11.307   4.421   7.199  0.8200 -0.4285  0.1893
  131MOL0     C17993  10.302   4.847   7.661  0.3502 -1.1028 -0.3641
  131MOL0     C17994  10.238   4.974   7.682  0.1849 -0.2092  0.2614
  131MOL0     C17995  10.115   5.384   7.824  0.0498 -0.1212 -0.5067
  131MOL0     C17996  10.101   5.361   7.969  0.0874  0.1174 -0.1620
  131MOL0     C17997  10.047   5.461   8.045 -0.3103 -0.6053  0.0996
  131MOL0     C17998  10.010   5.587   7.999  0.2073  0.3652 -0.7543
  131MOL0     O17999   9.945   5.687   8.064  0.0174  0.0806 -0.5750
  131MOL0     C18000   9.942   5.687   8.204  0.1698  0.8293 -0.8933
  131MOL0     C18001   9.792   5.668   8.261  0.0445 -0.5266 -0.1719
  131MOL0     C18002   9.781   5.721   8.406 -0.5580 -0.0210 -0.4510
  131MOL0     C18003   9.635   5.757   8.450 -0.4738  0.3966  0.4004
  131MOL0     C18004   9.629   5.797   8.594  0.6204  0.0273 -0.5518
  131MOL0     C18005   9.614   5.820   8.707 -0.4976  0.4157 -0.1768
  131MOL0     C18006  10.033   5.613   7.863  1.0825  0.2720 -0.3257
  131MOL0     C18007  10.094   5.518   7.778 -0.0144  0.1663 -0.9492
  131MOL0     C18008  10.116   5.560   7.637 -0.1515 -0.0200  0.2448
  131MOL0     H18009  10.488   5.117   7.872  2.8227 -1.9238 -0.2403
  131MOL0     H18010  10.569   4.885   7.847 -0.1250  1.9726 -0.7825
  131MOL0     H18011  10.648   4.695   7.622  0.1106 -0.4139 -1.2829
  131MOL0     H18012  10.494   4.717   7.525 -0.7112  3.0535  2.2703
  131MOL0     H18013  10.594   4.465   7.669 -1.4931  0.7662  2.7759
  131MOL0     H18014  10.444   4.481   7.578  0.6208  0.6068 -0.4431
  131MOL0     H18015  10.543   4.486   7.377 -3.2504 -0.3533  2.5773
  131MOL0     H18016  10.697   4.554   7.438 -1.5402  1.6848 -1.4850
  131MOL0     H18017  10.755   4.350   7.540  2.7178  1.6193 -3.8735
  131MOL0     H18018  10.615   4.264   7.474  0.9109 -0.4801  0.3359
  131MOL0     H18019  10.790   4.414   7.282 -1.4792  1.8021 -0.1209
  131MOL0     H18020  10.701   4.279   7.243  0.1230 -1.0742  1.6405
  131MOL0     H18021  10.851   4.151   7.427 -3.4384  2.5082  0.4032
  131MOL0     H18022  10.897   4.167   7.249 -2.9924 -2.2070  0.3999
  131MOL0     H18023  11.091   4.212   7.423  0.2794 -1.7615 -1.8416
  131MOL0     H18024  10.992   4.343   7.477 -0.5360  0.1493 -0.2667
  131MOL0     H18025  11.083   4.298   7.178 -0.1568  1.7560 -2.1127
  131MOL0     H18026  10.998   4.439   7.225 -0.5470 -0.4628  0.2881
  131MOL0     H18027  11.210   4.461   7.500 -3.5772 -1.4612 -1.7618
  131MOL0     H18028  11.582   4.530   7.433  0.3191  1.6373  2.3290
  131MOL0     H18029  11.473   4.510   7.568 -0.5234  0.7483  0.9247
  131MOL0     H18030  11.380   4.728   7.537 -1.8145 -2.7580 -4.0565
  131MOL0     H18031  11.557   4.744   7.583  1.7388  1.7400 -2.2695
  131MOL0     H18032  11.437   4.771   7.307  1.1725 -1.3824 -0.9222
  131MOL0     H18033  11.494   4.907   7.409  1.2306  0.9973 -4.0180
  131MOL0     H18034  11.716   4.792   7.424 -3.6043 -1.4734  2.2682
  131MOL0     H18035  11.668   4.692   7.279 -0.2959 -0.7256  0.6966
  131MOL0     H18036  11.807   5.067   7.118  0.5997  0.2569  1.7573
  131MOL0     H18037  11.956   5.172   6.985  2.4525  1.9159 -2.3915
  131MOL0     H18038  12.121   5.131   6.959 -0.2338  0.7790 -0.0635
  131MOL0     H18039  12.084   5.230   7.103 -2.1223  2.8113 -1.1492
  131MOL0     H18040  12.471   4.738   7.029  0.7746 -1.2452 -0.0485
  131MOL0     H18041  12.727   4.759   6.996 -0.1496  1.6213 -0.1441
  131MOL0     H18042  12.912   4.702   7.096 -2.2377  0.7073  0.4925
  131MOL0     H18043  13.058   4.802   7.083 -0.0552  4.0387  1.0255
  131MOL0     H18044  13.030   4.816   7.346  0.1396 -0.8244  1.8618
  131MOL0     H18045  12.935   4.667   7.322 -0.6772 -2.4540 -4.2747
  131MOL0     H18046  13.183   4.612   7.374  2.7250  0.7244 -0.2339
  131MOL0     H18047  13.225   4.721   7.230 -1.5533 -0.9736 -4.5233
  131MOL0     H18048  13.155   4.586   7.080  2.5761  0.5537  0.6159
  131MOL0     H18049  13.058   4.487   7.175  0.9278 -1.4615 -1.9986
  131MOL0     H18050  13.247   4.404   7.307  1.8528  0.0926  0.9443
  131MOL0     H18051  13.239   4.363   7.135  2.0395 -0.0663 -1.5803
  131MOL0     H18052  13.423   4.584   7.260  0.1389  1.2155 -1.7164
  131MOL0     H18053  13.406   4.541   7.087 -2.8274 -2.6071 -0.8245
  131MOL0     H18054  13.494   4.300   7.159 -2.4499 -0.2366  0.5934
  131MOL0     H18055  13.526   4.369   7.314  0.4250 -2.9431  0.0459
  131MOL0     H18056  13.641   4.456   7.048  1.7974 -3.5660 -1.4751
  131MOL0     H18057  13.726   4.354   7.160  0.0373 -0.4416  0.6549
  131MOL0     H18058  12.764   5.024   7.329  2.1034 -1.0610 -0.1190
  131MOL0     H18059  12.514   5.002   7.358 -5.8879  1.0628 -2.5717
  131MOL0     H18060  12.148   4.782   7.327 -0.5103  1.1710  3.2017
  131MOL0     H18061  11.921   4.744   7.380 -1.1911  0.2902 -0.0311
  131MOL0     H18062  10.242   4.777   7.603 -3.9208  2.2531 -0.4267
  131MOL0     H18063  10.151   5.007   7.626  0.5618  2.0415  0.9217
  131MOL0     H18064  10.121   5.263   8.012 -1.4604  0.0843  0.5406
  131MOL0     H18065  10.041   5.431   8.150  0.9433  0.6077  0.5540
  131MOL0     H18066   9.992   5.600   8.248 -2.0836  0.9582  2.1917
  131MOL0     H18067   9.984   5.776   8.253 -0.4029 -0.5363  2.3186
  131MOL0     H18068   9.746   5.570   8.248 -2.6512  0.6961 -0.7117
  131MOL0     H18069   9.736   5.741   8.202  1.8182 -0.0952 -1.3956
  131MOL0     H18070   9.807   5.645   8.480 -0.7534  0.3875  0.0428
  131MOL0     H18071   9.846   5.804   8.434 -1.1445 -0.5491  2.9653
  131MOL0     H18072   9.563   5.676   8.435 -1.3089  1.4549 -1.7353
  131MOL0     H18073   9.594   5.843   8.397  0.7785  0.1540 -1.0174
  131MOL0     H18074   9.599   5.831   8.813  1.7152  1.3193  0.1196
  131MOL0     H18075  10.002   5.711   7.829 -2.4379 -0.3648  0.6689
  131MOL0     H18076  10.217   5.539   7.599 -1.1246 -0.1533 -2.4632
  131MOL0     H18077  10.047   5.511   7.568  1.9520 -0.3081 -1.7676
  131MOL0     H18078  10.106   5.667   7.617 -2.9173 -0.6660 -2.5337
  132MOL0     O18079   3.336   2.199   0.401 -0.0576 -0.2604  0.0031
  132MOL0     C18080   3.282   2.091   0.383 -0.1065  0.0921  1.1188
  132MOL0     O18081   3.329   1.969   0.428  0.3926  0.4086 -0.4360
  132MOL0     C18082   3.441   1.960   0.505  0.4399  0.0345  1.2160
  132MOL0     C18083   3.566   1.947   0.451 -0.9157 -0.4640  0.1108
  132MOL0     C18084   3.686   1.946   0.528  0.2957  0.0650 -0.0800
  132MOL0     C18085   3.667   1.959   0.665  0.1824  0.6313 -0.1272
  132MOL0     O18086   3.769   1.922   0.751 -0.1512 -0.0380  0.2547
  132MOL0     C18087   3.906   1.931   0.712 -0.4087  0.0346  0.2020
  132MOL0     C18088   4.003   1.927   0.833 -0.3529 -0.3185  0.3245
  132MOL0     C18089   4.150   1.944   0.787  0.0199  0.0372 -0.4112
  132MOL0     C18090   4.176   2.081   0.734 -0.4044  0.2255  0.0127
  132MOL0     C18091   4.328   2.083   0.729 -0.4516 -0.6552  0.6037
  132MOL0     C18092   4.372   2.219   0.674 -0.0963 -1.0009 -0.0935
  132MOL0     C18093   4.531   2.259   0.698  0.9132  0.7602 -0.0876
  132MOL0     C18094   4.567   2.354   0.585 -0.1028  0.5653  0.3363
  132MOL0     N18095   4.709   2.385   0.587 -0.0822 -0.0672  0.2478
  132MOL0     C18096   4.807   2.328   0.516 -0.1842  0.1852 -0.0283
  132MOL0     C18097   4.927   2.390   0.552 -0.2980  0.3324  0.2393
  132MOL0     C18098   5.059   2.337   0.507  0.2467  0.0921 -0.1443
  132MOL0     C18099   5.179   2.368   0.597  0.6987  0.0802 -0.7175
  132MOL0     C18100   5.290   2.267   0.566 -0.0511  0.7390 -0.5354
  132MOL0     C18101   5.439   2.317   0.589 -0.2266 -0.2503  0.7282
  132MOL0     O18102   5.445   2.344   0.734 -0.2269 -0.3594 -0.2642
  132MOL0     C18103   5.572   2.377   0.782 -0.2065 -0.1680 -0.5710
  132MOL0     C18104   5.684   2.411   0.699 -0.0785  0.2520 -0.7646
  132MOL0     C18105   5.814   2.433   0.750  0.6141  0.6231 -0.7366
  132MOL0     C18106   5.917   2.478   0.646  0.4460 -0.4184 -0.0263
  132MOL0     C18107   5.838   2.397   0.891 -0.5070  0.1401  0.3755
  132MOL0     C18108   5.982   2.401   0.949 -0.9964  0.3040 -1.3833
  132MOL0     O18109   5.996   2.348   1.070  0.0430 -1.2197  0.1398
  132MOL0     C18110   6.124   2.314   1.121 -0.8234 -1.1554 -0.6003
  132MOL0     C18111   6.150   2.341   1.253 -0.2376  0.3225 -0.9438
  132MOL0     C18112   6.273   2.309   1.314  0.9091 -0.6233 -0.5639
  132MOL0     C18113   6.377   2.238   1.236  0.7564  0.3332 -0.7175
  132MOL0     O18114   6.499   2.197   1.282 -0.5939  0.2148  0.1752
  132MOL0     C18115   6.537   2.228   1.419 -0.3749 -0.5595 -0.2113
  132MOL0     C18116   6.666   2.166   1.452  0.5229  0.2633  0.0628
  132MOL0     C18117   6.656   2.011   1.454  0.1958 -0.4276  0.1195
  132MOL0     C18118   6.790   1.947   1.481 -0.6429  0.0166 -0.2261
  132MOL0     C18119   6.772   1.798   1.518  0.0801 -0.2025  0.2800
  132MOL0     C18120   6.911   1.739   1.535 -1.9037 -0.1271  0.1019
  132MOL0     C18121   6.933   1.581   1.568 -0.1727  0.1788 -0.3447
  132MOL0     C18122   6.870   1.548   1.709 -0.2999 -0.0694 -0.3980
  132MOL0    Cl18123   6.965   1.610   1.859 -0.6274 -0.0087 -0.4227
  132MOL0     C18124   6.351   2.230   1.097  0.0492  0.1520 -0.3709
  132MOL0     C18125   6.226   2.259   1.044 -0.0303 -0.6095 -0.0486
  132MOL0     O18126   6.067   2.465   0.891 -0.3603 -0.4006  0.1699
  132MOL0     C18127   5.729   2.355   0.969 -0.1624 -0.2596 -0.6543
  132MOL0     C18128   5.597   2.347   0.916 -0.4657 -0.0701 -0.2837
  132MOL0     N18129   4.892   2.485   0.642 -0.1757 -0.7173  0.1356
  132MOL0     N18130   4.766   2.480   0.661 -0.7102  0.4545  0.1726
  132MOL0     C18131   3.536   1.965   0.726 -0.6752 -0.0424 -0.0146
  132MOL0     C18132   3.427   1.972   0.641 -0.3694 -0.4877 -1.0409
  132MOL0     C18133   3.147   2.092   0.319  0.3992  0.8065 -0.3487
  132MOL0     C18134   3.117   2.185   0.216  0.3815  0.1936 -0.3682
  132MOL0     C18135   2.990   2.190   0.160  0.0194  0.1827  0.3272
  132MOL0     C18136   2.887   2.104   0.200  0.5367 -0.3405 -0.7457
  132MOL0     O18137   2.773   2.122   0.138  0.0385  0.4260  0.5165
  132MOL0     C18138   2.648   2.064   0.172  1.0146 -0.2424  0.2436
  132MOL0     C18139   2.636   1.932   0.099  0.4562 -0.7755  0.1991
  132MOL0     C18140   2.566   1.941  -0.028  0.0441 -0.2014 -0.9961
  132MOL0     C18141   2.643   2.026  -0.132 -0.3780  0.2193 -0.4043
  132MOL0     C18142   2.576   2.016  -0.262 -0.3648 -0.0380  0.3414
  132MOL0     C18143   2.519   1.995  -0.363 -0.5371 -0.3844  0.0738
  132MOL0     C18144   2.912   2.016   0.305 -1.1143  0.4106 -0.3905
  132MOL0     C18145   3.044   2.003   0.359  0.1471 -0.3383 -0.4159
  132MOL0     C18146   3.068   1.875   0.446  0.4501  0.9902 -0.2417
  132MOL0     H18147   3.570   1.925   0.345  2.1484 -0.4334  0.1373
  132MOL0     H18148   3.779   1.925   0.477 -0.3019  0.7142 -1.4863
  132MOL0     H18149   3.919   2.028   0.664  0.7564  1.6929  3.5346
  132MOL0     H18150   3.929   1.850   0.642 -0.6320  0.5397 -0.4611
  132MOL0     H18151   3.981   1.993   0.917  0.6005  1.1620 -0.5518
  132MOL0     H18152   3.992   1.829   0.882  1.6598 -0.2476  1.0022
  132MOL0     H18153   4.209   1.918   0.875 -0.3307 -3.8893 -1.1149
  132MOL0     H18154   4.171   1.873   0.706  1.2480 -1.3235  1.0381
  132MOL0     H18155   4.143   2.086   0.630  2.1027  0.8296 -0.8262
  132MOL0     H18156   4.132   2.163   0.791 -0.1330  1.3194 -1.2737
  132MOL0     H18157   4.369   2.004   0.665  3.5362  0.7630  1.0907
  132MOL0     H18158   4.360   2.078   0.834 -1.8414 -0.2452  1.0669
  132MOL0     H18159   4.343   2.228   0.569  1.1641 -0.8552 -0.4434
  132MOL0     H18160   4.327   2.295   0.738 -2.6011 -2.7790  0.3797
  132MOL0     H18161   4.584   2.164   0.687 -0.9457 -0.1625 -1.6924
  132MOL0     H18162   4.537   2.305   0.797 -0.8731  3.1021 -0.9648
  132MOL0     H18163   4.544   2.291   0.499  1.3955 -1.1179  1.0797
  132MOL0     H18164   4.496   2.436   0.581 -0.6266  0.0998 -0.0752
  132MOL0     H18165   4.806   2.247   0.444 -1.5517  1.3453 -1.3869
  132MOL0     H18166   5.077   2.379   0.408 -1.4683 -3.3925 -2.1111
  132MOL0     H18167   5.043   2.229   0.501 -0.3027  0.1781 -0.3005
  132MOL0     H18168   5.229   2.465   0.581  1.8371 -0.4578 -0.5049
  132MOL0     H18169   5.156   2.374   0.704  1.8729  0.1480 -0.4513
  132MOL0     H18170   5.270   2.177   0.624  1.8027  0.2216 -0.6580
  132MOL0     H18171   5.289   2.225   0.465 -2.8241  1.3581 -0.8449
  132MOL0     H18172   5.511   2.244   0.550 -0.4248  0.3271 -0.7831
  132MOL0     H18173   5.465   2.406   0.532  0.5404 -0.6102  0.5046
  132MOL0     H18174   5.661   2.442   0.598 -0.0950 -0.4642 -0.9860
  132MOL0     H18175   6.001   2.408   0.640 -2.8455 -4.7345 -0.3484
  132MOL0     H18176   5.959   2.573   0.681  0.0773 -1.0036  2.1981
  132MOL0     H18177   5.881   2.486   0.544  3.4428  1.0609 -1.0839
  132MOL0     H18178   6.077   2.388   1.319  0.6693  0.6945 -0.1713
  132MOL0     H18179   6.282   2.346   1.416 -0.6774  1.0742 -0.9803
  132MOL0     H18180   6.549   2.334   1.443 -0.5307 -0.7815  0.8846
  132MOL0     H18181   6.460   2.187   1.485 -2.8331  2.3449 -0.9961
  132MOL0     H18182   6.748   2.207   1.393  1.5023  1.3684  2.0839
  132MOL0     H18183   6.696   2.196   1.553  2.4207 -2.6927  0.4997
  132MOL0     H18184   6.617   1.976   1.358 -0.6030  2.5991 -0.7756
  132MOL0     H18185   6.589   1.992   1.538  0.0906 -0.7822 -0.0448
  132MOL0     H18186   6.837   2.000   1.564  0.4332  0.1154 -0.8828
  132MOL0     H18187   6.858   1.964   1.397  0.4622  0.7343  0.7924
  132MOL0     H18188   6.709   1.780   1.607 -0.7750 -0.0441 -0.2808
  132MOL0     H18189   6.713   1.749   1.439  1.2273 -0.6996 -0.2835
  132MOL0     H18190   6.974   1.791   1.608  1.7964 -0.4883 -2.5723
  132MOL0     H18191   6.959   1.750   1.438 -0.3669 -3.7013  0.2931
  132MOL0     H18192   7.041   1.566   1.569 -0.3456 -1.4184 -1.6315
  132MOL0     H18193   6.891   1.521   1.487 -0.8901  0.7369 -0.4035
  132MOL0     H18194   6.872   1.438   1.714  1.5924 -0.0126  2.0841
  132MOL0     H18195   6.767   1.586   1.713  0.0246  0.9779 -1.7258
  132MOL0     H18196   6.430   2.191   1.034 -0.1146 -1.1894  0.2315
  132MOL0     H18197   6.201   2.232   0.942 -0.6406  1.3635 -0.4770
  132MOL0     H18198   5.746   2.329   1.073  0.8358 -0.9538 -0.9694
  132MOL0     H18199   5.516   2.315   0.980 -0.5089  0.7822  0.0951
  132MOL0     H18200   3.529   1.968   0.834  3.6237 -1.0584  0.4796
  132MOL0     H18201   3.328   1.983   0.684 -1.3629 -1.0456 -3.0654
  132MOL0     H18202   3.188   2.258   0.178  2.2561 -1.3109  0.0395
  132MOL0     H18203   2.958   2.265   0.088 -0.5442 -1.4763 -1.2085
  132MOL0     H18204   2.642   2.053   0.281  2.7810 -0.0190  0.4053
  132MOL0     H18205   2.563   2.126   0.143  0.2898 -1.5409 -0.4954
  132MOL0     H18206   2.581   1.867   0.167 -2.3006  2.2384  1.1050
  132MOL0     H18207   2.737   1.890   0.087  0.7552 -0.0349  0.0641
  132MOL0     H18208   2.546   1.839  -0.062 -2.7022  1.0049 -3.3986
  132MOL0     H18209   2.471   1.992  -0.013 -0.4616 -0.8021 -2.0376
  132MOL0     H18210   2.749   2.003  -0.142 -0.4603 -0.5208  0.3292
  132MOL0     H18211   2.632   2.128  -0.094 -0.8426 -0.4797  1.4390
  132MOL0     H18212   2.458   1.986  -0.451  2.3041 -0.1477 -2.0812
  132MOL0     H18213   2.824   1.960   0.336 -0.7505  0.0923  0.0934
  132MOL0     H18214   2.976   1.825   0.477  0.7101  1.2978  1.1076
  132MOL0     H18215   3.137   1.806   0.398 -0.2355  0.6938 -0.8150
  132MOL0     H18216   3.112   1.915   0.538 -1.4812  1.1273  0.6795
  133MOL0     O18217   0.612   6.137  11.130  0.3802  0.3023 -0.0169
  133MOL0     C18218   0.565   6.081  11.033  0.2009 -0.2578  0.1821
  133MOL0     O18219   0.635   6.029  10.922 -0.2776 -0.4174 -0.4738
  133MOL0     C18220   0.764   5.995  10.940  0.5289 -0.4527 -0.1538
  133MOL0     C18221   0.798   5.866  10.907 -0.1983  0.9094  0.1750
  133MOL0     C18222   0.936   5.828  10.906  0.1592 -0.0224  0.1972
  133MOL0     C18223   1.032   5.919  10.952 -0.7892 -0.4408 -0.1542
  133MOL0     O18224   1.153   5.864  10.983  0.4393 -0.1902 -0.0269
  133MOL0     C18225   1.276   5.928  10.959 -0.7267  0.0247  0.5281
  133MOL0     C18226   1.368   5.932  11.076  0.6328 -0.3102  0.1160
  133MOL0     C18227   1.512   5.952  11.038 -0.0429 -0.1463 -1.0584
  133MOL0     C18228   1.611   5.977  11.148 -0.4054 -0.0321  0.1903
  133MOL0     C18229   1.764   6.002  11.110 -0.3313  0.1182 -0.4232
  133MOL0     C18230   1.845   6.025  11.237 -0.2560  0.1082 -0.0381
  133MOL0     C18231   1.996   6.040  11.216 -0.8996 -0.1342 -0.2460
  133MOL0     C18232   2.036   6.145  11.118 -0.0730 -0.0118 -0.0852
  133MOL0     N18233   2.181   6.171  11.132 -0.2307 -0.1161  0.4948
  133MOL0     C18234   2.244   6.285  11.171  0.3959 -0.8066 -0.0368
  133MOL0     C18235   2.380   6.264  11.161 -0.5687 -0.1493  0.2133
  133MOL0     C18236   2.478   6.380  11.191 -0.2336  0.1476 -0.7296
  133MOL0     C18237   2.622   6.334  11.170 -0.1044  0.2143 -0.2724
  133MOL0     C18238   2.720   6.453  11.208  0.6836  0.8000 -0.7183
  133MOL0     C18239   2.718   6.556  11.093  0.2566  0.3399  0.7634
  133MOL0     O18240   2.770   6.494  10.977  0.2491 -0.7468  0.0097
  133MOL0     C18241   2.908   6.478  10.968 -0.2608  0.0910  0.1488
  133MOL0     C18242   2.940   6.379  10.876  1.2800 -0.6867  0.5653
  133MOL0     C18243   3.073   6.372  10.826  0.3760 -0.0092  0.2193
  133MOL0     C18244   3.086   6.268  10.717 -0.8633 -0.1424 -0.6694
  133MOL0     C18245   3.172   6.462  10.880  0.3559  0.6066  0.6374
  133MOL0     C18246   3.310   6.479  10.817  0.4962  0.2162 -0.4605
  133MOL0     O18247   3.333   6.404  10.700 -0.2826 -0.2864 -0.2573
  133MOL0     C18248   3.461   6.399  10.641  0.3644 -0.0439 -0.6633
  133MOL0     C18249   3.472   6.416  10.502 -0.1959  0.2645 -0.2598
  133MOL0     C18250   3.605   6.421  10.451 -0.8981  1.2000  0.0423
  133MOL0     C18251   3.718   6.395  10.524  1.4968  0.6352 -0.1911
  133MOL0     O18252   3.837   6.416  10.459  0.4196  0.0927  0.3824
  133MOL0     C18253   3.942   6.330  10.497 -0.1661  0.0218  0.0277
  133MOL0     C18254   4.053   6.323  10.387 -0.1647  0.8884 -0.0771
  133MOL0     C18255   4.073   6.458  10.309  0.8161  0.0787  0.0673
  133MOL0     C18256   4.215   6.475  10.275 -0.6383  0.8603  0.6071
  133MOL0     C18257   4.256   6.575  10.172  0.6682 -0.1335 -0.6417
  133MOL0     C18258   4.411   6.596  10.192 -0.3925  1.1945  0.1243
  133MOL0     C18259   4.470   6.683  10.078 -0.2462 -0.5238  0.7606
  133MOL0     C18260   4.623   6.719  10.103 -0.4848 -0.0444  0.1927
  133MOL0    Cl18261   4.695   6.787   9.954  0.0694  0.8563 -0.1560
  133MOL0     C18262   3.695   6.359  10.655 -0.4770  0.2963 -0.1192
  133MOL0     C18263   3.574   6.360  10.717  0.1677  0.2958  0.3783
  133MOL0     O18264   3.390   6.553  10.873 -0.2773  0.9883 -0.6695
  133MOL0     C18265   3.141   6.545  10.988  0.5254  0.1838  0.0185
  133MOL0     C18266   3.009   6.555  11.031  0.0497 -0.1549  0.4118
  133MOL0     N18267   2.398   6.132  11.141 -0.0674  0.2466  0.0591
  133MOL0     N18268   2.282   6.084  11.113  0.0695 -0.1557 -0.4609
  133MOL0     C18269   0.995   6.052  10.985 -0.2187  0.8070 -0.3666
  133MOL0     C18270   0.866   6.088  10.979 -0.4317  0.7767  0.4308
  133MOL0     C18271   0.425   6.057  11.029  0.1804 -0.4406  0.1565
  133MOL0     C18272   0.341   6.165  11.019  0.3078  0.4100  0.7752
  133MOL0     C18273   0.204   6.147  10.999  0.1823  0.2947 -0.4104
  133MOL0     C18274   0.148   6.023  11.025  0.4080 -0.4575 -0.1037
  133MOL0     O18275   0.014   6.010  11.004  1.1354  0.4815  0.5541
  133MOL0     C18276  -0.050   5.885  11.045  0.3809 -0.4234 -0.1883
  133MOL0     C18277  -0.200   5.877  11.011 -0.2933 -0.4339 -0.1681
  133MOL0     C18278  -0.288   5.969  11.090  0.0895  0.3545 -0.5634
  133MOL0     C18279  -0.429   5.989  11.041  0.7629 -0.4919 -0.2778
  133MOL0     C18280  -0.506   5.863  11.018  0.0892 -0.2927 -0.6714
  133MOL0     C18281  -0.579   5.767  11.002 -0.0917  0.4631  0.2556
  133MOL0     C18282   0.229   5.912  11.049 -0.7388 -0.1991  0.1962
  133MOL0     C18283   0.375   5.926  11.055  0.3098  0.2347 -0.4518
  133MOL0     C18284   0.475   5.817  11.076  0.3295 -0.3297 -0.4942
  133MOL0     H18285   0.738   5.787  10.863  0.3089  1.6837 -2.0677
  133MOL0     H18286   0.973   5.733  10.868  0.9100  1.7076 -4.0848
  133MOL0     H18287   1.271   6.032  10.925 -1.3786  0.2107  1.1754
  133MOL0     H18288   1.313   5.865  10.877 -2.1433 -1.7564  1.1848
  133MOL0     H18289   1.326   6.014  11.135  0.0536  0.6407 -1.5482
  133MOL0     H18290   1.352   5.848  11.144 -1.0882 -0.7153 -0.7300
  133MOL0     H18291   1.549   5.859  10.992  1.6419 -1.0586  1.8325
  133MOL0     H18292   1.519   6.038  10.971 -1.6819  0.2116 -0.8063
  133MOL0     H18293   1.579   6.059  11.212  0.5788  0.6280 -0.1431
  133MOL0     H18294   1.622   5.884  11.205 -2.2916 -3.2000 -4.0093
  133MOL0     H18295   1.778   6.089  11.045  3.1890 -1.6725 -2.3270
  133MOL0     H18296   1.810   5.913  11.066  0.8614 -0.0835  1.1118
  133MOL0     H18297   1.812   6.114  11.291  2.6407  0.0839  2.0134
  133MOL0     H18298   1.835   5.938  11.303  3.7703 -1.5185 -1.2272
  133MOL0     H18299   2.044   5.947  11.183  0.9735  1.0888 -1.0876
  133MOL0     H18300   2.038   6.055  11.315 -1.7296 -2.0257  0.4545
  133MOL0     H18301   2.016   6.117  11.014 -0.6344  2.0394 -0.5780
  133MOL0     H18302   1.983   6.238  11.140 -2.2419 -1.2957  0.4953
  133MOL0     H18303   2.193   6.376  11.198 -0.6152 -1.3195 -0.1810
  133MOL0     H18304   2.471   6.397  11.299  1.0095 -0.3236 -0.5629
  133MOL0     H18305   2.453   6.472  11.138 -2.4271  0.1743  0.2176
  133MOL0     H18306   2.636   6.251  11.241  0.9559 -0.5617 -1.3349
  133MOL0     H18307   2.648   6.306  11.068  0.1727 -0.2424 -0.0801
  133MOL0     H18308   2.691   6.487  11.308 -0.7071 -2.3388  0.0769
  133MOL0     H18309   2.825   6.425  11.221  0.4148  0.5968  1.3479
  133MOL0     H18310   2.615   6.586  11.071  0.6912  0.7317 -0.8316
  133MOL0     H18311   2.778   6.645  11.114  0.5521  0.8703 -1.9801
  133MOL0     H18312   2.862   6.314  10.838 -1.0218  2.5528 -0.6746
  133MOL0     H18313   3.003   6.197  10.723  0.7786 -2.0866  0.4245
  133MOL0     H18314   3.181   6.216  10.731 -0.6643  0.2716 -0.4424
  133MOL0     H18315   3.082   6.325  10.624  1.0710  1.3593  0.0933
  133MOL0     H18316   3.390   6.440  10.434  1.2621  2.8320 -1.2957
  133MOL0     H18317   3.620   6.449  10.348  2.1422  1.2499  0.4168
  133MOL0     H18318   3.993   6.383  10.578  0.2088 -0.2434 -0.0330
  133MOL0     H18319   3.916   6.227  10.522 -2.9382  1.0386  1.8332
  133MOL0     H18320   4.145   6.281  10.428 -0.2536  2.4242  1.8316
  133MOL0     H18321   4.012   6.251  10.315 -2.7221 -0.8556  2.9114
  133MOL0     H18322   4.044   6.536  10.381  3.7714  1.4040  0.0097
  133MOL0     H18323   4.016   6.461  10.216  2.6271 -1.6636 -1.1746
  133MOL0     H18324   4.254   6.381  10.234  0.6918  2.3155 -1.7342
  133MOL0     H18325   4.267   6.490  10.370 -0.3038  3.5135  0.1079
  133MOL0     H18326   4.241   6.545  10.068 -1.3532 -2.4782  0.2242
  133MOL0     H18327   4.194   6.664  10.188 -1.4744 -1.5197 -0.7560
  133MOL0     H18328   4.459   6.498  10.189 -0.9067  0.9457 -0.1273
  133MOL0     H18329   4.444   6.653  10.280  0.4953 -0.3315  0.8196
  133MOL0     H18330   4.407   6.770  10.055  0.1024 -0.5258 -0.2600
  133MOL0     H18331   4.469   6.621   9.987  1.7639 -1.2951  1.2155
  133MOL0     H18332   4.675   6.627  10.129 -2.1354 -0.6092  1.7001
  133MOL0     H18333   4.635   6.796  10.180  2.1945  0.8676 -1.0003
  133MOL0     H18334   3.785   6.342  10.714 -0.5676 -0.3011 -0.1460
  133MOL0     H18335   3.552   6.352  10.823 -3.9151 -0.6725 -0.3577
  133MOL0     H18336   3.212   6.607  11.042  0.2370  0.3276  0.2344
  133MOL0     H18337   2.985   6.621  11.114 -0.3091  1.3214 -0.8250
  133MOL0     H18338   1.075   6.119  11.016  0.0774  0.1301  0.3678
  133MOL0     H18339   0.846   6.191  11.010  1.1102  0.7851  1.5134
  133MOL0     H18340   0.380   6.265  11.000  0.4335  0.1730 -0.2948
  133MOL0     H18341   0.137   6.231  10.984 -2.3813 -1.5059  0.3960
  133MOL0     H18342  -0.007   5.800  10.991 -0.8166 -0.6876 -0.7709
  133MOL0     H18343  -0.037   5.870  11.153  0.0832  0.9929  0.0610
  133MOL0     H18344  -0.243   5.777  11.017 -1.7588  0.1808  0.1121
  133MOL0     H18345  -0.205   5.898  10.904  3.6032 -3.2288 -1.0915
  133MOL0     H18346  -0.298   5.944  11.196 -0.8572 -2.1849 -1.1768
  133MOL0     H18347  -0.236   6.066  11.085 -1.8003  1.3648 -1.9558
  133MOL0     H18348  -0.428   6.055  10.954 -2.0687  2.3138  1.6250
  133MOL0     H18349  -0.494   6.048  11.106  1.3870 -0.8900  0.7222
  133MOL0     H18350  -0.644   5.683  10.989  2.4113 -1.5372 -0.0526
  133MOL0     H18351   0.182   5.816  11.067 -2.7579  1.0902  2.4701
  133MOL0     H18352   0.550   5.843  11.152  1.2036 -0.2356 -1.3650
  133MOL0     H18353   0.413   5.731  11.100 -0.9781  1.3071  2.5877
  133MOL0     H18354   0.537   5.798  10.988 -0.2447 -0.0737 -0.9651
  134MOL0     O18355   6.235   2.221   3.796 -0.0331  0.0517 -0.0415
  134MOL0     C18356   6.251   2.132   3.705  0.1432  0.8941  0.6274
  134MOL0     O18357   6.374   2.072   3.677  0.0462  0.6039  0.6339
  134MOL0     C18358   6.482   2.100   3.761 -1.1156  0.0412 -0.6456
  134MOL0     C18359   6.614   2.120   3.701  1.1496 -0.1011 -0.5890
  134MOL0     C18360   6.724   2.160   3.777  0.1345 -0.1248  1.1249
  134MOL0     C18361   6.721   2.156   3.917  0.0390  0.3776 -0.2548
  134MOL0     O18362   6.829   2.218   3.979 -0.4039 -0.1702 -0.1463
  134MOL0     C18363   6.959   2.159   3.965  1.2506  0.0102 -0.1317
  134MOL0     C18364   7.058   2.249   3.900  0.0676 -0.6080 -0.4935
  134MOL0     C18365   7.197   2.183   3.900 -0.6129 -0.6003  0.6261
  134MOL0     C18366   7.310   2.278   3.848  0.6741  0.1163 -0.2483
  134MOL0     C18367   7.447   2.219   3.865 -0.2997  0.1294 -0.2016
  134MOL0     C18368   7.554   2.317   3.806 -0.0070 -0.2279  0.0253
  134MOL0     C18369   7.694   2.259   3.849 -0.0998 -0.2236  0.1250
  134MOL0     C18370   7.787   2.362   3.797 -0.1774 -0.5653  0.5853
  134MOL0     N18371   7.926   2.324   3.833 -0.3274 -0.0217 -0.1173
  134MOL0     C18372   7.980   2.200   3.806 -0.0479 -0.6960  0.7974
  134MOL0     C18373   8.092   2.206   3.876  0.2060  0.3545  0.1465
  134MOL0     C18374   8.197   2.098   3.893 -0.0078  0.8452  0.2810
  134MOL0     C18375   8.226   2.016   3.763 -0.6882  0.3005  0.5178
  134MOL0     C18376   8.342   1.913   3.763  0.0202 -0.5455 -0.4512
  134MOL0     C18377   8.366   1.848   3.627 -0.5675 -0.3241 -0.4818
  134MOL0     O18378   8.480   1.753   3.633 -0.5754 -0.5839  0.0781
  134MOL0     C18379   8.608   1.803   3.654  0.0848 -0.1778  0.4494
  134MOL0     C18380   8.691   1.693   3.672 -0.4719 -1.2216 -0.1702
  134MOL0     C18381   8.823   1.715   3.687 -0.6807  0.1717 -0.0215
  134MOL0     C18382   8.910   1.584   3.708 -0.0004  0.2749 -0.4267
  134MOL0     C18383   8.874   1.848   3.677  0.1384 -0.1229 -0.1122
  134MOL0     C18384   9.016   1.875   3.684 -0.2280  0.7831  0.7785
  134MOL0     O18385   9.108   1.768   3.669  0.6136  0.2380  1.0957
  134MOL0     C18386   9.241   1.782   3.658  0.2197 -0.2619  0.2306
  134MOL0     C18387   9.324   1.871   3.730 -0.6784 -0.5586 -0.4892
  134MOL0     C18388   9.463   1.884   3.708  0.8006 -0.4540  0.0971
  134MOL0     C18389   9.524   1.796   3.618  0.1533 -0.6948 -0.1132
  134MOL0     O18390   9.656   1.780   3.613 -0.0563  0.4470  0.5016
  134MOL0     C18391   9.745   1.824   3.716 -1.1718 -1.1516  0.0470
  134MOL0     C18392   9.809   1.955   3.662 -0.0206 -1.5070  0.2423
  134MOL0     C18393   9.872   1.924   3.522  0.5658 -0.3812  0.2406
  134MOL0     C18394   9.947   2.057   3.486  0.8880 -0.4337 -0.7970
  134MOL0     C18395   9.962   2.063   3.332 -0.0402  0.5469 -0.4924
  134MOL0     C18396  10.069   2.172   3.291 -0.2667 -0.1243 -0.3671
  134MOL0     C18397  10.210   2.135   3.337 -0.3364 -0.3437 -0.7071
  134MOL0     C18398  10.312   2.194   3.245 -0.3197 -0.3092 -0.1694
  134MOL0    Cl18399  10.467   2.092   3.236  0.1774  0.2956 -0.2004
  134MOL0     C18400   9.441   1.702   3.549  0.1747  0.3970  0.1944
  134MOL0     C18401   9.298   1.698   3.564 -0.5420 -0.2229 -0.6518
  134MOL0     O18402   9.052   1.995   3.697  0.1449 -0.0229 -0.1915
  134MOL0     C18403   8.787   1.952   3.656 -0.3156  0.0173  0.4408
  134MOL0     C18404   8.653   1.930   3.634 -0.9227  0.7831  0.7721
  134MOL0     N18405   8.104   2.325   3.940 -0.0415 -0.3897 -0.2618
  134MOL0     N18406   7.993   2.391   3.927  0.3728 -0.8060 -0.9676
  134MOL0     C18407   6.600   2.116   3.979  0.3771 -0.7034  1.5273
  134MOL0     C18408   6.480   2.095   3.904  0.5051  1.4226  0.1089
  134MOL0     C18409   6.133   2.077   3.639  0.1036  0.0717 -0.6646
  134MOL0     C18410   6.150   1.948   3.578  1.0012  0.3241  0.1108
  134MOL0     C18411   6.051   1.899   3.492 -0.0160 -0.2788 -0.7826
  134MOL0     C18412   5.941   1.988   3.460  0.2235  0.2249  0.1124
  134MOL0     O18413   5.843   1.960   3.367 -0.8217  0.2626 -0.3664
  134MOL0     C18414   5.782   1.832   3.382 -1.3308 -0.2879 -0.4575
  134MOL0     C18415   5.683   1.809   3.271  0.0673 -0.5000  0.3046
  134MOL0     C18416   5.666   1.664   3.252 -0.1736  0.8698  0.3434
  134MOL0     C18417   5.548   1.626   3.161  0.2766 -0.7270 -0.2664
  134MOL0     C18418   5.420   1.639   3.230 -0.9245 -0.1473 -0.5806
  134MOL0     C18419   5.319   1.641   3.296  0.5107  0.5029 -0.3085
  134MOL0     C18420   5.928   2.111   3.528  0.8647  0.1512  0.2602
  134MOL0     C18421   6.019   2.158   3.624  0.6992  0.6194 -0.0088
  134MOL0     C18422   5.987   2.282   3.696 -0.1969  0.0499  0.0151
  134MOL0     H18423   6.619   2.107   3.593 -0.6940  1.8375 -0.9927
  134MOL0     H18424   6.814   2.195   3.726  1.1307  0.6982  3.3153
  134MOL0     H18425   6.959   2.067   3.905 -0.3573  0.9776 -1.7265
  134MOL0     H18426   6.999   2.137   4.064 -1.5981  1.7617  1.5279
  134MOL0     H18427   7.024   2.266   3.798 -2.3594 -0.3460  0.2968
  134MOL0     H18428   7.060   2.343   3.956 -0.3468 -1.4253  0.9608
  134MOL0     H18429   7.224   2.154   4.002 -1.0725 -0.9059  0.6619
  134MOL0     H18430   7.197   2.093   3.838  1.8992 -0.6934  0.6526
  134MOL0     H18431   7.290   2.297   3.742  0.3372  0.8322 -0.0695
  134MOL0     H18432   7.315   2.376   3.898  2.4431 -0.3988  0.6736
  134MOL0     H18433   7.464   2.122   3.818  1.6646 -0.1007  0.8665
  134MOL0     H18434   7.460   2.210   3.973 -0.7442 -1.5614 -0.2668
  134MOL0     H18435   7.532   2.328   3.699  1.1565  2.1608 -0.0289
  134MOL0     H18436   7.553   2.415   3.855  3.8958 -0.2837  0.5421
  134MOL0     H18437   7.703   2.159   3.806 -2.3294 -0.5093  0.1578
  134MOL0     H18438   7.712   2.256   3.957  0.7723  1.2801  0.0571
  134MOL0     H18439   7.792   2.367   3.687  1.6121  0.8277  0.6916
  134MOL0     H18440   7.771   2.466   3.826  2.4271  0.5320 -1.4672
  134MOL0     H18441   7.946   2.123   3.737 -1.7030  0.7476 -0.0657
  134MOL0     H18442   8.163   2.015   3.955  0.5530 -0.7302 -1.4439
  134MOL0     H18443   8.285   2.140   3.944  0.4130 -0.6145  0.7979
  134MOL0     H18444   8.136   1.960   3.736  1.6130 -2.1652 -2.7007
  134MOL0     H18445   8.236   2.086   3.680 -1.5261 -0.8696 -0.5988
  134MOL0     H18446   8.437   1.963   3.784 -0.5912  0.6870 -0.4927
  134MOL0     H18447   8.312   1.835   3.833  0.2439 -0.2559 -0.0253
  134MOL0     H18448   8.271   1.797   3.610 -0.9593 -0.0352  0.7855
  134MOL0     H18449   8.396   1.914   3.545 -2.7376  0.2913 -0.8303
  134MOL0     H18450   8.642   1.596   3.678 -0.0400 -1.3786  1.3029
  134MOL0     H18451   8.843   1.499   3.722  2.2470 -1.9303 -2.2148
  134MOL0     H18452   8.957   1.593   3.807 -0.6185 -0.8195 -0.0254
  134MOL0     H18453   8.979   1.572   3.624 -0.8095  0.5100 -1.1356
  134MOL0     H18454   9.274   1.936   3.801 -1.7525  0.3522 -2.0065
  134MOL0     H18455   9.508   1.979   3.739 -2.0032  0.3445  2.1923
  134MOL0     H18456   9.702   1.835   3.816 -0.4626  3.1337  0.0928
  134MOL0     H18457   9.832   1.758   3.724 -2.7361 -3.0822  4.4020
  134MOL0     H18458   9.725   2.024   3.654  2.0152  1.1248  0.2915
  134MOL0     H18459   9.875   2.011   3.728 -2.1666  1.6607 -0.0817
  134MOL0     H18460   9.790   1.894   3.456 -0.4912  1.2096  0.7733
  134MOL0     H18461   9.945   1.844   3.533  3.7528  1.7616 -3.0691
  134MOL0     H18462  10.045   2.062   3.534  0.2070 -0.4241  0.6414
  134MOL0     H18463   9.898   2.146   3.526  1.0043  0.1113 -1.8282
  134MOL0     H18464   9.996   1.965   3.297 -0.7200  1.7095 -4.9481
  134MOL0     H18465   9.861   2.076   3.293 -2.1896 -2.3362  3.4304
  134MOL0     H18466  10.037   2.264   3.340 -2.9978 -1.8803  1.4481
  134MOL0     H18467  10.065   2.184   3.182 -1.8525  1.2099 -0.1937
  134MOL0     H18468  10.222   2.026   3.338  0.5302 -0.3103  2.3755
  134MOL0     H18469  10.229   2.169   3.439  2.5661 -0.5606 -1.0987
  134MOL0     H18470  10.328   2.299   3.274  1.3130 -0.1384 -1.5538
  134MOL0     H18471  10.272   2.208   3.145  2.3318  1.7413 -1.0582
  134MOL0     H18472   9.482   1.630   3.479 -4.7985 -0.4175 -2.3086
  134MOL0     H18473   9.233   1.631   3.509 -0.3368 -1.6037  0.7287
  134MOL0     H18474   8.823   2.053   3.645  1.7040 -0.6274  0.8428
  134MOL0     H18475   8.588   2.003   3.587 -3.6056 -2.6874 -1.3858
  134MOL0     H18476   6.603   2.125   4.087 -0.3775  0.5924  1.4555
  134MOL0     H18477   6.390   2.072   3.960  1.0092  0.5302  0.5750
  134MOL0     H18478   6.238   1.886   3.593  0.4596 -1.0632 -1.9912
  134MOL0     H18479   6.062   1.807   3.435  1.2278 -0.5494 -0.1449
  134MOL0     H18480   5.860   1.757   3.368 -0.2935  0.8026 -0.7623
  134MOL0     H18481   5.737   1.820   3.481 -0.2374  0.4998  0.1672
  134MOL0     H18482   5.721   1.867   3.187 -0.8033  3.5585  2.4077
  134MOL0     H18483   5.590   1.856   3.306  0.1409 -0.0911 -0.0360
  134MOL0     H18484   5.757   1.616   3.216  0.4571  0.1564  2.6840
  134MOL0     H18485   5.646   1.627   3.353 -2.4615  0.2058 -0.2948
  134MOL0     H18486   5.555   1.524   3.123 -0.2914 -1.5787  1.7574
  134MOL0     H18487   5.549   1.698   3.079  0.2386 -0.7940 -0.3252
  134MOL0     H18488   5.225   1.621   3.345  0.9521  0.3615  0.4947
  134MOL0     H18489   5.836   2.167   3.514  1.2112  0.4626 -0.9221
  134MOL0     H18490   5.888   2.328   3.686  0.0195  0.2643 -1.3150
  134MOL0     H18491   5.991   2.268   3.804 -2.1336 -0.6848  0.0365
  134MOL0     H18492   6.064   2.357   3.675 -0.4719 -0.4978 -3.6662
  135MOL0     O18493   4.087   9.628  10.623 -0.6001  0.4727  0.1781
  135MOL0     C18494   4.054   9.507  10.642  0.2469 -0.4769  0.7722
  135MOL0     O18495   4.088   9.434  10.751  0.2616 -0.7544 -0.1155
  135MOL0     C18496   4.164   9.494  10.842 -0.4081  0.9721 -0.6859
  135MOL0     C18497   4.302   9.482  10.840  0.9557  0.3325  0.6930
  135MOL0     C18498   4.383   9.532  10.938 -0.3391  0.7424 -1.0211
  135MOL0     C18499   4.334   9.608  11.045  0.9071 -0.1310  0.0553
  135MOL0     O18500   4.404   9.658  11.152 -0.4711 -0.1708  0.1516
  135MOL0     C18501   4.542   9.690  11.128  0.2696 -0.0721  0.1097
  135MOL0     C18502   4.596   9.749  11.249  0.7522 -0.9404 -1.1519
  135MOL0     C18503   4.630   9.650  11.359  0.6107  0.7706  0.3663
  135MOL0     C18504   4.663   9.714  11.497  0.4523 -0.3124 -0.5528
  135MOL0     C18505   4.816   9.741  11.506 -0.1572  0.5970  1.0043
  135MOL0     C18506   4.857   9.786  11.644  1.4732 -2.1374  0.3449
  135MOL0     C18507   4.833   9.947  11.665 -0.0836  0.2514 -0.0852
  135MOL0     C18508   4.910  10.034  11.571 -0.2855 -0.5825  0.2215
  135MOL0     N18509   5.050  10.001  11.575  0.5578 -0.0826 -0.0242
  135MOL0     C18510   5.120   9.981  11.457  0.4360 -0.1356 -0.0413
  135MOL0     C18511   5.250   9.974  11.501  0.8323  0.2547 -0.2189
  135MOL0     C18512   5.363   9.977  11.401 -1.4712 -0.9436 -0.2048
  135MOL0     C18513   5.505   9.992  11.468  0.6076 -0.7474  0.0878
  135MOL0     C18514   5.619  10.007  11.364 -0.2563  0.3173  0.5499
  135MOL0     C18515   5.752  10.045  11.437 -0.1863  0.3932  0.1288
  135MOL0     O18516   5.767   9.962  11.555  0.3625  0.1522 -0.2914
  135MOL0     C18517   5.893   9.954  11.612  0.2353  0.1822  0.5889
  135MOL0     C18518   5.897   9.914  11.739  0.2021  0.2356 -0.3249
  135MOL0     C18519   6.012   9.901  11.813 -0.0189 -0.8040  0.8125
  135MOL0     C18520   6.003   9.856  11.951  1.0475 -0.7396  0.6477
  135MOL0     C18521   6.132   9.911  11.747 -1.1627 -0.4855  0.1907
  135MOL0     C18522   6.263   9.889  11.814  0.0535 -0.0594 -0.4959
  135MOL0     O18523   6.367   9.980  11.782  0.4392 -0.9398  0.5943
  135MOL0     C18524   6.477   9.961  11.859  0.1606  0.5513  0.9060
  135MOL0     C18525   6.479   9.997  11.996 -0.0078  0.1529  0.4161
  135MOL0     C18526   6.607   9.976  12.063  0.6853  0.3317 -0.0155
  135MOL0     C18527   6.730   9.951  11.997  0.1540  0.2602  0.1193
  135MOL0     O18528   6.847   9.947  12.067 -0.6721 -0.0471 -0.5117
  135MOL0     C18529   6.959  10.025  12.022  0.1331 -1.1584  0.6589
  135MOL0     C18530   7.050  10.046  12.142 -0.5674 -0.6914  0.6220
  135MOL0     C18531   7.188  10.107  12.095  0.0077  0.4876  0.5297
  135MOL0     C18532   7.294  10.085  12.198  0.9215  0.1243  0.5015
  135MOL0     C18533   7.429  10.122  12.146  0.2456  0.4034 -0.2169
  135MOL0     C18534   7.538  10.116  12.250 -0.5394  0.0788 -0.2189
  135MOL0     C18535   7.678  10.138  12.196 -0.8396  0.3833 -0.4866
  135MOL0     C18536   7.792  10.122  12.284 -0.3162 -0.0986 -0.3650
  135MOL0    Cl18537   7.928  10.194  12.196  0.3381 -0.2476 -0.1100
  135MOL0     C18538   6.724   9.923  11.859  0.3946  0.1388 -0.3751
  135MOL0     C18539   6.595   9.918  11.798  0.1924  0.0371  0.0825
  135MOL0     O18540   6.276   9.793  11.895 -0.6308 -0.7510  0.7347
  135MOL0     C18541   6.136   9.974  11.612 -0.4528 -0.1821 -0.6429
  135MOL0     C18542   6.011   9.989  11.549 -0.0281 -0.1696 -0.1164
  135MOL0     N18543   5.250   9.981  11.643 -0.1258 -0.3401 -0.8607
  135MOL0     N18544   5.130   9.997  11.683  0.5419 -0.3179  0.6211
  135MOL0     C18545   4.189   9.619  11.053  0.4393  0.5245  0.4691
  135MOL0     C18546   4.105   9.567  10.948 -0.9923 -0.3073 -0.7436
  135MOL0     C18547   3.966   9.444  10.543 -0.6135 -0.8281 -0.2146
  135MOL0     C18548   3.965   9.305  10.531  0.4684  0.5506  0.1526
  135MOL0     C18549   3.868   9.245  10.451  0.5140 -0.4522 -0.6273
  135MOL0     C18550   3.757   9.313  10.396 -1.2340 -0.4177  0.4140
  135MOL0     O18551   3.680   9.233  10.319  0.6742 -0.0736  0.2462
  135MOL0     C18552   3.555   9.300  10.286 -0.2398 -1.0097 -0.3069
  135MOL0     C18553   3.456   9.188  10.257  0.1366 -0.2316  0.3051
  135MOL0     C18554   3.317   9.243  10.205  0.0775 -0.1690  0.5091
  135MOL0     C18555   3.207   9.137  10.183 -0.6683  0.5493 -0.8276
  135MOL0     C18556   3.079   9.195  10.147 -0.0347 -0.3124 -0.2282
  135MOL0     C18557   2.983   9.248  10.119  0.7499 -0.0857 -0.7604
  135MOL0     C18558   3.762   9.446  10.418  0.6271  0.0343  0.6861
  135MOL0     C18559   3.862   9.517  10.480 -0.2677 -0.4487 -0.2789
  135MOL0     C18560   3.837   9.659  10.498 -0.6500  0.7955  0.7562
  135MOL0     H18561   4.341   9.421  10.760  0.2196 -0.2035  0.7274
  135MOL0     H18562   4.491   9.521  10.928 -0.2483 -1.7139  1.4792
  135MOL0     H18563   4.546   9.765  11.050  1.1793 -2.2128 -2.0297
  135MOL0     H18564   4.609   9.604  11.121  2.6551  1.4833  2.1321
  135MOL0     H18565   4.686   9.807  11.228 -0.1400  0.7410 -0.5032
  135MOL0     H18566   4.518   9.810  11.296  0.6319 -1.3780 -0.7738
  135MOL0     H18567   4.539   9.591  11.370 -0.0582  0.1010 -5.4964
  135MOL0     H18568   4.712   9.586  11.327 -1.5185 -1.2137 -1.4741
  135MOL0     H18569   4.610   9.809  11.509 -1.9623 -1.7852  1.7237
  135MOL0     H18570   4.628   9.649  11.578  0.8393 -1.4543 -1.2716
  135MOL0     H18571   4.845   9.816  11.432  2.7377 -1.4436 -0.1176
  135MOL0     H18572   4.880   9.660  11.469 -0.1737  1.0308 -0.0405
  135MOL0     H18573   4.796   9.738  11.722 -4.3837  2.9915 -0.3261
  135MOL0     H18574   4.966   9.775  11.648  1.7253  0.0622  0.7124
  135MOL0     H18575   4.855   9.971  11.770 -3.4245  2.4981  0.2421
  135MOL0     H18576   4.727   9.968  11.650  0.0716  1.4448  0.3443
  135MOL0     H18577   4.879  10.041  11.466 -0.3101 -1.8696  0.1289
  135MOL0     H18578   4.898  10.135  11.612 -0.4497 -0.0606 -1.0647
  135MOL0     H18579   5.091   9.989  11.353  0.6058  0.1965 -0.0636
  135MOL0     H18580   5.355  10.062  11.333  2.5246  1.2054  1.6421
  135MOL0     H18581   5.356   9.886  11.340 -1.3491  1.0531 -3.4452
  135MOL0     H18582   5.506  10.084  11.526 -2.3415  1.1078 -2.4971
  135MOL0     H18583   5.528   9.902  11.526  0.5620 -1.1002 -0.4344
  135MOL0     H18584   5.647   9.912  11.319  3.0045  0.7215  1.4733
  135MOL0     H18585   5.592  10.072  11.280  1.7755 -1.1560 -1.3440
  135MOL0     H18586   5.836  10.024  11.370 -0.5872  0.6317 -0.4595
  135MOL0     H18587   5.758  10.152  11.458  2.5879  0.1335  1.1025
  135MOL0     H18588   5.801   9.886  11.782  0.3315 -1.0860 -0.8620
  135MOL0     H18589   6.080   9.910  12.008 -0.8334  1.0474  1.5887
  135MOL0     H18590   6.005   9.747  11.964 -2.4103 -0.8743  0.7819
  135MOL0     H18591   5.904   9.878  11.990  0.3330  0.0451 -1.5055
  135MOL0     H18592   6.388  10.035  12.041 -0.7834 -0.3023 -0.7126
  135MOL0     H18593   6.601   9.980  12.171 -2.8654 -0.3359 -0.0518
  135MOL0     H18594   7.011   9.966  11.946  1.1879 -1.6670  1.7539
  135MOL0     H18595   6.927  10.123  11.986 -3.7509 -2.0570  1.2023
  135MOL0     H18596   7.014  10.125  12.208  0.7843  0.1590  0.3829
  135MOL0     H18597   7.066   9.956  12.202  2.3847  1.6116  3.7083
  135MOL0     H18598   7.179  10.215  12.080  0.5824  0.1534 -3.0865
  135MOL0     H18599   7.211  10.059  11.999 -2.4875  0.2823 -0.0310
  135MOL0     H18600   7.285   9.980  12.227  1.2504  0.1068  0.5407
  135MOL0     H18601   7.272  10.144  12.288  2.1589 -0.2072  1.0483
  135MOL0     H18602   7.453  10.058  12.060 -0.1187 -0.2213  0.1379
  135MOL0     H18603   7.431  10.225  12.110 -0.1874  0.2094 -0.8266
  135MOL0     H18604   7.534  10.018  12.297 -2.4087 -0.9309 -2.3156
  135MOL0     H18605   7.504  10.192  12.322 -4.3096  1.0538 -2.7259
  135MOL0     H18606   7.676  10.236  12.149 -1.6220  1.0879  0.9786
  135MOL0     H18607   7.695  10.071  12.111 -0.2511 -0.0796 -0.0159
  135MOL0     H18608   7.813  10.018  12.308  3.8065  0.7859  0.6942
  135MOL0     H18609   7.776  10.175  12.378 -0.3324 -0.8713  0.0744
  135MOL0     H18610   6.807   9.898  11.793  0.4171  0.5543 -0.5126
  135MOL0     H18611   6.588   9.885  11.695 -2.3166 -0.4120  0.3300
  135MOL0     H18612   6.227  10.013  11.567 -0.5653  1.5863  0.5339
  135MOL0     H18613   6.018  10.021  11.446  1.2656  2.3940  0.6802
  135MOL0     H18614   4.138   9.679  11.127 -0.8161 -0.0067  0.0669
  135MOL0     H18615   3.997   9.575  10.961 -1.3621 -1.9494 -2.3012
  135MOL0     H18616   4.049   9.253  10.576 -0.6079 -0.5171  0.9889
  135MOL0     H18617   3.867   9.138  10.433 -2.6892 -0.1109 -3.4684
  135MOL0     H18618   3.513   9.360  10.368 -1.3186 -1.2614 -0.6607
  135MOL0     H18619   3.550   9.368  10.201 -1.7288 -0.2073  0.3782
  135MOL0     H18620   3.434   9.135  10.350 -0.5186 -1.2904 -0.4378
  135MOL0     H18621   3.495   9.112  10.189 -0.0140 -0.3156  0.3127
  135MOL0     H18622   3.279   9.312  10.281 -0.0901 -0.8172  1.0167
  135MOL0     H18623   3.328   9.307  10.117 -0.9967  1.6794  1.6387
  135MOL0     H18624   3.199   9.071  10.270  0.5015 -0.6044 -1.5410
  135MOL0     H18625   3.236   9.062  10.108 -3.3958 -0.2026 -1.2215
  135MOL0     H18626   2.905   9.319  10.099 -0.4147 -0.4336  2.1523
  135MOL0     H18627   3.682   9.503  10.373  1.4362 -0.7537 -1.9615
  135MOL0     H18628   3.791   9.693  10.591  0.1216  1.8182  0.7787
  135MOL0     H18629   3.934   9.700  10.468 -0.5446 -1.4778 -2.5772
  135MOL0     H18630   3.773   9.693  10.416  1.1135 -0.8942 -1.4428
  136MOL0     O18631   5.698  10.651   1.994 -0.0404  0.2982 -0.2770
  136MOL0     C18632   5.616  10.625   2.078  0.1915 -0.6787  0.0564
  136MOL0     O18633   5.617  10.520   2.146 -0.4584  0.2881 -0.2810
  136MOL0     C18634   5.728  10.440   2.146 -0.2803 -0.2622 -1.0659
  136MOL0     C18635   5.724  10.320   2.089 -0.1929  0.0385 -0.0539
  136MOL0     C18636   5.842  10.241   2.092  0.2809 -0.4666 -0.4067
  136MOL0     C18637   5.960  10.287   2.147  0.1119  0.6193  0.1335
  136MOL0     O18638   6.060  10.199   2.152 -0.0727  0.6575  0.3771
  136MOL0     C18639   6.193  10.243   2.177 -0.0222  0.6074 -0.2535
  136MOL0     C18640   6.283  10.117   2.178  0.8974  0.4151 -0.2143
  136MOL0     C18641   6.431  10.154   2.181  0.5825  0.4328  0.3772
  136MOL0     C18642   6.516  10.030   2.204  0.3691  0.0872 -0.6835
  136MOL0     C18643   6.668  10.053   2.188  0.4001  0.4735 -0.2012
  136MOL0     C18644   6.743   9.939   2.242 -0.3491 -0.2744  0.5598
  136MOL0     C18645   6.896   9.988   2.256  0.3295  0.3553 -0.6377
  136MOL0     C18646   6.978   9.975   2.130 -0.2278  0.5826  0.1315
  136MOL0     N18647   7.096  10.049   2.131  0.2506  0.0868 -0.6356
  136MOL0     C18648   7.221  10.007   2.177  0.4710 -0.2210  0.3007
  136MOL0     C18649   7.315  10.104   2.167 -0.1109 -0.0727  0.1985
  136MOL0     C18650   7.468  10.079   2.175  1.0825  0.4778  0.2906
  136MOL0     C18651   7.527  10.022   2.049  0.5081 -0.7683  0.4639
  136MOL0     C18652   7.495  10.096   1.922 -0.3375 -0.5112 -0.3850
  136MOL0     C18653   7.574  10.053   1.799  0.6802 -0.1256 -0.0335
  136MOL0     O18654   7.708  10.111   1.798  0.5623  0.2536 -0.0295
  136MOL0     C18655   7.787  10.066   1.694 -0.6575  0.8455  0.5320
  136MOL0     C18656   7.771   9.946   1.623 -0.2952 -0.5809  0.1183
  136MOL0     C18657   7.868   9.894   1.533  0.4419 -0.8468  0.7460
  136MOL0     C18658   7.845   9.749   1.473  0.5381 -1.1483  0.8824
  136MOL0     C18659   7.993   9.967   1.513 -0.1522  0.6196  0.0887
  136MOL0     C18660   8.116   9.908   1.443 -0.6859 -0.4651 -0.1577
  136MOL0     O18661   8.237   9.964   1.476  0.0949  0.4167 -0.8310
  136MOL0     C18662   8.347   9.951   1.394 -0.6276 -0.9854  0.0077
  136MOL0     C18663   8.350   9.938   1.251  0.0150  0.6378 -0.3592
  136MOL0     C18664   8.469   9.932   1.183  0.7132  1.1702  0.3663
  136MOL0     C18665   8.591   9.930   1.250 -0.0845  0.3869 -0.3901
  136MOL0     O18666   8.713   9.919   1.190  0.4088 -0.5336  0.2352
  136MOL0     C18667   8.720   9.910   1.053 -0.4189 -0.2570  0.1504
  136MOL0     C18668   8.866   9.890   1.011  0.1362  1.1185 -0.0873
  136MOL0     C18669   8.885   9.917   0.860 -0.2136  0.2744 -0.7326
  136MOL0     C18670   9.030   9.920   0.817  0.2867 -0.4643 -0.7512
  136MOL0     C18671   9.033   9.940   0.662 -0.3420 -0.5634 -0.1689
  136MOL0     C18672   9.174   9.953   0.598 -0.4480  0.0967 -0.3555
  136MOL0     C18673   9.263  10.051   0.682  0.8339  0.5430  0.9933
  136MOL0     C18674   9.223  10.200   0.679 -0.0297  0.9997 -0.1760
  136MOL0    Cl18675   9.242  10.282   0.517 -0.0146  0.6091  0.0955
  136MOL0     C18676   8.592   9.942   1.389 -0.5086 -0.5704  1.2492
  136MOL0     C18677   8.474   9.943   1.456 -0.7955 -0.5173 -0.2339
  136MOL0     O18678   8.110   9.815   1.366 -0.3099  0.7124 -0.7983
  136MOL0     C18679   7.996  10.094   1.572  0.1457 -0.4350 -0.1198
  136MOL0     C18680   7.895  10.146   1.661  0.4513 -0.6578 -0.0066
  136MOL0     N18681   7.243  10.206   2.104  0.5468  0.5122  0.2579
  136MOL0     N18682   7.121  10.177   2.084 -0.2349  0.6354 -0.1853
  136MOL0     C18683   5.963  10.413   2.214 -0.0314  0.5046  1.2038
  136MOL0     C18684   5.848  10.487   2.204 -0.5509 -0.1710 -0.0201
  136MOL0     C18685   5.488  10.713   2.073  0.4366  0.3134  0.5135
  136MOL0     C18686   5.466  10.805   1.969  0.0778  0.4702  0.6536
  136MOL0     C18687   5.353  10.881   1.958 -0.0537 -0.0926  0.5473
  136MOL0     C18688   5.258  10.877   2.052  0.2044  0.0102  0.0221
  136MOL0     O18689   5.139  10.956   2.062 -0.0580 -0.0303  0.1660
  136MOL0     C18690   5.093  11.027   1.944 -0.6879 -0.7075  0.5791
  136MOL0     C18691   5.037  10.938   1.831 -0.0041 -0.1189  0.2090
  136MOL0     C18692   4.979  11.024   1.721  0.5546  0.5837  0.9339
  136MOL0     C18693   4.885  10.935   1.639 -0.1984 -0.4727 -0.5082
  136MOL0     C18694   4.771  11.013   1.579  0.5172 -0.2082  0.1608
  136MOL0     C18695   4.687  11.076   1.516 -0.1453 -0.2575 -0.1117
  136MOL0     C18696   5.273  10.778   2.151  1.4533 -0.8047 -0.2947
  136MOL0     C18697   5.387  10.699   2.169 -0.6329  0.7087 -0.7203
  136MOL0     C18698   5.391  10.606   2.287  0.1011 -0.1406 -0.5009
  136MOL0     H18699   5.632  10.283   2.044 -0.6182  0.8665  0.1131
  136MOL0     H18700   5.826  10.150   2.035 -1.3511 -1.2838  1.2480
  136MOL0     H18701   6.206  10.296   2.272 -0.8437 -1.0865  0.8622
  136MOL0     H18702   6.222  10.306   2.093 -1.3306 -0.8993 -1.8985
  136MOL0     H18703   6.259  10.054   2.263 -3.5926 -0.2927 -1.7553
  136MOL0     H18704   6.265  10.060   2.086 -0.2807  1.8514 -0.9129
  136MOL0     H18705   6.458  10.202   2.086  2.7679  0.3474  0.8937
  136MOL0     H18706   6.455  10.216   2.268  1.2304  0.9669 -0.1710
  136MOL0     H18707   6.502   9.997   2.307  0.2522  0.5012 -0.5655
  136MOL0     H18708   6.483   9.947   2.142 -0.7939 -0.7616  0.9862
  136MOL0     H18709   6.698  10.141   2.246  0.9819 -0.2271  0.5849
  136MOL0     H18710   6.683  10.082   2.083  1.0741  1.1673  0.0806
  136MOL0     H18711   6.713   9.912   2.344 -1.1678 -1.1261  0.1068
  136MOL0     H18712   6.735   9.847   2.184  1.4683 -1.0189  1.4228
  136MOL0     H18713   6.946   9.936   2.338 -0.3114 -1.3778 -1.2887
  136MOL0     H18714   6.898  10.093   2.284  0.7253 -0.0974  1.1117
  136MOL0     H18715   6.985   9.871   2.096  0.1419  1.0676 -1.3422
  136MOL0     H18716   6.925  10.025   2.049  3.3920 -0.9237 -3.5321
  136MOL0     H18717   7.246   9.912   2.224 -0.0335 -0.9441 -0.8750
  136MOL0     H18718   7.502  10.015   2.257  0.4707 -1.9731 -1.2599
  136MOL0     H18719   7.517  10.177   2.186  0.5072  1.1059 -2.0910
  136MOL0     H18720   7.634  10.008   2.065  0.4265 -1.5784  0.3363
  136MOL0     H18721   7.481   9.923   2.042 -0.6961 -0.1641 -0.5112
  136MOL0     H18722   7.387  10.092   1.904 -0.4278  1.2891 -0.4735
  136MOL0     H18723   7.526  10.201   1.933  0.7154 -0.6469 -1.8818
  136MOL0     H18724   7.577   9.943   1.799 -1.4520 -0.2138  0.0602
  136MOL0     H18725   7.513  10.083   1.714 -0.2725  2.3753  1.4181
  136MOL0     H18726   7.687   9.879   1.640 -0.0619 -1.7885 -2.8694
  136MOL0     H18727   7.877   9.738   1.369  0.0198  2.3644  0.2363
  136MOL0     H18728   7.739   9.720   1.467 -0.1329  1.3862 -1.3664
  136MOL0     H18729   7.912   9.686   1.533  1.6500 -1.7501 -0.9193
  136MOL0     H18730   8.266   9.954   1.184  1.1843 -1.2533 -2.4369
  136MOL0     H18731   8.466   9.945   1.076  1.4747  0.9145  0.3072
  136MOL0     H18732   8.661   9.823   1.020 -0.6495 -0.5894  1.3887
  136MOL0     H18733   8.677  10.004   1.016 -0.0874  0.8201  2.3514
  136MOL0     H18734   8.933   9.964   1.057  0.0723  0.5221  0.9883
  136MOL0     H18735   8.891   9.786   1.030 -1.1167  0.3793 -2.1393
  136MOL0     H18736   8.839  10.011   0.828  1.0679  0.3379 -2.4745
  136MOL0     H18737   8.839   9.832   0.808  1.0117 -1.0393  0.2496
  136MOL0     H18738   9.077   9.823   0.833 -0.8661 -0.9045  0.0706
  136MOL0     H18739   9.078  10.003   0.870  1.0121 -1.1072 -0.3808
  136MOL0     H18740   8.974   9.863   0.612 -0.9409 -0.9360  1.0751
  136MOL0     H18741   8.980  10.033   0.642  3.5319  2.2824  1.3831
  136MOL0     H18742   9.161   9.982   0.494 -1.4991 -1.2971 -0.6398
  136MOL0     H18743   9.219   9.853   0.598  0.9224  0.6871 -0.3059
  136MOL0     H18744   9.365  10.032   0.646  0.1252 -4.1475  0.8263
  136MOL0     H18745   9.273  10.019   0.786  0.7603 -1.9973  0.2916
  136MOL0     H18746   9.274  10.258   0.756 -0.3034  1.6006 -0.4423
  136MOL0     H18747   9.115  10.204   0.696 -0.1554 -0.5192 -0.4817
  136MOL0     H18748   8.689   9.942   1.439  0.1828 -0.1592 -0.0558
  136MOL0     H18749   8.465   9.949   1.564 -4.2189 -1.0941 -0.3900
  136MOL0     H18750   8.080  10.159   1.548  1.0703 -0.0067  3.6065
  136MOL0     H18751   7.902  10.240   1.715  0.3735 -2.0015  2.5218
  136MOL0     H18752   6.050  10.448   2.268  1.2256 -1.0572  0.2765
  136MOL0     H18753   5.833  10.577   2.263  1.4033  0.4509 -0.4120
  136MOL0     H18754   5.525  10.805   1.877  2.4025 -0.2843  2.0743
  136MOL0     H18755   5.348  10.945   1.871  3.8237 -0.4083 -0.1060
  136MOL0     H18756   5.015  11.091   1.986 -1.7923 -3.6307  3.4924
  136MOL0     H18757   5.173  11.090   1.906 -0.9126 -0.3369  0.7108
  136MOL0     H18758   4.974  10.859   1.872 -0.3517  0.0014 -0.0911
  136MOL0     H18759   5.116  10.875   1.789 -0.0766 -0.6486  0.8580
  136MOL0     H18760   4.919  11.105   1.763  1.2327  0.4898  2.1243
  136MOL0     H18761   5.060  11.062   1.659  1.2247 -1.3838  0.5214
  136MOL0     H18762   4.844  10.855   1.702  1.2054  0.3993  1.6444
  136MOL0     H18763   4.942  10.881   1.563  2.3020 -0.0855  0.9832
  136MOL0     H18764   4.623  11.136   1.454  0.9675  0.0697 -0.9642
  136MOL0     H18765   5.202  10.776   2.234  1.3739  0.2738 -0.3325
  136MOL0     H18766   5.381  10.501   2.259  1.0392 -0.6710  1.0014
  136MOL0     H18767   5.486  10.630   2.336  0.1299  2.4996 -1.6721
  136MOL0     H18768   5.309  10.627   2.355 -1.8498 -0.2539 -2.7017
  137MOL0     O18769   7.379   3.202   0.344  0.8450 -0.4167  0.6753
  137MOL0     C18770   7.381   3.080   0.314 -0.0092 -0.4237 -0.2439
  137MOL0     O18771   7.496   2.994   0.303 -0.1195 -0.2138 -0.0577
  137MOL0     C18772   7.625   3.034   0.291  0.1508 -0.5060 -0.1747
  137MOL0     C18773   7.728   2.935   0.283 -0.1207  0.0928 -0.5967
  137MOL0     C18774   7.857   2.968   0.259 -0.1469  0.0700 -0.2801
  137MOL0     C18775   7.898   3.102   0.254  0.0304 -0.2056 -0.1803
  137MOL0     O18776   8.029   3.143   0.243 -0.5407 -0.0596 -0.4524
  137MOL0     C18777   8.125   3.042   0.264 -0.8043 -0.3732  0.2215
  137MOL0     C18778   8.246   3.110   0.319 -0.5201  0.3477 -0.8436
  137MOL0     C18779   8.347   3.000   0.375 -0.0024 -0.1171  0.2029
  137MOL0     C18780   8.487   3.058   0.382  0.1400  0.4933 -0.6163
  137MOL0     C18781   8.584   2.955   0.447 -0.5063  0.0112 -0.3809
  137MOL0     C18782   8.712   3.032   0.493  0.2094 -0.2110 -0.2685
  137MOL0     C18783   8.794   3.107   0.391 -0.8046 -0.5927 -0.2519
  137MOL0     C18784   8.793   3.050   0.243 -0.4694  0.1572 -0.1060
  137MOL0     N18785   8.873   2.931   0.222  0.1480  0.4537 -1.2853
  137MOL0     C18786   8.982   2.930   0.135  0.2067 -0.0299  0.9603
  137MOL0     C18787   9.019   2.798   0.134 -0.3630  0.6178  0.7348
  137MOL0     C18788   9.139   2.747   0.051  0.4290 -0.9458 -1.3702
  137MOL0     C18789   9.269   2.746   0.141 -0.5295 -0.6396 -0.1576
  137MOL0     C18790   9.296   2.886   0.204 -0.5708 -0.3970  0.6635
  137MOL0     C18791   9.443   2.898   0.252 -0.4027 -0.0322  0.0660
  137MOL0     O18792   9.463   3.016   0.333  0.6654 -0.6344 -0.7198
  137MOL0     C18793   9.593   3.050   0.368  0.4208 -0.7003  0.3436
  137MOL0     C18794   9.700   2.997   0.316  0.5792 -0.3849  0.3173
  137MOL0     C18795   9.831   3.030   0.356  0.7460 -0.9296  0.3895
  137MOL0     C18796   9.951   2.972   0.286 -0.5000  0.4868  0.0805
  137MOL0     C18797   9.849   3.139   0.444  0.4089  0.4144 -0.7954
  137MOL0     C18798   9.983   3.184   0.493 -0.1310 -0.6188 -0.1102
  137MOL0     O18799   9.997   3.220   0.627 -0.0792 -0.5027 -0.3774
  137MOL0     C18800  10.122   3.265   0.661 -1.2575  0.8366  0.1446
  137MOL0     C18801  10.139   3.399   0.700 -0.1314  0.0381 -0.6200
  137MOL0     C18802  10.271   3.441   0.737  0.6773  0.0897 -0.6533
  137MOL0     C18803  10.382   3.368   0.709  0.2271  0.0235 -0.1094
  137MOL0     O18804  10.501   3.432   0.740  1.0764  0.2496 -0.4244
  137MOL0     C18805  10.620   3.359   0.709  0.4271  0.3321  0.9048
  137MOL0     C18806  10.741   3.445   0.745 -0.0254  0.2733 -0.1097
  137MOL0     C18807  10.888   3.390   0.734 -0.2031 -0.0484  0.2282
  137MOL0     C18808  10.907   3.244   0.785  0.5119 -0.2712 -0.0630
  137MOL0     C18809  11.046   3.193   0.739  0.0512 -0.6153  0.0704
  137MOL0     C18810  11.043   3.166   0.594  0.2370  0.1184  0.4655
  137MOL0     C18811  11.178   3.127   0.546 -0.0679 -0.5155 -1.4446
  137MOL0     C18812  11.200   3.129   0.388  0.0085  0.1654  0.0992
  137MOL0    Cl18813  11.378   3.113   0.354  0.4039  0.3695 -0.0922
  137MOL0     C18814  10.365   3.241   0.657 -0.4641 -0.1433 -0.0061
  137MOL0     C18815  10.236   3.187   0.644 -0.1085 -0.3929 -1.1076
  137MOL0     O18816  10.064   3.213   0.405 -0.5249  0.4490 -0.2513
  137MOL0     C18817   9.737   3.180   0.517 -0.4840  0.2337 -0.0514
  137MOL0     C18818   9.602   3.139   0.475  0.3505 -0.8579  0.7351
  137MOL0     N18819   8.928   2.726   0.209  0.0507 -0.5122  0.3943
  137MOL0     N18820   8.850   2.807   0.269 -0.4738 -0.3559 -0.1514
  137MOL0     C18821   7.805   3.202   0.271 -0.5276  0.8064  0.8057
  137MOL0     C18822   7.670   3.170   0.287 -0.5139 -0.4298 -0.3595
  137MOL0     C18823   7.244   3.015   0.317 -0.5918  0.0598  0.0924
  137MOL0     C18824   7.237   2.878   0.328 -0.4340 -0.3556 -0.5772
  137MOL0     C18825   7.128   2.795   0.315  0.5033  0.3300 -0.2007
  137MOL0     C18826   6.998   2.847   0.314  1.0333  0.8702 -0.4511
  137MOL0     O18827   6.880   2.782   0.282  0.2259 -0.1808 -0.0237
  137MOL0     C18828   6.870   2.632   0.300  0.4792  0.1177 -0.0219
  137MOL0     C18829   6.761   2.602   0.406 -0.0379 -0.1017 -0.2753
  137MOL0     C18830   6.746   2.452   0.417 -0.5876  0.2032 -0.0933
  137MOL0     C18831   6.616   2.412   0.479 -0.4890 -0.1380 -0.1012
  137MOL0     C18832   6.598   2.271   0.460  1.2383  0.4593 -0.3187
  137MOL0     C18833   6.561   2.150   0.452 -1.1078 -0.2397 -0.8630
  137MOL0     C18834   6.995   2.987   0.323  0.2651 -0.0113  0.3598
  137MOL0     C18835   7.115   3.072   0.322  0.2747  0.9520  0.1933
  137MOL0     C18836   7.089   3.221   0.337  0.1525 -0.1187  0.4663
  137MOL0     H18837   7.713   2.828   0.280  1.5595 -0.2204  0.6308
  137MOL0     H18838   7.915   2.878   0.246  2.0385  1.6064 -1.8895
  137MOL0     H18839   8.156   3.006   0.165  0.2712 -0.0550  0.4236
  137MOL0     H18840   8.093   2.971   0.341 -1.1267 -0.0918  0.3493
  137MOL0     H18841   8.289   3.162   0.233 -1.2027  0.6385 -1.0080
  137MOL0     H18842   8.216   3.161   0.411 -0.2690 -1.1407  0.0919
  137MOL0     H18843   8.317   2.966   0.474  0.9448  1.3912  1.0611
  137MOL0     H18844   8.353   2.919   0.302  1.0015  1.3317 -1.4450
  137MOL0     H18845   8.528   3.102   0.290  4.0023 -0.2543  0.5714
  137MOL0     H18846   8.478   3.148   0.444 -3.3665  1.1232 -1.8057
  137MOL0     H18847   8.612   2.868   0.386  0.5605 -0.0968  0.2332
  137MOL0     H18848   8.533   2.923   0.538  1.6256 -0.9265  0.5513
  137MOL0     H18849   8.685   3.105   0.569  2.0997  1.7101 -1.3450
  137MOL0     H18850   8.775   2.956   0.541 -1.2141 -0.6094  1.0231
  137MOL0     H18851   8.895   3.105   0.434 -0.0262 -0.8401 -1.9961
  137MOL0     H18852   8.757   3.209   0.381 -3.2438 -1.5201 -1.4836
  137MOL0     H18853   8.690   3.027   0.215 -0.2515  0.8870 -1.6136
  137MOL0     H18854   8.828   3.129   0.176  0.0721  0.3581  0.4099
  137MOL0     H18855   9.037   3.010   0.086 -0.5710 -0.9912 -1.6037
  137MOL0     H18856   9.163   2.814  -0.032  0.9672 -0.8760 -1.1645
  137MOL0     H18857   9.122   2.646   0.015 -2.8627 -0.9040 -0.1915
  137MOL0     H18858   9.257   2.665   0.214  1.5230 -1.1768 -0.3503
  137MOL0     H18859   9.357   2.719   0.081 -0.1085 -0.7108  0.4778
  137MOL0     H18860   9.279   2.967   0.133  1.2992  0.7852  1.5025
  137MOL0     H18861   9.240   2.910   0.294  0.3604  0.6382  0.9833
  137MOL0     H18862   9.472   2.810   0.309 -2.3477 -0.3066  0.6955
  137MOL0     H18863   9.508   2.905   0.164  0.7863  0.0243  0.9190
  137MOL0     H18864   9.684   2.920   0.240  0.4610 -0.3197  0.2756
  137MOL0     H18865   9.921   2.870   0.257 -3.2375  1.6639 -1.5829
  137MOL0     H18866  10.039   2.952   0.348  0.5329  0.4628 -1.3327
  137MOL0     H18867   9.988   3.021   0.196  1.1915 -0.4604  0.1933
  137MOL0     H18868  10.052   3.463   0.705  1.3345  2.2579 -1.6252
  137MOL0     H18869  10.274   3.541   0.778 -0.1112 -0.0833 -0.1609
  137MOL0     H18870  10.622   3.269   0.771 -2.9076 -0.7736 -0.3767
  137MOL0     H18871  10.632   3.329   0.605  0.3692  1.2957  0.6103
  137MOL0     H18872  10.738   3.535   0.683  0.7796  0.4434  0.0777
  137MOL0     H18873  10.733   3.479   0.849  0.0178 -0.5518  0.1672
  137MOL0     H18874  10.958   3.462   0.778 -1.7613  1.1872  0.7850
  137MOL0     H18875  10.916   3.405   0.629 -1.3269  1.8418  0.1517
  137MOL0     H18876  10.832   3.177   0.742 -0.6419  0.0136  1.4177
  137MOL0     H18877  10.897   3.241   0.894 -1.1391  1.3176 -0.1223
  137MOL0     H18878  11.113   3.276   0.762 -3.5224  2.2823  0.9376
  137MOL0     H18879  11.090   3.105   0.788  1.7027 -0.6991 -1.4517
  137MOL0     H18880  11.000   3.246   0.533 -2.4044 -3.1920 -2.4804
  137MOL0     H18881  10.978   3.078   0.582  0.7434 -0.4194  1.5017
  137MOL0     H18882  11.196   3.025   0.580 -5.6848 -0.7121  2.2089
  137MOL0     H18883  11.240   3.209   0.584 -0.0220 -0.6708 -1.1804
  137MOL0     H18884  11.157   3.224   0.354 -0.6227  0.2905  1.2178
  137MOL0     H18885  11.140   3.048   0.346  1.8216 -1.7596  1.0671
  137MOL0     H18886  10.448   3.175   0.635 -0.1071  0.4520 -0.4846
  137MOL0     H18887  10.230   3.082   0.617  4.6450 -1.3273  0.5381
  137MOL0     H18888   9.728   3.260   0.590 -1.5466  0.1782 -0.1072
  137MOL0     H18889   9.512   3.189   0.511 -0.7993  0.7042 -3.6433
  137MOL0     H18890   7.832   3.307   0.265 -2.3671  1.3448  1.4288
  137MOL0     H18891   7.607   3.256   0.306 -0.0149  0.1722 -1.3159
  137MOL0     H18892   7.333   2.827   0.325  0.1635  0.4953  1.7597
  137MOL0     H18893   7.154   2.690   0.302 -0.6386 -0.2150  1.6160
  137MOL0     H18894   6.847   2.587   0.203  1.1665 -1.6143  0.5945
  137MOL0     H18895   6.967   2.591   0.332  0.7087 -0.3299 -1.2485
  137MOL0     H18896   6.662   2.640   0.380 -1.3072 -1.8492  1.7054
  137MOL0     H18897   6.788   2.628   0.509  0.0457 -4.1743  0.9090
  137MOL0     H18898   6.764   2.406   0.319  0.5401  1.3185 -0.4339
  137MOL0     H18899   6.830   2.409   0.473  0.6262 -0.0606 -2.0160
  137MOL0     H18900   6.541   2.471   0.426 -1.3259 -0.8242  0.2954
  137MOL0     H18901   6.598   2.442   0.582 -2.7321  2.0667 -1.0378
  137MOL0     H18902   6.527   2.048   0.458 -3.7847  0.6252  0.4073
  137MOL0     H18903   6.900   3.040   0.326  0.0826 -0.3449  3.5748
  137MOL0     H18904   6.987   3.249   0.311  1.1191  1.9317 -1.5289
  137MOL0     H18905   7.116   3.251   0.439  0.0611 -2.9355  1.4073
  137MOL0     H18906   7.147   3.277   0.262 -0.2696 -0.4368 -0.1066
  138MOL0     O18907   2.225   8.778   3.096 -0.6210 -0.0152 -0.6224
  138MOL0     C18908   2.195   8.871   3.172  0.5405 -0.5763 -0.2395
  138MOL0     O18909   2.286   8.957   3.230  0.1470 -0.2689 -0.0578
  138MOL0     C18910   2.415   8.916   3.229 -0.0229  0.2382 -0.1420
  138MOL0     C18911   2.499   8.938   3.122  1.2977 -0.5392  0.4163
  138MOL0     C18912   2.625   8.895   3.136  0.8808  0.1311 -0.2735
  138MOL0     C18913   2.676   8.832   3.247  0.4995 -0.6205 -0.3965
  138MOL0     O18914   2.788   8.757   3.253  0.0747  0.0057  0.0135
  138MOL0     C18915   2.776   8.615   3.253  0.4183 -0.9473 -0.4057
  138MOL0     C18916   2.895   8.543   3.187 -0.0030  0.1391  0.4154
  138MOL0     C18917   2.899   8.395   3.224  0.3952 -0.8285  0.2432
  138MOL0     C18918   3.035   8.337   3.226 -0.5768  0.5905  0.4229
  138MOL0     C18919   3.044   8.179   3.246 -0.3239 -0.4315  0.7980
  138MOL0     C18920   3.189   8.136   3.237  0.0188  0.0392  0.0960
  138MOL0     C18921   3.209   7.987   3.266  0.1677 -0.2600  0.7872
  138MOL0     C18922   3.134   7.889   3.174 -0.3183  0.1773  0.0641
  138MOL0     N18923   3.160   7.741   3.183 -0.8408  0.2870  0.1274
  138MOL0     C18924   3.097   7.664   3.282 -0.0427  0.4944 -0.3104
  138MOL0     C18925   3.177   7.561   3.309  0.4657  1.3842  0.2027
  138MOL0     C18926   3.149   7.436   3.392  0.0933  0.1563 -0.2184
  138MOL0     C18927   3.086   7.478   3.531 -0.0761 -0.0320 -0.0628
  138MOL0     C18928   3.086   7.349   3.627 -0.4918  0.8005  0.4185
  138MOL0     C18929   3.027   7.379   3.765  0.1370  0.2533 -0.4877
  138MOL0     O18930   2.883   7.362   3.764  0.0675 -0.5109 -0.2151
  138MOL0     C18931   2.815   7.387   3.880 -0.3435 -0.0279  0.3486
  138MOL0     C18932   2.878   7.441   3.995 -0.4027  1.0443 -0.3630
  138MOL0     C18933   2.794   7.475   4.099  0.4339 -0.5412  0.0500
  138MOL0     C18934   2.858   7.547   4.217  0.3337 -0.3370  0.3023
  138MOL0     C18935   2.644   7.466   4.091  0.0013  0.0195 -0.0378
  138MOL0     C18936   2.547   7.517   4.196 -0.4392  0.2310  0.4277
  138MOL0     O18937   2.419   7.460   4.191 -0.3398 -0.1052 -0.3888
  138MOL0     C18938   2.327   7.505   4.281  1.0010  0.6709  0.2558
  138MOL0     C18939   2.197   7.535   4.229 -0.2520 -0.0266 -0.3355
  138MOL0     C18940   2.089   7.541   4.319 -0.9401 -0.0475 -0.2424
  138MOL0     C18941   2.111   7.546   4.458  0.0175 -0.5274  0.1851
  138MOL0     O18942   2.012   7.584   4.554 -0.0909  0.2609  0.4007
  138MOL0     C18943   1.883   7.634   4.517  0.3928  0.0782 -0.8825
  138MOL0     C18944   1.779   7.526   4.528  0.3846  0.5576  0.6926
  138MOL0     C18945   1.637   7.586   4.510  0.0268 -0.4880 -0.3111
  138MOL0     C18946   1.534   7.474   4.497 -0.4214 -0.4401  0.2990
  138MOL0     C18947   1.391   7.536   4.483 -0.3649 -0.1386  0.4826
  138MOL0     C18948   1.297   7.424   4.464  0.2811 -0.4956  0.7530
  138MOL0     C18949   1.150   7.483   4.459  0.1235  0.1655 -0.5308
  138MOL0     C18950   1.044   7.380   4.447  0.7395  0.4303  0.7270
  138MOL0    Cl18951   0.886   7.454   4.411 -0.3465 -0.3033  0.1037
  138MOL0     C18952   2.243   7.531   4.502  0.9153 -0.0513  0.4479
  138MOL0     C18953   2.343   7.508   4.418 -0.9553  0.3643 -0.1457
  138MOL0     O18954   2.572   7.611   4.266  0.0032  0.2571 -0.3041
  138MOL0     C18955   2.593   7.396   3.985 -0.1854 -0.1728  0.4291
  138MOL0     C18956   2.678   7.355   3.878 -0.1023  0.5688  1.0226
  138MOL0     N18957   3.284   7.571   3.216  0.2892  0.9205 -0.2328
  138MOL0     N18958   3.274   7.682   3.152 -0.8259 -0.0360  0.2308
  138MOL0     C18959   2.594   8.817   3.362 -0.7543  0.2793 -0.1491
  138MOL0     C18960   2.462   8.856   3.351  0.7401  0.2815 -0.3600
  138MOL0     C18961   2.052   8.885   3.209 -0.2846  0.0742 -0.4371
  138MOL0     C18962   2.033   8.939   3.331 -0.5180 -0.0036 -0.4356
  138MOL0     C18963   1.903   8.961   3.370  0.0450  0.9665 -0.2665
  138MOL0     C18964   1.788   8.930   3.294  1.4073  0.2841  0.3331
  138MOL0     O18965   1.655   8.946   3.335 -0.0323 -0.2576 -0.3188
  138MOL0     C18966   1.626   9.017   3.449  0.2822 -0.3865 -0.7090
  138MOL0     C18967   1.477   9.006   3.488  0.3912  0.7757  1.1481
  138MOL0     C18968   1.432   9.093   3.607  0.3473  0.1472  0.0836
  138MOL0     C18969   1.433   9.011   3.742 -0.2567  1.0077  0.3762
  138MOL0     C18970   1.354   9.075   3.847  0.2060 -0.0880 -0.1596
  138MOL0     C18971   1.297   9.126   3.941  0.0509 -1.6081  0.0152
  138MOL0     C18972   1.812   8.867   3.170  0.2914 -0.7632 -0.0314
  138MOL0     C18973   1.943   8.852   3.122 -0.3070 -0.1861 -0.2234
  138MOL0     C18974   1.947   8.797   2.982 -0.4950 -0.1994 -0.1073
  138MOL0     H18975   2.464   8.983   3.030  3.2658 -0.1231 -0.1740
  138MOL0     H18976   2.691   8.912   3.051  0.8015 -1.7112 -0.7600
  138MOL0     H18977   2.686   8.584   3.199  1.5281 -1.7352 -1.8967
  138MOL0     H18978   2.775   8.574   3.354 -2.2320 -1.1623 -0.4722
  138MOL0     H18979   2.881   8.549   3.079  0.4008 -1.4356  0.2608
  138MOL0     H18980   2.993   8.581   3.218  0.6948 -0.7853 -0.6176
  138MOL0     H18981   2.855   8.365   3.320 -0.1391 -1.4836 -0.1929
  138MOL0     H18982   2.846   8.346   3.142 -1.9539  0.4127  0.9172
  138MOL0     H18983   3.084   8.365   3.133 -2.3094  0.2401 -0.6253
  138MOL0     H18984   3.098   8.383   3.303 -0.1694 -0.1505  0.5386
  138MOL0     H18985   2.982   8.144   3.163  0.3987  1.6385 -0.6992
  138MOL0     H18986   3.002   8.144   3.341  1.9268 -0.7196  1.7497
  138MOL0     H18987   3.237   8.167   3.143  0.8214 -1.2859  0.0339
  138MOL0     H18988   3.244   8.181   3.319  0.6431 -0.7805  0.1422
  138MOL0     H18989   3.177   7.972   3.370 -0.8597  2.5515  0.9668
  138MOL0     H18990   3.318   7.980   3.262  0.2201  0.0097  1.5918
  138MOL0     H18991   3.026   7.903   3.173 -0.2003  1.2409  0.7637
  138MOL0     H18992   3.163   7.925   3.075 -0.0123 -1.6395 -0.5553
  138MOL0     H18993   3.002   7.682   3.333  0.9954  2.0958  1.1470
  138MOL0     H18994   3.239   7.377   3.407 -0.4220 -0.8954 -1.0877
  138MOL0     H18995   3.076   7.376   3.336  2.6146 -3.9751  0.4597
  138MOL0     H18996   3.139   7.565   3.569  1.9582 -1.1749 -0.1788
  138MOL0     H18997   2.981   7.508   3.524 -0.1570 -0.2614  0.1392
  138MOL0     H18998   3.032   7.268   3.576 -1.7135  2.6217 -1.3598
  138MOL0     H18999   3.187   7.310   3.637 -0.8266 -1.1581 -2.4821
  138MOL0     H19000   3.065   7.311   3.842  0.2312  2.9229  2.0149
  138MOL0     H19001   3.064   7.475   3.802  1.2447  0.2745 -1.5807
  138MOL0     H19002   2.982   7.469   4.010 -0.6778  1.9371 -0.0307
  138MOL0     H19003   2.960   7.513   4.231  0.8265  1.4765  1.4211
  138MOL0     H19004   2.803   7.533   4.311  0.4575  0.7709  0.5589
  138MOL0     H19005   2.861   7.652   4.186  0.0085 -1.0101 -2.2271
  138MOL0     H19006   2.168   7.527   4.125 -2.3493 -2.8273  0.3224
  138MOL0     H19007   1.988   7.550   4.280 -1.1321 -1.0824 -0.0038
  138MOL0     H19008   1.853   7.711   4.589 -0.9410 -0.9042 -0.3468
  138MOL0     H19009   1.883   7.683   4.419 -2.0983  1.5531 -0.2610
  138MOL0     H19010   1.793   7.451   4.449 -3.1952 -0.5314  0.9182
  138MOL0     H19011   1.782   7.483   4.628 -0.6737  0.5631  0.7446
  138MOL0     H19012   1.649   7.646   4.419  5.2404  0.8057  0.8637
  138MOL0     H19013   1.611   7.659   4.587  1.5067 -0.2272 -0.0294
  138MOL0     H19014   1.545   7.425   4.594  1.8909  1.2472  0.9999
  138MOL0     H19015   1.551   7.412   4.409 -2.1088 -0.2666 -0.1793
  138MOL0     H19016   1.370   7.585   4.579  0.4612 -0.0269  0.6141
  138MOL0     H19017   1.372   7.603   4.399 -0.3811  0.3762  0.8905
  138MOL0     H19018   1.311   7.359   4.551 -2.3811 -2.9081 -0.4671
  138MOL0     H19019   1.317   7.370   4.372 -2.0539 -0.5185  0.2011
  138MOL0     H19020   1.141   7.552   4.374  2.5528 -0.7014 -1.5620
  138MOL0     H19021   1.134   7.540   4.551  0.8907 -0.0093 -0.2840
  138MOL0     H19022   1.042   7.331   4.545  1.5668  1.1492  1.1133
  138MOL0     H19023   1.060   7.315   4.360 -1.1753  3.1058 -1.8316
  138MOL0     H19024   2.274   7.527   4.606  2.0740  0.3209  0.1339
  138MOL0     H19025   2.446   7.492   4.450 -1.5802 -1.5860  1.0765
  138MOL0     H19026   2.489   7.368   3.968 -0.2764  0.9752 -1.1370
  138MOL0     H19027   2.638   7.302   3.792  0.8935 -0.3438  1.0990
  138MOL0     H19028   2.632   8.794   3.461 -1.8422 -0.6121  0.0848
  138MOL0     H19029   2.393   8.832   3.431  0.4246  2.4107  0.0829
  138MOL0     H19030   2.113   8.972   3.397 -1.0405  4.5192 -1.6690
  138MOL0     H19031   1.880   9.008   3.465 -1.5123 -2.5434  1.2788
  138MOL0     H19032   1.682   8.978   3.535  0.2160  2.4856  0.7750
  138MOL0     H19033   1.649   9.123   3.437  1.6958 -0.7281 -1.1715
  138MOL0     H19034   1.471   8.900   3.517  1.3761  0.4048  0.0341
  138MOL0     H19035   1.407   9.021   3.405 -0.7767 -1.3690  1.6689
  138MOL0     H19036   1.508   9.172   3.608  2.4619 -1.7797  0.1354
  138MOL0     H19037   1.331   9.131   3.592  1.0090  1.5328 -1.2281
  138MOL0     H19038   1.537   8.988   3.763 -0.4609  0.5840  0.9271
  138MOL0     H19039   1.392   8.912   3.719  1.4733  0.2783  0.3242
  138MOL0     H19040   1.228   9.158   4.016 -0.9717  0.0621 -1.5437
  138MOL0     H19041   1.728   8.838   3.107 -0.3806  0.9331  0.0214
  138MOL0     H19042   1.953   8.688   2.985 -2.9040 -0.4122 -1.1417
  138MOL0     H19043   1.858   8.815   2.921 -0.9669 -0.0946  0.5976
  138MOL0     H19044   2.036   8.831   2.929  0.6726 -2.4125  0.3342
  139MOL0     O19045   8.809   6.864  10.210 -0.4226 -0.5665  0.4910
  139MOL0     C19046   8.808   6.761  10.279  0.4720  0.1232  0.4412
  139MOL0     O19047   8.903   6.667  10.270 -0.6276  0.2393 -0.5431
  139MOL0     C19048   9.015   6.698  10.189  0.5729  0.3581  0.0274
  139MOL0     C19049   9.128   6.761  10.232 -0.2046 -0.1941  0.2207
  139MOL0     C19050   9.236   6.767  10.146 -0.1910 -0.3683  0.3987
  139MOL0     C19051   9.224   6.721  10.017 -0.4270 -0.8520 -0.0466
  139MOL0     O19052   9.333   6.752   9.940 -0.0863  0.6301  0.3373
  139MOL0     C19053   9.315   6.732   9.797 -0.1405  0.1359  1.0684
  139MOL0     C19054   9.429   6.782   9.696  0.3734 -0.3097  0.2950
  139MOL0     C19055   9.460   6.923   9.734 -0.4201  0.3344  0.4373
  139MOL0     C19056   9.532   6.996   9.622  1.0469  0.3960  0.5151
  139MOL0     C19057   9.594   7.128   9.659 -0.3113  1.3606  0.2601
  139MOL0     C19058   9.499   7.236   9.715 -0.1939  0.3551 -0.7319
  139MOL0     C19059   9.411   7.296   9.603 -0.0399  0.3358  0.5067
  139MOL0     C19060   9.484   7.418   9.542  0.1835 -0.7541  0.5138
  139MOL0     N19061   9.505   7.529   9.631  0.0669 -0.4410  1.4781
  139MOL0     C19062   9.422   7.630   9.670 -0.9997  0.7992  0.3496
  139MOL0     C19063   9.507   7.730   9.723  0.8006 -0.3383 -0.2753
  139MOL0     C19064   9.467   7.854   9.789 -0.2966 -0.2379 -0.2370
  139MOL0     C19065   9.544   7.882   9.909 -0.0681  0.7298  0.1604
  139MOL0     C19066   9.495   8.002   9.990 -0.6608 -0.0388  0.7157
  139MOL0     C19067   9.613   8.083  10.048 -0.0876  0.0542  0.4250
  139MOL0     O19068   9.699   7.998  10.128  0.1076  0.6601 -0.3511
  139MOL0     C19069   9.827   8.049  10.170  0.1822  0.2737  1.1284
  139MOL0     C19070   9.859   8.186  10.162 -0.9486  0.1642  0.2082
  139MOL0     C19071   9.993   8.235  10.188  0.7443  0.1946 -0.7365
  139MOL0     C19072  10.024   8.380  10.154 -0.1422 -0.6501  0.5619
  139MOL0     C19073  10.090   8.151  10.244 -0.3172  0.5828  0.6290
  139MOL0     C19074  10.229   8.193  10.291 -0.3005 -0.8380  0.4412
  139MOL0     O19075  10.319   8.101  10.316 -0.6737 -0.0663  0.6725
  139MOL0     C19076  10.449   8.133  10.276 -0.3911  0.6468 -0.2215
  139MOL0     C19077  10.545   8.075  10.359 -0.2778 -0.3246 -0.1261
  139MOL0     C19078  10.685   8.074  10.320  0.4425  1.0219  0.7923
  139MOL0     C19079  10.729   8.139  10.213  0.5984  0.4807 -0.1987
  139MOL0     O19080  10.860   8.119  10.195 -0.1229 -0.7460 -0.8932
  139MOL0     C19081  10.935   8.200  10.109 -0.5472 -0.1408  0.3538
  139MOL0     C19082  11.074   8.206  10.173  0.1791 -0.4529 -0.3205
  139MOL0     C19083  11.177   8.273  10.082 -0.8995 -0.1194  0.0933
  139MOL0     C19084  11.311   8.298  10.162 -0.3275 -1.1354 -1.2242
  139MOL0     C19085  11.416   8.378  10.083 -0.5044 -0.3516  0.2696
  139MOL0     C19086  11.488   8.311   9.973 -0.1067  0.5724 -0.5526
  139MOL0     C19087  11.605   8.388   9.911 -0.0138  0.5150 -0.3012
  139MOL0     C19088  11.738   8.356   9.986 -0.5793 -0.5834 -0.0424
  139MOL0    Cl19089  11.880   8.361   9.881 -0.1552  0.0770 -0.0621
  139MOL0     C19090  10.633   8.207  10.131 -0.2050  0.3862 -0.1649
  139MOL0     C19091  10.498   8.203  10.163 -0.7065  0.0111  0.3150
  139MOL0     O19092  10.253   8.320  10.296 -0.2584  0.6890  0.2970
  139MOL0     C19093  10.048   8.017  10.260 -0.2053  1.2570 -0.8896
  139MOL0     C19094   9.918   7.966  10.223 -0.7140  0.5710 -0.6019
  139MOL0     N19095   9.633   7.690   9.707 -1.0563 -0.0871 -0.1637
  139MOL0     N19096   9.635   7.574   9.651  0.0983 -0.4405  0.2963
  139MOL0     C19097   9.103   6.663   9.969  0.3656  0.3986  0.9070
  139MOL0     C19098   9.006   6.650  10.061  0.3160  0.0384  0.2581
  139MOL0     C19099   8.699   6.754  10.378 -0.3009 -1.0420  0.2495
  139MOL0     C19100   8.569   6.811  10.349 -0.0345  0.1233  0.2578
  139MOL0     C19101   8.462   6.811  10.443 -0.6546 -0.2616 -0.5350
  139MOL0     C19102   8.484   6.759  10.569 -0.1952 -0.6900 -0.0654
  139MOL0     O19103   8.384   6.753  10.663 -0.0891 -0.3744 -0.0964
  139MOL0     C19104   8.398   6.694  10.803 -0.8170  0.2329  0.8791
  139MOL0     C19105   8.272   6.694  10.876  0.5101 -0.0188 -0.1756
  139MOL0     C19106   8.287   6.747  11.017  0.2783  1.1412  0.2875
  139MOL0     C19107   8.156   6.749  11.098 -0.2366  0.8292  0.5587
  139MOL0     C19108   8.117   6.605  11.117 -0.0169  0.6516  0.5704
  139MOL0     C19109   8.080   6.486  11.119  0.7048  0.0889 -0.1967
  139MOL0     C19110   8.614   6.714  10.595 -0.8469  0.5665 -0.1208
  139MOL0     C19111   8.721   6.712  10.512 -0.9975 -0.8783 -0.8480
  139MOL0     C19112   8.847   6.662  10.570 -0.2312  0.6459  0.1653
  139MOL0     H19113   9.139   6.798  10.334  3.5787 -2.1109  0.7011
  139MOL0     H19114   9.329   6.813  10.178 -0.8014  0.7974  0.5331
  139MOL0     H19115   9.218   6.777   9.772 -0.0887  0.1595  0.9090
  139MOL0     H19116   9.303   6.623   9.790  1.9384 -0.0795  0.2237
  139MOL0     H19117   9.514   6.713   9.700  0.5561 -0.1440 -0.4294
  139MOL0     H19118   9.390   6.783   9.593 -0.2710  1.1757  0.5256
  139MOL0     H19119   9.366   6.976   9.754 -1.3897 -1.2354  0.1697
  139MOL0     H19120   9.522   6.907   9.822  0.3771 -1.1604 -0.3499
  139MOL0     H19121   9.616   6.932   9.595  1.4013  1.3189 -0.6586
  139MOL0     H19122   9.462   7.008   9.538  0.1572  3.7560  1.5811
  139MOL0     H19123   9.649   7.163   9.571  1.0685 -3.0925 -0.9520
  139MOL0     H19124   9.672   7.100   9.731 -0.5635 -3.5354 -1.0196
  139MOL0     H19125   9.436   7.186   9.788  2.3031 -1.5129  0.2824
  139MOL0     H19126   9.561   7.314   9.761 -0.4563  1.1862 -1.7360
  139MOL0     H19127   9.315   7.327   9.647  0.2883  0.2255  1.3191
  139MOL0     H19128   9.399   7.215   9.530  1.4466 -0.1172  0.7338
  139MOL0     H19129   9.577   7.385   9.494  1.8754  1.5636  2.0051
  139MOL0     H19130   9.436   7.465   9.455 -0.1552  0.6279  1.4220
  139MOL0     H19131   9.314   7.639   9.666 -1.2584 -1.6476  0.3976
  139MOL0     H19132   9.364   7.834   9.819  0.4167 -2.2073  1.0742
  139MOL0     H19133   9.478   7.941   9.723 -1.0179 -0.5466 -0.7776
  139MOL0     H19134   9.544   7.794   9.974  0.9272  0.2095 -0.5249
  139MOL0     H19135   9.647   7.888   9.876 -0.6894  1.2775 -1.7811
  139MOL0     H19136   9.430   8.068   9.932  1.6541 -0.9342 -3.2756
  139MOL0     H19137   9.429   7.974  10.073 -3.3888 -4.0829 -2.4152
  139MOL0     H19138   9.670   8.128   9.967 -1.2667 -0.1693 -0.5632
  139MOL0     H19139   9.575   8.158  10.117  1.6226  1.3864 -0.0240
  139MOL0     H19140   9.792   8.255  10.112  1.4492 -0.6477 -4.6368
  139MOL0     H19141  10.118   8.389  10.100 -0.2236 -3.1192 -0.1023
  139MOL0     H19142  10.015   8.431  10.250 -2.3825 -1.3375  0.7820
  139MOL0     H19143   9.957   8.431  10.085  0.5909 -2.4594 -1.6142
  139MOL0     H19144  10.512   8.019  10.445  0.2019 -0.6243 -0.1348
  139MOL0     H19145  10.757   8.023  10.383  2.5200  2.0380 -0.6415
  139MOL0     H19146  10.940   8.161  10.007  2.5107  1.2705 -0.1473
  139MOL0     H19147  10.895   8.301  10.125  0.6375  0.1535  1.5601
  139MOL0     H19148  11.061   8.273  10.258 -0.5596  1.3620 -1.7660
  139MOL0     H19149  11.096   8.100  10.185 -3.0560 -1.4633 -2.1270
  139MOL0     H19150  11.143   8.372  10.050  0.7919  0.7886  0.9650
  139MOL0     H19151  11.203   8.224   9.988  2.7069  1.5741  0.0497
  139MOL0     H19152  11.353   8.208  10.206  3.9468  0.5908 -1.3051
  139MOL0     H19153  11.291   8.371  10.241  0.4482 -0.6716 -1.4358
  139MOL0     H19154  11.369   8.468  10.042  3.3545  1.1630 -1.3743
  139MOL0     H19155  11.488   8.418  10.156  0.0691 -0.3781 -0.2708
  139MOL0     H19156  11.418   8.284   9.893 -0.3898  1.2334 -0.5378
  139MOL0     H19157  11.516   8.213  10.013 -0.6707 -0.2542 -2.0747
  139MOL0     H19158  11.583   8.494   9.896 -0.4834  0.4615 -0.0137
  139MOL0     H19159  11.627   8.344   9.814  0.8830 -1.8076  0.8863
  139MOL0     H19160  11.733   8.261  10.040 -2.5478  0.0618  1.0084
  139MOL0     H19161  11.745   8.440  10.055  0.8122 -0.0813 -0.7613
  139MOL0     H19162  10.672   8.260  10.045  0.3734  0.4640  0.1436
  139MOL0     H19163  10.433   8.265  10.101  0.0199 -1.1636 -1.7212
  139MOL0     H19164  10.109   7.936  10.299 -1.3489 -0.7117 -2.9424
  139MOL0     H19165   9.916   7.859  10.241  0.8063  0.9420  2.5347
  139MOL0     H19166   9.072   6.628   9.871 -1.3687 -0.3914  1.6973
  139MOL0     H19167   8.910   6.608  10.032  0.3792  1.8445 -2.9203
  139MOL0     H19168   8.556   6.852  10.249 -0.2901 -0.5749 -0.0066
  139MOL0     H19169   8.373   6.868  10.418  0.0350  1.2694  0.2951
  139MOL0     H19170   8.435   6.591  10.801 -0.5820  0.2934  1.7982
  139MOL0     H19171   8.469   6.752  10.862  0.0691 -0.4604  0.5177
  139MOL0     H19172   8.224   6.595  10.868  2.9982 -1.2097 -1.4222
  139MOL0     H19173   8.206   6.761  10.819 -0.5033 -1.7784 -1.1779
  139MOL0     H19174   8.364   6.683  11.060  0.3637 -0.2402 -1.7630
  139MOL0     H19175   8.315   6.852  11.020 -2.4185  1.9419  3.7278
  139MOL0     H19176   8.080   6.810  11.048 -0.6867  0.2265  0.4945
  139MOL0     H19177   8.171   6.795  11.196 -0.8786 -2.4861  2.3334
  139MOL0     H19178   8.051   6.384  11.129 -3.4266  1.3211  3.0327
  139MOL0     H19179   8.630   6.668  10.692 -1.9816  0.7569  0.1646
  139MOL0     H19180   8.872   6.702  10.668  0.2504  1.5753 -0.3321
  139MOL0     H19181   8.840   6.553  10.569  0.7628  0.5733  0.2765
  139MOL0     H19182   8.930   6.697  10.509 -0.2889  0.5648  0.0402
  140MOL0     O19183   2.437   0.906   9.204  0.1409  0.4171  0.4117
  140MOL0     C19184   2.450   1.003   9.286 -0.4643  0.2807  0.7280
  140MOL0     O19185   2.567   1.040   9.342  0.2931  0.4156  0.6361
  140MOL0     C19186   2.677   0.979   9.292 -0.4767  0.2621 -0.4274
  140MOL0     C19187   2.761   0.915   9.386 -0.1535  0.2924  0.1292
  140MOL0     C19188   2.877   0.849   9.345 -0.7020  0.6679 -0.2078
  140MOL0     C19189   2.927   0.859   9.210  0.9245 -0.6371 -0.4681
  140MOL0     O19190   3.048   0.800   9.178  0.3777 -0.3756  0.3425
  140MOL0     C19191   3.088   0.793   9.045 -0.3422 -0.2894  0.2876
  140MOL0     C19192   3.172   0.672   9.041 -0.3326 -0.2931  0.3097
  140MOL0     C19193   3.271   0.659   8.918 -0.0611  0.3796  0.5106
  140MOL0     C19194   3.305   0.504   8.903  0.1318 -0.0885  0.1655
  140MOL0     C19195   3.417   0.491   8.803  0.7697 -0.4108 -0.2844
  140MOL0     C19196   3.553   0.551   8.843 -0.4736  0.5450 -1.1450
  140MOL0     C19197   3.648   0.558   8.722  0.0095  0.8352  1.2003
  140MOL0     C19198   3.619   0.673   8.632 -0.5540  0.0730  1.0232
  140MOL0     N19199   3.643   0.805   8.682  0.7845  0.9474 -0.6525
  140MOL0     C19200   3.709   0.844   8.793 -1.4598  0.1573  0.6719
  140MOL0     C19201   3.699   0.978   8.786  0.6776 -0.4231 -0.0584
  140MOL0     C19202   3.761   1.070   8.892  0.3672  0.7005 -0.2509
  140MOL0     C19203   3.907   1.076   8.868 -0.0937  0.7489 -0.9477
  140MOL0     C19204   3.937   1.144   8.736  0.2264 -0.3152 -0.4924
  140MOL0     C19205   4.084   1.179   8.728 -0.8938 -1.5975 -0.3830
  140MOL0     O19206   4.159   1.060   8.704  0.3036  0.5361  0.2276
  140MOL0     C19207   4.301   1.068   8.668  0.5218 -0.3478 -0.5401
  140MOL0     C19208   4.357   0.952   8.621  0.0993  0.2087  0.1703
  140MOL0     C19209   4.490   0.939   8.586 -0.5337 -0.1178  0.5324
  140MOL0     C19210   4.544   0.798   8.574  0.5439  0.2330 -0.9008
  140MOL0     C19211   4.569   1.055   8.578 -0.5921  0.0398 -0.4858
  140MOL0     C19212   4.718   1.043   8.548  0.2680 -0.6501 -0.0178
  140MOL0     O19213   4.769   1.152   8.495  0.2203 -1.2286  1.0309
  140MOL0     C19214   4.894   1.152   8.458  0.3989 -0.4395  0.7831
  140MOL0     C19215   4.991   1.179   8.554  0.2150  0.5016  0.3428
  140MOL0     C19216   5.126   1.158   8.521 -0.1306 -0.2811  0.0661
  140MOL0     C19217   5.157   1.132   8.384 -0.3234  0.0347  0.5844
  140MOL0     O19218   5.284   1.109   8.342 -0.1507  0.4602 -0.1993
  140MOL0     C19219   5.402   1.135   8.432 -0.2792 -0.4631 -0.2764
  140MOL0     C19220   5.518   1.049   8.387  0.1255  0.4529 -0.9851
  140MOL0     C19221   5.481   0.898   8.378 -0.4776  0.2237  0.6561
  140MOL0     C19222   5.509   0.812   8.513  0.1634  0.7442 -1.2205
  140MOL0     C19223   5.462   0.671   8.513  0.0004 -0.0556  0.0463
  140MOL0     C19224   5.560   0.570   8.450  0.5418  0.4476 -0.6047
  140MOL0     C19225   5.695   0.578   8.523 -0.6193  0.4941  0.1491
  140MOL0     C19226   5.795   0.467   8.480  0.4817 -0.4280  0.5230
  140MOL0    Cl19227   5.973   0.497   8.507 -0.1024  0.2874 -0.1045
  140MOL0     C19228   5.059   1.120   8.284 -0.4607 -0.5049  0.3696
  140MOL0     C19229   4.925   1.122   8.326 -0.1071 -0.2269  0.1668
  140MOL0     O19230   4.784   0.949   8.599 -0.5337 -0.5847 -0.8019
  140MOL0     C19231   4.514   1.173   8.626  0.1504  0.5713 -0.3133
  140MOL0     C19232   4.387   1.181   8.666  0.5256 -0.1251  0.2850
  140MOL0     N19233   3.616   1.012   8.680  0.0201  0.4198  0.4932
  140MOL0     N19234   3.581   0.906   8.619 -0.6595 -0.4335  0.2614
  140MOL0     C19235   2.838   0.932   9.124 -0.2130  0.2204  0.1291
  140MOL0     C19236   2.713   0.986   9.166  0.9933  0.1929  0.7073
  140MOL0     C19237   2.347   1.105   9.305  0.2176 -0.5614 -0.3363
  140MOL0     C19238   2.372   1.217   9.391  0.4526 -0.3487  0.1540
  140MOL0     C19239   2.270   1.312   9.412 -0.6126  0.4462  0.4001
  140MOL0     C19240   2.152   1.309   9.348  0.3086  0.1552  0.6070
  140MOL0     O19241   2.063   1.408   9.367  0.5358 -0.2978  0.4118
  140MOL0     C19242   2.018   1.489   9.256  0.5168  0.0444  0.1886
  140MOL0     C19243   1.867   1.532   9.265 -0.6542  0.2212  0.4211
  140MOL0     C19244   1.822   1.601   9.134  0.1302 -0.1094  1.2916
  140MOL0     C19245   1.669   1.614   9.122 -0.2094 -0.6607 -0.8990
  140MOL0     C19246   1.628   1.657   8.987  0.6080  0.5724 -0.5013
  140MOL0     C19247   1.575   1.700   8.885 -0.1229  0.2755 -0.8053
  140MOL0     C19248   2.126   1.195   9.265  0.0610 -0.0271  0.3156
  140MOL0     C19249   2.217   1.093   9.252 -0.0888 -0.0905 -0.0624
  140MOL0     C19250   2.158   0.976   9.175  0.2801 -0.5834 -0.4570
  140MOL0     H19251   2.739   0.920   9.492 -1.1822  0.2677 -0.0702
  140MOL0     H19252   2.936   0.799   9.421 -0.7915  1.1935  0.2253
  140MOL0     H19253   3.148   0.879   9.013  1.0487 -1.1435  0.4673
  140MOL0     H19254   3.008   0.785   8.972 -1.4521  2.0337  1.1622
  140MOL0     H19255   3.236   0.672   9.130  1.1019 -3.7422 -0.5597
  140MOL0     H19256   3.103   0.587   9.046 -3.0781  1.8659  2.1957
  140MOL0     H19257   3.229   0.697   8.825 -0.3871 -1.3870 -0.1090
  140MOL0     H19258   3.364   0.716   8.931  0.0985  0.0554  0.8309
  140MOL0     H19259   3.334   0.462   9.000  0.4919 -1.8673 -0.6788
  140MOL0     H19260   3.214   0.455   8.866  1.4142 -1.8616 -0.7634
  140MOL0     H19261   3.378   0.515   8.704  1.1210  1.6922  0.0441
  140MOL0     H19262   3.441   0.385   8.794 -2.5394 -1.3087  0.1366
  140MOL0     H19263   3.545   0.651   8.885 -2.2061  0.1554 -0.4244
  140MOL0     H19264   3.607   0.494   8.920 -0.8790  2.2677  0.4820
  140MOL0     H19265   3.640   0.464   8.666  0.5751  0.5400  1.6076
  140MOL0     H19266   3.751   0.556   8.759  0.5622 -2.8304 -0.0549
  140MOL0     H19267   3.665   0.664   8.533 -0.0043  2.8799  0.9600
  140MOL0     H19268   3.511   0.675   8.613 -0.2723  0.2100 -0.6887
  140MOL0     H19269   3.765   0.783   8.864  0.8561  0.9099 -0.3983
  140MOL0     H19270   3.747   1.029   8.993 -0.4107 -2.1361 -1.3993
  140MOL0     H19271   3.716   1.169   8.898 -0.9387  0.0484  1.9910
  140MOL0     H19272   3.950   1.129   8.954  0.0516 -0.7002 -0.0835
  140MOL0     H19273   3.940   0.971   8.867 -1.4457 -0.0060  4.0800
  140MOL0     H19274   3.912   1.075   8.655  2.7635  1.3098 -2.8176
  140MOL0     H19275   3.880   1.237   8.724  0.7957  0.3227  1.3879
  140MOL0     H19276   4.098   1.247   8.644  0.1402  0.2289  1.1706
  140MOL0     H19277   4.119   1.228   8.820  1.8692 -0.8131 -1.7498
  140MOL0     H19278   4.285   0.871   8.618 -1.8404  1.8237  0.1879
  140MOL0     H19279   4.467   0.721   8.583  1.5186 -0.5185  2.1819
  140MOL0     H19280   4.604   0.787   8.664  0.3955  1.0695 -0.6892
  140MOL0     H19281   4.613   0.782   8.490  2.1395 -1.2912  0.6390
  140MOL0     H19282   4.960   1.203   8.655 -1.5320  1.9444 -0.4865
  140MOL0     H19283   5.202   1.163   8.598  0.7956  0.8643 -0.8969
  140MOL0     H19284   5.427   1.241   8.421 -0.0823 -0.4322  0.4048
  140MOL0     H19285   5.390   1.113   8.539 -0.1963 -1.0706 -0.3885
  140MOL0     H19286   5.551   1.086   8.289 -0.1688  0.2092 -1.1803
  140MOL0     H19287   5.599   1.065   8.458  0.9791  0.8292 -2.0146
  140MOL0     H19288   5.551   0.851   8.307 -0.0187 -1.7366  2.3175
  140MOL0     H19289   5.382   0.881   8.335  0.1585 -0.9041 -0.4140
  140MOL0     H19290   5.445   0.855   8.590  0.4556 -0.3686 -0.3210
  140MOL0     H19291   5.615   0.830   8.533  0.2043  0.1409 -0.8614
  140MOL0     H19292   5.437   0.641   8.615 -0.3814 -1.8323 -0.5435
  140MOL0     H19293   5.365   0.661   8.465 -0.3999 -0.2586  0.8732
  140MOL0     H19294   5.580   0.610   8.350  0.3265  0.6856 -0.5547
  140MOL0     H19295   5.508   0.474   8.446 -1.3618  1.4672 -1.5076
  140MOL0     H19296   5.694   0.590   8.631  0.6248  1.5126  0.0657
  140MOL0     H19297   5.745   0.669   8.490  1.8295 -1.1442 -0.9851
  140MOL0     H19298   5.783   0.443   8.374  1.2354  2.5056 -0.3196
  140MOL0     H19299   5.774   0.371   8.528  2.5974 -0.3121  1.8089
  140MOL0     H19300   5.088   1.090   8.184 -0.5523 -1.5670  0.6431
  140MOL0     H19301   4.848   1.093   8.255  0.7268 -1.4998 -0.2490
  140MOL0     H19302   4.573   1.265   8.622  0.6500  0.2338 -0.9358
  140MOL0     H19303   4.346   1.272   8.709 -1.9118 -1.3290  0.6654
  140MOL0     H19304   2.876   0.954   9.025  1.3621  1.1022  0.8900
  140MOL0     H19305   2.648   1.030   9.091  0.0748  1.5340  2.2374
  140MOL0     H19306   2.471   1.234   9.432  0.1735 -1.3062  1.2998
  140MOL0     H19307   2.291   1.400   9.472 -1.0305 -0.2757  1.6455
  140MOL0     H19308   2.077   1.580   9.256  0.5710  0.0246  1.8149
  140MOL0     H19309   2.033   1.430   9.164  0.4433 -2.3415  1.6143
  140MOL0     H19310   1.858   1.603   9.347 -2.3707 -0.3080  0.7387
  140MOL0     H19311   1.807   1.443   9.289 -0.3282 -0.4887 -1.2803
  140MOL0     H19312   1.865   1.702   9.134  1.7064 -0.7453  2.2418
  140MOL0     H19313   1.861   1.544   9.050 -1.5799 -1.1452  1.1614
  140MOL0     H19314   1.637   1.678   9.205  0.7108  0.4076 -1.3517
  140MOL0     H19315   1.626   1.515   9.144  3.2084 -2.3368 -1.1394
  140MOL0     H19316   1.531   1.722   8.789  0.9300  2.8369 -0.7819
  140MOL0     H19317   2.024   1.200   9.231 -0.4537  3.6451  1.8809
  140MOL0     H19318   2.056   0.957   9.208  0.4651  0.0888  0.5406
  140MOL0     H19319   2.153   0.988   9.067  1.1197  1.0475 -0.3570
  140MOL0     H19320   2.205   0.880   9.197 -0.1907 -0.5459  0.8064
  141MOL0     O19321   6.273   8.555   2.344 -0.7597 -0.2391 -0.0322
  141MOL0     C19322   6.202   8.461   2.319 -0.5986 -0.1203 -0.5276
  141MOL0     O19323   6.103   8.469   2.233 -0.5297 -0.7572  0.3475
  141MOL0     C19324   6.051   8.590   2.186 -0.5617 -0.1152 -0.7564
  141MOL0     C19325   5.959   8.661   2.265 -0.0892 -0.2751 -0.1244
  141MOL0     C19326   5.879   8.754   2.214  0.3000  0.5587 -0.0140
  141MOL0     C19327   5.884   8.783   2.078 -0.2748  0.0396  0.8797
  141MOL0     O19328   5.789   8.861   2.027  0.3525 -0.6685 -0.1185
  141MOL0     C19329   5.783   8.902   1.887  0.6123 -0.4337 -0.3669
  141MOL0     C19330   5.648   8.967   1.867 -0.2316 -0.4430  0.6569
  141MOL0     C19331   5.534   8.868   1.819  0.5312 -0.0852  0.6116
  141MOL0     C19332   5.401   8.940   1.825 -0.0923  0.4266  0.1086
  141MOL0     C19333   5.281   8.852   1.791  0.2258  0.5750  0.7512
  141MOL0     C19334   5.147   8.933   1.800 -0.3265  0.2236 -0.4786
  141MOL0     C19335   5.101   8.951   1.940 -0.4567 -0.0685 -0.1682
  141MOL0     C19336   5.013   9.083   1.952 -0.8307  0.3163  0.1868
  141MOL0     N19337   4.893   9.105   1.865 -0.5850 -0.5506  0.0161
  141MOL0     C19338   4.776   9.041   1.882  0.1530 -0.7977  0.3577
  141MOL0     C19339   4.689   9.108   1.802  0.3000  0.7394 -0.5754
  141MOL0     C19340   4.541   9.083   1.796  0.4377 -0.1636  0.1966
  141MOL0     C19341   4.502   8.954   1.873  0.4578 -0.0137  0.5290
  141MOL0     C19342   4.347   8.930   1.868 -0.3764 -0.2292  0.0561
  141MOL0     C19343   4.257   9.006   1.959  1.0547 -0.2258  0.8026
  141MOL0     O19344   4.119   8.960   1.934 -0.5859 -0.5112  0.3786
  141MOL0     C19345   4.027   9.006   2.023  0.3497  0.5421  0.2628
  141MOL0     C19346   4.046   9.112   2.108  0.2207 -0.0194  0.2303
  141MOL0     C19347   3.959   9.141   2.214  0.0123 -0.3559  0.8705
  141MOL0     C19348   3.992   9.264   2.301 -0.1125  0.1091  0.0760
  141MOL0     C19349   3.843   9.067   2.239 -0.1686 -0.4071  0.2772
  141MOL0     C19350   3.746   9.098   2.351  0.0192  0.3335  0.8918
  141MOL0     O19351   3.776   9.198   2.437 -0.6904  0.3862 -0.9338
  141MOL0     C19352   3.673   9.268   2.504  0.0409 -0.1361  0.2416
  141MOL0     C19353   3.714   9.334   2.620  0.5957  0.3140 -0.1912
  141MOL0     C19354   3.628   9.387   2.719 -0.0197  0.5213  0.6363
  141MOL0     C19355   3.494   9.397   2.683 -0.3705 -0.5293  0.8530
  141MOL0     O19356   3.417   9.464   2.778  0.3764 -0.3950 -0.3177
  141MOL0     C19357   3.298   9.528   2.734 -0.3545 -0.5329 -0.4472
  141MOL0     C19358   3.336   9.659   2.666  0.1154  0.6729 -0.2875
  141MOL0     C19359   3.213   9.750   2.649  0.0705  0.4282 -1.3867
  141MOL0     C19360   3.236   9.860   2.552  0.4892  0.6721  0.5094
  141MOL0     C19361   3.332   9.969   2.599  0.0979  0.0329 -0.5072
  141MOL0     C19362   3.293  10.041   2.726  0.0741  0.0734 -0.2464
  141MOL0     C19363   3.171  10.128   2.715  0.8457 -0.0851 -0.2260
  141MOL0     C19364   3.121  10.182   2.851 -0.6091 -0.0428  0.7120
  141MOL0    Cl19365   3.067  10.058   2.958 -0.6056  0.0055 -0.3297
  141MOL0     C19366   3.445   9.340   2.567 -0.6104 -0.0913 -0.0538
  141MOL0     C19367   3.531   9.265   2.477  0.2237  1.0354 -1.0454
  141MOL0     O19368   3.642   9.030   2.342 -0.4023 -0.4814 -0.1285
  141MOL0     C19369   3.831   8.955   2.154  0.8348  0.6162 -0.5899
  141MOL0     C19370   3.912   8.930   2.046 -0.7504  1.1468  0.3361
  141MOL0     N19371   4.754   9.209   1.740 -0.3546 -0.2628  0.4508
  141MOL0     N19372   4.880   9.213   1.783 -0.0824  0.8794 -0.4608
  141MOL0     C19373   5.991   8.739   2.003 -0.1308  0.3147  0.4835
  141MOL0     C19374   6.075   8.638   2.059  0.0594  0.7169  0.0818
  141MOL0     C19375   6.226   8.329   2.397 -0.0017  0.4123  0.4498
  141MOL0     C19376   6.135   8.230   2.364 -0.5759 -0.2612  0.4259
  141MOL0     C19377   6.124   8.103   2.421  0.1652 -0.7329  0.3905
  141MOL0     C19378   6.220   8.074   2.522 -0.7517 -0.4448 -0.2975
  141MOL0     O19379   6.223   7.954   2.585 -0.5270 -0.0009 -0.1373
  141MOL0     C19380   6.123   7.857   2.550  0.7546  0.0509  0.2762
  141MOL0     C19381   6.129   7.732   2.642  0.0167  0.2811  0.4905
  141MOL0     C19382   6.274   7.680   2.647 -0.8792 -0.6727 -0.2807
  141MOL0     C19383   6.254   7.549   2.729 -0.2683 -0.0550 -0.6332
  141MOL0     C19384   6.378   7.479   2.758 -0.1326  0.1732  0.6730
  141MOL0     C19385   6.478   7.418   2.794 -0.4306  0.1128 -0.6101
  141MOL0     C19386   6.312   8.174   2.564  0.7372  0.7686  0.5455
  141MOL0     C19387   6.319   8.303   2.502 -0.4267 -0.1344  0.1168
  141MOL0     C19388   6.406   8.406   2.556 -0.4966 -0.9462  0.5218
  141MOL0     H19389   5.950   8.626   2.367 -0.7563 -1.1141 -0.4573
  141MOL0     H19390   5.796   8.793   2.272 -0.4611  0.0973 -0.7765
  141MOL0     H19391   5.794   8.816   1.820  1.3482 -3.5419  3.3985
  141MOL0     H19392   5.866   8.972   1.874  1.4368 -0.5109  3.3126
  141MOL0     H19393   5.611   9.029   1.949 -2.5479  0.6425 -1.1044
  141MOL0     H19394   5.672   9.040   1.789  0.1049 -0.8273  0.3996
  141MOL0     H19395   5.545   8.850   1.712 -2.0004  2.4464 -0.1962
  141MOL0     H19396   5.543   8.767   1.859 -0.8754 -2.0117 -3.3955
  141MOL0     H19397   5.378   8.989   1.920 -1.3632  4.3265 -1.9668
  141MOL0     H19398   5.396   9.026   1.757 -0.5007 -0.5716 -1.1661
  141MOL0     H19399   5.289   8.767   1.859  0.2006  0.0254  0.0732
  141MOL0     H19400   5.292   8.818   1.687  1.3382 -1.6025  1.5220
  141MOL0     H19401   5.166   9.028   1.747 -1.1409  1.3099  1.1021
  141MOL0     H19402   5.079   8.865   1.747  0.3229  0.1546 -1.2373
  141MOL0     H19403   5.180   8.952   2.016  0.4804  2.1112 -1.0468
  141MOL0     H19404   5.039   8.863   1.957  1.5069 -2.0925 -2.6299
  141MOL0     H19405   4.985   9.109   2.055  3.0547  2.7478  0.8624
  141MOL0     H19406   5.080   9.166   1.926 -0.6275 -0.0763 -0.5643
  141MOL0     H19407   4.762   8.954   1.946  2.5981 -0.5082  1.4264
  141MOL0     H19408   4.501   9.092   1.694 -0.3254 -0.9134  0.4162
  141MOL0     H19409   4.484   9.152   1.859 -1.5331 -2.2296  0.8018
  141MOL0     H19410   4.542   8.863   1.827 -4.0969 -1.6971 -0.6472
  141MOL0     H19411   4.534   8.956   1.978 -1.8753 -1.0635  1.3219
  141MOL0     H19412   4.306   8.934   1.766  1.0747  0.9224 -0.5300
  141MOL0     H19413   4.345   8.826   1.902  3.9212 -0.4029  0.3440
  141MOL0     H19414   4.282   8.964   2.057 -0.9766 -1.0440  1.0230
  141MOL0     H19415   4.274   9.113   1.947 -2.1922  0.3120 -0.0532
  141MOL0     H19416   4.134   9.176   2.101  1.6164 -1.7549  1.3203
  141MOL0     H19417   3.909   9.335   2.292 -0.9413 -0.8908 -0.4688
  141MOL0     H19418   4.089   9.308   2.277  0.4739 -0.9570  0.3935
  141MOL0     H19419   4.005   9.225   2.402 -1.3584 -1.9249 -0.4805
  141MOL0     H19420   3.820   9.348   2.638  1.1279 -0.0295 -2.6831
  141MOL0     H19421   3.672   9.428   2.809  1.6411 -3.1014  1.6449
  141MOL0     H19422   3.236   9.457   2.678  0.9482 -0.4304 -2.1156
  141MOL0     H19423   3.235   9.557   2.818 -1.0293  0.0900 -1.1494
  141MOL0     H19424   3.411   9.709   2.728 -1.7327  0.7349  2.0717
  141MOL0     H19425   3.365   9.634   2.564 -3.7180  1.4781 -1.7797
  141MOL0     H19426   3.177   9.790   2.745  1.3291  0.8866 -1.0851
  141MOL0     H19427   3.137   9.685   2.604  0.8645 -0.9472 -0.8058
  141MOL0     H19428   3.144   9.917   2.536  0.7553  0.8078 -0.6152
  141MOL0     H19429   3.261   9.819   2.454 -0.6456 -0.3374  0.6182
  141MOL0     H19430   3.430   9.925   2.619 -0.4044 -1.3333 -0.9746
  141MOL0     H19431   3.354  10.049   2.527  2.5021 -0.4750 -0.4333
  141MOL0     H19432   3.376  10.106   2.753  1.6496 -1.4132 -1.2420
  141MOL0     H19433   3.299   9.974   2.812  0.5347  0.2534 -0.1374
  141MOL0     H19434   3.082  10.082   2.672  1.8721 -1.7368 -0.6861
  141MOL0     H19435   3.204  10.209   2.649 -0.5837  0.1664 -0.6668
  141MOL0     H19436   3.034  10.245   2.833 -0.0441  0.8948  1.1417
  141MOL0     H19437   3.204  10.242   2.892  0.4474 -0.8922 -0.1137
  141MOL0     H19438   3.337   9.339   2.557 -0.7429  0.8696  1.0019
  141MOL0     H19439   3.477   9.221   2.395 -0.0193 -2.0070  0.5703
  141MOL0     H19440   3.753   8.885   2.184 -1.1135  2.3914 -1.2287
  141MOL0     H19441   3.890   8.845   1.982 -1.2159  1.0090  0.6729
  141MOL0     H19442   6.011   8.776   1.903 -1.9509  2.4140  0.8021
  141MOL0     H19443   6.158   8.597   2.003  0.9529 -1.2183  2.6245
  141MOL0     H19444   6.068   8.239   2.279  0.1749  3.2708  0.0703
  141MOL0     H19445   6.049   8.031   2.390 -0.9291 -1.2533  3.7350
  141MOL0     H19446   6.027   7.907   2.568 -0.5404 -2.0520 -0.4817
  141MOL0     H19447   6.134   7.830   2.445 -2.5082 -1.8627  0.2928
  141MOL0     H19448   6.052   7.662   2.609  2.0503 -1.4434 -0.8337
  141MOL0     H19449   6.103   7.774   2.740  0.8097  1.1659  0.3393
  141MOL0     H19450   6.321   7.664   2.549 -2.7040 -0.9638 -1.1663
  141MOL0     H19451   6.340   7.754   2.691 -0.7628  0.2918 -1.9814
  141MOL0     H19452   6.187   7.479   2.678 -0.3125 -0.3727 -0.1421
  141MOL0     H19453   6.207   7.575   2.824 -1.8988  1.0563 -1.6804
  141MOL0     H19454   6.557   7.361   2.838 -0.6165 -0.2009 -0.6777
  141MOL0     H19455   6.382   8.150   2.643  0.7431 -0.4164  0.1947
  141MOL0     H19456   6.341   8.476   2.608  0.1242 -1.0672  1.4719
  141MOL0     H19457   6.481   8.369   2.627  0.5956  0.2109  0.0170
  141MOL0     H19458   6.458   8.451   2.470 -0.4121 -0.4261  0.8424
  142MOL0     O19459  10.846   6.827   2.353  0.0774 -0.1092  0.2730
  142MOL0     C19460  10.810   6.810   2.239  0.4108 -0.4504 -0.1426
  142MOL0     O19461  10.900   6.820   2.130  0.2994 -0.6505  0.3995
  142MOL0     C19462  11.026   6.883   2.129  0.5741 -0.0627 -0.4014
  142MOL0     C19463  11.067   6.917   2.004  0.2324  0.5599  0.0673
  142MOL0     C19464  11.191   6.972   1.985  0.1548  0.2366 -0.8223
  142MOL0     C19465  11.263   7.033   2.094  0.5299  0.5418 -0.2406
  142MOL0     O19466  11.373   7.115   2.088  0.3043  0.0935  0.1929
  142MOL0     C19467  11.473   7.060   1.997 -0.3661  0.9464  0.7005
  142MOL0     C19468  11.609   7.069   2.065 -0.3847 -0.3703 -0.6765
  142MOL0     C19469  11.714   6.999   1.981 -0.2542 -0.9017 -0.3851
  142MOL0     C19470  11.852   7.005   2.057  0.4910 -0.0975  0.2087
  142MOL0     C19471  11.942   6.891   2.018  0.7706  0.3402  0.1621
  142MOL0     C19472  12.083   6.914   2.073 -0.0949  0.2147 -0.3056
  142MOL0     C19473  12.184   6.802   2.042  1.4688 -0.1963 -0.1325
  142MOL0     C19474  12.331   6.841   2.068  0.0396 -0.4650 -0.3646
  142MOL0     N19475  12.357   6.900   2.199  0.0520  0.1175  0.3207
  142MOL0     C19476  12.346   7.039   2.223 -0.5408 -0.2471  0.1437
  142MOL0     C19477  12.418   7.062   2.342 -1.1494 -0.4658  0.4172
  142MOL0     C19478  12.456   7.200   2.394 -0.2139  0.7511  1.0188
  142MOL0     C19479  12.606   7.241   2.366  0.1958 -0.5820 -0.1062
  142MOL0     C19480  12.629   7.267   2.212  0.1590 -0.4362 -0.9192
  142MOL0     C19481  12.768   7.341   2.188 -0.7908  0.1082 -0.1561
  142MOL0     O19482  12.845   7.299   2.069  0.1153 -0.5009  0.0818
  142MOL0     C19483  12.957   7.381   2.034  0.1050  0.5978  0.0772
  142MOL0     C19484  13.018   7.470   2.128 -0.5959 -0.4655 -0.0410
  142MOL0     C19485  13.130   7.549   2.091 -0.7918 -0.3473 -0.5485
  142MOL0     C19486  13.155   7.650   2.195 -0.7930  0.2827 -0.0721
  142MOL0     C19487  13.178   7.539   1.963  0.0741  0.1400  0.0938
  142MOL0     C19488  13.310   7.594   1.914  0.2133 -0.3588  0.3106
  142MOL0     O19489  13.344   7.594   1.780  0.1974 -0.1201 -0.1320
  142MOL0     C19490  13.474   7.592   1.744  0.5264 -0.3457  0.9417
  142MOL0     C19491  13.570   7.516   1.802  0.3702 -0.3536 -0.7294
  142MOL0     C19492  13.698   7.519   1.756 -0.6713  0.2970 -0.0668
  142MOL0     C19493  13.731   7.563   1.624 -0.2457 -0.0161 -0.1698
  142MOL0     O19494  13.867   7.567   1.585  0.1007 -0.3691  0.1898
  142MOL0     C19495  13.905   7.647   1.474 -0.0752  0.3241 -0.2653
  142MOL0     C19496  13.912   7.800   1.513  0.1864 -0.1461 -0.7760
  142MOL0     C19497  14.007   7.865   1.427 -0.1296 -1.2954  1.2955
  142MOL0     C19498  13.974   8.021   1.403 -0.3868  0.9172  0.2893
  142MOL0     C19499  14.090   8.100   1.342 -0.3158  0.3049 -1.1569
  142MOL0     C19500  14.219   8.081   1.416 -0.8115 -0.0648  0.0518
  142MOL0     C19501  14.329   8.186   1.386  0.3358 -0.0732 -0.8796
  142MOL0     C19502  14.455   8.181   1.470 -0.0319  0.5338 -0.5130
  142MOL0    Cl19503  14.551   8.329   1.487  0.5241 -0.1969  0.4466
  142MOL0     C19504  13.623   7.622   1.554 -0.9574 -0.3423 -1.0007
  142MOL0     C19505  13.501   7.650   1.621  0.8273  0.4294  0.4424
  142MOL0     O19506  13.376   7.647   2.000  0.2139 -0.6148 -0.2194
  142MOL0     C19507  13.130   7.437   1.878  0.3680 -0.0826  0.9919
  142MOL0     C19508  13.005   7.386   1.903 -0.0224  0.2081 -0.0886
  142MOL0     N19509  12.466   6.939   2.385  0.2274 -0.5523 -0.2783
  142MOL0     N19510  12.428   6.846   2.303  0.1320 -0.1404 -0.3377
  142MOL0     C19511  11.224   6.986   2.222 -0.0569 -0.4224 -0.5820
  142MOL0     C19512  11.112   6.904   2.235  0.8759 -0.7449 -0.3453
  142MOL0     C19513  10.665   6.770   2.220 -0.0623 -0.2163  0.8923
  142MOL0     C19514  10.611   6.748   2.086  1.2257 -0.3049 -0.2949
  142MOL0     C19515  10.476   6.704   2.072 -0.4215  0.3128 -0.3793
  142MOL0     C19516  10.393   6.684   2.182 -0.2531  0.3135  0.4322
  142MOL0     O19517  10.260   6.652   2.150  0.2415  0.4190 -0.0557
  142MOL0     C19518  10.161   6.615   2.251 -1.2471  0.2368 -0.1015
  142MOL0     C19519  10.179   6.468   2.287  0.0402 -0.5449  0.2535
  142MOL0     C19520  10.141   6.379   2.177  0.2707  0.9154  0.5371
  142MOL0     C19521   9.992   6.392   2.122  0.2006  0.5426 -0.0217
  142MOL0     C19522   9.960   6.265   2.051  0.2993 -0.6737 -0.2390
  142MOL0     C19523   9.912   6.177   1.976  0.5781  0.1891  0.3644
  142MOL0     C19524  10.448   6.697   2.310  0.4301 -0.4842 -0.1180
  142MOL0     C19525  10.579   6.728   2.323  0.4678  0.4678 -0.4977
  142MOL0     C19526  10.625   6.708   2.464 -0.2654  0.1101  0.2917
  142MOL0     H19527  11.018   6.880   1.914  0.8445  1.5209 -0.6819
  142MOL0     H19528  11.235   6.961   1.887 -2.9976 -1.4031 -2.1755
  142MOL0     H19529  11.472   7.118   1.905  0.3581 -0.1843 -0.0373
  142MOL0     H19530  11.465   6.955   1.968  1.9630  0.9700 -0.1903
  142MOL0     H19531  11.642   7.172   2.079  3.6300 -1.4545 -1.0867
  142MOL0     H19532  11.595   7.017   2.160 -1.3206 -2.0218 -1.6773
  142MOL0     H19533  11.686   6.894   1.965 -1.6119 -0.6925  0.4378
  142MOL0     H19534  11.728   7.039   1.881  0.2174 -1.0303 -0.3738
  142MOL0     H19535  11.911   7.093   2.035  0.0595 -0.3384 -2.1563
  142MOL0     H19536  11.834   6.994   2.164  1.5018 -2.1648  0.2072
  142MOL0     H19537  11.945   6.881   1.909 -1.5808 -1.9480  0.1893
  142MOL0     H19538  11.902   6.796   2.058  1.0849  0.3692  0.5507
  142MOL0     H19539  12.129   7.006   2.034  1.7161 -0.0228  1.1244
  142MOL0     H19540  12.084   6.932   2.180  1.6757 -1.1714 -0.0399
  142MOL0     H19541  12.160   6.751   1.948  0.6863  1.6438 -0.9638
  142MOL0     H19542  12.160   6.725   2.117  3.1025 -1.5516 -0.9269
  142MOL0     H19543  12.396   6.757   2.040  1.2281  0.3292 -0.0743
  142MOL0     H19544  12.353   6.919   1.994  1.7654 -0.2753  0.2956
  142MOL0     H19545  12.310   7.104   2.144  0.8864 -0.1040 -0.4220
  142MOL0     H19546  12.432   7.201   2.501  1.2391 -2.9160  1.5579
  142MOL0     H19547  12.385   7.269   2.349 -2.9478  0.3753  4.3698
  142MOL0     H19548  12.624   7.330   2.427 -1.7501 -0.0398 -0.2458
  142MOL0     H19549  12.677   7.163   2.396  2.1835  1.5824  1.1430
  142MOL0     H19550  12.616   7.173   2.157  0.0670 -1.0691  0.1632
  142MOL0     H19551  12.560   7.339   2.168 -1.9574 -2.1963 -0.6697
  142MOL0     H19552  12.742   7.448   2.184 -1.9725 -0.1142  0.7958
  142MOL0     H19553  12.840   7.324   2.269  2.1016  1.7783 -2.1780
  142MOL0     H19554  12.983   7.468   2.231  3.2518 -1.7853  1.4066
  142MOL0     H19555  13.223   7.605   2.268  1.0493  3.5268  0.4339
  142MOL0     H19556  13.062   7.685   2.241 -0.0303  1.5764  0.5388
  142MOL0     H19557  13.218   7.735   2.167 -0.4436  0.9007  2.3640
  142MOL0     H19558  13.545   7.460   1.891 -1.3906 -2.0397 -2.1809
  142MOL0     H19559  13.775   7.469   1.814  0.8001  0.7184 -1.5724
  142MOL0     H19560  14.009   7.620   1.456  0.0478 -0.0667  0.9665
  142MOL0     H19561  13.852   7.627   1.380  0.1397  3.4749 -1.1845
  142MOL0     H19562  13.812   7.841   1.494 -0.1638  0.9536  2.7659
  142MOL0     H19563  13.930   7.822   1.618 -0.1837 -1.5142 -0.4137
  142MOL0     H19564  13.999   7.817   1.329 -1.4304 -0.2019  0.8346
  142MOL0     H19565  14.102   7.845   1.476 -0.0466 -3.9900  0.2062
  142MOL0     H19566  13.945   8.064   1.500 -1.7554  1.7007 -0.4523
  142MOL0     H19567  13.885   8.025   1.340 -0.1550 -2.5518 -0.4686
  142MOL0     H19568  14.106   8.070   1.238  1.1391 -2.2420 -0.3111
  142MOL0     H19569  14.059   8.205   1.345 -2.5887 -0.3240 -0.7701
  142MOL0     H19570  14.266   7.988   1.384 -0.9804 -0.2568  0.3631
  142MOL0     H19571  14.206   8.064   1.523 -1.9723 -1.3209 -0.2555
  142MOL0     H19572  14.281   8.283   1.402 -0.7943 -0.5070 -1.5092
  142MOL0     H19573  14.364   8.165   1.284  1.6709  1.4543 -0.7816
  142MOL0     H19574  14.522   8.101   1.437  1.1482  1.2086  0.1846
  142MOL0     H19575  14.419   8.145   1.566  2.5517 -1.4773 -0.1922
  142MOL0     H19576  13.643   7.669   1.458  1.7352 -1.3323 -1.0105
  142MOL0     H19577  13.439   7.708   1.554  2.1047 -0.5823 -1.7268
  142MOL0     H19578  13.175   7.403   1.786 -0.3861 -2.8434  1.5600
  142MOL0     H19579  12.937   7.331   1.839 -1.0587 -0.9129  1.8841
  142MOL0     H19580  11.290   6.997   2.307  0.4980  1.0718 -1.1664
  142MOL0     H19581  11.076   6.863   2.328 -0.8505  1.4116  0.0140
  142MOL0     H19582  10.664   6.764   1.993 -0.2387  0.5764 -1.0007
  142MOL0     H19583  10.439   6.688   1.971 -1.6600  0.0907  0.0918
  142MOL0     H19584  10.172   6.677   2.341 -0.5107 -0.6167  0.4240
  142MOL0     H19585  10.060   6.623   2.211 -1.7094  0.5732  1.0811
  142MOL0     H19586  10.120   6.443   2.376  0.9516 -2.9637  0.2460
  142MOL0     H19587  10.281   6.451   2.321 -0.6038 -0.8402  2.1653
  142MOL0     H19588  10.212   6.381   2.094  0.9208 -1.0277  0.9831
  142MOL0     H19589  10.151   6.280   2.221 -0.6843  0.0457 -1.1140
  142MOL0     H19590   9.988   6.472   2.047  2.2278  1.2945  0.6149
  142MOL0     H19591   9.932   6.419   2.210 -0.1078  2.6775 -0.8273
  142MOL0     H19592   9.895   6.114   1.891  2.9092  1.6630 -1.3187
  142MOL0     H19593  10.378   6.668   2.388 -1.7059  2.4745 -0.7869
  142MOL0     H19594  10.665   6.804   2.498  0.1532  0.3960 -0.9808
  142MOL0     H19595  10.542   6.677   2.528 -0.6514 -4.1172 -1.9140
  142MOL0     H19596  10.696   6.625   2.467  0.7496  0.9784  1.7795
  143MOL0     O19597   4.189  10.538   8.230 -0.3567  0.2062 -0.4827
  143MOL0     C19598   4.151  10.629   8.159  0.8209  0.4509  0.4451
  143MOL0     O19599   4.228  10.707   8.087 -0.0735  0.1174 -0.3334
  143MOL0     C19600   4.361  10.708   8.130  0.2227 -0.8475  1.1193
  143MOL0     C19601   4.416  10.835   8.175 -0.2519 -0.0105 -1.3624
  143MOL0     C19602   4.558  10.842   8.211  0.5110 -0.7435  0.0646
  143MOL0     C19603   4.639  10.733   8.197  0.0896  0.3206  0.4991
  143MOL0     O19604   4.771  10.750   8.236  0.8225 -0.2258 -0.4141
  143MOL0     C19605   4.863  10.653   8.194 -0.0628  0.0310  0.3390
  143MOL0     C19606   5.002  10.677   8.253  1.1909  0.6899 -0.3008
  143MOL0     C19607   5.035  10.594   8.377  0.1256  0.1698  0.5535
  143MOL0     C19608   5.171  10.643   8.435 -0.2905  0.4230 -0.2048
  143MOL0     C19609   5.205  10.586   8.572  0.1999 -0.2098  0.2912
  143MOL0     C19610   5.338  10.633   8.638  0.2114  0.2196  0.0012
  143MOL0     C19611   5.448  10.664   8.537  0.1440 -0.1640 -0.3074
  143MOL0     C19612   5.585  10.701   8.601 -1.6402  0.3006 -0.2831
  143MOL0     N19613   5.675  10.776   8.508  0.5671  0.8645  0.7341
  143MOL0     C19614   5.718  10.719   8.390  0.2156 -0.4002  0.4955
  143MOL0     C19615   5.799  10.810   8.330  0.2252  1.3088  0.5832
  143MOL0     C19616   5.881  10.788   8.206  0.2373 -1.2024  1.0731
  143MOL0     C19617   6.011  10.707   8.232  0.3416 -0.1816 -0.2198
  143MOL0     C19618   6.103  10.715   8.113  0.0450  0.0771  0.0253
  143MOL0     C19619   6.241  10.649   8.148  0.5403 -0.2193 -0.9263
  143MOL0     O19620   6.297  10.725   8.255 -0.2400 -0.4810 -0.0023
  143MOL0     C19621   6.430  10.704   8.292  0.6519 -0.9702  0.1291
  143MOL0     C19622   6.509  10.594   8.249 -0.5238 -0.1781 -0.2163
  143MOL0     C19623   6.640  10.576   8.295 -0.5016  0.4234 -0.1727
  143MOL0     C19624   6.715  10.466   8.227  0.2533  0.2297  0.0951
  143MOL0     C19625   6.694  10.665   8.391  0.2481 -0.2280 -0.0292
  143MOL0     C19626   6.832  10.658   8.453 -0.1596 -0.8357  0.5358
  143MOL0     O19627   6.924  10.583   8.383  0.1868 -0.6153 -0.7338
  143MOL0     C19628   7.062  10.607   8.400 -0.0737  0.1714  0.8098
  143MOL0     C19629   7.154  10.504   8.423 -0.5579 -0.1084 -0.0840
  143MOL0     C19630   7.286  10.533   8.431  0.7605  0.4701  0.3744
  143MOL0     C19631   7.320  10.672   8.427 -0.0382  0.1602 -0.4313
  143MOL0     O19632   7.456  10.682   8.432  0.2209 -0.4798  0.7035
  143MOL0     C19633   7.524  10.776   8.350 -0.0061 -0.6848  0.3079
  143MOL0     C19634   7.672  10.758   8.365 -0.7543  0.3457 -0.4377
  143MOL0     C19635   7.754  10.863   8.289  0.5822 -0.3979  0.2391
  143MOL0     C19636   7.901  10.823   8.311 -0.5750 -0.2183  0.0407
  143MOL0     C19637   7.987  10.939   8.252  0.4904 -0.2514 -0.5286
  143MOL0     C19638   8.134  10.911   8.265 -0.5905  0.5182  0.3295
  143MOL0     C19639   8.221  11.005   8.194  0.0710 -0.5793  0.6770
  143MOL0     C19640   8.363  10.945   8.183 -0.1659  0.0402  0.7524
  143MOL0    Cl19641   8.428  10.928   8.352  0.3931  0.2067 -0.0083
  143MOL0     C19642   7.236  10.774   8.417 -0.1493 -0.0895  0.2358
  143MOL0     C19643   7.106  10.748   8.402 -0.6545  1.1688  0.2010
  143MOL0     O19644   6.859  10.730   8.546  0.3007  0.0375  0.1777
  143MOL0     C19645   6.616  10.770   8.438  0.9998  0.1014 -0.7470
  143MOL0     C19646   6.485  10.789   8.379  0.6004  0.3039 -1.1147
  143MOL0     N19647   5.810  10.922   8.410 -0.2436 -0.2722 -0.8197
  143MOL0     N19648   5.745  10.896   8.522  0.0041 -0.0223  0.7428
  143MOL0     C19649   4.582  10.616   8.140  0.8811  0.3735 -0.2031
  143MOL0     C19650   4.448  10.604   8.113 -0.3149 -0.1130 -0.1222
  143MOL0     C19651   4.008  10.636   8.119  0.3672  0.3297  0.2701
  143MOL0     C19652   3.962  10.726   8.024 -0.1458 -0.0074 -0.6754
  143MOL0     C19653   3.835  10.719   7.965 -0.6131 -0.4454  0.0303
  143MOL0     C19654   3.737  10.644   8.031  0.4041  0.5329 -0.0198
  143MOL0     O19655   3.616  10.663   7.973  0.2014 -0.1742 -0.1946
  143MOL0     C19656   3.496  10.642   8.053 -0.2406  0.1476  0.3433
  143MOL0     C19657   3.408  10.527   8.005  0.2841 -0.9902 -0.7337
  143MOL0     C19658   3.265  10.538   8.072 -0.4857 -0.8759 -0.4278
  143MOL0     C19659   3.176  10.432   7.999  0.5546  0.5512 -0.3647
  143MOL0     C19660   3.029  10.438   8.039 -0.3333  0.3066 -0.7834
  143MOL0     C19661   2.915  10.426   8.073 -0.0007 -0.2659  0.2973
  143MOL0     C19662   3.770  10.570   8.143  0.0323 -0.4563 -1.3520
  143MOL0     C19663   3.907  10.560   8.183  0.0110 -0.6386 -0.5538
  143MOL0     C19664   3.934  10.475   8.306 -1.1552 -0.4700  0.0999
  143MOL0     H19665   4.364  10.928   8.199  0.4721  0.0296  0.1826
  143MOL0     H19666   4.607  10.923   8.264 -0.4569 -0.0606 -0.0593
  143MOL0     H19667   4.870  10.652   8.085 -2.3889  0.0868  0.1492
  143MOL0     H19668   4.836  10.551   8.222  1.3562 -0.5926 -0.4744
  143MOL0     H19669   5.071  10.663   8.169  2.9889  2.0496  0.8491
  143MOL0     H19670   5.015  10.782   8.280  0.7863  0.2384  1.8645
  143MOL0     H19671   4.959  10.604   8.454  0.1593  2.0355  0.4031
  143MOL0     H19672   5.046  10.488   8.355  0.4880  0.0844  1.1278
  143MOL0     H19673   5.242  10.620   8.355 -2.9183  0.6904 -2.7940
  143MOL0     H19674   5.174  10.753   8.432 -0.5660  0.4487  0.3291
  143MOL0     H19675   5.219  10.478   8.575  0.8730 -0.2426 -1.9348
  143MOL0     H19676   5.126  10.611   8.643  0.1242 -1.3051  0.6050
  143MOL0     H19677   5.314  10.715   8.707  1.0809 -0.0288  0.6181
  143MOL0     H19678   5.375  10.551   8.701  3.7337 -1.0506 -3.3174
  143MOL0     H19679   5.405  10.734   8.465  0.5750 -1.7778 -2.2427
  143MOL0     H19680   5.452  10.571   8.478  2.4024  0.7609 -1.7492
  143MOL0     H19681   5.562  10.762   8.689  0.7230  2.2245 -0.9000
  143MOL0     H19682   5.641  10.612   8.630  0.4694  0.7234 -2.7426
  143MOL0     H19683   5.701  10.620   8.350  0.7719  0.4464 -2.0617
  143MOL0     H19684   5.901  10.885   8.159 -3.4076 -1.5557 -1.6963
  143MOL0     H19685   5.817  10.740   8.131  0.2778  2.3729 -1.5468
  143MOL0     H19686   6.057  10.748   8.322 -2.9966  0.8100  1.1795
  143MOL0     H19687   5.981  10.603   8.251 -2.2667  0.5469  0.0763
  143MOL0     H19688   6.057  10.659   8.031  1.5193 -0.7674 -0.2614
  143MOL0     H19689   6.120  10.819   8.083  1.8618 -0.0071  0.6229
  143MOL0     H19690   6.223  10.549   8.189 -0.7416  0.7200  0.9926
  143MOL0     H19691   6.304  10.652   8.059  0.0081  5.6012 -1.5291
  143MOL0     H19692   6.474  10.530   8.168  0.2882 -3.2547  1.7029
  143MOL0     H19693   6.645  10.398   8.179 -1.4942 -0.7106  3.6587
  143MOL0     H19694   6.776  10.408   8.297  0.6509  0.1111 -0.3505
  143MOL0     H19695   6.783  10.516   8.157  1.8144 -0.2062  1.2390
  143MOL0     H19696   7.128  10.400   8.438  3.2090 -1.2712 -0.6732
  143MOL0     H19697   7.352  10.449   8.451  0.0964  0.5166  3.1635
  143MOL0     H19698   7.490  10.757   8.247 -1.4496  0.5614  0.5126
  143MOL0     H19699   7.483  10.876   8.370 -0.1357 -0.7628  0.4259
  143MOL0     H19700   7.689  10.760   8.473 -0.1803  2.4524 -0.5105
  143MOL0     H19701   7.688  10.658   8.324  2.2610  1.5366 -2.5399
  143MOL0     H19702   7.726  10.964   8.319 -1.8268 -0.2459 -2.1448
  143MOL0     H19703   7.739  10.858   8.181  2.4237  1.9156 -0.2028
  143MOL0     H19704   7.938  10.732   8.263 -0.7022 -0.0298 -0.4221
  143MOL0     H19705   7.929  10.813   8.416 -0.4863  3.2715  0.4442
  143MOL0     H19706   7.956  10.954   8.148 -0.3321  2.9121  0.0786
  143MOL0     H19707   7.962  11.029   8.309  1.3715 -1.4333  1.8543
  143MOL0     H19708   8.142  10.808   8.229 -0.2690  0.0096  1.7873
  143MOL0     H19709   8.160  10.913   8.371  1.1090  0.7746 -0.0627
  143MOL0     H19710   8.225  11.106   8.235  0.2903 -0.3151  0.0083
  143MOL0     H19711   8.178  11.018   8.095  0.9733  0.4165  0.4035
  143MOL0     H19712   8.433  11.010   8.130 -0.1396  0.2030  0.9838
  143MOL0     H19713   8.368  10.848   8.132  1.1519  1.4300 -1.9657
  143MOL0     H19714   7.272  10.877   8.421  0.1296  0.0170 -2.8543
  143MOL0     H19715   7.039  10.831   8.382  0.7028  1.9226 -1.5455
  143MOL0     H19716   6.643  10.844   8.513 -0.3733 -0.8380  0.7344
  143MOL0     H19717   6.416  10.871   8.397 -1.6772 -1.1484 -2.7094
  143MOL0     H19718   4.643  10.528   8.124  3.3819  1.8768  0.6024
  143MOL0     H19719   4.401  10.513   8.078 -1.7519  0.9117 -0.9968
  143MOL0     H19720   4.034  10.801   7.994  0.8543 -0.8027 -0.3490
  143MOL0     H19721   3.807  10.793   7.890  0.0612  1.7193  1.7763
  143MOL0     H19722   3.505  10.656   8.161 -0.9008  4.1014  0.0433
  143MOL0     H19723   3.439  10.735   8.039 -0.1721  0.1958  0.3779
  143MOL0     H19724   3.462  10.435   8.027  0.5039 -1.4290 -2.8492
  143MOL0     H19725   3.399  10.537   7.896 -0.2260 -1.5015 -0.7436
  143MOL0     H19726   3.269  10.524   8.180 -2.8446 -0.8860 -0.2941
  143MOL0     H19727   3.229  10.640   8.055  1.2986  0.3172  2.2854
  143MOL0     H19728   3.220  10.335   8.026  0.8230  1.1632  1.4868
  143MOL0     H19729   3.176  10.453   7.891 -2.4035  3.2678  0.0001
  143MOL0     H19730   2.810  10.414   8.092 -0.5282 -4.4365 -3.6053
  143MOL0     H19731   3.697  10.506   8.192  0.6488 -0.4809 -0.4294
  143MOL0     H19732   3.979  10.381   8.272 -1.1291  0.1040 -1.5696
  143MOL0     H19733   4.008  10.525   8.369 -0.0117  1.3000 -2.4579
  143MOL0     H19734   3.849  10.452   8.370 -1.0948  5.6821  3.1763
  144MOL0     O19735   2.386   2.531   1.670 -0.0218  0.2172 -0.9137
  144MOL0     C19736   2.435   2.478   1.767 -0.5747 -0.2279 -0.5201
  144MOL0     O19737   2.571   2.458   1.781  0.3833  0.2387  0.5462
  144MOL0     C19738   2.655   2.527   1.699  0.0921 -0.6145 -0.0097
  144MOL0     C19739   2.667   2.486   1.566 -0.0084 -0.7017  0.3156
  144MOL0     C19740   2.762   2.548   1.483  0.5576 -0.1544  0.0017
  144MOL0     C19741   2.807   2.673   1.529 -0.4514 -0.3950  0.4566
  144MOL0     O19742   2.864   2.744   1.429 -0.2027  0.3639  0.1391
  144MOL0     C19743   2.909   2.874   1.460 -0.2640 -0.0766  0.3554
  144MOL0     C19744   2.951   2.938   1.330  0.4964 -0.6168 -0.4538
  144MOL0     C19745   2.833   2.984   1.244  0.0876 -0.6479  1.2256
  144MOL0     C19746   2.890   3.045   1.115 -0.1730 -0.4962  0.0042
  144MOL0     C19747   2.800   3.163   1.075 -0.0737  0.0314  0.4830
  144MOL0     C19748   2.856   3.248   0.960  1.1423  1.4009  0.4390
  144MOL0     C19749   2.750   3.348   0.910  0.4113  0.7034 -0.1757
  144MOL0     C19750   2.767   3.396   0.766 -0.8681 -0.5656 -0.5903
  144MOL0     N19751   2.889   3.481   0.751 -0.3961  0.3722  0.1801
  144MOL0     C19752   2.970   3.521   0.859 -0.1864 -0.4445  0.7680
  144MOL0     C19753   3.086   3.579   0.809  0.9435 -0.3936 -0.2747
  144MOL0     C19754   3.192   3.640   0.888 -0.7192  0.1490 -0.2474
  144MOL0     C19755   3.328   3.648   0.826  0.6367  0.1821 -0.2885
  144MOL0     C19756   3.444   3.665   0.931  0.3214 -1.3392 -0.4674
  144MOL0     C19757   3.569   3.711   0.866 -0.5742  0.3775 -0.3013
  144MOL0     O19758   3.669   3.727   0.974  0.4200  0.1216  0.7031
  144MOL0     C19759   3.779   3.798   0.930  0.2500 -0.1526 -0.0438
  144MOL0     C19760   3.843   3.781   0.803  0.9759  0.1649 -1.0766
  144MOL0     C19761   3.971   3.840   0.780  0.7521  0.4553 -0.2913
  144MOL0     C19762   4.044   3.782   0.665 -0.7998  0.0768  0.3326
  144MOL0     C19763   4.028   3.933   0.873  0.5010  0.0181  1.0042
  144MOL0     C19764   4.167   3.994   0.855 -0.4940  0.4262  0.3280
  144MOL0     O19765   4.215   4.036   0.728  0.5602 -0.2968  0.3146
  144MOL0     C19766   4.331   4.113   0.717 -1.2901  0.1994 -0.9267
  144MOL0     C19767   4.351   4.229   0.797  0.3747 -0.1981 -1.0237
  144MOL0     C19768   4.466   4.303   0.785 -0.4896 -0.8455  0.1984
  144MOL0     C19769   4.564   4.267   0.693 -0.2039 -0.7303 -0.7355
  144MOL0     O19770   4.675   4.353   0.673  0.7866 -0.1753  0.4366
  144MOL0     C19771   4.799   4.300   0.701 -0.2034  0.0381 -0.4378
  144MOL0     C19772   4.841   4.289   0.851 -0.2459 -0.3903 -0.1586
  144MOL0     C19773   4.805   4.416   0.939  0.0876  0.4429 -0.3955
  144MOL0     C19774   4.856   4.549   0.882 -0.6011 -0.9067  0.2345
  144MOL0     C19775   5.005   4.576   0.845  0.4507  0.2535 -0.1340
  144MOL0     C19776   5.031   4.722   0.810  0.0948  0.1464  0.2792
  144MOL0     C19777   5.178   4.747   0.803  0.2030  0.7717 -0.6762
  144MOL0     C19778   5.231   4.681   0.679 -0.3514 -0.4446  0.2409
  144MOL0    Cl19779   5.410   4.694   0.673  0.4523 -0.4702 -0.0616
  144MOL0     C19780   4.553   4.147   0.622  0.0436  0.6030  0.5732
  144MOL0     C19781   4.442   4.072   0.635  0.4327  0.8955 -0.6924
  144MOL0     O19782   4.238   4.011   0.958  0.1878  0.5539 -0.2273
  144MOL0     C19783   3.954   3.951   0.991  0.1253  0.2832 -0.0687
  144MOL0     C19784   3.833   3.887   1.022  0.7230 -0.9921  0.2913
  144MOL0     N19785   3.066   3.576   0.676 -0.0913  0.8002 -0.1888
  144MOL0     N19786   2.955   3.512   0.639 -0.3118  0.2922  0.7180
  144MOL0     C19787   2.780   2.719   1.659  0.3368  0.3996  0.4229
  144MOL0     C19788   2.720   2.633   1.747 -1.1791 -0.0260 -0.2029
  144MOL0     C19789   2.349   2.445   1.884  0.3502  0.3736 -0.4367
  144MOL0     C19790   2.423   2.412   2.005 -0.1581  1.0247 -0.1929
  144MOL0     C19791   2.356   2.400   2.134 -0.1988 -0.0236  0.8116
  144MOL0     C19792   2.213   2.399   2.137 -0.4179 -0.4210  0.1847
  144MOL0     O19793   2.137   2.378   2.250 -1.0632 -0.7361  0.2948
  144MOL0     C19794   2.209   2.390   2.383  0.4161 -0.2044 -0.3645
  144MOL0     C19795   2.238   2.527   2.425 -0.6244  0.0814 -0.2057
  144MOL0     C19796   2.109   2.598   2.485  0.1944 -0.5474 -0.1794
  144MOL0     C19797   2.011   2.643   2.377  0.4416 -0.2649 -0.2372
  144MOL0     C19798   1.901   2.711   2.443 -0.5932  0.5700 -0.6295
  144MOL0     C19799   1.808   2.772   2.487 -0.6250 -0.1846  0.2418
  144MOL0     C19800   2.144   2.419   2.016 -0.4046  0.6493 -0.1221
  144MOL0     C19801   2.208   2.448   1.895  0.7495 -0.8191  0.2230
  144MOL0     C19802   2.120   2.503   1.782 -0.1491 -0.8689  0.9352
  144MOL0     H19803   2.615   2.397   1.531  2.4019 -1.5677 -1.2991
  144MOL0     H19804   2.782   2.507   1.385  1.4900  0.0993  0.0745
  144MOL0     H19805   2.999   2.872   1.522 -0.1747  1.1658  0.2934
  144MOL0     H19806   2.835   2.936   1.512  0.0791  2.0533 -1.5207
  144MOL0     H19807   3.026   3.017   1.338  1.5907 -1.6342 -0.3534
  144MOL0     H19808   3.005   2.862   1.272  0.0325 -0.8998 -0.5200
  144MOL0     H19809   2.781   2.892   1.215  1.5668 -1.3478  0.7104
  144MOL0     H19810   2.761   3.045   1.299  0.4301  1.3798 -0.4260
  144MOL0     H19811   2.988   3.091   1.135  1.0320 -2.7052 -0.5036
  144MOL0     H19812   2.899   2.981   1.027 -0.1234  0.6575 -0.8549
  144MOL0     H19813   2.778   3.228   1.161 -1.6059  0.3771 -0.1357
  144MOL0     H19814   2.708   3.116   1.039  0.0723 -1.9302  2.4686
  144MOL0     H19815   2.934   3.312   1.002  2.0028  1.2496 -0.8617
  144MOL0     H19816   2.898   3.199   0.872 -1.4646  1.9887 -1.2466
  144MOL0     H19817   2.727   3.424   0.986  2.2592 -0.4840  1.6959
  144MOL0     H19818   2.661   3.285   0.901  0.7005  0.0331  1.2689
  144MOL0     H19819   2.772   3.316   0.691  0.6624 -0.3192 -0.7884
  144MOL0     H19820   2.676   3.455   0.751  0.0244  1.1648  0.5829
  144MOL0     H19821   2.945   3.525   0.964  0.2651 -0.0079  0.8616
  144MOL0     H19822   3.201   3.578   0.979 -1.1301  1.4402  0.6960
  144MOL0     H19823   3.178   3.742   0.923  2.1129  1.0823 -1.5869
  144MOL0     H19824   3.353   3.571   0.752 -1.9099  0.1776 -1.2683
  144MOL0     H19825   3.315   3.740   0.768  1.6201  1.2700  1.1475
  144MOL0     H19826   3.426   3.743   1.006  1.6601 -0.1546 -1.3201
  144MOL0     H19827   3.466   3.573   0.987  2.9809  0.2162  1.2694
  144MOL0     H19828   3.603   3.640   0.791  1.1663  0.0662  0.7371
  144MOL0     H19829   3.559   3.809   0.818 -1.3930 -0.3916 -1.7592
  144MOL0     H19830   3.798   3.720   0.726  3.5714 -3.0100 -0.2681
  144MOL0     H19831   4.020   3.857   0.589 -1.1341  1.3636  1.6637
  144MOL0     H19832   4.005   3.682   0.640  0.3050  0.3196 -2.6849
  144MOL0     H19833   4.152   3.776   0.683 -0.4373 -1.4103 -1.9296
  144MOL0     H19834   4.290   4.276   0.874  1.6443  0.6578 -0.4986
  144MOL0     H19835   4.497   4.389   0.844  1.2706 -0.0847 -1.7127
  144MOL0     H19836   4.820   4.211   0.641 -2.0416 -1.2599  0.7934
  144MOL0     H19837   4.860   4.383   0.661 -0.3763  1.9000  2.8570
  144MOL0     H19838   4.804   4.196   0.894 -0.1354 -1.3946 -2.1222
  144MOL0     H19839   4.950   4.279   0.854 -0.2221 -2.1406 -3.2762
  144MOL0     H19840   4.855   4.407   1.035 -0.1245 -0.7513 -0.3794
  144MOL0     H19841   4.696   4.417   0.952 -0.1081  0.0643 -1.7805
  144MOL0     H19842   4.825   4.619   0.960  0.3225  0.7730 -0.8592
  144MOL0     H19843   4.807   4.581   0.789  1.4063 -0.4742 -0.7270
  144MOL0     H19844   5.066   4.551   0.932  0.1830  0.8958  0.2480
  144MOL0     H19845   5.027   4.513   0.758  1.2339  0.5064 -0.1312
  144MOL0     H19846   4.987   4.784   0.889  1.6318  0.5374  0.8581
  144MOL0     H19847   4.975   4.742   0.718  0.0217 -0.6988  0.1378
  144MOL0     H19848   5.231   4.725   0.895 -1.0287 -0.1081 -0.1506
  144MOL0     H19849   5.200   4.854   0.793  2.0670  0.5074  0.2441
  144MOL0     H19850   5.198   4.728   0.586  1.2096 -2.7981 -1.6376
  144MOL0     H19851   5.203   4.576   0.666  1.0808 -0.9748  1.1957
  144MOL0     H19852   4.626   4.115   0.549  0.0916  0.7039  0.5763
  144MOL0     H19853   4.420   3.988   0.570  0.6548 -1.1365  1.6734
  144MOL0     H19854   3.995   4.009   1.073 -0.6263 -0.5458  0.9198
  144MOL0     H19855   3.789   3.905   1.119 -1.2976  0.3617 -0.8061
  144MOL0     H19856   2.815   2.816   1.693 -0.7968  0.0750  2.6658
  144MOL0     H19857   2.694   2.656   1.850 -3.4371  2.7984 -1.2372
  144MOL0     H19858   2.531   2.405   2.004 -0.2678 -2.6145 -2.3601
  144MOL0     H19859   2.412   2.375   2.223  0.5792  0.6512  0.5177
  144MOL0     H19860   2.153   2.345   2.465  0.7187  0.8817  0.4723
  144MOL0     H19861   2.305   2.338   2.375  0.4008 -0.0710 -1.5352
  144MOL0     H19862   2.267   2.586   2.338  0.2886 -2.1692 -1.5104
  144MOL0     H19863   2.312   2.528   2.506  0.3481 -2.1732 -1.0044
  144MOL0     H19864   2.052   2.526   2.546 -0.7992  0.5744  0.2565
  144MOL0     H19865   2.135   2.689   2.539 -1.8102  0.7320 -1.2678
  144MOL0     H19866   1.972   2.560   2.318  0.4960 -2.4015  2.4833
  144MOL0     H19867   2.057   2.713   2.307  1.7062  0.5822  1.3594
  144MOL0     H19868   1.719   2.818   2.524 -0.2125  1.6119 -0.8710
  144MOL0     H19869   2.036   2.423   2.009 -0.5148 -0.0478  1.0194
  144MOL0     H19870   2.160   2.598   1.744 -0.9158 -1.0071 -0.2658
  144MOL0     H19871   2.120   2.438   1.695 -2.0434  0.5362 -0.1910
  144MOL0     H19872   2.014   2.505   1.806 -0.3963  0.4396 -0.1133
  145MOL0     O19873   0.778   7.517   6.253 -0.6673  0.2956  0.1019
  145MOL0     C19874   0.781   7.456   6.145 -0.1441 -0.0291 -0.0384
  145MOL0     O19875   0.862   7.344   6.128 -0.0584 -0.0128 -0.6636
  145MOL0     C19876   0.974   7.317   6.205 -0.1579 -0.2344 -1.2111
  145MOL0     C19877   1.080   7.416   6.223  0.4407 -0.9808 -0.7796
  145MOL0     C19878   1.197   7.380   6.289 -0.0298  0.3257 -0.0212
  145MOL0     C19879   1.214   7.245   6.327 -0.5865  0.3806 -0.0211
  145MOL0     O19880   1.322   7.199   6.384  0.1330 -0.2790 -0.5790
  145MOL0     C19881   1.452   7.273   6.382  0.1276  0.8567  0.1939
  145MOL0     C19882   1.555   7.204   6.472  0.2457  0.5918 -0.4560
  145MOL0     C19883   1.701   7.235   6.431  0.2743 -0.1918 -0.7339
  145MOL0     C19884   1.801   7.169   6.526  0.3803 -1.4440  0.1318
  145MOL0     C19885   1.936   7.203   6.483  0.9352  0.1151 -0.0543
  145MOL0     C19886   2.034   7.155   6.587  0.7351  1.5682 -0.3038
  145MOL0     C19887   2.171   7.177   6.524  0.3022 -0.2032 -1.0450
  145MOL0     C19888   2.292   7.141   6.619  0.5559 -0.0435  0.2861
  145MOL0     N19889   2.421   7.150   6.550  0.2515 -0.1830 -0.2073
  145MOL0     C19890   2.489   7.263   6.516  0.2785  0.1035  0.2248
  145MOL0     C19891   2.601   7.218   6.451 -0.5734  0.1446  0.1738
  145MOL0     C19892   2.704   7.316   6.381  0.3432  0.5890  0.4084
  145MOL0     C19893   2.842   7.245   6.378  0.4118  0.2076  0.1296
  145MOL0     C19894   2.909   7.225   6.517 -0.4407 -0.5997 -0.4619
  145MOL0     C19895   3.059   7.197   6.510  0.3296  0.2301  0.6779
  145MOL0     O19896   3.131   7.282   6.425  0.4363 -0.0806  0.2941
  145MOL0     C19897   3.248   7.358   6.452  0.7449  0.1746  0.4524
  145MOL0     C19898   3.288   7.436   6.344  0.3258  0.0488  0.3079
  145MOL0     C19899   3.409   7.504   6.359  0.5414 -0.1386  0.6762
  145MOL0     C19900   3.466   7.568   6.234 -0.8544  0.5036  0.4467
  145MOL0     C19901   3.478   7.516   6.481  0.4855  0.0290 -0.8329
  145MOL0     C19902   3.600   7.593   6.509  0.0274  0.0845  0.5436
  145MOL0     O19903   3.690   7.541   6.597 -0.3697  0.4334  1.2073
  145MOL0     C19904   3.803   7.614   6.627 -0.5660  0.2729 -0.1343
  145MOL0     C19905   3.784   7.722   6.706 -0.1605 -0.6514  0.9398
  145MOL0     C19906   3.896   7.796   6.748  0.9994 -0.7466  0.0868
  145MOL0     C19907   4.027   7.769   6.697  0.7883  0.7483  0.5330
  145MOL0     O19908   4.127   7.852   6.734  0.1050  0.2591  0.0956
  145MOL0     C19909   4.240   7.870   6.652 -1.7065 -0.2313  0.2044
  145MOL0     C19910   4.337   7.962   6.724  0.7273 -0.3273 -0.6230
  145MOL0     C19911   4.469   7.997   6.664  0.6117 -0.1417  1.0093
  145MOL0     C19912   4.589   8.033   6.753 -0.5132 -0.0485 -0.1900
  145MOL0     C19913   4.714   8.050   6.670 -0.3349 -0.2563 -0.0926
  145MOL0     C19914   4.837   8.052   6.762  0.3122  0.2340 -0.4861
  145MOL0     C19915   4.828   8.151   6.884 -0.7146  0.1328 -0.4670
  145MOL0     C19916   4.972   8.209   6.897 -0.1574  0.1293  0.7907
  145MOL0    Cl19917   5.074   8.080   6.965 -0.2440  0.3614  0.3493
  145MOL0     C19918   4.048   7.656   6.610 -0.9907  0.0659 -0.8737
  145MOL0     C19919   3.932   7.580   6.579  0.3292 -0.0453  0.5827
  145MOL0     O19920   3.610   7.704   6.449  0.5569  0.3582  0.0871
  145MOL0     C19921   3.430   7.432   6.583  0.3364 -0.0244  0.3344
  145MOL0     C19922   3.317   7.360   6.569 -0.1852  0.3857 -0.4582
  145MOL0     N19923   2.593   7.079   6.442 -0.7611 -0.0833  0.0637
  145MOL0     N19924   2.497   7.040   6.518  0.9518  0.6242  0.0763
  145MOL0     C19925   1.116   7.154   6.318 -0.2363  0.0614 -0.5277
  145MOL0     C19926   0.992   7.190   6.252  0.1374  0.2335  0.2386
  145MOL0     C19927   0.699   7.519   6.035 -0.4956 -0.2197  0.4538
  145MOL0     C19928   0.622   7.634   6.069  0.0929  0.2012 -0.2598
  145MOL0     C19929   0.560   7.706   5.967 -0.0656  0.1593 -0.5561
  145MOL0     C19930   0.559   7.658   5.837  0.2759  0.3873 -0.0240
  145MOL0     O19931   0.488   7.726   5.745 -0.4150  0.2845 -1.0951
  145MOL0     C19932   0.382   7.817   5.786 -0.0103  0.2789 -0.0893
  145MOL0     C19933   0.291   7.828   5.665 -1.0722  0.0260  0.3387
  145MOL0     C19934   0.174   7.916   5.703 -0.3581 -0.0173 -0.0549
  145MOL0     C19935   0.066   7.928   5.597  0.0947  0.0895  0.0173
  145MOL0     C19936  -0.063   7.961   5.659  0.5642 -0.5398  0.1240
  145MOL0     C19937  -0.176   7.989   5.690  0.4600 -0.0998  0.3040
  145MOL0     C19938   0.638   7.556   5.803  0.4225  0.2853  0.0065
  145MOL0     C19939   0.713   7.485   5.901  0.3145  0.5014  0.8751
  145MOL0     C19940   0.785   7.357   5.854  0.6344 -0.1664 -0.3122
  145MOL0     H19941   1.073   7.515   6.180  1.6749 -1.3850 -1.9708
  145MOL0     H19942   1.279   7.451   6.295 -0.2293  0.9045 -2.6265
  145MOL0     H19943   1.447   7.374   6.424 -2.7496  0.7373  0.3429
  145MOL0     H19944   1.502   7.273   6.285  1.3816  2.2678  0.8133
  145MOL0     H19945   1.536   7.232   6.576 -2.1343 -2.8018  0.1970
  145MOL0     H19946   1.551   7.097   6.452 -1.4786  0.4869  0.2909
  145MOL0     H19947   1.709   7.199   6.328 -3.8146 -1.4876 -0.7900
  145MOL0     H19948   1.705   7.344   6.433  0.8548 -0.2180  0.7772
  145MOL0     H19949   1.793   7.219   6.623  1.4067  0.8808 -0.8970
  145MOL0     H19950   1.788   7.061   6.524 -0.1551 -1.3733 -0.8706
  145MOL0     H19951   1.946   7.310   6.466  1.7245 -0.1912 -1.7698
  145MOL0     H19952   1.953   7.162   6.383  1.0406  3.0287 -1.3189
  145MOL0     H19953   2.028   7.212   6.681 -2.0839  1.6070 -0.4336
  145MOL0     H19954   2.019   7.048   6.602 -1.1810  2.0214  1.5695
  145MOL0     H19955   2.190   7.282   6.501 -0.0069 -0.1899 -1.2421
  145MOL0     H19956   2.168   7.123   6.429 -0.5098  0.7120 -1.5490
  145MOL0     H19957   2.294   7.211   6.703  3.2888  0.9859 -0.5295
  145MOL0     H19958   2.271   7.043   6.662 -1.4856 -0.0908 -0.6859
  145MOL0     H19959   2.452   7.365   6.517 -0.3968 -0.1350  0.1631
  145MOL0     H19960   2.706   7.411   6.435  0.7324  1.6258 -1.3408
  145MOL0     H19961   2.668   7.356   6.285 -0.4116  0.9104  0.8126
  145MOL0     H19962   2.836   7.152   6.320 -1.6108  1.8302 -2.5437
  145MOL0     H19963   2.906   7.305   6.312 -0.4058 -2.2364 -3.1455
  145MOL0     H19964   2.892   7.312   6.580 -1.5496  0.2959 -1.9360
  145MOL0     H19965   2.856   7.138   6.558  0.1583  0.1249  2.0072
  145MOL0     H19966   3.089   7.209   6.615 -0.4232 -1.9665  1.1778
  145MOL0     H19967   3.090   7.093   6.497 -1.4730 -0.2737  0.2700
  145MOL0     H19968   3.234   7.435   6.249 -2.9706  4.6473  1.7478
  145MOL0     H19969   3.475   7.677   6.236 -3.0994  1.0112 -3.9608
  145MOL0     H19970   3.404   7.549   6.146 -0.5428  0.6272  0.1982
  145MOL0     H19971   3.565   7.531   6.205 -0.9261  2.1693 -2.2770
  145MOL0     H19972   3.678   7.734   6.725 -0.2452  1.8184 -0.5835
  145MOL0     H19973   3.875   7.883   6.809  2.0688  0.2907 -0.9626
  145MOL0     H19974   4.295   7.776   6.638 -1.1031 -0.0579  1.2655
  145MOL0     H19975   4.217   7.919   6.558  0.9546 -0.4818 -0.6526
  145MOL0     H19976   4.292   8.060   6.747  0.2509 -0.3641 -1.3578
  145MOL0     H19977   4.362   7.918   6.820  0.1153 -0.2790 -0.4366
  145MOL0     H19978   4.454   8.071   6.585  2.7897 -2.0538 -1.3796
  145MOL0     H19979   4.492   7.907   6.606 -0.7171  0.6092 -0.7496
  145MOL0     H19980   4.599   7.953   6.828  0.7364  1.4007  1.2584
  145MOL0     H19981   4.553   8.125   6.798 -1.3447 -0.2141 -0.5047
  145MOL0     H19982   4.729   7.964   6.605 -0.9195 -0.0795 -0.4706
  145MOL0     H19983   4.722   8.146   6.617  0.3534  0.6161  1.5024
  145MOL0     H19984   4.921   8.076   6.695  2.1102 -2.2468  0.7013
  145MOL0     H19985   4.852   7.951   6.800  1.3147  0.5476 -0.0048
  145MOL0     H19986   4.800   8.104   6.978  1.3326 -1.1131 -0.4188
  145MOL0     H19987   4.757   8.231   6.858 -0.7024 -0.1068 -1.2751
  145MOL0     H19988   4.978   8.299   6.959 -1.4830  0.2151  0.8167
  145MOL0     H19989   5.010   8.233   6.797 -3.3384  0.2020 -0.5159
  145MOL0     H19990   4.149   7.634   6.578 -0.4705 -1.9522  1.8037
  145MOL0     H19991   3.940   7.502   6.504 -2.9385 -0.2414  0.2933
  145MOL0     H19992   3.466   7.434   6.685  1.3431 -1.5413  0.0440
  145MOL0     H19993   3.285   7.291   6.646  0.3455 -1.6800 -1.9819
  145MOL0     H19994   1.128   7.047   6.337  1.4358  0.1490 -0.9183
  145MOL0     H19995   0.906   7.127   6.238  1.9345 -2.2927 -0.0352
  145MOL0     H19996   0.606   7.677   6.167  0.3466  1.3270 -0.6932
  145MOL0     H19997   0.511   7.796   6.004 -1.7889 -2.1641  3.5023
  145MOL0     H19998   0.320   7.776   5.866  0.2180  0.1302  0.0124
  145MOL0     H19999   0.424   7.913   5.817 -2.5981  0.9241  1.8250
  145MOL0     H20000   0.251   7.730   5.638 -0.8722 -0.5539  2.0134
  145MOL0     H20001   0.350   7.881   5.590 -2.3821 -0.5060 -1.1281
  145MOL0     H20002   0.132   7.874   5.794 -0.8614  2.5068  0.9465
  145MOL0     H20003   0.209   8.014   5.737  1.9780 -1.3153  1.5556
  145MOL0     H20004   0.073   7.832   5.545  0.2795 -2.0433  3.6559
  145MOL0     H20005   0.092   8.010   5.528  6.1346  0.4974  2.1607
  145MOL0     H20006  -0.277   8.014   5.716  0.7292 -1.3937  2.8898
  145MOL0     H20007   0.625   7.528   5.699 -0.6026 -2.0314  0.6856
  145MOL0     H20008   0.765   7.348   5.747 -0.9488 -1.6804  0.0652
  145MOL0     H20009   0.893   7.359   5.871  0.7460 -0.4423 -0.9497
  145MOL0     H20010   0.751   7.265   5.902  1.0805  0.0222  0.3727
  146MOL0     O20011   9.251   9.557   9.861 -0.0973  0.8301 -0.0136
  146MOL0     C20012   9.276   9.567   9.981 -0.1878 -0.2301  1.2385
  146MOL0     O20013   9.375   9.507  10.039 -0.4088  0.5067 -0.1913
  146MOL0     C20014   9.472   9.450   9.965 -0.3446 -0.1174  0.0513
  146MOL0     C20015   9.572   9.537   9.920  0.4269  0.2012  0.2387
  146MOL0     C20016   9.690   9.490   9.860  0.0011  0.2915 -0.1553
  146MOL0     C20017   9.707   9.348   9.839 -0.7158  0.1895 -0.3542
  146MOL0     O20018   9.819   9.310   9.765 -0.1375  0.1516  0.2428
  146MOL0     C20019   9.829   9.166   9.745 -0.5592 -0.4818  0.5413
  146MOL0     C20020   9.973   9.131   9.693  0.7162 -0.5398 -1.1563
  146MOL0     C20021  10.066   9.138   9.814 -0.7014 -0.5264  0.2089
  146MOL0     C20022  10.196   9.119   9.756 -0.4768 -0.6013 -0.0236
  146MOL0     C20023  10.302   9.154   9.857 -0.1601 -0.2337  0.2576
  146MOL0     C20024  10.285   9.060   9.984  0.0339 -0.3081  0.5077
  146MOL0     C20025  10.415   9.054  10.056 -0.5662 -0.3001  0.2675
  146MOL0     C20026  10.420   8.959  10.174  0.4613 -0.4308 -0.3140
  146MOL0     N20027  10.547   8.974  10.245  0.1870  0.0243  0.0349
  146MOL0     C20028  10.677   8.943  10.199  1.0529 -0.5510  0.0750
  146MOL0     C20029  10.765   9.007  10.286  0.5303  0.4399  0.0645
  146MOL0     C20030  10.911   9.008  10.274 -0.0962 -0.7254 -0.4703
  146MOL0     C20031  10.947   9.139  10.197  0.1764  0.6573  0.3000
  146MOL0     C20032  11.094   9.140  10.145 -0.4121  0.6133 -0.0912
  146MOL0     C20033  11.203   9.133  10.252 -0.2913 -0.4814 -0.5531
  146MOL0     O20034  11.208   9.246  10.348  0.0936  0.1666 -0.1924
  146MOL0     C20035  11.338   9.293  10.377 -0.3039  0.2479 -1.0503
  146MOL0     C20036  11.439   9.204  10.416 -1.0070 -0.2014  0.0744
  146MOL0     C20037  11.570   9.249  10.451  1.1915 -0.1036 -0.8760
  146MOL0     C20038  11.666   9.144  10.500 -0.4224 -0.2363 -0.3630
  146MOL0     C20039  11.600   9.388  10.436 -1.2904  0.5675  1.0689
  146MOL0     C20040  11.742   9.439  10.442  0.4717  0.0142  0.3422
  146MOL0     O20041  11.765   9.562  10.385  0.0384 -0.7418 -0.1592
  146MOL0     C20042  11.898   9.600  10.398 -0.4114  0.0265 -0.7081
  146MOL0     C20043  11.943   9.682  10.502 -0.0666  0.2132 -0.1407
  146MOL0     C20044  12.079   9.716  10.519  0.2558  0.4660 -0.2249
  146MOL0     C20045  12.173   9.667  10.429 -1.0359  0.0539 -0.6562
  146MOL0     O20046  12.303   9.695  10.459  0.0950  0.3630  0.1078
  146MOL0     C20047  12.402   9.613  10.398  0.2690 -0.8389  0.0145
  146MOL0     C20048  12.534   9.667  10.462 -0.7170 -0.6437 -0.0080
  146MOL0     C20049  12.598   9.778  10.361  0.2847 -0.0326 -0.2759
  146MOL0     C20050  12.742   9.807  10.398  0.3306 -0.1665  0.6933
  146MOL0     C20051  12.781   9.942  10.335 -0.5514 -0.3155  0.5263
  146MOL0     C20052  12.929   9.981  10.372  0.1131  0.3871 -0.6234
  146MOL0     C20053  12.967  10.119  10.335  0.7313 -0.3992  0.4352
  146MOL0     C20054  12.927  10.164  10.194  0.2385 -0.4810  0.5365
  146MOL0    Cl20055  13.004  10.335  10.184  0.3384  0.2748  0.2818
  146MOL0     C20056  12.125   9.605  10.308  0.1760  0.4523  0.7369
  146MOL0     C20057  11.995   9.564  10.298  0.0696 -0.3674 -0.0086
  146MOL0     O20058  11.826   9.376  10.500  0.5560  0.6699  0.4967
  146MOL0     C20059  11.501   9.477  10.388  1.0278 -0.4551 -0.6204
  146MOL0     C20060  11.374   9.431  10.358  0.5640  0.0659 -0.6482
  146MOL0     N20061  10.681   9.067  10.379  0.2408  0.4488 -0.5419
  146MOL0     N20062  10.560   9.044  10.357 -0.0200 -0.0883 -0.0731
  146MOL0     C20063   9.603   9.263   9.886 -0.1682 -0.0107 -0.9703
  146MOL0     C20064   9.488   9.314   9.944  0.6594 -0.4965 -0.4600
  146MOL0     C20065   9.207   9.671  10.059  0.1443  0.3150 -0.2784
  146MOL0     C20066   9.174   9.620  10.191  0.5178  0.1115 -1.4697
  146MOL0     C20067   9.102   9.704  10.275  0.0352 -0.7709 -0.5213
  146MOL0     C20068   9.044   9.831  10.229  0.1086  1.0329 -0.0900
  146MOL0     O20069   8.959   9.901  10.302 -0.1890 -0.6182 -0.4338
  146MOL0     C20070   8.825   9.862  10.292 -0.4992 -0.0403 -0.2294
  146MOL0     C20071   8.771   9.762  10.399 -0.2642 -0.7457 -0.9609
  146MOL0     C20072   8.792   9.810  10.549  0.0279  0.5057  0.6364
  146MOL0     C20073   8.661   9.786  10.635 -0.8095 -0.0805 -0.1725
  146MOL0     C20074   8.677   9.796  10.772  0.0765 -0.9833 -0.6808
  146MOL0     C20075   8.700   9.822  10.889 -0.5539 -0.5714  0.6460
  146MOL0     C20076   9.079   9.874  10.102 -0.0154  0.2899  0.4678
  146MOL0     C20077   9.157   9.796  10.014  0.0189 -0.2907 -0.2181
  146MOL0     C20078   9.179   9.847   9.874 -0.4073  0.2096  0.0134
  146MOL0     H20079   9.577   9.643   9.938  2.7574  0.0077  1.1896
  146MOL0     H20080   9.778   9.550   9.836 -0.3510  1.5305  1.4029
  146MOL0     H20081   9.761   9.132   9.667  2.8030 -0.1158 -2.8135
  146MOL0     H20082   9.815   9.101   9.832  3.3319 -1.3152  0.6978
  146MOL0     H20083   9.968   9.031   9.648  1.8447  0.1475 -2.9183
  146MOL0     H20084  10.000   9.206   9.618 -2.0534  0.9799 -0.7668
  146MOL0     H20085  10.058   9.234   9.865 -1.2115 -0.5473  0.1732
  146MOL0     H20086  10.039   9.061   9.887 -0.2084  1.0929  2.1988
  146MOL0     H20087  10.214   9.014   9.732  0.8126 -0.5997  0.8446
  146MOL0     H20088  10.207   9.182   9.667 -0.5982 -1.1827 -0.4520
  146MOL0     H20089  10.290   9.256   9.895 -1.4934 -0.8377  1.5491
  146MOL0     H20090  10.405   9.148   9.821  0.4278 -0.1252  1.8837
  146MOL0     H20091  10.198   9.098  10.037  0.0844  1.9571 -0.9039
  146MOL0     H20092  10.270   8.955   9.955  2.5847 -0.5137 -0.3159
  146MOL0     H20093  10.433   9.154  10.096 -0.2360 -1.1987  2.5150
  146MOL0     H20094  10.492   9.021   9.985 -1.5369 -2.5932  0.1783
  146MOL0     H20095  10.339   8.973  10.247  0.7956 -0.8389  0.1426
  146MOL0     H20096  10.416   8.855  10.138 -0.3379 -0.9986  1.3032
  146MOL0     H20097  10.698   8.886  10.108  0.9593  0.8617 -0.8613
  146MOL0     H20098  10.937   8.915  10.223  1.6267 -0.8801  0.6055
  146MOL0     H20099  10.960   9.002  10.372 -1.3794 -2.7127  0.0995
  146MOL0     H20100  10.880   9.154  10.111  1.4560  1.9668 -0.5214
  146MOL0     H20101  10.941   9.232  10.254  1.2040  0.9273 -0.0065
  146MOL0     H20102  11.104   9.059  10.073  0.2002  2.1566 -1.8048
  146MOL0     H20103  11.097   9.239  10.101 -1.3061  1.1131  0.9115
  146MOL0     H20104  11.193   9.039  10.307 -2.3805  0.8721  1.6020
  146MOL0     H20105  11.301   9.127  10.204  0.9710 -2.2019  2.0390
  146MOL0     H20106  11.405   9.102  10.429  0.7016 -0.9573 -0.9999
  146MOL0     H20107  11.615   9.055  10.537 -2.2889  0.0048 -2.1509
  146MOL0     H20108  11.724   9.178  10.586  1.9476 -3.4476 -0.5282
  146MOL0     H20109  11.748   9.123  10.431  0.0649  2.5533 -0.7365
  146MOL0     H20110  11.873   9.704  10.583  1.0420  0.0877  0.8734
  146MOL0     H20111  12.103   9.773  10.607  2.2343 -1.2715  0.4281
  146MOL0     H20112  12.377   9.511  10.429 -0.0154 -1.0788 -0.9681
  146MOL0     H20113  12.403   9.616  10.289 -1.5367 -0.9825 -0.0320
  146MOL0     H20114  12.520   9.713  10.560 -2.1302  0.5245 -0.7152
  146MOL0     H20115  12.606   9.585  10.465  0.6377  0.5460  2.0249
  146MOL0     H20116  12.547   9.875  10.373  2.4600  0.9701  1.5348
  146MOL0     H20117  12.570   9.762  10.257 -2.2961 -1.4480  0.5476
  146MOL0     H20118  12.804   9.729  10.351 -1.1206 -1.3942  0.7196
  146MOL0     H20119  12.755   9.812  10.506 -0.3929 -0.8484  0.8272
  146MOL0     H20120  12.774   9.933  10.227  1.3554  0.7137  0.2839
  146MOL0     H20121  12.718  10.021  10.377  0.2559  0.2913  0.6136
  146MOL0     H20122  13.003   9.919  10.321  1.3338 -0.8710  2.4739
  146MOL0     H20123  12.950   9.962  10.478  1.2101 -0.3419 -0.9612
  146MOL0     H20124  13.076  10.121  10.341  0.7245 -2.1055  2.8368
  146MOL0     H20125  12.922  10.194  10.401 -0.3096 -1.7003  1.2801
  146MOL0     H20126  12.818  10.166  10.183  0.1046 -0.2135  1.7636
  146MOL0     H20127  12.970  10.094  10.122 -1.9310 -0.2333 -1.1041
  146MOL0     H20128  12.187   9.568  10.228  0.3405 -1.8938  1.8751
  146MOL0     H20129  11.957   9.514  10.210  0.4586 -2.5850  1.0138
  146MOL0     H20130  11.521   9.582  10.370  1.3585 -0.3060  0.5401
  146MOL0     H20131  11.289   9.493  10.330  0.8302  0.7279 -0.0233
  146MOL0     H20132   9.604   9.159   9.856  1.2750  0.5714 -3.1914
  146MOL0     H20133   9.404   9.250   9.973  2.7476 -2.8041  0.8568
  146MOL0     H20134   9.222   9.532  10.233 -2.2339 -0.7164  0.2544
  146MOL0     H20135   9.086   9.669  10.377 -2.6748  1.1823 -0.1501
  146MOL0     H20136   8.759   9.949  10.292  0.5052  0.7964 -2.1559
  146MOL0     H20137   8.810   9.824  10.190 -0.1243 -0.5009 -0.1167
  146MOL0     H20138   8.836   9.674  10.389 -0.3144 -1.1386  1.4550
  146MOL0     H20139   8.669   9.728  10.378 -1.9510  2.6295  0.9507
  146MOL0     H20140   8.878   9.760  10.593 -1.4701 -1.8384  1.1243
  146MOL0     H20141   8.809   9.918  10.550 -0.6368  0.6758 -1.4067
  146MOL0     H20142   8.611   9.695  10.601 -1.4350  0.0644  0.3293
  146MOL0     H20143   8.599   9.869  10.600  0.6326  0.8531 -0.6162
  146MOL0     H20144   8.715   9.859  10.988 -1.0859  3.7448 -0.6598
  146MOL0     H20145   9.032   9.968  10.073 -1.3318  0.9094  4.1447
  146MOL0     H20146   9.112   9.809   9.797  1.1853  0.3072 -1.4710
  146MOL0     H20147   9.175   9.956   9.877  0.5960  0.2327  0.9076
  146MOL0     H20148   9.270   9.801   9.836  0.3905  0.1646  1.8779
  147MOL0     O20149   5.114   6.444   8.483 -0.6460  0.1459 -0.5575
  147MOL0     C20150   5.062   6.528   8.410  0.0333  0.8501  0.0263
  147MOL0     O20151   5.129   6.596   8.312 -0.3535 -0.9795 -0.2979
  147MOL0     C20152   5.256   6.570   8.289 -0.4316  0.1835  0.8755
  147MOL0     C20153   5.298   6.463   8.212 -0.7302  0.8447 -0.4972
  147MOL0     C20154   5.434   6.432   8.199  0.2331  0.4567 -0.1667
  147MOL0     C20155   5.533   6.512   8.264 -0.1416  0.2422 -0.3178
  147MOL0     O20156   5.669   6.488   8.263 -1.0611  0.2593  0.3830
  147MOL0     C20157   5.714   6.403   8.161  0.5314  0.0299 -0.1185
  147MOL0     C20158   5.866   6.391   8.142 -0.1168 -0.6288  0.3363
  147MOL0     C20159   5.899   6.314   8.019  0.4612 -0.2014  0.4860
  147MOL0     C20160   5.909   6.162   8.040  1.1344 -0.2479  0.1302
  147MOL0     C20161   5.979   6.104   7.918  0.6053 -0.2234 -0.3812
  147MOL0     C20162   6.018   5.955   7.943 -0.1154  0.3635  0.5760
  147MOL0     C20163   6.114   5.888   7.836 -0.0964 -0.6407 -0.4172
  147MOL0     C20164   6.250   5.946   7.851 -0.4541 -1.3238 -0.4200
  147MOL0     N20165   6.350   5.859   7.800 -0.1298  0.2610 -0.3023
  147MOL0     C20166   6.460   5.812   7.866 -0.4191  1.2104  0.1588
  147MOL0     C20167   6.547   5.772   7.774 -0.0447  0.6098 -0.3209
  147MOL0     C20168   6.699   5.734   7.779  1.2039  0.4368  0.3372
  147MOL0     C20169   6.784   5.843   7.842 -0.3718  0.1655 -0.5700
  147MOL0     C20170   6.919   5.774   7.886  0.1059 -0.6739  0.3646
  147MOL0     C20171   6.993   5.694   7.768  0.3724 -0.7757 -0.2530
  147MOL0     O20172   7.131   5.690   7.815  0.6733  0.3505 -0.1966
  147MOL0     C20173   7.222   5.620   7.749  0.6349  0.0316  0.7882
  147MOL0     C20174   7.196   5.541   7.631 -1.0165 -0.6947  0.3486
  147MOL0     C20175   7.307   5.468   7.561 -0.3042 -0.2731 -0.1628
  147MOL0     C20176   7.263   5.379   7.435 -0.1309 -0.3890 -0.1083
  147MOL0     C20177   7.436   5.473   7.626  0.4379 -0.8855  0.2617
  147MOL0     C20178   7.552   5.391   7.575 -0.2337 -0.2146 -0.1756
  147MOL0     O20179   7.669   5.436   7.612 -0.5571 -0.2074 -0.8452
  147MOL0     C20180   7.773   5.448   7.520  0.5424  0.1057  0.4504
  147MOL0     C20181   7.906   5.441   7.558 -0.0102 -0.6942 -0.2424
  147MOL0     C20182   8.011   5.475   7.467 -0.0094 -0.2856 -0.4016
  147MOL0     C20183   7.985   5.510   7.340  0.1643  0.6297  0.6534
  147MOL0     O20184   8.085   5.533   7.254  0.3931  0.4312 -0.3815
  147MOL0     C20185   8.056   5.525   7.116  0.6488  0.1901  0.5773
  147MOL0     C20186   8.189   5.532   7.045  0.2652  0.2180 -0.3899
  147MOL0     C20187   8.253   5.672   7.060  0.3900  0.1504 -0.1371
  147MOL0     C20188   8.366   5.689   6.958 -0.0841  0.0874  0.4395
  147MOL0     C20189   8.466   5.801   6.990 -0.3453  0.4680 -0.1261
  147MOL0     C20190   8.584   5.767   7.090  0.5796  0.1629  0.4465
  147MOL0     C20191   8.533   5.747   7.234 -0.4258 -0.1275  0.6017
  147MOL0     C20192   8.646   5.753   7.334  0.2024  0.0696  0.2494
  147MOL0    Cl20193   8.785   5.637   7.295 -0.8587  0.0833 -0.2438
  147MOL0     C20194   7.852   5.511   7.291  1.0457  0.8763 -1.1107
  147MOL0     C20195   7.751   5.479   7.383 -0.0484 -0.2602 -0.1078
  147MOL0     O20196   7.534   5.301   7.498 -0.4204 -0.3832  0.9456
  147MOL0     C20197   7.456   5.545   7.745  0.5129 -0.2171 -0.7872
  147MOL0     C20198   7.347   5.615   7.804  0.2457 -0.2953  0.1071
  147MOL0     N20199   6.476   5.773   7.650 -0.3259  0.4745 -0.1788
  147MOL0     N20200   6.371   5.841   7.671 -0.5330 -0.5968 -0.1483
  147MOL0     C20201   5.488   6.621   8.332  1.3418  0.2200 -0.5907
  147MOL0     C20202   5.348   6.650   8.348  0.2455  0.2571  0.3417
  147MOL0     C20203   4.916   6.558   8.412 -0.0488 -0.0712 -0.9198
  147MOL0     C20204   4.847   6.588   8.286 -0.2447  0.6785 -0.8464
  147MOL0     C20205   4.710   6.610   8.279 -0.5583 -0.0764 -0.3644
  147MOL0     C20206   4.640   6.610   8.394  1.0744  0.4098  0.0688
  147MOL0     O20207   4.506   6.649   8.407  0.7048 -0.4202 -0.7513
  147MOL0     C20208   4.433   6.708   8.296 -0.2864  0.2038  0.5685
  147MOL0     C20209   4.282   6.704   8.317 -0.1242  0.1419  0.3084
  147MOL0     C20210   4.230   6.560   8.308 -0.2864  0.1740  0.8335
  147MOL0     C20211   4.271   6.474   8.427  0.5496  0.4917 -0.9128
  147MOL0     C20212   4.196   6.531   8.543 -0.7229  0.1131  0.0070
  147MOL0     C20213   4.137   6.573   8.636 -0.1023  0.4517 -0.5222
  147MOL0     C20214   4.700   6.582   8.516  0.2649  0.0448 -0.3007
  147MOL0     C20215   4.835   6.559   8.526  0.5212  0.1968 -1.0516
  147MOL0     C20216   4.897   6.535   8.657  0.1637 -0.2015 -0.7960
  147MOL0     H20217   5.222   6.404   8.163  2.6411 -2.3222 -2.3933
  147MOL0     H20218   5.462   6.338   8.152  1.2957  1.8379 -2.4796
  147MOL0     H20219   5.657   6.443   8.077  1.4629  4.7783  1.2321
  147MOL0     H20220   5.678   6.304   8.190 -2.3559  1.2612  0.8818
  147MOL0     H20221   5.905   6.494   8.143 -0.1406 -0.5791 -1.1606
  147MOL0     H20222   5.909   6.329   8.221  1.2213 -4.7485 -3.2320
  147MOL0     H20223   5.828   6.336   7.938  0.0569  0.4964  1.0249
  147MOL0     H20224   5.995   6.355   7.989 -0.8421  1.2491 -2.0855
  147MOL0     H20225   5.960   6.150   8.136  1.3490  2.0444  0.3676
  147MOL0     H20226   5.808   6.118   8.036  2.0028 -2.2993 -0.4687
  147MOL0     H20227   6.067   6.165   7.894  0.1981 -0.7354 -3.5626
  147MOL0     H20228   5.914   6.104   7.830  2.2194 -0.6011 -1.6241
  147MOL0     H20229   6.053   5.946   8.046 -1.6090  2.3483  1.3260
  147MOL0     H20230   5.929   5.893   7.934 -0.6867  1.3850 -1.5651
  147MOL0     H20231   6.086   5.893   7.730 -1.0097  1.4719 -0.1317
  147MOL0     H20232   6.125   5.783   7.864  2.4738 -0.4419 -0.4557
  147MOL0     H20233   6.259   6.041   7.796  1.2801 -0.6600  0.9415
  147MOL0     H20234   6.265   5.968   7.957 -2.3352  1.8924 -0.6943
  147MOL0     H20235   6.482   5.827   7.971  0.0074  0.3105  0.2071
  147MOL0     H20236   6.736   5.713   7.678 -0.2260  0.8618 -0.2860
  147MOL0     H20237   6.705   5.643   7.840 -1.1141 -0.3763 -0.5447
  147MOL0     H20238   6.792   5.923   7.769  0.3401 -0.5522 -1.3007
  147MOL0     H20239   6.727   5.879   7.928  0.7115 -0.7747  0.5890
  147MOL0     H20240   6.980   5.861   7.913 -3.8990  2.4559  0.2633
  147MOL0     H20241   6.909   5.725   7.983  0.4137  0.6699  1.1082
  147MOL0     H20242   6.952   5.594   7.747 -2.8361  0.7399 -1.9020
  147MOL0     H20243   6.978   5.760   7.683 -2.7600 -3.1437 -1.7218
  147MOL0     H20244   7.103   5.542   7.574 -0.9775 -1.4056  0.2712
  147MOL0     H20245   7.334   5.389   7.353 -0.4744  0.1700 -0.3443
  147MOL0     H20246   7.159   5.375   7.400 -0.3026 -0.4868  0.3983
  147MOL0     H20247   7.267   5.273   7.460 -2.5895 -0.6173 -0.4293
  147MOL0     H20248   7.912   5.420   7.664 -2.5069  3.6306  1.0196
  147MOL0     H20249   8.114   5.474   7.503 -0.3123  0.1936  0.5337
  147MOL0     H20250   8.019   5.426   7.088  2.2813 -0.8107  1.8250
  147MOL0     H20251   7.995   5.609   7.079  1.9739  1.3484  0.9314
  147MOL0     H20252   8.261   5.461   7.085 -0.3633  0.5707  1.4637
  147MOL0     H20253   8.173   5.517   6.938 -1.2387 -0.1343 -0.1412
  147MOL0     H20254   8.292   5.675   7.162  0.2061 -1.2212 -0.0037
  147MOL0     H20255   8.184   5.755   7.048  0.1529  0.0979  0.7703
  147MOL0     H20256   8.324   5.723   6.863 -0.9826 -1.3516  0.2997
  147MOL0     H20257   8.423   5.597   6.947  1.1564  1.0956 -2.5344
  147MOL0     H20258   8.516   5.822   6.895  1.7343 -0.4201  0.7053
  147MOL0     H20259   8.423   5.896   7.024 -0.0342  0.8335 -0.7435
  147MOL0     H20260   8.669   5.835   7.078 -1.7110  3.0462 -0.3696
  147MOL0     H20261   8.623   5.672   7.051 -0.1348  0.3680 -0.8338
  147MOL0     H20262   8.485   5.649   7.239  0.1281 -0.4061  0.5225
  147MOL0     H20263   8.457   5.821   7.262 -1.1190  0.2410 -1.9833
  147MOL0     H20264   8.617   5.725   7.436 -0.4598 -2.8018 -0.6306
  147MOL0     H20265   8.684   5.856   7.340  0.4647 -0.1001  2.3495
  147MOL0     H20266   7.811   5.530   7.192 -1.5543 -4.0564 -1.3373
  147MOL0     H20267   7.649   5.496   7.349  1.2878  0.8528 -4.0095
  147MOL0     H20268   7.551   5.542   7.797 -0.8577  1.0436  1.9766
  147MOL0     H20269   7.366   5.659   7.902 -1.1829 -1.0830  0.7696
  147MOL0     H20270   5.569   6.680   8.374 -0.2656  1.5487  0.8078
  147MOL0     H20271   5.310   6.733   8.407 -1.4389 -2.3940  3.2897
  147MOL0     H20272   4.907   6.594   8.195  0.5052 -1.5037 -0.5510
  147MOL0     H20273   4.656   6.637   8.188 -3.3664 -0.2494  1.1508
  147MOL0     H20274   4.463   6.811   8.271 -0.7039  0.0280 -0.7737
  147MOL0     H20275   4.458   6.648   8.207  1.5905 -1.3848  2.0718
  147MOL0     H20276   4.226   6.765   8.244 -1.2784 -1.0358  0.1809
  147MOL0     H20277   4.268   6.751   8.415 -1.6323 -0.8012  0.5897
  147MOL0     H20278   4.121   6.558   8.307 -0.2919 -1.9389  1.5678
  147MOL0     H20279   4.265   6.513   8.216 -2.0452  1.8926 -0.7927
  147MOL0     H20280   4.375   6.470   8.460  0.4905 -0.3286 -0.8149
  147MOL0     H20281   4.241   6.369   8.418 -1.6181  0.6744  2.3985
  147MOL0     H20282   4.085   6.610   8.722 -0.8661 -0.8163 -0.4197
  147MOL0     H20283   4.637   6.589   8.605  3.7468 -0.8026  2.4811
  147MOL0     H20284   4.831   6.546   8.744  0.2428 -0.3488 -0.7161
  147MOL0     H20285   4.949   6.439   8.662 -0.6865 -0.6369  0.0857
  147MOL0     H20286   4.961   6.623   8.669  0.3746 -0.4463 -0.0571
  148MOL0     O20287  11.376   8.819   3.321 -0.1150  0.3821 -0.0512
  148MOL0     C20288  11.337   8.906   3.250  0.4562 -0.5171  0.0095
  148MOL0     O20289  11.340   8.906   3.108  0.0253 -1.0700 -0.0010
  148MOL0     C20290  11.422   8.813   3.046  0.9344  0.0260  0.4905
  148MOL0     C20291  11.560   8.816   3.058  0.1263  0.5720 -0.3119
  148MOL0     C20292  11.644   8.721   2.996 -1.4481 -0.6096  0.8388
  148MOL0     C20293  11.581   8.609   2.939  0.2444 -0.2516 -0.0202
  148MOL0     O20294  11.658   8.497   2.898  0.2766 -0.0400  0.1039
  148MOL0     C20295  11.782   8.464   2.963  0.7708 -0.2928 -0.2053
  148MOL0     C20296  11.806   8.308   2.980  0.8560 -0.4016  0.6158
  148MOL0     C20297  11.913   8.280   3.082  0.1970 -0.4186  0.5994
  148MOL0     C20298  11.978   8.145   3.055 -0.1905  0.7121  0.2470
  148MOL0     C20299  12.035   8.099   3.191  0.3742 -0.0154 -0.4238
  148MOL0     C20300  12.145   7.991   3.171  1.0062  0.2468 -0.5277
  148MOL0     C20301  12.070   7.856   3.116 -0.1926  0.0960 -0.1990
  148MOL0     C20302  12.128   7.719   3.172 -0.3116 -0.1144  0.4491
  148MOL0     N20303  12.256   7.690   3.117  0.4135 -0.1765  0.9200
  148MOL0     C20304  12.291   7.692   2.984  0.3699  0.3388 -0.5335
  148MOL0     C20305  12.418   7.643   2.975  0.7211  0.0373 -0.2900
  148MOL0     C20306  12.497   7.629   2.846 -0.7428  0.9424  0.3752
  148MOL0     C20307  12.605   7.510   2.841 -0.4439 -0.2695 -0.4609
  148MOL0     C20308  12.665   7.495   2.693  0.6804  0.6326 -0.2129
  148MOL0     C20309  12.743   7.617   2.659  0.0559 -0.3513  0.0532
  148MOL0     O20310  12.818   7.600   2.534 -0.5807 -0.4825  0.2464
  148MOL0     C20311  12.952   7.624   2.548 -0.0562 -0.1972  0.7275
  148MOL0     C20312  13.033   7.538   2.621  0.4036  0.0767  0.1231
  148MOL0     C20313  13.170   7.563   2.638  0.0192 -0.0129  0.0638
  148MOL0     C20314  13.261   7.465   2.712 -0.7765 -0.4413  0.8400
  148MOL0     C20315  13.230   7.676   2.571  0.6872 -0.3605 -0.2547
  148MOL0     C20316  13.375   7.699   2.583 -0.0285 -0.5360  0.1734
  148MOL0     O20317  13.429   7.755   2.472 -0.3440  1.0989 -0.0293
  148MOL0     C20318  13.563   7.786   2.465 -0.3695  0.0984  0.1713
  148MOL0     C20319  13.638   7.762   2.346 -0.6089  0.7243  0.3888
  148MOL0     C20320  13.776   7.791   2.342 -0.2193 -0.1163 -0.9147
  148MOL0     C20321  13.838   7.856   2.460 -0.7695  0.8272  0.2110
  148MOL0     O20322  13.965   7.916   2.464  0.7078  0.4791 -0.7977
  148MOL0     C20323  14.035   7.941   2.344  0.0959 -0.0490 -0.4536
  148MOL0     C20324  14.167   8.020   2.380  0.1119  0.2834 -0.0695
  148MOL0     C20325  14.284   7.927   2.402  0.7624  0.7296 -0.3539
  148MOL0     C20326  14.383   7.898   2.285  0.2054  0.1010 -0.2403
  148MOL0     C20327  14.472   7.767   2.311  0.2139 -0.7391 -0.4663
  148MOL0     C20328  14.573   7.795   2.420 -0.1895 -0.4616 -0.1091
  148MOL0     C20329  14.679   7.690   2.437 -0.6682  0.5316  0.7760
  148MOL0     C20330  14.807   7.741   2.523 -0.6049  0.0245  0.2557
  148MOL0    Cl20331  14.892   7.879   2.436 -0.6201 -0.2695 -0.2703
  148MOL0     C20332  13.754   7.890   2.570  0.1124  0.2137  0.1043
  148MOL0     C20333  13.620   7.857   2.570 -0.0815 -0.7432  0.7206
  148MOL0     O20334  13.434   7.685   2.689  0.1595 -0.1136  0.1632
  148MOL0     C20335  13.144   7.766   2.512 -0.1154  0.5385 -0.6183
  148MOL0     C20336  13.007   7.739   2.499  0.1827 -0.0430 -0.5374
  148MOL0     N20337  12.459   7.610   3.104 -0.2120  0.3701 -0.3115
  148MOL0     N20338  12.362   7.639   3.188 -0.4451 -0.1626  0.0072
  148MOL0     C20339  11.440   8.602   2.943 -0.6213  0.1517  0.6897
  148MOL0     C20340  11.358   8.702   2.990  0.5460  0.0984  0.3731
  148MOL0     C20341  11.297   9.044   3.304  0.4427  0.0483 -0.5909
  148MOL0     C20342  11.277   9.147   3.211  0.2163  0.2284 -0.0643
  148MOL0     C20343  11.256   9.275   3.259  0.6961  0.6064  0.0486
  148MOL0     C20344  11.257   9.312   3.392 -0.2649  0.0489 -0.1889
  148MOL0     O20345  11.232   9.447   3.417  0.2272  0.2279  0.1922
  148MOL0     C20346  11.196   9.488   3.551 -0.0865 -0.0422 -0.2915
  148MOL0     C20347  11.164   9.634   3.548 -0.3370  0.4811  0.3344
  148MOL0     C20348  11.287   9.729   3.527 -0.1908  0.1530  0.7708
  148MOL0     C20349  11.250   9.866   3.475  0.6584 -0.6193  0.2138
  148MOL0     C20350  11.194   9.948   3.582 -0.1425  0.2293  0.9919
  148MOL0     C20351  11.151  10.027   3.658 -0.4205 -0.1494 -0.9695
  148MOL0     C20352  11.280   9.212   3.487  0.1777  0.1703  0.2547
  148MOL0     C20353  11.303   9.077   3.439 -0.8277  0.1476 -0.5748
  148MOL0     C20354  11.317   8.979   3.552  0.0695 -0.1489  0.4491
  148MOL0     H20355  11.614   8.892   3.113  1.1971 -1.3535  1.3929
  148MOL0     H20356  11.752   8.733   2.988 -1.1183 -2.8698  1.1559
  148MOL0     H20357  11.785   8.499   3.067 -0.6483 -2.9502  0.8203
  148MOL0     H20358  11.865   8.513   2.912  0.1658  0.9160 -0.0604
  148MOL0     H20359  11.723   8.253   3.024  1.5778 -3.4849 -1.5693
  148MOL0     H20360  11.831   8.271   2.880  2.3301  0.1270  0.7703
  148MOL0     H20361  11.977   8.368   3.088  1.4676 -1.0953 -1.7887
  148MOL0     H20362  11.867   8.279   3.181  0.6893  3.7997  1.0325
  148MOL0     H20363  11.896   8.081   3.023 -2.1279  3.3443 -0.3839
  148MOL0     H20364  12.049   8.159   2.973 -1.2672  1.6577 -0.5636
  148MOL0     H20365  11.958   8.047   3.248 -1.4849  2.8528 -0.1738
  148MOL0     H20366  12.075   8.188   3.239  0.9832 -0.4608 -0.0842
  148MOL0     H20367  12.221   8.025   3.099  0.1847 -1.7964 -2.4820
  148MOL0     H20368  12.201   7.968   3.262  0.0313  2.5855  0.7603
  148MOL0     H20369  12.069   7.871   3.008  1.3305  3.1804  0.0942
  148MOL0     H20370  11.966   7.861   3.149 -0.6291  2.5774 -1.6874
  148MOL0     H20371  12.138   7.740   3.279 -0.1711 -1.4239  0.7086
  148MOL0     H20372  12.059   7.638   3.146 -1.6607  1.2744 -0.4299
  148MOL0     H20373  12.236   7.727   2.897  0.5720 -1.2062 -1.3332
  148MOL0     H20374  12.540   7.724   2.813  2.3408 -0.6375 -0.5805
  148MOL0     H20375  12.426   7.606   2.767  1.8067 -1.2329 -1.4930
  148MOL0     H20376  12.681   7.526   2.918 -0.4610  2.3361 -0.8978
  148MOL0     H20377  12.557   7.418   2.874  0.2334 -0.9390 -1.2645
  148MOL0     H20378  12.722   7.403   2.705 -0.3469  0.0194  0.1377
  148MOL0     H20379  12.589   7.484   2.615  0.5221  0.3985 -0.0281
  148MOL0     H20380  12.670   7.695   2.635 -0.1641  0.3321  2.6389
  148MOL0     H20381  12.813   7.649   2.736  0.2217  1.0561 -0.6480
  148MOL0     H20382  12.980   7.446   2.645  0.5725 -0.4411 -1.3974
  148MOL0     H20383  13.221   7.365   2.728 -1.2136 -0.5419 -0.6691
  148MOL0     H20384  13.310   7.503   2.802  1.2494 -1.2398  0.1385
  148MOL0     H20385  13.347   7.449   2.646  1.0881  1.1867  2.7348
  148MOL0     H20386  13.590   7.719   2.259 -0.3769 -2.3919  1.6822
  148MOL0     H20387  13.841   7.770   2.258 -1.3925 -3.7096 -1.0721
  148MOL0     H20388  14.064   7.858   2.279 -0.2134  1.4585 -2.6596
  148MOL0     H20389  13.984   8.016   2.283  1.7024  3.4601  2.1669
  148MOL0     H20390  14.194   8.082   2.294 -1.5314  0.6141 -0.3902
  148MOL0     H20391  14.148   8.095   2.457  3.6984 -0.5058  1.7454
  148MOL0     H20392  14.238   7.840   2.449 -0.4383  0.9823 -1.0217
  148MOL0     H20393  14.348   7.972   2.478  0.5354 -1.2130  1.0437
  148MOL0     H20394  14.448   7.981   2.256  0.5519  0.0825  0.4681
  148MOL0     H20395  14.317   7.870   2.202  0.9316 -2.3377 -0.0563
  148MOL0     H20396  14.412   7.683   2.346  0.9156 -0.9639  0.2382
  148MOL0     H20397  14.524   7.747   2.217  1.6562 -0.9639  0.3314
  148MOL0     H20398  14.524   7.823   2.513  1.2151 -0.6313  0.7069
  148MOL0     H20399  14.633   7.881   2.388  0.2673 -1.4579 -2.0521
  148MOL0     H20400  14.709   7.652   2.339 -2.5144 -2.2769  1.1682
  148MOL0     H20401  14.639   7.600   2.484  0.0191 -0.5151 -0.5643
  148MOL0     H20402  14.879   7.662   2.545  1.9676  1.7930 -1.2451
  148MOL0     H20403  14.765   7.760   2.622  0.0524 -0.3892  0.6234
  148MOL0     H20404  13.802   7.937   2.656 -0.9989  2.4202 -0.4055
  148MOL0     H20405  13.564   7.886   2.658 -1.7374  1.6109 -0.9918
  148MOL0     H20406  13.190   7.857   2.474 -2.1150  1.6279 -0.5990
  148MOL0     H20407  12.938   7.810   2.453 -1.6209 -1.5173 -0.2097
  148MOL0     H20408  11.399   8.511   2.900  1.7134 -1.0356  0.8052
  148MOL0     H20409  11.250   8.690   2.991  0.6734 -1.4460  2.8487
  148MOL0     H20410  11.267   9.127   3.105 -3.8184 -1.8715  0.5166
  148MOL0     H20411  11.259   9.355   3.186 -1.9632 -0.1916 -1.0684
  148MOL0     H20412  11.108   9.425   3.569 -0.0835  0.4182  1.5280
  148MOL0     H20413  11.273   9.458   3.623  0.9404 -0.3706 -1.4718
  148MOL0     H20414  11.112   9.655   3.642 -0.1734  1.3387  0.2428
  148MOL0     H20415  11.092   9.657   3.469 -0.3708 -0.2721  0.1411
  148MOL0     H20416  11.349   9.747   3.615  1.6436  1.6036 -0.7430
  148MOL0     H20417  11.345   9.695   3.441  0.5456  0.6926  1.0448
  148MOL0     H20418  11.179   9.872   3.393 -0.7389  2.0700  1.4861
  148MOL0     H20419  11.338   9.922   3.441 -2.0644  2.6367 -2.0955
  148MOL0     H20420  11.102  10.091   3.728  3.4390  4.2738 -1.7810
  148MOL0     H20421  11.273   9.243   3.591 -1.5431  2.5386 -0.4781
  148MOL0     H20422  11.308   9.020   3.653  1.5361 -1.2979  1.0911
  148MOL0     H20423  11.241   8.900   3.545 -0.9436  0.5857  2.3824
  148MOL0     H20424  11.413   8.927   3.550  0.3004  0.2808 -1.3291
  149MOL0     O20425   5.445   4.210   1.778 -0.0331  0.1593  0.0578
  149MOL0     C20426   5.367   4.199   1.876 -0.4143 -0.0924  0.2553
  149MOL0     O20427   5.341   4.288   1.976  0.0649 -0.1379 -0.5017
  149MOL0     C20428   5.428   4.387   2.007  0.2144 -0.0318  0.8208
  149MOL0     C20429   5.508   4.459   1.907 -0.6344  0.0021 -0.1540
  149MOL0     C20430   5.605   4.546   1.950 -0.2311 -0.2731  0.4980
  149MOL0     C20431   5.625   4.568   2.088  0.1487 -0.9278 -0.5702
  149MOL0     O20432   5.728   4.639   2.134  0.1093  0.4878  0.5732
  149MOL0     C20433   5.854   4.565   2.138  0.0309 -0.1857  0.0023
  149MOL0     C20434   5.859   4.474   2.264  0.3865  0.3148 -0.4940
  149MOL0     C20435   6.002   4.462   2.317  0.1729  0.0718 -0.1284
  149MOL0     C20436   6.038   4.572   2.415 -0.4897  0.6388 -0.0071
  149MOL0     C20437   6.196   4.601   2.436  0.5495  0.2710  0.4802
  149MOL0     C20438   6.265   4.472   2.471  0.7662 -0.1923  0.7358
  149MOL0     C20439   6.408   4.468   2.532 -0.6030 -0.8519 -0.4177
  149MOL0     C20440   6.512   4.543   2.453  0.2681  0.3358 -0.4683
  149MOL0     N20441   6.642   4.517   2.504  0.2798  0.4873 -0.5466
  149MOL0     C20442   6.720   4.598   2.591  0.8460 -0.4867 -0.3201
  149MOL0     C20443   6.842   4.554   2.583  0.0473 -0.3139 -0.5873
  149MOL0     C20444   6.953   4.605   2.684  0.1698 -0.3349 -0.1309
  149MOL0     C20445   7.082   4.663   2.623 -0.7740 -0.4428  0.5246
  149MOL0     C20446   7.164   4.551   2.546 -0.8170 -0.4502  0.2914
  149MOL0     C20447   7.309   4.598   2.529 -0.0408 -0.9021 -0.0011
  149MOL0     O20448   7.363   4.616   2.663  0.1724 -0.0637 -0.4612
  149MOL0     C20449   7.498   4.612   2.685 -0.4332  0.0032 -0.2722
  149MOL0     C20450   7.594   4.578   2.590  0.3715 -0.2941  0.7203
  149MOL0     C20451   7.731   4.550   2.613 -0.3452 -0.4125 -0.1334
  149MOL0     C20452   7.817   4.520   2.484  0.2642  0.4231 -0.4795
  149MOL0     C20453   7.785   4.568   2.744  0.4176  0.6992  0.7028
  149MOL0     C20454   7.930   4.549   2.795 -0.1354 -0.5733  0.8187
  149MOL0     O20455   7.957   4.551   2.932  0.3399 -1.2166 -0.5025
  149MOL0     C20456   8.092   4.544   2.978  0.3290 -0.1943 -0.0322
  149MOL0     C20457   8.146   4.654   3.052  0.1280  0.8812  0.6379
  149MOL0     C20458   8.269   4.647   3.100 -0.2532 -0.4166 -0.2492
  149MOL0     C20459   8.344   4.534   3.080 -0.3187  0.3325  0.2510
  149MOL0     O20460   8.470   4.555   3.125 -0.0231  0.9385 -0.0638
  149MOL0     C20461   8.505   4.486   3.250 -0.1372  0.9889 -0.1124
  149MOL0     C20462   8.647   4.456   3.260 -0.3080  0.4791 -0.0248
  149MOL0     C20463   8.691   4.360   3.372 -0.4233  1.2047 -0.5002
  149MOL0     C20464   8.840   4.360   3.394 -0.1090 -0.3864 -0.2872
  149MOL0     C20465   8.881   4.312   3.534 -0.6994 -0.6308 -0.2487
  149MOL0     C20466   9.024   4.342   3.564 -0.5073 -1.0458  0.4720
  149MOL0     C20467   9.054   4.357   3.709 -0.4903  0.6831 -1.3402
  149MOL0     C20468   9.190   4.417   3.751  0.0866 -0.7070  0.2509
  149MOL0    Cl20469   9.316   4.307   3.718 -0.0206 -0.3301  0.1390
  149MOL0     C20470   8.293   4.429   3.006  0.3939 -0.4407 -0.3954
  149MOL0     C20471   8.175   4.433   2.949 -0.3080  0.6644 -0.2793
  149MOL0     O20472   8.017   4.525   2.714  0.0850  0.0510  0.7663
  149MOL0     C20473   7.686   4.592   2.842 -0.0980 -0.3454  0.0797
  149MOL0     C20474   7.554   4.622   2.813 -0.5801 -0.6814 -0.2581
  149MOL0     N20475   6.837   4.443   2.503  0.0252  0.4436 -0.1084
  149MOL0     N20476   6.712   4.413   2.466 -0.4401  0.9350 -0.6286
  149MOL0     C20477   5.531   4.522   2.184  0.7109 -0.3826  0.3948
  149MOL0     C20478   5.431   4.436   2.140  0.6188 -0.3402  0.4668
  149MOL0     C20479   5.256   4.103   1.859  0.5620  0.6064 -0.0161
  149MOL0     C20480   5.119   4.142   1.866  0.2311 -0.1787 -0.3588
  149MOL0     C20481   5.016   4.063   1.817 -1.1440  0.2747  0.1026
  149MOL0     C20482   5.052   3.933   1.775 -0.1321 -0.2653 -0.3786
  149MOL0     O20483   4.946   3.857   1.724 -0.4451  0.1922 -0.5010
  149MOL0     C20484   4.976   3.724   1.694 -0.4390  0.1476 -0.3062
  149MOL0     C20485   4.832   3.673   1.653 -0.2551 -0.2355 -0.1206
  149MOL0     C20486   4.734   3.672   1.776 -0.2527  0.5477  0.5379
  149MOL0     C20487   4.604   3.598   1.732 -0.7025 -0.0500 -0.8145
  149MOL0     C20488   4.546   3.535   1.841 -0.0882  0.4181  0.5422
  149MOL0     C20489   4.487   3.501   1.942  0.6922  0.0348  0.1097
  149MOL0     C20490   5.183   3.880   1.791  0.0968 -0.3240 -0.5061
  149MOL0     C20491   5.288   3.962   1.830  0.1042  0.0206 -0.7176
  149MOL0     C20492   5.422   3.899   1.861 -0.3647 -0.1450  0.1627
  149MOL0     H20493   5.493   4.454   1.799 -0.0989  4.4632 -0.6518
  149MOL0     H20494   5.674   4.596   1.882 -0.2240 -0.8172  0.1020
  149MOL0     H20495   5.934   4.639   2.153 -0.8160  0.5618  0.8832
  149MOL0     H20496   5.867   4.509   2.044 -4.1124 -1.6603  0.1389
  149MOL0     H20497   5.793   4.513   2.342 -1.9207 -2.0153 -1.1295
  149MOL0     H20498   5.819   4.372   2.254  1.8524 -0.3235 -0.0859
  149MOL0     H20499   6.016   4.364   2.365 -0.0707 -1.3198 -2.7304
  149MOL0     H20500   6.069   4.473   2.231 -1.0157  1.4815 -0.9078
  149MOL0     H20501   5.996   4.667   2.379  0.3378  1.3872  0.9373
  149MOL0     H20502   5.996   4.555   2.514  0.8031  2.4818  0.9250
  149MOL0     H20503   6.206   4.674   2.516  1.5823  1.5177 -0.7279
  149MOL0     H20504   6.232   4.652   2.346 -1.2851 -2.6029 -2.1071
  149MOL0     H20505   6.203   4.418   2.543 -0.4816  0.5563  0.2493
  149MOL0     H20506   6.265   4.410   2.381  2.6316 -0.5775  0.9606
  149MOL0     H20507   6.441   4.364   2.532 -0.9630 -0.9650  0.2271
  149MOL0     H20508   6.404   4.509   2.634  2.7233  0.2501 -0.6017
  149MOL0     H20509   6.508   4.511   2.349  0.8226 -0.9787 -0.1071
  149MOL0     H20510   6.489   4.650   2.460  0.2834  0.4394 -1.7779
  149MOL0     H20511   6.685   4.680   2.653 -0.4176  0.8311 -2.6523
  149MOL0     H20512   6.997   4.516   2.731  1.5048 -0.2999 -1.2332
  149MOL0     H20513   6.908   4.669   2.760 -1.7649  0.1904 -1.6256
  149MOL0     H20514   7.056   4.751   2.563 -0.1676  0.8322  2.0565
  149MOL0     H20515   7.138   4.698   2.710 -0.2922 -2.2247  0.9660
  149MOL0     H20516   7.156   4.452   2.591 -0.3916 -0.4318  0.4151
  149MOL0     H20517   7.115   4.537   2.449 -2.1557 -0.0024  0.8777
  149MOL0     H20518   7.353   4.522   2.465 -0.3655 -1.4672  0.4273
  149MOL0     H20519   7.325   4.692   2.475  2.7293 -1.3576 -0.0804
  149MOL0     H20520   7.563   4.570   2.486  0.5344 -1.3560  0.7476
  149MOL0     H20521   7.925   4.530   2.495  0.6324 -1.9729 -1.2794
  149MOL0     H20522   7.784   4.576   2.397 -0.7025 -0.1845 -0.5305
  149MOL0     H20523   7.808   4.413   2.463 -2.4371 -0.0165  2.1100
  149MOL0     H20524   8.089   4.745   3.062  2.1841  2.2512  0.3719
  149MOL0     H20525   8.306   4.739   3.142  0.1840 -0.1916 -1.1083
  149MOL0     H20526   8.471   4.547   3.335 -1.3325  1.9938 -1.2627
  149MOL0     H20527   8.449   4.391   3.253  1.4181  0.0714  1.6039
  149MOL0     H20528   8.668   4.418   3.160 -0.7527  1.2318 -0.4174
  149MOL0     H20529   8.696   4.552   3.277 -1.5391  0.6740  3.3189
  149MOL0     H20530   8.654   4.261   3.343 -0.1592  1.4230 -1.6223
  149MOL0     H20531   8.635   4.391   3.460  0.6197 -0.4611  0.8078
  149MOL0     H20532   8.878   4.463   3.389  0.9015 -0.6648  0.9815
  149MOL0     H20533   8.902   4.309   3.319  0.0497  4.0942 -3.6529
  149MOL0     H20534   8.824   4.367   3.609  1.6428  3.0705 -0.8871
  149MOL0     H20535   8.860   4.206   3.549  1.3977 -1.2241 -1.1073
  149MOL0     H20536   9.063   4.433   3.517 -0.5304 -0.5446  1.3991
  149MOL0     H20537   9.075   4.259   3.514 -1.8922 -1.7440  0.1768
  149MOL0     H20538   9.050   4.256   3.752  2.9841  0.7781 -0.5203
  149MOL0     H20539   8.974   4.413   3.761 -1.0654  0.3011 -1.8004
  149MOL0     H20540   9.195   4.448   3.856 -0.1221  2.1711 -0.4902
  149MOL0     H20541   9.205   4.512   3.697  0.7072 -1.8939 -1.7600
  149MOL0     H20542   8.350   4.336   2.999 -0.3394 -0.9617  0.4497
  149MOL0     H20543   8.145   4.354   2.881  4.3796  0.0907 -2.0504
  149MOL0     H20544   7.719   4.601   2.945  3.0928 -0.8999 -0.7641
  149MOL0     H20545   7.492   4.647   2.899  0.2696  1.0877 -0.1121
  149MOL0     H20546   5.544   4.536   2.291  1.2466  0.9497  0.1674
  149MOL0     H20547   5.369   4.383   2.211 -1.8035  1.8508  0.1075
  149MOL0     H20548   5.089   4.241   1.900 -0.3888 -1.3085  2.6600
  149MOL0     H20549   4.911   4.090   1.814 -0.7160  1.9110 -1.9547
  149MOL0     H20550   5.043   3.716   1.608  3.7805  1.3506  2.5789
  149MOL0     H20551   5.019   3.657   1.768 -2.2546 -3.2927 -2.0923
  149MOL0     H20552   4.846   3.579   1.599  0.5315 -0.0169 -0.3134
  149MOL0     H20553   4.788   3.738   1.577 -0.7133  0.1536  0.4649
  149MOL0     H20554   4.771   3.614   1.861 -2.5200  1.9535  2.6139
  149MOL0     H20555   4.708   3.770   1.816  1.5632  0.4372  2.1523
  149MOL0     H20556   4.628   3.522   1.657  3.4392  0.8309 -0.5900
  149MOL0     H20557   4.538   3.677   1.694 -1.8205 -0.1380  0.8285
  149MOL0     H20558   4.429   3.466   2.026  2.2625  1.3334  1.8027
  149MOL0     H20559   5.194   3.775   1.768 -1.0666 -0.4567 -0.4960
  149MOL0     H20560   5.498   3.937   1.792  1.1806 -0.9601  1.3462
  149MOL0     H20561   5.449   3.930   1.963 -0.3547 -1.3348  0.5439
  149MOL0     H20562   5.414   3.791   1.845 -1.9192 -0.2237  1.2133
  150MOL0     O20563   4.118   6.649   7.829  0.6471  0.6126 -0.7586
  150MOL0     C20564   4.157   6.752   7.885 -0.3256 -0.9987  0.3432
  150MOL0     O20565   4.071   6.851   7.938  0.4195  0.0080  0.3004
  150MOL0     C20566   3.942   6.815   7.936  0.1122 -1.2509 -1.1733
  150MOL0     C20567   3.876   6.781   8.057 -0.1294 -0.4341 -0.3199
  150MOL0     C20568   3.745   6.740   8.071 -0.2173  0.1532  0.3472
  150MOL0     C20569   3.665   6.726   7.946 -0.6382 -0.1181  0.4258
  150MOL0     O20570   3.536   6.696   7.973  0.4580 -1.5272 -0.6646
  150MOL0     C20571   3.445   6.706   7.864 -0.1061  0.1983 -1.0649
  150MOL0     C20572   3.311   6.640   7.883 -0.0426  0.0797  0.6959
  150MOL0     C20573   3.248   6.693   8.015  0.2130 -0.4037  0.3603
  150MOL0     C20574   3.107   6.644   8.036 -0.1441  0.3876  0.2399
  150MOL0     C20575   3.046   6.713   8.154  0.0898 -0.8747  0.4125
  150MOL0     C20576   2.903   6.673   8.183  0.7488  0.0420 -0.5886
  150MOL0     C20577   2.848   6.721   8.328  0.2800 -0.3750 -0.3377
  150MOL0     C20578   2.749   6.835   8.315 -0.3921 -0.3052  0.2889
  150MOL0     N20579   2.791   6.923   8.198  0.6873  0.0303 -0.5520
  150MOL0     C20580   2.880   7.027   8.214  1.2825 -0.3769 -0.4439
  150MOL0     C20581   2.873   7.089   8.091 -0.5826  0.0218  0.4622
  150MOL0     C20582   2.946   7.217   8.064 -0.1834  0.6946  0.2039
  150MOL0     C20583   2.884   7.304   7.953 -0.1330 -0.3458  0.3530
  150MOL0     C20584   2.943   7.447   7.923 -0.9437  0.0201 -1.0614
  150MOL0     C20585   3.085   7.436   7.877 -0.3714  0.3772  0.7608
  150MOL0     O20586   3.140   7.558   7.820 -0.9342  0.7709 -0.5958
  150MOL0     C20587   3.277   7.565   7.801 -0.0257  0.0845 -0.0635
  150MOL0     C20588   3.362   7.461   7.787 -0.3069  0.0945  1.4673
  150MOL0     C20589   3.496   7.465   7.741  0.5245  0.0400  0.1439
  150MOL0     C20590   3.558   7.339   7.687 -0.3243  0.5258  0.5037
  150MOL0     C20591   3.548   7.595   7.708 -0.7080 -0.8204  0.0681
  150MOL0     C20592   3.690   7.616   7.676 -0.3977 -0.7029  0.1080
  150MOL0     O20593   3.733   7.738   7.669  0.2112 -0.2330 -0.1525
  150MOL0     C20594   3.853   7.762   7.613 -0.3735 -0.6537  1.0000
  150MOL0     C20595   3.962   7.788   7.695  0.3351 -0.6007 -0.2398
  150MOL0     C20596   4.084   7.829   7.647  0.6231  0.7239  0.4962
  150MOL0     C20597   4.093   7.858   7.512  0.1318  1.0283 -0.8106
  150MOL0     O20598   4.207   7.902   7.456 -0.1013  0.2079  0.5700
  150MOL0     C20599   4.285   7.993   7.530  0.1136  0.6895 -0.4993
  150MOL0     C20600   4.405   8.020   7.442 -0.6544 -0.5546  0.9449
  150MOL0     C20601   4.484   7.899   7.398  0.1934  0.1278  0.4384
  150MOL0     C20602   4.603   7.930   7.297 -0.4036 -0.4257  0.1512
  150MOL0     C20603   4.689   7.810   7.261 -0.8847 -0.0343  0.4738
  150MOL0     C20604   4.705   7.709   7.372 -0.2429  0.5045  0.5292
  150MOL0     C20605   4.810   7.607   7.326  0.2741  0.5128  0.1477
  150MOL0     C20606   4.830   7.486   7.426 -0.0489 -0.1813  0.2318
  150MOL0    Cl20607   4.937   7.369   7.337  0.2036  0.3148 -0.7533
  150MOL0     C20608   3.989   7.827   7.416 -0.1394  0.1327  0.1061
  150MOL0     C20609   3.870   7.789   7.475 -0.4753  0.1476 -0.4815
  150MOL0     O20610   3.764   7.521   7.659 -0.4558 -0.6999 -0.7446
  150MOL0     C20611   3.470   7.707   7.741  0.4621  0.3727  0.2046
  150MOL0     C20612   3.333   7.691   7.772 -0.4075 -0.2126 -1.1303
  150MOL0     N20613   2.790   7.022   8.006  0.2436 -0.5133  0.4764
  150MOL0     N20614   2.727   6.927   8.076 -0.6036  0.2043  0.0358
  150MOL0     C20615   3.718   6.767   7.826 -0.1750 -0.3869  0.3602
  150MOL0     C20616   3.855   6.808   7.827 -0.5974 -0.0721  0.1824
  150MOL0     C20617   4.311   6.771   7.908 -0.4324 -0.3729  1.0811
  150MOL0     C20618   4.346   6.901   7.934 -0.4951  0.8353 -0.2611
  150MOL0     C20619   4.477   6.944   7.963 -0.2108  0.3048  0.2490
  150MOL0     C20620   4.581   6.850   7.952 -0.4557  0.0014 -0.4054
  150MOL0     O20621   4.703   6.906   7.970  0.0575 -0.0397  0.1215
  150MOL0     C20622   4.819   6.849   7.907  0.3811 -0.3898 -0.5442
  150MOL0     C20623   4.936   6.897   7.982 -0.3322  0.2800 -0.2417
  150MOL0     C20624   5.039   6.978   7.900 -0.5560 -0.2851 -0.0340
  150MOL0     C20625   5.175   6.993   7.980  0.3109  0.2616  0.0863
  150MOL0     C20626   5.236   6.856   7.982 -0.2514  0.4227 -0.4885
  150MOL0     C20627   5.283   6.746   7.987  0.2240  0.1169 -0.0676
  150MOL0     C20628   4.555   6.724   7.906  0.5419  0.1950  0.4473
  150MOL0     C20629   4.418   6.674   7.890 -0.0475 -1.0925  1.1182
  150MOL0     C20630   4.398   6.529   7.859  0.2103  0.3123 -0.4080
  150MOL0     H20631   3.949   6.773   8.137  1.7241  1.0510 -1.7683
  150MOL0     H20632   3.695   6.711   8.163 -1.9103 -3.5732 -1.5187
  150MOL0     H20633   3.496   6.663   7.777  0.0089  0.3791 -1.0871
  150MOL0     H20634   3.418   6.809   7.838  2.6095  0.9422 -1.2442
  150MOL0     H20635   3.246   6.676   7.803  0.1532 -3.5738 -1.3059
  150MOL0     H20636   3.330   6.533   7.895 -0.8120 -0.2458 -0.7728
  150MOL0     H20637   3.307   6.654   8.098  0.1168 -3.1084 -0.7265
  150MOL0     H20638   3.251   6.802   8.004 -0.0747 -0.4372 -0.0729
  150MOL0     H20639   3.051   6.679   7.949  1.0771  1.9393  0.0248
  150MOL0     H20640   3.103   6.536   8.051  0.2850  0.3992  0.4551
  150MOL0     H20641   3.050   6.820   8.132  3.8312 -1.1404 -0.8311
  150MOL0     H20642   3.101   6.685   8.244 -0.8749 -0.0325  1.3006
  150MOL0     H20643   2.837   6.707   8.102  1.2261  1.4304 -0.4197
  150MOL0     H20644   2.899   6.564   8.191 -1.4511  0.1249  0.2993
  150MOL0     H20645   2.938   6.751   8.382  0.8087 -3.3150  0.5937
  150MOL0     H20646   2.808   6.644   8.394 -1.7030  2.5296  2.1098
  150MOL0     H20647   2.646   6.804   8.299  0.1353 -0.7661 -2.9819
  150MOL0     H20648   2.757   6.903   8.400 -1.8546 -1.7549  1.6621
  150MOL0     H20649   2.941   7.048   8.301 -2.4626  1.2241  2.0453
  150MOL0     H20650   3.040   7.176   8.026  1.5025  2.9090  1.7203
  150MOL0     H20651   2.957   7.280   8.153 -0.7598  0.1538  0.6658
  150MOL0     H20652   2.881   7.250   7.858 -0.7001  2.0192 -1.0671
  150MOL0     H20653   2.778   7.320   7.975 -0.0529 -0.1424  0.5954
  150MOL0     H20654   2.887   7.501   7.846  1.3804  0.2602 -2.6919
  150MOL0     H20655   2.937   7.516   8.007  1.1201 -0.0538 -0.7889
  150MOL0     H20656   3.150   7.386   7.950 -0.1709 -1.9111 -0.8670
  150MOL0     H20657   3.076   7.358   7.801 -1.8250  0.7464  0.5323
  150MOL0     H20658   3.318   7.363   7.803  0.8922 -0.1534  3.6006
  150MOL0     H20659   3.644   7.313   7.749  0.3437  0.0995 -0.5820
  150MOL0     H20660   3.600   7.357   7.588 -2.6869  1.3022 -0.4306
  150MOL0     H20661   3.483   7.260   7.679  1.3451 -0.9299 -3.5596
  150MOL0     H20662   3.953   7.795   7.803  1.0017 -3.4840  0.0790
  150MOL0     H20663   4.167   7.840   7.716  0.0821 -0.1012  1.3036
  150MOL0     H20664   4.229   8.085   7.548 -0.5061  0.4863 -1.3300
  150MOL0     H20665   4.324   7.954   7.625 -0.5535  0.1600 -0.4383
  150MOL0     H20666   4.382   8.070   7.348  3.7441 -2.4335 -1.4637
  150MOL0     H20667   4.473   8.087   7.497  1.0512 -0.1228 -1.5359
  150MOL0     H20668   4.413   7.835   7.346 -2.6725  2.8053  0.7431
  150MOL0     H20669   4.514   7.848   7.490 -1.3656 -1.3766  0.1679
  150MOL0     H20670   4.667   7.997   7.354 -1.5596 -0.3837  1.4455
  150MOL0     H20671   4.579   7.980   7.203 -1.6787 -0.1450  0.6009
  150MOL0     H20672   4.664   7.766   7.164  0.1195  0.0907  0.1449
  150MOL0     H20673   4.793   7.842   7.247  0.7567 -3.5654  2.8819
  150MOL0     H20674   4.611   7.656   7.390 -0.8339  1.4881  0.3982
  150MOL0     H20675   4.749   7.745   7.466  1.9307  0.7269 -0.5078
  150MOL0     H20676   4.906   7.657   7.307 -0.3280  1.6105 -0.0245
  150MOL0     H20677   4.774   7.562   7.233 -1.1419  1.1012  0.3854
  150MOL0     H20678   4.735   7.441   7.456  0.3757 -1.4484 -0.2477
  150MOL0     H20679   4.890   7.508   7.515  0.5394 -0.0594 -0.1922
  150MOL0     H20680   3.990   7.846   7.309 -1.9508  0.4020  0.1059
  150MOL0     H20681   3.769   7.789   7.433 -1.6078  2.0741  1.9855
  150MOL0     H20682   3.510   7.808   7.744 -0.3249  0.6987 -0.2079
  150MOL0     H20683   3.266   7.776   7.782  0.0557  0.0386  0.1403
  150MOL0     H20684   3.675   6.783   7.727  1.1649  2.0853  0.1163
  150MOL0     H20685   3.884   6.864   7.738  0.0768  0.2438  0.5872
  150MOL0     H20686   4.264   6.972   7.949  1.5487  2.7763  3.1231
  150MOL0     H20687   4.515   7.043   7.987  2.1371 -0.4084 -0.2304
  150MOL0     H20688   4.818   6.740   7.902  2.2142 -0.7356  3.2314
  150MOL0     H20689   4.814   6.866   7.799  1.5973 -3.3751 -1.1385
  150MOL0     H20690   4.987   6.802   8.002 -0.1309  0.1541 -1.2594
  150MOL0     H20691   4.905   6.948   8.073 -4.2350  2.3441 -2.4631
  150MOL0     H20692   5.048   6.925   7.805  1.8154 -0.7589  0.3829
  150MOL0     H20693   4.992   7.075   7.881 -0.1960  0.0590  0.7910
  150MOL0     H20694   5.159   7.020   8.085  0.7120  2.2638 -0.3210
  150MOL0     H20695   5.250   7.061   7.939  1.9550 -0.3374  1.9407
  150MOL0     H20696   5.323   6.647   7.994  0.1765  0.0837 -0.2562
  150MOL0     H20697   4.628   6.646   7.890  0.4577  0.2086 -0.0072
  150MOL0     H20698   4.326   6.519   7.777  0.5404  2.0414 -0.9308
  150MOL0     H20699   4.490   6.480   7.826 -0.0838  0.8295 -2.1309
  150MOL0     H20700   4.353   6.484   7.948 -0.6430 -1.6430 -1.7452
  151MOL0     O20701   6.137   8.250   8.896 -0.1189 -0.4815  0.0815
  151MOL0     C20702   6.174   8.183   8.991 -0.2172 -0.2880 -0.3547
  151MOL0     O20703   6.261   8.240   9.082 -0.2673  1.0011  0.1872
  151MOL0     C20704   6.303   8.365   9.089  0.8523 -0.5599 -0.4859
  151MOL0     C20705   6.438   8.409   9.096  0.0213  0.0499 -0.5006
  151MOL0     C20706   6.457   8.538   9.123 -0.1123 -0.2253 -0.2745
  151MOL0     C20707   6.358   8.641   9.153 -0.1913 -0.4861 -0.1610
  151MOL0     O20708   6.384   8.768   9.194 -0.1474  0.5910  0.2512
  151MOL0     C20709   6.362   8.784   9.337  0.2365  0.1484 -0.1542
  151MOL0     C20710   6.324   8.930   9.365  0.3567  0.1412  0.6924
  151MOL0     C20711   6.444   9.016   9.341  0.3539 -0.1303 -0.9689
  151MOL0     C20712   6.404   9.162   9.380  1.0835  0.1072  0.9581
  151MOL0     C20713   6.322   9.243   9.264  1.0082 -0.3566 -0.3599
  151MOL0     C20714   6.264   9.375   9.318 -0.0478 -0.5001 -0.6001
  151MOL0     C20715   6.167   9.453   9.222  0.2575  0.0161  0.1378
  151MOL0     C20716   6.040   9.476   9.295  0.6243 -1.0265 -0.7940
  151MOL0     N20717   6.055   9.548   9.421 -0.4579  0.5988 -0.1065
  151MOL0     C20718   6.115   9.671   9.439 -0.1383 -0.3261  0.0466
  151MOL0     C20719   6.108   9.694   9.571 -0.1298  0.1743  0.1653
  151MOL0     C20720   6.181   9.814   9.644 -0.4177 -0.1283 -0.0043
  151MOL0     C20721   6.203   9.785   9.800  0.7662  0.3948 -0.3798
  151MOL0     C20722   6.280   9.897   9.865 -0.3791  0.1371  0.2574
  151MOL0     C20723   6.436   9.901   9.853 -0.9956 -0.0523  0.0185
  151MOL0     O20724   6.495   9.833   9.957 -0.1122  0.4584  0.2303
  151MOL0     C20725   6.628   9.859   9.991  0.2461 -0.6867 -0.0771
  151MOL0     C20726   6.674   9.833  10.124  0.0391 -0.0415 -0.3816
  151MOL0     C20727   6.805   9.861  10.160 -0.5849  0.5633 -0.9851
  151MOL0     C20728   6.843   9.824  10.308 -0.4112 -0.0058 -0.9365
  151MOL0     C20729   6.896   9.910  10.068 -0.5958 -0.5776  1.0785
  151MOL0     C20730   7.040   9.941  10.090 -1.0458 -0.5166  0.1127
  151MOL0     O20731   7.102  10.033  10.013  0.2726 -0.1083 -0.1110
  151MOL0     C20732   7.236  10.070  10.019 -0.1563 -0.1120 -0.0076
  151MOL0     C20733   7.343   9.996   9.971 -0.7796 -0.4803  0.2562
  151MOL0     C20734   7.471  10.053   9.961 -0.3372 -0.2085  0.1410
  151MOL0     C20735   7.498  10.182  10.002  0.2936 -0.5547 -1.0134
  151MOL0     O20736   7.630  10.223   9.986 -0.1382 -0.0781  0.0260
  151MOL0     C20737   7.670  10.339  10.065 -0.0676  0.7282  0.7014
  151MOL0     C20738   7.668  10.480  10.003 -0.1330 -0.2456 -0.7502
  151MOL0     C20739   7.761  10.486   9.880 -0.0998  0.4941  0.2655
  151MOL0     C20740   7.792  10.629   9.849  0.8537  0.1852 -0.3453
  151MOL0     C20741   7.886  10.668   9.742  0.7307 -0.9317 -0.8456
  151MOL0     C20742   7.944  10.566   9.646 -0.9553 -0.0579 -0.2741
  151MOL0     C20743   8.037  10.638   9.542 -0.0441  0.9688  0.9329
  151MOL0     C20744   8.106  10.531   9.441  0.7537 -0.5241 -0.6532
  151MOL0    Cl20745   8.199  10.397   9.522 -0.1327  0.0985  0.2460
  151MOL0     C20746   7.390  10.255  10.054 -0.6016  0.2336  0.4531
  151MOL0     C20747   7.262  10.202  10.060 -0.5538  0.7553 -0.5957
  151MOL0     O20748   7.107   9.882  10.169 -0.0040  0.4279 -0.1733
  151MOL0     C20749   6.851   9.941   9.942  0.5545 -0.3701 -0.2708
  151MOL0     C20750   6.719   9.922   9.897  0.4267 -0.1243  0.5620
  151MOL0     N20751   6.032   9.593   9.634 -0.1068 -0.5008 -0.2494
  151MOL0     N20752   6.006   9.513   9.540  0.5693  0.1636  1.0554
  151MOL0     C20753   6.229   8.596   9.142 -0.2834  0.1343  0.1607
  151MOL0     C20754   6.202   8.460   9.109 -0.1470 -1.1794  0.0148
  151MOL0     C20755   6.136   8.040   9.000 -0.7256  0.4601 -0.3518
  151MOL0     C20756   6.237   7.955   9.040 -0.6511  0.2433  0.1854
  151MOL0     C20757   6.207   7.819   9.072  0.1950 -0.0076  0.0524
  151MOL0     C20758   6.081   7.762   9.067 -0.2092 -0.4108 -0.5851
  151MOL0     O20759   6.057   7.630   9.109 -0.1227  0.3655  0.8622
  151MOL0     C20760   5.929   7.622   9.179 -0.1287  0.6863  0.4603
  151MOL0     C20761   5.929   7.492   9.260 -0.4718  0.6650  1.7484
  151MOL0     C20762   5.792   7.451   9.313  0.1746 -0.1730  0.6856
  151MOL0     C20763   5.798   7.318   9.389 -0.3979  0.5965  0.5576
  151MOL0     C20764   5.667   7.268   9.434 -1.1602 -0.8993  0.0787
  151MOL0     C20765   5.563   7.245   9.483  0.1831 -0.6672  0.0012
  151MOL0     C20766   5.977   7.851   9.019 -0.1720 -0.0017  0.2530
  151MOL0     C20767   6.007   7.983   8.980  0.1948 -0.8274  0.3152
  151MOL0     C20768   5.898   8.067   8.934  0.0445  0.2892  0.0621
  151MOL0     H20769   6.514   8.332   9.089 -1.7993 -1.8071 -0.8537
  151MOL0     H20770   6.559   8.576   9.125  0.3297 -1.3759  1.4016
  151MOL0     H20771   6.451   8.755   9.393 -0.3805 -1.1295  0.1987
  151MOL0     H20772   6.286   8.712   9.366  1.1659 -0.1699  1.6430
  151MOL0     H20773   6.250   8.963   9.292  1.3694  2.8646  0.8084
  151MOL0     H20774   6.282   8.944   9.465 -1.4254 -0.5613  0.0932
  151MOL0     H20775   6.536   8.989   9.393  1.1539  2.3920 -0.9176
  151MOL0     H20776   6.464   9.014   9.233  0.3788 -1.1145 -0.9501
  151MOL0     H20777   6.329   9.165   9.459 -0.0471  0.8629 -0.1104
  151MOL0     H20778   6.497   9.216   9.403  0.5847  0.8822  1.1935
  151MOL0     H20779   6.247   9.180   9.215  0.1175  0.2492  0.1949
  151MOL0     H20780   6.392   9.271   9.186 -1.2941 -3.5038 -3.9050
  151MOL0     H20781   6.218   9.369   9.417  4.9345  1.1704  2.1595
  151MOL0     H20782   6.351   9.441   9.324  0.0190 -0.5969 -0.5284
  151MOL0     H20783   6.153   9.397   9.129 -0.9963  1.7787 -0.8164
  151MOL0     H20784   6.209   9.550   9.193  1.0997 -1.0683 -2.5049
  151MOL0     H20785   5.968   9.536   9.238 -0.1159 -2.9903 -2.0260
  151MOL0     H20786   5.989   9.382   9.316  1.1638 -1.0877  0.2753
  151MOL0     H20787   6.184   9.723   9.372  1.1827 -1.2726  0.6187
  151MOL0     H20788   6.115   9.901   9.641 -1.5445 -0.9840 -0.6019
  151MOL0     H20789   6.276   9.848   9.601 -1.9832  3.6966 -0.8125
  151MOL0     H20790   6.102   9.783   9.842  0.7225 -1.3042 -0.4680
  151MOL0     H20791   6.250   9.687   9.815  1.4297  0.4445 -1.9355
  151MOL0     H20792   6.241   9.989   9.820 -1.6656 -1.1030 -1.3308
  151MOL0     H20793   6.251   9.887   9.970  0.1693 -1.8135  0.2738
  151MOL0     H20794   6.458   9.862   9.753  0.9851  1.0427 -0.0279
  151MOL0     H20795   6.475  10.003   9.860 -1.1169 -0.0193  0.2343
  151MOL0     H20796   6.606   9.803  10.204  1.4518 -0.8151  0.5756
  151MOL0     H20797   6.764   9.864  10.372 -1.5262  0.2391 -2.4181
  151MOL0     H20798   6.934   9.876  10.343 -2.5356  2.9368  0.6874
  151MOL0     H20799   6.849   9.715  10.312  0.5429  0.0642 -0.0442
  151MOL0     H20800   7.327   9.895   9.934 -0.8340 -0.2971 -0.2425
  151MOL0     H20801   7.550   9.981   9.940  0.4442  0.8747 -0.7078
  151MOL0     H20802   7.615  10.345  10.160 -1.5323  1.7457 -0.1641
  151MOL0     H20803   7.775  10.320  10.086 -0.1771 -0.6277  0.0753
  151MOL0     H20804   7.569  10.512   9.970  0.0540 -0.6714 -1.7463
  151MOL0     H20805   7.699  10.550  10.081  1.6363 -0.5242 -1.1436
  151MOL0     H20806   7.711  10.434   9.798 -0.5469 -0.8045  1.3253
  151MOL0     H20807   7.855  10.436   9.905  0.1590  1.2383  0.8295
  151MOL0     H20808   7.803  10.682   9.944 -0.9989 -1.9616  1.1529
  151MOL0     H20809   7.692  10.658   9.815  1.3995  0.2298 -1.9970
  151MOL0     H20810   7.826  10.737   9.683 -0.7982 -1.2567  0.2649
  151MOL0     H20811   7.970  10.711   9.796 -2.2546 -0.1933  3.8274
  151MOL0     H20812   7.866  10.503   9.602 -2.0366  0.6442  0.5643
  151MOL0     H20813   8.016  10.502   9.697  0.7795  0.4687 -1.9508
  151MOL0     H20814   8.115  10.684   9.603  2.3693 -0.8519 -0.5764
  151MOL0     H20815   7.987  10.715   9.482 -0.1973 -0.3369 -0.6800
  151MOL0     H20816   8.178  10.590   9.384  1.5472 -1.8012 -1.0235
  151MOL0     H20817   8.034  10.490   9.370  0.7885 -1.6683 -0.0516
  151MOL0     H20818   7.419  10.358  10.072 -0.6580  0.3600 -0.1680
  151MOL0     H20819   7.170  10.250  10.092 -0.7403  0.3327 -0.4933
  151MOL0     H20820   6.918   9.990   9.872  1.8541  1.0124  1.8384
  151MOL0     H20821   6.695   9.944   9.794 -1.8197  1.5645  1.3779
  151MOL0     H20822   6.152   8.668   9.169  0.3515  1.0749 -0.4580
  151MOL0     H20823   6.097   8.439   9.090 -0.2873  2.0402 -4.2261
  151MOL0     H20824   6.337   7.993   9.053 -0.0966 -0.6592 -1.1844
  151MOL0     H20825   6.287   7.760   9.116 -0.8126  0.8220  3.2365
  151MOL0     H20826   5.916   7.704   9.250 -0.5202  1.0456 -0.0156
  151MOL0     H20827   5.848   7.626   9.106  2.0564  0.5256 -2.1430
  151MOL0     H20828   5.993   7.505   9.348 -0.2653 -0.9876  1.8701
  151MOL0     H20829   5.967   7.414   9.193 -1.8186  2.2592 -1.0382
  151MOL0     H20830   5.759   7.522   9.389  1.3125  0.6804  0.4063
  151MOL0     H20831   5.721   7.435   9.231  0.0107 -1.4466  1.0508
  151MOL0     H20832   5.861   7.321   9.479 -0.6478  0.2547  0.7451
  151MOL0     H20833   5.840   7.237   9.330 -2.4023 -0.7114  0.8289
  151MOL0     H20834   5.474   7.224   9.539  1.2021 -1.1568  1.5023
  151MOL0     H20835   5.876   7.818   8.998 -1.0346  0.9900  2.5627
  151MOL0     H20836   5.921   8.115   8.838  0.1618 -1.2452 -0.7043
  151MOL0     H20837   5.808   8.010   8.909 -0.5553  0.5308  1.5735
  151MOL0     H20838   5.893   8.152   9.002  5.3847  0.0350  1.1412
  152MOL0     O20839   0.837   8.324   9.230 -0.7342  0.4746 -0.6481
  152MOL0     C20840   0.747   8.404   9.215  0.2550  0.6431  0.0038
  152MOL0     O20841   0.764   8.553   9.216 -0.1978  0.7614  0.5575
  152MOL0     C20842   0.888   8.593   9.166  0.3693 -0.4659 -0.1055
  152MOL0     C20843   0.897   8.626   9.036 -0.4673  0.3751 -0.8297
  152MOL0     C20844   1.020   8.674   8.988 -0.0482  0.2089 -0.3536
  152MOL0     C20845   1.132   8.675   9.067 -0.2177  0.6320  0.5761
  152MOL0     O20846   1.260   8.718   9.021  0.1406  0.4614 -0.2353
  152MOL0     C20847   1.274   8.825   8.927 -0.9454  0.1909 -0.4164
  152MOL0     C20848   1.415   8.875   8.917 -0.8195  0.5352 -0.1241
  152MOL0     C20849   1.456   8.970   8.806 -0.1937 -0.1160  0.0481
  152MOL0     C20850   1.610   8.997   8.807 -0.5657 -0.1426  0.0188
  152MOL0     C20851   1.662   9.015   8.656  0.3825  0.2806  0.3329
  152MOL0     C20852   1.797   9.077   8.643 -0.7079  0.2230 -0.7150
  152MOL0     C20853   1.923   8.990   8.694 -0.2183 -0.9051 -0.4133
  152MOL0     C20854   2.054   9.036   8.636 -0.7493  0.5062 -0.3347
  152MOL0     N20855   2.155   8.950   8.694  0.6150 -0.5718 -0.3280
  152MOL0     C20856   2.236   8.986   8.796 -0.2494  0.4711  0.4779
  152MOL0     C20857   2.330   8.888   8.800  1.0422 -0.1017 -0.2611
  152MOL0     C20858   2.447   8.870   8.896  0.9608  0.6922 -0.2852
  152MOL0     C20859   2.585   8.888   8.827  0.1399 -0.5262  0.1448
  152MOL0     C20860   2.693   8.863   8.925 -0.1912  0.2761  0.4065
  152MOL0     C20861   2.823   8.919   8.874 -0.7698  0.8806 -0.2469
  152MOL0     O20862   2.925   8.917   8.977 -0.0010  0.2253  0.1482
  152MOL0     C20863   2.946   9.032   9.054 -0.2946  0.3849 -0.6074
  152MOL0     C20864   2.860   9.145   9.069 -0.3806 -0.6653  0.0055
  152MOL0     C20865   2.888   9.260   9.153  0.0259  0.7112 -0.5693
  152MOL0     C20866   2.793   9.369   9.159  0.9583 -0.5420  0.1964
  152MOL0     C20867   3.021   9.265   9.210 -0.2707 -0.0485  0.0603
  152MOL0     C20868   3.067   9.382   9.282  0.1421 -0.8709 -0.6627
  152MOL0     O20869   3.167   9.369   9.376  0.2907  0.3933  0.4466
  152MOL0     C20870   3.211   9.473   9.451  0.4739  0.4063 -0.3564
  152MOL0     C20871   3.348   9.486   9.481 -0.7767 -0.3821  0.2294
  152MOL0     C20872   3.387   9.604   9.539 -0.6185 -0.1033  0.0289
  152MOL0     C20873   3.288   9.697   9.585  1.0339 -0.2483 -0.0327
  152MOL0     O20874   3.331   9.820   9.627  0.9655  0.1601 -0.7722
  152MOL0     C20875   3.435   9.851   9.723 -0.6328  0.6453  0.2134
  152MOL0     C20876   3.484   9.994   9.703 -0.3707  0.5626  0.3636
  152MOL0     C20877   3.637   9.996   9.730 -0.2426  0.2000 -0.2956
  152MOL0     C20878   3.681  10.144   9.724  0.4604 -0.6338 -0.2269
  152MOL0     C20879   3.834  10.153   9.736 -0.5833  0.3708  0.6372
  152MOL0     C20880   3.871  10.279   9.656 -0.5933  0.1712 -0.0980
  152MOL0     C20881   4.024  10.288   9.649  0.2726 -0.2478 -0.4098
  152MOL0     C20882   4.070  10.377   9.540  0.1475  0.2190 -0.2976
  152MOL0    Cl20883   4.246  10.424   9.563 -0.2390  0.2247 -0.1444
  152MOL0     C20884   3.156   9.673   9.570  0.2245  0.2342  0.2256
  152MOL0     C20885   3.112   9.560   9.507 -0.4484  0.0628  0.3351
  152MOL0     O20886   3.029   9.494   9.246  1.2134 -0.3613 -0.2433
  152MOL0     C20887   3.103   9.150   9.199 -0.6848  1.0045  0.4203
  152MOL0     C20888   3.065   9.035   9.124 -0.0414 -0.0622 -0.6595
  152MOL0     N20889   2.294   8.793   8.711 -0.0530  0.7850  0.3836
  152MOL0     N20890   2.197   8.832   8.639  0.0027  0.3949 -0.5922
  152MOL0     C20891   1.126   8.634   9.200  0.3352  0.3568 -0.5950
  152MOL0     C20892   1.002   8.595   9.253  1.0525 -0.3241 -0.1464
  152MOL0     C20893   0.610   8.343   9.243 -0.1393 -0.3838  0.3492
  152MOL0     C20894   0.507   8.427   9.293 -0.5997 -0.1978  0.8759
  152MOL0     C20895   0.380   8.379   9.326  0.4343 -0.1255 -0.0024
  152MOL0     C20896   0.352   8.243   9.310  0.3295 -0.0572 -0.2982
  152MOL0     O20897   0.226   8.191   9.328  0.1234 -0.5210  0.0109
  152MOL0     C20898   0.132   8.252   9.408 -0.1820 -0.1460  0.2362
  152MOL0     C20899   0.028   8.153   9.455  0.4358 -0.9071 -0.7973
  152MOL0     C20900   0.048   8.087   9.592  0.3936 -0.2803 -0.9708
  152MOL0     C20901   0.196   8.030   9.611  0.3560 -0.7387  0.9291
  152MOL0     C20902   0.227   7.919   9.516  0.2296  0.0299 -0.6127
  152MOL0     C20903   0.244   7.835   9.432  0.1089  0.0574 -0.4518
  152MOL0     C20904   0.452   8.154   9.276  0.1661  0.0145 -0.4993
  152MOL0     C20905   0.578   8.202   9.235  0.9246 -0.4105  0.8838
  152MOL0     C20906   0.668   8.092   9.176  0.6089 -0.5989  0.2971
  152MOL0     H20907   0.816   8.611   8.965 -0.2273  0.2438 -1.0815
  152MOL0     H20908   1.031   8.707   8.885  1.6901  3.4639  0.7248
  152MOL0     H20909   1.209   8.909   8.953  0.2331  0.9393  0.1777
  152MOL0     H20910   1.239   8.780   8.834  0.2009 -0.3736 -0.5850
  152MOL0     H20911   1.435   8.913   9.017 -1.3113  1.4175 -0.3503
  152MOL0     H20912   1.476   8.786   8.897 -1.7804  0.5663 -4.1440
  152MOL0     H20913   1.433   8.908   8.719  1.1250  0.4167 -0.7077
  152MOL0     H20914   1.403   9.066   8.804  1.6673  0.9408 -0.3336
  152MOL0     H20915   1.640   9.084   8.865 -4.3831  1.4809 -0.1610
  152MOL0     H20916   1.666   8.911   8.846 -0.6368  1.1538  3.2231
  152MOL0     H20917   1.593   9.086   8.609 -0.8618  0.1887  1.9287
  152MOL0     H20918   1.663   8.926   8.592 -1.5521  1.7320 -1.8823
  152MOL0     H20919   1.815   9.111   8.541  2.7640  0.0556 -0.2604
  152MOL0     H20920   1.799   9.165   8.707 -0.1260 -0.8715  0.8393
  152MOL0     H20921   1.899   8.887   8.663 -1.0030 -1.7000  2.4905
  152MOL0     H20922   1.921   8.999   8.803  5.5762 -0.9758  0.0214
  152MOL0     H20923   2.052   9.016   8.529 -1.3659  1.1788 -0.4598
  152MOL0     H20924   2.067   9.145   8.647  1.3744  0.3857 -1.0900
  152MOL0     H20925   2.214   9.072   8.858 -1.9907 -1.6609  3.0109
  152MOL0     H20926   2.438   8.774   8.950  3.2276  1.0647  0.9032
  152MOL0     H20927   2.438   8.942   8.978 -2.3793 -0.8393  0.9044
  152MOL0     H20928   2.595   8.822   8.741  1.2729 -2.0918  1.4025
  152MOL0     H20929   2.587   8.989   8.787 -1.2314 -0.2005  0.8334
  152MOL0     H20930   2.678   8.910   9.023  0.4384  1.7204 -0.1462
  152MOL0     H20931   2.698   8.755   8.943  2.6805  0.0375 -1.2669
  152MOL0     H20932   2.850   8.838   8.805 -0.7036  0.1800  0.5801
  152MOL0     H20933   2.819   9.016   8.823  0.7525 -0.0067 -2.2323
  152MOL0     H20934   2.765   9.150   9.017  0.2154  0.6069 -1.0278
  152MOL0     H20935   2.833   9.459   9.113 -0.5091 -0.5515 -1.2007
  152MOL0     H20936   2.759   9.383   9.262 -1.6212  3.0044 -0.9588
  152MOL0     H20937   2.701   9.342   9.105  0.1628 -0.5206  1.4881
  152MOL0     H20938   3.429   9.425   9.443  1.7473  2.0759  1.4086
  152MOL0     H20939   3.494   9.621   9.545 -0.6715  0.6502 -0.9095
  152MOL0     H20940   3.390   9.849   9.823 -0.0781 -1.2683  0.4531
  152MOL0     H20941   3.514   9.778   9.709 -1.7207 -0.3170 -1.2630
  152MOL0     H20942   3.463  10.041   9.606  0.1528 -1.0892 -0.5950
  152MOL0     H20943   3.428  10.050   9.779 -0.1686 -2.6374  3.0966
  152MOL0     H20944   3.683   9.933   9.655  2.3108 -0.0160  1.3254
  152MOL0     H20945   3.657   9.950   9.828 -0.2225 -0.0452 -0.4155
  152MOL0     H20946   3.643  10.212   9.801  3.1782  0.9761 -0.1860
  152MOL0     H20947   3.650  10.186   9.628  3.6569  1.3847 -0.5112
  152MOL0     H20948   3.868  10.148   9.840 -1.3210  1.9350  0.9644
  152MOL0     H20949   3.879  10.064   9.691 -1.4325 -1.0780  2.5095
  152MOL0     H20950   3.856  10.377   9.701  0.1028  0.2636 -0.0522
  152MOL0     H20951   3.826  10.272   9.556 -0.4621  2.3462 -0.3539
  152MOL0     H20952   4.058  10.186   9.628 -3.3402 -1.8332  0.6139
  152MOL0     H20953   4.064  10.321   9.745 -0.5489 -0.3598 -0.0234
  152MOL0     H20954   4.004  10.463   9.551 -2.5663 -1.4222 -2.3987
  152MOL0     H20955   4.052  10.326   9.445 -1.3748  0.4449 -0.1543
  152MOL0     H20956   3.086   9.751   9.595 -2.9899 -1.9173 -1.4246
  152MOL0     H20957   3.007   9.549   9.482 -0.4613  1.0439 -0.0847
  152MOL0     H20958   3.206   9.136   9.232 -0.5144  1.4611  0.0841
  152MOL0     H20959   3.146   8.963   9.121 -0.6408 -0.8620  0.9578
  152MOL0     H20960   1.216   8.632   9.260  0.7692  2.3253 -1.1043
  152MOL0     H20961   0.992   8.550   9.352 -0.9255 -2.7242 -1.3410
  152MOL0     H20962   0.526   8.532   9.311 -1.3989  0.7454 -3.0093
  152MOL0     H20963   0.305   8.453   9.353  0.8494  1.7784 -3.3850
  152MOL0     H20964   0.174   8.289   9.502 -0.9623  0.8203  0.2194
  152MOL0     H20965   0.089   8.326   9.339  0.6640 -1.6549 -2.0232
  152MOL0     H20966   0.006   8.083   9.374  0.5057 -1.2577 -0.5163
  152MOL0     H20967  -0.068   8.204   9.467  0.1390 -2.0905  3.3348
  152MOL0     H20968   0.040   8.161   9.672 -0.1616 -1.1954 -0.1627
  152MOL0     H20969  -0.017   8.003   9.619 -1.4331  1.5772  0.8055
  152MOL0     H20970   0.218   7.988   9.710  1.7830 -0.2150  0.8583
  152MOL0     H20971   0.271   8.109   9.598 -1.3475  0.7874 -0.1099
  152MOL0     H20972   0.274   7.759   9.364  0.7825  1.0490 -1.2920
  152MOL0     H20973   0.430   8.048   9.273 -1.4716  0.2846  0.9448
  152MOL0     H20974   0.725   8.134   9.093  0.4236 -2.1510 -0.6424
  152MOL0     H20975   0.745   8.062   9.248  0.6044  1.5791  1.3024
  152MOL0     H20976   0.613   8.003   9.146 -2.9348  1.1227  1.0251
  153MOL0     O20977  11.338   2.063   3.649  0.3871  0.6071 -0.2031
  153MOL0     C20978  11.298   1.947   3.643 -0.3254 -0.4173  0.5875
  153MOL0     O20979  11.372   1.842   3.688 -0.0286 -0.3317  0.3867
  153MOL0     C20980  11.509   1.856   3.702 -0.4813  0.7826  0.8498
  153MOL0     C20981  11.596   1.927   3.607 -0.2916 -0.0101 -0.1315
  153MOL0     C20982  11.729   1.937   3.615 -0.5596 -0.1585  0.9461
  153MOL0     C20983  11.797   1.881   3.731  0.0758 -0.5984  0.1561
  153MOL0     O20984  11.929   1.895   3.749 -0.9402 -0.1848 -0.1777
  153MOL0     C20985  12.009   1.848   3.640  0.0825  0.4379  0.4972
  153MOL0     C20986  12.149   1.804   3.693  0.1889  1.0469 -0.8085
  153MOL0     C20987  12.147   1.698   3.802  0.0160  0.0624 -0.0292
  153MOL0     C20988  12.279   1.690   3.877 -0.7824 -0.4723  0.7354
  153MOL0     C20989  12.268   1.611   4.008 -0.0593  0.0408 -0.2940
  153MOL0     C20990  12.230   1.460   3.994 -0.2752  0.2361 -0.2954
  153MOL0     C20991  12.320   1.392   3.890  0.0894 -0.3419  0.2491
  153MOL0     C20992  12.323   1.243   3.899 -0.5743  0.8084 -1.0201
  153MOL0     N20993  12.383   1.167   3.791 -0.1939 -0.9295  0.1828
  153MOL0     C20994  12.474   1.217   3.695  1.0398  0.5901  0.4504
  153MOL0     C20995  12.490   1.113   3.606  0.0611 -0.4985  0.3758
  153MOL0     C20996  12.572   1.129   3.479 -0.3349  0.5167  0.3662
  153MOL0     C20997  12.505   1.068   3.357  0.0860 -0.2122  0.2594
  153MOL0     C20998  12.522   0.911   3.354 -0.7124 -0.3652  0.6518
  153MOL0     C20999  12.438   0.853   3.256  0.4112 -0.7337  0.3998
  153MOL0     O21000  12.297   0.901   3.250 -0.3224  0.5083  0.4295
  153MOL0     C21001  12.211   0.874   3.343  0.3433 -0.1341 -0.3665
  153MOL0     C21002  12.226   0.771   3.438  0.5700 -0.1098 -0.0692
  153MOL0     C21003  12.146   0.773   3.557 -0.0365 -0.2863 -0.1586
  153MOL0     C21004  12.152   0.671   3.667 -0.7357 -0.3543 -0.2620
  153MOL0     C21005  12.041   0.865   3.562 -0.4304  0.5283 -0.2021
  153MOL0     C21006  11.940   0.876   3.674  0.3418  0.2750  0.6515
  153MOL0     O21007  11.807   0.898   3.644 -0.6061 -0.6147  0.5780
  153MOL0     C21008  11.713   0.902   3.748 -0.0396 -0.0748  0.3363
  153MOL0     C21009  11.692   0.786   3.829  0.6522 -0.0127 -0.4637
  153MOL0     C21010  11.590   0.788   3.921 -1.0655 -0.2595  0.4184
  153MOL0     C21011  11.512   0.902   3.943 -0.2576 -0.6825 -0.7198
  153MOL0     O21012  11.414   0.902   4.030  0.1291 -0.9373 -0.2146
  153MOL0     C21013  11.419   1.006   4.125  0.3979 -0.3286 -0.2491
  153MOL0     C21014  11.311   0.997   4.239  0.2808 -0.7321 -0.1157
  153MOL0     C21015  11.332   1.106   4.341  0.0921 -0.0534 -0.7563
  153MOL0     C21016  11.206   1.118   4.437  0.2790  1.0626 -0.2310
  153MOL0     C21017  11.231   1.221   4.554 -1.0668 -0.2131 -0.0233
  153MOL0     C21018  11.113   1.217   4.645  0.9719  0.3967  0.5600
  153MOL0     C21019  11.118   1.300   4.774 -0.2379  0.9455  0.3852
  153MOL0     C21020  11.224   1.248   4.877  0.7695 -1.6875  0.1278
  153MOL0    Cl21021  11.235   1.338   5.029  0.0636  0.3261  0.0921
  153MOL0     C21022  11.549   1.027   3.875 -0.1998 -0.0760  0.0132
  153MOL0     C21023  11.638   1.018   3.767 -0.1120 -0.4981 -0.8171
  153MOL0     O21024  11.975   0.853   3.793 -0.8760 -0.9842  0.0297
  153MOL0     C21025  12.016   0.943   3.448  0.2053 -0.4280 -0.6444
  153MOL0     C21026  12.106   0.964   3.353 -0.1570  0.0391 -0.5949
  153MOL0     N21027  12.418   1.005   3.649  0.2700 -0.5724 -0.9710
  153MOL0     N21028  12.356   1.036   3.759 -0.2622  0.4365 -0.6974
  153MOL0     C21029  11.721   1.802   3.819 -0.5475 -0.2887 -0.2006
  153MOL0     C21030  11.577   1.799   3.809 -0.2849 -0.1193  0.5338
  153MOL0     C21031  11.155   1.929   3.625  0.4777 -0.1509  0.9634
  153MOL0     C21032  11.083   2.052   3.609  0.2682 -0.2519 -0.0982
  153MOL0     C21033  10.945   2.044   3.603 -0.4866 -0.0267 -0.0331
  153MOL0     C21034  10.876   1.922   3.596  0.0263  0.0133  0.2767
  153MOL0     O21035  10.732   1.906   3.607  0.2129  0.2487 -0.4641
  153MOL0     C21036  10.651   2.022   3.608  0.1319 -0.3430 -0.1207
  153MOL0     C21037  10.516   1.961   3.641 -0.2616 -0.2221  0.3149
  153MOL0     C21038  10.405   2.058   3.601  0.3357  0.1739  0.2681
  153MOL0     C21039  10.396   2.175   3.700  1.3820 -0.2412 -0.3568
  153MOL0     C21040  10.269   2.256   3.681 -0.4786 -0.6631  0.4901
  153MOL0     C21041  10.167   2.323   3.662  0.2666  0.3666  0.9062
  153MOL0     C21042  10.946   1.801   3.609  0.4038 -0.2548  0.0284
  153MOL0     C21043  11.083   1.800   3.620 -0.1429  0.3914  0.8694
  153MOL0     C21044  11.156   1.674   3.620  0.0620  0.6536  0.1787
  153MOL0     H21045  11.531   1.973   3.533 -1.4552 -3.9656 -1.8704
  153MOL0     H21046  11.783   1.998   3.543  1.0375 -2.9994 -0.4630
  153MOL0     H21047  12.014   1.925   3.562 -1.3530  0.9363  0.8675
  153MOL0     H21048  11.954   1.766   3.593 -3.1159  2.4685  0.4247
  153MOL0     H21049  12.196   1.754   3.608 -0.4237 -2.0604  0.5664
  153MOL0     H21050  12.203   1.895   3.721  0.0955  0.5480  1.0852
  153MOL0     H21051  12.063   1.719   3.870 -2.6661  0.0485 -3.0646
  153MOL0     H21052  12.133   1.601   3.754  1.4622 -1.1548  1.8666
  153MOL0     H21053  12.360   1.645   3.819  2.4787  2.5672  2.4799
  153MOL0     H21054  12.312   1.791   3.904 -1.6567  0.5139 -1.6308
  153MOL0     H21055  12.193   1.669   4.062 -1.3140  0.3220 -2.2482
  153MOL0     H21056  12.360   1.620   4.067 -1.0866 -0.9608  1.5477
  153MOL0     H21057  12.242   1.410   4.091  0.3345  0.1724 -0.4027
  153MOL0     H21058  12.125   1.462   3.965 -0.4521  2.3748  0.3527
  153MOL0     H21059  12.420   1.436   3.897  0.7020 -1.9876  3.8563
  153MOL0     H21060  12.277   1.418   3.792 -0.0067  0.9659  0.6199
  153MOL0     H21061  12.378   1.214   3.989  0.6402 -1.4061 -2.3918
  153MOL0     H21062  12.223   1.202   3.911 -0.8441  2.0767  2.0790
  153MOL0     H21063  12.530   1.309   3.700  2.1263 -0.1196  1.9321
  153MOL0     H21064  12.668   1.079   3.499  0.0168  0.0561 -2.1705
  153MOL0     H21065  12.577   1.237   3.462 -1.9732  0.8904  1.9242
  153MOL0     H21066  12.401   1.100   3.353 -0.6270 -2.4160 -0.5065
  153MOL0     H21067  12.548   1.109   3.265 -1.7733  1.2063 -0.0385
  153MOL0     H21068  12.623   0.875   3.334 -2.0429 -2.3463 -3.6773
  153MOL0     H21069  12.487   0.864   3.447  1.1557 -1.5335  0.8240
  153MOL0     H21070  12.484   0.875   3.159 -0.8880 -1.6009 -0.4547
  153MOL0     H21071  12.450   0.745   3.265 -1.3086 -1.3211 -2.8645
  153MOL0     H21072  12.307   0.700   3.426  0.4198 -0.1313 -1.0303
  153MOL0     H21073  12.052   0.647   3.704 -0.7961  3.5972  2.8017
  153MOL0     H21074  12.202   0.698   3.760 -3.8049  0.9993  1.1487
  153MOL0     H21075  12.194   0.578   3.630 -0.0678 -0.1273 -0.0802
  153MOL0     H21076  11.748   0.694   3.818 -0.0104 -0.5771  0.6980
  153MOL0     H21077  11.566   0.700   3.980 -0.1377  0.3098  1.6719
  153MOL0     H21078  11.520   0.998   4.166  0.7436 -0.6521 -1.1433
  153MOL0     H21079  11.404   1.102   4.074 -0.1706 -0.3422 -0.1122
  153MOL0     H21080  11.212   1.013   4.193 -1.0618 -3.4304  1.6190
  153MOL0     H21081  11.313   0.900   4.288  1.2092  0.0163  1.4012
  153MOL0     H21082  11.342   1.202   4.288  0.9871 -0.6271 -1.6648
  153MOL0     H21083  11.423   1.090   4.400 -1.2045  2.3539  2.1706
  153MOL0     H21084  11.199   1.017   4.478  1.6918  0.0017 -2.3956
  153MOL0     H21085  11.114   1.132   4.380 -1.9239 -2.0713  2.2009
  153MOL0     H21086  11.321   1.200   4.612  0.0325  1.1740 -1.1603
  153MOL0     H21087  11.242   1.316   4.500  1.5077 -0.5298 -0.1823
  153MOL0     H21088  11.099   1.112   4.674  0.8797  0.5630  1.1101
  153MOL0     H21089  11.018   1.247   4.601  1.3989 -0.9755 -1.4856
  153MOL0     H21090  11.019   1.310   4.818 -1.3492 -0.0593 -1.7029
  153MOL0     H21091  11.163   1.391   4.734  1.8457  0.3504  1.2290
  153MOL0     H21092  11.328   1.256   4.842  0.3182  0.6676 -0.8230
  153MOL0     H21093  11.198   1.142   4.885 -2.6578 -0.9446  0.1911
  153MOL0     H21094  11.486   1.114   3.885 -0.4800 -0.3139  0.3520
  153MOL0     H21095  11.661   1.103   3.703 -5.6101  0.2287 -2.2960
  153MOL0     H21096  11.928   1.007   3.442 -0.7294 -1.4351  1.2748
  153MOL0     H21097  12.096   1.040   3.277 -0.4568  1.2817  0.6556
  153MOL0     H21098  11.767   1.749   3.902 -3.2851  0.3778  1.8629
  153MOL0     H21099  11.506   1.742   3.868 -2.6835 -0.4698 -2.4775
  153MOL0     H21100  11.126   2.150   3.625  0.1608 -0.5307  2.1784
  153MOL0     H21101  10.888   2.137   3.603 -0.3257  0.1324 -2.2234
  153MOL0     H21102  10.675   2.101   3.681 -0.0476 -0.3461 -0.0574
  153MOL0     H21103  10.660   2.064   3.507  1.4432 -2.9798 -1.1853
  153MOL0     H21104  10.503   1.930   3.745 -0.9154 -2.9304 -0.4942
  153MOL0     H21105  10.502   1.873   3.578  1.3104 -1.5826  1.7856
  153MOL0     H21106  10.427   2.086   3.498 -1.0358  0.0483 -0.0723
  153MOL0     H21107  10.312   2.001   3.608  0.2512  0.3974  0.9968
  153MOL0     H21108  10.484   2.239   3.693  0.6884  0.8216  0.3713
  153MOL0     H21109  10.389   2.136   3.802 -1.6005 -0.5144 -0.5556
  153MOL0     H21110  10.073   2.372   3.648 -0.6164 -0.7349  2.6695
  153MOL0     H21111  10.890   1.709   3.617 -1.7019  0.8816 -0.6635
  153MOL0     H21112  11.243   1.669   3.554  0.0622 -2.8079  0.2642
  153MOL0     H21113  11.189   1.653   3.723  1.1336  0.2079 -0.2439
  153MOL0     H21114  11.088   1.595   3.589 -0.2087  0.8017  0.3923
  154MOL0     O21115   0.587   7.241   6.181 -0.6285  0.1987  0.0802
  154MOL0     C21116   0.506   7.281   6.262  0.0419 -0.1774 -0.4414
  154MOL0     O21117   0.485   7.236   6.385 -0.7028 -0.3097 -0.3639
  154MOL0     C21118   0.586   7.174   6.456  0.2525 -0.2047 -0.0045
  154MOL0     C21119   0.706   7.243   6.478  0.5375  0.2359 -0.6298
  154MOL0     C21120   0.814   7.182   6.546 -0.1816 -0.5404  0.2209
  154MOL0     C21121   0.807   7.048   6.591  0.0832  0.0081  0.0242
  154MOL0     O21122   0.897   6.980   6.665 -0.4180 -0.6997 -0.5347
  154MOL0     C21123   1.031   7.033   6.668 -0.8031  0.0031 -0.1677
  154MOL0     C21124   1.130   6.928   6.708 -0.2576  0.1711  0.0796
  154MOL0     C21125   1.277   6.983   6.704  0.2379 -0.3877  0.2333
  154MOL0     C21126   1.387   6.878   6.721  0.0423 -0.4523  0.4960
  154MOL0     C21127   1.524   6.932   6.744  0.1149 -0.1237 -0.0466
  154MOL0     C21128   1.626   6.816   6.756  0.4965  0.0069 -0.0957
  154MOL0     C21129   1.762   6.843   6.812  0.6833  0.1333  0.2521
  154MOL0     C21130   1.771   6.847   6.962 -0.6312  0.1410  0.1142
  154MOL0     N21131   1.913   6.857   6.993 -0.3240 -0.1716  0.4123
  154MOL0     C21132   2.018   6.769   6.977 -0.3913 -0.0497  0.4446
  154MOL0     C21133   2.127   6.825   7.039  0.2085 -0.5293  0.2817
  154MOL0     C21134   2.252   6.744   7.038 -0.0368 -0.6048  0.9432
  154MOL0     C21135   2.354   6.802   6.940 -0.1833 -0.2928  0.6847
  154MOL0     C21136   2.419   6.924   6.996 -0.1370  0.2881  0.1446
  154MOL0     C21137   2.559   6.926   6.919 -0.9514  0.5821  0.4464
  154MOL0     O21138   2.628   7.052   6.948  0.8616 -0.2212 -0.1622
  154MOL0     C21139   2.762   7.066   6.937  0.1254 -0.0401  0.3972
  154MOL0     C21140   2.823   7.170   7.008  0.0690  0.5563  0.5953
  154MOL0     C21141   2.961   7.180   6.998 -0.4590  0.1248  0.7369
  154MOL0     C21142   3.010   7.274   7.092  0.4595 -0.6270 -0.3285
  154MOL0     C21143   3.036   7.097   6.912  0.0624 -0.1335 -0.2023
  154MOL0     C21144   3.187   7.092   6.933 -0.2745 -0.0328 -0.2580
  154MOL0     O21145   3.251   7.082   6.818 -0.6409 -0.0569 -0.3218
  154MOL0     C21146   3.390   7.082   6.823  0.0271 -0.4253  0.2086
  154MOL0     C21147   3.458   6.976   6.757  0.0352  0.4524 -0.7694
  154MOL0     C21148   3.602   6.978   6.758 -0.6687  0.1399  0.4702
  154MOL0     C21149   3.668   7.090   6.811  0.8879 -1.0465 -0.3166
  154MOL0     O21150   3.805   7.085   6.796  0.3570  0.2488 -0.3641
  154MOL0     C21151   3.889   7.192   6.809 -0.3072 -0.2836 -0.4409
  154MOL0     C21152   4.036   7.163   6.777 -0.1767 -0.1766 -0.0270
  154MOL0     C21153   4.113   7.299   6.759 -0.3043  0.7451  0.0591
  154MOL0     C21154   4.263   7.280   6.712  1.4040  0.2433  0.6006
  154MOL0     C21155   4.344   7.409   6.719  0.8952  0.3020  0.2666
  154MOL0     C21156   4.494   7.382   6.744 -0.1969 -0.0489  0.1888
  154MOL0     C21157   4.594   7.499   6.744  0.7501 -0.5607  0.9680
  154MOL0     C21158   4.735   7.458   6.773  0.8733  0.1691 -0.1123
  154MOL0    Cl21159   4.847   7.603   6.768  0.0045 -0.0073  0.1170
  154MOL0     C21160   3.601   7.202   6.863 -0.1132  0.3098 -0.4009
  154MOL0     C21161   3.461   7.191   6.869  0.7298  0.4456 -0.2919
  154MOL0     O21162   3.238   7.095   7.045  0.6530 -0.2069  0.6712
  154MOL0     C21163   2.973   7.004   6.834 -0.5034  0.1219 -0.1225
  154MOL0     C21164   2.836   6.985   6.853  0.1198  0.0045  0.3275
  154MOL0     N21165   2.096   6.943   7.106 -0.6434  0.3552  0.7895
  154MOL0     N21166   1.969   6.960   7.065  0.1854 -0.3575 -0.7535
  154MOL0     C21167   0.687   6.983   6.572  0.1411 -0.1452 -0.6197
  154MOL0     C21168   0.578   7.043   6.504  0.3574 -0.4703  0.5424
  154MOL0     C21169   0.432   7.405   6.226  0.1799  0.3695  0.4547
  154MOL0     C21170   0.396   7.492   6.325 -0.8581  0.5988 -0.6644
  154MOL0     C21171   0.302   7.604   6.301 -0.2628  0.1736 -0.7482
  154MOL0     C21172   0.255   7.630   6.171 -0.3052 -0.1983  0.2053
  154MOL0     O21173   0.171   7.732   6.131  0.1119 -0.0368  0.0880
  154MOL0     C21174   0.140   7.829   6.228  0.4104  0.1888  0.1939
  154MOL0     C21175   0.038   7.928   6.168  0.4235 -0.1394  0.7435
  154MOL0     C21176  -0.094   7.870   6.106  0.3947  0.1740  0.0462
  154MOL0     C21177  -0.181   7.991   6.097 -0.0149  0.6217  0.5625
  154MOL0     C21178  -0.311   7.949   6.033  0.1709  0.3365 -0.8042
  154MOL0     C21179  -0.414   7.936   5.972  0.8630 -0.8752 -0.1105
  154MOL0     C21180   0.288   7.530   6.079 -0.0491 -0.0004  0.0499
  154MOL0     C21181   0.366   7.419   6.099  0.2200 -0.2346  0.2793
  154MOL0     C21182   0.385   7.328   5.980 -0.0932 -0.5852  0.8103
  154MOL0     H21183   0.725   7.341   6.437  6.7328 -0.3699 -0.0993
  154MOL0     H21184   0.901   7.245   6.562 -1.3328  0.4949  2.9710
  154MOL0     H21185   1.026   7.110   6.746  2.8601 -0.5056  0.7303
  154MOL0     H21186   1.071   7.078   6.577  1.5381  0.0820  0.8302
  154MOL0     H21187   1.098   6.878   6.799 -1.0240  1.1017  0.3463
  154MOL0     H21188   1.124   6.859   6.623  1.3721  1.0933 -0.8170
  154MOL0     H21189   1.287   7.036   6.608 -1.7128  1.4291  0.9521
  154MOL0     H21190   1.277   7.061   6.781  1.2190 -1.9055  1.8264
  154MOL0     H21191   1.367   6.811   6.804 -2.7213  1.1163  1.2406
  154MOL0     H21192   1.391   6.811   6.635  1.3769  0.9161 -0.5882
  154MOL0     H21193   1.529   6.976   6.844 -1.5248 -0.5199  0.2499
  154MOL0     H21194   1.561   7.004   6.670 -1.0958  0.1837 -0.3705
  154MOL0     H21195   1.577   6.739   6.816 -0.2007 -1.0914 -1.9904
  154MOL0     H21196   1.638   6.774   6.655 -2.1899 -2.4433  0.4772
  154MOL0     H21197   1.800   6.935   6.766 -0.9725  0.6752 -0.1045
  154MOL0     H21198   1.821   6.760   6.774 -2.9947 -2.1317 -1.0298
  154MOL0     H21199   1.716   6.926   7.015 -1.6061 -3.0922  4.5071
  154MOL0     H21200   1.740   6.748   6.997 -0.8111 -0.0667 -0.6031
  154MOL0     H21201   2.018   6.669   6.937  0.1748 -0.6980  1.9743
  154MOL0     H21202   2.230   6.645   6.999  1.5846  0.6191 -3.6590
  154MOL0     H21203   2.276   6.743   7.145 -0.0406 -0.8290  0.9427
  154MOL0     H21204   2.433   6.729   6.915 -0.0325  0.4527 -1.2515
  154MOL0     H21205   2.309   6.826   6.843  1.4657  1.5821  0.2925
  154MOL0     H21206   2.358   7.007   6.958  0.4086  0.7851  0.3257
  154MOL0     H21207   2.423   6.927   7.105  0.7905  2.0214  0.1099
  154MOL0     H21208   2.615   6.837   6.949 -1.0861  0.5833  0.7039
  154MOL0     H21209   2.549   6.923   6.810  2.7039 -1.4361  0.0044
  154MOL0     H21210   2.765   7.239   7.070  0.9041  3.5742 -1.7247
  154MOL0     H21211   3.005   7.228   7.191  5.1953  2.6371  1.8170
  154MOL0     H21212   2.948   7.364   7.099  1.2000 -0.0264 -1.1439
  154MOL0     H21213   3.113   7.308   7.073  0.0379  1.2372  0.4704
  154MOL0     H21214   3.397   6.889   6.736 -1.7757  1.3891  0.3408
  154MOL0     H21215   3.650   6.896   6.707 -0.2570 -0.5223  1.8773
  154MOL0     H21216   3.844   7.264   6.739 -5.1760 -1.9560  0.5332
  154MOL0     H21217   3.900   7.225   6.912  0.7016  0.5440 -0.8017
  154MOL0     H21218   4.082   7.102   6.856 -0.2714  2.1331  1.9405
  154MOL0     H21219   4.044   7.111   6.681  3.3297  2.9652 -1.6806
  154MOL0     H21220   4.114   7.343   6.860  4.3665  0.1738  0.4571
  154MOL0     H21221   4.050   7.369   6.702 -0.5881  1.7585  1.5422
  154MOL0     H21222   4.267   7.243   6.609  2.6983  2.4333 -0.2128
  154MOL0     H21223   4.305   7.204   6.779 -0.1416 -1.2850 -0.0654
  154MOL0     H21224   4.344   7.468   6.627  2.1817 -0.8976 -0.5477
  154MOL0     H21225   4.311   7.472   6.802 -0.9913 -3.0711  2.2532
  154MOL0     H21226   4.529   7.308   6.672 -0.0863 -1.3088  1.4737
  154MOL0     H21227   4.502   7.343   6.846 -1.9475  2.1931  1.2837
  154MOL0     H21228   4.571   7.579   6.814  0.9127  0.5194 -0.1780
  154MOL0     H21229   4.599   7.541   6.643  1.6146  1.1085  1.6682
  154MOL0     H21230   4.769   7.381   6.703  2.5571  0.0162  0.8343
  154MOL0     H21231   4.721   7.421   6.875 -1.7786  0.4477 -0.2952
  154MOL0     H21232   3.654   7.288   6.902 -0.4346 -1.1947  3.9073
  154MOL0     H21233   3.422   7.265   6.939  1.5968 -1.1062  1.9674
  154MOL0     H21234   3.036   6.942   6.771  1.6638 -0.3239  2.3201
  154MOL0     H21235   2.788   6.906   6.794 -2.1625  0.7543  1.0513
  154MOL0     H21236   0.688   6.889   6.626 -1.3596 -0.4219 -1.0588
  154MOL0     H21237   0.490   6.985   6.479  0.0719  1.0050 -2.1942
  154MOL0     H21238   0.442   7.478   6.423  0.2261 -0.7423 -1.3295
  154MOL0     H21239   0.279   7.660   6.391  0.3551 -0.9545  0.1519
  154MOL0     H21240   0.107   7.778   6.319 -1.8828  0.3987 -0.4577
  154MOL0     H21241   0.226   7.889   6.257 -0.6109  3.0604 -2.1601
  154MOL0     H21242   0.099   7.969   6.087 -0.3849 -0.5810 -0.1143
  154MOL0     H21243   0.022   8.000   6.250 -0.9194 -0.1845  0.5494
  154MOL0     H21244  -0.075   7.814   6.014 -0.0431  1.1713 -0.6689
  154MOL0     H21245  -0.137   7.797   6.175 -0.0230 -2.5200 -2.8434
  154MOL0     H21246  -0.139   8.055   6.019  1.3035 -0.7023  0.1532
  154MOL0     H21247  -0.189   8.037   6.196  4.1056  0.6531  1.0686
  154MOL0     H21248  -0.499   7.912   5.912  0.6053  0.5194 -0.3360
  154MOL0     H21249   0.254   7.549   5.978  3.8930  2.0673 -1.1235
  154MOL0     H21250   0.351   7.372   5.886  1.3303 -2.4598 -0.6627
  154MOL0     H21251   0.491   7.306   5.960 -0.7688 -1.5367 -2.2562
  154MOL0     H21252   0.337   7.233   6.004 -0.3041 -0.8047 -0.4103
  155MOL0     O21253   8.290   6.230   5.986  0.3596 -0.4834  0.0192
  155MOL0     C21254   8.212   6.160   6.046 -0.2682 -0.8511 -0.1300
  155MOL0     O21255   8.225   6.128   6.176 -0.0150  0.5146 -0.6373
  155MOL0     C21256   8.330   6.188   6.247 -0.4966  0.5485 -0.2891
  155MOL0     C21257   8.317   6.324   6.275  0.0830  0.1383 -0.9665
  155MOL0     C21258   8.405   6.391   6.368 -0.2972  0.2413  0.3716
  155MOL0     C21259   8.521   6.317   6.406  0.9221  0.0703  0.7192
  155MOL0     O21260   8.608   6.389   6.477  0.2268 -0.1493 -0.1078
  155MOL0     C21261   8.742   6.388   6.427 -0.2522  0.3992  0.2349
  155MOL0     C21262   8.821   6.500   6.504  0.9480  0.1876  0.4935
  155MOL0     C21263   8.974   6.491   6.473 -0.3515 -0.7568  0.1586
  155MOL0     C21264   9.066   6.584   6.554  0.5796  0.0216 -0.9867
  155MOL0     C21265   9.212   6.564   6.526  0.6065  0.5114  0.8847
  155MOL0     C21266   9.267   6.429   6.578  0.2424  0.3590  0.2418
  155MOL0     C21267   9.426   6.428   6.584  0.6797  0.5169  0.6513
  155MOL0     C21268   9.486   6.426   6.447  0.2160 -0.0492  0.2432
  155MOL0     N21269   9.635   6.419   6.467  0.1089  0.2794 -0.5081
  155MOL0     C21270   9.714   6.519   6.503 -0.6830 -0.2535 -0.1502
  155MOL0     C21271   9.840   6.468   6.510  0.6059 -0.3186 -0.2467
  155MOL0     C21272   9.956   6.554   6.555 -0.4145  0.0890 -0.0850
  155MOL0     C21273  10.054   6.584   6.441 -0.7700  0.2537 -0.3197
  155MOL0     C21274  10.137   6.459   6.400 -0.6327  0.9842  0.2144
  155MOL0     C21275  10.247   6.504   6.297 -0.3541  0.2043  0.9033
  155MOL0     O21276  10.350   6.584   6.359 -0.0285  0.2497  0.0536
  155MOL0     C21277  10.479   6.533   6.368  0.4721 -0.2613  0.0067
  155MOL0     C21278  10.578   6.546   6.264 -0.5904  0.4887  0.4162
  155MOL0     C21279  10.709   6.508   6.299  0.2153  0.2760 -0.0997
  155MOL0     C21280  10.814   6.534   6.191  0.5064  0.3907 -0.1667
  155MOL0     C21281  10.745   6.469   6.433  0.5438  0.1765 -0.3211
  155MOL0     C21282  10.882   6.425   6.465 -0.3841 -0.5605 -0.5778
  155MOL0     O21283  10.916   6.431   6.598 -0.5687 -0.2997 -0.7589
  155MOL0     C21284  11.042   6.400   6.645  1.0572 -0.0282 -0.3482
  155MOL0     C21285  11.165   6.435   6.588  0.2456 -1.2055 -0.3548
  155MOL0     C21286  11.286   6.373   6.642  0.0086 -0.2158 -0.2502
  155MOL0     C21287  11.284   6.289   6.755 -0.6515  0.8648  0.1787
  155MOL0     O21288  11.403   6.233   6.804  0.0870  0.3339 -0.1015
  155MOL0     C21289  11.414   6.131   6.908 -0.4067  0.0735 -0.6402
  155MOL0     C21290  11.528   6.164   7.009 -0.0447  0.5875 -0.4498
  155MOL0     C21291  11.563   6.059   7.118  0.4559 -0.2421  0.7855
  155MOL0     C21292  11.689   5.972   7.093  0.1064  0.7701 -0.3092
  155MOL0     C21293  11.754   5.935   7.230  0.1454 -0.3204 -0.8485
  155MOL0     C21294  11.858   5.822   7.218  0.0716  0.1959  0.4938
  155MOL0     C21295  11.980   5.841   7.310 -0.0645  0.2660  0.1589
  155MOL0     C21296  12.105   5.781   7.237  0.5957 -0.7189  0.3704
  155MOL0    Cl21297  12.069   5.606   7.231 -0.2476 -0.4458  0.0787
  155MOL0     C21298  11.154   6.244   6.798  0.1095  0.4353  0.3520
  155MOL0     C21299  11.034   6.303   6.739  0.3764  0.1752  0.4856
  155MOL0     O21300  10.947   6.369   6.376 -0.0043 -0.3704 -0.2072
  155MOL0     C21301  10.649   6.464   6.538 -0.4572  0.6397  0.1525
  155MOL0     C21302  10.514   6.496   6.500  0.8136  0.5201  0.1891
  155MOL0     N21303   9.844   6.340   6.476  0.1333 -0.9385  0.8043
  155MOL0     N21304   9.714   6.304   6.452 -0.6759  0.4796 -0.2100
  155MOL0     C21305   8.543   6.191   6.361  0.3083 -0.2898 -0.4506
  155MOL0     C21306   8.443   6.123   6.283  0.3713 -0.6592 -0.0337
  155MOL0     C21307   8.092   6.122   5.971 -0.3415 -0.3413 -0.9007
  155MOL0     C21308   8.007   6.032   6.031 -0.6322  0.9202 -0.1880
  155MOL0     C21309   7.886   5.989   5.971  0.2168 -0.4032  0.2181
  155MOL0     C21310   7.838   6.035   5.852 -0.7115 -0.2927  0.9866
  155MOL0     O21311   7.712   5.994   5.811  0.6034 -0.3648 -0.8343
  155MOL0     C21312   7.648   6.051   5.696  0.4179 -0.0282  0.5939
  155MOL0     C21313   7.503   5.993   5.699 -0.7051 -0.9962 -0.2136
  155MOL0     C21314   7.494   5.842   5.720  0.0097  0.7532 -0.0678
  155MOL0     C21315   7.367   5.776   5.670  0.1842  0.6371 -0.4936
  155MOL0     C21316   7.371   5.638   5.715  0.9771  0.0892 -0.6333
  155MOL0     C21317   7.374   5.522   5.747 -0.0271 -0.5601 -0.5126
  155MOL0     C21318   7.925   6.126   5.788  0.2820  0.1614 -0.0271
  155MOL0     C21319   8.049   6.171   5.839  0.4850  0.6826  0.1504
  155MOL0     C21320   8.119   6.278   5.756  0.7440 -0.2747 -0.6321
  155MOL0     H21321   8.225   6.367   6.238 -0.2976 -1.7788 -2.4172
  155MOL0     H21322   8.393   6.494   6.397  0.3556 -0.6092  4.1398
  155MOL0     H21323   8.737   6.424   6.324 -0.5787 -0.2091  0.0328
  155MOL0     H21324   8.795   6.293   6.428 -0.4239  0.2464 -1.7946
  155MOL0     H21325   8.780   6.601   6.491  0.2207 -0.0707  0.7583
  155MOL0     H21326   8.806   6.479   6.611 -4.7250  0.3455  0.0192
  155MOL0     H21327   8.996   6.391   6.513 -2.1675 -0.0955  3.1485
  155MOL0     H21328   8.991   6.511   6.367  0.8659  1.3059  0.7020
  155MOL0     H21329   9.032   6.687   6.543 -2.8748 -0.4939  2.4594
  155MOL0     H21330   9.048   6.570   6.661  0.2879 -0.8777 -1.1417
  155MOL0     H21331   9.263   6.644   6.581 -0.4312  1.2627  0.7672
  155MOL0     H21332   9.231   6.566   6.418  0.4944 -0.1166  0.8490
  155MOL0     H21333   9.233   6.405   6.679  0.3308  0.6100  0.3339
  155MOL0     H21334   9.228   6.349   6.515  1.0756 -0.6195  0.9315
  155MOL0     H21335   9.458   6.346   6.648  0.4773  0.1689  0.3123
  155MOL0     H21336   9.448   6.518   6.643  0.1416  3.0206 -2.6571
  155MOL0     H21337   9.451   6.332   6.402 -0.5883  0.3440  0.0246
  155MOL0     H21338   9.461   6.512   6.384 -0.8508  0.7912  1.7551
  155MOL0     H21339   9.694   6.623   6.527 -0.3621  0.6693 -3.4508
  155MOL0     H21340  10.007   6.492   6.629  3.8228  0.2383 -2.5224
  155MOL0     H21341   9.929   6.651   6.598  1.8886  0.4357  0.6939
  155MOL0     H21342   9.993   6.624   6.360 -1.1526 -1.1862 -0.7656
  155MOL0     H21343  10.117   6.665   6.480 -1.1259 -0.2464  1.3620
  155MOL0     H21344  10.195   6.427   6.487 -1.1339 -0.7884 -0.0521
  155MOL0     H21345  10.065   6.393   6.350 -0.3289 -0.0046  1.0442
  155MOL0     H21346  10.304   6.427   6.245  2.0431  2.1013  0.5664
  155MOL0     H21347  10.204   6.571   6.221 -1.0475  0.8848  1.8636
  155MOL0     H21348  10.559   6.583   6.164 -1.5734 -0.0857  0.3833
  155MOL0     H21349  10.846   6.446   6.134 -1.3455 -0.6788  0.3790
  155MOL0     H21350  10.903   6.575   6.240  0.8159 -1.2098  0.6891
  155MOL0     H21351  10.773   6.607   6.121 -1.0500  1.2924  1.5772
  155MOL0     H21352  11.167   6.495   6.497  0.3620 -1.7085 -0.6889
  155MOL0     H21353  11.386   6.400   6.611 -0.1809 -1.1499 -1.7621
  155MOL0     H21354  11.322   6.125   6.967  1.8333 -0.4947  3.1115
  155MOL0     H21355  11.430   6.033   6.861 -3.9970 -0.4793 -0.9958
  155MOL0     H21356  11.621   6.187   6.957 -0.2522 -0.1356 -1.1716
  155MOL0     H21357  11.487   6.257   7.049 -1.1680  0.0734 -0.3594
  155MOL0     H21358  11.477   5.997   7.146 -0.5011  1.3094  1.4501
  155MOL0     H21359  11.588   6.124   7.203 -2.7234 -0.4356  2.0273
  155MOL0     H21360  11.751   6.019   7.015  1.7739 -0.7703  0.0160
  155MOL0     H21361  11.658   5.877   7.048  1.3541  0.8378 -1.3813
  155MOL0     H21362  11.805   6.027   7.259  1.4412 -1.3684  0.3117
  155MOL0     H21363  11.671   5.893   7.288 -0.1670 -1.1842 -1.8909
  155MOL0     H21364  11.889   5.813   7.113  0.7641 -0.4036  0.7466
  155MOL0     H21365  11.810   5.729   7.249 -0.6151  0.9427  1.7330
  155MOL0     H21366  11.951   5.796   7.406  1.3635  0.3969  0.6907
  155MOL0     H21367  11.997   5.948   7.326 -0.7369  0.3947  0.0370
  155MOL0     H21368  12.198   5.801   7.290 -0.4420 -0.1494  2.0553
  155MOL0     H21369  12.117   5.827   7.139  0.1463  0.9310  1.0425
  155MOL0     H21370  11.132   6.167   6.871 -0.5836 -0.4271 -0.7295
  155MOL0     H21371  10.940   6.275   6.785  0.5119  1.2043  1.4265
  155MOL0     H21372  10.667   6.433   6.640  2.0727  1.8567  0.1598
  155MOL0     H21373  10.430   6.493   6.569 -0.0578  1.0075 -0.8226
  155MOL0     H21374   8.630   6.132   6.389  0.1086 -0.4605 -0.1845
  155MOL0     H21375   8.460   6.018   6.262  1.7910 -0.8165  1.6428
  155MOL0     H21376   8.041   5.996   6.127  0.9248  0.7009 -0.7807
  155MOL0     H21377   7.840   5.911   6.030  0.3311  0.1440  1.0381
  155MOL0     H21378   7.652   6.160   5.689 -3.1878  0.1187 -3.7250
  155MOL0     H21379   7.706   6.017   5.610 -0.5843  0.0276 -0.1164
  155MOL0     H21380   7.450   6.028   5.609 -0.1344 -1.2654 -0.6632
  155MOL0     H21381   7.443   6.039   5.778 -0.7372  0.0357 -0.8120
  155MOL0     H21382   7.582   5.793   5.677  1.3115  4.1337 -1.6157
  155MOL0     H21383   7.511   5.822   5.826  0.5625 -1.7079 -0.5482
  155MOL0     H21384   7.348   5.765   5.563 -0.8877 -2.9483 -0.0549
  155MOL0     H21385   7.285   5.838   5.709  0.5588  1.8146 -1.5034
  155MOL0     H21386   7.384   5.422   5.785  3.0607  0.0164  0.5144
  155MOL0     H21387   7.899   6.188   5.702 -0.3182 -0.2772 -0.1705
  155MOL0     H21388   8.214   6.241   5.715  0.3480 -1.9778 -0.0776
  155MOL0     H21389   8.065   6.320   5.671  1.3400  2.1424  0.1188
  155MOL0     H21390   8.145   6.358   5.825  0.5774  0.0203 -0.9089
  156MOL0     O21391   5.109   9.733   9.278  0.1021  0.0802 -0.0125
  156MOL0     C21392   5.112   9.628   9.218  0.8993  0.7181 -0.2733
  156MOL0     O21393   5.198   9.532   9.240  0.2026  0.2388 -0.3580
  156MOL0     C21394   5.285   9.549   9.348  0.2361 -0.1421 -0.4026
  156MOL0     C21395   5.415   9.589   9.348  0.1104 -0.1027  0.0883
  156MOL0     C21396   5.493   9.591   9.459 -0.5075 -0.3741 -0.8425
  156MOL0     C21397   5.442   9.545   9.582  0.5418 -0.5521 -0.0181
  156MOL0     O21398   5.510   9.554   9.702 -0.1561 -0.2535  0.3431
  156MOL0     C21399   5.654   9.569   9.696  0.0553  0.3750  0.9461
  156MOL0     C21400   5.705   9.565   9.835  0.3970 -0.0944 -0.1220
  156MOL0     C21401   5.718   9.417   9.882 -0.8887 -0.1004  0.1511
  156MOL0     C21402   5.584   9.337   9.874 -1.3044  0.0368  0.0009
  156MOL0     C21403   5.575   9.209   9.958  0.7122 -0.7656  0.4898
  156MOL0     C21404   5.690   9.113   9.909 -0.1625  1.2079  0.2919
  156MOL0     C21405   5.698   8.984   9.986  0.4463  0.0679 -0.3265
  156MOL0     C21406   5.777   8.876   9.919  0.0412 -0.1429 -0.4062
  156MOL0     N21407   5.771   8.748   9.985  0.4079  0.3934  0.6021
  156MOL0     C21408   5.657   8.674  10.023 -0.5476 -0.4481 -0.5596
  156MOL0     C21409   5.706   8.549  10.057 -0.7880  0.0961 -0.5747
  156MOL0     C21410   5.642   8.421  10.084 -0.1742  0.7809  0.1574
  156MOL0     C21411   5.499   8.437  10.157  0.0601 -0.3658  0.1651
  156MOL0     C21412   5.387   8.457  10.060 -0.1429 -0.0403 -0.4318
  156MOL0     C21413   5.254   8.442  10.135  0.8013 -0.0022  0.5267
  156MOL0     O21414   5.146   8.492  10.045 -0.2639  0.1933  0.1366
  156MOL0     C21415   5.081   8.413   9.961  0.5098  0.8473 -0.2322
  156MOL0     C21416   5.114   8.280   9.937  1.0035  0.4787 -0.3170
  156MOL0     C21417   5.060   8.211   9.827  0.3503  0.3804 -0.2814
  156MOL0     C21418   5.108   8.067   9.808 -0.1820 -0.1741 -0.0525
  156MOL0     C21419   4.955   8.275   9.749  0.0024  0.5835 -0.1536
  156MOL0     C21420   4.889   8.209   9.630 -0.1542  0.3512  0.4804
  156MOL0     O21421   4.772   8.259   9.582 -0.5492  0.0933 -0.2882
  156MOL0     C21422   4.716   8.213   9.469  0.6912  1.2292 -0.1430
  156MOL0     C21423   4.586   8.156   9.474  0.7104 -0.6318 -0.4069
  156MOL0     C21424   4.524   8.108   9.354 -0.3788  0.7283 -0.2468
  156MOL0     C21425   4.579   8.130   9.228  0.0094 -0.1012  0.1140
  156MOL0     O21426   4.515   8.096   9.114 -0.1996 -0.0941  0.2618
  156MOL0     C21427   4.387   8.037   9.102  0.5298  0.0929 -0.1953
  156MOL0     C21428   4.335   8.070   8.968 -0.2272  0.0468 -0.9955
  156MOL0     C21429   4.328   8.222   8.946  0.4373  0.7608  0.4331
  156MOL0     C21430   4.234   8.252   8.830  0.0046 -0.6031  0.2345
  156MOL0     C21431   4.187   8.399   8.832 -0.3415 -0.5553 -0.1148
  156MOL0     C21432   4.106   8.435   8.712 -0.0030 -0.2378 -0.1423
  156MOL0     C21433   3.969   8.357   8.697  0.1215  0.6647  0.1206
  156MOL0     C21434   3.900   8.333   8.829  0.7187  0.0395 -1.0133
  156MOL0    Cl21435   3.858   8.501   8.906  0.0841 -0.1032 -0.3375
  156MOL0     C21436   4.711   8.181   9.225 -0.3661 -0.0221 -1.1362
  156MOL0     C21437   4.777   8.215   9.340 -0.1031 -0.3791 -0.3718
  156MOL0     O21438   4.946   8.112   9.586  0.2588 -0.6801 -0.3253
  156MOL0     C21439   4.913   8.405   9.778 -0.0858  0.5157  0.2376
  156MOL0     C21440   4.984   8.472   9.884 -0.6749 -0.1287  0.3631
  156MOL0     N21441   5.838   8.545  10.030 -0.1702 -0.5368  0.2784
  156MOL0     N21442   5.880   8.663   9.998  0.4278 -0.7727 -0.1186
  156MOL0     C21443   5.306   9.508   9.588  0.0643 -0.2758 -0.6434
  156MOL0     C21444   5.233   9.505   9.472 -0.1675 -0.5866  1.6864
  156MOL0     C21445   5.015   9.606   9.111  0.2184 -0.1941 -0.1635
  156MOL0     C21446   5.038   9.647   8.981 -0.0910 -0.6676 -0.6832
  156MOL0     C21447   4.943   9.619   8.878  0.6850 -0.3233  0.1110
  156MOL0     C21448   4.824   9.548   8.906 -0.1089  0.8577  0.6874
  156MOL0     O21449   4.732   9.532   8.806 -0.3451  0.1952  0.3868
  156MOL0     C21450   4.781   9.452   8.700  0.0065 -0.3985  0.2095
  156MOL0     C21451   4.655   9.408   8.620 -0.5249  0.6682  0.7980
  156MOL0     C21452   4.546   9.343   8.713  0.2658  0.0996  0.4272
  156MOL0     C21453   4.422   9.291   8.631  0.2679  0.1029  0.3088
  156MOL0     C21454   4.331   9.402   8.590  0.6528  0.0415 -0.2735
  156MOL0     C21455   4.267   9.499   8.560 -0.2806 -0.0456  0.1939
  156MOL0     C21456   4.803   9.514   9.035  0.1152 -0.6143  0.0017
  156MOL0     C21457   4.891   9.538   9.135  0.5551  0.8704 -0.2946
  156MOL0     C21458   4.860   9.480   9.271  0.7777  1.3376  0.5611
  156MOL0     H21459   5.456   9.617   9.251  0.0190 -1.5261 -0.3883
  156MOL0     H21460   5.598   9.619   9.456  0.0924 -2.2312  0.8794
  156MOL0     H21461   5.681   9.667   9.656  1.7399 -1.0928 -1.8831
  156MOL0     H21462   5.706   9.489   9.643 -1.5955  0.0704 -0.3186
  156MOL0     H21463   5.804   9.609   9.846  0.7676 -1.0146  0.2973
  156MOL0     H21464   5.631   9.610   9.903 -0.7161 -1.1994 -0.5618
  156MOL0     H21465   5.789   9.369   9.813 -0.1834  1.0084  0.0838
  156MOL0     H21466   5.765   9.407   9.980 -1.8207 -0.8604  0.5421
  156MOL0     H21467   5.499   9.404   9.885 -0.5733  0.9305  0.3542
  156MOL0     H21468   5.567   9.300   9.772  0.3419  2.9064 -1.4431
  156MOL0     H21469   5.480   9.158   9.938  1.7441 -1.9714 -1.7947
  156MOL0     H21470   5.587   9.228  10.065  4.7557  0.7597 -0.0820
  156MOL0     H21471   5.668   9.094   9.804  2.1437 -2.5392  0.3237
  156MOL0     H21472   5.785   9.165   9.919 -0.0388  1.0726 -0.1543
  156MOL0     H21473   5.600   8.941  10.009  1.4337 -1.5869  1.0038
  156MOL0     H21474   5.743   8.997  10.085 -1.1750  1.1407  0.3083
  156MOL0     H21475   5.716   8.874   9.828 -1.8987 -0.3347  0.8319
  156MOL0     H21476   5.879   8.906   9.896 -0.5625  1.6740 -0.9530
  156MOL0     H21477   5.553   8.704  10.015  0.0634  1.2348 -4.3929
  156MOL0     H21478   5.707   8.361  10.148 -0.8231 -0.6199 -0.4350
  156MOL0     H21479   5.626   8.360   9.995  0.4278  0.9596 -0.0746
  156MOL0     H21480   5.475   8.345  10.211  0.5987 -0.4233  0.3098
  156MOL0     H21481   5.495   8.516  10.233 -0.8297  0.4415 -0.6958
  156MOL0     H21482   5.389   8.559  10.018  0.1652  0.4473  0.7238
  156MOL0     H21483   5.395   8.387   9.977  3.4976  1.2589 -1.3606
  156MOL0     H21484   5.231   8.345  10.181 -1.3784  0.6738  0.9703
  156MOL0     H21485   5.250   8.511  10.220  1.6699  0.9174 -0.1568
  156MOL0     H21486   5.184   8.233  10.004 -0.7057  0.7273  1.7484
  156MOL0     H21487   5.171   8.041   9.894 -1.2584  2.8603  1.8562
  156MOL0     H21488   5.160   8.054   9.713 -1.1059 -1.1281 -0.4475
  156MOL0     H21489   5.027   7.994   9.811  1.6367 -2.2892  2.2187
  156MOL0     H21490   4.537   8.163   9.571  3.8188  1.8698  1.1927
  156MOL0     H21491   4.429   8.061   9.378 -0.3853 -0.4636 -2.3912
  156MOL0     H21492   4.403   7.931   9.124 -0.3002  0.3633  2.0570
  156MOL0     H21493   4.319   8.082   9.176  0.1545 -0.4198 -0.2219
  156MOL0     H21494   4.409   8.035   8.896  0.9521 -0.4484  0.4038
  156MOL0     H21495   4.234   8.029   8.959  0.4989 -1.9816 -0.4739
  156MOL0     H21496   4.421   8.270   8.915 -0.5736  1.7751 -1.1700
  156MOL0     H21497   4.302   8.268   9.041 -0.1775  1.6351 -0.1470
  156MOL0     H21498   4.145   8.187   8.825 -0.1616 -0.4504 -5.7049
  156MOL0     H21499   4.279   8.234   8.733 -0.7346  1.4999 -0.5444
  156MOL0     H21500   4.135   8.414   8.926 -0.0001 -1.5231  0.2368
  156MOL0     H21501   4.275   8.464   8.833 -0.5867 -0.1523 -1.5203
  156MOL0     H21502   4.162   8.409   8.622  0.6309 -0.0677  0.1932
  156MOL0     H21503   4.091   8.544   8.714 -0.5982 -0.3229  0.3151
  156MOL0     H21504   3.993   8.262   8.648 -1.3772  0.0390  0.5059
  156MOL0     H21505   3.901   8.408   8.629  0.0021  2.0039  1.2063
  156MOL0     H21506   3.948   8.263   8.897  0.9680  2.1618  1.1209
  156MOL0     H21507   3.803   8.288   8.807  0.5155 -0.0411  0.0091
  156MOL0     H21508   4.754   8.203   9.128 -0.9918  1.3068 -1.1411
  156MOL0     H21509   4.874   8.258   9.318 -0.5787  0.8993 -0.0581
  156MOL0     H21510   4.831   8.453   9.726  0.1255 -0.2177 -0.7920
  156MOL0     H21511   4.953   8.575   9.899 -0.7384 -0.0784 -0.1115
  156MOL0     H21512   5.264   9.493   9.687 -0.7073  3.8819 -0.1563
  156MOL0     H21513   5.128   9.478   9.474 -1.0879  1.5916 -2.9124
  156MOL0     H21514   5.131   9.693   8.950 -0.6779  0.6008 -0.6523
  156MOL0     H21515   4.954   9.659   8.778 -0.6168  0.4010  0.2438
  156MOL0     H21516   4.842   9.515   8.635  0.5652  0.1571  1.2498
  156MOL0     H21517   4.841   9.365   8.729  0.1811  0.6720  3.4213
  156MOL0     H21518   4.681   9.328   8.549 -3.0756  0.0222  0.4971
  156MOL0     H21519   4.627   9.494   8.559  1.5863  2.9118  2.7915
  156MOL0     H21520   4.598   9.259   8.762  1.3938 -0.4955 -1.6503
  156MOL0     H21521   4.511   9.414   8.787  1.2651 -1.6113  2.6679
  156MOL0     H21522   4.367   9.220   8.693  1.3088 -1.2381 -0.2461
  156MOL0     H21523   4.456   9.241   8.539  1.8055  0.8001  0.4755
  156MOL0     H21524   4.214   9.587   8.532  1.3727  1.0516  0.4131
  156MOL0     H21525   4.711   9.463   9.061 -0.0918  1.2102  3.4774
  156MOL0     H21526   4.752   9.471   9.285  0.7743  0.5924  0.0780
  156MOL0     H21527   4.887   9.375   9.281  0.1811  1.2799  1.6792
  156MOL0     H21528   4.917   9.527   9.352  1.9551 -0.5495  0.8835
  157MOL0     O21529  10.272   4.904   7.234 -0.6271  0.2328 -0.3519
  157MOL0     C21530  10.335   4.831   7.152  0.8024  0.2307  0.1286
  157MOL0     O21531  10.285   4.800   7.028  0.7105  0.2043  0.2529
  157MOL0     C21532  10.161   4.839   7.002  0.4535 -0.0773  0.4453
  157MOL0     C21533  10.150   4.950   6.921 -0.0733  0.8919  0.8067
  157MOL0     C21534  10.030   4.998   6.876  0.0939 -0.8321 -0.1016
  157MOL0     C21535   9.911   4.930   6.918 -0.3319 -0.5610 -0.3918
  157MOL0     O21536   9.781   4.954   6.876  0.0425  0.1703  0.0133
  157MOL0     C21537   9.755   5.082   6.821 -0.6973  0.4508 -0.4351
  157MOL0     C21538   9.605   5.092   6.804 -0.6014 -0.1572 -0.0751
  157MOL0     C21539   9.557   5.229   6.744  0.2372  0.1930 -0.7442
  157MOL0     C21540   9.400   5.227   6.727  0.2043  0.0384  0.6957
  157MOL0     C21541   9.352   5.367   6.691  0.4415 -0.2746 -0.4759
  157MOL0     C21542   9.193   5.367   6.682  0.1736 -0.2417  0.0879
  157MOL0     C21543   9.149   5.497   6.623 -0.8236 -0.9481  0.0510
  157MOL0     C21544   8.997   5.491   6.594  0.1649  0.3096  0.1664
  157MOL0     N21545   8.923   5.494   6.719  0.3554 -0.0611 -0.8107
  157MOL0     C21546   8.840   5.388   6.762 -0.2216  0.1380 -0.3282
  157MOL0     C21547   8.759   5.445   6.861  0.6450  0.2585  0.2152
  157MOL0     C21548   8.658   5.363   6.935  0.3515 -1.2141 -0.0884
  157MOL0     C21549   8.539   5.323   6.852 -0.0692  0.5226 -0.0374
  157MOL0     C21550   8.513   5.172   6.827  0.3396  0.2133 -0.0357
  157MOL0     C21551   8.459   5.094   6.948 -0.1845 -0.5740  0.9799
  157MOL0     O21552   8.567   5.074   7.036 -0.0223 -0.0206 -0.7770
  157MOL0     C21553   8.650   4.970   6.996 -0.0850  0.0164 -0.0851
  157MOL0     C21554   8.646   4.884   6.890 -0.1271 -0.1888  0.0976
  157MOL0     C21555   8.753   4.799   6.864  0.0571  1.0738  0.1375
  157MOL0     C21556   8.730   4.707   6.741 -0.9358  0.5204  0.4738
  157MOL0     C21557   8.874   4.803   6.947  0.4821 -0.5143  0.4102
  157MOL0     C21558   9.006   4.733   6.913 -0.3273 -0.3182  0.9408
  157MOL0     O21559   9.111   4.747   7.000 -0.4004  0.4005 -0.0180
  157MOL0     C21560   9.240   4.702   6.967  0.4835 -0.2541  0.0209
  157MOL0     C21561   9.335   4.804   6.979  0.0284  0.1363  0.0778
  157MOL0     C21562   9.464   4.779   6.930 -0.0647 -0.1864 -0.2525
  157MOL0     C21563   9.499   4.662   6.866  0.7922  0.3369 -0.0839
  157MOL0     O21564   9.620   4.642   6.814  0.1446  0.4428  0.4287
  157MOL0     C21565   9.640   4.584   6.687  0.2840 -0.6947 -1.2483
  157MOL0     C21566   9.783   4.614   6.664  0.1234 -0.0597  0.6155
  157MOL0     C21567   9.877   4.540   6.755 -0.3020  0.1089 -0.1953
  157MOL0     C21568   9.877   4.386   6.742  0.0924 -0.4993  0.8659
  157MOL0     C21569  10.001   4.326   6.813  0.6305  0.3354 -0.2649
  157MOL0     C21570  10.010   4.179   6.761  0.0160 -0.4768 -0.1907
  157MOL0     C21571  10.136   4.109   6.807 -0.3873  0.3483  0.2964
  157MOL0     C21572  10.270   4.144   6.740 -0.8531  0.1126 -0.4184
  157MOL0    Cl21573  10.277   4.086   6.569  0.0150  0.0323  0.0870
  157MOL0     C21574   9.402   4.557   6.866  0.0471  0.1298  0.8782
  157MOL0     C21575   9.271   4.578   6.915  0.1979  0.6017 -0.9310
  157MOL0     O21576   9.013   4.678   6.803 -0.0270  0.4765  0.1205
  157MOL0     C21577   8.869   4.884   7.065  0.5570  0.3089  0.1214
  157MOL0     C21578   8.756   4.958   7.082  0.4107  0.3143 -1.2329
  157MOL0     N21579   8.799   5.584   6.870 -0.1219  0.1193  0.0988
  157MOL0     N21580   8.898   5.608   6.791  0.1438  0.6887  0.5018
  157MOL0     C21581   9.925   4.820   7.003 -0.0099 -0.6347 -0.6267
  157MOL0     C21582  10.051   4.777   7.050  0.2623 -0.3314 -0.1389
  157MOL0     C21583  10.468   4.782   7.177 -0.7895  0.4808 -0.0383
  157MOL0     C21584  10.499   4.658   7.117  0.1692 -0.4421 -0.1981
  157MOL0     C21585  10.637   4.622   7.112  0.4987  0.0108  0.4115
  157MOL0     C21586  10.732   4.704   7.174  0.0638 -0.7924  0.0548
  157MOL0     O21587  10.857   4.648   7.184 -0.1679 -0.4503 -0.1059
  157MOL0     C21588  10.966   4.734   7.226  0.3443  0.8104  0.5306
  157MOL0     C21589  10.987   4.845   7.123  0.4614 -0.4950  0.3832
  157MOL0     C21590  11.125   4.902   7.136  0.2069 -0.2626  0.9785
  157MOL0     C21591  11.163   5.004   7.028 -0.5218  0.2536 -0.0050
  157MOL0     C21592  11.301   5.053   7.033 -0.9559  0.6624  0.2809
  157MOL0     C21593  11.422   5.083   7.018  0.8957 -0.7647 -0.0094
  157MOL0     C21594  10.694   4.821   7.240 -1.0499  0.5351 -0.5178
  157MOL0     C21595  10.563   4.860   7.247 -0.2230  0.7689  0.3228
  157MOL0     C21596  10.534   5.003   7.304 -0.0134 -0.5605 -0.5265
  157MOL0     H21597  10.244   4.995   6.891 -0.6426  1.7326  0.2269
  157MOL0     H21598  10.029   5.088   6.814  0.9014 -0.6975  0.0625
  157MOL0     H21599   9.801   5.095   6.723 -2.0607  0.6636 -1.0821
  157MOL0     H21600   9.782   5.154   6.899 -0.0933 -2.3917  2.1925
  157MOL0     H21601   9.568   5.012   6.740 -1.1164  0.3082 -0.3722
  157MOL0     H21602   9.567   5.071   6.904  0.1954 -0.1778  0.2320
  157MOL0     H21603   9.578   5.310   6.816 -0.4000  0.9160 -1.3516
  157MOL0     H21604   9.606   5.255   6.649  0.5354  2.0648 -0.1267
  157MOL0     H21605   9.378   5.148   6.653  1.4507 -1.6440  2.0373
  157MOL0     H21606   9.352   5.187   6.816 -1.4685 -1.9021 -0.9657
  157MOL0     H21607   9.403   5.389   6.596 -0.6535  0.1350 -0.9923
  157MOL0     H21608   9.384   5.444   6.762 -0.0927 -3.3417  3.3995
  157MOL0     H21609   9.163   5.287   6.613 -3.2203  0.1915  0.9077
  157MOL0     H21610   9.137   5.344   6.772 -1.5881 -0.6304 -1.0547
  157MOL0     H21611   9.203   5.515   6.530  1.1049  0.5044  1.3745
  157MOL0     H21612   9.168   5.577   6.695  0.1902 -2.4460  1.5235
  157MOL0     H21613   8.973   5.587   6.548 -1.7296  1.7850  3.8135
  157MOL0     H21614   8.976   5.411   6.523  0.1999  0.4490 -0.0021
  157MOL0     H21615   8.857   5.287   6.727  2.0378 -0.2833  1.7425
  157MOL0     H21616   8.627   5.417   7.025  1.1410 -2.8484  1.2268
  157MOL0     H21617   8.706   5.272   6.973  1.7159 -0.3989  0.1944
  157MOL0     H21618   8.447   5.354   6.904 -2.4177 -3.8579 -1.1120
  157MOL0     H21619   8.550   5.372   6.755  0.9638 -1.3912 -0.9230
  157MOL0     H21620   8.433   5.173   6.752 -0.0780  0.1162  0.4031
  157MOL0     H21621   8.607   5.136   6.785  0.5898  1.1856 -0.3441
  157MOL0     H21622   8.379   5.149   6.999 -0.5923 -0.4519  0.2116
  157MOL0     H21623   8.414   4.996   6.929 -0.4084 -0.4584  0.9171
  157MOL0     H21624   8.568   4.901   6.816  0.2622  0.8274 -0.0911
  157MOL0     H21625   8.622   4.695   6.729 -0.6482 -2.0989 -0.1122
  157MOL0     H21626   8.768   4.606   6.760  0.1176  0.8871  0.4163
  157MOL0     H21627   8.778   4.745   6.650  0.0322  2.1334  1.6050
  157MOL0     H21628   9.307   4.901   7.021 -0.0812  0.3697 -0.5214
  157MOL0     H21629   9.540   4.856   6.938  1.5574 -1.6152 -1.2229
  157MOL0     H21630   9.627   4.476   6.696  2.9871 -0.9314  2.8489
  157MOL0     H21631   9.572   4.642   6.624 -0.5666 -0.1447  0.1053
  157MOL0     H21632   9.797   4.594   6.557 -3.5950 -2.2336  0.3470
  157MOL0     H21633   9.797   4.722   6.679  1.8064 -0.0473 -0.6651
  157MOL0     H21634   9.865   4.578   6.857  0.3882 -1.9096  0.6850
  157MOL0     H21635   9.975   4.576   6.722 -0.0088 -1.2510 -0.8681
  157MOL0     H21636   9.887   4.362   6.636 -0.7703 -0.9003  0.8622
  157MOL0     H21637   9.780   4.346   6.775 -0.1458  0.1158  0.9401
  157MOL0     H21638  10.096   4.376   6.795  1.3095 -0.3059  1.3374
  157MOL0     H21639   9.992   4.319   6.922 -2.3069  2.0639 -0.2823
  157MOL0     H21640   9.998   4.185   6.653 -0.1280  2.5527 -0.0762
  157MOL0     H21641   9.928   4.118   6.800 -0.0245 -0.5894 -0.4501
  157MOL0     H21642  10.117   4.003   6.790 -2.7255  1.0423 -1.9185
  157MOL0     H21643  10.150   4.122   6.915  0.4095  0.0031  0.2421
  157MOL0     H21644  10.343   4.096   6.805  1.9033  2.9608 -1.1426
  157MOL0     H21645  10.298   4.249   6.757  2.6185 -0.9632  1.3720
  157MOL0     H21646   9.426   4.459   6.826 -0.3391  0.0419  0.8532
  157MOL0     H21647   9.192   4.503   6.911 -0.1281  0.9904 -1.9808
  157MOL0     H21648   8.959   4.899   7.125  0.9149  1.2960 -0.6392
  157MOL0     H21649   8.749   5.016   7.173  0.9812 -0.0036 -0.9810
  157MOL0     H21650   9.831   4.776   7.035 -0.3974 -0.5640 -1.6368
  157MOL0     H21651  10.063   4.686   7.108  0.5559 -0.2596 -0.0833
  157MOL0     H21652  10.420   4.597   7.076 -1.0234  0.4423  0.6993
  157MOL0     H21653  10.667   4.525   7.075  4.2159  1.1057  0.1664
  157MOL0     H21654  10.942   4.769   7.327  1.5577  2.5681  0.2649
  157MOL0     H21655  11.055   4.677   7.254 -0.0061 -0.1714 -0.2980
  157MOL0     H21656  10.911   4.923   7.130  1.2038  0.1505  1.4716
  157MOL0     H21657  10.973   4.814   7.019  2.6557  0.7001 -0.3463
  157MOL0     H21658  11.122   4.958   7.230  0.2937 -0.3030  1.0050
  157MOL0     H21659  11.197   4.821   7.150  0.3846  0.0631  2.0347
  157MOL0     H21660  11.089   5.083   7.050 -1.8432 -1.5707  2.6651
  157MOL0     H21661  11.148   4.966   6.926  1.4113 -0.6528  0.0139
  157MOL0     H21662  11.521   5.117   6.994  0.9747 -0.8528  0.1977
  157MOL0     H21663  10.771   4.879   7.290  0.6137 -2.5654  0.7909
  157MOL0     H21664  10.497   5.075   7.231 -0.3389  0.3477  0.5039
  157MOL0     H21665  10.459   4.994   7.384 -1.2572  2.3252 -1.2051
  157MOL0     H21666  10.621   5.044   7.356 -1.2243 -0.7231  1.7795
  158MOL0     O21667   0.339   8.159   6.193  0.7052 -0.1017  0.1740
  158MOL0     C21668   0.272   8.209   6.104  0.0317  0.7883  0.2803
  158MOL0     O21669   0.316   8.233   5.978 -0.7847 -0.3451  0.1951
  158MOL0     C21670   0.431   8.183   5.919 -0.0022  0.7628  1.0921
  158MOL0     C21671   0.427   8.196   5.779  0.4702 -0.0937  0.4951
  158MOL0     C21672   0.532   8.150   5.700 -0.0513 -0.0889  0.4385
  158MOL0     C21673   0.645   8.097   5.761 -0.0511 -0.0835 -0.4579
  158MOL0     O21674   0.749   8.054   5.685 -1.0603  0.3363 -0.2699
  158MOL0     C21675   0.818   7.933   5.714  0.2425  0.5335 -0.4884
  158MOL0     C21676   0.919   7.903   5.602 -0.2007 -0.4869 -0.0629
  158MOL0     C21677   1.035   7.819   5.652  0.0689  0.0888 -0.1524
  158MOL0     C21678   1.165   7.834   5.583  0.9178  0.2817  0.5455
  158MOL0     C21679   1.232   7.971   5.599  0.1791  0.0923 -0.2933
  158MOL0     C21680   1.386   7.961   5.569 -0.3940  0.2042  0.0922
  158MOL0     C21681   1.464   8.095   5.588 -0.3313  0.5939  0.2780
  158MOL0     C21682   1.416   8.201   5.485 -0.7231  0.5709 -0.0480
  158MOL0     N21683   1.474   8.181   5.348  0.2828 -0.0517  0.6677
  158MOL0     C21684   1.594   8.116   5.316 -0.3121 -1.0074 -0.3234
  158MOL0     C21685   1.595   8.122   5.188 -0.9812 -0.5802  0.2105
  158MOL0     C21686   1.698   8.048   5.105 -0.2980 -0.1478  0.5843
  158MOL0     C21687   1.661   7.901   5.097  0.6975 -0.0802  0.1517
  158MOL0     C21688   1.733   7.832   4.974  0.0084  0.5289  0.5648
  158MOL0     C21689   1.679   7.689   4.954 -0.4462 -0.6082 -0.3375
  158MOL0     O21690   1.543   7.688   4.939  0.1688 -0.0648 -0.0656
  158MOL0     C21691   1.480   7.569   4.912  0.8205  0.1926 -0.4036
  158MOL0     C21692   1.537   7.446   4.873 -0.2080  0.0432  0.4930
  158MOL0     C21693   1.464   7.333   4.854  0.5641 -0.0989  0.1454
  158MOL0     C21694   1.529   7.205   4.813 -0.4827  0.3754 -0.9402
  158MOL0     C21695   1.321   7.334   4.885 -0.2999 -0.1412  0.1958
  158MOL0     C21696   1.223   7.225   4.894 -0.0648  0.7546  0.2687
  158MOL0     O21697   1.106   7.246   4.957  0.2936 -0.3388 -0.8901
  158MOL0     C21698   1.000   7.158   4.934  0.4683  0.3995 -0.0499
  158MOL0     C21699   0.964   7.104   4.811  0.1759  0.4129 -0.3986
  158MOL0     C21700   0.836   7.051   4.793 -0.5396 -0.1829 -0.4481
  158MOL0     C21701   0.748   7.042   4.897  0.3728  0.4767  0.5371
  158MOL0     O21702   0.620   6.981   4.880 -0.1030 -0.6949  0.3936
  158MOL0     C21703   0.559   6.897   4.980  0.2521 -0.5580 -0.1613
  158MOL0     C21704   0.421   6.844   4.939  0.6574 -0.0037  0.2749
  158MOL0     C21705   0.302   6.951   4.917 -0.0493 -0.9914  0.3444
  158MOL0     C21706   0.160   6.888   4.949  0.1434 -0.1712  0.8306
  158MOL0     C21707   0.047   6.993   4.935 -1.2678 -0.3599 -1.1329
  158MOL0     C21708  -0.075   6.923   5.005 -0.4027 -0.2363  0.4878
  158MOL0     C21709  -0.205   7.010   4.995  0.5255  0.7848 -0.0439
  158MOL0     C21710  -0.320   6.936   5.059  0.8733  0.0982  0.5032
  158MOL0    Cl21711  -0.289   6.935   5.231  0.6592  0.0101  0.1910
  158MOL0     C21712   0.779   7.090   5.024  0.1291  0.3538  0.5605
  158MOL0     C21713   0.911   7.141   5.042  0.2947  0.1052  0.4882
  158MOL0     O21714   1.254   7.124   4.838 -0.8415 -0.5006  0.5851
  158MOL0     C21715   1.261   7.457   4.907 -0.1474  0.1972  0.7596
  158MOL0     C21716   1.339   7.579   4.917 -0.3160 -0.1761  0.3027
  158MOL0     N21717   1.489   8.184   5.136  0.1361 -0.2928 -0.9513
  158MOL0     N21718   1.419   8.231   5.228 -0.8134  0.0742 -0.9267
  158MOL0     C21719   0.649   8.077   5.902  0.0971  0.1410  0.1746
  158MOL0     C21720   0.541   8.118   5.983  0.7145 -0.4178 -0.1475
  158MOL0     C21721   0.130   8.244   6.121 -0.8243 -0.0261  0.4473
  158MOL0     C21722   0.084   8.245   6.249  0.3590  1.2472  0.6571
  158MOL0     C21723  -0.045   8.269   6.282  0.0784  0.1925  0.1952
  158MOL0     C21724  -0.149   8.305   6.192 -0.4643 -0.0534 -0.3793
  158MOL0     O21725  -0.277   8.329   6.242  0.4761  0.1516 -0.3797
  158MOL0     C21726  -0.365   8.392   6.140 -0.0475 -1.3844 -0.2495
  158MOL0     C21727  -0.421   8.301   6.044  0.0844 -0.0258 -0.2197
  158MOL0     C21728  -0.554   8.349   5.976  0.4032  0.2853 -0.0986
  158MOL0     C21729  -0.586   8.260   5.857 -0.1897 -0.3530  0.6050
  158MOL0     C21730  -0.539   8.323   5.734 -0.0900 -0.1070 -0.9017
  158MOL0     C21731  -0.499   8.379   5.632  0.4332 -0.2068  0.2455
  158MOL0     C21732  -0.099   8.308   6.062  0.3241 -0.3330  0.4341
  158MOL0     C21733   0.038   8.277   6.022  0.0962  0.5648  0.2039
  158MOL0     C21734   0.057   8.296   5.867  1.0514 -0.4473 -0.3127
  158MOL0     H21735   0.344   8.239   5.725  1.5272 -1.4029 -2.3467
  158MOL0     H21736   0.525   8.169   5.594  2.1879 -0.2154  0.2092
  158MOL0     H21737   0.753   7.844   5.714 -0.2911  0.9134 -1.2505
  158MOL0     H21738   0.869   7.926   5.810 -1.0319 -0.5500  0.1509
  158MOL0     H21739   0.874   7.863   5.511  1.1501 -1.0509 -0.5130
  158MOL0     H21740   0.971   7.995   5.573 -2.2337  0.8508  0.3225
  158MOL0     H21741   1.054   7.845   5.757 -1.6744  0.5781  0.0690
  158MOL0     H21742   0.998   7.716   5.648  2.3834 -0.9276  1.9396
  158MOL0     H21743   1.229   7.756   5.625  0.2483  0.2130  1.4633
  158MOL0     H21744   1.164   7.816   5.475 -0.2982 -1.4771  0.7973
  158MOL0     H21745   1.230   7.997   5.706 -0.3718 -0.7542 -0.0896
  158MOL0     H21746   1.178   8.045   5.540  0.1873 -0.1061 -0.5494
  158MOL0     H21747   1.431   7.885   5.634 -0.6098  0.6814  0.8052
  158MOL0     H21748   1.402   7.926   5.466 -0.3098  0.7697 -0.0878
  158MOL0     H21749   1.572   8.087   5.572 -0.2673  3.6177 -1.5552
  158MOL0     H21750   1.447   8.126   5.692 -1.0393  0.6388  0.1529
  158MOL0     H21751   1.307   8.195   5.480 -0.7403 -1.6548  1.4707
  158MOL0     H21752   1.454   8.298   5.518  4.0364 -0.2570 -2.2893
  158MOL0     H21753   1.672   8.064   5.370 -1.7141 -1.6323  1.1715
  158MOL0     H21754   1.796   8.060   5.152 -0.5653  1.3207  0.8244
  158MOL0     H21755   1.698   8.084   5.002  0.4958 -5.7124 -1.6778
  158MOL0     H21756   1.669   7.849   5.193 -1.5693  1.5755  1.3459
  158MOL0     H21757   1.554   7.899   5.073  1.0407 -1.1899 -1.3987
  158MOL0     H21758   1.706   7.882   4.881 -1.9636 -1.4141  0.0008
  158MOL0     H21759   1.840   7.819   4.993  0.4517 -2.2172 -2.7370
  158MOL0     H21760   1.734   7.643   4.870  1.9386 -1.4979  1.5949
  158MOL0     H21761   1.695   7.623   5.039 -0.2445 -0.9029 -0.5984
  158MOL0     H21762   1.645   7.439   4.857 -0.5332 -0.4416 -1.9245
  158MOL0     H21763   1.637   7.195   4.829 -0.5372  1.1961  0.0526
  158MOL0     H21764   1.506   7.176   4.710  2.1246  0.8692 -1.7343
  158MOL0     H21765   1.484   7.137   4.886 -0.3060  1.7771  0.5322
  158MOL0     H21766   1.030   7.099   4.725  1.0465 -1.9490  0.3327
  158MOL0     H21767   0.813   7.016   4.693 -0.3466  1.5551 -1.1403
  158MOL0     H21768   0.632   6.822   5.010 -0.8248 -1.1622  1.0588
  158MOL0     H21769   0.539   6.961   5.067  1.8932 -1.7785  1.1758
  158MOL0     H21770   0.422   6.778   4.852 -0.8486  0.2389  0.0407
  158MOL0     H21771   0.389   6.790   5.028 -3.2163  0.3923 -0.6808
  158MOL0     H21772   0.316   6.998   4.819  0.6822  2.3151  1.8871
  158MOL0     H21773   0.326   7.036   4.981  0.5113 -1.5655  0.9077
  158MOL0     H21774   0.163   6.861   5.055  1.5539 -1.1078  0.5913
  158MOL0     H21775   0.156   6.799   4.884  2.7300 -0.0957  0.4413
  158MOL0     H21776   0.076   7.088   4.982  0.4707 -1.7250  0.7282
  158MOL0     H21777   0.029   7.002   4.828 -0.5202  2.5513 -1.1087
  158MOL0     H21778  -0.046   6.921   5.110  2.0745 -0.2704 -0.1497
  158MOL0     H21779  -0.086   6.823   4.964 -0.8223  1.2966 -3.6032
  158MOL0     H21780  -0.227   7.030   4.889 -1.1112 -2.4644 -0.4165
  158MOL0     H21781  -0.191   7.104   5.050  0.6938  1.4254 -1.1325
  158MOL0     H21782  -0.320   6.832   5.025  1.6508  0.1024  0.4720
  158MOL0     H21783  -0.413   6.988   5.036  0.1214 -0.8706  1.2935
  158MOL0     H21784   0.712   7.094   5.110 -0.2623  1.9539  0.2079
  158MOL0     H21785   0.935   7.177   5.142  0.9139 -1.4101  0.9125
  158MOL0     H21786   1.154   7.474   4.916 -0.3951 -0.9989  0.2246
  158MOL0     H21787   1.290   7.672   4.946  0.0969 -0.9261  3.8947
  158MOL0     H21788   0.732   8.024   5.946  0.5266 -1.1376 -2.0531
  158MOL0     H21789   0.534   8.101   6.090 -0.9265 -2.0073 -0.4436
  158MOL0     H21790   0.156   8.212   6.323 -2.6243 -0.8278  2.8462
  158MOL0     H21791  -0.075   8.259   6.386 -1.8193 -2.0982 -0.5060
  158MOL0     H21792  -0.446   8.428   6.204  1.3880  0.9985  0.3293
  158MOL0     H21793  -0.321   8.483   6.099 -1.9909 -0.2504  0.0293
  158MOL0     H21794  -0.445   8.210   6.100  0.2576 -1.0588 -1.7644
  158MOL0     H21795  -0.347   8.279   5.967 -1.2399  0.3617 -1.6671
  158MOL0     H21796  -0.634   8.332   6.048 -0.6946  1.7187 -0.9287
  158MOL0     H21797  -0.558   8.453   5.941 -3.1066  0.1370 -0.4723
  158MOL0     H21798  -0.695   8.256   5.854 -0.3339  1.9248  1.1796
  158MOL0     H21799  -0.548   8.159   5.876 -1.7319 -1.6010 -2.2351
  158MOL0     H21800  -0.461   8.415   5.539 -0.5419  0.1131 -0.0305
  158MOL0     H21801  -0.156   8.351   5.980  1.3558  2.0230  0.8926
  158MOL0     H21802   0.109   8.219   5.809  1.4768  1.1891 -2.2309
  158MOL0     H21803  -0.042   8.314   5.824  1.5107  3.3636 -0.1382
  158MOL0     H21804   0.110   8.389   5.842  0.5524 -1.2069 -5.1444
  159MOL0     O21805   6.972   2.061   9.539  0.0815  0.4847  0.1502
  159MOL0     C21806   6.870   1.998   9.516  0.0662  0.4735  0.1957
  159MOL0     O21807   6.838   1.919   9.405 -0.4710  0.3253 -0.3580
  159MOL0     C21808   6.938   1.923   9.306  0.3515  0.2340  0.4879
  159MOL0     C21809   6.928   2.018   9.210 -0.2854  0.0456  1.1332
  159MOL0     C21810   6.997   2.006   9.090  0.4292  0.8449  0.3485
  159MOL0     C21811   7.089   1.899   9.079  0.3950 -2.0134 -0.7398
  159MOL0     O21812   7.159   1.887   8.961  0.1439  0.4219  0.1041
  159MOL0     C21813   7.262   1.785   8.945  0.1218 -0.0551 -0.2348
  159MOL0     C21814   7.326   1.803   8.804  0.0828  0.1099  0.1180
  159MOL0     C21815   7.460   1.728   8.790 -0.1130  0.2807  0.1581
  159MOL0     C21816   7.453   1.574   8.805  0.5753  0.5498 -0.0351
  159MOL0     C21817   7.584   1.503   8.778 -0.5536 -0.3822 -0.5437
  159MOL0     C21818   7.580   1.356   8.810 -0.1012  0.2720  1.0182
  159MOL0     C21819   7.724   1.282   8.811 -0.0716  0.1478  1.0618
  159MOL0     C21820   7.707   1.135   8.853 -0.5427 -0.4270 -0.0928
  159MOL0     N21821   7.835   1.066   8.840 -0.1555 -0.1338  0.0073
  159MOL0     C21822   7.884   0.996   8.731 -0.4990  0.7846  0.0190
  159MOL0     C21823   8.015   0.975   8.749  0.5935 -1.4502 -0.3930
  159MOL0     C21824   8.116   0.908   8.658  0.3559  0.1490 -0.2771
  159MOL0     C21825   8.172   0.783   8.734  0.4525  0.4660  0.1948
  159MOL0     C21826   8.277   0.707   8.647 -0.6321  0.1857  0.0890
  159MOL0     C21827   8.348   0.613   8.738  0.2238  0.3866 -0.4095
  159MOL0     O21828   8.409   0.684   8.842 -0.0430  0.4468  0.6438
  159MOL0     C21829   8.498   0.603   8.914 -0.1842 -0.0101 -0.7595
  159MOL0     C21830   8.531   0.471   8.882 -0.3407 -0.4655  0.1747
  159MOL0     C21831   8.652   0.417   8.923 -0.3669  0.1266  0.2920
  159MOL0     C21832   8.684   0.278   8.865 -0.9917 -0.4566  0.3087
  159MOL0     C21833   8.738   0.482   9.022  0.5588  0.2653  0.1183
  159MOL0     C21834   8.862   0.423   9.078  0.1644 -0.5135  0.6224
  159MOL0     O21835   8.964   0.508   9.107  0.0758 -0.2318  0.3050
  159MOL0     C21836   9.085   0.453   9.149  0.2045 -1.2149  0.4238
  159MOL0     C21837   9.147   0.345   9.092 -0.6089  0.6415  0.0940
  159MOL0     C21838   9.280   0.309   9.133  0.4054  0.2223 -0.8332
  159MOL0     C21839   9.336   0.385   9.242  0.0948 -0.0758 -0.2163
  159MOL0     O21840   9.458   0.370   9.286 -0.3803 -0.0569 -0.5332
  159MOL0     C21841   9.570   0.385   9.201  0.3663 -0.1763 -0.7882
  159MOL0     C21842   9.697   0.365   9.287 -0.0714  0.2480  0.8548
  159MOL0     C21843   9.825   0.426   9.208 -0.2640 -0.5056  0.3549
  159MOL0     C21844   9.949   0.403   9.294 -0.2572  0.4115 -0.3644
  159MOL0     C21845  10.068   0.503   9.251 -0.7692  0.7763 -0.3334
  159MOL0     C21846  10.195   0.506   9.337 -1.0508  0.7932 -0.7648
  159MOL0     C21847  10.312   0.590   9.289  0.0203 -0.8905 -0.1967
  159MOL0     C21848  10.441   0.534   9.250  0.6585 -0.9283  0.3951
  159MOL0    Cl21849  10.552   0.661   9.220 -0.3601 -0.2946 -0.4992
  159MOL0     C21850   9.262   0.483   9.312 -1.0030  0.3388 -0.9492
  159MOL0     C21851   9.141   0.516   9.259  0.2083  0.0608  0.4051
  159MOL0     O21852   8.865   0.305   9.102 -0.2339 -0.3678  0.1961
  159MOL0     C21853   8.698   0.608   9.062 -0.4020 -0.7468 -0.7673
  159MOL0     C21854   8.581   0.665   9.014  0.2929 -0.0216 -0.5382
  159MOL0     N21855   8.054   1.037   8.873  0.3174  0.4106  0.6928
  159MOL0     N21856   7.943   1.096   8.911 -0.0561 -0.1464  0.0934
  159MOL0     C21857   7.098   1.803   9.176  0.2910  0.0100 -0.0965
  159MOL0     C21858   7.020   1.819   9.293 -0.8027  0.7417  0.8043
  159MOL0     C21859   6.767   1.993   9.627 -0.9846 -0.2403  0.2295
  159MOL0     C21860   6.659   1.904   9.615  0.7223  0.6622 -0.5977
  159MOL0     C21861   6.564   1.878   9.717  0.7562  0.0224 -0.0230
  159MOL0     C21862   6.576   1.938   9.838 -1.0552 -0.6337 -0.1120
  159MOL0     O21863   6.485   1.897   9.932 -0.3557 -0.5984 -0.5372
  159MOL0     C21864   6.481   1.951  10.062 -0.4383 -0.7753  0.3632
  159MOL0     C21865   6.337   1.941  10.125 -0.4441  0.2159  0.4685
  159MOL0     C21866   6.230   2.013  10.034 -0.7084 -0.0887  0.3667
  159MOL0     C21867   6.077   1.995  10.067 -0.4427 -0.2454  0.7767
  159MOL0     C21868   6.041   1.849  10.079  0.6918 -0.2059 -0.1759
  159MOL0     C21869   6.038   1.728  10.083 -0.5917  0.3369 -0.5605
  159MOL0     C21870   6.675   2.041   9.856 -0.1531 -0.3741  0.3697
  159MOL0     C21871   6.769   2.069   9.748 -0.2089  0.2956  0.5328
  159MOL0     C21872   6.873   2.177   9.784  0.3796 -0.0983 -0.3602
  159MOL0     H21873   6.853   2.096   9.210 -0.4524 -0.1122  0.8541
  159MOL0     H21874   6.986   2.084   9.016  2.1466  2.1135  1.3629
  159MOL0     H21875   7.219   1.684   8.951 -0.2808  0.0402 -1.2863
  159MOL0     H21876   7.334   1.796   9.026 -0.9289  0.9322  0.5862
  159MOL0     H21877   7.247   1.770   8.737 -1.6936  3.0615  0.5741
  159MOL0     H21878   7.351   1.908   8.783  0.1904  0.2307  0.8363
  159MOL0     H21879   7.518   1.763   8.703  0.4817  2.7326  1.4455
  159MOL0     H21880   7.516   1.761   8.878  1.4551 -2.6507  0.3837
  159MOL0     H21881   7.431   1.555   8.910  2.8452 -0.8734  0.2736
  159MOL0     H21882   7.375   1.534   8.740 -0.6856  0.6023  1.4037
  159MOL0     H21883   7.662   1.553   8.836 -0.2880  0.4343 -1.5651
  159MOL0     H21884   7.612   1.519   8.674  3.5731 -2.5247  0.0308
  159MOL0     H21885   7.522   1.332   8.899  0.2769 -0.6972  1.0186
  159MOL0     H21886   7.525   1.314   8.725  1.2339  0.6985 -0.0911
  159MOL0     H21887   7.786   1.323   8.891  0.0783  1.4068  0.3334
  159MOL0     H21888   7.777   1.294   8.716 -0.1523 -3.7524  0.3643
  159MOL0     H21889   7.674   1.133   8.957 -2.4090  2.5097 -0.5080
  159MOL0     H21890   7.623   1.093   8.796 -3.3175  0.9072  2.7272
  159MOL0     H21891   7.819   0.961   8.651  0.6337 -0.0423 -0.5688
  159MOL0     H21892   8.200   0.973   8.633  0.0352  0.4310 -0.6372
  159MOL0     H21893   8.069   0.871   8.567  2.0940 -1.3304 -0.6277
  159MOL0     H21894   8.225   0.822   8.821  1.6681 -0.8108  0.0539
  159MOL0     H21895   8.089   0.720   8.770  0.0107  1.5776  1.1878
  159MOL0     H21896   8.238   0.653   8.560  3.3037 -1.9576 -0.5779
  159MOL0     H21897   8.345   0.785   8.612 -2.2437  1.8799  0.5658
  159MOL0     H21898   8.288   0.533   8.784 -0.8972  2.1418  1.3321
  159MOL0     H21899   8.419   0.567   8.669 -0.3473 -2.9560  1.0404
  159MOL0     H21900   8.480   0.400   8.817 -0.5196  1.3378 -1.7649
  159MOL0     H21901   8.636   0.201   8.925 -1.3276  0.5284  1.3529
  159MOL0     H21902   8.790   0.257   8.852 -1.0316 -0.1340 -0.6729
  159MOL0     H21903   8.645   0.269   8.763  0.1359  1.5798 -0.3764
  159MOL0     H21904   9.095   0.290   9.014 -1.9484 -0.4300  1.6747
  159MOL0     H21905   9.328   0.219   9.095 -1.5081 -0.5106 -1.6227
  159MOL0     H21906   9.575   0.300   9.131 -0.3409 -3.9146  3.2454
  159MOL0     H21907   9.560   0.483   9.153 -2.5848 -0.0072  0.0394
  159MOL0     H21908   9.687   0.395   9.392  0.8377  0.8780  0.7732
  159MOL0     H21909   9.711   0.257   9.287 -1.2795  0.0600 -0.5945
  159MOL0     H21910   9.803   0.532   9.188 -1.6422 -1.0277 -1.1576
  159MOL0     H21911   9.849   0.387   9.108  0.3079 -0.6761  0.5577
  159MOL0     H21912   9.986   0.301   9.293 -1.5122 -0.0604 -1.5975
  159MOL0     H21913   9.926   0.435   9.396  1.5613 -2.4252  1.0508
  159MOL0     H21914  10.098   0.471   9.151  0.4927  0.5381  0.1130
  159MOL0     H21915  10.021   0.601   9.261  1.2844  1.7147  0.6348
  159MOL0     H21916  10.219   0.399   9.342 -0.1308  1.0483  0.7399
  159MOL0     H21917  10.173   0.522   9.442 -0.5900  5.0713 -1.1484
  159MOL0     H21918  10.337   0.670   9.358  2.8552 -1.3045 -0.6203
  159MOL0     H21919  10.277   0.654   9.208  1.3081  4.6289  3.1009
  159MOL0     H21920  10.421   0.474   9.161  0.5954 -0.1413 -0.1371
  159MOL0     H21921  10.476   0.471   9.331 -0.7245 -0.4208  1.4379
  159MOL0     H21922   9.291   0.529   9.405 -0.3566 -0.3484 -0.7962
  159MOL0     H21923   9.079   0.594   9.302 -1.4881 -0.1876 -1.4166
  159MOL0     H21924   8.760   0.657   9.136  1.3520 -3.1158 -0.5293
  159MOL0     H21925   8.559   0.765   9.050 -0.2533 -1.0445  2.2562
  159MOL0     H21926   7.161   1.716   9.163 -0.5959 -0.6679  0.1306
  159MOL0     H21927   7.035   1.740   9.367  0.7613 -1.0891 -1.3450
  159MOL0     H21928   6.650   1.836   9.530  2.8227  1.3784 -1.4775
  159MOL0     H21929   6.486   1.809   9.688  0.6474 -0.4561  1.3180
  159MOL0     H21930   6.542   1.892  10.131 -0.3042  0.3769  1.2605
  159MOL0     H21931   6.519   2.053  10.067 -0.0210 -0.8615 -0.8690
  159MOL0     H21932   6.336   1.980  10.227 -2.3193 -0.0494  0.5950
  159MOL0     H21933   6.320   1.833  10.128 -0.2735  0.1369 -0.8410
  159MOL0     H21934   6.254   2.119  10.028 -1.0221 -0.0888 -4.1647
  159MOL0     H21935   6.249   1.971   9.935 -1.3658 -0.4093  0.3751
  159MOL0     H21936   6.029   2.048   9.984  2.3117 -0.4461 -1.0747
  159MOL0     H21937   6.044   2.040  10.160 -1.0891 -2.3387  1.6141
  159MOL0     H21938   6.035   1.622  10.093  0.8894  0.2188 -1.0890
  159MOL0     H21939   6.674   2.101   9.946 -3.8816 -1.3911  1.1701
  159MOL0     H21940   6.878   2.244   9.698 -3.0386  0.0508 -0.5706
  159MOL0     H21941   6.845   2.228   9.876 -1.3070 -1.8284  0.1678
  159MOL0     H21942   6.976   2.141   9.785  0.2130 -0.6830 -1.8767
  160MOL0     O21943   1.684   8.760   5.469  0.2232 -0.8303 -0.4086
  160MOL0     C21944   1.607   8.672   5.517 -0.4854 -0.3496  0.1590
  160MOL0     O21945   1.630   8.536   5.513 -0.5863  0.1156  0.2383
  160MOL0     C21946   1.750   8.501   5.449  0.6566 -0.7873 -0.2959
  160MOL0     C21947   1.735   8.451   5.318 -0.1907  1.1447  0.5673
  160MOL0     C21948   1.847   8.401   5.252  0.4039  1.1391  0.3464
  160MOL0     C21949   1.972   8.394   5.318  0.5750 -0.1858  0.0904
  160MOL0     O21950   2.086   8.347   5.251 -0.4642  0.8536 -0.5772
  160MOL0     C21951   2.094   8.345   5.107 -0.0679  0.7378 -1.2006
  160MOL0     C21952   2.233   8.325   5.057  0.5407  0.1416  0.3105
  160MOL0     C21953   2.309   8.209   5.116  0.0546 -0.9906 -0.8997
  160MOL0     C21954   2.437   8.192   5.038 -1.3220  0.2348 -1.1518
  160MOL0     C21955   2.554   8.279   5.072 -1.2510 -0.1009 -0.4863
  160MOL0     C21956   2.670   8.256   4.974  0.5055 -0.0934 -0.2201
  160MOL0     C21957   2.791   8.331   5.013 -0.3870 -0.3624  0.2070
  160MOL0     C21958   2.919   8.238   5.017  0.4922  0.1067 -0.6790
  160MOL0     N21959   2.900   8.120   5.100  0.6551 -0.7247  0.0401
  160MOL0     C21960   2.865   8.123   5.233 -0.3180 -0.3081 -0.8180
  160MOL0     C21961   2.874   7.991   5.271  0.1871 -0.3549  0.7097
  160MOL0     C21962   2.851   7.925   5.402  0.3040 -0.8295  0.6150
  160MOL0     C21963   2.976   7.948   5.499 -0.6811  0.5518  0.0087
  160MOL0     C21964   3.107   7.871   5.466 -0.3582  0.3392 -0.4196
  160MOL0     C21965   3.229   7.920   5.548  0.6672  0.9485  0.0052
  160MOL0     O21966   3.339   7.858   5.487 -0.5865  0.2977 -0.0503
  160MOL0     C21967   3.464   7.890   5.530  0.1329  0.0066 -0.3459
  160MOL0     C21968   3.570   7.820   5.468 -0.2974  0.6868 -0.4840
  160MOL0     C21969   3.709   7.842   5.513  0.6918 -0.4490  0.2606
  160MOL0     C21970   3.804   7.753   5.441  0.1142  0.4126  0.3356
  160MOL0     C21971   3.737   7.941   5.612 -0.1255  0.1412 -0.0443
  160MOL0     C21972   3.875   7.968   5.655 -0.2760  0.0607  0.2980
  160MOL0     O21973   3.975   7.955   5.562 -0.8372  0.4555  0.3565
  160MOL0     C21974   4.099   7.898   5.603 -0.7571  0.3550  0.5129
  160MOL0     C21975   4.217   7.928   5.528 -0.2030 -0.1553  0.1227
  160MOL0     C21976   4.341   7.894   5.588 -0.4151 -0.0146  0.2211
  160MOL0     C21977   4.360   7.834   5.710 -0.7125 -0.4308  0.4262
  160MOL0     O21978   4.487   7.816   5.754  0.2048  0.0919 -0.1540
  160MOL0     C21979   4.498   7.750   5.881  0.7372  0.3197  0.0966
  160MOL0     C21980   4.646   7.729   5.926 -0.2471 -0.3035  0.3546
  160MOL0     C21981   4.659   7.621   6.031  0.1520  0.1858  0.3328
  160MOL0     C21982   4.809   7.602   6.071  0.3131 -0.1439  0.0346
  160MOL0     C21983   4.831   7.485   6.167  1.2881  0.6753 -0.6524
  160MOL0     C21984   4.768   7.510   6.304 -0.4206  0.7153  0.0474
  160MOL0     C21985   4.762   7.393   6.401 -0.7421  0.0440  0.2299
  160MOL0     C21986   4.696   7.263   6.347  0.3930  1.0238 -0.6013
  160MOL0    Cl21987   4.692   7.130   6.474  0.1278  0.6784 -0.2940
  160MOL0     C21988   4.242   7.807   5.777  0.1013  0.5782  0.5364
  160MOL0     C21989   4.111   7.832   5.722 -0.1971  0.6171 -0.6004
  160MOL0     O21990   3.893   8.015   5.763 -0.3136  0.2904 -0.2316
  160MOL0     C21991   3.624   8.010   5.665  0.6695 -0.0549  0.6489
  160MOL0     C21992   3.490   7.988   5.619 -0.1482 -0.1212  0.4758
  160MOL0     N21993   2.931   7.921   5.163  0.6525  0.1870 -0.5429
  160MOL0     N21994   2.943   8.000   5.062  0.6699 -0.0571 -0.2918
  160MOL0     C21995   1.988   8.442   5.448 -0.6089 -0.6576  0.8408
  160MOL0     C21996   1.878   8.497   5.513  0.2596  0.3976  0.0867
  160MOL0     C21997   1.484   8.707   5.579 -1.4296 -1.4933  0.0731
  160MOL0     C21998   1.474   8.790   5.695 -0.2478  0.5403  0.5434
  160MOL0     C21999   1.352   8.836   5.738 -0.1459  0.3512  0.1464
  160MOL0     C22000   1.242   8.805   5.674 -0.6129 -0.5097  0.5553
  160MOL0     O22001   1.118   8.849   5.708  0.2303 -0.3593  0.9194
  160MOL0     C22002   1.090   8.883   5.845  0.1433  0.4579  0.2742
  160MOL0     C22003   0.934   8.893   5.868 -0.0974 -0.2294 -0.5396
  160MOL0     C22004   0.866   8.751   5.851 -0.1624 -0.4294  0.3827
  160MOL0     C22005   0.727   8.758   5.915 -0.1141  0.1183  0.3264
  160MOL0     C22006   0.623   8.834   5.846  0.1381  0.1564 -0.0358
  160MOL0     C22007   0.540   8.906   5.796 -0.3939  0.5258  0.0398
  160MOL0     C22008   1.247   8.731   5.557  0.6678  1.0054  0.2769
  160MOL0     C22009   1.361   8.667   5.511 -0.6342  0.7894 -0.4725
  160MOL0     C22010   1.350   8.593   5.380 -0.1603  0.6215  0.3988
  160MOL0     H22011   1.637   8.443   5.271  0.4724  2.6670 -1.1786
  160MOL0     H22012   1.829   8.373   5.148 -2.3687  2.9782  0.2177
  160MOL0     H22013   2.056   8.440   5.068 -0.5966  1.8793  1.7767
  160MOL0     H22014   2.036   8.256   5.083  1.4152 -0.7375  0.3543
  160MOL0     H22015   2.222   8.316   4.949 -1.5152  0.6774  0.4258
  160MOL0     H22016   2.277   8.422   5.078 -1.4231  0.8960  1.2427
  160MOL0     H22017   2.327   8.232   5.221 -3.0811  0.7784 -0.6320
  160MOL0     H22018   2.245   8.123   5.096  0.6883 -1.2620 -1.8250
  160MOL0     H22019   2.466   8.087   5.051  3.5529  1.5108  0.2125
  160MOL0     H22020   2.432   8.218   4.932  3.1476 -0.8371 -1.8016
  160MOL0     H22021   2.588   8.264   5.175 -2.4193 -2.1447 -0.3521
  160MOL0     H22022   2.523   8.383   5.062  1.0152  0.6101 -0.8720
  160MOL0     H22023   2.703   8.152   4.962  0.3941 -0.3646  1.5230
  160MOL0     H22024   2.637   8.300   4.880 -0.4435  1.0341  0.6178
  160MOL0     H22025   2.770   8.375   5.112 -2.3241 -2.0438  0.6075
  160MOL0     H22026   2.804   8.412   4.941 -2.3554 -0.0158  0.1876
  160MOL0     H22027   2.950   8.212   4.916 -1.3221 -1.8446 -0.7972
  160MOL0     H22028   2.992   8.303   5.066  1.2458 -0.3828 -1.1259
  160MOL0     H22029   2.825   8.207   5.289 -2.4642 -2.1751  0.5770
  160MOL0     H22030   2.837   7.817   5.390 -2.6507 -0.4617  0.0151
  160MOL0     H22031   2.760   7.958   5.453  0.7878 -2.1502  2.4158
  160MOL0     H22032   2.994   8.055   5.510  1.7579  0.0998  1.1105
  160MOL0     H22033   2.948   7.904   5.596 -0.8034 -1.1878 -0.7790
  160MOL0     H22034   3.081   7.766   5.483 -2.0157  0.3349 -2.5452
  160MOL0     H22035   3.126   7.883   5.359 -5.3060  2.5368 -1.3166
  160MOL0     H22036   3.230   8.027   5.527  0.7362  1.0697  0.6229
  160MOL0     H22037   3.215   7.901   5.655 -2.0281 -2.3383 -0.7448
  160MOL0     H22038   3.539   7.760   5.383  0.4334  2.7122 -2.2429
  160MOL0     H22039   3.866   7.710   5.519 -0.3012 -1.8788 -0.5365
  160MOL0     H22040   3.856   7.806   5.360  2.4155 -0.8424  0.9245
  160MOL0     H22041   3.757   7.666   5.394 -0.7269  0.9940  0.0640
  160MOL0     H22042   4.203   7.976   5.431 -0.0315 -0.0970  0.1278
  160MOL0     H22043   4.428   7.939   5.542 -0.9591 -1.8164 -2.9095
  160MOL0     H22044   4.445   7.804   5.961  0.4770  1.5784 -0.8967
  160MOL0     H22045   4.437   7.660   5.872 -2.6521  2.4064  0.2930
  160MOL0     H22046   4.709   7.706   5.840  1.5239 -2.4975  2.0828
  160MOL0     H22047   4.677   7.821   5.977  1.5009 -0.5109 -0.2443
  160MOL0     H22048   4.619   7.531   5.985 -0.7580  0.8208 -0.1404
  160MOL0     H22049   4.598   7.650   6.117 -0.3071  0.6727 -0.1494
  160MOL0     H22050   4.857   7.690   6.116  0.0514  0.5184 -0.9535
  160MOL0     H22051   4.863   7.582   5.978 -2.1535 -0.3627 -1.4140
  160MOL0     H22052   4.780   7.398   6.123  1.4338  0.5690 -0.6134
  160MOL0     H22053   4.934   7.454   6.187  0.7040 -0.8245  0.1728
  160MOL0     H22054   4.670   7.559   6.296  0.4854  2.3656 -1.9889
  160MOL0     H22055   4.827   7.593   6.344 -0.5565  3.1119 -4.0818
  160MOL0     H22056   4.702   7.426   6.487 -0.8515 -0.8719  0.5096
  160MOL0     H22057   4.862   7.362   6.434 -0.9346 -1.2550 -0.3474
  160MOL0     H22058   4.754   7.223   6.263  0.1843 -1.8216  0.5010
  160MOL0     H22059   4.592   7.288   6.322  0.6290  2.1956 -0.4947
  160MOL0     H22060   4.244   7.766   5.878 -0.7874  0.4140  0.4958
  160MOL0     H22061   4.018   7.819   5.777 -0.9348  1.9793 -1.4601
  160MOL0     H22062   3.653   8.080   5.743  3.0062 -0.2536  0.0337
  160MOL0     H22063   3.415   8.052   5.666 -1.7182 -0.5592 -1.2865
  160MOL0     H22064   2.086   8.428   5.492 -0.2110 -1.1338 -0.1654
  160MOL0     H22065   1.883   8.525   5.617  0.7100 -0.8449  0.4086
  160MOL0     H22066   1.558   8.841   5.740 -0.3263  1.0791  0.0737
  160MOL0     H22067   1.348   8.897   5.828 -1.3824 -0.8874  0.9571
  160MOL0     H22068   1.126   8.809   5.916 -2.2176  0.1010  1.1738
  160MOL0     H22069   1.140   8.976   5.874  3.3848 -0.2445 -2.4639
  160MOL0     H22070   0.883   8.963   5.801 -0.9130 -0.0115  0.2893
  160MOL0     H22071   0.931   8.917   5.974 -2.9029  0.2635 -0.6508
  160MOL0     H22072   0.861   8.731   5.743 -0.2588  3.1197 -0.3917
  160MOL0     H22073   0.925   8.675   5.903 -2.2965 -0.0271  3.6039
  160MOL0     H22074   0.731   8.785   6.020  3.0350  0.5017  0.2033
  160MOL0     H22075   0.690   8.656   5.919  1.4696 -0.5831 -1.2900
  160MOL0     H22076   0.462   8.974   5.766 -0.3000  0.0153 -1.4501
  160MOL0     H22077   1.150   8.727   5.509 -1.1602  1.9110  3.5996
  160MOL0     H22078   1.396   8.647   5.296 -0.6046 -1.4948 -1.3081
  160MOL0     H22079   1.395   8.494   5.391 -2.7486 -0.4097  2.6230
  160MOL0     H22080   1.243   8.593   5.359  0.0231  1.3701 -0.5910
  161MOL0     O22081   1.254   2.175   6.745  0.2398 -0.2734 -0.2832
  161MOL0     C22082   1.176   2.091   6.702 -0.2369 -0.1682 -0.1567
  161MOL0     O22083   1.204   2.005   6.603 -0.4984  0.0308 -0.3099
  161MOL0     C22084   1.331   1.982   6.561  0.2565 -0.5387 -0.3499
  161MOL0     C22085   1.351   1.963   6.424  0.2702 -0.0995 -0.2219
  161MOL0     C22086   1.479   1.940   6.374 -0.7779 -1.0081  0.2736
  161MOL0     C22087   1.588   1.920   6.458 -0.6956 -0.0282  0.2558
  161MOL0     O22088   1.711   1.892   6.399 -0.3983  0.4198 -0.3432
  161MOL0     C22089   1.819   1.829   6.475  0.3884 -0.5346  0.1151
  161MOL0     C22090   1.920   1.753   6.389 -0.6873  0.4231 -0.0480
  161MOL0     C22091   1.969   1.824   6.260 -0.1746 -0.0789  1.0143
  161MOL0     C22092   2.062   1.738   6.169 -0.7009  0.7349  0.0892
  161MOL0     C22093   2.118   1.804   6.036  0.9072 -0.3028  0.2048
  161MOL0     C22094   2.238   1.893   6.058 -0.1848 -0.8691 -0.7066
  161MOL0     C22095   2.262   1.968   5.931 -0.2296  0.2966 -0.2400
  161MOL0     C22096   2.298   1.881   5.811 -0.4627  0.9372  0.0752
  161MOL0     N22097   2.353   1.945   5.697  0.1741 -0.6445  0.7273
  161MOL0     C22098   2.401   2.073   5.692 -0.0117 -0.3891  0.2360
  161MOL0     C22099   2.469   2.080   5.581  0.5157  0.3140  0.0292
  161MOL0     C22100   2.546   2.198   5.543 -0.1638 -0.4998 -0.5455
  161MOL0     C22101   2.691   2.172   5.572  0.2662  0.3214 -0.6551
  161MOL0     C22102   2.773   2.300   5.558  0.3760  0.4212  0.2503
  161MOL0     C22103   2.833   2.309   5.414 -0.4583  0.6682 -0.0432
  161MOL0     O22104   2.900   2.438   5.411  0.5566 -0.3175  0.5538
  161MOL0     C22105   3.011   2.463   5.329 -0.4767 -0.0567 -0.6515
  161MOL0     C22106   3.048   2.597   5.330 -0.0283  0.6761  0.4708
  161MOL0     C22107   3.169   2.638   5.260  0.5836  0.1969  0.0155
  161MOL0     C22108   3.214   2.781   5.281  0.2723 -1.5473 -0.7821
  161MOL0     C22109   3.236   2.552   5.169 -0.8873 -0.2383  0.6251
  161MOL0     C22110   3.347   2.590   5.078  0.4869 -0.0951 -0.4435
  161MOL0     O22111   3.456   2.643   5.120  0.2124 -0.0486  0.1862
  161MOL0     C22112   3.558   2.698   5.043  0.3869 -0.5220  0.7287
  161MOL0     C22113   3.646   2.782   5.108  0.5218 -0.9146 -0.0368
  161MOL0     C22114   3.762   2.838   5.045 -0.2335 -0.0179 -0.6074
  161MOL0     C22115   3.784   2.806   4.912  0.2746  0.1936  0.1018
  161MOL0     O22116   3.900   2.855   4.851  0.2714  0.0869 -0.6084
  161MOL0     C22117   3.902   2.861   4.712 -1.0411  0.0265  0.6925
  161MOL0     C22118   4.031   2.955   4.673 -0.1739 -0.3859 -0.2420
  161MOL0     C22119   4.166   2.886   4.672  0.0431 -0.2938  0.2643
  161MOL0     C22120   4.273   2.980   4.614  0.1922  0.3822 -0.8171
  161MOL0     C22121   4.411   2.906   4.629 -0.0950  1.1962  0.6080
  161MOL0     C22122   4.526   2.987   4.572 -0.8579  0.2669 -0.4206
  161MOL0     C22123   4.653   2.896   4.591  0.2956 -0.5050  0.0246
  161MOL0     C22124   4.772   2.972   4.518  0.1367 -0.2732 -0.5363
  161MOL0    Cl22125   4.832   3.096   4.629 -0.1159  0.3581 -0.0201
  161MOL0     C22126   3.692   2.728   4.847  0.3294  1.2739  1.2731
  161MOL0     C22127   3.587   2.669   4.910 -0.3780  0.5644  0.1712
  161MOL0     O22128   3.302   2.606   4.968 -0.1772  0.5974 -0.3280
  161MOL0     C22129   3.189   2.420   5.166  0.0596  0.1199 -0.5591
  161MOL0     C22130   3.086   2.374   5.250  0.1560 -0.1631  0.1213
  161MOL0     N22131   2.466   1.955   5.513  0.2191 -0.1070 -0.2474
  161MOL0     N22132   2.395   1.878   5.584 -0.0772  0.4365 -0.6828
  161MOL0     C22133   1.565   1.914   6.602  0.2542 -0.5540 -0.0097
  161MOL0     C22134   1.436   1.953   6.653 -0.0561  0.7123  0.0109
  161MOL0     C22135   1.040   2.109   6.746 -0.2287 -0.0780  0.4378
  161MOL0     C22136   0.937   2.148   6.657 -0.1925 -0.1544 -0.1268
  161MOL0     C22137   0.812   2.179   6.703  0.2282 -0.1754 -0.7906
  161MOL0     C22138   0.790   2.176   6.845  0.1610 -0.0781 -0.7179
  161MOL0     O22139   0.673   2.230   6.892 -0.3490  0.4810  0.2214
  161MOL0     C22140   0.626   2.210   7.027  1.2086 -1.0485 -0.1187
  161MOL0     C22141   0.481   2.261   7.043  0.1344 -0.5607  0.4820
  161MOL0     C22142   0.462   2.414   7.015 -0.3017  0.5727 -0.1894
  161MOL0     C22143   0.486   2.462   6.871 -0.0553  0.7068  0.1991
  161MOL0     C22144   0.401   2.579   6.834 -1.3666 -0.6922  0.2201
  161MOL0     C22145   0.342   2.671   6.785  0.6631  0.4819  0.5477
  161MOL0     C22146   0.889   2.128   6.933  0.4039 -0.3583  0.3405
  161MOL0     C22147   1.011   2.089   6.882  0.3330 -0.1441  0.1340
  161MOL0     C22148   1.111   2.028   6.976  0.7590 -0.4734 -0.1062
  161MOL0     H22149   1.270   1.966   6.352  0.5505 -2.8284 -0.7433
  161MOL0     H22150   1.503   1.934   6.268 -0.5854  0.4295  0.2235
  161MOL0     H22151   1.768   1.758   6.542 -1.7064  0.7495 -0.0142
  161MOL0     H22152   1.867   1.910   6.531  0.6945  0.6113 -1.7439
  161MOL0     H22153   2.004   1.716   6.449 -1.4808  1.2619  1.6471
  161MOL0     H22154   1.873   1.657   6.367 -0.3182  0.1529  0.3229
  161MOL0     H22155   1.883   1.866   6.207  0.5191  2.0095  1.4714
  161MOL0     H22156   2.027   1.910   6.294  0.1229  0.2926 -0.3833
  161MOL0     H22157   2.142   1.688   6.224 -0.0550 -0.3039 -1.7017
  161MOL0     H22158   1.992   1.661   6.134 -0.7016  0.4260  0.7392
  161MOL0     H22159   2.028   1.856   6.001  0.5136 -1.5647 -0.7126
  161MOL0     H22160   2.141   1.721   5.969 -0.9125  0.5388 -1.5630
  161MOL0     H22161   2.216   1.966   6.136  0.2141 -1.1692 -0.3082
  161MOL0     H22162   2.331   1.845   6.088  0.1642 -0.3145 -0.8909
  161MOL0     H22163   2.342   2.038   5.953  0.7117 -0.5540 -0.8856
  161MOL0     H22164   2.169   2.022   5.907 -0.6180 -0.5635 -0.7422
  161MOL0     H22165   2.373   1.816   5.857  0.4510  0.8685 -1.4319
  161MOL0     H22166   2.220   1.806   5.796  0.9348 -1.1373  2.4958
  161MOL0     H22167   2.402   2.143   5.775  1.5931 -2.3209  2.0110
  161MOL0     H22168   2.512   2.285   5.600  0.3147 -0.7299  0.1065
  161MOL0     H22169   2.537   2.230   5.439  2.6543 -0.2244 -0.7691
  161MOL0     H22170   2.699   2.145   5.678  1.2049  1.0153 -0.5362
  161MOL0     H22171   2.720   2.080   5.520  0.4894  1.2573 -2.2698
  161MOL0     H22172   2.704   2.382   5.579  1.1920  1.0075  0.6938
  161MOL0     H22173   2.851   2.298   5.634  0.0191 -1.4832  0.6385
  161MOL0     H22174   2.892   2.219   5.392 -0.3634  0.7701 -0.2068
  161MOL0     H22175   2.758   2.298   5.335  0.0895  2.2331 -0.8224
  161MOL0     H22176   3.002   2.666   5.399  2.1966  2.2470  0.4625
  161MOL0     H22177   3.296   2.797   5.209  1.2185 -0.5091  0.4883
  161MOL0     H22178   3.252   2.798   5.382 -0.9281 -1.0702 -0.4012
  161MOL0     H22179   3.142   2.861   5.266  2.2801  1.0095  2.0347
  161MOL0     H22180   3.614   2.801   5.210 -0.7366  1.1404 -0.7455
  161MOL0     H22181   3.839   2.899   5.092 -1.4926  0.3010  1.1399
  161MOL0     H22182   3.923   2.764   4.666  2.2568  1.6588 -1.6382
  161MOL0     H22183   3.811   2.903   4.670 -1.2215  0.4056  1.4512
  161MOL0     H22184   4.013   2.991   4.571 -0.2719  1.1406  0.2888
  161MOL0     H22185   4.030   3.040   4.742  0.9638 -1.1789  0.7858
  161MOL0     H22186   4.155   2.793   4.615 -3.5180  1.5054 -2.4016
  161MOL0     H22187   4.193   2.860   4.775 -1.2944 -0.3154  0.6336
  161MOL0     H22188   4.275   3.074   4.670 -0.2909 -0.2201  0.2473
  161MOL0     H22189   4.250   2.999   4.509  0.0695 -1.9193 -1.2780
  161MOL0     H22190   4.434   2.875   4.731 -0.6843 -2.5437 -0.2623
  161MOL0     H22191   4.397   2.815   4.569 -0.6893  0.7354  1.4267
  161MOL0     H22192   4.529   3.078   4.631 -1.8342 -0.1584  0.3036
  161MOL0     H22193   4.509   3.013   4.467 -3.0876  2.8908  0.4897
  161MOL0     H22194   4.630   2.802   4.540 -0.5202 -0.2260 -0.1455
  161MOL0     H22195   4.676   2.877   4.696 -0.0317  0.2835  0.2478
  161MOL0     H22196   4.738   3.027   4.430 -1.6850 -1.9425 -0.9401
  161MOL0     H22197   4.859   2.907   4.501  0.6826  0.3672 -0.2226
  161MOL0     H22198   3.713   2.691   4.747 -0.4467  0.0670  1.5228
  161MOL0     H22199   3.524   2.593   4.865  0.2291  0.1114  0.0691
  161MOL0     H22200   3.241   2.349   5.103  0.4826  0.2185 -0.3248
  161MOL0     H22201   3.051   2.271   5.248  1.8697 -0.7623 -1.4387
  161MOL0     H22202   1.647   1.902   6.671  2.8517  2.7684 -2.1882
  161MOL0     H22203   1.417   1.963   6.759 -0.7882 -0.3541 -0.0077
  161MOL0     H22204   0.956   2.154   6.550 -2.3491  0.1456 -0.5436
  161MOL0     H22205   0.734   2.209   6.634 -0.5379  3.0362  1.2789
  161MOL0     H22206   0.618   2.106   7.059 -3.1033 -0.1918  2.4399
  161MOL0     H22207   0.685   2.260   7.105  0.4585 -0.6145  0.1858
  161MOL0     H22208   0.439   2.242   7.142 -0.2082 -1.8755  0.0963
  161MOL0     H22209   0.424   2.192   6.980 -1.6018  0.6718  0.6356
  161MOL0     H22210   0.356   2.437   7.021 -0.1715  1.8579 -2.1330
  161MOL0     H22211   0.509   2.480   7.088 -2.0868  2.3708 -0.5960
  161MOL0     H22212   0.465   2.381   6.800  1.7561 -0.6081  1.0584
  161MOL0     H22213   0.591   2.491   6.856 -0.0962 -0.0617 -1.9300
  161MOL0     H22214   0.271   2.737   6.740 -3.6798 -1.6697  3.5328
  161MOL0     H22215   0.877   2.113   7.039 -0.2225 -2.6073 -0.0020
  161MOL0     H22216   1.196   2.091   7.004 -1.3413  1.9609  1.2327
  161MOL0     H22217   1.073   2.006   7.075  2.0896  1.6649  0.9581
  161MOL0     H22218   1.146   1.930   6.942 -2.3352 -1.9039  0.4784
  162MOL0     O22219   1.185  10.097   7.119 -0.0355  0.5738 -0.6312
  162MOL0     C22220   1.218   9.979   7.129 -0.0376 -0.0414 -0.3218
  162MOL0     O22221   1.333   9.923   7.096 -0.1944  0.0074  0.0205
  162MOL0     C22222   1.429   9.987   7.035 -0.1851 -0.0628  0.2244
  162MOL0     C22223   1.414  10.066   6.921  0.2940  0.3492  0.0513
  162MOL0     C22224   1.523  10.123   6.863 -0.6598 -0.2957 -0.0910
  162MOL0     C22225   1.648  10.072   6.901 -0.9240 -0.4724  0.4595
  162MOL0     O22226   1.766  10.131   6.860  0.1239 -0.2074  0.2230
  162MOL0     C22227   1.768  10.271   6.843  0.1598 -0.9853 -0.8227
  162MOL0     C22228   1.908  10.336   6.818  0.0016  0.3257 -0.2530
  162MOL0     C22229   2.009  10.316   6.929 -0.1481 -0.4525  0.5291
  162MOL0     C22230   1.995  10.426   7.035 -0.1278 -0.3028  0.3363
  162MOL0     C22231   2.108  10.423   7.140  0.1373 -0.2772 -1.1140
  162MOL0     C22232   2.113  10.552   7.233  0.4660  0.5092  1.0190
  162MOL0     C22233   2.253  10.572   7.281 -0.2098 -0.2918  0.9344
  162MOL0     C22234   2.241  10.690   7.377  1.0213 -0.0550 -0.4646
  162MOL0     N22235   2.380  10.724   7.425 -0.8469 -0.5687  0.3377
  162MOL0     C22236   2.498  10.723   7.346 -0.1956  0.1814 -0.6086
  162MOL0     C22237   2.588  10.783   7.416  0.5764  0.6278 -0.6611
  162MOL0     C22238   2.730  10.780   7.366 -0.3760 -0.2733  0.4396
  162MOL0     C22239   2.832  10.854   7.458  0.0353 -0.1464 -0.2601
  162MOL0     C22240   2.959  10.879   7.378  0.4055  0.5060  0.0792
  162MOL0     C22241   3.066  10.939   7.471  0.2728  0.0164 -0.1762
  162MOL0     O22242   3.188  10.932   7.400  0.1779 -0.1904  0.3374
  162MOL0     C22243   3.236  11.051   7.361  0.4060 -0.5557 -0.4688
  162MOL0     C22244   3.222  11.091   7.235  0.5803  0.4737 -0.1327
  162MOL0     C22245   3.278  11.211   7.190  0.4714  0.2479  0.9046
  162MOL0     C22246   3.265  11.231   7.039 -0.4988 -0.2646  0.5376
  162MOL0     C22247   3.369  11.291   7.277 -0.1633  0.5242  0.7065
  162MOL0     C22248   3.442  11.416   7.237  0.1649  0.0659 -0.8389
  162MOL0     O22249   3.554  11.440   7.310 -0.3795 -0.6377  0.0423
  162MOL0     C22250   3.648  11.540   7.286  0.2095  0.1036 -0.2738
  162MOL0     C22251   3.743  11.556   7.387  0.1346  0.1052 -0.3333
  162MOL0     C22252   3.817  11.676   7.394  0.2149  1.1018 -0.8561
  162MOL0     C22253   3.804  11.783   7.308 -0.3960  0.2176  0.6169
  162MOL0     O22254   3.895  11.884   7.314 -0.0301  0.1718 -0.7033
  162MOL0     C22255   3.839  12.021   7.328  1.1829  0.4917  0.3717
  162MOL0     C22256   3.920  12.112   7.237 -1.1260  0.7188  0.1841
  162MOL0     C22257   4.046  12.158   7.314  0.3121  0.1170 -0.7739
  162MOL0     C22258   4.110  12.276   7.250  0.7416 -0.7291  0.2964
  162MOL0     C22259   4.225  12.311   7.334 -0.4623 -0.4161 -0.7934
  162MOL0     C22260   4.314  12.423   7.288  0.9204  0.1820 -0.7371
  162MOL0     C22261   4.440  12.417   7.380 -0.8869  0.9042  0.5150
  162MOL0     C22262   4.541  12.518   7.322  0.7417  0.5045 -0.1492
  162MOL0    Cl22263   4.601  12.476   7.160  0.2011 -0.0831 -0.1131
  162MOL0     C22264   3.715  11.761   7.196 -0.3254  0.0181 -0.3787
  162MOL0     C22265   3.639  11.642   7.184 -0.7450 -0.2361  0.1067
  162MOL0     O22266   3.401  11.490   7.148 -0.4770  0.2823  0.7513
  162MOL0     C22267   3.375  11.246   7.409 -0.2693 -0.2626  0.4392
  162MOL0     C22268   3.316  11.129   7.446  0.4533 -0.3692 -0.6195
  162MOL0     N22269   2.538  10.811   7.539 -0.0655  0.1031 -0.3339
  162MOL0     N22270   2.415  10.761   7.543  0.2657 -0.6023  0.3212
  162MOL0     C22271   1.666   9.979   7.010 -0.5182 -0.5441  0.1476
  162MOL0     C22272   1.554   9.943   7.078  0.1692 -0.6383  0.5439
  162MOL0     C22273   1.113   9.887   7.176 -0.4250 -0.9624 -0.1405
  162MOL0     C22274   1.109   9.758   7.118 -0.4089 -0.0791  0.3444
  162MOL0     C22275   1.004   9.675   7.137 -0.2073 -0.3372  0.1510
  162MOL0     C22276   0.900   9.715   7.223 -0.1119 -0.0754 -0.3395
  162MOL0     O22277   0.785   9.634   7.238 -0.0599  1.0557  0.6697
  162MOL0     C22278   0.658   9.670   7.296 -0.7967 -0.1767  0.0330
  162MOL0     C22279   0.542   9.581   7.234  0.5586 -0.5859  0.4660
  162MOL0     C22280   0.563   9.439   7.294  0.0602 -0.2863 -0.6639
  162MOL0     C22281   0.458   9.346   7.236  0.8834 -0.7042 -0.7652
  162MOL0     C22282   0.343   9.340   7.326 -0.0330  0.0542 -0.0281
  162MOL0     C22283   0.248   9.328   7.403 -1.3096  0.3398  0.2855
  162MOL0     C22284   0.910   9.834   7.289  0.2152 -0.7299 -0.0233
  162MOL0     C22285   1.013   9.918   7.273 -1.3813 -0.0248  0.6422
  162MOL0     C22286   0.997  10.044   7.346 -0.5575  0.3722  1.1261
  162MOL0     H22287   1.315  10.087   6.880  1.4513 -0.2379 -3.3762
  162MOL0     H22288   1.519  10.194   6.781  0.7061  0.0605  0.1208
  162MOL0     H22289   1.722  10.309   6.934  0.0301  1.3358 -1.7807
  162MOL0     H22290   1.709  10.298   6.755  1.8518 -1.5278 -2.1797
  162MOL0     H22291   1.949  10.299   6.724 -2.0359  0.8497 -1.3935
  162MOL0     H22292   1.899  10.443   6.798  2.8618  0.3897 -1.5858
  162MOL0     H22293   1.994  10.220   6.981  4.0895 -0.0015  3.0874
  162MOL0     H22294   2.109  10.319   6.886 -0.1719  0.2778  0.5190
  162MOL0     H22295   2.015  10.521   6.984 -1.4224  1.4890  2.9543
  162MOL0     H22296   1.894  10.421   7.076  0.0014 -1.8864  0.5293
  162MOL0     H22297   2.203  10.420   7.085  1.3950  0.4140  0.8906
  162MOL0     H22298   2.113  10.332   7.200 -0.9470 -0.7639 -1.7435
  162MOL0     H22299   2.082  10.640   7.177 -2.1613 -0.0200  1.4595
  162MOL0     H22300   2.040  10.545   7.315 -3.2909  0.8290 -2.0407
  162MOL0     H22301   2.315  10.596   7.194  1.2014  2.2586  2.5223
  162MOL0     H22302   2.289  10.489   7.342 -2.5035 -0.7930  1.6801
  162MOL0     H22303   2.203  10.776   7.321 -1.3324 -0.8009 -0.1507
  162MOL0     H22304   2.170  10.671   7.459 -1.7485  1.5126 -2.3272
  162MOL0     H22305   2.521  10.668   7.256  2.3650 -1.6468  1.0137
  162MOL0     H22306   2.719  10.822   7.266 -1.8506  2.6070  1.6810
  162MOL0     H22307   2.763  10.676   7.362  0.9229  0.0854  1.0223
  162MOL0     H22308   2.790  10.937   7.515 -1.7242 -0.7871 -0.5512
  162MOL0     H22309   2.849  10.773   7.530 -3.6373  0.3701  1.3927
  162MOL0     H22310   2.988  10.787   7.326 -1.4227 -0.6664  1.0014
  162MOL0     H22311   2.951  10.951   7.296  2.2018  0.9611  0.2702
  162MOL0     H22312   3.036  11.040   7.500 -0.2867 -0.0901 -0.3743
  162MOL0     H22313   3.080  10.875   7.558 -0.6468  0.6789  0.4765
  162MOL0     H22314   3.153  11.032   7.174 -0.1470  1.4498 -0.2773
  162MOL0     H22315   3.192  11.162   6.996  1.7132 -1.0415 -2.2930
  162MOL0     H22316   3.360  11.213   6.988 -1.2341 -1.2674 -0.5302
  162MOL0     H22317   3.234  11.336   7.036 -0.5918 -0.3156 -1.4002
  162MOL0     H22318   3.745  11.491   7.475  0.1131 -1.2303 -1.2877
  162MOL0     H22319   3.866  11.697   7.489  0.6490  0.0606 -0.8355
  162MOL0     H22320   3.736  12.039   7.297  1.0597 -0.1956  0.3692
  162MOL0     H22321   3.848  12.047   7.434  0.0333 -1.3087  0.9712
  162MOL0     H22322   3.943  12.064   7.142 -0.9077 -0.6226  0.8930
  162MOL0     H22323   3.865  12.203   7.212 -2.4503 -0.6909 -2.4961
  162MOL0     H22324   4.121  12.078   7.321 -1.1371 -1.1801  1.2278
  162MOL0     H22325   4.023  12.186   7.418 -0.1503  1.5303 -1.2278
  162MOL0     H22326   4.033  12.353   7.242  0.1689 -1.3219 -0.0194
  162MOL0     H22327   4.139  12.254   7.147 -0.7723 -1.7104  0.0612
  162MOL0     H22328   4.186  12.339   7.432 -3.5782 -2.2144 -1.3959
  162MOL0     H22329   4.286  12.224   7.360 -0.1517  0.6837  2.6798
  162MOL0     H22330   4.273  12.524   7.293  1.1280  0.2002  1.6150
  162MOL0     H22331   4.341  12.405   7.183 -0.2621  0.6705 -1.1347
  162MOL0     H22332   4.492  12.322   7.391 -1.3932  0.4599 -0.8167
  162MOL0     H22333   4.418  12.447   7.483  0.7118  0.9021  0.8916
  162MOL0     H22334   4.625  12.527   7.392  0.5982  1.6350 -0.1068
  162MOL0     H22335   4.488  12.614   7.320 -0.8933 -0.3424  0.3210
  162MOL0     H22336   3.705  11.841   7.122  0.8935 -0.8168 -1.4990
  162MOL0     H22337   3.568  11.639   7.102  0.9429  0.9908 -1.4597
  162MOL0     H22338   3.440  11.291   7.484 -0.4694 -0.3610  0.6715
  162MOL0     H22339   3.341  11.083   7.541  0.5196  1.0873  0.0941
  162MOL0     H22340   1.769   9.958   7.034  1.3384  3.4563 -3.0676
  162MOL0     H22341   1.560   9.872   7.160 -1.9065 -1.4696  0.0337
  162MOL0     H22342   1.188   9.744   7.044  0.3871  2.0339  0.7192
  162MOL0     H22343   0.989   9.578   7.092  1.0975 -0.4306 -0.1165
  162MOL0     H22344   0.656   9.665   7.406 -0.3038  1.5667  0.1492
  162MOL0     H22345   0.640   9.777   7.281  0.9977  0.1418 -0.0258
  162MOL0     H22346   0.551   9.577   7.125  0.7820  3.3286  0.2118
  162MOL0     H22347   0.442   9.622   7.250  0.6296  1.7635 -3.6239
  162MOL0     H22348   0.658   9.396   7.260 -0.9029 -2.1548 -1.1310
  162MOL0     H22349   0.572   9.436   7.403  2.3870  0.4325 -0.7868
  162MOL0     H22350   0.497   9.244   7.234  0.0555 -1.2764  3.3145
  162MOL0     H22351   0.419   9.371   7.138 -1.2473  0.3488  0.2814
  162MOL0     H22352   0.166   9.312   7.471 -0.4183 -2.6862  0.8152
  162MOL0     H22353   0.838   9.862   7.365 -0.2263  2.2564 -1.3837
  162MOL0     H22354   0.961  10.126   7.282 -0.9351  0.0385  0.9126
  162MOL0     H22355   0.915  10.045   7.418  0.8736  3.1409  2.9438
  162MOL0     H22356   1.095  10.069   7.388  1.1077 -3.0242 -0.3835
  163MOL0     O22357   3.466   6.352   7.577 -0.3412 -0.7457  0.1443
  163MOL0     C22358   3.492   6.447   7.508  0.9523  0.2260  0.8372
  163MOL0     O22359   3.400   6.506   7.417 -0.2168 -0.0427  1.0020
  163MOL0     C22360   3.263   6.464   7.427  0.1272 -0.1199  1.0924
  163MOL0     C22361   3.197   6.469   7.554  0.4368  0.3798  0.6925
  163MOL0     C22362   3.058   6.430   7.567 -0.2359 -0.6440  1.0618
  163MOL0     C22363   2.980   6.398   7.448  0.4462  0.9499  0.2894
  163MOL0     O22364   2.842   6.381   7.453 -0.4354  0.4334  0.2412
  163MOL0     C22365   2.781   6.313   7.567  0.2683  0.3504 -0.7899
  163MOL0     C22366   2.663   6.222   7.517 -0.2791 -0.2556  0.0091
  163MOL0     C22367   2.627   6.117   7.621 -0.1250 -0.3203 -0.0819
  163MOL0     C22368   2.488   6.070   7.602  0.5930  0.2432  0.9115
  163MOL0     C22369   2.427   6.019   7.730 -0.2164  0.0197 -0.0396
  163MOL0     C22370   2.305   5.928   7.733  0.4039 -0.0099  0.0694
  163MOL0     C22371   2.275   5.879   7.876 -0.4703 -0.4726  0.4675
  163MOL0     C22372   2.205   5.983   7.961  0.0791  0.4188 -0.4514
  163MOL0     N22373   2.102   5.919   8.042  0.4975  0.7265  0.2278
  163MOL0     C22374   2.003   5.991   8.094 -0.8169  0.3313  0.2518
  163MOL0     C22375   1.937   5.902   8.166 -0.1524 -0.1816 -0.2871
  163MOL0     C22376   1.816   5.926   8.258  0.1676 -0.4204 -0.3017
  163MOL0     C22377   1.849   6.012   8.387 -0.4413  0.4503 -0.6619
  163MOL0     C22378   1.847   6.159   8.344  0.7994 -0.1363  0.2928
  163MOL0     C22379   1.906   6.251   8.451 -0.1197  0.2899 -1.0132
  163MOL0     O22380   2.023   6.186   8.506  0.4448 -0.5134  0.3372
  163MOL0     C22381   2.141   6.196   8.435 -0.3674  0.5259  0.1853
  163MOL0     C22382   2.192   6.315   8.370  0.2910  0.8311 -0.0665
  163MOL0     C22383   2.316   6.306   8.312  0.4335 -0.5967  0.7648
  163MOL0     C22384   2.366   6.439   8.243 -0.2026 -0.9855 -0.0373
  163MOL0     C22385   2.385   6.185   8.306 -0.2094 -0.2835  0.2738
  163MOL0     C22386   2.513   6.159   8.224  0.8974  0.6584  0.3317
  163MOL0     O22387   2.530   6.233   8.110  0.2582 -0.5228  0.2889
  163MOL0     C22388   2.645   6.216   8.036  0.1334  0.7456 -0.3362
  163MOL0     C22389   2.722   6.337   8.006  0.3412  0.7172 -0.5758
  163MOL0     C22390   2.841   6.330   7.942  0.2654  0.9481 -0.3734
  163MOL0     C22391   2.902   6.210   7.905  0.3598  0.0608 -0.3738
  163MOL0     O22392   3.019   6.230   7.840  0.2849 -0.7052  0.0718
  163MOL0     C22393   3.086   6.111   7.785 -0.6823  0.6212  0.7422
  163MOL0     C22394   3.231   6.142   7.739  0.8417  0.8973 -0.2458
  163MOL0     C22395   3.300   6.009   7.753  0.0143 -0.6635 -0.0124
  163MOL0     C22396   3.458   6.018   7.729 -0.4326 -0.1221  0.6157
  163MOL0     C22397   3.530   5.887   7.732 -0.7728 -0.2574  0.5271
  163MOL0     C22398   3.681   5.893   7.691  0.6239  1.0525 -0.4873
  163MOL0     C22399   3.706   5.941   7.552 -0.0151  0.7461 -0.7084
  163MOL0     C22400   3.848   5.977   7.515  0.3319 -0.0663 -0.3284
  163MOL0    Cl22401   3.964   5.846   7.535  0.0573 -0.4903 -0.2692
  163MOL0     C22402   2.833   6.086   7.932 -0.2617  0.3555  0.1008
  163MOL0     C22403   2.706   6.087   7.993  0.6485  0.0579 -0.3287
  163MOL0     O22404   2.602   6.079   8.266 -0.4963 -0.1451 -0.5747
  163MOL0     C22405   2.334   6.069   8.369  0.1264  0.1749 -0.3945
  163MOL0     C22406   2.221   6.078   8.436  0.7335  0.2060  0.0815
  163MOL0     N22407   2.003   5.782   8.161 -0.3937  0.9731  0.4651
  163MOL0     N22408   2.098   5.792   8.084 -0.3121 -0.5022  0.2511
  163MOL0     C22409   3.053   6.384   7.333  0.1778  0.2818 -0.1328
  163MOL0     C22410   3.184   6.426   7.319 -0.1559 -0.3650  0.7490
  163MOL0     C22411   3.621   6.515   7.521  1.2959  0.1079 -0.2405
  163MOL0     C22412   3.638   6.641   7.451  0.0504  0.0979  0.6049
  163MOL0     C22413   3.759   6.709   7.439 -0.1133 -0.3605  0.7533
  163MOL0     C22414   3.872   6.664   7.510 -0.5305  0.3316 -0.1138
  163MOL0     O22415   3.975   6.751   7.536  0.0792 -0.3461 -0.3964
  163MOL0     C22416   4.109   6.703   7.504 -0.8802 -0.5541  0.2106
  163MOL0     C22417   4.126   6.676   7.349  0.0138 -0.4625 -0.4734
  163MOL0     C22418   4.077   6.796   7.267 -0.6263  0.0832 -0.1660
  163MOL0     C22419   4.131   6.941   7.312 -0.1332 -0.1624 -0.1254
  163MOL0     C22420   4.091   7.025   7.200  0.6938 -0.2130 -0.8426
  163MOL0     C22421   4.070   7.113   7.122 -0.1053 -0.1985  0.4566
  163MOL0     C22422   3.861   6.537   7.570 -0.8526 -0.2996 -0.5049
  163MOL0     C22423   3.738   6.462   7.574 -0.8698 -0.6872  0.4008
  163MOL0     C22424   3.746   6.331   7.639  0.5525 -0.0593  0.0603
  163MOL0     H22425   3.244   6.485   7.650 -2.7441 -0.1292  2.4390
  163MOL0     H22426   3.004   6.440   7.660  1.2402  0.9739  1.8095
  163MOL0     H22427   2.741   6.386   7.638 -2.6028 -2.4581  0.6750
  163MOL0     H22428   2.858   6.249   7.612  0.6220  1.5674  0.3961
  163MOL0     H22429   2.573   6.278   7.491  0.7076  1.7479  0.7149
  163MOL0     H22430   2.696   6.174   7.425  2.5999  1.9797 -0.2292
  163MOL0     H22431   2.694   6.034   7.601 -0.4007 -0.3483 -0.9411
  163MOL0     H22432   2.639   6.155   7.723 -0.4315  0.8385 -0.4625
  163MOL0     H22433   2.423   6.146   7.558  1.1998 -0.3117 -1.0534
  163MOL0     H22434   2.492   5.989   7.529 -0.2657  1.8666 -1.0398
  163MOL0     H22435   2.402   6.108   7.789 -2.4032 -1.3825  1.2721
  163MOL0     H22436   2.496   5.970   7.798 -0.3816  0.7741  0.6930
  163MOL0     H22437   2.220   5.980   7.689  1.5925  2.1992  0.2266
  163MOL0     H22438   2.319   5.836   7.676 -1.1605  1.1888 -2.4274
  163MOL0     H22439   2.371   5.840   7.910  0.1014 -1.5746 -2.1843
  163MOL0     H22440   2.216   5.791   7.852  0.1531 -0.3111 -2.0111
  163MOL0     H22441   2.276   6.021   8.035 -0.7433 -0.5842  0.9062
  163MOL0     H22442   2.159   6.067   7.908  2.7758  3.8303  2.1202
  163MOL0     H22443   1.974   6.096   8.085 -0.4601  0.3427 -0.9121
  163MOL0     H22444   1.783   5.827   8.289 -0.8250 -0.3553 -1.0942
  163MOL0     H22445   1.738   5.983   8.206  1.8971  1.3046 -1.0966
  163MOL0     H22446   1.770   5.995   8.461 -0.5651 -1.0566 -1.1045
  163MOL0     H22447   1.945   5.979   8.428 -0.1111 -0.3040 -1.9706
  163MOL0     H22448   1.907   6.179   8.255 -2.5810  1.1923 -1.8514
  163MOL0     H22449   1.743   6.186   8.323  1.8511  3.0000 -1.5215
  163MOL0     H22450   1.931   6.351   8.412  0.5793  0.3247 -0.4952
  163MOL0     H22451   1.839   6.279   8.533 -1.3802 -1.6327 -1.3235
  163MOL0     H22452   2.139   6.410   8.364  0.5576  0.9165 -1.3052
  163MOL0     H22453   2.333   6.529   8.295  3.5673  1.3837 -1.3511
  163MOL0     H22454   2.328   6.449   8.141  0.3767  1.3409 -0.0776
  163MOL0     H22455   2.474   6.452   8.237 -0.2529 -0.4935  0.0833
  163MOL0     H22456   2.680   6.432   8.038 -0.0152  0.3939 -0.0608
  163MOL0     H22457   2.892   6.423   7.922 -2.3714  1.9245 -3.2685
  163MOL0     H22458   3.093   6.044   7.871  2.3882 -0.2101 -0.0238
  163MOL0     H22459   3.020   6.064   7.711  1.1885 -1.6265  0.3699
  163MOL0     H22460   3.227   6.179   7.636 -0.4672 -0.8933 -0.8834
  163MOL0     H22461   3.279   6.214   7.806  1.1897  2.8418 -2.4527
  163MOL0     H22462   3.241   5.955   7.679 -1.3367 -3.1581  2.6855
  163MOL0     H22463   3.289   5.960   7.850 -1.4737 -2.6403 -1.0876
  163MOL0     H22464   3.508   6.080   7.804  2.0526 -0.1460 -0.9253
  163MOL0     H22465   3.465   6.069   7.633  2.8784 -1.8514 -0.2145
  163MOL0     H22466   3.523   5.836   7.828 -3.6088 -2.0549 -0.4979
  163MOL0     H22467   3.480   5.816   7.666  1.4595  0.1665 -1.8295
  163MOL0     H22468   3.731   5.796   7.699  2.0896  1.7942 -0.4556
  163MOL0     H22469   3.737   5.969   7.747 -0.4583  0.6930  1.1453
  163MOL0     H22470   3.656   6.038   7.545 -1.9338 -0.1213  0.2291
  163MOL0     H22471   3.661   5.873   7.479 -0.1559  1.1104 -0.9614
  163MOL0     H22472   3.879   6.058   7.582 -1.9706 -0.7769  1.7506
  163MOL0     H22473   3.857   6.024   7.416  2.3431  1.8775  0.6931
  163MOL0     H22474   2.879   5.993   7.899 -1.6266 -0.7867  1.2632
  163MOL0     H22475   2.659   5.994   8.024  0.6039  0.6834  1.5693
  163MOL0     H22476   2.372   5.969   8.389 -0.8285  0.1904  1.8490
  163MOL0     H22477   2.184   5.992   8.491  2.2944 -0.0881  0.7319
  163MOL0     H22478   2.994   6.336   7.256  0.7854  0.8388 -0.9571
  163MOL0     H22479   3.220   6.406   7.218 -1.1308  1.3551  0.0159
  163MOL0     H22480   3.557   6.689   7.396 -0.6081  0.7627  2.1011
  163MOL0     H22481   3.753   6.803   7.386  1.2825 -1.0948 -0.8214
  163MOL0     H22482   4.187   6.769   7.543 -1.6000 -0.1280  0.9851
  163MOL0     H22483   4.128   6.609   7.556  1.3339  0.3950  1.2473
  163MOL0     H22484   4.065   6.589   7.326 -0.1607  0.0234 -1.9654
  163MOL0     H22485   4.231   6.657   7.325 -0.2649 -1.3531 -1.0435
  163MOL0     H22486   4.113   6.776   7.166  0.3514 -1.5572  0.4661
  163MOL0     H22487   3.969   6.796   7.251 -0.1896 -1.0892 -4.2499
  163MOL0     H22488   4.238   6.934   7.333 -0.4843 -1.1075  1.5551
  163MOL0     H22489   4.092   6.979   7.407 -1.1895 -1.9865  0.2294
  163MOL0     H22490   4.039   7.199   7.067 -0.6283 -0.5958  0.1134
  163MOL0     H22491   3.955   6.513   7.619 -2.0955 -2.7008  0.9226
  163MOL0     H22492   3.716   6.250   7.572 -0.3045 -1.2648  1.8144
  163MOL0     H22493   3.847   6.308   7.672  0.9098  0.0124 -0.9535
  163MOL0     H22494   3.680   6.331   7.726  0.4280  1.8922  0.0058
  164MOL0     O22495   6.995  10.193   7.375 -0.0715 -0.3799 -0.1605
  164MOL0     C22496   6.947  10.187   7.265 -0.8682 -0.3623  0.2271
  164MOL0     O22497   7.022  10.142   7.158  0.9713  0.1323  0.1732
  164MOL0     C22498   7.148  10.090   7.184  0.5549  0.6638  0.3720
  164MOL0     C22499   7.171   9.969   7.250  0.0592  0.0574 -0.7530
  164MOL0     C22500   7.304   9.935   7.285 -0.6112 -0.1593 -0.7231
  164MOL0     C22501   7.414  10.016   7.239  0.2407 -0.4535 -0.5716
  164MOL0     O22502   7.546   9.991   7.278  0.2407 -0.2886  0.3621
  164MOL0     C22503   7.571   9.906   7.388  0.0450  0.9670 -0.4066
  164MOL0     C22504   7.722   9.931   7.426 -1.0850  0.7059  0.3310
  164MOL0     C22505   7.835   9.891   7.324  0.6255  0.2362 -0.1983
  164MOL0     C22506   7.978   9.896   7.381  0.2684 -0.2978  0.3326
  164MOL0     C22507   8.057   9.970   7.281 -1.2925 -0.1781 -0.0134
  164MOL0     C22508   8.202   9.957   7.336  0.4202 -0.0640 -0.6251
  164MOL0     C22509   8.291  10.072   7.277 -0.1256 -0.0343 -0.0290
  164MOL0     C22510   8.279  10.107   7.129 -0.1691  0.0990  0.5312
  164MOL0     N22511   8.360  10.219   7.096 -0.4637 -0.1573 -0.5784
  164MOL0     C22512   8.451  10.232   6.994  0.3724 -0.5632 -1.2717
  164MOL0     C22513   8.460  10.371   6.977 -0.3675  0.1844  0.0774
  164MOL0     C22514   8.542  10.448   6.876 -0.4295 -0.0271 -0.1191
  164MOL0     C22515   8.673  10.508   6.920  0.2490 -0.7266 -1.2493
  164MOL0     C22516   8.773  10.392   6.934 -0.4373  0.2426  0.3788
  164MOL0     C22517   8.902  10.458   7.001  0.1635  0.2931  0.5393
  164MOL0     O22518   8.980  10.520   6.895  0.2065 -0.6825 -0.5019
  164MOL0     C22519   9.094  10.580   6.946 -0.0691  0.4312  0.0925
  164MOL0     C22520   9.212  10.534   6.900 -0.2963  0.0075  0.0144
  164MOL0     C22521   9.339  10.580   6.940  0.3586  0.7170  0.3301
  164MOL0     C22522   9.455  10.517   6.881 -0.2795 -0.2755 -0.1492
  164MOL0     C22523   9.341  10.673   7.052 -0.1491  0.1370  0.3999
  164MOL0     C22524   9.462  10.717   7.128  0.2922  0.4738 -0.4361
  164MOL0     O22525   9.588  10.716   7.074 -0.5832  0.6701  0.2137
  164MOL0     C22526   9.689  10.768   7.152  0.9017  0.3097  0.2140
  164MOL0     C22527   9.695  10.906   7.164 -0.2863  1.4353  0.9376
  164MOL0     C22528   9.795  10.962   7.248  0.1298  0.6738  0.8217
  164MOL0     C22529   9.896  10.882   7.313  0.1688  0.7340  0.2240
  164MOL0     O22530   9.985  10.952   7.398  0.2771 -0.4057 -0.5564
  164MOL0     C22531   9.979  10.900   7.529  0.2053 -0.9996 -0.1857
  164MOL0     C22532  10.058  10.992   7.620  0.6664 -0.4458 -0.0929
  164MOL0     C22533  10.201  10.987   7.596 -0.1313  0.0392 -0.1457
  164MOL0     C22534  10.282  11.055   7.708 -0.6310 -0.8315  0.0620
  164MOL0     C22535  10.428  11.023   7.691  0.0445  0.1197  0.0568
  164MOL0     C22536  10.504  11.088   7.807 -0.6370  0.5751 -0.0653
  164MOL0     C22537  10.650  11.048   7.801 -0.0235 -0.2113  0.2781
  164MOL0     C22538  10.728  11.071   7.930 -0.9754  0.3631 -0.3624
  164MOL0    Cl22539  10.892  10.994   7.894  0.3793 -0.4343  0.2502
  164MOL0     C22540   9.875  10.744   7.300 -0.9246  0.5488 -0.2531
  164MOL0     C22541   9.775  10.691   7.221 -0.0393  0.6615  0.3903
  164MOL0     O22542   9.446  10.735   7.251  0.3029  0.0983 -0.0600
  164MOL0     C22543   9.216  10.721   7.100 -0.0814 -0.0379 -0.3348
  164MOL0     C22544   9.098  10.666   7.052 -0.3707 -0.8614 -0.1835
  164MOL0     N22545   8.379  10.432   7.076  0.4831 -0.7484 -0.6959
  164MOL0     N22546   8.319  10.342   7.140 -0.0492  0.1408 -0.0780
  164MOL0     C22547   7.391  10.124   7.146 -0.3697  0.6180 -0.3419
  164MOL0     C22548   7.259  10.168   7.139 -0.7930  0.3119 -0.3917
  164MOL0     C22549   6.819  10.259   7.248 -0.2784 -0.2919  0.8273
  164MOL0     C22550   6.719  10.250   7.344  0.6615  0.3651  0.0875
  164MOL0     C22551   6.594  10.308   7.323 -0.3026  0.2953 -0.2836
  164MOL0     C22552   6.575  10.394   7.219 -0.6993  0.1069 -0.1448
  164MOL0     O22553   6.447  10.442   7.201 -0.6156 -0.7719  0.7438
  164MOL0     C22554   6.431  10.528   7.092 -0.5193 -0.3374  0.8286
  164MOL0     C22555   6.288  10.576   7.103 -1.0191  0.9414 -0.5958
  164MOL0     C22556   6.185  10.454   7.114  0.3200 -0.2644  0.6178
  164MOL0     C22557   6.066  10.476   7.014 -0.6778 -0.4611  0.3782
  164MOL0     C22558   5.937  10.485   7.080 -0.0529 -0.6407 -0.5101
  164MOL0     C22559   5.831  10.498   7.121  0.0984  0.1513 -0.9830
  164MOL0     C22560   6.687  10.415   7.129  0.2823  0.6008 -0.2917
  164MOL0     C22561   6.798  10.337   7.131  0.4940  0.0453  0.0490
  164MOL0     C22562   6.904  10.358   7.025  0.2403 -0.7548 -0.6368
  164MOL0     H22563   7.090   9.902   7.276 -1.1003  1.0714 -1.6472
  164MOL0     H22564   7.326   9.839   7.332 -0.0489  0.2580 -0.1248
  164MOL0     H22565   7.546   9.806   7.352 -0.5663  1.7461 -2.2637
  164MOL0     H22566   7.503   9.937   7.468 -1.6549  2.5452 -2.3561
  164MOL0     H22567   7.734  10.040   7.425 -1.5815  0.7618  0.3107
  164MOL0     H22568   7.747   9.882   7.521 -0.5382 -1.3925 -0.8294
  164MOL0     H22569   7.799   9.791   7.299  1.1483 -0.1203  0.4468
  164MOL0     H22570   7.825   9.943   7.228 -2.2937  0.1708 -0.0372
  164MOL0     H22571   7.998   9.946   7.477  3.6806 -0.1536 -0.3274
  164MOL0     H22572   8.014   9.793   7.391 -2.7459 -1.4484  0.3747
  164MOL0     H22573   8.021  10.073   7.280  0.2405  0.3988  0.4923
  164MOL0     H22574   8.058   9.926   7.181 -1.8555 -1.2756  0.4483
  164MOL0     H22575   8.214   9.959   7.445  1.0597 -1.7324 -0.6479
  164MOL0     H22576   8.251   9.863   7.310  2.2933  0.8834 -0.6913
  164MOL0     H22577   8.395  10.049   7.299  0.2592 -0.3549 -1.9285
  164MOL0     H22578   8.271  10.164   7.332  2.1782  1.3769 -1.3833
  164MOL0     H22579   8.311  10.014   7.083  1.2996  1.1801 -0.7672
  164MOL0     H22580   8.178  10.145   7.114  0.7004  2.9766  1.2856
  164MOL0     H22581   8.497  10.154   6.934  3.0765  0.2258 -0.3522
  164MOL0     H22582   8.481  10.529   6.834  1.8589  2.3370  0.8686
  164MOL0     H22583   8.559  10.386   6.787  0.0656  1.7732 -1.3387
  164MOL0     H22584   8.715  10.586   6.855  0.5851 -0.5118 -0.7845
  164MOL0     H22585   8.667  10.559   7.016  1.6433  0.1615 -1.5923
  164MOL0     H22586   8.742  10.309   6.998 -0.1749 -0.5178 -0.4527
  164MOL0     H22587   8.799  10.350   6.837 -1.9459 -0.1760  0.1201
  164MOL0     H22588   8.881  10.529   7.081 -1.3059 -0.8384  1.2075
  164MOL0     H22589   8.959  10.370   7.034 -0.5541 -0.6870 -0.7167
  164MOL0     H22590   9.203  10.467   6.815 -0.5059  0.2908 -0.1895
  164MOL0     H22591   9.515  10.485   6.967 -0.4725  1.8131  0.8235
  164MOL0     H22592   9.512  10.595   6.830  0.8404  2.1565  4.2397
  164MOL0     H22593   9.417  10.430   6.827  0.4333 -0.9043  0.3324
  164MOL0     H22594   9.626  10.968   7.106  1.7512  1.9468 -1.0984
  164MOL0     H22595   9.795  11.071   7.253 -3.0163  0.9561 -1.8062
  164MOL0     H22596   9.878  10.889   7.568  0.4717 -0.1673  0.7817
  164MOL0     H22597  10.027  10.802   7.535  1.4932 -0.3151  2.0690
  164MOL0     H22598  10.029  11.096   7.603  2.6449 -0.0510 -1.3684
  164MOL0     H22599  10.030  10.964   7.722 -3.3324 -2.3914 -1.5203
  164MOL0     H22600  10.222  11.037   7.501  0.2168  1.9906  0.9032
  164MOL0     H22601  10.228  10.882   7.581 -0.6326  0.0081 -0.8736
  164MOL0     H22602  10.251  11.023   7.808  2.2162 -1.1036  0.9504
  164MOL0     H22603  10.271  11.164   7.702  0.0562 -0.6462  1.7242
  164MOL0     H22604  10.437  10.914   7.688 -0.5532 -0.0371  2.1285
  164MOL0     H22605  10.463  11.054   7.592 -1.0189  0.7699 -0.1336
  164MOL0     H22606  10.476  11.057   7.908  2.9964  0.0185  0.9142
  164MOL0     H22607  10.494  11.197   7.800 -0.4998  0.9461  3.6764
  164MOL0     H22608  10.696  11.106   7.720 -2.4605 -1.6460 -2.3465
  164MOL0     H22609  10.661  10.944   7.768  0.3863 -0.6492  1.7455
  164MOL0     H22610  10.686  11.016   8.015  0.6667  0.6890  0.7136
  164MOL0     H22611  10.735  11.178   7.953  2.6995  0.5052 -1.4653
  164MOL0     H22612   9.943  10.679   7.354 -1.0567  1.3709  0.9383
  164MOL0     H22613   9.761  10.584   7.224 -1.4641  0.8124 -0.0438
  164MOL0     H22614   9.214  10.795   7.180 -0.5547  0.0450 -0.4231
  164MOL0     H22615   9.003  10.696   7.095 -0.4014 -0.5024 -0.4913
  164MOL0     H22616   7.474  10.184   7.109 -0.2480  0.3950 -0.4358
  164MOL0     H22617   7.243  10.268   7.100  1.4311  1.2645  0.9871
  164MOL0     H22618   6.736  10.196   7.436  0.4794  1.4552  0.7711
  164MOL0     H22619   6.509  10.306   7.390 -0.2338 -0.9985 -0.2186
  164MOL0     H22620   6.492  10.619   7.099 -2.3905  0.9699  0.9155
  164MOL0     H22621   6.457  10.484   6.996  0.4712 -0.7070  1.2542
  164MOL0     H22622   6.272  10.638   7.014  0.8082  0.5360 -1.2426
  164MOL0     H22623   6.284  10.644   7.188  3.1787  2.4436 -1.3883
  164MOL0     H22624   6.230  10.362   7.075 -0.7095  0.3053 -2.1312
  164MOL0     H22625   6.143  10.451   7.214 -2.1772 -1.3520 -0.3764
  164MOL0     H22626   6.062  10.408   6.928 -4.5304  2.2580 -1.9578
  164MOL0     H22627   6.079  10.572   6.962 -0.9237 -1.3831 -1.4938
  164MOL0     H22628   5.731  10.501   7.159  0.7306 -3.4054  1.4345
  164MOL0     H22629   6.677  10.477   7.040 -0.8227  0.2549 -0.4306
  164MOL0     H22630   6.908  10.282   6.947  2.0880  0.7684 -2.1368
  164MOL0     H22631   6.885  10.450   6.968  1.8924  0.1714  0.2293
  164MOL0     H22632   7.003  10.373   7.070  0.8618 -0.9882 -1.8860
  165MOL0     O22633   2.799   3.673   1.631  0.5896  0.0009  0.3595
  165MOL0     C22634   2.793   3.641   1.750  0.1993  0.6760 -0.0799
  165MOL0     O22635   2.893   3.654   1.838  0.4963  0.4810 -0.6195
  165MOL0     C22636   3.012   3.661   1.773 -0.6516  0.9714  0.1682
  165MOL0     C22637   3.058   3.777   1.700 -0.9669 -0.8227  0.0918
  165MOL0     C22638   3.174   3.778   1.626  0.0225 -0.0871  0.7552
  165MOL0     C22639   3.256   3.663   1.625 -0.7281 -0.2739  0.4657
  165MOL0     O22640   3.381   3.677   1.553  0.2131  0.4290 -0.2235
  165MOL0     C22641   3.460   3.558   1.559 -0.0843 -0.8910 -0.0772
  165MOL0     C22642   3.611   3.596   1.522  0.4645 -0.3766 -0.5389
  165MOL0     C22643   3.685   3.693   1.622 -0.3073 -0.5147 -0.5566
  165MOL0     C22644   3.828   3.698   1.574 -0.8568  0.5883  0.3318
  165MOL0     C22645   3.926   3.771   1.661 -0.7017 -0.9202 -0.6172
  165MOL0     C22646   3.951   3.692   1.793  0.3306 -0.5933 -0.5250
  165MOL0     C22647   4.058   3.766   1.876  0.6039  0.5220 -0.2448
  165MOL0     C22648   4.052   3.759   2.025 -0.3545 -0.1834 -0.0312
  165MOL0     N22649   4.178   3.804   2.090  0.1591  0.0512 -0.5512
  165MOL0     C22650   4.282   3.721   2.143  0.5416 -0.2954 -0.5982
  165MOL0     C22651   4.375   3.817   2.165 -0.7659  0.5820 -0.1178
  165MOL0     C22652   4.503   3.786   2.232 -0.9874  0.3444 -0.6988
  165MOL0     C22653   4.503   3.807   2.389  0.6309  0.3111 -0.3674
  165MOL0     C22654   4.635   3.755   2.465  0.3762  0.7557  0.0016
  165MOL0     C22655   4.765   3.811   2.397 -0.8307 -1.0154 -0.5476
  165MOL0     O22656   4.880   3.807   2.490  0.7108  0.7424 -0.5421
  165MOL0     C22657   5.000   3.872   2.475  0.5345 -0.4507  0.4443
  165MOL0     C22658   5.033   3.947   2.365  0.0152 -0.7590  0.0756
  165MOL0     C22659   5.141   4.038   2.369  0.0459 -0.4793  0.2396
  165MOL0     C22660   5.150   4.135   2.248 -0.1354 -0.5102 -0.5584
  165MOL0     C22661   5.231   4.038   2.477 -0.2453  0.0725  0.2190
  165MOL0     C22662   5.347   4.130   2.493  0.2503  0.0153 -0.5310
  165MOL0     O22663   5.428   4.082   2.591 -0.0363  0.4027  0.0199
  165MOL0     C22664   5.544   4.152   2.632  0.2206  1.3868 -0.1225
  165MOL0     C22665   5.634   4.224   2.554 -0.0462 -0.4702  0.2839
  165MOL0     C22666   5.750   4.278   2.603  0.1198  0.7583  0.7868
  165MOL0     C22667   5.792   4.248   2.731 -0.2859 -0.1223 -0.0887
  165MOL0     O22668   5.921   4.272   2.760  0.4442  0.2341  0.0418
  165MOL0     C22669   5.942   4.353   2.871  0.6875  0.2894 -0.1102
  165MOL0     C22670   6.078   4.404   2.877  0.4773 -0.1765  0.4785
  165MOL0     C22671   6.193   4.299   2.871  0.1255 -0.5632  0.4460
  165MOL0     C22672   6.324   4.375   2.889 -0.6979  0.2077 -0.6507
  165MOL0     C22673   6.442   4.279   2.846  0.0762 -0.6454 -0.3177
  165MOL0     C22674   6.587   4.327   2.879  0.1977 -0.0304  0.3587
  165MOL0     C22675   6.683   4.220   2.824 -0.2921  0.7281  0.2677
  165MOL0     C22676   6.826   4.278   2.805 -0.2834  0.1165  0.7594
  165MOL0    Cl22677   6.867   4.366   2.958 -0.0424  0.0156 -0.4246
  165MOL0     C22678   5.712   4.170   2.819  0.9270  0.0346  0.8324
  165MOL0     C22679   5.590   4.122   2.759  0.1365  0.5151 -0.0003
  165MOL0     O22680   5.358   4.232   2.429 -0.2134  0.1927  0.3951
  165MOL0     C22681   5.198   3.951   2.580 -0.6509  0.0498 -0.0416
  165MOL0     C22682   5.083   3.876   2.588  0.3386  0.6833  0.1066
  165MOL0     N22683   4.331   3.946   2.141  0.0809  0.0241 -0.1420
  165MOL0     N22684   4.222   3.934   2.095 -0.0356  0.1922  0.1822
  165MOL0     C22685   3.206   3.549   1.701  0.1316 -0.6592 -0.2318
  165MOL0     C22686   3.092   3.552   1.780  0.2640 -0.3029 -0.3031
  165MOL0     C22687   2.656   3.595   1.797 -0.2295  0.5540 -0.1111
  165MOL0     C22688   2.651   3.541   1.927 -0.3075 -0.3571 -0.8602
  165MOL0     C22689   2.529   3.499   1.984 -0.3225 -0.7986 -0.2943
  165MOL0     C22690   2.411   3.513   1.922 -0.0386  0.1774 -0.6762
  165MOL0     O22691   2.286   3.483   1.969 -0.0281  0.1881  0.7075
  165MOL0     C22692   2.258   3.522   2.109  0.2142 -0.1221  0.4674
  165MOL0     C22693   2.274   3.411   2.211  0.2416 -0.3575 -0.8877
  165MOL0     C22694   2.167   3.308   2.192  0.1039  0.3983  0.6332
  165MOL0     C22695   2.178   3.194   2.304  0.5920  0.2106 -0.1455
  165MOL0     C22696   2.070   3.098   2.271  0.5051  0.0032 -0.4203
  165MOL0     C22697   1.981   3.024   2.236  0.4182 -0.4061 -0.3033
  165MOL0     C22698   2.409   3.572   1.793  0.0244  0.3358  0.2109
  165MOL0     C22699   2.535   3.614   1.729 -0.0230 -0.4816 -0.3762
  165MOL0     C22700   2.524   3.670   1.584 -0.1483 -0.0417 -0.1133
  165MOL0     H22701   2.989   3.861   1.708 -0.8843 -0.3923 -2.8170
  165MOL0     H22702   3.192   3.872   1.575 -2.1533 -0.0883 -0.1523
  165MOL0     H22703   3.434   3.496   1.472  1.3774  1.6726 -2.5226
  165MOL0     H22704   3.453   3.507   1.655 -1.6550  0.7804  0.7692
  165MOL0     H22705   3.665   3.501   1.514 -0.7939 -1.4907  2.7021
  165MOL0     H22706   3.604   3.642   1.423 -1.5060 -0.8962 -0.6808
  165MOL0     H22707   3.640   3.791   1.639 -0.1547 -0.4294 -0.6449
  165MOL0     H22708   3.673   3.638   1.716 -4.4580 -1.6390 -1.5284
  165MOL0     H22709   3.866   3.597   1.556 -2.6413  0.3202 -2.6531
  165MOL0     H22710   3.823   3.747   1.476 -1.0596 -0.8133 -0.3864
  165MOL0     H22711   3.887   3.870   1.689 -1.9194 -1.5365 -0.0436
  165MOL0     H22712   4.021   3.780   1.607 -0.8161 -0.5062 -0.7601
  165MOL0     H22713   3.857   3.685   1.849  1.0669  1.5048  1.1531
  165MOL0     H22714   3.991   3.598   1.755 -3.1358 -1.2754 -2.9778
  165MOL0     H22715   4.056   3.874   1.860  1.5550  0.3633 -1.6321
  165MOL0     H22716   4.158   3.732   1.847  0.5524 -3.4284  3.2329
  165MOL0     H22717   3.976   3.832   2.053  0.7658  0.7009  0.8176
  165MOL0     H22718   4.018   3.662   2.064  1.4441  0.1128  2.5015
  165MOL0     H22719   4.286   3.613   2.153  0.0939 -0.7209 -3.8711
  165MOL0     H22720   4.580   3.854   2.194  0.7695 -1.2112 -0.1116
  165MOL0     H22721   4.526   3.679   2.223 -1.2951  0.3150 -1.1748
  165MOL0     H22722   4.508   3.915   2.407  1.3085 -0.1571  2.9838
  165MOL0     H22723   4.409   3.769   2.430  1.8516 -0.8722  1.4782
  165MOL0     H22724   4.639   3.799   2.566 -0.3985  2.0181 -0.4987
  165MOL0     H22725   4.633   3.646   2.471 -1.5903  0.6811 -1.1115
  165MOL0     H22726   4.781   3.741   2.315 -1.8215 -2.9886  0.8338
  165MOL0     H22727   4.747   3.911   2.356  1.9752 -1.1993 -2.4324
  165MOL0     H22728   4.965   3.951   2.280 -1.0696 -0.9647  0.9134
  165MOL0     H22729   5.065   4.121   2.182 -0.0878  0.6857 -0.8787
  165MOL0     H22730   5.232   4.108   2.180 -1.2872 -2.3924 -1.2706
  165MOL0     H22731   5.162   4.241   2.270 -0.0241 -0.1658 -2.1567
  165MOL0     H22732   5.613   4.241   2.449 -3.5214 -0.6830  0.8251
  165MOL0     H22733   5.809   4.333   2.529 -0.7424 -0.7384 -1.0952
  165MOL0     H22734   5.872   4.438   2.872 -2.2376 -1.9628  0.6007
  165MOL0     H22735   5.922   4.282   2.952  0.1064 -2.0755 -2.1920
  165MOL0     H22736   6.098   4.482   2.803  2.1491 -0.1936  0.8683
  165MOL0     H22737   6.087   4.451   2.976 -1.5539 -1.5555  1.3867
  165MOL0     H22738   6.189   4.266   2.767 -0.1660  0.1030  0.2361
  165MOL0     H22739   6.177   4.231   2.955 -0.2857 -1.4702 -0.3596
  165MOL0     H22740   6.327   4.409   2.993 -2.2400  1.1779 -0.8911
  165MOL0     H22741   6.323   4.467   2.830 -1.6363 -0.6115 -1.9579
  165MOL0     H22742   6.431   4.188   2.905  0.4246  1.3407  3.0370
  165MOL0     H22743   6.435   4.254   2.740 -0.7156 -2.5680  0.1471
  165MOL0     H22744   6.586   4.353   2.985  1.4974  1.2005  0.0975
  165MOL0     H22745   6.605   4.419   2.822 -2.7006 -0.3525 -1.2847
  165MOL0     H22746   6.653   4.191   2.723  0.1401 -3.2244  1.1232
  165MOL0     H22747   6.689   4.131   2.887  0.1950 -0.4626 -1.4001
  165MOL0     H22748   6.814   4.353   2.726 -1.0095 -0.2804  0.4915
  165MOL0     H22749   6.898   4.200   2.776  0.5018  0.8990  0.5596
  165MOL0     H22750   5.752   4.147   2.917 -0.1697 -0.3045  1.2163
  165MOL0     H22751   5.525   4.053   2.812 -0.6766  0.8210 -0.5763
  165MOL0     H22752   5.257   3.953   2.671  1.7352 -0.4844 -1.4619
  165MOL0     H22753   5.068   3.808   2.672 -2.1701 -2.0974 -2.3653
  165MOL0     H22754   3.258   3.457   1.724 -0.1410 -0.8763 -0.4854
  165MOL0     H22755   3.069   3.471   1.848  0.8456 -0.1839  0.0489
  165MOL0     H22756   2.739   3.529   1.989 -1.6123 -2.0048  0.8240
  165MOL0     H22757   2.518   3.468   2.087 -1.0704  0.1062 -0.0870
  165MOL0     H22758   2.334   3.594   2.141  1.4732 -2.4091  3.0447
  165MOL0     H22759   2.162   3.574   2.110  1.3703  2.1732 -0.4445
  165MOL0     H22760   2.257   3.466   2.304  2.2152 -0.6801 -0.2905
  165MOL0     H22761   2.367   3.354   2.217 -0.3082 -1.0965  1.1120
  165MOL0     H22762   2.065   3.344   2.210 -0.7399 -1.3192 -0.4680
  165MOL0     H22763   2.167   3.271   2.089  0.1690 -1.4747  1.2674
  165MOL0     H22764   2.162   3.237   2.404  0.9261 -1.0606  0.4720
  165MOL0     H22765   2.275   3.146   2.287  1.0081  1.2136 -0.6421
  165MOL0     H22766   1.906   2.956   2.201 -0.7859  1.3722 -1.3228
  165MOL0     H22767   2.315   3.591   1.743  0.6134  1.3002 -0.5720
  165MOL0     H22768   2.578   3.605   1.515 -0.1590  0.8973 -1.0273
  165MOL0     H22769   2.421   3.682   1.551  0.2422  1.8015 -0.8222
  165MOL0     H22770   2.569   3.770   1.583  0.1435 -0.1260  1.3788
  166MOL0     O22771   2.716  11.136   2.590 -0.0862 -0.6633  0.2802
  166MOL0     C22772   2.782  11.077   2.509 -0.3313  0.0252 -0.0559
  166MOL0     O22773   2.915  11.098   2.484 -0.0345 -0.2066  0.1194
  166MOL0     C22774   2.983  11.200   2.544 -0.2803 -0.5495 -0.1319
  166MOL0     C22775   2.924  11.323   2.576  0.6328  0.1137 -0.8862
  166MOL0     C22776   2.992  11.430   2.638 -0.1650 -0.5161  1.3863
  166MOL0     C22777   3.113  11.404   2.696  0.1544  0.2207 -0.0789
  166MOL0     O22778   3.162  11.511   2.773 -0.0943  0.6467 -0.4199
  166MOL0     C22779   3.305  11.515   2.789  0.2486 -0.6607 -0.3232
  166MOL0     C22780   3.341  11.655   2.823  0.3714  0.6618 -0.0255
  166MOL0     C22781   3.348  11.742   2.699 -0.3763  0.6506  0.1498
  166MOL0     C22782   3.421  11.878   2.727  0.1236 -0.4706  0.5909
  166MOL0     C22783   3.431  11.948   2.596  0.1385  0.1658 -0.1254
  166MOL0     C22784   3.530  12.070   2.596 -0.2653  1.0117 -0.2063
  166MOL0     C22785   3.494  12.180   2.699  0.1684 -0.2651  0.5229
  166MOL0     C22786   3.573  12.307   2.665 -0.4158 -0.1757  0.2017
  166MOL0     N22787   3.710  12.287   2.709  0.7990 -1.2354  0.3780
  166MOL0     C22788   3.822  12.269   2.625  0.6585 -0.4850  0.0418
  166MOL0     C22789   3.927  12.266   2.712 -0.0095  0.5019 -0.2720
  166MOL0     C22790   4.073  12.266   2.689  0.5734  0.1357  0.2888
  166MOL0     C22791   4.140  12.401   2.707  0.2602 -0.2464  0.5155
  166MOL0     C22792   4.092  12.487   2.580 -0.3159 -0.2234  0.4557
  166MOL0     C22793   4.164  12.622   2.567  0.9435 -0.0656 -1.0073
  166MOL0     O22794   4.294  12.603   2.525  0.3490  0.9621  0.1512
  166MOL0     C22795   4.371  12.711   2.541  1.1719  0.9816  0.2225
  166MOL0     C22796   4.412  12.755   2.417 -0.6696 -0.6681 -0.0809
  166MOL0     C22797   4.464  12.885   2.408  0.6956 -0.6248 -0.1255
  166MOL0     C22798   4.499  12.954   2.274 -0.0945 -0.2540 -0.6021
  166MOL0     C22799   4.492  12.952   2.535  0.1928  0.0905 -1.2813
  166MOL0     C22800   4.550  13.086   2.540 -0.3700 -1.3467  0.8005
  166MOL0     O22801   4.639  13.112   2.643  0.1349  0.1894  0.0724
  166MOL0     C22802   4.705  13.230   2.659 -0.2299  0.2695  0.6594
  166MOL0     C22803   4.776  13.293   2.554  0.2422  0.2235  0.7035
  166MOL0     C22804   4.827  13.424   2.570 -0.6390  1.4830  0.1721
  166MOL0     C22805   4.821  13.486   2.692 -0.3308  0.1048 -0.1234
  166MOL0     O22806   4.873  13.608   2.697  0.3519 -0.5457  0.5128
  166MOL0     C22807   4.968  13.630   2.803  0.1378 -0.2947 -0.4564
  166MOL0     C22808   5.017  13.781   2.789 -0.7413 -0.0542  0.1353
  166MOL0     C22809   5.095  13.837   2.919 -0.2410 -0.2816  0.7946
  166MOL0     C22810   5.095  13.985   2.906 -1.0048 -0.5026  0.8865
  166MOL0     C22811   5.204  14.044   3.009 -0.8052 -1.1535 -0.2363
  166MOL0     C22812   5.346  14.052   2.946  0.0586 -0.3698 -0.7128
  166MOL0     C22813   5.446  14.096   3.048 -1.0956  0.3177 -0.8630
  166MOL0     C22814   5.589  14.081   3.000  0.2709 -0.0513 -0.5713
  166MOL0    Cl22815   5.645  14.130   2.837 -0.0380  0.1223 -0.1234
  166MOL0     C22816   4.763  13.415   2.803  0.4742  1.2520  0.4115
  166MOL0     C22817   4.696  13.296   2.782 -0.3027  0.1346  0.2162
  166MOL0     O22818   4.502  13.169   2.458  0.4884 -0.0333 -0.3191
  166MOL0     C22819   4.460  12.887   2.661 -0.6554 -0.2660 -0.4170
  166MOL0     C22820   4.386  12.778   2.660  0.4560  0.0233 -0.2115
  166MOL0     N22821   3.880  12.260   2.839  0.1129  0.5681  0.5561
  166MOL0     N22822   3.747  12.278   2.837 -0.1106  0.6279  0.2402
  166MOL0     C22823   3.178  11.284   2.663 -1.0494  0.1210 -0.3079
  166MOL0     C22824   3.117  11.188   2.579  0.0300  0.2332 -0.2290
  166MOL0     C22825   2.723  10.961   2.436  0.4490 -0.3179 -0.6536
  166MOL0     C22826   2.796  10.908   2.331  0.6454  0.3057  0.2694
  166MOL0     C22827   2.745  10.802   2.253 -0.5572 -0.6792 -0.0089
  166MOL0     C22828   2.610  10.766   2.259  0.3885 -0.6683 -0.3147
  166MOL0     O22829   2.553  10.676   2.175  0.1247 -0.2186  0.6189
  166MOL0     C22830   2.641  10.590   2.099  0.1318  0.7013  0.3122
  166MOL0     C22831   2.580  10.446   2.066 -0.2989 -0.2928 -0.5715
  166MOL0     C22832   2.542  10.381   2.195 -0.1789 -0.8492  0.4623
  166MOL0     C22833   2.508  10.232   2.195  0.9271 -0.4455 -0.7749
  166MOL0     C22834   2.508  10.185   2.332 -0.1702 -0.5382 -0.0106
  166MOL0     C22835   2.498  10.149   2.451 -0.0660 -0.4068  1.2208
  166MOL0     C22836   2.536  10.824   2.362  0.2839 -0.3445 -1.1336
  166MOL0     C22837   2.589  10.912   2.462 -0.3521 -0.4305  0.4806
  166MOL0     C22838   2.488  10.944   2.576 -0.6227 -0.3492 -0.3165
  166MOL0     H22839   2.822  11.344   2.548  0.8546  0.7932 -1.2169
  166MOL0     H22840   2.952  11.530   2.649  2.6680  0.9530 -0.2305
  166MOL0     H22841   3.363  11.500   2.698  1.8159  2.1464  0.0998
  166MOL0     H22842   3.342  11.445   2.865 -0.3109 -2.1354 -1.3583
  166MOL0     H22843   3.260  11.686   2.890 -1.7442 -1.8259 -1.2362
  166MOL0     H22844   3.431  11.649   2.884 -1.0685 -1.0447  2.0957
  166MOL0     H22845   3.404  11.691   2.620 -0.8907 -0.5629  0.5520
  166MOL0     H22846   3.249  11.769   2.662 -0.1936  0.2313 -0.6846
  166MOL0     H22847   3.370  11.937   2.803 -1.1597 -1.5082  0.5757
  166MOL0     H22848   3.519  11.844   2.762  0.3397  0.1357  0.5734
  166MOL0     H22849   3.332  11.970   2.555 -0.2691 -0.5691  0.4321
  166MOL0     H22850   3.482  11.880   2.527 -0.5357  0.2108 -0.6764
  166MOL0     H22851   3.634  12.037   2.610 -1.1232 -1.8823  0.1645
  166MOL0     H22852   3.538  12.124   2.502 -0.4348 -0.9688 -1.4140
  166MOL0     H22853   3.512  12.143   2.800 -1.3477  0.1046  0.9595
  166MOL0     H22854   3.388  12.205   2.688  0.5947  1.6365  0.2462
  166MOL0     H22855   3.568  12.330   2.558  0.9015  0.7608  0.3164
  166MOL0     H22856   3.540  12.395   2.721  0.5585 -0.6438  1.5607
  166MOL0     H22857   3.826  12.275   2.517 -1.8852 -0.6802 -0.1325
  166MOL0     H22858   4.099  12.216   2.595 -3.8313  2.5010 -2.5647
  166MOL0     H22859   4.119  12.195   2.759  0.4484 -0.0619  0.1749
  166MOL0     H22860   4.115  12.454   2.799 -0.7132  1.3682 -0.6230
  166MOL0     H22861   4.246  12.377   2.708  0.1916 -0.6411 -0.4839
  166MOL0     H22862   4.115  12.431   2.489 -1.5450 -1.4300  0.8502
  166MOL0     H22863   3.984  12.507   2.584 -0.4807  0.6880 -4.0458
  166MOL0     H22864   4.107  12.683   2.496 -0.9371 -0.6881 -0.1205
  166MOL0     H22865   4.151  12.669   2.665 -0.5694 -0.5017 -0.9641
  166MOL0     H22866   4.406  12.688   2.333 -0.8980 -0.8680  0.0946
  166MOL0     H22867   4.601  12.993   2.270 -0.0329 -0.4613 -1.1974
  166MOL0     H22868   4.420  13.022   2.241 -0.3990  2.0010  4.0222
  166MOL0     H22869   4.512  12.878   2.196  2.5235  2.4037 -3.0201
  166MOL0     H22870   4.774  13.253   2.453 -2.0639 -2.9678  1.8320
  166MOL0     H22871   4.857  13.469   2.476  0.7528 -2.5828 -1.5518
  166MOL0     H22872   4.922  13.619   2.902  1.0471  2.3323  0.3528
  166MOL0     H22873   5.052  13.560   2.793  1.4889  0.9718  1.4114
  166MOL0     H22874   5.090  13.777   2.708  1.2903 -0.8961  1.9087
  166MOL0     H22875   4.932  13.847   2.771 -1.3896 -1.4213 -2.2686
  166MOL0     H22876   5.199  13.806   2.908 -0.2300  0.1770 -0.6472
  166MOL0     H22877   5.055  13.800   3.013 -1.0509 -1.5970 -0.0314
  166MOL0     H22878   4.996  14.018   2.941 -0.6638 -0.9168  2.3219
  166MOL0     H22879   5.121  14.017   2.805  0.7774 -3.0688  0.4317
  166MOL0     H22880   5.183  14.144   3.048  0.3178 -1.6742  1.8371
  166MOL0     H22881   5.203  13.978   3.096  0.5146 -0.6863  0.1468
  166MOL0     H22882   5.349  14.123   2.862  4.4021  0.3469 -0.1911
  166MOL0     H22883   5.376  13.954   2.909  3.5984 -0.8784  2.8106
  166MOL0     H22884   5.438  14.046   3.145 -0.5561  3.4811  0.9582
  166MOL0     H22885   5.431  14.202   3.071  1.5301  0.4738  0.5488
  166MOL0     H22886   5.628  13.980   3.019  1.9454  0.5654 -0.5784
  166MOL0     H22887   5.650  14.143   3.066 -0.2601 -1.6084  1.4803
  166MOL0     H22888   4.748  13.466   2.898  0.4976  1.2909  0.3943
  166MOL0     H22889   4.619  13.263   2.850 -1.7968  0.7514 -1.1017
  166MOL0     H22890   4.480  12.934   2.756  2.2174 -1.1183 -0.5049
  166MOL0     H22891   4.358  12.734   2.756 -0.4494 -2.8622 -1.6737
  166MOL0     H22892   3.276  11.257   2.701 -0.8634  0.2694 -0.6703
  166MOL0     H22893   3.181  11.104   2.555 -1.3650 -0.6348 -1.1200
  166MOL0     H22894   2.899  10.934   2.307  1.0241 -1.8557 -0.6241
  166MOL0     H22895   2.815  10.768   2.178  1.1806  1.0882  0.7308
  166MOL0     H22896   2.673  10.640   2.007  0.7417 -4.6634 -2.8732
  166MOL0     H22897   2.731  10.564   2.154 -0.8173 -0.2114  1.4826
  166MOL0     H22898   2.649  10.380   2.014 -1.3754 -0.6068 -1.6427
  166MOL0     H22899   2.491  10.460   2.004 -0.9454  1.7875  0.6946
  166MOL0     H22900   2.615  10.407   2.272 -0.4320 -1.4376  0.9065
  166MOL0     H22901   2.456  10.441   2.228 -0.8308 -0.9951 -0.9142
  166MOL0     H22902   2.565  10.169   2.127 -0.3889 -1.8580 -0.6154
  166MOL0     H22903   2.404  10.236   2.161  1.1517  0.8213 -1.3897
  166MOL0     H22904   2.492  10.106   2.549  0.2126  1.8939  2.3220
  166MOL0     H22905   2.431  10.797   2.356  0.4150 -1.1394 -0.0830
  166MOL0     H22906   2.461  11.049   2.561  1.9158  0.4992  0.5403
  166MOL0     H22907   2.398  10.882   2.574 -0.4955 -0.8661  3.2270
  166MOL0     H22908   2.542  10.935   2.671  2.5339  0.3454 -1.9113
  167MOL0     O22909   9.372   8.719  10.833  0.1692  0.1271 -0.5896
  167MOL0     C22910   9.343   8.605  10.801  0.2483  0.0785 -0.0199
  167MOL0     O22911   9.432   8.516  10.768  0.4143 -0.0688  0.9874
  167MOL0     C22912   9.566   8.524  10.802 -0.2288  0.5740  0.1641
  167MOL0     C22913   9.666   8.535  10.702 -0.3614  0.1395  0.4138
  167MOL0     C22914   9.800   8.537  10.730 -0.3416 -0.0484 -0.4978
  167MOL0     C22915   9.847   8.528  10.864  0.8165  0.1475  0.3962
  167MOL0     O22916   9.981   8.525  10.879  0.1436  0.7263  0.4150
  167MOL0     C22917  10.031   8.519  11.014 -0.5558 -0.0287  0.8233
  167MOL0     C22918  10.171   8.461  11.002 -0.0206 -0.3856 -0.1538
  167MOL0     C22919  10.271   8.545  10.927 -1.0186 -0.5939  0.2605
  167MOL0     C22920  10.324   8.663  11.017 -0.1479  0.4859  0.6849
  167MOL0     C22921  10.428   8.756  10.952  0.0957 -0.9288 -0.4795
  167MOL0     C22922  10.565   8.703  10.995 -0.1201  0.1089 -0.3721
  167MOL0     C22923  10.696   8.774  10.949  0.0278 -0.0909  0.9440
  167MOL0     C22924  10.700   8.766  10.798  0.2993  0.9197 -0.0711
  167MOL0     N22925  10.838   8.778  10.743  0.0713  0.6831 -0.2223
  167MOL0     C22926  10.907   8.891  10.740 -0.6051  0.5260  0.0958
  167MOL0     C22927  11.015   8.861  10.669  0.1531 -0.7151  0.2428
  167MOL0     C22928  11.122   8.962  10.646  0.9215 -0.1737  0.9127
  167MOL0     C22929  11.245   8.947  10.735 -0.1680 -0.0348 -0.1072
  167MOL0     C22930  11.314   9.080  10.779 -0.1489  0.4168 -0.1645
  167MOL0     C22931  11.461   9.062  10.847 -0.4884 -0.1404  0.5609
  167MOL0     O22932  11.537   8.973  10.767 -0.6542  0.4625  0.0570
  167MOL0     C22933  11.673   8.945  10.796 -0.0102 -0.3977 -0.1182
  167MOL0     C22934  11.748   9.021  10.884  0.0972  0.6453 -0.3951
  167MOL0     C22935  11.877   8.988  10.917  1.1567  0.2433 -0.7556
  167MOL0     C22936  11.941   9.079  11.019  0.1613  0.3420  0.3330
  167MOL0     C22937  11.938   8.873  10.853 -1.1019 -1.1187  0.0854
  167MOL0     C22938  12.078   8.828  10.871 -0.2547 -0.4599  0.1528
  167MOL0     O22939  12.119   8.710  10.826 -0.2573  0.6041  0.1128
  167MOL0     C22940  12.249   8.664  10.832  0.0116  0.1052 -0.0426
  167MOL0     C22941  12.310   8.594  10.728  0.2032 -0.2400  0.6198
  167MOL0     C22942  12.441   8.544  10.744 -0.1323  0.4152 -0.6197
  167MOL0     C22943  12.502   8.548  10.870  0.3828  0.2192  0.0612
  167MOL0     O22944  12.625   8.495  10.895  0.4414 -0.1641 -0.2799
  167MOL0     C22945  12.681   8.417  10.791 -0.9988  1.0184 -0.1756
  167MOL0     C22946  12.812   8.350  10.844  0.1903 -0.8542  0.3802
  167MOL0     C22947  12.886   8.288  10.726  0.6165 -0.3516 -0.2811
  167MOL0     C22948  13.021   8.250  10.777  0.0117  0.5090 -0.0846
  167MOL0     C22949  13.097   8.171  10.665 -0.8552 -0.4605 -0.3856
  167MOL0     C22950  13.203   8.081  10.724  0.1261  0.0655 -0.3147
  167MOL0     C22951  13.286   8.018  10.606  0.4677 -0.5955 -0.3558
  167MOL0     C22952  13.399   7.928  10.659  1.1103 -0.0420  1.0573
  167MOL0    Cl22953  13.506   8.027  10.755  0.0752  0.2986 -0.4769
  167MOL0     C22954  12.439   8.616  10.971 -0.2848  0.6200 -0.5426
  167MOL0     C22955  12.315   8.673  10.948 -0.0323  0.3185  0.8165
  167MOL0     O22956  12.156   8.913  10.902  0.1502  0.1712  0.1069
  167MOL0     C22957  11.862   8.798  10.763  0.5106 -0.0536  0.3918
  167MOL0     C22958  11.734   8.840  10.723  0.3257  0.7941  0.0512
  167MOL0     N22959  11.021   8.730  10.642 -0.3370  0.3886  0.0679
  167MOL0     N22960  10.910   8.678  10.688  0.4854  0.4314  0.3387
  167MOL0     C22961   9.751   8.512  10.964 -0.3340 -0.1517  0.4066
  167MOL0     C22962   9.608   8.502  10.935  0.0244 -0.1206  0.9540
  167MOL0     C22963   9.195   8.571  10.781  0.2232 -0.0899  0.2562
  167MOL0     C22964   9.164   8.467  10.686 -0.0991  0.2741  0.4064
  167MOL0     C22965   9.030   8.437  10.665  0.2601  0.0476  0.3309
  167MOL0     C22966   8.930   8.487  10.739  0.3482  0.0172 -0.2803
  167MOL0     O22967   8.797   8.477  10.736  0.6026  0.0181 -0.3157
  167MOL0     C22968   8.736   8.373  10.666  0.3460  0.7981  0.3817
  167MOL0     C22969   8.582   8.402  10.680  0.1042  0.1547  0.4453
  167MOL0     C22970   8.560   8.540  10.604 -0.3762  0.1927  0.3324
  167MOL0     C22971   8.420   8.593  10.576  0.1504 -0.4090  0.6094
  167MOL0     C22972   8.426   8.719  10.516  0.6792 -0.6035 -0.8683
  167MOL0     C22973   8.432   8.832  10.462  0.8442  0.2908  0.6358
  167MOL0     C22974   8.962   8.581  10.834  0.3806  0.7350  0.3971
  167MOL0     C22975   9.089   8.629  10.854 -0.8186  0.6219  0.2265
  167MOL0     C22976   9.109   8.721  10.969  0.7398  0.4101 -0.6086
  167MOL0     H22977   9.647   8.534  10.595  0.6955  1.5298  0.1713
  167MOL0     H22978   9.867   8.542  10.645 -0.4760 -0.3247 -0.6223
  167MOL0     H22979   9.973   8.444  11.069  0.9304 -4.3469 -2.8404
  167MOL0     H22980  10.029   8.617  11.063  1.5811  0.2542  0.4292
  167MOL0     H22981  10.206   8.442  11.104  2.2500 -2.6835 -1.2129
  167MOL0     H22982  10.159   8.360  10.961 -0.3478  0.5930 -2.6855
  167MOL0     H22983  10.353   8.481  10.893 -0.2367  0.5643 -0.1074
  167MOL0     H22984  10.218   8.595  10.845 -1.6661  1.8115  2.0370
  167MOL0     H22985  10.235   8.718  11.047 -1.9326 -1.5007 -0.6674
  167MOL0     H22986  10.367   8.613  11.105  1.5199 -1.2448 -1.0058
  167MOL0     H22987  10.412   8.856  10.993  0.1563 -1.2672  0.3695
  167MOL0     H22988  10.405   8.774  10.846  1.1054 -0.8692 -0.6973
  167MOL0     H22989  10.576   8.693  11.104 -2.3186  0.9445 -0.0168
  167MOL0     H22990  10.561   8.598  10.963 -1.0312 -0.6829  2.0467
  167MOL0     H22991  10.772   8.704  10.984  1.4844  0.4131 -1.0056
  167MOL0     H22992  10.716   8.872  10.995  0.7674 -1.4578  3.7537
  167MOL0     H22993  10.641   8.678  10.768 -2.0334  1.2306  3.0585
  167MOL0     H22994  10.642   8.853  10.764 -1.5777  0.9269  2.7724
  167MOL0     H22995  10.868   8.984  10.780  1.4058  1.1440  0.7378
  167MOL0     H22996  11.071   9.059  10.649 -3.1282 -1.9839 -1.0182
  167MOL0     H22997  11.156   8.955  10.543  3.5897  0.6680  1.6670
  167MOL0     H22998  11.215   8.886  10.820  1.5350  0.7072  1.0717
  167MOL0     H22999  11.325   8.905  10.673  2.6008  2.0977  1.7481
  167MOL0     H23000  11.333   9.140  10.689  0.2997  1.5478  0.6645
  167MOL0     H23001  11.257   9.148  10.842  2.5181  3.5463 -0.8639
  167MOL0     H23002  11.505   9.162  10.850 -0.5116 -0.1521  1.7770
  167MOL0     H23003  11.441   9.024  10.948  0.7257  0.6545  1.1276
  167MOL0     H23004  11.699   9.101  10.939  0.2361  2.5972 -2.9334
  167MOL0     H23005  11.999   9.029  11.096  0.8842  1.2867  0.4139
  167MOL0     H23006  11.859   9.126  11.074 -0.5412 -2.3791  1.8278
  167MOL0     H23007  12.004   9.145  10.960  1.3485 -0.3111  0.8373
  167MOL0     H23008  12.248   8.579  10.640 -3.3183  1.0131  2.6559
  167MOL0     H23009  12.488   8.502  10.656 -2.1045 -2.4327 -0.4508
  167MOL0     H23010  12.609   8.337  10.772 -0.8270  1.4635 -3.2544
  167MOL0     H23011  12.700   8.462  10.693  2.7380 -0.0706 -0.1491
  167MOL0     H23012  12.870   8.436  10.878 -0.5217  0.3528 -1.3547
  167MOL0     H23013  12.791   8.287  10.931 -0.5868 -1.7204 -0.4123
  167MOL0     H23014  12.902   8.373  10.659  1.1365 -0.2265 -0.0001
  167MOL0     H23015  12.825   8.213  10.676 -1.2450  0.0271  1.2745
  167MOL0     H23016  12.996   8.181  10.858 -0.0457  0.3484 -0.2382
  167MOL0     H23017  13.083   8.332  10.813  0.8707 -0.4102  0.5751
  167MOL0     H23018  13.033   8.104  10.609  1.6360 -3.8757  0.5422
  167MOL0     H23019  13.133   8.250  10.597  0.1110  0.0633  0.6956
  167MOL0     H23020  13.156   8.004  10.787 -1.4651  2.0151  0.9900
  167MOL0     H23021  13.270   8.130  10.795 -1.7555 -2.2320  3.4158
  167MOL0     H23022  13.325   8.089  10.533  0.5619  0.2416  0.4835
  167MOL0     H23023  13.221   7.952  10.549 -0.3719  2.4751 -3.2707
  167MOL0     H23024  13.446   7.888  10.569 -0.0607  0.4661  0.1810
  167MOL0     H23025  13.369   7.841  10.718  1.3873 -0.5407  0.4673
  167MOL0     H23026  12.480   8.610  11.072 -0.0023  0.2617 -0.6777
  167MOL0     H23027  12.266   8.728  11.027  1.0162  0.1770  1.5936
  167MOL0     H23028  11.912   8.710  10.723 -0.7114 -0.6737  0.1519
  167MOL0     H23029  11.672   8.789  10.651 -2.2140  3.2697  0.2741
  167MOL0     H23030   9.765   8.494  11.070  0.0108  0.2365  0.4298
  167MOL0     H23031   9.533   8.474  11.008 -1.4239  0.0946 -0.3921
  167MOL0     H23032   9.243   8.417  10.631 -1.6322 -1.9544  0.0963
  167MOL0     H23033   9.022   8.378  10.574  0.2005  1.2872 -0.4801
  167MOL0     H23034   8.765   8.385  10.561  1.0482  0.0712  0.4802
  167MOL0     H23035   8.770   8.276  10.703  0.6682 -0.6017 -3.1970
  167MOL0     H23036   8.555   8.412  10.785 -1.6110 -0.5436  0.0999
  167MOL0     H23037   8.524   8.318  10.642 -0.9543  0.8768  0.4266
  167MOL0     H23038   8.617   8.619  10.653  0.9747 -0.3942 -0.2160
  167MOL0     H23039   8.584   8.548  10.497 -3.9635  1.7399 -0.4872
  167MOL0     H23040   8.361   8.599  10.668 -2.2635 -0.0014 -0.9050
  167MOL0     H23041   8.373   8.521  10.508 -2.4568  0.7060  1.1159
  167MOL0     H23042   8.419   8.925  10.410 -2.5828 -0.6361 -0.4629
  167MOL0     H23043   8.882   8.618  10.897 -0.1867  1.5046 -0.7355
  167MOL0     H23044   9.154   8.816  10.936  0.2414  1.6733  2.0973
  167MOL0     H23045   9.019   8.745  11.026  0.8426 -0.6928  0.0299
  167MOL0     H23046   9.183   8.688  11.043 -1.9526 -1.0482  1.5863
  168MOL0     O23047   1.414   8.246   9.843 -0.4527  0.0504  0.9070
  168MOL0     C23048   1.340   8.146   9.831 -0.3766 -0.9028 -0.3509
  168MOL0     O23049   1.359   8.039   9.751  0.0192  0.1670  0.2068
  168MOL0     C23050   1.478   8.023   9.684  0.9868  0.7819 -0.4918
  168MOL0     C23051   1.604   8.038   9.749 -0.3133 -0.9252  0.5531
  168MOL0     C23052   1.727   8.050   9.679  0.8556 -0.1972 -1.0477
  168MOL0     C23053   1.728   8.027   9.544  0.2460  0.4695 -0.2379
  168MOL0     O23054   1.837   8.007   9.459 -0.0008  0.0341 -0.3403
  168MOL0     C23055   1.963   8.018   9.520 -0.7551  0.2965 -0.4574
  168MOL0     C23056   2.025   7.885   9.568 -0.1349  0.0218 -0.0324
  168MOL0     C23057   2.163   7.913   9.628  0.3916 -0.7441 -0.3062
  168MOL0     C23058   2.218   7.790   9.693 -0.7262  0.3143 -0.0487
  168MOL0     C23059   2.370   7.793   9.728  0.0172 -0.5071 -0.9454
  168MOL0     C23060   2.412   7.668   9.801  0.1607 -0.5371  0.2798
  168MOL0     C23061   2.557   7.634   9.782  0.5069 -0.4944 -0.1942
  168MOL0     C23062   2.596   7.500   9.847 -0.4121  0.2592  0.1783
  168MOL0     N23063   2.744   7.482   9.840  0.0252  0.1670 -0.3352
  168MOL0     C23064   2.817   7.453   9.728 -0.3953 -0.6941  0.8671
  168MOL0     C23065   2.943   7.442   9.767  0.7477  0.2144  0.3063
  168MOL0     C23066   3.070   7.416   9.689 -0.1625  0.6723 -0.0414
  168MOL0     C23067   3.060   7.305   9.575 -0.3146 -0.6776 -0.0155
  168MOL0     C23068   3.194   7.243   9.543  0.4553  0.7303  1.0667
  168MOL0     C23069   3.310   7.332   9.528 -0.7825 -0.5351 -1.0957
  168MOL0     O23070   3.285   7.437   9.434  0.3434  0.6461  0.3464
  168MOL0     C23071   3.369   7.540   9.400  0.4220  0.9583  0.7958
  168MOL0     C23072   3.333   7.626   9.300  0.5267 -0.1985  0.6909
  168MOL0     C23073   3.420   7.726   9.255  0.3908 -0.3056  0.4106
  168MOL0     C23074   3.367   7.822   9.148 -0.3276  0.8234  0.2598
  168MOL0     C23075   3.550   7.735   9.317  0.4219 -1.1976 -0.3618
  168MOL0     C23076   3.657   7.830   9.265 -0.6126  0.8456  0.0939
  168MOL0     O23077   3.771   7.861   9.334  0.1656  0.5628  1.0752
  168MOL0     C23078   3.769   7.896   9.468  1.5966 -0.2760  0.3010
  168MOL0     C23079   3.888   7.879   9.545  1.1928 -0.7388  0.4299
  168MOL0     C23080   3.879   7.886   9.680 -0.3153 -0.2609 -0.4443
  168MOL0     C23081   3.771   7.943   9.752  0.4089 -0.7465  0.1613
  168MOL0     O23082   3.791   7.972   9.878 -0.0728  0.2537  1.0772
  168MOL0     C23083   3.683   7.990   9.971  0.1420  0.8474 -0.8132
  168MOL0     C23084   3.739   7.947  10.102 -0.0171  0.9772 -0.8647
  168MOL0     C23085   3.779   7.794  10.095  0.1075 -0.1311 -0.5246
  168MOL0     C23086   3.823   7.745  10.229 -0.7425 -0.2279 -0.0508
  168MOL0     C23087   3.710   7.732  10.335 -0.3085  0.6880  0.8092
  168MOL0     C23088   3.773   7.687  10.462  0.3952 -0.5543 -0.5515
  168MOL0     C23089   3.849   7.804  10.534  0.3922 -0.1269  0.2355
  168MOL0     C23090   3.875   7.753  10.673  0.4447 -0.1688 -0.4405
  168MOL0    Cl23091   3.983   7.616  10.683  0.1089 -0.0288  0.1078
  168MOL0     C23092   3.655   7.968   9.673 -1.0329 -0.3333  0.8666
  168MOL0     C23093   3.659   7.952   9.534 -0.3380  0.2673 -0.7993
  168MOL0     O23094   3.650   7.855   9.147  0.0626 -0.2403  0.1203
  168MOL0     C23095   3.581   7.647   9.422  1.5102  0.1566  0.2937
  168MOL0     C23096   3.487   7.557   9.469  0.2593  0.8167 -0.1005
  168MOL0     N23097   2.958   7.488   9.892  0.2693 -0.6397 -0.0573
  168MOL0     N23098   2.835   7.499   9.940  0.2678  0.2519 -0.0322
  168MOL0     C23099   1.607   8.000   9.472 -0.0697 -0.4104 -0.6114
  168MOL0     C23100   1.485   8.002   9.545 -0.3725 -0.5011  0.5993
  168MOL0     C23101   1.207   8.157   9.895  0.0021  0.2085 -0.5010
  168MOL0     C23102   1.184   8.274   9.970 -0.6194  0.3257  0.0185
  168MOL0     C23103   1.065   8.305  10.042  0.1985  0.2944  0.2614
  168MOL0     C23104   0.961   8.208  10.035 -0.5797  0.0509  0.3205
  168MOL0     O23105   0.851   8.222  10.114 -0.3344  0.0259 -0.3970
  168MOL0     C23106   0.734   8.148  10.094  0.0750 -0.5814 -0.5537
  168MOL0     C23107   0.636   8.215  10.192 -0.1621  0.1028 -0.8367
  168MOL0     C23108   0.651   8.157  10.334 -0.4269  0.3472 -0.0947
  168MOL0     C23109   0.531   8.151  10.428 -0.9009 -0.1166 -1.2668
  168MOL0     C23110   0.449   8.041  10.384  1.0005 -0.5328 -0.5571
  168MOL0     C23111   0.373   7.959  10.353 -0.0884  0.3854  0.6089
  168MOL0     C23112   0.976   8.088   9.961 -0.3700  0.4361  0.2703
  168MOL0     C23113   1.101   8.055   9.897 -0.0387 -0.1280 -0.8058
  168MOL0     C23114   1.110   7.928   9.828 -0.6630  0.1216  0.3867
  168MOL0     H23115   1.615   8.061   9.854 -1.5549  0.3627  0.4205
  168MOL0     H23116   1.819   8.080   9.726 -0.5932  2.3967  0.3534
  168MOL0     H23117   1.975   8.100   9.592 -0.8197  1.7072 -2.0119
  168MOL0     H23118   2.036   8.032   9.440 -0.4016 -0.0116 -0.1969
  168MOL0     H23119   1.961   7.848   9.649 -0.3010 -1.2713 -0.7274
  168MOL0     H23120   2.032   7.816   9.484 -1.9302  1.2625 -1.2769
  168MOL0     H23121   2.236   7.935   9.550  0.7139 -1.7068 -0.2919
  168MOL0     H23122   2.152   7.993   9.702 -0.1094 -1.9011  0.9263
  168MOL0     H23123   2.164   7.775   9.787  0.1345  1.2876  0.6257
  168MOL0     H23124   2.191   7.705   9.630  1.4827 -0.0837 -0.5495
  168MOL0     H23125   2.389   7.883   9.788 -2.3954  0.2495 -1.2095
  168MOL0     H23126   2.430   7.796   9.636  3.8511 -1.2847  1.3185
  168MOL0     H23127   2.391   7.686   9.907  2.6845  0.5669  0.6616
  168MOL0     H23128   2.348   7.587   9.764 -0.5804  0.6568 -1.1507
  168MOL0     H23129   2.613   7.721   9.816 -1.1940  0.5396  0.0473
  168MOL0     H23130   2.586   7.626   9.677 -0.5611  0.8594 -0.6215
  168MOL0     H23131   2.569   7.503   9.953  0.6554 -0.3559  0.4873
  168MOL0     H23132   2.546   7.414   9.801 -2.3735  1.1277  0.5839
  168MOL0     H23133   2.788   7.433   9.625  0.5419 -0.2028  0.4993
  168MOL0     H23134   3.158   7.397   9.751  0.0338  4.1995  0.9980
  168MOL0     H23135   3.101   7.505   9.633 -1.4324 -0.0471 -1.9978
  168MOL0     H23136   2.994   7.223   9.606  0.6816 -1.9902 -1.2487
  168MOL0     H23137   3.014   7.349   9.486  0.0273 -0.4216 -0.0674
  168MOL0     H23138   3.222   7.170   9.619  2.4155 -0.9064 -1.1091
  168MOL0     H23139   3.188   7.182   9.453  1.7264 -1.4005  2.3361
  168MOL0     H23140   3.326   7.368   9.630 -1.7209 -1.5326 -0.5661
  168MOL0     H23141   3.405   7.290   9.496  0.6490  0.2593  1.7975
  168MOL0     H23142   3.227   7.623   9.279  0.0771  1.6002  2.4550
  168MOL0     H23143   3.424   7.814   9.055  0.8362  0.3367  0.9991
  168MOL0     H23144   3.375   7.926   9.180  0.1806  0.6519  0.6889
  168MOL0     H23145   3.261   7.801   9.130  0.2953 -1.7688 -0.8805
  168MOL0     H23146   3.980   7.844   9.498  0.4803 -1.0681 -0.7709
  168MOL0     H23147   3.966   7.860   9.738  0.3878  2.5083 -0.0944
  168MOL0     H23148   3.651   8.094   9.985  1.3490  1.0495  0.6252
  168MOL0     H23149   3.593   7.933   9.942 -0.7872  0.1974  2.8435
  168MOL0     H23150   3.823   8.016  10.112  1.3240 -0.7313  0.1266
  168MOL0     H23151   3.669   7.973  10.182  1.4707 -0.6391  1.0585
  168MOL0     H23152   3.863   7.787  10.026  1.4093 -0.1217  1.0103
  168MOL0     H23153   3.698   7.736  10.049 -1.0677  2.8181 -2.5498
  168MOL0     H23154   3.907   7.811  10.255 -0.6725  0.6095 -2.2433
  168MOL0     H23155   3.857   7.643  10.211  1.3295  0.2042  1.1351
  168MOL0     H23156   3.656   7.826  10.347 -2.1754 -0.5179  2.3741
  168MOL0     H23157   3.638   7.657  10.302 -0.3299 -0.3401  2.9953
  168MOL0     H23158   3.845   7.606  10.444  1.3399  0.5983 -2.1846
  168MOL0     H23159   3.690   7.655  10.525  1.1914  0.2928  0.9794
  168MOL0     H23160   3.787   7.894  10.527  2.0302  1.1121  1.0420
  168MOL0     H23161   3.941   7.822  10.479 -0.2844  0.1948 -0.8121
  168MOL0     H23162   3.781   7.727  10.722  1.3008 -3.7742 -0.3593
  168MOL0     H23163   3.913   7.835  10.734 -2.5276  0.8709  0.1739
  168MOL0     H23164   3.563   7.999   9.721 -1.2736 -0.3466  0.4175
  168MOL0     H23165   3.573   7.991   9.480 -0.0452  1.2366 -0.5740
  168MOL0     H23166   3.676   7.652   9.475  0.0366 -1.4128  3.3875
  168MOL0     H23167   3.517   7.486   9.545  2.7550 -0.9707 -2.5539
  168MOL0     H23168   1.600   7.971   9.368  1.4383 -0.1379 -0.8080
  168MOL0     H23169   1.399   7.983   9.481  0.6656  1.9178 -1.7081
  168MOL0     H23170   1.272   8.337   9.975  2.1681 -2.8452 -3.1695
  168MOL0     H23171   1.057   8.389  10.110 -4.0709  1.3225 -1.2053
  168MOL0     H23172   0.693   8.168   9.995 -3.3620  0.8428  1.0014
  168MOL0     H23173   0.756   8.045  10.126  1.7004  0.2982  1.4334
  168MOL0     H23174   0.537   8.187  10.155  0.8110 -2.6772 -1.6004
  168MOL0     H23175   0.646   8.324  10.197  0.7319  0.1872 -3.0688
  168MOL0     H23176   0.696   8.058  10.340 -0.9425 -0.0021 -1.7092
  168MOL0     H23177   0.724   8.222  10.384 -0.3004 -0.9252  1.4653
  168MOL0     H23178   0.471   8.242  10.436  0.6198  0.7463  2.5635
  168MOL0     H23179   0.565   8.138  10.531 -0.8433  1.3465 -1.0785
  168MOL0     H23180   0.315   7.880  10.310  1.4398  0.5583 -1.9575
  168MOL0     H23181   0.906   8.005   9.960  0.7480 -0.5355 -0.0024
  168MOL0     H23182   1.033   7.852   9.844  0.5239 -0.8681  1.7208
  168MOL0     H23183   1.095   7.953   9.723  0.2145 -0.0967  0.2037
  168MOL0     H23184   1.208   7.882   9.845 -0.1173  0.5106 -1.5416
  169MOL0     O23185  11.090   9.345  10.951  0.9283  0.3280 -0.5357
  169MOL0     C23186  11.039   9.383  10.845 -0.1681 -0.4989 -0.6126
  169MOL0     O23187  11.104   9.462  10.758  0.0038 -0.4674 -0.7189
  169MOL0     C23188  11.234   9.489  10.787 -0.2411 -0.2723 -0.2764
  169MOL0     C23189  11.337   9.430  10.711 -0.8480 -0.0611 -0.8461
  169MOL0     C23190  11.474   9.445  10.752 -0.4322  0.0459  0.2417
  169MOL0     C23191  11.503   9.520  10.866 -0.3989 -0.4641 -0.1212
  169MOL0     O23192  11.631   9.545  10.905  0.0476 -0.1586 -0.3528
  169MOL0     C23193  11.730   9.536  10.804 -0.0041 -0.1729 -0.8013
  169MOL0     C23194  11.870   9.558  10.865  0.0793  0.4400  0.3417
  169MOL0     C23195  11.979   9.477  10.793 -0.5177 -0.0734 -0.8268
  169MOL0     C23196  12.108   9.509  10.857 -0.8572  0.4907  0.9676
  169MOL0     C23197  12.221   9.398  10.837  0.1143 -0.4060  0.1532
  169MOL0     C23198  12.276   9.376  10.687  0.4557  0.8842  1.0028
  169MOL0     C23199  12.214   9.268  10.596 -0.4346  0.2540 -0.0513
  169MOL0     C23200  12.163   9.145  10.675  0.1912  0.3167  0.1029
  169MOL0     N23201  12.131   9.030  10.587 -0.3103  0.0028  0.0755
  169MOL0     C23202  12.217   8.924  10.548 -0.5761  0.1058  0.2682
  169MOL0     C23203  12.157   8.849  10.453 -0.2604  0.5656 -0.1897
  169MOL0     C23204  12.211   8.731  10.378 -0.3243  0.6814 -0.3749
  169MOL0     C23205  12.215   8.758  10.224 -0.0935  0.8932 -0.2892
  169MOL0     C23206  12.263   8.645  10.136  0.1845  0.0777  0.4092
  169MOL0     C23207  12.279   8.687   9.987 -1.0829  0.5441 -0.5878
  169MOL0     O23208  12.386   8.791   9.975  0.6631  0.7571  0.6103
  169MOL0     C23209  12.521   8.757   9.964 -0.3535  0.0848  0.3833
  169MOL0     C23210  12.609   8.863   9.987  0.3334  0.1126  0.2996
  169MOL0     C23211  12.747   8.840   9.981 -0.0417  0.5603 -0.0032
  169MOL0     C23212  12.840   8.954  10.009 -0.8244  0.1519  0.3151
  169MOL0     C23213  12.797   8.714   9.938  0.1849  0.1316  0.1362
  169MOL0     C23214  12.942   8.678   9.926 -0.8810 -0.5128  0.0221
  169MOL0     O23215  12.979   8.547   9.899  0.4360  0.1874 -0.3003
  169MOL0     C23216  13.105   8.494   9.934  0.0756  0.2407  0.4406
  169MOL0     C23217  13.157   8.386   9.863  0.0648 -0.4151 -0.5068
  169MOL0     C23218  13.288   8.333   9.898  1.3643 -0.0660 -1.3016
  169MOL0     C23219  13.355   8.387  10.011 -0.1129  0.0980 -0.4379
  169MOL0     O23220  13.477   8.331  10.046 -0.6023 -0.1342  0.1510
  169MOL0     C23221  13.596   8.409  10.055  0.0199 -0.6643 -0.7125
  169MOL0     C23222  13.690   8.346  10.156  0.5043 -0.8423 -0.3905
  169MOL0     C23223  13.792   8.450  10.190  0.1142  0.1025  0.3788
  169MOL0     C23224  13.899   8.401  10.291  0.1337  0.6306  0.0432
  169MOL0     C23225  13.993   8.503  10.353 -0.2269  0.1192 -0.8708
  169MOL0     C23226  13.920   8.615  10.434 -0.0593 -1.0593  0.2529
  169MOL0     C23227  13.850   8.560  10.557  0.1250 -0.1571 -0.5145
  169MOL0     C23228  13.793   8.666  10.652  0.0462 -0.4379  0.1700
  169MOL0    Cl23229  13.673   8.749  10.573 -0.0253  0.3445  0.1100
  169MOL0     C23230  13.300   8.488  10.081  0.6339 -0.4758  0.2704
  169MOL0     C23231  13.178   8.538  10.049 -0.4750 -0.1074  0.2789
  169MOL0     O23232  13.024   8.763   9.958  0.1643 -0.1043  0.0065
  169MOL0     C23233  12.710   8.608   9.909  0.2996  0.9168 -0.1117
  169MOL0     C23234  12.573   8.631   9.931  0.2641 -0.4341  0.5025
  169MOL0     N23235  12.028   8.908  10.431  0.1668 -0.5350 -0.8184
  169MOL0     N23236  12.018   9.008  10.517  0.9022  0.3370  0.7273
  169MOL0     C23237  11.398   9.571  10.944  0.3335 -0.3458  0.4333
  169MOL0     C23238  11.269   9.569  10.899 -0.1068  0.3940  1.3168
  169MOL0     C23239  10.898   9.337  10.822  0.2468  0.8669 -0.1481
  169MOL0     C23240  10.815   9.313  10.936 -0.4003  0.7731  0.0389
  169MOL0     C23241  10.691   9.260  10.909  0.0881 -0.8657  0.7696
  169MOL0     C23242  10.648   9.238  10.780 -0.7872  0.5579  0.5096
  169MOL0     O23243  10.533   9.175  10.763  0.8187 -0.9616  0.1421
  169MOL0     C23244  10.460   9.134  10.643 -0.1520 -0.0214  0.6318
  169MOL0     C23245  10.308   9.142  10.651 -0.8450  0.0346  0.7189
  169MOL0     C23246  10.252   9.100  10.788  0.7154 -0.4425 -0.6376
  169MOL0     C23247  10.102   9.111  10.781  0.5606 -0.5935 -0.0261
  169MOL0     C23248  10.043   9.243  10.814 -0.2112  0.2200  0.2035
  169MOL0     C23249   9.997   9.354  10.843 -0.0542  0.7367 -0.2274
  169MOL0     C23250  10.728   9.273  10.671  0.3329 -0.6822 -0.2103
  169MOL0     C23251  10.853   9.326  10.689 -0.6401 -0.1405 -0.7170
  169MOL0     C23252  10.934   9.355  10.560 -0.2638 -0.6755  0.4304
  169MOL0     H23253  11.299   9.370  10.629 -1.2585  1.0729 -1.5149
  169MOL0     H23254  11.551   9.402  10.689  0.8396  1.8793  0.4745
  169MOL0     H23255  11.723   9.622  10.737 -0.0699  1.5418  1.2664
  169MOL0     H23256  11.726   9.434  10.765 -1.8278  0.1956 -1.6512
  169MOL0     H23257  11.893   9.665  10.864 -1.0246  0.6853 -0.9576
  169MOL0     H23258  11.864   9.524  10.969  0.8747  0.6855  0.4815
  169MOL0     H23259  11.970   9.368  10.796  2.3286 -0.4012 -1.5036
  169MOL0     H23260  11.992   9.509  10.689 -0.4678  2.9250  0.0274
  169MOL0     H23261  12.132   9.609  10.820  0.2434 -1.0855 -3.1881
  169MOL0     H23262  12.098   9.504  10.966  0.0998 -1.2736  1.0271
  169MOL0     H23263  12.186   9.301  10.874  1.7898 -0.2908  2.2360
  169MOL0     H23264  12.305   9.431  10.899 -0.6656 -0.4102  1.2369
  169MOL0     H23265  12.268   9.470  10.631 -2.4020 -1.8719 -3.9265
  169MOL0     H23266  12.381   9.346  10.687 -0.0534 -1.2374  2.8156
  169MOL0     H23267  12.288   9.227  10.527  1.1329 -1.0211  2.2631
  169MOL0     H23268  12.134   9.306  10.531  0.8718 -0.6933 -2.3362
  169MOL0     H23269  12.243   9.115  10.742  1.4558  0.6521 -1.1913
  169MOL0     H23270  12.071   9.167  10.731  1.1678  0.9360  1.5061
  169MOL0     H23271  12.318   8.914  10.587  0.0616  2.3582 -0.6378
  169MOL0     H23272  12.153   8.642  10.406  1.6470  0.1544  2.4986
  169MOL0     H23273  12.312   8.700  10.407 -0.5198 -0.3052 -0.7201
  169MOL0     H23274  12.120   8.802  10.194  1.3877  3.2395 -1.9207
  169MOL0     H23275  12.281   8.844  10.211  0.7117  0.1170 -1.5350
  169MOL0     H23276  12.355   8.602  10.176  1.7308  1.4539 -1.4868
  169MOL0     H23277  12.194   8.561  10.137  1.0393 -0.6372  1.2025
  169MOL0     H23278  12.303   8.601   9.923 -0.9593  0.0612  0.0990
  169MOL0     H23279  12.183   8.724   9.949 -0.3711  1.8797 -1.1433
  169MOL0     H23280  12.577   8.965  10.008  0.7946 -0.0790  2.0584
  169MOL0     H23281  12.913   8.957   9.928  1.1944  3.0367  2.0793
  169MOL0     H23282  12.891   8.959  10.106 -1.2373  1.5583  0.4735
  169MOL0     H23283  12.791   9.051  10.000 -1.4444  0.1591  2.7848
  169MOL0     H23284  13.103   8.338   9.782 -2.8659  2.4352 -0.4808
  169MOL0     H23285  13.312   8.237   9.853  0.2569 -1.7816  1.4695
  169MOL0     H23286  13.649   8.405   9.959  1.1427 -0.1413 -0.1414
  169MOL0     H23287  13.570   8.513  10.074  0.3657 -0.4351 -1.4452
  169MOL0     H23288  13.627   8.318  10.241 -2.5261  0.4029 -2.0897
  169MOL0     H23289  13.732   8.255  10.110 -1.2203 -1.3876 -0.9544
  169MOL0     H23290  13.745   8.543  10.224 -1.0293 -0.0439 -0.7419
  169MOL0     H23291  13.851   8.475  10.101  1.6061 -0.4814  1.1588
  169MOL0     H23292  13.962   8.323  10.247 -2.3363 -1.6593  0.3171
  169MOL0     H23293  13.841   8.347  10.367 -2.7254  1.4885 -1.4223
  169MOL0     H23294  14.061   8.450  10.420 -2.2066 -1.4598 -0.0174
  169MOL0     H23295  14.029   8.570  10.274  0.4327  2.5811  1.3852
  169MOL0     H23296  13.850   8.667  10.368  1.6072 -0.4724 -1.1305
  169MOL0     H23297  13.998   8.688  10.459 -0.3066 -0.5836 -0.3451
  169MOL0     H23298  13.913   8.481  10.599  1.8303  1.8701  0.8980
  169MOL0     H23299  13.763   8.503  10.520 -0.5613 -0.2780  1.1875
  169MOL0     H23300  13.870   8.740  10.673 -0.7577  0.1518  1.1251
  169MOL0     H23301  13.753   8.621  10.744  0.6727 -0.7573  0.2878
  169MOL0     H23302  13.350   8.529  10.168 -1.1731  0.8653  0.7523
  169MOL0     H23303  13.139   8.622  10.104  2.8126  0.5439  1.8170
  169MOL0     H23304  12.737   8.508   9.878  1.3298  0.2488  2.6614
  169MOL0     H23305  12.505   8.550   9.909 -1.0566  0.9056 -0.5547
  169MOL0     H23306  11.410   9.620  11.040  0.8434  0.3558  0.0214
  169MOL0     H23307  11.184   9.608  10.953  0.1162 -0.4728  2.3350
  169MOL0     H23308  10.836   9.327  11.042  0.7729  3.7099 -0.4908
  169MOL0     H23309  10.648   9.232  11.005  0.3210 -1.9973  0.5579
  169MOL0     H23310  10.487   9.201  10.560 -1.1391  0.5467  0.7553
  169MOL0     H23311  10.496   9.038  10.604 -2.5371 -0.5110 -0.5721
  169MOL0     H23312  10.263   9.074  10.580  0.4789 -0.3256  0.1880
  169MOL0     H23313  10.288   9.244  10.617 -0.0300  0.1110  0.4267
  169MOL0     H23314  10.270   8.993  10.798 -2.4934 -0.9355  0.9968
  169MOL0     H23315  10.295   9.153  10.874  1.3278 -1.4410 -0.3135
  169MOL0     H23316  10.070   9.038  10.855 -0.0133  0.8170  1.1711
  169MOL0     H23317  10.045   9.071  10.697 -1.5698  1.3950  0.3566
  169MOL0     H23318   9.946   9.444  10.870  0.1482  0.8379 -0.1824
  169MOL0     H23319  10.699   9.262  10.567 -1.4202 -0.3062  0.2076
  169MOL0     H23320  11.034   9.311  10.560 -0.1992 -0.5372  0.9737
  169MOL0     H23321  10.886   9.310  10.473  1.4631  2.1058 -2.1453
  169MOL0     H23322  10.945   9.463  10.547 -2.2732 -0.7600 -3.4316
  170MOL0     O23323  11.234   2.698   5.817 -0.7054 -0.7639 -0.1560
  170MOL0     C23324  11.263   2.772   5.913  0.2385  0.2887 -0.0983
  170MOL0     O23325  11.382   2.790   5.966 -1.2645  0.2716 -0.0293
  170MOL0     C23326  11.484   2.744   5.888 -0.6097  0.4755 -0.5389
  170MOL0     C23327  11.513   2.796   5.767 -0.3232  0.2797 -0.1044
  170MOL0     C23328  11.608   2.737   5.688 -0.5254  0.5367 -0.7637
  170MOL0     C23329  11.685   2.630   5.732  0.1113  0.0424 -0.3841
  170MOL0     O23330  11.761   2.567   5.636  0.1464  0.0240  0.0447
  170MOL0     C23331  11.805   2.435   5.664 -0.1366  0.0420  0.0137
  170MOL0     C23332  11.896   2.390   5.548  0.0339  0.7031  0.4296
  170MOL0     C23333  11.942   2.251   5.569  0.3665 -0.3147  0.9184
  170MOL0     C23334  12.013   2.185   5.442 -0.5094  0.4527  0.2593
  170MOL0     C23335  12.088   2.064   5.491 -0.3509  0.0756 -0.1290
  170MOL0     C23336  12.160   2.011   5.366  0.2042  0.1308  0.2219
  170MOL0     C23337  12.253   1.904   5.403 -0.5616  0.6853  0.1438
  170MOL0     C23338  12.337   1.836   5.288  0.0889 -0.1531  1.2860
  170MOL0     N23339  12.253   1.749   5.198 -0.4159 -0.3080  0.4747
  170MOL0     C23340  12.184   1.635   5.237  0.0961  0.2629 -0.5389
  170MOL0     C23341  12.147   1.565   5.124  0.6145  0.3475  0.2561
  170MOL0     C23342  12.066   1.437   5.113 -0.2821  0.3955 -0.4771
  170MOL0     C23343  12.122   1.336   5.222  0.1305  0.1224  0.2199
  170MOL0     C23344  12.253   1.254   5.184 -0.3795  0.0095  0.4727
  170MOL0     C23345  12.355   1.249   5.301  0.6318  0.2404 -0.5575
  170MOL0     O23346  12.380   1.390   5.340 -0.2903  0.8346  0.0614
  170MOL0     C23347  12.504   1.435   5.311 -0.7370 -0.1084  0.8306
  170MOL0     C23348  12.528   1.492   5.191  0.9423 -0.7102  0.0056
  170MOL0     C23349  12.656   1.538   5.152 -0.7391 -0.4049 -0.2339
  170MOL0     C23350  12.672   1.614   5.018 -0.4289  0.0105 -0.0683
  170MOL0     C23351  12.770   1.521   5.240  1.1969  0.0961 -0.5203
  170MOL0     C23352  12.911   1.554   5.211  0.5953 -0.8443  0.5596
  170MOL0     O23353  12.948   1.579   5.083  0.3172  0.0202 -0.2558
  170MOL0     C23354  13.072   1.637   5.070  1.1846  0.0297  0.0500
  170MOL0     C23355  13.183   1.569   5.091 -0.0923  0.3141 -0.1466
  170MOL0     C23356  13.311   1.628   5.046  0.3053  0.2855 -1.0329
  170MOL0     C23357  13.312   1.749   4.981 -0.5531 -0.1009 -0.4141
  170MOL0     O23358  13.435   1.780   4.933 -0.0911 -0.0318  0.5442
  170MOL0     C23359  13.450   1.899   4.850  0.1458  0.5951 -0.3133
  170MOL0     C23360  13.579   1.959   4.878 -0.7194  0.4688 -0.3745
  170MOL0     C23361  13.613   2.073   4.782  0.8330  0.4252  0.4071
  170MOL0     C23362  13.743   2.136   4.821 -0.6576  0.8112 -0.2820
  170MOL0     C23363  13.789   2.221   4.699 -0.0466  0.9288  0.4269
  170MOL0     C23364  13.940   2.249   4.706 -0.2520 -0.1601 -0.0483
  170MOL0     C23365  13.990   2.348   4.599  0.0972  0.5318 -0.9012
  170MOL0     C23366  14.141   2.361   4.610  0.1194 -0.1910  0.0495
  170MOL0    Cl23367  14.214   2.416   4.461 -0.1919 -0.3076 -0.1134
  170MOL0     C23368  13.196   1.828   4.975 -0.3945  0.1990  0.2266
  170MOL0     C23369  13.074   1.771   5.018 -0.1660 -0.6456  0.1561
  170MOL0     O23370  12.986   1.545   5.308  0.6106  0.1297  0.2174
  170MOL0     C23371  12.739   1.453   5.367 -0.5775  0.7938  0.0532
  170MOL0     C23372  12.608   1.423   5.398 -0.1642  0.0421  0.0984
  170MOL0     N23373  12.192   1.640   5.020  1.1506 -0.0207  0.5739
  170MOL0     N23374  12.250   1.748   5.065  0.0034 -0.0259  0.5327
  170MOL0     C23375  11.664   2.586   5.867  0.3721  0.0535  0.2415
  170MOL0     C23376  11.564   2.644   5.943  0.2177  0.4518 -0.0043
  170MOL0     C23377  11.151   2.829   5.996 -0.1296 -0.4364  0.0127
  170MOL0     C23378  11.170   2.846   6.138 -0.3401  0.0074  0.2477
  170MOL0     C23379  11.087   2.928   6.205  0.1587 -1.1694  0.2138
  170MOL0     C23380  10.959   2.963   6.159 -0.4132 -0.6220  0.2527
  170MOL0     O23381  10.872   3.030   6.239  1.1140  0.4506 -0.0588
  170MOL0     C23382  10.730   3.025   6.209 -0.2024  0.3126 -0.6975
  170MOL0     C23383  10.691   3.155   6.145  0.1841 -0.3002  0.3712
  170MOL0     C23384  10.751   3.279   6.215  0.5220  0.2392 -0.0213
  170MOL0     C23385  10.674   3.410   6.180 -0.2093 -0.8002 -0.5795
  170MOL0     C23386  10.531   3.410   6.204  0.1971  0.1944 -0.5840
  170MOL0     C23387  10.412   3.405   6.229 -0.5129  0.4618 -0.7420
  170MOL0     C23388  10.938   2.939   6.022  0.6636  0.2645  0.1199
  170MOL0     C23389  11.033   2.878   5.941  0.2751  0.8871  0.4321
  170MOL0     C23390  11.003   2.879   5.789  1.1594  0.7605 -0.3596
  170MOL0     H23391  11.460   2.882   5.729 -1.4455 -0.5860 -0.5313
  170MOL0     H23392  11.626   2.773   5.587  0.0209 -3.3375 -2.2165
  170MOL0     H23393  11.715   2.379   5.693 -0.6394  1.9639  2.4616
  170MOL0     H23394  11.865   2.438   5.755 -1.1637 -0.1945  0.7130
  170MOL0     H23395  11.840   2.392   5.454  0.9636  0.3548 -0.1455
  170MOL0     H23396  11.978   2.461   5.536  0.1220  0.2942 -1.8008
  170MOL0     H23397  12.023   2.254   5.643  1.4451  0.2243 -0.2417
  170MOL0     H23398  11.862   2.187   5.606  0.0732 -0.0191  0.7968
  170MOL0     H23399  11.941   2.165   5.362  1.8133 -2.9884 -1.2023
  170MOL0     H23400  12.078   2.261   5.398 -0.8535  0.5811 -0.0310
  170MOL0     H23401  12.018   1.992   5.533  2.2710 -2.8428 -0.4204
  170MOL0     H23402  12.165   2.090   5.565  1.7291 -3.9248 -0.5986
  170MOL0     H23403  12.084   1.972   5.298 -2.3782 -0.0488  3.0325
  170MOL0     H23404  12.216   2.088   5.311  1.1990 -0.7960 -0.1097
  170MOL0     H23405  12.197   1.827   5.457  0.6576  0.0330  0.5275
  170MOL0     H23406  12.317   1.960   5.473 -0.7505  0.8497  0.1853
  170MOL0     H23407  12.386   1.911   5.225  0.3780 -1.1749  0.2685
  170MOL0     H23408  12.414   1.769   5.327 -0.0621 -2.1931 -1.6000
  170MOL0     H23409  12.156   1.599   5.336  0.7305  2.1047  0.3517
  170MOL0     H23410  12.074   1.400   5.010  0.7935 -0.4854 -0.1047
  170MOL0     H23411  11.962   1.460   5.135  0.1794  3.0078 -0.7949
  170MOL0     H23412  12.146   1.399   5.308  1.2033  1.9060 -1.3056
  170MOL0     H23413  12.045   1.262   5.247 -1.3158  2.4507  3.3236
  170MOL0     H23414  12.231   1.150   5.158 -0.2088  0.0019  0.3517
  170MOL0     H23415  12.304   1.300   5.098 -2.4535  2.9017  0.6663
  170MOL0     H23416  12.310   1.195   5.385 -0.4911  1.9812  0.0229
  170MOL0     H23417  12.449   1.204   5.269  1.6439  0.0089  2.3971
  170MOL0     H23418  12.452   1.518   5.119  1.3252  1.2222  0.2204
  170MOL0     H23419  12.577   1.613   4.965 -0.2194 -1.0515 -0.4513
  170MOL0     H23420  12.737   1.558   4.950 -0.1809  0.8279 -0.5279
  170MOL0     H23421  12.720   1.712   5.029  1.4528 -1.0230  1.6471
  170MOL0     H23422  13.185   1.463   5.114 -0.2152  0.1003 -1.0803
  170MOL0     H23423  13.397   1.562   5.058  1.5235  1.5617 -2.3670
  170MOL0     H23424  13.446   1.869   4.745  0.2256 -3.6987  0.7540
  170MOL0     H23425  13.381   1.982   4.870  1.0593  1.4738 -0.7702
  170MOL0     H23426  13.569   1.998   4.980 -3.1171 -1.1334  0.0919
  170MOL0     H23427  13.651   1.877   4.885 -1.6190 -0.2105  1.3581
  170MOL0     H23428  13.528   2.139   4.803  0.3838  0.1645 -0.5534
  170MOL0     H23429  13.601   2.036   4.680 -2.1363 -1.1348  1.2228
  170MOL0     H23430  13.818   2.057   4.837 -0.7233  0.8294  0.1176
  170MOL0     H23431  13.727   2.192   4.913  1.4012  2.0901 -0.6280
  170MOL0     H23432  13.789   2.170   4.602  4.9070 -0.7627  1.0278
  170MOL0     H23433  13.725   2.309   4.696 -0.5145  0.5771 -0.2186
  170MOL0     H23434  13.988   2.153   4.685 -2.1676 -0.5739 -3.1144
  170MOL0     H23435  13.965   2.290   4.804 -3.0415 -1.2486  1.2302
  170MOL0     H23436  13.937   2.440   4.622 -2.1952 -1.0017  0.2752
  170MOL0     H23437  13.976   2.305   4.499  2.4627 -1.2969 -0.5486
  170MOL0     H23438  14.188   2.264   4.631 -2.4770 -1.4125  0.5298
  170MOL0     H23439  14.166   2.427   4.694  1.7551 -0.3350 -0.2730
  170MOL0     H23440  13.187   1.927   4.932  1.0316  0.4614  0.4774
  170MOL0     H23441  12.980   1.825   5.011  0.1353 -0.2958 -1.2900
  170MOL0     H23442  12.815   1.441   5.444 -1.2146  0.2916  0.6188
  170MOL0     H23443  12.587   1.388   5.498  1.5437 -0.3530  0.3560
  170MOL0     H23444  11.715   2.501   5.911  0.7101 -0.4365 -1.0651
  170MOL0     H23445  11.558   2.609   6.045  1.9945 -0.9373 -0.3243
  170MOL0     H23446  11.255   2.813   6.196  0.2663  2.4933  0.8871
  170MOL0     H23447  11.119   2.964   6.303 -2.4214  0.5843  0.5321
  170MOL0     H23448  10.711   2.934   6.151  0.3613 -2.3676  2.9731
  170MOL0     H23449  10.682   3.009   6.306 -0.1014 -2.0988 -0.9900
  170MOL0     H23450  10.583   3.171   6.139  0.5225  3.4937  1.6157
  170MOL0     H23451  10.728   3.147   6.042  0.3092 -2.2750  0.5387
  170MOL0     H23452  10.768   3.271   6.323  0.1996  0.9630  0.0906
  170MOL0     H23453  10.849   3.292   6.169  0.4797  2.3193  0.3557
  170MOL0     H23454  10.688   3.436   6.074 -2.1101  1.4860 -0.3505
  170MOL0     H23455  10.719   3.491   6.237 -1.5341  1.1895 -2.1866
  170MOL0     H23456  10.308   3.400   6.254 -0.2041  0.4769  0.6111
  170MOL0     H23457  10.850   2.974   5.969  0.1869  0.3160  0.9343
  170MOL0     H23458  10.970   2.776   5.775 -2.0715  1.5578  0.5999
  170MOL0     H23459  10.924   2.952   5.771  1.9069  1.6252 -0.2469
  170MOL0     H23460  11.094   2.907   5.736 -0.1967  2.5503 -1.8711
  171MOL0     O23461   2.142  11.294   4.369  0.0152 -0.6673 -0.3969
  171MOL0     C23462   2.095  11.198   4.311 -0.5842 -0.2687 -0.0911
  171MOL0     O23463   2.180  11.099   4.251 -0.3332  0.4090 -0.3695
  171MOL0     C23464   2.319  11.135   4.248  0.3095 -0.4317 -0.2116
  171MOL0     C23465   2.392  11.129   4.363 -1.2530 -0.1214 -0.1527
  171MOL0     C23466   2.521  11.186   4.371 -0.2978  0.1221  0.4026
  171MOL0     C23467   2.580  11.252   4.256  0.1169  0.3078 -0.3491
  171MOL0     O23468   2.703  11.315   4.256 -0.1862  0.4162  0.1469
  171MOL0     C23469   2.801  11.271   4.162 -0.1695  0.4005 -0.7840
  171MOL0     C23470   2.912  11.187   4.219 -0.4194  0.1197 -0.4498
  171MOL0     C23471   2.866  11.051   4.257  0.2816 -0.0297  0.0650
  171MOL0     C23472   2.948  11.003   4.381  1.5266 -1.2823 -0.5445
  171MOL0     C23473   3.096  10.980   4.327 -0.2996 -0.1984 -0.0057
  171MOL0     C23474   3.193  10.925   4.424  0.0181 -0.7955 -0.2219
  171MOL0     C23475   3.330  10.944   4.378 -0.6978  0.0820  0.2116
  171MOL0     C23476   3.411  10.886   4.489 -0.0030 -0.0010  0.3523
  171MOL0     N23477   3.556  10.876   4.458 -0.1370  0.2813 -1.1105
  171MOL0     C23478   3.647  10.984   4.463 -0.0929  0.5576  0.0339
  171MOL0     C23479   3.758  10.934   4.396 -0.1263  0.0863 -0.6545
  171MOL0     C23480   3.884  11.006   4.374 -0.2128 -0.1633 -0.3425
  171MOL0     C23481   3.934  10.996   4.225  0.9391  0.5434 -0.7203
  171MOL0     C23482   4.034  11.105   4.191 -0.1031  0.1636 -0.0130
  171MOL0     C23483   4.111  11.083   4.053  0.7259 -0.0078  0.2083
  171MOL0     O23484   4.173  10.951   4.045  0.6992 -0.4996  0.7695
  171MOL0     C23485   4.309  10.940   4.053  0.0549  0.0042  0.5628
  171MOL0     C23486   4.405  11.008   3.965 -0.5780 -0.8584 -0.1728
  171MOL0     C23487   4.550  10.980   3.969  0.5461  0.7627 -0.0224
  171MOL0     C23488   4.633  11.062   3.878  0.4759  0.3344 -0.3038
  171MOL0     C23489   4.595  10.887   4.059 -0.4216 -0.0606 -0.7010
  171MOL0     C23490   4.750  10.857   4.084 -0.0268  0.4291 -0.2191
  171MOL0     O23491   4.839  10.925   4.009  1.2122 -0.5780 -0.2892
  171MOL0     C23492   4.967  10.936   4.044 -1.5312  0.0731 -0.8985
  171MOL0     C23493   5.016  10.953   4.171 -0.1817 -0.6417 -0.5339
  171MOL0     C23494   5.153  10.964   4.206  1.2225 -0.1212  0.6110
  171MOL0     C23495   5.248  10.966   4.092  0.0367 -0.6021  0.1005
  171MOL0     O23496   5.378  10.987   4.117 -0.4916 -0.2233  0.1474
  171MOL0     C23497   5.443  11.103   4.055  0.2300  0.9694 -0.4558
  171MOL0     C23498   5.573  11.129   4.125  0.5078 -0.0824  0.1614
  171MOL0     C23499   5.688  11.024   4.112  1.0127  0.9952  0.3196
  171MOL0     C23500   5.817  11.082   4.174  0.0949 -0.7769  0.3554
  171MOL0     C23501   5.943  10.999   4.148  0.2654  0.3783 -0.8347
  171MOL0     C23502   6.075  11.075   4.179  0.1751 -0.0706 -0.2419
  171MOL0     C23503   6.089  11.207   4.104  0.0291  0.4689 -0.2593
  171MOL0     C23504   6.228  11.264   4.127  0.3326 -0.8383 -0.0817
  171MOL0    Cl23505   6.361  11.180   4.039  0.1512  0.0541 -0.0905
  171MOL0     C23506   5.198  10.942   3.963  1.1425 -0.6494 -1.2264
  171MOL0     C23507   5.061  10.937   3.943  0.2979 -0.1434  0.1921
  171MOL0     O23508   4.783  10.769   4.167  0.2244 -0.3836 -0.0295
  171MOL0     C23509   4.509  10.818   4.146 -0.5667  0.7747 -0.1336
  171MOL0     C23510   4.365  10.849   4.133  0.2778  0.7982 -0.8414
  171MOL0     N23511   3.735  10.801   4.360 -0.1496  0.4832  0.1676
  171MOL0     N23512   3.611  10.766   4.397 -0.2683 -0.1256 -0.9672
  171MOL0     C23513   2.493  11.264   4.143 -0.5176  0.0438 -0.5544
  171MOL0     C23514   2.368  11.203   4.142 -0.5640  0.7051  0.4148
  171MOL0     C23515   1.948  11.164   4.323  0.3068 -0.1312  0.5474
  171MOL0     C23516   1.921  11.026   4.317  0.0051  0.2192 -0.3716
  171MOL0     C23517   1.794  10.984   4.343 -0.6310  0.4851  1.0342
  171MOL0     C23518   1.691  11.068   4.389 -0.2363  0.2861  0.2710
  171MOL0     O23519   1.567  11.025   4.435 -0.0528 -0.3948  0.1198
  171MOL0     C23520   1.556  10.888   4.490  0.2985 -0.0989 -0.0520
  171MOL0     C23521   1.520  10.795   4.378  0.3259  0.4217 -0.1709
  171MOL0     C23522   1.542  10.646   4.427  0.7164  0.4978 -1.0005
  171MOL0     C23523   1.404  10.593   4.494 -0.9050 -0.4670 -0.4189
  171MOL0     C23524   1.437  10.459   4.545  0.4595 -0.8433 -0.8119
  171MOL0     C23525   1.477  10.351   4.601  0.2540 -1.0918  0.8753
  171MOL0     C23526   1.710  11.204   4.371  0.0407  0.0777 -0.8468
  171MOL0     C23527   1.838  11.253   4.343 -0.8049 -0.6096 -0.2033
  171MOL0     C23528   1.861  11.405   4.353  0.3182  0.8899  0.0391
  171MOL0     H23529   2.352  11.089   4.455  0.1615  0.4462  0.7332
  171MOL0     H23530   2.575  11.188   4.466  2.8882  2.1948 -1.2661
  171MOL0     H23531   2.841  11.367   4.129 -1.6560  2.2945  2.4240
  171MOL0     H23532   2.758  11.217   4.076 -0.9244  0.9593 -0.7625
  171MOL0     H23533   2.982  11.166   4.137 -0.1323  1.9498 -0.7189
  171MOL0     H23534   2.963  11.243   4.297 -0.0264  1.0142 -1.3204
  171MOL0     H23535   2.757  11.052   4.268  0.2376  2.8470  0.1168
  171MOL0     H23536   2.887  10.977   4.179  3.9103  1.0112 -0.1071
  171MOL0     H23537   2.943  11.082   4.456  0.1274 -2.5810  0.7913
  171MOL0     H23538   2.908  10.910   4.422 -1.7682  0.7406  1.1906
  171MOL0     H23539   3.137  11.077   4.298  1.5252 -0.0692  2.6721
  171MOL0     H23540   3.092  10.928   4.231  1.6607  0.9467 -0.7677
  171MOL0     H23541   3.177  10.977   4.519 -0.6167  1.0591 -1.3007
  171MOL0     H23542   3.160  10.822   4.439  1.5465 -1.2430  0.2643
  171MOL0     H23543   3.369  11.044   4.358 -1.0935  0.1815 -0.0679
  171MOL0     H23544   3.338  10.886   4.286 -1.9945 -0.1697  0.2437
  171MOL0     H23545   3.394  10.960   4.568  0.2064 -1.3126  1.6776
  171MOL0     H23546   3.363  10.793   4.525 -1.5948  1.2513  1.6415
  171MOL0     H23547   3.628  11.082   4.505  0.2282  0.1716  1.1205
  171MOL0     H23548   3.952  10.967   4.450 -2.7121 -2.2446  0.9817
  171MOL0     H23549   3.865  11.109   4.405 -2.6527 -1.0653  1.5104
  171MOL0     H23550   3.971  10.896   4.200 -1.1399 -0.6521  0.6531
  171MOL0     H23551   3.845  11.020   4.165  1.6046  0.6968 -1.6664
  171MOL0     H23552   3.983  11.201   4.179 -0.0909 -0.1769 -5.8974
  171MOL0     H23553   4.106  11.110   4.273  1.3218  3.0224 -1.3051
  171MOL0     H23554   4.034  11.086   3.976 -1.0968  0.9158  1.9770
  171MOL0     H23555   4.188  11.159   4.034  1.6381 -1.0833 -0.5344
  171MOL0     H23556   4.359  11.072   3.890 -2.2073 -0.6424  0.9670
  171MOL0     H23557   4.708  10.999   3.830  2.2737  2.3517 -0.2947
  171MOL0     H23558   4.686  11.130   3.945 -2.3210 -0.6651  3.2686
  171MOL0     H23559   4.572  11.112   3.802 -0.2618 -0.2829 -0.1332
  171MOL0     H23560   4.939  10.961   4.248 -0.4268  3.3216 -0.9833
  171MOL0     H23561   5.194  10.980   4.306 -0.6235 -1.8554  1.7258
  171MOL0     H23562   5.457  11.074   3.950 -0.8565 -0.3002 -0.2676
  171MOL0     H23563   5.378  11.191   4.065 -0.7447  0.0882  1.2803
  171MOL0     H23564   5.608  11.218   4.073  2.1566 -0.5455  0.4291
  171MOL0     H23565   5.554  11.138   4.232 -3.5809  0.2034 -0.4239
  171MOL0     H23566   5.709  10.985   4.011  0.8241  1.1240  0.2288
  171MOL0     H23567   5.656  10.935   4.168 -2.8592  2.1618  0.3061
  171MOL0     H23568   5.809  11.086   4.283 -0.0259 -1.7856  0.3951
  171MOL0     H23569   5.815  11.185   4.137 -2.1564 -0.8395  0.1528
  171MOL0     H23570   5.943  10.915   4.219 -0.5709  1.5888  0.6629
  171MOL0     H23571   5.942  10.962   4.045 -1.9900 -1.3132 -0.2784
  171MOL0     H23572   6.161  11.016   4.145 -0.9074 -0.9471 -1.5611
  171MOL0     H23573   6.084  11.094   4.286  1.0611 -1.8379  0.0359
  171MOL0     H23574   6.013  11.284   4.124 -0.7676  0.4706 -2.9640
  171MOL0     H23575   6.082  11.195   3.996 -2.2203 -1.2222  0.0155
  171MOL0     H23576   6.259  11.272   4.232  0.3983 -1.8820 -0.0109
  171MOL0     H23577   6.227  11.364   4.082  2.2979 -0.5997  0.2817
  171MOL0     H23578   5.270  10.947   3.882  2.6574  1.9162  0.1425
  171MOL0     H23579   5.023  10.931   3.841  1.9546  0.7378 -0.5153
  171MOL0     H23580   4.543  10.748   4.222  1.9929  3.5466  1.4805
  171MOL0     H23581   4.306  10.791   4.203  0.6038  0.4501 -0.8530
  171MOL0     H23582   2.530  11.312   4.053  1.3044 -0.8822 -0.3517
  171MOL0     H23583   2.300  11.216   4.058  0.8138  3.9960 -0.3709
  171MOL0     H23584   1.996  10.948   4.311 -0.6949 -0.6075  1.0929
  171MOL0     H23585   1.783  10.876   4.345  0.7994  0.2220 -1.5985
  171MOL0     H23586   1.649  10.867   4.542  0.1131 -0.0358  0.3149
  171MOL0     H23587   1.471  10.884   4.560  0.7429  2.0703  0.6981
  171MOL0     H23588   1.582  10.804   4.288  0.5790 -2.0993 -0.3224
  171MOL0     H23589   1.417  10.808   4.342  0.1464 -0.7096 -0.1160
  171MOL0     H23590   1.553  10.585   4.336 -0.8233 -0.6633 -0.4440
  171MOL0     H23591   1.637  10.634   4.479 -0.5139 -0.1268  1.2580
  171MOL0     H23592   1.319  10.591   4.425 -1.0641 -2.2664 -0.2254
  171MOL0     H23593   1.376  10.659   4.577 -1.3446 -1.7329  0.4795
  171MOL0     H23594   1.512  10.267   4.658  2.3608 -2.2803 -1.9129
  171MOL0     H23595   1.622  11.265   4.388 -1.6559 -1.9737 -1.7525
  171MOL0     H23596   1.939  11.442   4.286  1.3139 -1.2057 -0.0213
  171MOL0     H23597   1.767  11.455   4.328 -0.7343 -2.2237 -3.0004
  171MOL0     H23598   1.885  11.424   4.458  1.5645  0.1197 -0.0847
  172MOL0     O23599  10.429  11.210   0.733  0.6207 -0.3816  0.8172
  172MOL0     C23600  10.313  11.214   0.785 -0.6557 -0.1586  0.4634
  172MOL0     O23601  10.290  11.192   0.914 -0.5881  0.1955 -0.2103
  172MOL0     C23602  10.397  11.216   0.993  0.0215  0.1698  0.3433
  172MOL0     C23603  10.437  11.345   1.033  0.5436  0.1225 -0.2163
  172MOL0     C23604  10.549  11.366   1.119  0.0840 -0.1117 -0.2331
  172MOL0     C23605  10.634  11.259   1.148 -0.0114  0.4334 -0.0494
  172MOL0     O23606  10.752  11.268   1.218  0.1057  0.2840 -0.0145
  172MOL0     C23607  10.825  11.390   1.233  0.8196 -0.2441 -0.7335
  172MOL0     C23608  10.939  11.380   1.345 -0.1950  0.7524 -0.4504
  172MOL0     C23609  10.965  11.519   1.419 -0.1773 -0.2273 -0.0456
  172MOL0     C23610  11.085  11.502   1.505 -0.0973  0.4028 -0.0600
  172MOL0     C23611  11.123  11.612   1.601  0.2487  0.3635 -0.7571
  172MOL0     C23612  11.038  11.604   1.729 -0.1184 -0.2621  0.6825
  172MOL0     C23613  11.089  11.683   1.844  0.7319  0.8987 -0.2513
  172MOL0     C23614  11.172  11.578   1.927 -0.1534 -0.7217  0.2738
  172MOL0     N23615  11.202  11.631   2.061 -0.0435 -0.5543  0.3511
  172MOL0     C23616  11.302  11.727   2.082 -0.5629  0.0601 -0.1039
  172MOL0     C23617  11.273  11.796   2.191  0.3658  0.2659  0.3577
  172MOL0     C23618  11.373  11.896   2.257 -0.6085  0.6136  0.6039
  172MOL0     C23619  11.350  11.904   2.408  0.3295  0.3227 -0.5665
  172MOL0     C23620  11.360  11.763   2.483 -0.7367  0.1285  0.7846
  172MOL0     C23621  11.488  11.688   2.451  0.8916 -0.1899  0.2109
  172MOL0     O23622  11.596  11.757   2.508 -0.2305 -0.4046  0.3383
  172MOL0     C23623  11.698  11.779   2.414  0.3695  0.4277  0.3572
  172MOL0     C23624  11.722  11.901   2.357 -0.1436 -0.2002 -0.3518
  172MOL0     C23625  11.822  11.912   2.259  0.0270  0.3993 -1.1812
  172MOL0     C23626  11.831  12.051   2.198  0.0809 -0.5750  0.0814
  172MOL0     C23627  11.909  11.809   2.237 -0.5254  0.3083 -0.1923
  172MOL0     C23628  12.012  11.816   2.133 -0.3390 -0.8234  0.6442
  172MOL0     O23629  12.140  11.792   2.172  0.0229 -0.1971  0.8541
  172MOL0     C23630  12.231  11.831   2.080  1.1880  0.4895 -0.3611
  172MOL0     C23631  12.295  11.736   2.002 -0.2554 -0.9741  0.2409
  172MOL0     C23632  12.398  11.761   1.916  0.6523  0.4074  0.1967
  172MOL0     C23633  12.456  11.884   1.922 -0.2376  0.5049 -0.4573
  172MOL0     O23634  12.566  11.920   1.849 -0.4594  0.6136 -0.0428
  172MOL0     C23635  12.686  11.842   1.890  0.5928 -0.7497 -0.9805
  172MOL0     C23636  12.718  11.730   1.784 -1.3318  0.4029 -0.8593
  172MOL0     C23637  12.868  11.677   1.793  0.6855 -0.7604  0.0591
  172MOL0     C23638  12.908  11.586   1.672  0.2956  0.7749  1.2547
  172MOL0     C23639  13.045  11.522   1.715  0.0771  0.5788 -0.5717
  172MOL0     C23640  13.091  11.441   1.598  0.1253  0.4376  0.3966
  172MOL0     C23641  13.217  11.362   1.633 -0.6760 -0.0311 -0.9456
  172MOL0     C23642  13.296  11.320   1.508  0.4093 -0.6806 -0.2579
  172MOL0    Cl23643  13.388  11.470   1.460  0.2011  0.1433 -0.3989
  172MOL0     C23644  12.389  11.979   2.000  0.8142 -0.1048 -0.4737
  172MOL0     C23645  12.272  11.962   2.072 -0.5046 -0.1241 -1.7649
  172MOL0     O23646  11.978  11.843   2.017 -0.4331  0.6571  0.0870
  172MOL0     C23647  11.904  11.685   2.306  0.2412 -0.2570 -1.0494
  172MOL0     C23648  11.792  11.669   2.396 -0.6157 -0.2712 -0.6899
  172MOL0     N23649  11.151  11.743   2.238 -0.0556 -0.4669  0.1906
  172MOL0     N23650  11.109  11.646   2.161  0.1334  0.1098 -0.2535
  172MOL0     C23651  10.597  11.134   1.111 -0.6297  0.1312 -0.0758
  172MOL0     C23652  10.484  11.112   1.026  0.8816 -0.4530  0.4328
  172MOL0     C23653  10.200  11.246   0.702  0.2625 -0.1097  0.2785
  172MOL0     C23654  10.186  11.167   0.586  0.6522  0.3475  0.3668
  172MOL0     C23655  10.079  11.189   0.501  0.2869 -0.1896  0.2818
  172MOL0     C23656   9.984  11.289   0.528 -0.3171 -0.6668 -0.0889
  172MOL0     O23657   9.904  11.332   0.423 -0.0507  0.7602 -0.5561
  172MOL0     C23658   9.807  11.235   0.371  0.1974 -0.2467  0.2227
  172MOL0     C23659   9.698  11.176   0.469 -0.7769  0.3035 -0.1227
  172MOL0     C23660   9.594  11.262   0.528 -0.0610  0.0210  0.7260
  172MOL0     C23661   9.506  11.301   0.413 -0.0353 -0.5382  0.2367
  172MOL0     C23662   9.387  11.368   0.453  0.5854 -0.2459 -0.1667
  172MOL0     C23663   9.295  11.440   0.485  0.6986 -0.4131 -0.3340
  172MOL0     C23664  10.004  11.374   0.642 -0.2397 -1.6729 -0.1922
  172MOL0     C23665  10.107  11.350   0.734  0.1895  0.6878 -0.1233
  172MOL0     C23666  10.107  11.427   0.863  0.5789 -0.1899 -0.2664
  172MOL0     H23667  10.378  11.434   1.012  0.6312  0.8142  2.1543
  172MOL0     H23668  10.580  11.461   1.161  0.3410  0.2049 -1.1040
  172MOL0     H23669  10.757  11.471   1.258 -0.7173 -1.9093  0.7929
  172MOL0     H23670  10.877  11.422   1.143  3.4581 -2.1714 -0.0316
  172MOL0     H23671  10.908  11.300   1.414 -0.2008  1.6058  0.5701
  172MOL0     H23672  11.026  11.345   1.290 -2.1809 -0.9962 -2.7032
  172MOL0     H23673  10.972  11.596   1.342  1.8137 -0.0917  0.2241
  172MOL0     H23674  10.875  11.543   1.477  1.9157  2.0928  2.6015
  172MOL0     H23675  11.078  11.406   1.557  0.5293 -2.8731 -5.2623
  172MOL0     H23676  11.167  11.486   1.434 -1.4506 -0.3950 -1.4917
  172MOL0     H23677  11.107  11.710   1.558 -2.6573 -0.9334 -2.8979
  172MOL0     H23678  11.230  11.604   1.626  0.3657  1.0833 -1.0125
  172MOL0     H23679  10.939  11.640   1.701  0.8370 -0.2742 -3.2472
  172MOL0     H23680  11.026  11.499   1.759 -1.3303  0.1681  1.8388
  172MOL0     H23681  11.009  11.725   1.905  0.6234  3.1230 -1.7925
  172MOL0     H23682  11.150  11.770   1.819 -1.1250  1.5503 -2.9324
  172MOL0     H23683  11.119  11.484   1.940 -1.0546 -0.6076 -2.0898
  172MOL0     H23684  11.263  11.552   1.871  0.5031  2.2333 -0.2063
  172MOL0     H23685  11.389  11.746   2.020  0.4922  0.2427  1.3869
  172MOL0     H23686  11.348  11.995   2.217 -1.4533  0.0711 -0.2562
  172MOL0     H23687  11.474  11.865   2.231 -1.0027 -0.4584  0.2540
  172MOL0     H23688  11.419  11.977   2.452 -0.6653  1.0825 -0.2355
  172MOL0     H23689  11.251  11.950   2.415  2.8910  7.0422 -0.5987
  172MOL0     H23690  11.375  11.789   2.588  0.2180 -0.7222  0.8737
  172MOL0     H23691  11.275  11.695   2.474 -0.0211 -1.0047  2.1546
  172MOL0     H23692  11.481  11.589   2.498 -1.2380  0.1322  0.6933
  172MOL0     H23693  11.488  11.666   2.344 -1.8968  1.6484 -0.2751
  172MOL0     H23694  11.657  11.987   2.372  2.9012  2.6202 -2.2258
  172MOL0     H23695  11.876  12.118   2.272 -0.0011 -1.0935  0.6111
  172MOL0     H23696  11.735  12.096   2.170  0.9128  0.4257 -1.2648
  172MOL0     H23697  11.906  12.056   2.119  1.2023  0.7355  1.1614
  172MOL0     H23698  12.247  11.638   2.000  1.5335 -1.8984  0.3896
  172MOL0     H23699  12.429  11.679   1.851 -0.6192 -0.2141  0.3370
  172MOL0     H23700  12.768  11.914   1.897  0.9019 -1.1866  0.3163
  172MOL0     H23701  12.685  11.800   1.992  0.3419 -0.5592 -0.9050
  172MOL0     H23702  12.647  11.647   1.795 -0.5813 -0.4857 -2.3229
  172MOL0     H23703  12.704  11.759   1.679 -1.4143  0.5223 -0.8155
  172MOL0     H23704  12.872  11.614   1.882  0.2453 -1.0956 -0.1547
  172MOL0     H23705  12.929  11.765   1.813  2.4442 -2.3450  2.1046
  172MOL0     H23706  12.909  11.643   1.579  4.0089 -0.4714  0.3715
  172MOL0     H23707  12.839  11.502   1.657  1.8511 -0.1761 -1.0846
  172MOL0     H23708  13.124  11.593   1.742  1.6235 -1.0753 -0.5361
  172MOL0     H23709  13.028  11.452   1.798 -0.8005 -0.8604 -1.9309
  172MOL0     H23710  13.101  11.508   1.512  1.6080  0.2846  0.4255
  172MOL0     H23711  13.015  11.370   1.565  1.0763 -0.0928 -0.7219
  172MOL0     H23712  13.186  11.272   1.688 -0.8125  0.8725  0.4935
  172MOL0     H23713  13.291  11.416   1.692  1.3962 -1.8237 -1.7572
  172MOL0     H23714  13.222  11.292   1.432 -2.2431  0.8181  1.6235
  172MOL0     H23715  13.360  11.231   1.517  2.0648  0.4689 -0.2589
  172MOL0     H23716  12.439  12.076   2.003 -0.3756  0.5859 -1.7268
  172MOL0     H23717  12.213  12.033   2.128 -1.6919 -1.7841 -0.8408
  172MOL0     H23718  11.968  11.600   2.285 -1.5450 -1.9677  0.0522
  172MOL0     H23719  11.773  11.580   2.455 -0.2613 -1.2780 -2.0194
  172MOL0     H23720  10.647  11.043   1.143 -1.2433  0.2530  1.3309
  172MOL0     H23721  10.461  11.007   1.007  1.7169 -0.3811 -1.1719
  172MOL0     H23722  10.243  11.077   0.568  2.4521  1.5399 -0.2996
  172MOL0     H23723  10.074  11.131   0.410 -0.9960  0.9849 -0.4443
  172MOL0     H23724   9.763  11.297   0.292 -1.6693 -0.2063  1.2586
  172MOL0     H23725   9.857  11.153   0.318  0.0672 -0.5639  0.5910
  172MOL0     H23726   9.754  11.120   0.545  2.9673  0.5599 -2.4525
  172MOL0     H23727   9.650  11.099   0.409  0.7318  1.0362 -2.4058
  172MOL0     H23728   9.545  11.197   0.601  2.1680 -4.2262 -1.1847
  172MOL0     H23729   9.641  11.350   0.573 -1.7101  1.8231 -0.8559
  172MOL0     H23730   9.465  11.206   0.377  1.8507 -0.8444 -1.2761
  172MOL0     H23731   9.552  11.351   0.328 -0.4821  2.3070  1.5401
  172MOL0     H23732   9.216  11.501   0.523  1.0443 -0.9814  1.3846
  172MOL0     H23733   9.938  11.461   0.648 -0.4480 -1.9273  2.0764
  172MOL0     H23734  10.100  11.354   0.944  0.7828 -2.0715 -1.8749
  172MOL0     H23735  10.197  11.486   0.882 -0.7844  1.3215  2.1296
  172MOL0     H23736  10.025  11.499   0.874  1.1042  0.2595  1.0128
  173MOL0     O23737   8.883   3.632   0.233  0.5144  1.1624 -0.0428
  173MOL0     C23738   8.794   3.544   0.225 -0.4534  0.4496 -0.3445
  173MOL0     O23739   8.814   3.408   0.210 -0.2932 -1.0649 -0.0854
  173MOL0     C23740   8.947   3.365   0.194  0.6228  0.0361  0.5279
  173MOL0     C23741   9.042   3.373   0.292  0.4056  0.1539  0.3123
  173MOL0     C23742   9.172   3.326   0.261  0.4742  1.4145 -0.9470
  173MOL0     C23743   9.202   3.273   0.126 -0.7579  0.2533 -0.3129
  173MOL0     O23744   9.323   3.218   0.088 -0.6532 -0.1715  0.0083
  173MOL0     C23745   9.424   3.291   0.149  0.0714 -0.1818  0.1893
  173MOL0     C23746   9.554   3.240   0.093 -0.2329 -0.2952  0.3722
  173MOL0     C23747   9.673   3.310   0.163 -1.0000  0.1542 -0.3721
  173MOL0     C23748   9.799   3.318   0.083  0.8159  0.1343  1.1303
  173MOL0     C23749   9.925   3.376   0.151 -0.3718  0.3153 -0.0973
  173MOL0     C23750   9.916   3.526   0.183 -0.0307  0.0814 -0.1495
  173MOL0     C23751  10.050   3.583   0.236 -0.3487  0.8749 -0.0119
  173MOL0     C23752  10.097   3.543   0.379 -0.2856 -0.0766  1.1036
  173MOL0     N23753  10.211   3.622   0.425 -0.6317 -0.7601 -0.0541
  173MOL0     C23754  10.345   3.587   0.415 -0.0193  0.1673  0.1272
  173MOL0     C23755  10.406   3.678   0.501  0.4333  1.2539  0.3638
  173MOL0     C23756  10.549   3.696   0.519  0.4316  0.3758  0.2167
  173MOL0     C23757  10.605   3.741   0.386 -0.0801  0.5299 -0.1051
  173MOL0     C23758  10.762   3.707   0.391  0.5714 -0.2860 -0.2200
  173MOL0     C23759  10.839   3.773   0.275 -0.0580  0.2033 -1.0263
  173MOL0     O23760  10.810   3.706   0.159 -0.4446 -0.4265  0.8194
  173MOL0     C23761  10.912   3.639   0.086 -0.2998  0.3100  0.3522
  173MOL0     C23762  11.045   3.628   0.123 -0.3187  0.3033 -0.7418
  173MOL0     C23763  11.133   3.530   0.061  0.9904  0.0048 -0.4782
  173MOL0     C23764  11.262   3.521   0.142  0.2183 -0.3550 -0.2172
  173MOL0     C23765  11.095   3.443  -0.045 -0.2817 -0.2074  0.6023
  173MOL0     C23766  11.170   3.343  -0.120  0.8902  0.4271 -0.3096
  173MOL0     O23767  11.102   3.263  -0.200  0.4882  0.5829  0.5680
  173MOL0     C23768  11.165   3.184  -0.302  0.1448 -1.0750 -0.5413
  173MOL0     C23769  11.144   3.048  -0.308  1.1260 -0.3524 -0.0590
  173MOL0     C23770  11.209   2.970  -0.404  0.4847 -0.0050 -0.1956
  173MOL0     C23771  11.299   3.024  -0.496 -0.1338 -0.7687 -0.6366
  173MOL0     O23772  11.361   2.939  -0.588  0.4896 -0.5597 -0.0194
  173MOL0     C23773  11.506   2.953  -0.596  0.9677 -0.2161  0.4951
  173MOL0     C23774  11.562   2.824  -0.650 -0.0345  0.8402 -0.3876
  173MOL0     C23775  11.714   2.816  -0.646  0.4549  0.6666  0.2129
  173MOL0     C23776  11.765   2.686  -0.710  0.3557  0.6158  0.3774
  173MOL0     C23777  11.915   2.695  -0.734  0.3966  0.3537 -0.1418
  173MOL0     C23778  11.960   2.608  -0.853  1.0910  1.0253 -0.0421
  173MOL0     C23779  12.091   2.659  -0.903  1.0794  0.0180  0.7635
  173MOL0     C23780  12.110   2.603  -1.045  0.4020  1.2113 -0.4129
  173MOL0    Cl23781  12.284   2.643  -1.078  0.1005 -0.2846 -0.4370
  173MOL0     C23782  11.326   3.164  -0.486  0.2246 -0.1183 -0.4977
  173MOL0     C23783  11.258   3.238  -0.395  0.6455  0.1402  0.0923
  173MOL0     O23784  11.296   3.333  -0.110  0.1016  0.3122 -0.8293
  173MOL0     C23785  10.963   3.461  -0.085  0.4059 -0.7405  0.3564
  173MOL0     C23786  10.877   3.559  -0.023  0.3204  1.0294  0.0010
  173MOL0     N23787  10.309   3.772   0.542  0.1498 -0.0969 -0.0909
  173MOL0     N23788  10.195   3.742   0.497 -1.2056  0.5420 -0.0317
  173MOL0     C23789   9.102   3.264   0.040  0.3658  0.4758 -0.6347
  173MOL0     C23790   8.970   3.307   0.067  0.1718  0.3302 -0.3678
  173MOL0     C23791   8.658   3.598   0.197  0.0566 -0.2328  0.1462
  173MOL0     C23792   8.559   3.502   0.147  0.9294  0.0903 -0.3133
  173MOL0     C23793   8.431   3.546   0.126  0.6422  0.1957  0.1539
  173MOL0     C23794   8.388   3.682   0.148 -0.1320  0.2963 -0.5080
  173MOL0     O23795   8.261   3.727   0.138  0.2937  0.2348 -0.2777
  173MOL0     C23796   8.155   3.624   0.126 -0.3137 -0.6285  0.0165
  173MOL0     C23797   8.019   3.696   0.109  0.1560  0.8913  0.3143
  173MOL0     C23798   7.913   3.597   0.116 -0.7151  0.3068 -0.3063
  173MOL0     C23799   7.772   3.662   0.124 -0.4687  0.6224  0.4565
  173MOL0     C23800   7.670   3.565   0.121  0.6716  0.0443 -0.3590
  173MOL0     C23801   7.574   3.494   0.117  0.3931 -0.0485 -0.7191
  173MOL0     C23802   8.481   3.770   0.200 -0.7506 -1.2763  0.7082
  173MOL0     C23803   8.620   3.734   0.220  0.2828 -0.1722 -0.0965
  173MOL0     C23804   8.713   3.842   0.281 -0.3683  0.5569 -0.2521
  173MOL0     H23805   9.032   3.431   0.383  0.1923  0.5152  0.0609
  173MOL0     H23806   9.246   3.325   0.340  0.2011  2.1105 -0.6776
  173MOL0     H23807   9.423   3.263   0.254 -3.2482 -1.1108  0.0040
  173MOL0     H23808   9.404   3.397   0.130 -2.6372 -0.7299 -0.3430
  173MOL0     H23809   9.559   3.131   0.092  0.7515 -0.2557  0.0911
  173MOL0     H23810   9.552   3.272  -0.012 -1.8253 -0.1643  0.4189
  173MOL0     H23811   9.640   3.411   0.189 -1.9379 -0.7080  2.1010
  173MOL0     H23812   9.701   3.265   0.259 -4.0291  1.6505  1.3743
  173MOL0     H23813   9.820   3.216   0.051 -1.8340  0.1135 -0.8460
  173MOL0     H23814   9.767   3.377  -0.003 -1.2812  1.0661  2.4551
  173MOL0     H23815  10.010   3.366   0.083 -0.6422  0.0767 -0.4001
  173MOL0     H23816   9.936   3.320   0.244  1.4391  1.5082  0.4601
  173MOL0     H23817   9.893   3.578   0.090 -0.6996  2.0077  1.0310
  173MOL0     H23818   9.830   3.544   0.248 -1.8473 -1.5015 -1.9773
  173MOL0     H23819  10.040   3.692   0.235  1.1761  1.1590 -4.1161
  173MOL0     H23820  10.138   3.576   0.172 -0.6476  4.3319 -1.0146
  173MOL0     H23821  10.020   3.560   0.455  0.3504  1.1150  1.5205
  173MOL0     H23822  10.124   3.437   0.374 -1.7338 -0.3938 -0.9031
  173MOL0     H23823  10.392   3.515   0.348 -1.1443 -1.1606  0.7083
  173MOL0     H23824  10.581   3.595   0.546 -3.3794 -0.3656  2.6110
  173MOL0     H23825  10.573   3.762   0.603  1.6676 -0.7203  0.7629
  173MOL0     H23826  10.569   3.676   0.307  2.7589 -2.6914  0.9948
  173MOL0     H23827  10.576   3.845   0.371  1.3495  1.5258  3.0554
  173MOL0     H23828  10.803   3.749   0.483  0.3408 -1.4148  0.4252
  173MOL0     H23829  10.780   3.599   0.400  3.7783  0.2573  1.3065
  173MOL0     H23830  10.793   3.871   0.259 -0.4650  0.7754  2.6789
  173MOL0     H23831  10.947   3.788   0.290 -0.0268 -1.9910  1.9517
  173MOL0     H23832  11.071   3.667   0.221  0.6941 -1.1646 -0.3776
  173MOL0     H23833  11.348   3.478   0.090  1.0080  1.3711 -0.3811
  173MOL0     H23834  11.244   3.452   0.226  2.5295 -2.3822 -1.2641
  173MOL0     H23835  11.294   3.613   0.191 -2.2372 -0.7263  2.4037
  173MOL0     H23836  11.067   3.007  -0.243  2.1712  0.3516  1.6953
  173MOL0     H23837  11.168   2.870  -0.409 -0.3670  0.1841  1.8412
  173MOL0     H23838  11.547   3.032  -0.660  2.5578  0.4422  2.2230
  173MOL0     H23839  11.536   2.952  -0.491 -1.5066 -0.6224  1.2739
  173MOL0     H23840  11.515   2.746  -0.589  2.3476  0.6371  1.3121
  173MOL0     H23841  11.527   2.801  -0.751 -1.6041 -0.8981  0.4832
  173MOL0     H23842  11.760   2.834  -0.549  0.9136 -0.9720  0.3198
  173MOL0     H23843  11.748   2.905  -0.701 -1.6956  0.8724 -0.9198
  173MOL0     H23844  11.713   2.659  -0.803  2.6302 -0.1883 -0.7320
  173MOL0     H23845  11.741   2.600  -0.648  0.1484  0.5278  0.1788
  173MOL0     H23846  11.941   2.800  -0.748 -0.5903  0.6303  0.0544
  173MOL0     H23847  11.972   2.668  -0.644  3.0555 -1.0032 -2.1182
  173MOL0     H23848  11.884   2.608  -0.932  0.3839  1.2382  0.6292
  173MOL0     H23849  11.968   2.506  -0.813 -1.3099 -0.1866 -2.2825
  173MOL0     H23850  12.172   2.636  -0.833 -0.2904  0.7748  2.7062
  173MOL0     H23851  12.078   2.767  -0.919  2.2541  0.0627 -0.0510
  173MOL0     H23852  12.052   2.663  -1.116  2.0273  3.4618  0.0582
  173MOL0     H23853  12.087   2.496  -1.052  1.2560  0.9372  0.6131
  173MOL0     H23854  11.396   3.206  -0.557 -0.1255 -2.4915 -2.3472
  173MOL0     H23855  11.269   3.346  -0.393  0.8949  0.1146  1.5347
  173MOL0     H23856  10.918   3.394  -0.157 -3.0288  0.3999  1.2357
  173MOL0     H23857  10.774   3.578  -0.052 -0.2245  3.4790  3.0172
  173MOL0     H23858   9.111   3.221  -0.060 -0.8773 -0.3682 -0.3994
  173MOL0     H23859   8.885   3.278   0.006  1.9552 -2.5615 -1.6977
  173MOL0     H23860   8.578   3.396   0.133  1.0976 -0.2888  2.2583
  173MOL0     H23861   8.362   3.472   0.088  0.7358  0.9991 -1.7081
  173MOL0     H23862   8.164   3.546   0.050 -0.6912  0.0924 -0.7805
  173MOL0     H23863   8.155   3.577   0.225  3.1593 -0.5258  0.1611
  173MOL0     H23864   8.020   3.745   0.011  1.5475 -1.3780 -0.8951
  173MOL0     H23865   8.012   3.769   0.190  0.4767 -1.3877  2.5184
  173MOL0     H23866   7.920   3.532   0.029 -3.8445  0.7820 -1.0407
  173MOL0     H23867   7.920   3.537   0.207  1.9572  0.9578  0.0116
  173MOL0     H23868   7.747   3.733   0.044 -0.5719  1.9423  1.6328
  173MOL0     H23869   7.756   3.726   0.211  2.3845  1.4481  0.4572
  173MOL0     H23870   7.490   3.428   0.120  0.3225  0.0652  0.8387
  173MOL0     H23871   8.446   3.871   0.215 -1.1733 -1.5816  1.8901
  173MOL0     H23872   8.805   3.857   0.224 -0.8530  0.8858 -0.9657
  173MOL0     H23873   8.662   3.938   0.291  1.6763  1.4925  2.1919
  173MOL0     H23874   8.724   3.791   0.377 -3.2258 -0.9396 -0.6254
  174MOL0     O23875   3.997   0.398   4.182  0.3652 -0.9874 -0.0563
  174MOL0     C23876   3.988   0.386   4.303  0.0570 -0.1252 -0.0049
  174MOL0     O23877   4.088   0.414   4.388  0.4919 -0.1439 -0.3341
  174MOL0     C23878   4.180   0.512   4.346 -0.6059 -0.3105 -0.4153
  174MOL0     C23879   4.135   0.639   4.306 -0.4371 -0.4576  0.3308
  174MOL0     C23880   4.223   0.743   4.268  0.2020 -0.1567  0.0795
  174MOL0     C23881   4.363   0.721   4.282 -0.1923  0.5967 -1.1153
  174MOL0     O23882   4.460   0.820   4.262 -0.0450  0.2461 -0.0692
  174MOL0     C23883   4.417   0.911   4.160 -0.2787  0.0913  0.6392
  174MOL0     C23884   4.538   0.977   4.087  0.3414  0.5700 -0.6384
  174MOL0     C23885   4.654   0.877   4.055 -0.3330 -0.2295 -0.5050
  174MOL0     C23886   4.768   0.958   3.984 -0.0054  0.0505 -0.3312
  174MOL0     C23887   4.866   0.864   3.917 -0.4443  0.6602  0.7850
  174MOL0     C23888   4.994   0.940   3.871 -1.1382  0.3384  0.4101
  174MOL0     C23889   5.098   0.849   3.800  0.4984  0.2866 -0.6872
  174MOL0     C23890   5.080   0.840   3.652  0.2966 -0.3473 -0.5771
  174MOL0     N23891   5.221   0.836   3.598 -0.4962 -1.2643 -0.4563
  174MOL0     C23892   5.299   0.730   3.591  0.0989  0.3046  0.9605
  174MOL0     C23893   5.417   0.772   3.546 -0.2746  0.0929 -0.4959
  174MOL0     C23894   5.532   0.683   3.533 -0.0339  0.2314  0.0297
  174MOL0     C23895   5.643   0.727   3.634 -0.0938  0.9078  0.1042
  174MOL0     C23896   5.596   0.729   3.786 -0.5029  0.0415  0.6189
  174MOL0     C23897   5.706   0.764   3.887 -0.1604  0.0997  0.3342
  174MOL0     O23898   5.822   0.681   3.871 -0.1385 -0.5282  0.0249
  174MOL0     C23899   5.820   0.555   3.925  0.5410  0.4324  0.7013
  174MOL0     C23900   5.811   0.540   4.060 -0.6988 -0.0876 -0.9785
  174MOL0     C23901   5.775   0.420   4.119  0.3159 -0.0712 -0.2579
  174MOL0     C23902   5.726   0.422   4.260 -0.2796 -0.4889 -0.1399
  174MOL0     C23903   5.787   0.299   4.048  0.0604  0.0041  0.6619
  174MOL0     C23904   5.806   0.173   4.120 -0.2936 -0.7766  0.1232
  174MOL0     O23905   5.880   0.158   4.226  0.3316  0.0364 -0.3549
  174MOL0     C23906   5.833   0.063   4.312  0.0310  0.2019 -0.1404
  174MOL0     C23907   5.699   0.026   4.337 -0.2970 -0.1578  0.6966
  174MOL0     C23908   5.664  -0.072   4.432  0.0994  0.0681  0.4268
  174MOL0     C23909   5.763  -0.148   4.500  0.1130 -0.0811 -0.0992
  174MOL0     O23910   5.729  -0.241   4.596  0.1610 -0.0722 -0.4796
  174MOL0     C23911   5.827  -0.349   4.625 -0.8015  0.2839 -0.5479
  174MOL0     C23912   5.938  -0.319   4.734  0.3805 -0.4601 -0.3879
  174MOL0     C23913   5.885  -0.237   4.849  0.0802  0.6630  0.3379
  174MOL0     C23914   6.006  -0.185   4.931  0.1829  0.0419  0.1643
  174MOL0     C23915   5.943  -0.078   5.031  0.7892  0.1877 -0.1695
  174MOL0     C23916   6.032  -0.065   5.156 -0.4337  0.4489  0.2093
  174MOL0     C23917   5.976   0.050   5.240 -0.0840  0.6604  0.6860
  174MOL0     C23918   6.084   0.090   5.339  0.3633  0.0476  0.0414
  174MOL0    Cl23919   6.137  -0.036   5.457  0.3663  0.0361 -0.0645
  174MOL0     C23920   5.897  -0.113   4.472 -0.0488 -0.1611 -0.0959
  174MOL0     C23921   5.930  -0.014   4.382 -1.0898 -0.4701 -0.7051
  174MOL0     O23922   5.794   0.079   4.040  0.3759 -0.0034  0.3559
  174MOL0     C23923   5.813   0.311   3.913 -0.7082 -0.3425  0.2194
  174MOL0     C23924   5.810   0.434   3.847 -0.6975  0.3252 -0.1863
  174MOL0     N23925   5.399   0.907   3.505 -0.5441 -0.2704 -0.7862
  174MOL0     N23926   5.289   0.943   3.544  0.0845 -0.2727  0.1192
  174MOL0     C23927   4.411   0.597   4.322  0.0923  0.3136  0.5674
  174MOL0     C23928   4.318   0.495   4.358  0.7629  0.4253  0.1970
  174MOL0     C23929   3.860   0.332   4.357  0.5052  0.1087  1.0079
  174MOL0     C23930   3.755   0.315   4.262  0.1485  0.3823 -0.0452
  174MOL0     C23931   3.622   0.291   4.302 -1.2719 -0.2122  0.4918
  174MOL0     C23932   3.599   0.262   4.432  0.2285 -0.1261  0.0686
  174MOL0     O23933   3.473   0.220   4.475 -0.0933 -0.3184  0.4329
  174MOL0     C23934   3.426   0.088   4.438  0.4438  0.2607 -0.5468
  174MOL0     C23935   3.466  -0.020   4.535 -0.7805 -0.0312  0.4089
  174MOL0     C23936   3.430   0.010   4.681 -0.0490  0.2624  0.7247
  174MOL0     C23937   3.276   0.046   4.705 -0.1549 -0.0093 -0.3018
  174MOL0     C23938   3.182  -0.065   4.679  0.2216 -0.0452 -0.5225
  174MOL0     C23939   3.109  -0.152   4.640 -0.4983  0.3425  0.4132
  174MOL0     C23940   3.704   0.269   4.528  0.4405  1.1596  0.0836
  174MOL0     C23941   3.832   0.309   4.494  0.1403  0.0826 -0.2541
  174MOL0     C23942   3.928   0.335   4.605  0.1249  0.5183  0.2190
  174MOL0     H23943   4.027   0.645   4.301 -0.3784 -0.1428 -1.2882
  174MOL0     H23944   4.179   0.838   4.241  3.1694  1.5845  0.9242
  174MOL0     H23945   4.358   0.994   4.200 -0.6458 -0.2373  0.7911
  174MOL0     H23946   4.374   0.863   4.072 -0.4851  1.2928  0.0614
  174MOL0     H23947   4.497   1.028   3.999 -1.2636  1.4761  0.5830
  174MOL0     H23948   4.583   1.049   4.156  2.9785 -2.2516  0.7860
  174MOL0     H23949   4.696   0.825   4.142  1.5413  2.0856  0.0890
  174MOL0     H23950   4.618   0.809   3.978 -3.2936  1.3353 -0.6241
  174MOL0     H23951   4.717   1.030   3.919 -0.5144  0.6904  0.7493
  174MOL0     H23952   4.810   1.037   4.048 -1.2686 -0.1111  0.7427
  174MOL0     H23953   4.827   0.805   3.833  0.4185  1.1359  0.0408
  174MOL0     H23954   4.891   0.792   3.996 -1.1226 -0.7797 -0.2813
  174MOL0     H23955   4.976   1.030   3.810 -1.3225  2.5149  3.4563
  174MOL0     H23956   5.041   0.988   3.957  0.3586  0.6671 -0.5631
  174MOL0     H23957   5.116   0.751   3.846  2.0446  0.6186 -0.5386
  174MOL0     H23958   5.192   0.901   3.819  2.5199 -3.0114 -0.7837
  174MOL0     H23959   5.036   0.744   3.624  3.5524 -2.4085  0.7840
  174MOL0     H23960   5.045   0.932   3.603  1.3497 -0.4841 -1.6521
  174MOL0     H23961   5.279   0.630   3.629  2.9347 -0.4621  0.7318
  174MOL0     H23962   5.581   0.687   3.435  1.7813 -2.0267  0.7678
  174MOL0     H23963   5.512   0.576   3.546 -2.6191  0.6707  0.1879
  174MOL0     H23964   5.708   0.639   3.630 -1.9805 -0.5204 -1.1729
  174MOL0     H23965   5.704   0.809   3.598  1.1408  0.2778  0.7179
  174MOL0     H23966   5.523   0.809   3.798 -0.3390  0.2466  0.2675
  174MOL0     H23967   5.561   0.628   3.808 -1.8130  0.7125  1.7528
  174MOL0     H23968   5.735   0.869   3.885  1.4118 -0.1970 -4.2130
  174MOL0     H23969   5.668   0.739   3.987 -3.7734  1.3870 -0.5540
  174MOL0     H23970   5.806   0.625   4.127 -2.7514  0.7470 -2.1070
  174MOL0     H23971   5.641   0.490   4.259  1.0867  1.3208 -1.3872
  174MOL0     H23972   5.809   0.464   4.318 -1.7289  2.4786 -0.0406
  174MOL0     H23973   5.710   0.324   4.305  4.4734 -0.6674  1.7061
  174MOL0     H23974   5.621   0.091   4.297  0.8141  0.6258 -0.2969
  174MOL0     H23975   5.561  -0.092   4.457  0.0265  0.6367  0.5957
  174MOL0     H23976   5.783  -0.444   4.654  1.3235  0.3495  3.6319
  174MOL0     H23977   5.878  -0.383   4.534 -0.9371 -3.8766  0.7347
  174MOL0     H23978   5.976  -0.413   4.775 -1.3172 -1.8741 -1.8724
  174MOL0     H23979   6.019  -0.260   4.692  2.3956 -1.8365  1.3626
  174MOL0     H23980   5.816  -0.298   4.907 -1.0214  0.3005 -1.2889
  174MOL0     H23981   5.826  -0.153   4.812  1.3340  1.8134  0.8596
  174MOL0     H23982   6.071  -0.129   4.864 -2.2135  2.1075 -0.6014
  174MOL0     H23983   6.054  -0.267   4.985 -0.2130  0.6409  1.4792
  174MOL0     H23984   5.942   0.021   4.983 -1.8651  0.0208 -0.5982
  174MOL0     H23985   5.837  -0.096   5.047  0.4020  3.5731  2.1990
  174MOL0     H23986   6.138  -0.051   5.133  0.1496 -0.3349  2.2155
  174MOL0     H23987   6.031  -0.155   5.219 -2.5425  1.3440  1.5531
  174MOL0     H23988   5.884   0.014   5.289 -1.0734  0.2034 -1.3917
  174MOL0     H23989   5.947   0.133   5.175  0.3534  0.9667  0.8770
  174MOL0     H23990   6.044   0.177   5.392 -2.5096 -0.2844 -1.3573
  174MOL0     H23991   6.168   0.132   5.283 -0.1721  1.9099  0.5366
  174MOL0     H23992   5.974  -0.155   4.535 -0.3236  0.4635  0.6801
  174MOL0     H23993   6.031   0.017   4.357 -1.9472  1.1607 -2.4162
  174MOL0     H23994   5.822   0.233   3.837 -2.1706  2.0009 -2.5579
  174MOL0     H23995   5.816   0.438   3.739  0.2379 -1.4841 -0.2295
  174MOL0     H23996   4.514   0.585   4.352  0.5034 -1.9309 -1.4624
  174MOL0     H23997   4.354   0.400   4.394  1.0521  0.4624  0.0140
  174MOL0     H23998   3.772   0.332   4.157 -3.1755 -2.0458 -1.1674
  174MOL0     H23999   3.538   0.275   4.236 -0.3881 -2.9003 -0.1018
  174MOL0     H24000   3.317   0.079   4.445  0.6087 -2.0495  0.1188
  174MOL0     H24001   3.455   0.063   4.335 -0.9508  1.2256 -1.1962
  174MOL0     H24002   3.575  -0.030   4.532 -0.7636  0.0016  0.8943
  174MOL0     H24003   3.427  -0.116   4.500 -1.3026  0.6867 -1.0697
  174MOL0     H24004   3.458  -0.073   4.746 -3.3919 -2.0737 -0.5349
  174MOL0     H24005   3.488   0.098   4.713  1.6302 -0.7321  0.5061
  174MOL0     H24006   3.239   0.136   4.657 -0.1141  0.6847  0.9312
  174MOL0     H24007   3.260   0.063   4.812 -0.9851 -2.0616 -0.0387
  174MOL0     H24008   3.041  -0.231   4.613  1.7840 -1.5169 -0.2092
  174MOL0     H24009   3.682   0.239   4.630 -0.0447 -0.3656 -0.4414
  174MOL0     H24010   4.017   0.273   4.592  0.3273  0.9481 -0.5899
  174MOL0     H24011   3.960   0.439   4.590 -0.1533  0.6764  0.7092
  174MOL0     H24012   3.878   0.331   4.702 -0.7248 -0.0693 -0.2309
  175MOL0     O24013   0.649  10.414   5.172  1.0301 -0.1012  0.2011
  175MOL0     C24014   0.630  10.464   5.284 -0.6836  0.2377 -0.1369
  175MOL0     O24015   0.732  10.503   5.364  0.0617  0.4743  0.5001
  175MOL0     C24016   0.862  10.463   5.332  0.0741  0.4770 -0.9443
  175MOL0     C24017   0.899  10.323   5.349  0.6272  0.3264  0.6355
  175MOL0     C24018   1.028  10.285   5.314  0.0794  0.5466 -0.1526
  175MOL0     C24019   1.122  10.378   5.272 -0.9769  0.0595  0.3680
  175MOL0     O24020   1.245  10.331   5.273 -0.4624  0.2112 -0.2782
  175MOL0     C24021   1.347  10.438   5.282  0.1183  1.5343 -0.8967
  175MOL0     C24022   1.485  10.378   5.318  0.0469  0.6757  0.0936
  175MOL0     C24023   1.563  10.491   5.378  0.5852 -0.3948 -0.5374
  175MOL0     C24024   1.702  10.442   5.446  0.6647 -0.6479  0.1609
  175MOL0     C24025   1.792  10.563   5.459  0.1309 -0.1541 -0.4304
  175MOL0     C24026   1.718  10.684   5.531  0.7333  0.5095 -0.1621
  175MOL0     C24027   1.822  10.782   5.596 -0.2700  0.2905 -0.1258
  175MOL0     C24028   1.899  10.727   5.711  0.1417  0.0102 -1.0798
  175MOL0     N24029   2.048  10.750   5.699 -0.6017  0.8742  0.1043
  175MOL0     C24030   2.121  10.867   5.701 -0.1474  0.8991 -0.6437
  175MOL0     C24031   2.239  10.836   5.650 -0.5741  0.2264 -0.6268
  175MOL0     C24032   2.344  10.952   5.644 -0.5455  0.7327  0.2095
  175MOL0     C24033   2.373  10.990   5.507  1.1864  0.2168 -0.5320
  175MOL0     C24034   2.462  11.115   5.494 -0.4042 -0.3421  0.2709
  175MOL0     C24035   2.401  11.253   5.500  0.1915  0.0938  0.9976
  175MOL0     O24036   2.396  11.295   5.640  0.4480  0.1400  0.4609
  175MOL0     C24037   2.516  11.319   5.702  0.7113 -0.4850 -0.1142
  175MOL0     C24038   2.556  11.242   5.808  0.2397 -0.3259 -0.1206
  175MOL0     C24039   2.678  11.272   5.879 -0.3662 -0.3343  0.2843
  175MOL0     C24040   2.721  11.172   5.982 -0.9304  0.6644 -0.5348
  175MOL0     C24041   2.756  11.382   5.847  0.4246  0.0013 -0.3268
  175MOL0     C24042   2.880  11.434   5.914 -0.1549 -0.5915  0.9141
  175MOL0     O24043   2.948  11.356   6.006 -0.2365  0.0096 -0.1135
  175MOL0     C24044   3.064  11.395   6.066  0.1649  1.2225  0.3249
  175MOL0     C24045   3.074  11.376   6.204  0.0926 -0.1852  0.1204
  175MOL0     C24046   3.192  11.426   6.268  1.0034 -0.5796 -0.6372
  175MOL0     C24047   3.300  11.476   6.197 -0.3370 -0.3240 -0.6804
  175MOL0     O24048   3.417  11.518   6.255 -0.0552  0.2497  0.1167
  175MOL0     C24049   3.466  11.476   6.387 -0.0875  0.5889 -0.3496
  175MOL0     C24050   3.598  11.545   6.413  0.6432 -0.2748 -0.0810
  175MOL0     C24051   3.704  11.510   6.315 -0.4217  0.6245  0.4710
  175MOL0     C24052   3.801  11.626   6.279 -0.3320 -0.6406  0.5634
  175MOL0     C24053   3.916  11.598   6.184  0.3763  0.2336  0.9781
  175MOL0     C24054   3.999  11.725   6.179 -0.3442 -0.1471 -0.2850
  175MOL0     C24055   4.056  11.759   6.047 -0.6214  0.2447  0.3519
  175MOL0     C24056   4.137  11.644   5.986  0.3039  0.3767 -0.1752
  175MOL0    Cl24057   4.247  11.566   6.097  0.2461  0.0245 -0.0418
  175MOL0     C24058   3.284  11.481   6.059  0.4223 -0.1264  0.6405
  175MOL0     C24059   3.168  11.443   5.988  0.6717 -0.5922  0.1678
  175MOL0     O24060   2.922  11.543   5.876 -0.0302  0.3609  0.1829
  175MOL0     C24061   2.709  11.459   5.736 -0.0764  0.3867 -0.5729
  175MOL0     C24062   2.595  11.426   5.666 -0.2523  0.0638 -0.5890
  175MOL0     N24063   2.243  10.699   5.616 -0.0894  0.1928 -0.1004
  175MOL0     N24064   2.124  10.649   5.645  0.2037 -0.3832  0.1881
  175MOL0     C24065   1.078  10.508   5.235 -0.0907 -0.2973 -0.0476
  175MOL0     C24066   0.947  10.555   5.270 -0.2763  0.1626 -0.0691
  175MOL0     C24067   0.495  10.482   5.343 -0.5086  0.4195  0.6427
  175MOL0     C24068   0.482  10.514   5.477  0.0805  0.7174  0.1507
  175MOL0     C24069   0.360  10.536   5.538  0.3881  0.0298  0.1073
  175MOL0     C24070   0.245  10.537   5.459 -0.0755 -0.2651  0.3821
  175MOL0     O24071   0.121  10.581   5.492  0.4852  1.0889 -0.4599
  175MOL0     C24072   0.084  10.584   5.634 -0.2294 -0.5292  0.1239
  175MOL0     C24073   0.054  10.447   5.700  0.1503 -1.3190 -0.5082
  175MOL0     C24074  -0.048  10.362   5.627 -0.0933  0.8426 -0.5402
  175MOL0     C24075  -0.076  10.242   5.710  0.4558  0.2152  0.5548
  175MOL0     C24076  -0.196  10.159   5.669 -0.6264 -0.0669 -0.0413
  175MOL0     C24077  -0.286  10.084   5.643 -0.3047  0.9591  0.8147
  175MOL0     C24078   0.249  10.492   5.327 -0.1455  0.0478  0.5356
  175MOL0     C24079   0.373  10.472   5.263 -0.7387 -0.2547 -0.1613
  175MOL0     C24080   0.361  10.431   5.115  1.0707 -0.0576 -0.8040
  175MOL0     H24081   0.830  10.249   5.387 -1.5849  1.2419 -1.3894
  175MOL0     H24082   1.058  10.182   5.326  1.5430  0.8948 -0.6654
  175MOL0     H24083   1.320  10.517   5.353  1.2476 -0.3493  1.8081
  175MOL0     H24084   1.358  10.487   5.185 -0.4057  1.4147 -1.0177
  175MOL0     H24085   1.478  10.293   5.387 -1.5207 -0.6974 -1.6428
  175MOL0     H24086   1.548  10.343   5.235  0.5649 -0.2968  0.8677
  175MOL0     H24087   1.584  10.564   5.299  0.6788 -0.6481 -0.7468
  175MOL0     H24088   1.506  10.532   5.462  3.1813  0.9265  0.7275
  175MOL0     H24089   1.678  10.411   5.548 -1.8230 -1.8354 -0.6901
  175MOL0     H24090   1.754  10.363   5.392  3.3355  1.2622 -0.2277
  175MOL0     H24091   1.827  10.586   5.358 -1.5655 -1.8468 -1.4642
  175MOL0     H24092   1.882  10.539   5.518 -0.9200 -0.4625  1.1160
  175MOL0     H24093   1.659  10.736   5.455  0.7719 -0.2553 -0.7183
  175MOL0     H24094   1.657  10.652   5.616  1.7753  1.6236  1.0626
  175MOL0     H24095   1.772  10.870   5.638  0.6330  0.6383  0.2534
  175MOL0     H24096   1.884  10.834   5.522  1.6454  1.3021  2.0433
  175MOL0     H24097   1.866  10.775   5.803 -2.2761 -2.4080 -0.5609
  175MOL0     H24098   1.888  10.618   5.718  1.0642 -0.1269 -1.6296
  175MOL0     H24099   2.087  10.965   5.732  0.0680  0.6447  0.4401
  175MOL0     H24100   2.431  10.909   5.696 -1.8936 -1.4073  0.8308
  175MOL0     H24101   2.314  11.047   5.689 -0.1967  1.2620 -0.6412
  175MOL0     H24102   2.416  10.903   5.457  1.1521  0.9551 -1.9058
  175MOL0     H24103   2.278  11.007   5.456  0.0155 -0.9649  1.1225
  175MOL0     H24104   2.542  11.102   5.567 -1.8880  1.6715  2.3864
  175MOL0     H24105   2.509  11.107   5.396  3.5358 -1.6232  2.0505
  175MOL0     H24106   2.450  11.321   5.430 -1.7008  1.9804  1.3945
  175MOL0     H24107   2.298  11.249   5.464 -0.0919  0.7668  1.6976
  175MOL0     H24108   2.501  11.152   5.836  1.6830 -1.6118 -1.2275
  175MOL0     H24109   2.805  11.109   5.951 -1.4394 -0.0368 -0.5096
  175MOL0     H24110   2.641  11.102   6.007  0.6061 -1.3483 -0.9505
  175MOL0     H24111   2.748  11.225   6.074  2.2244 -1.0025 -0.3592
  175MOL0     H24112   2.995  11.334   6.266  1.0908  0.4612  1.9050
  175MOL0     H24113   3.209  11.422   6.375 -0.9674  0.1572 -0.2654
  175MOL0     H24114   3.395  11.498   6.467  1.8114  0.6836  1.4183
  175MOL0     H24115   3.501  11.372   6.392 -1.3889  0.1642  0.2947
  175MOL0     H24116   3.578  11.651   6.398 -0.5407 -0.6031 -1.0125
  175MOL0     H24117   3.636  11.511   6.510  3.2938 -0.6761 -1.1810
  175MOL0     H24118   3.664  11.479   6.218  1.9797  1.2967 -0.8347
  175MOL0     H24119   3.760  11.423   6.353  0.5067  0.3800 -1.3554
  175MOL0     H24120   3.834  11.672   6.373 -1.7413  1.0353  0.2995
  175MOL0     H24121   3.739  11.704   6.234 -0.8060 -0.9816  0.6205
  175MOL0     H24122   3.979  11.513   6.211 -0.2326 -0.5536 -0.0329
  175MOL0     H24123   3.878  11.573   6.084  0.8719 -1.1364  1.1157
  175MOL0     H24124   4.060  11.726   6.270 -1.9358  0.4784  0.8368
  175MOL0     H24125   3.924  11.803   6.198  1.1585  2.1235 -2.9181
  175MOL0     H24126   4.120  11.847   6.056  0.9192 -0.9256  1.1835
  175MOL0     H24127   3.972  11.798   5.989  0.1354  0.3701 -0.6832
  175MOL0     H24128   4.197  11.686   5.905  2.5476  0.4128  1.4414
  175MOL0     H24129   4.082  11.566   5.931 -0.8121  2.2720 -1.8980
  175MOL0     H24130   3.370  11.501   5.996 -0.1760 -0.8588 -0.4378
  175MOL0     H24131   3.157  11.458   5.881 -3.8773  1.5846  0.7031
  175MOL0     H24132   2.761  11.550   5.708 -1.8823  1.8276  0.5115
  175MOL0     H24133   2.553  11.492   5.591 -1.0228 -0.1373 -0.3453
  175MOL0     H24134   1.146  10.582   5.193  0.9964 -0.6318  1.0686
  175MOL0     H24135   0.923  10.658   5.248 -4.9416 -0.8953 -1.0923
  175MOL0     H24136   0.557  10.527   5.554  1.3896 -3.6096 -0.1327
  175MOL0     H24137   0.359  10.560   5.644 -1.2526  0.7726 -0.0399
  175MOL0     H24138   0.160  10.628   5.699  0.9863 -0.1569 -1.4947
  175MOL0     H24139  -0.012  10.635   5.650 -0.0913 -0.0273 -0.6203
  175MOL0     H24140   0.029  10.486   5.799 -0.3220  0.1477 -1.1810
  175MOL0     H24141   0.149  10.394   5.716  1.9708  1.2789 -1.9615
  175MOL0     H24142  -0.143  10.407   5.599 -0.1074 -1.0949 -4.1397
  175MOL0     H24143   0.002  10.330   5.535  0.0090 -0.1649 -0.1388
  175MOL0     H24144  -0.099  10.283   5.809 -2.0690 -0.4819  0.3406
  175MOL0     H24145   0.010  10.176   5.719 -0.1249 -0.7655 -0.7269
  175MOL0     H24146  -0.356  10.006   5.620 -2.3077  2.3368  1.8629
  175MOL0     H24147   0.154  10.481   5.276 -0.2044 -0.8381  0.8195
  175MOL0     H24148   0.434  10.487   5.056  0.0447  1.9347 -0.2570
  175MOL0     H24149   0.387  10.328   5.087  0.4074  0.4468 -3.6557
  175MOL0     H24150   0.264  10.459   5.073  0.6843 -1.3394 -0.8042
  176MOL0     O24151   6.322   5.245  11.040 -0.0061 -0.4007  0.2204
  176MOL0     C24152   6.296   5.335  10.961  0.2643 -0.2595 -0.3085
  176MOL0     O24153   6.355   5.358  10.835  0.1457  0.0478  0.0041
  176MOL0     C24154   6.462   5.277  10.811  0.2935  0.6820  0.2879
  176MOL0     C24155   6.452   5.146  10.765 -0.5098  0.2530 -0.5348
  176MOL0     C24156   6.559   5.074  10.727  0.4022 -0.1431 -0.2672
  176MOL0     C24157   6.692   5.132  10.735 -0.4903 -0.1301  0.2051
  176MOL0     O24158   6.817   5.071  10.703 -0.2407  0.1921  0.5755
  176MOL0     C24159   6.824   4.932  10.682  0.8181  1.3319  0.1223
  176MOL0     C24160   6.954   4.893  10.611 -0.5304  0.5632  0.9536
  176MOL0     C24161   7.069   4.913  10.710 -0.0892 -0.1811  0.2871
  176MOL0     C24162   7.215   4.892  10.638  0.6656  0.8639  1.0623
  176MOL0     C24163   7.342   4.922  10.725  0.9091 -0.1217  0.1156
  176MOL0     C24164   7.461   4.971  10.650 -0.3467  0.6997  0.3573
  176MOL0     C24165   7.591   4.963  10.729 -0.0597 -0.1472  0.9047
  176MOL0     C24166   7.581   5.048  10.854 -0.2992 -1.0894 -0.2625
  176MOL0     N24167   7.693   5.034  10.957  0.2498 -0.0139  0.3221
  176MOL0     C24168   7.775   4.916  10.965  0.4384 -0.2190  0.2285
  176MOL0     C24169   7.846   4.928  11.076  0.2703 -0.7631 -0.1515
  176MOL0     C24170   7.937   4.823  11.130 -0.1892  0.2748 -0.4009
  176MOL0     C24171   8.071   4.895  11.166  0.4239  0.2057 -0.0195
  176MOL0     C24172   8.183   4.884  11.067  0.5529  0.1620 -0.3776
  176MOL0     C24173   8.298   4.971  11.108 -0.0348 -0.7186  0.2299
  176MOL0     O24174   8.341   4.936  11.242  0.4240  0.2402  0.1844
  176MOL0     C24175   8.462   4.985  11.270  0.4529  0.2989 -0.0870
  176MOL0     C24176   8.480   5.124  11.270  0.3778  0.6260 -0.0050
  176MOL0     C24177   8.604   5.178  11.308  0.8720  0.1533 -0.4014
  176MOL0     C24178   8.616   5.329  11.320 -0.5120  0.4548 -0.1603
  176MOL0     C24179   8.711   5.091  11.345 -0.7188 -0.7534 -0.1111
  176MOL0     C24180   8.858   5.132  11.370  0.0874 -0.1327  1.2206
  176MOL0     O24181   8.959   5.036  11.387 -0.0918  0.4193 -0.1575
  176MOL0     C24182   9.094   5.066  11.416 -0.0057 -0.0837 -0.1477
  176MOL0     C24183   9.164   4.975  11.492  0.0291  0.4068  0.4122
  176MOL0     C24184   9.289   5.002  11.546 -0.1747  0.2974 -0.4613
  176MOL0     C24185   9.347   5.121  11.512  0.0756 -0.2142  0.6421
  176MOL0     O24186   9.465   5.156  11.573 -0.2521 -0.1193 -0.5187
  176MOL0     C24187   9.570   5.066  11.533 -0.9386 -1.0579 -0.9474
  176MOL0     C24188   9.706   5.135  11.544 -0.9055  0.2072  0.2102
  176MOL0     C24189   9.724   5.257  11.458 -0.0887  0.4607 -0.3159
  176MOL0     C24190   9.719   5.241  11.307 -0.2014 -0.1880 -1.0040
  176MOL0     C24191   9.741   5.372  11.233  0.0099 -0.4035 -1.0110
  176MOL0     C24192   9.876   5.435  11.242 -0.4091 -0.9384 -0.1869
  176MOL0     C24193   9.881   5.571  11.178 -0.1747 -0.3655 -0.1833
  176MOL0     C24194  10.005   5.651  11.193 -0.3050  0.3526  0.2605
  176MOL0    Cl24195  10.047   5.662  11.358  0.1360 -0.0457 -0.0691
  176MOL0     C24196   9.285   5.217  11.431 -0.5187  0.9510  0.4008
  176MOL0     C24197   9.157   5.193  11.388 -1.0755 -0.0111 -0.0400
  176MOL0     O24198   8.884   5.252  11.378  0.4293 -0.0656 -0.1968
  176MOL0     C24199   8.691   4.957  11.349  0.3156  0.4726  0.0249
  176MOL0     C24200   8.569   4.906  11.313 -0.3830  0.1946  0.1700
  176MOL0     N24201   7.807   5.054  11.131  0.2003  0.3613 -0.6913
  176MOL0     N24202   7.722   5.112  11.060 -0.4161  0.0049  0.2694
  176MOL0     C24203   6.705   5.265  10.771 -0.6796  0.1415 -0.5689
  176MOL0     C24204   6.590   5.334  10.809 -0.4438 -0.4200  0.0029
  176MOL0     C24205   6.174   5.414  10.990  0.1348 -0.1741 -0.1847
  176MOL0     C24206   6.103   5.462  10.881  0.4151  0.3988 -0.6555
  176MOL0     C24207   5.976   5.511  10.899 -0.4559  0.2905 -0.4594
  176MOL0     C24208   5.929   5.524  11.030  0.2897  0.0705  1.2116
  176MOL0     O24209   5.799   5.558  11.057 -0.5291 -0.3221  0.5420
  176MOL0     C24210   5.706   5.457  11.012  0.4948 -0.7364  0.5565
  176MOL0     C24211   5.602   5.403  11.117 -0.0790 -0.6456 -0.8852
  176MOL0     C24212   5.520   5.509  11.173  0.1418  0.4057 -0.2586
  176MOL0     C24213   5.403   5.438  11.235 -0.7560  0.3622  0.7936
  176MOL0     C24214   5.324   5.536  11.301 -0.6288 -0.1774  0.6854
  176MOL0     C24215   5.262   5.616  11.363  0.6695 -0.2351  0.2699
  176MOL0     C24216   6.006   5.495  11.145 -0.0477 -0.5279  0.7149
  176MOL0     C24217   6.126   5.427  11.127 -0.0829 -0.1263  0.2376
  176MOL0     C24218   6.198   5.379  11.246  0.0082 -0.3030  0.3455
  176MOL0     H24219   6.360   5.092  10.787 -0.4148  1.0391  2.0808
  176MOL0     H24220   6.537   4.974  10.690 -0.3580  0.1740 -0.7007
  176MOL0     H24221   6.734   4.917  10.621  0.7968 -2.2537  0.8181
  176MOL0     H24222   6.810   4.886  10.780 -0.9948  3.1411  0.7898
  176MOL0     H24223   6.944   4.788  10.585 -0.5283  0.3478  1.8193
  176MOL0     H24224   6.968   4.954  10.521 -1.9545 -0.4244  0.0135
  176MOL0     H24225   7.060   5.011  10.758 -3.5013  0.8813 -2.1251
  176MOL0     H24226   7.056   4.846  10.795 -2.7825 -0.5176 -0.3036
  176MOL0     H24227   7.215   4.788  10.603 -0.2172  1.5382 -1.1082
  176MOL0     H24228   7.205   4.950  10.546 -1.4540  1.5333  1.6618
  176MOL0     H24229   7.367   4.826  10.771  0.4206 -0.6165 -0.6267
  176MOL0     H24230   7.323   5.003  10.796  1.8760  0.8430 -0.6898
  176MOL0     H24231   7.479   4.909  10.561 -0.0680 -0.0577  0.9237
  176MOL0     H24232   7.449   5.074  10.615  5.2432  1.6919  0.3906
  176MOL0     H24233   7.676   4.993  10.668 -0.6293 -0.7836 -0.2234
  176MOL0     H24234   7.606   4.860  10.762 -0.1258  0.2757  2.3497
  176MOL0     H24235   7.564   5.153  10.830 -2.6905 -0.4466  3.3930
  176MOL0     H24236   7.483   5.030  10.901 -0.0198 -2.4144 -0.1475
  176MOL0     H24237   7.782   4.834  10.893 -0.9473  0.0237 -0.2028
  176MOL0     H24238   7.941   4.742  11.056 -0.7445 -1.4858  1.4205
  176MOL0     H24239   7.884   4.798  11.222 -2.9821 -0.4766 -2.1035
  176MOL0     H24240   8.051   5.002  11.181 -1.0877 -0.1426  0.6194
  176MOL0     H24241   8.093   4.860  11.267 -1.3499  0.3521  0.4643
  176MOL0     H24242   8.205   4.778  11.051 -1.5201 -0.3306 -0.2285
  176MOL0     H24243   8.138   4.925  10.976 -2.5365 -1.4251  0.2948
  176MOL0     H24244   8.372   4.951  11.030  2.4603 -2.2359  2.8043
  176MOL0     H24245   8.274   5.077  11.096  0.0790 -0.6044  0.9452
  176MOL0     H24246   8.400   5.186  11.229  0.7825  0.9395 -0.3313
  176MOL0     H24247   8.687   5.376  11.251 -0.6047  0.1489 -0.4666
  176MOL0     H24248   8.648   5.352  11.422 -0.1886  3.1542 -0.8151
  176MOL0     H24249   8.516   5.373  11.316 -1.4325 -1.4973  0.0145
  176MOL0     H24250   9.130   4.878  11.526  2.3509 -0.1562  1.3715
  176MOL0     H24251   9.331   4.923  11.607 -2.8941 -1.1567 -0.3152
  176MOL0     H24252   9.572   4.981  11.601 -1.4309  0.9661  1.8127
  176MOL0     H24253   9.547   5.039  11.430 -2.5162  1.0199 -1.2094
  176MOL0     H24254   9.717   5.166  11.649 -1.8489 -0.2163  0.4400
  176MOL0     H24255   9.778   5.056  11.517 -1.9976 -0.3228 -1.2806
  176MOL0     H24256   9.820   5.303  11.484 -0.2575  1.2384 -1.0310
  176MOL0     H24257   9.649   5.334  11.475 -0.6346 -0.7661  4.0670
  176MOL0     H24258   9.623   5.196  11.280 -1.5491  2.8098 -1.6330
  176MOL0     H24259   9.794   5.168  11.272  1.9801 -0.3581  3.3104
  176MOL0     H24260   9.729   5.339  11.129 -1.4898 -0.3653 -0.8772
  176MOL0     H24261   9.663   5.449  11.240  1.9320  2.0056 -3.8397
  176MOL0     H24262   9.943   5.358  11.201  1.6870  0.2257  0.8677
  176MOL0     H24263   9.893   5.444  11.350 -0.6609 -0.1121 -0.2130
  176MOL0     H24264   9.797   5.634  11.210 -0.3638  0.9543 -2.9397
  176MOL0     H24265   9.872   5.552  11.070  0.0282  0.1146 -0.2897
  176MOL0     H24266   9.975   5.751  11.159  1.5244  0.6526 -0.5615
  176MOL0     H24267  10.082   5.611  11.127 -1.6487  4.5680 -4.4889
  176MOL0     H24268   9.349   5.297  11.395 -1.1592 -0.0021 -3.2148
  176MOL0     H24269   9.110   5.272  11.330 -1.6757  0.2280  0.7563
  176MOL0     H24270   8.765   4.886  11.383 -1.6813 -0.2487  3.3247
  176MOL0     H24271   8.561   4.798  11.320 -1.5754  0.3391  1.2152
  176MOL0     H24272   6.807   5.301  10.784 -0.7671 -0.1701  1.3696
  176MOL0     H24273   6.593   5.435  10.850  1.0558 -1.5162  2.8637
  176MOL0     H24274   6.138   5.450  10.779  0.9777  0.6006 -0.4861
  176MOL0     H24275   5.906   5.525  10.817 -0.6719  0.3838 -0.2594
  176MOL0     H24276   5.638   5.496  10.937 -1.6603 -1.7981  1.8583
  176MOL0     H24277   5.751   5.370  10.962  0.1400 -0.1635 -0.7817
  176MOL0     H24278   5.658   5.355  11.197 -2.3167 -2.0969 -0.0843
  176MOL0     H24279   5.547   5.322  11.068  2.2713 -1.8663 -1.6546
  176MOL0     H24280   5.589   5.554  11.245  2.4289 -0.9516 -1.4959
  176MOL0     H24281   5.500   5.577  11.089 -0.2774 -1.8259 -2.0606
  176MOL0     H24282   5.448   5.369  11.306  0.2067 -0.9773 -1.0134
  176MOL0     H24283   5.348   5.379  11.161 -1.4531  0.1113  1.4946
  176MOL0     H24284   5.191   5.677  11.415 -0.3957 -1.2797  0.0722
  176MOL0     H24285   5.970   5.525  11.243  0.9108 -0.1756  0.9748
  176MOL0     H24286   6.183   5.275  11.278  4.3247 -1.1302  0.4100
  176MOL0     H24287   6.305   5.397  11.230  0.0749 -1.5658 -0.8197
  176MOL0     H24288   6.159   5.441  11.327 -0.8020 -3.2125  2.3598
  177MOL0     O24289   9.040   5.041   4.189  0.4681  0.7935 -0.4491
  177MOL0     C24290   8.979   4.979   4.103 -0.3893 -0.7167  0.7571
  177MOL0     O24291   9.020   4.961   3.970 -0.3218 -0.3764 -0.6608
  177MOL0     C24292   9.138   5.013   3.928  0.5972  0.4627 -0.3786
  177MOL0     C24293   9.259   4.950   3.922  0.8178  1.0133  0.8924
  177MOL0     C24294   9.383   5.005   3.886  0.5853  0.3330 -0.2702
  177MOL0     C24295   9.384   5.135   3.849  0.1992  0.6625  0.2910
  177MOL0     O24296   9.498   5.209   3.823 -0.3216  0.1103 -0.2258
  177MOL0     C24297   9.570   5.146   3.721 -0.9232 -0.1858  0.0334
  177MOL0     C24298   9.676   5.238   3.674  0.8288 -0.1705 -0.2669
  177MOL0     C24299   9.710   5.196   3.533 -0.3901 -0.1829 -0.2697
  177MOL0     C24300   9.612   5.245   3.420  0.0256  0.2382  0.7314
  177MOL0     C24301   9.686   5.244   3.279 -0.3275 -0.1181  0.2557
  177MOL0     C24302   9.776   5.372   3.268 -0.1529  0.3172  0.8550
  177MOL0     C24303   9.882   5.367   3.153  0.1064 -0.1048 -0.1297
  177MOL0     C24304   9.994   5.259   3.161 -0.7331  0.5733 -0.2148
  177MOL0     N24305  10.070   5.265   3.288  0.2021 -0.2283  0.9077
  177MOL0     C24306  10.149   5.373   3.329 -0.3436  0.9573  0.3517
  177MOL0     C24307  10.191   5.317   3.442 -0.6375 -0.0419 -0.3010
  177MOL0     C24308  10.291   5.392   3.522 -0.0345  0.0361 -0.2683
  177MOL0     C24309  10.431   5.334   3.511 -0.5539  0.6833  0.3409
  177MOL0     C24310  10.534   5.381   3.614 -0.6672 -0.3250 -0.3799
  177MOL0     C24311  10.666   5.312   3.599 -0.0976  0.2857  0.5616
  177MOL0     O24312  10.754   5.361   3.695 -0.7282 -0.1742 -0.0116
  177MOL0     C24313  10.887   5.351   3.667 -0.7941  0.9435 -0.0298
  177MOL0     C24314  10.958   5.241   3.621  0.9630 -0.1967 -0.3781
  177MOL0     C24315  11.098   5.234   3.613  0.0118  0.3739  0.0407
  177MOL0     C24316  11.150   5.100   3.564  0.2908 -0.2827  0.0490
  177MOL0     C24317  11.177   5.345   3.650 -0.4369 -0.2313 -0.4350
  177MOL0     C24318  11.323   5.345   3.637 -0.0207 -0.5829  0.5077
  177MOL0     O24319  11.384   5.253   3.562 -0.0466  0.3084  0.2455
  177MOL0     C24320  11.520   5.251   3.538  0.6779 -0.7212 -0.6003
  177MOL0     C24321  11.567   5.126   3.497 -0.8242 -0.3907  0.5382
  177MOL0     C24322  11.700   5.117   3.477 -0.5798  0.9930 -0.3310
  177MOL0     C24323  11.796   5.219   3.499  0.3227  0.4752 -0.0384
  177MOL0     O24324  11.926   5.184   3.485  0.0644  0.6948 -0.1399
  177MOL0     C24325  12.026   5.292   3.500  0.5573  0.7254  0.7366
  177MOL0     C24326  12.163   5.235   3.464 -0.3078  0.4093  0.0247
  177MOL0     C24327  12.263   5.340   3.502 -0.2918  0.7862  0.1982
  177MOL0     C24328  12.407   5.283   3.480 -0.0144  0.5442 -0.4198
  177MOL0     C24329  12.423   5.156   3.564  0.5283  0.3697  0.1876
  177MOL0     C24330  12.570   5.126   3.597  0.5080 -0.5424  0.9492
  177MOL0     C24331  12.585   4.987   3.660  0.4046 -0.4539 -0.6363
  177MOL0     C24332  12.731   4.974   3.689  0.8982 -0.1125  0.6403
  177MOL0    Cl24333  12.817   4.878   3.561  0.6090 -0.3510 -0.0929
  177MOL0     C24334  11.743   5.345   3.517  0.2763  0.2803 -0.0852
  177MOL0     C24335  11.607   5.361   3.534  0.4097 -0.1182 -1.5501
  177MOL0     O24336  11.382   5.420   3.712  0.3910  0.0070 -0.6870
  177MOL0     C24337  11.109   5.459   3.706 -0.4651  0.6408  0.0247
  177MOL0     C24338  10.971   5.457   3.712  0.9098 -0.1635 -0.2703
  177MOL0     N24339  10.143   5.189   3.471  0.1862  0.4317  0.0686
  177MOL0     N24340  10.070   5.157   3.372 -1.1075 -0.6037  0.3389
  177MOL0     C24341   9.258   5.203   3.845 -0.8525  0.5637 -0.0944
  177MOL0     C24342   9.131   5.145   3.875 -0.1829  0.8587 -1.0496
  177MOL0     C24343   8.837   4.939   4.146 -0.1176  0.4327  0.5969
  177MOL0     C24344   8.762   4.881   4.036 -0.7985  0.0814  0.6262
  177MOL0     C24345   8.624   4.852   4.049 -0.6021  0.1199 -0.1360
  177MOL0     C24346   8.552   4.870   4.168  1.0169  0.2051  0.5272
  177MOL0     O24347   8.414   4.863   4.156  0.8672 -0.0889 -0.1323
  177MOL0     C24348   8.341   4.897   4.274 -0.1278 -0.4625 -0.4675
  177MOL0     C24349   8.202   4.837   4.276  0.1994 -1.0568 -0.2984
  177MOL0     C24350   8.125   4.898   4.154  0.2087  1.1757 -0.1236
  177MOL0     C24351   8.120   4.791   4.029  0.2867 -0.5653 -0.0429
  177MOL0     C24352   8.033   4.833   3.912 -0.7631 -0.1285  0.5803
  177MOL0     C24353   7.973   4.871   3.811  0.0336  0.1806  0.0942
  177MOL0     C24354   8.634   4.914   4.279  0.2286 -0.1892 -0.8666
  177MOL0     C24355   8.771   4.956   4.276  0.8630 -0.3891 -0.8208
  177MOL0     C24356   8.824   5.026   4.399 -0.1292  0.0277 -0.1957
  177MOL0     H24357   9.266   4.846   3.953 -1.4993 -0.5398 -3.1213
  177MOL0     H24358   9.481   4.964   3.909  1.8084  3.5007  0.7881
  177MOL0     H24359   9.509   5.118   3.635  2.6284  0.1312 -2.8683
  177MOL0     H24360   9.614   5.050   3.749  2.0845  1.2905  0.8478
  177MOL0     H24361   9.620   5.332   3.669 -3.1673 -2.3125 -0.1019
  177MOL0     H24362   9.764   5.248   3.737  0.6531 -0.2891  0.0021
  177MOL0     H24363   9.806   5.246   3.517 -0.1013 -0.9707 -1.1521
  177MOL0     H24364   9.735   5.089   3.530  1.0197  0.1170 -0.0138
  177MOL0     H24365   9.522   5.182   3.423  1.1363 -1.3479  2.3336
  177MOL0     H24366   9.572   5.346   3.432  0.6535  0.5779  0.0718
  177MOL0     H24367   9.621   5.261   3.193  0.7402  1.7440 -0.2291
  177MOL0     H24368   9.743   5.151   3.273  2.5065  1.5392 -0.6221
  177MOL0     H24369   9.715   5.461   3.252  0.6652  0.6580 -0.4986
  177MOL0     H24370   9.828   5.393   3.362 -0.2469  0.7932  0.8023
  177MOL0     H24371   9.936   5.462   3.145 -0.1360  0.0814  0.4167
  177MOL0     H24372   9.824   5.355   3.061 -0.1533  0.3326 -0.0241
  177MOL0     H24373   9.957   5.157   3.145  1.8142 -0.5377  0.5679
  177MOL0     H24374  10.068   5.282   3.084  1.3052 -1.7737  0.9238
  177MOL0     H24375  10.185   5.461   3.277 -2.9302  2.2146  0.5557
  177MOL0     H24376  10.254   5.393   3.625 -3.2782  0.0268 -1.3350
  177MOL0     H24377  10.303   5.497   3.492  0.7726 -0.1382 -0.5956
  177MOL0     H24378  10.418   5.225   3.516 -0.1330  0.2108 -4.5272
  177MOL0     H24379  10.483   5.339   3.415  0.7172  0.9525  1.0218
  177MOL0     H24380  10.542   5.490   3.611 -0.0957 -0.3223  0.7922
  177MOL0     H24381  10.500   5.358   3.715  0.0465 -0.4922 -0.1736
  177MOL0     H24382  10.662   5.204   3.618  0.2751  0.7365  3.6887
  177MOL0     H24383  10.715   5.331   3.503  0.8593  1.1178  1.1987
  177MOL0     H24384  10.894   5.154   3.606  1.2864 -0.2980 -1.2618
  177MOL0     H24385  11.175   5.097   3.457 -2.7320 -1.9504 -0.7218
  177MOL0     H24386  11.060   5.037   3.562  0.0919  0.0042 -0.2487
  177MOL0     H24387  11.234   5.058   3.620  1.5980 -0.3128 -1.8309
  177MOL0     H24388  11.508   5.037   3.479 -2.1880  0.7317 -0.8322
  177MOL0     H24389  11.741   5.017   3.465 -1.0634  0.6175  1.0749
  177MOL0     H24390  12.003   5.378   3.437 -0.8821  1.0370  1.6501
  177MOL0     H24391  12.022   5.325   3.604 -0.6912  1.3543  0.5115
  177MOL0     H24392  12.173   5.134   3.504 -0.1409 -0.0695 -1.1712
  177MOL0     H24393  12.173   5.219   3.356  3.4528  1.1159  0.1329
  177MOL0     H24394  12.252   5.372   3.606 -0.2338  1.8726 -0.1161
  177MOL0     H24395  12.242   5.427   3.440 -3.7883 -1.1716 -1.6484
  177MOL0     H24396  12.481   5.357   3.512  1.3089 -1.1583  0.5629
  177MOL0     H24397  12.425   5.262   3.375  2.4264 -5.0683  0.7919
  177MOL0     H24398  12.360   5.163   3.653  0.1476 -1.9234  0.1540
  177MOL0     H24399  12.380   5.076   3.503  0.2173  0.8036 -0.1705
  177MOL0     H24400  12.603   5.201   3.670 -2.0928  0.5950  1.0448
  177MOL0     H24401  12.627   5.132   3.504 -1.0760 -2.1770 -0.1781
  177MOL0     H24402  12.556   4.913   3.585  1.1297 -2.4371  0.9679
  177MOL0     H24403  12.531   4.985   3.755  0.9714  2.0515 -0.1717
  177MOL0     H24404  12.750   4.929   3.787  2.1349  0.0854  0.5114
  177MOL0     H24405  12.780   5.071   3.698 -1.2496  1.4644 -2.5682
  177MOL0     H24406  11.806   5.434   3.523 -0.2835  0.6817 -0.1011
  177MOL0     H24407  11.565   5.461   3.541 -3.5719 -1.7428  0.5363
  177MOL0     H24408  11.169   5.542   3.742  1.9902 -1.8124  2.0944
  177MOL0     H24409  10.911   5.541   3.747  0.8659  0.2554 -1.3108
  177MOL0     H24410   9.258   5.308   3.818 -0.2195  0.8077  0.8223
  177MOL0     H24411   9.041   5.205   3.886 -0.8722 -0.4438  0.7858
  177MOL0     H24412   8.809   4.871   3.939  1.6106  2.3355  1.4386
  177MOL0     H24413   8.570   4.814   3.963 -1.1359  1.5047 -0.4375
  177MOL0     H24414   8.391   4.858   4.363  2.8046  0.0263 -1.7824
  177MOL0     H24415   8.339   5.006   4.268  2.2041 -0.4236 -1.4512
  177MOL0     H24416   8.163   4.880   4.368  3.8126 -0.7009  1.2199
  177MOL0     H24417   8.196   4.729   4.289 -2.8153 -0.8329  0.7166
  177MOL0     H24418   8.023   4.924   4.183  1.1458  3.8503  1.0494
  177MOL0     H24419   8.171   4.988   4.113  2.2569 -0.5065 -1.7307
  177MOL0     H24420   8.084   4.698   4.072  1.5099 -0.7538  0.6081
  177MOL0     H24421   8.220   4.773   3.988  0.2995 -3.0124  0.8803
  177MOL0     H24422   7.918   4.898   3.723  1.8771  0.0579 -1.1565
  177MOL0     H24423   8.586   4.910   4.376  0.7340 -0.7919 -0.6391
  177MOL0     H24424   8.738   5.056   4.460 -1.0017 -0.5689 -1.0950
  177MOL0     H24425   8.886   4.955   4.454 -2.1110 -1.4360  0.2857
  177MOL0     H24426   8.884   5.111   4.366  0.6647  0.4793  2.2007
  178MOL0     O24427   9.324   1.948   1.811  0.4233 -0.0458 -0.3563
  178MOL0     C24428   9.276   1.841   1.852 -0.3739 -0.5498 -0.9415
  178MOL0     O24429   9.343   1.744   1.908  0.1536  0.2242  0.0819
  178MOL0     C24430   9.479   1.764   1.920  0.0517  0.2746  0.5445
  178MOL0     C24431   9.552   1.789   2.042 -0.5862  0.8090  0.1690
  178MOL0     C24432   9.690   1.814   2.043  0.1175  0.5323  0.2964
  178MOL0     C24433   9.758   1.814   1.923  0.2149  1.1812 -0.7865
  178MOL0     O24434   9.885   1.858   1.914  0.5521 -0.6814 -0.6336
  178MOL0     C24435   9.972   1.799   2.014  0.4771  0.2258  0.2800
  178MOL0     C24436  10.119   1.809   1.966  0.4706 -0.8359 -0.3504
  178MOL0     C24437  10.200   1.758   2.093 -0.4508 -0.0299  0.1246
  178MOL0     C24438  10.341   1.725   2.053  0.4058 -0.8338  0.5383
  178MOL0     C24439  10.430   1.676   2.164 -0.0826  0.3234 -0.9112
  178MOL0     C24440  10.578   1.653   2.109  0.3608  0.2075 -0.5877
  178MOL0     C24441  10.679   1.583   2.211  1.1505 -0.0409  1.0505
  178MOL0     C24442  10.805   1.554   2.149 -0.4935 -0.2246 -0.1208
  178MOL0     N24443  10.907   1.525   2.261  0.7822 -0.0267  0.2756
  178MOL0     C24444  10.994   1.612   2.318 -0.8057  1.1219  0.4078
  178MOL0     C24445  11.062   1.542   2.414  1.1544  0.2114  0.0748
  178MOL0     C24446  11.164   1.592   2.516 -0.2832 -0.9032  0.0909
  178MOL0     C24447  11.298   1.531   2.475  0.3334 -0.8042  0.3789
  178MOL0     C24448  11.411   1.574   2.567 -0.1141 -0.4686  0.6463
  178MOL0     C24449  11.523   1.475   2.541 -0.4352  0.3025 -0.4621
  178MOL0     O24450  11.644   1.535   2.594  0.5755  0.0262  0.2944
  178MOL0     C24451  11.773   1.488   2.558 -0.5862  0.4730 -1.3805
  178MOL0     C24452  11.884   1.546   2.617 -0.4914  0.4996  0.7590
  178MOL0     C24453  12.012   1.518   2.572 -0.3435  0.0489 -0.4347
  178MOL0     C24454  12.127   1.609   2.622  0.2915  0.1614  0.1176
  178MOL0     C24455  12.031   1.408   2.478  0.1234 -0.0872  0.3137
  178MOL0     C24456  12.160   1.373   2.419  0.3884  0.3132  0.1476
  178MOL0     O24457  12.166   1.412   2.296  0.2543  0.7062 -0.2384
  178MOL0     C24458  12.280   1.462   2.231  0.1917  0.0181 -0.3295
  178MOL0     C24459  12.403   1.495   2.284  0.6344  0.8697 -0.0618
  178MOL0     C24460  12.505   1.554   2.214  0.2720  0.2852 -0.7207
  178MOL0     C24461  12.494   1.584   2.082  0.7633  0.2637 -0.0989
  178MOL0     O24462  12.590   1.661   2.030 -0.2818 -0.0548 -0.1838
  178MOL0     C24463  12.672   1.584   1.940 -0.5686 -0.1463  0.2335
  178MOL0     C24464  12.800   1.660   1.907  0.5667  0.6204 -1.3255
  178MOL0     C24465  12.879   1.604   1.789  0.6968 -0.0236 -0.1183
  178MOL0     C24466  13.002   1.689   1.745 -0.5052 -0.4080  0.6148
  178MOL0     C24467  13.054   1.656   1.605 -0.5044  0.3374  0.0127
  178MOL0     C24468  13.163   1.753   1.565  0.3463  0.3150  0.0474
  178MOL0     C24469  13.244   1.680   1.453 -0.7274 -0.2695 -0.0766
  178MOL0     C24470  13.359   1.764   1.402 -0.1316 -0.1480  0.1022
  178MOL0    Cl24471  13.283   1.912   1.340 -0.6453 -0.0220  0.0779
  178MOL0     C24472  12.370   1.549   2.020  0.4360 -0.1944 -0.4608
  178MOL0     C24473  12.261   1.491   2.099 -0.0637  0.0632 -0.1025
  178MOL0     O24474  12.250   1.322   2.478  0.8108 -0.0391 -0.2741
  178MOL0     C24475  11.913   1.341   2.427 -0.4378  0.1884 -0.8450
  178MOL0     C24476  11.786   1.381   2.474 -0.3399  0.3823 -0.2272
  178MOL0     N24477  11.001   1.410   2.416 -0.3823 -0.2884 -0.0126
  178MOL0     N24478  10.916   1.405   2.323  0.3218  0.1404 -0.0678
  178MOL0     C24479   9.691   1.792   1.805 -0.5270  0.8995  0.6019
  178MOL0     C24480   9.558   1.767   1.802  0.1205 -1.0639 -0.4561
  178MOL0     C24481   9.127   1.812   1.865 -0.1229  0.2343  0.1065
  178MOL0     C24482   9.080   1.708   1.949 -0.5465 -0.1722  0.7907
  178MOL0     C24483   8.943   1.673   1.958  0.3346  0.8593  0.8362
  178MOL0     C24484   8.844   1.747   1.893 -0.5149 -0.8671 -0.1050
  178MOL0     O24485   8.715   1.716   1.891  0.1021  0.0549  0.6644
  178MOL0     C24486   8.658   1.603   1.966 -0.1695 -0.5729 -0.1285
  178MOL0     C24487   8.504   1.623   1.977 -0.0008  0.2184 -0.1561
  178MOL0     C24488   8.450   1.596   1.834 -1.0147 -0.1355  0.1746
  178MOL0     C24489   8.293   1.615   1.837  0.3531 -0.4712  0.4969
  178MOL0     C24490   8.244   1.590   1.701  0.4376  0.1654 -0.1717
  178MOL0     C24491   8.215   1.556   1.587 -0.0949  0.5316  0.4652
  178MOL0     C24492   8.889   1.850   1.814  0.4368  0.5237 -0.7357
  178MOL0     C24493   9.024   1.882   1.787 -1.1498  0.6047 -0.1786
  178MOL0     C24494   9.063   1.972   1.673 -0.0621 -0.9287 -0.1823
  178MOL0     H24495   9.503   1.788   2.139  0.7656 -0.9342  0.8937
  178MOL0     H24496   9.740   1.828   2.138  1.1965  1.6021 -0.4070
  178MOL0     H24497   9.941   1.694   2.014 -0.5595  0.5061 -1.1073
  178MOL0     H24498   9.960   1.852   2.109  1.5278  0.5393  0.2540
  178MOL0     H24499  10.144   1.744   1.881  1.3462  0.1195 -0.8433
  178MOL0     H24500  10.155   1.909   1.943  0.9456 -1.2378 -1.4668
  178MOL0     H24501  10.199   1.830   2.175  2.2478 -1.4058  1.4861
  178MOL0     H24502  10.156   1.670   2.141  1.0447  0.3947  2.3779
  178MOL0     H24503  10.346   1.650   1.973  3.3137 -2.4289  2.0502
  178MOL0     H24504  10.382   1.816   2.007  2.1514 -0.5657  2.5086
  178MOL0     H24505  10.395   1.578   2.200  1.1243  0.4734  0.7469
  178MOL0     H24506  10.427   1.749   2.245 -0.7155 -1.5843  0.8676
  178MOL0     H24507  10.569   1.586   2.023  0.6378 -1.4203  0.6075
  178MOL0     H24508  10.627   1.744   2.074  0.5102  0.3225 -0.0766
  178MOL0     H24509  10.636   1.490   2.250  1.7044  0.2097  2.3323
  178MOL0     H24510  10.704   1.641   2.300  1.5761 -1.2384  1.7391
  178MOL0     H24511  10.805   1.471   2.078 -2.5641  1.4591 -2.2565
  178MOL0     H24512  10.834   1.637   2.084 -0.5705  0.2817  0.4813
  178MOL0     H24513  10.997   1.719   2.302 -0.3536  0.9071 -1.0496
  178MOL0     H24514  11.154   1.556   2.619  2.3830  3.0875  2.0229
  178MOL0     H24515  11.159   1.701   2.515 -1.6591 -0.9529  0.5760
  178MOL0     H24516  11.283   1.423   2.474  1.1348 -0.9281 -0.4113
  178MOL0     H24517  11.323   1.560   2.372  0.3986 -1.3953  0.2216
  178MOL0     H24518  11.438   1.676   2.536 -3.0759  0.7755  1.7255
  178MOL0     H24519  11.385   1.575   2.673  0.8845  3.0418  0.9975
  178MOL0     H24520  11.505   1.375   2.583 -4.0977  0.0481 -2.2634
  178MOL0     H24521  11.540   1.464   2.433  3.3271 -1.5307  0.1338
  178MOL0     H24522  11.868   1.636   2.675  1.2531  0.2682  1.6523
  178MOL0     H24523  12.215   1.547   2.643 -0.6014 -1.1356  0.0795
  178MOL0     H24524  12.104   1.648   2.721  1.0918 -0.8857  0.7327
  178MOL0     H24525  12.139   1.689   2.548  3.3815 -2.4212 -2.5091
  178MOL0     H24526  12.433   1.479   2.387  0.1690 -0.4514 -0.1143
  178MOL0     H24527  12.600   1.566   2.266 -0.3003 -0.7584  0.6361
  178MOL0     H24528  12.702   1.490   1.986 -0.2953  0.1489  0.6707
  178MOL0     H24529  12.627   1.564   1.842  0.5152 -1.2936 -0.0550
  178MOL0     H24530  12.772   1.766   1.908  1.5641  0.9608  1.7107
  178MOL0     H24531  12.859   1.656   1.999 -1.8669  3.1940  0.5227
  178MOL0     H24532  12.812   1.617   1.705  3.6449  1.0667 -2.4880
  178MOL0     H24533  12.901   1.497   1.802 -1.2353 -1.1340 -4.4694
  178MOL0     H24534  13.077   1.675   1.823  0.5034 -1.0453 -0.4248
  178MOL0     H24535  12.978   1.796   1.748  0.8960 -0.0948  1.5470
  178MOL0     H24536  13.080   1.550   1.608 -0.8804  0.2678  1.5485
  178MOL0     H24537  12.965   1.664   1.542 -1.2218 -3.1582  0.4059
  178MOL0     H24538  13.236   1.777   1.643  1.0985  0.8965 -0.8014
  178MOL0     H24539  13.119   1.845   1.525 -1.2916  0.5374  2.1996
  178MOL0     H24540  13.180   1.658   1.368 -0.8615 -0.4322  0.0651
  178MOL0     H24541  13.285   1.590   1.501 -1.0970  1.5739  4.1739
  178MOL0     H24542  13.413   1.715   1.321  0.6060  1.3707 -0.3565
  178MOL0     H24543  13.427   1.781   1.486 -0.0269  1.1735 -0.2320
  178MOL0     H24544  12.343   1.571   1.918 -2.0218 -4.7296 -1.0534
  178MOL0     H24545  12.163   1.466   2.059 -0.1982 -1.5697  1.1234
  178MOL0     H24546  11.929   1.255   2.362 -1.4941 -0.6811  0.0271
  178MOL0     H24547  11.708   1.315   2.439 -0.2590 -1.9539  3.4493
  178MOL0     H24548   9.740   1.790   1.708 -1.7999 -1.0382 -0.0662
  178MOL0     H24549   9.502   1.765   1.709 -1.5333  0.4526  0.4486
  178MOL0     H24550   9.150   1.643   2.001  2.4339 -0.0856 -2.7234
  178MOL0     H24551   8.916   1.594   2.027 -0.0568  0.8587  0.6867
  178MOL0     H24552   8.681   1.501   1.936 -2.8507 -0.6535 -2.2267
  178MOL0     H24553   8.698   1.615   2.068  1.6046 -2.5512 -0.5206
  178MOL0     H24554   8.485   1.724   2.013  0.0002  0.7728 -1.6255
  178MOL0     H24555   8.458   1.551   2.045 -0.8448  1.9618  1.1941
  178MOL0     H24556   8.493   1.668   1.763 -1.4108  2.3642  2.3278
  178MOL0     H24557   8.479   1.494   1.806  1.9040  1.0373 -1.5740
  178MOL0     H24558   8.265   1.713   1.876 -3.4834 -1.6975  1.3174
  178MOL0     H24559   8.254   1.539   1.906 -0.8962 -0.4420 -0.1395
  178MOL0     H24560   8.199   1.522   1.487  1.7756 -2.1905  0.9754
  178MOL0     H24561   8.805   1.894   1.763 -2.0635 -1.6312  1.2057
  178MOL0     H24562   9.140   1.928   1.610 -1.1434 -2.1827 -0.6861
  178MOL0     H24563   8.977   1.993   1.609  0.6319  0.1399 -0.7720
  178MOL0     H24564   9.095   2.069   1.713 -1.3955 -0.9261  0.9752
  179MOL0     O24565   5.302   7.316   6.466  0.2541  0.0280  0.5446
  179MOL0     C24566   5.220   7.321   6.373 -0.1236  0.7171  0.8748
  179MOL0     O24567   5.140   7.429   6.335  0.3541  0.2235  0.5933
  179MOL0     C24568   5.172   7.553   6.375 -0.8062 -0.2777  0.8490
  179MOL0     C24569   5.142   7.609   6.503  0.4279  0.1930 -0.1135
  179MOL0     C24570   5.163   7.742   6.537 -0.0068  0.0937 -0.0614
  179MOL0     C24571   5.226   7.828   6.450  0.6747 -0.6872 -0.2287
  179MOL0     O24572   5.264   7.956   6.478 -0.7168  0.1014  0.2678
  179MOL0     C24573   5.216   8.024   6.594  0.5512  0.1202  0.3454
  179MOL0     C24574   5.319   8.003   6.704 -0.8537 -0.4818 -0.3545
  179MOL0     C24575   5.458   8.075   6.660  0.1637  1.0664 -0.3066
  179MOL0     C24576   5.561   8.055   6.770 -0.1375  0.4326  0.8800
  179MOL0     C24577   5.700   8.088   6.707 -0.0156  1.2404 -0.2342
  179MOL0     C24578   5.781   8.144   6.833  0.1965 -0.0920 -0.7555
  179MOL0     C24579   5.906   8.232   6.801 -0.5683  0.4483  0.5517
  179MOL0     C24580   5.987   8.165   6.691 -0.1754  0.3969 -0.3673
  179MOL0     N24581   6.121   8.224   6.683 -0.5118  0.2517  0.2344
  179MOL0     C24582   6.156   8.328   6.605 -0.3402 -0.4437  0.5271
  179MOL0     C24583   6.298   8.328   6.607  0.1792 -0.1573  0.1664
  179MOL0     C24584   6.376   8.415   6.513  0.8191  0.5646  0.6303
  179MOL0     C24585   6.447   8.531   6.598  0.0651 -0.0479  0.5244
  179MOL0     C24586   6.548   8.479   6.696 -0.4236  0.1345  0.0192
  179MOL0     C24587   6.675   8.419   6.636 -0.1850 -0.6472 -1.2656
  179MOL0     O24588   6.734   8.506   6.535 -0.3615  0.5391  0.2986
  179MOL0     C24589   6.819   8.594   6.593  0.5535 -0.0938 -0.4761
  179MOL0     C24590   6.794   8.730   6.606  0.1967  0.1985  0.1599
  179MOL0     C24591   6.882   8.831   6.651  0.0237 -0.1129  0.4098
  179MOL0     C24592   6.845   8.977   6.654  0.0641  0.0554 -0.0842
  179MOL0     C24593   7.013   8.793   6.676 -0.5475 -0.0073  0.1639
  179MOL0     C24594   7.113   8.874   6.727  0.6019 -0.2106 -1.3916
  179MOL0     O24595   7.158   8.852   6.852 -0.1253  0.1040 -0.5751
  179MOL0     C24596   7.261   8.935   6.900  0.4030 -0.0923 -0.5566
  179MOL0     C24597   7.394   8.885   6.916  0.5768  1.5139 -0.9185
  179MOL0     C24598   7.493   8.947   6.984 -0.1768 -0.7440 -0.4983
  179MOL0     C24599   7.461   9.075   7.045  0.4459 -0.0528  0.2942
  179MOL0     O24600   7.544   9.154   7.116 -0.1840  0.1866 -0.5457
  179MOL0     C24601   7.680   9.116   7.156 -0.0150 -0.6394 -0.4297
  179MOL0     C24602   7.660   9.043   7.294  0.1437 -0.6079  0.3891
  179MOL0     C24603   7.644   9.141   7.408 -0.2924  0.1547 -1.0758
  179MOL0     C24604   7.612   9.073   7.533  0.0698  0.1366  0.3493
  179MOL0     C24605   7.612   9.172   7.650 -0.1408 -0.6473  0.1764
  179MOL0     C24606   7.659   9.106   7.774  0.1192 -0.0165  0.0508
  179MOL0     C24607   7.630   9.190   7.898  0.2793 -0.3924 -0.8332
  179MOL0     C24608   7.732   9.173   8.013 -0.8613 -0.1468  0.7701
  179MOL0    Cl24609   7.677   9.250   8.159 -0.4135  0.1123  0.6195
  179MOL0     C24610   7.334   9.130   7.028  0.0913  0.7919 -0.4164
  179MOL0     C24611   7.241   9.061   6.954  0.5606  0.2563  0.1291
  179MOL0     O24612   7.159   8.952   6.645 -0.5479  0.4246  0.2485
  179MOL0     C24613   7.047   8.658   6.663 -0.0672 -1.1076 -0.6047
  179MOL0     C24614   6.955   8.561   6.615  0.1355  0.5119  0.7800
  179MOL0     N24615   6.333   8.229   6.698  1.9972  0.6036  0.3778
  179MOL0     N24616   6.226   8.171   6.751 -0.0203 -0.0952 -0.0700
  179MOL0     C24617   5.252   7.777   6.318 -0.3599 -0.4313  0.0424
  179MOL0     C24618   5.233   7.640   6.284  0.4191 -0.4246 -0.5121
  179MOL0     C24619   5.192   7.204   6.283  0.3315  0.0642  0.1019
  179MOL0     C24620   5.107   7.215   6.175  0.1169 -1.1385 -0.6034
  179MOL0     C24621   5.063   7.108   6.101 -0.0027 -0.1985  0.0854
  179MOL0     C24622   5.104   6.978   6.134 -0.1325 -0.4658 -0.4234
  179MOL0     O24623   5.067   6.884   6.042  0.0170  0.2808  0.3047
  179MOL0     C24624   5.137   6.758   6.038 -0.4246  0.0827  0.9786
  179MOL0     C24625   5.271   6.754   5.970 -0.0032  0.4974 -0.4412
  179MOL0     C24626   5.270   6.690   5.823 -0.2127  0.0277  0.2135
  179MOL0     C24627   5.394   6.743   5.744  0.0680  0.4463  0.2149
  179MOL0     C24628   5.514   6.697   5.814  0.3178  0.5152  0.0448
  179MOL0     C24629   5.610   6.651   5.867 -0.7376  0.0848  0.3360
  179MOL0     C24630   5.192   6.961   6.238  0.5359 -0.4729 -0.2617
  179MOL0     C24631   5.237   7.071   6.309  0.3785  0.1185 -0.6115
  179MOL0     C24632   5.335   7.048   6.416  0.5328  0.6034 -0.1262
  179MOL0     H24633   5.096   7.543   6.576  0.2378 -0.2190 -0.5981
  179MOL0     H24634   5.130   7.776   6.635  0.9702 -0.8484  0.6197
  179MOL0     H24635   5.120   7.985   6.629  0.7830 -0.2092  0.6258
  179MOL0     H24636   5.206   8.130   6.568 -2.3370 -0.4754 -1.4264
  179MOL0     H24637   5.294   8.049   6.801  2.0337  0.3305  0.1108
  179MOL0     H24638   5.335   7.897   6.721 -0.0847 -0.0089  2.4566
  179MOL0     H24639   5.495   8.035   6.565 -0.8424  0.6725 -0.5478
  179MOL0     H24640   5.437   8.181   6.642 -1.8182  0.6569 -0.5661
  179MOL0     H24641   5.527   8.110   6.858 -0.4998  1.1287  0.3124
  179MOL0     H24642   5.566   7.947   6.790 -1.7285 -0.8309 -3.9766
  179MOL0     H24643   5.695   8.163   6.627 -2.7651  0.9218 -0.4748
  179MOL0     H24644   5.742   7.999   6.662 -3.1956 -1.2062  1.2088
  179MOL0     H24645   5.719   8.198   6.905 -2.9344 -3.8481 -0.3521
  179MOL0     H24646   5.819   8.053   6.879  0.4715 -0.1274 -1.0451
  179MOL0     H24647   5.967   8.239   6.892  0.0645 -3.2717  0.5483
  179MOL0     H24648   5.877   8.336   6.780  0.2292  0.4776 -0.4993
  179MOL0     H24649   6.003   8.060   6.720 -2.4362  0.1556  0.1797
  179MOL0     H24650   5.938   8.165   6.593 -3.1307  0.9005  1.0094
  179MOL0     H24651   6.090   8.389   6.544  0.0392 -0.3673  0.1854
  179MOL0     H24652   6.307   8.447   6.435 -0.5524 -2.4370  0.4872
  179MOL0     H24653   6.451   8.350   6.466  0.8989  0.6271  0.6706
  179MOL0     H24654   6.500   8.607   6.539 -1.4131  1.6441  1.2892
  179MOL0     H24655   6.367   8.584   6.650  1.7590  2.3918  0.8407
  179MOL0     H24656   6.582   8.562   6.758  0.5332 -1.4932  1.7442
  179MOL0     H24657   6.505   8.400   6.757 -0.9844 -0.9227 -1.6782
  179MOL0     H24658   6.751   8.387   6.708 -0.0430  1.0326 -0.6480
  179MOL0     H24659   6.634   8.332   6.582 -2.0292  1.0909 -2.8232
  179MOL0     H24660   6.695   8.757   6.568  0.2806 -0.5075 -0.5752
  179MOL0     H24661   6.820   9.009   6.756 -0.8886 -0.7717 -0.0386
  179MOL0     H24662   6.757   9.000   6.593 -1.2822  1.8626  2.3787
  179MOL0     H24663   6.929   9.035   6.615 -1.0704  1.3425 -0.6906
  179MOL0     H24664   7.419   8.786   6.879  0.0096  0.8486  0.4202
  179MOL0     H24665   7.595   8.913   6.994  0.1396 -0.0144 -1.1131
  179MOL0     H24666   7.730   9.055   7.080 -0.0599  0.3037 -1.2336
  179MOL0     H24667   7.752   9.198   7.163 -2.5842  1.8047 -0.8924
  179MOL0     H24668   7.569   8.985   7.280  0.1167  0.0132 -2.6091
  179MOL0     H24669   7.749   8.983   7.318  2.0420  0.9382 -2.2294
  179MOL0     H24670   7.563   9.212   7.393 -0.0724  0.7032  0.1962
  179MOL0     H24671   7.743   9.187   7.417  0.5942 -2.0069  1.8499
  179MOL0     H24672   7.684   8.991   7.538  0.8379  0.3613 -3.6825
  179MOL0     H24673   7.513   9.027   7.527  0.8587 -1.5230 -0.4367
  179MOL0     H24674   7.687   9.249   7.630 -0.7095 -0.2736 -0.6114
  179MOL0     H24675   7.514   9.220   7.658 -0.9647 -1.6688 -2.5869
  179MOL0     H24676   7.767   9.090   7.762 -0.2272 -1.4050 -1.7211
  179MOL0     H24677   7.608   9.012   7.798  1.2011 -0.2046  1.8237
  179MOL0     H24678   7.532   9.152   7.930  0.4677 -0.6823 -0.6010
  179MOL0     H24679   7.626   9.295   7.870  0.6738  0.7944  2.9577
  179MOL0     H24680   7.832   9.216   7.998  0.6368 -3.2035  1.1929
  179MOL0     H24681   7.743   9.066   8.032 -0.5261 -0.2575 -0.0154
  179MOL0     H24682   7.301   9.218   7.081 -3.8533 -0.5545 -0.3074
  179MOL0     H24683   7.148   9.111   6.928  0.7837 -0.0353 -1.3184
  179MOL0     H24684   7.149   8.638   6.695 -1.0712 -2.7588  1.9026
  179MOL0     H24685   7.003   8.464   6.612  0.7168  0.5712  4.0724
  179MOL0     H24686   5.310   7.835   6.247  1.5403  0.9035  2.5402
  179MOL0     H24687   5.270   7.604   6.188  0.7381  1.4319 -1.1262
  179MOL0     H24688   5.070   7.313   6.147  1.2157 -0.7108 -0.6224
  179MOL0     H24689   5.000   7.132   6.016  0.4805  3.8093  0.6497
  179MOL0     H24690   5.147   6.728   6.143  0.0372  0.4917  1.0536
  179MOL0     H24691   5.081   6.679   5.987  0.5511 -1.3602  2.0473
  179MOL0     H24692   5.338   6.701   6.039  1.1896 -1.0705 -2.6603
  179MOL0     H24693   5.306   6.856   5.956 -0.2522  0.7379  0.6307
  179MOL0     H24694   5.262   6.581   5.822 -0.5734 -0.0869 -4.2654
  179MOL0     H24695   5.178   6.718   5.770  0.0733 -1.3116 -1.0509
  179MOL0     H24696   5.397   6.852   5.743  0.1416  0.5618 -3.9385
  179MOL0     H24697   5.390   6.716   5.638  1.4103  1.3972 -0.1050
  179MOL0     H24698   5.692   6.600   5.914  0.3656  1.6281  0.1645
  179MOL0     H24699   5.233   6.862   6.252  0.0937 -0.6590 -0.2887
  179MOL0     H24700   5.280   7.078   6.505 -3.5872  0.1238 -2.2521
  179MOL0     H24701   5.368   6.944   6.420  1.2697  0.8485  0.4771
  179MOL0     H24702   5.431   7.099   6.398 -0.0136  1.4833 -0.6396
  180MOL0     O24703  10.420  10.789   7.932  0.1045 -0.1828 -0.4580
  180MOL0     C24704  10.315  10.787   7.993  0.0624  0.3970  0.3229
  180MOL0     O24705  10.305  10.840   8.113  0.0006 -0.3016  0.0824
  180MOL0     C24706  10.403  10.833   8.205  0.0551  0.0716 -0.2297
  180MOL0     C24707  10.494  10.727   8.213 -0.1562  0.0589  0.1101
  180MOL0     C24708  10.605  10.733   8.299 -0.1931  0.2157 -0.3899
  180MOL0     C24709  10.619  10.843   8.399 -0.5682  1.0358  0.0332
  180MOL0     O24710  10.715  10.860   8.491  0.0015 -0.7887 -0.2376
  180MOL0     C24711  10.833  10.778   8.479  0.7835 -0.5935  1.3163
  180MOL0     C24712  10.921  10.794   8.590  0.1824 -0.1003 -0.5233
  180MOL0     C24713  10.844  10.745   8.715 -1.3405  0.2546  1.1503
  180MOL0     C24714  10.938  10.779   8.842  0.1386  0.2244  0.0497
  180MOL0     C24715  10.909  10.919   8.899  0.0511  0.0105  0.0470
  180MOL0     C24716  11.007  10.950   9.015  0.5675  0.0773  0.2585
  180MOL0     C24717  11.053  11.091   9.029  0.2789 -0.7724  0.3739
  180MOL0     C24718  10.940  11.191   9.062 -0.1168  0.6761 -0.5500
  180MOL0     N24719  10.887  11.149   9.194  0.2156  0.1279  0.3484
  180MOL0     C24720  10.937  11.194   9.317  0.1565  0.2506  0.9729
  180MOL0     C24721  10.854  11.139   9.411 -0.1234  0.0179  0.5426
  180MOL0     C24722  10.870  11.165   9.561  0.2703  0.3491  0.0698
  180MOL0     C24723  10.854  11.313   9.585  0.2066  1.0229 -0.2859
  180MOL0     C24724  10.867  11.349   9.743 -0.3021 -0.4431  0.1984
  180MOL0     C24725  10.994  11.311   9.808 -0.5116 -0.0017  0.6238
  180MOL0     O24726  11.107  11.361   9.742 -0.6934 -0.3893 -0.3007
  180MOL0     C24727  11.233  11.317   9.772  0.7373 -0.6880  0.9758
  180MOL0     C24728  11.263  11.212   9.857 -0.2880 -1.0788 -0.1890
  180MOL0     C24729  11.392  11.162   9.871  0.5567 -0.2120 -0.1262
  180MOL0     C24730  11.422  11.058   9.982  0.9191 -0.2353 -0.0828
  180MOL0     C24731  11.493  11.227   9.800  1.0457  0.6312  0.1901
  180MOL0     C24732  11.634  11.179   9.804 -0.0666 -0.8788  0.5264
  180MOL0     O24733  11.657  11.050   9.804 -0.1415  0.0587 -0.2499
  180MOL0     C24734  11.777  10.988   9.832 -0.0659 -0.5435  1.2733
  180MOL0     C24735  11.901  11.029   9.778  0.3652  0.4463 -0.2740
  180MOL0     C24736  12.019  10.955   9.795  0.0187 -1.2126 -0.6942
  180MOL0     C24737  12.016  10.843   9.880 -0.4402  0.4182 -0.5875
  180MOL0     O24738  12.139  10.783   9.909  0.1016 -0.3155 -0.0901
  180MOL0     C24739  12.129  10.657   9.972  0.0479  1.0866  0.7218
  180MOL0     C24740  12.269  10.594  10.000 -0.5547 -0.3469  0.3176
  180MOL0     C24741  12.372  10.611   9.881  1.0488 -0.7077 -0.1229
  180MOL0     C24742  12.514  10.561   9.925  0.5029 -0.4584 -0.8133
  180MOL0     C24743  12.574  10.667  10.007  1.0869  0.1295  0.1812
  180MOL0     C24744  12.713  10.633  10.055 -0.1557 -0.0880  0.2624
  180MOL0     C24745  12.786  10.734  10.152  0.0325  0.0651 -1.1459
  180MOL0     C24746  12.925  10.680  10.183 -0.7251 -1.1182  0.1043
  180MOL0    Cl24747  13.022  10.805  10.274 -0.1963  0.2671 -0.0604
  180MOL0     C24748  11.894  10.807   9.940 -1.2100  0.4266  0.1804
  180MOL0     C24749  11.777  10.867   9.909  1.1638 -0.8288  0.4852
  180MOL0     O24750  11.720  11.265   9.783 -0.3953 -0.0841  0.1818
  180MOL0     C24751  11.465  11.346   9.736 -0.4926  0.0151  0.6088
  180MOL0     C24752  11.336  11.391   9.713  0.4895 -0.2597  0.2855
  180MOL0     N24753  10.754  11.072   9.343 -0.3856 -0.5812 -0.4120
  180MOL0     N24754  10.772  11.072   9.214 -0.7714  0.0396 -0.0615
  180MOL0     C24755  10.514  10.947   8.398  0.4856  0.0009  0.6929
  180MOL0     C24756  10.413  10.946   8.298 -0.9161  0.2178  0.6725
  180MOL0     C24757  10.191  10.733   7.924 -0.2894  0.9128  0.2139
  180MOL0     C24758  10.066  10.770   7.979  0.3186 -0.7004  0.7417
  180MOL0     C24759   9.949  10.737   7.905  0.6726 -0.4190 -0.0316
  180MOL0     C24760   9.948  10.660   7.791  0.5213 -0.2926 -0.0005
  180MOL0     O24761   9.827  10.625   7.746 -0.1576 -0.1553  0.0311
  180MOL0     C24762   9.823  10.581   7.616 -0.2606  0.5223  0.8996
  180MOL0     C24763   9.681  10.598   7.577 -0.3528  0.3619  0.5518
  180MOL0     C24764   9.571  10.515   7.648  0.0104  0.1459 -0.1308
  180MOL0     C24765   9.589  10.371   7.612  0.4517 -0.1011  0.0220
  180MOL0     C24766   9.470  10.297   7.658 -0.4877  1.0871  0.1745
  180MOL0     C24767   9.377  10.237   7.717 -0.0083 -0.3020  0.1514
  180MOL0     C24768  10.064  10.602   7.753 -0.3215 -0.6402  0.6459
  180MOL0     C24769  10.190  10.649   7.802 -0.2683 -0.7463 -0.6603
  180MOL0     C24770  10.320  10.605   7.731  0.2143 -0.0995 -0.2157
  180MOL0     H24771  10.488  10.650   8.137  0.9775  0.0147  0.0462
  180MOL0     H24772  10.675  10.650   8.296  1.2812  1.0727  3.5015
  180MOL0     H24773  10.894  10.810   8.393  0.7156 -0.0674  1.4569
  180MOL0     H24774  10.800  10.677   8.455 -2.6292  1.3287 -3.8969
  180MOL0     H24775  11.014  10.737   8.581 -0.2469 -1.0513  0.7912
  180MOL0     H24776  10.949  10.898   8.609  0.7749 -0.0497 -1.6031
  180MOL0     H24777  10.744  10.787   8.728 -1.7302 -0.5928  0.9912
  180MOL0     H24778  10.823  10.638   8.709 -1.1733  0.2793 -0.1646
  180MOL0     H24779  10.917  10.703   8.918 -2.4648  0.5208 -0.2846
  180MOL0     H24780  11.043  10.778   8.814 -0.1893 -1.2567 -1.3115
  180MOL0     H24781  10.805  10.916   8.934 -0.0321 -0.8503 -0.2494
  180MOL0     H24782  10.921  11.001   8.828 -1.4244 -0.6207 -1.0089
  180MOL0     H24783  10.956  10.926   9.109 -0.7390  1.5973 -0.0326
  180MOL0     H24784  11.098  10.889   9.010  0.3280 -0.4015  1.5156
  180MOL0     H24785  11.103  11.113   8.935  0.3248  1.4011  0.8680
  180MOL0     H24786  11.116  11.096   9.119 -1.2274  3.2637  1.4299
  180MOL0     H24787  10.996  11.284   9.079  0.9067 -0.5083  3.5942
  180MOL0     H24788  10.862  11.204   8.987 -0.4296 -0.1149 -0.3680
  180MOL0     H24789  11.019  11.265   9.329  0.1438  0.6349 -0.9363
  180MOL0     H24790  10.972  11.135   9.587 -0.5915 -1.0060  2.0801
  180MOL0     H24791  10.800  11.110   9.624 -1.4383  2.2075 -0.0848
  180MOL0     H24792  10.920  11.377   9.526  0.6464  1.0179  0.1956
  180MOL0     H24793  10.754  11.336   9.547 -0.4034 -1.1469 -0.0822
  180MOL0     H24794  10.856  11.457   9.760  2.4607 -0.0954  0.2634
  180MOL0     H24795  10.800  11.301   9.814 -1.0385  0.3241  0.0394
  180MOL0     H24796  10.993  11.342   9.913 -2.8909  0.5280  0.5038
  180MOL0     H24797  11.003  11.202   9.809  0.9175  0.0660 -0.7137
  180MOL0     H24798  11.190  11.179   9.930 -1.4418 -4.0287 -2.4706
  180MOL0     H24799  11.510  10.994   9.969 -1.1655 -3.0708 -1.2036
  180MOL0     H24800  11.339  10.989   9.999 -1.2586  2.6400  1.8683
  180MOL0     H24801  11.438  11.109  10.078  1.8621 -1.5609  0.5053
  180MOL0     H24802  11.904  11.116   9.713 -0.4453  1.0648  0.4900
  180MOL0     H24803  12.115  10.993   9.761  0.0049 -0.1493  0.3941
  180MOL0     H24804  12.089  10.676  10.072 -1.2194 -1.2320  0.7296
  180MOL0     H24805  12.066  10.584   9.921  4.0868 -1.7588 -0.7430
  180MOL0     H24806  12.297  10.640  10.094 -0.1674  1.2814 -0.5616
  180MOL0     H24807  12.257  10.486  10.015  1.6464 -0.6741  0.0858
  180MOL0     H24808  12.372  10.716   9.852 -0.9587 -0.7939 -0.5709
  180MOL0     H24809  12.340  10.546   9.798 -0.6283 -0.8551  0.6122
  180MOL0     H24810  12.575  10.546   9.835 -0.1820  0.9428 -1.5509
  180MOL0     H24811  12.501  10.472   9.987  0.7327  1.2154  1.7866
  180MOL0     H24812  12.590  10.754   9.942  1.5779 -0.2336 -0.1858
  180MOL0     H24813  12.505  10.694  10.089  0.9295 -1.3048  0.5437
  180MOL0     H24814  12.771  10.622   9.963 -2.2031  3.5109 -1.6804
  180MOL0     H24815  12.704  10.538  10.109  1.8443 -1.3794 -1.5074
  180MOL0     H24816  12.739  10.746  10.250  2.3073 -1.1016  0.1726
  180MOL0     H24817  12.791  10.833  10.104 -1.1440  1.1057  0.7409
  180MOL0     H24818  12.975  10.640  10.094  0.6856  0.3139  0.1963
  180MOL0     H24819  12.915  10.590  10.244 -0.8277 -2.2368 -1.5222
  180MOL0     H24820  11.880  10.727  10.012  0.0974  2.0617  2.4000
  180MOL0     H24821  11.684  10.833   9.954 -0.1459  0.8409 -0.8263
  180MOL0     H24822  11.543  11.406   9.691  0.8942 -1.8746  0.3637
  180MOL0     H24823  11.316  11.480   9.655  0.0105 -0.6543 -0.1724
  180MOL0     H24824  10.522  11.025   8.473 -0.2230 -0.1621  0.9386
  180MOL0     H24825  10.338  11.024   8.303 -1.2490 -0.1667  1.8735
  180MOL0     H24826  10.053  10.828   8.070  0.4498 -0.3474  0.5392
  180MOL0     H24827   9.851  10.757   7.945  0.2704 -0.3051 -1.0425
  180MOL0     H24828   9.889  10.631   7.545  1.6435 -2.4260  0.3883
  180MOL0     H24829   9.853  10.476   7.610  1.0825  0.9502 -2.0875
  180MOL0     H24830   9.685  10.572   7.471  4.3230  0.0889  0.5740
  180MOL0     H24831   9.655  10.703   7.592  0.3465  1.1028 -2.6334
  180MOL0     H24832   9.577  10.521   7.757  2.2173 -0.6357 -0.1568
  180MOL0     H24833   9.471  10.547   7.618  1.0730  3.1833 -0.8981
  180MOL0     H24834   9.682  10.336   7.658  1.1136 -0.0250 -1.2251
  180MOL0     H24835   9.603  10.369   7.504  1.7210  0.7577  0.1476
  180MOL0     H24836   9.291  10.192   7.761  0.4597 -2.1473 -0.7440
  180MOL0     H24837  10.061  10.531   7.670  0.6063 -0.0029  0.0382
  180MOL0     H24838  10.383  10.556   7.806 -1.0454 -0.0114  0.9348
  180MOL0     H24839  10.293  10.539   7.649  1.0128 -1.3738  0.5037
  180MOL0     H24840  10.372  10.691   7.686  0.7939  0.2613  1.0893
  181MOL0     O24841   1.168   3.362   9.696  0.1886 -0.0746 -0.1617
  181MOL0     C24842   1.101   3.268   9.662  0.2110  0.2196 -0.6371
  181MOL0     O24843   1.128   3.183   9.557  0.6788  0.2713 -0.2285
  181MOL0     C24844   1.239   3.207   9.482 -1.1761  0.0462  0.3591
  181MOL0     C24845   1.255   3.328   9.412  0.0430  0.6414  0.0529
  181MOL0     C24846   1.371   3.354   9.350  0.2888  0.6949 -0.2824
  181MOL0     C24847   1.479   3.269   9.350  1.4633 -0.2769  0.6063
  181MOL0     O24848   1.588   3.294   9.264  0.2472 -0.4686  0.4531
  181MOL0     C24849   1.642   3.430   9.267 -0.1849  0.3318 -0.2457
  181MOL0     C24850   1.737   3.433   9.140 -0.6592 -0.0190  0.5080
  181MOL0     C24851   1.653   3.438   9.013 -0.3472  0.3777 -0.5942
  181MOL0     C24852   1.721   3.465   8.877 -0.4847 -0.2080  1.0449
  181MOL0     C24853   1.616   3.467   8.764 -0.7099 -0.6671 -0.4581
  181MOL0     C24854   1.663   3.459   8.613 -0.8362  0.6006  0.2993
  181MOL0     C24855   1.801   3.513   8.583  0.6450  0.5366 -0.2814
  181MOL0     C24856   1.818   3.507   8.430 -0.7372  0.6316 -0.1796
  181MOL0     N24857   1.950   3.553   8.376 -0.5155  0.3848 -0.1428
  181MOL0     C24858   2.022   3.506   8.266 -0.2895 -0.6109 -0.3125
  181MOL0     C24859   2.113   3.598   8.232 -0.2724 -0.5249  0.4848
  181MOL0     C24860   2.195   3.613   8.107  0.0976  0.1246 -0.8616
  181MOL0     C24861   2.316   3.522   8.111 -0.2460  0.2184  0.6285
  181MOL0     C24862   2.395   3.520   7.979  0.8967 -0.3385  0.3499
  181MOL0     C24863   2.545   3.480   7.986  0.3712  0.3520 -0.3131
  181MOL0     O24864   2.626   3.593   8.007  0.2060  0.4145  0.1426
  181MOL0     C24865   2.764   3.589   8.005  0.2398 -0.2739  0.2864
  181MOL0     C24866   2.837   3.705   8.020  0.4726 -0.8321  0.5597
  181MOL0     C24867   2.976   3.716   8.026 -0.0824  0.5156 -0.9224
  181MOL0     C24868   3.042   3.852   8.054 -0.8300 -0.6619 -0.1034
  181MOL0     C24869   3.057   3.605   8.008 -0.5362  0.6493  0.1654
  181MOL0     C24870   3.208   3.604   8.005  0.4411 -0.1691 -0.1534
  181MOL0     O24871   3.271   3.690   8.082 -0.3033 -0.2500 -0.3683
  181MOL0     C24872   3.401   3.650   8.119 -0.4455 -0.0382 -0.3562
  181MOL0     C24873   3.506   3.715   8.052 -0.1037 -0.4623  0.0097
  181MOL0     C24874   3.638   3.680   8.065 -0.2738 -0.2780 -0.1048
  181MOL0     C24875   3.667   3.563   8.141 -0.4089 -0.0932 -0.1326
  181MOL0     O24876   3.796   3.514   8.157  0.4102 -0.7543 -0.2299
  181MOL0     C24877   3.888   3.536   8.053  0.1780  0.9379  0.3974
  181MOL0     C24878   4.036   3.525   8.113 -0.5178  0.1227 -0.3392
  181MOL0     C24879   4.134   3.485   8.001  0.4005 -0.3394  0.1969
  181MOL0     C24880   4.288   3.501   8.020 -0.8304 -0.0928  0.6941
  181MOL0     C24881   4.345   3.385   8.099  0.1551  0.7089 -0.2591
  181MOL0     C24882   4.498   3.407   8.120  0.3836  0.1066  0.1152
  181MOL0     C24883   4.536   3.526   8.215  0.6921 -0.4591 -0.5865
  181MOL0     C24884   4.456   3.534   8.345  0.2246  0.1771  0.1486
  181MOL0    Cl24885   4.497   3.677   8.429 -0.3009  0.0977  0.2319
  181MOL0     C24886   3.565   3.491   8.204 -0.1362  0.5476 -0.1162
  181MOL0     C24887   3.426   3.538   8.199  0.0805  0.0066  1.0782
  181MOL0     O24888   3.264   3.506   7.951  0.4964  0.6041 -0.2483
  181MOL0     C24889   2.985   3.487   7.992  0.6894  0.2905 -0.0374
  181MOL0     C24890   2.845   3.474   7.993 -0.4172 -0.2050  0.1082
  181MOL0     N24891   2.109   3.692   8.336  0.2301 -0.8705  0.5747
  181MOL0     N24892   2.019   3.664   8.421 -0.4493 -1.2051  0.1451
  181MOL0     C24893   1.464   3.145   9.418 -0.0282 -0.2694 -0.1888
  181MOL0     C24894   1.345   3.117   9.482 -0.3343 -0.2217 -1.0183
  181MOL0     C24895   0.978   3.253   9.752  0.7699 -0.6644 -0.4756
  181MOL0     C24896   0.944   3.127   9.804 -0.4321  0.1729  0.4851
  181MOL0     C24897   0.831   3.112   9.886  0.0521 -0.5236 -0.4389
  181MOL0     C24898   0.766   3.235   9.934 -0.3158  1.2557 -0.6162
  181MOL0     O24899   0.665   3.217  10.023  0.1397 -0.4705  0.1296
  181MOL0     C24900   0.645   3.308  10.131  0.1607 -0.3937 -0.8446
  181MOL0     C24901   0.536   3.251  10.229 -0.3834 -0.4407  0.4009
  181MOL0     C24902   0.435   3.366  10.273  0.5076  0.8857 -0.6074
  181MOL0     C24903   0.292   3.321  10.298  0.5051  0.2536  0.2839
  181MOL0     C24904   0.284   3.246  10.427  0.0532 -0.5447  0.7645
  181MOL0     C24905   0.288   3.168  10.516 -0.5872  0.6574 -0.1642
  181MOL0     C24906   0.810   3.357   9.895  0.9543  0.6022  0.3263
  181MOL0     C24907   0.911   3.372   9.799 -0.0884 -0.7028 -0.2415
  181MOL0     C24908   0.920   3.515   9.744 -0.2055 -0.3612 -0.4389
  181MOL0     H24909   1.177   3.403   9.410 -0.7910 -0.1827 -2.0821
  181MOL0     H24910   1.364   3.453   9.304 -2.4887  0.2115 -1.0861
  181MOL0     H24911   1.700   3.446   9.358 -4.4312  1.1852  2.5904
  181MOL0     H24912   1.565   3.507   9.262 -0.8022 -0.3440 -2.5005
  181MOL0     H24913   1.786   3.531   9.147 -0.0704 -0.3472  1.0838
  181MOL0     H24914   1.803   3.346   9.143 -1.2937 -0.5045  3.1051
  181MOL0     H24915   1.625   3.332   9.015  1.7593 -0.2290 -0.7963
  181MOL0     H24916   1.564   3.501   9.015 -0.4816  0.2928 -2.1073
  181MOL0     H24917   1.767   3.564   8.870 -3.5681  1.1974 -1.5885
  181MOL0     H24918   1.800   3.392   8.855  1.0280  1.4412  0.8054
  181MOL0     H24919   1.557   3.558   8.772 -0.8505 -0.8294  0.4857
  181MOL0     H24920   1.552   3.380   8.782 -1.2630 -0.0503  0.6434
  181MOL0     H24921   1.663   3.355   8.580  3.3227  0.9803 -1.4329
  181MOL0     H24922   1.590   3.522   8.561 -0.4366  1.0839  0.3244
  181MOL0     H24923   1.873   3.454   8.640  0.2203 -0.0927 -0.3890
  181MOL0     H24924   1.816   3.618   8.612 -1.0299  1.0293 -1.0915
  181MOL0     H24925   1.812   3.403   8.398  0.6521  0.2383  0.7686
  181MOL0     H24926   1.739   3.571   8.388 -1.3754  3.7002  4.8079
  181MOL0     H24927   1.999   3.424   8.199 -0.5082 -2.4725  1.9006
  181MOL0     H24928   2.212   3.719   8.085 -0.8062  0.7422  1.1416
  181MOL0     H24929   2.126   3.576   8.031  1.3978 -0.7343 -1.6471
  181MOL0     H24930   2.382   3.562   8.189 -0.6045  1.4369  0.3132
  181MOL0     H24931   2.289   3.419   8.139  0.8427  0.1181  1.3865
  181MOL0     H24932   2.353   3.442   7.914  1.3744 -0.2523 -0.0641
  181MOL0     H24933   2.388   3.612   7.920 -0.2513 -0.2594  0.5727
  181MOL0     H24934   2.565   3.398   8.056  1.0329  1.4323  0.7869
  181MOL0     H24935   2.580   3.443   7.890  0.4834  2.0374 -0.9553
  181MOL0     H24936   2.772   3.792   8.032 -0.0272 -1.1313  0.0667
  181MOL0     H24937   3.107   3.895   7.976 -2.9230 -0.7279 -1.9983
  181MOL0     H24938   3.101   3.854   8.146 -1.2693  1.7118  0.1982
  181MOL0     H24939   2.964   3.929   8.062  0.4625  0.4875  3.2712
  181MOL0     H24940   3.473   3.793   7.985  1.6000  0.5756  0.2932
  181MOL0     H24941   3.713   3.736   8.009 -1.3122  0.8111 -0.4510
  181MOL0     H24942   3.881   3.448   7.989 -0.4619 -0.2755  2.0669
  181MOL0     H24943   3.889   3.626   7.991 -0.9915 -0.6791 -2.1063
  181MOL0     H24944   4.061   3.621   8.158  1.0817 -0.2084 -0.4570
  181MOL0     H24945   4.042   3.445   8.187  1.6619  2.3438  2.0735
  181MOL0     H24946   4.108   3.550   7.917 -0.2059  0.3571  0.9068
  181MOL0     H24947   4.118   3.380   7.975  0.4993 -0.2953 -0.0445
  181MOL0     H24948   4.315   3.600   8.058  0.2651 -0.4694  0.9215
  181MOL0     H24949   4.341   3.497   7.924 -0.6034 -1.4632  0.8649
  181MOL0     H24950   4.294   3.368   8.194  0.2247 -0.3476 -0.4002
  181MOL0     H24951   4.341   3.289   8.046  0.1317  0.8015 -0.4245
  181MOL0     H24952   4.539   3.431   8.021 -0.2949 -2.0327 -0.7443
  181MOL0     H24953   4.549   3.317   8.157  1.0642  1.2864  2.1798
  181MOL0     H24954   4.516   3.617   8.159  3.6670  1.5643  1.3104
  181MOL0     H24955   4.644   3.525   8.231  0.3772 -2.9274  2.3174
  181MOL0     H24956   4.465   3.436   8.393 -1.2965 -1.0221 -1.8015
  181MOL0     H24957   4.350   3.544   8.316 -0.1733 -0.0029  1.4887
  181MOL0     H24958   3.591   3.400   8.257  0.1024  0.7768  0.1633
  181MOL0     H24959   3.344   3.496   8.257 -1.9900  2.4154  0.1038
  181MOL0     H24960   3.056   3.406   7.980  1.3125 -0.0238  4.2865
  181MOL0     H24961   2.797   3.377   7.985  0.8524 -0.8454 -0.0207
  181MOL0     H24962   1.552   3.083   9.427  0.5398  0.0720 -2.7606
  181MOL0     H24963   1.339   3.027   9.543  0.6856  1.2279  1.3810
  181MOL0     H24964   0.999   3.035   9.787  1.4599  0.9425  2.1496
  181MOL0     H24965   0.805   3.011   9.915 -0.3831  0.2120  1.8806
  181MOL0     H24966   0.736   3.315  10.192 -2.1418  0.7944  2.7892
  181MOL0     H24967   0.617   3.409  10.102  1.1871  0.3055  0.4935
  181MOL0     H24968   0.587   3.209  10.315 -1.5004  0.0403  1.3267
  181MOL0     H24969   0.479   3.177  10.172 -0.3575 -1.2054  1.3535
  181MOL0     H24970   0.470   3.416  10.363  0.3817  4.6990 -2.5031
  181MOL0     H24971   0.426   3.443  10.196 -1.4259  0.6992 -0.6382
  181MOL0     H24972   0.257   3.255  10.218  1.6785 -0.2298  0.1458
  181MOL0     H24973   0.218   3.400  10.282  0.7207  0.2552 -0.8300
  181MOL0     H24974   0.304   3.102  10.598  0.0690  1.1204  0.0919
  181MOL0     H24975   0.753   3.438   9.939 -2.7666 -3.1828  3.3127
  181MOL0     H24976   0.976   3.514   9.650  0.5853 -1.7296  0.0367
  181MOL0     H24977   0.822   3.564   9.739 -1.3188 -2.2683  1.5244
  181MOL0     H24978   0.983   3.576   9.810  0.5657  0.4676 -1.8736
  182MOL0     O24979   9.214   0.807   7.451 -0.6793  0.1908 -0.1853
  182MOL0     C24980   9.159   0.907   7.488  0.2232 -0.1624  0.4557
  182MOL0     O24981   9.220   1.014   7.553  0.2025 -0.1470 -0.0241
  182MOL0     C24982   9.348   1.001   7.595 -0.3230  0.1608  0.7258
  182MOL0     C24983   9.454   1.004   7.502 -0.2938 -0.1102  0.5582
  182MOL0     C24984   9.586   0.999   7.543 -0.1631  0.4514 -0.0396
  182MOL0     C24985   9.613   0.987   7.677  0.3754  0.7143 -0.1596
  182MOL0     O24986   9.748   0.976   7.701  0.3536 -0.4828  0.5591
  182MOL0     C24987   9.791   0.925   7.819  0.2229 -0.2155 -1.0849
  182MOL0     C24988   9.952   0.914   7.833  0.8159 -0.1544  0.5054
  182MOL0     C24989  10.003   0.835   7.712  0.1580 -0.0411 -0.0124
  182MOL0     C24990  10.123   0.748   7.757  0.3494 -0.9339  0.8511
  182MOL0     C24991  10.186   0.673   7.636  0.7596  0.1149 -0.4924
  182MOL0     C24992  10.312   0.595   7.687  0.7926 -0.1321  0.2105
  182MOL0     C24993  10.399   0.574   7.567  0.0983  0.7274  0.1268
  182MOL0     C24994  10.529   0.488   7.593  1.0921  0.4175 -0.8673
  182MOL0     N24995  10.607   0.526   7.718 -0.2310  0.0338 -0.9173
  182MOL0     C24996  10.691   0.627   7.729 -0.0434 -0.9994  0.1991
  182MOL0     C24997  10.725   0.641   7.861 -0.9632  0.3703  0.8520
  182MOL0     C24998  10.819   0.741   7.914  0.1138 -0.0735  0.2321
  182MOL0     C24999  10.909   0.685   8.026 -0.3287 -0.3977  0.0059
  182MOL0     C25000  10.979   0.794   8.115 -0.1441 -0.1286 -0.0798
  182MOL0     C25001  11.085   0.749   8.228  0.5257 -0.6697  0.0029
  182MOL0     O25002  11.135   0.623   8.174 -0.1093  0.0173 -0.1745
  182MOL0     C25003  11.256   0.577   8.214 -0.6301  0.1980 -0.0969
  182MOL0     C25004  11.312   0.481   8.121  0.1503  0.9086  0.7699
  182MOL0     C25005  11.443   0.426   8.138  0.5514  1.0755 -0.2748
  182MOL0     C25006  11.489   0.338   8.024  0.4027  0.3290 -0.0127
  182MOL0     C25007  11.514   0.456   8.262 -1.0699  0.4252  0.7665
  182MOL0     C25008  11.663   0.410   8.286  0.1910  0.0549  0.3337
  182MOL0     O25009  11.694   0.413   8.415  0.3343  0.0080 -0.4861
  182MOL0     C25010  11.826   0.426   8.452  0.2105  0.2943  0.6032
  182MOL0     C25011  11.899   0.538   8.460 -0.3006  0.1665 -1.1835
  182MOL0     C25012  12.034   0.538   8.491  0.5973  0.6593 -0.1819
  182MOL0     C25013  12.097   0.422   8.535  0.5451  0.1760 -0.3239
  182MOL0     O25014  12.221   0.456   8.587  0.3449  0.4330  0.4853
  182MOL0     C25015  12.299   0.345   8.649  0.0208  0.2594  0.3172
  182MOL0     C25016  12.432   0.392   8.716  0.0259  0.3412  0.0457
  182MOL0     C25017  12.528   0.440   8.608 -0.0978  0.2083  0.1704
  182MOL0     C25018  12.633   0.525   8.664 -1.0270 -0.1668  0.2652
  182MOL0     C25019  12.735   0.432   8.727 -0.3789 -0.1947  0.3891
  182MOL0     C25020  12.863   0.506   8.704  0.4450 -0.1710 -0.0717
  182MOL0     C25021  12.973   0.452   8.796 -0.7321 -0.0523 -0.0364
  182MOL0     C25022  13.108   0.538   8.786  0.7838 -0.2070 -0.3433
  182MOL0    Cl25023  13.243   0.458   8.874 -0.4209  0.0197 -0.2976
  182MOL0     C25024  12.017   0.301   8.539 -1.1173 -0.2068  0.3907
  182MOL0     C25025  11.888   0.307   8.491 -0.5808 -0.5885  0.0872
  182MOL0     O25026  11.737   0.387   8.191  0.2412  1.1647 -0.6220
  182MOL0     C25027  11.455   0.557   8.347 -0.8493 -0.1946 -0.7097
  182MOL0     C25028  11.331   0.614   8.324 -0.3603 -0.0689  0.2584
  182MOL0     N25029  10.667   0.540   7.928 -0.7277  0.3818  0.0140
  182MOL0     N25030  10.598   0.469   7.843 -0.2347 -0.0584 -0.3582
  182MOL0     C25031   9.509   0.969   7.771  0.8406 -0.1240  0.0697
  182MOL0     C25032   9.372   0.980   7.729  0.0596  0.0161 -0.4087
  182MOL0     C25033   9.013   0.932   7.461 -0.0744  0.6768  0.0415
  182MOL0     C25034   8.948   1.050   7.506 -1.0407 -1.1277  0.3858
  182MOL0     C25035   8.812   1.071   7.479 -0.3288 -0.3456 -0.4627
  182MOL0     C25036   8.731   0.976   7.420 -0.6548  0.5466 -1.3368
  182MOL0     O25037   8.597   1.003   7.404 -0.0593  0.4474  0.6270
  182MOL0     C25038   8.500   0.905   7.398  1.1055  1.1231 -0.6091
  182MOL0     C25039   8.365   0.968   7.427  0.2080 -0.0514  0.1133
  182MOL0     C25040   8.360   1.044   7.562  0.1860  0.3361  0.2697
  182MOL0     C25041   8.216   1.065   7.621 -0.2644 -0.5103 -0.6694
  182MOL0     C25042   8.129   1.127   7.522  0.7031 -0.4724  0.1427
  182MOL0     C25043   8.048   1.171   7.443 -0.6547 -0.5373 -0.9982
  182MOL0     C25044   8.791   0.860   7.388  0.0930 -0.1415  0.6151
  182MOL0     C25045   8.923   0.832   7.410  0.4352 -0.5746 -0.0517
  182MOL0     C25046   8.952   0.691   7.361 -0.6335 -0.8356  0.0483
  182MOL0     H25047   9.435   1.022   7.397  1.2807 -1.4915  0.0055
  182MOL0     H25048   9.666   0.996   7.470  0.8122 -4.0384  0.8955
  182MOL0     H25049   9.740   0.828   7.828 -4.6542  1.9830 -1.8315
  182MOL0     H25050   9.771   0.980   7.911 -1.2579 -2.7500  0.2289
  182MOL0     H25051   9.995   1.015   7.837  0.3074  0.0535  3.5662
  182MOL0     H25052   9.973   0.881   7.935  1.4107  0.2081  0.5042
  182MOL0     H25053   9.919   0.779   7.669 -2.9153  2.6285  1.9932
  182MOL0     H25054  10.035   0.912   7.642  1.0257 -2.1791 -2.0954
  182MOL0     H25055  10.186   0.813   7.817  0.7302 -0.1484 -0.3623
  182MOL0     H25056  10.091   0.663   7.818  1.0230 -2.9804 -1.4532
  182MOL0     H25057  10.222   0.751   7.568 -1.4142  0.5482 -1.2212
  182MOL0     H25058  10.114   0.606   7.587  0.8219  0.5692 -1.2146
  182MOL0     H25059  10.369   0.658   7.755  0.4250 -0.2292  0.6143
  182MOL0     H25060  10.303   0.499   7.739  1.8277 -0.6519 -0.5442
  182MOL0     H25061  10.434   0.669   7.526  2.7565  0.6347  1.9238
  182MOL0     H25062  10.345   0.521   7.488  0.3008  1.2079 -0.3409
  182MOL0     H25063  10.505   0.386   7.625 -2.5381  2.0183  2.1571
  182MOL0     H25064  10.593   0.483   7.504  1.3340  1.5832 -0.7721
  182MOL0     H25065  10.720   0.693   7.647 -0.6885 -0.2301  0.5756
  182MOL0     H25066  10.768   0.830   7.952  0.1309  0.0472 -0.0245
  182MOL0     H25067  10.873   0.783   7.829 -2.5762 -0.2726 -1.6854
  182MOL0     H25068  10.862   0.619   8.099  0.6726 -0.9039  0.1956
  182MOL0     H25069  10.987   0.631   7.972 -0.3929 -1.9662  1.3836
  182MOL0     H25070  11.021   0.865   8.043  2.9798 -1.4505  0.2881
  182MOL0     H25071  10.897   0.845   8.166 -0.1906  0.8208 -1.0743
  182MOL0     H25072  11.163   0.825   8.239  0.1141 -0.2103 -0.2180
  182MOL0     H25073  11.038   0.731   8.325 -0.5660  2.8907  0.2524
  182MOL0     H25074  11.255   0.476   8.029  1.0679 -1.9804  0.2666
  182MOL0     H25075  11.409   0.269   7.992  1.5036 -0.5549 -0.9696
  182MOL0     H25076  11.571   0.273   8.055 -0.1590 -1.2057 -1.5212
  182MOL0     H25077  11.510   0.400   7.937 -0.1250  1.2572  0.5112
  182MOL0     H25078  11.840   0.627   8.442 -2.2800 -0.9107 -0.4013
  182MOL0     H25079  12.084   0.634   8.487  1.6582  0.1115 -0.2428
  182MOL0     H25080  12.233   0.312   8.730  0.3709 -0.3760  0.3577
  182MOL0     H25081  12.312   0.269   8.571  0.2618  1.9299 -1.3320
  182MOL0     H25082  12.412   0.470   8.791  2.2407 -0.3738  1.4903
  182MOL0     H25083  12.479   0.309   8.769  2.6016  1.3019 -0.5711
  182MOL0     H25084  12.463   0.500   8.543  1.2417  1.7052  0.1502
  182MOL0     H25085  12.562   0.355   8.549 -1.4326 -0.6656  0.5966
  182MOL0     H25086  12.591   0.594   8.737 -3.1176 -0.4385 -0.6147
  182MOL0     H25087  12.676   0.576   8.579  0.8967 -0.8375  0.7872
  182MOL0     H25088  12.709   0.419   8.833  0.4861  0.4685  0.6927
  182MOL0     H25089  12.730   0.330   8.687 -0.6754 -1.1311  2.6415
  182MOL0     H25090  12.845   0.609   8.735 -1.0705 -1.5158  4.1704
  182MOL0     H25091  12.894   0.501   8.599 -2.7226 -0.0210 -1.1292
  182MOL0     H25092  12.996   0.347   8.778 -0.0162  0.3387 -1.5891
  182MOL0     H25093  12.933   0.472   8.895  1.3217 -0.2669  0.8846
  182MOL0     H25094  13.096   0.640   8.825  1.7812  0.0865 -0.7840
  182MOL0     H25095  13.133   0.556   8.681 -1.9939  2.1970 -0.7489
  182MOL0     H25096  12.076   0.214   8.567 -1.1507  0.5501  3.1024
  182MOL0     H25097  11.831   0.214   8.483  0.4698 -1.1696 -0.9902
  182MOL0     H25098  11.516   0.588   8.432 -3.9254  0.9118  1.2816
  182MOL0     H25099  11.291   0.681   8.400 -0.5843  0.8883 -0.6806
  182MOL0     H25100   9.549   0.963   7.872  0.4779 -0.1317  0.2114
  182MOL0     H25101   9.291   0.975   7.800  0.7577 -0.6432  0.3566
  182MOL0     H25102   9.010   1.125   7.553 -0.1087 -2.2742  1.0447
  182MOL0     H25103   8.754   1.155   7.516  0.1536 -0.8821  1.7003
  182MOL0     H25104   8.501   0.851   7.303  0.1533  0.6905 -0.3835
  182MOL0     H25105   8.522   0.823   7.467 -0.5611  0.6302 -0.6285
  182MOL0     H25106   8.291   0.888   7.420  1.2373 -1.4080  2.8919
  182MOL0     H25107   8.340   1.031   7.342  0.6089  0.4353  0.3496
  182MOL0     H25108   8.421   0.995   7.637  1.0666  0.6329 -0.2396
  182MOL0     H25109   8.404   1.144   7.551 -0.7704  0.5299 -3.1114
  182MOL0     H25110   8.217   1.135   7.705 -0.2791  0.9302 -1.8252
  182MOL0     H25111   8.178   0.965   7.648 -1.5270  0.1750  0.2013
  182MOL0     H25112   7.995   1.214   7.360  0.3792  1.9401 -0.4660
  182MOL0     H25113   8.724   0.788   7.344 -1.4880  1.9898 -0.6506
  182MOL0     H25114   9.047   0.707   7.309 -0.0859 -0.5752  1.1042
  182MOL0     H25115   8.982   0.634   7.449  4.2800 -3.0681 -2.6408
  182MOL0     H25116   8.876   0.640   7.302 -0.0975 -2.6194  0.8424
  183MOL0     O25117   5.159   7.958  10.795  0.0790 -0.1334 -0.0410
  183MOL0     C25118   5.156   8.054  10.873  0.0975  0.7503 -0.0791
  183MOL0     O25119   5.046   8.109  10.915  0.3387 -0.4550 -0.4507
  183MOL0     C25120   4.917   8.076  10.879  0.0260 -0.8745  0.1372
  183MOL0     C25121   4.866   7.954  10.848  0.0034  0.7768  0.7160
  183MOL0     C25122   4.731   7.928  10.834 -0.0523 -0.5538 -0.1917
  183MOL0     C25123   4.642   8.040  10.844 -0.1099 -0.9072 -0.4113
  183MOL0     O25124   4.505   8.038  10.809 -0.2261 -0.2152  0.4147
  183MOL0     C25125   4.430   7.950  10.898 -0.1398 -0.7522  0.3725
  183MOL0     C25126   4.314   7.891  10.819 -0.4268  0.0922 -0.6343
  183MOL0     C25127   4.353   7.856  10.673 -0.1776  0.7100  0.7129
  183MOL0     C25128   4.250   7.790  10.588 -0.3869  0.1809  0.6992
  183MOL0     C25129   4.318   7.733  10.454  0.0038 -0.3477 -0.3098
  183MOL0     C25130   4.214   7.638  10.387 -0.6079 -1.1132  0.8508
  183MOL0     C25131   4.274   7.559  10.265 -1.0678 -0.2083  0.6711
  183MOL0     C25132   4.159   7.488  10.194 -0.9376 -0.4119 -0.9962
  183MOL0     N25133   4.206   7.450  10.058 -0.2287  0.3307  0.1976
  183MOL0     C25134   4.259   7.329  10.019 -0.6174 -0.1469 -0.5941
  183MOL0     C25135   4.291   7.343   9.891  0.3198  0.1582  0.5717
  183MOL0     C25136   4.364   7.250   9.795 -0.4486  0.0668 -0.5108
  183MOL0     C25137   4.490   7.299   9.721  0.2563 -0.0672  0.0470
  183MOL0     C25138   4.582   7.371   9.824  0.2456 -0.3284 -0.5525
  183MOL0     C25139   4.726   7.368   9.778  0.7350 -0.6279 -0.0764
  183MOL0     O25140   4.776   7.234   9.781  0.9727 -0.3587  0.1516
  183MOL0     C25141   4.912   7.206   9.785 -0.6948  1.3861 -0.0527
  183MOL0     C25142   5.021   7.294   9.770  0.7182  0.4733 -0.2930
  183MOL0     C25143   5.152   7.254   9.785 -0.8521 -0.6696  0.2800
  183MOL0     C25144   5.264   7.359   9.754  0.2058  0.3762 -0.0653
  183MOL0     C25145   5.181   7.120   9.828 -0.8095  0.8409 -0.7168
  183MOL0     C25146   5.323   7.068   9.846 -0.6098 -0.4977 -0.1278
  183MOL0     O25147   5.439   7.138   9.817  0.0642  0.7633  0.2020
  183MOL0     C25148   5.557   7.070   9.830 -0.0112 -0.1954  0.6338
  183MOL0     C25149   5.637   7.095   9.944  0.3254  0.6986 -1.0747
  183MOL0     C25150   5.765   7.037   9.952  0.5079  0.4329 -0.4244
  183MOL0     C25151   5.821   6.956   9.853 -0.1672  0.1451  0.1416
  183MOL0     O25152   5.949   6.900   9.876 -0.1577  0.1078 -0.1759
  183MOL0     C25153   5.992   6.790   9.795  0.1234  0.3435  0.6439
  183MOL0     C25154   6.120   6.723   9.851  0.0999 -0.2910 -0.6219
  183MOL0     C25155   6.246   6.811   9.865 -0.2831  0.0662 -0.3096
  183MOL0     C25156   6.283   6.867   9.729  0.8474 -0.3491  0.0539
  183MOL0     C25157   6.421   6.931   9.739  0.5704 -0.9928  0.0438
  183MOL0     C25158   6.454   6.996   9.604  0.6200 -0.2064 -0.5606
  183MOL0     C25159   6.602   7.024   9.594 -1.1620  0.3382 -0.7230
  183MOL0     C25160   6.655   7.006   9.455 -0.2137 -0.1254 -0.5342
  183MOL0    Cl25161   6.603   7.150   9.369 -0.0158 -0.6390 -0.0077
  183MOL0     C25162   5.749   6.936   9.733  0.0006 -0.3029  0.3684
  183MOL0     C25163   5.616   6.987   9.720 -0.7517  0.1184 -1.6165
  183MOL0     O25164   5.325   6.955   9.882  0.1897 -0.0654  0.0307
  183MOL0     C25165   5.073   7.029   9.839  0.6749 -0.3231 -0.4054
  183MOL0     C25166   4.945   7.067   9.804  1.1951 -0.2410 -0.0999
  183MOL0     N25167   4.239   7.469   9.854 -0.2599  0.0318 -0.2092
  183MOL0     N25168   4.188   7.529   9.954 -0.2189  0.0629  0.4952
  183MOL0     C25169   4.693   8.167  10.862  0.7617  0.4172 -0.2610
  183MOL0     C25170   4.829   8.181  10.899  0.3349  0.1918 -0.6727
  183MOL0     C25171   5.288   8.125  10.912 -0.5980 -0.9657  0.2337
  183MOL0     C25172   5.404   8.059  10.870  0.4335  0.0826 -0.7227
  183MOL0     C25173   5.532   8.086  10.925 -0.4480 -0.3767  0.6484
  183MOL0     C25174   5.550   8.193  11.009 -0.0004 -0.1509 -0.4796
  183MOL0     O25175   5.683   8.232  11.023  0.2019  0.1885 -0.2761
  183MOL0     C25176   5.715   8.349  11.099  0.1102 -0.0776 -1.0433
  183MOL0     C25177   5.869   8.369  11.084 -0.4495 -1.2187 -0.5570
  183MOL0     C25178   5.956   8.298  11.189  0.2588 -0.2276 -0.5532
  183MOL0     C25179   6.108   8.316  11.159 -0.0203 -0.3538 -0.0205
  183MOL0     C25180   6.187   8.247  11.259 -0.3633 -1.0027 -0.1234
  183MOL0     C25181   6.250   8.187  11.344  0.3852  1.3315  0.2078
  183MOL0     C25182   5.441   8.270  11.043 -0.3027  0.1409 -0.0949
  183MOL0     C25183   5.309   8.233  10.999 -0.3146  1.5436  1.0795
  183MOL0     C25184   5.199   8.319  11.033 -0.0184  0.5938 -0.1878
  183MOL0     H25185   4.928   7.866  10.835 -3.0870 -1.1178 -3.5586
  183MOL0     H25186   4.678   7.836  10.815  1.5025 -2.1574  2.5642
  183MOL0     H25187   4.385   8.006  10.980 -2.5946 -0.5627 -0.9988
  183MOL0     H25188   4.482   7.860  10.933 -4.7483 -3.5203  0.9460
  183MOL0     H25189   4.282   7.804  10.877 -2.1707  0.7016 -0.6504
  183MOL0     H25190   4.229   7.959  10.812 -0.6885  0.1319  1.9913
  183MOL0     H25191   4.388   7.939  10.611  0.2995 -1.0323 -1.4763
  183MOL0     H25192   4.433   7.781  10.670 -0.7637 -0.0032  2.2356
  183MOL0     H25193   4.204   7.710  10.646 -1.9689  0.4311 -0.1593
  183MOL0     H25194   4.178   7.867  10.558  0.8808  1.6288  1.2776
  183MOL0     H25195   4.410   7.675  10.467  1.2936  0.8318 -3.2017
  183MOL0     H25196   4.339   7.817  10.387  0.6022 -0.0203  0.2742
  183MOL0     H25197   4.169   7.576  10.465 -2.2853  0.6446  1.3682
  183MOL0     H25198   4.129   7.696  10.349  0.1650 -0.8840 -0.5964
  183MOL0     H25199   4.348   7.483  10.291 -1.3759 -1.2538 -1.3290
  183MOL0     H25200   4.321   7.625  10.190  0.8234 -2.6280 -0.4369
  183MOL0     H25201   4.130   7.396  10.246 -2.0542  0.8946  0.8159
  183MOL0     H25202   4.069   7.551  10.191 -0.6238  0.0199 -1.9913
  183MOL0     H25203   4.269   7.235  10.073 -2.0532 -0.1180 -0.2362
  183MOL0     H25204   4.300   7.198   9.723 -0.4954 -1.0115  0.2832
  183MOL0     H25205   4.390   7.164   9.857  0.2048 -0.0271 -0.9044
  183MOL0     H25206   4.541   7.215   9.673  1.1969 -0.1392  1.1368
  183MOL0     H25207   4.465   7.367   9.639  1.8179  0.7906  0.2424
  183MOL0     H25208   4.547   7.474   9.825  0.4594 -0.2360 -1.6800
  183MOL0     H25209   4.577   7.326   9.924  1.2094 -1.7969 -1.1175
  183MOL0     H25210   4.742   7.419   9.683  0.2301 -2.1132 -0.9895
  183MOL0     H25211   4.778   7.423   9.856  0.5871 -4.3065  2.9445
  183MOL0     H25212   4.994   7.393   9.735 -1.5037 -0.0940 -0.3119
  183MOL0     H25213   5.207   7.447   9.725 -0.5841  0.3557  1.3157
  183MOL0     H25214   5.327   7.318   9.674  0.7107  1.0253 -0.0034
  183MOL0     H25215   5.331   7.382   9.837  2.1768 -3.9413 -0.1936
  183MOL0     H25216   5.597   7.148  10.030  1.3007  0.0856 -0.2216
  183MOL0     H25217   5.814   7.049  10.049 -0.9831 -1.1651  0.6096
  183MOL0     H25218   5.910   6.718   9.799 -0.0132  0.5353  2.3159
  183MOL0     H25219   6.005   6.825   9.692 -3.0300 -1.5624 -0.5301
  183MOL0     H25220   6.099   6.686   9.952  2.5267 -0.9514 -0.3016
  183MOL0     H25221   6.141   6.627   9.804  0.3680 -1.2143  1.3008
  183MOL0     H25222   6.328   6.740   9.881 -1.4873 -1.3778 -0.3670
  183MOL0     H25223   6.238   6.882   9.948  2.2285  1.0281 -0.8141
  183MOL0     H25224   6.207   6.934   9.688  2.2176 -0.6937 -3.4016
  183MOL0     H25225   6.293   6.791   9.650 -1.1857 -1.3095  0.6422
  183MOL0     H25226   6.421   7.005   9.819 -1.2335  0.3821 -1.1183
  183MOL0     H25227   6.483   6.845   9.764 -0.2875 -0.9283  2.6806
  183MOL0     H25228   6.402   7.091   9.588  0.4504 -0.2818 -0.4546
  183MOL0     H25229   6.415   6.935   9.522  0.0232 -2.6172  1.4153
  183MOL0     H25230   6.659   6.949   9.650 -2.1543 -0.4786 -0.7528
  183MOL0     H25231   6.632   7.121   9.633 -2.4401  0.3707  0.2308
  183MOL0     H25232   6.627   6.909   9.413  2.9634 -1.4243  0.0016
  183MOL0     H25233   6.763   7.017   9.470 -0.2638 -2.0254  2.0063
  183MOL0     H25234   5.791   6.892   9.643  0.7574 -2.4709  1.7113
  183MOL0     H25235   5.558   6.982   9.628 -0.6384  0.3797 -1.7026
  183MOL0     H25236   5.091   6.927   9.870 -0.5478 -0.3597  0.2602
  183MOL0     H25237   4.860   7.002   9.822  0.1228  1.2828  0.4947
  183MOL0     H25238   4.622   8.249  10.865 -0.8998 -0.9791 -0.0818
  183MOL0     H25239   4.872   8.277  10.925  3.4338 -0.9202 -1.3187
  183MOL0     H25240   5.396   7.976  10.801  3.7895 -0.3704 -0.7222
  183MOL0     H25241   5.616   8.029  10.885 -2.3466 -1.9054 -1.3426
  183MOL0     H25242   5.657   8.438  11.074 -1.6714 -0.0414  2.5694
  183MOL0     H25243   5.687   8.341  11.204 -0.0254  0.9228 -0.9948
  183MOL0     H25244   5.891   8.476  11.079  1.2850 -1.5991 -2.6619
  183MOL0     H25245   5.897   8.330  10.986  1.4977  0.1832 -0.6228
  183MOL0     H25246   5.934   8.332  11.291 -3.5068 -0.1922 -1.2574
  183MOL0     H25247   5.942   8.189  11.192  3.7428 -0.7863  1.3585
  183MOL0     H25248   6.134   8.422  11.157  2.9465 -1.0069 -0.1340
  183MOL0     H25249   6.126   8.293  11.053  0.5677  2.5469 -0.6396
  183MOL0     H25250   6.327   8.140  11.402  1.0315  0.6810 -1.1380
  183MOL0     H25251   5.453   8.363  11.097  1.9164 -1.9432  3.3866
  183MOL0     H25252   5.238   8.421  11.033 -0.8987  0.9943 -2.8236
  183MOL0     H25253   5.116   8.319  10.961  2.8627  2.9304 -3.8681
  183MOL0     H25254   5.180   8.295  11.138  2.2413  0.6596  0.2714
  184MOL0     O25255   9.579   1.953   7.373 -0.0516  0.3838  0.7679
  184MOL0     C25256   9.574   1.981   7.494 -0.4438 -0.2550 -0.5902
  184MOL0     O25257   9.669   1.947   7.592 -0.1664 -0.0569  0.2793
  184MOL0     C25258   9.774   1.872   7.554 -0.4092 -0.0299 -0.3764
  184MOL0     C25259   9.860   1.896   7.449  0.7531  0.1348  0.1150
  184MOL0     C25260   9.975   1.819   7.436 -0.0785  0.4325  0.3747
  184MOL0     C25261  10.018   1.723   7.528 -0.3046  0.5948  1.1042
  184MOL0     O25262  10.124   1.636   7.514 -0.1761 -0.1731 -0.2867
  184MOL0     C25263  10.188   1.622   7.380 -0.0483 -0.0582 -0.5682
  184MOL0     C25264  10.296   1.508   7.389  0.1805  0.1513 -0.5150
  184MOL0     C25265  10.407   1.537   7.500  0.2708  0.7478 -0.1290
  184MOL0     C25266  10.506   1.422   7.482  0.0224 -0.2095 -0.5647
  184MOL0     C25267  10.598   1.427   7.612 -0.8071 -0.3321 -0.5324
  184MOL0     C25268  10.686   1.292   7.620  0.1988 -0.1009 -0.8589
  184MOL0     C25269  10.827   1.304   7.670 -0.0202 -0.1598  0.5539
  184MOL0     C25270  10.897   1.182   7.642  0.4270  0.1656  0.4786
  184MOL0     N25271  11.031   1.178   7.706 -0.2870  0.7597 -0.7608
  184MOL0     C25272  11.070   1.120   7.828  0.1122  0.7536  0.3137
  184MOL0     C25273  11.208   1.147   7.835 -0.5676 -0.0944  1.1149
  184MOL0     C25274  11.290   1.085   7.940  0.9465  0.9100 -0.0348
  184MOL0     C25275  11.315   0.940   7.899 -0.0568 -0.4929  0.4110
  184MOL0     C25276  11.393   0.876   8.006  0.6771 -1.0750 -0.1020
  184MOL0     C25277  11.473   0.747   7.972  0.7514 -0.6202 -0.7942
  184MOL0     O25278  11.568   0.768   7.869 -0.1910  0.0573 -0.4826
  184MOL0     C25279  11.701   0.782   7.905 -0.5746  0.4620 -0.4135
  184MOL0     C25280  11.753   0.756   8.033  0.7405  0.0803  0.2250
  184MOL0     C25281  11.882   0.784   8.065  0.4305  0.3621  0.7895
  184MOL0     C25282  11.931   0.755   8.208 -0.3182 -0.1044 -0.9033
  184MOL0     C25283  11.973   0.849   7.970 -0.0538  0.9702 -0.4083
  184MOL0     C25284  12.109   0.889   7.997 -0.9666 -0.0658  0.2610
  184MOL0     O25285  12.145   1.026   7.981  0.0857  0.5000 -0.3357
  184MOL0     C25286  12.278   1.055   8.015 -0.1645  1.0616  0.2279
  184MOL0     C25287  12.338   1.034   8.139 -0.4118 -0.2849  0.0186
  184MOL0     C25288  12.469   1.066   8.146 -0.0217  0.3486  0.2769
  184MOL0     C25289  12.544   1.136   8.051  0.5576  0.3997  0.3831
  184MOL0     O25290  12.679   1.170   8.062 -0.2861  0.1081  0.2456
  184MOL0     C25291  12.766   1.063   8.120 -0.1022  0.5614  0.7411
  184MOL0     C25292  12.906   1.109   8.098  0.2768  0.7351  0.5897
  184MOL0     C25293  13.004   1.028   8.171  0.6342  0.1212  0.0714
  184MOL0     C25294  13.143   1.061   8.110 -0.0718 -0.3366  0.3927
  184MOL0     C25295  13.250   0.989   8.193  0.0465  0.4592  0.2123
  184MOL0     C25296  13.252   0.834   8.167 -0.1906 -0.1606 -0.0623
  184MOL0     C25297  13.398   0.774   8.174 -0.2128  1.0339 -0.2567
  184MOL0     C25298  13.474   0.801   8.300  0.0010  0.0667 -0.4013
  184MOL0    Cl25299  13.649   0.743   8.302 -0.1233 -0.2221 -0.2566
  184MOL0     C25300  12.469   1.175   7.934 -0.1434  0.3057 -0.4091
  184MOL0     C25301  12.342   1.132   7.915  0.3350 -1.3871 -0.5448
  184MOL0     O25302  12.188   0.808   8.031 -0.0924 -0.4773 -0.4974
  184MOL0     C25303  11.921   0.868   7.834 -0.4770  0.0585 -0.3700
  184MOL0     C25304  11.788   0.838   7.812  0.2660 -0.0983  0.1939
  184MOL0     N25305  11.248   1.227   7.727  0.0737  0.9851  0.3404
  184MOL0     N25306  11.137   1.240   7.655  0.2104 -0.2810  0.5513
  184MOL0     C25307   9.931   1.704   7.630 -0.6616  0.2041  0.0743
  184MOL0     C25308   9.809   1.776   7.643  0.0462 -0.8199 -0.9242
  184MOL0     C25309   9.455   2.040   7.552  0.1981 -0.6527 -0.2186
  184MOL0     C25310   9.379   1.967   7.642  0.2692 -0.2721 -0.1129
  184MOL0     C25311   9.265   2.019   7.693  0.6736  0.0086  0.2668
  184MOL0     C25312   9.210   2.144   7.644 -0.4920 -0.4040 -0.2387
  184MOL0     O25313   9.104   2.206   7.703  0.1228 -0.3315 -0.3947
  184MOL0     C25314   9.011   2.125   7.782 -0.0632  0.6645 -0.6850
  184MOL0     C25315   8.902   2.219   7.802  0.3864 -0.4850  0.2715
  184MOL0     C25316   8.783   2.141   7.863 -0.4629  1.5739 -0.2714
  184MOL0     C25317   8.649   2.231   7.879  0.4342  0.4239 -0.0635
  184MOL0     C25318   8.534   2.144   7.911  0.0904 -0.1750  0.5108
  184MOL0     C25319   8.431   2.078   7.946 -0.2388 -0.4030  0.0111
  184MOL0     C25320   9.289   2.213   7.561  0.2707 -0.4087 -0.2614
  184MOL0     C25321   9.401   2.162   7.508  0.0120 -0.1095  0.1073
  184MOL0     C25322   9.484   2.250   7.421  0.5615 -0.0495  0.1518
  184MOL0     H25323   9.843   1.963   7.366  2.7357 -0.7058 -1.0401
  184MOL0     H25324  10.037   1.828   7.347  0.8036 -0.6006  0.8516
  184MOL0     H25325  10.227   1.719   7.348  0.1881  0.6634  1.7270
  184MOL0     H25326  10.108   1.590   7.313  0.9555 -1.0608 -1.3069
  184MOL0     H25327  10.239   1.418   7.414  1.4894 -0.5580  0.0494
  184MOL0     H25328  10.340   1.493   7.290 -0.2048  2.8067 -1.1561
  184MOL0     H25329  10.452   1.633   7.474  1.7635  0.2711  0.5693
  184MOL0     H25330  10.372   1.543   7.603  1.4597  0.4846  0.3081
  184MOL0     H25331  10.453   1.326   7.490 -0.2870  0.0802  5.4950
  184MOL0     H25332  10.561   1.433   7.389  0.4343 -1.7682 -0.5354
  184MOL0     H25333  10.548   1.446   7.707 -1.8827  1.4172 -1.3954
  184MOL0     H25334  10.673   1.506   7.605 -1.7556  0.8097  1.4383
  184MOL0     H25335  10.626   1.220   7.676 -0.6338  0.1576 -1.3885
  184MOL0     H25336  10.692   1.270   7.513 -0.3313  2.6036 -1.5302
  184MOL0     H25337  10.829   1.333   7.775 -0.6280 -0.3676  0.6262
  184MOL0     H25338  10.866   1.385   7.606 -1.2271  0.2483  0.3202
  184MOL0     H25339  10.839   1.100   7.685 -2.3937  0.9952 -1.4350
  184MOL0     H25340  10.890   1.153   7.537  0.6018  2.7594 -0.3162
  184MOL0     H25341  10.998   1.065   7.888  0.0684  0.2988 -0.1541
  184MOL0     H25342  11.238   1.082   8.036  0.1804 -1.9105 -0.4655
  184MOL0     H25343  11.389   1.130   7.956  0.8892  0.8233  0.5956
  184MOL0     H25344  11.226   0.885   7.868 -0.1436 -0.5947  0.8344
  184MOL0     H25345  11.381   0.952   7.813 -2.9998  1.4010 -1.7610
  184MOL0     H25346  11.464   0.941   8.059 -0.1254 -1.4806  1.5444
  184MOL0     H25347  11.319   0.846   8.081 -1.0983  2.2337 -0.2982
  184MOL0     H25348  11.501   0.701   8.067 -0.8406  0.8435  0.4275
  184MOL0     H25349  11.408   0.671   7.928  2.4430 -0.8168 -3.1944
  184MOL0     H25350  11.696   0.699   8.105 -2.0593 -1.8661 -3.2373
  184MOL0     H25351  12.023   0.806   8.235 -1.1572  0.8952  0.1835
  184MOL0     H25352  11.952   0.650   8.229  0.5614  0.5509  1.8579
  184MOL0     H25353  11.861   0.797   8.280  2.5945  2.3297  0.7051
  184MOL0     H25354  12.287   0.984   8.221 -0.2869  0.3369  0.4823
  184MOL0     H25355  12.519   1.045   8.240  1.3243  2.1549  0.0225
  184MOL0     H25356  12.732   1.049   8.223 -2.3123 -0.3725 -0.0430
  184MOL0     H25357  12.759   0.968   8.067 -0.3683 -0.7243  2.9711
  184MOL0     H25358  12.931   1.095   7.992  1.0369 -2.8264  1.1012
  184MOL0     H25359  12.916   1.212   8.133  1.2008  1.4404 -1.5887
  184MOL0     H25360  12.986   0.923   8.146  1.5549  0.9110 -4.7255
  184MOL0     H25361  12.999   1.031   8.281  0.3468  2.1548  0.0403
  184MOL0     H25362  13.167   1.167   8.122 -0.7595 -0.4142  3.1014
  184MOL0     H25363  13.152   1.024   8.007  1.0880 -1.2440  0.7980
  184MOL0     H25364  13.352   1.017   8.164  0.2404 -1.2930 -0.9192
  184MOL0     H25365  13.248   1.013   8.299  2.0745  1.5290  0.0592
  184MOL0     H25366  13.209   0.803   8.071  0.7608 -1.6344 -0.0325
  184MOL0     H25367  13.196   0.793   8.251  1.4888 -1.2923  0.5604
  184MOL0     H25368  13.456   0.812   8.090 -3.1975 -0.7273 -3.3793
  184MOL0     H25369  13.383   0.669   8.145 -1.9246  2.2535 -4.6433
  184MOL0     H25370  13.415   0.752   8.377 -0.4996 -0.2933 -1.0000
  184MOL0     H25371  13.473   0.907   8.328  2.3851 -0.6645  2.9985
  184MOL0     H25372  12.522   1.241   7.865  1.5475  0.1131  0.6359
  184MOL0     H25373  12.280   1.178   7.839 -1.2524 -1.3283  0.7247
  184MOL0     H25374  11.986   0.915   7.761  0.8309 -0.0804  0.6585
  184MOL0     H25375  11.744   0.861   7.716  0.3646 -0.8876 -0.0503
  184MOL0     H25376   9.944   1.626   7.705  0.7979  0.9023  0.5763
  184MOL0     H25377   9.749   1.741   7.726 -1.2176 -2.1501 -2.3104
  184MOL0     H25378   9.409   1.869   7.676 -1.5468 -1.1502 -0.9168
  184MOL0     H25379   9.210   1.958   7.764 -1.2147  1.6199  0.2757
  184MOL0     H25380   8.991   2.033   7.727 -1.3148 -0.2490  1.1941
  184MOL0     H25381   9.036   2.094   7.884 -1.2885  0.2170 -0.5096
  184MOL0     H25382   8.877   2.260   7.704 -0.2182  1.2664  1.1246
  184MOL0     H25383   8.936   2.296   7.872 -1.5580  0.4980  0.1717
  184MOL0     H25384   8.766   2.067   7.784 -0.0199  1.2741 -0.0888
  184MOL0     H25385   8.802   2.095   7.961 -1.3857  1.8652  0.0565
  184MOL0     H25386   8.637   2.273   7.778  0.3177  1.0266  0.1932
  184MOL0     H25387   8.655   2.311   7.953 -1.3976  0.6578 -0.1354
  184MOL0     H25388   8.352   2.010   7.969 -0.2490 -1.1947 -2.0791
  184MOL0     H25389   9.246   2.305   7.524 -0.4114 -1.2120 -1.5635
  184MOL0     H25390   9.550   2.311   7.484 -3.1413  3.2469  1.2335
  184MOL0     H25391   9.544   2.196   7.347  1.4451  1.2588 -0.1372
  184MOL0     H25392   9.418   2.306   7.354  0.6951  2.0378  1.6593
  185MOL0     O25393   4.673   9.171   9.970  0.1874  0.2854 -0.1421
  185MOL0     C25394   4.605   9.074  10.006 -0.5239 -1.2205  0.8282
  185MOL0     O25395   4.657   8.966  10.083  0.5570 -0.5043 -0.2529
  185MOL0     C25396   4.785   8.960  10.120 -0.0966 -0.0483  0.2435
  185MOL0     C25397   4.856   9.030  10.218 -0.2906  0.2331 -0.4370
  185MOL0     C25398   4.990   8.993  10.255 -0.9975 -0.1430  0.3973
  185MOL0     C25399   5.058   8.904  10.168 -0.1636 -0.2497  0.6919
  185MOL0     O25400   5.192   8.880  10.175  0.6400  0.2761  0.3957
  185MOL0     C25401   5.263   8.935  10.288  0.9395 -0.5195  0.8005
  185MOL0     C25402   5.407   8.873  10.291 -0.8573  0.1439 -0.5850
  185MOL0     C25403   5.484   8.913  10.417  0.4983 -0.0104  0.0946
  185MOL0     C25404   5.605   8.833  10.452  0.5740  0.3057 -0.7877
  185MOL0     C25405   5.725   8.848  10.355 -0.1034  0.4394  0.5062
  185MOL0     C25406   5.843   8.765  10.402 -0.1237  0.4385 -0.2081
  185MOL0     C25407   5.971   8.794  10.316 -0.9221  0.3839  0.4578
  185MOL0     C25408   6.076   8.683  10.353  0.0333 -0.0366  0.1157
  185MOL0     N25409   6.203   8.693  10.283 -0.0984 -0.3558 -0.6035
  185MOL0     C25410   6.212   8.698  10.145  0.4196  0.1288  0.0026
  185MOL0     C25411   6.340   8.702  10.126 -0.3627 -0.0515 -1.0279
  185MOL0     C25412   6.399   8.683   9.981  0.2160 -0.2816 -0.7258
  185MOL0     C25413   6.523   8.780   9.939  0.1431 -0.4029 -0.0718
  185MOL0     C25414   6.482   8.925   9.921  0.0914 -0.0785  0.0127
  185MOL0     C25415   6.435   8.951   9.776  0.6667  0.8848 -0.5521
  185MOL0     O25416   6.400   9.086   9.747  0.8818  0.4510  0.7276
  185MOL0     C25417   6.492   9.178   9.716 -0.4489  0.4064  0.7387
  185MOL0     C25418   6.449   9.298   9.663 -0.6986 -0.8067 -0.9183
  185MOL0     C25419   6.535   9.407   9.630 -0.0043  0.2285 -0.3317
  185MOL0     C25420   6.483   9.548   9.588  0.6015 -0.0002 -0.0544
  185MOL0     C25421   6.671   9.386   9.641 -0.4064  0.0381  0.9222
  185MOL0     C25422   6.774   9.486   9.600  0.2406  0.4524  0.0165
  185MOL0     O25423   6.761   9.621   9.631 -0.4382 -0.0806  0.2067
  185MOL0     C25424   6.870   9.702   9.613  0.6182 -0.7365  0.1146
  185MOL0     C25425   6.860   9.818   9.528  0.3344  0.0269  0.2539
  185MOL0     C25426   6.967   9.894   9.500 -0.4871  0.7458  0.1286
  185MOL0     C25427   7.092   9.862   9.559  0.5510 -0.9206  0.7203
  185MOL0     O25428   7.201   9.933   9.510 -0.0886 -0.3755  0.1049
  185MOL0     C25429   7.293   9.983   9.611  0.1163 -0.1082  0.2141
  185MOL0     C25430   7.398  10.074   9.550 -0.4237 -0.5426  0.8305
  185MOL0     C25431   7.515   9.990   9.487  0.3201 -0.8207 -0.2832
  185MOL0     C25432   7.616   9.925   9.587  0.7507  0.5790 -0.3139
  185MOL0     C25433   7.718  10.027   9.649 -0.5188  0.8281  0.0064
  185MOL0     C25434   7.840   9.961   9.720  0.2110  1.6549 -0.4549
  185MOL0     C25435   7.965  10.055   9.728 -0.6556 -0.3040 -0.5779
  185MOL0     C25436   7.945  10.173   9.823 -0.2766  0.2693  0.1094
  185MOL0    Cl25437   7.943  10.134  10.000 -0.2516  0.0680 -0.4899
  185MOL0     C25438   7.102   9.756   9.652 -0.0331  0.5851 -0.8740
  185MOL0     C25439   6.986   9.680   9.684  0.0778 -0.5474  0.3846
  185MOL0     O25440   6.869   9.440   9.546 -0.2679  0.2699 -0.0002
  185MOL0     C25441   6.720   9.257   9.685 -0.2633  0.2418  0.3106
  185MOL0     C25442   6.624   9.161   9.732  0.3378 -0.2328  0.2777
  185MOL0     N25443   6.410   8.710  10.251 -0.3718  1.1392  0.0335
  185MOL0     N25444   6.325   8.711  10.343  1.2572  0.0665 -0.1816
  185MOL0     C25445   4.977   8.831  10.073 -0.3496  0.7298 -0.3342
  185MOL0     C25446   4.845   8.852  10.056 -0.4047 -0.1062 -0.8394
  185MOL0     C25447   4.465   9.058   9.956 -0.5096  0.3656  0.0886
  185MOL0     C25448   4.409   8.929   9.967 -0.4514 -0.5263  0.0380
  185MOL0     C25449   4.296   8.901   9.895  0.1249  0.7014  0.1467
  185MOL0     C25450   4.234   8.992   9.817 -0.1194 -0.2130 -0.3255
  185MOL0     O25451   4.127   8.942   9.745 -0.1474 -0.3617  0.0720
  185MOL0     C25452   4.057   9.024   9.655 -0.6050  0.4732  0.8969
  185MOL0     C25453   4.039   8.937   9.532 -0.2166 -0.2069 -0.3383
  185MOL0     C25454   3.930   8.822   9.540  0.2646  0.0670 -0.2400
  185MOL0     C25455   3.977   8.693   9.469  0.4906 -0.5568 -1.1218
  185MOL0     C25456   3.942   8.693   9.323 -0.5744 -1.0105  0.3372
  185MOL0     C25457   3.914   8.671   9.210 -0.4610 -0.2438  0.9993
  185MOL0     C25458   4.270   9.129   9.823  0.4075  0.7970  0.9038
  185MOL0     C25459   4.387   9.159   9.889 -0.3238  0.5416  0.6003
  185MOL0     C25460   4.440   9.299   9.877 -0.5795 -0.2402 -0.1090
  185MOL0     H25461   4.797   9.094  10.283 -1.4068 -0.5691 -0.6318
  185MOL0     H25462   5.043   9.038  10.338 -0.1838 -1.0359  0.3794
  185MOL0     H25463   5.225   8.907  10.387  0.8649 -0.4897  0.7795
  185MOL0     H25464   5.246   9.043  10.285  0.0643 -0.6494 -1.8550
  185MOL0     H25465   5.394   8.765  10.287  3.1178 -0.4895 -2.2287
  185MOL0     H25466   5.465   8.902  10.203 -0.1524  2.9404  0.6772
  185MOL0     H25467   5.515   9.017  10.401 -2.8532  1.2402  0.7974
  185MOL0     H25468   5.405   8.910  10.493 -2.6527  0.3009 -2.9571
  185MOL0     H25469   5.629   8.876  10.549 -1.0578  1.1465 -0.7270
  185MOL0     H25470   5.587   8.725  10.457  1.2759  0.2048 -0.3050
  185MOL0     H25471   5.754   8.953  10.350 -0.0210  0.3538 -1.1278
  185MOL0     H25472   5.704   8.813  10.253  3.0783  1.2356 -0.5101
  185MOL0     H25473   5.863   8.782  10.508  0.1930 -0.1538 -0.1680
  185MOL0     H25474   5.831   8.656  10.398  2.9444  0.0408 -0.4501
  185MOL0     H25475   6.010   8.893  10.340  0.6511 -0.8481  3.4858
  185MOL0     H25476   5.963   8.783  10.207  1.4710 -2.5483  0.4403
  185MOL0     H25477   6.094   8.699  10.460 -1.3648 -2.5992  0.8111
  185MOL0     H25478   6.030   8.585  10.339 -0.6515  0.2146  0.5731
  185MOL0     H25479   6.134   8.688  10.069  0.5896  1.0102 -0.2926
  185MOL0     H25480   6.320   8.678   9.906 -0.1601 -1.8059 -0.2530
  185MOL0     H25481   6.441   8.582   9.985 -1.0696 -0.8211  2.8639
  185MOL0     H25482   6.590   8.781  10.026 -3.2515 -1.9459  2.8718
  185MOL0     H25483   6.582   8.741   9.856  2.4864 -1.2295  1.8601
  185MOL0     H25484   6.412   8.955  10.000 -1.3380 -2.3065 -0.2975
  185MOL0     H25485   6.574   8.978   9.945 -0.8560  2.2522 -1.1638
  185MOL0     H25486   6.504   8.927   9.694 -0.4333  1.2070 -1.6145
  185MOL0     H25487   6.352   8.882   9.758 -0.5412  1.6301  1.6769
  185MOL0     H25488   6.342   9.317   9.659 -0.9240 -0.2335  3.2527
  185MOL0     H25489   6.535   9.591   9.501 -2.7325  3.0383 -0.7789
  185MOL0     H25490   6.487   9.629   9.662 -1.0663 -0.1967  0.2795
  185MOL0     H25491   6.378   9.534   9.561  0.6329 -1.2672  0.4390
  185MOL0     H25492   6.771   9.854   9.477  0.8243  1.4508  0.3534
  185MOL0     H25493   6.944   9.974   9.430  1.3598  0.2077 -1.1609
  185MOL0     H25494   7.236  10.053   9.673  0.6972  0.7940 -0.2461
  185MOL0     H25495   7.340   9.899   9.664  1.6919 -1.3674 -2.9419
  185MOL0     H25496   7.360  10.150   9.481 -1.1392 -0.9141  0.8037
  185MOL0     H25497   7.442  10.136   9.629 -0.2897 -0.0007  0.3309
  185MOL0     H25498   7.572  10.062   9.427 -0.9012  1.7220  1.4358
  185MOL0     H25499   7.467   9.911   9.429 -1.3382 -0.7657  0.9667
  185MOL0     H25500   7.677   9.859   9.523  1.3263 -0.2287  1.0250
  185MOL0     H25501   7.567   9.853   9.653 -1.4151 -0.0266 -2.4214
  185MOL0     H25502   7.742  10.071   9.552 -1.7922 -1.8141 -1.6381
  185MOL0     H25503   7.658  10.087   9.719 -1.8186 -2.0512  1.5471
  185MOL0     H25504   7.880   9.873   9.668 -0.8012 -0.0864  1.5334
  185MOL0     H25505   7.800   9.943   9.820 -0.2541  3.1160 -0.3581
  185MOL0     H25506   7.988  10.091   9.628 -0.9939 -1.4476 -1.0839
  185MOL0     H25507   8.050   9.995   9.763 -1.9860 -2.3165 -0.5799
  185MOL0     H25508   7.844  10.214   9.809 -0.1070  1.5892  2.3114
  185MOL0     H25509   8.007  10.260   9.801  2.1283 -1.5485 -0.7542
  185MOL0     H25510   7.201   9.722   9.680  1.1179  3.0351 -1.6821
  185MOL0     H25511   6.983   9.610   9.767  3.2086  1.8005  2.7248
  185MOL0     H25512   6.825   9.241   9.706  0.0617  1.9919  0.1921
  185MOL0     H25513   6.664   9.072   9.779  0.8513 -0.8768 -1.3137
  185MOL0     H25514   5.038   8.757  10.023  1.1447  2.2866 -0.8896
  185MOL0     H25515   4.794   8.791   9.983 -1.9370 -0.6426  0.6149
  185MOL0     H25516   4.460   8.847  10.018 -3.3127 -2.4129  0.1030
  185MOL0     H25517   4.269   8.796   9.890  0.2842  0.7113 -1.9947
  185MOL0     H25518   3.953   9.044   9.685 -1.7632 -0.0420 -2.3436
  185MOL0     H25519   4.109   9.117   9.630 -0.7130  0.2581 -0.1661
  185MOL0     H25520   4.137   8.902   9.499  0.2197  0.7552 -0.1048
  185MOL0     H25521   4.006   9.009   9.457 -2.2503  0.9539  1.5315
  185MOL0     H25522   3.905   8.802   9.645 -2.3269 -2.0454 -1.1156
  185MOL0     H25523   3.835   8.868   9.510  0.9224  1.2853 -0.4865
  185MOL0     H25524   3.935   8.603   9.515  2.5812 -1.0029  0.0547
  185MOL0     H25525   4.086   8.687   9.474  0.6768  1.4084 -1.9562
  185MOL0     H25526   3.900   8.650   9.106  1.9873  2.1596  0.0799
  185MOL0     H25527   4.204   9.203   9.780  0.3632 -0.8938 -2.2480
  185MOL0     H25528   4.524   9.301   9.807  0.6812 -1.3650  1.3119
  185MOL0     H25529   4.357   9.368   9.856  2.3079  4.2528  1.7249
  185MOL0     H25530   4.481   9.330   9.974 -0.7294  0.6899 -0.3306
  186MOL0     O25531   1.578   5.907   8.018 -1.2901 -0.2662  1.2703
  186MOL0     C25532   1.624   5.806   7.983  0.2445  0.1325 -0.3858
  186MOL0     O25533   1.700   5.793   7.867  0.2839 -0.2025  0.3360
  186MOL0     C25534   1.730   5.905   7.794  0.4641  0.1809  0.2845
  186MOL0     C25535   1.857   5.953   7.790 -0.2594 -0.4343  0.6658
  186MOL0     C25536   1.896   6.065   7.722  0.3226  0.2875 -0.1551
  186MOL0     C25537   1.802   6.147   7.661 -0.7195  0.9923 -0.2148
  186MOL0     O25538   1.846   6.256   7.584  0.2644  0.0844 -0.3732
  186MOL0     C25539   1.746   6.312   7.497 -0.7572  0.5209 -0.0935
  186MOL0     C25540   1.794   6.426   7.409 -0.0059 -0.0123  0.9177
  186MOL0     C25541   1.836   6.550   7.479 -0.8152 -0.3863  0.1640
  186MOL0     C25542   1.906   6.640   7.373  0.5794  0.2488 -0.5832
  186MOL0     C25543   1.958   6.779   7.425  0.4171 -0.4549  0.1907
  186MOL0     C25544   2.093   6.763   7.500 -0.3331  0.6438 -0.7133
  186MOL0     C25545   2.175   6.890   7.506  0.5305 -0.3557 -0.0081
  186MOL0     C25546   2.289   6.862   7.606 -0.3528 -0.5991  0.4425
  186MOL0     N25547   2.397   6.957   7.573 -0.1306 -0.6610 -0.1464
  186MOL0     C25548   2.462   6.966   7.455 -0.5597  0.5780  0.1681
  186MOL0     C25549   2.532   7.079   7.458  0.2349 -0.6093  1.0236
  186MOL0     C25550   2.614   7.141   7.347 -0.8816 -0.5309  0.5017
  186MOL0     C25551   2.732   7.238   7.387  0.1236 -0.3458 -0.8385
  186MOL0     C25552   2.796   7.216   7.523  0.8990  0.1898  0.6258
  186MOL0     C25553   2.927   7.300   7.519  0.0184 -0.4053 -0.3354
  186MOL0     O25554   3.037   7.241   7.446  0.7326  0.3054 -0.8108
  186MOL0     C25555   3.150   7.303   7.412 -0.4354 -0.8113  0.5089
  186MOL0     C25556   3.163   7.441   7.432  0.2124 -0.6481 -0.6549
  186MOL0     C25557   3.272   7.516   7.381 -0.2956 -0.3913  0.2824
  186MOL0     C25558   3.279   7.660   7.417  0.2043 -1.3546  0.2488
  186MOL0     C25559   3.375   7.445   7.310  0.5928  0.0116  0.2739
  186MOL0     C25560   3.507   7.513   7.269 -0.6189 -0.1017  0.1811
  186MOL0     O25561   3.590   7.453   7.170 -0.2762  0.8744 -0.0940
  186MOL0     C25562   3.721   7.487   7.163  0.4176 -0.7125  1.0048
  186MOL0     C25563   3.804   7.479   7.278 -0.5739  0.1178  0.3609
  186MOL0     C25564   3.934   7.526   7.261  1.2135  0.4919  0.2815
  186MOL0     C25565   3.991   7.562   7.141 -0.7036  0.4480 -0.1163
  186MOL0     O25566   4.118   7.599   7.119  0.1210  0.5753  0.0559
  186MOL0     C25567   4.232   7.544   7.189  0.1044  0.5581 -0.4383
  186MOL0     C25568   4.364   7.589   7.127 -0.7669  0.8049  0.2827
  186MOL0     C25569   4.477   7.515   7.196 -0.4461 -0.6623  0.0532
  186MOL0     C25570   4.488   7.363   7.148 -0.1396 -0.0081 -0.2513
  186MOL0     C25571   4.607   7.301   7.224  0.2710 -0.2532  0.3934
  186MOL0     C25572   4.626   7.152   7.186 -0.0481  0.0336  0.3246
  186MOL0     C25573   4.509   7.063   7.227  0.2361 -0.1236 -0.0885
  186MOL0     C25574   4.555   6.917   7.221  0.8817 -0.8409 -0.3106
  186MOL0    Cl25575   4.557   6.858   7.056 -0.1469  0.1220  0.0636
  186MOL0     C25576   3.919   7.569   7.022  0.1729  0.0577 -0.3440
  186MOL0     C25577   3.779   7.537   7.038 -0.8401 -0.0913 -0.4169
  186MOL0     O25578   3.543   7.608   7.337  0.2210 -0.0956  0.7710
  186MOL0     C25579   3.359   7.306   7.291  0.1337 -0.2633  0.2251
  186MOL0     C25580   3.254   7.237   7.346  0.1636  0.0891  0.1723
  186MOL0     N25581   2.497   7.141   7.577 -1.0406 -0.6052 -0.1634
  186MOL0     N25582   2.415   7.074   7.640 -0.1000 -0.2530  0.4796
  186MOL0     C25583   1.673   6.097   7.661  1.0367 -0.7924  0.1378
  186MOL0     C25584   1.631   5.983   7.728 -1.1103 -0.6370  0.7331
  186MOL0     C25585   1.590   5.696   8.075  0.1662 -0.3062 -0.9008
  186MOL0     C25586   1.670   5.583   8.049 -0.2512 -0.5887 -0.6546
  186MOL0     C25587   1.646   5.454   8.103 -0.2949 -0.3592 -0.2135
  186MOL0     C25588   1.524   5.439   8.184 -0.0458  0.5672  0.1356
  186MOL0     O25589   1.492   5.311   8.222  0.3112 -0.0793 -0.3123
  186MOL0     C25590   1.347   5.290   8.246  0.0467  0.6132  0.5321
  186MOL0     C25591   1.277   5.239   8.120 -0.5377 -0.0824  0.0575
  186MOL0     C25592   1.128   5.230   8.159  0.3659 -1.2341  0.1587
  186MOL0     C25593   1.048   5.199   8.032 -0.2461 -0.1510 -0.7012
  186MOL0     C25594   1.052   5.309   7.931 -0.5494 -0.8839 -0.1253
  186MOL0     C25595   1.049   5.413   7.864 -0.1581  0.5646 -0.3450
  186MOL0     C25596   1.456   5.557   8.230 -0.1458 -0.0702  0.5221
  186MOL0     C25597   1.492   5.682   8.176  0.1122 -0.3989 -0.4744
  186MOL0     C25598   1.402   5.801   8.238 -0.4020  0.0795  0.4597
  186MOL0     H25599   1.936   5.897   7.841 -0.2069 -1.8146 -0.8779
  186MOL0     H25600   1.997   6.104   7.710 -0.8989  4.0829  0.5802
  186MOL0     H25601   1.666   6.346   7.564  0.0464 -0.6082  1.5266
  186MOL0     H25602   1.705   6.234   7.431  0.9706 -0.9780  0.5253
  186MOL0     H25603   1.868   6.377   7.346  0.8455  1.6316  0.5889
  186MOL0     H25604   1.705   6.443   7.347  1.0095 -2.0370 -1.2401
  186MOL0     H25605   1.745   6.590   7.523 -1.6664 -1.3647 -0.6478
  186MOL0     H25606   1.913   6.526   7.553  0.8841  2.9916 -0.3323
  186MOL0     H25607   1.978   6.589   7.310  0.2881 -1.1903  0.1886
  186MOL0     H25608   1.823   6.673   7.309  0.0414  0.2645  0.1032
  186MOL0     H25609   1.879   6.824   7.485 -1.3108 -1.9364 -0.8580
  186MOL0     H25610   1.978   6.844   7.340 -0.5181  1.2456  1.2161
  186MOL0     H25611   2.071   6.723   7.599  0.0685 -0.2523 -0.9779
  186MOL0     H25612   2.138   6.679   7.446 -0.1271  0.4338 -0.2154
  186MOL0     H25613   2.118   6.976   7.542  1.6797 -0.4395  2.1388
  186MOL0     H25614   2.220   6.922   7.412  0.0953 -0.2391 -0.1779
  186MOL0     H25615   2.259   6.866   7.711 -1.6049 -0.3691  0.0950
  186MOL0     H25616   2.332   6.766   7.577  0.3116 -0.7337  1.8062
  186MOL0     H25617   2.444   6.900   7.371  0.9786  1.9125 -1.2720
  186MOL0     H25618   2.547   7.206   7.291  0.2178 -0.9263 -1.3303
  186MOL0     H25619   2.654   7.063   7.282  4.4774  2.0158  0.1976
  186MOL0     H25620   2.815   7.228   7.317  0.0749 -0.7544 -0.8404
  186MOL0     H25621   2.705   7.344   7.388 -0.8743 -0.4618  3.3456
  186MOL0     H25622   2.723   7.259   7.594 -0.1159 -1.8616  0.8877
  186MOL0     H25623   2.822   7.115   7.555  3.4230  0.0239 -1.6085
  186MOL0     H25624   2.901   7.397   7.476 -1.3857 -0.1311  1.0270
  186MOL0     H25625   2.959   7.324   7.620 -2.3407 -0.3992  0.4827
  186MOL0     H25626   3.100   7.501   7.496  1.4684  0.5273 -0.4735
  186MOL0     H25627   3.180   7.706   7.426 -1.3025 -4.3514  0.1234
  186MOL0     H25628   3.320   7.708   7.327 -1.1314 -0.3914  0.1341
  186MOL0     H25629   3.341   7.682   7.504  0.8395 -0.0159 -0.5092
  186MOL0     H25630   3.776   7.442   7.376  3.1812  0.8925  1.9071
  186MOL0     H25631   4.004   7.526   7.344 -1.8007  1.9007  3.0294
  186MOL0     H25632   4.230   7.575   7.294  1.0579 -2.0159  0.4298
  186MOL0     H25633   4.225   7.437   7.213 -0.5509  0.3259 -1.6191
  186MOL0     H25634   4.364   7.564   7.020 -1.0700  0.3205  0.3911
  186MOL0     H25635   4.365   7.697   7.145 -1.5529  1.3686 -2.4969
  186MOL0     H25636   4.461   7.522   7.304 -2.6306  1.6117 -0.3254
  186MOL0     H25637   4.563   7.572   7.158 -2.3814  1.5622 -1.3200
  186MOL0     H25638   4.493   7.357   7.039 -0.1821 -0.3127 -0.2374
  186MOL0     H25639   4.400   7.314   7.190 -2.0546  2.6307 -0.9226
  186MOL0     H25640   4.700   7.353   7.198  1.6805 -3.0009 -0.4417
  186MOL0     H25641   4.599   7.304   7.333  0.8615 -0.2447  0.4352
  186MOL0     H25642   4.711   7.122   7.249  0.3602 -0.3989 -0.4148
  186MOL0     H25643   4.634   7.135   7.078 -2.3550  2.8009 -0.3956
  186MOL0     H25644   4.414   7.074   7.175 -0.1863  3.9096  1.1942
  186MOL0     H25645   4.488   7.083   7.332 -0.1491  2.2671 -0.5595
  186MOL0     H25646   4.478   6.864   7.279 -0.1797 -0.3253 -1.2074
  186MOL0     H25647   4.658   6.908   7.255  0.9202 -1.5111 -0.5964
  186MOL0     H25648   3.968   7.594   6.928  0.1030 -0.6165 -0.5624
  186MOL0     H25649   3.701   7.540   6.963 -0.9064  0.5419 -0.3328
  186MOL0     H25650   3.425   7.239   7.238 -0.6310 -1.2618  0.5099
  186MOL0     H25651   3.255   7.134   7.310  0.4688  0.1315  0.0556
  186MOL0     H25652   1.592   6.150   7.612  1.7356 -0.9887 -1.2876
  186MOL0     H25653   1.526   5.957   7.721 -0.9549 -1.5009  1.4707
  186MOL0     H25654   1.754   5.585   7.980 -0.6525 -0.4775 -1.1500
  186MOL0     H25655   1.705   5.366   8.081  4.3380  2.7647 -1.8251
  186MOL0     H25656   1.342   5.218   8.327  1.0925 -0.8948 -0.6873
  186MOL0     H25657   1.281   5.375   8.268 -0.9658  1.0247 -3.2801
  186MOL0     H25658   1.302   5.136   8.096  0.4318 -0.2264  1.5499
  186MOL0     H25659   1.295   5.295   8.028 -0.3530 -0.1423  0.0571
  186MOL0     H25660   1.115   5.146   8.228 -0.1695 -0.8844  0.4949
  186MOL0     H25661   1.080   5.323   8.193 -1.1163 -0.2537 -3.9717
  186MOL0     H25662   0.948   5.171   8.066  0.2659 -0.3981  0.6650
  186MOL0     H25663   1.085   5.101   8.000 -2.2996 -1.0570 -0.4877
  186MOL0     H25664   1.044   5.505   7.809  3.2624  1.2810  0.3262
  186MOL0     H25665   1.381   5.548   8.308 -2.8257  0.9071 -1.7956
  186MOL0     H25666   1.469   5.880   8.274 -0.3113  1.2914 -2.0969
  186MOL0     H25667   1.341   5.847   8.160  0.3374 -0.5117 -0.4950
  186MOL0     H25668   1.342   5.754   8.316 -3.2244 -0.9862 -2.1503
  187MOL0     O25669   2.591   4.877   8.709 -0.3388  0.2228  0.0743
  187MOL0     C25670   2.551   4.837   8.816  0.8443 -0.3956 -0.5508
  187MOL0     O25671   2.624   4.763   8.904  0.3598 -0.0404 -0.4256
  187MOL0     C25672   2.741   4.711   8.866 -0.5639  0.0189  0.4909
  187MOL0     C25673   2.847   4.783   8.813  1.4885 -0.5228  0.8843
  187MOL0     C25674   2.968   4.724   8.774 -0.2635 -0.4496 -0.7415
  187MOL0     C25675   2.981   4.588   8.795 -0.0777  0.1760 -0.0575
  187MOL0     O25676   3.107   4.533   8.763 -0.1635  0.1045  0.4069
  187MOL0     C25677   3.128   4.395   8.809 -0.0867  0.6847 -0.3521
  187MOL0     C25678   3.254   4.335   8.737 -0.1209  0.5657 -0.2315
  187MOL0     C25679   3.384   4.392   8.782 -0.1489  0.0011  0.6762
  187MOL0     C25680   3.509   4.332   8.705 -0.1739 -0.3414  0.1975
  187MOL0     C25681   3.637   4.417   8.711 -0.4397  0.0736 -0.3441
  187MOL0     C25682   3.765   4.369   8.641  0.5209  0.3099  0.7184
  187MOL0     C25683   3.897   4.432   8.690 -0.5527 -0.6581 -0.2621
  187MOL0     C25684   4.014   4.394   8.598 -1.1459 -0.1739  0.2653
  187MOL0     N25685   4.141   4.466   8.636  0.1437 -0.5605 -0.2729
  187MOL0     C25686   4.217   4.434   8.745 -0.0292 -0.6741 -0.3884
  187MOL0     C25687   4.292   4.543   8.766  0.4406  0.3245 -0.6498
  187MOL0     C25688   4.370   4.563   8.894 -0.1088 -0.3473  0.2605
  187MOL0     C25689   4.480   4.670   8.860 -0.8936 -0.0270  0.2180
  187MOL0     C25690   4.587   4.613   8.755 -0.2096 -0.0620 -0.0720
  187MOL0     C25691   4.723   4.685   8.775 -0.1846  0.4685 -1.0914
  187MOL0     O25692   4.816   4.635   8.681  1.2918  0.6431  0.8488
  187MOL0     C25693   4.944   4.601   8.713 -0.5634 -0.5948 -0.1050
  187MOL0     C25694   4.976   4.547   8.842  0.1360  0.5777 -0.2406
  187MOL0     C25695   5.109   4.508   8.878  0.2639  0.4318 -0.1120
  187MOL0     C25696   5.129   4.438   9.019 -0.4247 -0.5168 -0.1692
  187MOL0     C25697   5.207   4.538   8.781 -0.4259  0.4588 -0.0979
  187MOL0     C25698   5.343   4.539   8.820 -0.1584  0.8836 -0.2409
  187MOL0     O25699   5.380   4.601   8.935  0.4244 -0.6979 -0.6171
  187MOL0     C25700   5.513   4.635   8.951 -0.2466  0.1293  0.0570
  187MOL0     C25701   5.551   4.759   8.914  0.0220  0.3281 -0.0208
  187MOL0     C25702   5.683   4.788   8.921 -0.6880  0.0760  0.1078
  187MOL0     C25703   5.780   4.706   8.988  0.1055  0.0011 -0.0785
  187MOL0     O25704   5.908   4.753   9.009 -0.2226  0.5849  0.4601
  187MOL0     C25705   6.007   4.668   9.067  0.3822  0.5904 -1.0400
  187MOL0     C25706   6.134   4.750   9.080 -0.7266  1.5418  0.0179
  187MOL0     C25707   6.242   4.654   9.145  0.3645  0.4141  0.6634
  187MOL0     C25708   6.380   4.719   9.157 -0.1752  0.2835 -0.6462
  187MOL0     C25709   6.487   4.611   9.183 -0.2964  0.1979  0.1640
  187MOL0     C25710   6.624   4.679   9.161 -0.4038 -0.6909 -0.5159
  187MOL0     C25711   6.741   4.578   9.178  0.5886  0.1269 -0.3180
  187MOL0     C25712   6.770   4.541   9.326  0.2002  0.2701  0.2264
  187MOL0    Cl25713   6.843   4.676   9.418 -0.3330  0.0239 -0.2508
  187MOL0     C25714   5.733   4.577   9.031 -0.3318 -0.6265  1.0729
  187MOL0     C25715   5.601   4.547   9.015 -0.3024  1.0669  0.0521
  187MOL0     O25716   5.420   4.496   8.736  0.2651  0.3208  0.4060
  187MOL0     C25717   5.182   4.586   8.652  0.3428 -0.3779 -0.9347
  187MOL0     C25718   5.047   4.606   8.622 -0.2109  0.3899  1.0097
  187MOL0     N25719   4.272   4.629   8.661 -0.0774 -0.3692 -0.1375
  187MOL0     N25720   4.181   4.581   8.590  0.4419  0.0247 -0.3003
  187MOL0     C25721   2.871   4.511   8.850  0.0018 -1.0361 -0.5550
  187MOL0     C25722   2.754   4.574   8.894 -0.0402 -0.2217  0.5082
  187MOL0     C25723   2.418   4.898   8.851 -0.5940  0.7815  0.5236
  187MOL0     C25724   2.392   4.905   8.989  0.1689  0.1550 -0.4136
  187MOL0     C25725   2.270   4.957   9.036  0.9835 -0.6104  0.8365
  187MOL0     C25726   2.160   4.991   8.946 -0.3683 -0.4929 -0.2163
  187MOL0     O25727   2.036   5.030   8.984  0.6675  0.2036  0.0858
  187MOL0     C25728   2.002   5.020   9.122 -0.1147 -0.2384 -0.8810
  187MOL0     C25729   1.855   5.049   9.148 -0.6028 -0.2491 -0.8723
  187MOL0     C25730   1.796   5.000   9.278 -0.6804  0.5873  0.3475
  187MOL0     C25731   1.648   5.054   9.294 -0.7659 -0.5651 -0.0484
  187MOL0     C25732   1.637   5.177   9.371  0.2704 -0.2955 -0.2542
  187MOL0     C25733   1.627   5.275   9.442  0.1092 -0.6128 -0.0858
  187MOL0     C25734   2.191   4.985   8.805 -0.4182  0.0410 -1.0797
  187MOL0     C25735   2.318   4.939   8.763  0.8294  0.1316 -0.3321
  187MOL0     C25736   2.332   4.930   8.613  0.1318  0.3156 -0.0015
  187MOL0     H25737   2.831   4.888   8.791  0.7889 -0.3639  2.0539
  187MOL0     H25738   3.031   4.793   8.719 -2.6867  0.7750 -2.1698
  187MOL0     H25739   3.042   4.339   8.772 -0.2231  1.2849 -0.9640
  187MOL0     H25740   3.134   4.384   8.918 -0.4733 -0.5179 -0.4367
  187MOL0     H25741   3.250   4.226   8.747 -0.7207  0.6782  0.9283
  187MOL0     H25742   3.241   4.360   8.631 -2.9222 -0.9879 -0.3508
  187MOL0     H25743   3.376   4.500   8.769 -1.8532  0.2498  3.0618
  187MOL0     H25744   3.408   4.375   8.887  1.5901  0.6274  0.4030
  187MOL0     H25745   3.536   4.238   8.755  1.4966 -0.2160 -0.4146
  187MOL0     H25746   3.469   4.310   8.606  0.5204  1.2028 -0.4486
  187MOL0     H25747   3.672   4.416   8.815 -2.2103  3.3424  0.4045
  187MOL0     H25748   3.619   4.518   8.672  1.7135 -0.0552 -1.8721
  187MOL0     H25749   3.768   4.260   8.650 -1.5046 -0.3850 -4.2607
  187MOL0     H25750   3.758   4.392   8.535  0.8417  3.7671  1.3216
  187MOL0     H25751   3.931   4.406   8.790 -0.9845 -1.5456 -0.3344
  187MOL0     H25752   3.878   4.539   8.675 -0.6714 -0.5206  0.8277
  187MOL0     H25753   4.033   4.287   8.599  0.7364  0.1296  1.3569
  187MOL0     H25754   3.972   4.422   8.500 -2.2670 -2.9017 -0.1130
  187MOL0     H25755   4.212   4.348   8.810  2.3412 -0.9346 -0.4748
  187MOL0     H25756   4.413   4.468   8.928 -0.4335 -1.4590 -2.1714
  187MOL0     H25757   4.306   4.601   8.974 -1.1096  0.8786 -1.0542
  187MOL0     H25758   4.443   4.766   8.823  1.4348  2.0357  2.7867
  187MOL0     H25759   4.540   4.694   8.947  2.1721  0.8586 -1.9859
  187MOL0     H25760   4.602   4.506   8.769  0.3852  0.1163  0.6980
  187MOL0     H25761   4.538   4.626   8.658 -0.4584 -0.2675  0.0258
  187MOL0     H25762   4.703   4.792   8.770 -0.3590  0.4393 -1.0076
  187MOL0     H25763   4.752   4.671   8.879 -0.6749 -0.2096 -1.0407
  187MOL0     H25764   4.893   4.522   8.907 -0.7494 -0.3850 -1.6820
  187MOL0     H25765   5.204   4.359   9.010 -1.5408 -1.4731 -1.5320
  187MOL0     H25766   5.028   4.410   9.050 -0.4834  0.8642  1.0082
  187MOL0     H25767   5.164   4.517   9.086 -1.9268 -0.4491  0.5933
  187MOL0     H25768   5.487   4.834   8.869  1.3025  1.0752 -0.6683
  187MOL0     H25769   5.717   4.883   8.881 -0.9622 -0.5957 -1.7892
  187MOL0     H25770   5.972   4.623   9.161  3.4607  1.2368  0.5419
  187MOL0     H25771   6.040   4.591   8.998 -0.9111 -1.1909  0.2312
  187MOL0     H25772   6.184   4.778   8.987  2.1314  0.6017  1.1617
  187MOL0     H25773   6.116   4.839   9.142  1.2748  2.1555 -0.2186
  187MOL0     H25774   6.249   4.562   9.085 -1.6136  1.2339 -0.9427
  187MOL0     H25775   6.203   4.627   9.243 -0.6965 -1.3610 -0.1844
  187MOL0     H25776   6.390   4.791   9.239  0.4167  0.9388 -1.2856
  187MOL0     H25777   6.397   4.771   9.062 -0.0640 -1.1908 -1.4582
  187MOL0     H25778   6.474   4.562   9.280 -1.2700  1.7287  0.8463
  187MOL0     H25779   6.478   4.529   9.111 -2.1649 -0.0635  0.6416
  187MOL0     H25780   6.630   4.757   9.238 -1.5579 -0.2776 -0.8256
  187MOL0     H25781   6.621   4.726   9.062  0.4463 -0.4404 -0.4354
  187MOL0     H25782   6.833   4.625   9.141  1.7522 -0.4096  1.7248
  187MOL0     H25783   6.722   4.493   9.112  0.8262  2.4439 -3.6142
  187MOL0     H25784   6.833   4.452   9.329 -0.2268 -0.0141  1.8815
  187MOL0     H25785   6.672   4.519   9.369 -0.8111 -1.8850 -2.8377
  187MOL0     H25786   5.797   4.505   9.081  1.7143 -0.3398 -0.9514
  187MOL0     H25787   5.560   4.455   9.055  0.9605  0.5574  0.1988
  187MOL0     H25788   5.262   4.603   8.580  0.9029 -1.3863 -0.5759
  187MOL0     H25789   5.017   4.633   8.521 -0.2168 -1.2468  0.5549
  187MOL0     H25790   2.874   4.403   8.852  2.2078 -1.0245 -0.6869
  187MOL0     H25791   2.676   4.523   8.950  1.2872 -0.1959  2.5091
  187MOL0     H25792   2.467   4.862   9.055  2.2377  1.2457 -1.9242
  187MOL0     H25793   2.264   4.969   9.144  2.8822 -1.1361  1.0464
  187MOL0     H25794   2.026   4.918   9.151  0.8770 -0.1352 -1.2803
  187MOL0     H25795   2.062   5.094   9.177  1.7203  0.7738 -3.9730
  187MOL0     H25796   1.811   5.001   9.060 -0.0007 -1.4031 -0.5523
  187MOL0     H25797   1.831   5.155   9.130 -0.4334 -0.0986 -0.2234
  187MOL0     H25798   1.794   4.890   9.278  1.0169  0.5197 -0.4361
  187MOL0     H25799   1.862   5.027   9.360  0.1149 -0.2793  0.0161
  187MOL0     H25800   1.596   4.982   9.358  0.5503  0.1800  1.9485
  187MOL0     H25801   1.596   5.052   9.198  0.4447 -2.1886 -0.7239
  187MOL0     H25802   1.626   5.361   9.506  3.1797  1.0319 -2.0344
  187MOL0     H25803   2.111   5.002   8.734 -0.7063 -1.9001 -1.2789
  187MOL0     H25804   2.240   4.970   8.569  0.5272  0.1232 -1.0350
  187MOL0     H25805   2.414   4.991   8.576 -0.9328  0.5334 -2.1388
  187MOL0     H25806   2.329   4.826   8.577 -1.6287 -0.0361  0.9859
  188MOL0     O25807   9.694   4.883   2.049  0.2925 -0.4176 -0.0481
  188MOL0     C25808   9.606   4.819   2.109  0.4377 -0.6413 -0.1419
  188MOL0     O25809   9.629   4.732   2.208  0.4670 -0.1208 -0.8289
  188MOL0     C25810   9.750   4.683   2.256  0.3657  0.6541  0.5929
  188MOL0     C25811   9.734   4.602   2.372 -0.1376  0.4515 -0.3999
  188MOL0     C25812   9.847   4.538   2.427 -0.3317  0.7364  0.0588
  188MOL0     C25813   9.972   4.549   2.358  0.5147  0.6141 -0.0849
  188MOL0     O25814  10.079   4.476   2.412 -0.8549  0.2474  0.1698
  188MOL0     C25815  10.189   4.547   2.468  0.0636 -0.6772  0.1001
  188MOL0     C25816  10.274   4.457   2.554  0.4178 -0.0497 -0.3754
  188MOL0     C25817  10.333   4.333   2.469  1.2798 -0.1630 -0.8370
  188MOL0     C25818  10.459   4.280   2.532  0.4240 -0.1245 -0.4976
  188MOL0     C25819  10.441   4.228   2.677  0.2275  0.3954 -0.6887
  188MOL0     C25820  10.575   4.169   2.738 -0.6044 -1.1678 -0.0239
  188MOL0     C25821  10.551   4.079   2.863 -0.1783  0.2085  0.3940
  188MOL0     C25822  10.674   4.020   2.918 -0.8378 -0.5133  0.2208
  188MOL0     N25823  10.760   4.130   2.970  0.2367  0.1653 -0.3028
  188MOL0     C25824  10.900   4.125   2.958 -0.1476 -0.6489  0.5216
  188MOL0     C25825  10.939   4.237   3.012 -0.3318 -0.1497 -0.5094
  188MOL0     C25826  11.086   4.283   2.999 -0.3005  0.2145  0.4266
  188MOL0     C25827  11.169   4.234   3.113 -0.0728  0.1309 -0.2086
  188MOL0     C25828  11.136   4.312   3.236 -0.7869  0.1024  0.2099
  188MOL0     C25829  11.241   4.290   3.345 -0.4298  0.3875 -0.1964
  188MOL0     O25830  11.367   4.337   3.306 -0.9466  0.4334  0.5782
  188MOL0     C25831  11.476   4.268   3.358  0.5427 -0.2199  0.3911
  188MOL0     C25832  11.479   4.213   3.484 -0.3932 -0.0774  0.8181
  188MOL0     C25833  11.598   4.153   3.534  0.5302  0.8234 -0.2497
  188MOL0     C25834  11.592   4.103   3.677 -0.0448 -0.2777  0.8974
  188MOL0     C25835  11.719   4.165   3.457  0.7009 -0.7244 -0.2644
  188MOL0     C25836  11.861   4.123   3.505  0.2329  0.9469 -0.6679
  188MOL0     O25837  11.963   4.136   3.413  0.1659  0.0884  0.2465
  188MOL0     C25838  12.089   4.156   3.460 -0.6082 -0.0415 -0.7174
  188MOL0     C25839  12.170   4.047   3.486  0.5018  0.8308  0.2472
  188MOL0     C25840  12.297   4.063   3.546 -0.2644 -0.6913  0.1854
  188MOL0     C25841  12.360   4.189   3.564 -0.2174  0.7690  0.3992
  188MOL0     O25842  12.478   4.209   3.620 -0.1987  0.4855 -0.1177
  188MOL0     C25843  12.489   4.129   3.744 -0.8254 -0.8799 -0.5302
  188MOL0     C25844  12.586   4.185   3.849 -0.5142 -0.5013  0.2537
  188MOL0     C25845  12.727   4.155   3.809 -0.8210  1.0887  0.1362
  188MOL0     C25846  12.828   4.239   3.888 -0.0542 -0.0147 -0.2613
  188MOL0     C25847  12.861   4.170   4.023 -0.5940  0.1702 -0.1142
  188MOL0     C25848  12.941   4.268   4.117  0.4728  0.3542  0.9840
  188MOL0     C25849  13.018   4.197   4.231 -0.2769  0.4862  0.9387
  188MOL0     C25850  13.119   4.296   4.294 -0.7328  0.0053 -0.1267
  188MOL0    Cl25851  13.274   4.262   4.222 -0.1213 -0.3894  0.4166
  188MOL0     C25852  12.281   4.296   3.530  0.0604  0.2892 -0.2316
  188MOL0     C25853  12.149   4.286   3.486 -0.8995  0.4642  0.7121
  188MOL0     O25854  11.874   4.091   3.620  0.4692  0.0881  0.2434
  188MOL0     C25855  11.711   4.219   3.325 -0.1723 -0.1682  0.2312
  188MOL0     C25856  11.589   4.265   3.278 -0.5689  0.0318  0.4782
  188MOL0     N25857  10.834   4.315   3.057 -0.7510  0.5402  0.2788
  188MOL0     N25858  10.725   4.250   3.030 -0.1999  0.6153  0.0789
  188MOL0     C25859   9.984   4.621   2.243 -0.2497  0.4011  0.3357
  188MOL0     C25860   9.875   4.685   2.190  0.6058 -0.5414  0.3450
  188MOL0     C25861   9.462   4.850   2.081 -0.0962  0.2814 -0.1918
  188MOL0     C25862   9.443   4.890   1.945  1.4771 -0.7046 -0.1361
  188MOL0     C25863   9.313   4.912   1.895 -0.4787  0.1795 -0.6283
  188MOL0     C25864   9.208   4.916   1.983  0.1589  0.4195  0.0397
  188MOL0     O25865   9.082   4.956   1.956 -0.3297 -0.6923  0.5098
  188MOL0     C25866   9.052   5.032   1.834  0.3773  0.7173  0.7634
  188MOL0     C25867   8.899   5.035   1.829 -0.4949 -0.0627  0.3542
  188MOL0     C25868   8.848   5.124   1.946 -0.6576  0.4591 -0.1787
  188MOL0     C25869   8.699   5.117   1.960 -0.1321 -0.0116 -0.5742
  188MOL0     C25870   8.625   5.172   1.842 -0.0882 -0.0664  0.2063
  188MOL0     C25871   8.550   5.221   1.759 -0.3609  1.3080  0.3644
  188MOL0     C25872   9.230   4.880   2.114 -0.3951 -0.7667 -0.0558
  188MOL0     C25873   9.356   4.842   2.167  0.7207  0.2983 -0.1859
  188MOL0     C25874   9.364   4.794   2.317 -0.1007 -0.3250  0.2651
  188MOL0     H25875   9.635   4.607   2.415  0.1632  3.7587  0.1674
  188MOL0     H25876   9.848   4.470   2.512 -2.2053 -0.0482 -0.4980
  188MOL0     H25877  10.148   4.639   2.513  0.7150  1.8611 -3.9956
  188MOL0     H25878  10.258   4.576   2.388  2.3733 -1.6526  1.6419
  188MOL0     H25879  10.354   4.524   2.585 -1.1474  2.1073 -0.7789
  188MOL0     H25880  10.216   4.431   2.643 -0.8101  4.3400  0.3473
  188MOL0     H25881  10.265   4.247   2.471  0.8335  0.1401  2.0488
  188MOL0     H25882  10.364   4.362   2.368  0.7927 -2.1640 -1.6093
  188MOL0     H25883  10.511   4.209   2.468  0.7510  1.6739 -2.3359
  188MOL0     H25884  10.526   4.366   2.548 -0.6636  0.7412 -0.4739
  188MOL0     H25885  10.381   4.137   2.677  1.6356 -0.5740  0.0846
  188MOL0     H25886  10.397   4.301   2.745 -2.1147 -0.8574 -0.7717
  188MOL0     H25887  10.633   4.108   2.667  0.4971 -1.2783  0.9490
  188MOL0     H25888  10.643   4.251   2.763 -1.6880 -0.7547  1.6709
  188MOL0     H25889  10.483   3.997   2.839  0.1858 -0.3195  1.1149
  188MOL0     H25890  10.495   4.122   2.947  1.0271 -0.2757  1.4755
  188MOL0     H25891  10.662   3.963   3.010  0.0926 -1.0173  0.0478
  188MOL0     H25892  10.736   3.967   2.845 -1.4548 -0.6559 -0.2089
  188MOL0     H25893  10.954   4.039   2.919  2.8378  1.7849 -1.1195
  188MOL0     H25894  11.090   4.392   2.983  2.0988  0.1266  0.0734
  188MOL0     H25895  11.125   4.236   2.909  0.5357  0.3845  0.6923
  188MOL0     H25896  11.169   4.128   3.138  2.5616 -0.4488 -2.2010
  188MOL0     H25897  11.269   4.263   3.080 -1.0813  3.5288 -0.7530
  188MOL0     H25898  11.128   4.420   3.221 -1.2661  0.3003  1.6807
  188MOL0     H25899  11.037   4.277   3.265 -1.4337  1.6645 -0.0562
  188MOL0     H25900  11.211   4.339   3.438 -3.0927  1.9917 -1.7789
  188MOL0     H25901  11.267   4.185   3.365 -0.4832  0.1961 -1.1019
  188MOL0     H25902  11.387   4.220   3.541  0.2437 -0.3196  1.9133
  188MOL0     H25903  11.491   4.101   3.718 -0.3934  4.8552  0.9238
  188MOL0     H25904  11.658   4.161   3.743  1.2458  0.1595 -0.6989
  188MOL0     H25905  11.634   4.001   3.679  3.8485  1.1436  0.9201
  188MOL0     H25906  12.141   3.944   3.466  0.2865  1.3674 -2.7050
  188MOL0     H25907  12.359   3.974   3.558 -0.3505 -0.6605  0.9188
  188MOL0     H25908  12.389   4.122   3.788 -1.0519  1.9925 -0.3963
  188MOL0     H25909  12.515   4.024   3.724  0.2870 -1.0319  1.4714
  188MOL0     H25910  12.568   4.292   3.867  0.7441 -0.1503 -0.4673
  188MOL0     H25911  12.571   4.131   3.943  0.3893 -2.3349 -0.6068
  188MOL0     H25912  12.741   4.176   3.703  2.0948 -1.8370 -0.2262
  188MOL0     H25913  12.741   4.046   3.813 -0.5359  1.1243  0.1165
  188MOL0     H25914  12.778   4.329   3.925  1.0004  0.4527  0.0526
  188MOL0     H25915  12.920   4.262   3.836 -0.3078 -1.9415 -1.6652
  188MOL0     H25916  12.770   4.142   4.077 -0.3116  2.4388  1.6675
  188MOL0     H25917  12.931   4.091   3.994  0.9458  1.0225  1.1848
  188MOL0     H25918  12.869   4.337   4.162 -0.4173 -0.6138  1.1040
  188MOL0     H25919  13.014   4.334   4.070 -0.3984  3.3998  3.5622
  188MOL0     H25920  13.062   4.101   4.200  0.5938  0.9103  0.8242
  188MOL0     H25921  12.941   4.171   4.305 -0.2629  1.8385  1.4563
  188MOL0     H25922  13.136   4.270   4.399  0.5374  0.5544 -0.1923
  188MOL0     H25923  13.084   4.400   4.298  0.0171  0.2534  4.5281
  188MOL0     H25924  12.328   4.393   3.545  3.9892 -1.5482  0.5893
  188MOL0     H25925  12.094   4.375   3.458 -2.0280 -0.4969 -0.1991
  188MOL0     H25926  11.799   4.228   3.262  0.0580  0.2236  0.6029
  188MOL0     H25927  11.583   4.316   3.182 -2.8231  2.2721  1.6817
  188MOL0     H25928  10.077   4.620   2.189 -1.4929  0.8960 -1.9444
  188MOL0     H25929   9.867   4.744   2.099 -0.9930  2.8345  2.4520
  188MOL0     H25930   9.525   4.897   1.875  1.5275 -0.0636 -0.0225
  188MOL0     H25931   9.293   4.936   1.791 -0.6545  0.0567 -0.6229
  188MOL0     H25932   9.097   5.131   1.833 -2.0816  1.9208 -1.5250
  188MOL0     H25933   9.078   4.969   1.748 -0.2078  0.7165  0.5802
  188MOL0     H25934   8.848   4.938   1.829  1.0293 -0.9484 -1.5624
  188MOL0     H25935   8.892   5.084   1.732  0.2518  1.0270  0.8237
  188MOL0     H25936   8.888   5.088   2.041 -1.5955  0.2256  0.1392
  188MOL0     H25937   8.880   5.228   1.937 -0.0673  0.1577 -2.0875
  188MOL0     H25938   8.676   5.169   2.053 -2.5167 -1.5850 -0.2058
  188MOL0     H25939   8.671   5.012   1.971  1.6352 -0.3064  1.6705
  188MOL0     H25940   8.483   5.263   1.686 -0.8903  0.3274  0.2680
  188MOL0     H25941   9.147   4.877   2.184 -1.8219 -1.7293 -1.7067
  188MOL0     H25942   9.399   4.691   2.316 -0.8219 -0.5749  0.3948
  188MOL0     H25943   9.440   4.849   2.374 -1.0344  1.9297 -0.5191
  188MOL0     H25944   9.268   4.804   2.369 -0.3252 -2.0804  0.2425
  189MOL0     O25945   7.132   1.321  10.131  0.1597 -0.0754 -0.0832
  189MOL0     C25946   7.093   1.436  10.104  1.0483  0.7029 -0.3528
  189MOL0     O25947   7.166   1.551  10.097 -0.3501  0.4544 -0.2821
  189MOL0     C25948   7.290   1.551  10.157 -0.2803 -0.2398  0.8878
  189MOL0     C25949   7.306   1.582  10.286 -0.4978 -0.2320 -0.6567
  189MOL0     C25950   7.429   1.596  10.345 -0.5534 -0.5443 -0.1349
  189MOL0     C25951   7.542   1.559  10.270  0.7426 -0.1336 -0.4282
  189MOL0     O25952   7.667   1.548  10.321 -0.7640 -0.1468 -0.2445
  189MOL0     C25953   7.686   1.607  10.449 -0.4341 -0.6084  0.2691
  189MOL0     C25954   7.835   1.588  10.481 -0.5019 -0.8116 -0.1926
  189MOL0     C25955   7.856   1.643  10.622 -0.3485 -0.0105  0.5298
  189MOL0     C25956   8.004   1.679  10.653 -0.1403  0.3444  0.5538
  189MOL0     C25957   8.001   1.751  10.781  0.5052 -0.3554  0.6897
  189MOL0     C25958   8.136   1.811  10.827 -0.4962 -0.7913 -0.6350
  189MOL0     C25959   8.129   1.899  10.947  0.0519  0.0498 -0.1592
  189MOL0     C25960   8.255   1.976  10.988  0.3796  0.6833 -0.4247
  189MOL0     N25961   8.312   2.080  10.893  0.2065 -0.0403  0.1740
  189MOL0     C25962   8.248   2.200  10.875 -0.7700 -0.3748 -0.0108
  189MOL0     C25963   8.342   2.274  10.821 -0.6283 -0.2393 -0.3371
  189MOL0     C25964   8.318   2.419  10.783 -0.6391  0.0262  0.0358
  189MOL0     C25965   8.387   2.464  10.656  0.2505 -0.0638  0.1496
  189MOL0     C25966   8.340   2.385  10.525 -0.7418  0.1045 -0.2821
  189MOL0     C25967   8.441   2.407  10.410  0.3839  0.1142 -0.0827
  189MOL0     O25968   8.422   2.546  10.374  0.3083  0.2648 -0.7615
  189MOL0     C25969   8.531   2.602  10.314 -0.0728 -1.1890  0.4870
  189MOL0     C25970   8.505   2.666  10.194  0.3630 -0.6405 -0.9071
  189MOL0     C25971   8.608   2.730  10.124 -0.0310  0.3407  0.1445
  189MOL0     C25972   8.581   2.782   9.983  0.1476 -0.2424 -0.6986
  189MOL0     C25973   8.741   2.734  10.180  0.0404 -0.0239 -0.5868
  189MOL0     C25974   8.865   2.796  10.115 -0.5958 -0.6110 -0.5212
  189MOL0     O25975   8.957   2.831  10.199 -0.4414  0.6550 -0.2420
  189MOL0     C25976   9.092   2.865  10.172 -0.4585 -0.0879 -0.7064
  189MOL0     C25977   9.164   2.933  10.269  0.4670  0.0491 -0.9636
  189MOL0     C25978   9.301   2.979  10.248  0.7173 -0.4562  0.0847
  189MOL0     C25979   9.370   2.946  10.127  0.6185  0.0149  0.4112
  189MOL0     O25980   9.492   2.988  10.094 -0.4776 -0.0468  0.1060
  189MOL0     C25981   9.577   3.030  10.203 -1.0868 -0.4169  0.7049
  189MOL0     C25982   9.726   3.028  10.160  0.0130  0.2533 -0.1294
  189MOL0     C25983   9.824   3.041  10.277 -0.1406 -0.2782 -0.2587
  189MOL0     C25984   9.821   3.177  10.342  0.6919  0.0221  0.0205
  189MOL0     C25985   9.953   3.212  10.421  0.0358  0.4644  0.7608
  189MOL0     C25986  10.002   3.098  10.511  0.1545 -0.6812  0.2889
  189MOL0     C25987   9.912   3.086  10.636 -0.1664  0.3423  0.1103
  189MOL0     C25988   9.941   2.961  10.719  0.9894 -0.4327 -0.3926
  189MOL0    Cl25989  10.092   2.977  10.825 -0.2056  0.3288  0.1398
  189MOL0     C25990   9.292   2.874  10.032 -0.6410 -0.2186 -0.0849
  189MOL0     C25991   9.154   2.837  10.051 -0.4207  0.3786  0.0853
  189MOL0     O25992   8.864   2.810   9.994 -0.8956 -0.6044 -0.0130
  189MOL0     C25993   8.759   2.675  10.308  0.1078 -0.6037 -0.0986
  189MOL0     C25994   8.652   2.613  10.373 -0.9137 -0.5916  0.4802
  189MOL0     N25995   8.453   2.198  10.792  0.8302  0.3356 -0.0038
  189MOL0     N25996   8.438   2.087  10.846  0.0479  0.1705 -0.1550
  189MOL0     C25997   7.532   1.525  10.136  0.6247 -0.6222 -0.0602
  189MOL0     C25998   7.403   1.518  10.084 -0.7878  0.8904 -0.1247
  189MOL0     C25999   6.951   1.458  10.067  0.2227 -0.2394  0.3043
  189MOL0     C26000   6.895   1.585  10.096  0.6285  0.1041  0.3900
  189MOL0     C26001   6.767   1.619  10.066  0.6703  0.0159 -0.4872
  189MOL0     C26002   6.687   1.521  10.006 -0.9342 -0.0878  0.0185
  189MOL0     O26003   6.560   1.552   9.963  1.0869 -0.3117  0.1816
  189MOL0     C26004   6.488   1.463   9.870  0.6780  0.3929  0.4049
  189MOL0     C26005   6.379   1.541   9.795 -0.0163  0.1988 -0.2841
  189MOL0     C26006   6.302   1.441   9.705  1.2938 -0.6744 -0.6420
  189MOL0     C26007   6.176   1.383   9.773 -0.3410 -0.2546  1.0207
  189MOL0     C26008   6.068   1.476   9.773  0.1841 -0.1489 -0.8090
  189MOL0     C26009   5.980   1.557   9.774  1.2724  0.2832 -0.4214
  189MOL0     C26010   6.738   1.395   9.986 -0.3759  0.4748  0.7527
  189MOL0     C26011   6.867   1.354  10.020 -0.5839  0.1568 -0.1835
  189MOL0     C26012   6.897   1.206   9.985  0.6162  0.0990 -0.1726
  189MOL0     H26013   7.219   1.614  10.342  0.5774  0.4136  0.7086
  189MOL0     H26014   7.425   1.629  10.449 -2.4699  0.6218 -0.5335
  189MOL0     H26015   7.620   1.568  10.527 -0.6347 -1.6678 -0.4062
  189MOL0     H26016   7.671   1.716  10.446  1.7641 -0.2809 -0.5244
  189MOL0     H26017   7.866   1.484  10.468 -1.3108 -1.1887  0.7976
  189MOL0     H26018   7.892   1.648  10.409 -2.0323 -0.5551 -1.2378
  189MOL0     H26019   7.801   1.737  10.626 -1.5216 -0.5998 -0.8036
  189MOL0     H26020   7.816   1.568  10.690  0.3786 -0.7087  0.2099
  189MOL0     H26021   8.067   1.590  10.643 -2.5150 -1.5505  1.5192
  189MOL0     H26022   8.038   1.750  10.577  0.4898  1.4224  1.7917
  189MOL0     H26023   7.958   1.679  10.851 -1.8026  0.6387  0.4029
  189MOL0     H26024   7.922   1.827  10.782  0.9386  0.1055  0.6066
  189MOL0     H26025   8.211   1.732  10.836  0.7900  0.4569 -0.0541
  189MOL0     H26026   8.163   1.877  10.744  0.8426 -2.3103 -1.4728
  189MOL0     H26027   8.092   1.845  11.035 -0.3365  1.1900  0.3919
  189MOL0     H26028   8.050   1.972  10.930  0.0325  0.9252  3.0145
  189MOL0     H26029   8.227   2.032  11.078 -0.4057 -2.0355  1.1288
  189MOL0     H26030   8.327   1.899  11.015 -0.0787  0.1608 -0.6771
  189MOL0     H26031   8.141   2.215  10.886 -0.4813  1.6303  0.4117
  189MOL0     H26032   8.378   2.473  10.856 -1.2776 -1.5752  1.8185
  189MOL0     H26033   8.218   2.463  10.789  0.5098  2.5764  2.5149
  189MOL0     H26034   8.365   2.571  10.649 -4.9940 -0.7746  1.4001
  189MOL0     H26035   8.492   2.438  10.669  0.1540 -0.3475  0.3557
  189MOL0     H26036   8.347   2.282  10.562  3.6968  0.4750  0.4373
  189MOL0     H26037   8.241   2.419  10.494 -0.7019  1.2761  0.8114
  189MOL0     H26038   8.540   2.367  10.434 -0.5184 -0.4006  3.4705
  189MOL0     H26039   8.397   2.340  10.336 -0.2652  2.0354 -1.5080
  189MOL0     H26040   8.411   2.657  10.140  0.2313  2.2659 -1.3372
  189MOL0     H26041   8.599   2.889   9.987  2.5258 -0.5666 -1.0525
  189MOL0     H26042   8.477   2.771   9.950  0.9788 -2.7172 -2.9277
  189MOL0     H26043   8.651   2.737   9.911  0.9292 -1.5271  0.8043
  189MOL0     H26044   9.120   2.965  10.363  2.3936  4.5862 -1.3496
  189MOL0     H26045   9.346   3.041  10.324 -1.1355 -0.1972  1.0364
  189MOL0     H26046   9.557   3.132  10.238  2.4351  0.0024  1.9182
  189MOL0     H26047   9.562   2.982  10.300  1.2319 -1.4612  0.6111
  189MOL0     H26048   9.747   2.936  10.105  2.6729  0.7827 -0.1342
  189MOL0     H26049   9.734   3.107  10.085 -1.6679  1.9924  1.4331
  189MOL0     H26050   9.923   3.033  10.230 -0.2224  0.6466 -0.6158
  189MOL0     H26051   9.799   2.958  10.343 -1.6553 -1.3997 -2.1278
  189MOL0     H26052   9.731   3.178  10.403 -1.3876 -2.8394 -2.7051
  189MOL0     H26053   9.806   3.257  10.269  1.9384  1.6909  1.4716
  189MOL0     H26054  10.024   3.224  10.339  0.2682 -0.4678  0.8079
  189MOL0     H26055   9.944   3.305  10.477  2.0563  1.7637 -0.9248
  189MOL0     H26056  10.108   3.112  10.535  0.3374 -0.6367 -0.4906
  189MOL0     H26057  10.002   3.007  10.450 -0.4176  0.1148 -0.9355
  189MOL0     H26058   9.808   3.083  10.602 -0.6959  0.7722  1.6152
  189MOL0     H26059   9.919   3.174  10.700 -1.9019  0.6796 -0.0980
  189MOL0     H26060   9.944   2.875  10.652  2.1529  0.2131 -1.2004
  189MOL0     H26061   9.853   2.960  10.785  0.0718  3.1105 -1.3830
  189MOL0     H26062   9.350   2.868   9.941  1.5252  1.3116  1.1089
  189MOL0     H26063   9.098   2.783   9.974 -2.3820 -0.8498  2.2430
  189MOL0     H26064   8.853   2.667  10.361 -1.4920 -1.6000  2.8180
  189MOL0     H26065   8.670   2.581  10.475 -0.0157 -0.8674  0.2374
  189MOL0     H26066   7.614   1.494  10.073 -1.9836 -4.5033 -1.8939
  189MOL0     H26067   7.386   1.493   9.979 -1.0144 -1.0617  0.3370
  189MOL0     H26068   6.960   1.654  10.149  0.1088  0.5033  0.5179
  189MOL0     H26069   6.724   1.719  10.070 -2.2192 -1.0364 -2.2671
  189MOL0     H26070   6.551   1.421   9.791 -0.3280 -1.5526  0.5614
  189MOL0     H26071   6.446   1.376   9.921 -1.7969  0.7812 -0.8175
  189MOL0     H26072   6.429   1.620   9.739  0.6613  0.9753  1.3600
  189MOL0     H26073   6.308   1.590   9.863 -0.2563  0.6670 -0.8595
  189MOL0     H26074   6.281   1.494   9.612  1.5348  0.5044 -0.0452
  189MOL0     H26075   6.369   1.359   9.676  1.0245  0.3257 -4.6543
  189MOL0     H26076   6.193   1.351   9.876 -2.3682  0.4605  1.6194
  189MOL0     H26077   6.150   1.296   9.711 -1.9986  1.4464 -0.8158
  189MOL0     H26078   5.895   1.619   9.790  1.2466 -0.0394  0.8207
  189MOL0     H26079   6.677   1.324   9.932  0.4014  0.1350  0.2989
  189MOL0     H26080   6.912   1.190   9.878 -0.8610 -3.9539  0.0299
  189MOL0     H26081   6.984   1.171  10.041 -0.4759  0.1807  1.6417
  189MOL0     H26082   6.816   1.135  10.003  2.9078 -1.9591  3.3173
  190MOL0     O26083   2.056   5.383   4.758 -0.8000 -0.7700 -0.7553
  190MOL0     C26084   1.990   5.279   4.788 -0.2676 -1.3496  0.4808
  190MOL0     O26085   2.042   5.154   4.761 -0.3236  0.4331  0.3969
  190MOL0     C26086   2.170   5.129   4.728 -0.0352 -0.6297 -0.7917
  190MOL0     C26087   2.285   5.214   4.737  0.2928  0.7468 -0.2642
  190MOL0     C26088   2.417   5.168   4.715 -0.0966  0.3334 -0.4399
  190MOL0     C26089   2.432   5.038   4.664 -0.2388 -0.4324 -0.2890
  190MOL0     O26090   2.559   4.989   4.641  0.4407  0.4550 -0.3753
  190MOL0     C26091   2.605   5.016   4.506 -0.3081  0.3142  0.3866
  190MOL0     C26092   2.704   4.905   4.465 -0.9448 -0.0014 -0.1959
  190MOL0     C26093   2.640   4.770   4.428  0.1035 -0.5433  1.1376
  190MOL0     C26094   2.744   4.671   4.381 -0.4232 -0.2837  0.6513
  190MOL0     C26095   2.672   4.546   4.322 -0.6788  0.0527 -0.0567
  190MOL0     C26096   2.767   4.464   4.230 -0.1866  0.0655  0.1815
  190MOL0     C26097   2.899   4.426   4.287 -0.2766 -0.2496 -0.0297
  190MOL0     C26098   2.985   4.333   4.200 -0.4105 -0.2261  0.1820
  190MOL0     N26099   3.030   4.372   4.062  0.1754 -0.8076 -0.6122
  190MOL0     C26100   3.090   4.491   4.030 -0.1749  0.0230  0.2660
  190MOL0     C26101   3.076   4.493   3.897  0.3572  0.4027 -0.3157
  190MOL0     C26102   3.112   4.608   3.804  0.3110 -0.3179 -0.2514
  190MOL0     C26103   3.266   4.639   3.797 -0.0884 -0.9330 -0.6367
  190MOL0     C26104   3.285   4.781   3.743  0.2721  0.1514  0.4454
  190MOL0     C26105   3.429   4.828   3.713  0.2572  1.1263  0.8126
  190MOL0     O26106   3.521   4.805   3.823  0.1465  0.2601  0.3439
  190MOL0     C26107   3.658   4.807   3.806  1.5187 -0.8714  0.4102
  190MOL0     C26108   3.722   4.811   3.678  0.3834  0.3068 -0.2604
  190MOL0     C26109   3.869   4.829   3.679  0.3674 -0.1269  0.4268
  190MOL0     C26110   3.933   4.840   3.538  0.1935 -0.2641 -0.4568
  190MOL0     C26111   3.939   4.831   3.799 -0.1181 -0.3201 -0.2898
  190MOL0     C26112   4.081   4.857   3.810 -0.2985  0.3926  0.1656
  190MOL0     O26113   4.145   4.941   3.725 -0.3973 -0.2809  0.1958
  190MOL0     C26114   4.280   4.950   3.711  0.8821 -0.8393  0.1288
  190MOL0     C26115   4.337   4.983   3.590 -0.5013  0.5881 -0.0458
  190MOL0     C26116   4.478   4.999   3.579 -0.3598 -0.0501 -0.2996
  190MOL0     C26117   4.560   4.992   3.687  0.9115 -0.1261  0.0603
  190MOL0     O26118   4.693   5.009   3.688  0.3298 -0.1915 -0.7789
  190MOL0     C26119   4.766   4.933   3.596 -0.0352  0.7401 -0.5147
  190MOL0     C26120   4.911   4.935   3.644  0.2369 -0.4564  0.2984
  190MOL0     C26121   4.993   4.830   3.575  0.3824  0.0707  0.6291
  190MOL0     C26122   5.131   4.814   3.642  0.3774 -0.3603 -0.7022
  190MOL0     C26123   5.219   4.942   3.639 -0.7779  0.4508  0.4651
  190MOL0     C26124   5.358   4.929   3.705  0.1998 -0.7924 -0.9298
  190MOL0     C26125   5.424   5.059   3.765  0.6757  0.9549  0.2666
  190MOL0     C26126   5.454   5.161   3.660 -0.2530 -0.8659 -0.1889
  190MOL0    Cl26127   5.516   5.288   3.758 -0.2847 -0.3549 -0.0324
  190MOL0     C26128   4.500   4.963   3.808  0.0396  0.0638 -0.6489
  190MOL0     C26129   4.366   4.938   3.826  0.1859 -0.1244  0.2100
  190MOL0     O26130   4.136   4.785   3.894  0.7699 -0.2738  0.0512
  190MOL0     C26131   3.870   4.817   3.921  0.1089 -0.7290  0.2708
  190MOL0     C26132   3.735   4.798   3.922  0.8795  0.5940 -0.2953
  190MOL0     N26133   3.020   4.378   3.849 -0.5179  0.0683 -0.2001
  190MOL0     N26134   2.994   4.305   3.951 -0.1740  0.3825 -0.3121
  190MOL0     C26135   2.317   4.948   4.658 -0.6728 -0.2263  0.3510
  190MOL0     C26136   2.193   4.996   4.688 -1.3290  0.4560  0.9253
  190MOL0     C26137   1.855   5.308   4.848 -0.4248 -1.0169  0.3148
  190MOL0     C26138   1.785   5.203   4.902 -0.6145  1.5485 -0.3706
  190MOL0     C26139   1.656   5.207   4.941  0.0826 -0.7193 -0.6341
  190MOL0     C26140   1.587   5.328   4.944  0.3933 -0.4352  0.1681
  190MOL0     O26141   1.454   5.330   4.985 -0.7576  0.0253 -0.3248
  190MOL0     C26142   1.387   5.455   4.990  0.3109  0.2814 -0.1194
  190MOL0     C26143   1.243   5.428   5.026 -0.6025 -0.0473 -0.2331
  190MOL0     C26144   1.158   5.544   4.987  0.3643  0.0920  0.2653
  190MOL0     C26145   1.006   5.513   5.012  0.3551  0.5854 -0.0251
  190MOL0     C26146   0.962   5.483   5.151 -1.7538 -0.6036 -0.1815
  190MOL0     C26147   0.951   5.470   5.271 -0.3549 -0.7738 -0.6549
  190MOL0     C26148   1.663   5.439   4.902  0.9296  0.4694 -0.2934
  190MOL0     C26149   1.788   5.435   4.846  0.2298 -0.6839 -0.0556
  190MOL0     C26150   1.836   5.568   4.783 -0.3046  0.1631 -0.0638
  190MOL0     H26151   2.285   5.318   4.770 -0.0031  1.0155 -1.0980
  190MOL0     H26152   2.499   5.233   4.743 -0.4330 -0.5373  3.1741
  190MOL0     H26153   2.672   5.102   4.519  0.4409 -0.2603  0.4103
  190MOL0     H26154   2.528   5.034   4.431  1.3101 -1.9621 -1.9768
  190MOL0     H26155   2.752   4.946   4.376 -0.2351 -0.5180 -0.0606
  190MOL0     H26156   2.785   4.897   4.538  0.4409 -1.1931 -1.7874
  190MOL0     H26157   2.577   4.728   4.507  0.8518 -4.6948 -0.2213
  190MOL0     H26158   2.582   4.789   4.337  2.6574  0.6363 -0.3474
  190MOL0     H26159   2.807   4.711   4.301 -2.3247 -2.4750 -2.1532
  190MOL0     H26160   2.802   4.628   4.463  0.1438 -1.0021 -0.1010
  190MOL0     H26161   2.583   4.569   4.263  0.6863  4.8580 -0.6899
  190MOL0     H26162   2.648   4.481   4.407  2.0168  1.7928  2.2433
  190MOL0     H26163   2.700   4.380   4.210 -2.0860  1.2949  1.0526
  190MOL0     H26164   2.786   4.511   4.133 -0.1006 -1.5732 -0.6336
  190MOL0     H26165   2.902   4.388   4.390  1.8266  1.9427  0.8219
  190MOL0     H26166   2.957   4.519   4.290  0.2334 -0.5808  0.9916
  190MOL0     H26167   3.078   4.305   4.251  0.8939  0.0984 -1.8988
  190MOL0     H26168   2.932   4.237   4.197  2.2938 -1.8590  0.7251
  190MOL0     H26169   3.123   4.577   4.087 -2.0500 -0.9853  3.0831
  190MOL0     H26170   3.058   4.693   3.848  1.1749 -1.1966  2.7171
  190MOL0     H26171   3.053   4.588   3.714 -1.8604  0.9083  0.8214
  190MOL0     H26172   3.310   4.633   3.897 -0.5754  1.4321 -0.2177
  190MOL0     H26173   3.304   4.559   3.733  1.0573 -0.4516 -0.5871
  190MOL0     H26174   3.238   4.787   3.645 -0.3874 -0.6051  0.7073
  190MOL0     H26175   3.241   4.856   3.810  1.2204  0.7872  0.3822
  190MOL0     H26176   3.470   4.786   3.621  0.6447 -0.8124  1.8201
  190MOL0     H26177   3.422   4.935   3.689  2.1320  0.8697 -1.2428
  190MOL0     H26178   3.673   4.790   3.584  0.3438  2.2731 -0.7216
  190MOL0     H26179   3.939   4.947   3.519  1.5069 -0.1855  0.3264
  190MOL0     H26180   3.862   4.795   3.467 -0.7116  1.9528 -1.0436
  190MOL0     H26181   4.028   4.787   3.528  1.0799  1.0576  0.6591
  190MOL0     H26182   4.285   5.021   3.503 -0.4027 -1.8075 -1.2320
  190MOL0     H26183   4.519   5.027   3.483 -1.7981  2.4757 -0.2689
  190MOL0     H26184   4.738   4.828   3.589  0.7391  0.2195  2.7878
  190MOL0     H26185   4.745   4.982   3.500 -0.5211  0.0544 -0.7669
  190MOL0     H26186   4.957   5.033   3.629  1.0437 -0.3140  3.0563
  190MOL0     H26187   4.906   4.919   3.752 -0.8747  1.2739  0.5474
  190MOL0     H26188   5.012   4.857   3.471 -0.1162  1.2748  0.8442
  190MOL0     H26189   4.937   4.736   3.573 -1.9980  1.4435 -0.7959
  190MOL0     H26190   5.183   4.731   3.593  0.5297 -1.0426  0.5828
  190MOL0     H26191   5.109   4.781   3.744  1.3291 -1.1292 -0.7389
  190MOL0     H26192   5.229   4.974   3.534  0.2152  0.9737  0.7058
  190MOL0     H26193   5.167   5.023   3.690  0.6307  1.5392  0.2369
  190MOL0     H26194   5.424   4.871   3.640 -1.5200 -2.4956 -1.2574
  190MOL0     H26195   5.342   4.861   3.789 -1.3325 -0.8326 -1.2245
  190MOL0     H26196   5.522   5.036   3.807  1.4445  3.6618  0.1264
  190MOL0     H26197   5.354   5.092   3.843  0.6259 -0.3337  0.7900
  190MOL0     H26198   5.359   5.195   3.618 -0.4174  3.1032  2.8023
  190MOL0     H26199   5.536   5.136   3.592  1.3063 -1.2496  1.7300
  190MOL0     H26200   4.567   4.965   3.894 -0.4392  3.1795 -0.2180
  190MOL0     H26201   4.327   4.908   3.923 -2.7848  1.4461 -0.3654
  190MOL0     H26202   3.923   4.805   4.014  1.0618 -1.0262 -0.2999
  190MOL0     H26203   3.679   4.770   4.010  0.2456  2.8550  0.0969
  190MOL0     H26204   2.339   4.850   4.617  0.6072  1.0992 -2.4027
  190MOL0     H26205   2.106   4.932   4.674  0.0420 -1.8564  2.2295
  190MOL0     H26206   1.833   5.105   4.903 -0.4381  1.6220 -1.4126
  190MOL0     H26207   1.605   5.125   4.990  0.9641 -0.9927 -0.1421
  190MOL0     H26208   1.424   5.517   5.072 -1.5037 -0.6802  1.4872
  190MOL0     H26209   1.393   5.507   4.894  2.1948 -1.6640 -1.1732
  190MOL0     H26210   1.238   5.406   5.133  2.5682 -0.2831 -0.0463
  190MOL0     H26211   1.202   5.345   4.969 -1.1270  0.5985 -0.8178
  190MOL0     H26212   1.186   5.633   5.045 -1.6397  0.9348  0.0171
  190MOL0     H26213   1.175   5.564   4.881  1.2249  0.3359  0.4391
  190MOL0     H26214   0.987   5.417   4.964 -0.9315  0.6225  0.3697
  190MOL0     H26215   0.936   5.583   4.966  3.0475  1.6218 -2.8661
  190MOL0     H26216   0.936   5.456   5.376  2.3396 -0.0086 -0.0845
  190MOL0     H26217   1.625   5.539   4.880  1.9349  0.2006 -3.8351
  190MOL0     H26218   1.867   5.549   4.679 -1.2519  1.9475 -0.7187
  190MOL0     H26219   1.754   5.640   4.778  0.0031  0.6116  1.1251
  190MOL0     H26220   1.921   5.597   4.846 -0.4327 -1.8105  1.1203
  191MOL0     O26221   5.804   2.813   4.373  0.2684 -0.0449  0.4948
  191MOL0     C26222   5.796   2.769   4.487 -0.2340 -1.0907 -1.6109
  191MOL0     O26223   5.901   2.772   4.585  0.5648 -0.2693  0.7870
  191MOL0     C26224   6.020   2.819   4.547  0.2545  0.3923  0.4258
  191MOL0     C26225   6.046   2.945   4.596 -0.6420  0.2291 -0.8304
  191MOL0     C26226   6.176   2.992   4.563  0.7000  0.4308 -0.2955
  191MOL0     C26227   6.267   2.927   4.490  0.7280 -0.0009 -0.1338
  191MOL0     O26228   6.389   2.987   4.468 -0.2568 -0.2410  0.3728
  191MOL0     C26229   6.490   2.895   4.469 -0.2024 -0.1453 -0.2368
  191MOL0     C26230   6.612   2.960   4.555 -0.7509  0.5783 -0.0567
  191MOL0     C26231   6.748   2.911   4.507 -0.7416  0.1903  0.0401
  191MOL0     C26232   6.785   2.759   4.554 -0.0399 -1.0033  0.1586
  191MOL0     C26233   6.938   2.731   4.536  0.6231  0.2544  0.3545
  191MOL0     C26234   6.966   2.584   4.579 -0.3101 -0.7430 -0.7504
  191MOL0     C26235   7.117   2.549   4.573 -0.3052 -0.4748 -0.3181
  191MOL0     C26236   7.140   2.397   4.574  0.1103  0.2997  0.2095
  191MOL0     N26237   7.282   2.372   4.540  0.0786  0.1196 -0.2481
  191MOL0     C26238   7.388   2.458   4.519  0.0222 -0.4989  0.0215
  191MOL0     C26239   7.487   2.382   4.491 -0.2486  0.6255  0.6203
  191MOL0     C26240   7.626   2.437   4.461  0.3251  0.2944 -0.0160
  191MOL0     C26241   7.701   2.461   4.603  0.6131  0.4446  0.9427
  191MOL0     C26242   7.779   2.338   4.648 -0.1703 -0.3625  0.2449
  191MOL0     C26243   7.891   2.304   4.555 -0.0164 -0.1260  0.6021
  191MOL0     O26244   7.995   2.383   4.594  0.1953  0.4876  0.3115
  191MOL0     C26245   8.114   2.324   4.569 -0.5065 -0.5438 -0.2917
  191MOL0     C26246   8.150   2.294   4.436  0.1598  0.6736  0.0175
  191MOL0     C26247   8.278   2.248   4.401  0.7106 -0.3421 -0.2350
  191MOL0     C26248   8.304   2.222   4.253  0.0084  0.0719  0.1607
  191MOL0     C26249   8.377   2.240   4.500  0.0374  0.2599 -0.0146
  191MOL0     C26250   8.523   2.214   4.464  0.5871  0.6790 -0.4414
  191MOL0     O26251   8.609   2.271   4.553 -0.4836 -0.2340  0.2677
  191MOL0     C26252   8.747   2.244   4.538 -0.0463 -0.0726  0.9517
  191MOL0     C26253   8.825   2.231   4.650 -0.2434 -0.8202  0.4108
  191MOL0     C26254   8.967   2.210   4.660 -0.2963 -0.7069  0.0402
  191MOL0     C26255   9.036   2.186   4.538 -1.4501  0.3188 -0.0467
  191MOL0     O26256   9.170   2.153   4.546 -0.3144 -0.1578 -0.3944
  191MOL0     C26257   9.256   2.239   4.474 -0.4153  0.2367 -0.2791
  191MOL0     C26258   9.395   2.216   4.526  0.7259 -0.0834  1.1317
  191MOL0     C26259   9.499   2.304   4.461 -0.6883  0.3918  0.2554
  191MOL0     C26260   9.636   2.234   4.475 -0.5821 -0.5003  0.0520
  191MOL0     C26261   9.746   2.337   4.445  0.0248 -0.1983 -0.0994
  191MOL0     C26262   9.881   2.265   4.428  0.1118 -1.1949  0.1636
  191MOL0     C26263   9.930   2.211   4.564 -0.0222 -0.3809  0.5213
  191MOL0     C26264  10.060   2.136   4.550 -0.2106  0.0021  0.6298
  191MOL0    Cl26265  10.191   2.229   4.495 -0.1061  0.0168  0.0355
  191MOL0     C26266   8.963   2.197   4.420  0.1217  0.1714 -0.2097
  191MOL0     C26267   8.821   2.224   4.421 -0.5305 -0.5236 -0.7288
  191MOL0     O26268   8.552   2.143   4.364  0.1390 -0.0974  0.2498
  191MOL0     C26269   8.342   2.279   4.630  0.0163  0.5345  0.0030
  191MOL0     C26270   8.210   2.315   4.666 -1.0038 -0.1496  0.6882
  191MOL0     N26271   7.447   2.252   4.489 -0.5588  0.3533 -0.0594
  191MOL0     N26272   7.319   2.241   4.522 -0.3982 -0.6741  0.4931
  191MOL0     C26273   6.223   2.800   4.434  0.4931  0.2245  0.2777
  191MOL0     C26274   6.102   2.747   4.463  0.1368  0.0520  0.5759
  191MOL0     C26275   5.662   2.710   4.540  0.0607  0.2368 -0.4530
  191MOL0     C26276   5.646   2.720   4.679  0.8086  0.6135  0.1860
  191MOL0     C26277   5.530   2.660   4.732  0.2057  0.5280  0.2441
  191MOL0     C26278   5.447   2.579   4.660 -0.2484  0.3530 -0.3756
  191MOL0     O26279   5.347   2.521   4.726  0.5430  0.3291 -0.4898
  191MOL0     C26280   5.269   2.409   4.665  0.0970  0.1887  0.6236
  191MOL0     C26281   5.156   2.383   4.763 -0.2369 -0.0461  0.0289
  191MOL0     C26282   5.176   2.248   4.840  0.3396 -0.2065  0.1082
  191MOL0     C26283   5.078   2.226   4.961  0.3102  0.3108  0.2642
  191MOL0     C26284   5.077   2.342   5.050 -0.5058 -1.0578 -0.5963
  191MOL0     C26285   5.063   2.440   5.121 -0.6350 -0.2028 -0.1635
  191MOL0     C26286   5.472   2.565   4.526 -0.1232  0.3071  0.3849
  191MOL0     C26287   5.575   2.630   4.465  0.3183 -0.4646  0.1730
  191MOL0     C26288   5.590   2.598   4.320 -0.2899 -0.6204  0.0299
  191MOL0     H26289   5.981   3.011   4.653 -2.1327 -1.1925 -0.8091
  191MOL0     H26290   6.214   3.083   4.609  0.3822 -0.6401  2.2213
  191MOL0     H26291   6.529   2.869   4.371  1.6122 -2.1371  0.9217
  191MOL0     H26292   6.465   2.801   4.519 -0.2105  0.2935  0.6043
  191MOL0     H26293   6.602   3.069   4.551 -1.1584  0.5826  0.8038
  191MOL0     H26294   6.605   2.932   4.661 -0.6148  2.5092  0.5023
  191MOL0     H26295   6.754   2.927   4.399  1.0424 -0.4697  0.0190
  191MOL0     H26296   6.826   2.970   4.555  0.7355 -1.1144 -0.6604
  191MOL0     H26297   6.748   2.743   4.655 -0.2910  0.7973  0.3731
  191MOL0     H26298   6.727   2.690   4.492  1.2005 -0.8995 -1.2023
  191MOL0     H26299   6.984   2.804   4.602 -1.1529  1.2689  0.5317
  191MOL0     H26300   6.979   2.737   4.435  2.0169 -0.1042  0.8833
  191MOL0     H26301   6.921   2.565   4.677 -1.1912  0.2133 -0.9517
  191MOL0     H26302   6.907   2.522   4.511 -0.4097 -2.2277  0.6152
  191MOL0     H26303   7.165   2.597   4.660 -0.1053 -3.2076  1.1788
  191MOL0     H26304   7.155   2.600   4.484 -1.8414  3.5462  1.0842
  191MOL0     H26305   7.114   2.356   4.671 -1.1371  0.7071  0.0716
  191MOL0     H26306   7.071   2.342   4.509  2.3208 -3.6995  0.9321
  191MOL0     H26307   7.383   2.566   4.528 -2.7589 -0.5687  0.2518
  191MOL0     H26308   7.617   2.536   4.416 -1.3728 -0.2075 -0.8480
  191MOL0     H26309   7.670   2.368   4.389 -8.1122 -0.6337 -5.8100
  191MOL0     H26310   7.771   2.543   4.585  1.2967 -0.3767 -0.3334
  191MOL0     H26311   7.624   2.483   4.677 -1.4063  1.5017 -1.3142
  191MOL0     H26312   7.821   2.345   4.749 -0.1822 -0.3780  0.2517
  191MOL0     H26313   7.701   2.262   4.657 -1.7633  0.8049 -2.5300
  191MOL0     H26314   7.906   2.196   4.566  1.8965  0.1862  1.3536
  191MOL0     H26315   7.865   2.304   4.448  1.4018 -0.4225  0.2335
  191MOL0     H26316   8.077   2.301   4.356  1.2869 -2.4895 -1.4481
  191MOL0     H26317   8.378   2.291   4.212 -0.3240 -1.1869 -2.8322
  191MOL0     H26318   8.217   2.252   4.192 -1.0877 -1.6245  0.8288
  191MOL0     H26319   8.321   2.118   4.226 -1.7261 -0.2217  0.0696
  191MOL0     H26320   8.763   2.247   4.737  0.6440 -0.0962  0.9300
  191MOL0     H26321   9.013   2.211   4.758 -0.1929 -1.1527 -0.0001
  191MOL0     H26322   9.247   2.226   4.366 -1.0434  0.2948 -0.2430
  191MOL0     H26323   9.227   2.343   4.492 -2.1705 -0.2694  0.0420
  191MOL0     H26324   9.391   2.228   4.635  2.9069  1.9344  1.0728
  191MOL0     H26325   9.417   2.113   4.497  1.2099  0.5591 -0.9836
  191MOL0     H26326   9.496   2.403   4.506  0.0224  1.6602 -2.3170
  191MOL0     H26327   9.476   2.325   4.356 -1.2632 -2.1171 -0.1915
  191MOL0     H26328   9.651   2.160   4.396  1.2127  1.7685 -1.9031
  191MOL0     H26329   9.635   2.187   4.574  0.6186 -2.0691 -0.6537
  191MOL0     H26330   9.724   2.397   4.356  2.2657  0.3644 -0.3522
  191MOL0     H26331   9.761   2.408   4.527  1.4903 -0.2215 -0.3205
  191MOL0     H26332   9.958   2.324   4.378  1.7911 -1.6724  2.0599
  191MOL0     H26333   9.872   2.182   4.358  0.6387 -0.3097 -0.9859
  191MOL0     H26334   9.851   2.147   4.604 -2.6765 -0.1641 -3.7030
  191MOL0     H26335   9.945   2.287   4.641  0.2276  1.1378 -0.9444
  191MOL0     H26336  10.034   2.067   4.470 -1.4144  1.2882 -0.1203
  191MOL0     H26337  10.080   2.074   4.639 -1.2150 -0.3278  0.6435
  191MOL0     H26338   9.010   2.188   4.322  1.0190  0.8012  0.1559
  191MOL0     H26339   8.777   2.237   4.323  0.0193  2.1898 -0.6922
  191MOL0     H26340   8.417   2.281   4.709  2.1015  0.4443 -1.8870
  191MOL0     H26341   8.192   2.345   4.769 -1.4044 -1.5812  1.0651
  191MOL0     H26342   6.286   2.746   4.363 -0.9281 -2.0698  0.6788
  191MOL0     H26343   6.063   2.667   4.402 -0.7089  0.9672 -0.1194
  191MOL0     H26344   5.713   2.785   4.733 -0.8625  2.1975  0.4511
  191MOL0     H26345   5.513   2.696   4.833  0.3507 -0.7811  0.7516
  191MOL0     H26346   5.229   2.442   4.569  2.1835 -0.9868 -0.6969
  191MOL0     H26347   5.330   2.322   4.640  0.4246 -0.1868  2.5460
  191MOL0     H26348   5.059   2.375   4.713 -0.5115 -1.4548  0.7494
  191MOL0     H26349   5.151   2.468   4.831 -0.0270 -1.2330  1.5981
  191MOL0     H26350   5.181   2.169   4.765  0.1498 -0.6963  0.6025
  191MOL0     H26351   5.269   2.252   4.897 -0.5708  1.9294  1.6352
  191MOL0     H26352   5.112   2.137   5.014 -0.4442 -0.7003 -0.8977
  191MOL0     H26353   4.980   2.197   4.921  0.4857 -1.6068  1.1202
  191MOL0     H26354   5.050   2.522   5.188 -0.0376  2.1399 -2.7531
  191MOL0     H26355   5.407   2.498   4.470 -0.9768 -0.6227  2.3834
  191MOL0     H26356   5.564   2.689   4.265 -2.0553 -0.4644  1.0463
  191MOL0     H26357   5.693   2.567   4.297 -0.2318 -2.3564  2.3282
  191MOL0     H26358   5.522   2.519   4.286  0.1343 -0.5766 -0.9675
  192MOL0     O26359   9.372   3.422   1.381  0.7467 -0.4148 -0.0004
  192MOL0     C26360   9.347   3.499   1.285 -0.0265 -0.5464  0.1378
  192MOL0     O26361   9.416   3.621   1.257  0.6339  0.2567 -0.0502
  192MOL0     C26362   9.485   3.667   1.356 -0.0944  1.1076 -0.8971
  192MOL0     C26363   9.470   3.799   1.387 -0.1736  0.4411  0.1261
  192MOL0     C26364   9.565   3.872   1.465 -0.6904  0.5716  0.0231
  192MOL0     C26365   9.679   3.809   1.511 -0.3101  0.0261 -0.0354
  192MOL0     O26366   9.790   3.866   1.574 -0.1474  0.3196  0.2246
  192MOL0     C26367   9.784   4.005   1.621 -0.3321  0.2369 -0.0417
  192MOL0     C26368   9.913   4.058   1.692  0.1252  1.3349  0.6603
  192MOL0     C26369  10.010   3.952   1.748 -0.8651  0.2905  0.2343
  192MOL0     C26370  10.123   4.022   1.817  0.5780 -0.2140 -0.4920
  192MOL0     C26371  10.249   3.941   1.815 -0.0655  0.6804  0.1112
  192MOL0     C26372  10.381   4.003   1.863  0.6496 -0.0729  0.1322
  192MOL0     C26373  10.493   3.900   1.898 -0.8782 -0.1904  0.5356
  192MOL0     C26374  10.600   3.964   1.986 -0.5048 -0.1936  0.1451
  192MOL0     N26375  10.714   3.873   2.016  0.0753  0.2265  0.6141
  192MOL0     C26376  10.700   3.751   2.084  0.3073  0.1976 -1.0474
  192MOL0     C26377  10.827   3.710   2.111  0.0834 -0.0347 -0.3968
  192MOL0     C26378  10.875   3.594   2.174 -0.2853 -0.5271  0.4255
  192MOL0     C26379  11.004   3.531   2.106 -0.5367  0.7157 -1.0299
  192MOL0     C26380  11.055   3.405   2.189  0.0515 -0.3402  0.7564
  192MOL0     C26381  11.186   3.361   2.131 -0.6456 -0.0838  0.1934
  192MOL0     O26382  11.302   3.456   2.139  0.3401  0.3092  0.6993
  192MOL0     C26383  11.425   3.398   2.112 -0.3846 -1.2959 -0.4197
  192MOL0     C26384  11.441   3.295   2.022 -0.0523  0.2739  0.1814
  192MOL0     C26385  11.570   3.231   2.007  0.4655 -0.0119  0.5662
  192MOL0     C26386  11.577   3.110   1.908  0.2693  0.1366 -0.3695
  192MOL0     C26387  11.677   3.274   2.092  0.8666  0.0191 -0.4732
  192MOL0     C26388  11.810   3.207   2.098 -0.9696  0.2489 -0.1911
  192MOL0     O26389  11.911   3.278   2.160  0.7531 -0.2015  0.1965
  192MOL0     C26390  12.037   3.244   2.111 -0.2162  0.1345  0.5318
  192MOL0     C26391  12.111   3.139   2.171  0.2059  0.4209  0.7004
  192MOL0     C26392  12.237   3.101   2.117  0.3219 -0.0359 -0.3553
  192MOL0     C26393  12.285   3.164   1.997 -0.9626 -0.0553  1.1103
  192MOL0     O26394  12.406   3.128   1.937 -0.6129 -1.0845 -0.0323
  192MOL0     C26395  12.514   3.092   2.018 -0.1899  0.7511  0.4104
  192MOL0     C26396  12.644   3.165   1.970 -0.9583  0.0007  0.7077
  192MOL0     C26397  12.680   3.144   1.825  0.2546 -0.3424  1.0873
  192MOL0     C26398  12.795   3.232   1.782 -0.2729  0.3324 -0.2123
  192MOL0     C26399  12.859   3.189   1.658 -0.2115  0.2445 -0.1902
  192MOL0     C26400  12.953   3.297   1.599  0.2481 -0.0971 -0.9072
  192MOL0     C26401  13.071   3.332   1.680 -0.1963  0.5004  0.4223
  192MOL0     C26402  13.182   3.399   1.610 -0.5983 -0.1962  0.0635
  192MOL0    Cl26403  13.258   3.275   1.517  0.3173 -0.2034  0.0933
  192MOL0     C26404  12.211   3.263   1.927  0.0070 -0.1379  0.4634
  192MOL0     C26405  12.088   3.304   1.989  0.4205 -0.9044 -0.2984
  192MOL0     O26406  11.826   3.098   2.052  0.2923 -0.4785  0.0943
  192MOL0     C26407  11.657   3.380   2.180 -0.1086  0.4948 -1.0297
  192MOL0     C26408  11.533   3.446   2.192 -0.5395 -0.1111 -0.4913
  192MOL0     N26409  10.906   3.799   2.049 -0.1910 -0.4023 -0.5354
  192MOL0     N26410  10.843   3.900   1.996 -0.5435  1.6354 -1.0207
  192MOL0     C26411   9.692   3.666   1.491  0.1564  0.0261  0.0604
  192MOL0     C26412   9.597   3.597   1.408  0.4231  0.1947  0.2786
  192MOL0     C26413   9.234   3.463   1.184 -0.4659 -0.3978 -0.2675
  192MOL0     C26414   9.200   3.538   1.073 -0.2529 -0.0377 -0.4831
  192MOL0     C26415   9.099   3.496   0.990  0.3636  1.4788 -0.0664
  192MOL0     C26416   9.021   3.380   1.022  0.4072 -0.2920  0.9632
  192MOL0     O26417   8.921   3.342   0.934 -0.6160 -0.2255  0.0083
  192MOL0     C26418   8.789   3.396   0.956  0.2104 -0.1370 -0.2112
  192MOL0     C26419   8.715   3.386   0.822  0.4607 -0.7227 -0.1989
  192MOL0     C26420   8.754   3.518   0.749 -0.1041 -0.1976 -0.0811
  192MOL0     C26421   8.702   3.533   0.607  0.6198 -0.3825  0.5064
  192MOL0     C26422   8.556   3.566   0.592 -0.0335  0.8848 -0.1294
  192MOL0     C26423   8.442   3.607   0.577 -0.0637  0.2741 -0.5593
  192MOL0     C26424   9.047   3.305   1.133  0.3714  0.1885  0.2645
  192MOL0     C26425   9.156   3.347   1.211  0.2516  1.2029 -0.2476
  192MOL0     C26426   9.196   3.235   1.313 -0.4015 -0.3358 -0.2470
  192MOL0     H26427   9.386   3.855   1.345  1.3187  0.5240 -3.0488
  192MOL0     H26428   9.557   3.979   1.479 -2.8152  0.3434  0.9234
  192MOL0     H26429   9.706   4.016   1.696  1.0000  0.6940  1.3233
  192MOL0     H26430   9.760   4.080   1.544  3.2287 -0.7619 -2.3981
  192MOL0     H26431   9.972   4.118   1.621 -1.4378  1.6730 -0.3995
  192MOL0     H26432   9.880   4.116   1.778  0.5019 -0.5652  2.1585
  192MOL0     H26433   9.970   3.880   1.820  0.7755 -1.0221 -0.1136
  192MOL0     H26434  10.047   3.895   1.662 -1.3897 -1.2070  0.9695
  192MOL0     H26435  10.142   4.115   1.763  0.0773 -1.1094 -2.2924
  192MOL0     H26436  10.108   4.048   1.922  1.3079 -1.1272 -0.1550
  192MOL0     H26437  10.261   3.896   1.716 -0.4235  0.8933 -0.0323
  192MOL0     H26438  10.234   3.856   1.883  1.3090  1.8669  1.9862
  192MOL0     H26439  10.408   4.081   1.791 -0.0822 -1.4636 -1.7329
  192MOL0     H26440  10.365   4.061   1.954  1.1579 -0.3535  0.4086
  192MOL0     H26441  10.532   3.861   1.804 -1.3701 -2.6141  1.2787
  192MOL0     H26442  10.437   3.822   1.951 -1.6413  0.6117  0.9460
  192MOL0     H26443  10.637   4.059   1.945 -0.3464  1.3562  3.5797
  192MOL0     H26444  10.542   3.983   2.077 -0.3720 -0.8539  0.3741
  192MOL0     H26445  10.608   3.703   2.116  0.2929  1.8289  1.6769
  192MOL0     H26446  10.789   3.527   2.173 -1.4621  0.8904  1.3754
  192MOL0     H26447  10.908   3.631   2.272 -1.0550 -0.2946  0.6050
  192MOL0     H26448  10.977   3.487   2.010 -1.8153 -1.4185  0.2276
  192MOL0     H26449  11.087   3.602   2.114  0.4092 -0.3390 -1.2629
  192MOL0     H26450  11.046   3.416   2.297 -1.1781 -2.3733  0.9244
  192MOL0     H26451  10.983   3.325   2.167 -1.4220  0.9453  0.7825
  192MOL0     H26452  11.205   3.265   2.180  0.0588  0.1732  0.4366
  192MOL0     H26453  11.172   3.344   2.024  0.8362 -1.3724  0.1741
  192MOL0     H26454  11.361   3.267   1.954 -0.8448  0.2509  1.1031
  192MOL0     H26455  11.665   3.111   1.843  1.3992  2.8992  1.0252
  192MOL0     H26456  11.496   3.123   1.836  0.2242 -0.6531 -0.4668
  192MOL0     H26457  11.574   3.012   1.958  1.6009  1.1300  1.8291
  192MOL0     H26458  12.069   3.092   2.259 -2.4395 -0.2557 -0.8289
  192MOL0     H26459  12.298   3.026   2.166 -0.4401 -0.4478 -0.0172
  192MOL0     H26460  12.490   3.098   2.124  1.4069 -1.4367  0.9705
  192MOL0     H26461  12.541   2.988   2.001  0.1755  0.6796  1.3427
  192MOL0     H26462  12.628   3.272   1.990 -0.5930  0.1700  0.1132
  192MOL0     H26463  12.728   3.142   2.036 -1.2082  1.9691  1.8158
  192MOL0     H26464  12.595   3.157   1.758  1.6526 -0.2480 -0.7288
  192MOL0     H26465  12.703   3.037   1.815 -1.6747 -0.5871 -2.1700
  192MOL0     H26466  12.871   3.235   1.861 -1.1375  2.2433  0.6235
  192MOL0     H26467  12.750   3.329   1.758  0.4081  0.8468  0.5088
  192MOL0     H26468  12.920   3.104   1.692 -1.5543 -0.6685  0.0117
  192MOL0     H26469  12.785   3.166   1.582 -0.2553  1.1275 -0.4306
  192MOL0     H26470  12.899   3.392   1.587 -1.1915 -0.2930  2.7718
  192MOL0     H26471  12.973   3.264   1.496 -0.5342  0.2234 -1.1667
  192MOL0     H26472  13.109   3.234   1.712 -2.7853 -1.1022 -0.9940
  192MOL0     H26473  13.046   3.396   1.764 -0.0218  1.2590 -0.0974
  192MOL0     H26474  13.251   3.449   1.678 -0.8289  0.9321 -0.5075
  192MOL0     H26475  13.151   3.479   1.542  4.3572  1.4772 -0.6419
  192MOL0     H26476  12.238   3.297   1.827  0.5324 -2.8280 -0.3964
  192MOL0     H26477  12.026   3.384   1.948  2.3862  0.9775  0.2039
  192MOL0     H26478  11.736   3.417   2.246 -0.6740 -1.0804  0.6182
  192MOL0     H26479  11.519   3.538   2.247  1.1527  0.2448 -0.5947
  192MOL0     H26480   9.773   3.616   1.542  1.3653 -1.9159 -3.4361
  192MOL0     H26481   9.620   3.493   1.387 -1.1229 -0.5771  2.0906
  192MOL0     H26482   9.262   3.625   1.056  1.2822 -0.9145  0.3932
  192MOL0     H26483   9.072   3.549   0.899 -2.3571 -1.1038 -0.9165
  192MOL0     H26484   8.732   3.330   1.022 -1.7080 -0.4560 -2.0776
  192MOL0     H26485   8.784   3.496   0.999 -1.1546 -0.4874  0.4854
  192MOL0     H26486   8.606   3.386   0.835  0.2551 -1.5022 -1.7068
  192MOL0     H26487   8.746   3.303   0.758  0.7694 -0.4916 -0.3528
  192MOL0     H26488   8.716   3.604   0.804  1.0618  0.6204 -0.5222
  192MOL0     H26489   8.863   3.529   0.746 -0.1081  0.2922 -3.7307
  192MOL0     H26490   8.726   3.444   0.549 -0.7780 -2.1604  2.4951
  192MOL0     H26491   8.758   3.619   0.569  3.1876 -2.7667 -1.4843
  192MOL0     H26492   8.340   3.639   0.572 -0.1404  0.2236  0.3886
  192MOL0     H26493   8.983   3.217   1.134 -0.8079  0.9835  2.6583
  192MOL0     H26494   9.207   3.254   1.420 -3.8494  0.8141  0.0161
  192MOL0     H26495   9.114   3.164   1.325  0.1561 -0.6413  2.2729
  192MOL0     H26496   9.282   3.183   1.268 -0.8299 -1.0597 -0.2546
  193MOL0     O26497   4.827   4.050   8.669 -0.3087  0.0042  0.2322
  193MOL0     C26498   4.833   4.088   8.791 -0.4627  0.3982  0.6013
  193MOL0     O26499   4.957   4.099   8.863  0.2915 -0.4571  0.3340
  193MOL0     C26500   5.084   4.076   8.805  0.3427  0.4995  0.0248
  193MOL0     C26501   5.194   4.059   8.895 -0.3645 -0.2419 -0.6655
  193MOL0     C26502   5.328   4.030   8.851 -0.1758  0.2099  0.1652
  193MOL0     C26503   5.354   3.995   8.716 -0.3257 -0.2292 -0.2473
  193MOL0     O26504   5.473   3.949   8.668  0.5212  0.5345  0.0908
  193MOL0     C26505   5.595   3.985   8.737  0.2431 -0.6120  0.6460
  193MOL0     C26506   5.617   4.129   8.765 -0.4322 -0.5152  0.5534
  193MOL0     C26507   5.763   4.135   8.798 -1.0614 -0.8785 -0.1840
  193MOL0     C26508   5.794   4.111   8.947  0.4634 -0.2615 -0.3402
  193MOL0     C26509   5.950   4.111   8.978 -0.7616  0.2277  0.1492
  193MOL0     C26510   6.009   4.248   8.960 -0.0258 -0.1777 -0.0089
  193MOL0     C26511   6.142   4.276   9.021  0.1078 -0.3761 -0.8822
  193MOL0     C26512   6.261   4.192   8.963 -0.1388 -0.0622 -0.1255
  193MOL0     N26513   6.389   4.197   9.041 -0.0832 -0.9809  0.5373
  193MOL0     C26514   6.415   4.124   9.151  0.7019 -1.0664  0.1792
  193MOL0     C26515   6.523   4.186   9.203  0.0395  0.0734  0.8010
  193MOL0     C26516   6.599   4.148   9.332  0.1060  0.3274 -0.3124
  193MOL0     C26517   6.510   4.076   9.443  0.0900 -0.6837  0.1193
  193MOL0     C26518   6.423   4.181   9.519  0.0636  0.4571  0.2507
  193MOL0     C26519   6.301   4.110   9.582 -0.6243  0.1295 -0.1689
  193MOL0     O26520   6.183   4.094   9.496  0.3249  0.3725  0.4089
  193MOL0     C26521   6.109   4.213   9.489 -0.1512 -0.1149 -0.1744
  193MOL0     C26522   5.991   4.204   9.411 -0.4893 -0.6422  0.3787
  193MOL0     C26523   5.904   4.310   9.387  0.2932  0.0523  0.5919
  193MOL0     C26524   5.770   4.276   9.320 -0.0518 -0.0101 -0.8298
  193MOL0     C26525   5.935   4.440   9.438 -0.4508 -0.4034 -0.5964
  193MOL0     C26526   5.854   4.559   9.416  0.1288  0.0616 -0.1502
  193MOL0     O26527   5.910   4.682   9.448 -0.7268 -0.7026 -0.8826
  193MOL0     C26528   5.833   4.795   9.456 -0.6555 -0.5594  0.1973
  193MOL0     C26529   5.860   4.896   9.364  0.1262  0.4463 -0.4672
  193MOL0     C26530   5.796   5.021   9.381  0.1672  0.2026 -0.4066
  193MOL0     C26531   5.705   5.051   9.480  0.2120  0.5509  0.3801
  193MOL0     O26532   5.647   5.172   9.476 -0.1330 -1.0542 -0.4547
  193MOL0     C26533   5.530   5.204   9.557  0.2334  0.0017 -0.5526
  193MOL0     C26534   5.466   5.329   9.499 -0.6486  0.4411  0.0055
  193MOL0     C26535   5.575   5.445   9.509 -0.2540 -0.1357 -0.7192
  193MOL0     C26536   5.503   5.558   9.442 -0.5118  0.4274 -0.0331
  193MOL0     C26537   5.597   5.680   9.426 -0.3836  0.8346  0.3195
  193MOL0     C26538   5.523   5.803   9.358  0.4750 -0.0415  0.0058
  193MOL0     C26539   5.596   5.923   9.306 -0.0928 -0.0635 -0.1605
  193MOL0     C26540   5.657   5.991   9.434  0.2764  0.2033  0.6861
  193MOL0    Cl26541   5.760   6.131   9.393 -0.2877 -0.5038  0.1607
  193MOL0     C26542   5.666   4.942   9.570 -0.4493  0.4763  0.3786
  193MOL0     C26543   5.737   4.821   9.552 -0.0165  1.0490 -0.2618
  193MOL0     O26544   5.737   4.536   9.376 -0.2718 -0.2332  0.1334
  193MOL0     C26545   6.048   4.456   9.522 -0.1814  0.4264  0.2608
  193MOL0     C26546   6.123   4.344   9.544 -0.4947  0.4457 -0.9663
  193MOL0     N26547   6.565   4.289   9.121  1.0981 -0.0423  0.2184
  193MOL0     N26548   6.484   4.284   9.017  0.1972  0.3710  0.3320
  193MOL0     C26549   5.240   3.998   8.624 -0.5794 -1.5471 -0.7105
  193MOL0     C26550   5.115   4.053   8.666  0.3908  0.0254  0.9594
  193MOL0     C26551   4.713   4.133   8.860  0.2556  0.1901 -0.4000
  193MOL0     C26552   4.725   4.236   8.956  0.7356 -0.2784  0.4594
  193MOL0     C26553   4.617   4.274   9.032 -0.2343 -0.1996 -0.4069
  193MOL0     C26554   4.491   4.210   9.020 -0.5501  0.0263  0.3138
  193MOL0     O26555   4.388   4.270   9.085  0.0996 -0.1817 -0.1316
  193MOL0     C26556   4.253   4.215   9.073 -0.6604 -1.1162 -0.4702
  193MOL0     C26557   4.170   4.276   9.178  0.1883  0.3062 -0.4590
  193MOL0     C26558   4.024   4.279   9.152  0.5791  0.3504  0.6529
  193MOL0     C26559   3.957   4.147   9.199 -0.1633 -0.4215  0.5265
  193MOL0     C26560   3.992   4.041   9.113 -0.3662 -0.3927  0.0444
  193MOL0     C26561   4.019   3.929   9.072  0.8954  1.0218  0.1904
  193MOL0     C26562   4.468   4.111   8.922 -0.0563  0.2921 -0.0640
  193MOL0     C26563   4.578   4.076   8.839 -0.1732  0.1677  1.0836
  193MOL0     C26564   4.562   3.971   8.723 -0.9607  0.2459 -0.6733
  193MOL0     H26565   5.166   4.080   8.998  0.6548 -1.1706 -0.1833
  193MOL0     H26566   5.411   4.026   8.921  0.9637 -0.2455 -1.1579
  193MOL0     H26567   5.672   3.960   8.663  1.7862  1.9195  1.2987
  193MOL0     H26568   5.598   3.926   8.829  0.7066 -1.0793  0.3413
  193MOL0     H26569   5.589   4.201   8.687 -3.7076 -1.2865  0.8798
  193MOL0     H26570   5.557   4.157   8.853 -0.2775 -1.0900  0.8427
  193MOL0     H26571   5.828   4.080   8.729  0.9187  2.0413 -0.8517
  193MOL0     H26572   5.779   4.242   8.784 -1.4638 -0.6760  0.8559
  193MOL0     H26573   5.759   4.185   9.019  0.8757 -0.9535  0.5934
  193MOL0     H26574   5.741   4.018   8.973 -0.2421 -0.4408 -2.2798
  193MOL0     H26575   5.999   4.044   8.906  3.6914  1.3919  1.7334
  193MOL0     H26576   5.986   4.072   9.073  2.1036 -2.8496 -1.9473
  193MOL0     H26577   6.013   4.274   8.854 -0.9163 -0.7919 -0.1977
  193MOL0     H26578   5.948   4.326   9.007  0.9210 -0.7351  2.2976
  193MOL0     H26579   6.129   4.281   9.130 -1.5989  0.1979 -1.0816
  193MOL0     H26580   6.168   4.382   9.008 -0.1036 -0.4793 -2.3059
  193MOL0     H26581   6.238   4.086   8.949  0.5922 -0.0375 -1.7322
  193MOL0     H26582   6.268   4.228   8.860  2.1341 -0.2054 -0.0723
  193MOL0     H26583   6.360   4.039   9.191  0.1612 -0.4452  0.7584
  193MOL0     H26584   6.648   4.236   9.375  1.0561 -1.1996  1.9537
  193MOL0     H26585   6.671   4.074   9.296 -2.2246 -1.8677 -0.7353
  193MOL0     H26586   6.441   4.002   9.404 -1.1473  1.9049 -3.0768
  193MOL0     H26587   6.564   4.023   9.522 -1.0782  2.4453  3.2793
  193MOL0     H26588   6.485   4.209   9.604 -1.3548  0.8660  1.1745
  193MOL0     H26589   6.382   4.264   9.460 -0.5288  0.2084  0.3029
  193MOL0     H26590   6.336   4.013   9.619 -2.7107 -1.3188 -1.7943
  193MOL0     H26591   6.276   4.165   9.673 -1.6663 -2.2447  1.0647
  193MOL0     H26592   5.967   4.107   9.368 -2.9592 -0.9388  2.1609
  193MOL0     H26593   5.756   4.175   9.281 -2.1315  0.4619 -1.4333
  193MOL0     H26594   5.774   4.344   9.234  3.0445  1.9196  0.6837
  193MOL0     H26595   5.681   4.295   9.380  0.7250  0.1593  0.2988
  193MOL0     H26596   5.931   4.874   9.285 -0.2823  0.3206 -0.8095
  193MOL0     H26597   5.828   5.092   9.305  1.3396  0.7481  0.5633
  193MOL0     H26598   5.459   5.122   9.545  0.9881 -0.3700 -3.0206
  193MOL0     H26599   5.559   5.237   9.657 -0.3797  0.8478 -0.6355
  193MOL0     H26600   5.442   5.314   9.394  1.2902 -1.3721 -0.2374
  193MOL0     H26601   5.378   5.352   9.561  0.5021  0.0143  1.8842
  193MOL0     H26602   5.671   5.430   9.460 -0.6566  1.6768 -2.1834
  193MOL0     H26603   5.593   5.469   9.614  0.3056 -1.7290 -0.4424
  193MOL0     H26604   5.407   5.577   9.491 -1.5919  0.5698 -2.0685
  193MOL0     H26605   5.486   5.535   9.336  1.9040 -1.1221 -0.1444
  193MOL0     H26606   5.642   5.697   9.524  1.8974 -2.9856  0.1400
  193MOL0     H26607   5.682   5.655   9.362 -0.8627  4.3090 -1.9758
  193MOL0     H26608   5.440   5.844   9.416 -0.0760  0.0190 -0.7990
  193MOL0     H26609   5.470   5.755   9.275 -0.7413 -0.2884  0.8932
  193MOL0     H26610   5.527   5.984   9.247 -1.4292 -0.7455  0.6520
  193MOL0     H26611   5.682   5.893   9.245  2.5615  1.5490  2.5225
  193MOL0     H26612   5.722   5.927   9.493 -0.8255 -2.1740 -0.5595
  193MOL0     H26613   5.574   6.027   9.496 -0.7450  2.2621 -1.6425
  193MOL0     H26614   5.584   4.942   9.641 -0.9262 -3.0265  0.0015
  193MOL0     H26615   5.705   4.742   9.619 -0.5411  1.0086 -0.5572
  193MOL0     H26616   6.073   4.556   9.556  2.1369  0.4675 -1.2806
  193MOL0     H26617   6.211   4.356   9.606 -1.7639 -2.0998  1.5617
  193MOL0     H26618   5.243   3.971   8.519 -2.0442  1.0107 -1.4981
  193MOL0     H26619   5.039   4.065   8.589 -2.4571 -3.5338  2.8677
  193MOL0     H26620   4.820   4.284   8.976  0.9051  0.6535 -2.2899
  193MOL0     H26621   4.617   4.356   9.103 -2.0767 -0.7725  0.3039
  193MOL0     H26622   4.225   4.244   8.971 -0.0251  1.0243 -0.0852
  193MOL0     H26623   4.256   4.106   9.067 -0.5391 -1.0452 -2.3337
  193MOL0     H26624   4.206   4.380   9.176  2.8808 -0.5472 -0.0313
  193MOL0     H26625   4.201   4.234   9.274 -0.4292  1.2366  0.1692
  193MOL0     H26626   3.988   4.368   9.205 -0.2742  0.4161 -0.0195
  193MOL0     H26627   4.007   4.287   9.044 -0.9718  0.7554  0.8953
  193MOL0     H26628   3.848   4.155   9.205  0.0130  2.6076  1.3398
  193MOL0     H26629   3.989   4.137   9.303  2.5524  0.1926 -0.1636
  193MOL0     H26630   4.039   3.832   9.031  1.9109  0.7075  1.3867
  193MOL0     H26631   4.369   4.071   8.907 -0.3208  0.3836  1.3088
  193MOL0     H26632   4.454   3.951   8.722 -1.0834  0.8926 -1.4525
  193MOL0     H26633   4.584   4.011   8.623  0.8452  0.0293 -0.3811
  193MOL0     H26634   4.626   3.888   8.753 -0.5741  0.4484 -0.9392
  194MOL0     O26635   4.450   8.836   3.577  1.0404  1.0202  0.4656
  194MOL0     C26636   4.512   8.732   3.556  0.7506  0.3274 -0.7881
  194MOL0     O26637   4.645   8.718   3.565  0.4201  0.2391  0.2826
  194MOL0     C26638   4.726   8.815   3.631  0.4498  0.3507 -0.5298
  194MOL0     C26639   4.855   8.823   3.596  0.0253 -0.0565 -0.9017
  194MOL0     C26640   4.938   8.912   3.657  0.1480  0.0119 -0.2797
  194MOL0     C26641   4.901   8.997   3.759 -1.1919  0.2160  0.1253
  194MOL0     O26642   4.999   9.090   3.807  0.2110  1.0507 -0.5279
  194MOL0     C26643   4.960   9.213   3.878  0.7339  0.1512  0.3368
  194MOL0     C26644   5.073   9.287   3.932  0.2332 -0.9654  0.3312
  194MOL0     C26645   5.187   9.328   3.851  0.1304  0.6369  0.4211
  194MOL0     C26646   5.314   9.369   3.944  0.2149  0.2055 -0.2127
  194MOL0     C26647   5.299   9.517   3.988  0.4190 -0.6152 -0.1000
  194MOL0     C26648   5.372   9.605   3.885  0.5126 -0.2944 -0.2141
  194MOL0     C26649   5.515   9.598   3.905 -0.5024  0.2033  0.1523
  194MOL0     C26650   5.573   9.713   3.825 -0.1466  0.2442 -0.2484
  194MOL0     N26651   5.712   9.745   3.859 -0.1372 -0.5933  0.1608
  194MOL0     C26652   5.759   9.773   3.987  0.3749  0.0318  0.6189
  194MOL0     C26653   5.870   9.845   3.962 -0.2912  0.4875 -0.1779
  194MOL0     C26654   5.958   9.890   4.071  0.0970 -0.1509  0.3006
  194MOL0     C26655   6.096   9.924   4.033  0.4961  0.0916  0.4378
  194MOL0     C26656   6.184   9.990   4.142  0.3320  0.3435  0.5938
  194MOL0     C26657   6.323   9.992   4.084 -0.2368 -0.5627 -0.7193
  194MOL0     O26658   6.399  10.060   4.187 -1.2162  0.5333 -0.2375
  194MOL0     C26659   6.534  10.058   4.173  0.0058 -1.1071  0.2488
  194MOL0     C26660   6.605  10.112   4.272 -0.2034  0.9090  0.0146
  194MOL0     C26661   6.739  10.125   4.272 -0.3428  0.1371  1.1217
  194MOL0     C26662   6.799  10.168   4.418 -0.2155 -0.5901  0.4378
  194MOL0     C26663   6.811  10.081   4.159  0.7209 -0.2495 -0.1148
  194MOL0     C26664   6.962  10.099   4.144  0.0447  0.0099 -0.1827
  194MOL0     O26665   7.025  10.049   4.035  0.3456 -0.4906 -0.0981
  194MOL0     C26666   7.161  10.040   4.026 -0.1009 -0.4887 -1.0606
  194MOL0     C26667   7.241   9.973   4.120  0.8732 -0.1238  0.0481
  194MOL0     C26668   7.379   9.977   4.115  0.5153 -0.4019  0.6558
  194MOL0     C26669   7.439  10.044   4.003  0.6904 -0.2216  0.2458
  194MOL0     O26670   7.571  10.051   3.991 -0.1719  0.4178 -0.1673
  194MOL0     C26671   7.631  10.168   3.918 -0.7865 -0.9068 -0.7564
  194MOL0     C26672   7.779  10.154   3.955  0.8902 -0.8172  0.2268
  194MOL0     C26673   7.828  10.013   3.897  1.3008 -0.1096  0.7952
  194MOL0     C26674   7.970   9.999   3.895  0.4370  0.1560 -0.4796
  194MOL0     C26675   8.012   9.853   3.922 -0.1657 -0.8427  0.2014
  194MOL0     C26676   7.993   9.807   4.063 -0.2309 -0.2937 -0.7315
  194MOL0     C26677   8.103   9.873   4.156  0.8526  0.2509 -0.3262
  194MOL0     C26678   8.068   9.824   4.296 -0.4364 -0.4406  0.0856
  194MOL0    Cl26679   8.098   9.651   4.316  0.1766 -0.0881 -0.1019
  194MOL0     C26680   7.349  10.089   3.902 -0.4404  0.1210  0.8302
  194MOL0     C26681   7.214  10.096   3.918 -1.0319  0.2852  0.3290
  194MOL0     O26682   7.020  10.156   4.234 -0.0938  0.2941  0.5229
  194MOL0     C26683   6.735  10.021   4.053 -0.2038 -0.0122  0.0279
  194MOL0     C26684   6.599  10.008   4.063  0.3722 -0.4224 -0.1647
  194MOL0     N26685   5.895   9.846   3.823  0.4134  0.4762  0.2349
  194MOL0     N26686   5.805   9.780   3.766  0.4632  0.0330  0.3943
  194MOL0     C26687   4.766   8.993   3.789  0.2166 -0.5201 -1.0488
  194MOL0     C26688   4.681   8.893   3.744  0.9260  0.0918  0.2367
  194MOL0     C26689   4.436   8.613   3.524 -0.3433  0.4299 -0.4320
  194MOL0     C26690   4.513   8.495   3.505 -0.6672 -0.3805 -0.0226
  194MOL0     C26691   4.452   8.388   3.454  0.3177 -0.2970  0.1490
  194MOL0     C26692   4.309   8.378   3.435 -1.3755 -0.1740  0.1386
  194MOL0     O26693   4.247   8.268   3.383  0.8038  0.0720 -0.0863
  194MOL0     C26694   4.328   8.155   3.323  0.2286  0.2042  0.1275
  194MOL0     C26695   4.376   8.203   3.181 -1.0039  0.3080  0.2903
  194MOL0     C26696   4.257   8.214   3.086 -0.0537  0.0121  0.4525
  194MOL0     C26697   4.294   8.249   2.941  0.1735 -0.3011 -0.1141
  194MOL0     C26698   4.402   8.172   2.873  0.1049  0.0655 -0.1904
  194MOL0     C26699   4.486   8.108   2.801  0.1177 -0.3134 -0.4242
  194MOL0     C26700   4.234   8.487   3.470 -0.5014  0.0304  1.0762
  194MOL0     C26701   4.294   8.601   3.512 -1.1947  0.2369 -0.1911
  194MOL0     C26702   4.194   8.709   3.519  0.0250  0.4033 -0.6889
  194MOL0     H26703   4.904   8.757   3.525 -0.9302  0.3366 -1.9710
  194MOL0     H26704   5.043   8.911   3.631  0.1480  0.7727 -0.3251
  194MOL0     H26705   4.894   9.185   3.961  1.1781 -2.9870 -0.2439
  194MOL0     H26706   4.905   9.274   3.805 -0.7752 -2.8555 -1.2599
  194MOL0     H26707   5.035   9.382   3.971  1.7599 -0.3738  0.4411
  194MOL0     H26708   5.123   9.236   4.016  0.2981  0.4063  1.1530
  194MOL0     H26709   5.222   9.249   3.784 -0.3290 -0.3851  1.3636
  194MOL0     H26710   5.159   9.411   3.784 -0.4628 -0.6667 -1.0092
  194MOL0     H26711   5.314   9.298   4.027 -0.4044  1.0205  0.5088
  194MOL0     H26712   5.412   9.354   3.899 -0.9596  1.8299 -3.6495
  194MOL0     H26713   5.343   9.545   4.084  0.2241  4.3201 -1.1758
  194MOL0     H26714   5.194   9.545   3.996  0.5689  0.6792 -1.9452
  194MOL0     H26715   5.343   9.585   3.781 -2.9568 -0.5792  0.6680
  194MOL0     H26716   5.335   9.704   3.912  0.8780 -0.2335  0.0698
  194MOL0     H26717   5.558   9.503   3.869 -1.0986 -0.2625  0.6581
  194MOL0     H26718   5.540   9.598   4.011  1.2659  1.4256 -0.2062
  194MOL0     H26719   5.570   9.702   3.716  4.2848  2.5485 -0.8608
  194MOL0     H26720   5.513   9.800   3.852 -1.7565 -1.6804  2.9770
  194MOL0     H26721   5.717   9.747   4.083 -0.8584 -0.4271 -0.0209
  194MOL0     H26722   5.962   9.819   4.154 -1.5668  0.7703  1.2333
  194MOL0     H26723   5.915   9.980   4.116 -1.4586 -1.1515  0.9103
  194MOL0     H26724   6.140   9.827   4.007 -1.3405 -0.0610 -2.7117
  194MOL0     H26725   6.096   9.996   3.950  0.4845  0.6777  0.9360
  194MOL0     H26726   6.145  10.091   4.161 -2.3011 -0.8710  2.3119
  194MOL0     H26727   6.168   9.937   4.236 -1.3337  1.2154  0.8419
  194MOL0     H26728   6.364   9.892   4.066  1.0182 -0.1618 -0.2395
  194MOL0     H26729   6.334  10.051   3.992  0.1265 -0.9115 -0.9007
  194MOL0     H26730   6.572  10.148   4.369  2.0823 -0.6011  1.4639
  194MOL0     H26731   6.866  10.254   4.409  0.4752 -1.0435  1.0932
  194MOL0     H26732   6.872  10.093   4.450 -0.9419 -1.0473  1.0554
  194MOL0     H26733   6.731  10.193   4.500 -0.3908 -0.1230  0.1506
  194MOL0     H26734   7.198   9.914   4.201  1.2431  1.6729  1.6245
  194MOL0     H26735   7.436   9.930   4.195  1.8455 -0.9694 -0.5666
  194MOL0     H26736   7.626  10.170   3.808 -0.0770 -0.5703 -0.7875
  194MOL0     H26737   7.600  10.266   3.954  0.4087 -0.6777 -0.3291
  194MOL0     H26738   7.838  10.229   3.902 -0.6933 -1.7343 -3.1077
  194MOL0     H26739   7.786  10.150   4.064 -1.0107 -3.2270  0.3421
  194MOL0     H26740   7.800  10.018   3.791  2.1323  2.0592  0.6307
  194MOL0     H26741   7.781   9.932   3.953  1.2901  0.3928  1.5302
  194MOL0     H26742   8.013  10.075   3.962  1.0424  0.6483 -1.3999
  194MOL0     H26743   8.015  10.038   3.803  2.4376  0.0911  0.4106
  194MOL0     H26744   7.959   9.786   3.854  0.7642 -2.3364  0.8849
  194MOL0     H26745   8.119   9.855   3.900 -0.4048  1.8273 -1.0501
  194MOL0     H26746   8.003   9.699   4.067  0.8812 -0.1619  0.8648
  194MOL0     H26747   7.894   9.833   4.101 -0.2711  1.2672 -1.7732
  194MOL0     H26748   8.107   9.982   4.158  2.2421  0.2239 -0.6960
  194MOL0     H26749   8.195   9.824   4.124 -0.3007 -1.9103 -0.5944
  194MOL0     H26750   7.973   9.863   4.332 -1.2540  1.9010 -4.0185
  194MOL0     H26751   8.137   9.873   4.366 -1.1007  0.2586  0.2641
  194MOL0     H26752   7.392  10.126   3.810 -1.7399 -2.1839 -0.8158
  194MOL0     H26753   7.141  10.141   3.852 -3.3315  1.4701  3.4527
  194MOL0     H26754   6.790   9.980   3.968  0.9495  0.4949  0.5091
  194MOL0     H26755   6.542   9.955   3.988 -0.8058 -1.4844  1.3958
  194MOL0     H26756   4.728   9.059   3.866  1.6050  1.3032 -1.8599
  194MOL0     H26757   4.578   8.888   3.778  0.1523  1.4477 -1.6775
  194MOL0     H26758   4.621   8.488   3.519 -0.9219 -1.6735  1.6610
  194MOL0     H26759   4.526   8.313   3.429  1.4227  0.2234  1.7577
  194MOL0     H26760   4.408   8.144   3.397 -0.9220 -1.3588  1.1896
  194MOL0     H26761   4.276   8.060   3.331 -0.4335  0.5883  0.4564
  194MOL0     H26762   4.450   8.130   3.148  0.9546  2.0859  0.5411
  194MOL0     H26763   4.425   8.301   3.180  0.7707 -0.5233  0.7484
  194MOL0     H26764   4.208   8.116   3.092 -0.4527  0.2757  1.8645
  194MOL0     H26765   4.174   8.267   3.133 -1.2499 -2.7856  1.7668
  194MOL0     H26766   4.331   8.352   2.936 -1.1145  0.1773 -0.0678
  194MOL0     H26767   4.203   8.250   2.881 -0.0478  0.4710  0.2201
  194MOL0     H26768   4.551   8.060   2.730  0.0717  1.2024 -1.5519
  194MOL0     H26769   4.127   8.486   3.454 -0.6956  1.5832  2.0826
  194MOL0     H26770   4.205   8.761   3.615  0.3557 -3.2537  1.4244
  194MOL0     H26771   4.202   8.772   3.430  0.6234  1.3644  0.0178
  194MOL0     H26772   4.089   8.679   3.513 -0.0775  0.7722 -0.7439
  195MOL0     O26773   1.206   7.943   6.002  0.2901 -0.3443 -0.9154
  195MOL0     C26774   1.115   7.865   6.020 -0.3101  0.3271 -0.5954
  195MOL0     O26775   1.117   7.731   5.999  0.0626 -0.0382  0.0638
  195MOL0     C26776   1.208   7.665   5.927 -0.5358 -0.2910  1.1922
  195MOL0     C26777   1.165   7.553   5.850  0.4065 -0.1534  0.0020
  195MOL0     C26778   1.255   7.468   5.775  0.2277  0.5543 -0.1803
  195MOL0     C26779   1.387   7.500   5.770 -0.7297 -0.6332  0.0243
  195MOL0     O26780   1.485   7.425   5.717 -0.2923 -0.3368 -1.0598
  195MOL0     C26781   1.451   7.307   5.651 -0.2035 -0.6467  0.5154
  195MOL0     C26782   1.580   7.252   5.599  0.8816  0.0076 -0.7467
  195MOL0     C26783   1.559   7.115   5.526  0.2851 -1.1027  0.6824
  195MOL0     C26784   1.690   7.039   5.526 -0.7533 -0.5850 -1.0138
  195MOL0     C26785   1.668   6.929   5.419  0.1279  0.3898 -0.2846
  195MOL0     C26786   1.784   6.834   5.402  0.0195  0.4975 -0.2088
  195MOL0     C26787   1.911   6.885   5.327  1.7225 -0.4803  0.4409
  195MOL0     C26788   2.004   6.787   5.259  0.1918  0.7108  0.3519
  195MOL0     N26789   2.085   6.702   5.353  0.3158 -0.5735 -0.7065
  195MOL0     C26790   2.184   6.753   5.437  0.1092  0.5561 -0.1953
  195MOL0     C26791   2.225   6.635   5.500 -0.5093 -1.0406 -0.7389
  195MOL0     C26792   2.331   6.639   5.612  0.0883 -0.2043  0.3778
  195MOL0     C26793   2.465   6.660   5.547 -0.2028  1.3304 -0.8237
  195MOL0     C26794   2.562   6.673   5.672 -0.3715  0.3741 -0.4946
  195MOL0     C26795   2.619   6.546   5.730  0.0969  0.4592 -0.6997
  195MOL0     O26796   2.718   6.594   5.822  0.7651  0.6401 -0.3010
  195MOL0     C26797   2.815   6.520   5.877  0.2865  0.8259  0.6453
  195MOL0     C26798   2.799   6.381   5.891  0.3452  0.8762 -0.1572
  195MOL0     C26799   2.895   6.297   5.949  1.0342  0.5518  0.8923
  195MOL0     C26800   2.845   6.166   5.995  0.7207  0.4421 -0.1468
  195MOL0     C26801   3.021   6.349   5.978  0.0205 -0.5207  0.5827
  195MOL0     C26802   3.135   6.273   6.041 -0.0595 -0.4130 -0.1457
  195MOL0     O26803   3.249   6.353   6.067  0.7479 -0.6509  0.0991
  195MOL0     C26804   3.356   6.289   6.126 -0.0654 -0.1993  0.5010
  195MOL0     C26805   3.448   6.218   6.051 -1.0362 -0.3822  0.4994
  195MOL0     C26806   3.546   6.144   6.125 -0.4031 -0.7832  0.4039
  195MOL0     C26807   3.564   6.157   6.264 -0.1209  0.4257 -0.1737
  195MOL0     O26808   3.667   6.095   6.335  0.1916  0.4319 -0.3817
  195MOL0     C26809   3.738   6.178   6.421  0.4739 -0.1162  0.7692
  195MOL0     C26810   3.873   6.110   6.461  0.1447 -0.4160  0.0149
  195MOL0     C26811   3.958   6.062   6.340  0.2501 -0.9413 -0.2893
  195MOL0     C26812   4.094   6.025   6.380 -0.6089 -0.3736  0.4731
  195MOL0     C26813   4.200   6.010   6.271  0.0843  1.1884 -0.1982
  195MOL0     C26814   4.338   5.975   6.341  0.6639 -0.0578  0.0476
  195MOL0     C26815   4.437   5.915   6.241 -1.0636  0.1605 -0.4713
  195MOL0     C26816   4.493   6.009   6.134 -0.2683 -0.1791 -0.6821
  195MOL0    Cl26817   4.530   6.177   6.199  0.1349  0.1967  0.0434
  195MOL0     C26818   3.469   6.235   6.331 -0.0459 -0.8211 -0.3182
  195MOL0     C26819   3.371   6.306   6.268 -0.8944 -0.0777  0.4087
  195MOL0     O26820   3.122   6.155   6.076  0.4420  0.4416  0.6863
  195MOL0     C26821   3.037   6.497   5.965  0.0070  0.1455  0.6766
  195MOL0     C26822   2.934   6.582   5.913  0.8897  0.3445  1.3624
  195MOL0     N26823   2.160   6.527   5.444  0.3973 -0.2554 -0.5789
  195MOL0     N26824   2.071   6.564   5.362  0.6839 -0.9035 -0.1894
  195MOL0     C26825   1.435   7.616   5.841  0.4342  0.1667  0.1277
  195MOL0     C26826   1.344   7.692   5.920  0.1057 -0.4366 -0.5683
  195MOL0     C26827   0.997   7.914   6.097 -0.8048 -0.2077  0.6094
  195MOL0     C26828   0.925   7.825   6.179  0.5058  0.1417  0.4135
  195MOL0     C26829   0.826   7.868   6.265  0.0526  0.2080 -0.2882
  195MOL0     C26830   0.788   8.004   6.280 -0.6397  0.3235  0.0336
  195MOL0     O26831   0.702   8.048   6.371 -0.7741 -0.2941  0.2952
  195MOL0     C26832   0.677   8.187   6.397 -0.0844 -0.2163  0.0734
  195MOL0     C26833   0.625   8.204   6.536 -0.5237 -0.1970 -0.6042
  195MOL0     C26834   0.736   8.182   6.639  0.1482  0.1718 -0.1810
  195MOL0     C26835   0.682   8.187   6.784 -0.1553 -0.1370  0.6454
  195MOL0     C26836   0.641   8.316   6.834 -0.5982  0.8805 -0.4580
  195MOL0     C26837   0.594   8.423   6.879 -0.7955  0.0681  0.4342
  195MOL0     C26838   0.860   8.090   6.192  0.3933 -0.7846 -0.5482
  195MOL0     C26839   0.958   8.053   6.105 -0.4877 -0.3144 -0.1704
  195MOL0     C26840   1.013   8.160   6.007 -0.0565  0.2376 -0.0171
  195MOL0     H26841   1.059   7.533   5.860  0.9757 -3.0851  1.3081
  195MOL0     H26842   1.213   7.383   5.723 -0.4582  0.9260 -0.2489
  195MOL0     H26843   1.372   7.326   5.578 -0.5018  3.3486  1.6417
  195MOL0     H26844   1.414   7.231   5.720  0.3754 -1.1328  0.2970
  195MOL0     H26845   1.615   7.325   5.524  0.3996 -0.6985 -1.6761
  195MOL0     H26846   1.647   7.239   5.684  1.8903  1.7232 -1.2203
  195MOL0     H26847   1.483   7.054   5.576 -1.0824 -0.7836 -0.9136
  195MOL0     H26848   1.518   7.147   5.430  0.3152  1.3620  1.4351
  195MOL0     H26849   1.769   7.105   5.491 -1.0353  0.0778 -0.4235
  195MOL0     H26850   1.719   7.006   5.626  1.5703  2.0296 -0.7217
  195MOL0     H26851   1.644   6.984   5.327  0.2944 -1.0545 -1.2179
  195MOL0     H26852   1.578   6.872   5.447 -0.6971  1.2408 -1.1043
  195MOL0     H26853   1.814   6.793   5.499 -0.4354 -1.4761 -0.8731
  195MOL0     H26854   1.755   6.748   5.341  2.2075  0.6076 -1.4881
  195MOL0     H26855   1.965   6.953   5.394 -0.3192  1.8166 -0.0732
  195MOL0     H26856   1.884   6.955   5.248  0.7623 -3.5595 -2.1627
  195MOL0     H26857   1.948   6.721   5.192 -1.9633  0.9210  1.8104
  195MOL0     H26858   2.072   6.850   5.201  1.2188  0.2203  0.9908
  195MOL0     H26859   2.204   6.856   5.461  0.4959  1.0111 -2.2595
  195MOL0     H26860   2.325   6.544   5.664 -1.1425 -0.4459 -0.1556
  195MOL0     H26861   2.302   6.725   5.673  1.3367  1.0618 -0.7192
  195MOL0     H26862   2.494   6.584   5.475 -1.6156  1.4422 -1.5246
  195MOL0     H26863   2.472   6.752   5.489  2.8783  0.5321 -1.9266
  195MOL0     H26864   2.644   6.742   5.651 -0.0021  0.5043  1.2940
  195MOL0     H26865   2.505   6.723   5.751  1.0093 -0.5475  1.1410
  195MOL0     H26866   2.542   6.495   5.788  2.8478  0.8133  3.7788
  195MOL0     H26867   2.661   6.480   5.654 -1.6990 -3.3031  1.3262
  195MOL0     H26868   2.698   6.349   5.866 -1.1099  3.8391  1.4925
  195MOL0     H26869   2.751   6.139   5.946 -0.1742  2.5270  0.3369
  195MOL0     H26870   2.839   6.161   6.104  1.5716 -2.3891 -0.1461
  195MOL0     H26871   2.911   6.086   5.960  1.0599  1.6317 -2.3801
  195MOL0     H26872   3.440   6.205   5.944  3.9227  0.7164 -0.2563
  195MOL0     H26873   3.619   6.078   6.078  2.2678  2.8139 -1.0028
  195MOL0     H26874   3.761   6.273   6.373 -0.3119 -1.2556 -2.1161
  195MOL0     H26875   3.679   6.200   6.510 -1.2292 -0.4623 -0.2274
  195MOL0     H26876   3.927   6.187   6.517  0.2914  0.1757 -0.8996
  195MOL0     H26877   3.860   6.024   6.526 -0.3878 -0.6442 -0.3861
  195MOL0     H26878   3.963   6.148   6.272  1.9438 -1.1535 -0.4706
  195MOL0     H26879   3.914   5.979   6.284 -1.4584 -0.5181  0.3718
  195MOL0     H26880   4.088   5.933   6.438 -0.7029 -0.5709  0.1553
  195MOL0     H26881   4.127   6.104   6.448 -0.3521  0.1745 -0.2740
  195MOL0     H26882   4.165   5.937   6.198  0.1490  2.0928 -1.1655
  195MOL0     H26883   4.208   6.105   6.216  1.6380  0.8125 -0.6610
  195MOL0     H26884   4.315   5.894   6.410  0.2291  0.2748  0.2985
  195MOL0     H26885   4.380   6.062   6.392  3.2120 -1.1919  0.0047
  195MOL0     H26886   4.389   5.833   6.186 -3.8085  0.9330  0.6320
  195MOL0     H26887   4.528   5.892   6.297 -0.7259  2.4398 -0.0029
  195MOL0     H26888   4.426   6.008   6.047  0.4912  0.9968 -1.3125
  195MOL0     H26889   4.589   5.969   6.101 -0.7387  0.3890 -2.9758
  195MOL0     H26890   3.461   6.228   6.439 -1.8257 -1.1778 -0.4344
  195MOL0     H26891   3.297   6.371   6.313  0.9341  2.7306 -0.3543
  195MOL0     H26892   3.131   6.542   5.995  0.3595 -1.2627  1.7578
  195MOL0     H26893   2.942   6.690   5.910 -0.0601  0.4425  2.0349
  195MOL0     H26894   1.541   7.640   5.844  0.5007  0.2180 -1.4666
  195MOL0     H26895   1.389   7.771   5.978 -1.6711  2.2243 -2.5928
  195MOL0     H26896   0.943   7.719   6.170  0.9357  0.2711 -0.3292
  195MOL0     H26897   0.769   7.804   6.332  1.0991  0.4926  0.9050
  195MOL0     H26898   0.762   8.255   6.396  0.2649 -0.6490 -0.3512
  195MOL0     H26899   0.600   8.229   6.332  0.2430 -1.4834 -1.2074
  195MOL0     H26900   0.549   8.127   6.551  1.4084 -2.0760  0.0957
  195MOL0     H26901   0.585   8.304   6.553  0.2154 -0.2104  1.5732
  195MOL0     H26902   0.784   8.085   6.626 -1.2224 -0.3826 -1.3990
  195MOL0     H26903   0.810   8.258   6.615 -2.2064  1.5044 -4.1714
  195MOL0     H26904   0.765   8.156   6.848  1.5331 -2.2763 -2.2782
  195MOL0     H26905   0.612   8.106   6.805 -0.8396 -0.0951 -1.2480
  195MOL0     H26906   0.568   8.520   6.916  0.4120  0.7427 -0.4341
  195MOL0     H26907   0.843   8.197   6.192 -1.5087 -0.9912 -3.6967
  195MOL0     H26908   1.063   8.122   5.918  1.1402  3.1901 -0.7000
  195MOL0     H26909   0.932   8.228   5.977 -0.3262 -1.0754 -2.5327
  195MOL0     H26910   1.091   8.213   6.061  0.4607  1.1299 -1.5751
  196MOL0     O26911   6.403   4.038   8.086 -0.3010  0.1166  0.3625
  196MOL0     C26912   6.312   4.119   8.102  0.9986  0.1136 -0.6754
  196MOL0     O26913   6.334   4.247   8.145 -0.2239  0.4249 -0.2128
  196MOL0     C26914   6.442   4.259   8.230  0.3690 -0.8347 -0.0399
  196MOL0     C26915   6.403   4.282   8.360  0.1011 -0.1966  0.2410
  196MOL0     C26916   6.502   4.294   8.458 -0.2907  0.1002 -0.0662
  196MOL0     C26917   6.641   4.285   8.427 -0.0073 -0.1574 -0.3673
  196MOL0     O26918   6.740   4.310   8.516 -0.2571 -0.3240 -0.1978
  196MOL0     C26919   6.701   4.318   8.652  0.2931  0.3388 -1.0977
  196MOL0     C26920   6.835   4.303   8.727  0.6063 -0.1121 -0.1190
  196MOL0     C26921   6.806   4.287   8.881 -0.6878 -0.0144  0.6646
  196MOL0     C26922   6.941   4.303   8.960 -0.6836  0.6694  0.6132
  196MOL0     C26923   6.931   4.242   9.098  0.9443  0.6303  0.9445
  196MOL0     C26924   7.020   4.298   9.206  0.0960  0.3308 -0.2366
  196MOL0     C26925   7.161   4.246   9.178  0.5496  0.5835 -0.2545
  196MOL0     C26926   7.256   4.281   9.289  0.1981  0.2758 -0.8943
  196MOL0     N26927   7.232   4.218   9.417  0.3900  0.0116 -0.3945
  196MOL0     C26928   7.203   4.084   9.429 -0.3644  0.0069  0.7279
  196MOL0     C26929   7.248   4.055   9.553  0.6136  0.6841  0.4891
  196MOL0     C26930   7.227   3.930   9.621 -0.2417  0.9604  0.2387
  196MOL0     C26931   7.351   3.837   9.642 -0.2317  0.3127 -0.9677
  196MOL0     C26932   7.320   3.715   9.734  0.3668 -0.0312 -1.2253
  196MOL0     C26933   7.440   3.618   9.752 -0.4506  0.2446 -0.5539
  196MOL0     O26934   7.553   3.693   9.775 -0.1614  0.0901 -0.3645
  196MOL0     C26935   7.685   3.652   9.736  0.9617 -0.5532 -0.3984
  196MOL0     C26936   7.723   3.535   9.669  0.2932 -0.2174 -1.8832
  196MOL0     C26937   7.852   3.509   9.617  1.1994  0.8570  0.0026
  196MOL0     C26938   7.873   3.374   9.558 -0.5890  0.3627 -0.1566
  196MOL0     C26939   7.958   3.602   9.651 -0.3218  0.2200  0.8759
  196MOL0     C26940   8.102   3.590   9.613  0.7254  0.1064  0.6439
  196MOL0     O26941   8.187   3.693   9.661 -0.5070  0.6246 -0.2977
  196MOL0     C26942   8.312   3.709   9.613  0.4001 -0.2855  0.1122
  196MOL0     C26943   8.414   3.752   9.701 -0.1315  0.5732 -0.4644
  196MOL0     C26944   8.545   3.781   9.652 -0.0209 -0.2250  0.2357
  196MOL0     C26945   8.572   3.742   9.518 -0.5423  0.2292  0.4130
  196MOL0     O26946   8.693   3.756   9.467 -0.3889 -0.0714  0.7829
  196MOL0     C26947   8.789   3.667   9.519 -0.2427  0.6533  0.2249
  196MOL0     C26948   8.926   3.736   9.505 -1.0780 -1.0313  0.7853
  196MOL0     C26949   8.953   3.841   9.613  0.4944 -0.2878 -0.5954
  196MOL0     C26950   9.092   3.895   9.608  0.3098 -0.1546  0.0979
  196MOL0     C26951   9.098   3.988   9.726  0.0259  0.1173  0.5504
  196MOL0     C26952   9.233   4.055   9.727  0.1403 -1.0123  0.0804
  196MOL0     C26953   9.242   4.174   9.823 -0.4607  1.1144 -0.7727
  196MOL0     C26954   9.372   4.254   9.789 -0.3083 -0.0278  0.3452
  196MOL0    Cl26955   9.504   4.135   9.790  0.4696 -0.3825  0.2421
  196MOL0     C26956   8.475   3.696   9.429 -0.2053  0.1475 -0.5615
  196MOL0     C26957   8.341   3.685   9.474 -0.2471 -0.0335 -0.7456
  196MOL0     O26958   8.141   3.496   9.544  0.6001 -0.0833 -0.6723
  196MOL0     C26959   7.924   3.720   9.715 -0.2602 -0.1969  0.8410
  196MOL0     C26960   7.789   3.743   9.755  0.3239 -0.2295  0.1541
  196MOL0     N26961   7.294   4.165   9.612  1.2437  0.2598 -0.1959
  196MOL0     N26962   7.273   4.265   9.535  0.2195 -0.1003  0.2813
  196MOL0     C26963   6.675   4.270   8.294  0.2274  0.0660  0.1965
  196MOL0     C26964   6.575   4.255   8.191 -0.7878  0.5923 -0.4652
  196MOL0     C26965   6.179   4.058   8.066  1.1125 -0.5848 -0.3965
  196MOL0     C26966   6.172   3.947   7.987  0.3863  0.3563 -0.6606
  196MOL0     C26967   6.055   3.883   7.939  0.3227 -0.5288  0.1645
  196MOL0     C26968   5.930   3.939   7.971  0.7836  0.3323  0.1119
  196MOL0     O26969   5.800   3.895   7.949 -0.4064  0.0102  0.2023
  196MOL0     C26970   5.777   3.809   7.835 -0.1367  0.0347  0.0821
  196MOL0     C26971   5.626   3.821   7.827  0.3075  0.5272  0.2048
  196MOL0     C26972   5.566   3.951   7.778  0.0919  0.2492 -1.2090
  196MOL0     C26973   5.432   3.939   7.722  0.4460  0.3184  0.2718
  196MOL0     C26974   5.387   4.076   7.694  0.0419 -0.9588 -0.6557
  196MOL0     C26975   5.339   4.187   7.674 -0.5062 -0.0100  0.3831
  196MOL0     C26976   5.935   4.057   8.052 -0.7579 -0.1599  0.7283
  196MOL0     C26977   6.054   4.121   8.091 -0.1507  0.0762  0.1635
  196MOL0     C26978   6.032   4.237   8.192 -0.4053  0.2101 -0.3316
  196MOL0     H26979   6.296   4.293   8.376 -0.3533 -0.1906 -2.4584
  196MOL0     H26980   6.477   4.305   8.563  0.9595  0.5795  0.1983
  196MOL0     H26981   6.642   4.230   8.679 -0.6873  2.0879  3.3954
  196MOL0     H26982   6.651   4.415   8.662  2.7055  1.5059  0.6960
  196MOL0     H26983   6.881   4.212   8.688  1.8931  0.4294  0.0773
  196MOL0     H26984   6.891   4.394   8.704 -0.4673  0.5135 -0.3247
  196MOL0     H26985   6.739   4.361   8.925  1.5058  1.7086  1.2885
  196MOL0     H26986   6.769   4.190   8.913  1.6496 -0.7270  1.3843
  196MOL0     H26987   7.021   4.249   8.908 -1.3543 -2.9211  2.8997
  196MOL0     H26988   6.958   4.411   8.965  2.0560  0.4178 -1.0969
  196MOL0     H26989   6.939   4.133   9.096 -2.6588  0.1891  2.3863
  196MOL0     H26990   6.826   4.251   9.127  1.0764  1.3537  1.2223
  196MOL0     H26991   7.030   4.407   9.206 -1.1022  0.4822  1.5399
  196MOL0     H26992   6.983   4.267   9.304 -2.8968  2.2641 -0.6368
  196MOL0     H26993   7.198   4.297   9.089 -0.3463  0.7243 -0.5611
  196MOL0     H26994   7.158   4.137   9.163  3.9846  0.0195  1.9849
  196MOL0     H26995   7.353   4.243   9.255  0.1522  0.7363 -1.5746
  196MOL0     H26996   7.253   4.388   9.311  0.2320  0.0740  0.1540
  196MOL0     H26997   7.156   4.017   9.358 -0.1790  0.8543 -0.2218
  196MOL0     H26998   7.148   3.867   9.580  0.3740 -0.9130  1.7706
  196MOL0     H26999   7.191   3.953   9.722  0.7590 -0.0438  0.8449
  196MOL0     H27000   7.374   3.791   9.546  1.5792  0.6900 -0.7483
  196MOL0     H27001   7.435   3.891   9.687 -1.1177  2.4090 -1.7166
  196MOL0     H27002   7.288   3.748   9.833  1.3237  0.2078 -0.9822
  196MOL0     H27003   7.238   3.656   9.693 -1.6593  1.7141  0.1107
  196MOL0     H27004   7.430   3.562   9.846  2.1737  1.9251  0.8833
  196MOL0     H27005   7.444   3.549   9.668  0.7254  1.1973 -1.3177
  196MOL0     H27006   7.643   3.463   9.658  0.6780 -1.7768  3.0620
  196MOL0     H27007   7.882   3.387   9.449 -1.3869  0.7673 -0.1796
  196MOL0     H27008   7.803   3.292   9.577 -2.6583  2.2239  0.6508
  196MOL0     H27009   7.970   3.346   9.600 -1.4534 -0.2814  1.5099
  196MOL0     H27010   8.392   3.771   9.805  0.1422  2.8701 -0.7795
  196MOL0     H27011   8.627   3.818   9.714  1.8539 -1.2105 -1.5335
  196MOL0     H27012   8.763   3.640   9.622 -0.0305  0.5387  0.2484
  196MOL0     H27013   8.789   3.577   9.458 -1.0715  0.8117 -0.0175
  196MOL0     H27014   8.998   3.658   9.531 -2.6689 -3.1710 -0.9799
  196MOL0     H27015   8.939   3.785   9.408  3.1012  1.1455  2.2056
  196MOL0     H27016   8.929   3.799   9.711 -1.5398 -2.9181 -2.0752
  196MOL0     H27017   8.886   3.928   9.605  0.3202  0.0361  2.8606
  196MOL0     H27018   9.109   3.941   9.510 -3.1458  0.7861 -0.1776
  196MOL0     H27019   9.162   3.812   9.619  0.2395 -0.2039  0.1730
  196MOL0     H27020   9.025   4.067   9.706 -1.4497 -1.6417 -1.5334
  196MOL0     H27021   9.082   3.941   9.823 -0.5426 -2.2354 -0.6039
  196MOL0     H27022   9.251   4.100   9.629  0.5664  1.9620  1.4358
  196MOL0     H27023   9.304   3.973   9.744  0.9218 -0.3619 -0.0181
  196MOL0     H27024   9.260   4.130   9.922 -0.0002  3.1249  0.1005
  196MOL0     H27025   9.152   4.234   9.836 -1.4208 -0.6619  1.6330
  196MOL0     H27026   9.392   4.332   9.863 -1.4290  0.1153  0.5149
  196MOL0     H27027   9.356   4.300   9.691 -0.6516 -1.9255 -0.5441
  196MOL0     H27028   8.512   3.679   9.328  0.5222 -0.8242 -0.1472
  196MOL0     H27029   8.262   3.671   9.401 -1.5881 -0.5950  0.7577
  196MOL0     H27030   7.984   3.805   9.744  1.0174 -0.6479 -0.3800
  196MOL0     H27031   7.758   3.840   9.791 -1.5530 -0.3232 -1.0572
  196MOL0     H27032   6.781   4.274   8.272  0.2677  1.8263  0.6004
  196MOL0     H27033   6.602   4.241   8.087  1.5791  1.1348  0.0182
  196MOL0     H27034   6.260   3.892   7.957  2.1047  0.9132  2.9139
  196MOL0     H27035   6.052   3.789   7.885 -3.6939  0.0767 -1.0084
  196MOL0     H27036   5.813   3.851   7.741 -1.3621  2.0345  0.4547
  196MOL0     H27037   5.812   3.708   7.858  0.6991  0.8219  2.6158
  196MOL0     H27038   5.590   3.789   7.926  1.3399 -0.9427  0.1467
  196MOL0     H27039   5.587   3.739   7.765  0.7035  0.6642 -0.2310
  196MOL0     H27040   5.553   4.023   7.860 -0.1767 -1.3181  0.1809
  196MOL0     H27041   5.629   3.995   7.700 -2.3035  2.2420 -2.1621
  196MOL0     H27042   5.357   3.887   7.783  1.5001 -2.0323 -0.3656
  196MOL0     H27043   5.444   3.879   7.631  2.2527 -0.3672  0.9256
  196MOL0     H27044   5.302   4.284   7.648 -1.4764 -1.0983 -2.7023
  196MOL0     H27045   5.842   4.104   8.080 -0.8292  3.5085 -4.3161
  196MOL0     H27046   6.121   4.299   8.200  1.3507 -2.0607 -1.1422
  196MOL0     H27047   5.947   4.296   8.155 -1.0437 -1.5733 -1.8599
  196MOL0     H27048   6.009   4.193   8.289 -2.7283  0.4789 -0.7019
  197MOL0     O27049   1.530   2.918   1.854 -0.4071 -0.3290 -0.4048
  197MOL0     C27050   1.593   2.851   1.932 -0.4818 -0.5896  0.2722
  197MOL0     O27051   1.536   2.772   2.033  0.0181  0.2680  0.5190
  197MOL0     C27052   1.398   2.753   2.034 -0.7157  0.2030  0.5789
  197MOL0     C27053   1.340   2.756   2.155  1.1692 -1.4412 -0.8520
  197MOL0     C27054   1.200   2.740   2.173 -0.4429 -0.0099 -0.8667
  197MOL0     C27055   1.114   2.725   2.060  0.6219 -0.4893 -0.5224
  197MOL0     O27056   0.978   2.716   2.085 -0.5405  0.3821  0.4015
  197MOL0     C27057   0.893   2.692   1.969 -0.4744 -0.6838  0.0465
  197MOL0     C27058   0.898   2.548   1.917  0.7996 -0.9063 -0.2707
  197MOL0     C27059   0.865   2.434   2.021  0.4264 -0.2294  0.9253
  197MOL0     C27060   0.892   2.301   1.943 -0.2914  0.9415 -0.2635
  197MOL0     C27061   0.881   2.183   2.038 -0.5297  0.2448  0.0100
  197MOL0     C27062   0.910   2.052   1.966  0.1881  0.5993  0.7042
  197MOL0     C27063   1.050   2.039   1.901 -0.7498 -0.0176  0.1259
  197MOL0     C27064   1.172   2.028   1.997 -0.0194  0.7852 -0.0056
  197MOL0     N27065   1.289   2.106   1.951  0.1673 -0.2293 -0.6825
  197MOL0     C27066   1.282   2.246   1.947  0.2438 -0.2949 -0.5481
  197MOL0     C27067   1.407   2.278   1.906  0.3974 -0.2553 -0.6260
  197MOL0     C27068   1.461   2.414   1.874  0.6521 -0.5896 -0.8752
  197MOL0     C27069   1.486   2.446   1.730  0.3481  0.4315  0.3197
  197MOL0     C27070   1.614   2.373   1.678  1.1137 -0.2311 -0.2066
  197MOL0     C27071   1.636   2.435   1.540  0.5529 -0.7277  0.8264
  197MOL0     O27072   1.745   2.378   1.470 -0.0404  0.1249 -0.3108
  197MOL0     C27073   1.792   2.459   1.362  0.0265  0.3059 -1.2674
  197MOL0     C27074   1.728   2.554   1.291  0.0932 -0.3774  0.8983
  197MOL0     C27075   1.790   2.617   1.186  0.0160 -0.0175  0.2778
  197MOL0     C27076   1.700   2.707   1.100 -0.2181  0.6398  0.2666
  197MOL0     C27077   1.928   2.593   1.162  0.5135  1.2731  1.6922
  197MOL0     C27078   2.001   2.669   1.052 -0.1010  0.5211  0.5173
  197MOL0     O27079   1.954   2.795   1.020 -0.1719 -0.0596  0.1740
  197MOL0     C27080   2.026   2.879   0.940  0.6057  0.4454  0.3499
  197MOL0     C27081   1.948   2.975   0.866 -0.2980  1.1601 -0.8793
  197MOL0     C27082   2.005   3.075   0.798 -0.0798  0.2463 -0.7983
  197MOL0     C27083   2.144   3.092   0.789 -0.2237 -0.6261  0.0217
  197MOL0     O27084   2.213   3.183   0.715 -0.4559  0.2082 -0.3556
  197MOL0     C27085   2.136   3.277   0.634  0.2013  0.6222  0.0418
  197MOL0     C27086   2.220   3.393   0.590 -0.3979 -0.8935 -0.2860
  197MOL0     C27087   2.267   3.488   0.700 -0.2552  0.7458  0.2070
  197MOL0     C27088   2.370   3.574   0.638 -0.7326 -0.4083 -0.9998
  197MOL0     C27089   2.445   3.643   0.752  0.1602  0.0955  0.8045
  197MOL0     C27090   2.580   3.701   0.724 -0.2345 -0.3503  0.3384
  197MOL0     C27091   2.567   3.831   0.661 -1.2214 -0.3977 -0.4918
  197MOL0     C27092   2.688   3.919   0.680 -0.4249  0.3258  0.4470
  197MOL0    Cl27093   2.740   3.929   0.854 -0.0944  0.0306 -0.0768
  197MOL0     C27094   2.223   3.000   0.855  0.4692 -0.2556 -0.0195
  197MOL0     C27095   2.168   2.893   0.928  0.9634 -0.4531 -0.3364
  197MOL0     O27096   2.105   2.609   1.011 -0.0304  0.0021  0.5365
  197MOL0     C27097   1.992   2.501   1.239 -0.0480 -0.5096 -0.1161
  197MOL0     C27098   1.924   2.426   1.333  0.5650 -1.1509  0.0019
  197MOL0     N27099   1.479   2.167   1.906  0.8832  1.0068 -0.3893
  197MOL0     N27100   1.414   2.055   1.932 -0.3768  0.1587  0.3694
  197MOL0     C27101   1.175   2.721   1.933 -0.2860 -0.6957 -0.0865
  197MOL0     C27102   1.314   2.737   1.920 -0.8762  0.0356 -0.7810
  197MOL0     C27103   1.743   2.867   1.917 -0.1603 -1.1029 -0.1449
  197MOL0     C27104   1.798   2.978   1.851 -0.5598 -0.8062 -0.3414
  197MOL0     C27105   1.938   2.996   1.837  0.6058  0.0485  0.4865
  197MOL0     C27106   2.031   2.911   1.904  0.6951 -0.8934 -0.1245
  197MOL0     O27107   2.161   2.924   1.877  0.1122  0.0269  0.0134
  197MOL0     C27108   2.264   2.843   1.945 -0.2491  0.1880  0.4069
  197MOL0     C27109   2.397   2.887   1.898 -0.8614 -0.1985  0.2444
  197MOL0     C27110   2.418   2.890   1.752 -0.8443  0.1483 -0.2205
  197MOL0     C27111   2.552   2.959   1.735 -0.2478 -0.0561  0.2767
  197MOL0     C27112   2.546   3.103   1.727 -0.3784 -0.1121 -0.3463
  197MOL0     C27113   2.546   3.224   1.705  0.2275  0.0166  0.6598
  197MOL0     C27114   1.976   2.811   1.977  0.5897 -0.7389 -0.1820
  197MOL0     C27115   1.835   2.789   1.987 -0.4770  0.5434 -0.3857
  197MOL0     C27116   1.800   2.669   2.064  0.6073 -0.4012 -0.1705
  197MOL0     H27117   1.384   2.772   2.253  0.3067  1.1913 -0.8110
  197MOL0     H27118   1.162   2.744   2.275  2.4753 -0.3912  0.3596
  197MOL0     H27119   0.903   2.765   1.888  3.1284 -1.1032 -0.0407
  197MOL0     H27120   0.791   2.708   2.007  0.8952  3.3710  2.6146
  197MOL0     H27121   0.829   2.552   1.832 -0.2420  2.4483  0.5446
  197MOL0     H27122   1.000   2.537   1.881  1.2418  0.8619  0.3299
  197MOL0     H27123   0.928   2.445   2.110  0.6812  1.9894  0.5156
  197MOL0     H27124   0.760   2.451   2.048  1.0671  1.4473  2.5550
  197MOL0     H27125   0.825   2.287   1.857  0.1259  1.1008 -0.6200
  197MOL0     H27126   0.996   2.318   1.912  1.0121 -0.3727  2.9935
  197MOL0     H27127   0.781   2.170   2.079 -0.6055 -1.8133 -0.7114
  197MOL0     H27128   0.951   2.200   2.121  0.3947 -0.5321 -0.5795
  197MOL0     H27129   0.895   1.963   2.028  2.7028 -0.4138 -0.0068
  197MOL0     H27130   0.835   2.043   1.886 -0.8010  2.4580  1.3659
  197MOL0     H27131   1.054   2.119   1.828 -3.1982 -1.8872 -2.2626
  197MOL0     H27132   1.047   1.947   1.841  0.8770 -0.6238  0.9209
  197MOL0     H27133   1.147   2.088   2.085  0.2205  1.0564 -0.1210
  197MOL0     H27134   1.203   1.926   2.020 -2.5928 -1.0855 -3.7119
  197MOL0     H27135   1.199   2.313   1.964  1.9213  1.6770  0.3785
  197MOL0     H27136   1.551   2.430   1.934  0.2092 -1.1798 -0.0363
  197MOL0     H27137   1.392   2.488   1.915  0.9929  1.5201 -3.8002
  197MOL0     H27138   1.402   2.428   1.662  1.3793  2.2038 -1.5125
  197MOL0     H27139   1.504   2.554   1.734  1.9604  0.1921 -0.0354
  197MOL0     H27140   1.697   2.373   1.749  0.1279  1.4592  0.9957
  197MOL0     H27141   1.588   2.267   1.666  3.2130 -1.0297  1.5850
  197MOL0     H27142   1.540   2.426   1.490 -1.7773  1.6700  4.3918
  197MOL0     H27143   1.655   2.543   1.547 -0.2684 -0.4022 -1.2869
  197MOL0     H27144   1.623   2.572   1.313 -0.6888 -0.8510 -1.9673
  197MOL0     H27145   1.740   2.808   1.102  0.8265  0.2542  2.5515
  197MOL0     H27146   1.597   2.699   1.138  0.4769 -2.2176  1.8771
  197MOL0     H27147   1.704   2.660   1.001  1.0097 -1.4773  1.2462
  197MOL0     H27148   1.842   2.963   0.883  0.1388 -0.6797  0.8809
  197MOL0     H27149   1.935   3.135   0.742 -0.5183  0.1932 -0.3094
  197MOL0     H27150   2.103   3.214   0.550 -0.0443  2.3991 -1.2483
  197MOL0     H27151   2.055   3.321   0.692  0.0929  1.4534 -0.7216
  197MOL0     H27152   2.304   3.350   0.535 -0.9355 -0.9944 -1.0454
  197MOL0     H27153   2.160   3.442   0.513  3.4830  0.7397 -2.5871
  197MOL0     H27154   2.305   3.422   0.779  1.7309  0.2423 -1.0906
  197MOL0     H27155   2.195   3.555   0.747  1.0919  2.1029  0.4211
  197MOL0     H27156   2.325   3.653   0.577  1.1336 -0.6587 -2.8429
  197MOL0     H27157   2.454   3.521   0.591  0.5271  0.1818  0.4903
  197MOL0     H27158   2.372   3.707   0.802 -0.9130 -0.9446  0.6271
  197MOL0     H27159   2.465   3.562   0.824  0.0225  0.0357  0.7756
  197MOL0     H27160   2.623   3.634   0.649 -2.0556  0.1471 -1.2145
  197MOL0     H27161   2.643   3.707   0.813 -0.4161 -1.4119  0.5504
  197MOL0     H27162   2.476   3.888   0.678 -1.3870 -0.6367 -0.5588
  197MOL0     H27163   2.565   3.819   0.552  0.2219 -1.3936 -0.4388
  197MOL0     H27164   2.661   4.015   0.636 -1.3071 -0.8274 -1.7103
  197MOL0     H27165   2.766   3.868   0.623 -3.0989 -2.6578 -0.8646
  197MOL0     H27166   2.328   3.023   0.863  0.3821 -0.4721  3.7848
  197MOL0     H27167   2.226   2.828   0.992 -0.2114  0.5891  1.9298
  197MOL0     H27168   2.099   2.497   1.225 -0.0408  0.4686 -0.4761
  197MOL0     H27169   1.976   2.345   1.382  0.4190  0.0991  2.3610
  197MOL0     H27170   1.120   2.724   1.839  1.1747  2.6153 -0.9700
  197MOL0     H27171   1.360   2.742   1.821 -1.1608  0.9700 -0.8693
  197MOL0     H27172   1.738   3.051   1.797 -1.4962 -0.7794  0.7072
  197MOL0     H27173   1.971   3.067   1.762  0.9304  0.3728  0.9309
  197MOL0     H27174   2.248   2.836   2.053  1.9077 -1.7470  0.6689
  197MOL0     H27175   2.250   2.741   1.909 -3.1065  0.4488  0.5996
  197MOL0     H27176   2.470   2.817   1.940 -1.2522 -1.5061 -1.1612
  197MOL0     H27177   2.408   2.984   1.948 -1.6238 -0.8808  1.8004
  197MOL0     H27178   2.424   2.786   1.719 -0.9168  0.3874 -1.0121
  197MOL0     H27179   2.334   2.938   1.702 -1.9670  1.8371  2.9675
  197MOL0     H27180   2.581   2.937   1.632 -1.1731  1.1736 -0.2788
  197MOL0     H27181   2.625   2.916   1.804  1.5170  0.6233 -1.0793
  197MOL0     H27182   2.551   3.325   1.670  0.2859  0.5310  2.0788
  197MOL0     H27183   2.042   2.741   2.027  0.6756  0.4370  1.4511
  197MOL0     H27184   1.734   2.605   2.003 -1.3775  1.2734  0.1190
  197MOL0     H27185   1.880   2.605   2.102 -0.5683 -0.5495  2.2575
  197MOL0     H27186   1.731   2.681   2.148  1.8606 -2.0358  1.1701
  198MOL0     O27187   6.280  10.639   6.753 -0.2081  0.1161 -0.0677
  198MOL0     C27188   6.229  10.562   6.673 -0.5189  0.7248 -0.6330
  198MOL0     O27189   6.289  10.474   6.600  0.0517  0.7642 -0.6127
  198MOL0     C27190   6.421  10.453   6.627 -0.6877 -0.8845 -0.3788
  198MOL0     C27191   6.461  10.359   6.727 -0.7556 -0.6340  0.1574
  198MOL0     C27192   6.602  10.332   6.739 -0.1648 -0.4144 -0.2021
  198MOL0     C27193   6.697  10.404   6.669 -0.3295  0.0041 -0.0768
  198MOL0     O27194   6.827  10.382   6.696 -0.5050  0.2217 -0.1089
  198MOL0     C27195   6.940  10.467   6.647 -0.1947  0.2678  0.0729
  198MOL0     C27196   6.993  10.417   6.506 -0.6048 -0.6206  0.0805
  198MOL0     C27197   7.103  10.510   6.460  0.0809 -0.1075 -0.1536
  198MOL0     C27198   7.148  10.464   6.331 -0.7128  0.0758  0.0530
  198MOL0     C27199   7.270  10.535   6.287 -0.4696  0.1286 -0.3245
  198MOL0     C27200   7.328  10.493   6.147 -0.7008  0.2219 -0.3197
  198MOL0     C27201   7.470  10.557   6.111 -0.1038 -0.1165 -0.1924
  198MOL0     C27202   7.574  10.510   6.214  0.1811  0.5661 -0.5534
  198MOL0     N27203   7.703  10.565   6.180 -0.4923 -0.8701 -0.3126
  198MOL0     C27204   7.774  10.530   6.071  0.9246 -0.5646 -0.1486
  198MOL0     C27205   7.888  10.609   6.071 -0.5581 -0.6108 -0.7528
  198MOL0     C27206   8.014  10.596   5.971  0.7602  0.6100 -0.5600
  198MOL0     C27207   8.144  10.664   6.030  0.3842 -0.6567 -0.5099
  198MOL0     C27208   8.268  10.604   5.965  0.6389  0.2981 -0.1140
  198MOL0     C27209   8.385  10.701   5.959  0.2844  0.2669  0.6865
  198MOL0     O27210   8.447  10.735   6.083 -0.3986 -0.0399  1.2324
  198MOL0     C27211   8.577  10.787   6.075 -0.1424  0.0388 -0.4729
  198MOL0     C27212   8.663  10.764   6.182  0.4968  0.3737 -0.2257
  198MOL0     C27213   8.798  10.806   6.181  0.3211  0.0171 -0.1663
  198MOL0     C27214   8.886  10.784   6.301 -0.0557  0.0440  0.2429
  198MOL0     C27215   8.844  10.885   6.071 -0.0750 -0.5303 -0.2456
  198MOL0     C27216   8.987  10.926   6.056 -0.6683 -0.4802  0.6350
  198MOL0     O27217   9.086  10.857   6.130  0.9455  0.0312 -0.3406
  198MOL0     C27218   9.220  10.853   6.111  0.6720 -0.1628  0.0572
  198MOL0     C27219   9.274  10.878   5.978 -0.0050  0.6578 -0.0606
  198MOL0     C27220   9.412  10.858   5.952  0.5012  0.6568 -0.1031
  198MOL0     C27221   9.501  10.821   6.051  0.3129 -0.3858 -0.3947
  198MOL0     O27222   9.637  10.808   6.036  0.5830 -0.9546  0.4605
  198MOL0     C27223   9.686  10.782   5.899  0.6375 -0.4608 -0.7382
  198MOL0     C27224   9.835  10.767   5.905  0.0295 -0.1226  1.6259
  198MOL0     C27225   9.904  10.902   5.923 -0.3093 -0.1403 -0.7158
  198MOL0     C27226  10.058  10.905   5.914  0.3167 -0.4136 -0.2066
  198MOL0     C27227  10.112  11.047   5.920  0.7216 -0.7865 -0.0774
  198MOL0     C27228  10.257  11.059   5.943  0.4432 -0.3992 -0.0133
  198MOL0     C27229  10.297  11.207   5.952  0.0964 -1.0113  0.4052
  198MOL0     C27230  10.453  11.217   5.941 -0.2025  0.2738 -0.0076
  198MOL0    Cl27231  10.530  11.206   6.100  0.2342  0.5316  0.0789
  198MOL0     C27232   9.447  10.800   6.181 -0.2360 -0.7436  0.2716
  198MOL0     C27233   9.308  10.812   6.209 -0.2468 -1.2740 -0.2669
  198MOL0     O27234   9.014  11.019   5.987 -0.0880 -0.0375  0.2549
  198MOL0     C27235   8.754  10.924   5.968 -0.3297  0.8544 -0.9401
  198MOL0     C27236   8.621  10.878   5.974  0.4119  1.2269  0.0065
  198MOL0     N27237   7.869  10.705   6.173  0.2374  0.2551  0.0243
  198MOL0     N27238   7.763  10.674   6.235 -0.6542  0.3194  0.0864
  198MOL0     C27239   6.651  10.495   6.573 -1.0904  0.2586 -0.0330
  198MOL0     C27240   6.516  10.514   6.550 -0.3894  0.0591  0.0306
  198MOL0     C27241   6.076  10.565   6.679 -0.2446 -0.3356  0.0511
  198MOL0     C27242   6.020  10.693   6.715  0.2719 -0.4637 -0.6217
  198MOL0     C27243   5.882  10.704   6.720 -0.4689  0.9384 -0.0839
  198MOL0     C27244   5.801  10.601   6.697  0.3417  0.0860  0.4216
  198MOL0     O27245   5.665  10.597   6.713 -0.0678  0.1731  0.7821
  198MOL0     C27246   5.591  10.694   6.647 -1.0094 -0.0783  0.6657
  198MOL0     C27247   5.443  10.652   6.654 -0.1407  0.0703  0.8427
  198MOL0     C27248   5.422  10.522   6.584  0.3004  0.8337  0.2257
  198MOL0     C27249   5.403  10.542   6.434 -0.4382 -0.9699  0.4791
  198MOL0     C27250   5.394  10.412   6.366  0.9059  0.1474 -0.4272
  198MOL0     C27251   5.373  10.297   6.327  0.4513  0.3464 -0.5295
  198MOL0     C27252   5.857  10.478   6.662 -0.4290  0.1829  0.3706
  198MOL0     C27253   5.990  10.460   6.643 -0.6307  0.3359 -0.4958
  198MOL0     C27254   6.034  10.326   6.585 -0.3223 -0.0872 -0.5374
  198MOL0     H27255   6.384  10.307   6.782 -1.1165 -0.3348 -0.0615
  198MOL0     H27256   6.644  10.271   6.818  2.1293  2.9113  1.4296
  198MOL0     H27257   7.013  10.483   6.726 -0.7941  2.1328  0.2947
  198MOL0     H27258   6.911  10.572   6.641  0.2731  0.3361 -1.4530
  198MOL0     H27259   7.033  10.315   6.511 -2.0221 -1.5587 -3.9030
  198MOL0     H27260   6.911  10.418   6.433  1.2527 -0.2410 -2.1141
  198MOL0     H27261   7.067  10.614   6.459 -0.0807 -0.1634 -0.2380
  198MOL0     H27262   7.186  10.502   6.531 -0.4167  3.0217  0.9748
  198MOL0     H27263   7.181  10.360   6.339 -0.7968  0.1704  2.1723
  198MOL0     H27264   7.067  10.475   6.259  0.1779 -2.8351 -1.5560
  198MOL0     H27265   7.347  10.508   6.360 -0.6888  1.5637  0.4653
  198MOL0     H27266   7.254  10.643   6.289 -0.2545  0.1491  0.5225
  198MOL0     H27267   7.327  10.384   6.143 -0.6715  0.2546 -2.2736
  198MOL0     H27268   7.254  10.529   6.075 -2.1618 -0.0907  0.9626
  198MOL0     H27269   7.467  10.666   6.121 -2.5570 -0.3413  3.2758
  198MOL0     H27270   7.488  10.534   6.006 -5.4500  1.4639 -1.7477
  198MOL0     H27271   7.552  10.536   6.318  0.6645  1.4017 -0.6570
  198MOL0     H27272   7.594  10.404   6.198  5.7856  1.2226  0.3328
  198MOL0     H27273   7.744  10.449   6.005 -1.2541  0.5331 -0.6183
  198MOL0     H27274   7.985  10.638   5.875  0.4260 -1.3738 -1.3629
  198MOL0     H27275   8.018  10.487   5.966  1.4339  0.6411 -0.7237
  198MOL0     H27276   8.143  10.773   6.023 -1.3803 -0.4846  1.5181
  198MOL0     H27277   8.147  10.649   6.138  1.3117 -1.9244 -0.6812
  198MOL0     H27278   8.297  10.509   6.009  0.7104 -0.9801 -2.7224
  198MOL0     H27279   8.240  10.585   5.861 -0.2901  2.8073 -0.4034
  198MOL0     H27280   8.454  10.657   5.887  0.5833  2.2378 -0.3135
  198MOL0     H27281   8.338  10.788   5.912 -0.0990 -0.9528 -1.3025
  198MOL0     H27282   8.618  10.714   6.267 -1.7403 -2.5960 -2.9168
  198MOL0     H27283   8.957  10.707   6.268 -1.3007 -0.4141 -1.4933
  198MOL0     H27284   8.838  10.747   6.392  2.6126  0.2817  1.8499
  198MOL0     H27285   8.938  10.877   6.325 -0.5282  0.6522 -1.0012
  198MOL0     H27286   9.214  10.918   5.897  1.6645  1.8010 -0.7894
  198MOL0     H27287   9.459  10.885   5.858 -0.1617  2.1978 -0.0184
  198MOL0     H27288   9.649  10.682   5.877 -2.0077 -0.3826  2.5991
  198MOL0     H27289   9.657  10.856   5.823 -0.2425 -1.3395 -1.2766
  198MOL0     H27290   9.843  10.691   5.982 -1.7331 -4.7031 -2.2102
  198MOL0     H27291   9.879  10.717   5.818 -0.0596 -0.0934  1.5619
  198MOL0     H27292   9.869  10.929   6.023  0.0613 -3.1011  0.3284
  198MOL0     H27293   9.872  10.979   5.852 -0.9365 -0.6882 -1.0333
  198MOL0     H27294  10.109  10.854   5.832  1.5064  0.2174  0.1258
  198MOL0     H27295  10.096  10.870   6.010 -0.2330  1.6803  0.8189
  198MOL0     H27296  10.090  11.104   5.829 -1.2454 -2.3433 -0.6505
  198MOL0     H27297  10.062  11.086   6.009  1.1555 -0.6944  0.1305
  198MOL0     H27298  10.305  11.004   5.862 -0.2805  0.3994 -1.0277
  198MOL0     H27299  10.285  11.007   6.035  0.3880 -1.3517 -0.5180
  198MOL0     H27300  10.265  11.261   6.042 -1.7136 -1.5311  0.0990
  198MOL0     H27301  10.263  11.262   5.864 -0.1610 -0.3088  0.9400
  198MOL0     H27302  10.473  11.316   5.899 -0.2413  0.1475 -0.3294
  198MOL0     H27303  10.495  11.141   5.874  1.8676  0.6905  0.7506
  198MOL0     H27304   9.515  10.795   6.266 -0.4156  2.8038  0.7631
  198MOL0     H27305   9.254  10.792   6.301 -0.3530  1.2501  0.3025
  198MOL0     H27306   8.789  10.986   5.886  0.7762  0.5021 -0.7489
  198MOL0     H27307   8.548  10.908   5.900 -1.8717 -2.3894  0.5282
  198MOL0     H27308   6.727  10.544   6.513 -0.0929 -3.5167 -2.2013
  198MOL0     H27309   6.501  10.585   6.470  0.0314 -0.4953 -0.5485
  198MOL0     H27310   6.084  10.775   6.745  0.1317 -0.1510 -1.1639
  198MOL0     H27311   5.826  10.786   6.765 -0.3865  1.7006 -1.3099
  198MOL0     H27312   5.614  10.792   6.688  0.1756  0.3813 -0.9718
  198MOL0     H27313   5.613  10.707   6.540 -0.3160  2.4353  1.0566
  198MOL0     H27314   5.372  10.726   6.616  1.0875 -0.0100 -1.8065
  198MOL0     H27315   5.420  10.640   6.761 -0.5881 -0.7897  0.6570
  198MOL0     H27316   5.509  10.458   6.601 -0.9981 -0.6718  1.4730
  198MOL0     H27317   5.335  10.477   6.632 -0.0112  2.3669  1.1606
  198MOL0     H27318   5.487  10.595   6.388 -0.8522  0.1835  1.0160
  198MOL0     H27319   5.317  10.609   6.422  0.2429  0.1377  1.4895
  198MOL0     H27320   5.372  10.199   6.284  0.6390 -1.4354  3.1235
  198MOL0     H27321   5.785  10.400   6.638  0.5439 -0.5501 -0.2248
  198MOL0     H27322   5.946  10.261   6.582 -0.1030 -0.9278  3.8713
  198MOL0     H27323   6.077  10.342   6.486  0.7514  0.6780  0.0238
  198MOL0     H27324   6.115  10.290   6.650 -1.2025  1.0732  1.3071
  199MOL0     O27325   6.646   9.130   0.717  0.2108 -0.1990  0.2435
  199MOL0     C27326   6.583   9.233   0.745  0.1830 -0.4742 -0.4657
  199MOL0     O27327   6.604   9.307   0.863 -0.4323 -1.0199  0.0085
  199MOL0     C27328   6.707   9.254   0.940 -0.2936 -0.4144  0.0374
  199MOL0     C27329   6.680   9.144   1.020  0.1030  0.2599 -1.0170
  199MOL0     C27330   6.785   9.092   1.107  0.8758  0.4398  0.2329
  199MOL0     C27331   6.918   9.149   1.112  0.8036 -0.0258 -0.3043
  199MOL0     O27332   7.022   9.115   1.190  0.3839  0.1014 -0.7257
  199MOL0     C27333   7.007   9.008   1.293 -0.5319  0.6383  0.0958
  199MOL0     C27334   7.023   8.874   1.220  0.7191 -0.1316  0.1355
  199MOL0     C27335   7.162   8.865   1.162  0.5712  0.3062 -0.0295
  199MOL0     C27336   7.193   8.724   1.116  0.6003  0.5415 -0.0898
  199MOL0     C27337   7.331   8.709   1.060  0.1380 -0.0689 -0.1550
  199MOL0     C27338   7.436   8.677   1.165  0.2908  0.0444  0.9934
  199MOL0     C27339   7.438   8.529   1.216  0.1692  0.4215  0.0280
  199MOL0     C27340   7.468   8.425   1.108  0.5941 -0.0401 -0.5129
  199MOL0     N27341   7.546   8.309   1.156 -0.1610 -0.4343  0.3118
  199MOL0     C27342   7.510   8.241   1.268  0.0332  0.7313  0.1216
  199MOL0     C27343   7.620   8.164   1.305 -0.1017 -0.4348  0.9564
  199MOL0     C27344   7.622   8.059   1.415 -0.6569 -1.0943  0.4731
  199MOL0     C27345   7.549   7.936   1.378 -0.1522  0.4998 -0.1461
  199MOL0     C27346   7.571   7.826   1.481 -0.5176 -0.9904  0.0976
  199MOL0     C27347   7.495   7.700   1.449  0.6787  0.2846 -0.7029
  199MOL0     O27348   7.356   7.722   1.471 -0.0279  0.1677  0.1513
  199MOL0     C27349   7.278   7.639   1.404  0.2884 -0.2075 -0.3240
  199MOL0     C27350   7.295   7.497   1.413  0.1629  0.5649  0.2486
  199MOL0     C27351   7.200   7.403   1.356 -0.3814  0.0241 -0.2235
  199MOL0     C27352   7.216   7.258   1.391 -0.1127 -0.7559  0.5807
  199MOL0     C27353   7.096   7.455   1.267 -0.6299 -0.1710 -0.6815
  199MOL0     C27354   7.008   7.371   1.189 -0.5515  0.2268  0.6635
  199MOL0     O27355   6.884   7.414   1.151  0.0781  0.1978 -0.2490
  199MOL0     C27356   6.798   7.340   1.071  0.6344  0.7012 -1.1482
  199MOL0     C27357   6.741   7.399   0.960  0.0140 -0.4435  0.0158
  199MOL0     C27358   6.664   7.317   0.873 -1.0778  0.3373 -0.0589
  199MOL0     C27359   6.640   7.175   0.896 -0.0930 -0.0347 -0.4879
  199MOL0     O27360   6.557   7.116   0.806 -0.4736 -0.0071 -0.2636
  199MOL0     C27361   6.572   6.972   0.788 -0.3544 -1.1858 -0.2662
  199MOL0     C27362   6.705   6.923   0.738 -0.2990 -0.5021 -0.4200
  199MOL0     C27363   6.729   6.993   0.603  0.5220 -0.4234 -0.8465
  199MOL0     C27364   6.848   6.945   0.530 -0.6084  1.0325  0.4984
  199MOL0     C27365   6.858   7.033   0.404  0.1159 -1.0099  0.5269
  199MOL0     C27366   6.980   6.976   0.318  1.3562  0.0944 -0.3262
  199MOL0     C27367   7.110   7.048   0.354  0.2799  0.3691  0.0007
  199MOL0     C27368   7.222   6.999   0.266  0.1172 -0.0236  1.0564
  199MOL0    Cl27369   7.207   7.072   0.114 -0.4673 -0.1234  0.3513
  199MOL0     C27370   6.685   7.131   1.020 -0.8140  0.0005  0.4173
  199MOL0     C27371   6.763   7.206   1.104 -0.1875 -0.2849  0.9100
  199MOL0     O27372   7.052   7.267   1.135 -0.3771 -0.2123 -0.2998
  199MOL0     C27373   7.091   7.594   1.251 -0.1578 -0.3805  0.1335
  199MOL0     C27374   7.179   7.681   1.315 -0.4254  0.0491 -0.4997
  199MOL0     N27375   7.709   8.189   1.207  0.2961  0.1495  0.5427
  199MOL0     N27376   7.672   8.278   1.116 -0.3098  0.0964 -0.5201
  199MOL0     C27377   6.938   9.254   1.025  0.1261  0.2594 -0.1580
  199MOL0     C27378   6.836   9.307   0.940 -0.5119 -0.4220 -0.4917
  199MOL0     C27379   6.470   9.260   0.653  0.2209  0.6117  0.4927
  199MOL0     C27380   6.381   9.355   0.699  0.5531  0.3143  0.9744
  199MOL0     C27381   6.281   9.399   0.618 -0.2953  0.0797 -0.7636
  199MOL0     C27382   6.266   9.349   0.489  0.1889 -1.5541 -0.1965
  199MOL0     O27383   6.184   9.397   0.389  0.7443 -0.2501  0.5874
  199MOL0     C27384   6.073   9.493   0.428 -0.0330  1.0183  0.7192
  199MOL0     C27385   5.968   9.514   0.317  0.2680 -0.8616  0.0191
  199MOL0     C27386   6.039   9.574   0.186  0.8518  0.0535 -0.2463
  199MOL0     C27387   5.927   9.614   0.092  0.7544  0.0093 -0.2088
  199MOL0     C27388   5.997   9.665  -0.029  0.2239 -0.3891 -0.8035
  199MOL0     C27389   6.037   9.719  -0.121 -0.3721 -0.6369 -0.0469
  199MOL0     C27390   6.344   9.242   0.449  0.0828  0.3153 -0.1636
  199MOL0     C27391   6.443   9.198   0.531 -0.2499 -0.2505  0.3372
  199MOL0     C27392   6.522   9.068   0.476  0.5166 -0.4078  0.6462
  199MOL0     H27393   6.584   9.096   1.007 -1.0035  2.8174 -3.2915
  199MOL0     H27394   6.773   9.018   1.185  2.7204  0.6350  0.7515
  199MOL0     H27395   6.908   9.021   1.337  0.5322  0.2199  2.8211
  199MOL0     H27396   7.079   9.014   1.375 -0.0041 -3.3168  0.1230
  199MOL0     H27397   7.011   8.798   1.298  0.5234  0.2337  0.4652
  199MOL0     H27398   6.943   8.867   1.145 -0.2009  1.8335  0.8649
  199MOL0     H27399   7.160   8.924   1.070 -3.6585 -0.1015 -0.3878
  199MOL0     H27400   7.234   8.902   1.236 -0.6691  3.3612 -0.2117
  199MOL0     H27401   7.177   8.655   1.199 -2.1405  0.0096 -0.9472
  199MOL0     H27402   7.126   8.694   1.035  1.4923 -0.2450 -0.5565
  199MOL0     H27403   7.355   8.798   1.002 -1.1007 -0.5733 -1.5245
  199MOL0     H27404   7.327   8.626   0.988 -1.6869  0.3729 -0.6258
  199MOL0     H27405   7.527   8.711   1.114 -1.3393  0.5507 -1.8216
  199MOL0     H27406   7.429   8.749   1.246  4.2575  1.2858  0.4420
  199MOL0     H27407   7.347   8.499   1.267 -0.0370 -0.1346 -0.6582
  199MOL0     H27408   7.516   8.524   1.292  1.6505  0.9479 -1.3823
  199MOL0     H27409   7.369   8.391   1.076  0.8072 -0.8075 -0.3686
  199MOL0     H27410   7.524   8.467   1.023  0.5545 -1.2832 -1.1780
  199MOL0     H27411   7.412   8.250   1.312 -0.7221  2.1786 -1.6887
  199MOL0     H27412   7.567   8.096   1.502 -1.7521 -2.6210  0.4588
  199MOL0     H27413   7.727   8.050   1.443 -0.6252  2.1898  1.9699
  199MOL0     H27414   7.442   7.956   1.368 -0.3302 -0.2402  0.1775
  199MOL0     H27415   7.589   7.898   1.284  0.6621 -0.6806  0.6507
  199MOL0     H27416   7.674   7.790   1.480 -0.9327 -2.2470  0.3450
  199MOL0     H27417   7.546   7.863   1.581  0.4514  1.3694 -0.4784
  199MOL0     H27418   7.515   7.679   1.343 -1.4919 -0.2475 -1.0458
  199MOL0     H27419   7.532   7.613   1.504 -1.3001  0.4291  0.9757
  199MOL0     H27420   7.381   7.455   1.466 -0.3105 -2.2377 -1.0023
  199MOL0     H27421   7.281   7.207   1.320  2.7219  1.8664  1.0674
  199MOL0     H27422   7.116   7.214   1.398 -0.0989 -0.5978  2.3308
  199MOL0     H27423   7.259   7.239   1.490  1.1340  0.5334  0.3055
  199MOL0     H27424   6.761   7.500   0.926 -0.4996 -0.3618 -0.0516
  199MOL0     H27425   6.616   7.369   0.791  1.9583  1.5959 -1.1750
  199MOL0     H27426   6.551   6.925   0.885  0.4838 -1.0615 -0.0156
  199MOL0     H27427   6.491   6.947   0.719 -2.1394  1.7225  0.5888
  199MOL0     H27428   6.788   6.951   0.803  0.9715 -4.8299  0.0974
  199MOL0     H27429   6.702   6.815   0.722 -1.8061 -0.5932  0.2944
  199MOL0     H27430   6.753   7.095   0.632  0.1952 -1.2481  2.6805
  199MOL0     H27431   6.640   6.987   0.539 -0.6945  1.6700  0.5204
  199MOL0     H27432   6.846   6.841   0.497 -3.5582  1.1263  0.0957
  199MOL0     H27433   6.926   6.968   0.603 -1.0369  3.2448  0.3276
  199MOL0     H27434   6.775   7.021   0.334  1.2075  1.1285 -1.2522
  199MOL0     H27435   6.881   7.137   0.430 -0.3070 -0.8562  0.3015
  199MOL0     H27436   6.955   6.971   0.212 -0.2083  1.4145 -0.0733
  199MOL0     H27437   6.994   6.869   0.332  0.7747 -0.0322 -0.6368
  199MOL0     H27438   7.133   7.030   0.459  1.4220  0.7936 -0.1620
  199MOL0     H27439   7.101   7.157   0.352  1.0669  0.4342 -0.3709
  199MOL0     H27440   7.218   6.890   0.263  0.4933 -0.3579  5.6358
  199MOL0     H27441   7.322   7.019   0.306  1.1096  0.9632 -1.6485
  199MOL0     H27442   6.650   7.033   1.050  0.8856 -0.7685 -0.0034
  199MOL0     H27443   6.797   7.176   1.203  1.2443  1.7353  1.0890
  199MOL0     H27444   7.023   7.632   1.176  0.0720 -0.4852 -0.1302
  199MOL0     H27445   7.182   7.785   1.284 -2.4954  0.5560  0.8317
  199MOL0     H27446   7.032   9.309   1.035 -1.0065  2.1548  0.5591
  199MOL0     H27447   6.856   9.384   0.866 -0.0443  0.1427  0.2024
  199MOL0     H27448   6.387   9.395   0.800  4.2870 -0.3546  1.1714
  199MOL0     H27449   6.222   9.483   0.655  1.5743  1.1406 -0.0395
  199MOL0     H27450   6.016   9.457   0.514  0.2154 -2.8015 -0.5153
  199MOL0     H27451   6.126   9.587   0.448  0.6459  0.3921  1.9812
  199MOL0     H27452   5.892   9.581   0.358 -1.3400 -1.3993 -1.9388
  199MOL0     H27453   5.921   9.420   0.286 -1.8430  0.0431  0.3048
  199MOL0     H27454   6.085   9.669   0.213  0.5342  0.7711 -2.0663
  199MOL0     H27455   6.099   9.498   0.135 -0.5143 -2.6790  1.9653
  199MOL0     H27456   5.864   9.689   0.140 -0.9803 -1.0895 -0.7004
  199MOL0     H27457   5.862   9.530   0.068 -0.3620  1.0141 -0.7803
  199MOL0     H27458   6.072   9.762  -0.212  1.0713  0.4725  0.9821
  199MOL0     H27459   6.338   9.200   0.350  1.2732  1.3126 -0.6855
  199MOL0     H27460   6.629   9.086   0.482  0.4071 -0.0083  1.5832
  199MOL0     H27461   6.502   8.984   0.544 -1.1322  1.7248  3.0078
  199MOL0     H27462   6.495   9.047   0.372 -2.7837  4.0131  0.3024
  200MOL0     O27463   0.386   6.451   6.793 -0.1815  0.2088 -0.2542
  200MOL0     C27464   0.374   6.546   6.713 -0.4458  0.1597  0.3340
  200MOL0     O27465   0.481   6.605   6.641 -0.2576  0.1009  0.5578
  200MOL0     C27466   0.616   6.602   6.679  0.1547  1.6182 -0.0332
  200MOL0     C27467   0.715   6.628   6.584  1.5742 -0.5444  0.4552
  200MOL0     C27468   0.847   6.613   6.611 -0.6915 -0.9458 -0.0195
  200MOL0     C27469   0.891   6.589   6.745 -0.0794  0.0195  0.0027
  200MOL0     O27470   1.024   6.606   6.776  0.5611  0.0362  0.0201
  200MOL0     C27471   1.090   6.490   6.834  0.6415 -0.1790  0.7479
  200MOL0     C27472   1.194   6.549   6.930 -0.5129 -0.0696 -0.9393
  200MOL0     C27473   1.294   6.454   6.998 -0.1500  0.5593  0.4535
  200MOL0     C27474   1.442   6.493   6.959  0.3583  0.6998 -0.3999
  200MOL0     C27475   1.544   6.393   7.002 -0.3485  0.9932 -0.3362
  200MOL0     C27476   1.685   6.451   7.002 -0.1768  0.5328  0.0542
  200MOL0     C27477   1.783   6.343   7.039  0.1566  0.0191  0.0507
  200MOL0     C27478   1.937   6.387   7.041  0.1931  1.3250 -0.6102
  200MOL0     N27479   1.994   6.382   6.905 -0.1607  0.3716  0.7792
  200MOL0     C27480   2.124   6.424   6.875 -0.0178  0.7579 -0.1211
  200MOL0     C27481   2.126   6.445   6.741  0.3089  0.9392  0.8189
  200MOL0     C27482   2.242   6.470   6.656 -0.8091 -0.4052  0.8470
  200MOL0     C27483   2.205   6.569   6.545 -1.1609 -0.3940 -0.9265
  200MOL0     C27484   2.320   6.665   6.504  0.6272 -0.5503  0.3558
  200MOL0     C27485   2.465   6.619   6.515 -0.7570 -0.0503 -0.2226
  200MOL0     O27486   2.512   6.643   6.652 -0.4862  0.4451  0.4764
  200MOL0     C27487   2.633   6.600   6.687  0.9511 -0.3728  0.5184
  200MOL0     C27488   2.636   6.494   6.781 -0.5239 -0.3217 -0.0131
  200MOL0     C27489   2.755   6.442   6.834  0.2165 -0.2735  0.5016
  200MOL0     C27490   2.747   6.319   6.925  0.7944  0.4284  0.1002
  200MOL0     C27491   2.873   6.529   6.810  0.2852  0.2648  0.1853
  200MOL0     C27492   2.994   6.520   6.896  0.0039  0.2753  0.2182
  200MOL0     O27493   3.101   6.607   6.857  0.1280  0.6603  0.0446
  200MOL0     C27494   3.230   6.585   6.895 -0.0853 -0.7967 -0.0561
  200MOL0     C27495   3.290   6.471   6.944  0.2525 -0.1072  0.0851
  200MOL0     C27496   3.430   6.483   6.983  0.5901 -0.3081  0.1126
  200MOL0     C27497   3.506   6.599   6.985 -0.1826 -0.2738  0.4921
  200MOL0     O27498   3.641   6.594   7.029 -0.1730 -0.1978  0.5957
  200MOL0     C27499   3.720   6.702   6.975  0.2621 -0.4816  0.1793
  200MOL0     C27500   3.869   6.671   6.971  0.2409 -0.7830 -0.4072
  200MOL0     C27501   3.953   6.783   6.904 -0.1705  1.0958  0.4493
  200MOL0     C27502   4.094   6.723   6.877 -0.3254 -0.3663 -0.0416
  200MOL0     C27503   4.185   6.824   6.808 -0.5403  0.7577  0.4812
  200MOL0     C27504   4.325   6.765   6.788 -0.1742  0.3432 -0.6579
  200MOL0     C27505   4.420   6.864   6.723 -0.0151  0.2162  0.2396
  200MOL0     C27506   4.562   6.808   6.695 -0.7609 -0.1339 -0.3351
  200MOL0    Cl27507   4.568   6.633   6.657  0.0956 -0.2912 -0.0881
  200MOL0     C27508   3.438   6.715   6.950 -1.6938 -0.3325 -0.3363
  200MOL0     C27509   3.308   6.710   6.905  0.2515  0.3916  1.0956
  200MOL0     O27510   3.002   6.420   6.969 -0.2972 -0.6871  0.3692
  200MOL0     C27511   2.872   6.626   6.699  0.2562  0.6170  0.5043
  200MOL0     C27512   2.747   6.664   6.649 -0.7096 -0.8038  0.8120
  200MOL0     N27513   1.992   6.429   6.692  0.3511 -0.4968 -0.1523
  200MOL0     N27514   1.917   6.390   6.791 -0.0218 -0.0849 -0.4937
  200MOL0     C27515   0.799   6.576   6.845 -0.3304  0.2059  0.3023
  200MOL0     C27516   0.662   6.578   6.810  0.9029 -0.1158  0.5438
  200MOL0     C27517   0.244   6.610   6.680 -0.7705 -0.2237 -0.5208
  200MOL0     C27518   0.235   6.672   6.549  0.0699  0.1602  0.1764
  200MOL0     C27519   0.115   6.726   6.500 -0.6399  0.2230  0.0610
  200MOL0     C27520   0.002   6.720   6.580  0.5157  0.1120  0.0868
  200MOL0     O27521  -0.123   6.770   6.540 -0.5341  0.4094  0.1193
  200MOL0     C27522  -0.143   6.804   6.398 -0.6127 -0.0246 -0.8734
  200MOL0     C27523  -0.289   6.818   6.358  0.2263 -0.0865  0.6766
  200MOL0     C27524  -0.365   6.947   6.397  0.0015 -0.2290  0.5589
  200MOL0     C27525  -0.520   6.938   6.367 -0.2919  0.3340  0.7862
  200MOL0     C27526  -0.569   7.069   6.414 -0.3150  1.5947  0.3897
  200MOL0     C27527  -0.628   7.163   6.452 -0.2241 -0.4805 -1.0859
  200MOL0     C27528   0.008   6.649   6.697  0.0351 -0.1652 -0.6589
  200MOL0     C27529   0.127   6.595   6.755  0.2657  0.6517 -0.0178
  200MOL0     C27530   0.116   6.526   6.886 -0.1351  0.3126 -0.0496
  200MOL0     H27531   0.677   6.653   6.486  0.7964  2.1760  1.3605
  200MOL0     H27532   0.913   6.615   6.525 -2.2107  1.1779 -1.2450
  200MOL0     H27533   1.145   6.431   6.760  0.0795  3.8613 -3.2969
  200MOL0     H27534   1.019   6.421   6.881  1.4031 -1.5255 -0.0025
  200MOL0     H27535   1.254   6.625   6.879  0.8224  0.4195  1.2539
  200MOL0     H27536   1.140   6.605   7.007 -0.9666 -0.4153 -1.0025
  200MOL0     H27537   1.268   6.466   7.103 -4.8299  1.3574 -0.6002
  200MOL0     H27538   1.265   6.352   6.971  1.7634 -0.5521  2.2856
  200MOL0     H27539   1.459   6.501   6.851  0.3186 -1.9000 -0.6522
  200MOL0     H27540   1.459   6.594   7.000 -1.7508  0.0385  2.3388
  200MOL0     H27541   1.543   6.295   6.953  0.2938  1.2564 -0.8772
  200MOL0     H27542   1.523   6.375   7.108  2.8282  1.2104  0.4261
  200MOL0     H27543   1.709   6.495   6.905  2.2476 -1.6138 -0.4393
  200MOL0     H27544   1.703   6.525   7.081  0.4843 -0.2547  0.6774
  200MOL0     H27545   1.767   6.253   6.979  3.5722  0.2024 -1.4013
  200MOL0     H27546   1.755   6.318   7.142  2.0044 -0.9103  0.3622
  200MOL0     H27547   1.955   6.487   7.082 -2.9980  1.2497  1.3676
  200MOL0     H27548   1.993   6.310   7.095 -0.0560 -1.8286 -4.3868
  200MOL0     H27549   2.209   6.432   6.942  0.1532 -0.3324 -0.2054
  200MOL0     H27550   2.266   6.373   6.612  0.2477  0.1127  0.2609
  200MOL0     H27551   2.331   6.496   6.713  1.1769 -2.5582 -1.0776
  200MOL0     H27552   2.177   6.510   6.457 -0.4074 -2.6318  0.2397
  200MOL0     H27553   2.115   6.625   6.573  0.8742  2.2171  0.9590
  200MOL0     H27554   2.301   6.684   6.398 -3.2395  1.4163  1.2295
  200MOL0     H27555   2.305   6.762   6.551  1.3787  0.0318 -0.5769
  200MOL0     H27556   2.493   6.517   6.486  3.0869  0.9001 -0.3952
  200MOL0     H27557   2.526   6.685   6.453 -2.1132  1.7654  0.3042
  200MOL0     H27558   2.539   6.451   6.807 -0.9548 -0.0226 -1.0931
  200MOL0     H27559   2.778   6.349   7.025  0.0857 -2.1022  1.1628
  200MOL0     H27560   2.818   6.244   6.887 -0.2840 -0.2829 -0.5697
  200MOL0     H27561   2.647   6.277   6.919  1.4398 -1.9227  3.2310
  200MOL0     H27562   3.235   6.378   6.956 -1.6954  1.0191  0.2869
  200MOL0     H27563   3.476   6.390   7.016  0.5001 -0.9988 -1.6438
  200MOL0     H27564   3.686   6.733   6.876 -1.6298 -0.8015  0.6888
  200MOL0     H27565   3.692   6.780   7.046  2.1072  3.1680 -2.7507
  200MOL0     H27566   3.892   6.656   7.077  1.3466 -2.5110 -0.8670
  200MOL0     H27567   3.883   6.578   6.916 -2.1151 -3.0914  2.5405
  200MOL0     H27568   3.971   6.861   6.978  2.1639 -0.9338  2.2036
  200MOL0     H27569   3.902   6.814   6.812 -0.3401  1.5715  0.7025
  200MOL0     H27570   4.086   6.626   6.825  0.1603 -0.7007  0.4946
  200MOL0     H27571   4.141   6.695   6.972 -0.0019 -0.5699 -0.2580
  200MOL0     H27572   4.147   6.855   6.710 -0.1194  0.1090  0.1135
  200MOL0     H27573   4.183   6.907   6.880  0.2879  0.5451  0.7550
  200MOL0     H27574   4.312   6.678   6.724  0.6216 -0.8132  0.6781
  200MOL0     H27575   4.371   6.734   6.883 -0.2396  0.2133 -0.6685
  200MOL0     H27576   4.427   6.959   6.777  1.0713 -1.0594  2.5336
  200MOL0     H27577   4.379   6.887   6.625  1.6738  0.0843 -0.5217
  200MOL0     H27578   4.622   6.835   6.782 -1.7400  2.5682 -0.3917
  200MOL0     H27579   4.608   6.862   6.611 -1.6874  0.8122 -0.2441
  200MOL0     H27580   3.485   6.812   6.967  0.3739 -1.3645  0.1808
  200MOL0     H27581   3.265   6.806   6.879 -2.0394 -1.0676 -0.9384
  200MOL0     H27582   2.951   6.692   6.667 -0.4359  1.4835  0.5544
  200MOL0     H27583   2.738   6.750   6.582 -0.3036 -3.4026 -2.8959
  200MOL0     H27584   0.849   6.575   6.941  0.4944  0.2662 -0.1154
  200MOL0     H27585   0.580   6.578   6.882 -1.2942 -1.4850 -1.7749
  200MOL0     H27586   0.321   6.675   6.483 -0.5834 -1.8897 -0.8229
  200MOL0     H27587   0.117   6.781   6.406 -2.0019  0.9640  0.4486
  200MOL0     H27588  -0.098   6.903   6.385  0.1334 -0.1924  0.3344
  200MOL0     H27589  -0.096   6.728   6.335  1.6637  3.1133 -3.3219
  200MOL0     H27590  -0.332   6.729   6.407  0.5803 -1.1909 -0.9396
  200MOL0     H27591  -0.291   6.802   6.250  2.5987  2.6344  0.1256
  200MOL0     H27592  -0.357   6.980   6.501 -1.7771  0.6548  0.4420
  200MOL0     H27593  -0.318   7.031   6.345 -1.7313 -0.0745 -0.8474
  200MOL0     H27594  -0.576   6.855   6.411 -2.0488  2.0085  1.8868
  200MOL0     H27595  -0.544   6.932   6.261  1.1702  2.7895  0.2322
  200MOL0     H27596  -0.694   7.236   6.494  0.2400 -1.4456  1.5220
  200MOL0     H27597  -0.087   6.633   6.746 -0.2146  3.1970  0.1697
  200MOL0     H27598   0.153   6.599   6.959  0.4106  1.2945 -1.2695
  200MOL0     H27599   0.014   6.502   6.916 -0.1154 -0.0381 -0.2551
  200MOL0     H27600   0.170   6.431   6.891 -0.8795 -0.0537  3.3957
  201MOL0     O27601   2.300   9.295   8.529 -0.4141  0.0069  0.3012
  201MOL0     C27602   2.249   9.337   8.633  0.4846 -0.9960 -0.0755
  201MOL0     O27603   2.305   9.331   8.762 -0.0110 -0.0481 -0.3589
  201MOL0     C27604   2.444   9.331   8.761 -0.2569  0.2645 -0.6569
  201MOL0     C27605   2.525   9.241   8.690  0.0176  0.2430  0.5069
  201MOL0     C27606   2.664   9.243   8.696 -0.5354  0.2331  0.2004
  201MOL0     C27607   2.734   9.336   8.771  0.5989  0.1737 -0.0624
  201MOL0     O27608   2.875   9.338   8.782 -0.2473 -0.5635 -0.6350
  201MOL0     C27609   2.946   9.258   8.696  0.1759  0.5999 -0.2924
  201MOL0     C27610   3.096   9.277   8.703  0.2287 -0.3769 -0.5479
  201MOL0     C27611   3.166   9.261   8.843  0.5264  0.2367 -0.0833
  201MOL0     C27612   3.308   9.311   8.839  0.6642 -0.3883 -0.4174
  201MOL0     C27613   3.405   9.281   8.948  0.8894 -0.3697 -0.1636
  201MOL0     C27614   3.529   9.376   8.964  0.3660  0.3086 -0.0239
  201MOL0     C27615   3.600   9.369   9.098 -0.0161 -0.6919 -0.8121
  201MOL0     C27616   3.690   9.499   9.120 -0.1495  0.0910 -0.2949
  201MOL0     N27617   3.766   9.478   9.243 -0.5202  0.0503 -0.1763
  201MOL0     C27618   3.884   9.409   9.252  0.1316 -0.4380 -0.0914
  201MOL0     C27619   3.914   9.399   9.379  0.3297  0.0582 -0.4535
  201MOL0     C27620   4.021   9.310   9.426  0.5715 -0.3176  0.2495
  201MOL0     C27621   4.125   9.384   9.521 -0.1425  0.8296 -0.6227
  201MOL0     C27622   4.224   9.477   9.461  0.3600 -0.1219  0.6315
  201MOL0     C27623   4.348   9.492   9.551 -0.0592 -0.5286  0.1079
  201MOL0     O27624   4.301   9.550   9.681 -0.1645  0.1098  0.4178
  201MOL0     C27625   4.399   9.609   9.754 -0.6708  0.1511  0.7549
  201MOL0     C27626   4.536   9.607   9.730  0.1097 -0.2116 -0.0586
  201MOL0     C27627   4.633   9.663   9.821  0.6882 -0.0663 -0.9743
  201MOL0     C27628   4.779   9.630   9.805 -0.8766 -0.5566 -0.3575
  201MOL0     C27629   4.577   9.741   9.926 -0.0455 -0.6326 -0.8771
  201MOL0     C27630   4.667   9.812  10.018  0.4102 -0.7443 -0.5244
  201MOL0     O27631   4.772   9.761  10.081 -0.1825 -0.6720 -0.4691
  201MOL0     C27632   4.848   9.847  10.159  0.2592  0.4383 -1.0731
  201MOL0     C27633   4.806   9.867  10.287  0.1928  0.8270  0.4309
  201MOL0     C27634   4.878   9.952  10.370  0.2082 -0.0159 -0.4065
  201MOL0     C27635   4.989  10.031  10.327  0.0124  0.6989 -0.0503
  201MOL0     O27636   5.039  10.123  10.416  1.1359 -0.2276  0.0970
  201MOL0     C27637   5.181  10.130  10.434  0.6167 -1.1008  0.6529
  201MOL0     C27638   5.235  10.199  10.567  0.1635  0.1459 -0.8021
  201MOL0     C27639   5.199  10.099  10.681  0.9301  0.1230 -0.4877
  201MOL0     C27640   5.294  10.097  10.805 -0.3066 -0.1973 -0.3047
  201MOL0     C27641   5.269   9.987  10.898 -0.8339  0.8506  0.2363
  201MOL0     C27642   5.388   9.959  10.986  0.3193  0.0380 -0.1564
  201MOL0     C27643   5.513   9.886  10.922  1.4342 -0.7565  0.8619
  201MOL0     C27644   5.622   9.862  11.011  1.0396 -0.7492 -0.2484
  201MOL0    Cl27645   5.723  10.012  11.017  0.4705  0.1785 -0.0583
  201MOL0     C27646   5.035  10.000  10.193 -0.4008  0.3719 -0.2935
  201MOL0     C27647   4.954   9.919  10.113  0.1325  0.5500 -0.3324
  201MOL0     O27648   4.623   9.928  10.040 -1.1262  0.3942  0.1417
  201MOL0     C27649   4.436   9.749   9.945  0.0514  0.4078  0.3811
  201MOL0     C27650   4.345   9.681   9.860 -0.7438  0.0004 -0.4349
  201MOL0     N27651   3.817   9.459   9.459  0.2946  0.2750 -0.3539
  201MOL0     N27652   3.734   9.514   9.375 -0.2058 -0.1073  0.4822
  201MOL0     C27653   2.659   9.420   8.852 -0.1754  0.2745 -0.0957
  201MOL0     C27654   2.507   9.417   8.854 -0.5747  0.2185 -0.1636
  201MOL0     C27655   2.130   9.421   8.595 -0.0134 -0.2598  0.5903
  201MOL0     C27656   2.098   9.523   8.686 -0.6110 -0.0642  0.2415
  201MOL0     C27657   2.002   9.617   8.656  0.8751 -0.1059 -0.2743
  201MOL0     C27658   1.924   9.606   8.544 -1.0108  0.5242  0.9612
  201MOL0     O27659   1.835   9.707   8.530 -0.2948 -0.3347 -0.3243
  201MOL0     C27660   1.762   9.700   8.412  0.2412 -0.1973 -0.0510
  201MOL0     C27661   1.647   9.798   8.396 -0.4437 -0.5455 -0.1472
  201MOL0     C27662   1.685   9.939   8.444  0.5374 -0.0588 -0.1641
  201MOL0     C27663   1.572  10.033   8.410  0.7586  0.3825 -0.6248
  201MOL0     C27664   1.559  10.060   8.269 -0.2659  0.2013 -0.1801
  201MOL0     C27665   1.554  10.069   8.147 -0.0607 -0.2008 -0.9268
  201MOL0     C27666   1.958   9.512   8.446 -0.0302  0.3715  0.2957
  201MOL0     C27667   2.061   9.415   8.472  0.0009  0.8880 -1.0957
  201MOL0     C27668   2.063   9.300   8.373 -0.8404  0.1350 -0.4801
  201MOL0     H27669   2.468   9.168   8.633 -4.4936  3.1663  0.7629
  201MOL0     H27670   2.719   9.168   8.639 -1.6282 -1.6207  1.4649
  201MOL0     H27671   2.915   9.275   8.593 -0.8382 -0.8188 -0.2708
  201MOL0     H27672   2.926   9.151   8.710  0.8554  0.4975 -0.1016
  201MOL0     H27673   3.145   9.201   8.641  2.0171  0.1255  0.1852
  201MOL0     H27674   3.120   9.372   8.655  0.4555 -1.3196 -2.3920
  201MOL0     H27675   3.106   9.311   8.920  1.3212 -0.5049  1.0654
  201MOL0     H27676   3.162   9.159   8.883 -1.9478  0.6039  0.8104
  201MOL0     H27677   3.361   9.271   8.753  1.3799 -1.8899  0.6780
  201MOL0     H27678   3.303   9.417   8.813  1.2270 -0.2736 -0.0846
  201MOL0     H27679   3.439   9.178   8.936  1.5255 -0.0638 -1.0757
  201MOL0     H27680   3.359   9.287   9.047  1.4669 -2.1055  0.2442
  201MOL0     H27681   3.601   9.357   8.883 -0.6855  1.2436 -1.2209
  201MOL0     H27682   3.488   9.474   8.936  0.9651  0.3724 -0.7250
  201MOL0     H27683   3.661   9.279   9.107 -2.3764 -2.7038 -3.1587
  201MOL0     H27684   3.521   9.366   9.175 -1.1478  4.4092 -1.4016
  201MOL0     H27685   3.750   9.518   9.030 -1.7028 -0.9951 -1.6303
  201MOL0     H27686   3.621   9.583   9.132  0.8448  1.0651 -1.1079
  201MOL0     H27687   3.941   9.365   9.171  1.6435 -0.7079  1.0541
  201MOL0     H27688   4.072   9.258   9.345 -0.9600  0.5041 -1.3318
  201MOL0     H27689   3.983   9.225   9.484  1.2357 -1.7831 -1.3588
  201MOL0     H27690   4.071   9.442   9.597 -1.4695 -2.4879  1.1916
  201MOL0     H27691   4.178   9.311   9.583 -0.7852  1.3665  0.6184
  201MOL0     H27692   4.246   9.439   9.361 -0.2681  0.9618  0.0642
  201MOL0     H27693   4.172   9.574   9.454  2.9036  1.2247 -0.9567
  201MOL0     H27694   4.403   9.398   9.556  0.7871 -0.2050 -2.2926
  201MOL0     H27695   4.422   9.553   9.499 -1.0552 -0.2000 -0.9727
  201MOL0     H27696   4.580   9.557   9.644  1.2921  0.7483 -0.0366
  201MOL0     H27697   4.799   9.558   9.884  1.8675 -0.4868 -0.8859
  201MOL0     H27698   4.835   9.716   9.843 -0.4565 -1.2199  0.5516
  201MOL0     H27699   4.827   9.582   9.719  2.1077  0.5880  0.5695
  201MOL0     H27700   4.720   9.809  10.320  0.4615 -0.6901 -1.3710
  201MOL0     H27701   4.826   9.982  10.460 -1.9449 -0.7722 -1.3215
  201MOL0     H27702   5.214  10.026  10.425  1.0080 -0.7985 -1.9304
  201MOL0     H27703   5.220  10.185  10.348 -2.6843  2.5418  1.2350
  201MOL0     H27704   5.343  10.215  10.553  0.1800  1.8551  0.8258
  201MOL0     H27705   5.176  10.290  10.580  0.4014  0.2657 -0.5417
  201MOL0     H27706   5.183  10.000  10.636 -0.6690  0.8470 -1.6084
  201MOL0     H27707   5.098  10.123  10.715  0.5075 -1.5461 -0.4617
  201MOL0     H27708   5.293  10.192  10.859 -0.0208  0.6408 -1.6995
  201MOL0     H27709   5.398  10.091  10.771  0.2686  0.7757  1.1810
  201MOL0     H27710   5.172   9.995  10.949  0.1106 -1.7652  2.6773
  201MOL0     H27711   5.266   9.898  10.835  0.3976  0.7335  0.3297
  201MOL0     H27712   5.362   9.898  11.073  2.3831 -0.6076  0.0578
  201MOL0     H27713   5.411  10.057  11.028 -0.1430 -0.4887  1.4358
  201MOL0     H27714   5.543   9.924  10.825  1.7753  1.7621  1.8897
  201MOL0     H27715   5.474   9.786  10.900  0.4280 -0.2097  0.0622
  201MOL0     H27716   5.688   9.782  10.976  2.6256  0.7149 -0.7587
  201MOL0     H27717   5.594   9.831  11.112 -2.8895  0.7411 -0.6777
  201MOL0     H27718   5.129  10.046  10.166 -1.1044  2.8363  1.1862
  201MOL0     H27719   4.974   9.916  10.007 -1.9716  3.4422 -0.9453
  201MOL0     H27720   4.394   9.808  10.026 -0.4400 -0.8370  1.0639
  201MOL0     H27721   4.241   9.710   9.873  0.0733  2.2016  2.2866
  201MOL0     H27722   2.700   9.504   8.906 -2.0985  2.5318 -1.9472
  201MOL0     H27723   2.444   9.496   8.893 -0.6417 -0.8439  2.0471
  201MOL0     H27724   2.144   9.536   8.784 -1.5926  1.2196  0.5552
  201MOL0     H27725   1.980   9.695   8.727  0.1250 -0.7649  0.2386
  201MOL0     H27726   1.830   9.719   8.329 -2.2846  0.4643 -2.1279
  201MOL0     H27727   1.724   9.598   8.401  4.6359 -1.9004 -1.6994
  201MOL0     H27728   1.558   9.773   8.455 -1.5221  0.0750 -1.4660
  201MOL0     H27729   1.625   9.788   8.289  0.8934 -1.2966 -0.3638
  201MOL0     H27730   1.679   9.938   8.554 -1.1052 -2.9223 -0.1705
  201MOL0     H27731   1.783   9.968   8.405  0.8528 -1.0177 -0.1209
  201MOL0     H27732   1.597  10.123   8.468 -0.1361 -0.3263  0.9409
  201MOL0     H27733   1.477   9.995   8.448  1.2496 -0.0522  0.1898
  201MOL0     H27734   1.554  10.067   8.040  0.6391  2.7033 -1.0735
  201MOL0     H27735   1.903   9.497   8.353 -0.0794  0.0363  0.3753
  201MOL0     H27736   1.994   9.319   8.291  2.2971  0.1514 -3.3117
  201MOL0     H27737   2.155   9.296   8.314 -1.0856  0.9909 -0.9290
  201MOL0     H27738   2.044   9.207   8.427  1.1898  0.3737  0.7430
  202MOL0     O27739   6.158   1.195  10.681  0.1851 -0.0839 -0.4183
  202MOL0     C27740   6.144   1.076  10.668 -0.2433  0.6120 -0.4247
  202MOL0     O27741   6.236   0.982  10.724  0.2873 -0.0458  0.0060
  202MOL0     C27742   6.354   1.024  10.786  0.0127  1.1201  0.2203
  202MOL0     C27743   6.400   0.951  10.900 -0.6721  1.2053  0.5462
  202MOL0     C27744   6.531   0.974  10.945  0.6467 -0.9228 -0.8455
  202MOL0     C27745   6.605   1.084  10.898 -0.4139  0.0456  0.0889
  202MOL0     O27746   6.727   1.119  10.949 -0.3726 -0.0876  0.0213
  202MOL0     C27747   6.830   1.024  10.946  0.2679  0.0332  0.6147
  202MOL0     C27748   6.965   1.072  10.900  0.0039 -0.6367  0.2160
  202MOL0     C27749   7.006   1.187  10.994  0.5794  0.6485  0.5458
  202MOL0     C27750   7.122   1.274  10.931 -0.8418  0.0070 -0.1618
  202MOL0     C27751   7.218   1.349  11.029  0.6134 -1.0045 -0.4471
  202MOL0     C27752   7.147   1.479  11.075  0.4245  0.5245  0.0351
  202MOL0     C27753   7.247   1.570  11.158 -0.4910  0.6435  0.1101
  202MOL0     C27754   7.175   1.687  11.189  0.3415  0.4783  0.2499
  202MOL0     N27755   7.244   1.804  11.243 -1.2708 -0.2991  0.3381
  202MOL0     C27756   7.292   1.915  11.171  0.1456  0.6533  0.5778
  202MOL0     C27757   7.286   2.017  11.248 -1.3327 -0.1625 -0.2370
  202MOL0     C27758   7.323   2.159  11.224  0.0827 -0.4229  0.5448
  202MOL0     C27759   7.462   2.185  11.274  0.1421  0.8667 -0.7957
  202MOL0     C27760   7.574   2.132  11.171 -0.4182  0.5018  0.3543
  202MOL0     C27761   7.713   2.175  11.206  0.0752 -0.1793 -0.6860
  202MOL0     O27762   7.755   2.301  11.140 -0.0523 -0.1948 -0.9012
  202MOL0     C27763   7.887   2.354  11.151  0.1898  0.4520  0.0893
  202MOL0     C27764   7.914   2.471  11.086 -1.4696 -0.5230  0.3928
  202MOL0     C27765   8.046   2.528  11.090 -0.5920  0.2013 -0.1139
  202MOL0     C27766   8.069   2.653  11.010 -0.6552  0.5130  1.1160
  202MOL0     C27767   8.142   2.465  11.176  0.2007  0.2799  0.1912
  202MOL0     C27768   8.279   2.510  11.196  0.0126 -0.7198  1.1023
  202MOL0     O27769   8.378   2.428  11.150  1.2149 -0.4502 -0.3603
  202MOL0     C27770   8.510   2.433  11.174  0.5376  0.1559 -0.1105
  202MOL0     C27771   8.577   2.502  11.276 -0.0889  0.2209 -0.2693
  202MOL0     C27772   8.719   2.511  11.278  0.3456 -0.0485 -0.6286
  202MOL0     C27773   8.793   2.456  11.177 -0.6440 -0.2474  0.4882
  202MOL0     O27774   8.927   2.484  11.174 -0.0760  0.2481  0.3147
  202MOL0     C27775   8.985   2.508  11.042  0.7375 -0.6257 -0.2278
  202MOL0     C27776   9.134   2.541  11.040 -1.0077  0.6042 -0.7859
  202MOL0     C27777   9.219   2.460  11.138 -0.0871 -0.7087  0.1478
  202MOL0     C27778   9.351   2.538  11.140 -0.8153  0.1457 -0.2217
  202MOL0     C27779   9.446   2.492  11.246 -0.8164  0.6002 -0.4848
  202MOL0     C27780   9.580   2.567  11.243 -0.7642  1.4450  0.6633
  202MOL0     C27781   9.700   2.493  11.310  0.1379  0.5828 -0.2699
  202MOL0     C27782   9.813   2.593  11.340 -0.1056  0.5540  0.2240
  202MOL0    Cl27783   9.785   2.731  11.453  0.0282 -0.0638  0.2344
  202MOL0     C27784   8.733   2.372  11.083 -0.3508 -0.3515 -0.4487
  202MOL0     C27785   8.590   2.370  11.079 -0.6311  0.4265 -0.0951
  202MOL0     O27786   8.293   2.621  11.250 -0.2217  0.0513 -0.1643
  202MOL0     C27787   8.109   2.352  11.241 -0.7591 -0.3650 -0.0249
  202MOL0     C27788   7.989   2.294  11.228 -0.0362  0.9701  0.3006
  202MOL0     N27789   7.254   1.973  11.373 -0.5877 -0.0237  0.0525
  202MOL0     N27790   7.224   1.852  11.368  0.2017  0.8069  0.3138
  202MOL0     C27791   6.555   1.166  10.792 -0.6464 -0.4619  0.1702
  202MOL0     C27792   6.430   1.135  10.731  0.1258 -0.2332 -0.2195
  202MOL0     C27793   6.025   1.017  10.597 -0.3356  0.3076 -0.3120
  202MOL0     C27794   5.998   0.881  10.627 -0.0885 -0.5034 -0.2099
  202MOL0     C27795   5.892   0.821  10.557 -0.5269 -0.6185  0.2158
  202MOL0     C27796   5.797   0.896  10.492 -0.3241 -1.3321 -0.4659
  202MOL0     O27797   5.677   0.841  10.460  0.3604  0.0600  0.4374
  202MOL0     C27798   5.668   0.701  10.416  0.1695  0.4423  0.3510
  202MOL0     C27799   5.563   0.698  10.309 -0.9112 -0.0608  0.2758
  202MOL0     C27800   5.428   0.740  10.365 -0.5107 -0.6468  0.2875
  202MOL0     C27801   5.335   0.757  10.254  0.5550 -0.8533  0.8875
  202MOL0     C27802   5.230   0.846  10.302  0.4484 -0.5091 -0.2623
  202MOL0     C27803   5.144   0.908  10.359  0.4625  0.6119 -0.0663
  202MOL0     C27804   5.808   1.033  10.489 -0.0589 -0.5097  0.3229
  202MOL0     C27805   5.926   1.095  10.527  0.2978 -0.0731  0.3500
  202MOL0     C27806   5.946   1.243  10.499 -0.7763  1.0086  0.8504
  202MOL0     H27807   6.328   0.877  10.931  0.2456  0.2596  0.4951
  202MOL0     H27808   6.567   0.917  11.030 -0.7775  0.2477  0.6079
  202MOL0     H27809   6.808   0.949  10.870  2.3054 -0.0788  0.0613
  202MOL0     H27810   6.842   0.964  11.037 -3.3087 -3.5025 -0.9560
  202MOL0     H27811   7.031   0.985  10.909 -0.0305 -0.8497 -1.2210
  202MOL0     H27812   6.960   1.109  10.797 -0.9463  1.2143  0.9030
  202MOL0     H27813   6.926   1.256  11.024  0.6639  1.7480 -1.5821
  202MOL0     H27814   7.034   1.143  11.090 -0.6556  0.3619  0.8034
  202MOL0     H27815   7.179   1.199  10.876 -3.9397  0.3845 -4.4312
  202MOL0     H27816   7.087   1.346  10.856 -3.3842 -0.2503  0.6993
  202MOL0     H27817   7.293   1.392  10.962 -2.1601  0.6334 -2.7197
  202MOL0     H27818   7.259   1.289  11.110  0.7992 -2.1174 -1.3351
  202MOL0     H27819   7.118   1.530  10.982  1.8147 -0.2948 -0.8769
  202MOL0     H27820   7.058   1.446  11.130  1.5315 -2.9360 -0.0163
  202MOL0     H27821   7.340   1.591  11.103 -0.4648 -3.3363 -1.7914
  202MOL0     H27822   7.275   1.518  11.251  2.1537 -1.1269 -1.4966
  202MOL0     H27823   7.119   1.723  11.102  0.5089 -0.8463 -0.4293
  202MOL0     H27824   7.103   1.654  11.264  0.7770  0.6585  0.7489
  202MOL0     H27825   7.323   1.905  11.067  0.2802 -0.2677  0.7020
  202MOL0     H27826   7.254   2.223  11.281  0.0914  0.2673 -0.2140
  202MOL0     H27827   7.317   2.201  11.124  0.2817  1.0246  1.1223
  202MOL0     H27828   7.466   2.293  11.258 -0.0130  1.1710  0.9898
  202MOL0     H27829   7.473   2.158  11.380  1.0904  1.8212 -0.6358
  202MOL0     H27830   7.577   2.023  11.180 -0.0098  0.6022  1.6324
  202MOL0     H27831   7.548   2.177  11.075  3.8190 -1.0157 -1.7456
  202MOL0     H27832   7.714   2.186  11.314  0.2367  1.6097 -0.8434
  202MOL0     H27833   7.779   2.091  11.184 -2.8695 -2.6359 -0.8616
  202MOL0     H27834   7.833   2.519  11.032  1.8358  3.1561 -1.8133
  202MOL0     H27835   8.122   2.726  11.071 -0.0924 -1.4046  3.0396
  202MOL0     H27836   7.985   2.708  10.965  0.3388  0.6046 -0.7460
  202MOL0     H27837   8.134   2.625  10.926 -1.1226 -0.0876  0.9453
  202MOL0     H27838   8.529   2.537  11.366  1.2318 -0.5290  0.7653
  202MOL0     H27839   8.762   2.574  11.355  0.3508 -1.5807  0.6752
  202MOL0     H27840   8.964   2.416  10.988  1.2953 -0.4544 -0.7573
  202MOL0     H27841   8.934   2.586  10.985 -0.4786 -0.4150  1.0898
  202MOL0     H27842   9.178   2.526  10.941  1.0689 -0.7043  0.2515
  202MOL0     H27843   9.140   2.646  11.070  1.4803  1.3725 -3.5233
  202MOL0     H27844   9.232   2.358  11.101  0.7545  0.1671 -2.1259
  202MOL0     H27845   9.175   2.479  11.237  0.5016  0.9332  0.1181
  202MOL0     H27846   9.340   2.647  11.144  2.1337  0.5827 -1.5937
  202MOL0     H27847   9.403   2.520  11.045 -1.3142 -1.1638 -0.2720
  202MOL0     H27848   9.393   2.510  11.340 -2.4962  2.7103 -1.7189
  202MOL0     H27849   9.460   2.384  11.234 -0.1985  0.1030  3.3376
  202MOL0     H27850   9.570   2.668  11.283 -1.4055  1.8770 -0.5377
  202MOL0     H27851   9.609   2.587  11.139 -0.5248  3.9273  1.1598
  202MOL0     H27852   9.738   2.413  11.245 -1.9019  0.7410 -1.7702
  202MOL0     H27853   9.655   2.453  11.401 -3.0550  1.8663 -1.1246
  202MOL0     H27854   9.845   2.626  11.241  0.6436  1.8725  0.8772
  202MOL0     H27855   9.892   2.537  11.393  1.7931  5.1161  2.8698
  202MOL0     H27856   8.794   2.324  11.008 -2.5847  0.2040 -2.7871
  202MOL0     H27857   8.536   2.315  11.002  0.9557 -1.3910  0.0069
  202MOL0     H27858   8.188   2.294  11.287  0.8481 -0.5575 -2.7644
  202MOL0     H27859   7.972   2.199  11.277 -0.1013  0.9761  0.2890
  202MOL0     H27860   6.610   1.255  10.762 -1.4007 -0.4657 -1.3089
  202MOL0     H27861   6.390   1.184  10.643 -0.6705 -1.6473 -0.6738
  202MOL0     H27862   6.072   0.823  10.681  0.5710 -0.5146 -1.0921
  202MOL0     H27863   5.882   0.713  10.569 -0.1523 -0.5022  1.7183
  202MOL0     H27864   5.759   0.658  10.374  0.5643  0.9462  0.6822
  202MOL0     H27865   5.647   0.642  10.506  0.9681 -0.7777 -0.2251
  202MOL0     H27866   5.560   0.600  10.260  3.1290 -0.6103  0.7715
  202MOL0     H27867   5.601   0.768  10.235  1.1463 -1.1792  0.2194
  202MOL0     H27868   5.396   0.660  10.433  1.1014 -0.5863  1.1693
  202MOL0     H27869   5.437   0.834  10.420 -1.4067 -1.5023  1.9572
  202MOL0     H27870   5.312   0.657  10.215 -0.0538  0.2461 -1.8657
  202MOL0     H27871   5.376   0.799  10.161 -1.6573 -3.1281 -1.2850
  202MOL0     H27872   5.075   0.979  10.398 -0.7992 -1.3660  1.4994
  202MOL0     H27873   5.727   1.093  10.447  0.9946  1.0772  0.4682
  202MOL0     H27874   6.047   1.244  10.457 -0.8863 -1.9436  0.2703
  202MOL0     H27875   5.868   1.286  10.436 -1.8133 -1.2435  0.4855
  202MOL0     H27876   5.941   1.300  10.593 -1.2921  1.6708  0.4310
  203MOL0     O27877  10.614   7.489   1.755  0.2393 -0.4110 -0.0599
  203MOL0     C27878  10.512   7.438   1.720 -0.6723 -0.0065  0.3053
  203MOL0     O27879  10.499   7.370   1.606  0.9653  0.1334  0.4196
  203MOL0     C27880  10.594   7.364   1.507  0.1293  0.3720 -0.6470
  203MOL0     C27881  10.731   7.335   1.534 -0.1941 -1.6300  0.1902
  203MOL0     C27882  10.820   7.335   1.431  0.6627  0.6412 -0.0922
  203MOL0     C27883  10.785   7.358   1.292  0.6069 -0.3581 -0.4923
  203MOL0     O27884  10.866   7.345   1.181  0.5281  0.4988  0.2656
  203MOL0     C27885  10.984   7.262   1.195  0.0044 -0.0426 -0.1335
  203MOL0     C27886  11.071   7.262   1.070  0.0007  0.1177  0.4232
  203MOL0     C27887  11.148   7.401   1.060 -0.2985  0.2054 -0.8943
  203MOL0     C27888  11.240   7.404   0.940  0.0232 -0.2410 -0.4159
  203MOL0     C27889  11.263   7.554   0.912 -0.7307 -0.7413  0.6473
  203MOL0     C27890  11.340   7.562   0.774  0.5606  0.5043  0.1661
  203MOL0     C27891  11.346   7.698   0.707  0.6909 -0.4291  0.4071
  203MOL0     C27892  11.453   7.706   0.594  0.5221  0.3672 -0.9834
  203MOL0     N27893  11.597   7.674   0.610  0.3240  0.1923  0.4736
  203MOL0     C27894  11.653   7.651   0.734 -0.6525  0.2408 -0.1704
  203MOL0     C27895  11.775   7.595   0.713  0.3673 -0.1650 -0.1896
  203MOL0     C27896  11.882   7.555   0.803 -0.3332  0.3201 -0.3329
  203MOL0     C27897  12.019   7.595   0.741  0.0599 -0.2772 -0.7463
  203MOL0     C27898  12.132   7.555   0.836  0.7150 -0.2411 -0.3248
  203MOL0     C27899  12.271   7.569   0.784  0.1514 -0.9938 -0.0417
  203MOL0     O27900  12.317   7.448   0.722  0.6470 -0.6264 -0.3570
  203MOL0     C27901  12.447   7.445   0.702 -0.6224  0.0887 -0.5983
  203MOL0     C27902  12.512   7.550   0.633 -0.4414 -0.9334 -0.5897
  203MOL0     C27903  12.647   7.557   0.626  0.1714  0.2795  0.4566
  203MOL0     C27904  12.719   7.673   0.547 -0.0768  0.2509 -0.1953
  203MOL0     C27905  12.726   7.454   0.680  0.3738 -0.1168 -0.5452
  203MOL0     C27906  12.877   7.447   0.693  0.8043  0.2972 -0.4901
  203MOL0     O27907  12.936   7.347   0.763 -0.5762 -0.1797 -0.7248
  203MOL0     C27908  13.072   7.361   0.779  0.6602  1.0689  0.0119
  203MOL0     C27909  13.122   7.421   0.890  0.1209  0.9335 -1.1023
  203MOL0     C27910  13.259   7.442   0.905 -0.0001  0.7685 -0.3158
  203MOL0     C27911  13.351   7.406   0.808 -0.0083 -0.1294 -0.0930
  203MOL0     O27912  13.485   7.445   0.823  0.0298 -0.3642  0.0722
  203MOL0     C27913  13.551   7.471   0.696 -0.0222 -0.2085  0.1743
  203MOL0     C27914  13.689   7.540   0.718 -0.6335 -0.0620  0.2481
  203MOL0     C27915  13.742   7.599   0.584  0.5189 -0.3598 -0.2865
  203MOL0     C27916  13.884   7.639   0.591 -0.6058 -0.2703  0.2666
  203MOL0     C27917  13.926   7.677   0.453 -0.2575  0.2220 -0.4555
  203MOL0     C27918  14.061   7.744   0.462 -0.1948  0.1564 -0.4040
  203MOL0     C27919  14.104   7.776   0.323 -0.4871 -0.1014 -0.5142
  203MOL0     C27920  14.015   7.877   0.239 -0.0253 -0.0964  0.3413
  203MOL0    Cl27921  14.126   7.942   0.114  0.2011  0.0069  0.1530
  203MOL0     C27922  13.304   7.340   0.697  0.1702 -0.3214  0.0531
  203MOL0     C27923  13.164   7.304   0.683 -0.4178 -0.4346 -0.3806
  203MOL0     O27924  12.936   7.541   0.654 -0.4668  0.0185  0.0958
  203MOL0     C27925  12.662   7.345   0.745  0.2668  0.3568 -0.1911
  203MOL0     C27926  12.525   7.338   0.747  0.2327 -1.0914  0.4835
  203MOL0     N27927  11.774   7.555   0.581  0.5072  1.0047  0.4295
  203MOL0     N27928  11.671   7.597   0.522  0.0041  0.3920  0.7772
  203MOL0     C27929  10.648   7.377   1.260 -0.1760 -0.5660 -0.2579
  203MOL0     C27930  10.558   7.383   1.374 -0.0796 -0.0633  0.5789
  203MOL0     C27931  10.401   7.443   1.811 -0.6391  0.3619 -0.0951
  203MOL0     C27932  10.424   7.423   1.949  0.1314  0.1026  0.3478
  203MOL0     C27933  10.312   7.407   2.032  0.2447  0.1507 -0.0050
  203MOL0     C27934  10.179   7.410   1.979  0.9905 -0.3460 -0.1747
  203MOL0     O27935  10.074   7.371   2.069 -0.4533 -0.6416  0.4250
  203MOL0     C27936   9.941   7.401   2.029 -0.1254 -0.2669 -0.5004
  203MOL0     C27937   9.853   7.363   2.157  0.0697 -0.4885 -0.1760
  203MOL0     C27938   9.852   7.477   2.260  0.1335 -0.3483 -0.0742
  203MOL0     C27939   9.759   7.447   2.375  0.2247 -0.0944 -1.3687
  203MOL0     C27940   9.770   7.324   2.451 -0.0805  0.0601 -0.2022
  203MOL0     C27941   9.780   7.218   2.513  0.4117 -0.2142  0.2852
  203MOL0     C27942  10.156   7.450   1.842  0.3009 -0.4681  0.0813
  203MOL0     C27943  10.271   7.474   1.758  0.4265 -0.1168 -0.9093
  203MOL0     C27944  10.250   7.503   1.608 -0.1060 -0.4624 -0.5184
  203MOL0     H27945  10.776   7.317   1.631  2.3824 -0.3894 -0.7035
  203MOL0     H27946  10.925   7.323   1.456  1.0676 -0.8578 -2.2632
  203MOL0     H27947  10.946   7.162   1.220  0.0306 -0.4133 -1.5363
  203MOL0     H27948  11.038   7.300   1.283  0.2844 -1.9474  0.5855
  203MOL0     H27949  11.129   7.170   1.059  1.1202  0.7122  1.2021
  203MOL0     H27950  11.001   7.268   0.986 -0.8695 -1.3957  0.9911
  203MOL0     H27951  11.071   7.476   1.043 -3.6885 -3.0179 -1.0032
  203MOL0     H27952  11.205   7.419   1.152  1.6136 -0.4814 -1.9000
  203MOL0     H27953  11.332   7.348   0.957 -0.3329 -0.2586  1.7655
  203MOL0     H27954  11.191   7.365   0.851 -1.7065  2.1079 -0.6119
  203MOL0     H27955  11.327   7.593   0.991  0.6357 -1.9181  0.1722
  203MOL0     H27956  11.169   7.609   0.902 -0.5955 -0.5033  0.6774
  203MOL0     H27957  11.440   7.522   0.792  1.1047  1.0728 -1.4345
  203MOL0     H27958  11.288   7.501   0.700  0.9557  0.6369 -0.2284
  203MOL0     H27959  11.368   7.781   0.775  1.0618  1.1487 -1.5222
  203MOL0     H27960  11.249   7.720   0.659  1.4195 -0.6071 -1.2181
  203MOL0     H27961  11.414   7.652   0.507 -1.4535 -5.2260  2.8367
  203MOL0     H27962  11.458   7.812   0.567  0.5390 -0.0506 -2.7838
  203MOL0     H27963  11.613   7.695   0.825  0.1969  1.5041 -0.3817
  203MOL0     H27964  11.878   7.447   0.820  0.5909  0.2568 -0.5032
  203MOL0     H27965  11.874   7.612   0.896  0.8304  0.7911 -0.5030
  203MOL0     H27966  12.026   7.551   0.641 -0.3780 -0.5313 -0.6677
  203MOL0     H27967  12.018   7.703   0.730  1.6697 -0.1395  0.2576
  203MOL0     H27968  12.114   7.611   0.928 -2.3436 -1.5142 -0.0319
  203MOL0     H27969  12.125   7.451   0.871 -1.1814  0.2330  0.8199
  203MOL0     H27970  12.249   7.646   0.710  2.4699  0.2604  0.4720
  203MOL0     H27971  12.338   7.615   0.858 -0.9586 -0.2567  0.5272
  203MOL0     H27972  12.447   7.635   0.618 -2.8430 -1.7099  3.6299
  203MOL0     H27973  12.750   7.634   0.450  0.8789 -1.7325  0.8558
  203MOL0     H27974  12.801   7.720   0.602 -0.2316 -0.4957  0.7125
  203MOL0     H27975  12.643   7.747   0.521 -1.3952 -1.0259 -0.0895
  203MOL0     H27976  13.058   7.444   0.974 -0.1576 -0.4481 -0.9150
  203MOL0     H27977  13.305   7.497   0.987 -1.4914  0.3141  0.8707
  203MOL0     H27978  13.578   7.382   0.639  2.8346  0.5657  0.1765
  203MOL0     H27979  13.494   7.540   0.634 -2.1442 -0.8531  1.2943
  203MOL0     H27980  13.692   7.609   0.803 -0.2267  0.3535 -0.0971
  203MOL0     H27981  13.766   7.472   0.756  0.3024  2.4209  3.1373
  203MOL0     H27982  13.667   7.677   0.566 -0.0646 -1.0114 -0.7147
  203MOL0     H27983  13.737   7.517   0.512  6.0700 -1.6829  0.3335
  203MOL0     H27984  13.951   7.566   0.639 -0.4203  0.1969  0.7314
  203MOL0     H27985  13.878   7.731   0.650  0.7029  1.1313 -1.6663
  203MOL0     H27986  13.927   7.589   0.389  0.6732  0.8358 -1.3190
  203MOL0     H27987  13.846   7.744   0.420 -1.2788 -0.7280  0.0382
  203MOL0     H27988  14.133   7.674   0.507  1.8076 -0.7041 -4.4253
  203MOL0     H27989  14.055   7.844   0.507  2.2247 -0.5736  1.8161
  203MOL0     H27990  14.118   7.684   0.266  1.3865 -0.7259  0.8589
  203MOL0     H27991  14.205   7.817   0.323 -0.4777  0.1004  2.2946
  203MOL0     H27992  13.976   7.957   0.302  1.2509  0.6187  0.2577
  203MOL0     H27993  13.926   7.821   0.208  1.2144 -1.0993 -1.6435
  203MOL0     H27994  13.367   7.313   0.614 -1.3531  2.2099 -2.0977
  203MOL0     H27995  13.131   7.261   0.589  1.0337 -0.4401 -0.9158
  203MOL0     H27996  12.727   7.264   0.775  1.2548  1.5760  1.0711
  203MOL0     H27997  12.480   7.253   0.797  1.1448 -0.4426  2.5379
  203MOL0     H27998  10.618   7.395   1.158  0.5243 -0.6312 -0.4852
  203MOL0     H27999  10.452   7.394   1.353  0.2325 -0.0701 -1.1897
  203MOL0     H28000  10.524   7.419   1.991  0.3772  2.9571  0.2333
  203MOL0     H28001  10.329   7.384   2.137  3.7708  1.2203 -0.1925
  203MOL0     H28002   9.933   7.508   2.007 -4.1106 -0.1939  0.5046
  203MOL0     H28003   9.914   7.347   1.938  2.1745 -0.0769 -1.3594
  203MOL0     H28004   9.884   7.268   2.201  3.3493 -0.1640 -1.5073
  203MOL0     H28005   9.750   7.360   2.121  0.2197 -1.2459 -0.5671
  203MOL0     H28006   9.957   7.485   2.291 -0.6007  1.0177  2.3643
  203MOL0     H28007   9.823   7.561   2.196 -1.1609 -1.1974 -0.6380
  203MOL0     H28008   9.654   7.447   2.346 -0.5505 -0.0320  1.1690
  203MOL0     H28009   9.758   7.533   2.443  0.4924 -0.5706 -0.7416
  203MOL0     H28010   9.775   7.123   2.562  0.1709 -0.8102 -0.8601
  203MOL0     H28011  10.054   7.461   1.806  0.5654  0.2633 -0.4507
  203MOL0     H28012  10.247   7.422   1.536 -1.4034  0.1729 -1.2064
  203MOL0     H28013  10.157   7.560   1.611  0.9530  1.3182  1.0528
  203MOL0     H28014  10.322   7.581   1.581  2.0089 -2.5875 -1.4165
  204MOL0     O28015  10.096   6.944   3.190 -0.5246  0.5378  0.5354
  204MOL0     C28016  10.184   7.030   3.197  0.9217  0.5765 -0.3101
  204MOL0     O28017  10.308   7.010   3.144 -0.2686 -0.7333 -0.4416
  204MOL0     C28018  10.320   6.889   3.084 -0.4456  0.1336 -0.1975
  204MOL0     C28019  10.416   6.804   3.139 -0.1712 -0.0331  0.0791
  204MOL0     C28020  10.435   6.678   3.077  0.7277 -0.1671 -1.1136
  204MOL0     C28021  10.368   6.641   2.957  0.3880  0.0975  0.4384
  204MOL0     O28022  10.399   6.518   2.897 -0.0403 -0.3703 -0.3527
  204MOL0     C28023  10.292   6.441   2.840  0.5657 -0.2010  0.3300
  204MOL0     C28024  10.292   6.420   2.687 -0.3023 -0.8100 -0.0146
  204MOL0     C28025  10.433   6.381   2.641  0.1274  0.3696  0.2644
  204MOL0     C28026  10.488   6.259   2.701 -0.0968  0.0686 -0.2614
  204MOL0     C28027  10.616   6.208   2.638  0.0133  0.1691  1.3464
  204MOL0     C28028  10.731   6.293   2.688 -0.7898 -0.9616 -1.1732
  204MOL0     C28029  10.870   6.252   2.622  0.2255  0.6274 -0.5174
  204MOL0     C28030  10.904   6.096   2.648 -0.3281 -0.3732 -0.7214
  204MOL0     N28031  11.044   6.079   2.619 -0.2342  0.3104 -0.0007
  204MOL0     C28032  11.146   6.079   2.716 -0.6420  0.0439  0.4162
  204MOL0     C28033  11.254   6.046   2.647 -0.0578  0.0880  0.1337
  204MOL0     C28034  11.401   6.040   2.685 -0.6600  0.1422  0.3516
  204MOL0     C28035  11.433   5.974   2.826  0.8545 -0.3614  0.0582
  204MOL0     C28036  11.475   5.829   2.831 -0.6575 -0.3452 -0.8617
  204MOL0     C28037  11.362   5.738   2.790  0.1474 -0.3961 -0.2266
  204MOL0     O28038  11.275   5.741   2.902 -0.1999 -0.1363  0.1611
  204MOL0     C28039  11.139   5.743   2.874 -0.2260  0.4304 -0.6390
  204MOL0     C28040  11.075   5.700   2.755 -0.3307  0.0097  0.0384
  204MOL0     C28041  10.948   5.737   2.726 -0.0690  0.2360 -0.3337
  204MOL0     C28042  10.904   5.728   2.573 -0.1083  0.0971 -1.1474
  204MOL0     C28043  10.860   5.782   2.830  0.6268 -0.2325 -0.4280
  204MOL0     C28044  10.720   5.836   2.814  0.1193  0.4697  1.4837
  204MOL0     O28045  10.639   5.771   2.716 -0.5452 -0.3516  0.5650
  204MOL0     C28046  10.520   5.828   2.674  0.3659 -0.9196 -1.2109
  204MOL0     C28047  10.505   5.855   2.536  0.6407  0.6840 -0.2805
  204MOL0     C28048  10.390   5.904   2.487 -0.1559  0.0947  0.4540
  204MOL0     C28049  10.279   5.938   2.566  0.5142  0.3615  0.7383
  204MOL0     O28050  10.158   5.996   2.524  0.5043  0.8570 -0.1674
  204MOL0     C28051  10.159   6.092   2.420 -0.3792  0.1773 -0.7819
  204MOL0     C28052  10.044   6.050   2.332 -0.1612  0.1247  0.4484
  204MOL0     C28053   9.909   6.075   2.390 -0.1394 -0.0568  0.2920
  204MOL0     C28054   9.809   5.990   2.323  0.8572  0.7045 -0.0731
  204MOL0     C28055   9.658   6.014   2.368 -0.9781 -0.1367  0.0979
  204MOL0     C28056   9.633   6.161   2.381  0.8098  0.6497 -0.2625
  204MOL0     C28057   9.488   6.201   2.398  0.0854 -0.0885  0.1615
  204MOL0     C28058   9.437   6.167   2.537  0.7906  0.0337  0.7347
  204MOL0    Cl28059   9.544   6.237   2.662 -0.7686  0.2344  0.0317
  204MOL0     C28060  10.294   5.909   2.702  0.6819  0.0738  0.7290
  204MOL0     C28061  10.415   5.855   2.755  0.0511  0.5241  0.1553
  204MOL0     O28062  10.681   5.924   2.890 -0.1070  0.3665  0.0074
  204MOL0     C28063  10.922   5.811   2.955  0.4734  0.0130 -0.7319
  204MOL0     C28064  11.058   5.800   2.972  0.1030 -0.1594 -0.1869
  204MOL0     N28065  11.209   6.020   2.519 -1.2374 -0.0139 -0.2415
  204MOL0     N28066  11.088   6.044   2.497  0.2645  0.0507  0.0710
  204MOL0     C28067  10.280   6.728   2.898 -0.5262 -0.2178 -0.3179
  204MOL0     C28068  10.256   6.854   2.961  0.4149  0.3051  0.3595
  204MOL0     C28069  10.145   7.160   3.255  0.0837 -0.0393  0.0122
  204MOL0     C28070  10.223   7.266   3.210  0.1381  0.5204 -0.1785
  204MOL0     C28071  10.192   7.404   3.230  0.2123 -0.1997 -0.5032
  204MOL0     C28072  10.094   7.437   3.327 -0.3385  0.9197  0.5388
  204MOL0     O28073  10.062   7.562   3.372  0.9205  0.0318  0.0439
  204MOL0     C28074  10.121   7.674   3.308  0.3017  0.2857 -0.2989
  204MOL0     C28075  10.081   7.715   3.169  0.2028 -0.1971  0.4858
  204MOL0     C28076  10.193   7.796   3.091  0.3776  0.2356  0.5507
  204MOL0     C28077  10.195   7.746   2.939  1.0023  0.4173  0.7202
  204MOL0     C28078  10.251   7.851   2.857  0.5696 -0.5160  0.2857
  204MOL0     C28079  10.305   7.939   2.795  0.3473 -0.3180 -1.0693
  204MOL0     C28080  10.023   7.331   3.386 -0.4033  0.2765 -0.2272
  204MOL0     C28081  10.044   7.194   3.351  0.5167 -0.1330 -0.0990
  204MOL0     C28082   9.956   7.091   3.423  0.0337  0.2622  0.1755
  204MOL0     H28083  10.486   6.841   3.213  2.3228 -1.1635 -1.5494
  204MOL0     H28084  10.502   6.606   3.124 -0.1366 -0.3273 -0.0905
  204MOL0     H28085  10.193   6.482   2.862 -0.7885 -1.1055 -3.3026
  204MOL0     H28086  10.291   6.343   2.889 -1.8412 -0.6837 -0.5462
  204MOL0     H28087  10.224   6.340   2.659  1.5073 -0.8597 -5.3928
  204MOL0     H28088  10.270   6.516   2.641  3.3680  1.9038  3.1127
  204MOL0     H28089  10.432   6.375   2.531  0.6769 -0.1048  0.2773
  204MOL0     H28090  10.498   6.466   2.661 -0.2644  1.1785 -1.6526
  204MOL0     H28091  10.497   6.281   2.807  0.1190  0.3995 -0.3466
  204MOL0     H28092  10.415   6.177   2.699  2.7278 -2.7429 -3.3296
  204MOL0     H28093  10.615   6.218   2.529 -1.5087 -0.1251  1.3114
  204MOL0     H28094  10.625   6.100   2.652  1.6283 -0.3325 -2.3874
  204MOL0     H28095  10.708   6.397   2.664  1.1034  0.9111  3.8870
  204MOL0     H28096  10.733   6.280   2.797  0.8926 -4.0509 -1.4532
  204MOL0     H28097  10.949   6.307   2.674 -0.5567  0.4445  0.9250
  204MOL0     H28098  10.869   6.284   2.517  2.0195 -0.6727 -0.9968
  204MOL0     H28099  10.888   6.068   2.753 -0.6670 -1.2028 -0.9835
  204MOL0     H28100  10.840   6.032   2.587 -0.0937 -0.2115 -1.1398
  204MOL0     H28101  11.142   6.125   2.814 -0.2025  0.0761  0.4227
  204MOL0     H28102  11.429   6.146   2.685  1.0604 -0.2178 -2.4550
  204MOL0     H28103  11.455   5.988   2.606 -2.0859 -2.0531  0.7485
  204MOL0     H28104  11.513   6.025   2.880  0.1548 -1.0062  1.7797
  204MOL0     H28105  11.336   5.988   2.875 -1.9544 -0.0239 -4.9605
  204MOL0     H28106  11.559   5.817   2.762 -0.7290 -0.2916 -0.9562
  204MOL0     H28107  11.502   5.808   2.935  0.9045 -0.3935 -1.2502
  204MOL0     H28108  11.321   5.770   2.693 -1.0640 -2.9055 -0.6412
  204MOL0     H28109  11.394   5.638   2.760  1.4808  0.5132 -2.0731
  204MOL0     H28110  11.124   5.646   2.674 -0.6130 -0.4627  0.1791
  204MOL0     H28111  10.872   5.825   2.534  0.3220  0.5533 -0.3941
  204MOL0     H28112  10.824   5.654   2.570  0.7388 -0.9404  0.2400
  204MOL0     H28113  10.982   5.698   2.502  0.5302  1.2440 -0.9521
  204MOL0     H28114  10.594   5.836   2.476  1.1934 -0.3670  0.8268
  204MOL0     H28115  10.381   5.925   2.381 -0.8150  0.1453  0.5139
  204MOL0     H28116  10.143   6.190   2.465 -3.1821 -0.7859  0.5679
  204MOL0     H28117  10.254   6.091   2.366  0.6437 -2.7949  0.8095
  204MOL0     H28118  10.038   6.108   2.240 -0.1121  0.3983  0.6144
  204MOL0     H28119  10.062   5.948   2.298 -0.2078 -0.3179  1.7030
  204MOL0     H28120   9.890   6.183   2.384  3.0723  0.5371 -1.9220
  204MOL0     H28121   9.892   6.048   2.494 -1.2545  0.0894  0.1599
  204MOL0     H28122   9.833   5.885   2.342  1.4580  0.0485 -3.7486
  204MOL0     H28123   9.811   6.002   2.214 -4.5655  1.2326 -0.4038
  204MOL0     H28124   9.604   5.976   2.281 -0.1092 -0.4682 -0.3043
  204MOL0     H28125   9.624   5.965   2.459  0.0452  2.2820  1.8850
  204MOL0     H28126   9.653   6.208   2.284 -0.4592 -0.7679 -1.2491
  204MOL0     H28127   9.701   6.197   2.459 -0.4101 -0.9828  1.6734
  204MOL0     H28128   9.417   6.150   2.333 -1.4634 -0.3390  1.9671
  204MOL0     H28129   9.472   6.308   2.383  2.1534  0.4946  1.6644
  204MOL0     H28130   9.440   6.058   2.545  1.6535 -0.1738 -1.6490
  204MOL0     H28131   9.335   6.199   2.561 -0.6652 -4.8452  2.0970
  204MOL0     H28132  10.217   5.926   2.777  2.4639  1.4138  2.3816
  204MOL0     H28133  10.407   5.827   2.860 -2.8667 -2.5297 -0.7076
  204MOL0     H28134  10.866   5.853   3.038  5.0911 -0.0331  2.7903
  204MOL0     H28135  11.089   5.832   3.071 -2.1498 -4.0105  2.0030
  204MOL0     H28136  10.219   6.696   2.813 -0.9930  0.3108 -0.1907
  204MOL0     H28137  10.185   6.918   2.909 -0.9759 -1.2370  0.2945
  204MOL0     H28138  10.310   7.258   3.145  0.8956  2.4205  0.5496
  204MOL0     H28139  10.255   7.477   3.181  1.8865  0.8525  2.8867
  204MOL0     H28140  10.092   7.753   3.378  2.3620  0.6832  0.1455
  204MOL0     H28141  10.230   7.669   3.314  0.3022 -0.0126 -0.5265
  204MOL0     H28142   9.982   7.761   3.159  0.9495  1.0408 -2.6449
  204MOL0     H28143  10.068   7.621   3.113 -1.6846 -0.2408  0.9100
  204MOL0     H28144  10.169   7.902   3.097  2.2897  0.7855 -0.6120
  204MOL0     H28145  10.291   7.788   3.140  0.1173  0.7642  1.1766
  204MOL0     H28146  10.096   7.717   2.901  0.6536 -0.1470  1.9838
  204MOL0     H28147  10.259   7.659   2.919  2.2705  1.5905 -0.5012
  204MOL0     H28148  10.356   8.010   2.734 -2.0968  2.2538 -0.3338
  204MOL0     H28149   9.938   7.352   3.451 -2.0060 -2.4940 -1.2776
  204MOL0     H28150   9.935   7.124   3.526  2.3937  0.4534  0.6534
  204MOL0     H28151   9.868   7.062   3.365 -0.7048  1.7568  0.4866
  204MOL0     H28152  10.014   7.001   3.445 -1.1439 -0.1978  1.6058
  205MOL0     O28153   1.734   9.942   6.045 -0.4797 -0.0108  0.2803
  205MOL0     C28154   1.680   9.848   5.980  0.6402 -0.8792  0.6546
  205MOL0     O28155   1.738   9.740   5.924 -0.2002  0.2000 -0.0756
  205MOL0     C28156   1.875   9.725   5.902  1.0529 -0.4862 -0.4595
  205MOL0     C28157   1.976   9.807   5.943  1.0306  0.5022  0.5554
  205MOL0     C28158   2.108   9.775   5.922 -0.7411  0.3876  0.0090
  205MOL0     C28159   2.143   9.673   5.828 -0.3540  0.0214 -0.3779
  205MOL0     O28160   2.276   9.643   5.803  0.5678 -0.5269  0.3373
  205MOL0     C28161   2.310   9.694   5.673  0.4201 -0.0085 -0.1744
  205MOL0     C28162   2.349   9.842   5.660 -0.0241  0.1411 -1.3491
  205MOL0     C28163   2.454   9.888   5.770  0.2996  0.9245 -0.7842
  205MOL0     C28164   2.599   9.875   5.716  0.1248  0.2091  0.2955
  205MOL0     C28165   2.709   9.918   5.815  0.2756 -0.2318 -0.2255
  205MOL0     C28166   2.854   9.885   5.761  0.6411 -0.1522 -0.2546
  205MOL0     C28167   2.955   9.935   5.856  0.0658  0.3746 -0.6506
  205MOL0     C28168   2.952   9.872   5.993 -0.0906 -0.1072 -0.4414
  205MOL0     N28169   3.074   9.878   6.072  0.1521  0.1672  0.3115
  205MOL0     C28170   3.132   9.778   6.135  0.5419 -0.2129 -0.1219
  205MOL0     C28171   3.244   9.817   6.194 -0.0017 -0.6078  0.0975
  205MOL0     C28172   3.338   9.728   6.257  0.0786  0.1380  0.3420
  205MOL0     C28173   3.456   9.812   6.312  0.9694  0.8159  0.6663
  205MOL0     C28174   3.410   9.890   6.441 -0.4788 -0.7651 -0.3547
  205MOL0     C28175   3.530   9.962   6.504 -1.0538  0.6957 -0.5697
  205MOL0     O28176   3.514  10.001   6.640  0.1313 -0.0058 -0.1201
  205MOL0     C28177   3.616  10.022   6.723  0.0446  0.5471 -1.3674
  205MOL0     C28178   3.590  10.019   6.861  0.1623 -0.2415  1.1101
  205MOL0     C28179   3.686  10.027   6.967 -0.0506 -0.2504 -0.5859
  205MOL0     C28180   3.643  10.037   7.115 -1.2000  0.4677 -0.0262
  205MOL0     C28181   3.815  10.060   6.925  0.7565 -0.0148 -0.3433
  205MOL0     C28182   3.924  10.110   7.012 -0.1165 -0.1164  0.0771
  205MOL0     O28183   3.957  10.241   7.004 -0.8510  0.0946  0.8095
  205MOL0     C28184   4.074  10.266   7.078  0.3987  0.2591  0.3486
  205MOL0     C28185   4.070  10.288   7.222  0.3295  0.8614  0.2588
  205MOL0     C28186   4.197  10.293   7.287  0.1910  0.0828  0.7058
  205MOL0     C28187   4.313  10.279   7.214  0.0482  0.5429  0.5915
  205MOL0     O28188   4.436  10.252   7.273 -0.0717  0.2687  0.2515
  205MOL0     C28189   4.445  10.211   7.410  0.5027 -0.5454  0.3520
  205MOL0     C28190   4.597  10.172   7.433  0.6934  0.0479  0.3702
  205MOL0     C28191   4.634  10.122   7.578  0.4242 -0.6152  0.0799
  205MOL0     C28192   4.769  10.059   7.590  0.3382  0.8532  0.2796
  205MOL0     C28193   4.869  10.129   7.682 -0.9326 -0.2530  0.0318
  205MOL0     C28194   4.901  10.048   7.806 -0.4431 -0.4650 -0.2859
  205MOL0     C28195   4.792  10.015   7.899 -0.0519  0.1033 -0.3167
  205MOL0     C28196   4.702  10.126   7.957 -0.1921  1.3166 -0.7887
  205MOL0    Cl28197   4.766  10.172   8.120  0.3062  0.5520  0.1756
  205MOL0     C28198   4.310  10.273   7.079 -0.0082  0.7212  0.1565
  205MOL0     C28199   4.193  10.266   7.011 -1.1056  0.5671 -0.4874
  205MOL0     O28200   3.981  10.022   7.077  0.5169 -0.3608 -0.3321
  205MOL0     C28201   3.839  10.078   6.785  0.5554 -0.1522  0.6100
  205MOL0     C28202   3.744  10.058   6.684  0.6675  0.6033 -0.1194
  205MOL0     N28203   3.250   9.951   6.164  0.0413 -0.2947  0.9567
  205MOL0     N28204   3.142   9.987   6.088  0.3355 -0.0853 -0.4084
  205MOL0     C28205   2.036   9.604   5.766 -0.9965 -1.1537 -0.1368
  205MOL0     C28206   1.905   9.626   5.806 -0.6896 -0.5870 -0.1788
  205MOL0     C28207   1.526   9.830   5.980 -0.1143 -1.0949 -1.3170
  205MOL0     C28208   1.472   9.704   5.980 -0.6438 -0.9740 -0.8185
  205MOL0     C28209   1.336   9.678   5.995 -1.2677  0.4112  0.4070
  205MOL0     C28210   1.245   9.789   6.015 -0.2063  0.8002  0.0763
  205MOL0     O28211   1.110   9.753   6.033 -0.5481 -0.4467  0.3196
  205MOL0     C28212   1.012   9.857   6.061  0.8933  0.7518  0.1515
  205MOL0     C28213   0.900   9.816   6.161 -0.4639  0.2562  0.3567
  205MOL0     C28214   0.810   9.714   6.096 -0.7500  0.6220 -1.4812
  205MOL0     C28215   0.685   9.683   6.174 -0.2514  0.2711 -0.1971
  205MOL0     C28216   0.635   9.548   6.149 -0.6115  0.2278 -0.2606
  205MOL0     C28217   0.606   9.439   6.113 -0.2606  0.2149  0.0671
  205MOL0     C28218   1.301   9.918   6.019 -0.1287  0.0512  0.0174
  205MOL0     C28219   1.439   9.941   5.989  1.2619  0.2612  0.8056
  205MOL0     C28220   1.478  10.081   5.958 -0.3468  0.2746 -0.3163
  205MOL0     H28221   1.951   9.895   6.001  0.6369  0.8042 -0.0535
  205MOL0     H28222   2.185   9.838   5.967 -1.1048  0.8442 -0.0066
  205MOL0     H28223   2.232   9.682   5.596  0.7271  2.9768 -1.0784
  205MOL0     H28224   2.387   9.629   5.630  0.1921 -0.3432 -0.0886
  205MOL0     H28225   2.394   9.870   5.564  0.1031  0.7050 -1.1283
  205MOL0     H28226   2.259   9.903   5.667  0.8609  1.3087  1.1479
  205MOL0     H28227   2.425   9.986   5.808  1.6959  0.7020  0.9718
  205MOL0     H28228   2.443   9.824   5.857 -1.1756 -0.5076 -1.9683
  205MOL0     H28229   2.618   9.775   5.675 -2.2926 -0.0355 -0.4369
  205MOL0     H28230   2.610   9.938   5.627  0.1272 -0.1997 -0.0004
  205MOL0     H28231   2.684   9.877   5.913 -0.3240  0.7174  0.0283
  205MOL0     H28232   2.713  10.026   5.830 -0.9479 -0.1458 -0.3805
  205MOL0     H28233   2.882   9.780   5.760  3.3382  0.4972 -0.1815
  205MOL0     H28234   2.877   9.940   5.669 -1.0273  1.5761  0.2757
  205MOL0     H28235   2.972  10.041   5.875  0.8873  0.1565 -0.1307
  205MOL0     H28236   3.051   9.903   5.813  1.2512 -0.5094  2.3967
  205MOL0     H28237   2.872   9.908   6.058  2.2693  0.8352  2.1206
  205MOL0     H28238   2.929   9.765   5.986  2.3537 -1.0731  3.2308
  205MOL0     H28239   3.104   9.673   6.128 -0.0626  0.0490 -2.6046
  205MOL0     H28240   3.364   9.653   6.182  1.3965  0.7480  0.1596
  205MOL0     H28241   3.297   9.672   6.341  2.3723 -0.3070  1.2264
  205MOL0     H28242   3.528   9.739   6.349  0.1099  0.6048  2.0079
  205MOL0     H28243   3.504   9.874   6.236 -1.2954  1.3542 -0.4011
  205MOL0     H28244   3.331   9.961   6.418  0.9547  1.3943  0.9543
  205MOL0     H28245   3.374   9.817   6.514  2.4243 -3.0304 -0.9658
  205MOL0     H28246   3.618   9.901   6.486 -0.6679  1.7495 -2.5026
  205MOL0     H28247   3.539  10.058   6.451 -0.0443 -0.3762 -2.4093
  205MOL0     H28248   3.486   9.996   6.884  0.3317  0.4680  2.7231
  205MOL0     H28249   3.549   9.987   7.139  0.6107 -1.7062  3.2979
  205MOL0     H28250   3.639  10.140   7.153  0.9379  0.6990 -0.2616
  205MOL0     H28251   3.717   9.978   7.169  0.1047  0.0992 -2.1017
  205MOL0     H28252   3.976  10.299   7.274  1.2900 -0.5515  2.5006
  205MOL0     H28253   4.202  10.315   7.393  1.1323 -0.4952  0.7918
  205MOL0     H28254   4.426  10.300   7.470 -0.6621 -1.1123  0.8729
  205MOL0     H28255   4.364  10.143   7.439 -0.2934  1.0478  2.0519
  205MOL0     H28256   4.619  10.086   7.368 -0.5621 -1.2484  1.5775
  205MOL0     H28257   4.661  10.258   7.411 -2.2829  2.7069  1.4161
  205MOL0     H28258   4.558  10.049   7.609 -1.5826  0.5862 -1.7498
  205MOL0     H28259   4.617  10.212   7.637 -1.1759 -0.5570 -0.4276
  205MOL0     H28260   4.810  10.055   7.488 -1.9372 -1.9891 -0.6533
  205MOL0     H28261   4.753   9.955   7.617 -1.7799  0.7401 -1.1378
  205MOL0     H28262   4.968  10.153   7.641 -1.3821  0.6919 -0.5103
  205MOL0     H28263   4.835  10.223   7.725  0.9903  0.6897 -0.3594
  205MOL0     H28264   4.967  10.106   7.870  1.0744 -3.3653  0.9487
  205MOL0     H28265   4.960   9.961   7.778 -1.5960 -0.6667 -2.3521
  205MOL0     H28266   4.845   9.972   7.985  2.3722 -0.4871 -1.9986
  205MOL0     H28267   4.735   9.941   7.842  2.4502  0.1135 -3.1182
  205MOL0     H28268   4.599  10.091   7.966  0.8749 -2.0330 -0.3067
  205MOL0     H28269   4.696  10.213   7.891  0.1384  2.1323  0.2228
  205MOL0     H28270   4.399  10.262   7.018 -0.6616 -2.2254 -0.3791
  205MOL0     H28271   4.199  10.262   6.903  1.1891 -1.6627 -0.3773
  205MOL0     H28272   3.938  10.106   6.750  0.0787  0.3494 -0.3810
  205MOL0     H28273   3.758  10.101   6.586 -1.2841  2.1711  0.2370
  205MOL0     H28274   2.057   9.539   5.681  1.5634  0.8239 -1.1660
  205MOL0     H28275   1.826   9.580   5.747 -1.6163 -0.2323  0.7409
  205MOL0     H28276   1.538   9.619   5.965 -0.1819 -0.9593  0.9050
  205MOL0     H28277   1.297   9.578   5.982 -1.3000  0.7255 -2.5433
  205MOL0     H28278   1.065   9.945   6.099  4.0496 -0.4568 -1.1474
  205MOL0     H28279   0.959   9.877   5.967  1.3689 -1.4034 -0.6254
  205MOL0     H28280   0.850   9.907   6.193  0.9780  0.9368  0.7923
  205MOL0     H28281   0.947   9.769   6.248  0.6607  2.0202  0.7420
  205MOL0     H28282   0.781   9.745   5.995  0.5914 -1.6395 -2.6293
  205MOL0     H28283   0.873   9.625   6.093 -2.2678 -0.5574 -0.1160
  205MOL0     H28284   0.608   9.755   6.147  1.7218  2.9052  0.7319
  205MOL0     H28285   0.695   9.705   6.281 -0.3994 -1.7296  0.2729
  205MOL0     H28286   0.581   9.346   6.066  1.6749 -1.6300  2.4596
  205MOL0     H28287   1.233  10.001   6.032 -2.1042 -1.4229 -0.3514
  205MOL0     H28288   1.580  10.090   5.918 -0.2292 -0.0939 -0.1011
  205MOL0     H28289   1.411  10.122   5.882  1.3578  1.5827 -1.1907
  205MOL0     H28290   1.471  10.133   6.054 -0.7953  0.4140 -0.4218
  206MOL0     O28291   5.927   6.919   4.714  0.5268 -0.5229 -0.5761
  206MOL0     C28292   5.853   6.822   4.735 -0.0321 -0.1567 -0.6757
  206MOL0     O28293   5.813   6.783   4.862 -0.5743  0.0126 -0.0072
  206MOL0     C28294   5.860   6.854   4.968 -0.3919 -0.4201  0.0674
  206MOL0     C28295   5.801   6.975   5.018  0.2592 -0.3647  0.8961
  206MOL0     C28296   5.847   7.034   5.133  0.2308  0.1964 -0.1479
  206MOL0     C28297   5.950   6.984   5.209  0.0109  0.8181  0.0958
  206MOL0     O28298   5.993   7.034   5.329 -0.0806 -0.7338  0.2536
  206MOL0     C28299   5.980   7.182   5.346  0.9107  0.1087  0.0839
  206MOL0     C28300   6.104   7.236   5.411 -0.7246 -0.3569 -0.0029
  206MOL0     C28301   6.240   7.218   5.325  0.5986 -0.4946  0.6560
  206MOL0     C28302   6.313   7.355   5.327  0.4874  0.4504  0.4668
  206MOL0     C28303   6.437   7.350   5.238 -0.1141 -0.7426 -0.9372
  206MOL0     C28304   6.522   7.479   5.245 -0.3746  0.6675 -0.1409
  206MOL0     C28305   6.586   7.493   5.388  0.3379  0.1572 -1.0865
  206MOL0     C28306   6.711   7.575   5.381 -0.7616  0.3251  0.7089
  206MOL0     N28307   6.780   7.562   5.508 -0.7221  0.0635 -0.4292
  206MOL0     C28308   6.871   7.450   5.534  0.2617  0.1435 -0.3765
  206MOL0     C28309   6.928   7.478   5.647 -0.0869 -0.7660  1.4462
  206MOL0     C28310   7.027   7.386   5.721 -0.3357  0.5013  0.7621
  206MOL0     C28311   7.160   7.397   5.661  0.5863 -0.0265 -0.5149
  206MOL0     C28312   7.226   7.527   5.687 -0.5506 -0.1059 -0.1097
  206MOL0     C28313   7.347   7.552   5.598 -0.0535  0.2499 -0.0163
  206MOL0     O28314   7.451   7.451   5.609 -0.5505 -0.1922 -0.1010
  206MOL0     C28315   7.577   7.463   5.542  0.0337 -0.2274  0.0169
  206MOL0     C28316   7.674   7.378   5.584 -0.2967  0.4378 -0.1142
  206MOL0     C28317   7.802   7.372   5.528 -0.2516 -0.3163 -0.1213
  206MOL0     C28318   7.907   7.275   5.595 -0.5125 -0.0738  0.3249
  206MOL0     C28319   7.838   7.457   5.420 -1.0452  0.5055 -1.0442
  206MOL0     C28320   7.967   7.470   5.345 -0.3351  0.9701 -0.4089
  206MOL0     O28321   7.972   7.562   5.242 -0.2946  0.0535  0.8709
  206MOL0     C28322   8.078   7.567   5.160 -0.6077 -0.2069  0.0675
  206MOL0     C28323   8.130   7.695   5.136 -0.3598  0.9309 -0.2388
  206MOL0     C28324   8.242   7.720   5.071 -0.4621  0.5368 -0.2662
  206MOL0     C28325   8.325   7.610   5.031  0.0353  0.1964  0.1716
  206MOL0     O28326   8.448   7.620   4.964 -0.0496  0.6838 -0.4262
  206MOL0     C28327   8.509   7.745   4.937  0.0691  0.0194 -0.3741
  206MOL0     C28328   8.617   7.714   4.849 -1.4180  0.2432  0.4156
  206MOL0     C28329   8.706   7.827   4.797 -0.2539  0.0724 -0.7727
  206MOL0     C28330   8.765   7.779   4.669 -0.1889  0.1922  0.2779
  206MOL0     C28331   8.891   7.866   4.630 -0.0760 -0.0248 -0.4855
  206MOL0     C28332   8.972   7.817   4.509  0.4545 -0.0251 -0.0176
  206MOL0     C28333   9.086   7.910   4.481 -0.1169 -0.2361 -0.0777
  206MOL0     C28334   9.193   7.831   4.413  0.2678 -0.5915 -0.6620
  206MOL0    Cl28335   9.279   7.719   4.526  0.5598  0.1543  0.1610
  206MOL0     C28336   8.276   7.477   5.053 -0.0897  1.0278  0.0842
  206MOL0     C28337   8.152   7.457   5.111 -0.5835 -0.7947 -0.1778
  206MOL0     O28338   8.061   7.391   5.366 -0.0541 -0.4559 -0.5408
  206MOL0     C28339   7.732   7.550   5.379  0.0170  0.1912  0.9903
  206MOL0     C28340   7.608   7.554   5.441 -0.3586 -0.6183 -0.5852
  206MOL0     N28341   6.873   7.601   5.689 -0.0174  0.1269 -0.4545
  206MOL0     N28342   6.783   7.650   5.611 -0.9481  0.6214  0.4603
  206MOL0     C28343   6.010   6.864   5.162  0.1049 -0.8256 -0.3904
  206MOL0     C28344   5.977   6.803   5.039 -0.6579  0.1545  0.6831
  206MOL0     C28345   5.785   6.749   4.627 -0.1373 -0.6240  0.0558
  206MOL0     C28346   5.707   6.640   4.659 -0.3802 -0.3986  0.3685
  206MOL0     C28347   5.649   6.561   4.566 -0.5157 -0.2561  0.8330
  206MOL0     C28348   5.633   6.605   4.435 -0.1051  0.1214  0.2286
  206MOL0     O28349   5.549   6.553   4.342 -0.3065  0.4526 -0.3255
  206MOL0     C28350   5.440   6.464   4.383 -0.4930  0.7901 -0.3949
  206MOL0     C28351   5.334   6.527   4.472 -0.3067  0.2991 -0.1430
  206MOL0     C28352   5.233   6.430   4.524 -0.6913  0.4598 -0.4213
  206MOL0     C28353   5.148   6.375   4.405  0.2909  0.1445 -0.3408
  206MOL0     C28354   5.040   6.287   4.461  0.3580 -0.2239 -0.3102
  206MOL0     C28355   4.965   6.208   4.509 -0.1476  0.8348 -0.7626
  206MOL0     C28356   5.717   6.709   4.397  0.7922  0.1942  0.6396
  206MOL0     C28357   5.796   6.782   4.489  0.0968  0.0806 -0.0310
  206MOL0     C28358   5.898   6.882   4.437 -0.5006  0.3058  0.2105
  206MOL0     H28359   5.710   7.005   4.968  1.4584 -2.7076 -3.1781
  206MOL0     H28360   5.799   7.129   5.156  0.2736  0.2445 -0.2549
  206MOL0     H28361   5.895   7.213   5.407  1.1952  2.7990 -0.7809
  206MOL0     H28362   5.973   7.230   5.249 -0.2615 -0.6529 -0.2269
  206MOL0     H28363   6.091   7.344   5.428 -0.5593 -0.3277 -0.0644
  206MOL0     H28364   6.118   7.183   5.505  2.6951  0.3457  0.0209
  206MOL0     H28365   6.303   7.142   5.370  0.9563  0.1114  1.2004
  206MOL0     H28366   6.223   7.196   5.219 -1.1082 -0.2350  0.8430
  206MOL0     H28367   6.255   7.432   5.275  1.3870  1.0431  0.3218
  206MOL0     H28368   6.333   7.380   5.431 -1.2515  0.8645  0.7339
  206MOL0     H28369   6.413   7.317   5.137  0.9778 -1.4859 -0.9697
  206MOL0     H28370   6.501   7.273   5.281 -1.2980 -2.5861 -2.3639
  206MOL0     H28371   6.604   7.473   5.172 -0.2663 -0.8965  0.0676
  206MOL0     H28372   6.456   7.562   5.220 -1.3653  0.1790  0.7792
  206MOL0     H28373   6.623   7.395   5.421  2.7672  1.2730 -0.2680
  206MOL0     H28374   6.514   7.530   5.461 -1.0081 -3.1602 -0.5370
  206MOL0     H28375   6.772   7.525   5.305  1.0236 -0.1873  2.3959
  206MOL0     H28376   6.680   7.679   5.365 -0.7220  0.7234  2.8980
  206MOL0     H28377   6.863   7.361   5.472 -2.1577 -0.0139  0.0505
  206MOL0     H28378   6.977   7.290   5.726 -1.6580  1.2348  2.2228
  206MOL0     H28379   7.035   7.412   5.827 -1.0389 -0.3004  1.0223
  206MOL0     H28380   7.227   7.320   5.700  0.6237  0.9715  1.5124
  206MOL0     H28381   7.144   7.386   5.553 -1.1770 -1.5086 -0.1586
  206MOL0     H28382   7.149   7.603   5.670 -3.4510 -2.1751  2.5566
  206MOL0     H28383   7.252   7.530   5.793  0.8614  1.6874 -0.4582
  206MOL0     H28384   7.318   7.562   5.493  2.3871  0.7548 -0.7169
  206MOL0     H28385   7.389   7.651   5.617 -0.1997  0.3849 -0.3754
  206MOL0     H28386   7.662   7.296   5.655  2.4687 -0.1318 -0.1742
  206MOL0     H28387   7.898   7.179   5.544  0.8917 -0.0337 -0.0675
  206MOL0     H28388   7.873   7.265   5.698 -0.1200  3.9066  1.0280
  206MOL0     H28389   8.014   7.300   5.595 -1.0603  2.5590  1.3152
  206MOL0     H28390   8.060   7.773   5.165 -1.4244 -0.8967  2.5811
  206MOL0     H28391   8.287   7.817   5.052 -1.0981  0.9840  0.4960
  206MOL0     H28392   8.435   7.802   4.880 -0.5459  0.1718  0.5605
  206MOL0     H28393   8.534   7.797   5.030 -1.2191 -0.8409  0.4970
  206MOL0     H28394   8.685   7.633   4.878  1.1240  1.6635 -1.1800
  206MOL0     H28395   8.571   7.672   4.759  1.4081 -1.5676 -0.3296
  206MOL0     H28396   8.784   7.858   4.867  2.9409 -0.0049 -3.9840
  206MOL0     H28397   8.647   7.916   4.773 -0.0577  0.7476  1.0955
  206MOL0     H28398   8.688   7.776   4.591 -0.2596 -0.8590  0.3656
  206MOL0     H28399   8.808   7.679   4.681  3.4501  1.5492 -0.1470
  206MOL0     H28400   8.861   7.971   4.616  1.8326  0.6350  0.0374
  206MOL0     H28401   8.962   7.863   4.712  2.0713 -1.7554 -2.2789
  206MOL0     H28402   8.913   7.822   4.418  1.3468  1.2475 -0.5637
  206MOL0     H28403   9.000   7.711   4.510 -1.0691 -0.5284 -2.5114
  206MOL0     H28404   9.129   7.953   4.572 -0.7317 -0.0842  0.1499
  206MOL0     H28405   9.054   7.998   4.425  0.9252  0.3295  0.1963
  206MOL0     H28406   9.258   7.901   4.361 -0.2003  2.8331  2.8471
  206MOL0     H28407   9.152   7.771   4.332 -1.6244  1.6607 -1.4935
  206MOL0     H28408   8.328   7.395   5.004  0.6657  1.9368 -0.6819
  206MOL0     H28409   8.099   7.362   5.114 -2.8593  0.4145 -0.0021
  206MOL0     H28410   7.752   7.619   5.297  0.7346 -0.9957  0.1253
  206MOL0     H28411   7.532   7.621   5.402 -1.5464 -2.6906 -1.9750
  206MOL0     H28412   6.090   6.825   5.224  1.2901 -1.0391 -1.9963
  206MOL0     H28413   6.027   6.711   5.012  1.8043  0.6974  3.0400
  206MOL0     H28414   5.686   6.619   4.763 -0.3925 -0.2033  0.4060
  206MOL0     H28415   5.594   6.477   4.605 -2.8007  1.1068  0.6921
  206MOL0     H28416   5.389   6.431   4.291 -1.7157  0.1495  0.4834
  206MOL0     H28417   5.476   6.373   4.431  1.1102  2.0839  0.9661
  206MOL0     H28418   5.289   6.612   4.419 -0.1627 -0.0372 -0.8163
  206MOL0     H28419   5.391   6.574   4.552  2.4061 -1.7781 -0.7079
  206MOL0     H28420   5.276   6.339   4.569 -2.7580 -0.0147  0.7203
  206MOL0     H28421   5.174   6.489   4.594  0.2538 -0.8619  1.6278
  206MOL0     H28422   5.207   6.308   4.341 -0.4735 -0.4945 -0.3953
  206MOL0     H28423   5.100   6.458   4.354 -3.9786  1.3637  4.8300
  206MOL0     H28424   4.894   6.149   4.565  2.1174  0.1746  1.6456
  206MOL0     H28425   5.695   6.739   4.296 -1.6514 -0.7301  0.8252
  206MOL0     H28426   6.003   6.865   4.461  0.2242 -1.9107 -3.6761
  206MOL0     H28427   5.895   6.882   4.328  0.1196  0.3814  0.1899
  206MOL0     H28428   5.868   6.986   4.451  0.6980  0.5916  0.8286
  207MOL0     O28429  11.023   9.296   5.399 -0.1008 -0.1744  0.0467
  207MOL0     C28430  10.931   9.221   5.362 -0.2976  0.2872 -0.6353
  207MOL0     O28431  10.951   9.098   5.304  0.0667 -0.1669 -0.5020
  207MOL0     C28432  11.074   9.032   5.299 -0.3453  0.1372  0.0535
  207MOL0     C28433  11.078   8.925   5.212  0.1973 -0.3099 -0.3353
  207MOL0     C28434  11.203   8.849   5.193 -0.2718 -0.4893  0.4962
  207MOL0     C28435  11.318   8.880   5.274  0.2174  0.3942 -0.4171
  207MOL0     O28436  11.435   8.806   5.279  0.1242 -0.1976  0.1144
  207MOL0     C28437  11.465   8.728   5.168 -1.2547 -0.3436  0.3728
  207MOL0     C28438  11.595   8.673   5.213 -0.4903  0.2149 -0.2803
  207MOL0     C28439  11.678   8.627   5.097  0.1905 -1.2853  0.5736
  207MOL0     C28440  11.813   8.571   5.147  0.0940  0.0661  0.3472
  207MOL0     C28441  11.903   8.506   5.039  0.0660 -0.1826  0.8048
  207MOL0     C28442  12.031   8.451   5.095  0.7935 -0.3649  0.1633
  207MOL0     C28443  12.116   8.388   4.997 -0.0948 -0.0877 -0.5255
  207MOL0     C28444  12.190   8.498   4.909 -0.1887 -0.1887  0.1336
  207MOL0     N28445  12.258   8.419   4.801  0.0343 -1.1253  0.0391
  207MOL0     C28446  12.337   8.495   4.701 -0.3487 -0.4648 -0.2545
  207MOL0     C28447  12.395   8.390   4.625  0.2373 -0.4661  0.2036
  207MOL0     C28448  12.485   8.417   4.505 -0.0476  0.0346  0.4140
  207MOL0     C28449  12.398   8.456   4.380  0.4692 -0.7563 -0.9548
  207MOL0     C28450  12.451   8.384   4.256  0.7139  0.0233 -0.2981
  207MOL0     C28451  12.597   8.402   4.231 -1.0764  0.7128  0.5567
  207MOL0     O28452  12.626   8.311   4.123  0.3617  0.0409  0.3068
  207MOL0     C28453  12.753   8.293   4.085  0.2245  0.2587 -0.6123
  207MOL0     C28454  12.860   8.363   4.125  0.1784 -0.2427 -0.3920
  207MOL0     C28455  12.978   8.350   4.052 -0.0718 -0.5940 -0.9106
  207MOL0     C28456  13.098   8.428   4.111  0.6156 -0.8554  0.7556
  207MOL0     C28457  12.995   8.262   3.944  0.1229 -0.2687 -0.3625
  207MOL0     C28458  13.125   8.252   3.868 -0.0384  0.5817 -0.6256
  207MOL0     O28459  13.140   8.132   3.793 -0.5195  0.9099  0.2236
  207MOL0     C28460  13.268   8.103   3.732 -0.1757 -0.1168 -0.5175
  207MOL0     C28461  13.286   7.965   3.699  0.0380 -0.3326 -1.3786
  207MOL0     C28462  13.394   7.914   3.625  0.1538 -0.6237 -0.2559
  207MOL0     C28463  13.491   8.005   3.582 -0.0643  0.6939 -0.5920
  207MOL0     O28464  13.588   7.941   3.521 -0.4648 -0.1109 -0.3497
  207MOL0     C28465  13.687   8.022   3.461  0.1884 -0.2390  0.0721
  207MOL0     C28466  13.780   7.935   3.390  0.0888  0.7645  0.4152
  207MOL0     C28467  13.726   7.887   3.260  0.9815  0.3312  0.2081
  207MOL0     C28468  13.810   7.782   3.196  0.0479 -0.0912  0.3382
  207MOL0     C28469  13.765   7.758   3.055 -0.1303  0.3217 -0.5053
  207MOL0     C28470  13.829   7.639   2.997 -0.3409  0.3315  0.1191
  207MOL0     C28471  13.766   7.597   2.866  0.1701 -0.1968 -0.1971
  207MOL0     C28472  13.827   7.465   2.811 -0.0699 -0.7044  0.3513
  207MOL0    Cl28473  13.991   7.487   2.767  0.1622 -0.0513 -0.0677
  207MOL0     C28474  13.479   8.147   3.613  0.2405  0.3343  0.0209
  207MOL0     C28475  13.366   8.193   3.683  0.4907 -0.2020 -0.0543
  207MOL0     O28476  13.202   8.343   3.864 -0.0152 -0.1089 -0.1671
  207MOL0     C28477  12.884   8.180   3.918  0.7769  0.1596  0.8378
  207MOL0     C28478  12.765   8.201   3.981  0.6166 -0.4183 -0.0329
  207MOL0     N28479  12.348   8.270   4.676 -0.9026  0.0635  0.2126
  207MOL0     N28480  12.268   8.288   4.784 -0.0007 -0.1533  0.4989
  207MOL0     C28481  11.297   8.976   5.380  0.0636 -0.4464  0.3392
  207MOL0     C28482  11.180   9.051   5.382 -0.2477  0.7917 -0.5939
  207MOL0     C28483  10.797   9.277   5.389  0.3826  0.0636  0.3349
  207MOL0     C28484  10.700   9.205   5.317  0.1874 -0.7996 -0.1658
  207MOL0     C28485  10.571   9.254   5.327 -0.3242  0.7694 -0.0294
  207MOL0     C28486  10.538   9.366   5.397 -0.3849  0.0333  0.3832
  207MOL0     O28487  10.414   9.413   5.402 -0.0884 -0.0278 -0.2580
  207MOL0     C28488  10.327   9.326   5.472  0.0917 -0.3795  0.0425
  207MOL0     C28489  10.179   9.380   5.450 -0.3673 -0.3316 -0.7179
  207MOL0     C28490  10.152   9.500   5.545 -0.6385 -0.1895 -0.0753
  207MOL0     C28491  10.010   9.537   5.572 -0.2081  0.0276  0.5896
  207MOL0     C28492   9.954   9.629   5.474 -0.0650 -0.2776 -0.5369
  207MOL0     C28493   9.894   9.720   5.414  0.4771  0.5554  0.1191
  207MOL0     C28494  10.629   9.432   5.473 -0.5852  0.6701  0.5465
  207MOL0     C28495  10.764   9.388   5.473  0.3332  0.4390 -0.0754
  207MOL0     C28496  10.858   9.469   5.559  0.0227  0.6351  0.3680
  207MOL0     H28497  10.988   8.903   5.155 -2.4095 -0.1244  3.2885
  207MOL0     H28498  11.222   8.782   5.110  1.1870  0.5166 -0.0240
  207MOL0     H28499  11.466   8.786   5.075  3.5956 -1.2458 -0.3674
  207MOL0     H28500  11.400   8.643   5.143  1.1069 -2.3166  0.6787
  207MOL0     H28501  11.660   8.734   5.278 -1.0671 -2.1855  2.7589
  207MOL0     H28502  11.566   8.586   5.272 -1.3386  1.5960  1.4449
  207MOL0     H28503  11.620   8.549   5.047 -3.1490 -0.6913  3.1244
  207MOL0     H28504  11.708   8.699   5.022 -1.7045 -0.4282  0.5666
  207MOL0     H28505  11.869   8.655   5.190  0.9281  1.8760 -3.8130
  207MOL0     H28506  11.806   8.498   5.228  1.3695 -0.5802 -0.1016
  207MOL0     H28507  11.926   8.565   4.949 -0.0637  3.1593  2.7940
  207MOL0     H28508  11.851   8.418   5.000 -0.7561  0.4660  0.3876
  207MOL0     H28509  12.078   8.536   5.145  1.0827 -0.9441  0.8967
  207MOL0     H28510  12.004   8.380   5.174 -2.3202 -0.9318 -1.2648
  207MOL0     H28511  12.051   8.328   4.932 -2.4032  1.7746 -0.0956
  207MOL0     H28512  12.188   8.323   5.046  0.4568  0.1157 -1.0586
  207MOL0     H28513  12.114   8.569   4.873  1.4400  1.9373  0.6917
  207MOL0     H28514  12.259   8.561   4.965  0.0629 -0.3241 -0.0236
  207MOL0     H28515  12.356   8.601   4.687  2.2574 -1.2448 -4.2780
  207MOL0     H28516  12.544   8.326   4.490  1.5066  1.0645  0.0061
  207MOL0     H28517  12.555   8.497   4.530  1.8636 -1.5794  0.4551
  207MOL0     H28518  12.292   8.431   4.391 -0.8869  2.8340 -3.6842
  207MOL0     H28519  12.417   8.564   4.373  0.4543 -0.7167 -0.3747
  207MOL0     H28520  12.433   8.277   4.268  1.8859 -0.1741 -0.2339
  207MOL0     H28521  12.390   8.411   4.169  0.6301  0.6172 -0.0590
  207MOL0     H28522  12.613   8.504   4.193 -2.6244  0.6414 -0.3938
  207MOL0     H28523  12.658   8.392   4.321 -0.6800  2.1028  0.4667
  207MOL0     H28524  12.852   8.426   4.213 -2.1353 -1.3671  0.2789
  207MOL0     H28525  13.107   8.510   4.040  0.1057 -3.3917 -2.5294
  207MOL0     H28526  13.196   8.381   4.120  0.2275 -1.7926  0.2513
  207MOL0     H28527  13.089   8.459   4.215 -0.2206 -1.8176  0.9903
  207MOL0     H28528  13.206   7.896   3.724 -0.3142  0.8659  1.1028
  207MOL0     H28529  13.397   7.808   3.604  0.0518  0.0560 -4.6281
  207MOL0     H28530  13.649   8.092   3.385 -1.9287 -0.8120  0.5618
  207MOL0     H28531  13.743   8.083   3.533 -2.8717 -1.3859  3.7032
  207MOL0     H28532  13.879   7.979   3.375  0.9006 -0.5698  1.6102
  207MOL0     H28533  13.797   7.847   3.454  0.4176  0.0101 -0.6853
  207MOL0     H28534  13.717   7.974   3.195 -1.7293  0.8160  1.0986
  207MOL0     H28535  13.628   7.839   3.266  0.3995  1.6471  3.6539
  207MOL0     H28536  13.805   7.698   3.266  0.1281  1.7000  2.5875
  207MOL0     H28537  13.917   7.802   3.196  0.0774 -0.2033  1.2167
  207MOL0     H28538  13.656   7.745   3.049 -0.1252 -0.3931  0.6648
  207MOL0     H28539  13.783   7.852   3.002 -1.1558  1.8587  1.7395
  207MOL0     H28540  13.808   7.564   3.074 -1.1904  0.2634 -0.1653
  207MOL0     H28541  13.936   7.661   2.988 -0.8135  2.7073 -0.4200
  207MOL0     H28542  13.783   7.674   2.790 -0.6105  0.7651  0.5862
  207MOL0     H28543  13.658   7.589   2.878 -0.1304  1.0798 -1.7373
  207MOL0     H28544  13.767   7.446   2.721 -0.3019 -1.5358  0.6713
  207MOL0     H28545  13.809   7.386   2.885 -1.4644 -0.1184  0.6693
  207MOL0     H28546  13.544   8.225   3.574  1.0301 -0.9221 -1.2769
  207MOL0     H28547  13.352   8.298   3.707  0.8721 -0.4150  1.1574
  207MOL0     H28548  12.895   8.107   3.838  2.6985 -0.5302  1.6668
  207MOL0     H28549  12.688   8.131   3.947  1.5647 -0.8149 -1.4771
  207MOL0     H28550  11.374   8.987   5.456  0.0220 -4.5641  1.2154
  207MOL0     H28551  11.170   9.127   5.458 -0.0085  1.3256 -1.0942
  207MOL0     H28552  10.713   9.122   5.249  0.0111 -1.8703  1.0818
  207MOL0     H28553  10.499   9.206   5.262  1.1957 -0.5037 -0.8555
  207MOL0     H28554  10.331   9.224   5.431  1.1712  0.5315 -2.2746
  207MOL0     H28555  10.342   9.319   5.580 -0.4701  0.1850  0.1612
  207MOL0     H28556  10.103   9.307   5.481 -1.5157  1.0873 -0.0464
  207MOL0     H28557  10.166   9.406   5.344  0.3530  0.2805 -0.6608
  207MOL0     H28558  10.193   9.488   5.646  1.5035 -0.6586 -0.9369
  207MOL0     H28559  10.206   9.584   5.499 -1.8834 -0.5639 -2.3653
  207MOL0     H28560  10.012   9.582   5.672 -2.6493 -2.5314  1.9429
  207MOL0     H28561   9.952   9.445   5.578 -0.1954 -0.1308 -1.1768
  207MOL0     H28562   9.838   9.801   5.371  1.1732  0.8443 -0.2651
  207MOL0     H28563  10.614   9.520   5.535 -0.6024 -0.0104  1.5242
  207MOL0     H28564  10.906   9.417   5.642 -0.1989  2.0488  1.4263
  207MOL0     H28565  10.936   9.510   5.493 -1.4284 -0.7201 -2.3418
  207MOL0     H28566  10.809   9.555   5.605  2.3454  1.8297  0.7799
  208MOL0     O28567   7.491   8.818   8.177 -0.7881  0.4405  0.6740
  208MOL0     C28568   7.506   8.843   8.295  0.3754 -0.2191  0.3512
  208MOL0     O28569   7.619   8.896   8.350  0.2092 -0.2740  0.4452
  208MOL0     C28570   7.735   8.872   8.289 -0.4938  0.0934  0.2117
  208MOL0     C28571   7.769   8.746   8.243 -0.0746  0.2697 -1.0386
  208MOL0     C28572   7.895   8.717   8.186  0.8513 -1.0573  0.1726
  208MOL0     C28573   7.985   8.821   8.176  0.0578  0.3677 -0.0483
  208MOL0     O28574   8.108   8.791   8.117  0.1878 -0.7044  0.3046
  208MOL0     C28575   8.228   8.871   8.147  0.3140  0.4900  0.5818
  208MOL0     C28576   8.342   8.805   8.069 -0.5951  0.3160  0.2754
  208MOL0     C28577   8.465   8.908   8.077 -0.4701  1.0987 -0.1330
  208MOL0     C28578   8.588   8.864   7.992  0.2559  0.1900  0.4088
  208MOL0     C28579   8.647   8.734   8.025  0.5501  0.1094  0.2407
  208MOL0     C28580   8.767   8.711   7.937 -0.5706  0.4266 -0.6849
  208MOL0     C28581   8.819   8.572   7.944  0.0907 -0.2911  0.1460
  208MOL0     C28582   8.899   8.532   8.077  0.5565 -0.5433  0.2365
  208MOL0     N28583   9.016   8.610   8.100 -0.0172  1.1980 -0.0335
  208MOL0     C28584   9.140   8.577   8.040 -0.2499 -0.1592  0.5715
  208MOL0     C28585   9.235   8.654   8.102 -0.1250 -0.9360 -0.2877
  208MOL0     C28586   9.374   8.652   8.058  1.2787  0.3548 -0.2752
  208MOL0     C28587   9.486   8.655   8.168 -0.0870 -0.1052 -0.0497
  208MOL0     C28588   9.487   8.518   8.239 -0.4168 -1.0280  0.2464
  208MOL0     C28589   9.602   8.504   8.334 -0.6087 -0.5010  0.2901
  208MOL0     O28590   9.728   8.518   8.272 -0.2316 -0.1661  0.4547
  208MOL0     C28591   9.848   8.498   8.341  0.4610 -0.7384  0.1279
  208MOL0     C28592   9.963   8.521   8.280 -0.7731  0.2150  0.6483
  208MOL0     C28593  10.093   8.488   8.339  0.0668  0.0104 -0.9473
  208MOL0     C28594  10.210   8.538   8.262 -0.1676 -0.3921 -0.2124
  208MOL0     C28595  10.101   8.426   8.465 -0.1410  1.2144  0.3566
  208MOL0     C28596  10.225   8.381   8.527  0.1854 -1.0242 -0.2312
  208MOL0     O28597  10.223   8.360   8.664  0.1472 -0.7875 -0.5112
  208MOL0     C28598  10.327   8.292   8.733  0.7985  0.1144 -0.6428
  208MOL0     C28599  10.457   8.270   8.689  0.4337 -0.4271  0.3703
  208MOL0     C28600  10.548   8.195   8.765 -0.2131 -0.0962 -0.4536
  208MOL0     C28601  10.508   8.128   8.874  0.3822 -0.6314 -0.0260
  208MOL0     O28602  10.605   8.046   8.915 -0.3173  0.5859 -0.8557
  208MOL0     C28603  10.591   8.005   9.051  0.0454 -0.1800  0.4925
  208MOL0     C28604  10.724   7.953   9.099 -0.0775  0.3053 -0.4887
  208MOL0     C28605  10.712   7.851   9.209  0.3294 -0.5294 -0.0813
  208MOL0     C28606  10.853   7.839   9.276 -0.3911  0.5580 -0.2747
  208MOL0     C28607  10.949   7.754   9.197 -0.5120  0.5850  0.0512
  208MOL0     C28608  11.058   7.703   9.294  0.3523 -0.0302 -0.7586
  208MOL0     C28609  11.141   7.815   9.362  0.5721  0.2528  0.0880
  208MOL0     C28610  11.278   7.772   9.423  0.4684 -0.2673  0.4197
  208MOL0    Cl28611  11.251   7.667   9.561 -0.0310  0.2075 -0.6236
  208MOL0     C28612  10.385   8.159   8.928  0.1789  0.5354  0.2824
  208MOL0     C28613  10.293   8.242   8.860  0.1105 -0.1951  0.0424
  208MOL0     O28614  10.322   8.362   8.447 -0.2102 -0.0074  0.1631
  208MOL0     C28615   9.975   8.418   8.533 -0.5389  0.5554  1.3017
  208MOL0     C28616   9.853   8.457   8.471 -0.5364 -0.2452  0.1306
  208MOL0     N28617   9.174   8.747   8.179 -0.1623  0.4518 -0.1738
  208MOL0     N28618   9.041   8.718   8.186 -0.1234  0.1008 -0.3649
  208MOL0     C28619   7.960   8.945   8.233  0.7224 -0.1505  1.1347
  208MOL0     C28620   7.838   8.966   8.291  0.0102 -0.7813  0.3024
  208MOL0     C28621   7.394   8.838   8.393 -0.2551 -0.1925 -1.5789
  208MOL0     C28622   7.419   8.903   8.519  0.2982  0.0320  0.0615
  208MOL0     C28623   7.322   8.916   8.616  0.4124 -0.2088  0.2582
  208MOL0     C28624   7.198   8.841   8.610 -0.4564 -0.0699  0.7957
  208MOL0     O28625   7.098   8.836   8.706 -0.2390  0.5059 -0.0168
  208MOL0     C28626   7.139   8.885   8.834 -0.4859 -0.4883 -0.4667
  208MOL0     C28627   7.062   8.816   8.942  1.5365 -0.5115  0.2837
  208MOL0     C28628   6.918   8.877   8.940 -0.3327  0.0770  0.0736
  208MOL0     C28629   6.848   8.818   9.052  0.3909 -0.0763  0.4139
  208MOL0     C28630   6.716   8.889   9.060 -0.1838  0.1400  0.0402
  208MOL0     C28631   6.612   8.950   9.055 -0.3197  0.5555  0.3957
  208MOL0     C28632   7.175   8.773   8.490 -0.2257 -0.7957 -0.2279
  208MOL0     C28633   7.265   8.769   8.380  0.6428  0.1296  0.1097
  208MOL0     C28634   7.223   8.676   8.264 -0.1028  0.3356 -0.5398
  208MOL0     H28635   7.705   8.659   8.253  0.6240 -0.0074  1.8643
  208MOL0     H28636   7.916   8.617   8.148 -0.4608 -0.2923 -2.8065
  208MOL0     H28637   8.243   8.876   8.255 -0.5184  2.2764  0.6443
  208MOL0     H28638   8.212   8.973   8.111 -2.3155 -0.1792 -0.4151
  208MOL0     H28639   8.367   8.717   8.129  1.0442 -0.1368 -0.9975
  208MOL0     H28640   8.317   8.786   7.964 -0.6911  2.6413 -0.1703
  208MOL0     H28641   8.428   9.003   8.038 -2.2177  0.2804 -0.5655
  208MOL0     H28642   8.484   8.916   8.185  0.3472 -3.3479  0.2429
  208MOL0     H28643   8.568   8.882   7.886  0.1039 -0.0631  0.3941
  208MOL0     H28644   8.669   8.934   8.015  0.3900  0.3396 -0.4757
  208MOL0     H28645   8.572   8.658   8.003  2.2854 -1.5682 -0.2420
  208MOL0     H28646   8.667   8.720   8.132  1.1679 -1.9135 -0.0928
  208MOL0     H28647   8.738   8.731   7.834 -3.2905 -0.3936 -0.1712
  208MOL0     H28648   8.844   8.786   7.956  1.6518 -1.7343 -0.6559
  208MOL0     H28649   8.885   8.574   7.857 -0.1798 -1.7957 -0.1103
  208MOL0     H28650   8.734   8.507   7.923 -0.5487  0.7115 -0.4543
  208MOL0     H28651   8.840   8.525   8.168  2.6320  2.4995  2.0187
  208MOL0     H28652   8.924   8.430   8.047  0.2991  0.2150 -2.9655
  208MOL0     H28653   9.165   8.503   7.965  1.2289 -0.4434  1.3072
  208MOL0     H28654   9.375   8.745   8.000 -1.2212  0.3339 -0.4206
  208MOL0     H28655   9.397   8.575   7.983  3.6040  0.4697  0.2375
  208MOL0     H28656   9.581   8.670   8.116  0.4698 -2.2520  0.2721
  208MOL0     H28657   9.466   8.736   8.239 -1.2797 -1.9462  1.8009
  208MOL0     H28658   9.397   8.515   8.301 -0.6189  2.5768  0.3298
  208MOL0     H28659   9.492   8.435   8.168 -2.0822  0.2075 -1.4145
  208MOL0     H28660   9.594   8.565   8.425 -2.5332  0.6025 -0.5372
  208MOL0     H28661   9.598   8.400   8.367  1.9788 -1.3517 -1.8088
  208MOL0     H28662   9.963   8.586   8.193 -1.3750 -0.1288  0.3813
  208MOL0     H28663  10.180   8.605   8.181  0.8358 -0.8898 -1.0127
  208MOL0     H28664  10.261   8.450   8.223  0.4495 -1.7496  3.2890
  208MOL0     H28665  10.276   8.598   8.326 -0.3439  2.9458 -2.8709
  208MOL0     H28666  10.488   8.309   8.593  0.0610 -1.0895 -0.0324
  208MOL0     H28667  10.646   8.172   8.725 -0.7273  0.7229 -2.3155
  208MOL0     H28668  10.555   8.090   9.111 -0.9085 -1.1345  1.3004
  208MOL0     H28669  10.513   7.929   9.061 -0.6955  0.6570  1.3554
  208MOL0     H28670  10.787   7.907   9.024 -0.9368 -1.2736 -0.2807
  208MOL0     H28671  10.775   8.038   9.145 -0.4116  0.8980 -1.1765
  208MOL0     H28672  10.680   7.759   9.159 -0.2853 -0.0968 -0.4845
  208MOL0     H28673  10.632   7.883   9.276 -1.6622 -0.8467 -2.1966
  208MOL0     H28674  10.829   7.792   9.372  1.5095 -0.8322 -0.4265
  208MOL0     H28675  10.895   7.937   9.298  0.3872  0.0728  0.4693
  208MOL0     H28676  10.901   7.673   9.141  1.2651  0.1624 -0.9157
  208MOL0     H28677  10.998   7.819   9.124 -2.5408  0.1410 -1.8172
  208MOL0     H28678  11.116   7.630   9.236 -2.0004 -0.4523 -2.7246
  208MOL0     H28679  11.022   7.644   9.379  0.9582  0.9016  0.1657
  208MOL0     H28680  11.086   7.853   9.448  0.9889 -0.3705  0.6390
  208MOL0     H28681  11.152   7.880   9.275 -0.7669 -2.0317 -1.9117
  208MOL0     H28682  11.331   7.866   9.439  1.3680 -0.1124 -2.7109
  208MOL0     H28683  11.336   7.719   9.346 -1.6284 -1.8055 -0.1849
  208MOL0     H28684  10.348   8.108   9.017 -0.7220  3.0239  1.4256
  208MOL0     H28685  10.191   8.263   8.889 -0.2163 -2.2038  0.4335
  208MOL0     H28686   9.966   8.364   8.626  1.9873 -2.1378  0.1219
  208MOL0     H28687   9.758   8.443   8.523  0.1528  0.6657  1.6643
  208MOL0     H28688   8.032   9.025   8.219 -0.0354  0.7132  2.0521
  208MOL0     H28689   7.814   9.061   8.338 -1.7265 -1.6838  1.3154
  208MOL0     H28690   7.518   8.941   8.542  0.3523  0.9213 -1.5005
  208MOL0     H28691   7.348   8.964   8.710  1.5828 -0.9339  0.3293
  208MOL0     H28692   7.245   8.871   8.856  0.6325  4.3595 -1.6822
  208MOL0     H28693   7.123   8.994   8.833 -0.0510 -0.3760  1.1137
  208MOL0     H28694   7.113   8.836   9.036  1.3871 -0.7763  0.4209
  208MOL0     H28695   7.059   8.708   8.928 -1.7260 -0.7615  1.9653
  208MOL0     H28696   6.927   8.985   8.950 -4.5454  0.7798 -1.7600
  208MOL0     H28697   6.881   8.862   8.838  0.8194  2.2749 -0.7342
  208MOL0     H28698   6.909   8.833   9.142 -1.2883 -2.0309  1.9762
  208MOL0     H28699   6.841   8.711   9.034  0.8842 -0.2291  1.0818
  208MOL0     H28700   6.526   9.012   9.038 -0.0850  0.9870  0.7776
  208MOL0     H28701   7.083   8.717   8.479 -0.2085 -1.2406  1.6687
  208MOL0     H28702   7.197   8.576   8.300  1.7671 -0.5978 -1.6329
  208MOL0     H28703   7.144   8.730   8.212  0.4530  1.4084 -0.2914
  208MOL0     H28704   7.304   8.659   8.193 -0.7441  0.5703 -1.3358
  209MOL0     O28705   7.708   6.498  10.725 -0.4569 -0.4267 -0.0609
  209MOL0     C28706   7.668   6.403  10.784  0.2908 -0.1051  0.4865
  209MOL0     O28707   7.734   6.292  10.806 -0.5727  0.3644  0.0568
  209MOL0     C28708   7.866   6.253  10.767  0.0114  0.3569  0.9973
  209MOL0     C28709   7.905   6.114  10.754  0.6869  0.1848  0.2908
  209MOL0     C28710   8.019   6.077  10.679 -0.4898 -0.4280  0.0408
  209MOL0     C28711   8.120   6.173  10.656  0.2398 -0.0287 -0.3914
  209MOL0     O28712   8.223   6.132  10.573 -0.1540 -0.0155 -0.0245
  209MOL0     C28713   8.303   6.236  10.506 -0.3181 -0.6550  1.0800
  209MOL0     C28714   8.394   6.170  10.414 -0.2252  1.0458  0.3772
  209MOL0     C28715   8.464   6.266  10.319 -0.1563 -0.2817  0.9614
  209MOL0     C28716   8.563   6.200  10.234 -0.6007  1.1531 -0.0340
  209MOL0     C28717   8.683   6.293  10.183  0.7234 -1.3006  0.4783
  209MOL0     C28718   8.813   6.216  10.152 -0.1018  0.4630 -0.4929
  209MOL0     C28719   8.901   6.180  10.281  0.0096 -0.6792  0.7582
  209MOL0     C28720   9.010   6.286  10.299 -0.0025 -0.3186  0.1725
  209MOL0     N28721   9.133   6.254  10.223  0.2102  0.1231  0.2870
  209MOL0     C28722   9.168   6.325  10.110  0.8555  0.1983  0.3535
  209MOL0     C28723   9.276   6.266  10.062 -0.3179 -0.2377 -0.2015
  209MOL0     C28724   9.351   6.303   9.937  0.3614 -0.1848  0.6753
  209MOL0     C28725   9.477   6.382   9.979 -0.4328 -0.0311  0.1784
  209MOL0     C28726   9.545   6.460   9.868 -0.0029 -0.0897  0.4951
  209MOL0     C28727   9.658   6.541   9.925 -0.1675 -0.0557  0.0728
  209MOL0     O28728   9.706   6.624   9.818  0.0015 -0.5126  0.5377
  209MOL0     C28729   9.816   6.706   9.849  0.6117  0.1761  0.0174
  209MOL0     C28730   9.863   6.784   9.747  0.0659 -0.3747 -0.4258
  209MOL0     C28731   9.974   6.874   9.769  1.1048  0.4681  0.1097
  209MOL0     C28732  10.016   6.953   9.638  0.5430  0.8501  0.2888
  209MOL0     C28733  10.041   6.874   9.893 -0.6198 -0.1906  0.6755
  209MOL0     C28734  10.155   6.962   9.920  0.0144 -0.5441 -0.0542
  209MOL0     O28735  10.218   6.951  10.041 -0.4739 -0.4799 -0.1004
  209MOL0     C28736  10.331   7.025  10.068  0.2470 -0.4643 -0.3917
  209MOL0     C28737  10.458   6.965  10.071  0.0579  0.0570 -0.4911
  209MOL0     C28738  10.568   7.039  10.114 -0.4709 -0.4135  0.2169
  209MOL0     C28739  10.560   7.172  10.140 -0.4431  0.2188  0.0312
  209MOL0     O28740  10.670   7.248  10.177 -0.0355 -0.5895  0.4769
  209MOL0     C28741  10.704   7.218  10.318  0.0848 -0.2636  0.1457
  209MOL0     C28742  10.851   7.258  10.349  0.5581  0.0125  0.7423
  209MOL0     C28743  10.941   7.194  10.234 -0.0272  0.5788 -0.7103
  209MOL0     C28744  11.076   7.194  10.299 -0.4597  0.3585  0.3353
  209MOL0     C28745  11.180   7.156  10.184 -0.0844 -0.4642  0.7904
  209MOL0     C28746  11.200   7.007  10.150  0.1728 -0.0958 -0.8334
  209MOL0     C28747  11.277   6.990  10.017 -0.2078  0.1223 -0.1269
  209MOL0     C28748  11.430   7.023  10.012  0.3208  0.1843 -0.4458
  209MOL0    Cl28749  11.512   6.914  10.136  0.0670  0.1775 -0.1996
  209MOL0     C28750  10.440   7.234  10.130  0.3467  0.1480 -0.1257
  209MOL0     C28751  10.325   7.159  10.109 -0.0967  0.0814 -0.0999
  209MOL0     O28752  10.170   7.053   9.845  0.1543 -0.1380 -0.2424
  209MOL0     C28753   9.993   6.788   9.994  0.0917  0.1536 -0.4550
  209MOL0     C28754   9.883   6.712   9.966  1.0234  0.0969  0.0923
  209MOL0     N28755   9.313   6.164  10.147  1.1014  0.0827  1.1339
  209MOL0     N28756   9.216   6.142  10.232 -0.0359  0.4634 -0.1251
  209MOL0     C28757   8.092   6.305  10.695  0.4220 -0.6620  0.2023
  209MOL0     C28758   7.974   6.351  10.748 -0.3794 -0.3709  0.5313
  209MOL0     C28759   7.524   6.404  10.841 -0.5530 -1.0545 -0.5129
  209MOL0     C28760   7.456   6.520  10.809 -0.0333 -0.4696  0.2623
  209MOL0     C28761   7.330   6.550  10.856  0.0503  0.9327 -0.4164
  209MOL0     C28762   7.262   6.446  10.926 -0.7474 -0.4091  0.4277
  209MOL0     O28763   7.131   6.466  10.951  0.0670 -0.9362 -0.6372
  209MOL0     C28764   7.047   6.351  10.965 -0.0498  0.2115 -0.2923
  209MOL0     C28765   6.899   6.387  10.967 -0.2187 -0.8853 -0.1556
  209MOL0     C28766   6.823   6.270  11.028  0.4011  0.2975 -0.2360
  209MOL0     C28767   6.806   6.159  10.942  0.0784  0.3306  1.1772
  209MOL0     C28768   6.692   6.071  10.982  0.2278 -0.8833  0.1068
  209MOL0     C28769   6.615   5.984  11.006 -0.1972  0.7225  0.4517
  209MOL0     C28770   7.328   6.333  10.965 -0.7021  0.0968  0.6003
  209MOL0     C28771   7.460   6.308  10.926 -1.0042 -0.1090 -0.1226
  209MOL0     C28772   7.528   6.187  10.989 -0.0253 -0.3774 -0.4104
  209MOL0     H28773   7.853   6.028  10.796  2.5269 -0.6016  1.0640
  209MOL0     H28774   8.038   5.974  10.651  2.2386 -0.6013  2.1600
  209MOL0     H28775   8.362   6.293  10.577  0.5102 -0.6603  0.4114
  209MOL0     H28776   8.230   6.298  10.454  0.5951  0.7550  1.4348
  209MOL0     H28777   8.477   6.123  10.468  0.3145 -0.1093 -1.3873
  209MOL0     H28778   8.338   6.082  10.383  1.9228 -1.3060  2.6795
  209MOL0     H28779   8.403   6.319  10.245  1.7231 -3.0615 -2.9209
  209MOL0     H28780   8.520   6.328  10.390 -1.2020  0.5352  1.1007
  209MOL0     H28781   8.613   6.116  10.284  1.4416  2.3562  0.0444
  209MOL0     H28782   8.522   6.137  10.155 -0.2732 -1.1213  1.5102
  209MOL0     H28783   8.706   6.370  10.257  0.4035  2.3486 -2.8937
  209MOL0     H28784   8.648   6.357  10.102 -0.2493  1.0384  2.6108
  209MOL0     H28785   8.785   6.122  10.104  0.4818  0.7932 -1.5024
  209MOL0     H28786   8.869   6.285  10.088 -1.8045  1.9168 -0.5291
  209MOL0     H28787   8.950   6.083  10.269 -0.7060 -0.6918 -3.5688
  209MOL0     H28788   8.841   6.174  10.372  0.0646 -0.9502  0.7792
  209MOL0     H28789   8.966   6.386  10.285  1.8933  0.8476  1.9377
  209MOL0     H28790   9.040   6.279  10.404  0.2633  0.9249  0.2027
  209MOL0     H28791   9.117   6.412  10.069 -0.6850 -0.8797 -0.0979
  209MOL0     H28792   9.287   6.369   9.877  0.6633 -1.4116 -1.0579
  209MOL0     H28793   9.383   6.217   9.878  4.1341  0.8806  0.9157
  209MOL0     H28794   9.457   6.451  10.061  3.5602  1.7338 -0.0825
  209MOL0     H28795   9.552   6.312  10.019 -0.7358 -1.0275 -0.9509
  209MOL0     H28796   9.587   6.397   9.789  1.2926  1.3825 -0.0612
  209MOL0     H28797   9.470   6.523   9.820 -1.1626 -1.1368  0.8846
  209MOL0     H28798   9.627   6.609  10.006  3.5112  3.2696 -0.9924
  209MOL0     H28799   9.728   6.476   9.977 -0.8143 -1.3999 -0.6815
  209MOL0     H28800   9.803   6.786   9.656 -2.4344 -1.2426  1.0806
  209MOL0     H28801  10.120   6.922   9.622  1.5549  2.7296  2.5370
  209MOL0     H28802  10.003   7.061   9.647 -0.5900  0.8140 -0.6541
  209MOL0     H28803   9.951   6.920   9.557 -1.3414 -0.1220  2.1070
  209MOL0     H28804  10.469   6.862  10.037  0.6020  0.4633 -1.5967
  209MOL0     H28805  10.663   6.987  10.120 -1.5389 -2.4101  0.8616
  209MOL0     H28806  10.643   7.282  10.382  0.6864  1.0232 -0.5332
  209MOL0     H28807  10.684   7.112  10.338 -1.0954 -0.4571 -1.7891
  209MOL0     H28808  10.865   7.366  10.346 -0.3612  0.1649  1.4669
  209MOL0     H28809  10.871   7.211  10.446  0.8134 -1.9171 -0.1793
  209MOL0     H28810  10.937   7.259  10.146  0.4316  1.7527  0.1055
  209MOL0     H28811  10.919   7.090  10.209  1.8797  0.2966 -1.4351
  209MOL0     H28812  11.072   7.126  10.384 -0.5662 -0.0688 -0.0052
  209MOL0     H28813  11.094   7.288  10.351 -0.3024  1.0708 -0.9572
  209MOL0     H28814  11.151   7.223  10.102  0.6341 -0.6380  0.3795
  209MOL0     H28815  11.282   7.190  10.202  0.4925 -0.1766 -2.3595
  209MOL0     H28816  11.102   6.960  10.141 -0.0746 -0.3181  2.0516
  209MOL0     H28817  11.248   6.958  10.235  1.2415 -0.5418 -1.6648
  209MOL0     H28818  11.228   7.035   9.930  0.3042 -0.2539 -0.6154
  209MOL0     H28819  11.267   6.883   9.999  1.7552 -0.0181 -0.6076
  209MOL0     H28820  11.450   7.128  10.039  0.6252 -0.3019  1.3190
  209MOL0     H28821  11.483   7.002   9.918 -4.1377 -1.8402 -2.8176
  209MOL0     H28822  10.435   7.341  10.145 -3.5839  0.6497 -3.2411
  209MOL0     H28823  10.234   7.218  10.101  0.7987  1.3184 -1.8119
  209MOL0     H28824  10.037   6.778  10.093  1.4001  0.1933 -1.0141
  209MOL0     H28825   9.854   6.646  10.047 -0.5535 -0.5527 -0.9451
  209MOL0     H28826   8.171   6.380  10.689 -0.0662 -0.1674 -0.0832
  209MOL0     H28827   7.959   6.458  10.759 -1.2890  0.1599 -3.8289
  209MOL0     H28828   7.504   6.601  10.753  1.2946  0.5733  2.7238
  209MOL0     H28829   7.293   6.652  10.848 -0.2357  0.9122  0.6177
  209MOL0     H28830   7.061   6.276  10.887  2.9521  0.6105 -0.2350
  209MOL0     H28831   7.075   6.304  11.060  1.3709 -1.6201 -1.5500
  209MOL0     H28832   6.864   6.408  10.866 -2.8661  0.7714  0.9996
  209MOL0     H28833   6.877   6.477  11.026 -0.8774 -0.8074 -0.5145
  209MOL0     H28834   6.883   6.227  11.109 -0.2911 -1.5898 -0.6734
  209MOL0     H28835   6.727   6.304  11.068 -0.0083 -2.5499  1.4201
  209MOL0     H28836   6.900   6.104  10.930 -0.9664 -1.5580  1.2394
  209MOL0     H28837   6.782   6.202  10.845  0.9249 -2.0864 -0.2098
  209MOL0     H28838   6.544   5.909  11.033  0.4589 -0.0004  0.1799
  209MOL0     H28839   7.284   6.258  11.030  0.0388  0.1941  1.2235
  209MOL0     H28840   7.630   6.207  11.024  1.0208 -1.3094 -2.7595
  209MOL0     H28841   7.463   6.148  11.067 -1.2344  1.5704 -0.3664
  209MOL0     H28842   7.542   6.108  10.915 -1.4824 -0.8650 -0.1858
  210MOL0     O28843   3.693   9.194   6.516 -0.0209 -0.4817  0.4472
  210MOL0     C28844   3.670   9.181   6.636  1.1515 -0.4224 -0.5268
  210MOL0     O28845   3.541   9.140   6.684  0.4052 -0.3744  0.5885
  210MOL0     C28846   3.433   9.133   6.597 -0.2081  0.2116 -1.2458
  210MOL0     C28847   3.306   9.165   6.638  0.1495  0.4682 -0.3785
  210MOL0     C28848   3.194   9.143   6.564  0.3420 -0.1300  0.1957
  210MOL0     C28849   3.204   9.087   6.436 -0.0785 -0.3890  0.8547
  210MOL0     O28850   3.106   9.062   6.345 -0.1659 -0.1638  0.5716
  210MOL0     C28851   2.970   9.049   6.399 -0.2221  0.2739  0.2845
  210MOL0     C28852   2.859   8.988   6.296  0.3553  0.2720  0.5019
  210MOL0     C28853   2.715   8.978   6.343  0.3099 -0.8177 -0.5404
  210MOL0     C28854   2.684   8.849   6.408 -0.7082  0.0329 -0.5907
  210MOL0     C28855   2.539   8.807   6.387  0.7072  0.2685  0.5474
  210MOL0     C28856   2.450   8.860   6.500  0.6056  0.4461  0.5346
  210MOL0     C28857   2.312   8.797   6.480 -0.4953  0.6724  0.0744
  210MOL0     C28858   2.209   8.867   6.561  0.7215 -0.5902 -0.1240
  210MOL0     N28859   2.075   8.811   6.555  0.2688 -0.3983 -0.3151
  210MOL0     C28860   2.018   8.714   6.640  0.3155 -0.9793 -0.7814
  210MOL0     C28861   1.884   8.716   6.607 -0.1058 -0.0366  0.0333
  210MOL0     C28862   1.776   8.643   6.677  0.4813 -0.6022  1.1826
  210MOL0     C28863   1.743   8.497   6.622  0.0499 -0.6077 -0.2022
  210MOL0     C28864   1.744   8.478   6.464 -0.3564  0.1198 -0.1310
  210MOL0     C28865   1.606   8.534   6.403 -1.3686 -0.0821 -0.2377
  210MOL0     O28866   1.505   8.446   6.441 -0.7236  0.4044 -0.0554
  210MOL0     C28867   1.381   8.469   6.399  0.5970 -0.1732  1.0109
  210MOL0     C28868   1.346   8.586   6.322  0.5532 -0.3114 -0.8370
  210MOL0     C28869   1.222   8.621   6.272 -0.0461 -0.3639 -0.1083
  210MOL0     C28870   1.208   8.760   6.205  0.2446 -0.8027 -0.1048
  210MOL0     C28871   1.120   8.523   6.293  0.1053 -0.2966  0.0494
  210MOL0     C28872   0.988   8.535   6.238  0.0225  0.1780 -0.9038
  210MOL0     O28873   0.891   8.452   6.286 -0.3309  0.5159 -0.5927
  210MOL0     C28874   0.760   8.481   6.254 -0.4276 -0.6819 -0.1516
  210MOL0     C28875   0.686   8.553   6.343 -1.3554 -0.1570 -0.2957
  210MOL0     C28876   0.546   8.584   6.312 -0.1420  0.8243 -0.3476
  210MOL0     C28877   0.488   8.525   6.198 -0.0221 -0.2952  0.2971
  210MOL0     O28878   0.357   8.539   6.164 -0.4581 -0.0732 -0.3123
  210MOL0     C28879   0.268   8.621   6.236  0.2310  0.1253 -0.2183
  210MOL0     C28880   0.132   8.605   6.181 -0.2533  1.1061 -0.7557
  210MOL0     C28881   0.069   8.744   6.209  1.6919 -0.3479 -0.1421
  210MOL0     C28882  -0.060   8.772   6.133  0.0882  0.4933  0.5018
  210MOL0     C28883  -0.109   8.906   6.155 -0.5355  0.2323  0.5236
  210MOL0     C28884  -0.178   8.929   6.288  0.1668  0.4914 -0.0496
  210MOL0     C28885  -0.336   8.905   6.283  0.0676  0.7697 -0.0045
  210MOL0     C28886  -0.385   8.873   6.427  0.9823 -0.7361  0.3541
  210MOL0    Cl28887  -0.406   8.698   6.448  0.3423  0.4999 -0.1515
  210MOL0     C28888   0.572   8.454   6.106 -1.2919 -0.8919  0.4705
  210MOL0     C28889   0.711   8.434   6.134  0.3041 -0.1139 -0.4747
  210MOL0     O28890   0.965   8.620   6.156  0.0235 -0.4780 -0.6478
  210MOL0     C28891   1.152   8.409   6.370 -0.0095 -0.4387 -0.0142
  210MOL0     C28892   1.282   8.382   6.424  0.0099  1.4433  0.4796
  210MOL0     N28893   1.863   8.817   6.509 -0.0103 -0.5189  0.1910
  210MOL0     N28894   1.978   8.866   6.477 -0.3692  0.4766  0.2986
  210MOL0     C28895   3.329   9.042   6.394  0.8931 -0.4102  0.1996
  210MOL0     C28896   3.438   9.075   6.474 -0.7989 -0.3122  0.0390
  210MOL0     C28897   3.782   9.181   6.730 -0.3667  0.5202  0.1875
  210MOL0     C28898   3.757   9.139   6.865  0.8495  1.1400  0.2662
  210MOL0     C28899   3.863   9.125   6.955  0.3846  0.1794  0.0262
  210MOL0     C28900   3.992   9.144   6.921 -0.1771 -0.7335 -0.6182
  210MOL0     O28901   4.079   9.136   7.023  0.4246 -0.0894  0.0806
  210MOL0     C28902   4.225   9.105   7.004  0.0394  0.0932  0.4680
  210MOL0     C28903   4.296   9.235   7.014 -0.7936 -0.5220 -0.9221
  210MOL0     C28904   4.299   9.281   7.165 -0.1449  0.8998 -0.7561
  210MOL0     C28905   4.378   9.411   7.179  0.7278 -0.8958  1.0558
  210MOL0     C28906   4.284   9.520   7.129  0.7469  0.5188 -0.1464
  210MOL0     C28907   4.201   9.605   7.096 -0.6504  0.2069  0.2415
  210MOL0     C28908   4.023   9.182   6.788  0.0360  0.5865 -0.4948
  210MOL0     C28909   3.919   9.214   6.696 -0.4418 -0.3879 -0.4198
  210MOL0     C28910   3.961   9.295   6.571  0.2597 -0.1279  0.2813
  210MOL0     H28911   3.290   9.196   6.741 -2.7598 -0.6017 -0.3887
  210MOL0     H28912   3.105   9.171   6.620  1.3324  0.3206  1.5839
  210MOL0     H28913   2.937   9.149   6.428 -1.1908 -0.5102  2.0680
  210MOL0     H28914   2.973   8.989   6.490  0.4122  1.4266  1.0366
  210MOL0     H28915   2.865   9.031   6.196  1.0814 -0.7584  0.0902
  210MOL0     H28916   2.888   8.888   6.263 -0.6364  0.8284 -2.3484
  210MOL0     H28917   2.688   9.058   6.413 -0.9569 -2.2842  0.7178
  210MOL0     H28918   2.651   8.983   6.254  0.1427 -0.8963 -0.4247
  210MOL0     H28919   2.741   8.768   6.361  1.1680 -0.4285  2.2152
  210MOL0     H28920   2.711   8.846   6.514  1.5700  1.5496 -1.0651
  210MOL0     H28921   2.536   8.698   6.374 -2.5083  0.3001  0.1866
  210MOL0     H28922   2.500   8.848   6.294 -2.2142  0.7172  1.8573
  210MOL0     H28923   2.484   8.827   6.599  3.2608 -0.1473 -0.4827
  210MOL0     H28924   2.460   8.968   6.485  1.6342  0.1887 -0.9017
  210MOL0     H28925   2.314   8.692   6.511 -0.9600  0.8833  0.8460
  210MOL0     H28926   2.274   8.804   6.378 -1.2238 -1.0308  0.1817
  210MOL0     H28927   2.241   8.868   6.666  3.0618  0.0535 -0.7940
  210MOL0     H28928   2.208   8.971   6.528  0.3738 -0.1747  1.1231
  210MOL0     H28929   2.071   8.665   6.721  1.7889  0.2693 -0.9368
  210MOL0     H28930   1.685   8.703   6.663  2.1219  1.6565 -0.6016
  210MOL0     H28931   1.793   8.635   6.784 -0.6102  0.7420  1.4869
  210MOL0     H28932   1.814   8.422   6.656 -0.6916 -1.4587 -0.5093
  210MOL0     H28933   1.647   8.462   6.662  1.0526 -2.7457  0.4519
  210MOL0     H28934   1.830   8.526   6.417 -0.4220  0.2856 -0.0819
  210MOL0     H28935   1.760   8.371   6.446 -0.2090  0.1053  0.0722
  210MOL0     H28936   1.594   8.638   6.432 -0.7251  0.2198 -1.0384
  210MOL0     H28937   1.618   8.532   6.295 -0.6163 -1.1635 -0.1540
  210MOL0     H28938   1.422   8.660   6.298  0.1134  1.9737  3.6884
  210MOL0     H28939   1.123   8.818   6.241 -0.7166 -2.2063 -0.0449
  210MOL0     H28940   1.195   8.737   6.098  0.9416  2.3747 -0.9806
  210MOL0     H28941   1.304   8.812   6.214  0.8012 -2.0975  2.3589
  210MOL0     H28942   0.721   8.587   6.439 -1.1495 -1.1884  0.0031
  210MOL0     H28943   0.490   8.640   6.387 -0.1834 -3.4420  3.2480
  210MOL0     H28944   0.266   8.592   6.342 -0.6928  0.0070 -0.2650
  210MOL0     H28945   0.307   8.723   6.235  2.0662 -0.4732  1.6703
  210MOL0     H28946   0.137   8.591   6.073 -1.0574  0.8565 -0.7643
  210MOL0     H28947   0.085   8.521   6.234  1.7909  0.3158 -0.0606
  210MOL0     H28948   0.139   8.828   6.201  2.9966 -1.2992  0.8298
  210MOL0     H28949   0.037   8.745   6.313 -1.4959 -0.4273 -1.0346
  210MOL0     H28950  -0.137   8.701   6.162 -0.7909  0.1146 -2.4114
  210MOL0     H28951  -0.046   8.761   6.025  0.0801  1.2413  0.4206
  210MOL0     H28952  -0.025   8.974   6.140 -0.6534  0.0835 -0.9604
  210MOL0     H28953  -0.177   8.930   6.073  0.2970  0.2993 -0.1488
  210MOL0     H28954  -0.155   9.031   6.319  3.4360  1.1273 -3.7081
  210MOL0     H28955  -0.135   8.865   6.365  0.9801  0.8889 -0.1587
  210MOL0     H28956  -0.352   8.827   6.207  2.1585  1.3118 -1.0482
  210MOL0     H28957  -0.381   8.995   6.241 -3.6315 -1.0593 -0.4205
  210MOL0     H28958  -0.485   8.912   6.448  1.0964 -0.9144  1.2361
  210MOL0     H28959  -0.326   8.915   6.509  3.2361 -2.2210 -0.4095
  210MOL0     H28960   0.529   8.423   6.011  0.2759 -2.8591  0.3327
  210MOL0     H28961   0.784   8.394   6.064  1.2745  2.8333 -1.3022
  210MOL0     H28962   1.075   8.334   6.388  2.4387 -2.9310  0.8635
  210MOL0     H28963   1.292   8.306   6.500 -3.0338  1.5192  1.0960
  210MOL0     H28964   3.339   9.002   6.294 -0.9719  0.9724 -0.6131
  210MOL0     H28965   3.528   9.031   6.432 -0.2607  0.2724  0.5527
  210MOL0     H28966   3.654   9.133   6.898  0.9172  1.5970  0.5768
  210MOL0     H28967   3.846   9.105   7.061  2.1039 -0.4465  0.2186
  210MOL0     H28968   4.254   9.024   7.073 -1.5344 -0.6848  0.2456
  210MOL0     H28969   4.244   9.065   6.905 -1.4422  0.8344 -0.1482
  210MOL0     H28970   4.240   9.312   6.960 -3.7983 -3.2734 -2.0388
  210MOL0     H28971   4.400   9.235   6.981  1.0242  1.2470  3.8229
  210MOL0     H28972   4.198   9.295   7.205 -0.2726  3.0590 -1.6948
  210MOL0     H28973   4.343   9.207   7.232  1.2896  1.9499 -0.4833
  210MOL0     H28974   4.472   9.409   7.124  0.4585  0.3645  0.5244
  210MOL0     H28975   4.395   9.420   7.287 -0.7206  2.4307  1.1517
  210MOL0     H28976   4.137   9.685   7.067 -2.3635 -0.5774  1.6498
  210MOL0     H28977   4.126   9.202   6.762  0.3938 -1.6197 -0.9185
  210MOL0     H28978   4.012   9.232   6.498  0.0961  0.1897 -0.1121
  210MOL0     H28979   3.885   9.361   6.527 -0.9170 -1.1015  0.7914
  210MOL0     H28980   4.038   9.365   6.605  0.7436 -1.6054  2.4649
  211MOL0     O28981   1.551   9.491   9.194 -0.1658 -0.0647 -0.5529
  211MOL0     C28982   1.454   9.541   9.256 -0.6349  0.4735 -0.4296
  211MOL0     O28983   1.464   9.596   9.385  0.3359 -0.1383 -0.8124
  211MOL0     C28984   1.586   9.589   9.446  0.6831  0.3591 -0.8442
  211MOL0     C28985   1.612   9.482   9.538  0.3135  0.8271 -0.3567
  211MOL0     C28986   1.746   9.469   9.588  0.3462 -0.1709 -1.0394
  211MOL0     C28987   1.844   9.561   9.557 -0.7559  0.3790  0.7756
  211MOL0     O28988   1.972   9.551   9.602 -0.6466 -1.1011 -0.5539
  211MOL0     C28989   2.001   9.466   9.704  0.2040 -0.0930  0.2722
  211MOL0     C28990   2.144   9.499   9.753 -0.1933  0.2342 -0.6479
  211MOL0     C28991   2.175   9.647   9.763  0.1535 -0.2751  0.5219
  211MOL0     C28992   2.105   9.710   9.893 -0.2350  0.0899  1.1266
  211MOL0     C28993   2.136   9.855   9.899  0.4906  0.4178 -0.5378
  211MOL0     C28994   2.282   9.872   9.961  0.4934 -0.5480  1.4156
  211MOL0     C28995   2.307  10.017   9.972  0.3105 -0.2350 -0.2369
  211MOL0     C28996   2.412  10.044  10.079  0.5970  0.2323  0.3297
  211MOL0     N28997   2.534   9.970  10.048 -0.0016 -0.1707 -0.7031
  211MOL0     C28998   2.638  10.013   9.971  0.0381 -0.4313 -0.3069
  211MOL0     C28999   2.735   9.913   9.969  0.0262  0.1209 -0.3750
  211MOL0     C29000   2.873   9.911   9.920 -0.7331  0.4869  0.3527
  211MOL0     C29001   2.924   9.798   9.824 -0.2564 -0.2144 -1.1721
  211MOL0     C29002   2.918   9.654   9.871 -0.5086 -0.1555 -0.2527
  211MOL0     C29003   2.961   9.643  10.019 -0.0314 -0.0546 -0.1421
  211MOL0     O29004   3.100   9.664  10.017 -0.0413  0.0562  0.9398
  211MOL0     C29005   3.165   9.653  10.136  0.1200  0.4291 -0.0507
  211MOL0     C29006   3.293   9.718  10.144 -0.0071 -0.8924  0.6789
  211MOL0     C29007   3.373   9.713  10.259 -0.5041  0.1254 -0.4964
  211MOL0     C29008   3.509   9.781  10.252 -0.9830 -0.0541 -0.3386
  211MOL0     C29009   3.329   9.643  10.376 -0.2746 -0.3420 -0.3153
  211MOL0     C29010   3.416   9.631  10.497 -0.0272  0.6172 -0.4957
  211MOL0     O29011   3.387   9.523  10.585 -0.0736  0.1954 -0.3014
  211MOL0     C29012   3.453   9.522  10.708 -0.2755  0.6315 -0.4729
  211MOL0     C29013   3.419   9.619  10.806  0.0219 -0.7238 -0.5263
  211MOL0     C29014   3.490   9.610  10.927  0.3219  0.3319 -0.6950
  211MOL0     C29015   3.600   9.525  10.944 -0.2614  0.0048  0.1155
  211MOL0     O29016   3.690   9.524  11.047 -0.5414  0.1521 -0.1688
  211MOL0     C29017   3.648   9.564  11.175 -0.7367 -0.6011 -0.7704
  211MOL0     C29018   3.760   9.599  11.268 -0.3697 -0.2934 -0.3284
  211MOL0     C29019   3.837   9.724  11.233 -0.1926 -0.4579  0.1147
  211MOL0     C29020   3.925   9.761  11.360  0.3202 -0.0025  0.0596
  211MOL0     C29021   4.022   9.867  11.333  0.5029 -1.2866 -0.4508
  211MOL0     C29022   4.101   9.915  11.454 -1.1798 -0.0276  0.4033
  211MOL0     C29023   4.232   9.988  11.408 -0.3143  0.7774 -0.5253
  211MOL0     C29024   4.345   9.994  11.518  0.3400 -0.2194  0.5810
  211MOL0    Cl29025   4.483  10.063  11.434  0.0399 -0.3390  0.3264
  211MOL0     C29026   3.630   9.432  10.849 -0.4654 -0.0499 -0.2407
  211MOL0     C29027   3.562   9.430  10.730  0.6040 -0.1306 -1.0989
  211MOL0     O29028   3.492   9.726  10.519 -0.0188 -0.4818  0.2091
  211MOL0     C29029   3.197   9.583  10.376  0.2321 -0.4450  0.6043
  211MOL0     C29030   3.118   9.581  10.250 -0.8531 -0.3117  0.7006
  211MOL0     N29031   2.677   9.810  10.044 -0.0122 -0.1434  0.0179
  211MOL0     N29032   2.562   9.840  10.093 -1.0894  1.0183  0.6075
  211MOL0     C29033   1.809   9.661   9.465  0.2088 -0.6409 -0.6393
  211MOL0     C29034   1.683   9.676   9.418 -0.0220 -0.4392 -0.7330
  211MOL0     C29035   1.323   9.533   9.191  0.0673  0.6830 -0.4797
  211MOL0     C29036   1.313   9.519   9.056 -0.1956  0.2407  0.3249
  211MOL0     C29037   1.194   9.503   8.988  0.2811 -0.4366  0.9251
  211MOL0     C29038   1.074   9.499   9.053 -0.1929 -0.0846  0.2794
  211MOL0     O29039   0.969   9.493   8.962  0.3803 -0.2604  0.3051
  211MOL0     C29040   0.838   9.489   9.013 -0.5290  0.5553  1.6928
  211MOL0     C29041   0.789   9.620   9.073 -0.1397  0.0005  0.4287
  211MOL0     C29042   0.643   9.605   9.101  0.0270 -0.3589  0.0256
  211MOL0     C29043   0.593   9.742   9.145 -1.1756  0.4312 -0.4597
  211MOL0     C29044   0.450   9.741   9.159 -0.5016  0.6296  0.0565
  211MOL0     C29045   0.328   9.728   9.179  0.3942  0.0747  0.0556
  211MOL0     C29046   1.077   9.497   9.196 -0.5437  0.0673 -0.0763
  211MOL0     C29047   1.201   9.514   9.268  0.0667 -0.3533  0.1253
  211MOL0     C29048   1.184   9.506   9.414 -1.1574  0.5465  0.8058
  211MOL0     H29049   1.525   9.426   9.571 -0.8918  2.6562 -0.3048
  211MOL0     H29050   1.758   9.377   9.645 -0.0028 -0.3293 -1.2151
  211MOL0     H29051   1.991   9.359   9.681 -3.3219  0.0712  0.4291
  211MOL0     H29052   1.925   9.484   9.781  0.7598 -2.8037  1.5817
  211MOL0     H29053   2.148   9.452   9.852  1.3001 -1.8024 -1.6107
  211MOL0     H29054   2.213   9.450   9.685  1.9757  4.5353 -1.8552
  211MOL0     H29055   2.279   9.673   9.784  0.1619 -0.8145  1.1978
  211MOL0     H29056   2.140   9.701   9.674 -0.2395  0.4185  1.0835
  211MOL0     H29057   1.996   9.696   9.889 -0.4756  1.7216  1.3208
  211MOL0     H29058   2.137   9.658   9.984  2.8170 -0.2386 -0.0477
  211MOL0     H29059   2.063   9.903   9.965 -1.0011 -0.5853 -1.4001
  211MOL0     H29060   2.119   9.908   9.805  0.3080  1.9083  0.2991
  211MOL0     H29061   2.284   9.823  10.058 -0.2962  0.5258  1.9965
  211MOL0     H29062   2.366   9.833   9.903  0.7519  0.2620  1.2315
  211MOL0     H29063   2.218  10.069  10.009  2.4490  1.7177  2.6102
  211MOL0     H29064   2.334  10.056   9.873  1.7694  2.7006  1.1786
  211MOL0     H29065   2.433  10.151  10.094 -1.4434  0.6486  0.5701
  211MOL0     H29066   2.365  10.008  10.170  2.8100 -1.9506  0.7022
  211MOL0     H29067   2.649  10.114   9.932 -0.3846 -0.5942 -0.8534
  211MOL0     H29068   2.938   9.904  10.008  2.8095  0.4869 -2.0528
  211MOL0     H29069   2.889  10.007   9.870  1.5057 -0.6261 -1.2220
  211MOL0     H29070   2.856   9.793   9.739 -0.1671 -2.7533 -1.1751
  211MOL0     H29071   3.026   9.830   9.800 -0.7278  2.8294  0.3444
  211MOL0     H29072   2.811   9.635   9.859 -0.5717  0.9482 -1.6942
  211MOL0     H29073   2.976   9.595   9.800 -2.3928  0.0791 -2.0826
  211MOL0     H29074   2.914   9.722  10.079 -0.2915  0.1377 -0.5958
  211MOL0     H29075   2.927   9.545  10.052  2.9340 -1.6840 -1.4803
  211MOL0     H29076   3.338   9.762  10.056 -0.5384 -1.7364 -0.0277
  211MOL0     H29077   3.579   9.724  10.313 -2.3973 -1.4283  0.0708
  211MOL0     H29078   3.497   9.880  10.297 -2.3358 -0.4063  0.1134
  211MOL0     H29079   3.542   9.797  10.149 -0.0182 -2.6579 -0.5073
  211MOL0     H29080   3.328   9.677  10.791  0.7410  1.6602  3.0719
  211MOL0     H29081   3.474   9.691  10.998 -0.2234 -1.5662  1.4638
  211MOL0     H29082   3.594   9.659  11.169 -1.2549 -0.8663 -0.3607
  211MOL0     H29083   3.591   9.483  11.221 -2.3271  0.6801 -0.4088
  211MOL0     H29084   3.718   9.598  11.369  2.7567 -1.7369  1.0977
  211MOL0     H29085   3.832   9.518  11.279  1.7482  1.2980 -1.6911
  211MOL0     H29086   3.759   9.801  11.225 -1.8003 -1.9053  1.0728
  211MOL0     H29087   3.887   9.726  11.135 -1.7091  1.2621 -0.7027
  211MOL0     H29088   3.977   9.673  11.400 -1.7710 -0.6806  1.5135
  211MOL0     H29089   3.860   9.798  11.440 -0.4176 -0.3581 -0.3647
  211MOL0     H29090   4.087   9.849  11.247  1.6547  2.3131 -0.5271
  211MOL0     H29091   3.966   9.959  11.313 -1.3950 -1.6248  2.6688
  211MOL0     H29092   4.129   9.827  11.512 -0.0125 -0.7726 -1.2321
  211MOL0     H29093   4.029   9.970  11.516 -0.1693  1.0833  0.6369
  211MOL0     H29094   4.203  10.089  11.378 -0.1609  1.3124  1.0360
  211MOL0     H29095   4.274   9.934  11.322 -2.2069  1.7457 -2.1379
  211MOL0     H29096   4.362   9.893  11.556 -1.0307 -1.1819 -1.2035
  211MOL0     H29097   4.310  10.064  11.595  0.5450  1.6235 -0.9246
  211MOL0     H29098   3.722   9.376  10.854  0.9735  2.2232  0.2592
  211MOL0     H29099   3.599   9.365  10.652  1.9205  0.5546 -1.0692
  211MOL0     H29100   3.154   9.532  10.462 -1.2698  0.4332  0.4135
  211MOL0     H29101   3.028   9.521  10.240 -2.1570  1.5370  0.8049
  211MOL0     H29102   1.887   9.733   9.442  0.5810 -1.0361 -0.6213
  211MOL0     H29103   1.680   9.766   9.358  3.1623 -1.0443 -1.9973
  211MOL0     H29104   1.406   9.530   9.002 -0.3543  0.5157  0.1047
  211MOL0     H29105   1.193   9.484   8.881  0.0740 -2.7810  1.2999
  211MOL0     H29106   0.775   9.458   8.929  1.1675 -2.3185  1.3465
  211MOL0     H29107   0.834   9.410   9.089 -0.3574 -0.2146  0.9234
  211MOL0     H29108   0.811   9.696   8.998  1.7336  0.1237  1.0460
  211MOL0     H29109   0.846   9.644   9.164 -0.0478  0.7213  0.1882
  211MOL0     H29110   0.585   9.579   9.012 -1.5313  1.3402  0.4869
  211MOL0     H29111   0.636   9.524   9.174  0.9494 -1.7769 -1.3795
  211MOL0     H29112   0.618   9.812   9.065  0.5815 -1.7260 -1.9404
  211MOL0     H29113   0.641   9.772   9.238  0.5646 -0.9189 -0.8598
  211MOL0     H29114   0.228   9.732   9.217  1.5134  0.1244  3.4167
  211MOL0     H29115   0.991   9.489   9.262 -0.5886  0.1491 -0.1252
  211MOL0     H29116   1.264   9.448   9.460  0.3878  1.5377 -0.5090
  211MOL0     H29117   1.193   9.609   9.450  2.0233 -0.0440  2.0423
  211MOL0     H29118   1.086   9.466   9.441 -0.6750 -0.3664  1.2213
  212MOL0     O29119  10.308   2.626   9.294 -0.2589  0.0868 -0.0088
  212MOL0     C29120  10.280   2.716   9.223  0.6052  0.0647  0.0596
  212MOL0     O29121  10.334   2.841   9.236  0.5265  0.4484 -0.1839
  212MOL0     C29122  10.428   2.877   9.324  0.9324 -0.1481  0.4164
  212MOL0     C29123  10.428   3.009   9.377  1.2322 -0.1807  0.0373
  212MOL0     C29124  10.517   3.043   9.470 -0.0220  0.8267 -0.7408
  212MOL0     C29125  10.618   2.955   9.519 -0.0077 -0.1225 -0.0802
  212MOL0     O29126  10.711   2.992   9.610  0.6257  0.3511  0.1828
  212MOL0     C29127  10.692   3.106   9.693  0.0555 -0.5122  1.1983
  212MOL0     C29128  10.794   3.119   9.801 -0.0879 -0.4211 -1.2906
  212MOL0     C29129  10.788   3.247   9.882  0.3114 -0.3185  0.4873
  212MOL0     C29130  10.881   3.245   9.996  0.2379 -0.0817 -0.0417
  212MOL0     C29131  10.861   3.380  10.078  0.7949  0.8132  0.4721
  212MOL0     C29132  10.972   3.380  10.193  0.0294  0.3785 -0.6032
  212MOL0     C29133  10.978   3.511  10.277  0.8319  0.4403 -0.0199
  212MOL0     C29134  10.999   3.626  10.179 -0.6489 -0.2259 -0.0272
  212MOL0     N29135  11.077   3.730  10.243 -0.0794 -0.2160 -0.1296
  212MOL0     C29136  11.203   3.709  10.294 -0.3571 -0.3160 -1.4776
  212MOL0     C29137  11.264   3.831  10.299  0.4993 -0.7733  0.0933
  212MOL0     C29138  11.401   3.860  10.356  0.0639  0.2019  0.6658
  212MOL0     C29139  11.461   3.981  10.293 -0.3385 -0.6141  1.0833
  212MOL0     C29140  11.511   3.959  10.154  0.4235 -0.7287  1.0365
  212MOL0     C29141  11.606   4.076  10.106  0.3125  0.6031 -0.6927
  212MOL0     O29142  11.629   4.040   9.970  0.4660 -0.0881 -0.3773
  212MOL0     C29143  11.744   4.085   9.908 -0.0711 -0.0892  0.1735
  212MOL0     C29144  11.852   4.150   9.969  0.3616 -0.5190  0.5150
  212MOL0     C29145  11.964   4.186   9.895  0.3231  0.2951  0.1692
  212MOL0     C29146  12.066   4.274   9.973 -0.1259  0.7631 -0.3877
  212MOL0     C29147  11.982   4.144   9.761 -0.3841 -0.3995 -0.4699
  212MOL0     C29148  12.106   4.170   9.680 -0.4711  0.5695  0.8652
  212MOL0     O29149  12.094   4.169   9.539 -0.0146  0.5886  0.3348
  212MOL0     C29150  12.195   4.202   9.455 -0.6451 -0.3129  0.1398
  212MOL0     C29151  12.224   4.338   9.425  0.0720 -0.0332 -0.0348
  212MOL0     C29152  12.315   4.370   9.320  0.6750  0.0277 -0.7928
  212MOL0     C29153  12.389   4.275   9.259 -0.8801  0.5538 -0.1388
  212MOL0     O29154  12.478   4.312   9.162  0.7011 -0.2182 -0.2789
  212MOL0     C29155  12.575   4.219   9.124 -0.3497  0.3822  0.0620
  212MOL0     C29156  12.679   4.306   9.054  0.2334 -0.7570 -0.5829
  212MOL0     C29157  12.722   4.438   9.126 -0.5828 -0.2171  0.5221
  212MOL0     C29158  12.814   4.421   9.254 -0.0474 -0.2339  0.3956
  212MOL0     C29159  12.937   4.328   9.232 -0.2355 -0.1619 -0.0738
  212MOL0     C29160  13.034   4.324   9.346  0.2379 -0.6080  0.7931
  212MOL0     C29161  13.144   4.219   9.329  0.0614  0.4866  0.2366
  212MOL0     C29162  13.237   4.239   9.208  0.7208  0.0058 -0.3184
  212MOL0    Cl29163  13.337   4.098   9.198 -0.3214 -0.1994 -0.0026
  212MOL0     C29164  12.368   4.136   9.295  0.3894 -0.0239  1.2857
  212MOL0     C29165  12.270   4.102   9.386 -0.7130 -0.2230  0.5180
  212MOL0     O29166  12.220   4.194   9.733  0.0243 -0.2883 -0.3164
  212MOL0     C29167  11.870   4.081   9.704  0.3889  0.1793  0.1492
  212MOL0     C29168  11.750   4.056   9.772  0.2624 -0.9543 -0.4106
  212MOL0     N29169  11.181   3.927  10.243  0.5057 -0.0431 -0.5076
  212MOL0     N29170  11.075   3.861  10.207  0.2229  0.3729  0.1514
  212MOL0     C29171  10.623   2.830   9.455  0.5157  0.1197 -0.4519
  212MOL0     C29172  10.526   2.784   9.360  0.6100  0.3727 -0.4116
  212MOL0     C29173  10.189   2.697   9.102  0.2421 -0.3335 -0.0631
  212MOL0     C29174  10.156   2.819   9.024 -0.2412  0.5130  0.4710
  212MOL0     C29175  10.066   2.812   8.921 -0.5398 -0.8155  0.1414
  212MOL0     C29176  10.010   2.695   8.885  0.1916  0.4915  0.2645
  212MOL0     O29177   9.917   2.678   8.784 -0.1858  0.5031 -0.0746
  212MOL0     C29178   9.864   2.797   8.724  0.4663  0.5838  0.7866
  212MOL0     C29179   9.713   2.769   8.668  0.0850 -0.6782 -1.3206
  212MOL0     C29180   9.636   2.898   8.618  0.3087 -0.1647 -0.1197
  212MOL0     C29181   9.704   2.984   8.501  0.1843 -1.0659  0.2353
  212MOL0     C29182   9.694   2.899   8.381  0.0334  0.5116 -0.4211
  212MOL0     C29183   9.689   2.824   8.286 -0.4441  0.4115  0.1161
  212MOL0     C29184  10.032   2.575   8.959 -0.0138 -0.3224  0.7075
  212MOL0     C29185  10.116   2.578   9.079  0.4009  0.4057 -0.1902
  212MOL0     C29186  10.141   2.449   9.152  0.0388  0.9499  0.5291
  212MOL0     H29187  10.356   3.080   9.337  2.1392  1.2881  0.9395
  212MOL0     H29188  10.532   3.146   9.502 -2.4872  0.8109  0.6667
  212MOL0     H29189  10.593   3.103   9.740 -1.3120 -1.7674 -1.5099
  212MOL0     H29190  10.697   3.194   9.629 -3.0483  0.7908  2.5380
  212MOL0     H29191  10.788   3.042   9.879  0.1156  0.5181 -0.3099
  212MOL0     H29192  10.891   3.113   9.752  1.4267  1.5207  1.1819
  212MOL0     H29193  10.808   3.329   9.813  1.6948  0.4082  1.6965
  212MOL0     H29194  10.687   3.254   9.922  0.4791 -1.5188  1.1670
  212MOL0     H29195  10.866   3.153  10.053 -0.3529 -0.2492 -0.4635
  212MOL0     H29196  10.984   3.244   9.961  0.1729  2.0042 -0.4149
  212MOL0     H29197  10.754   3.382  10.103  0.1803  0.7054 -1.8926
  212MOL0     H29198  10.861   3.463  10.007 -3.4484  1.6469  1.1704
  212MOL0     H29199  10.950   3.297  10.261 -0.0483 -1.3072 -2.5726
  212MOL0     H29200  11.073   3.370  10.152 -0.0572  0.0080 -0.7364
  212MOL0     H29201  11.057   3.506  10.353  1.9894  0.0588 -1.2098
  212MOL0     H29202  10.881   3.523  10.325  0.0553  0.8057 -1.6152
  212MOL0     H29203  11.042   3.596  10.083  2.0925  0.4203  0.9027
  212MOL0     H29204  10.901   3.667  10.155 -0.0504  1.2688 -0.0415
  212MOL0     H29205  11.256   3.616  10.317  0.1276  0.0260 -1.1822
  212MOL0     H29206  11.467   3.777  10.328  0.2901  0.5237  0.2302
  212MOL0     H29207  11.389   3.869  10.465 -3.1290 -3.4215  0.8408
  212MOL0     H29208  11.385   4.060  10.295 -0.2688 -0.5153  0.1371
  212MOL0     H29209  11.547   4.028  10.343 -1.9697  1.0621  2.4843
  212MOL0     H29210  11.554   3.859  10.146 -1.7197 -1.6166 -0.0490
  212MOL0     H29211  11.429   3.971  10.083  0.5334  1.0421  1.1459
  212MOL0     H29212  11.550   4.170  10.104  2.3863  1.9151 -0.1511
  212MOL0     H29213  11.693   4.072  10.173  0.8945 -0.0276 -1.4535
  212MOL0     H29214  11.845   4.173  10.075  1.2357 -1.3159  0.7560
  212MOL0     H29215  12.032   4.340  10.053  2.2197  0.9169  0.5760
  212MOL0     H29216  12.126   4.329   9.900 -0.2934  1.6068  0.0983
  212MOL0     H29217  12.134   4.203  10.022 -0.7368 -0.9864 -1.9362
  212MOL0     H29218  12.167   4.419   9.470  1.5108  0.6089  0.6894
  212MOL0     H29219  12.334   4.473   9.292 -1.5674  0.3293 -1.3216
  212MOL0     H29220  12.626   4.168   9.207  1.7883  0.8966 -0.8714
  212MOL0     H29221  12.525   4.148   9.058 -1.3898  0.0826  1.1365
  212MOL0     H29222  12.766   4.245   9.026  1.1511 -1.0510  2.5427
  212MOL0     H29223  12.631   4.323   8.957 -1.0385  0.5760  0.2480
  212MOL0     H29224  12.633   4.497   9.149  1.4717  4.1976 -1.4704
  212MOL0     H29225  12.768   4.494   9.043 -2.7969  1.8752  0.5763
  212MOL0     H29226  12.756   4.365   9.328  2.7488 -2.7691  0.8651
  212MOL0     H29227  12.836   4.519   9.297  2.3984  0.5465 -2.3623
  212MOL0     H29228  12.897   4.228   9.212 -0.1152 -0.3823  0.7785
  212MOL0     H29229  12.998   4.358   9.146  0.2943  2.0525  1.0175
  212MOL0     H29230  12.980   4.311   9.440 -0.1527 -3.7455  0.2678
  212MOL0     H29231  13.091   4.417   9.355 -0.5735 -0.1867  1.6500
  212MOL0     H29232  13.091   4.123   9.322 -1.4779  1.2450  1.0452
  212MOL0     H29233  13.204   4.215   9.420  0.8175  1.6642 -0.1865
  212MOL0     H29234  13.299   4.326   9.232 -0.3730 -0.0798  3.3841
  212MOL0     H29235  13.188   4.259   9.112 -0.0824  0.7531  0.2376
  212MOL0     H29236  12.415   4.053   9.244  0.0298  0.0453  0.8418
  212MOL0     H29237  12.256   3.997   9.409  0.5651 -0.5767 -0.1906
  212MOL0     H29238  11.872   4.045   9.601  3.2939 -2.0840  0.8828
  212MOL0     H29239  11.668   4.002   9.726  1.4161 -1.1090 -2.4350
  212MOL0     H29240  10.704   2.762   9.479 -0.1411 -0.2416  0.8077
  212MOL0     H29241  10.566   2.698   9.308  2.7959  1.4864 -0.6787
  212MOL0     H29242  10.198   2.917   9.041  2.9744 -0.7079  0.2604
  212MOL0     H29243  10.052   2.907   8.870 -0.0097 -0.8038  0.0127
  212MOL0     H29244   9.842   2.871   8.801  0.1854  0.0512  1.2248
  212MOL0     H29245   9.928   2.840   8.647 -0.0237  0.2436  0.1751
  212MOL0     H29246   9.650   2.739   8.752  1.2612 -0.1465 -0.2111
  212MOL0     H29247   9.718   2.686   8.597  0.6119 -1.5733 -0.2729
  212MOL0     H29248   9.534   2.878   8.585  0.5885  1.3276 -2.1023
  212MOL0     H29249   9.620   2.960   8.707  0.7815 -1.1251  0.6484
  212MOL0     H29250   9.809   3.013   8.511  1.5766 -4.0660 -3.2695
  212MOL0     H29251   9.639   3.068   8.475 -0.1623 -2.0203 -2.2523
  212MOL0     H29252   9.677   2.751   8.208 -0.3815 -1.9110  2.1644
  212MOL0     H29253   9.984   2.483   8.927  0.2909  0.1475 -1.1927
  212MOL0     H29254  10.096   2.365   9.100 -1.6051  2.2220 -0.1788
  212MOL0     H29255  10.250   2.438   9.160 -0.0174  0.4402  0.6631
  212MOL0     H29256  10.096   2.451   9.252 -0.6751  1.4361  0.1995
  213MOL0     O29257   8.698   8.265   8.190 -0.8933  0.1612 -0.0987
  213MOL0     C29258   8.687   8.144   8.215  0.5460  0.2221  0.6329
  213MOL0     O29259   8.787   8.055   8.189  0.1697  0.5660 -0.3716
  213MOL0     C29260   8.920   8.088   8.169  0.2522  0.3998  0.1006
  213MOL0     C29261   8.987   8.198   8.218  0.0792 -0.3095  0.6072
  213MOL0     C29262   9.124   8.224   8.186  0.4333  0.1548 -0.7539
  213MOL0     C29263   9.199   8.135   8.104  0.1449  1.0212 -0.1744
  213MOL0     O29264   9.324   8.183   8.062 -0.3141 -0.2496 -0.6079
  213MOL0     C29265   9.429   8.087   8.050  0.0048 -0.1612 -0.3582
  213MOL0     C29266   9.543   8.150   8.126 -0.1094  0.4201  0.7734
  213MOL0     C29267   9.662   8.045   8.140 -0.1147 -1.0602 -0.7246
  213MOL0     C29268   9.801   8.115   8.158  0.4179  1.2491  0.3875
  213MOL0     C29269   9.926   8.031   8.175  0.8544 -0.3450 -0.0939
  213MOL0     C29270  10.049   8.118   8.159  0.2648 -0.3689 -0.3977
  213MOL0     C29271  10.170   8.028   8.168  1.0304 -0.0958  0.2744
  213MOL0     C29272  10.291   8.111   8.190 -0.1607  0.3165 -1.0717
  213MOL0     N29273  10.410   8.031   8.152  0.3026  0.2970 -0.2107
  213MOL0     C29274  10.484   8.060   8.039  0.2003 -0.2652  0.3503
  213MOL0     C29275  10.587   7.971   8.048  0.7347  0.5514  0.0200
  213MOL0     C29276  10.710   7.971   7.956  0.0891  0.9208  0.2034
  213MOL0     C29277  10.831   8.056   8.011  1.0264 -0.9908 -0.2321
  213MOL0     C29278  10.925   8.101   7.906  0.7613  0.1588  0.5112
  213MOL0     C29279  11.029   7.994   7.874  0.2898  0.2744 -0.3211
  213MOL0     O29280  11.148   8.045   7.825  0.1004 -0.4514  0.5655
  213MOL0     C29281  11.238   8.109   7.906  0.1510  0.5784 -0.6705
  213MOL0     C29282  11.218   8.137   8.037 -0.2126 -0.2496 -0.3532
  213MOL0     C29283  11.318   8.204   8.107  0.3848  0.4859 -0.6097
  213MOL0     C29284  11.273   8.243   8.242 -0.2846  0.5596 -0.4257
  213MOL0     C29285  11.446   8.240   8.048 -0.2411 -0.1141 -0.3905
  213MOL0     C29286  11.558   8.308   8.117 -0.3634 -0.4372 -0.7282
  213MOL0     O29287  11.657   8.353   8.031  0.4827  0.0599  0.0284
  213MOL0     C29288  11.768   8.413   8.078  0.2643  0.2073 -0.4865
  213MOL0     C29289  11.829   8.383   8.202  0.0835  0.1302  0.6112
  213MOL0     C29290  11.947   8.449   8.238 -0.8457 -0.2254 -0.6049
  213MOL0     C29291  12.022   8.530   8.146  0.1181  0.0662  1.5645
  213MOL0     O29292  12.153   8.558   8.176 -0.7157  0.0709  0.0950
  213MOL0     C29293  12.223   8.658   8.098 -0.2404 -0.2107  0.0013
  213MOL0     C29294  12.359   8.677   8.146  0.5334 -0.0714  1.5360
  213MOL0     C29295  12.438   8.789   8.079 -0.0588 -0.3752  0.7200
  213MOL0     C29296  12.473   8.761   7.927  0.0359 -0.1241  0.4736
  213MOL0     C29297  12.587   8.861   7.864  0.3866  0.5569 -0.0795
  213MOL0     C29298  12.725   8.831   7.916 -0.3511  0.0100 -0.2235
  213MOL0     C29299  12.825   8.937   7.862 -0.8260  1.4202 -0.0727
  213MOL0     C29300  12.965   8.898   7.907 -0.6032  0.1916  0.5187
  213MOL0    Cl29301  13.038   8.742   7.860 -0.2387 -0.0311 -0.1114
  213MOL0     C29302  11.968   8.555   8.020 -0.3428  0.2164 -0.0504
  213MOL0     C29303  11.845   8.493   7.987 -0.2520  0.2714  0.2033
  213MOL0     O29304  11.551   8.333   8.237  0.4807  0.4231 -0.3468
  213MOL0     C29305  11.458   8.214   7.910 -0.1150  0.0028  0.0637
  213MOL0     C29306  11.355   8.147   7.843  0.2347  0.9809 -0.5416
  213MOL0     N29307  10.574   7.889   8.164 -0.4286 -0.6156 -0.2034
  213MOL0     N29308  10.472   7.935   8.233 -0.0096 -1.9923  0.3513
  213MOL0     C29309   9.135   8.024   8.060  0.1881 -0.2289  0.0343
  213MOL0     C29310   9.002   8.002   8.089 -0.4081  0.0319  0.1437
  213MOL0     C29311   8.552   8.095   8.240 -0.1332 -0.1420  0.0110
  213MOL0     C29312   8.536   7.952   8.258 -0.4599 -0.8296  0.4512
  213MOL0     C29313   8.415   7.888   8.268 -0.3577  0.8116  0.8233
  213MOL0     C29314   8.298   7.968   8.274  0.5028  0.7639 -0.2253
  213MOL0     O29315   8.179   7.899   8.308  0.4628  0.1051 -0.1462
  213MOL0     C29316   8.076   7.906   8.216  0.6405  0.1602 -0.2899
  213MOL0     C29317   7.944   7.860   8.288  0.2992 -0.8345 -0.0185
  213MOL0     C29318   7.937   7.708   8.302  1.0395  0.4117 -0.4165
  213MOL0     C29319   7.844   7.681   8.433  0.1112 -0.3059  0.7403
  213MOL0     C29320   7.937   7.621   8.534 -0.2503 -0.0796  0.6840
  213MOL0     C29321   8.022   7.591   8.608  0.7148 -0.4777 -0.6682
  213MOL0     C29322   8.308   8.105   8.268  0.1910 -0.3636 -0.0081
  213MOL0     C29323   8.429   8.168   8.245 -0.2581  0.0279  0.6487
  213MOL0     C29324   8.426   8.324   8.234  0.1713  0.0604 -0.3207
  213MOL0     H29325   8.935   8.266   8.286 -2.0556  0.9849 -2.1403
  213MOL0     H29326   9.156   8.322   8.221 -2.4348  0.7485  0.5320
  213MOL0     H29327   9.446   8.072   7.943 -3.3187  2.3111 -1.4012
  213MOL0     H29328   9.401   7.993   8.098 -3.2379  1.4219  1.1617
  213MOL0     H29329   9.564   8.249   8.086 -0.9626  0.5237  0.5786
  213MOL0     H29330   9.506   8.169   8.227 -0.6938  0.2758  0.5856
  213MOL0     H29331   9.637   7.986   8.228  0.2309  1.5424  1.2269
  213MOL0     H29332   9.679   7.985   8.050  1.5304 -0.3276 -0.9471
  213MOL0     H29333   9.816   8.181   8.071  2.1585  0.3723 -0.0367
  213MOL0     H29334   9.800   8.175   8.249  1.1391 -0.0017  1.2470
  213MOL0     H29335   9.922   7.955   8.097  1.7686 -0.3154 -0.1858
  213MOL0     H29336   9.922   7.978   8.271  2.0826 -1.4819 -0.6406
  213MOL0     H29337  10.048   8.167   8.062 -2.3959 -2.5542 -1.6013
  213MOL0     H29338  10.044   8.200   8.231 -1.5890 -0.0111 -0.8842
  213MOL0     H29339  10.179   7.975   8.073  1.7605 -0.2705  0.4319
  213MOL0     H29340  10.153   7.955   8.248 -1.5255 -0.8574 -0.8612
  213MOL0     H29341  10.288   8.197   8.122 -1.0646 -0.5973 -2.2212
  213MOL0     H29342  10.302   8.142   8.295 -0.4827 -0.7530 -0.7073
  213MOL0     H29343  10.472   8.128   7.956  1.0410 -0.3235  0.1684
  213MOL0     H29344  10.685   8.011   7.857  2.2156 -1.2703 -1.3428
  213MOL0     H29345  10.734   7.866   7.937  0.7108  0.7698  1.6928
  213MOL0     H29346  10.791   8.144   8.061  0.1446 -1.4054 -0.2009
  213MOL0     H29347  10.884   8.007   8.093  0.1257  0.8039  1.5117
  213MOL0     H29348  10.872   8.122   7.813  0.3738 -0.9542  0.4650
  213MOL0     H29349  10.965   8.199   7.936 -0.2032  1.1092 -1.1230
  213MOL0     H29350  11.052   7.931   7.960  0.7604  1.7824  0.6968
  213MOL0     H29351  10.989   7.926   7.798  1.2511 -0.7590  0.0845
  213MOL0     H29352  11.122   8.102   8.074  1.5889 -4.0312  1.2742
  213MOL0     H29353  11.296   8.347   8.267 -1.1859  0.4406  0.9920
  213MOL0     H29354  11.329   8.183   8.314 -0.0048  0.7364 -0.4944
  213MOL0     H29355  11.166   8.244   8.262 -0.3382 -0.3358 -0.6128
  213MOL0     H29356  11.789   8.309   8.270  0.7941  0.1561  1.0714
  213MOL0     H29357  12.003   8.431   8.330 -2.0624  1.1742  0.4471
  213MOL0     H29358  12.229   8.614   7.998 -1.8481  1.1319 -0.7183
  213MOL0     H29359  12.163   8.749   8.092  0.0703  0.3273  3.2348
  213MOL0     H29360  12.353   8.711   8.250 -1.3134  0.1631  1.3756
  213MOL0     H29361  12.418   8.585   8.139 -1.6573 -1.4205 -2.5302
  213MOL0     H29362  12.530   8.806   8.135 -1.3321 -1.3202  3.2488
  213MOL0     H29363  12.382   8.883   8.072  0.4450 -0.0907  0.4231
  213MOL0     H29364  12.378   8.777   7.876 -0.6617 -1.3973  1.3283
  213MOL0     H29365  12.495   8.656   7.909  0.3319 -0.1481  0.9584
  213MOL0     H29366  12.587   8.870   7.755  1.2047 -0.2900 -0.1734
  213MOL0     H29367  12.554   8.954   7.910  0.7300 -0.7842  3.1605
  213MOL0     H29368  12.763   8.739   7.872  0.5055  0.4137 -0.3527
  213MOL0     H29369  12.722   8.841   8.025 -3.9188  1.7725 -0.3107
  213MOL0     H29370  12.813   9.042   7.887 -0.0675  1.4561  0.1691
  213MOL0     H29371  12.823   8.934   7.753 -0.3601 -0.1980 -0.0673
  213MOL0     H29372  12.962   8.906   8.016  0.7776  2.7956  0.4606
  213MOL0     H29373  13.028   8.982   7.875 -2.0782  1.6473  1.2800
  213MOL0     H29374  12.019   8.617   7.947  0.4391  0.8093  0.9657
  213MOL0     H29375  11.810   8.480   7.885  2.5111 -3.1636 -0.4883
  213MOL0     H29376  11.547   8.235   7.851  1.2815 -3.6193  0.6018
  213MOL0     H29377  11.357   8.121   7.738 -1.8270 -1.4774 -0.0739
  213MOL0     H29378   9.183   7.955   7.992  2.5178  0.4216  0.9233
  213MOL0     H29379   8.956   7.914   8.046  2.0233 -1.1510 -0.1735
  213MOL0     H29380   8.633   7.902   8.261  0.6587  1.2883  1.8329
  213MOL0     H29381   8.399   7.782   8.282 -1.2633  0.8196 -0.0335
  213MOL0     H29382   8.072   8.013   8.192 -0.6423  0.4078  0.9299
  213MOL0     H29383   8.084   7.856   8.119  2.4651  0.5959 -0.4065
  213MOL0     H29384   7.860   7.881   8.221 -0.0749 -3.6743 -0.5749
  213MOL0     H29385   7.933   7.915   8.382  0.5804  1.1895 -1.1157
  213MOL0     H29386   7.888   7.653   8.221  1.6162  0.2857 -0.6880
  213MOL0     H29387   8.041   7.675   8.307  0.6361 -0.7466  1.0047
  213MOL0     H29388   7.766   7.609   8.406  1.5458 -1.0330 -1.7749
  213MOL0     H29389   7.807   7.778   8.467  0.4507 -0.2751  1.0220
  213MOL0     H29390   8.104   7.569   8.672  1.7858 -0.8899 -2.1287
  213MOL0     H29391   8.226   8.174   8.286  1.8368  0.6238  5.5253
  213MOL0     H29392   8.481   8.370   8.316 -2.0678  2.0195  0.1869
  213MOL0     H29393   8.452   8.354   8.132 -0.1125 -0.2507 -0.4853
  213MOL0     H29394   8.326   8.363   8.256  1.6726  2.8143  2.2002
  214MOL0     O29395   6.608   4.697   7.800  0.6045  0.5027  0.0669
  214MOL0     C29396   6.504   4.747   7.763 -0.2496  0.1692  0.2756
  214MOL0     O29397   6.496   4.874   7.721 -0.4654 -0.0471  0.0391
  214MOL0     C29398   6.554   4.987   7.782 -0.2730  0.1886 -0.2108
  214MOL0     C29399   6.613   4.980   7.912  0.0031  0.5776  0.0318
  214MOL0     C29400   6.687   5.084   7.966  0.3166 -0.3194 -0.3280
  214MOL0     C29401   6.701   5.208   7.901 -0.2551  0.1078 -0.0033
  214MOL0     O29402   6.767   5.308   7.953 -0.2555 -0.9031  0.0995
  214MOL0     C29403   6.872   5.275   8.048 -0.4365 -0.2325 -0.3413
  214MOL0     C29404   6.982   5.392   8.052 -0.7738 -0.2236 -0.2966
  214MOL0     C29405   7.121   5.354   8.113  0.5271  0.1435 -0.3972
  214MOL0     C29406   7.187   5.235   8.048 -0.0757 -0.6751 -0.0475
  214MOL0     C29407   7.335   5.238   8.048 -0.3780 -0.0928  0.2507
  214MOL0     C29408   7.394   5.106   7.992  0.4383 -0.2813  0.1689
  214MOL0     C29409   7.543   5.125   7.999 -1.0217  0.0000  0.3193
  214MOL0     C29410   7.594   5.190   7.872  0.2721  0.2464 -0.2038
  214MOL0     N29411   7.744   5.209   7.887 -0.0452 -0.7969 -0.6146
  214MOL0     C29412   7.841   5.124   7.858 -0.1311  0.0252  1.0410
  214MOL0     C29413   7.955   5.181   7.910  0.3560 -0.0988 -0.4486
  214MOL0     C29414   8.085   5.107   7.926  1.2222  0.1039 -0.6507
  214MOL0     C29415   8.182   5.137   7.820  0.2261 -0.4721  0.0548
  214MOL0     C29416   8.333   5.110   7.857 -0.3921 -0.1407 -0.0438
  214MOL0     C29417   8.344   4.969   7.911 -0.8870  0.0316  0.5479
  214MOL0     O29418   8.488   4.936   7.928 -0.6016  0.4512 -0.5172
  214MOL0     C29419   8.533   4.815   7.964 -0.3386 -0.0773 -0.2863
  214MOL0     C29420   8.444   4.719   8.001 -0.9435 -0.3055  0.8900
  214MOL0     C29421   8.490   4.587   8.028 -0.0883  0.7492  1.3659
  214MOL0     C29422   8.376   4.486   8.067  0.2303 -0.2117  0.1213
  214MOL0     C29423   8.626   4.555   8.032  1.6658 -0.1943  0.4805
  214MOL0     C29424   8.674   4.424   8.078 -0.4482 -0.0330 -0.2701
  214MOL0     O29425   8.815   4.405   8.052  0.2288 -0.3380  0.7717
  214MOL0     C29426   8.879   4.290   8.095  0.5950 -0.3735 -0.8578
  214MOL0     C29427   9.009   4.313   8.141  0.4101  0.9333 -0.2543
  214MOL0     C29428   9.087   4.197   8.167  0.0299 -0.9315  0.2250
  214MOL0     C29429   9.045   4.064   8.135  0.3692  0.0143 -0.6292
  214MOL0     O29430   9.117   3.952   8.138 -0.2574  1.0992 -0.6831
  214MOL0     C29431   9.253   3.976   8.100 -0.3532 -0.7611  0.6071
  214MOL0     C29432   9.341   3.860   8.065 -0.0087  1.0315 -0.2245
  214MOL0     C29433   9.395   3.812   8.193 -0.1408 -0.0658 -0.2986
  214MOL0     C29434   9.459   3.679   8.161 -0.3997 -0.0120  0.4044
  214MOL0     C29435   9.545   3.644   8.278  0.7908 -0.9527  0.8478
  214MOL0     C29436   9.653   3.548   8.250 -0.0937 -0.1547 -0.3898
  214MOL0     C29437   9.740   3.536   8.372 -0.4144  0.3981 -0.3983
  214MOL0     C29438   9.840   3.423   8.350 -0.6206 -0.1263 -0.0037
  214MOL0    Cl29439   9.963   3.414   8.489 -0.0567  0.2172 -0.0478
  214MOL0     C29440   8.913   4.054   8.100  0.4382  0.7188 -0.5661
  214MOL0     C29441   8.820   4.160   8.099  0.4288 -0.3839  0.2870
  214MOL0     O29442   8.607   4.351   8.152  0.6407 -0.0140  0.1560
  214MOL0     C29443   8.715   4.655   7.982  0.1177 -0.8871 -0.6820
  214MOL0     C29444   8.670   4.786   7.945 -0.2211  1.2684  0.0511
  214MOL0     N29445   7.923   5.307   7.941 -0.2280 -0.3059  0.0614
  214MOL0     N29446   7.797   5.322   7.936 -0.2394 -0.2963 -0.2829
  214MOL0     C29447   6.634   5.212   7.778 -0.0936  0.3613 -0.8576
  214MOL0     C29448   6.561   5.109   7.713 -0.3001  0.4912 -0.8634
  214MOL0     C29449   6.381   4.657   7.752  0.1730 -0.7974 -1.1127
  214MOL0     C29450   6.260   4.721   7.711  0.2960 -0.3400  0.2170
  214MOL0     C29451   6.147   4.646   7.692 -0.2148 -0.2784  0.6987
  214MOL0     C29452   6.137   4.507   7.709  0.4772  0.3133 -0.1679
  214MOL0     O29453   6.010   4.456   7.698  0.7701 -0.1942  0.3840
  214MOL0     C29454   5.970   4.357   7.787 -0.4594 -0.9972  0.2971
  214MOL0     C29455   5.856   4.289   7.719  0.3397  1.0399 -0.0619
  214MOL0     C29456   5.731   4.379   7.710  0.1108  0.8638 -0.1136
  214MOL0     C29457   5.706   4.448   7.572 -0.0267 -0.2822  0.4625
  214MOL0     C29458   5.574   4.516   7.548 -0.9096  0.3522 -0.0014
  214MOL0     C29459   5.466   4.570   7.542  0.8104  0.7592  0.8222
  214MOL0     C29460   6.255   4.448   7.762  0.1116 -0.7273 -0.6514
  214MOL0     C29461   6.377   4.519   7.781  0.7719  0.0140 -0.1665
  214MOL0     C29462   6.494   4.440   7.838  0.3662  0.0990  1.0742
  214MOL0     H29463   6.605   4.883   7.959 -2.3149  0.0027 -1.4003
  214MOL0     H29464   6.740   5.063   8.059 -0.2079 -0.7942 -0.1365
  214MOL0     H29465   6.924   5.190   8.003 -1.6205  0.6069 -3.5628
  214MOL0     H29466   6.831   5.241   8.143 -0.1567 -2.2232 -0.8848
  214MOL0     H29467   7.000   5.405   7.945  2.2797 -1.8617 -0.0860
  214MOL0     H29468   6.939   5.482   8.097 -0.3884  0.2102 -0.7823
  214MOL0     H29469   7.189   5.440   8.106  1.8847 -0.6885  1.7168
  214MOL0     H29470   7.108   5.350   8.221 -1.5740  2.9456 -0.4415
  214MOL0     H29471   7.153   5.138   8.085 -0.1281 -0.3843  0.6734
  214MOL0     H29472   7.170   5.241   7.940  3.8679  0.1602 -0.7646
  214MOL0     H29473   7.378   5.241   8.149  1.5717 -3.3905 -0.2982
  214MOL0     H29474   7.364   5.325   7.989 -5.5968  1.7146 -0.1334
  214MOL0     H29475   7.366   5.018   8.050  0.4021  0.5836  1.4919
  214MOL0     H29476   7.376   5.083   7.886  2.2599  0.1168 -0.2716
  214MOL0     H29477   7.589   5.026   8.011  0.8604  1.1187  3.8526
  214MOL0     H29478   7.574   5.190   8.082 -0.4499 -1.3860  1.2343
  214MOL0     H29479   7.580   5.129   7.782  1.4256 -0.1308 -0.1415
  214MOL0     H29480   7.535   5.276   7.840 -1.2739 -0.7288 -0.1475
  214MOL0     H29481   7.828   5.020   7.832  0.5338 -0.0159  0.8505
  214MOL0     H29482   8.067   4.999   7.926  0.2024  0.2537  0.3361
  214MOL0     H29483   8.121   5.139   8.024 -1.0862 -0.6861  0.5155
  214MOL0     H29484   8.154   5.073   7.736  1.8498 -0.1533 -0.7751
  214MOL0     H29485   8.168   5.239   7.785 -1.0315 -0.2902  1.0251
  214MOL0     H29486   8.387   5.123   7.763 -1.0973  0.3401 -0.3932
  214MOL0     H29487   8.382   5.175   7.930  2.6248 -1.0742 -1.0897
  214MOL0     H29488   8.284   4.955   8.001  1.7667  0.4613  2.5220
  214MOL0     H29489   8.307   4.901   7.835  1.1286  1.6609 -2.0822
  214MOL0     H29490   8.339   4.746   7.998 -0.2661  3.0219  2.3000
  214MOL0     H29491   8.395   4.453   8.170 -2.7162 -3.2967 -0.1668
  214MOL0     H29492   8.369   4.394   8.008  0.2829  0.3323 -0.7471
  214MOL0     H29493   8.280   4.539   8.062  0.1499 -0.4701 -1.6543
  214MOL0     H29494   9.047   4.414   8.154 -0.1931  0.9540  1.7207
  214MOL0     H29495   9.191   4.206   8.199  0.3779  0.6981 -1.1983
  214MOL0     H29496   9.250   4.035   8.008  1.4250  0.8002  1.4869
  214MOL0     H29497   9.312   4.042   8.163  1.4826  0.6474 -2.3894
  214MOL0     H29498   9.275   3.786   8.019 -0.0667 -0.5689  2.2531
  214MOL0     H29499   9.428   3.886   8.003 -1.4354 -0.3535 -3.0096
  214MOL0     H29500   9.310   3.795   8.260  0.6368  0.0693  0.7452
  214MOL0     H29501   9.462   3.888   8.234  1.5760 -1.0521 -1.1923
  214MOL0     H29502   9.511   3.674   8.065  1.6053  4.2174  1.0559
  214MOL0     H29503   9.375   3.608   8.157 -0.6899  0.3632 -0.3714
  214MOL0     H29504   9.597   3.737   8.303  0.7666 -0.1439 -1.7932
  214MOL0     H29505   9.488   3.607   8.364  0.6462 -0.6857  0.8692
  214MOL0     H29506   9.716   3.589   8.170  2.4314  0.1200  1.6284
  214MOL0     H29507   9.607   3.453   8.221 -0.6975  0.1696 -0.5347
  214MOL0     H29508   9.684   3.500   8.459  0.1796 -1.4272 -0.7223
  214MOL0     H29509   9.787   3.632   8.395 -0.9777  0.7024 -0.5006
  214MOL0     H29510   9.888   3.441   8.253  1.2102 -1.3259  0.6197
  214MOL0     H29511   9.789   3.327   8.347  0.6712 -0.8610  0.4284
  214MOL0     H29512   8.870   3.958   8.075 -0.4290  1.4103 -1.8322
  214MOL0     H29513   8.716   4.146   8.072  1.1946 -0.6288 -2.9776
  214MOL0     H29514   8.821   4.638   7.973  0.1182 -2.4310  1.4073
  214MOL0     H29515   8.733   4.867   7.909 -0.8834  1.1647 -1.3777
  214MOL0     H29516   6.640   5.305   7.723  1.2362  1.7234  1.4168
  214MOL0     H29517   6.508   5.114   7.619  0.4447 -2.3551 -1.5299
  214MOL0     H29518   6.259   4.829   7.704 -1.4174 -0.2182  1.6523
  214MOL0     H29519   6.054   4.695   7.665 -0.2207 -1.1230 -0.9570
  214MOL0     H29520   6.044   4.277   7.797  1.0678  0.4416  0.8085
  214MOL0     H29521   5.945   4.401   7.884 -0.9414  1.3322 -0.8089
  214MOL0     H29522   5.829   4.192   7.763  0.8700  0.1007 -1.7036
  214MOL0     H29523   5.882   4.260   7.617 -0.7985  3.0113 -0.9689
  214MOL0     H29524   5.645   4.316   7.734 -0.8172  2.9727  2.5428
  214MOL0     H29525   5.728   4.455   7.789 -0.3823  0.4447  0.2781
  214MOL0     H29526   5.724   4.383   7.485 -1.3502  0.5892 -0.5081
  214MOL0     H29527   5.775   4.531   7.558 -1.2340  0.5063 -1.1964
  214MOL0     H29528   5.368   4.611   7.551  0.5202 -0.0123  1.2494
  214MOL0     H29529   6.241   4.344   7.791 -0.1008 -0.4809  0.1707
  214MOL0     H29530   6.547   4.397   7.753  1.2907  2.4262  0.4109
  214MOL0     H29531   6.548   4.500   7.911  1.1188  1.9821 -0.9285
  214MOL0     H29532   6.447   4.354   7.887 -2.5371 -0.3610 -2.0847
  215MOL0     O29533   8.340   2.228   2.176 -0.8735  0.7628  0.7901
  215MOL0     C29534   8.256   2.143   2.183 -0.6368  0.2128  1.0708
  215MOL0     O29535   8.273   2.010   2.216 -0.6164 -0.6876  0.4942
  215MOL0     C29536   8.394   1.955   2.199  0.0180  0.3403  0.1518
  215MOL0     C29537   8.504   1.994   2.116 -0.4482  0.0099 -0.1166
  215MOL0     C29538   8.627   1.929   2.139  0.8051 -0.9579 -0.3729
  215MOL0     C29539   8.648   1.845   2.242 -0.8661  0.4262 -0.8883
  215MOL0     O29540   8.779   1.801   2.260  0.7261 -0.0052  0.3413
  215MOL0     C29541   8.811   1.714   2.367  0.5577  0.2919  0.2386
  215MOL0     C29542   8.961   1.685   2.358  0.0086 -0.1720  0.2643
  215MOL0     C29543   9.058   1.808   2.347  0.2847 -0.1350 -0.3423
  215MOL0     C29544   9.199   1.758   2.389 -0.2053  0.1050  0.1410
  215MOL0     C29545   9.299   1.866   2.383 -0.4463 -0.3294  0.3824
  215MOL0     C29546   9.448   1.833   2.423 -0.1763  0.2497 -0.4602
  215MOL0     C29547   9.554   1.956   2.425  0.6270  0.1642  0.9872
  215MOL0     C29548   9.688   1.909   2.492 -0.2848  0.9038 -0.1311
  215MOL0     N29549   9.792   2.012   2.467  0.0504 -0.3644 -0.2237
  215MOL0     C29550   9.840   2.046   2.341  0.0819 -0.3299 -0.8586
  215MOL0     C29551   9.923   2.148   2.375 -1.0242 -0.5867 -0.1883
  215MOL0     C29552  10.001   2.228   2.268  0.7079  0.6881 -0.3610
  215MOL0     C29553  10.147   2.161   2.250  0.2249 -0.1813 -0.5136
  215MOL0     C29554  10.249   2.242   2.335  0.3111  0.1436  0.1113
  215MOL0     C29555  10.264   2.187   2.482 -0.1711  0.2357  0.8477
  215MOL0     O29556  10.382   2.255   2.541  0.0928  0.1528 -0.4133
  215MOL0     C29557  10.506   2.200   2.532 -1.0117  0.2379  0.2007
  215MOL0     C29558  10.537   2.094   2.452 -0.3199  1.2243  0.6227
  215MOL0     C29559  10.662   2.034   2.452 -0.5114 -0.5391 -0.3319
  215MOL0     C29560  10.683   1.930   2.349 -0.2542  0.0887 -0.0884
  215MOL0     C29561  10.763   2.078   2.545  0.3903 -0.6004 -0.5529
  215MOL0     C29562  10.907   2.024   2.545 -0.6403  0.7412  0.4769
  215MOL0     O29563  11.014   2.107   2.589  0.4472  0.1810 -0.9515
  215MOL0     C29564  11.135   2.056   2.631  0.4825  0.4431 -0.3398
  215MOL0     C29565  11.171   1.920   2.659  0.5425 -0.0846 -0.1438
  215MOL0     C29566  11.302   1.878   2.697 -0.9805  1.0617  0.5636
  215MOL0     C29567  11.405   1.971   2.697  0.8055  0.0203 -0.1880
  215MOL0     O29568  11.527   1.924   2.721  0.5075 -0.3556 -0.8021
  215MOL0     C29569  11.633   2.033   2.727 -0.7386  0.8163 -0.8626
  215MOL0     C29570  11.761   1.967   2.776  0.0421  0.1743 -0.7916
  215MOL0     C29571  11.882   2.068   2.764  0.4934 -0.2407  0.2114
  215MOL0     C29572  12.017   1.998   2.760  0.2406  0.3366  0.6993
  215MOL0     C29573  12.123   2.104   2.742 -0.5490  0.1910  0.1084
  215MOL0     C29574  12.263   2.058   2.788  0.1711  0.1518  0.0878
  215MOL0     C29575  12.367   2.159   2.752  0.4715  0.0691 -0.5853
  215MOL0     C29576  12.361   2.291   2.824 -0.1342  0.2904 -0.8493
  215MOL0    Cl29577  12.346   2.271   2.994  0.1374  0.0690 -0.2342
  215MOL0     C29578  11.375   2.107   2.676  0.0221 -0.1155 -0.0500
  215MOL0     C29579  11.239   2.148   2.642 -0.6752  0.1061 -0.9458
  215MOL0     O29580  10.922   1.902   2.508  0.5813  0.3299 -0.0998
  215MOL0     C29581  10.730   2.188   2.625 -0.7641 -0.0423  0.3817
  215MOL0     C29582  10.606   2.243   2.625  0.3068 -0.3163 -0.1266
  215MOL0     N29583   9.929   2.160   2.517 -0.1962 -0.0235  0.5959
  215MOL0     N29584   9.854   2.071   2.569  0.7969 -0.0522 -0.8300
  215MOL0     C29585   8.543   1.820   2.332  0.0009  0.3567 -0.0084
  215MOL0     C29586   8.420   1.869   2.303  0.0067  0.9080  0.1334
  215MOL0     C29587   8.119   2.194   2.155  0.5964  0.2455  0.4037
  215MOL0     C29588   8.109   2.304   2.071  0.0519  0.1887 -0.0892
  215MOL0     C29589   7.991   2.354   2.021 -0.1361  0.1430 -0.0640
  215MOL0     C29590   7.869   2.316   2.078 -0.9525  0.3321  0.7372
  215MOL0     O29591   7.750   2.363   2.035  0.5448  0.0828  0.1260
  215MOL0     C29592   7.756   2.461   1.922 -0.3044  0.5537 -0.7669
  215MOL0     C29593   7.624   2.474   1.859 -0.2366  1.0424  0.0961
  215MOL0     C29594   7.503   2.482   1.954 -0.3783 -0.0851  0.2796
  215MOL0     C29595   7.367   2.504   1.886 -0.1700 -0.6317  0.1310
  215MOL0     C29596   7.272   2.554   1.991 -0.0716  0.7057 -0.0143
  215MOL0     C29597   7.191   2.594   2.077  1.0628  0.0762 -0.0998
  215MOL0     C29598   7.878   2.229   2.193  0.3238 -0.3519  0.7667
  215MOL0     C29599   8.000   2.156   2.222 -0.6392  0.3639  1.1286
  215MOL0     C29600   7.984   2.043   2.327  0.1281  0.3391  0.1481
  215MOL0     H29601   8.497   2.082   2.053 -1.9205  0.8827  1.1991
  215MOL0     H29602   8.697   1.969   2.066 -1.5044  0.4645 -1.9657
  215MOL0     H29603   8.754   1.622   2.357  0.3345  0.2958  1.3892
  215MOL0     H29604   8.774   1.749   2.464 -0.6484 -1.9214  0.6219
  215MOL0     H29605   8.984   1.624   2.445  0.7905  0.2426  0.3597
  215MOL0     H29606   8.981   1.623   2.270  0.7118 -2.6803  2.0877
  215MOL0     H29607   9.055   1.846   2.244 -1.2490 -0.3486 -0.4047
  215MOL0     H29608   9.030   1.889   2.414  2.9900 -1.2668  2.3836
  215MOL0     H29609   9.199   1.724   2.493  6.4032 -2.2594 -0.2169
  215MOL0     H29610   9.230   1.677   2.323 -1.5368  0.7902 -1.4135
  215MOL0     H29611   9.258   1.932   2.460 -2.2574 -0.8975 -0.0321
  215MOL0     H29612   9.297   1.923   2.289  0.6003  0.6594  0.9441
  215MOL0     H29613   9.447   1.800   2.527  3.1224 -1.1180 -0.7389
  215MOL0     H29614   9.485   1.750   2.362 -0.1676 -0.3368  0.3328
  215MOL0     H29615   9.509   2.047   2.466  0.4368  0.6511 -0.2683
  215MOL0     H29616   9.580   1.974   2.321  1.5531 -0.4124  1.1038
  215MOL0     H29617   9.651   1.895   2.594 -4.1323 -0.0163 -1.4716
  215MOL0     H29618   9.720   1.811   2.455 -0.1237 -0.0948  2.4183
  215MOL0     H29619   9.821   2.015   2.239 -0.1971 -1.2403 -0.5408
  215MOL0     H29620  10.013   2.335   2.289 -1.3241  0.9684 -0.3752
  215MOL0     H29621   9.941   2.231   2.177  2.1458  0.5287 -1.3437
  215MOL0     H29622  10.146   2.058   2.285  2.3597 -0.4822 -1.2178
  215MOL0     H29623  10.165   2.166   2.142 -2.0313 -0.0099 -0.9400
  215MOL0     H29624  10.338   2.217   2.277  0.4881  3.1672 -1.0581
  215MOL0     H29625  10.227   2.349   2.335 -3.6424 -0.4917 -0.6324
  215MOL0     H29626  10.177   2.200   2.548  0.2278  0.4823  1.3304
  215MOL0     H29627  10.287   2.081   2.470  1.8170  0.8419 -1.5222
  215MOL0     H29628  10.464   2.067   2.377 -1.0416 -0.2496  1.8013
  215MOL0     H29629  10.599   1.919   2.279 -0.0396  1.6403 -0.6288
  215MOL0     H29630  10.709   1.832   2.390 -1.1314 -0.3635 -0.5921
  215MOL0     H29631  10.766   1.958   2.283 -0.2412 -1.1982 -0.6446
  215MOL0     H29632  11.101   1.837   2.660  1.7210 -1.1084  1.2712
  215MOL0     H29633  11.320   1.775   2.724 -1.7022 -0.0992 -2.8669
  215MOL0     H29634  11.659   2.062   2.625  1.6119 -2.3993 -1.3620
  215MOL0     H29635  11.609   2.109   2.802 -2.0568  0.6576 -1.0941
  215MOL0     H29636  11.754   1.945   2.884 -0.7120  0.2446 -0.8183
  215MOL0     H29637  11.780   1.878   2.716 -1.5776  0.2009 -1.3841
  215MOL0     H29638  11.883   2.141   2.845 -0.8917 -0.2407  0.2641
  215MOL0     H29639  11.876   2.116   2.666  0.7413 -1.4832 -0.4349
  215MOL0     H29640  12.017   1.922   2.681 -0.9702  0.1119  0.8816
  215MOL0     H29641  12.026   1.947   2.857 -2.8090  0.7997  1.3368
  215MOL0     H29642  12.143   2.129   2.637  0.2133  1.5270  0.5557
  215MOL0     H29643  12.089   2.198   2.785  0.2989  0.3815  0.3763
  215MOL0     H29644  12.285   1.961   2.743  0.8007 -1.5450  3.7161
  215MOL0     H29645  12.255   2.035   2.894 -0.0757 -2.6690 -0.4785
  215MOL0     H29646  12.369   2.177   2.644 -2.4963  2.2058 -0.4167
  215MOL0     H29647  12.460   2.109   2.780  0.3611  1.0318  1.6865
  215MOL0     H29648  12.277   2.355   2.795  0.4618  0.9068 -1.2665
  215MOL0     H29649  12.453   2.349   2.810  1.2240 -1.4079  0.5516
  215MOL0     H29650  11.443   2.191   2.687  1.5359 -1.1065 -1.2697
  215MOL0     H29651  11.213   2.252   2.621 -1.3213 -0.4501 -3.1508
  215MOL0     H29652  10.809   2.228   2.689 -0.4902 -2.8889  1.9766
  215MOL0     H29653  10.582   2.324   2.693 -1.9009 -2.4909  1.8623
  215MOL0     H29654   8.544   1.758   2.421 -0.0252 -0.8451 -0.8090
  215MOL0     H29655   8.337   1.850   2.371  0.8166 -0.3671  0.8135
  215MOL0     H29656   8.200   2.352   2.036 -0.3180  0.8002 -0.2325
  215MOL0     H29657   8.007   2.423   1.938 -4.8606 -1.1189 -2.3695
  215MOL0     H29658   7.792   2.551   1.972  0.6998 -1.1265  1.7264
  215MOL0     H29659   7.827   2.433   1.844  0.1354  0.3621 -0.3046
  215MOL0     H29660   7.609   2.395   1.785 -1.2720  0.1594  1.2078
  215MOL0     H29661   7.613   2.566   1.800  0.2424  0.6448 -0.6308
  215MOL0     H29662   7.501   2.384   2.002  2.4150 -0.9746 -1.2176
  215MOL0     H29663   7.515   2.568   2.021  1.3701  0.9946 -1.3219
  215MOL0     H29664   7.326   2.407   1.857 -2.8155  0.4584 -0.1337
  215MOL0     H29665   7.355   2.564   1.795  0.4201 -0.6902  0.0143
  215MOL0     H29666   7.134   2.640   2.155  0.1162  0.1922 -0.8270
  215MOL0     H29667   7.785   2.205   2.243 -1.7474  1.3303 -2.0002
  215MOL0     H29668   8.012   1.951   2.275 -0.7259  0.9504 -1.4478
  215MOL0     H29669   8.043   2.050   2.419 -0.6067 -1.7140  0.8543
  215MOL0     H29670   7.884   2.040   2.373  0.9456 -1.6068  1.9983
  216MOL0     O29671   0.743   2.564   4.045  0.8865 -0.3385 -0.5410
  216MOL0     C29672   0.631   2.586   4.015  0.8230  0.1066  0.4406
  216MOL0     O29673   0.578   2.607   3.881 -0.0822 -0.5755 -0.2273
  216MOL0     C29674   0.671   2.621   3.781  0.1779 -0.0300  0.4017
  216MOL0     C29675   0.710   2.519   3.702  0.0411 -0.0840  0.2894
  216MOL0     C29676   0.800   2.535   3.600  0.1447  1.0492  0.5129
  216MOL0     C29677   0.833   2.665   3.560 -0.1048 -0.4440  0.2523
  216MOL0     O29678   0.896   2.702   3.446  0.4899  1.2555 -0.4775
  216MOL0     C29679   0.927   2.606   3.347 -0.1810  0.4346  0.4296
  216MOL0     C29680   1.026   2.654   3.243 -0.6894 -0.0827 -0.2240
  216MOL0     C29681   1.150   2.709   3.315 -0.3441 -0.2698  0.0004
  216MOL0     C29682   1.262   2.732   3.222 -0.7322 -0.3604 -0.4069
  216MOL0     C29683   1.384   2.788   3.297 -0.7688 -0.2574  0.0108
  216MOL0     C29684   1.505   2.773   3.211  0.4237 -0.2083  0.5022
  216MOL0     C29685   1.622   2.828   3.285  0.3135 -0.4151 -0.5147
  216MOL0     C29686   1.754   2.814   3.209  0.1417 -0.2319 -0.1465
  216MOL0     N29687   1.752   2.882   3.079  0.6169 -0.5307 -0.2017
  216MOL0     C29688   1.793   3.012   3.063  0.4117  0.1119  0.0539
  216MOL0     C29689   1.819   3.021   2.926  0.0165  0.3189 -0.9672
  216MOL0     C29690   1.893   3.138   2.870 -0.0980 -0.2571  0.2169
  216MOL0     C29691   1.984   3.104   2.752 -0.1762  0.2028  0.1708
  216MOL0     C29692   2.116   3.021   2.791  0.1793 -0.2208 -0.3776
  216MOL0     C29693   2.143   2.932   2.666 -0.4995  0.0532 -0.2843
  216MOL0     O29694   2.260   2.854   2.684  0.0778  0.2995  0.8363
  216MOL0     C29695   2.244   2.741   2.764 -1.1500 -0.2796  0.5659
  216MOL0     C29696   2.124   2.706   2.831 -0.1963 -0.3901 -0.8513
  216MOL0     C29697   2.116   2.593   2.911  0.1772 -0.8081  0.7705
  216MOL0     C29698   1.987   2.580   2.989 -0.4264  0.4820  0.5710
  216MOL0     C29699   2.227   2.505   2.933 -0.8273  0.5728 -0.1723
  216MOL0     C29700   2.237   2.409   3.040  0.2601 -0.8338  0.5161
  216MOL0     O29701   2.167   2.444   3.153  0.0565  1.0089  0.8158
  216MOL0     C29702   2.141   2.339   3.233 -0.9838 -0.0110  0.1388
  216MOL0     C29703   2.046   2.246   3.203  0.1461 -0.5011 -0.3168
  216MOL0     C29704   2.012   2.153   3.300  0.4881 -1.3710 -0.4541
  216MOL0     C29705   2.083   2.138   3.417 -0.4790 -1.0489 -0.5520
  216MOL0     O29706   2.054   2.043   3.500 -0.3168 -0.1197  0.9531
  216MOL0     C29707   1.920   2.047   3.549 -0.2167  0.0386 -0.7463
  216MOL0     C29708   1.920   1.977   3.681 -0.5939 -0.5006  0.1654
  216MOL0     C29709   2.022   2.039   3.772 -0.7491  0.1016  0.3400
  216MOL0     C29710   1.995   2.000   3.917 -0.2242 -0.8092  0.7545
  216MOL0     C29711   2.106   2.018   4.026  0.5955 -0.8302  1.0296
  216MOL0     C29712   2.032   1.996   4.158 -0.3214  0.8649  0.1337
  216MOL0     C29713   2.140   1.979   4.275  0.0224  0.0356  0.8873
  216MOL0     C29714   2.070   1.946   4.409 -0.4565 -0.0789 -0.5274
  216MOL0    Cl29715   1.953   2.070   4.466  0.4692 -0.3759  0.1298
  216MOL0     C29716   2.192   2.229   3.446 -1.1099 -0.1522  0.1537
  216MOL0     C29717   2.230   2.322   3.349 -0.1337 -0.5615 -0.5102
  216MOL0     O29718   2.311   2.311   3.018 -0.0736  0.5117 -0.4708
  216MOL0     C29719   2.349   2.541   2.862  0.6433  0.3537  0.1723
  216MOL0     C29720   2.353   2.658   2.784  0.3563 -0.5571  0.1033
  216MOL0     N29721   1.794   2.897   2.869  0.2084 -0.2917 -0.7729
  216MOL0     N29722   1.760   2.813   2.964 -0.4092  0.5949  0.0013
  216MOL0     C29723   0.818   2.764   3.657  0.4889  0.8222 -0.0280
  216MOL0     C29724   0.729   2.748   3.761 -0.1610  0.5080 -0.5426
  216MOL0     C29725   0.534   2.607   4.122  0.4617  0.4265  0.0709
  216MOL0     C29726   0.399   2.654   4.077 -0.7447 -0.0623 -0.2118
  216MOL0     C29727   0.302   2.674   4.175 -0.0232  0.2862 -0.7050
  216MOL0     C29728   0.326   2.663   4.315 -0.1483  0.4973  0.8508
  216MOL0     O29729   0.221   2.689   4.391  0.0331  0.1462 -0.1308
  216MOL0     C29730   0.210   2.637   4.518 -0.1731  0.2774 -0.2826
  216MOL0     C29731   0.062   2.662   4.559  0.7858 -0.6568  0.0842
  216MOL0     C29732   0.033   2.815   4.591 -0.1391 -0.0244  0.3183
  216MOL0     C29733   0.109   2.873   4.710 -0.0132 -0.2966  0.0543
  216MOL0     C29734   0.107   3.023   4.715  0.0326  0.7216  0.7426
  216MOL0     C29735   0.118   3.145   4.726  0.2723  0.0397 -0.3750
  216MOL0     C29736   0.452   2.609   4.354  0.0095  0.3544  0.0609
  216MOL0     C29737   0.551   2.580   4.260 -0.3587 -0.3133  0.6977
  216MOL0     C29738   0.686   2.542   4.324  0.3352 -0.5240  0.2042
  216MOL0     H29739   0.663   2.424   3.726 -0.7175  0.0661 -0.5684
  216MOL0     H29740   0.835   2.449   3.543  1.2489  1.9959 -0.2708
  216MOL0     H29741   0.838   2.572   3.294 -0.9880  1.2101  1.2544
  216MOL0     H29742   0.963   2.520   3.404 -0.3137  1.0169  1.4055
  216MOL0     H29743   1.066   2.563   3.198  0.0290 -1.6696  3.3008
  216MOL0     H29744   0.981   2.726   3.174  0.9383 -1.3147 -2.6849
  216MOL0     H29745   1.120   2.803   3.362 -2.2433 -1.1911  0.7211
  216MOL0     H29746   1.187   2.649   3.399 -1.2555 -2.6591 -1.1987
  216MOL0     H29747   1.297   2.636   3.183 -1.3287 -0.9561  0.4645
  216MOL0     H29748   1.229   2.792   3.138  1.4144 -0.8160 -1.6409
  216MOL0     H29749   1.401   2.735   3.391  0.2784  0.0594  0.0133
  216MOL0     H29750   1.366   2.894   3.316 -1.1775  0.1515 -2.3791
  216MOL0     H29751   1.520   2.671   3.174  0.2742  0.8855 -2.9373
  216MOL0     H29752   1.491   2.836   3.123  0.5176  1.3292  1.5470
  216MOL0     H29753   1.639   2.777   3.380  1.6441  1.4468  0.3097
  216MOL0     H29754   1.609   2.934   3.310  0.7429 -1.1565  3.5332
  216MOL0     H29755   1.828   2.867   3.270 -1.0939  2.0904 -0.5365
  216MOL0     H29756   1.780   2.709   3.193 -2.4946 -0.8457 -0.8715
  216MOL0     H29757   1.817   3.095   3.128  1.3531  1.9613 -2.4950
  216MOL0     H29758   1.956   3.179   2.950 -1.5415  0.1233  1.2009
  216MOL0     H29759   1.821   3.213   2.837  0.3144 -0.7934 -2.1191
  216MOL0     H29760   1.927   3.046   2.679  0.6984  2.5951 -2.6595
  216MOL0     H29761   2.010   3.200   2.706  3.6440  0.7274  2.9269
  216MOL0     H29762   2.197   3.093   2.804  0.3512 -0.7931  2.2202
  216MOL0     H29763   2.109   2.961   2.882  0.8475  0.8476  0.3939
  216MOL0     H29764   2.054   2.873   2.645 -1.5962  1.0335  1.4019
  216MOL0     H29765   2.159   3.004   2.584  0.7353  1.8116  1.4140
  216MOL0     H29766   2.028   2.755   2.819 -0.1177 -0.5079 -2.0000
  216MOL0     H29767   1.948   2.479   3.005  0.9949 -0.0366  0.8403
  216MOL0     H29768   1.907   2.630   2.932 -0.5703 -1.3456 -0.9253
  216MOL0     H29769   2.001   2.636   3.082  2.3173 -0.7323  0.9580
  216MOL0     H29770   1.993   2.257   3.109 -1.5795  2.0533  0.8601
  216MOL0     H29771   1.928   2.086   3.285 -0.3026 -0.6682  0.6740
  216MOL0     H29772   1.889   2.151   3.567 -1.1749 -0.2137 -0.8651
  216MOL0     H29773   1.848   2.001   3.480  0.3038 -4.5453  1.4143
  216MOL0     H29774   1.821   1.991   3.727 -1.2388 -1.8116 -0.7654
  216MOL0     H29775   1.937   1.872   3.654  0.3947 -0.7475  1.5881
  216MOL0     H29776   2.016   2.149   3.771  3.4208  0.4886  0.2561
  216MOL0     H29777   2.122   2.006   3.743 -2.3993 -4.7344 -0.6540
  216MOL0     H29778   1.964   1.895   3.911 -0.0180 -0.8095 -4.4415
  216MOL0     H29779   1.905   2.051   3.954 -0.8639  0.2330 -2.0182
  216MOL0     H29780   2.186   1.944   4.020  0.0331 -1.3964  0.3799
  216MOL0     H29781   2.144   2.119   4.008  1.0827 -1.2821 -0.6583
  216MOL0     H29782   1.980   1.900   4.143  0.1230  0.4416  1.2102
  216MOL0     H29783   1.962   2.072   4.196 -2.9986 -1.8905  1.1775
  216MOL0     H29784   2.207   2.065   4.284 -0.6866  0.6347  0.6121
  216MOL0     H29785   2.213   1.904   4.243 -0.0536  0.6391 -0.8004
  216MOL0     H29786   2.144   1.949   4.489 -0.7748  2.7326 -0.2516
  216MOL0     H29787   2.029   1.844   4.406  1.0125 -0.6773 -2.1747
  216MOL0     H29788   2.258   2.220   3.531  1.2589 -1.6415 -1.7168
  216MOL0     H29789   2.310   2.393   3.366 -0.6565 -0.4234  1.6218
  216MOL0     H29790   2.437   2.481   2.884  0.5677  1.2597  3.4800
  216MOL0     H29791   2.448   2.683   2.739  1.0188 -1.6667  0.8370
  216MOL0     H29792   0.863   2.862   3.643 -0.9499  1.4821 -0.1895
  216MOL0     H29793   0.709   2.826   3.834  0.3496 -0.0425  0.1968
  216MOL0     H29794   0.390   2.682   3.973  0.1275  2.6549  0.3747
  216MOL0     H29795   0.202   2.704   4.147 -0.2912 -1.6574 -2.0460
  216MOL0     H29796   0.222   2.528   4.512 -2.0114  0.0982 -1.7276
  216MOL0     H29797   0.278   2.679   4.592 -1.6103 -0.1332  1.3299
  216MOL0     H29798   0.030   2.604   4.647 -1.1456 -1.5747 -1.1584
  216MOL0     H29799  -0.004   2.627   4.478 -2.3726  0.7640  1.8414
  216MOL0     H29800   0.087   2.874   4.517 -0.1971 -1.2952 -0.7626
  216MOL0     H29801  -0.075   2.830   4.596 -0.0180  0.7614  0.9010
  216MOL0     H29802   0.211   2.836   4.717  0.4635  1.2173  2.6231
  216MOL0     H29803   0.058   2.843   4.802  1.1686  1.3812  1.3264
  216MOL0     H29804   0.122   3.247   4.760  0.4642 -0.2134  0.3800
  216MOL0     H29805   0.478   2.594   4.459  1.2982 -5.7111 -0.7509
  216MOL0     H29806   0.700   2.563   4.430  0.5092 -0.7327  0.2246
  216MOL0     H29807   0.708   2.441   4.288  1.6287  0.1875 -1.1327
  216MOL0     H29808   0.757   2.609   4.275 -0.3223 -0.4888 -0.7274
  217MOL0     O29809  11.171   0.707   1.658 -0.3566  0.0579 -0.3381
  217MOL0     C29810  11.117   0.707   1.770 -0.1505 -0.9763  0.1006
  217MOL0     O29811  11.188   0.728   1.886  0.3263 -0.0013  0.3313
  217MOL0     C29812  11.324   0.742   1.878  0.5832  0.5117  0.4833
  217MOL0     C29813  11.412   0.635   1.862  0.2312  0.6221  0.9727
  217MOL0     C29814  11.553   0.653   1.861  0.4168  0.3835 -0.1961
  217MOL0     C29815  11.598   0.788   1.857  0.2047  0.4429  0.3685
  217MOL0     O29816  11.732   0.823   1.858 -0.4015 -0.5784  0.1946
  217MOL0     C29817  11.821   0.716   1.810 -0.2554  0.4558 -0.4067
  217MOL0     C29818  11.950   0.782   1.769  0.7181  1.5410  0.5267
  217MOL0     C29819  12.043   0.672   1.703  0.2709  0.2224 -0.2482
  217MOL0     C29820  12.167   0.727   1.639 -0.0411  0.3594  0.6717
  217MOL0     C29821  12.249   0.616   1.578  0.2213 -0.3043 -0.4709
  217MOL0     C29822  12.352   0.677   1.471  0.4841 -0.4648 -0.0006
  217MOL0     C29823  12.435   0.564   1.410  0.0736 -0.9262 -0.1887
  217MOL0     C29824  12.575   0.613   1.364 -0.4613 -0.3522 -0.2774
  217MOL0     N29825  12.657   0.505   1.308 -0.3465 -0.3997 -0.1678
  217MOL0     C29826  12.784   0.472   1.351 -0.5019 -0.1441  0.2107
  217MOL0     C29827  12.835   0.381   1.257 -0.3672 -0.7243 -0.1090
  217MOL0     C29828  12.967   0.317   1.269  0.0810  0.5613 -0.5657
  217MOL0     C29829  13.086   0.404   1.220  0.8767 -0.2164  0.5590
  217MOL0     C29830  13.078   0.446   1.065  0.0311  0.1071  1.2303
  217MOL0     C29831  13.201   0.520   1.013 -0.1529 -0.1179  0.9487
  217MOL0     O29832  13.207   0.519   0.863  0.1515 -0.7040 -0.3654
  217MOL0     C29833  13.292   0.610   0.800 -0.3179 -0.4433 -0.5421
  217MOL0     C29834  13.298   0.611   0.660 -0.4417 -0.0623 -0.8699
  217MOL0     C29835  13.387   0.686   0.588  0.4511  0.2128  0.5245
  217MOL0     C29836  13.374   0.669   0.440 -0.9420 -0.4935 -0.6925
  217MOL0     C29837  13.481   0.765   0.653 -0.6018  0.1379  0.2951
  217MOL0     C29838  13.590   0.838   0.585  0.1464 -1.1579  0.4949
  217MOL0     O29839  13.674   0.910   0.670  0.4783  1.1507 -0.4816
  217MOL0     C29840  13.780   0.981   0.619  0.4271 -0.5935 -0.2824
  217MOL0     C29841  13.889   0.996   0.698  0.1539  0.3509 -0.1627
  217MOL0     C29842  14.004   1.078   0.661 -0.3543 -0.1129 -0.1398
  217MOL0     C29843  13.981   1.158   0.543 -1.0908  0.2773 -0.5204
  217MOL0     O29844  14.085   1.230   0.496  0.6763  0.2085 -0.2444
  217MOL0     C29845  14.078   1.286   0.368 -0.6755 -0.5618 -0.0113
  217MOL0     C29846  14.201   1.362   0.319  0.4708  0.1210  0.0362
  217MOL0     C29847  14.334   1.279   0.307 -0.0799 -0.0747  0.1781
  217MOL0     C29848  14.451   1.368   0.260  0.1414 -0.9420  0.0235
  217MOL0     C29849  14.582   1.290   0.292  0.1517  0.1279  0.5212
  217MOL0     C29850  14.702   1.381   0.315  0.6155  0.5567  0.3263
  217MOL0     C29851  14.745   1.462   0.195  0.4525 -0.2404 -0.2069
  217MOL0     C29852  14.732   1.616   0.213  0.3670  0.7475  0.0523
  217MOL0    Cl29853  14.851   1.670   0.341 -0.3460 -0.3436 -0.0768
  217MOL0     C29854  13.863   1.143   0.477 -0.2843 -0.1256  0.2831
  217MOL0     C29855  13.766   1.051   0.508 -0.0097 -0.4045  0.4010
  217MOL0     O29856  13.600   0.832   0.463 -0.0420  0.4728 -0.2297
  217MOL0     C29857  13.480   0.764   0.795 -1.0124 -0.5288 -1.0624
  217MOL0     C29858  13.388   0.688   0.868  1.0174  0.3046 -0.0505
  217MOL0     N29859  12.732   0.358   1.164 -0.3926  0.3644 -0.5329
  217MOL0     N29860  12.632   0.435   1.194  0.1212  0.1080  0.2017
  217MOL0     C29861  11.509   0.894   1.867  0.4967  0.7982  0.4947
  217MOL0     C29862  11.370   0.870   1.883  0.6112 -0.6656  0.2665
  217MOL0     C29863  10.969   0.665   1.765  0.2757  0.2673 -0.1272
  217MOL0     C29864  10.896   0.677   1.639 -0.2582  0.6248 -0.2525
  217MOL0     C29865  10.752   0.661   1.635 -0.4410  0.6168  0.1109
  217MOL0     C29866  10.682   0.644   1.762 -0.0756  0.3308  0.0524
  217MOL0     O29867  10.545   0.660   1.790 -0.2239 -0.2367  0.7040
  217MOL0     C29868  10.452   0.699   1.689 -0.1744 -0.0141  0.2429
  217MOL0     C29869  10.447   0.852   1.686  0.0808  0.4778 -0.1265
  217MOL0     C29870  10.341   0.884   1.585  0.2094  0.0436 -0.3938
  217MOL0     C29871  10.312   1.029   1.570  0.1852 -0.0167 -0.6329
  217MOL0     C29872  10.209   1.055   1.470  0.8975 -0.3458  0.7980
  217MOL0     C29873  10.135   1.070   1.377  0.8774  0.3118  0.7219
  217MOL0     C29874  10.759   0.636   1.882  0.6628 -0.4768  0.5654
  217MOL0     C29875  10.895   0.638   1.883 -0.5253 -0.0712  1.3998
  217MOL0     C29876  10.969   0.617   2.012  0.7794  0.5493  0.4131
  217MOL0     H29877  11.371   0.535   1.857  5.6387 -1.8839 -1.9790
  217MOL0     H29878  11.612   0.565   1.883 -1.3728 -0.5263  1.2186
  217MOL0     H29879  11.771   0.667   1.726  0.9774 -2.2216  0.3196
  217MOL0     H29880  11.857   0.642   1.882  2.5198  2.4475  0.4183
  217MOL0     H29881  11.950   0.867   1.700  2.7339  0.3766 -1.0298
  217MOL0     H29882  12.003   0.821   1.857  1.0352  2.7315 -0.1726
  217MOL0     H29883  12.071   0.596   1.776  1.1334  1.6899  1.0048
  217MOL0     H29884  11.980   0.635   1.621  0.5469  1.4681 -1.0610
  217MOL0     H29885  12.132   0.794   1.559  0.0080 -0.9656 -0.5034
  217MOL0     H29886  12.228   0.780   1.713  0.1022  0.7460  0.2822
  217MOL0     H29887  12.177   0.548   1.532  0.3994 -0.6211 -0.2836
  217MOL0     H29888  12.297   0.561   1.659 -1.6050  2.0632  2.4249
  217MOL0     H29889  12.288   0.720   1.393 -0.9194  0.5242  1.6051
  217MOL0     H29890  12.412   0.762   1.506  0.8347  0.5243 -2.7506
  217MOL0     H29891  12.366   0.529   1.333 -1.9897  0.9863  0.6614
  217MOL0     H29892  12.444   0.487   1.486 -0.7933 -1.8344 -0.9765
  217MOL0     H29893  12.558   0.683   1.282 -0.5187  0.7551  0.6519
  217MOL0     H29894  12.638   0.649   1.446 -0.3146  0.5806 -0.7817
  217MOL0     H29895  12.828   0.512   1.441 -1.2971  1.6105 -0.1451
  217MOL0     H29896  12.970   0.231   1.202 -3.1053  1.4802 -2.0873
  217MOL0     H29897  12.976   0.272   1.369 -1.1503 -2.1124 -1.5416
  217MOL0     H29898  13.104   0.487   1.288 -2.6661 -0.6938  2.3048
  217MOL0     H29899  13.173   0.340   1.237  2.2308  1.7819  1.4519
  217MOL0     H29900  13.065   0.357   1.003 -2.8528  1.1583  0.1634
  217MOL0     H29901  12.991   0.509   1.044  1.4763  0.9448 -3.1383
  217MOL0     H29902  13.198   0.627   1.036 -0.9384  1.1466 -3.8603
  217MOL0     H29903  13.298   0.488   1.054  0.4891  1.5465  0.8438
  217MOL0     H29904  13.219   0.563   0.602  1.6064 -0.1989 -3.7263
  217MOL0     H29905  13.467   0.637   0.392  0.0886 -0.5127  1.2203
  217MOL0     H29906  13.349   0.763   0.389  2.3056  1.5070  1.0288
  217MOL0     H29907  13.300   0.594   0.410 -1.6691 -0.6176  1.2812
  217MOL0     H29908  13.894   0.939   0.791 -0.8347 -1.9119 -1.4162
  217MOL0     H29909  14.099   1.090   0.712 -0.1197 -0.2855 -0.5293
  217MOL0     H29910  14.061   1.203   0.298 -2.3666 -0.6213  0.4304
  217MOL0     H29911  13.988   1.347   0.356 -0.5101 -0.5419 -1.2681
  217MOL0     H29912  14.182   1.399   0.217 -1.8286 -0.2110  0.2947
  217MOL0     H29913  14.209   1.443   0.391  0.3181  0.4397 -0.3001
  217MOL0     H29914  14.320   1.191   0.242  1.1626  0.1627 -0.4399
  217MOL0     H29915  14.359   1.234   0.404  0.5043 -2.4086 -0.9806
  217MOL0     H29916  14.442   1.462   0.315 -2.3626 -1.3595  0.4619
  217MOL0     H29917  14.443   1.403   0.157 -0.0519  1.1121  0.6905
  217MOL0     H29918  14.569   1.245   0.391  0.3189  1.0015  0.9511
  217MOL0     H29919  14.606   1.210   0.222  2.3804 -0.3893  1.7662
  217MOL0     H29920  14.790   1.323   0.344  1.4714  2.1256  0.9406
  217MOL0     H29921  14.677   1.441   0.402 -0.7193  3.1605 -1.6952
  217MOL0     H29922  14.694   1.438   0.102 -0.3819  1.1732 -0.1330
  217MOL0     H29923  14.846   1.425   0.174  0.6733 -0.7131  1.5249
  217MOL0     H29924  14.625   1.625   0.235 -0.3518  1.5396 -3.2650
  217MOL0     H29925  14.765   1.664   0.121 -3.4852 -3.8614 -4.3265
  217MOL0     H29926  13.844   1.195   0.384 -0.7117 -1.4609 -0.3982
  217MOL0     H29927  13.672   1.049   0.454 -1.4714  0.9310  2.7224
  217MOL0     H29928  13.558   0.811   0.855  0.4059 -2.4899 -1.2600
  217MOL0     H29929  13.391   0.677   0.976  0.1478  0.3362 -0.0178
  217MOL0     H29930  11.553   0.992   1.881 -2.2340  2.2352 -0.1625
  217MOL0     H29931  11.306   0.958   1.895 -1.8370 -2.2619 -0.2636
  217MOL0     H29932  10.939   0.711   1.545 -2.3774  0.5357 -1.3167
  217MOL0     H29933  10.700   0.672   1.541  1.6052  0.6785 -1.0646
  217MOL0     H29934  10.484   0.654   1.595  1.1773 -4.0001  2.3502
  217MOL0     H29935  10.352   0.656   1.699 -0.0410 -1.5573 -3.5782
  217MOL0     H29936  10.545   0.897   1.666 -1.2005  2.5849 -2.1510
  217MOL0     H29937  10.413   0.895   1.781 -2.2602  1.1752 -1.2085
  217MOL0     H29938  10.370   0.849   1.485  1.7345  2.8550 -1.0461
  217MOL0     H29939  10.246   0.833   1.605  0.2671  0.8254  2.2621
  217MOL0     H29940  10.410   1.066   1.541 -0.0845  0.7812 -0.5607
  217MOL0     H29941  10.279   1.085   1.658 -2.9063 -1.4436 -0.7275
  217MOL0     H29942  10.072   1.066   1.291  1.6800 -2.8956  0.1665
  217MOL0     H29943  10.699   0.630   1.973 -1.0093  0.7210 -0.3901
  217MOL0     H29944  10.909   0.557   2.080  0.5982  0.2665  0.0091
  217MOL0     H29945  11.068   0.570   2.006 -0.2751 -1.6359 -2.5387
  217MOL0     H29946  10.981   0.715   2.059 -1.5823  1.8501 -1.4553
  218MOL0     O29947   2.270   1.194   0.218 -0.2542 -0.3753  0.1764
  218MOL0     C29948   2.254   1.171   0.097  0.1772  0.4259  0.5826
  218MOL0     O29949   2.328   1.215  -0.005  0.7521 -0.0949  0.1042
  218MOL0     C29950   2.406   1.316  -0.004 -0.7000 -0.2814  1.2736
  218MOL0     C29951   2.485   1.309  -0.121 -1.3043 -0.2200  0.3581
  218MOL0     C29952   2.580   1.414  -0.132 -0.2677  1.4284  0.8207
  218MOL0     C29953   2.596   1.517  -0.038  0.2445 -0.2603  0.4575
  218MOL0     O29954   2.699   1.612  -0.036  0.6554 -0.0173  0.6798
  218MOL0     C29955   2.754   1.649  -0.167 -0.3700 -0.4222 -0.8113
  218MOL0     C29956   2.894   1.582  -0.179  0.7278 -1.0142  0.8897
  218MOL0     C29957   2.961   1.624  -0.312 -0.2761 -0.8588 -0.2030
  218MOL0     C29958   3.093   1.547  -0.334 -0.4495  0.5724 -0.2894
  218MOL0     C29959   3.201   1.573  -0.227  0.3338 -0.6894  0.5530
  218MOL0     C29960   3.340   1.549  -0.287 -0.1416 -0.8960 -0.0991
  218MOL0     C29961   3.460   1.545  -0.186 -0.1558 -0.4072  0.5001
  218MOL0     C29962   3.507   1.687  -0.170 -0.3747 -0.0249 -0.5171
  218MOL0     N29963   3.648   1.689  -0.115  0.6167 -0.0370  1.1466
  218MOL0     C29964   3.679   1.645   0.007  0.3959 -0.3978  1.1094
  218MOL0     C29965   3.811   1.616  -0.005 -0.6982 -0.0406 -0.4832
  218MOL0     C29966   3.909   1.587   0.108 -0.4850  0.1054 -0.3958
  218MOL0     C29967   3.864   1.647   0.235  0.0697 -0.2463 -0.5102
  218MOL0     C29968   3.977   1.685   0.333 -0.7216 -0.0628  0.4196
  218MOL0     C29969   4.023   1.832   0.310 -0.2503  0.4156  0.2104
  218MOL0     O29970   4.120   1.875   0.408  0.3069 -0.0837  0.1465
  218MOL0     C29971   4.224   1.938   0.344 -0.5868 -0.3307  0.6935
  218MOL0     C29972   4.341   1.874   0.325 -0.0072 -0.1793  0.0837
  218MOL0     C29973   4.460   1.942   0.290 -0.4096  0.4198 -0.4077
  218MOL0     C29974   4.589   1.866   0.252  0.0248 -0.0171 -0.4456
  218MOL0     C29975   4.456   2.079   0.271 -0.2413 -0.1995 -0.2811
  218MOL0     C29976   4.575   2.161   0.229  0.9643 -1.2000 -1.2499
  218MOL0     O29977   4.549   2.275   0.160 -1.0808  0.1707 -0.4272
  218MOL0     C29978   4.666   2.343   0.127 -0.3247  0.4035  0.2844
  218MOL0     C29979   4.716   2.324  -0.005 -0.4216 -0.1213 -0.9236
  218MOL0     C29980   4.834   2.393  -0.045  0.0775  0.4499  0.4194
  218MOL0     C29981   4.905   2.487   0.035 -0.1051  0.4871 -0.2458
  218MOL0     O29982   5.027   2.553   0.010  0.3596 -0.6848 -0.2338
  218MOL0     C29983   5.101   2.504  -0.098  1.1670 -0.3483  0.2910
  218MOL0     C29984   5.244   2.540  -0.072  0.3319  0.7000  0.0470
  218MOL0     C29985   5.295   2.474   0.053  0.1157  0.1016 -0.1042
  218MOL0     C29986   5.445   2.519   0.077  0.4207  0.9013 -0.1141
  218MOL0     C29987   5.479   2.502   0.223  1.0291 -0.0968  0.3940
  218MOL0     C29988   5.599   2.571   0.264  0.2607  0.7174  0.8074
  218MOL0     C29989   5.593   2.717   0.286 -0.4077  0.0863  0.4341
  218MOL0     C29990   5.720   2.789   0.323  0.2450 -0.0079  0.6998
  218MOL0    Cl29991   5.846   2.798   0.189 -0.5372 -0.1570 -0.2111
  218MOL0     C29992   4.844   2.505   0.162  0.4367 -0.5765 -0.4489
  218MOL0     C29993   4.729   2.438   0.208  0.2699 -0.5258  0.1374
  218MOL0     O29994   4.682   2.128   0.280 -0.9912  0.3774  0.3613
  218MOL0     C29995   4.330   2.141   0.277  1.2200 -0.5499 -0.1924
  218MOL0     C29996   4.214   2.071   0.305  0.1656 -0.9312 -0.5887
  218MOL0     N29997   3.853   1.657  -0.131 -0.6374  0.6004 -0.4848
  218MOL0     N29998   3.755   1.703  -0.197  0.8656 -0.7612  0.3837
  218MOL0     C29999   2.515   1.516   0.074  0.2938 -0.4325 -1.0777
  218MOL0     C30000   2.425   1.419   0.091  0.5236 -0.7096 -0.1624
  218MOL0     C30001   2.147   1.080   0.058  0.4189 -0.4825  0.7745
  218MOL0     C30002   2.168   1.007  -0.060 -0.1417  0.3466  0.1823
  218MOL0     C30003   2.074   0.913  -0.106 -0.9188 -0.8487 -1.4069
  218MOL0     C30004   1.950   0.904  -0.043  0.1250  0.2308 -0.5693
  218MOL0     O30005   1.838   0.828  -0.080  0.0263 -0.2501  0.3499
  218MOL0     C30006   1.749   0.879  -0.184 -0.3723  0.2181 -0.7590
  218MOL0     C30007   1.774   0.820  -0.318  0.4620 -0.6623  0.3953
  218MOL0     C30008   1.860   0.903  -0.410  0.3883 -0.7812 -0.5239
  218MOL0     C30009   1.926   0.819  -0.521  0.8576  0.2978  0.0093
  218MOL0     C30010   2.015   0.717  -0.485 -0.1835 -0.3959  0.1107
  218MOL0     C30011   2.099   0.658  -0.429  0.0444 -0.4761 -1.0132
  218MOL0     C30012   1.932   0.976   0.077  0.0044  0.4356  0.6837
  218MOL0     C30013   2.031   1.062   0.127  0.3369  0.3720 -0.6040
  218MOL0     C30014   1.995   1.135   0.257  1.0506 -0.1532  0.8301
  218MOL0     H30015   2.477   1.232  -0.197 -1.8740  0.1414  0.0472
  218MOL0     H30016   2.655   1.395  -0.208  0.7597 -1.0754  2.3097
  218MOL0     H30017   2.766   1.758  -0.164 -1.9621 -0.2379 -0.2548
  218MOL0     H30018   2.691   1.620  -0.252 -0.3693 -1.5041 -0.4557
  218MOL0     H30019   2.948   1.625  -0.094  0.2048 -0.2274  0.8391
  218MOL0     H30020   2.896   1.473  -0.169 -0.2220 -1.2157 -0.7063
  218MOL0     H30021   2.890   1.617  -0.396 -0.9403  2.2297 -0.0183
  218MOL0     H30022   2.994   1.727  -0.299  0.9998 -1.1496 -0.9377
  218MOL0     H30023   3.080   1.438  -0.337 -1.6778  0.5516  2.4708
  218MOL0     H30024   3.136   1.570  -0.432  1.3016  2.3389  0.8174
  218MOL0     H30025   3.185   1.504  -0.144  0.6070  0.0310  1.2163
  218MOL0     H30026   3.186   1.669  -0.178 -1.4131 -0.2193 -0.8069
  218MOL0     H30027   3.346   1.458  -0.347 -0.3267 -1.4455  0.7086
  218MOL0     H30028   3.357   1.620  -0.369  0.0014 -1.5417 -0.6362
  218MOL0     H30029   3.538   1.492  -0.241 -0.0994 -1.6098  1.6972
  218MOL0     H30030   3.423   1.496  -0.095  1.3567 -1.0888  0.7739
  218MOL0     H30031   3.514   1.731  -0.270  3.5456  0.2641 -0.2557
  218MOL0     H30032   3.433   1.743  -0.113  1.2603  1.3179  0.3428
  218MOL0     H30033   3.628   1.608   0.095  1.4990  1.0746  2.4306
  218MOL0     H30034   4.010   1.624   0.087 -0.0799 -1.4173 -1.2982
  218MOL0     H30035   3.897   1.481   0.132 -2.4120  0.7146  1.6651
  218MOL0     H30036   3.801   1.733   0.209 -1.3528 -0.8957  0.6142
  218MOL0     H30037   3.801   1.576   0.290 -0.4648 -1.4889 -2.6055
  218MOL0     H30038   3.945   1.677   0.437 -1.0122  0.4205  0.3733
  218MOL0     H30039   4.063   1.622   0.310  1.0586  2.4983 -0.4091
  218MOL0     H30040   4.062   1.830   0.208 -2.1629 -2.4732 -0.5990
  218MOL0     H30041   3.942   1.905   0.302 -1.9439 -1.5551 -2.6151
  218MOL0     H30042   4.343   1.766   0.337  0.1959  0.1081  3.7415
  218MOL0     H30043   4.628   1.904   0.157  1.5681  1.3639  0.6890
  218MOL0     H30044   4.564   1.760   0.241 -1.4163 -0.0211  2.1563
  218MOL0     H30045   4.661   1.890   0.331 -1.6769  3.1579  0.3008
  218MOL0     H30046   4.674   2.250  -0.072 -0.2043  0.4620 -1.7210
  218MOL0     H30047   4.868   2.372  -0.146  0.1751  1.4106  0.2370
  218MOL0     H30048   5.099   2.396  -0.111  0.6147  0.0618 -6.9539
  218MOL0     H30049   5.068   2.548  -0.193  0.7127  1.2325  1.1488
  218MOL0     H30050   5.298   2.525  -0.166 -3.8845 -1.8512 -2.2842
  218MOL0     H30051   5.241   2.649  -0.058 -4.7583  0.7213  0.6760
  218MOL0     H30052   5.293   2.366   0.040 -3.0398  0.2714 -1.9416
  218MOL0     H30053   5.230   2.515   0.131  1.0949  4.9468 -1.4492
  218MOL0     H30054   5.464   2.623   0.049 -0.4301  1.0418 -0.2225
  218MOL0     H30055   5.504   2.450   0.015 -1.5888 -1.4913  0.4368
  218MOL0     H30056   5.398   2.527   0.293  2.4818  2.3624  1.3276
  218MOL0     H30057   5.482   2.395   0.247 -0.5816  0.5536  4.5292
  218MOL0     H30058   5.675   2.554   0.188 -2.1667 -0.8603 -1.4114
  218MOL0     H30059   5.627   2.529   0.361 -1.2020  1.7352  1.7194
  218MOL0     H30060   5.526   2.743   0.368  0.3569  0.2953  1.0095
  218MOL0     H30061   5.564   2.767   0.193  0.3248  2.5466  1.4488
  218MOL0     H30062   5.766   2.733   0.405  3.3312  2.4902  0.8540
  218MOL0     H30063   5.695   2.889   0.361 -1.0634 -0.5760  1.3952
  218MOL0     H30064   4.897   2.575   0.226 -0.6651 -0.3779  0.2724
  218MOL0     H30065   4.680   2.461   0.302 -0.0540  0.2999 -0.2207
  218MOL0     H30066   4.312   2.244   0.247 -0.4759 -1.1393 -1.3129
  218MOL0     H30067   4.117   2.119   0.313  1.6507  1.9811  1.5376
  218MOL0     H30068   2.526   1.598   0.145  0.0574 -0.1354 -1.3826
  218MOL0     H30069   2.354   1.416   0.173  0.5822 -1.0434 -0.1205
  218MOL0     H30070   2.261   1.008  -0.115 -0.3857 -2.3022 -0.3975
  218MOL0     H30071   2.090   0.856  -0.197 -0.6650 -0.7611 -1.4182
  218MOL0     H30072   1.644   0.857  -0.158 -0.4735 -0.9629 -2.0462
  218MOL0     H30073   1.767   0.986  -0.185  0.4835  0.0750 -1.8953
  218MOL0     H30074   1.682   0.784  -0.367  0.6223 -0.4798 -0.0385
  218MOL0     H30075   1.825   0.724  -0.310  0.3993 -1.0049 -2.4715
  218MOL0     H30076   1.796   0.986  -0.439  0.8800 -0.6352 -1.2073
  218MOL0     H30077   1.945   0.949  -0.360  0.4646 -1.3288 -0.1390
  218MOL0     H30078   1.982   0.886  -0.587  1.2412  0.2923  0.3276
  218MOL0     H30079   1.854   0.771  -0.588  2.3153 -0.1952 -1.2865
  218MOL0     H30080   2.176   0.602  -0.379 -1.1223 -1.0652  0.1817
  218MOL0     H30081   1.841   0.967   0.136 -1.4562  1.6199 -1.2584
  218MOL0     H30082   2.007   1.243   0.247 -1.2759  0.0393 -0.6882
  218MOL0     H30083   1.889   1.123   0.281  1.0619  0.7480  1.3740
  218MOL0     H30084   2.039   1.096   0.349 -3.1801  3.2790  4.8474
  219MOL0     O30085   8.071  10.142  11.159  0.0487  0.1925  0.4536
  219MOL0     C30086   8.068  10.024  11.139 -0.2630  0.5364  1.2757
  219MOL0     O30087   8.178   9.952  11.090 -0.4607  0.2291 -0.6695
  219MOL0     C30088   8.300  10.027  11.093  1.3607 -0.0932  0.4094
  219MOL0     C30089   8.399   9.989  11.181 -0.2498 -0.5051  0.8360
  219MOL0     C30090   8.521  10.050  11.186  0.9470  0.2702  0.3418
  219MOL0     C30091   8.553  10.144  11.084  0.1264  0.2138  0.1687
  219MOL0     O30092   8.677  10.197  11.081  0.1734  0.5368 -0.6699
  219MOL0     C30093   8.715  10.276  10.966 -0.2418  0.3780 -0.9688
  219MOL0     C30094   8.848  10.343  10.979 -1.1203  0.6529 -0.3577
  219MOL0     C30095   8.958  10.240  10.981 -0.2165 -0.0852  0.2703
  219MOL0     C30096   8.951  10.137  10.864 -0.5447  0.3310  0.1242
  219MOL0     C30097   9.089  10.086  10.832  0.9771 -0.4288  0.3122
  219MOL0     C30098   9.101   9.978  10.719  0.1716  0.4819 -0.5842
  219MOL0     C30099   9.236   9.961  10.655  0.8344 -0.3389  0.4062
  219MOL0     C30100   9.254   9.844  10.560  0.2814 -0.1216 -0.2366
  219MOL0     N30101   9.386   9.831  10.505 -0.5025  0.5800  0.0161
  219MOL0     C30102   9.427   9.737  10.406 -0.4789  0.0583  0.2979
  219MOL0     C30103   9.546   9.772  10.364 -0.2458  0.5027  0.3493
  219MOL0     C30104   9.624   9.686  10.271 -0.0385  0.2420 -0.2052
  219MOL0     C30105   9.755   9.729  10.221  0.4403 -0.7798 -0.5574
  219MOL0     C30106   9.840   9.607  10.197 -0.2600 -1.0259 -0.3157
  219MOL0     C30107   9.975   9.646  10.144  0.3167  0.6568  1.0939
  219MOL0     O30108   9.957   9.703  10.012  0.3138  1.1147  0.3089
  219MOL0     C30109  10.038   9.661   9.902  0.2468 -0.7793 -0.3024
  219MOL0     C30110  10.079   9.768   9.819  0.0584  0.4602  0.6574
  219MOL0     C30111  10.166   9.745   9.719 -0.5008  0.5440  0.2376
  219MOL0     C30112  10.214   9.862   9.654 -0.1113  0.3870 -0.1779
  219MOL0     C30113  10.222   9.612   9.690  0.7595 -0.0397 -0.8456
  219MOL0     C30114  10.328   9.580   9.600  0.2781 -0.4815 -0.1853
  219MOL0     O30115  10.425   9.503   9.649  0.4238  0.6372 -0.0642
  219MOL0     C30116  10.524   9.460   9.569  0.5625  0.0170  0.4347
  219MOL0     C30117  10.614   9.550   9.516  0.6814 -0.4605  0.0212
  219MOL0     C30118  10.719   9.498   9.436 -0.0790 -0.9491  0.3001
  219MOL0     C30119  10.719   9.361   9.393  0.1351  0.8269  0.2591
  219MOL0     O30120  10.828   9.312   9.322 -0.3405  0.4909  0.3263
  219MOL0     C30121  10.913   9.400   9.249 -0.1932  0.5925 -0.0850
  219MOL0     C30122  11.037   9.325   9.198 -0.3591 -0.3779 -0.1539
  219MOL0     C30123  11.116   9.424   9.111 -0.0170 -0.3388 -0.1214
  219MOL0     C30124  11.257   9.371   9.087  0.0133  0.8909 -1.0298
  219MOL0     C30125  11.342   9.475   9.011  0.3450  0.6131 -0.5716
  219MOL0     C30126  11.472   9.418   8.954 -0.8832  0.9633  0.3100
  219MOL0     C30127  11.560   9.526   8.888 -0.6697 -0.6645  0.3840
  219MOL0     C30128  11.686   9.472   8.849  0.4656  0.5615 -0.1115
  219MOL0    Cl30129  11.773   9.410   8.995  0.6305 -0.2507  0.2047
  219MOL0     C30130  10.625   9.270   9.450  0.4001 -0.0414  0.1985
  219MOL0     C30131  10.534   9.327   9.536  0.7392  0.1800 -0.5276
  219MOL0     O30132  10.327   9.632   9.494 -0.4273 -0.7082 -0.0461
  219MOL0     C30133  10.178   9.509   9.774 -0.8693 -0.0743 -0.3744
  219MOL0     C30134  10.087   9.528   9.880 -0.4043 -0.5804  0.4120
  219MOL0     N30135   9.578   9.895  10.416 -0.4090 -0.6323  0.3283
  219MOL0     N30136   9.489   9.924  10.504 -0.6686  0.0649  0.0826
  219MOL0     C30137   8.447  10.183  10.995 -0.1945  0.0558 -0.4516
  219MOL0     C30138   8.317  10.130  11.010 -0.5380 -0.1225  0.4867
  219MOL0     C30139   7.934   9.946  11.150 -0.5437 -0.1312  0.4025
  219MOL0     C30140   7.936   9.807  11.131 -0.6832  0.1832  0.1034
  219MOL0     C30141   7.840   9.719  11.156 -1.0268 -0.1304 -0.3089
  219MOL0     C30142   7.713   9.771  11.192  0.8119  0.8986 -0.6304
  219MOL0     O30143   7.593   9.696  11.209 -0.4215 -0.2586  1.0635
  219MOL0     C30144   7.592   9.565  11.148 -0.1708  0.2152  0.0777
  219MOL0     C30145   7.648   9.464  11.250 -0.3549  0.6498 -0.3845
  219MOL0     C30146   7.562   9.449  11.380 -0.1857 -0.2602  0.4842
  219MOL0     C30147   7.517   9.311  11.424 -0.4072 -0.0070  0.1063
  219MOL0     C30148   7.632   9.216  11.453 -0.3832 -0.9663  0.0149
  219MOL0     C30149   7.715   9.130  11.468  0.7927 -0.3660 -0.4259
  219MOL0     C30150   7.701   9.910  11.189 -0.0789 -0.1368 -0.0885
  219MOL0     C30151   7.800  10.003  11.173 -0.9463 -0.4197 -0.3823
  219MOL0     C30152   7.769  10.151  11.171  0.3853  0.6924 -0.6717
  219MOL0     H30153   8.383   9.908  11.252  1.5030 -1.4859  0.1711
  219MOL0     H30154   8.588  10.026  11.268 -1.2975 -1.2148  1.8576
  219MOL0     H30155   8.646  10.360  10.966  0.9706  1.4126 -0.8195
  219MOL0     H30156   8.706  10.223  10.871 -0.3743  0.2134 -0.8664
  219MOL0     H30157   8.856  10.410  10.893 -1.1235  1.5741  0.3447
  219MOL0     H30158   8.868  10.412  11.062  0.8128  1.7218 -1.6321
  219MOL0     H30159   9.058  10.285  10.983  0.6669 -1.9370  0.3592
  219MOL0     H30160   8.952  10.179  11.071 -0.9753 -0.2553  0.1072
  219MOL0     H30161   8.902  10.046  10.901 -0.1567 -0.0061 -0.1814
  219MOL0     H30162   8.903  10.176  10.774 -1.8740 -0.3108  0.5248
  219MOL0     H30163   9.138  10.050  10.922  3.3952  1.7591 -0.0052
  219MOL0     H30164   9.146  10.172  10.797  0.7697  0.1695  1.4065
  219MOL0     H30165   9.082   9.884  10.772  0.1483  0.0045 -1.4230
  219MOL0     H30166   9.023   9.978  10.643 -1.8754 -0.3630  1.4157
  219MOL0     H30167   9.310   9.961  10.736  1.7113  3.2410 -0.2124
  219MOL0     H30168   9.260  10.060  10.614  1.9847  0.1416  2.0956
  219MOL0     H30169   9.212   9.757  10.611 -0.6564  1.5358  1.9691
  219MOL0     H30170   9.176   9.859  10.486 -2.0050  2.4063  2.4253
  219MOL0     H30171   9.382   9.641  10.383  0.5883 -1.0001  2.3480
  219MOL0     H30172   9.563   9.649  10.187 -0.0083 -2.9144  1.0172
  219MOL0     H30173   9.641   9.598  10.334 -1.8984 -0.1774 -0.2154
  219MOL0     H30174   9.752   9.799  10.137  2.1190  0.1475  0.1021
  219MOL0     H30175   9.807   9.782  10.301 -0.8609  0.4812 -0.5087
  219MOL0     H30176   9.852   9.546  10.287 -0.9576 -2.8105 -1.3836
  219MOL0     H30177   9.794   9.547  10.118 -2.0426  0.9371 -0.8337
  219MOL0     H30178  10.013   9.724  10.211 -3.5177  3.1199  0.7574
  219MOL0     H30179  10.038   9.557  10.143  1.4084  1.3541  2.6453
  219MOL0     H30180  10.044   9.867   9.844 -0.6546  0.9759 -2.0639
  219MOL0     H30181  10.209   9.959   9.706 -0.2545  0.0558  0.4384
  219MOL0     H30182  10.150   9.882   9.568  1.3232  0.5864 -1.2258
  219MOL0     H30183  10.317   9.843   9.623 -0.1591  0.5903 -0.4685
  219MOL0     H30184  10.612   9.655   9.542 -0.4873 -1.2850  3.7937
  219MOL0     H30185  10.796   9.570   9.409 -1.8601 -0.0886 -3.1524
  219MOL0     H30186  10.852   9.438   9.166 -0.4834 -1.1992 -0.7529
  219MOL0     H30187  10.943   9.482   9.315  0.3304 -0.3037  0.8187
  219MOL0     H30188  11.106   9.303   9.279 -0.2653  2.1591  0.5545
  219MOL0     H30189  11.015   9.237   9.136  0.3876 -0.8111  0.1870
  219MOL0     H30190  11.122   9.521   9.160 -0.5310 -0.1011 -0.5212
  219MOL0     H30191  11.057   9.452   9.024  1.5594 -1.1561 -1.5142
  219MOL0     H30192  11.240   9.286   9.021  0.6399  1.0736 -1.4360
  219MOL0     H30193  11.309   9.335   9.176 -1.2494  0.8029 -0.3105
  219MOL0     H30194  11.288   9.514   8.924 -1.5720  0.2099  0.3763
  219MOL0     H30195  11.361   9.554   9.084  0.8563 -1.7359  1.9710
  219MOL0     H30196  11.456   9.338   8.882  2.8254 -0.7291  1.1261
  219MOL0     H30197  11.521   9.374   9.041  1.4297 -4.3424 -3.1785
  219MOL0     H30198  11.566   9.614   8.953 -1.1235  0.1010 -0.5846
  219MOL0     H30199  11.501   9.557   8.801 -2.1328 -1.3038  1.1151
  219MOL0     H30200  11.752   9.555   8.820  2.7093 -0.5648  1.3985
  219MOL0     H30201  11.660   9.393   8.778 -2.6665  2.6915 -1.5597
  219MOL0     H30202  10.644   9.166   9.427  4.0134 -0.1055  2.6787
  219MOL0     H30203  10.462   9.256   9.577  1.4564 -0.3559 -0.1719
  219MOL0     H30204  10.218   9.408   9.777  0.7089  0.4273  4.5391
  219MOL0     H30205  10.060   9.441   9.939  0.0218 -1.1826 -0.2677
  219MOL0     H30206   8.451  10.260  10.919 -1.6836 -1.6695 -2.3964
  219MOL0     H30207   8.235  10.168  10.951  0.8962 -1.4082 -2.5534
  219MOL0     H30208   8.034   9.764  11.111 -1.0160  0.1053 -1.4496
  219MOL0     H30209   7.868   9.615  11.144  3.7987  0.7692  0.9390
  219MOL0     H30210   7.489   9.543  11.120 -0.0806 -0.4765  0.2725
  219MOL0     H30211   7.649   9.566  11.054  0.5852  0.3735  0.5286
  219MOL0     H30212   7.746   9.499  11.285  1.0938 -2.6671 -0.6804
  219MOL0     H30213   7.665   9.368  11.199 -2.0301  1.0147 -1.6970
  219MOL0     H30214   7.610   9.499  11.464  1.4374  1.6473 -1.4718
  219MOL0     H30215   7.469   9.503  11.360  0.0774 -0.6552 -2.1546
  219MOL0     H30216   7.444   9.274  11.351  0.7424  0.4553 -1.3368
  219MOL0     H30217   7.456   9.330  11.513  1.9936 -0.6887  1.9970
  219MOL0     H30218   7.784   9.059  11.508  0.8031  0.0612  0.3364
  219MOL0     H30219   7.602   9.938  11.224 -0.1858  0.2782 -0.6974
  219MOL0     H30220   7.662  10.163  11.152  0.0674  0.6201  0.9349
  219MOL0     H30221   7.798  10.192  11.268 -1.5305  0.5676 -0.0083
  219MOL0     H30222   7.821  10.206  11.092  1.4761 -0.1757 -0.5768
  220MOL0     O30223   3.173   4.889   0.164 -0.1209 -0.1497  0.4698
  220MOL0     C30224   3.218   4.851   0.271  0.2759 -0.2638  0.7127
  220MOL0     O30225   3.349   4.859   0.309 -0.2174 -0.1458 -0.7580
  220MOL0     C30226   3.441   4.928   0.221 -0.9701 -0.0099 -0.1664
  220MOL0     C30227   3.414   5.050   0.165  0.8210 -0.1197  0.2968
  220MOL0     C30228   3.512   5.106   0.081  0.2049 -0.8684  0.0623
  220MOL0     C30229   3.634   5.045   0.060  0.1285  0.3238  0.0138
  220MOL0     O30230   3.733   5.098  -0.015  0.2726  0.2820  0.2179
  220MOL0     C30231   3.751   5.235   0.003 -0.5015  0.2820  0.6911
  220MOL0     C30232   3.893   5.280  -0.036 -0.2855  0.1730 -0.1875
  220MOL0     C30233   4.000   5.192   0.035  0.1247 -0.3304 -0.9683
  220MOL0     C30234   4.137   5.245  -0.014  0.5810  0.6697  0.2648
  220MOL0     C30235   4.247   5.145   0.020 -0.1548  0.2054  0.0381
  220MOL0     C30236   4.386   5.201  -0.044 -0.5842 -0.0487 -0.1305
  220MOL0     C30237   4.495   5.100  -0.024 -0.5128 -0.6987 -0.0409
  220MOL0     C30238   4.474   4.962  -0.076 -0.0431 -0.3870 -0.0130
  220MOL0     N30239   4.589   4.871  -0.053 -0.0244 -0.2826 -1.2064
  220MOL0     C30240   4.706   4.871  -0.123 -0.2259 -0.4226 -0.5057
  220MOL0     C30241   4.778   4.779  -0.060 -0.3384 -0.3010  0.5679
  220MOL0     C30242   4.918   4.749  -0.097 -0.5126 -0.1371  0.8082
  220MOL0     C30243   4.968   4.615  -0.030 -0.5621 -0.6452  0.7813
  220MOL0     C30244   5.097   4.566  -0.107 -0.6942 -0.4005 -0.0914
  220MOL0     C30245   5.170   4.455  -0.021 -0.9842 -0.1138 -0.3180
  220MOL0     O30246   5.307   4.466  -0.054 -0.0599  0.0863 -0.6214
  220MOL0     C30247   5.388   4.389   0.023 -0.9645  0.1372  0.2547
  220MOL0     C30248   5.515   4.389  -0.029 -1.0867 -0.3408  0.6011
  220MOL0     C30249   5.617   4.306   0.019  0.2275 -0.5691  0.3856
  220MOL0     C30250   5.737   4.294  -0.068 -0.5785  0.3920 -0.4102
  220MOL0     C30251   5.588   4.235   0.137  0.0739 -0.9378  0.2875
  220MOL0     C30252   5.685   4.148   0.196 -1.3641 -0.3631 -0.7861
  220MOL0     O30253   5.640   4.052   0.284  0.2149  0.1778  0.5940
  220MOL0     C30254   5.737   3.974   0.333 -0.6675  0.4573  0.0618
  220MOL0     C30255   5.783   3.864   0.261 -0.1477 -0.1466  0.2876
  220MOL0     C30256   5.879   3.783   0.318 -0.0410 -0.1702 -0.1207
  220MOL0     C30257   5.939   3.827   0.438  0.8629 -0.3151  0.0084
  220MOL0     O30258   6.047   3.755   0.489 -0.4180  0.5378  0.2155
  220MOL0     C30259   6.164   3.840   0.512 -0.2164  0.5632 -0.9058
  220MOL0     C30260   6.218   3.877   0.378  0.8873 -0.0062  0.3694
  220MOL0     C30261   6.258   3.766   0.277 -0.4747 -0.2548 -0.6401
  220MOL0     C30262   6.369   3.673   0.332  0.7464 -0.2661  0.7515
  220MOL0     C30263   6.418   3.591   0.215 -0.1199  0.6802  0.1990
  220MOL0     C30264   6.484   3.668   0.100 -0.0919  0.2895 -0.8794
  220MOL0     C30265   6.599   3.763   0.140  0.7041  1.3146 -0.2591
  220MOL0     C30266   6.607   3.889   0.057 -0.2434  0.3088  0.3598
  220MOL0    Cl30267   6.640   3.845  -0.113  0.3918 -0.0974  0.6295
  220MOL0     C30268   5.885   3.941   0.506 -0.0806  0.4568  0.7745
  220MOL0     C30269   5.781   4.014   0.454 -0.0303 -0.1613 -0.0261
  220MOL0     O30270   5.805   4.159   0.166  0.0407 -0.1670  0.0500
  220MOL0     C30271   5.463   4.253   0.205  0.1356  0.5184  0.2323
  220MOL0     C30272   5.361   4.318   0.140 -0.0984  0.3335 -0.5749
  220MOL0     N30273   4.707   4.717   0.039 -0.4558 -0.2953  0.3483
  220MOL0     N30274   4.595   4.777   0.046  0.0208  0.9064  0.2796
  220MOL0     C30275   3.661   4.927   0.118 -0.0573  0.4561 -0.0491
  220MOL0     C30276   3.566   4.867   0.202 -0.5032 -0.2035  1.0652
  220MOL0     C30277   3.126   4.802   0.379 -0.1627  0.2057  0.1813
  220MOL0     C30278   3.175   4.726   0.486  0.7341  0.5352 -0.4422
  220MOL0     C30279   3.095   4.683   0.598 -0.2988  0.1867  1.1142
  220MOL0     C30280   2.956   4.710   0.596 -0.9744 -1.1473 -0.4908
  220MOL0     O30281   2.888   4.651   0.703 -0.5087  0.6250  0.0124
  220MOL0     C30282   2.755   4.675   0.723  1.5592  0.8698 -0.0601
  220MOL0     C30283   2.673   4.592   0.617 -0.0472  0.3839  0.0906
  220MOL0     C30284   2.668   4.443   0.653 -0.3651  0.0407  0.2561
  220MOL0     C30285   2.528   4.406   0.715  0.5787  0.2740 -0.0873
  220MOL0     C30286   2.481   4.487   0.831 -0.3877  0.4701 -0.3678
  220MOL0     C30287   2.460   4.558   0.930  0.8574  0.4847 -0.6107
  220MOL0     C30288   2.909   4.795   0.491 -0.0202 -0.1431 -0.0438
  220MOL0     C30289   2.992   4.837   0.387  0.5762  0.6226  0.1177
  220MOL0     C30290   2.925   4.927   0.281  0.7316  0.1380  0.2105
  220MOL0     H30291   3.316   5.095   0.172  2.0980  3.3065 -1.4726
  220MOL0     H30292   3.486   5.205   0.044 -0.4390 -1.1471 -0.2498
  220MOL0     H30293   3.717   5.266   0.103  2.0919  0.8985  1.4631
  220MOL0     H30294   3.689   5.287  -0.071  4.8739  3.2580 -2.3626
  220MOL0     H30295   3.897   5.252  -0.142  0.5981 -0.2881 -0.0346
  220MOL0     H30296   3.912   5.388  -0.029 -3.6596  1.1039 -2.4903
  220MOL0     H30297   3.997   5.219   0.141 -1.1360  0.8607 -1.2776
  220MOL0     H30298   3.988   5.084   0.022 -1.9681 -0.0155 -2.2688
  220MOL0     H30299   4.143   5.257  -0.123  0.3718  0.1355  0.1924
  220MOL0     H30300   4.153   5.347   0.023  0.1360  0.1798  1.8757
  220MOL0     H30301   4.218   5.041  -0.000 -1.3801 -0.0575  2.7537
  220MOL0     H30302   4.257   5.153   0.128  0.1505  1.6364 -0.0726
  220MOL0     H30303   4.381   5.231  -0.149  0.2305  2.4408  0.4721
  220MOL0     H30304   4.413   5.294   0.005 -2.6265  0.5642 -0.0748
  220MOL0     H30305   4.516   5.100   0.084  0.4990 -1.7946 -0.2168
  220MOL0     H30306   4.579   5.145  -0.077 -2.6655  0.5351 -2.6166
  220MOL0     H30307   4.386   4.923  -0.024 -0.0246 -0.6145 -0.1497
  220MOL0     H30308   4.447   4.966  -0.182 -0.1432  0.8708  0.0414
  220MOL0     H30309   4.731   4.943  -0.201 -0.1010  2.2710  1.8754
  220MOL0     H30310   4.987   4.824  -0.056 -0.2540 -0.3308  0.7364
  220MOL0     H30311   4.931   4.744  -0.205 -0.2878  1.4055  0.7388
  220MOL0     H30312   4.990   4.645   0.073 -1.4617 -0.3013  0.8819
  220MOL0     H30313   4.890   4.538  -0.033 -0.2567 -0.9374  0.1357
  220MOL0     H30314   5.074   4.526  -0.206  0.8782  3.8030 -2.4470
  220MOL0     H30315   5.157   4.658  -0.102  0.2589 -0.9282 -1.1959
  220MOL0     H30316   5.177   4.503   0.077  1.0504  2.9986 -1.8390
  220MOL0     H30317   5.134   4.352  -0.014  0.1913 -0.4686  1.6100
  220MOL0     H30318   5.542   4.460  -0.107  1.7074  0.0797  1.8324
  220MOL0     H30319   5.712   4.342  -0.163 -2.9297 -0.8199 -0.4842
  220MOL0     H30320   5.768   4.193  -0.097  1.0915  0.1461  1.9524
  220MOL0     H30321   5.816   4.340  -0.009  0.8210 -0.5650 -1.4592
  220MOL0     H30322   5.729   3.836   0.171 -2.4335  1.3283  1.0955
  220MOL0     H30323   5.911   3.690   0.271 -0.3911 -1.1440  1.5168
  220MOL0     H30324   6.143   3.926   0.577  0.3391 -2.0058  3.0369
  220MOL0     H30325   6.243   3.791   0.569 -1.1487  0.6131  0.4754
  220MOL0     H30326   6.149   3.939   0.320 -0.0984 -2.5953 -1.4452
  220MOL0     H30327   6.303   3.941   0.403 -0.1097  1.3587  0.3707
  220MOL0     H30328   6.301   3.819   0.191 -1.4006  1.8469  0.1192
  220MOL0     H30329   6.163   3.715   0.257 -1.2918  0.5825  0.9029
  220MOL0     H30330   6.309   3.608   0.396  0.1598  1.6683  2.2490
  220MOL0     H30331   6.453   3.717   0.386  1.3285 -0.0784 -0.2813
  220MOL0     H30332   6.486   3.516   0.258 -1.5825 -0.5004  0.5274
  220MOL0     H30333   6.334   3.529   0.184  1.3786 -2.0610  1.2181
  220MOL0     H30334   6.409   3.722   0.041  1.4033  0.3761 -2.7944
  220MOL0     H30335   6.534   3.598   0.032  2.4790  0.5268  0.6127
  220MOL0     H30336   6.699   3.720   0.132 -0.4423 -1.6599  0.2815
  220MOL0     H30337   6.582   3.798   0.242 -3.9541  1.1735 -0.7696
  220MOL0     H30338   6.679   3.961   0.099 -1.5988  1.0550  1.4932
  220MOL0     H30339   6.516   3.945   0.080  1.4185  2.5175  2.1744
  220MOL0     H30340   5.917   3.973   0.605  1.2689 -0.3594  0.6243
  220MOL0     H30341   5.723   4.088   0.510 -0.7262 -0.9209  0.2783
  220MOL0     H30342   5.443   4.195   0.295  1.5111 -0.3304  0.0209
  220MOL0     H30343   5.262   4.306   0.183 -0.0075 -2.4606 -0.9565
  220MOL0     H30344   3.764   4.892   0.115  0.9634  3.2378 -2.0603
  220MOL0     H30345   3.601   4.777   0.251 -2.0059 -0.4547  1.7322
  220MOL0     H30346   3.280   4.703   0.477  0.6396  0.0383 -0.3106
  220MOL0     H30347   3.139   4.621   0.675 -0.1736 -0.5283  0.4733
  220MOL0     H30348   2.738   4.641   0.826  2.0184  2.2786  0.5051
  220MOL0     H30349   2.736   4.783   0.729 -0.1769  0.5538  0.9770
  220MOL0     H30350   2.725   4.591   0.521  1.5127 -0.1545  0.9079
  220MOL0     H30351   2.571   4.632   0.607  0.3650  2.2389  2.2778
  220MOL0     H30352   2.676   4.385   0.560 -2.5355  1.6572 -1.0286
  220MOL0     H30353   2.758   4.412   0.706  0.1883  0.4928 -0.4046
  220MOL0     H30354   2.539   4.299   0.738 -0.2542  0.4387  1.1589
  220MOL0     H30355   2.461   4.415   0.630 -2.4311  1.5327  2.2164
  220MOL0     H30356   2.435   4.617   1.016 -1.2661  0.8284 -1.4112
  220MOL0     H30357   2.806   4.829   0.486 -0.6122 -1.8317  0.1801
  220MOL0     H30358   2.984   5.018   0.273 -1.0335  1.1590 -2.2821
  220MOL0     H30359   2.932   4.875   0.185 -2.0168  0.8142 -0.4588
  220MOL0     H30360   2.818   4.948   0.295  0.1580 -1.2682 -1.6644
  221MOL0     O30361   3.849   6.332   1.659  0.1557  0.5501  0.1334
  221MOL0     C30362   3.788   6.269   1.568  0.4349  0.6630 -0.2201
  221MOL0     O30363   3.826   6.244   1.439  0.1104 -0.5576  0.2882
  221MOL0     C30364   3.956   6.266   1.416  0.1921 -0.6215 -0.0134
  221MOL0     C30365   4.007   6.397   1.416 -0.6134  0.1775 -0.2506
  221MOL0     C30366   4.142   6.420   1.383 -0.0277 -0.7867 -0.1224
  221MOL0     C30367   4.221   6.317   1.325  0.4776 -0.9565  0.8477
  221MOL0     O30368   4.340   6.328   1.259 -0.1868  0.1997 -0.0771
  221MOL0     C30369   4.433   6.439   1.276  0.6278  0.5732  0.2816
  221MOL0     C30370   4.525   6.443   1.399 -0.4144  0.0796 -0.6256
  221MOL0     C30371   4.636   6.334   1.389  0.5574 -1.1157 -0.5389
  221MOL0     C30372   4.751   6.359   1.503  0.6927  0.6032 -0.5218
  221MOL0     C30373   4.872   6.453   1.468 -0.2019  0.2875  0.5072
  221MOL0     C30374   4.967   6.469   1.582  0.3014  0.7577  0.0691
  221MOL0     C30375   5.087   6.558   1.551 -0.3146  0.6241  0.1054
  221MOL0     C30376   5.170   6.597   1.675  0.7722 -0.3700  0.0216
  221MOL0     N30377   5.302   6.647   1.635 -0.0129  0.7971 -0.3778
  221MOL0     C30378   5.390   6.609   1.535  0.2292  0.2552 -0.2203
  221MOL0     C30379   5.491   6.697   1.545 -0.3730  0.4810  0.2042
  221MOL0     C30380   5.602   6.721   1.451  0.3408 -0.3756 -0.3665
  221MOL0     C30381   5.679   6.598   1.413 -0.7824  0.7071  0.7475
  221MOL0     C30382   5.745   6.526   1.531  0.4506 -0.0780  0.6185
  221MOL0     C30383   5.810   6.396   1.479 -0.4110 -0.2192 -0.3067
  221MOL0     O30384   5.932   6.358   1.561 -0.6635  0.1263 -0.0797
  221MOL0     C30385   6.045   6.416   1.525 -0.5889 -0.1167  0.0264
  221MOL0     C30386   6.145   6.408   1.625 -0.4995  0.2740  1.1000
  221MOL0     C30387   6.281   6.442   1.596  0.4555  0.3144  0.7018
  221MOL0     C30388   6.383   6.416   1.702  0.2917 -0.0994 -0.8459
  221MOL0     C30389   6.308   6.501   1.472 -0.3028  0.2453  0.4279
  221MOL0     C30390   6.439   6.556   1.429 -0.0829 -0.6207 -0.0337
  221MOL0     O30391   6.432   6.630   1.313  0.2531  0.2788  0.5034
  221MOL0     C30392   6.554   6.670   1.267 -0.5022  0.3534 -0.1451
  221MOL0     C30393   6.604   6.621   1.149  0.2076 -0.9710  0.6511
  221MOL0     C30394   6.731   6.660   1.109 -0.6343  0.1846 -0.0811
  221MOL0     C30395   6.806   6.757   1.185 -0.3240  0.5091  0.3290
  221MOL0     O30396   6.928   6.795   1.128 -0.0067  0.2185  0.6679
  221MOL0     C30397   6.956   6.937   1.120 -0.1045  0.0301  1.1784
  221MOL0     C30398   7.104   6.962   1.057  1.0008  0.8211  0.0250
  221MOL0     C30399   7.096   6.998   0.910 -0.2049  0.1833 -0.4209
  221MOL0     C30400   7.227   7.013   0.849 -0.7116 -0.1874 -0.2458
  221MOL0     C30401   7.222   7.008   0.699  0.0837  0.4143 -0.1143
  221MOL0     C30402   7.358   7.064   0.648 -0.6541  0.4707 -0.3022
  221MOL0     C30403   7.488   6.981   0.691  0.5782  0.3591 -0.5244
  221MOL0     C30404   7.587   6.958   0.577 -0.9766 -0.1671  0.0596
  221MOL0    Cl30405   7.724   6.845   0.631 -0.0108 -0.3094 -0.3477
  221MOL0     C30406   6.758   6.797   1.306  0.0129  0.5508  0.1970
  221MOL0     C30407   6.638   6.750   1.349 -0.4184  0.1303  0.5120
  221MOL0     O30408   6.540   6.516   1.484 -0.3358  0.3925  0.7607
  221MOL0     C30409   6.213   6.497   1.372  0.6764 -0.4664  0.6049
  221MOL0     C30410   6.088   6.451   1.399  0.0236 -0.0863  0.7478
  221MOL0     N30411   5.477   6.765   1.660  0.4599  0.7011 -0.0268
  221MOL0     N30412   5.355   6.751   1.703 -0.2528  0.0128 -0.3521
  221MOL0     C30413   4.161   6.187   1.328  0.6143  0.1649  0.4685
  221MOL0     C30414   4.033   6.166   1.380 -0.1473  0.0349  0.0229
  221MOL0     C30415   3.644   6.233   1.600 -0.3565  0.4449  0.3953
  221MOL0     C30416   3.548   6.228   1.494  0.1998  0.4045 -0.1244
  221MOL0     C30417   3.407   6.190   1.512 -0.1386  0.1720  0.0340
  221MOL0     C30418   3.362   6.170   1.650 -0.2835 -1.3660 -0.5272
  221MOL0     O30419   3.232   6.162   1.683  0.0977 -0.2707  0.1886
  221MOL0     C30420   3.121   6.157   1.587 -0.7739  0.6081 -0.0707
  221MOL0     C30421   2.974   6.126   1.651 -0.2515  0.3856  0.5031
  221MOL0     C30422   2.871   6.075   1.562 -0.9435  0.2336 -0.2790
  221MOL0     C30423   2.733   6.078   1.620 -0.7771  0.2375  0.1450
  221MOL0     C30424   2.669   6.210   1.594 -0.8885 -0.5390 -0.1137
  221MOL0     C30425   2.611   6.316   1.570 -0.0842  0.0049  1.0963
  221MOL0     C30426   3.462   6.159   1.749  0.3010 -0.4118  0.1892
  221MOL0     C30427   3.597   6.186   1.728  0.3644 -0.0058 -0.6961
  221MOL0     C30428   3.691   6.189   1.849 -0.1840  1.0669  0.7523
  221MOL0     H30429   3.937   6.475   1.444 -0.9051 -0.2789  0.2935
  221MOL0     H30430   4.173   6.523   1.394 -2.4420 -0.0170  0.1526
  221MOL0     H30431   4.381   6.535   1.280  0.5790  0.5576  0.0109
  221MOL0     H30432   4.489   6.442   1.182 -0.9435 -2.7279 -0.9395
  221MOL0     H30433   4.573   6.541   1.402  0.6929 -0.4643  1.0372
  221MOL0     H30434   4.463   6.448   1.489 -1.6053  3.3414 -1.4991
  221MOL0     H30435   4.595   6.234   1.408 -1.4680 -0.0340  1.1593
  221MOL0     H30436   4.678   6.336   1.288 -0.3305 -1.6281 -0.9286
  221MOL0     H30437   4.710   6.399   1.596 -3.4333 -3.5298 -0.2470
  221MOL0     H30438   4.793   6.260   1.520  1.0087  0.5920 -1.3243
  221MOL0     H30439   4.844   6.552   1.431  1.5686  0.1409 -1.3819
  221MOL0     H30440   4.934   6.402   1.393  0.1860 -1.2923  1.8292
  221MOL0     H30441   4.914   6.522   1.662  1.0884  0.7362  0.6162
  221MOL0     H30442   4.999   6.372   1.621 -1.0567  0.2003 -0.1431
  221MOL0     H30443   5.053   6.653   1.509  1.7341  1.4199  0.1514
  221MOL0     H30444   5.144   6.513   1.469  1.7315  1.2891  1.0813
  221MOL0     H30445   5.122   6.680   1.728 -1.7977 -1.0618 -1.0637
  221MOL0     H30446   5.176   6.506   1.735 -2.0755 -1.3457 -0.9909
  221MOL0     H30447   5.374   6.524   1.470 -0.4646 -1.7516  2.3733
  221MOL0     H30448   5.663   6.798   1.499 -2.5987  0.2386  2.7712
  221MOL0     H30449   5.568   6.775   1.362  2.7914  0.6140 -0.7813
  221MOL0     H30450   5.613   6.522   1.372 -0.1965  1.5860 -2.0603
  221MOL0     H30451   5.751   6.619   1.333  0.5701 -0.6031  1.5758
  221MOL0     H30452   5.835   6.581   1.561  0.7676 -0.9710  1.3423
  221MOL0     H30453   5.670   6.511   1.608  0.0290 -2.4278 -0.1766
  221MOL0     H30454   5.730   6.321   1.488  0.6784 -1.2412  1.2247
  221MOL0     H30455   5.844   6.416   1.377 -1.4475  2.0950 -0.2749
  221MOL0     H30456   6.118   6.368   1.722  1.2286 -0.0988  1.4702
  221MOL0     H30457   6.463   6.344   1.678  0.6380  0.1982 -0.6041
  221MOL0     H30458   6.335   6.364   1.785  2.0065 -0.9207 -0.3062
  221MOL0     H30459   6.426   6.511   1.736 -0.6796 -0.7740  2.5791
  221MOL0     H30460   6.545   6.543   1.101 -0.8139 -0.0854  0.4437
  221MOL0     H30461   6.773   6.629   1.014 -1.9354 -0.1636 -0.5588
  221MOL0     H30462   6.883   6.988   1.056  0.5654 -2.3773 -1.6818
  221MOL0     H30463   6.947   6.992   1.215 -1.2321  1.0323  0.5222
  221MOL0     H30464   7.158   7.041   1.110  1.1895 -0.2213  1.4568
  221MOL0     H30465   7.160   6.869   1.074 -3.1912 -1.4319  3.8331
  221MOL0     H30466   7.032   7.086   0.903  2.0750  1.9003 -0.8423
  221MOL0     H30467   7.035   6.926   0.856 -2.2048  1.2407  0.3214
  221MOL0     H30468   7.293   6.930   0.878 -1.7386 -1.2911 -0.9458
  221MOL0     H30469   7.264   7.109   0.886 -0.3579 -0.3860 -0.0708
  221MOL0     H30470   7.211   6.907   0.659  3.6694 -0.6520  1.2340
  221MOL0     H30471   7.136   7.070   0.672 -1.1654 -0.9892  0.4580
  221MOL0     H30472   7.375   7.162   0.692  0.2538  0.4354 -0.5629
  221MOL0     H30473   7.371   7.088   0.543 -1.2136  0.3716 -0.3984
  221MOL0     H30474   7.441   6.887   0.724  1.1714  0.7724  1.6738
  221MOL0     H30475   7.550   7.022   0.772 -3.2521  3.3352  1.1979
  221MOL0     H30476   7.630   7.053   0.545 -2.3721  0.2488 -0.6498
  221MOL0     H30477   7.545   6.917   0.485  0.1983 -1.2822 -0.0168
  221MOL0     H30478   6.822   6.870   1.354 -1.1190  1.3771  0.5034
  221MOL0     H30479   6.595   6.777   1.445  0.3043  1.5585  0.4588
  221MOL0     H30480   6.228   6.527   1.268 -0.9564 -1.4298  0.0600
  221MOL0     H30481   6.014   6.456   1.319  0.9277 -3.4944 -0.4560
  221MOL0     H30482   4.214   6.105   1.281  1.3873  1.6293 -1.3590
  221MOL0     H30483   3.991   6.066   1.383 -1.2371  0.4842  2.2728
  221MOL0     H30484   3.576   6.251   1.392 -3.3379  0.8772 -1.1059
  221MOL0     H30485   3.344   6.191   1.424  2.5006  5.3651 -2.2456
  221MOL0     H30486   3.123   6.253   1.535 -0.6647  0.8658  0.3998
  221MOL0     H30487   3.151   6.089   1.507 -2.5974  1.0997 -1.2303
  221MOL0     H30488   2.941   6.224   1.685 -0.5752  0.8132 -0.9761
  221MOL0     H30489   2.989   6.064   1.740  0.2668  1.9910  1.5861
  221MOL0     H30490   2.876   6.125   1.465 -2.7991  1.2314  0.0898
  221MOL0     H30491   2.899   5.972   1.538 -2.3817  0.1383 -1.7127
  221MOL0     H30492   2.725   6.067   1.729 -1.1777 -0.0118  0.0924
  221MOL0     H30493   2.672   6.011   1.560 -1.2477  1.6234 -0.9767
  221MOL0     H30494   2.551   6.397   1.534 -0.5844 -2.2773 -4.0426
  221MOL0     H30495   3.433   6.130   1.849  0.1974 -4.0998 -0.7878
  221MOL0     H30496   3.643   6.162   1.944  1.1318  2.5156  1.8824
  221MOL0     H30497   3.777   6.123   1.833 -3.3643 -3.4115  0.1142
  221MOL0     H30498   3.715   6.296   1.855 -0.3180  1.1935 -0.6831
  222MOL0     O30499   1.120   2.534  10.981  0.8742 -0.7764 -0.1995
  222MOL0     C30500   1.202   2.542  11.066 -0.1839  0.4367  0.4236
  222MOL0     O30501   1.342   2.526  11.041  1.0433 -0.2732 -0.1349
  222MOL0     C30502   1.384   2.542  10.914  0.2513 -0.3019 -0.8609
  222MOL0     C30503   1.335   2.488  10.792 -0.2643 -0.0213  0.1845
  222MOL0     C30504   1.391   2.536  10.673  0.4135 -0.0214  0.6861
  222MOL0     C30505   1.501   2.622  10.662 -0.3154 -0.7309 -0.0220
  222MOL0     O30506   1.549   2.675  10.543 -0.2926 -0.7841 -0.4753
  222MOL0     C30507   1.445   2.723  10.452 -0.0670  0.3152 -0.7354
  222MOL0     C30508   1.494   2.811  10.345  0.4842  1.2744  0.2621
  222MOL0     C30509   1.534   2.956  10.385  0.1031  0.6606  0.6171
  222MOL0     C30510   1.617   2.961  10.516  0.0673 -0.4354 -0.6629
  222MOL0     C30511   1.619   3.108  10.561  0.3249 -0.2896 -0.2805
  222MOL0     C30512   1.675   3.134  10.700  0.1784 -0.6040  0.4132
  222MOL0     C30513   1.821   3.122  10.701  0.6540  0.9786 -0.3065
  222MOL0     C30514   1.889   3.138  10.838  0.2444 -0.5970 -0.7069
  222MOL0     N30515   1.870   3.017  10.923  0.6982  0.1397  0.0922
  222MOL0     C30516   1.961   2.920  10.939 -0.0619  0.3582  0.2365
  222MOL0     C30517   1.902   2.835  11.020  0.6701 -0.9364 -1.0003
  222MOL0     C30518   1.961   2.711  11.074 -0.1567 -0.5242  0.1228
  222MOL0     C30519   2.000   2.710  11.216 -0.3027  0.7505  0.4930
  222MOL0     C30520   2.131   2.786  11.255  0.7090  0.0420  0.1158
  222MOL0     C30521   2.161   2.776  11.409  0.2446  0.4284  0.5272
  222MOL0     O30522   2.202   2.639  11.430  0.2736 -0.2840 -0.2809
  222MOL0     C30523   2.335   2.622  11.470 -0.3269  0.3288 -0.6358
  222MOL0     C30524   2.350   2.513  11.555  0.8671 -0.5272  0.7207
  222MOL0     C30525   2.475   2.487  11.620 -0.3462  0.9994 -0.2809
  222MOL0     C30526   2.469   2.383  11.728 -0.1246  0.5120  0.0119
  222MOL0     C30527   2.595   2.564  11.578  1.4880  0.0254 -0.4132
  222MOL0     C30528   2.732   2.547  11.646  0.5348 -0.2504 -0.0770
  222MOL0     O30529   2.814   2.656  11.631 -0.0830  0.2386 -0.3459
  222MOL0     C30530   2.938   2.663  11.680  0.2955  1.1857  0.2686
  222MOL0     C30531   3.032   2.568  11.642  0.4180  0.7245 -0.1186
  222MOL0     C30532   3.172   2.587  11.678  0.1902  0.0540 -0.2956
  222MOL0     C30533   3.217   2.690  11.756  0.3003 -0.3940  0.6263
  222MOL0     O30534   3.343   2.711  11.800  0.0466  0.0563 -0.5941
  222MOL0     C30535   3.446   2.711  11.701  0.0844  0.1233  0.0712
  222MOL0     C30536   3.531   2.591  11.738  1.1090  0.3975 -0.1381
  222MOL0     C30537   3.662   2.588  11.655  0.4181  0.4094  0.0971
  222MOL0     C30538   3.647   2.542  11.506  0.4197 -0.9783  0.5037
  222MOL0     C30539   3.784   2.532  11.426 -0.0510  0.0592 -0.2663
  222MOL0     C30540   3.750   2.461  11.301  0.6131 -0.2122 -0.5524
  222MOL0     C30541   3.874   2.427  11.227 -0.3299  0.2189 -0.4967
  222MOL0     C30542   3.843   2.312  11.125 -0.7023  0.0109  0.3656
  222MOL0    Cl30543   3.995   2.260  11.051 -0.3217  0.5340  0.2496
  222MOL0     C30544   3.114   2.785  11.795 -0.2335  0.1824  0.0605
  222MOL0     C30545   2.982   2.776  11.747  0.2124 -0.2074  0.3083
  222MOL0     O30546   2.760   2.437  11.697 -0.4361  0.1077 -0.0232
  222MOL0     C30547   2.571   2.673  11.493 -1.0011  0.4602  0.4258
  222MOL0     C30548   2.445   2.700  11.439 -0.3051  0.2297  0.1866
  222MOL0     N30549   1.779   2.883  11.060  0.7813  0.8010  0.1310
  222MOL0     N30550   1.754   2.991  10.990  1.0301  0.0568  0.7191
  222MOL0     C30551   1.555   2.664  10.784  0.5806  0.1610  0.2784
  222MOL0     C30552   1.496   2.627  10.904  0.6824  0.2699 -0.5980
  222MOL0     C30553   1.164   2.553  11.212  0.5136 -0.0499 -0.6492
  222MOL0     C30554   1.269   2.566  11.307  0.0984  0.5401  0.8025
  222MOL0     C30555   1.250   2.552  11.441 -1.3404  0.1624 -0.1785
  222MOL0     C30556   1.119   2.550  11.495 -0.8680  0.4199 -0.5107
  222MOL0     O30557   1.090   2.547  11.633 -0.0080 -0.0434 -1.1496
  222MOL0     C30558   1.190   2.587  11.728 -0.0082 -0.0759 -0.0010
  222MOL0     C30559   1.145   2.665  11.859  0.1772  0.4706 -0.3820
  222MOL0     C30560   1.054   2.579  11.946  0.1957 -0.1293  0.6501
  222MOL0     C30561   1.111   2.442  11.999  0.3489  0.2871  0.3634
  222MOL0     C30562   1.020   2.385  12.103 -0.0846 -0.0514  0.1459
  222MOL0     C30563   0.967   2.328  12.197  0.1579 -0.4248  0.5178
  222MOL0     C30564   1.013   2.537  11.401  0.3625  0.4705 -0.9722
  222MOL0     C30565   1.030   2.529  11.262  0.4399  0.3535 -0.2387
  222MOL0     C30566   0.910   2.502  11.168 -0.2735 -0.4156  0.4011
  222MOL0     H30567   1.243   2.431  10.782 -1.1949  1.8078 -3.6542
  222MOL0     H30568   1.340   2.494  10.586  0.4120 -1.6936  1.4494
  222MOL0     H30569   1.374   2.779  10.513  2.1288  0.8336  1.5271
  222MOL0     H30570   1.407   2.630  10.408 -0.0408  0.7948 -1.7889
  222MOL0     H30571   1.583   2.763  10.303 -0.5927 -1.3792  0.8048
  222MOL0     H30572   1.415   2.824  10.271  0.3010  2.5897  0.6639
  222MOL0     H30573   1.594   2.999  10.305  0.8815 -0.3603  0.6365
  222MOL0     H30574   1.441   3.005  10.415 -0.6820 -0.3410 -0.1361
  222MOL0     H30575   1.561   2.910  10.595  0.0648  3.2968  2.0352
  222MOL0     H30576   1.715   2.916  10.498 -0.3867 -1.7826  0.0948
  222MOL0     H30577   1.515   3.143  10.557  0.9631  1.5857 -1.7105
  222MOL0     H30578   1.676   3.166  10.488  1.6725 -0.4149  0.6356
  222MOL0     H30579   1.648   3.236  10.729  0.6403 -0.3788  0.0701
  222MOL0     H30580   1.622   3.073  10.774 -0.2107  0.6694  1.2089
  222MOL0     H30581   1.873   3.191  10.635  0.1406 -0.7420 -2.6284
  222MOL0     H30582   1.855   3.025  10.663  0.5526  0.3405  1.1605
  222MOL0     H30583   1.996   3.148  10.819  0.1649 -1.8898 -2.1036
  222MOL0     H30584   1.855   3.228  10.889 -0.7885  0.5752 -3.2701
  222MOL0     H30585   2.056   2.907  10.888  0.1156  0.8877  0.4166
  222MOL0     H30586   2.047   2.683  11.012  0.8702  1.2342  0.6924
  222MOL0     H30587   1.883   2.635  11.071 -1.8533  1.1643 -0.4727
  222MOL0     H30588   1.918   2.758  11.271  1.5657  0.9684  3.2778
  222MOL0     H30589   2.009   2.604  11.242  3.4166  1.1747  1.5928
  222MOL0     H30590   2.214   2.751  11.191  2.4584  1.5817  1.4286
  222MOL0     H30591   2.119   2.890  11.225  0.4858 -0.6087 -2.3086
  222MOL0     H30592   2.232   2.851  11.446  1.1212 -1.1267  2.1368
  222MOL0     H30593   2.072   2.806  11.464  2.0670  3.8282  1.9195
  222MOL0     H30594   2.267   2.453  11.591 -0.1853  2.6415  4.2211
  222MOL0     H30595   2.516   2.416  11.821  0.4775 -2.3281  0.8159
  222MOL0     H30596   2.533   2.304  11.688 -0.8199  0.1239 -0.3557
  222MOL0     H30597   2.373   2.335  11.747  0.8231 -1.3200  0.4763
  222MOL0     H30598   3.003   2.480  11.586  2.6704 -1.0313  1.2606
  222MOL0     H30599   3.245   2.509  11.658  1.5998  1.1950  0.1880
  222MOL0     H30600   3.414   2.694  11.598  3.3567 -1.9085 -0.7749
  222MOL0     H30601   3.504   2.803  11.715 -1.0586  1.2651 -2.2412
  222MOL0     H30602   3.551   2.589  11.845  1.7846 -2.1843 -0.2414
  222MOL0     H30603   3.471   2.504  11.713 -0.6578  1.9460 -1.6314
  222MOL0     H30604   3.732   2.516  11.699 -0.2174 -0.1260  0.2499
  222MOL0     H30605   3.694   2.692  11.657 -1.3185  0.9676  1.0391
  222MOL0     H30606   3.587   2.626  11.470  1.7691  0.5128  1.5964
  222MOL0     H30607   3.593   2.448  11.496 -0.9553 -0.0594 -1.3090
  222MOL0     H30608   3.833   2.629  11.416 -0.2374  0.0898 -0.9135
  222MOL0     H30609   3.852   2.463  11.478 -0.7046 -0.8182 -0.5370
  222MOL0     H30610   3.687   2.527  11.240 -0.3811 -0.6786 -0.0513
  222MOL0     H30611   3.691   2.375  11.334 -1.7704  2.0411  1.4621
  222MOL0     H30612   3.944   2.380  11.296 -2.0247  1.0971  1.9544
  222MOL0     H30613   3.921   2.513  11.179 -0.9446  0.2657 -1.0393
  222MOL0     H30614   3.765   2.343  11.054  0.3637 -2.7584 -2.2075
  222MOL0     H30615   3.804   2.229  11.185 -0.3159 -0.2376  0.2720
  222MOL0     H30616   3.151   2.874  11.846 -2.1477  1.0982 -0.0788
  222MOL0     H30617   2.908   2.845  11.788 -1.8406 -2.6366  0.9349
  222MOL0     H30618   2.659   2.734  11.473 -0.7768  0.7798  2.2132
  222MOL0     H30619   2.434   2.781  11.368  1.9570  0.6911  0.2730
  222MOL0     H30620   1.626   2.745  10.777 -1.9862  2.6254  0.7719
  222MOL0     H30621   1.539   2.669  10.994  0.4021 -0.2253 -0.2225
  222MOL0     H30622   1.372   2.588  11.279 -0.1996 -0.2214 -1.0599
  222MOL0     H30623   1.349   2.562  11.483 -0.7755  1.5385 -1.7201
  222MOL0     H30624   1.260   2.507  11.754 -1.4261 -1.4111 -0.1270
  222MOL0     H30625   1.260   2.658  11.683 -0.4740 -1.1388 -2.6555
  222MOL0     H30626   1.088   2.754  11.833  0.5557  1.2415  1.3094
  222MOL0     H30627   1.238   2.684  11.913 -1.2245  0.6907  2.0883
  222MOL0     H30628   1.029   2.643  12.031  0.9684 -0.9676  1.5380
  222MOL0     H30629   0.956   2.557  11.903  0.2440 -0.7920  0.8691
  222MOL0     H30630   1.202   2.470  12.054  1.2707  0.8401 -1.3904
  222MOL0     H30631   1.121   2.365  11.923 -2.4261 -0.5243  0.7050
  222MOL0     H30632   0.918   2.263  12.267 -0.3314 -1.4223 -0.7246
  222MOL0     H30633   0.915   2.551  11.446 -0.3506  0.2435 -2.4139
  222MOL0     H30634   0.902   2.407  11.116 -1.9853  0.3199 -0.7775
  222MOL0     H30635   0.820   2.514  11.228  0.1334  3.2946  0.5064
  222MOL0     H30636   0.899   2.585  11.097 -1.6262 -1.1706 -0.2948
  223MOL0     O30637   3.665   2.911  10.695 -0.2237  0.4676 -0.2581
  223MOL0     C30638   3.694   2.813  10.768  0.6992  1.0221  0.8975
  223MOL0     O30639   3.667   2.805  10.899 -0.2715  0.4044  0.3684
  223MOL0     C30640   3.613   2.919  10.951  0.5935  0.7589 -0.3874
  223MOL0     C30641   3.695   3.021  11.005  0.5761  0.3581  0.6911
  223MOL0     C30642   3.633   3.134  11.064  0.0404 -0.1370 -0.1059
  223MOL0     C30643   3.499   3.136  11.084  0.4194 -0.0740  0.0181
  223MOL0     O30644   3.434   3.231  11.166 -0.1415  0.2119  1.1366
  223MOL0     C30645   3.404   3.350  11.091  0.1445  0.7613 -1.4730
  223MOL0     C30646   3.321   3.452  11.169  0.5597 -0.0324 -0.3272
  223MOL0     C30647   3.190   3.390  11.238  0.2966  0.0617  0.0228
  223MOL0     C30648   3.091   3.503  11.282 -0.3645 -0.2092  0.2189
  223MOL0     C30649   2.959   3.449  11.340 -1.2614 -0.1381  0.6820
  223MOL0     C30650   2.860   3.376  11.242 -0.2334  0.2902  0.4706
  223MOL0     C30651   2.711   3.350  11.292  0.6295 -0.5374  0.4397
  223MOL0     C30652   2.639   3.477  11.333 -0.3012 -0.5447 -0.0806
  223MOL0     N30653   2.630   3.560  11.209 -1.0273  0.1288 -0.5348
  223MOL0     C30654   2.521   3.552  11.131  0.2370  0.1603 -1.2615
  223MOL0     C30655   2.512   3.673  11.076 -0.6303  0.6882  0.4663
  223MOL0     C30656   2.400   3.734  11.007  0.4601 -0.4099  0.1875
  223MOL0     C30657   2.317   3.831  11.092 -0.1939  0.2022 -0.4526
  223MOL0     C30658   2.203   3.909  11.026  0.3708  0.6524 -0.3796
  223MOL0     C30659   2.139   3.988  11.138  0.6868 -0.5546 -0.0642
  223MOL0     O30660   2.014   4.046  11.089 -0.0492 -0.4467 -0.0404
  223MOL0     C30661   2.015   4.176  11.038  0.0662  0.0004 -0.3943
  223MOL0     C30662   2.130   4.251  11.010  0.2551 -0.0929 -0.2280
  223MOL0     C30663   2.124   4.382  10.981  1.2074  0.0152  0.7080
  223MOL0     C30664   2.257   4.443  10.954  0.7105  0.0270 -0.2382
  223MOL0     C30665   1.994   4.453  10.965 -0.4789 -0.1031 -0.1780
  223MOL0     C30666   1.971   4.599  10.927  0.1779  0.3389 -0.3840
  223MOL0     O30667   1.847   4.643  10.929 -0.0810  0.2203  0.3093
  223MOL0     C30668   1.825   4.772  10.928  0.2243  1.1736 -0.7759
  223MOL0     C30669   1.889   4.856  11.022  0.3080  0.8498 -0.3623
  223MOL0     C30670   1.873   4.991  11.018 -0.8940 -0.3639 -0.2175
  223MOL0     C30671   1.791   5.045  10.923 -0.1031  0.9565 -0.4452
  223MOL0     O30672   1.787   5.179  10.919  0.4088  0.0349  0.4572
  223MOL0     C30673   1.697   5.255  10.841  0.4520 -0.5933  0.3703
  223MOL0     C30674   1.723   5.405  10.874 -0.1631  0.0712  0.5493
  223MOL0     C30675   1.773   5.427  11.011 -0.1861  0.4151 -0.2178
  223MOL0     C30676   1.765   5.570  11.047 -0.1972 -0.2329  0.2189
  223MOL0     C30677   1.839   5.602  11.183  0.8993 -0.6579  0.6531
  223MOL0     C30678   1.807   5.519  11.301 -0.5126  0.5012 -0.2193
  223MOL0     C30679   1.884   5.560  11.426 -0.8485 -1.0191  1.2583
  223MOL0     C30680   1.870   5.464  11.541  0.3067 -0.0764 -0.7268
  223MOL0    Cl30681   1.711   5.476  11.602  0.5512  0.0895  0.2284
  223MOL0     C30682   1.724   4.962  10.829  0.5459 -0.2469  0.3223
  223MOL0     C30683   1.743   4.821  10.830 -0.0245  0.0869 -0.3521
  223MOL0     O30684   2.067   4.667  10.903  0.1902 -1.0477  0.1152
  223MOL0     C30685   1.884   4.368  10.983  0.9978 -0.6304  0.6938
  223MOL0     C30686   1.893   4.235  11.019  0.3777  0.0222 -0.2584
  223MOL0     N30687   2.628   3.742  11.102  0.3188  0.4619  0.4544
  223MOL0     N30688   2.700   3.672  11.181 -0.5002  0.3236  0.6249
  223MOL0     C30689   3.417   3.031  11.041 -0.4919  0.5788 -0.0686
  223MOL0     C30690   3.472   2.919  10.978  1.0337 -0.3102 -0.0880
  223MOL0     C30691   3.783   2.711  10.705 -0.0479  0.7622 -0.1275
  223MOL0     C30692   3.841   2.620  10.795 -0.5760  0.1037 -0.1550
  223MOL0     C30693   3.913   2.510  10.759 -0.5052 -0.6975 -0.3412
  223MOL0     C30694   3.935   2.490  10.623  0.1542  0.6127  0.1874
  223MOL0     O30695   4.006   2.389  10.560  0.3315  0.0257 -0.8638
  223MOL0     C30696   4.092   2.319  10.646 -0.7133  0.8840  0.3628
  223MOL0     C30697   4.171   2.227  10.563 -0.2018  0.0908 -0.3157
  223MOL0     C30698   4.250   2.298  10.462  0.0913 -0.1418  0.5714
  223MOL0     C30699   4.359   2.212  10.377  0.0179 -0.3004 -0.0663
  223MOL0     C30700   4.451   2.297  10.305 -0.1427 -0.5362 -0.1163
  223MOL0     C30701   4.530   2.372  10.253 -0.7116 -0.2801 -0.1364
  223MOL0     C30702   3.875   2.571  10.526 -0.6767 -0.1482  0.2448
  223MOL0     C30703   3.799   2.681  10.564 -0.3068  0.1059  0.3167
  223MOL0     C30704   3.734   2.762  10.443 -0.5551  0.2239  0.1276
  223MOL0     H30705   3.804   3.015  10.999  0.5956  0.4519  0.9528
  223MOL0     H30706   3.697   3.216  11.096 -1.3826  0.5754  1.0729
  223MOL0     H30707   3.360   3.322  10.995 -0.6596 -3.0154 -0.1545
  223MOL0     H30708   3.499   3.404  11.078  0.5127  0.1672 -1.2890
  223MOL0     H30709   3.384   3.492  11.249  2.6286 -4.0181  0.2961
  223MOL0     H30710   3.291   3.529  11.098  2.0945 -1.0187 -2.1228
  223MOL0     H30711   3.127   3.328  11.174 -2.6921  0.2265  2.5642
  223MOL0     H30712   3.226   3.324  11.317 -1.2338  0.8610  1.4533
  223MOL0     H30713   3.141   3.559  11.362  2.9647 -0.4826 -1.4861
  223MOL0     H30714   3.075   3.579  11.205 -0.2931 -1.0639 -0.6645
  223MOL0     H30715   2.900   3.531  11.383 -1.0782  0.9261 -1.0026
  223MOL0     H30716   2.978   3.385  11.426 -1.1114 -2.4084 -0.9600
  223MOL0     H30717   2.862   3.422  11.143  3.2549  1.3586  0.9087
  223MOL0     H30718   2.907   3.279  11.224 -0.6159 -0.0052  1.0284
  223MOL0     H30719   2.709   3.274  11.370 -0.8666 -1.3309 -0.3298
  223MOL0     H30720   2.655   3.309  11.207  0.8732 -0.8205  0.4155
  223MOL0     H30721   2.540   3.456  11.374  0.3008 -2.7444  0.3993
  223MOL0     H30722   2.696   3.535  11.406 -0.7307  1.3147 -1.1550
  223MOL0     H30723   2.438   3.483  11.141  0.9892 -0.6290 -0.1333
  223MOL0     H30724   2.329   3.655  10.978  1.2226 -1.3802  0.8997
  223MOL0     H30725   2.430   3.785  10.915  0.1973 -2.0334 -0.8337
  223MOL0     H30726   2.273   3.773  11.174 -0.0397  1.2443  0.3855
  223MOL0     H30727   2.396   3.898  11.125  0.2123  0.1852 -1.3844
  223MOL0     H30728   2.250   3.984  10.960 -0.9762  1.9148  0.0404
  223MOL0     H30729   2.122   3.853  10.980 -0.6942  0.7621  1.3017
  223MOL0     H30730   2.126   3.923  11.225  0.6717 -0.7735 -0.2295
  223MOL0     H30731   2.206   4.064  11.179  0.9226 -1.1403  0.6467
  223MOL0     H30732   2.232   4.216  11.025  0.4730  1.6016  3.0159
  223MOL0     H30733   2.259   4.550  10.977  1.3766  0.7301 -3.1246
  223MOL0     H30734   2.281   4.429  10.848  0.0140  1.6159 -0.6463
  223MOL0     H30735   2.333   4.393  11.015 -1.9750 -0.7802  2.7244
  223MOL0     H30736   1.956   4.821  11.100 -1.1399  2.6230  1.8029
  223MOL0     H30737   1.925   5.055  11.089  1.4437 -2.2733 -0.0430
  223MOL0     H30738   1.720   5.254  10.734  0.1840 -0.3602  0.3069
  223MOL0     H30739   1.593   5.226  10.858 -0.2627  0.3904 -1.8952
  223MOL0     H30740   1.794   5.442  10.800 -2.0460 -1.7328 -2.3448
  223MOL0     H30741   1.634   5.468  10.865 -0.8872 -0.5471  2.8003
  223MOL0     H30742   1.874   5.389  11.027 -0.1216  1.0933  1.1200
  223MOL0     H30743   1.704   5.372  11.076 -0.5603 -0.2456 -1.1574
  223MOL0     H30744   1.662   5.606  11.051  0.4008  1.5433  0.8997
  223MOL0     H30745   1.820   5.617  10.964  2.1309 -0.9964  1.2301
  223MOL0     H30746   1.943   5.576  11.164  0.2167 -3.3893  0.2070
  223MOL0     H30747   1.832   5.710  11.198 -2.8761 -0.7599  0.5713
  223MOL0     H30748   1.835   5.418  11.271  2.7525  1.3514 -0.5116
  223MOL0     H30749   1.704   5.540  11.329 -0.3380 -2.1492  3.0047
  223MOL0     H30750   1.857   5.661  11.455  0.4698 -0.7868  1.7424
  223MOL0     H30751   1.992   5.567  11.406 -0.7936 -2.5628  0.8019
  223MOL0     H30752   1.940   5.481  11.623  0.2506  0.3895 -0.7707
  223MOL0     H30753   1.888   5.362  11.505  1.1170  0.2790 -1.3534
  223MOL0     H30754   1.665   4.988  10.741  0.5725 -1.1760  0.0100
  223MOL0     H30755   1.705   4.757  10.751 -0.1218 -1.9089  1.2189
  223MOL0     H30756   1.784   4.404  10.961  1.0690 -0.8262  0.0224
  223MOL0     H30757   1.812   4.166  11.040  1.2067 -0.2006  2.6554
  223MOL0     H30758   3.313   3.053  11.061 -0.3574  0.8794  0.3264
  223MOL0     H30759   3.394   2.853  10.942 -0.1453  1.2349 -0.4592
  223MOL0     H30760   3.841   2.630  10.903  0.8053  1.0146 -0.2155
  223MOL0     H30761   3.946   2.447  10.841  2.0034  1.9128  0.8721
  223MOL0     H30762   4.163   2.375  10.707 -1.9989  1.0951  1.7189
  223MOL0     H30763   4.031   2.264  10.718  0.2778  1.4658  1.6764
  223MOL0     H30764   4.103   2.157  10.513  1.1667 -0.7920 -1.0059
  223MOL0     H30765   4.234   2.162  10.625 -0.9057  0.2174  0.5484
  223MOL0     H30766   4.178   2.344  10.393 -1.2008  0.0502  1.9988
  223MOL0     H30767   4.302   2.378  10.515 -1.2953  1.7333 -0.7306
  223MOL0     H30768   4.302   2.143  10.315  1.6411 -2.0908  0.3516
  223MOL0     H30769   4.408   2.144  10.447  0.9293 -0.1144 -0.5163
  223MOL0     H30770   4.604   2.436  10.210 -1.6355  0.5981 -0.4504
  223MOL0     H30771   3.899   2.550  10.422 -1.5724 -1.4923  0.2942
  223MOL0     H30772   3.783   2.854  10.412 -0.4619  0.2891  0.4592
  223MOL0     H30773   3.719   2.708  10.349 -1.6258 -2.4130  1.6944
  223MOL0     H30774   3.630   2.783  10.473 -1.3049 -2.1397 -0.5861
  224MOL0     O30775   2.345   1.876   7.884  0.3112  0.0789 -0.0145
  224MOL0     C30776   2.255   1.902   7.803 -0.5147 -0.0255  0.4085
  224MOL0     O30777   2.240   1.839   7.685 -0.3684 -0.3779  0.5563
  224MOL0     C30778   2.309   1.720   7.676  0.3505 -0.1065 -0.1217
  224MOL0     C30779   2.437   1.709   7.637  1.7825 -0.4759  0.4375
  224MOL0     C30780   2.503   1.583   7.638 -0.5932 -0.0545  0.3732
  224MOL0     C30781   2.440   1.468   7.693  0.3293 -0.2417 -0.4676
  224MOL0     O30782   2.496   1.347   7.719 -0.1903  0.1643  0.2046
  224MOL0     C30783   2.638   1.328   7.713 -1.0080  0.1723 -0.2009
  224MOL0     C30784   2.684   1.198   7.775 -0.4567  0.0853 -0.1286
  224MOL0     C30785   2.835   1.197   7.798  0.0774 -0.7462  0.6091
  224MOL0     C30786   2.876   1.259   7.924 -0.1713 -0.2263 -0.3909
  224MOL0     C30787   3.024   1.286   7.944 -0.3987  0.6223  0.0708
  224MOL0     C30788   3.115   1.161   7.955 -0.5019 -0.5089  0.3978
  224MOL0     C30789   3.256   1.193   8.004  0.4550 -0.1752 -0.3059
  224MOL0     C30790   3.363   1.225   7.893  0.1993 -0.4500 -0.9973
  224MOL0     N30791   3.329   1.350   7.834 -0.9757 -0.2580 -0.1927
  224MOL0     C30792   3.343   1.473   7.898  0.3762  0.1646  0.5129
  224MOL0     C30793   3.316   1.558   7.797 -0.0804 -0.5958 -0.2705
  224MOL0     C30794   3.321   1.703   7.821  0.2935  0.2902  0.0035
  224MOL0     C30795   3.458   1.753   7.772  0.0811  0.4435  0.2745
  224MOL0     C30796   3.459   1.901   7.779 -0.0030 -0.1336  0.6529
  224MOL0     C30797   3.588   1.947   7.715  0.7164  1.0561  0.3846
  224MOL0     O30798   3.620   2.081   7.750  0.1572 -0.3148 -0.6319
  224MOL0     C30799   3.711   2.165   7.682  0.4696  0.9500 -0.2124
  224MOL0     C30800   3.766   2.122   7.555 -0.0304 -0.5654 -0.3919
  224MOL0     C30801   3.848   2.211   7.479 -0.6188  0.1872 -0.1606
  224MOL0     C30802   3.887   2.159   7.344 -0.0887 -0.2490  0.2252
  224MOL0     C30803   3.887   2.340   7.529  0.3587 -0.3180 -0.1477
  224MOL0     C30804   3.982   2.444   7.462  0.7804 -0.0344  1.1543
  224MOL0     O30805   3.991   2.567   7.533  0.1660  0.0546  0.7219
  224MOL0     C30806   4.101   2.644   7.512  0.6406 -0.0242 -0.0607
  224MOL0     C30807   4.080   2.760   7.441 -0.3430 -0.3879 -0.1162
  224MOL0     C30808   4.189   2.846   7.418 -0.0237 -0.0737  0.8154
  224MOL0     C30809   4.317   2.804   7.453  0.3173 -0.2201 -0.0603
  224MOL0     O30810   4.415   2.887   7.412  0.2970  0.1998 -0.3225
  224MOL0     C30811   4.554   2.839   7.405 -0.0918  0.4699 -1.0943
  224MOL0     C30812   4.626   2.967   7.356 -0.3196  0.8836  0.8198
  224MOL0     C30813   4.782   2.954   7.340  0.7734  0.6888 -0.3879
  224MOL0     C30814   4.828   3.009   7.210  0.2174  0.7700  0.1358
  224MOL0     C30815   4.977   3.040   7.191  0.5214 -0.8932  0.2455
  224MOL0     C30816   4.997   3.119   7.058 -0.0933 -0.1018  0.7845
  224MOL0     C30817   5.139   3.191   7.054  0.0935 -0.8528 -0.5635
  224MOL0     C30818   5.139   3.295   6.937  0.2690 -0.3653  0.2069
  224MOL0    Cl30819   5.305   3.338   6.895 -0.0635  0.4544  0.2950
  224MOL0     C30820   4.341   2.681   7.524 -0.9438  0.2436 -0.4674
  224MOL0     C30821   4.226   2.609   7.559  0.2381 -0.4130  0.3163
  224MOL0     O30822   4.045   2.416   7.363 -0.1526  0.6253 -0.6637
  224MOL0     C30823   3.832   2.371   7.657  0.5313 -0.3122  0.0110
  224MOL0     C30824   3.751   2.283   7.731 -0.1612  0.8203 -0.8864
  224MOL0     N30825   3.290   1.494   7.679  0.1680 -0.1690 -0.0088
  224MOL0     N30826   3.309   1.361   7.704 -0.3731  0.0550  0.6445
  224MOL0     C30827   2.304   1.483   7.733  0.4388  0.8075  0.6005
  224MOL0     C30828   2.241   1.606   7.721 -0.4905  0.4693  0.3149
  224MOL0     C30829   2.148   1.990   7.851 -0.7626  0.4509  0.0434
  224MOL0     C30830   2.140   2.120   7.793 -0.0196 -0.3180 -0.0691
  224MOL0     C30831   2.045   2.214   7.837  0.0421 -0.1899 -0.1072
  224MOL0     C30832   1.957   2.179   7.935  0.6168  0.0559  0.2416
  224MOL0     O30833   1.855   2.259   7.979 -0.4357 -0.2140  0.2904
  224MOL0     C30834   1.727   2.257   7.920 -0.1927  0.1417  0.0253
  224MOL0     C30835   1.741   2.312   7.774 -0.5045  0.6108 -0.2981
  224MOL0     C30836   1.795   2.453   7.777  0.1243 -0.4510  0.7674
  224MOL0     C30837   1.830   2.508   7.637 -0.3247 -0.2145 -0.0494
  224MOL0     C30838   1.970   2.493   7.597  0.6777 -0.7304  0.1750
  224MOL0     C30839   2.085   2.476   7.566 -0.7116 -0.7211 -0.4456
  224MOL0     C30840   1.966   2.053   7.990 -0.2776  0.2798  0.1313
  224MOL0     C30841   2.062   1.955   7.958 -0.0003  0.4169  0.3733
  224MOL0     C30842   2.064   1.818   8.024  0.2628  0.0018  0.4110
  224MOL0     H30843   2.486   1.796   7.594  3.0743 -0.8073  1.2104
  224MOL0     H30844   2.605   1.573   7.601 -0.5714 -0.4358  0.5278
  224MOL0     H30845   2.687   1.408   7.770 -1.4143  0.3409 -0.0836
  224MOL0     H30846   2.674   1.330   7.610  2.3644 -1.0257  0.8058
  224MOL0     H30847   2.636   1.180   7.872  1.3512  1.1735  1.0291
  224MOL0     H30848   2.660   1.117   7.706 -4.0437 -0.1366  1.1488
  224MOL0     H30849   2.868   1.093   7.800  3.3123  0.1610  0.7849
  224MOL0     H30850   2.887   1.252   7.719 -3.2770  1.9394  0.0121
  224MOL0     H30851   2.822   1.354   7.931  0.2103  0.1368 -2.0997
  224MOL0     H30852   2.837   1.191   8.001  0.2724 -0.6313 -0.5194
  224MOL0     H30853   3.032   1.343   8.038  1.7808 -0.7890  0.8001
  224MOL0     H30854   3.063   1.351   7.865  1.3755  0.4797  0.7803
  224MOL0     H30855   3.071   1.095   8.031  0.8910 -1.3022  0.5492
  224MOL0     H30856   3.111   1.116   7.856 -1.2070  3.4280 -1.5481
  224MOL0     H30857   3.294   1.110   8.063 -0.3949  1.2957  2.5013
  224MOL0     H30858   3.251   1.276   8.075  1.8019 -0.0461 -0.3347
  224MOL0     H30859   3.460   1.238   7.942  0.3900  0.3880 -1.5735
  224MOL0     H30860   3.368   1.147   7.817  1.9150 -1.2378 -0.1338
  224MOL0     H30861   3.353   1.480   8.006  1.1338 -0.2717  0.4779
  224MOL0     H30862   3.307   1.735   7.924 -2.0006  1.7065 -0.6606
  224MOL0     H30863   3.249   1.753   7.755 -1.7230 -0.4927  1.5224
  224MOL0     H30864   3.544   1.717   7.829  0.6374  1.0350 -0.1741
  224MOL0     H30865   3.469   1.711   7.671 -2.6881  1.0448 -0.3662
  224MOL0     H30866   3.372   1.929   7.718  0.5582  1.5535  0.5707
  224MOL0     H30867   3.440   1.941   7.879 -3.4182 -2.8607  1.3179
  224MOL0     H30868   3.673   1.885   7.743  0.6429 -0.0511 -1.6392
  224MOL0     H30869   3.582   1.932   7.607  0.7381  1.5769  0.3072
  224MOL0     H30870   3.721   2.030   7.520  2.0871 -3.1633  2.9856
  224MOL0     H30871   3.981   2.102   7.341 -0.6085 -1.0696 -1.1551
  224MOL0     H30872   3.896   2.238   7.270 -2.1187 -0.1610  0.0328
  224MOL0     H30873   3.803   2.096   7.313  0.1694 -1.6330  2.1216
  224MOL0     H30874   3.979   2.797   7.426  0.6810  3.0424  0.4618
  224MOL0     H30875   4.180   2.943   7.371  0.0361  0.9685  2.8590
  224MOL0     H30876   4.592   2.805   7.501 -0.8998  3.4886  0.4176
  224MOL0     H30877   4.564   2.751   7.340 -0.1274  0.1453 -0.6631
  224MOL0     H30878   4.589   2.983   7.255 -1.1675 -0.8532  0.8208
  224MOL0     H30879   4.600   3.053   7.420 -0.3133  0.8524  0.8641
  224MOL0     H30880   4.812   2.849   7.353 -0.2316  0.7176  3.5166
  224MOL0     H30881   4.839   3.010   7.415  2.5148 -0.1303 -1.0291
  224MOL0     H30882   4.772   3.102   7.196 -0.4188  0.4375  0.4634
  224MOL0     H30883   4.802   2.931   7.138  2.4197 -0.9790  1.0763
  224MOL0     H30884   5.012   3.101   7.275  0.2847 -0.4943  0.0567
  224MOL0     H30885   5.029   2.944   7.197  2.4830  0.1640  1.1332
  224MOL0     H30886   4.917   3.189   7.032  0.3107  0.3086  0.6203
  224MOL0     H30887   4.996   3.048   6.975  1.8116 -0.7849  1.2974
  224MOL0     H30888   5.219   3.120   7.032 -0.6520 -2.0959  0.6025
  224MOL0     H30889   5.156   3.251   7.144 -0.3697 -0.4399 -0.7459
  224MOL0     H30890   5.076   3.380   6.963  0.0842  0.2294 -1.9701
  224MOL0     H30891   5.104   3.246   6.845  1.4422 -4.0744  1.5368
  224MOL0     H30892   4.438   2.645   7.557  0.4177  3.6606 -0.3948
  224MOL0     H30893   4.219   2.518   7.618  0.6739 -0.3449  0.4744
  224MOL0     H30894   3.859   2.465   7.704 -0.2897  0.0828 -0.2866
  224MOL0     H30895   3.704   2.320   7.822 -1.6089  0.8763 -1.6288
  224MOL0     H30896   2.266   1.393   7.779  1.6984  1.1932  2.5364
  224MOL0     H30897   2.143   1.621   7.765  0.0403  0.9878  1.3522
  224MOL0     H30898   2.203   2.151   7.711  0.5462  1.0356  0.8425
  224MOL0     H30899   2.037   2.312   7.791  1.9237  1.3968  2.6645
  224MOL0     H30900   1.690   2.155   7.914 -1.8731  0.6769  0.7380
  224MOL0     H30901   1.662   2.322   7.980  2.4813  4.3707 -1.1439
  224MOL0     H30902   1.647   2.304   7.720  1.0929 -0.0075 -3.1638
  224MOL0     H30903   1.805   2.241   7.721  0.8863  0.5812  1.3523
  224MOL0     H30904   1.719   2.522   7.815  0.9257 -0.1440  1.8345
  224MOL0     H30905   1.879   2.463   7.846  0.7818  0.0476 -0.0869
  224MOL0     H30906   1.811   2.616   7.636  1.4454  0.1431  0.9338
  224MOL0     H30907   1.761   2.468   7.561  0.6929 -2.3168  0.0717
  224MOL0     H30908   2.191   2.472   7.550 -0.7080  2.2437 -1.8510
  224MOL0     H30909   1.905   2.021   8.074  0.4251  1.2134  1.0265
  224MOL0     H30910   2.166   1.780   8.019  0.9284  1.7415 -0.1795
  224MOL0     H30911   2.041   1.819   8.131  2.9382 -1.1243  1.0801
  224MOL0     H30912   2.007   1.738   7.975 -2.4850  1.0852  1.6063
  225MOL0     O30913   3.377   3.066   8.795 -0.4068  0.0300 -0.4873
  225MOL0     C30914   3.314   3.053   8.900 -0.0960  0.0464 -0.1385
  225MOL0     O30915   3.360   2.977   9.007  0.3940 -0.3675  0.1453
  225MOL0     C30916   3.482   2.914   8.996 -0.3079  0.8483 -0.2463
  225MOL0     C30917   3.496   2.771   8.993 -0.2182  1.7924  0.1697
  225MOL0     C30918   3.625   2.714   9.006 -0.1814 -0.1666 -0.1627
  225MOL0     C30919   3.735   2.800   9.023 -0.8383 -0.0410 -0.2482
  225MOL0     O30920   3.865   2.756   9.030 -0.1940 -0.2698  0.2939
  225MOL0     C30921   3.889   2.655   9.124 -0.4085  0.2738 -1.1395
  225MOL0     C30922   4.041   2.657   9.138 -0.1624 -0.5690  0.0735
  225MOL0     C30923   4.105   2.543   9.221  0.2092  0.3921  0.1535
  225MOL0     C30924   4.254   2.557   9.203 -0.2182 -0.4775  0.5817
  225MOL0     C30925   4.333   2.458   9.280  0.8542  0.4861  0.3402
  225MOL0     C30926   4.478   2.456   9.253 -0.0279 -0.3471 -0.5994
  225MOL0     C30927   4.517   2.393   9.108  0.4471 -0.3553  0.0505
  225MOL0     C30928   4.664   2.324   9.127 -0.0510 -0.3246 -0.0151
  225MOL0     N30929   4.729   2.313   8.996 -0.2776 -0.7554 -0.1022
  225MOL0     C30930   4.678   2.246   8.893 -0.4952  0.8710 -0.4639
  225MOL0     C30931   4.757   2.274   8.783 -0.4468 -0.4031 -0.3797
  225MOL0     C30932   4.728   2.221   8.646 -0.2414 -0.3429  0.0815
  225MOL0     C30933   4.641   2.321   8.584  0.2538  0.0471 -0.4066
  225MOL0     C30934   4.577   2.265   8.453  0.3287  0.8247 -0.0637
  225MOL0     C30935   4.647   2.328   8.333  0.0149 -0.5173  0.5174
  225MOL0     O30936   4.772   2.269   8.314 -0.7231 -0.1257  0.3382
  225MOL0     C30937   4.856   2.289   8.209 -0.2316  1.0663  0.0371
  225MOL0     C30938   4.983   2.240   8.224  0.4235 -0.6821  0.1131
  225MOL0     C30939   5.078   2.260   8.125 -0.4338 -0.5521  0.3484
  225MOL0     C30940   5.217   2.194   8.154 -1.1721  0.1268 -0.7875
  225MOL0     C30941   5.041   2.330   8.004 -1.2699 -0.4175  0.2774
  225MOL0     C30942   5.128   2.352   7.887 -0.2124  0.6414 -0.6977
  225MOL0     O30943   5.084   2.443   7.790  0.3307  0.3490  1.0526
  225MOL0     C30944   5.153   2.449   7.669  0.3563 -0.3595  0.5780
  225MOL0     C30945   5.162   2.345   7.577  0.1500  0.6184  0.4423
  225MOL0     C30946   5.235   2.363   7.460 -0.6331  0.3686  0.0589
  225MOL0     C30947   5.294   2.485   7.431 -0.0826  0.5359 -0.1202
  225MOL0     O30948   5.336   2.495   7.301 -0.2710  0.0324 -0.0791
  225MOL0     C30949   5.460   2.554   7.260  0.4220  0.1077 -0.2958
  225MOL0     C30950   5.581   2.457   7.259  0.2483 -0.1238  0.4832
  225MOL0     C30951   5.710   2.538   7.285  0.1750  1.1325 -0.2413
  225MOL0     C30952   5.737   2.650   7.179 -0.0281  0.5096 -0.5391
  225MOL0     C30953   5.855   2.745   7.211 -0.5303  0.0804  0.5242
  225MOL0     C30954   5.995   2.679   7.199  0.5620 -0.0110 -0.1001
  225MOL0     C30955   6.019   2.645   7.054 -0.4002  0.8244  1.1874
  225MOL0     C30956   6.049   2.774   6.964 -0.9655 -0.1639  0.0265
  225MOL0    Cl30957   6.129   2.742   6.806 -0.3273  0.0772 -0.2226
  225MOL0     C30958   5.275   2.591   7.515 -0.8595 -0.0168 -0.2249
  225MOL0     C30959   5.205   2.576   7.638  0.2247  0.0107 -0.4018
  225MOL0     O30960   5.226   2.274   7.881  0.1678 -0.0821 -0.5491
  225MOL0     C30961   4.909   2.371   7.995  0.0792 -0.2731 -0.5897
  225MOL0     C30962   4.815   2.353   8.095  0.3508  0.0775  0.1217
  225MOL0     N30963   4.865   2.370   8.819 -0.7485  0.0407 -0.2783
  225MOL0     N30964   4.837   2.386   8.948 -0.3320 -0.3002 -0.1655
  225MOL0     C30965   3.723   2.937   9.020  0.3562  0.1981 -0.0814
  225MOL0     C30966   3.596   2.992   9.006  0.0353  0.7754  0.0766
  225MOL0     C30967   3.187   3.131   8.925 -0.2172 -0.4067 -0.8060
  225MOL0     C30968   3.177   3.193   9.055 -0.7841  0.1281  1.3027
  225MOL0     C30969   3.067   3.281   9.067 -0.3027  0.8331  0.4536
  225MOL0     C30970   2.965   3.294   8.974 -0.6056  0.8076 -0.4741
  225MOL0     O30971   2.865   3.376   9.016 -0.5865  0.4166 -0.0343
  225MOL0     C30972   2.731   3.372   8.964 -0.3855 -0.6766  0.9125
  225MOL0     C30973   2.663   3.234   8.978 -0.1982  0.0630 -0.2550
  225MOL0     C30974   2.647   3.165   8.849  0.2373  0.1890  0.1479
  225MOL0     C30975   2.551   3.043   8.853  0.4155 -0.2074 -0.0045
  225MOL0     C30976   2.621   2.913   8.868  0.3447 -0.4557  0.7510
  225MOL0     C30977   2.686   2.820   8.901  0.0657 -0.1339 -0.7061
  225MOL0     C30978   2.984   3.233   8.854  1.0988 -0.0078 -0.1438
  225MOL0     C30979   3.091   3.157   8.825  0.2618 -0.4706  0.3939
  225MOL0     C30980   3.094   3.069   8.706  0.9816 -0.2998 -0.0290
  225MOL0     H30981   3.406   2.710   8.989  0.0314  1.4091  0.3740
  225MOL0     H30982   3.634   2.606   9.011  0.8683 -0.0820 -0.0018
  225MOL0     H30983   3.848   2.559   9.092 -2.8623  0.8094  0.1389
  225MOL0     H30984   3.852   2.690   9.221 -0.2840  0.5342 -1.1835
  225MOL0     H30985   4.075   2.660   9.034 -2.6872  2.7038 -0.8538
  225MOL0     H30986   4.076   2.756   9.169  3.3965 -1.6854  0.1034
  225MOL0     H30987   4.088   2.557   9.328 -1.4849 -0.5575  0.0269
  225MOL0     H30988   4.079   2.444   9.182  2.6805 -0.3876  0.2831
  225MOL0     H30989   4.282   2.554   9.097 -1.2816  0.0986  0.2696
  225MOL0     H30990   4.292   2.651   9.242  1.1960 -1.8368  2.6804
  225MOL0     H30991   4.294   2.356   9.267  1.5665  0.5042 -2.6686
  225MOL0     H30992   4.317   2.476   9.386 -2.6951  0.1715 -0.0408
  225MOL0     H30993   4.525   2.555   9.246 -0.4800 -0.2083 -2.1946
  225MOL0     H30994   4.525   2.394   9.329  1.8840  1.4985 -0.1735
  225MOL0     H30995   4.506   2.462   9.024  0.7540 -1.3394 -0.8146
  225MOL0     H30996   4.446   2.316   9.077  0.3985  0.8756 -3.3206
  225MOL0     H30997   4.731   2.381   9.191 -1.2581  2.0393 -0.7161
  225MOL0     H30998   4.648   2.223   9.166 -2.3140 -0.6793 -1.6354
  225MOL0     H30999   4.589   2.186   8.905  0.3681 -0.2751  0.5222
  225MOL0     H31000   4.695   2.117   8.646  1.7821 -1.0272 -0.1165
  225MOL0     H31001   4.825   2.214   8.596 -0.3649 -1.2255 -0.0446
  225MOL0     H31002   4.560   2.338   8.655 -0.5317 -0.3039 -1.2098
  225MOL0     H31003   4.698   2.411   8.560 -0.8756  1.6199  2.3118
  225MOL0     H31004   4.594   2.156   8.453  1.1134  0.9079  1.6605
  225MOL0     H31005   4.471   2.292   8.449  0.0317 -0.4105 -1.8791
  225MOL0     H31006   4.589   2.312   8.242 -1.5255 -0.9184  1.5336
  225MOL0     H31007   4.658   2.436   8.349  1.0570 -0.0320 -2.7195
  225MOL0     H31008   5.020   2.201   8.319  2.2786 -0.7022 -0.5768
  225MOL0     H31009   5.245   2.113   8.086 -1.2017  0.2218 -0.9151
  225MOL0     H31010   5.233   2.154   8.255  1.4111  2.6335 -0.0908
  225MOL0     H31011   5.285   2.278   8.143  2.4317 -1.7016  3.9299
  225MOL0     H31012   5.111   2.250   7.589 -1.3727  1.0380 -2.1072
  225MOL0     H31013   5.238   2.282   7.388  2.3633  2.3632 -2.3250
  225MOL0     H31014   5.462   2.603   7.162 -1.7586  1.8756  0.4496
  225MOL0     H31015   5.489   2.640   7.321  0.6472 -1.3014  1.6408
  225MOL0     H31016   5.570   2.389   7.343  0.3510  2.0712  2.3841
  225MOL0     H31017   5.581   2.400   7.165  0.5339  0.3819  0.1679
  225MOL0     H31018   5.793   2.468   7.297  1.8278  3.1983  1.3178
  225MOL0     H31019   5.703   2.580   7.386  0.6257 -1.6049  1.0311
  225MOL0     H31020   5.660   2.728   7.184 -3.1993 -2.3763 -0.8334
  225MOL0     H31021   5.747   2.617   7.076  1.8095  0.7596 -0.4749
  225MOL0     H31022   5.853   2.834   7.148 -0.2705 -1.7888 -2.2691
  225MOL0     H31023   5.826   2.787   7.309 -0.1735  0.5067  0.4492
  225MOL0     H31024   6.010   2.594   7.267 -0.4710 -1.2620 -1.3866
  225MOL0     H31025   6.075   2.751   7.217  0.2007  0.0811  1.2469
  225MOL0     H31026   5.938   2.583   7.014 -1.3474  1.0351  2.7149
  225MOL0     H31027   6.112   2.586   7.056  0.0666  1.5255  0.7465
  225MOL0     H31028   6.108   2.838   7.031 -0.2215  0.7699 -1.4707
  225MOL0     H31029   5.962   2.828   6.926 -0.1292  0.2032 -1.4425
  225MOL0     H31030   5.316   2.689   7.491 -1.1658  0.1005 -0.2739
  225MOL0     H31031   5.177   2.666   7.692 -2.9554 -0.8574 -0.3845
  225MOL0     H31032   4.884   2.436   7.912 -0.9491  0.5705  0.3523
  225MOL0     H31033   4.716   2.396   8.086 -0.5318 -1.9966 -0.9900
  225MOL0     H31034   3.809   3.002   9.031 -0.7690  1.4489  1.8608
  225MOL0     H31035   3.574   3.099   9.009 -1.5403  0.4465  1.6219
  225MOL0     H31036   3.249   3.185   9.136 -1.7216 -0.6174  2.1008
  225MOL0     H31037   3.066   3.325   9.166 -2.5674  0.6552  0.5555
  225MOL0     H31038   2.673   3.441   9.025 -0.3410  1.7269 -1.5606
  225MOL0     H31039   2.725   3.410   8.861  1.9045  0.5586  1.1698
  225MOL0     H31040   2.564   3.251   9.020 -0.1141 -2.4392  1.1288
  225MOL0     H31041   2.712   3.173   9.055 -0.4291  1.0131  0.6667
  225MOL0     H31042   2.607   3.238   8.778 -1.7707 -1.4781 -0.5440
  225MOL0     H31043   2.744   3.137   8.807  1.7443  2.0847  2.0860
  225MOL0     H31044   2.496   3.051   8.759  1.2640  1.8426 -0.3726
  225MOL0     H31045   2.466   3.048   8.922 -1.0834  0.2245 -1.7753
  225MOL0     H31046   2.750   2.739   8.928  1.3944  2.0153  3.4257
  225MOL0     H31047   2.906   3.245   8.779  0.6138 -0.1375  0.3377
  225MOL0     H31048   2.994   3.081   8.663  0.5524  2.7579  1.5235
  225MOL0     H31049   3.168   3.103   8.633  1.8571 -0.3233  0.8295
  225MOL0     H31050   3.116   2.967   8.737  2.1485  0.4149  1.6059
  226MOL0     O31051   5.691   4.362   8.187 -0.3312 -0.2496 -0.1852
  226MOL0     C31052   5.629   4.333   8.284  1.2561  0.1714  1.4240
  226MOL0     O31053   5.682   4.298   8.401 -0.2878  0.5109  0.0822
  226MOL0     C31054   5.814   4.330   8.432 -0.3228 -0.0166  0.9708
  226MOL0     C31055   5.872   4.458   8.395 -0.0785  0.4144 -0.6889
  226MOL0     C31056   5.998   4.499   8.447  0.4418 -0.3317  0.0860
  226MOL0     C31057   6.072   4.418   8.531  0.3138 -0.2835 -0.1272
  226MOL0     O31058   6.191   4.460   8.585  0.4361  0.4277  0.1821
  226MOL0     C31059   6.169   4.537   8.707  0.2095 -0.2176  0.3452
  226MOL0     C31060   6.301   4.559   8.767 -0.3867  0.1515  0.1311
  226MOL0     C31061   6.408   4.613   8.675 -0.2187 -0.7027  0.6883
  226MOL0     C31062   6.519   4.672   8.770 -0.4138  0.1120  0.1463
  226MOL0     C31063   6.633   4.749   8.700 -0.1945 -0.2007  0.0290
  226MOL0     C31064   6.766   4.763   8.773  0.6622 -0.5107  0.4787
  226MOL0     C31065   6.772   4.889   8.860  0.2945  0.4589  0.0250
  226MOL0     C31066   6.875   4.884   8.972 -0.7556 -0.6067 -0.2935
  226MOL0     N31067   6.961   5.007   8.984 -0.5563 -0.0601 -0.0890
  226MOL0     C31068   6.915   5.133   9.024  0.4095 -0.4677 -0.2053
  226MOL0     C31069   7.027   5.214   9.008 -0.6284 -0.5334 -0.1517
  226MOL0     C31070   7.053   5.355   9.053  0.0152 -1.1089 -0.1770
  226MOL0     C31071   7.158   5.360   9.160  0.0010  0.2716  0.3169
  226MOL0     C31072   7.193   5.505   9.205 -0.2523  1.0167  0.0621
  226MOL0     C31073   7.298   5.496   9.320 -0.7772 -0.1642 -0.4516
  226MOL0     O31074   7.423   5.448   9.265  0.6363 -0.3751  0.0504
  226MOL0     C31075   7.516   5.416   9.358 -1.0709  0.2912 -0.0985
  226MOL0     C31076   7.510   5.316   9.461  0.6947 -0.6219 -0.3726
  226MOL0     C31077   7.612   5.288   9.551 -0.7495  0.4598 -0.0322
  226MOL0     C31078   7.587   5.173   9.651  0.3244 -0.8226 -0.7213
  226MOL0     C31079   7.738   5.355   9.535  0.1361 -0.7523 -0.1169
  226MOL0     C31080   7.856   5.332   9.618  1.2670 -0.1722  0.2530
  226MOL0     O31081   7.978   5.372   9.563 -0.3553  0.2461 -0.0495
  226MOL0     C31082   8.080   5.345   9.651  0.3241 -0.2748  0.9066
  226MOL0     C31083   8.176   5.250   9.608  0.0295  0.2901 -0.0216
  226MOL0     C31084   8.275   5.203   9.696  0.9596  0.8755  0.8265
  226MOL0     C31085   8.290   5.260   9.815  0.6069  0.4861 -0.1315
  226MOL0     O31086   8.387   5.194   9.888 -0.3011  0.4658  0.4931
  226MOL0     C31087   8.431   5.257  10.011 -0.3338  0.1626 -0.2365
  226MOL0     C31088   8.571   5.197  10.040 -0.1497 -0.2840 -0.4536
  226MOL0     C31089   8.655   5.279  10.144  0.6285 -0.2882  1.0551
  226MOL0     C31090   8.801   5.232  10.151 -0.7041 -0.3570 -0.3324
  226MOL0     C31091   8.872   5.312  10.263  0.5578  1.2472 -0.8777
  226MOL0     C31092   8.839   5.251  10.398 -0.4991 -0.1165 -0.4126
  226MOL0     C31093   8.889   5.331  10.521 -0.1361 -1.6110  0.8177
  226MOL0     C31094   9.039   5.344  10.527 -0.1408  0.3984 -0.2023
  226MOL0    Cl31095   9.120   5.191  10.553 -0.1840 -0.5429 -0.3026
  226MOL0     C31096   8.201   5.362   9.853 -1.0242  0.1171 -0.8525
  226MOL0     C31097   8.092   5.403   9.778 -0.0869 -0.3684 -0.2322
  226MOL0     O31098   7.840   5.299   9.730  0.5162  0.2130 -0.2495
  226MOL0     C31099   7.742   5.460   9.443 -0.1035 -0.1269 -0.7129
  226MOL0     C31100   7.637   5.489   9.354  0.1870 -0.0051 -0.1973
  226MOL0     N31101   7.131   5.136   8.956 -0.4565 -0.8210 -0.0704
  226MOL0     N31102   7.091   5.012   8.935  0.7825 -0.2506  0.5786
  226MOL0     C31103   6.016   4.292   8.570 -0.7964  0.1226 -0.3457
  226MOL0     C31104   5.888   4.250   8.521 -0.1098  0.0709 -0.2185
  226MOL0     C31105   5.483   4.322   8.267  0.2300  0.8948  0.7017
  226MOL0     C31106   5.403   4.366   8.374 -0.0158  0.6882 -0.3400
  226MOL0     C31107   5.266   4.367   8.370  0.2103 -0.4426 -0.0670
  226MOL0     C31108   5.195   4.316   8.259  0.6559 -0.0630 -0.9410
  226MOL0     O31109   5.062   4.321   8.242 -0.1838 -0.9900  0.2906
  226MOL0     C31110   4.989   4.362   8.357  0.4897 -0.5282  0.4647
  226MOL0     C31111   4.839   4.365   8.319 -0.0642  0.6035  0.1165
  226MOL0     C31112   4.748   4.397   8.439  0.9652 -0.2146  0.0519
  226MOL0     C31113   4.612   4.332   8.433 -0.5828 -0.0098 -0.1214
  226MOL0     C31114   4.539   4.321   8.296  0.2368 -0.7898 -0.1733
  226MOL0     C31115   4.466   4.315   8.198 -0.4159 -0.6143  0.0487
  226MOL0     C31116   5.279   4.286   8.147  0.1734  0.0647  0.0628
  226MOL0     C31117   5.418   4.282   8.144  0.1128 -0.6687 -0.6626
  226MOL0     C31118   5.486   4.237   8.016 -0.0707 -0.3911  1.0234
  226MOL0     H31119   5.819   4.527   8.330  1.1836  1.5145 -0.5973
  226MOL0     H31120   6.029   4.600   8.424  1.1351 -0.9235 -1.8114
  226MOL0     H31121   6.103   4.489   8.780 -1.9711  2.8953  0.6421
  226MOL0     H31122   6.130   4.639   8.697  0.7380 -0.1643 -1.4578
  226MOL0     H31123   6.296   4.630   8.850 -0.2392 -1.0170  1.1862
  226MOL0     H31124   6.332   4.464   8.812 -0.2222 -1.0143 -2.2742
  226MOL0     H31125   6.447   4.532   8.613  0.0104  0.0066 -0.1084
  226MOL0     H31126   6.363   4.694   8.616 -0.7079 -1.5211 -0.0883
  226MOL0     H31127   6.478   4.751   8.834  1.8193 -0.3043  2.2683
  226MOL0     H31128   6.563   4.594   8.832  1.2837 -0.7146 -1.9926
  226MOL0     H31129   6.600   4.847   8.665 -0.0329  0.4184  1.5119
  226MOL0     H31130   6.657   4.692   8.610 -0.1905 -0.7499  0.3702
  226MOL0     H31131   6.780   4.673   8.833 -1.7205 -2.1918 -1.2890
  226MOL0     H31132   6.840   4.783   8.695  1.6625  3.1513  2.1417
  226MOL0     H31133   6.676   4.913   8.907 -0.7244  1.8380 -2.5609
  226MOL0     H31134   6.806   4.976   8.802  2.5504  0.6181  1.4334
  226MOL0     H31135   6.827   4.869   9.069 -0.5292 -0.7955 -0.2108
  226MOL0     H31136   6.938   4.794   8.962 -1.0217 -0.8549  0.1978
  226MOL0     H31137   6.817   5.153   9.067  0.1123 -3.2069  0.5856
  226MOL0     H31138   6.962   5.397   9.097 -0.4355  0.9922 -2.8799
  226MOL0     H31139   7.092   5.414   8.970  2.7204 -4.1452 -1.2740
  226MOL0     H31140   7.126   5.297   9.244  1.6172  0.8854  1.4468
  226MOL0     H31141   7.256   5.323   9.126 -1.3188 -1.5749 -1.8121
  226MOL0     H31142   7.226   5.576   9.128 -1.3665  1.6796  0.1684
  226MOL0     H31143   7.101   5.543   9.250  0.8467  1.9897  1.6182
  226MOL0     H31144   7.319   5.595   9.361  0.2518 -0.3104 -0.5900
  226MOL0     H31145   7.266   5.438   9.407 -2.4028  0.6506 -0.4623
  226MOL0     H31146   7.421   5.255   9.473 -1.4115  2.6303  2.6640
  226MOL0     H31147   7.503   5.109   9.624 -0.2584  0.0122 -0.9473
  226MOL0     H31148   7.565   5.208   9.752  0.0775 -0.2721 -0.9585
  226MOL0     H31149   7.677   5.112   9.650  0.2612 -1.0069  1.2860
  226MOL0     H31150   8.174   5.215   9.505  0.4383  0.2018 -0.0024
  226MOL0     H31151   8.345   5.124   9.669  3.2375  2.8065  0.7493
  226MOL0     H31152   8.440   5.365   9.994 -0.4244 -0.1668 -2.6904
  226MOL0     H31153   8.355   5.247  10.089  0.6358  1.2152  0.8842
  226MOL0     H31154   8.569   5.090  10.061  3.4329 -1.6996 -5.5040
  226MOL0     H31155   8.632   5.198   9.949 -2.7997  1.0736 -2.3843
  226MOL0     H31156   8.601   5.259  10.237 -1.1472 -0.6491 -0.0006
  226MOL0     H31157   8.650   5.387  10.124  1.6270  0.0414  2.4467
  226MOL0     H31158   8.855   5.257  10.060  1.1797 -5.4205 -0.9073
  226MOL0     H31159   8.803   5.124  10.168 -0.4191  0.0086  2.3802
  226MOL0     H31160   8.979   5.313  10.240  0.9789  1.3595  0.9408
  226MOL0     H31161   8.835   5.415  10.267 -2.8164  0.1579 -1.3796
  226MOL0     H31162   8.893   5.158  10.415 -1.0512 -0.3722 -0.0345
  226MOL0     H31163   8.730   5.242  10.407 -0.6340  0.9769 -0.6945
  226MOL0     H31164   8.845   5.289  10.611  0.6752 -1.0033  1.5237
  226MOL0     H31165   8.846   5.432  10.519  0.8401 -1.1566 -1.5183
  226MOL0     H31166   9.065   5.410  10.611  0.3971 -2.7649  2.3208
  226MOL0     H31167   9.080   5.386  10.434 -0.0464 -0.1036 -0.3935
  226MOL0     H31168   8.211   5.399   9.954  2.3652 -1.9966 -0.2610
  226MOL0     H31169   8.025   5.480   9.813 -0.9970 -0.4647 -1.6945
  226MOL0     H31170   7.835   5.515   9.430 -0.5500  0.7618 -0.2644
  226MOL0     H31171   7.653   5.573   9.287  0.9849 -0.9219 -1.2061
  226MOL0     H31172   6.083   4.226   8.625  1.5726  2.5022 -0.1470
  226MOL0     H31173   5.855   4.150   8.548 -1.1574  0.5023  0.1570
  226MOL0     H31174   5.451   4.379   8.470 -2.0036 -1.0573  0.9647
  226MOL0     H31175   5.211   4.394   8.459  1.9685 -2.8594  1.8763
  226MOL0     H31176   5.003   4.279   8.427 -0.9587 -2.8660 -1.8296
  226MOL0     H31177   5.018   4.456   8.405 -0.0124 -1.6445  3.1815
  226MOL0     H31178   4.811   4.280   8.257  0.4698 -0.2351  1.0043
  226MOL0     H31179   4.830   4.443   8.243  0.4504 -0.4165 -1.0149
  226MOL0     H31180   4.790   4.362   8.534 -3.7502 -1.7002  1.8902
  226MOL0     H31181   4.733   4.506   8.441 -0.8644 -0.4222 -0.6086
  226MOL0     H31182   4.550   4.381   8.508 -0.4276 -0.6104  0.4038
  226MOL0     H31183   4.624   4.229   8.469 -0.5915  0.6627  1.8909
  226MOL0     H31184   4.405   4.309   8.110 -1.4469  1.6255  0.5302
  226MOL0     H31185   5.240   4.243   8.055  1.2622 -0.1539 -0.3082
  226MOL0     H31186   5.417   4.186   7.949  0.5059 -0.6162  0.6014
  226MOL0     H31187   5.514   4.324   7.956 -2.0776 -0.3021  0.1401
  226MOL0     H31188   5.578   4.179   8.029 -0.0760 -0.3556  1.2303
  227MOL0     O31189   5.226   7.673  10.539  0.1320 -0.7754  0.2508
  227MOL0     C31190   5.192   7.580  10.611 -0.0288  0.0973  0.1774
  227MOL0     O31191   5.060   7.539  10.645 -0.1661  0.2530 -0.0720
  227MOL0     C31192   4.943   7.592  10.587 -0.3102 -0.4035 -0.0864
  227MOL0     C31193   4.922   7.729  10.587 -0.8907  0.2301 -0.4122
  227MOL0     C31194   4.817   7.781  10.516 -0.3770 -0.4872  0.1066
  227MOL0     C31195   4.738   7.695  10.442 -0.0090  0.0771  0.5719
  227MOL0     O31196   4.647   7.754  10.363  0.2401  0.1558 -0.4252
  227MOL0     C31197   4.665   7.728  10.221 -0.3971  0.9609 -1.5904
  227MOL0     C31198   4.586   7.826  10.145  0.1533 -0.6602  0.8608
  227MOL0     C31199   4.636   7.974  10.149  0.4011  0.5314 -0.3617
  227MOL0     C31200   4.785   7.992  10.159  0.2062 -0.5603 -0.3031
  227MOL0     C31201   4.836   8.136  10.162  0.6256  0.1829  0.1652
  227MOL0     C31202   4.960   8.163  10.255  0.1217  0.1873 -0.1492
  227MOL0     C31203   4.923   8.173  10.398 -0.5339  0.5737 -0.0765
  227MOL0     C31204   5.033   8.120  10.501  0.5719  0.3792  0.1653
  227MOL0     N31205   5.161   8.188  10.486  0.2258  0.2734  0.3836
  227MOL0     C31206   5.283   8.139  10.514  0.8582 -0.1854  0.2555
  227MOL0     C31207   5.368   8.241  10.506  1.2981 -0.5151  0.1963
  227MOL0     C31208   5.513   8.242  10.521 -0.0834  0.1471  0.1072
  227MOL0     C31209   5.569   8.339  10.623 -0.0506 -0.4017  0.1243
  227MOL0     C31210   5.718   8.331  10.630 -0.4672  0.2462  0.7660
  227MOL0     C31211   5.784   8.381  10.503 -0.9376  0.0551  0.4658
  227MOL0     O31212   5.930   8.378  10.503  0.7837  1.1991 -0.3005
  227MOL0     C31213   6.011   8.428  10.605 -0.2575  0.6565 -0.2268
  227MOL0     C31214   5.969   8.540  10.680  0.2706 -0.3158 -0.6199
  227MOL0     C31215   6.055   8.604  10.767  0.8796 -1.1803  0.1181
  227MOL0     C31216   5.988   8.700  10.858 -0.4700  0.1131 -0.0169
  227MOL0     C31217   6.185   8.563  10.779 -0.3555 -0.2441 -0.0364
  227MOL0     C31218   6.277   8.637  10.873 -0.1600  0.2481 -0.4099
  227MOL0     O31219   6.286   8.767  10.863 -0.1901  0.5709  0.1372
  227MOL0     C31220   6.357   8.844  10.946 -0.8963  0.5017 -0.8157
  227MOL0     C31221   6.350   8.826  11.087 -0.9426  0.4303 -1.0825
  227MOL0     C31222   6.431   8.910  11.169  0.1503  0.1781 -0.2515
  227MOL0     C31223   6.521   9.001  11.119  0.6488 -0.1196 -0.3921
  227MOL0     O31224   6.593   9.097  11.189  0.4501  0.5244 -0.1047
  227MOL0     C31225   6.557   9.120  11.335  0.4513  0.5908  0.3003
  227MOL0     C31226   6.617   9.250  11.394  0.1731  0.2019 -0.0175
  227MOL0     C31227   6.768   9.246  11.433 -0.3014  0.1426 -0.3552
  227MOL0     C31228   6.833   9.127  11.503  0.6872  0.2210 -0.5265
  227MOL0     C31229   6.968   9.162  11.568  0.4849 -0.6762 -0.0825
  227MOL0     C31230   7.097   9.140  11.489  0.1882 -0.8482  1.4567
  227MOL0     C31231   7.114   8.997  11.426  0.2901 -0.2901 -0.3379
  227MOL0     C31232   7.240   8.986  11.355  0.2438  0.0046  0.0643
  227MOL0    Cl31233   7.273   8.817  11.321  0.2389  0.1166  0.2453
  227MOL0     C31234   6.520   9.021  10.982  0.4549  0.1830  0.6402
  227MOL0     C31235   6.436   8.946  10.901 -0.3911  0.0040 -0.0828
  227MOL0     O31236   6.338   8.561  10.958  0.4721 -0.0929 -0.1954
  227MOL0     C31237   6.233   8.459  10.694 -0.9700 -0.1486 -0.1179
  227MOL0     C31238   6.141   8.393  10.605 -0.5307  0.3491 -0.0305
  227MOL0     N31239   5.299   8.351  10.464 -0.2758  0.2738 -0.9298
  227MOL0     N31240   5.174   8.316  10.450  0.3163  0.0136 -0.4891
  227MOL0     C31241   4.737   7.561  10.467  0.0805 -0.2945  0.6202
  227MOL0     C31242   4.848   7.508  10.539 -0.7660 -0.9588 -0.1547
  227MOL0     C31243   5.299   7.495  10.663 -0.5178 -0.0607  0.0408
  227MOL0     C31244   5.308   7.358  10.617  0.5005  0.1031  0.0460
  227MOL0     C31245   5.406   7.272  10.661  0.1613  0.1784 -0.4159
  227MOL0     C31246   5.498   7.318  10.751  0.0331  0.4688  0.3701
  227MOL0     O31247   5.601   7.230  10.796 -0.9091 -0.5544 -0.6176
  227MOL0     C31248   5.733   7.292  10.820  0.0248  0.1928 -1.0549
  227MOL0     C31249   5.854   7.194  10.833  0.0092  0.4437  0.3268
  227MOL0     C31250   5.848   7.067  10.742  0.1673 -0.1689  0.8942
  227MOL0     C31251   5.960   6.970  10.768 -0.7205  0.4083  0.1663
  227MOL0     C31252   6.081   7.034  10.723 -0.0747  0.2001  0.2128
  227MOL0     C31253   6.180   7.094  10.697 -0.5438 -0.2424 -0.0261
  227MOL0     C31254   5.494   7.450  10.791 -0.8703 -0.2809 -0.2999
  227MOL0     C31255   5.396   7.541  10.748  0.3051 -0.0379 -0.6194
  227MOL0     C31256   5.417   7.682  10.793 -0.1853  0.3996 -0.3389
  227MOL0     H31257   5.003   7.787  10.630 -1.2557  0.5895 -0.2041
  227MOL0     H31258   4.797   7.888  10.513  2.5184  0.2265  1.8387
  227MOL0     H31259   4.617   7.633  10.197  2.8038 -0.5024 -2.7479
  227MOL0     H31260   4.767   7.723  10.182 -1.3606 -0.4252 -4.1756
  227MOL0     H31261   4.584   7.790  10.041 -1.3472  2.5630 -0.3718
  227MOL0     H31262   4.482   7.828  10.177 -0.5214 -0.0660 -1.1626
  227MOL0     H31263   4.587   8.037  10.074  3.4308  3.0903 -0.4410
  227MOL0     H31264   4.600   8.009  10.245  2.0140  1.7444 -0.1494
  227MOL0     H31265   4.814   7.957  10.259  1.7873  0.4152 -0.3918
  227MOL0     H31266   4.839   7.933  10.085 -0.3411 -1.6334  0.1314
  227MOL0     H31267   4.755   8.205  10.187  0.1533 -0.6564  1.0282
  227MOL0     H31268   4.849   8.153  10.055 -5.3908  2.0381 -0.6204
  227MOL0     H31269   5.023   8.075  10.242 -0.1284 -0.1514  0.8522
  227MOL0     H31270   5.010   8.254  10.220  0.2467 -0.1459 -0.8447
  227MOL0     H31271   4.831   8.117  10.416 -0.2006  0.1665  0.3721
  227MOL0     H31272   4.927   8.282  10.415  2.6757  0.3055  1.7952
  227MOL0     H31273   5.000   8.136  10.604  0.9425  2.0400  0.0642
  227MOL0     H31274   5.054   8.014  10.486  0.1803  0.0272  1.8781
  227MOL0     H31275   5.300   8.032  10.526 -2.8843 -0.9833 -0.3568
  227MOL0     H31276   5.564   8.246  10.425  1.2472  1.9748  0.8190
  227MOL0     H31277   5.548   8.145  10.557  0.6746 -0.6239 -2.5040
  227MOL0     H31278   5.535   8.440  10.599  1.8320  0.9028  2.4650
  227MOL0     H31279   5.542   8.306  10.723  3.2241 -0.4052  1.1403
  227MOL0     H31280   5.743   8.396  10.715 -1.0797  0.6398  0.6462
  227MOL0     H31281   5.752   8.229  10.651  2.0559  0.5066 -1.5151
  227MOL0     H31282   5.749   8.325  10.415  1.1584 -0.5927 -0.0073
  227MOL0     H31283   5.756   8.485  10.484  0.2697 -0.0926 -2.7675
  227MOL0     H31284   5.869   8.575  10.658  1.5705  3.3003 -1.5312
  227MOL0     H31285   5.995   8.658  10.959  0.2160  0.7852  0.2266
  227MOL0     H31286   5.884   8.713  10.827 -0.8281 -2.0646  0.1032
  227MOL0     H31287   6.038   8.797  10.856 -0.3017  0.0225 -0.3115
  227MOL0     H31288   6.282   8.757  11.135 -0.3612  0.2820 -0.4512
  227MOL0     H31289   6.425   8.925  11.276  1.3654  0.6162 -0.2350
  227MOL0     H31290   6.449   9.131  11.349  0.7987  1.8461  2.4256
  227MOL0     H31291   6.600   9.043  11.399  1.0529  2.3512  2.1264
  227MOL0     H31292   6.596   9.342  11.337 -1.8219  1.1588  2.1479
  227MOL0     H31293   6.561   9.271  11.485 -1.7837 -0.0529 -1.1191
  227MOL0     H31294   6.784   9.326  11.506  4.1507 -1.7110  1.0344
  227MOL0     H31295   6.832   9.282  11.352 -0.5413  2.0519  0.2403
  227MOL0     H31296   6.843   9.056  11.420  1.5504  1.5026 -1.5738
  227MOL0     H31297   6.771   9.072  11.573 -1.5625 -1.3054 -3.5228
  227MOL0     H31298   6.961   9.262  11.612 -1.7070 -1.0213  0.4843
  227MOL0     H31299   6.971   9.093  11.654 -4.3583  0.2819  1.1591
  227MOL0     H31300   7.184   9.167  11.549  0.6940 -0.3706  0.5446
  227MOL0     H31301   7.090   9.213  11.407  0.7333 -3.1751 -0.8086
  227MOL0     H31302   7.025   8.978  11.365  0.4240  1.9914 -1.3580
  227MOL0     H31303   7.114   8.924  11.507 -0.2484 -0.1730 -0.2246
  227MOL0     H31304   7.319   9.026  11.418  1.8454 -0.0279 -1.8460
  227MOL0     H31305   7.231   9.047  11.264 -1.7466  1.5163  1.1994
  227MOL0     H31306   6.574   9.106  10.942  2.0749 -1.1042 -0.0266
  227MOL0     H31307   6.446   8.963  10.794  2.1692 -1.0662 -0.0851
  227MOL0     H31308   6.337   8.430  10.677 -0.9907  0.3106 -1.1780
  227MOL0     H31309   6.177   8.312  10.543 -0.0624 -0.1529  0.8777
  227MOL0     H31310   4.654   7.498  10.439  1.4773 -1.8445 -0.2496
  227MOL0     H31311   4.857   7.401  10.548 -2.7263 -1.3822 -2.2963
  227MOL0     H31312   5.240   7.323  10.540 -1.6983  2.6505  0.6737
  227MOL0     H31313   5.411   7.168  10.630 -2.6852 -0.6055  1.2946
  227MOL0     H31314   5.763   7.370  10.749 -1.0784  0.1934 -1.5346
  227MOL0     H31315   5.716   7.339  10.917 -1.5807 -2.2297 -0.0934
  227MOL0     H31316   5.863   7.157  10.936  0.1917  0.4842  0.3250
  227MOL0     H31317   5.949   7.242  10.810 -0.5166  0.8577 -1.0668
  227MOL0     H31318   5.749   7.019  10.744 -0.5152  0.8700 -2.3780
  227MOL0     H31319   5.863   7.099  10.639  1.1171 -2.1522  0.3763
  227MOL0     H31320   5.933   6.880  10.712 -0.6697 -0.2610  1.1885
  227MOL0     H31321   5.972   6.938  10.872  2.1983 -0.2884 -0.2798
  227MOL0     H31322   6.264   7.157  10.678 -1.1916  1.0345  1.1764
  227MOL0     H31323   5.561   7.483  10.870 -2.8170  1.2306  0.8099
  227MOL0     H31324   5.481   7.735  10.723  0.5008 -0.3476 -0.2882
  227MOL0     H31325   5.321   7.736  10.794 -1.0171 -1.0186 -0.1814
  227MOL0     H31326   5.468   7.676  10.890 -2.4811 -4.5665  0.8758
  228MOL0     O31327   8.988   3.943   4.972  0.1842  0.5277 -0.1807
  228MOL0     C31328   8.971   4.049   5.045  0.5662 -0.3457  0.6492
  228MOL0     O31329   8.859   4.132   5.042 -0.0348 -0.3252 -0.2836
  228MOL0     C31330   8.747   4.116   4.963  0.6933  1.1261  0.3515
  228MOL0     C31331   8.697   4.001   4.906  0.2214 -0.0123  0.5399
  228MOL0     C31332   8.586   3.997   4.834  0.3315 -0.0708  1.1272
  228MOL0     C31333   8.503   4.103   4.826  0.3889  0.3438  0.5420
  228MOL0     O31334   8.375   4.100   4.776  0.4525  0.1918 -0.5936
  228MOL0     C31335   8.333   3.991   4.683 -0.3416 -0.6153 -0.2470
  228MOL0     C31336   8.205   4.042   4.616  0.4194  0.7811  0.2876
  228MOL0     C31337   8.168   3.950   4.498  0.4964 -0.0536 -0.5013
  228MOL0     C31338   8.032   3.987   4.444  0.5403  0.4510 -0.7231
  228MOL0     C31339   7.982   3.879   4.355 -0.2658 -0.4349  0.4370
  228MOL0     C31340   7.837   3.885   4.316 -0.6693  0.7019  0.0187
  228MOL0     C31341   7.793   4.008   4.242 -0.2583  0.1802  0.4042
  228MOL0     C31342   7.641   3.985   4.209  0.0242 -0.5108 -0.6656
  228MOL0     N31343   7.592   4.082   4.119 -0.3202 -0.4735 -0.1181
  228MOL0     C31344   7.493   4.179   4.149 -0.1756  0.4204 -0.3866
  228MOL0     C31345   7.468   4.245   4.032  0.9181 -0.2400 -0.5162
  228MOL0     C31346   7.362   4.347   3.991  0.1857  0.4655 -0.2362
  228MOL0     C31347   7.390   4.500   4.007 -1.6772  0.1912 -0.3058
  228MOL0     C31348   7.531   4.524   3.960  0.7316 -0.5279 -0.2343
  228MOL0     C31349   7.568   4.675   3.976 -0.8135  0.0310 -0.0714
  228MOL0     O31350   7.550   4.711   4.114 -0.3481  0.2693 -0.6657
  228MOL0     C31351   7.650   4.693   4.203 -0.1882  0.4398  0.4094
  228MOL0     C31352   7.631   4.775   4.311 -0.5826 -0.3653 -0.0219
  228MOL0     C31353   7.717   4.767   4.425 -0.1952 -0.3995  0.1520
  228MOL0     C31354   7.694   4.870   4.534 -0.0513 -0.1326 -0.2107
  228MOL0     C31355   7.833   4.685   4.414 -0.3530 -0.7924 -0.0992
  228MOL0     C31356   7.942   4.671   4.520 -0.0707  0.0983 -0.5526
  228MOL0     O31357   8.064   4.606   4.486  0.4897  0.2477  0.1065
  228MOL0     C31358   8.163   4.597   4.575  0.3393 -0.8947  0.1767
  228MOL0     C31359   8.241   4.706   4.605 -0.1422 -0.3312  0.4583
  228MOL0     C31360   8.354   4.694   4.687  0.0276 -0.3826  0.7413
  228MOL0     C31361   8.384   4.572   4.740 -0.1160  0.7096 -1.1175
  228MOL0     O31362   8.495   4.562   4.832  0.3975 -0.1624  0.7642
  228MOL0     C31363   8.616   4.627   4.794  0.6509  0.5770  0.2139
  228MOL0     C31364   8.707   4.647   4.910 -0.2667 -0.6444 -0.6567
  228MOL0     C31365   8.857   4.665   4.882  0.1637 -0.1211  0.3378
  228MOL0     C31366   8.931   4.742   4.991  0.0660  0.1190  0.1404
  228MOL0     C31367   9.069   4.768   4.963 -0.6167 -0.5733 -0.0875
  228MOL0     C31368   9.138   4.793   5.088  0.6837  0.6201 -0.9796
  228MOL0     C31369   9.284   4.830   5.077  0.1050  0.0701  0.4423
  228MOL0     C31370   9.321   4.925   5.180  0.1313  0.4617 -0.6395
  228MOL0    Cl31371   9.267   5.078   5.117  0.1076 -0.0479 -0.1548
  228MOL0     C31372   8.309   4.459   4.707  0.9401 -1.3261 -0.6729
  228MOL0     C31373   8.196   4.473   4.630 -0.0527 -1.2305 -0.4699
  228MOL0     O31374   7.908   4.708   4.632  0.0994  0.0362 -0.0135
  228MOL0     C31375   7.851   4.613   4.294  0.0298 -0.1545 -0.0342
  228MOL0     C31376   7.761   4.612   4.194 -0.5350  0.7497  0.1035
  228MOL0     N31377   7.548   4.188   3.942 -0.0213 -0.8141  0.7216
  228MOL0     N31378   7.618   4.098   3.990  0.3410  0.3218 -0.1705
  228MOL0     C31379   8.538   4.217   4.889 -0.1884 -0.2194 -0.1770
  228MOL0     C31380   8.660   4.225   4.945 -0.7625 -0.4172 -0.4264
  228MOL0     C31381   9.101   4.090   5.118  0.1040  0.6701  0.5351
  228MOL0     C31382   9.210   3.992   5.121 -0.4884 -0.3580 -0.4261
  228MOL0     C31383   9.331   4.035   5.170  0.3594  0.3643 -0.2850
  228MOL0     C31384   9.349   4.167   5.216  0.5565  0.4735  0.4452
  228MOL0     O31385   9.469   4.198   5.257 -0.1721 -0.3608  0.3406
  228MOL0     C31386   9.494   4.322   5.329 -0.3440 -0.4350  0.7799
  228MOL0     C31387   9.643   4.324   5.358 -0.4460 -0.4366  0.0929
  228MOL0     C31388   9.680   4.446   5.450  0.4000 -0.2760  0.4060
  228MOL0     C31389   9.672   4.586   5.389  0.2995 -0.1588 -0.4795
  228MOL0     C31390   9.547   4.654   5.428  0.0415  0.6275  0.0169
  228MOL0     C31391   9.433   4.700   5.431 -0.6091  0.5328 -0.1421
  228MOL0     C31392   9.247   4.255   5.217 -0.3577 -0.5306 -0.3038
  228MOL0     C31393   9.121   4.220   5.167 -0.5657 -0.2645 -0.1601
  228MOL0     C31394   9.018   4.327   5.165 -0.0735  0.0642  0.0495
  228MOL0     H31395   8.750   3.907   4.908  0.6322  0.2234  1.5120
  228MOL0     H31396   8.546   3.911   4.781 -4.1642  0.9245  2.4375
  228MOL0     H31397   8.305   3.905   4.745  0.3112 -0.6170  0.0509
  228MOL0     H31398   8.411   3.963   4.612  2.0400  0.3234  1.8288
  228MOL0     H31399   8.123   4.038   4.688  0.7108 -1.5673  0.5715
  228MOL0     H31400   8.224   4.146   4.587  0.4509  1.4981  2.6316
  228MOL0     H31401   8.240   3.957   4.416  0.6440  1.3725 -0.2660
  228MOL0     H31402   8.169   3.844   4.526 -1.3613 -0.7022 -2.6256
  228MOL0     H31403   7.963   3.995   4.528  1.7284  1.8036  0.1700
  228MOL0     H31404   8.043   4.083   4.391  0.8200  0.8088 -0.0277
  228MOL0     H31405   8.011   3.783   4.398  0.9605  0.9267  2.8790
  228MOL0     H31406   8.042   3.893   4.265  0.0184 -0.2347  0.6516
  228MOL0     H31407   7.830   3.787   4.268 -1.1144  0.2125  1.0642
  228MOL0     H31408   7.772   3.886   4.403  1.4802  1.0552  1.7227
  228MOL0     H31409   7.853   4.037   4.155 -1.9125  0.4108 -0.6924
  228MOL0     H31410   7.805   4.095   4.307  1.8466  1.1160 -1.1084
  228MOL0     H31411   7.636   3.891   4.153 -0.2294  0.6355 -2.6553
  228MOL0     H31412   7.579   3.982   4.299  0.0657  3.7237 -0.3191
  228MOL0     H31413   7.437   4.194   4.240 -2.1969  0.4929 -1.5814
  228MOL0     H31414   7.263   4.327   4.034 -0.7066  1.7511 -1.5693
  228MOL0     H31415   7.357   4.333   3.882  3.0761  1.4666 -0.5825
  228MOL0     H31416   7.314   4.556   3.952 -0.6068  2.0381  0.0172
  228MOL0     H31417   7.385   4.535   4.111  4.4042  0.8760  0.1523
  228MOL0     H31418   7.605   4.449   3.991  1.7891  0.5089 -0.1715
  228MOL0     H31419   7.531   4.507   3.852  0.7787  0.6486 -0.4362
  228MOL0     H31420   7.672   4.694   3.948 -0.9722  0.4007 -0.4332
  228MOL0     H31421   7.497   4.721   3.907  0.0745  0.1410 -0.9444
  228MOL0     H31422   7.547   4.845   4.310  1.0629  1.7141 -0.1369
  228MOL0     H31423   7.586   4.891   4.531 -0.5755 -2.2654  1.2885
  228MOL0     H31424   7.759   4.957   4.519 -0.6049 -0.0103 -2.2008
  228MOL0     H31425   7.714   4.834   4.636  0.0328  1.0987  0.2321
  228MOL0     H31426   8.200   4.798   4.565 -2.9496 -0.9757  1.6170
  228MOL0     H31427   8.397   4.791   4.710 -2.0383  1.3656 -2.1243
  228MOL0     H31428   8.668   4.558   4.727 -0.0361  0.1358  0.1287
  228MOL0     H31429   8.591   4.721   4.744 -0.7278 -0.8273 -1.9118
  228MOL0     H31430   8.685   4.735   4.971  3.7352 -0.7598  1.3185
  228MOL0     H31431   8.701   4.554   4.967 -1.1310 -0.7376 -0.8938
  228MOL0     H31432   8.862   4.735   4.798 -1.6464 -1.1400 -0.6931
  228MOL0     H31433   8.903   4.571   4.849 -0.3987 -0.8115  1.4841
  228MOL0     H31434   8.922   4.670   5.073 -4.3237 -0.8033 -0.8769
  228MOL0     H31435   8.885   4.837   5.021  0.6327  0.1666  0.8739
  228MOL0     H31436   9.113   4.691   4.899 -1.3932  0.1164 -1.4940
  228MOL0     H31437   9.068   4.858   4.900 -1.8085 -0.6776 -0.2389
  228MOL0     H31438   9.150   4.701   5.147  0.9231  1.2463 -0.0386
  228MOL0     H31439   9.094   4.869   5.153  2.0790  0.7456 -0.1317
  228MOL0     H31440   9.299   4.860   4.974 -1.2012 -0.7505 -0.0139
  228MOL0     H31441   9.342   4.738   5.091 -0.4344 -0.1811  1.1623
  228MOL0     H31442   9.429   4.937   5.185 -0.1974  6.0651 -0.5250
  228MOL0     H31443   9.274   4.900   5.276  1.1311  0.7873 -0.0537
  228MOL0     H31444   8.339   4.362   4.744 -1.6262 -1.2214  1.9831
  228MOL0     H31445   8.134   4.387   4.610  1.5975 -2.5475 -0.0890
  228MOL0     H31446   7.940   4.552   4.282 -0.8472 -1.7748  1.2730
  228MOL0     H31447   7.777   4.558   4.101 -0.4264 -2.2111  1.7103
  228MOL0     H31448   8.459   4.291   4.899  1.6048  1.5779  1.5984
  228MOL0     H31449   8.691   4.323   4.981  3.1948 -1.5563 -0.3043
  228MOL0     H31450   9.186   3.887   5.103 -3.5484  0.3468 -1.1358
  228MOL0     H31451   9.412   3.964   5.180 -0.3732 -0.6958 -1.6946
  228MOL0     H31452   9.466   4.418   5.284  0.3126  0.1048  1.4936
  228MOL0     H31453   9.446   4.320   5.427  1.8845 -1.9428  1.9351
  228MOL0     H31454   9.705   4.325   5.268  0.3492  0.3033  0.6432
  228MOL0     H31455   9.670   4.233   5.412  0.8665 -0.3016 -0.3068
  228MOL0     H31456   9.624   4.434   5.543  0.9732 -0.5173  0.7252
  228MOL0     H31457   9.788   4.435   5.468  0.6857 -1.0144 -1.5655
  228MOL0     H31458   9.678   4.580   5.280 -4.3316  0.0001 -0.9315
  228MOL0     H31459   9.758   4.641   5.429 -0.3241 -0.2722  1.1068
  228MOL0     H31460   9.334   4.739   5.426 -0.2939  1.7684  1.9296
  228MOL0     H31461   9.253   4.351   5.267 -1.5965 -0.4623 -0.2430
  228MOL0     H31462   9.058   4.418   5.212 -0.5739 -0.1074  0.8339
  228MOL0     H31463   8.971   4.350   5.069 -0.6187  2.3952  0.8237
  228MOL0     H31464   8.949   4.288   5.240  1.5826  0.6312  1.9631
  229MOL0     O31465   7.501  10.867   1.616 -0.1276 -0.5599 -0.2478
  229MOL0     C31466   7.542  10.754   1.606  0.6063  0.7034 -0.0588
  229MOL0     O31467   7.551  10.685   1.486 -0.2505  0.0756  0.0116
  229MOL0     C31468   7.530  10.756   1.369 -1.7179  0.0792  0.1468
  229MOL0     C31469   7.429  10.746   1.275 -0.2526 -0.5932 -0.3309
  229MOL0     C31470   7.417  10.825   1.162  0.1402  0.8962  0.2184
  229MOL0     C31471   7.523  10.907   1.130 -0.1411 -0.5312 -0.0316
  229MOL0     O31472   7.503  10.979   1.017 -0.3591 -0.5549 -0.1765
  229MOL0     C31473   7.608  11.073   0.977  0.6245 -0.4655 -0.0487
  229MOL0     C31474   7.719  10.992   0.922 -0.4428  0.1058 -0.2127
  229MOL0     C31475   7.824  11.094   0.865 -0.3450 -0.4350  0.4856
  229MOL0     C31476   7.882  11.173   0.969 -0.4102 -1.5179 -0.3606
  229MOL0     C31477   8.007  11.252   0.919 -0.0465  0.3459  0.2224
  229MOL0     C31478   8.137  11.173   0.902  0.1362 -0.2914 -0.6480
  229MOL0     C31479   8.268  11.256   0.875  0.1300  0.1493 -0.6006
  229MOL0     C31480   8.293  11.300   0.731 -0.1768 -0.6730  0.6892
  229MOL0     N31481   8.420  11.379   0.747  0.0426 -0.3215  0.0427
  229MOL0     C31482   8.425  11.507   0.802  1.2081  0.3470  0.6487
  229MOL0     C31483   8.550  11.550   0.769 -0.4285 -0.4277 -0.1694
  229MOL0     C31484   8.607  11.699   0.783  0.3130  0.8919 -0.3240
  229MOL0     C31485   8.685  11.719   0.915  0.1796  0.1182  0.2435
  229MOL0     C31486   8.806  11.629   0.942  0.5866 -0.1449 -0.1841
  229MOL0     C31487   8.928  11.629   0.853 -0.3875 -0.6159  0.2305
  229MOL0     O31488   8.980  11.760   0.840 -0.4890  0.6082 -0.8507
  229MOL0     C31489   9.117  11.772   0.836 -0.2909  0.3626 -0.2920
  229MOL0     C31490   9.209  11.666   0.816 -0.8815  0.1258 -0.0176
  229MOL0     C31491   9.346  11.678   0.839 -0.8986 -1.0495 -0.2771
  229MOL0     C31492   9.414  11.550   0.843 -0.4664  0.2444  0.1478
  229MOL0     C31493   9.402  11.813   0.868  0.3147  0.8388  0.7048
  229MOL0     C31494   9.541  11.841   0.879 -0.1284 -0.3299 -0.1982
  229MOL0     O31495   9.629  11.744   0.823 -0.1409  0.4885  0.0487
  229MOL0     C31496   9.759  11.775   0.788 -0.5953 -0.5248  0.1217
  229MOL0     C31497   9.849  11.852   0.865  0.3257  0.3539  0.5867
  229MOL0     C31498   9.979  11.879   0.822  0.5734  0.3482 -0.1605
  229MOL0     C31499  10.036  11.800   0.718  0.1576  0.5636  0.5503
  229MOL0     O31500  10.164  11.821   0.677  0.0665 -0.9208  0.0924
  229MOL0     C31501  10.228  11.723   0.589 -0.2533 -0.6445  0.7094
  229MOL0     C31502  10.375  11.766   0.575  0.4723  0.1403  0.0823
  229MOL0     C31503  10.450  11.755   0.716 -0.6534  0.2996 -0.1208
  229MOL0     C31504  10.590  11.680   0.701  0.9620  0.3350  0.3823
  229MOL0     C31505  10.670  11.707   0.826  0.4549 -0.7540 -0.1470
  229MOL0     C31506  10.816  11.658   0.809 -0.6375  0.4414 -0.9083
  229MOL0     C31507  10.906  11.711   0.918  0.5452  0.0293 -0.2570
  229MOL0     C31508  11.048  11.654   0.923  0.1235  0.3123  0.1444
  229MOL0    Cl31509  11.117  11.681   1.088  0.0022  0.4232 -0.3491
  229MOL0     C31510   9.948  11.715   0.647  0.5644  0.1131 -0.1713
  229MOL0     C31511   9.816  11.709   0.682 -0.2415 -0.3357 -0.0950
  229MOL0     O31512   9.575  11.951   0.919 -0.1483 -0.4512  0.8414
  229MOL0     C31513   9.308  11.908   0.901  0.3278  0.0679 -0.0959
  229MOL0     C31514   9.170  11.894   0.877  0.7265 -0.0875  0.5467
  229MOL0     N31515   8.612  11.457   0.695 -0.1004  0.1713 -0.4891
  229MOL0     N31516   8.535  11.355   0.677 -0.2067  0.6559  0.4029
  229MOL0     C31517   7.628  10.929   1.219 -0.2614  0.3461  0.2898
  229MOL0     C31518   7.638  10.844   1.332  0.0173  0.0118  0.5918
  229MOL0     C31519   7.571  10.683   1.734  0.3139  0.7803  0.0414
  229MOL0     C31520   7.569  10.756   1.851 -0.2056  0.3723 -0.0519
  229MOL0     C31521   7.604  10.698   1.972 -0.1906  0.8924 -0.2895
  229MOL0     C31522   7.648  10.567   1.980  0.3138 -0.0036  0.4543
  229MOL0     O31523   7.679  10.526   2.108 -0.0804  0.0941  0.4745
  229MOL0     C31524   7.734  10.391   2.132 -0.1096 -0.3854  0.6635
  229MOL0     C31525   7.875  10.377   2.065 -0.3970 -0.3061  0.8155
  229MOL0     C31526   7.972  10.480   2.112 -0.0124 -0.0365  0.0991
  229MOL0     C31527   8.114  10.432   2.095 -0.5143 -0.1921  0.1581
  229MOL0     C31528   8.207  10.524   2.154 -0.3964  0.0573  0.1282
  229MOL0     C31529   8.277  10.607   2.207 -1.3913  0.1710  0.3014
  229MOL0     C31530   7.636  10.490   1.866  0.7836 -0.4525  0.8195
  229MOL0     C31531   7.610  10.547   1.739 -1.3653  1.3500 -0.6215
  229MOL0     C31532   7.624  10.446   1.616 -0.4173  0.3179 -0.1882
  229MOL0     H31533   7.355  10.671   1.301  0.5494 -0.9040  1.1225
  229MOL0     H31534   7.333  10.819   1.094  1.4740 -3.6594 -1.4189
  229MOL0     H31535   7.643  11.132   1.062  1.3461 -2.7315  1.3010
  229MOL0     H31536   7.565  11.136   0.899  0.9644  1.4434  1.2394
  229MOL0     H31537   7.772  10.932   0.997 -0.6608 -1.4263 -1.2426
  229MOL0     H31538   7.689  10.915   0.850  0.3514 -1.7251  1.3223
  229MOL0     H31539   7.900  11.037   0.811  0.6557  0.8772  0.4710
  229MOL0     H31540   7.785  11.160   0.788  0.8586  1.0033  1.0616
  229MOL0     H31541   7.812  11.246   1.012  0.9465 -1.5607  2.1187
  229MOL0     H31542   7.917  11.107   1.049 -1.2443  1.8876  3.1638
  229MOL0     H31543   8.013  11.340   0.983 -0.1516  0.5994 -0.1175
  229MOL0     H31544   7.980  11.279   0.817 -0.1895  0.6422  0.3395
  229MOL0     H31545   8.157  11.116   0.993  2.9850  2.3535  0.5571
  229MOL0     H31546   8.126  11.104   0.818  2.1012 -1.0405 -0.3395
  229MOL0     H31547   8.358  11.198   0.898  0.0111 -1.0523 -2.8580
  229MOL0     H31548   8.268  11.348   0.934  0.2192  0.4405 -1.0427
  229MOL0     H31549   8.312  11.215   0.665  0.1507 -1.0242  1.2270
  229MOL0     H31550   8.215  11.363   0.687  0.8634  0.1531 -0.0449
  229MOL0     H31551   8.343  11.559   0.851 -0.8231 -0.1496 -1.9317
  229MOL0     H31552   8.529  11.774   0.766  1.4174  2.4815  1.1774
  229MOL0     H31553   8.679  11.718   0.703 -0.3111 -3.2185 -2.0795
  229MOL0     H31554   8.732  11.818   0.922  3.0181 -0.6306 -4.1685
  229MOL0     H31555   8.614  11.704   0.997  0.3991 -1.5066  0.1627
  229MOL0     H31556   8.833  11.665   1.041 -2.4397 -2.0509  1.4876
  229MOL0     H31557   8.765  11.527   0.948 -0.2346  0.2473  1.1432
  229MOL0     H31558   8.990  11.552   0.899 -1.2382 -0.3911  1.8162
  229MOL0     H31559   8.898  11.592   0.754 -3.1634 -1.6537  1.3616
  229MOL0     H31560   9.172  11.570   0.783 -0.5659 -0.4713  1.2921
  229MOL0     H31561   9.496  11.548   0.915 -0.3928  1.2836  0.1045
  229MOL0     H31562   9.445  11.533   0.739  0.2437  2.8946 -0.1365
  229MOL0     H31563   9.345  11.473   0.879 -0.9713  1.7576  2.5966
  229MOL0     H31564   9.808  11.906   0.950 -0.2152  0.9710 -0.0580
  229MOL0     H31565  10.036  11.960   0.866  1.7122 -0.3936 -0.2400
  229MOL0     H31566  10.228  11.623   0.632  1.7155 -0.7776  0.5238
  229MOL0     H31567  10.183  11.727   0.489  1.6863 -1.4810 -0.2639
  229MOL0     H31568  10.439  11.710   0.507 -0.3029 -0.3159 -0.2864
  229MOL0     H31569  10.380  11.871   0.542  0.5042 -0.3183 -1.4469
  229MOL0     H31570  10.393  11.715   0.801  2.3581 -3.1502  0.5337
  229MOL0     H31571  10.474  11.859   0.739  2.1940 -0.6114  1.5216
  229MOL0     H31572  10.645  11.723   0.617 -0.0434  0.8282 -0.0445
  229MOL0     H31573  10.570  11.573   0.687  0.7537  0.5197 -0.8858
  229MOL0     H31574  10.678  11.815   0.843  3.3222 -1.1616  1.6149
  229MOL0     H31575  10.630  11.654   0.912  1.1099  0.3718  0.8889
  229MOL0     H31576  10.861  11.693   0.715  2.9432  0.8115  0.7952
  229MOL0     H31577  10.816  11.549   0.817  0.2779  0.3578 -1.8037
  229MOL0     H31578  10.864  11.687   1.016 -1.9389  1.0664 -0.9838
  229MOL0     H31579  10.904  11.821   0.916 -1.4493  0.0924  1.4505
  229MOL0     H31580  11.121  11.689   0.849  0.4918 -2.3562 -0.8730
  229MOL0     H31581  11.044  11.547   0.898 -0.2296  0.5899 -1.0529
  229MOL0     H31582   9.971  11.658   0.558 -1.6463 -0.9470 -0.1436
  229MOL0     H31583   9.753  11.640   0.627 -2.5888  1.7815 -0.2128
  229MOL0     H31584   9.337  12.005   0.938  4.3436 -0.7308 -0.6630
  229MOL0     H31585   9.106  11.976   0.908  0.6147  0.4860 -1.0748
  229MOL0     H31586   7.709  10.999   1.199 -1.7416  2.1177  0.2461
  229MOL0     H31587   7.730  10.851   1.389 -0.4830  1.2650  1.2814
  229MOL0     H31588   7.535  10.859   1.848  0.6314  0.6606 -2.7371
  229MOL0     H31589   7.612  10.752   2.066  1.5024  0.3631 -0.0869
  229MOL0     H31590   7.738  10.374   2.240 -0.9744 -0.5229  0.6801
  229MOL0     H31591   7.667  10.324   2.077 -1.8301  0.6360  1.4464
  229MOL0     H31592   7.870  10.384   1.956 -0.4595  0.0228  0.8369
  229MOL0     H31593   7.922  10.280   2.081  0.0201 -0.3170 -0.3927
  229MOL0     H31594   7.960  10.574   2.056 -0.5278  0.2515  0.6835
  229MOL0     H31595   7.955  10.493   2.219 -2.5836  0.5891 -0.3273
  229MOL0     H31596   8.123  10.416   1.987 -0.2268 -1.3940  0.3461
  229MOL0     H31597   8.122  10.335   2.144 -0.8210 -2.0522 -3.1863
  229MOL0     H31598   8.342  10.685   2.239 -1.7019  1.2349 -1.5236
  229MOL0     H31599   7.646  10.382   1.870  0.7944 -0.5736 -1.3150
  229MOL0     H31600   7.537  10.458   1.550 -1.0377  3.6004  1.0475
  229MOL0     H31601   7.711  10.468   1.554 -0.4742 -1.3662 -0.9283
  229MOL0     H31602   7.629  10.342   1.647  3.2218 -0.0028 -1.3165
  230MOL0     O31603   8.310  10.555   4.631  0.3613  0.6696 -0.8386
  230MOL0     C31604   8.262  10.646   4.697 -0.4838  0.1699 -0.4658
  230MOL0     O31605   8.339  10.733   4.772  0.5849  0.5728 -0.4084
  230MOL0     C31606   8.472  10.728   4.759 -0.2887 -1.0243 -0.7983
  230MOL0     C31607   8.550  10.832   4.707  0.6171 -0.7973  0.2618
  230MOL0     C31608   8.688  10.834   4.722 -0.4474  0.5321 -0.0498
  230MOL0     C31609   8.751  10.745   4.803 -0.0095  0.4440 -0.4577
  230MOL0     O31610   8.885  10.738   4.820  0.2663  0.1872  0.4951
  230MOL0     C31611   8.950  10.864   4.818  0.3172  0.1819  0.0826
  230MOL0     C31612   9.082  10.864   4.885  0.3828 -0.5002 -0.7887
  230MOL0     C31613   9.057  10.786   5.021 -0.6032 -0.1073  0.1678
  230MOL0     C31614   9.188  10.765   5.106  0.1371  0.1108  1.3410
  230MOL0     C31615   9.153  10.672   5.222  0.6661 -0.5850 -0.3079
  230MOL0     C31616   9.285  10.661   5.308  0.2965 -0.4951 -0.3044
  230MOL0     C31617   9.271  10.541   5.410 -0.2057  0.2104 -0.6622
  230MOL0     C31618   9.326  10.566   5.550 -0.5443  0.1262 -0.2523
  230MOL0     N31619   9.478  10.608   5.537  0.5416  0.3788 -0.4933
  230MOL0     C31620   9.512  10.743   5.536  0.5746 -1.3062 -0.3216
  230MOL0     C31621   9.634  10.740   5.486  0.2368 -0.5502 -0.1994
  230MOL0     C31622   9.722  10.862   5.456  0.1264  0.1826 -0.7301
  230MOL0     C31623   9.868  10.817   5.462 -0.0516 -1.2293 -0.7223
  230MOL0     C31624   9.955  10.937   5.508 -0.4782  0.1368 -0.4046
  230MOL0     C31625  10.092  10.885   5.540 -0.3329  0.3304  0.2304
  230MOL0     O31626  10.190  10.999   5.542 -0.0137  0.6861  0.0631
  230MOL0     C31627  10.317  10.963   5.533 -0.2041 -0.7810  0.9047
  230MOL0     C31628  10.367  10.833   5.510  0.1667 -0.5002  0.5210
  230MOL0     C31629  10.505  10.813   5.498 -0.2178  0.4696  0.3492
  230MOL0     C31630  10.570  10.682   5.437  0.1489 -0.1849 -0.6751
  230MOL0     C31631  10.595  10.923   5.529 -0.0287  0.7268 -0.1786
  230MOL0     C31632  10.746  10.906   5.531  0.5624  0.4657  0.0114
  230MOL0     O31633  10.824  11.001   5.469 -0.0907  0.1198 -0.1393
  230MOL0     C31634  10.959  10.989   5.493 -0.7221 -0.1989 -0.3890
  230MOL0     C31635  11.016  11.073   5.597 -0.5824  0.3892 -0.5717
  230MOL0     C31636  11.155  11.064   5.630  0.0991  1.2480 -0.0627
  230MOL0     C31637  11.246  10.978   5.560  0.1498  0.1266  0.7489
  230MOL0     O31638  11.379  10.991   5.570 -0.3314  0.1037 -0.0105
  230MOL0     C31639  11.468  10.935   5.468 -0.1017  0.3355  0.1410
  230MOL0     C31640  11.611  10.941   5.528 -0.5143 -1.0297  0.3857
  230MOL0     C31641  11.716  10.929   5.418  0.2985 -0.3368 -0.9801
  230MOL0     C31642  11.856  10.954   5.469  0.0707 -0.2110 -0.6452
  230MOL0     C31643  11.973  10.969   5.376 -0.1230  0.1762  0.8390
  230MOL0     C31644  12.002  10.839   5.296  0.4447 -1.0733 -0.3342
  230MOL0     C31645  12.084  10.851   5.172  0.6038 -0.3508  0.2182
  230MOL0     C31646  12.204  10.933   5.198  0.0435  0.0762 -0.2037
  230MOL0    Cl31647  12.330  10.915   5.069  0.0077  0.4149  0.3372
  230MOL0     C31648  11.176  10.877   5.487 -0.0635  0.2919 -0.5250
  230MOL0     C31649  11.038  10.885   5.454  0.2552 -0.1766  0.2410
  230MOL0     O31650  10.788  10.808   5.596  0.3116  0.0901  0.5365
  230MOL0     C31651  10.551  11.047   5.556  0.2801 -0.5774  0.2697
  230MOL0     C31652  10.409  11.066   5.554 -0.9935 -0.8371 -0.5206
  230MOL0     N31653   9.675  10.611   5.489  0.0661  0.6596  0.0273
  230MOL0     N31654   9.585  10.527   5.513  0.3249 -0.1494 -1.1927
  230MOL0     C31655   8.670  10.640   4.848  0.0911  0.0371 -0.8486
  230MOL0     C31656   8.539  10.630   4.829  0.3471 -0.4811  1.0318
  230MOL0     C31657   8.114  10.639   4.711 -0.2078  0.5164 -0.4162
  230MOL0     C31658   8.033  10.554   4.624 -0.5394  0.2193 -0.3324
  230MOL0     C31659   7.895  10.552   4.628  0.6691 -0.7745 -0.9190
  230MOL0     C31660   7.824  10.637   4.713  0.2812 -0.1153  0.2522
  230MOL0     O31661   7.689  10.674   4.694 -0.2766  0.7296 -0.0054
  230MOL0     C31662   7.612  10.590   4.602 -0.2602  0.2798 -0.0530
  230MOL0     C31663   7.466  10.606   4.644 -0.5748 -0.2348 -0.4148
  230MOL0     C31664   7.432  10.578   4.790 -0.0293 -0.5589  0.0821
  230MOL0     C31665   7.292  10.631   4.828  0.8353  0.8718 -0.4554
  230MOL0     C31666   7.189  10.532   4.788 -0.3745  0.2241 -0.0087
  230MOL0     C31667   7.096  10.458   4.760  0.2151  0.1749  0.0973
  230MOL0     C31668   7.898  10.721   4.798 -0.1527  0.3478 -0.0221
  230MOL0     C31669   8.036  10.717   4.799  0.0909 -0.3084 -0.5894
  230MOL0     C31670   8.100  10.805   4.906 -0.4318  0.1860  0.3520
  230MOL0     H31671   8.501  10.916   4.660  1.3758 -1.8782 -2.6327
  230MOL0     H31672   8.744  10.916   4.679  0.2240  0.4776  0.6831
  230MOL0     H31673   8.889  10.926   4.885 -0.9540 -2.1633  1.2022
  230MOL0     H31674   8.970  10.919   4.726  1.5254 -0.3119  0.0278
  230MOL0     H31675   9.162  10.832   4.819  2.9031 -0.6410  2.1018
  230MOL0     H31676   9.116  10.964   4.913 -0.9145 -0.1417 -0.4203
  230MOL0     H31677   8.985  10.835   5.087 -0.5001 -1.3889  1.2902
  230MOL0     H31678   9.012  10.688   5.000 -1.6048  0.7298 -1.8532
  230MOL0     H31679   9.275  10.726   5.053 -0.1051 -1.6045  2.1357
  230MOL0     H31680   9.219  10.864   5.141 -0.4641  0.6023  0.5381
  230MOL0     H31681   9.108  10.578   5.189 -2.4656  0.1717  1.4086
  230MOL0     H31682   9.076  10.717   5.285  0.7710 -1.6124  0.5783
  230MOL0     H31683   9.365  10.634   5.239  0.6390  1.7766 -0.8704
  230MOL0     H31684   9.312  10.760   5.345  2.5699  0.5472 -4.1823
  230MOL0     H31685   9.319  10.452   5.368  2.6867  1.5916 -0.5348
  230MOL0     H31686   9.166  10.515   5.423  0.6336 -2.7207  0.8824
  230MOL0     H31687   9.279  10.656   5.591 -0.4120 -0.2412  0.7335
  230MOL0     H31688   9.317  10.483   5.621  0.7181  0.4280  0.2891
  230MOL0     H31689   9.446  10.827   5.557 -3.2097 -3.9419 -0.5423
  230MOL0     H31690   9.693  10.941   5.525  2.0871 -0.8203  1.3859
  230MOL0     H31691   9.703  10.895   5.353 -0.4483  1.0370 -0.3603
  230MOL0     H31692   9.877  10.735   5.534 -2.2029  1.5411  3.0182
  230MOL0     H31693   9.898  10.785   5.362 -0.9247  1.8931 -2.0968
  230MOL0     H31694   9.961  11.019   5.437  2.2570  1.5187  1.2599
  230MOL0     H31695   9.924  10.976   5.606 -0.3392 -0.9147  0.0726
  230MOL0     H31696  10.098  10.832   5.636 -2.5814  0.2096  0.3440
  230MOL0     H31697  10.110  10.806   5.467 -0.4182  0.3753  0.1610
  230MOL0     H31698  10.297  10.752   5.488  0.8374 -1.1529  0.7472
  230MOL0     H31699  10.615  10.630   5.522  1.6085  0.1857 -1.1937
  230MOL0     H31700  10.637  10.703   5.353  0.5319 -1.9300 -0.8342
  230MOL0     H31701  10.487  10.621   5.401  0.5219 -0.8983 -0.3466
  230MOL0     H31702  10.963  11.150   5.651  1.6595  1.1910  0.6238
  230MOL0     H31703  11.198  11.137   5.699  1.7705  0.7403 -0.5270
  230MOL0     H31704  11.450  10.830   5.442  1.9794  0.6589 -3.3080
  230MOL0     H31705  11.466  10.986   5.371  4.2009 -2.1538 -1.5272
  230MOL0     H31706  11.630  11.035   5.581 -1.0324 -0.5359 -0.2780
  230MOL0     H31707  11.623  10.854   5.593 -1.8701 -1.4410  0.1236
  230MOL0     H31708  11.699  10.995   5.333  0.1331 -1.5916 -1.9582
  230MOL0     H31709  11.715  10.827   5.377  1.6283  0.2575 -2.6043
  230MOL0     H31710  11.886  10.870   5.533 -1.1471 -0.2616 -0.1198
  230MOL0     H31711  11.855  11.044   5.531 -1.4432 -1.1432  0.7617
  230MOL0     H31712  11.952  11.049   5.305 -1.0348 -0.4445  0.4038
  230MOL0     H31713  12.061  10.992   5.437  0.8185 -2.2507  0.4646
  230MOL0     H31714  11.907  10.788   5.274 -1.4506  2.0150  0.0447
  230MOL0     H31715  12.055  10.769   5.361 -2.3732 -0.7329  2.5366
  230MOL0     H31716  12.024  10.893   5.091  0.1415 -3.0964 -0.9673
  230MOL0     H31717  12.102  10.750   5.134 -1.3925 -0.1637 -1.4311
  230MOL0     H31718  12.256  10.897   5.288 -1.0030  0.8010  0.7196
  230MOL0     H31719  12.184  11.041   5.205  0.3316  0.2975 -2.1301
  230MOL0     H31720  11.227  10.784   5.463 -0.0342 -0.6125  2.6318
  230MOL0     H31721  10.990  10.813   5.388 -0.8815  1.9567 -1.3944
  230MOL0     H31722  10.619  11.130   5.570 -1.7104  0.8155  2.3336
  230MOL0     H31723  10.361  11.162   5.571 -2.2826 -0.9391 -3.0437
  230MOL0     H31724   8.718  10.555   4.896  3.6751  3.0754  1.4786
  230MOL0     H31725   8.486  10.555   4.887 -1.0990 -1.1181 -1.0138
  230MOL0     H31726   8.083  10.488   4.554  0.5819 -0.6825  1.2328
  230MOL0     H31727   7.845  10.486   4.558 -0.9848  1.4416 -1.9387
  230MOL0     H31728   7.615  10.615   4.496 -0.9294  2.5103  0.4230
  230MOL0     H31729   7.634  10.484   4.619 -0.0783  0.6532  2.2813
  230MOL0     H31730   7.389  10.552   4.587 -0.6511 -0.7998  0.2119
  230MOL0     H31731   7.453  10.713   4.627 -0.3034 -0.1042  0.1982
  230MOL0     H31732   7.447  10.474   4.818 -2.6715 -0.3555  2.7067
  230MOL0     H31733   7.499  10.635   4.855 -0.9968 -0.5960  1.1445
  230MOL0     H31734   7.268  10.726   4.779 -2.1788  0.6939  0.5097
  230MOL0     H31735   7.289  10.645   4.936 -1.9188 -1.1518 -0.1867
  230MOL0     H31736   7.021  10.382   4.749  1.9752 -1.5564 -0.4392
  230MOL0     H31737   7.842  10.775   4.873 -2.5568 -0.6892 -0.9455
  230MOL0     H31738   8.160  10.877   4.849 -3.4898  2.9142  0.3064
  230MOL0     H31739   8.022  10.870   4.947 -0.4115  2.6902 -3.1163
  230MOL0     H31740   8.156  10.740   4.973  2.0689  0.0112 -1.7167
  231MOL0     O31741   2.091   4.824   5.456  0.3194 -0.6013 -0.4867
  231MOL0     C31742   2.050   4.804   5.565  0.5190  0.2019 -0.7553
  231MOL0     O31743   2.131   4.799   5.676 -0.6842  0.1973  0.0436
  231MOL0     C31744   2.241   4.888   5.680  0.0721  1.1088  0.8036
  231MOL0     C31745   2.244   5.018   5.617 -0.3294  0.3381 -0.1922
  231MOL0     C31746   2.350   5.109   5.626  0.2359 -0.2512 -0.5701
  231MOL0     C31747   2.463   5.073   5.711 -0.3167 -0.7579  0.9555
  231MOL0     O31748   2.554   5.168   5.743 -0.1276 -0.5589  0.0619
  231MOL0     C31749   2.679   5.125   5.798 -0.3268 -0.4594  0.9202
  231MOL0     C31750   2.769   5.246   5.782 -0.0578  1.4457 -0.6589
  231MOL0     C31751   2.723   5.365   5.869  0.0429 -0.1126  0.5393
  231MOL0     C31752   2.826   5.472   5.905 -0.1330  0.7155 -0.4491
  231MOL0     C31753   2.872   5.552   5.784 -0.0284  0.3011 -0.5773
  231MOL0     C31754   2.960   5.668   5.837  0.1304  0.6726 -0.2535
  231MOL0     C31755   3.044   5.724   5.726 -0.0206 -0.2341  0.1397
  231MOL0     C31756   3.154   5.821   5.762 -0.3973  0.3584  0.2601
  231MOL0     N31757   3.278   5.760   5.816  0.0028  0.5236 -0.1504
  231MOL0     C31758   3.300   5.692   5.934  0.3734 -0.6256 -0.2290
  231MOL0     C31759   3.434   5.659   5.930 -0.4602  0.6626 -0.3710
  231MOL0     C31760   3.510   5.559   6.018  0.3514 -0.4085 -0.1480
  231MOL0     C31761   3.656   5.580   6.003 -0.2457 -0.1638  0.0403
  231MOL0     C31762   3.727   5.446   5.981 -0.6560  0.0139  0.5191
  231MOL0     C31763   3.879   5.459   5.976  0.1053  0.2121 -0.0038
  231MOL0     O31764   3.924   5.555   5.875  0.0477  0.4486  0.0626
  231MOL0     C31765   4.059   5.564   5.850 -0.3795 -0.1201 -0.1958
  231MOL0     C31766   4.087   5.648   5.740  0.2189 -0.4881 -0.2246
  231MOL0     C31767   4.230   5.670   5.707  0.6497  0.0351  0.2742
  231MOL0     C31768   4.253   5.763   5.594 -0.5578 -0.6851  0.0828
  231MOL0     C31769   4.330   5.609   5.783  0.6098  0.0614  0.6516
  231MOL0     C31770   4.475   5.616   5.748  0.0829 -0.3518 -0.3901
  231MOL0     O31771   4.542   5.515   5.803  0.1421  0.1921  0.0231
  231MOL0     C31772   4.668   5.516   5.778 -0.3843  0.8238 -0.6030
  231MOL0     C31773   4.760   5.527   5.879 -0.9242  1.2964 -0.4286
  231MOL0     C31774   4.897   5.506   5.857  0.2349 -0.4135 -0.5109
  231MOL0     C31775   4.943   5.475   5.732  0.0879 -0.0294 -0.1508
  231MOL0     O31776   5.086   5.469   5.714  0.9157 -0.5725  0.4391
  231MOL0     C31777   5.127   5.457   5.576  0.0563  0.1016 -0.3408
  231MOL0     C31778   5.274   5.489   5.573 -0.3069 -0.5075  0.1634
  231MOL0     C31779   5.365   5.371   5.626 -0.5941  0.7368 -0.1157
  231MOL0     C31780   5.510   5.395   5.619 -0.3286 -0.2012  0.2417
  231MOL0     C31781   5.592   5.275   5.664 -0.3678  0.2256 -0.2334
  231MOL0     C31782   5.582   5.229   5.809  0.4692  0.3486  0.1499
  231MOL0     C31783   5.646   5.320   5.915  0.4191  0.0739 -0.0949
  231MOL0     C31784   5.790   5.361   5.908  0.7133  0.1147  0.6931
  231MOL0    Cl31785   5.836   5.424   6.055  0.2229  0.3800  0.2747
  231MOL0     C31786   4.850   5.458   5.628 -0.6370 -0.1722 -1.0476
  231MOL0     C31787   4.708   5.468   5.653 -0.6568 -0.0946  0.5870
  231MOL0     O31788   4.521   5.711   5.687 -0.1449  0.0198 -0.1414
  231MOL0     C31789   4.289   5.524   5.890  0.5903 -0.1245  0.1787
  231MOL0     C31790   4.158   5.502   5.920 -0.4027  0.3521  0.6913
  231MOL0     N31791   3.480   5.686   5.798  0.4791  0.6514 -0.6563
  231MOL0     N31792   3.386   5.742   5.736 -0.9452  1.0384 -0.0853
  231MOL0     C31793   2.464   4.940   5.760  0.4196 -0.1426 -0.1661
  231MOL0     C31794   2.356   4.853   5.756 -0.7428  0.1787  0.6503
  231MOL0     C31795   1.904   4.765   5.564 -0.4007 -0.4785 -0.0722
  231MOL0     C31796   1.865   4.639   5.517  0.0686 -0.1184  0.7444
  231MOL0     C31797   1.728   4.608   5.493 -0.0031 -0.7741  0.8097
  231MOL0     C31798   1.632   4.703   5.523  0.2406 -0.1335  0.0945
  231MOL0     O31799   1.506   4.656   5.512  0.0641 -0.1290  0.2360
  231MOL0     C31800   1.398   4.752   5.485  0.1087 -0.2786  0.2514
  231MOL0     C31801   1.313   4.693   5.376 -0.5152 -0.7390  0.5230
  231MOL0     C31802   1.188   4.784   5.350 -0.4653  0.2639  0.3105
  231MOL0     C31803   1.104   4.718   5.238 -0.0904  0.0377 -0.1501
  231MOL0     C31804   0.981   4.798   5.222 -0.5128  0.1204  0.0476
  231MOL0     C31805   0.874   4.847   5.193 -0.6624 -0.3815 -1.3761
  231MOL0     C31806   1.666   4.826   5.572 -0.0871  0.1820 -1.2653
  231MOL0     C31807   1.800   4.865   5.591  0.2975 -0.5122 -0.4446
  231MOL0     C31808   1.844   4.999   5.643 -0.3300 -0.8972  0.7666
  231MOL0     H31809   2.160   5.044   5.554 -0.5361 -1.4731 -0.7225
  231MOL0     H31810   2.353   5.209   5.583  0.6797 -0.9626 -2.2853
  231MOL0     H31811   2.723   5.043   5.740  4.5093  1.7401  1.0243
  231MOL0     H31812   2.661   5.089   5.899 -2.4800  2.0820  1.5674
  231MOL0     H31813   2.875   5.225   5.799 -0.4789 -1.3946 -1.0949
  231MOL0     H31814   2.761   5.275   5.677  0.1137 -0.6513 -1.2958
  231MOL0     H31815   2.636   5.423   5.835 -0.6504  0.5653  3.2359
  231MOL0     H31816   2.690   5.333   5.968 -5.1773 -2.1696 -1.5307
  231MOL0     H31817   2.801   5.538   5.988  0.6768  1.9807 -1.1789
  231MOL0     H31818   2.917   5.417   5.930 -0.5935 -1.0026 -2.2510
  231MOL0     H31819   2.787   5.603   5.737 -1.9878  1.0889  3.3451
  231MOL0     H31820   2.923   5.497   5.706  2.8059  2.8566 -0.7168
  231MOL0     H31821   2.907   5.742   5.897 -0.6641 -1.5212  1.9316
  231MOL0     H31822   3.028   5.624   5.911 -1.6264 -1.0443  0.4447
  231MOL0     H31823   2.978   5.766   5.649  1.5785  0.3200 -0.9876
  231MOL0     H31824   3.086   5.637   5.675  0.8206 -0.0762  0.5358
  231MOL0     H31825   3.189   5.872   5.671  1.6842 -1.6739 -0.1636
  231MOL0     H31826   3.114   5.890   5.837  0.3056  1.6256 -0.4863
  231MOL0     H31827   3.230   5.683   6.016 -0.5756 -1.2777 -1.0960
  231MOL0     H31828   3.475   5.464   5.977 -2.0499  0.5405 -0.4925
  231MOL0     H31829   3.488   5.579   6.123 -0.6162  0.7755 -0.5396
  231MOL0     H31830   3.682   5.645   5.920 -1.7338 -0.3488 -0.6005
  231MOL0     H31831   3.700   5.625   6.093  1.2016  0.2210 -0.8326
  231MOL0     H31832   3.705   5.384   6.068  0.6218 -1.5444 -0.2148
  231MOL0     H31833   3.696   5.404   5.885  2.5534  0.6846 -0.9319
  231MOL0     H31834   3.923   5.495   6.069  2.2428  0.5764 -1.0896
  231MOL0     H31835   3.924   5.363   5.946  0.9317  0.3608  0.7174
  231MOL0     H31836   4.002   5.688   5.686 -2.3159 -0.5687  3.3371
  231MOL0     H31837   4.159   5.794   5.548  1.5956  4.3280 -1.6723
  231MOL0     H31838   4.314   5.728   5.511  0.9747  1.3746  0.2767
  231MOL0     H31839   4.288   5.860   5.629  3.1033 -0.7772 -2.7464
  231MOL0     H31840   4.736   5.558   5.980 -0.2513  1.5738 -0.3468
  231MOL0     H31841   4.968   5.520   5.938  1.3233  2.3581 -1.7793
  231MOL0     H31842   5.094   5.362   5.533  0.1570  0.7552 -1.9373
  231MOL0     H31843   5.076   5.531   5.514  1.6289  0.7771 -0.8887
  231MOL0     H31844   5.312   5.510   5.473 -1.2380  0.0037 -0.0924
  231MOL0     H31845   5.300   5.575   5.636  0.4769 -1.3794  1.0835
  231MOL0     H31846   5.339   5.275   5.582  3.6035 -1.6504  2.0573
  231MOL0     H31847   5.326   5.353   5.727  0.5968 -2.3271 -0.1218
  231MOL0     H31848   5.537   5.484   5.677  1.2920  0.7648 -1.8352
  231MOL0     H31849   5.540   5.414   5.515 -0.8137 -1.1528 -0.0830
  231MOL0     H31850   5.564   5.192   5.598 -0.9466  1.1368 -1.1501
  231MOL0     H31851   5.698   5.294   5.649 -0.2613  0.5314  0.8271
  231MOL0     H31852   5.632   5.132   5.809 -1.6909 -0.8335  1.7475
  231MOL0     H31853   5.476   5.215   5.831 -0.1367  1.4062 -1.8785
  231MOL0     H31854   5.645   5.267   6.011 -0.6958  1.0567  0.4564
  231MOL0     H31855   5.578   5.403   5.935 -0.0838  0.0028 -1.3915
  231MOL0     H31856   5.805   5.432   5.826  2.3903 -0.7100  0.2623
  231MOL0     H31857   5.849   5.270   5.895  1.2297  0.0141  3.1848
  231MOL0     H31858   4.880   5.427   5.529  0.8298 -0.1633 -0.6315
  231MOL0     H31859   4.636   5.446   5.574  0.4488  3.0015 -1.4792
  231MOL0     H31860   4.362   5.456   5.933  1.0841  0.9791  1.1404
  231MOL0     H31861   4.140   5.442   6.008  1.7658  1.3611  1.9050
  231MOL0     H31862   2.544   4.909   5.827 -2.2380 -0.4824  3.1719
  231MOL0     H31863   2.341   4.760   5.810  0.0094 -1.5157 -1.8703
  231MOL0     H31864   1.931   4.560   5.484 -0.1217  1.0818 -3.0066
  231MOL0     H31865   1.697   4.510   5.459  1.0732 -0.9148  0.1636
  231MOL0     H31866   1.339   4.766   5.576  2.2987 -1.0588  1.8772
  231MOL0     H31867   1.435   4.852   5.457  2.6800 -1.7176 -1.9555
  231MOL0     H31868   1.284   4.594   5.414 -3.1434 -0.7248 -1.1870
  231MOL0     H31869   1.366   4.682   5.281  2.9770 -4.1706  2.5753
  231MOL0     H31870   1.134   4.809   5.442 -2.7731  1.4904 -1.2656
  231MOL0     H31871   1.215   4.877   5.300  1.0799 -0.9228 -1.1836
  231MOL0     H31872   1.080   4.620   5.279  2.6622 -0.0996  1.3799
  231MOL0     H31873   1.162   4.704   5.146 -0.6517 -0.9859 -0.3621
  231MOL0     H31874   0.772   4.874   5.174 -0.0575  1.0287 -2.7785
  231MOL0     H31875   1.593   4.898   5.609  0.1138 -1.5772  3.0603
  231MOL0     H31876   1.935   4.984   5.702  2.0856  3.7747 -1.2678
  231MOL0     H31877   1.853   5.074   5.564 -0.4016 -0.9340  0.7228
  231MOL0     H31878   1.764   5.028   5.712 -3.2268 -1.7906 -1.9861
  232MOL0     O31879   6.760   9.106   1.551 -0.5191 -0.0614 -0.5946
  232MOL0     C31880   6.740   9.156   1.664 -0.7439  0.8978  0.0647
  232MOL0     O31881   6.823   9.146   1.777 -0.3676 -0.5068 -0.0252
  232MOL0     C31882   6.950   9.108   1.742 -0.1982  0.0403  0.2167
  232MOL0     C31883   7.039   9.193   1.671 -0.3027  0.0788 -0.1365
  232MOL0     C31884   7.170   9.143   1.647 -0.5811  0.3859  0.5846
  232MOL0     C31885   7.217   9.023   1.696 -0.1106  0.0954 -0.0563
  232MOL0     O31886   7.345   8.967   1.694  0.5987 -0.7844  0.6249
  232MOL0     C31887   7.450   9.044   1.626  0.3168  0.5073  0.5335
  232MOL0     C31888   7.585   8.976   1.638  0.1920  0.1886 -0.6819
  232MOL0     C31889   7.621   8.883   1.516 -0.5196 -1.1947  0.2485
  232MOL0     C31890   7.764   8.830   1.521 -0.7801  0.1311  0.3276
  232MOL0     C31891   7.779   8.733   1.411  0.6007  0.0333 -0.4901
  232MOL0     C31892   7.928   8.690   1.402  0.0291  0.0766 -0.2142
  232MOL0     C31893   7.956   8.596   1.290 -0.6064  0.5488  0.1603
  232MOL0     C31894   7.933   8.666   1.150 -0.1779 -0.5734 -0.1536
  232MOL0     N31895   7.989   8.558   1.065  0.3695  0.7517 -0.4959
  232MOL0     C31896   7.911   8.471   0.992  0.0823 -0.2278  0.2817
  232MOL0     C31897   7.998   8.378   0.950  0.1928 -0.1828  0.1058
  232MOL0     C31898   7.968   8.249   0.884  0.3638  0.0090  0.2106
  232MOL0     C31899   7.922   8.248   0.752  0.0211 -0.1269 -0.0798
  232MOL0     C31900   8.001   8.334   0.657  0.1145  0.1495  0.2827
  232MOL0     C31901   7.974   8.301   0.509  0.3875 -0.6613  0.1398
  232MOL0     O31902   8.036   8.408   0.430  0.4035 -0.2433  0.6865
  232MOL0     C31903   8.162   8.414   0.398 -0.4607  0.8254  0.6121
  232MOL0     C31904   8.267   8.331   0.444  0.2978  0.8490 -0.4911
  232MOL0     C31905   8.398   8.363   0.400 -0.1509  0.0581  0.1248
  232MOL0     C31906   8.503   8.279   0.458 -0.0139  0.6598 -1.2240
  232MOL0     C31907   8.424   8.481   0.325  0.0794  0.7901 -0.5244
  232MOL0     C31908   8.562   8.523   0.295  0.1344  0.2440  0.2911
  232MOL0     O31909   8.653   8.531   0.396  0.8743  0.1434  0.2345
  232MOL0     C31910   8.780   8.581   0.382 -0.0717 -0.0432  0.3108
  232MOL0     C31911   8.877   8.514   0.449  0.3862 -0.3266 -0.0814
  232MOL0     C31912   9.013   8.548   0.423  0.1590 -0.4293 -0.1621
  232MOL0     C31913   9.052   8.654   0.342  0.7549 -0.3785  0.6787
  232MOL0     O31914   9.178   8.691   0.308  0.2586  0.3166 -0.5775
  232MOL0     C31915   9.289   8.598   0.335  0.2838 -0.8753 -0.3819
  232MOL0     C31916   9.281   8.472   0.244  0.4866  0.2292 -0.6132
  232MOL0     C31917   9.264   8.504   0.096  0.4406  0.2550  0.2182
  232MOL0     C31918   9.227   8.375   0.023  0.1932 -0.0884 -0.0138
  232MOL0     C31919   9.211   8.414  -0.121 -1.4397 -0.2003 -0.7478
  232MOL0     C31920   9.159   8.293  -0.208 -0.2480 -0.0791  1.0038
  232MOL0     C31921   9.143   8.321  -0.363  0.8111 -0.9142 -0.8603
  232MOL0     C31922   9.052   8.218  -0.423  0.3820  0.0716  0.6763
  232MOL0    Cl31923   8.888   8.251  -0.380  0.1552  0.1668 -0.3064
  232MOL0     C31924   8.946   8.732   0.285 -0.2113 -0.1514  0.5603
  232MOL0     C31925   8.815   8.695   0.299 -0.5002 -0.2800 -0.2806
  232MOL0     O31926   8.576   8.560   0.180 -0.1908  0.2967 -0.6587
  232MOL0     C31927   8.312   8.558   0.286 -0.2610 -0.3394  0.2402
  232MOL0     C31928   8.180   8.522   0.320 -0.5594  0.4206  0.1429
  232MOL0     N31929   8.130   8.419   0.967 -1.0968 -0.0182 -0.9670
  232MOL0     N31930   8.120   8.535   1.033 -0.2545 -0.0826  0.2846
  232MOL0     C31931   7.129   8.952   1.780  0.0680 -0.1788  0.0800
  232MOL0     C31932   7.001   8.997   1.803  0.6238  0.7646  0.2452
  232MOL0     C31933   6.609   9.228   1.683  0.1352 -0.3032 -0.3483
  232MOL0     C31934   6.548   9.200   1.808  0.8469  0.1377  0.2242
  232MOL0     C31935   6.424   9.244   1.834  0.7606 -0.7917  0.3606
  232MOL0     C31936   6.355   9.337   1.755 -0.3401  0.2529  0.7334
  232MOL0     O31937   6.228   9.383   1.782 -0.1233  0.0391  0.0029
  232MOL0     C31938   6.148   9.343   1.884 -0.4783  0.4352 -0.1569
  232MOL0     C31939   6.002   9.382   1.853  0.1715 -0.7775  0.3776
  232MOL0     C31940   5.907   9.311   1.953 -0.6537 -0.2173 -0.6821
  232MOL0     C31941   5.764   9.340   1.913  0.0545 -0.2226  0.4859
  232MOL0     C31942   5.742   9.489   1.919 -0.6936  0.7356 -0.5569
  232MOL0     C31943   5.718   9.611   1.929  0.0512  1.2521  0.3917
  232MOL0     C31944   6.420   9.376   1.633  0.2317 -0.2818 -0.2784
  232MOL0     C31945   6.547   9.325   1.596 -0.5415 -0.1426 -0.0044
  232MOL0     C31946   6.617   9.375   1.473  0.3108  0.7137  1.1832
  232MOL0     H31947   7.011   9.297   1.656  0.1987  0.1962 -0.2840
  232MOL0     H31948   7.244   9.200   1.592  3.0375 -3.8440  0.4836
  232MOL0     H31949   7.459   9.146   1.665  0.1797  0.2415  1.2790
  232MOL0     H31950   7.417   9.052   1.523 -0.9046 -2.3639  0.6243
  232MOL0     H31951   7.659   9.057   1.639  1.6180 -1.0739 -1.0529
  232MOL0     H31952   7.586   8.924   1.734 -0.9535 -1.1639 -1.3778
  232MOL0     H31953   7.554   8.796   1.513 -1.2470 -0.6786  0.8743
  232MOL0     H31954   7.601   8.940   1.425  1.3143 -0.5377  0.2300
  232MOL0     H31955   7.829   8.914   1.493  0.7672 -1.6834 -1.8868
  232MOL0     H31956   7.791   8.784   1.616  2.2548 -0.3998 -0.6737
  232MOL0     H31957   7.752   8.780   1.316 -2.0716  0.9442  0.6344
  232MOL0     H31958   7.715   8.646   1.428 -0.4996  0.9945  0.3850
  232MOL0     H31959   7.985   8.779   1.374  2.2898 -0.3964  2.4178
  232MOL0     H31960   7.965   8.652   1.497 -0.1913 -1.9983 -0.9017
  232MOL0     H31961   7.898   8.504   1.279  2.7751 -1.5036 -2.5464
  232MOL0     H31962   8.063   8.570   1.290 -1.0708 -1.9539 -2.8418
  232MOL0     H31963   7.825   8.674   1.134 -0.4835 -0.7533  1.6376
  232MOL0     H31964   7.985   8.759   1.128 -2.2353  0.2496 -1.9559
  232MOL0     H31965   7.803   8.481   0.982 -0.0502 -1.4722  0.2331
  232MOL0     H31966   7.895   8.194   0.944 -2.3132  2.7746 -0.2337
  232MOL0     H31967   8.058   8.187   0.881  0.1384 -0.4195  1.7939
  232MOL0     H31968   7.919   8.141   0.728  2.3056 -0.9445  2.7944
  232MOL0     H31969   7.818   8.281   0.756 -0.8452 -2.4656 -1.4952
  232MOL0     H31970   7.990   8.442   0.670 -0.7119 -0.0446  1.3028
  232MOL0     H31971   8.108   8.313   0.669  0.0254 -1.0526 -0.7709
  232MOL0     H31972   8.013   8.200   0.492  0.5482 -0.5565 -0.1253
  232MOL0     H31973   7.869   8.309   0.477  0.3387  0.2271  0.4919
  232MOL0     H31974   8.242   8.245   0.505 -0.9842 -0.5325 -2.8117
  232MOL0     H31975   8.552   8.332   0.541  0.5501 -3.7832  1.6192
  232MOL0     H31976   8.578   8.269   0.380 -1.2465 -1.3529 -2.2165
  232MOL0     H31977   8.477   8.178   0.492  0.6280  1.0436  0.5576
  232MOL0     H31978   8.838   8.443   0.521 -1.5472  2.4083  1.7243
  232MOL0     H31979   9.088   8.494   0.479  1.9178  0.6533 -1.3502
  232MOL0     H31980   9.385   8.650   0.323  0.3214 -1.1471 -1.4004
  232MOL0     H31981   9.290   8.565   0.439  1.1624 -0.4816 -0.2561
  232MOL0     H31982   9.372   8.411   0.253  0.2413 -0.3049 -1.5597
  232MOL0     H31983   9.195   8.418   0.284  3.1158 -1.2501  3.7963
  232MOL0     H31984   9.361   8.536   0.057 -0.4509  0.4569 -2.0405
  232MOL0     H31985   9.189   8.582   0.077 -0.9713 -0.8673  1.0254
  232MOL0     H31986   9.129   8.340   0.055 -0.6180  2.5234  0.5816
  232MOL0     H31987   9.300   8.295   0.037  1.6820  0.7618 -2.2886
  232MOL0     H31988   9.140   8.498  -0.117 -0.6464  0.5565 -1.9948
  232MOL0     H31989   9.299   8.466  -0.159 -1.9671  2.6622  1.6269
  232MOL0     H31990   9.058   8.280  -0.168 -0.1353 -0.7339  1.0845
  232MOL0     H31991   9.215   8.202  -0.186 -2.4183 -0.9617  3.3528
  232MOL0     H31992   9.242   8.304  -0.407  0.8715 -3.5185  0.0920
  232MOL0     H31993   9.102   8.421  -0.379 -0.6694 -1.3466  0.0614
  232MOL0     H31994   9.082   8.116  -0.395 -1.3935 -2.3496 -4.8372
  232MOL0     H31995   9.067   8.226  -0.531 -2.4100 -0.0641  0.2106
  232MOL0     H31996   8.953   8.818   0.219 -0.2126 -0.6156 -0.0517
  232MOL0     H31997   8.742   8.743   0.234 -0.3631 -0.3672 -0.4992
  232MOL0     H31998   8.324   8.646   0.224 -0.4092 -1.7219 -1.8491
  232MOL0     H31999   8.103   8.590   0.283 -0.6026  1.0039  1.2662
  232MOL0     H32000   7.174   8.880   1.848  0.4425  0.8365  0.9380
  232MOL0     H32001   6.947   8.947   1.882  0.2860 -0.8121 -0.9331
  232MOL0     H32002   6.590   9.123   1.872 -0.4070  0.0300  0.9625
  232MOL0     H32003   6.362   9.216   1.919 -3.4955  3.0043 -1.0667
  232MOL0     H32004   6.147   9.234   1.892 -2.3319  0.5331  1.8853
  232MOL0     H32005   6.194   9.381   1.976  1.3571 -0.5283 -0.6449
  232MOL0     H32006   5.976   9.362   1.749 -0.0342 -2.4701  0.7334
  232MOL0     H32007   5.990   9.491   1.857 -0.3067 -0.4725 -4.1490
  232MOL0     H32008   5.921   9.204   1.941  0.3010  0.1725 -4.0558
  232MOL0     H32009   5.921   9.337   2.059 -2.3020 -0.4683 -0.3651
  232MOL0     H32010   5.713   9.286   1.994  0.8309 -0.1723  1.0213
  232MOL0     H32011   5.736   9.302   1.815  1.5106 -2.3494  0.8244
  232MOL0     H32012   5.714   9.718   1.939 -1.0054  1.4228 -1.4247
  232MOL0     H32013   6.360   9.439   1.568  2.3190  0.8967 -1.1945
  232MOL0     H32014   6.572   9.465   1.431 -3.4907 -2.0476 -1.2958
  232MOL0     H32015   6.722   9.386   1.502  0.4554  1.8224  0.2988
  232MOL0     H32016   6.611   9.310   1.386 -2.6296  1.8645  0.4164
  233MOL0     O32017   9.380   9.683   5.949 -0.0143 -0.9339  0.6818
  233MOL0     C32018   9.408   9.797   5.993  0.4458 -0.4014 -0.4343
  233MOL0     O32019   9.531   9.840   6.027  0.0075 -0.0506  0.0480
  233MOL0     C32020   9.637   9.758   6.060  0.1536  1.1218 -0.1132
  233MOL0     C32021   9.757   9.818   6.091  0.0941  0.6726 -0.5881
  233MOL0     C32022   9.870   9.749   6.132 -0.5491  0.7381  0.5130
  233MOL0     C32023   9.861   9.606   6.146  0.4480 -1.4116  0.3678
  233MOL0     O32024   9.976   9.542   6.174 -0.3401  0.0018 -0.0941
  233MOL0     C32025  10.041   9.501   6.062 -0.6439  0.1789  0.9137
  233MOL0     C32026  10.168   9.427   6.100  0.3026  0.2353 -0.8695
  233MOL0     C32027  10.268   9.431   5.985  0.2974  0.3230  0.0771
  233MOL0     C32028  10.398   9.354   6.006  0.6146 -0.4113 -0.5191
  233MOL0     C32029  10.527   9.399   5.930 -0.6001  0.3287  0.7921
  233MOL0     C32030  10.569   9.548   5.949 -0.6660  0.0491  0.4844
  233MOL0     C32031  10.714   9.581   5.894 -0.1103  0.7678  0.0904
  233MOL0     C32032  10.756   9.718   5.924 -0.5849 -0.2724  0.0122
  233MOL0     N32033  10.881   9.742   5.853  0.7692 -0.0304  0.6029
  233MOL0     C32034  11.001   9.699   5.895  0.9905 -0.4831 -0.5978
  233MOL0     C32035  11.077   9.705   5.782  1.1017  0.0173  0.4496
  233MOL0     C32036  11.216   9.646   5.763  0.0740 -0.5698 -0.4430
  233MOL0     C32037  11.241   9.531   5.655  0.4837  0.3054  0.0230
  233MOL0     C32038  11.379   9.467   5.676  0.4935  0.2429 -0.7217
  233MOL0     C32039  11.404   9.353   5.563 -1.0151 -0.8300 -0.3262
  233MOL0     O32040  11.531   9.303   5.601  0.4206 -0.5870  0.6270
  233MOL0     C32041  11.602   9.239   5.513 -0.2877  0.3754 -0.2647
  233MOL0     C32042  11.559   9.215   5.380  0.5208  1.1191 -0.5125
  233MOL0     C32043  11.638   9.143   5.286 -0.1918 -0.1527  1.0889
  233MOL0     C32044  11.580   9.108   5.151  0.3787  0.0690 -0.0238
  233MOL0     C32045  11.768   9.104   5.337 -0.5979  0.1988  0.7661
  233MOL0     C32046  11.866   9.014   5.255 -0.2657 -0.4644  0.3467
  233MOL0     O32047  11.973   8.976   5.325  0.1442 -0.3333  0.0330
  233MOL0     C32048  12.081   8.909   5.271  0.0225  0.0810  0.4899
  233MOL0     C32049  12.115   8.885   5.134  0.2348 -0.3587  1.0520
  233MOL0     C32050  12.234   8.816   5.100  0.6140  0.3072 -0.7230
  233MOL0     C32051  12.312   8.755   5.196 -0.5730  0.2180 -0.7892
  233MOL0     O32052  12.420   8.675   5.175 -0.7959  0.2612 -0.2365
  233MOL0     C32053  12.516   8.723   5.067  0.9076 -0.1638 -0.4399
  233MOL0     C32054  12.633   8.626   5.045 -0.3711 -0.0110 -0.1557
  233MOL0     C32055  12.604   8.528   4.935  0.0864 -0.1655 -0.0159
  233MOL0     C32056  12.716   8.421   4.919  0.1654  0.2312  0.1177
  233MOL0     C32057  12.674   8.302   4.838 -0.0328  0.4707 -0.1766
  233MOL0     C32058  12.791   8.210   4.793 -0.4877  0.4051 -0.2514
  233MOL0     C32059  12.762   8.061   4.808  0.9431 -0.8074  0.9394
  233MOL0     C32060  12.652   8.013   4.706  0.2486  0.3073 -0.3085
  233MOL0    Cl32061  12.700   8.069   4.541 -0.1350 -0.5712  0.3753
  233MOL0     C32062  12.286   8.782   5.330  0.0778 -0.4102 -0.0063
  233MOL0     C32063  12.177   8.859   5.371  0.4724  0.9096 -0.1286
  233MOL0     O32064  11.836   8.977   5.137 -0.5576  0.6463  0.7751
  233MOL0     C32065  11.814   9.134   5.465  0.0136  0.0871  0.0641
  233MOL0     C32066  11.725   9.200   5.554 -0.7569  0.1328  0.7324
  233MOL0     N32067  10.996   9.752   5.676 -0.9722  0.1542 -0.0643
  233MOL0     N32068  10.878   9.776   5.717 -0.8911  0.2039 -0.4887
  233MOL0     C32069   9.745   9.548   6.113  0.2276  0.2600 -0.2850
  233MOL0     C32070   9.631   9.615   6.078  0.5906  0.0403  0.1455
  233MOL0     C32071   9.302   9.903   6.007  0.0037  0.4029 -0.9764
  233MOL0     C32072   9.342  10.036   6.027 -0.5514  0.0787 -0.0392
  233MOL0     C32073   9.255  10.143   6.045 -0.1631  0.5330 -0.1275
  233MOL0     C32074   9.117  10.119   6.036 -0.3190 -0.1977  0.1385
  233MOL0     O32075   9.013  10.212   6.048  0.0579  0.4689  0.2861
  233MOL0     C32076   9.039  10.346   6.021  0.7806 -0.6206  0.5625
  233MOL0     C32077   8.907  10.424   6.008 -0.3708  0.0794  0.1487
  233MOL0     C32078   8.834  10.365   5.892  0.3328 -0.1024 -1.4172
  233MOL0     C32079   8.700  10.443   5.893  0.6064 -0.4449  0.1284
  233MOL0     C32080   8.622  10.426   5.771  0.0405 -0.2906 -0.2224
  233MOL0     C32081   8.561  10.420   5.664  0.1388  0.0781  0.0659
  233MOL0     C32082   9.078   9.993   6.018  0.1895  0.4914  0.2782
  233MOL0     C32083   9.163   9.881   6.006 -0.1167  0.5488 -0.6443
  233MOL0     C32084   9.102   9.750   5.980  0.2981  0.0757 -0.5062
  233MOL0     H32085   9.741   9.925   6.082  1.5275  1.2558  2.2654
  233MOL0     H32086   9.966   9.797   6.149 -0.5381  0.4068  1.4832
  233MOL0     H32087  10.076   9.585   6.001  2.1863 -0.5015  1.4307
  233MOL0     H32088   9.972   9.436   6.007 -0.5059 -0.0364  0.9921
  233MOL0     H32089  10.211   9.482   6.184 -2.8126 -0.7358  1.5414
  233MOL0     H32090  10.150   9.321   6.122 -2.7086  0.5849 -1.3096
  233MOL0     H32091  10.215   9.389   5.900  0.5590 -0.5518  0.3384
  233MOL0     H32092  10.283   9.538   5.969 -1.6142  0.6764  0.3789
  233MOL0     H32093  10.419   9.368   6.112  1.4534 -0.2452 -0.7029
  233MOL0     H32094  10.369   9.250   5.986 -3.4602  0.7394 -1.6337
  233MOL0     H32095  10.516   9.371   5.825 -2.2861 -0.6171  1.1796
  233MOL0     H32096  10.609   9.336   5.964  0.7133  0.8240 -1.3161
  233MOL0     H32097  10.506   9.620   5.894  1.4165  0.0213 -2.1875
  233MOL0     H32098  10.558   9.581   6.052  1.7538 -2.1496  1.5475
  233MOL0     H32099  10.705   9.571   5.785 -0.0776 -1.3844  0.2421
  233MOL0     H32100  10.789   9.511   5.932 -3.0395 -2.6713  0.0912
  233MOL0     H32101  10.680   9.790   5.893  0.1121  0.3877 -0.1968
  233MOL0     H32102  10.777   9.726   6.032 -0.2464 -1.7129  0.0658
  233MOL0     H32103  11.020   9.644   5.987 -1.3986 -1.3211 -0.5105
  233MOL0     H32104  11.256   9.620   5.861  0.8555  0.0547 -0.5829
  233MOL0     H32105  11.274   9.734   5.731  4.6339 -2.7168  1.1544
  233MOL0     H32106  11.161   9.459   5.674  2.6150 -1.6400  2.3509
  233MOL0     H32107  11.231   9.568   5.552 -1.5926  1.9504  0.7320
  233MOL0     H32108  11.453   9.547   5.689 -1.7876  2.4458 -0.5499
  233MOL0     H32109  11.382   9.413   5.771 -1.6719 -2.3119 -1.9580
  233MOL0     H32110  11.330   9.273   5.564 -1.4016 -0.5181 -1.7800
  233MOL0     H32111  11.407   9.410   5.470 -1.1315 -3.6791 -2.1919
  233MOL0     H32112  11.457   9.239   5.350  0.3338  2.0998  0.7980
  233MOL0     H32113  11.617   9.160   5.062 -2.8119 -2.2677 -2.9549
  233MOL0     H32114  11.472   9.127   5.154  0.1757 -0.8745 -0.9358
  233MOL0     H32115  11.594   9.000   5.138  0.1863 -0.0110  0.4040
  233MOL0     H32116  12.057   8.919   5.049  1.7889 -0.0993  0.0532
  233MOL0     H32117  12.243   8.791   4.995  2.3427  2.6478 -1.2216
  233MOL0     H32118  12.458   8.725   4.974  0.8682 -2.1906 -0.5119
  233MOL0     H32119  12.555   8.823   5.085  3.1993 -1.1610  0.5385
  233MOL0     H32120  12.722   8.686   5.022 -1.3992  1.4794 -0.4842
  233MOL0     H32121  12.650   8.570   5.136  0.6501  0.1100 -0.2603
  233MOL0     H32122  12.591   8.575   4.837 -1.9468 -0.8421 -0.1226
  233MOL0     H32123  12.516   8.473   4.969  0.4144  1.2120  3.3661
  233MOL0     H32124  12.747   8.391   5.020 -0.0454  0.4130  0.2343
  233MOL0     H32125  12.803   8.475   4.880 -0.8103  0.5677 -1.6691
  233MOL0     H32126  12.598   8.244   4.891 -1.0678 -1.0819 -3.1221
  233MOL0     H32127  12.620   8.337   4.749 -1.3201 -1.4432 -0.1937
  233MOL0     H32128  12.869   8.237   4.864 -0.6868  0.7681 -0.1686
  233MOL0     H32129  12.806   8.245   4.690 -1.3021  4.2701  0.7865
  233MOL0     H32130  12.734   8.042   4.912  1.6355  0.2957  1.3583
  233MOL0     H32131  12.858   8.015   4.784  1.5385  0.8450 -0.0054
  233MOL0     H32132  12.549   8.048   4.722  0.6697  1.9998 -1.1438
  233MOL0     H32133  12.655   7.903   4.705  1.1860  0.3150 -2.0329
  233MOL0     H32134  12.354   8.749   5.408  0.3757  0.2094  0.0051
  233MOL0     H32135  12.165   8.873   5.477  4.2490 -0.8129  0.6795
  233MOL0     H32136  11.914   9.102   5.494  0.3914  1.2739  0.1643
  233MOL0     H32137  11.758   9.215   5.656 -1.0043  1.6112  0.6312
  233MOL0     H32138   9.742   9.440   6.123  1.5481  0.2980  0.8565
  233MOL0     H32139   9.547   9.549   6.057  0.2961  1.1080 -2.3936
  233MOL0     H32140   9.448  10.055   6.040 -0.6935  0.8031  0.0871
  233MOL0     H32141   9.302  10.238   6.068 -0.4087  0.6641 -0.1644
  233MOL0     H32142   9.094  10.388   6.106 -0.6849  0.2391  1.1309
  233MOL0     H32143   9.093  10.358   5.927 -2.8191 -1.7015 -1.8697
  233MOL0     H32144   8.920  10.532   5.997  0.3926  0.1360  1.4469
  233MOL0     H32145   8.843  10.407   6.096 -0.6794 -1.3781 -0.3368
  233MOL0     H32146   8.881  10.388   5.796 -0.6808  0.2166 -1.8559
  233MOL0     H32147   8.825  10.257   5.906 -1.1109  0.0223 -1.1314
  233MOL0     H32148   8.733  10.546   5.880  2.3144 -1.1689 -1.9446
  233MOL0     H32149   8.634  10.441   5.980 -1.1186  1.0675 -1.0667
  233MOL0     H32150   8.503  10.429   5.574  0.6547  4.0748 -0.0368
  233MOL0     H32151   8.971   9.983   6.008  0.4467 -2.0740 -0.6580
  233MOL0     H32152   9.129   9.677   6.057 -1.9855  0.2535  0.5605
  233MOL0     H32153   8.993   9.754   5.991  0.3270  2.7341 -0.5422
  233MOL0     H32154   9.128   9.718   5.879  3.1607 -0.8305  0.4218
  234MOL0     O32155  11.270   4.681   1.503 -0.1332  1.1801  0.4760
  234MOL0     C32156  11.294   4.703   1.626 -0.8326  0.5712  0.6968
  234MOL0     O32157  11.231   4.805   1.700  0.7191  0.1350  0.3888
  234MOL0     C32158  11.136   4.877   1.630 -0.3984  0.6584 -0.0576
  234MOL0     C32159  11.007   4.840   1.652  0.0383  0.1759 -0.2025
  234MOL0     C32160  10.906   4.901   1.577 -0.8245 -0.4745  0.1079
  234MOL0     C32161  10.934   5.005   1.484 -0.0996 -0.0954  0.2129
  234MOL0     O32162  10.827   5.064   1.421 -0.0159  0.0514  0.4993
  234MOL0     C32163  10.826   5.195   1.378 -0.1570 -0.3628  0.4888
  234MOL0     C32164  10.732   5.205   1.255 -0.6492  0.7279 -0.7779
  234MOL0     C32165  10.708   5.349   1.204  0.6789 -0.7452  0.2391
  234MOL0     C32166  10.833   5.396   1.135 -0.2186  0.8309  0.0517
  234MOL0     C32167  10.811   5.536   1.069 -0.7190  0.4714  0.5335
  234MOL0     C32168  10.925   5.546   0.966 -0.0847 -0.4794 -0.3990
  234MOL0     C32169  10.907   5.686   0.910  0.2330  0.1985  0.5523
  234MOL0     C32170  11.023   5.729   0.813  1.2142 -0.7771 -0.1205
  234MOL0     N32171  11.153   5.700   0.875  0.0462  0.8064 -0.7880
  234MOL0     C32172  11.256   5.635   0.816  0.0835 -0.4645 -0.2121
  234MOL0     C32173  11.361   5.666   0.894  0.1058  0.7671  0.4433
  234MOL0     C32174  11.490   5.602   0.870 -0.6672 -0.4241  0.2528
  234MOL0     C32175  11.551   5.558   1.011  0.7317 -0.7556 -0.3984
  234MOL0     C32176  11.668   5.455   1.012  0.6102 -0.3348  0.8307
  234MOL0     C32177  11.722   5.424   1.156 -0.6479 -0.5083  0.0450
  234MOL0     O32178  11.807   5.535   1.193 -0.0101 -0.1118 -0.1402
  234MOL0     C32179  11.915   5.523   1.272 -0.0447 -0.4207  0.0026
  234MOL0     C32180  11.932   5.443   1.384  0.5108  0.5640 -0.0839
  234MOL0     C32181  12.029   5.456   1.478  0.3814 -0.6501 -0.3500
  234MOL0     C32182  12.009   5.377   1.601 -0.2031  0.2355 -0.3886
  234MOL0     C32183  12.139   5.541   1.442 -0.5442 -0.4125 -0.1537
  234MOL0     C32184  12.263   5.540   1.523 -0.8522  0.4859  0.0642
  234MOL0     O32185  12.352   5.649   1.508 -0.4195 -0.0517 -0.4045
  234MOL0     C32186  12.452   5.687   1.592  0.2045 -0.1761  0.2570
  234MOL0     C32187  12.473   5.633   1.726 -0.4480  0.7594 -0.7733
  234MOL0     C32188  12.581   5.684   1.800 -0.0810 -0.6730 -0.4568
  234MOL0     C32189  12.666   5.781   1.761 -0.1147 -1.1892 -0.3688
  234MOL0     O32190  12.770   5.805   1.848  0.9395 -0.3035  0.6699
  234MOL0     C32191  12.864   5.900   1.815  0.1351  0.9581  0.5686
  234MOL0     C32192  12.962   5.916   1.930  0.0946 -0.4143  0.9304
  234MOL0     C32193  13.041   6.046   1.895 -0.7377  0.4862  0.4345
  234MOL0     C32194  13.144   6.060   2.003 -0.3496 -0.1161 -0.3218
  234MOL0     C32195  13.232   6.182   1.988  0.2619  0.6684 -0.7454
  234MOL0     C32196  13.330   6.192   2.109 -0.4104  0.3861  0.2921
  234MOL0     C32197  13.325   6.333   2.179 -0.3835  0.2023 -0.3047
  234MOL0     C32198  13.390   6.332   2.317 -0.3044  0.4215  0.9162
  234MOL0    Cl32199  13.572   6.316   2.293 -0.1169 -0.3657  0.1887
  234MOL0     C32200  12.638   5.844   1.634  0.1315 -0.3883 -1.2274
  234MOL0     C32201  12.535   5.798   1.547 -0.0834  0.8774 -0.8179
  234MOL0     O32202  12.287   5.444   1.599 -0.1602 -0.2727  0.7532
  234MOL0     C32203  12.133   5.621   1.324 -1.6253 -1.3994  0.1761
  234MOL0     C32204  12.012   5.618   1.248 -0.4025 -0.1111 -0.2514
  234MOL0     N32205  11.315   5.747   0.995  0.2569 -0.0329 -0.0309
  234MOL0     N32206  11.189   5.774   0.983  0.0928 -0.1319  0.5656
  234MOL0     C32207  11.062   5.044   1.458 -0.7216 -0.3641  0.2365
  234MOL0     C32208  11.168   4.976   1.537  0.1307  0.1257  0.3338
  234MOL0     C32209  11.417   4.651   1.703 -0.2168 -0.6198  0.3776
  234MOL0     C32210  11.409   4.641   1.844  0.3105  0.0933 -0.6561
  234MOL0     C32211  11.519   4.597   1.923  0.2687 -0.4585 -0.0139
  234MOL0     C32212  11.629   4.548   1.866  0.1605 -0.6899  0.1453
  234MOL0     O32213  11.737   4.488   1.919  0.4201  0.4960 -0.3193
  234MOL0     C32214  11.725   4.467   2.058  0.2923 -1.0019  1.0905
  234MOL0     C32215  11.855   4.410   2.128  0.0497  0.3771  0.6640
  234MOL0     C32216  11.831   4.348   2.262 -0.6150 -0.7216 -0.8822
  234MOL0     C32217  11.947   4.261   2.308 -0.4444  0.0097 -0.1270
  234MOL0     C32218  11.936   4.207   2.447  0.6442  0.2454 -0.2288
  234MOL0     C32219  11.931   4.163   2.558 -0.1525  0.0246  0.9826
  234MOL0     C32220  11.636   4.564   1.725 -0.1342 -0.2652 -0.8178
  234MOL0     C32221  11.535   4.608   1.645 -0.3251 -0.3281  0.1347
  234MOL0     C32222  11.561   4.639   1.498  0.5216  0.0778 -0.2510
  234MOL0     H32223  10.981   4.760   1.721 -0.8864 -0.6117 -1.4129
  234MOL0     H32224  10.805   4.862   1.580 -1.0592  0.1765  1.1490
  234MOL0     H32225  10.925   5.229   1.346  0.1309 -0.7810  0.9392
  234MOL0     H32226  10.790   5.268   1.451  4.1285  1.2820  1.2549
  234MOL0     H32227  10.776   5.139   1.179  3.1442  1.1403  0.8012
  234MOL0     H32228  10.641   5.157   1.290 -0.6146  1.6773  0.6777
  234MOL0     H32229  10.623   5.346   1.136  1.8205 -3.0323 -1.2338
  234MOL0     H32230  10.690   5.431   1.274  1.4587  0.8206 -1.3449
  234MOL0     H32231  10.911   5.415   1.208 -0.1754  1.0523 -0.0514
  234MOL0     H32232  10.873   5.321   1.066  0.5366  3.3713 -2.4995
  234MOL0     H32233  10.815   5.608   1.150 -1.1040  0.2964  0.7100
  234MOL0     H32234  10.717   5.532   1.013  0.7231 -0.2901 -2.0320
  234MOL0     H32235  11.026   5.519   0.996 -0.1078  0.5035  0.6176
  234MOL0     H32236  10.891   5.482   0.884 -4.5657 -0.1958  0.9492
  234MOL0     H32237  10.901   5.742   1.003  2.8031 -0.9473  1.4699
  234MOL0     H32238  10.814   5.703   0.854  0.8884  1.3444 -0.2335
  234MOL0     H32239  11.019   5.678   0.716  3.4465  1.5575 -1.5589
  234MOL0     H32240  11.011   5.835   0.788 -0.8299 -0.6686  1.0980
  234MOL0     H32241  11.264   5.588   0.719  1.7442  0.6919 -0.6901
  234MOL0     H32242  11.562   5.669   0.823 -2.2454  0.4899 -0.9356
  234MOL0     H32243  11.481   5.512   0.808 -0.6392 -0.7820  0.7568
  234MOL0     H32244  11.593   5.648   1.056 -1.5792 -0.7005  1.8434
  234MOL0     H32245  11.471   5.531   1.080 -2.4594 -0.5733 -3.7249
  234MOL0     H32246  11.638   5.361   0.965  2.7622 -1.2910  1.2224
  234MOL0     H32247  11.749   5.508   0.961  0.3576 -0.0708  0.7026
  234MOL0     H32248  11.639   5.417   1.227 -2.2521  0.0551 -1.6954
  234MOL0     H32249  11.780   5.332   1.144  1.7852  1.0010 -0.2898
  234MOL0     H32250  11.844   5.384   1.403 -0.3920  0.6987 -3.2711
  234MOL0     H32251  11.909   5.333   1.607  0.3342 -0.8051  2.4330
  234MOL0     H32252  12.031   5.443   1.686 -0.2621 -1.3835  0.9371
  234MOL0     H32253  12.077   5.293   1.613  1.5523  1.8630  2.0348
  234MOL0     H32254  12.414   5.555   1.772 -1.1437  1.9557  0.4473
  234MOL0     H32255  12.603   5.631   1.892 -0.3025 -0.9955 -0.5882
  234MOL0     H32256  12.907   5.877   1.717 -0.6215  0.7254  0.2828
  234MOL0     H32257  12.814   5.996   1.799 -2.3848 -0.4133 -0.1940
  234MOL0     H32258  12.903   5.919   2.023  0.9548  1.3113  1.4570
  234MOL0     H32259  13.029   5.830   1.941  0.3332 -0.4572 -0.6599
  234MOL0     H32260  12.977   6.132   1.875  0.6532  1.7355  1.1690
  234MOL0     H32261  13.102   6.025   1.807 -3.0509 -2.9453 -0.5803
  234MOL0     H32262  13.220   5.982   1.995  2.3071  1.9405  2.3359
  234MOL0     H32263  13.104   6.065   2.105 -2.6865  0.4190 -1.1877
  234MOL0     H32264  13.291   6.168   1.896 -1.3498 -0.7441 -1.6153
  234MOL0     H32265  13.172   6.272   1.976 -0.6552 -0.0406 -1.6022
  234MOL0     H32266  13.426   6.157   2.071 -0.7847  0.1144 -0.4154
  234MOL0     H32267  13.301   6.121   2.188 -2.4431 -1.2141 -1.7491
  234MOL0     H32268  13.219   6.354   2.193 -1.0875 -0.9547 -3.1851
  234MOL0     H32269  13.377   6.410   2.121 -1.5784  0.5355 -0.9532
  234MOL0     H32270  13.359   6.255   2.388 -1.0941  1.6025  1.8788
  234MOL0     H32271  13.358   6.431   2.349 -2.9282 -0.0626  0.0739
  234MOL0     H32272  12.704   5.917   1.588 -1.8067  0.9082 -2.0850
  234MOL0     H32273  12.512   5.858   1.460 -0.8456  0.8602 -0.6347
  234MOL0     H32274  12.218   5.678   1.288 -0.0047 -3.1923  1.0389
  234MOL0     H32275  11.991   5.689   1.169 -1.4634 -2.2677 -2.0229
  234MOL0     H32276  11.070   5.130   1.393 -1.8932 -1.3837 -1.3257
  234MOL0     H32277  11.270   4.997   1.508 -0.1886  1.3831  0.0442
  234MOL0     H32278  11.317   4.673   1.892  0.2921 -1.9040  0.7613
  234MOL0     H32279  11.508   4.626   2.027  0.8314  0.1924 -0.1277
  234MOL0     H32280  11.704   4.559   2.112 -0.2634 -0.4415 -0.0565
  234MOL0     H32281  11.635   4.406   2.072  0.7188 -2.1278 -0.7119
  234MOL0     H32282  11.932   4.486   2.135  0.4737  0.0754 -0.5270
  234MOL0     H32283  11.891   4.332   2.060 -0.6660  1.8434 -1.4908
  234MOL0     H32284  11.824   4.432   2.331  1.3247  0.3715 -1.9406
  234MOL0     H32285  11.737   4.293   2.253 -0.7079 -0.2909 -3.1551
  234MOL0     H32286  12.037   4.318   2.330  0.1027 -1.4787  1.7280
  234MOL0     H32287  11.952   4.176   2.238 -0.7007  0.9378 -1.3054
  234MOL0     H32288  11.916   4.120   2.655 -2.6269  1.4503  1.3184
  234MOL0     H32289  11.731   4.528   1.687 -0.2532 -1.4528 -0.0510
  234MOL0     H32290  11.511   4.556   1.447  1.2344 -1.1032  0.8922
  234MOL0     H32291  11.519   4.737   1.475  0.3120 -0.1154 -0.6948
  234MOL0     H32292  11.663   4.623   1.463  0.3987 -3.2223  0.5263
  235MOL0     O32293   2.295  10.744   6.986  0.4479 -0.3867 -0.2302
  235MOL0     C32294   2.230  10.837   6.937 -0.1828  0.5377  0.2304
  235MOL0     O32295   2.237  10.964   6.987 -0.3726 -0.2230 -0.1713
  235MOL0     C32296   2.359  11.000   7.040  0.2080 -0.7990 -0.7372
  235MOL0     C32297   2.472  11.018   6.961  0.0533 -0.7493  0.2088
  235MOL0     C32298   2.582  11.081   7.004 -0.0285 -0.0939 -0.2118
  235MOL0     C32299   2.585  11.124   7.134  0.3630 -0.2868  0.0495
  235MOL0     O32300   2.698  11.192   7.166  0.0876 -0.1650  0.5569
  235MOL0     C32301   2.712  11.239   7.300 -0.5211 -0.5214  0.0143
  235MOL0     C32302   2.863  11.244   7.323 -0.2612 -0.4655  0.0256
  235MOL0     C32303   2.938  11.369   7.255 -0.2662 -0.2020 -0.1338
  235MOL0     C32304   2.898  11.502   7.314 -0.1633 -0.1867  0.7913
  235MOL0     C32305   2.933  11.615   7.218  0.7974 -0.2660  0.4934
  235MOL0     C32306   3.087  11.649   7.229  0.0662 -0.0063  0.0178
  235MOL0     C32307   3.125  11.802   7.198 -0.0304  0.2667  0.1399
  235MOL0     C32308   3.268  11.811   7.231  0.4606 -0.8008  0.2054
  235MOL0     N32309   3.317  11.949   7.209  0.0493  0.2513 -0.5444
  235MOL0     C32310   3.262  12.057   7.265 -0.2503 -0.6878  0.8903
  235MOL0     C32311   3.340  12.153   7.217  0.4940 -0.3288 -0.4553
  235MOL0     C32312   3.315  12.302   7.233 -0.4092  0.0953  0.9982
  235MOL0     C32313   3.436  12.387   7.210 -0.0746  0.4483 -0.1740
  235MOL0     C32314   3.543  12.369   7.329 -0.5931 -0.0082 -0.3701
  235MOL0     C32315   3.676  12.441   7.301 -0.3821 -0.3710  0.5542
  235MOL0     O32316   3.768  12.418   7.410  0.4124 -0.5351 -0.2944
  235MOL0     C32317   3.870  12.517   7.417  0.2285  0.8887 -1.2078
  235MOL0     C32318   3.899  12.610   7.319  0.6384  0.3347  0.2059
  235MOL0     C32319   4.005  12.703   7.339  0.8159 -0.2059 -0.4105
  235MOL0     C32320   4.013  12.805   7.228  0.0873  0.3811 -0.2730
  235MOL0     C32321   4.089  12.695   7.448 -0.3897  0.0857 -0.1414
  235MOL0     C32322   4.201  12.782   7.478  0.2036 -0.7858  0.9846
  235MOL0     O32323   4.301  12.783   7.375 -0.0178  0.2898 -0.1734
  235MOL0     C32324   4.385  12.895   7.369 -0.4377 -0.7814  0.0783
  235MOL0     C32325   4.346  13.026   7.421 -0.1978 -0.1991 -0.7550
  235MOL0     C32326   4.419  13.137   7.397 -0.2769 -0.1932 -1.1660
  235MOL0     C32327   4.541  13.133   7.332  0.2782  2.0598 -0.5073
  235MOL0     O32328   4.617  13.238   7.302 -0.2670  0.2747 -0.3811
  235MOL0     C32329   4.610  13.356   7.379  0.0695 -0.5011  0.2057
  235MOL0     C32330   4.745  13.426   7.368 -1.2412  0.1833  0.8332
  235MOL0     C32331   4.765  13.507   7.234  0.3949  0.7682 -0.2494
  235MOL0     C32332   4.860  13.624   7.252  0.5406  0.2509  0.4760
  235MOL0     C32333   4.899  13.677   7.120 -0.0507  0.3188 -0.0201
  235MOL0     C32334   5.011  13.779   7.126 -0.6055 -1.0000 -0.4518
  235MOL0     C32335   5.055  13.847   6.991  0.1697 -0.1381  0.5523
  235MOL0     C32336   5.115  13.989   7.008 -0.2154 -0.3164 -0.1175
  235MOL0    Cl32337   4.984  14.105   7.070 -0.2133  0.3157 -0.0013
  235MOL0     C32338   4.576  13.011   7.270  0.6721 -0.4365  0.4595
  235MOL0     C32339   4.499  12.896   7.283 -0.5300  0.2295 -0.4165
  235MOL0     O32340   4.214  12.832   7.589  0.0093  0.0694  0.4314
  235MOL0     C32341   4.068  12.585   7.537 -0.6193 -0.0506 -1.0772
  235MOL0     C32342   3.953  12.503   7.528 -0.4636  0.0059 -0.8993
  235MOL0     N32343   3.435  12.101   7.137 -0.7989 -0.0142  0.0658
  235MOL0     N32344   3.430  11.979   7.143  0.5241  0.4938 -0.4682
  235MOL0     C32345   2.476  11.104   7.220 -0.3881 -0.0136  0.2672
  235MOL0     C32346   2.362  11.040   7.170 -0.2819 -0.2787 -0.4523
  235MOL0     C32347   2.120  10.819   6.842 -0.0059 -0.1031 -0.4164
  235MOL0     C32348   2.019  10.920   6.838  0.3897  0.9958 -0.4960
  235MOL0     C32349   1.925  10.913   6.731 -0.1332 -0.1260 -0.6800
  235MOL0     C32350   1.942  10.820   6.627 -0.3218 -0.1751 -0.2595
  235MOL0     O32351   1.852  10.816   6.518 -0.6675  0.4264  0.2269
  235MOL0     C32352   1.807  10.935   6.455 -0.5449  0.4503 -0.4792
  235MOL0     C32353   1.709  10.905   6.352 -0.2372  0.5784 -0.0210
  235MOL0     C32354   1.585  10.826   6.401 -0.2077 -0.2813  0.3527
  235MOL0     C32355   1.524  10.878   6.534 -0.4693  0.3547  0.5133
  235MOL0     C32356   1.399  10.810   6.563  1.4636  0.5924  0.7619
  235MOL0     C32357   1.290  10.759   6.593  1.2974 -0.0823  0.1053
  235MOL0     C32358   2.021  10.705   6.647 -0.5481 -0.4898 -0.1546
  235MOL0     C32359   2.113  10.704   6.753  0.1427  0.4312  0.3427
  235MOL0     C32360   2.212  10.581   6.765  0.1134 -0.4282  0.0960
  235MOL0     H32361   2.475  10.977   6.861 -0.5791 -0.4273  0.0534
  235MOL0     H32362   2.664  11.104   6.937 -0.0797  2.7094  0.5614
  235MOL0     H32363   2.681  11.162   7.372  0.4855 -2.3551 -1.4099
  235MOL0     H32364   2.663  11.336   7.311 -1.1160 -0.7339 -0.6981
  235MOL0     H32365   2.876  11.247   7.432  0.3206 -0.6020 -0.0384
  235MOL0     H32366   2.896  11.144   7.291  2.0329 -0.3173  1.7045
  235MOL0     H32367   3.044  11.346   7.261 -0.3284 -0.2605  0.9806
  235MOL0     H32368   2.907  11.381   7.151  2.0932  0.8102 -0.7935
  235MOL0     H32369   2.789  11.493   7.315 -0.0818 -2.0251 -0.8764
  235MOL0     H32370   2.943  11.524   7.411  1.6700  0.4100 -0.1313
  235MOL0     H32371   2.874  11.703   7.243  3.7725  2.3042 -0.8892
  235MOL0     H32372   2.918  11.591   7.112  3.5449 -3.8624  0.7224
  235MOL0     H32373   3.123  11.623   7.329  2.2461 -3.2643 -1.4569
  235MOL0     H32374   3.135  11.588   7.153  2.4090  2.2364 -0.4336
  235MOL0     H32375   3.067  11.871   7.259 -0.0064  0.0610  0.3928
  235MOL0     H32376   3.105  11.823   7.092 -0.7749 -1.1598 -0.0368
  235MOL0     H32377   3.268  11.796   7.339 -1.5269  0.3312  0.4028
  235MOL0     H32378   3.321  11.738   7.169 -0.1943 -0.6985 -0.4885
  235MOL0     H32379   3.175  12.062   7.331 -0.4347  0.3850  0.5839
  235MOL0     H32380   3.283  12.310   7.338  0.9927 -0.7378  1.5213
  235MOL0     H32381   3.230  12.325   7.169 -0.1921  0.3785  0.8103
  235MOL0     H32382   3.487  12.351   7.120  2.8475  1.5174  0.9371
  235MOL0     H32383   3.410  12.490   7.183  2.0852  0.8623 -0.8827
  235MOL0     H32384   3.505  12.406   7.424  2.7781 -2.0272  1.9844
  235MOL0     H32385   3.563  12.262   7.340 -2.7163 -0.3441  0.5241
  235MOL0     H32386   3.722  12.407   7.208 -5.0350  1.5249 -2.8311
  235MOL0     H32387   3.656  12.547   7.283 -0.1957 -0.6726 -1.6664
  235MOL0     H32388   3.843  12.602   7.226  0.5675 -1.1145  0.3512
  235MOL0     H32389   3.926  12.870   7.235 -0.8898 -0.9196 -0.0364
  235MOL0     H32390   4.021  12.766   7.126 -1.6431  0.2239 -0.3787
  235MOL0     H32391   4.106  12.861   7.241  2.0153 -2.8167  0.9241
  235MOL0     H32392   4.252  13.044   7.472 -0.2702 -1.2354 -0.5084
  235MOL0     H32393   4.378  13.227   7.442  0.1759  0.8017 -2.6423
  235MOL0     H32394   4.530  13.422   7.347  1.2490  2.0124  2.1252
  235MOL0     H32395   4.591  13.326   7.482  0.6866  0.6761  0.6729
  235MOL0     H32396   4.736  13.504   7.444 -1.5843  2.0824 -1.0642
  235MOL0     H32397   4.831  13.363   7.391 -1.9323 -0.5374  1.5199
  235MOL0     H32398   4.672  13.544   7.191 -1.1084 -2.1547  0.2399
  235MOL0     H32399   4.799  13.434   7.161  0.2169  0.6921 -0.2557
  235MOL0     H32400   4.941  13.591   7.319 -0.4655 -0.1722  1.5258
  235MOL0     H32401   4.807  13.698   7.312 -1.2629  0.9211 -1.8360
  235MOL0     H32402   4.938  13.594   7.059  3.7128 -0.1457  2.6141
  235MOL0     H32403   4.812  13.724   7.073 -1.0590 -1.3987  0.0450
  235MOL0     H32404   5.099  13.731   7.170 -0.7712  0.2817  1.3947
  235MOL0     H32405   4.978  13.859   7.193  1.2575  1.1609 -1.9811
  235MOL0     H32406   4.964  13.847   6.930 -0.7422 -2.6699  1.7841
  235MOL0     H32407   5.128  13.788   6.935  0.7797  1.9112 -0.9273
  235MOL0     H32408   5.158  14.014   6.911 -1.3960 -2.2220 -1.1845
  235MOL0     H32409   5.192  13.980   7.086 -1.3995  0.0430  1.1369
  235MOL0     H32410   4.670  13.000   7.216  2.2597  0.0278  2.9670
  235MOL0     H32411   4.525  12.798   7.245 -4.0476 -1.4248  1.0166
  235MOL0     H32412   4.139  12.565   7.617  0.4079  0.1510 -1.9138
  235MOL0     H32413   3.931  12.420   7.595  0.1068 -0.5697 -1.4036
  235MOL0     H32414   2.471  11.133   7.324 -1.9931 -1.7651  0.7285
  235MOL0     H32415   2.273  11.027   7.230 -2.6250  2.0075 -3.0839
  235MOL0     H32416   2.008  10.997   6.914  1.3523 -0.7084  1.4737
  235MOL0     H32417   1.848  10.989   6.730 -0.2181 -0.1967 -0.1117
  235MOL0     H32418   1.758  11.003   6.526 -0.9203  1.5131 -1.7129
  235MOL0     H32419   1.898  10.987   6.423  0.1190  2.1572  3.5456
  235MOL0     H32420   1.757  10.846   6.274 -0.5009  1.2736 -0.7132
  235MOL0     H32421   1.680  11.002   6.311 -1.7253 -0.3929 -1.4175
  235MOL0     H32422   1.512  10.849   6.323  1.5428  0.7284 -1.0822
  235MOL0     H32423   1.596  10.717   6.407 -3.2371 -0.5945  1.7240
  235MOL0     H32424   1.501  10.984   6.523 -1.1292  0.0303 -1.8945
  235MOL0     H32425   1.604  10.863   6.608  1.0224  0.0984 -1.0776
  235MOL0     H32426   1.199  10.707   6.617  1.8807 -2.8581 -3.0032
  235MOL0     H32427   2.027  10.636   6.563 -0.9048 -0.7487  0.0264
  235MOL0     H32428   2.310  10.599   6.720 -0.6717  3.0302 -0.5370
  235MOL0     H32429   2.215  10.556   6.871  4.5815 -0.5901  0.0869
  235MOL0     H32430   2.165  10.502   6.705 -1.8761  0.8563 -0.1467
  236MOL0     O32431   0.768   5.837  10.169 -0.4636  0.6059  0.0472
  236MOL0     C32432   0.757   5.901  10.064 -0.4564  1.0195 -0.2575
  236MOL0     O32433   0.861   5.942   9.987 -0.7663  0.0896 -0.1248
  236MOL0     C32434   0.994   5.935  10.026 -0.6852  0.3554  0.2794
  236MOL0     C32435   1.085   5.870   9.948 -0.6331  0.3380 -0.6024
  236MOL0     C32436   1.211   5.852   9.997 -0.0059 -0.1932  0.7647
  236MOL0     C32437   1.262   5.913  10.113 -0.2789  0.1068  0.5943
  236MOL0     O32438   1.387   5.900  10.165 -0.5195  0.7839  0.3228
  236MOL0     C32439   1.453   5.782  10.138  0.1491  1.0846  0.3159
  236MOL0     C32440   1.599   5.802  10.143  0.5939 -0.1924  0.4253
  236MOL0     C32441   1.680   5.682  10.086  0.0611 -0.0612 -0.3406
  236MOL0     C32442   1.838   5.698  10.092 -0.4058 -0.3614 -0.0486
  236MOL0     C32443   1.909   5.564  10.080 -0.3896 -0.0431 -0.1082
  236MOL0     C32444   2.063   5.582  10.055  0.2183  0.4230  0.6330
  236MOL0     C32445   2.154   5.460  10.062 -0.1823  0.1392 -0.8371
  236MOL0     C32446   2.099   5.346   9.988 -0.0242 -0.2638 -0.3086
  236MOL0     N32447   2.198   5.229   9.997  0.1149 -0.0183 -0.1107
  236MOL0     C32448   2.244   5.164  10.109  0.1228 -0.9547 -1.0331
  236MOL0     C32449   2.326   5.068  10.059 -0.2025 -0.5741 -0.3222
  236MOL0     C32450   2.418   5.000  10.150  0.6262  0.7172  0.0369
  236MOL0     C32451   2.366   4.855  10.175 -0.3193 -0.1660 -0.2219
  236MOL0     C32452   2.462   4.764  10.241 -0.1445  0.5227 -0.1031
  236MOL0     C32453   2.384   4.656  10.311  0.2547 -0.2472  0.8329
  236MOL0     O32454   2.483   4.570  10.362  0.4797 -0.3764 -0.3398
  236MOL0     C32455   2.530   4.467  10.281 -0.8506  0.4286  0.1757
  236MOL0     C32456   2.488   4.442  10.155  0.2246 -0.1418 -0.4465
  236MOL0     C32457   2.543   4.349  10.070 -0.8090 -0.3542  0.2113
  236MOL0     C32458   2.499   4.340   9.928  0.0347 -0.5992  0.2019
  236MOL0     C32459   2.632   4.259  10.129 -0.0413 -0.1379  0.0237
  236MOL0     C32460   2.691   4.137  10.063 -0.1795 -0.0373 -0.0639
  236MOL0     O32461   2.827   4.119  10.080  0.2726  0.0153  0.1656
  236MOL0     C32462   2.891   4.046   9.985 -0.0126 -0.2408  0.1670
  236MOL0     C32463   2.964   3.945  10.036  0.6654  0.2608  0.3935
  236MOL0     C32464   3.026   3.852   9.954  0.2438 -1.0046 -0.1476
  236MOL0     C32465   3.003   3.863   9.815  0.1635 -0.2949  0.1369
  236MOL0     O32466   3.045   3.771   9.733 -0.9296  0.8106 -0.3145
  236MOL0     C32467   2.994   3.638   9.745  0.3137  0.2786 -0.3918
  236MOL0     C32468   3.034   3.566   9.609  0.3374 -0.6082 -0.1048
  236MOL0     C32469   3.178   3.527   9.620 -0.1624  0.4739  0.0531
  236MOL0     C32470   3.211   3.421   9.508 -0.0945  0.2975 -0.4551
  236MOL0     C32471   3.353   3.371   9.512  0.2037  0.4598 -0.1749
  236MOL0     C32472   3.386   3.261   9.409  0.2874 -0.7915  0.3722
  236MOL0     C32473   3.527   3.223   9.412 -0.4614 -0.0248 -0.4601
  236MOL0     C32474   3.609   3.293   9.305  0.5608  0.2221  0.0491
  236MOL0    Cl32475   3.787   3.305   9.334 -0.2790  0.0099  0.1069
  236MOL0     C32476   2.921   3.969   9.761 -0.1378  0.9212 -0.2786
  236MOL0     C32477   2.865   4.062   9.845 -0.5573  0.9091  0.1383
  236MOL0     O32478   2.619   4.064   9.997 -0.0673 -0.8296  0.1501
  236MOL0     C32479   2.681   4.281  10.262  0.8845 -0.1122  0.0871
  236MOL0     C32480   2.623   4.379  10.339 -0.0420  0.5906 -0.6348
  236MOL0     N32481   2.340   5.081   9.924 -0.6981  0.3129  0.4340
  236MOL0     N32482   2.264   5.176   9.894  0.7388 -0.0843  1.0260
  236MOL0     C32483   1.178   5.996  10.187 -0.2170 -0.0626  1.3230
  236MOL0     C32484   1.043   6.003  10.152  0.3555  0.2878  0.8425
  236MOL0     C32485   0.613   5.933  10.019 -1.4121 -0.4064  1.1674
  236MOL0     C32486   0.594   5.958   9.882 -0.4197  1.2776 -0.0197
  236MOL0     C32487   0.475   5.993   9.830 -0.0744 -0.0088  0.5534
  236MOL0     C32488   0.371   6.012   9.921  0.2572  0.2633  1.2284
  236MOL0     O32489   0.251   6.058   9.863 -0.7760  0.5128 -0.3943
  236MOL0     C32490   0.140   6.001   9.917  0.1307  0.7911 -0.8171
  236MOL0     C32491   0.014   6.049   9.853  0.2701  0.5281  0.6255
  236MOL0     C32492  -0.074   5.933   9.804 -0.3686  0.3600 -0.1485
  236MOL0     C32493  -0.211   5.983   9.766  1.0030  0.1469 -0.0538
  236MOL0     C32494  -0.316   5.878   9.746 -0.6237  0.1430  0.1681
  236MOL0     C32495  -0.400   5.793   9.741  0.4347  0.8712 -0.0088
  236MOL0     C32496   0.392   5.986  10.055  0.1647 -0.0462 -0.4509
  236MOL0     C32497   0.511   5.953  10.104  0.0604 -0.3546 -0.2242
  236MOL0     C32498   0.529   5.944  10.254 -0.2216  0.7573 -0.6750
  236MOL0     H32499   1.045   5.823   9.859 -0.8187 -1.7598  0.5165
  236MOL0     H32500   1.277   5.790   9.938 -0.7547  0.4807 -0.8660
  236MOL0     H32501   1.433   5.733  10.042 -3.7203  0.0889  1.4425
  236MOL0     H32502   1.421   5.708  10.212 -3.2239 -0.6006 -2.5377
  236MOL0     H32503   1.626   5.892  10.088 -3.3686  2.3962  2.2833
  236MOL0     H32504   1.619   5.809  10.250 -0.3288  2.2406  0.4856
  236MOL0     H32505   1.657   5.588  10.138 -1.0228 -0.2407 -1.1000
  236MOL0     H32506   1.641   5.683   9.984  0.3648  2.5818 -0.5027
  236MOL0     H32507   1.855   5.762  10.005  0.3307  0.4060  0.6439
  236MOL0     H32508   1.875   5.747  10.182 -0.0443  1.5664 -1.1667
  236MOL0     H32509   1.866   5.511   9.994 -0.1220 -0.5781  0.0794
  236MOL0     H32510   1.891   5.513  10.175  0.1078  0.5090  0.2917
  236MOL0     H32511   2.074   5.629   9.957 -1.4219 -2.3186 -1.0014
  236MOL0     H32512   2.106   5.654  10.125  1.6114  0.1605  0.0786
  236MOL0     H32513   2.171   5.432  10.166 -2.1141  0.6283 -0.3380
  236MOL0     H32514   2.247   5.489  10.014 -0.9849  1.4243 -1.6683
  236MOL0     H32515   2.001   5.320  10.028 -0.9981  1.9600 -1.0659
  236MOL0     H32516   2.088   5.372   9.883 -0.0777 -2.1721 -0.8052
  236MOL0     H32517   2.223   5.191  10.212  2.8059  4.0572 -1.5225
  236MOL0     H32518   2.437   5.057  10.241  1.7601 -1.3175  1.1469
  236MOL0     H32519   2.521   4.998  10.116  0.3113  2.4124 -1.1776
  236MOL0     H32520   2.275   4.879  10.232  1.0063  2.4809  0.9320
  236MOL0     H32521   2.335   4.810  10.080 -2.2826  0.6152  0.0006
  236MOL0     H32522   2.539   4.729  10.171 -0.2031 -2.7747  1.3203
  236MOL0     H32523   2.517   4.816  10.320  1.5150  0.8161 -1.3892
  236MOL0     H32524   2.335   4.698  10.399 -1.5527 -2.2453  0.8557
  236MOL0     H32525   2.314   4.607  10.243  1.4885  0.4457 -1.0281
  236MOL0     H32526   2.422   4.509  10.102 -2.0080 -0.4370  1.7555
  236MOL0     H32527   2.411   4.276   9.922  1.4448 -2.8639  1.8219
  236MOL0     H32528   2.569   4.296   9.858 -1.0060 -0.6888 -0.8000
  236MOL0     H32529   2.477   4.441   9.890  2.6787  0.5669  1.4800
  236MOL0     H32530   2.967   3.933  10.144 -0.3881  0.6881  0.4827
  236MOL0     H32531   3.085   3.765   9.982 -2.1812 -2.8655 -0.3975
  236MOL0     H32532   3.035   3.584   9.831 -0.4734  1.3039  0.6567
  236MOL0     H32533   2.885   3.649   9.745  0.4473  1.7927 -0.7147
  236MOL0     H32534   2.967   3.480   9.604 -0.4907 -0.1382  1.7446
  236MOL0     H32535   3.010   3.636   9.529  1.5723 -0.0089  0.0267
  236MOL0     H32536   3.209   3.470   9.709  0.1172  0.2200 -0.2046
  236MOL0     H32537   3.251   3.608   9.616  0.0423  0.3033  0.2958
  236MOL0     H32538   3.194   3.469   9.411 -0.7460 -0.5988 -0.8028
  236MOL0     H32539   3.148   3.332   9.519  0.7307 -0.1817  0.5977
  236MOL0     H32540   3.410   3.464   9.497  1.2011  0.3668  2.4791
  236MOL0     H32541   3.376   3.340   9.614  2.4296 -0.4773 -0.9059
  236MOL0     H32542   3.359   3.301   9.310  1.5506  0.6442  0.5545
  236MOL0     H32543   3.321   3.177   9.436 -3.0755  1.2159 -0.8720
  236MOL0     H32544   3.537   3.116   9.395 -1.5941 -0.1032 -0.7186
  236MOL0     H32545   3.565   3.247   9.512 -0.1668 -0.7180 -0.3995
  236MOL0     H32546   3.575   3.397   9.300 -1.7819 -0.3470  1.8524
  236MOL0     H32547   3.576   3.247   9.211 -1.2496  1.4203  0.0420
  236MOL0     H32548   2.905   3.973   9.653  1.9020  1.2806 -0.5936
  236MOL0     H32549   2.807   4.141   9.797  0.2398  1.6562  0.3799
  236MOL0     H32550   2.760   4.218  10.301  0.4311 -0.3176  0.6948
  236MOL0     H32551   2.649   4.389  10.443 -2.6226  0.5749  0.0936
  236MOL0     H32552   1.220   6.051  10.271  0.9808  0.9308  0.1281
  236MOL0     H32553   0.981   6.055  10.224  2.0550  2.1266  1.0349
  236MOL0     H32554   0.684   5.946   9.821  1.9608  1.6332  3.1441
  236MOL0     H32555   0.443   5.993   9.727 -3.4645 -0.1732  1.4710
  236MOL0     H32556   0.145   5.892   9.905 -1.9444  0.6795 -1.2037
  236MOL0     H32557   0.122   6.020  10.023 -0.6854  1.4870 -1.0701
  236MOL0     H32558   0.036   6.124   9.776  2.6730 -0.2258  0.4940
  236MOL0     H32559  -0.045   6.093   9.933  1.2299  1.3255  0.9262
  236MOL0     H32560  -0.021   5.872   9.730  1.0173 -1.2329  2.0104
  236MOL0     H32561  -0.089   5.864   9.888  1.6452  1.3470  1.0876
  236MOL0     H32562  -0.190   6.039   9.674  3.4892 -0.6499 -0.0546
  236MOL0     H32563  -0.249   6.058   9.836  1.6104  0.3628  0.0505
  236MOL0     H32564  -0.473   5.714   9.745  1.5195 -0.1862 -0.3691
  236MOL0     H32565   0.317   6.028  10.120  3.1700  2.0233  1.9610
  236MOL0     H32566   0.570   5.847  10.285 -2.1121  0.6495  1.8135
  236MOL0     H32567   0.603   6.019  10.284  0.4524  0.2294 -0.9697
  236MOL0     H32568   0.432   5.963  10.300 -0.2114  0.2430 -0.4287
  237MOL0     O32569   5.492   1.881   4.746  0.1385  0.5011 -0.2470
  237MOL0     C32570   5.442   1.926   4.848  0.4697 -0.8626 -0.1003
  237MOL0     O32571   5.479   2.043   4.909 -0.4321  0.8247  0.5471
  237MOL0     C32572   5.597   2.094   4.859 -0.4075  0.3950  0.3112
  237MOL0     C32573   5.596   2.200   4.773  0.2679  0.1105  0.8348
  237MOL0     C32574   5.707   2.286   4.753 -0.1842 -0.3203 -0.6575
  237MOL0     C32575   5.823   2.253   4.827  0.1852 -0.3758 -0.0058
  237MOL0     O32576   5.937   2.338   4.833  0.7430 -0.1069  0.0788
  237MOL0     C32577   5.941   2.461   4.763  0.0990 -0.2926  1.0618
  237MOL0     C32578   6.074   2.526   4.758 -0.9992  0.5391  0.3658
  237MOL0     C32579   6.177   2.454   4.653 -0.1089 -0.4725 -0.3388
  237MOL0     C32580   6.316   2.532   4.658 -0.2460  0.0214  0.4789
  237MOL0     C32581   6.423   2.454   4.568  1.1903 -0.5517 -0.0246
  237MOL0     C32582   6.467   2.330   4.641  0.6342  0.9562 -0.2204
  237MOL0     C32583   6.540   2.235   4.544  0.2922 -0.2115  0.8993
  237MOL0     C32584   6.457   2.112   4.503 -0.4578 -0.7147 -0.3563
  237MOL0     N32585   6.370   2.154   4.391  0.4171  0.0961  0.7092
  237MOL0     C32586   6.242   2.191   4.417  0.3831  0.0320  0.2730
  237MOL0     C32587   6.176   2.204   4.300  0.2581 -0.4605 -0.0721
  237MOL0     C32588   6.041   2.258   4.274 -0.5943 -1.5098  0.1296
  237MOL0     C32589   5.922   2.185   4.333  0.2554  0.4342  0.7628
  237MOL0     C32590   5.792   2.257   4.316  0.2247 -0.2449  0.7180
  237MOL0     C32591   5.669   2.185   4.370  0.5520 -0.0351 -0.7018
  237MOL0     O32592   5.557   2.259   4.328 -0.5894 -0.3621  0.4463
  237MOL0     C32593   5.435   2.211   4.370 -0.0634 -0.4567 -0.2860
  237MOL0     C32594   5.323   2.265   4.306 -0.2665  0.6689  0.5806
  237MOL0     C32595   5.195   2.215   4.332  0.0003 -0.1956 -0.1537
  237MOL0     C32596   5.079   2.281   4.265  0.8766  0.3067  0.2695
  237MOL0     C32597   5.178   2.111   4.427 -1.0813  0.2669 -0.1506
  237MOL0     C32598   5.048   2.068   4.474  0.3283 -0.6189  0.0131
  237MOL0     O32599   4.968   2.171   4.513  0.3407  0.2093  1.3068
  237MOL0     C32600   4.843   2.136   4.543  0.8476 -0.8762 -0.9304
  237MOL0     C32601   4.749   2.083   4.459  0.6288  0.8647  0.1359
  237MOL0     C32602   4.624   2.039   4.506 -0.2463 -0.0866 -0.0164
  237MOL0     C32603   4.587   2.059   4.634  0.1912 -0.3251 -0.1556
  237MOL0     O32604   4.464   2.003   4.672  0.4896  0.4354 -0.2880
  237MOL0     C32605   4.424   2.055   4.801 -0.9408  0.3023 -0.5428
  237MOL0     C32606   4.271   2.019   4.813 -0.3968  0.2719 -0.8796
  237MOL0     C32607   4.221   2.048   4.956  0.6250 -0.0821  0.5223
  237MOL0     C32608   4.294   1.975   5.075 -0.8632 -0.8635  1.6568
  237MOL0     C32609   4.192   1.929   5.186  0.2275  0.2175  1.0468
  237MOL0     C32610   4.253   1.876   5.319  0.2458 -0.0673  0.3413
  237MOL0     C32611   4.361   1.974   5.383 -0.1674  0.6087 -0.6339
  237MOL0     C32612   4.399   1.960   5.532 -0.1283  0.3720  0.4763
  237MOL0    Cl32613   4.518   2.080   5.573  0.0486 -0.0994 -0.1882
  237MOL0     C32614   4.677   2.138   4.718  0.7950 -0.2644  0.3634
  237MOL0     C32615   4.801   2.178   4.666  0.4544 -0.3016  0.3280
  237MOL0     O32616   5.026   1.946   4.484 -0.2021  0.2329 -0.5593
  237MOL0     C32617   5.294   2.057   4.492  0.4282 -0.7416  0.1936
  237MOL0     C32618   5.418   2.108   4.470 -0.1453  0.5117  0.7571
  237MOL0     N32619   6.268   2.155   4.207 -0.4471  0.3888 -0.0975
  237MOL0     N32620   6.377   2.119   4.260 -0.1081 -0.1077 -0.6337
  237MOL0     C32621   5.831   2.125   4.893  0.6785  0.5519 -0.4966
  237MOL0     C32622   5.720   2.044   4.912 -0.9738 -0.2553 -0.0197
  237MOL0     C32623   5.311   1.874   4.901 -1.2234  0.3518 -0.4175
  237MOL0     C32624   5.221   1.796   4.821 -0.2634  0.8053  0.8503
  237MOL0     C32625   5.092   1.756   4.862  0.9785  1.1978  0.2539
  237MOL0     C32626   5.040   1.795   4.985  0.1291 -0.6378 -0.4275
  237MOL0     O32627   4.908   1.778   5.016  0.2853 -0.2827 -0.1313
  237MOL0     C32628   4.833   1.890   5.061  0.3709 -0.5071 -0.2173
  237MOL0     C32629   4.724   1.834   5.148  0.0676  0.6908 -0.2893
  237MOL0     C32630   4.773   1.743   5.261 -0.1535 -0.9684  0.3307
  237MOL0     C32631   4.735   1.596   5.245 -0.0628 -0.4474 -0.8433
  237MOL0     C32632   4.614   1.571   5.324  0.0371  0.0499 -0.0788
  237MOL0     C32633   4.510   1.551   5.381  0.1507  0.7030  0.4893
  237MOL0     C32634   5.134   1.857   5.069 -0.0548  0.4004 -0.5880
  237MOL0     C32635   5.263   1.896   5.027  0.6840 -0.1974  0.5657
  237MOL0     C32636   5.347   1.961   5.140 -0.3984  0.3348 -0.6534
  237MOL0     H32637   5.501   2.199   4.719  0.1700  0.1818  1.0046
  237MOL0     H32638   5.696   2.376   4.693  1.6494  2.8415  3.3492
  237MOL0     H32639   5.880   2.535   4.816 -1.5447 -0.2011 -0.8493
  237MOL0     H32640   5.908   2.471   4.659  0.1579 -1.6191  0.8985
  237MOL0     H32641   6.070   2.629   4.719 -0.4602  0.9311  1.3253
  237MOL0     H32642   6.114   2.513   4.859  2.9465  0.1787 -1.0494
  237MOL0     H32643   6.198   2.351   4.682 -0.0155 -0.4043 -0.1614
  237MOL0     H32644   6.133   2.468   4.554 -0.1498  1.2265 -0.1108
  237MOL0     H32645   6.316   2.637   4.626  1.1490  1.1915  3.8387
  237MOL0     H32646   6.348   2.534   4.763 -1.3798 -0.6235  0.8469
  237MOL0     H32647   6.501   2.527   4.544 -0.4250  1.4228  0.4159
  237MOL0     H32648   6.380   2.426   4.472  1.3388 -0.8386 -0.0072
  237MOL0     H32649   6.526   2.357   4.729 -1.7024  2.1268  1.0840
  237MOL0     H32650   6.390   2.261   4.678  0.4649  0.5106 -1.3601
  237MOL0     H32651   6.629   2.202   4.599  1.9316  1.5725 -0.5375
  237MOL0     H32652   6.583   2.295   4.463 -0.5231  1.5868  1.7323
  237MOL0     H32653   6.526   2.032   4.477  2.1393  0.8178  1.3557
  237MOL0     H32654   6.388   2.076   4.581  2.1589 -3.9292  0.6794
  237MOL0     H32655   6.204   2.232   4.510  1.8925  1.4366  0.3192
  237MOL0     H32656   6.033   2.275   4.167 -0.7781 -1.6765  0.1167
  237MOL0     H32657   6.033   2.354   4.327  0.9501 -1.8896  1.1174
  237MOL0     H32658   5.912   2.087   4.286  0.3497  1.2018 -0.9380
  237MOL0     H32659   5.943   2.160   4.438 -1.2195 -2.1534  0.5383
  237MOL0     H32660   5.789   2.356   4.363  2.4762  1.4160 -2.3224
  237MOL0     H32661   5.774   2.278   4.211 -2.0541  0.2431  1.1329
  237MOL0     H32662   5.658   2.085   4.326 -0.4109 -0.0478 -0.4525
  237MOL0     H32663   5.687   2.184   4.478  4.1075 -1.1843 -1.1666
  237MOL0     H32664   5.333   2.350   4.240 -3.5195 -1.4195 -3.0171
  237MOL0     H32665   5.013   2.332   4.336 -0.5609 -0.5024 -0.4293
  237MOL0     H32666   5.018   2.199   4.226 -3.6934  1.9998  2.9847
  237MOL0     H32667   5.113   2.343   4.181  2.2194  1.6726  1.7585
  237MOL0     H32668   4.766   2.060   4.354 -1.4238 -1.7334  0.2699
  237MOL0     H32669   4.551   1.987   4.444 -2.1656  0.8650  1.3668
  237MOL0     H32670   4.478   2.003   4.880 -0.3359  2.6660  0.6864
  237MOL0     H32671   4.433   2.163   4.816  0.3872  0.6756 -3.3496
  237MOL0     H32672   4.211   2.073   4.739  0.3171  0.4252 -1.3593
  237MOL0     H32673   4.273   1.910   4.800  2.9046  0.0262  0.6220
  237MOL0     H32674   4.121   2.003   4.955  0.5958 -0.0122  0.1721
  237MOL0     H32675   4.226   2.153   4.987  3.2918  0.5613 -1.7561
  237MOL0     H32676   4.351   2.059   5.116  0.2396 -0.8741  0.2578
  237MOL0     H32677   4.357   1.892   5.041 -0.5121 -0.6397  1.7601
  237MOL0     H32678   4.123   2.011   5.209  2.0688  1.6132  1.8450
  237MOL0     H32679   4.139   1.843   5.142  1.2812 -1.9997  3.8185
  237MOL0     H32680   4.314   1.789   5.293  0.2917  1.0407 -3.9436
  237MOL0     H32681   4.175   1.855   5.392  0.5295 -1.0004  0.3916
  237MOL0     H32682   4.332   2.077   5.359 -0.0345  0.2922 -2.2700
  237MOL0     H32683   4.455   1.959   5.329  1.2879  1.8466  1.4534
  237MOL0     H32684   4.446   1.867   5.566  0.7420  1.0837  1.2580
  237MOL0     H32685   4.306   1.976   5.587  0.0510 -0.0608  0.9145
  237MOL0     H32686   4.644   2.185   4.810 -1.1176  0.7687 -0.7968
  237MOL0     H32687   4.856   2.239   4.737  0.0746  0.3723  0.0589
  237MOL0     H32688   5.275   1.984   4.570 -2.4574 -0.2344  0.0952
  237MOL0     H32689   5.501   2.078   4.532 -0.4399 -2.2730 -0.0235
  237MOL0     H32690   5.934   2.107   4.919  0.6829  2.4208  1.0033
  237MOL0     H32691   5.729   1.956   4.974  1.2298 -0.1624 -0.1491
  237MOL0     H32692   5.251   1.761   4.723 -2.7016  0.4819  0.1495
  237MOL0     H32693   5.025   1.697   4.801  0.2388 -0.2325  2.3605
  237MOL0     H32694   4.903   1.958   5.111 -0.6067  1.9991 -2.0507
  237MOL0     H32695   4.785   1.940   4.977  0.7878  2.3324  1.0940
  237MOL0     H32696   4.641   1.782   5.098  0.2813 -1.9648  1.8634
  237MOL0     H32697   4.675   1.923   5.189  0.1263  0.5390  0.1125
  237MOL0     H32698   4.879   1.746   5.285 -0.3426 -1.0209  1.2006
  237MOL0     H32699   4.734   1.790   5.352  0.9689  1.6301 -0.4449
  237MOL0     H32700   4.816   1.533   5.282 -2.3143 -2.1558  1.6217
  237MOL0     H32701   4.711   1.567   5.143 -0.7510  1.1138 -1.1558
  237MOL0     H32702   4.412   1.527   5.416 -0.2437  0.4227 -0.7509
  237MOL0     H32703   5.114   1.890   5.171 -0.6084 -0.4018 -0.4273
  237MOL0     H32704   5.452   1.945   5.115 -0.8199 -0.3283 -2.1598
  237MOL0     H32705   5.327   2.068   5.143  0.8794  0.5657  0.9372
  237MOL0     H32706   5.326   1.912   5.236  2.1213  0.3722 -0.0270
  238MOL0     O32707   9.130   8.146   4.827  0.0351  0.1513  0.0488
  238MOL0     C32708   9.094   8.241   4.755 -0.5805 -0.2488 -0.3234
  238MOL0     O32709   9.179   8.327   4.704 -0.2803  0.3767  0.8380
  238MOL0     C32710   9.316   8.313   4.706 -0.3522  1.3861 -0.4307
  238MOL0     C32711   9.401   8.420   4.730  0.5316  0.2672  0.4206
  238MOL0     C32712   9.532   8.408   4.710  0.2778  0.6648  0.2560
  238MOL0     C32713   9.597   8.287   4.681 -0.1234  0.6470  0.2474
  238MOL0     O32714   9.733   8.270   4.678 -0.0629  0.1026  0.6520
  238MOL0     C32715   9.802   8.360   4.600 -0.5228  0.3712  0.1164
  238MOL0     C32716   9.947   8.308   4.580  0.0642 -0.2590 -0.2913
  238MOL0     C32717  10.015   8.378   4.461 -0.1822 -0.2125  0.2575
  238MOL0     C32718  10.168   8.376   4.455 -0.5239 -0.1535 -0.1659
  238MOL0     C32719  10.213   8.509   4.403  0.1925  0.4527  0.0370
  238MOL0     C32720  10.364   8.507   4.366  0.0709 -0.5372  0.0570
  238MOL0     C32721  10.382   8.442   4.234 -0.1684  0.6110 -1.0321
  238MOL0     C32722  10.523   8.463   4.198  0.0274  0.9685  0.6083
  238MOL0     N32723  10.546   8.413   4.058  0.1541  0.1460 -0.2100
  238MOL0     C32724  10.507   8.286   4.010  0.0415 -0.5399  0.3396
  238MOL0     C32725  10.543   8.291   3.880 -0.0747 -0.1471 -0.1741
  238MOL0     C32726  10.533   8.175   3.786  0.2910 -0.0736  0.9039
  238MOL0     C32727  10.649   8.177   3.684  0.1951  0.9485 -0.1007
  238MOL0     C32728  10.652   8.055   3.595  0.7727 -0.0795 -0.2797
  238MOL0     C32729  10.762   8.082   3.487 -0.4035  0.1635  0.3460
  238MOL0     O32730  10.770   7.983   3.384  0.0874  0.2022  0.2622
  238MOL0     C32731  10.872   7.996   3.291  1.2259  0.1293 -1.3227
  238MOL0     C32732  10.884   7.894   3.201  0.3838  0.0765  0.6108
  238MOL0     C32733  10.991   7.890   3.102  0.8724 -0.0911  0.3191
  238MOL0     C32734  10.987   7.760   3.023  0.8434  0.0912 -0.1070
  238MOL0     C32735  11.091   7.988   3.106 -0.2945  0.0103 -0.3386
  238MOL0     C32736  11.226   7.976   3.041 -0.0982  0.6569  0.2021
  238MOL0     O32737  11.302   8.079   3.045 -0.4654 -0.6043  0.2214
  238MOL0     C32738  11.408   8.075   2.958  0.4853 -1.2227  0.2396
  238MOL0     C32739  11.394   8.158   2.848 -0.7241  0.0634 -0.1994
  238MOL0     C32740  11.498   8.159   2.754  0.1201  0.4887 -1.4324
  238MOL0     C32741  11.612   8.084   2.776 -0.3586  0.2706  0.3520
  238MOL0     O32742  11.711   8.087   2.685  0.0448  0.3255  0.2099
  238MOL0     C32743  11.669   8.048   2.559  0.2538  0.2712  1.2416
  238MOL0     C32744  11.794   8.045   2.468 -0.2775 -0.3467  0.4511
  238MOL0     C32745  11.766   7.963   2.336 -0.6891 -0.9638  0.2259
  238MOL0     C32746  11.897   7.950   2.253  0.0020 -0.5785 -0.8065
  238MOL0     C32747  11.878   7.879   2.117 -0.1150 -0.2197  0.6968
  238MOL0     C32748  12.010   7.835   2.061 -0.1955 -0.2452  1.0906
  238MOL0     C32749  12.130   7.939   2.055  0.1533  0.4671  0.3868
  238MOL0     C32750  12.241   7.845   2.009 -0.3113  1.0535 -0.5367
  238MOL0    Cl32751  12.390   7.936   2.002 -0.1460 -0.0613  0.3567
  238MOL0     C32752  11.622   8.006   2.888 -0.1311 -0.3833  0.4543
  238MOL0     C32753  11.525   8.004   2.985  0.4834  0.1734  0.7770
  238MOL0     O32754  11.248   7.874   2.974 -0.2547 -0.6683  0.1488
  238MOL0     C32755  11.070   8.101   3.190  0.2722 -0.1113 -0.5051
  238MOL0     C32756  10.957   8.104   3.279 -0.6017 -0.7892 -0.0112
  238MOL0     N32757  10.598   8.414   3.849  0.9168 -0.6689  0.1424
  238MOL0     N32758  10.609   8.482   3.962 -0.0578 -0.4797 -0.6265
  238MOL0     C32759   9.518   8.178   4.654  0.1544 -0.7151  0.1006
  238MOL0     C32760   9.380   8.193   4.654 -0.2512  0.3275  0.9476
  238MOL0     C32761   8.955   8.238   4.708  0.5040 -0.1725  0.4244
  238MOL0     C32762   8.945   8.289   4.578  0.5535 -0.0328 -0.1624
  238MOL0     C32763   8.812   8.299   4.516 -1.1567  0.7518 -0.3779
  238MOL0     C32764   8.698   8.275   4.592 -0.2016  0.4827 -0.9682
  238MOL0     O32765   8.580   8.311   4.527  0.2102  0.6802  0.0668
  238MOL0     C32766   8.466   8.343   4.614 -0.2740 -0.4956  0.6699
  238MOL0     C32767   8.351   8.353   4.510  0.4191 -0.1037 -0.4460
  238MOL0     C32768   8.209   8.380   4.569 -0.7594  0.1604 -0.1743
  238MOL0     C32769   8.100   8.308   4.486  0.4148  0.2722 -0.0031
  238MOL0     C32770   8.131   8.164   4.483  0.4046 -0.4702 -0.9391
  238MOL0     C32771   8.174   8.050   4.488  0.5504  0.5718 -0.9369
  238MOL0     C32772   8.715   8.232   4.721 -0.9611 -0.1390 -0.2520
  238MOL0     C32773   8.839   8.213   4.781 -0.8026 -0.4413  0.0554
  238MOL0     C32774   8.842   8.164   4.928 -0.7569  0.0076 -0.1584
  238MOL0     H32775   9.355   8.516   4.752 -1.2464 -0.5145  0.3374
  238MOL0     H32776   9.595   8.490   4.742 -1.8556  0.6984  5.1509
  238MOL0     H32777   9.809   8.459   4.646  0.8842  1.4603 -2.2250
  238MOL0     H32778   9.752   8.375   4.504 -0.9378 -1.2860  0.0418
  238MOL0     H32779  10.005   8.334   4.669 -1.5236  1.3526  0.3340
  238MOL0     H32780   9.941   8.201   4.558 -1.0535  0.2155 -2.5756
  238MOL0     H32781   9.980   8.319   4.376  2.6130 -0.9186 -0.4860
  238MOL0     H32782   9.977   8.481   4.464  1.0778  0.2580  1.8244
  238MOL0     H32783  10.208   8.369   4.556 -0.2990  0.8987 -0.1667
  238MOL0     H32784  10.200   8.293   4.392 -0.1194 -0.6676  0.7003
  238MOL0     H32785  10.194   8.578   4.487 -0.6169 -2.5348  2.4915
  238MOL0     H32786  10.147   8.528   4.318  0.0049 -0.6744 -0.0816
  238MOL0     H32787  10.399   8.611   4.365 -1.4553  0.0049 -0.5400
  238MOL0     H32788  10.426   8.451   4.436  2.6554  0.4986 -1.2433
  238MOL0     H32789  10.323   8.495   4.158  1.7620  0.5518 -2.6666
  238MOL0     H32790  10.352   8.337   4.241  1.3658  0.1535 -0.8375
  238MOL0     H32791  10.532   8.571   4.182  0.5742  0.6101 -1.9725
  238MOL0     H32792  10.597   8.432   4.273 -0.1970  0.3472  0.5782
  238MOL0     H32793  10.459   8.208   4.068 -2.5970  1.2943  0.8006
  238MOL0     H32794  10.438   8.182   3.732 -1.3964 -2.5365  3.2951
  238MOL0     H32795  10.509   8.083   3.841 -1.8978 -0.6164 -0.8285
  238MOL0     H32796  10.637   8.264   3.619  2.6718  0.1786 -1.7198
  238MOL0     H32797  10.738   8.196   3.743 -0.0748  3.0595 -0.3107
  238MOL0     H32798  10.692   7.977   3.660 -0.7798  0.7372  1.7572
  238MOL0     H32799  10.554   8.029   3.553  1.1244 -1.0355 -0.5470
  238MOL0     H32800  10.732   8.178   3.443 -1.0371 -0.5116 -0.7538
  238MOL0     H32801  10.858   8.099   3.535  0.7908 -1.9394 -1.1462
  238MOL0     H32802  10.806   7.819   3.209  2.4005 -2.6014 -2.4048
  238MOL0     H32803  11.039   7.680   3.076 -0.5138  0.2775  1.6137
  238MOL0     H32804  11.011   7.766   2.917  0.4603 -2.9085 -0.4395
  238MOL0     H32805  10.881   7.734   3.021 -0.0675  3.3100 -0.0488
  238MOL0     H32806  11.301   8.214   2.841  0.7018  3.1723  3.0941
  238MOL0     H32807  11.486   8.222   2.666 -0.4905  1.9053 -0.3885
  238MOL0     H32808  11.631   7.946   2.556 -2.0873  1.1078 -0.8440
  238MOL0     H32809  11.594   8.119   2.523  0.3240  1.3309  3.0632
  238MOL0     H32810  11.829   8.146   2.444  0.7719 -0.8628 -0.2647
  238MOL0     H32811  11.879   8.002   2.521 -0.3856  0.2217  1.1051
  238MOL0     H32812  11.690   8.010   2.272  0.3681 -1.2884 -1.3399
  238MOL0     H32813  11.729   7.862   2.358  0.1762 -0.9034  2.1251
  238MOL0     H32814  11.958   7.883   2.313 -1.1362  1.1685  2.5357
  238MOL0     H32815  11.937   8.051   2.237  0.9809 -0.9895 -0.9877
  238MOL0     H32816  11.812   7.793   2.132  0.8690 -0.5908  3.7222
  238MOL0     H32817  11.832   7.938   2.038 -0.3571 -2.7467 -1.1612
  238MOL0     H32818  11.989   7.795   1.961  1.0632  0.1871  0.6332
  238MOL0     H32819  12.031   7.750   2.127 -1.7051  0.7756  2.9829
  238MOL0     H32820  12.164   7.964   2.156  0.3632 -0.3211  0.5168
  238MOL0     H32821  12.118   8.031   1.997 -0.5691 -0.1167 -0.4186
  238MOL0     H32822  12.219   7.801   1.911 -3.4829  1.1130  0.0520
  238MOL0     H32823  12.263   7.763   2.078 -0.4309  1.6053  0.1720
  238MOL0     H32824  11.712   7.955   2.919  0.6307  0.4452 -0.3440
  238MOL0     H32825  11.536   7.956   3.081  1.3735  0.6011  0.8940
  238MOL0     H32826  11.135   8.188   3.190  0.5315 -0.2969  0.2057
  238MOL0     H32827  10.952   8.194   3.339 -2.4533  1.1697 -2.8297
  238MOL0     H32828   9.566   8.082   4.637  2.0706  0.3085 -0.6125
  238MOL0     H32829   9.323   8.102   4.636 -1.1474  0.4679  2.8720
  238MOL0     H32830   9.035   8.313   4.523  2.0032  0.5890  2.3392
  238MOL0     H32831   8.818   8.323   4.411  0.3763 -0.0377 -0.4964
  238MOL0     H32832   8.443   8.262   4.682 -0.9555 -1.4884 -0.6978
  238MOL0     H32833   8.483   8.442   4.659 -1.3021  0.8603 -1.7221
  238MOL0     H32834   8.360   8.258   4.457 -1.9538 -0.8230  0.2756
  238MOL0     H32835   8.371   8.425   4.430  0.1574  0.2471 -0.2059
  238MOL0     H32836   8.198   8.371   4.677  0.5496  2.3532  0.2060
  238MOL0     H32837   8.190   8.487   4.552  1.4207  0.9351  1.7335
  238MOL0     H32838   8.105   8.346   4.384 -2.8254 -0.6187 -0.5921
  238MOL0     H32839   8.000   8.330   4.524  1.0351 -0.0894  1.9480
  238MOL0     H32840   8.202   7.949   4.510 -2.5435 -0.3252 -0.6477
  238MOL0     H32841   8.631   8.211   4.787  1.3492 -1.1654  2.5776
  238MOL0     H32842   8.944   8.148   4.964 -0.8151 -0.3308 -0.1378
  238MOL0     H32843   8.809   8.252   4.983 -0.1567 -1.2934  2.4106
  238MOL0     H32844   8.777   8.082   4.958  1.1037 -0.6746  2.2886
  239MOL0     O32845   3.714   8.554   4.765 -0.1032  0.2805 -0.3647
  239MOL0     C32846   3.780   8.467   4.815  0.8861  0.1147 -0.6000
  239MOL0     O32847   3.905   8.482   4.866  0.2224  0.7846  0.2051
  239MOL0     C32848   3.975   8.594   4.890 -0.7914 -0.2034 -0.0687
  239MOL0     C32849   4.116   8.594   4.882  0.1815  0.0607 -0.0026
  239MOL0     C32850   4.191   8.711   4.905 -0.4619 -0.4445 -0.5288
  239MOL0     C32851   4.135   8.829   4.946  0.4943  0.1635 -0.2115
  239MOL0     O32852   4.213   8.941   4.962 -0.4003  0.6346  0.4724
  239MOL0     C32853   4.177   9.040   5.063 -0.0582 -0.6620  0.5495
  239MOL0     C32854   4.239   9.176   5.035  0.7297  0.4877 -0.0863
  239MOL0     C32855   4.389   9.171   5.016 -0.0079 -0.1565 -0.4198
  239MOL0     C32856   4.450   9.241   5.138  0.2608 -0.8326  0.4143
  239MOL0     C32857   4.602   9.251   5.125  0.3717 -0.4394 -0.5486
  239MOL0     C32858   4.673   9.323   5.243 -0.6738  0.7750 -0.7156
  239MOL0     C32859   4.812   9.265   5.279 -0.3338  0.1355 -0.2870
  239MOL0     C32860   4.807   9.125   5.330  0.2840  0.5162  0.5786
  239MOL0     N32861   4.944   9.075   5.345  0.2410  0.2727 -0.3617
  239MOL0     C32862   5.017   9.002   5.259  0.0144 -0.0887  0.0066
  239MOL0     C32863   5.145   9.005   5.309 -0.0667  0.4412 -0.5623
  239MOL0     C32864   5.260   8.916   5.260  0.3062 -0.6731  0.2115
  239MOL0     C32865   5.309   8.996   5.140  0.6682 -0.1367  0.3301
  239MOL0     C32866   5.401   9.113   5.174 -0.4355 -0.2517 -0.3810
  239MOL0     C32867   5.443   9.189   5.048 -0.4466 -0.8536 -0.7281
  239MOL0     O32868   5.555   9.107   5.000  0.2282 -0.7439  0.3248
  239MOL0     C32869   5.671   9.168   4.954  0.1569  0.1478  0.0525
  239MOL0     C32870   5.730   9.120   4.843  0.0271  0.1818  0.5249
  239MOL0     C32871   5.856   9.157   4.800  0.2605 -0.7896  0.1213
  239MOL0     C32872   5.920   9.077   4.684  0.4561 -0.7689  0.2836
  239MOL0     C32873   5.931   9.258   4.872  0.0337  0.7831  0.8761
  239MOL0     C32874   6.066   9.299   4.834 -0.5202 -0.1754 -0.2746
  239MOL0     O32875   6.155   9.327   4.931  0.3977 -0.7152 -0.4211
  239MOL0     C32876   6.249   9.419   4.903  0.1734 -0.3126 -0.4708
  239MOL0     C32877   6.357   9.379   4.835  0.1171 -0.1305  0.1146
  239MOL0     C32878   6.467   9.463   4.820  0.2649  0.2074 -0.8578
  239MOL0     C32879   6.463   9.601   4.855 -0.4291 -0.7247  0.4877
  239MOL0     O32880   6.564   9.692   4.834  0.1913  0.1894 -0.0369
  239MOL0     C32881   6.660   9.661   4.742 -0.2250 -0.8528 -0.2998
  239MOL0     C32882   6.744   9.783   4.722 -0.1962  0.5023 -0.0182
  239MOL0     C32883   6.896   9.747   4.720  0.2473  0.4691  0.2420
  239MOL0     C32884   6.985   9.872   4.705  0.0228 -0.1415  0.5473
  239MOL0     C32885   7.138   9.836   4.710  0.1402 -0.0240  0.3490
  239MOL0     C32886   7.230   9.962   4.693  0.7368  0.0868 -0.2921
  239MOL0     C32887   7.210  10.070   4.798 -0.2933  0.0041  0.1379
  239MOL0     C32888   7.315  10.193   4.783  0.8885 -0.6093  0.5583
  239MOL0    Cl32889   7.488  10.142   4.780 -0.2329  0.0268  0.2283
  239MOL0     C32890   6.342   9.641   4.921  0.3795 -0.3144 -0.4570
  239MOL0     C32891   6.235   9.549   4.948  0.0637 -0.3279 -0.0043
  239MOL0     O32892   6.090   9.309   4.715 -0.4035  0.9063  0.5073
  239MOL0     C32893   5.870   9.311   4.985 -0.7024  0.2649  0.3330
  239MOL0     C32894   5.739   9.262   5.023 -0.9707  0.7700  0.3634
  239MOL0     N32895   5.153   9.067   5.426 -0.4290 -0.1885 -0.0579
  239MOL0     N32896   5.030   9.113   5.446  0.5423  0.5257  0.4181
  239MOL0     C32897   3.995   8.828   4.958  0.3420 -1.4071  0.3293
  239MOL0     C32898   3.918   8.713   4.932  0.2013 -0.3449 -0.2627
  239MOL0     C32899   3.734   8.325   4.801 -0.4938  0.0237  0.4752
  239MOL0     C32900   3.816   8.222   4.841 -0.3800 -0.1005 -0.4318
  239MOL0     C32901   3.776   8.095   4.833 -0.3263 -0.1508 -0.1962
  239MOL0     C32902   3.653   8.058   4.794  0.5758  0.1599  0.6676
  239MOL0     O32903   3.635   7.921   4.780 -0.9869  0.3364 -0.2223
  239MOL0     C32904   3.516   7.869   4.711 -0.2631 -0.2834 -0.2901
  239MOL0     C32905   3.493   7.719   4.727  0.0198 -0.0900 -0.0461
  239MOL0     C32906   3.359   7.682   4.787  0.1121  0.1770 -0.0056
  239MOL0     C32907   3.354   7.526   4.809 -0.7549 -0.1875  0.1772
  239MOL0     C32908   3.222   7.481   4.843 -0.1710 -0.0542 -0.9708
  239MOL0     C32909   3.106   7.451   4.868  0.0857 -0.1064 -0.6148
  239MOL0     C32910   3.558   8.154   4.754 -0.3818 -0.6565 -0.0264
  239MOL0     C32911   3.606   8.290   4.748  0.1553  0.2873  0.4403
  239MOL0     C32912   3.518   8.393   4.686  0.2264  0.4134 -0.3799
  239MOL0     H32913   4.166   8.504   4.846  0.1711  0.1637 -0.2751
  239MOL0     H32914   4.299   8.703   4.896 -0.4483 -0.3467 -0.4683
  239MOL0     H32915   4.206   9.006   5.163 -2.4800 -0.1039  1.5204
  239MOL0     H32916   4.070   9.064   5.065 -0.2313 -1.1837 -1.0176
  239MOL0     H32917   4.186   9.217   4.948  1.6392  0.8161 -0.4990
  239MOL0     H32918   4.207   9.255   5.103 -4.6626 -1.8029  0.5477
  239MOL0     H32919   4.427   9.069   5.006  1.3792  0.4022 -1.1213
  239MOL0     H32920   4.400   9.224   4.922 -0.2448 -0.1614 -0.4527
  239MOL0     H32921   4.399   9.338   5.140 -1.3420 -1.6339  2.1754
  239MOL0     H32922   4.413   9.191   5.229 -1.0391 -1.0382 -0.1991
  239MOL0     H32923   4.631   9.315   5.041  1.3416  2.9985  2.1878
  239MOL0     H32924   4.637   9.149   5.106 -0.1881 -0.7955  0.2575
  239MOL0     H32925   4.677   9.432   5.234 -2.5641  0.8282 -1.4301
  239MOL0     H32926   4.604   9.321   5.328  2.3507 -1.3159  1.9341
  239MOL0     H32927   4.860   9.327   5.355  1.0765 -1.4756  0.1872
  239MOL0     H32928   4.877   9.262   5.192  2.2705 -0.2491  1.5624
  239MOL0     H32929   4.753   9.119   5.424 -1.6417  0.0299 -0.5001
  239MOL0     H32930   4.760   9.063   5.254  3.1802 -0.7619 -0.3190
  239MOL0     H32931   4.994   8.931   5.180 -1.2345 -0.6404  0.8335
  239MOL0     H32932   5.218   8.820   5.228 -0.2954 -0.6542  0.9164
  239MOL0     H32933   5.342   8.902   5.330  0.6037  0.8706  0.1964
  239MOL0     H32934   5.368   8.925   5.080 -3.2234 -0.8164 -3.1666
  239MOL0     H32935   5.226   9.025   5.075  0.8962 -0.9782 -0.3589
  239MOL0     H32936   5.349   9.184   5.239  2.1846  3.6236 -2.1094
  239MOL0     H32937   5.492   9.073   5.219 -0.9405 -1.8576 -0.7458
  239MOL0     H32938   5.354   9.202   4.986  0.2052 -2.2651 -2.0338
  239MOL0     H32939   5.481   9.290   5.070  1.8491 -2.1037  1.5754
  239MOL0     H32940   5.681   9.043   4.784  1.5697  0.2004 -0.8500
  239MOL0     H32941   5.871   8.980   4.694  1.1742 -1.0865  0.8556
  239MOL0     H32942   6.028   9.071   4.703  0.8207  1.1704 -0.9616
  239MOL0     H32943   5.896   9.123   4.589 -3.2693 -1.0484  0.9521
  239MOL0     H32944   6.355   9.282   4.786  0.8861 -0.7024  1.1732
  239MOL0     H32945   6.556   9.418   4.777  1.1795  0.0671  1.0940
  239MOL0     H32946   6.719   9.577   4.778  0.3356 -0.4764 -0.3186
  239MOL0     H32947   6.624   9.639   4.641 -1.7034 -4.5318  0.8558
  239MOL0     H32948   6.713   9.829   4.628 -1.2869  1.0564  0.5896
  239MOL0     H32949   6.731   9.864   4.795  1.0000  0.6814  0.0170
  239MOL0     H32950   6.912   9.667   4.648 -0.7835  0.2779  0.2082
  239MOL0     H32951   6.923   9.698   4.814  1.2541 -1.9382 -1.2110
  239MOL0     H32952   6.968   9.944   4.785 -0.1125  0.8356 -0.3288
  239MOL0     H32953   6.957   9.913   4.607  0.3839 -1.8434 -0.3034
  239MOL0     H32954   7.153   9.781   4.803  1.4236 -1.5324 -0.7005
  239MOL0     H32955   7.160   9.767   4.628  1.6171  0.3471  0.4034
  239MOL0     H32956   7.200   9.993   4.592 -0.9538 -4.0198 -1.2901
  239MOL0     H32957   7.335   9.934   4.686  0.8037  0.4659 -0.9903
  239MOL0     H32958   7.218  10.039   4.903  1.0476 -0.4978 -0.0904
  239MOL0     H32959   7.111  10.115   4.793  0.5784  2.1713  0.8355
  239MOL0     H32960   7.294  10.259   4.868  0.7336  1.5160 -1.0419
  239MOL0     H32961   7.288  10.262   4.702  1.0092  1.5760  2.2632
  239MOL0     H32962   6.334   9.747   4.941 -0.8170 -0.2919 -0.9958
  239MOL0     H32963   6.145   9.578   5.000 -1.8304 -0.8399 -2.7364
  239MOL0     H32964   5.924   9.387   5.041 -3.4048  1.5752  1.3619
  239MOL0     H32965   5.697   9.287   5.120 -1.6777 -0.2921  0.3505
  239MOL0     H32966   3.950   8.923   4.984 -1.2453 -1.7578 -1.0108
  239MOL0     H32967   3.811   8.705   4.947  0.5427 -1.2724  2.1478
  239MOL0     H32968   3.920   8.249   4.857 -0.2362 -1.2624  0.7865
  239MOL0     H32969   3.859   8.025   4.841 -0.5607 -0.3271  0.7496
  239MOL0     H32970   3.440   7.930   4.760  0.8077  3.2403 -2.6860
  239MOL0     H32971   3.501   7.892   4.605  0.2422 -2.6943 -0.9616
  239MOL0     H32972   3.570   7.666   4.784 -3.0720 -1.7400  3.0797
  239MOL0     H32973   3.494   7.683   4.624 -2.9742  1.2191 -0.6285
  239MOL0     H32974   3.341   7.733   4.882 -1.3619  1.6494 -1.0073
  239MOL0     H32975   3.275   7.704   4.720 -2.1267 -1.2083  2.1829
  239MOL0     H32976   3.409   7.494   4.898  0.4764 -0.3357 -0.6107
  239MOL0     H32977   3.396   7.470   4.725 -1.6447 -0.5089 -0.0680
  239MOL0     H32978   3.011   7.415   4.901  0.8659 -0.4502  1.4083
  239MOL0     H32979   3.456   8.131   4.726  0.0707 -0.7877 -1.7011
  239MOL0     H32980   3.553   8.451   4.600 -1.6920 -0.9994 -2.2351
  239MOL0     H32981   3.428   8.348   4.644  0.1730 -0.9018  1.0705
  239MOL0     H32982   3.501   8.451   4.777 -0.8832 -1.4252  0.6508
  240MOL0     O32983   2.591   5.392  10.262  0.4095 -0.1847  0.2745
  240MOL0     C32984   2.568   5.480  10.168  0.3243  0.1630 -1.0280
  240MOL0     O32985   2.616   5.465  10.042 -0.0296  0.1450 -0.2565
  240MOL0     C32986   2.701   5.365  10.010 -0.1158  0.7048 -0.5325
  240MOL0     C32987   2.636   5.245   9.984  0.4128  0.2058 -0.6148
  240MOL0     C32988   2.711   5.137   9.933  0.4461 -0.2036 -0.4969
  240MOL0     C32989   2.845   5.162   9.905 -0.1898 -0.1977  0.5082
  240MOL0     O32990   2.917   5.065   9.840 -0.1460  0.2466  0.6989
  240MOL0     C32991   3.033   5.021   9.908 -0.1818 -0.5203  0.4268
  240MOL0     C32992   3.092   4.898   9.845 -0.9000  0.3910 -0.9654
  240MOL0     C32993   3.205   4.842   9.937 -0.0633 -0.2100 -0.1910
  240MOL0     C32994   3.265   4.718   9.882  0.7339 -0.3394  0.3087
  240MOL0     C32995   3.365   4.741   9.768 -1.2800  0.0864  0.1492
  240MOL0     C32996   3.477   4.638   9.758 -0.3570 -0.4073  0.1941
  240MOL0     C32997   3.590   4.654   9.862  0.7436 -0.0949 -1.3709
  240MOL0     C32998   3.615   4.521   9.936  0.4505 -0.6824  0.4032
  240MOL0     N32999   3.740   4.539  10.016  0.7098  0.4093 -0.4057
  240MOL0     C33000   3.866   4.481   9.987 -0.1142  0.1044  0.1680
  240MOL0     C33001   3.946   4.507  10.100  0.8974 -0.0245  1.0762
  240MOL0     C33002   4.096   4.476  10.119  0.5735 -0.4933 -0.0417
  240MOL0     C33003   4.164   4.451   9.992 -0.2727 -0.6863  0.3873
  240MOL0     C33004   4.319   4.445  10.022 -0.7078 -0.8140 -0.1412
  240MOL0     C33005   4.396   4.558   9.946  0.6215 -0.5014  0.1374
  240MOL0     O33006   4.535   4.558   9.987 -0.1461  0.2876  0.5129
  240MOL0     C33007   4.625   4.636   9.921 -0.0688  0.2117 -0.2820
  240MOL0     C33008   4.756   4.612   9.942  0.3195  0.2045  0.8084
  240MOL0     C33009   4.863   4.683   9.877 -0.6658 -0.0014 -0.0216
  240MOL0     C33010   5.007   4.641   9.904  0.6368  0.2596  0.5145
  240MOL0     C33011   4.822   4.786   9.784  1.8742 -1.2574  0.0764
  240MOL0     C33012   4.918   4.870   9.704 -0.2801 -0.0342  0.4452
  240MOL0     O33013   4.870   4.980   9.632  0.3592 -0.6368  0.5106
  240MOL0     C33014   4.957   5.054   9.554  0.5935  0.1493  0.5963
  240MOL0     C33015   5.036   5.155   9.610  0.5071  0.2280  0.1095
  240MOL0     C33016   5.107   5.239   9.524 -0.7971  0.2638 -0.3748
  240MOL0     C33017   5.121   5.222   9.385  0.3666  0.2698  0.6882
  240MOL0     O33018   5.187   5.316   9.313  0.0534 -0.0727 -0.5364
  240MOL0     C33019   5.171   5.327   9.173 -0.6414  0.1513  0.0622
  240MOL0     C33020   5.286   5.422   9.127 -0.3773  0.1418 -0.0476
  240MOL0     C33021   5.280   5.455   8.978  0.5890 -0.1971  0.8144
  240MOL0     C33022   5.148   5.523   8.938  0.0798  1.8711  0.7290
  240MOL0     C33023   5.162   5.626   8.826 -0.5363  0.0243 -0.3813
  240MOL0     C33024   5.026   5.667   8.755 -0.2121  0.1916  0.7681
  240MOL0     C33025   4.995   5.582   8.634 -0.0777 -0.4487 -0.5269
  240MOL0     C33026   4.845   5.600   8.592 -0.3293  0.4481 -0.2624
  240MOL0    Cl33027   4.828   5.758   8.508  0.4487  0.1422  0.2932
  240MOL0     C33028   5.036   5.120   9.334 -0.2055 -0.3710  0.3969
  240MOL0     C33029   4.953   5.039   9.415 -0.2323 -0.2414  0.1322
  240MOL0     O33030   5.037   4.844   9.707 -0.6159  0.5160 -0.1075
  240MOL0     C33031   4.683   4.814   9.757 -0.7042  0.6687  0.3336
  240MOL0     C33032   4.586   4.738   9.830  0.4982 -0.5246 -0.0432
  240MOL0     N33033   3.863   4.562  10.193  0.4308 -0.0512  0.0072
  240MOL0     N33034   3.743   4.576  10.145 -0.2017 -0.2975  0.1438
  240MOL0     C33035   2.908   5.286   9.925 -0.3711 -0.4660 -0.3340
  240MOL0     C33036   2.829   5.391   9.976 -0.1787  0.7795 -0.0329
  240MOL0     C33037   2.485   5.600  10.199  0.0657 -0.0792  0.9809
  240MOL0     C33038   2.460   5.680  10.096  0.9302 -0.1406  0.4768
  240MOL0     C33039   2.365   5.783  10.104  0.1312 -0.7706 -0.4031
  240MOL0     C33040   2.309   5.821  10.230 -0.3247 -0.0226  0.5203
  240MOL0     O33041   2.233   5.932  10.235  0.1981 -0.8344 -0.8410
  240MOL0     C33042   2.184   5.985  10.360  0.0010 -0.1044  0.1104
  240MOL0     C33043   2.105   6.113  10.341  1.0850 -0.5966  0.5343
  240MOL0     C33044   1.981   6.103  10.254 -0.2784 -0.8595  0.2235
  240MOL0     C33045   1.864   6.033  10.332 -0.7065 -0.2180  0.5394
  240MOL0     C33046   1.765   6.117  10.394 -0.6447 -0.6902 -0.6369
  240MOL0     C33047   1.685   6.179  10.471 -0.1454  0.4946 -0.4501
  240MOL0     C33048   2.350   5.746  10.340  0.0026 -0.2276 -0.5317
  240MOL0     C33049   2.428   5.625  10.325  0.4447  0.5524 -0.2939
  240MOL0     C33050   2.459   5.546  10.449  0.0243  0.4537  0.1195
  240MOL0     H33051   2.538   5.221  10.022  1.5820 -0.2082  2.4233
  240MOL0     H33052   2.670   5.036   9.926  2.0254 -0.8458 -1.1614
  240MOL0     H33053   3.001   4.998  10.010  1.6533  1.9542  1.6587
  240MOL0     H33054   3.114   5.094   9.912 -0.8063  0.2721 -0.9657
  240MOL0     H33055   3.030   4.811   9.821 -0.1059 -0.6059  0.4517
  240MOL0     H33056   3.133   4.940   9.753 -1.6309  2.5316 -0.3623
  240MOL0     H33057   3.285   4.917   9.933  0.5628 -0.8665 -4.3421
  240MOL0     H33058   3.172   4.822  10.039 -0.5367  1.1519 -0.0420
  240MOL0     H33059   3.314   4.662   9.962  1.1486 -3.2249 -1.8276
  240MOL0     H33060   3.184   4.655   9.844  0.6774 -0.5048  0.6943
  240MOL0     H33061   3.422   4.832   9.791  1.0534 -1.6679  1.7341
  240MOL0     H33062   3.323   4.754   9.668  2.5525  3.0759 -1.3313
  240MOL0     H33063   3.435   4.538   9.772 -0.5322 -0.2410  0.8939
  240MOL0     H33064   3.516   4.650   9.657 -0.4841  1.3960  0.3274
  240MOL0     H33065   3.559   4.723   9.942 -0.0693  0.8542 -2.4688
  240MOL0     H33066   3.676   4.697   9.810  0.1157 -1.3795 -3.5558
  240MOL0     H33067   3.534   4.498  10.007  0.4656  1.6119  1.2380
  240MOL0     H33068   3.629   4.436   9.869 -0.7521 -0.8253  0.3062
  240MOL0     H33069   3.903   4.426   9.901  0.3258  0.8459 -0.1241
  240MOL0     H33070   4.113   4.405  10.200  3.8524 -0.7927 -0.8616
  240MOL0     H33071   4.135   4.571  10.157 -2.2821  1.3910 -1.4020
  240MOL0     H33072   4.135   4.353   9.954 -3.7470 -0.9287  3.1261
  240MOL0     H33073   4.138   4.532   9.924  3.3271  0.4140  0.1173
  240MOL0     H33074   4.341   4.455  10.128  2.2500 -0.2607 -0.7133
  240MOL0     H33075   4.367   4.351   9.994 -1.8290 -1.2390 -0.7113
  240MOL0     H33076   4.388   4.546   9.837 -1.3738 -2.5285  0.4444
  240MOL0     H33077   4.347   4.653   9.968  0.2111 -0.2511 -1.6640
  240MOL0     H33078   4.767   4.522  10.003 -0.7772 -0.8606 -0.4868
  240MOL0     H33079   5.066   4.731   9.921 -0.2366  1.4684 -2.2458
  240MOL0     H33080   5.038   4.577   9.821 -2.4317  3.0174 -3.1399
  240MOL0     H33081   5.012   4.585   9.997 -2.3651 -1.0080  0.0432
  240MOL0     H33082   5.029   5.173   9.716  0.1638 -0.1471  0.1531
  240MOL0     H33083   5.163   5.323   9.565 -1.9136  0.5919  0.5486
  240MOL0     H33084   5.182   5.235   9.115 -1.8944  0.9949 -1.6248
  240MOL0     H33085   5.072   5.365   9.147 -1.4473 -2.9667 -1.9554
  240MOL0     H33086   5.273   5.519   9.177 -0.8102  1.3243 -2.3059
  240MOL0     H33087   5.387   5.384   9.141 -0.1296  0.2883 -1.3233
  240MOL0     H33088   5.303   5.371   8.913  1.6504  0.9037 -0.3034
  240MOL0     H33089   5.355   5.532   8.959  0.2434  0.0754  0.5525
  240MOL0     H33090   5.111   5.578   9.025 -1.6563 -1.1897  2.1028
  240MOL0     H33091   5.078   5.444   8.909  0.7370  1.6439 -0.3057
  240MOL0     H33092   5.198   5.719   8.870  2.7595 -0.7719 -1.1330
  240MOL0     H33093   5.239   5.591   8.756  0.3112  2.1285 -0.6044
  240MOL0     H33094   5.031   5.771   8.721  0.5934 -0.0039  0.2693
  240MOL0     H33095   4.937   5.658   8.819 -2.4870 -2.7868 -2.4811
  240MOL0     H33096   5.002   5.477   8.664  0.6877 -0.0798  0.6428
  240MOL0     H33097   5.069   5.601   8.555 -0.4977 -0.0793 -0.8386
  240MOL0     H33098   4.783   5.598   8.682  2.2426  3.4551  1.8004
  240MOL0     H33099   4.827   5.517   8.524  1.6026 -2.7422  2.7728
  240MOL0     H33100   5.019   5.116   9.227  0.6779  0.5899  0.2134
  240MOL0     H33101   4.885   4.964   9.377 -1.3150  0.2944  0.9375
  240MOL0     H33102   4.659   4.889   9.683  0.1610  0.0799 -0.5767
  240MOL0     H33103   4.483   4.771   9.818  0.6024 -0.3646 -0.5476
  240MOL0     H33104   3.007   5.312   9.889 -1.4448  0.7686 -2.6774
  240MOL0     H33105   2.864   5.493   9.985 -1.9828  1.2447  4.4503
  240MOL0     H33106   2.509   5.656  10.002  2.3305 -2.6933  1.7632
  240MOL0     H33107   2.323   5.827  10.014 -2.1279 -2.5932 -0.3357
  240MOL0     H33108   2.127   5.915  10.422  1.2441 -0.6724  0.6443
  240MOL0     H33109   2.270   6.014  10.422 -0.0737  1.6608 -0.5497
  240MOL0     H33110   2.170   6.183  10.288 -2.1763  2.6138  0.3831
  240MOL0     H33111   2.089   6.159  10.439  3.0548  0.9227  0.2040
  240MOL0     H33112   1.950   6.205  10.231  2.1703 -0.3047 -0.8992
  240MOL0     H33113   2.004   6.049  10.162 -0.5347  0.9990 -0.9762
  240MOL0     H33114   1.894   5.951  10.398  0.2882  1.2435  1.9930
  240MOL0     H33115   1.815   5.988  10.244 -0.9474  1.1207 -0.0333
  240MOL0     H33116   1.629   6.228  10.547  2.4745  0.8168  1.4072
  240MOL0     H33117   2.319   5.772  10.440  0.2791 -3.2763  0.4452
  240MOL0     H33118   2.401   5.589  10.531  0.7479  2.8404 -0.5551
  240MOL0     H33119   2.420   5.444  10.453  2.1057 -0.3701  1.2964
  240MOL0     H33120   2.566   5.549  10.472  0.2651 -1.4021 -0.5538
  241MOL0     O33121   8.565   2.235  10.167  0.5347 -0.0770  0.6333
  241MOL0     C33122   8.655   2.298  10.119  0.1431  0.1339 -0.7187
  241MOL0     O33123   8.647   2.367  10.001 -0.0968 -0.0663 -0.3545
  241MOL0     C33124   8.551   2.333   9.907  0.3649 -1.4617  0.2457
  241MOL0     C33125   8.492   2.436   9.836  0.4961 -0.0543  0.4094
  241MOL0     C33126   8.402   2.410   9.737  0.7133  0.2318  1.0002
  241MOL0     C33127   8.377   2.275   9.696 -0.0010  0.4412  0.3280
  241MOL0     O33128   8.298   2.239   9.584  0.5177  0.2401  0.8106
  241MOL0     C33129   8.190   2.332   9.544 -0.8292  0.2906  0.4723
  241MOL0     C33130   8.100   2.261   9.447  0.1239 -0.4389 -0.1006
  241MOL0     C33131   7.955   2.323   9.438  0.0666 -0.0884 -0.3037
  241MOL0     C33132   7.946   2.441   9.337 -0.4467  1.0489 -0.4111
  241MOL0     C33133   7.800   2.447   9.310  0.2339 -0.9387 -0.4302
  241MOL0     C33134   7.771   2.549   9.206 -1.1149  0.6783  0.1864
  241MOL0     C33135   7.816   2.687   9.243 -0.3095 -0.1683  0.0734
  241MOL0     C33136   7.762   2.783   9.135 -0.5389 -1.6148  0.0916
  241MOL0     N33137   7.864   2.801   9.028 -0.2958 -0.9261 -0.9795
  241MOL0     C33138   7.978   2.878   9.028 -0.0683 -0.4661 -0.2285
  241MOL0     C33139   8.008   2.901   8.903  0.5424  0.4056 -0.0689
  241MOL0     C33140   8.133   2.964   8.848 -0.2296  0.0693 -0.3704
  241MOL0     C33141   8.159   2.953   8.692  0.3082 -0.4516 -0.6800
  241MOL0     C33142   8.291   2.995   8.647 -0.0481  0.6893 -0.4773
  241MOL0     C33143   8.331   3.145   8.654  0.4114  0.9465 -0.3175
  241MOL0     O33144   8.464   3.169   8.599 -0.1548 -0.5610 -0.2696
  241MOL0     C33145   8.572   3.129   8.659 -0.5876 -0.0095  0.2018
  241MOL0     C33146   8.684   3.127   8.580  0.1894  0.1800  0.3027
  241MOL0     C33147   8.811   3.085   8.628 -0.2331  1.2297  0.7640
  241MOL0     C33148   8.934   3.082   8.533  0.0129  0.7120  0.1187
  241MOL0     C33149   8.829   3.053   8.763  0.2125  0.7604 -0.1071
  241MOL0     C33150   8.954   2.998   8.825 -0.4452  0.2244 -0.1201
  241MOL0     O33151   9.015   2.896   8.767  0.2383 -0.5938 -0.1457
  241MOL0     C33152   9.148   2.878   8.805  0.4989  0.5324  0.5635
  241MOL0     C33153   9.247   2.963   8.830 -0.5041  0.0003  0.8257
  241MOL0     C33154   9.366   2.918   8.879 -0.6167 -0.0827  0.0022
  241MOL0     C33155   9.389   2.787   8.908 -0.5114  0.3590  0.3959
  241MOL0     O33156   9.511   2.755   8.969  0.0016  0.2492 -1.1293
  241MOL0     C33157   9.549   2.620   8.988 -0.1789 -0.4539 -0.8869
  241MOL0     C33158   9.691   2.612   9.045 -0.2906  0.3344 -0.5417
  241MOL0     C33159   9.699   2.649   9.196 -0.1493 -0.3873  0.0025
  241MOL0     C33160   9.836   2.682   9.228 -0.8458 -0.1660  0.2171
  241MOL0     C33161   9.844   2.745   9.372  0.3400 -0.1441  0.7471
  241MOL0     C33162   9.991   2.771   9.407 -0.2070  0.0613 -0.7344
  241MOL0     C33163  10.012   2.827   9.548  0.1842 -0.4412 -0.4102
  241MOL0     C33164  10.160   2.874   9.560  0.2691  0.0142 -0.0408
  241MOL0    Cl33165  10.200   2.925   9.732 -0.0287 -0.0044 -0.3463
  241MOL0     C33166   9.299   2.696   8.866  0.5387  0.4516  0.2395
  241MOL0     C33167   9.178   2.739   8.811 -0.5620 -0.3479  0.0069
  241MOL0     O33168   8.975   3.030   8.943  0.1190 -0.4814  0.3780
  241MOL0     C33169   8.711   3.051   8.840  0.3144  1.0139  0.1483
  241MOL0     C33170   8.587   3.080   8.783  0.7024 -0.6162 -0.0994
  241MOL0     N33171   7.921   2.838   8.820  0.3754 -0.4114 -0.7046
  241MOL0     N33172   7.845   2.771   8.902 -0.0329 -0.1448 -0.5605
  241MOL0     C33173   8.435   2.171   9.775  0.3008 -0.1917  0.1614
  241MOL0     C33174   8.522   2.206   9.877  0.2387  0.0271 -0.4329
  241MOL0     C33175   8.791   2.306  10.188  0.4829  0.2761 -0.1648
  241MOL0     C33176   8.885   2.392  10.129  0.0653 -0.2470  0.3578
  241MOL0     C33177   9.013   2.401  10.186  0.0864 -0.6151  0.9221
  241MOL0     C33178   9.061   2.331  10.299 -0.4071 -0.1963  0.2772
  241MOL0     O33179   9.186   2.362  10.345 -0.4709 -0.4714 -0.2719
  241MOL0     C33180   9.262   2.274  10.425 -0.5700  0.0854 -0.1346
  241MOL0     C33181   9.393   2.341  10.466  0.1112  0.7765 -0.5632
  241MOL0     C33182   9.511   2.247  10.498  0.1782  0.7761  0.2305
  241MOL0     C33183   9.646   2.303  10.536  0.2045 -0.6183 -0.5143
  241MOL0     C33184   9.725   2.212  10.618 -0.0687 -0.5386 -0.0556
  241MOL0     C33185   9.779   2.142  10.703 -0.4528 -0.4251  0.1694
  241MOL0     C33186   8.970   2.236  10.354 -0.0040 -0.5437  0.5845
  241MOL0     C33187   8.836   2.221  10.295  0.6468  0.4711 -0.7384
  241MOL0     C33188   8.755   2.104  10.343  0.2114 -0.5074  0.1900
  241MOL0     H33189   8.511   2.538   9.870  2.4390  0.3978 -1.7636
  241MOL0     H33190   8.352   2.496   9.693  0.6764  0.5555  1.6693
  241MOL0     H33191   8.231   2.422   9.498  2.0707  0.7152  3.5111
  241MOL0     H33192   8.136   2.371   9.630  0.1410  1.4867  0.5643
  241MOL0     H33193   8.140   2.244   9.347  1.7831  3.6049 -0.3028
  241MOL0     H33194   8.090   2.163   9.495 -1.0929 -0.7931 -1.0153
  241MOL0     H33195   7.885   2.241   9.418 -0.6758  0.5025 -0.1517
  241MOL0     H33196   7.924   2.347   9.540  2.8182 -0.9513  0.8288
  241MOL0     H33197   7.994   2.532   9.375  0.6915 -0.5777  2.3632
  241MOL0     H33198   8.004   2.404   9.252 -0.1231 -4.3096  1.7389
  241MOL0     H33199   7.743   2.474   9.400 -0.9587 -3.3262 -0.3760
  241MOL0     H33200   7.758   2.348   9.289 -1.6642 -0.2520 -0.0565
  241MOL0     H33201   7.814   2.531   9.107 -2.0826  2.4451 -0.6026
  241MOL0     H33202   7.663   2.550   9.188 -1.0801  1.6638 -0.0434
  241MOL0     H33203   7.924   2.701   9.255 -0.6436  0.0930  3.8880
  241MOL0     H33204   7.777   2.722   9.339  2.0898  0.0279  1.0319
  241MOL0     H33205   7.665   2.746   9.102 -0.1412 -1.9238 -0.7491
  241MOL0     H33206   7.734   2.873   9.191  1.5464 -0.6555 -0.3316
  241MOL0     H33207   8.028   2.919   9.116  0.2408 -0.0243 -0.6072
  241MOL0     H33208   8.217   2.929   8.909 -0.9510 -0.7164  0.1821
  241MOL0     H33209   8.133   3.070   8.877  2.4707 -0.5191  2.2872
  241MOL0     H33210   8.156   2.848   8.661  3.9554 -2.1146  3.5599
  241MOL0     H33211   8.077   3.005   8.641 -1.1832 -3.1520 -1.2441
  241MOL0     H33212   8.354   2.935   8.712 -1.9001  0.2977  1.0622
  241MOL0     H33213   8.291   2.963   8.542 -0.9474 -2.6205  0.4332
  241MOL0     H33214   8.249   3.201   8.609 -1.2638  1.2468  2.7933
  241MOL0     H33215   8.338   3.174   8.760 -2.2788  1.9586 -0.3461
  241MOL0     H33216   8.660   3.167   8.483 -1.4167  1.3519  1.1378
  241MOL0     H33217   9.026   3.097   8.588  1.5506 -2.9317 -1.1414
  241MOL0     H33218   8.925   3.161   8.458  1.4854  2.2055  1.4506
  241MOL0     H33219   8.938   2.984   8.484  1.2751  0.8263 -0.0283
  241MOL0     H33220   9.236   3.070   8.815  3.8665  0.3734 -1.3096
  241MOL0     H33221   9.428   3.000   8.914 -1.6273 -0.0169  1.7786
  241MOL0     H33222   9.492   2.574   9.069  0.4786  1.2708  0.6185
  241MOL0     H33223   9.534   2.560   8.897  0.5089 -0.5289 -0.9555
  241MOL0     H33224   9.732   2.511   9.047 -0.2476  0.3602  0.0991
  241MOL0     H33225   9.754   2.675   8.980  0.2741  0.9531  0.5832
  241MOL0     H33226   9.667   2.571   9.266 -0.2275 -1.2367 -0.9457
  241MOL0     H33227   9.637   2.737   9.210 -3.1066 -2.4199  0.6897
  241MOL0     H33228   9.859   2.769   9.165  2.1154 -0.3988  0.8442
  241MOL0     H33229   9.898   2.593   9.224 -1.1573 -0.3979  0.5391
  241MOL0     H33230   9.787   2.838   9.376 -2.0831 -1.3666 -2.1451
  241MOL0     H33231   9.805   2.672   9.444  0.7905 -0.6003  0.5329
  241MOL0     H33232  10.034   2.830   9.326 -2.1541  0.5792 -1.4503
  241MOL0     H33233  10.048   2.677   9.409  1.0587  0.7911 -1.5180
  241MOL0     H33234   9.990   2.750   9.623 -3.1612  2.4455  1.8711
  241MOL0     H33235   9.941   2.907   9.567  0.9820  0.7160 -2.0559
  241MOL0     H33236  10.185   2.951   9.487  2.3352 -0.6364 -0.0886
  241MOL0     H33237  10.219   2.790   9.522 -2.6518 -1.2638 -2.1013
  241MOL0     H33238   9.329   2.592   8.864  1.3987  0.5247  3.3757
  241MOL0     H33239   9.109   2.659   8.784 -0.2497 -1.8085  3.0367
  241MOL0     H33240   8.732   3.015   8.940  1.5348  0.3206 -0.3351
  241MOL0     H33241   8.502   3.081   8.851 -1.0460  1.6095 -2.1258
  241MOL0     H33242   8.422   2.065   9.755  0.3396 -0.5215  1.7696
  241MOL0     H33243   8.576   2.132   9.936  0.8027  0.2687 -0.6441
  241MOL0     H33244   8.853   2.454  10.047  0.7168  1.1392  1.1276
  241MOL0     H33245   9.082   2.466  10.134 -2.1278 -0.6340 -2.3146
  241MOL0     H33246   9.210   2.237  10.514  3.1378 -0.8942  1.8111
  241MOL0     H33247   9.279   2.186  10.363 -0.0324 -0.7534  1.1584
  241MOL0     H33248   9.378   2.396  10.559  0.3282 -1.8035  1.1139
  241MOL0     H33249   9.424   2.405  10.383 -0.0281  1.9913  0.3086
  241MOL0     H33250   9.479   2.167  10.566  0.1120  0.3964 -0.2416
  241MOL0     H33251   9.536   2.202  10.401  2.7200 -2.0102  1.9908
  241MOL0     H33252   9.622   2.390  10.597  2.3782 -0.6941  0.5308
  241MOL0     H33253   9.698   2.342  10.448 -1.1512  1.5086 -0.4539
  241MOL0     H33254   9.823   2.088  10.784  2.8330 -0.7947 -1.6805
  241MOL0     H33255   8.990   2.176  10.442 -3.5522 -0.2275  1.7635
  241MOL0     H33256   8.811   2.036  10.408 -3.6590 -1.7672  2.5718
  241MOL0     H33257   8.663   2.132  10.395 -0.4616  1.2340 -1.7956
  241MOL0     H33258   8.720   2.042  10.260  0.5461  1.1269 -1.2161
  242MOL0     O33259   8.559   7.300   2.096  0.4260  0.2616  0.2016
  242MOL0     C33260   8.522   7.316   2.209  0.5780  0.7554 -0.0802
  242MOL0     O33261   8.613   7.362   2.301  0.7276 -0.4104 -0.6400
  242MOL0     C33262   8.744   7.329   2.277 -0.7918 -0.7402 -0.6639
  242MOL0     C33263   8.806   7.211   2.323 -0.7990  1.1533 -0.3998
  242MOL0     C33264   8.938   7.182   2.285 -0.1749 -0.2351 -0.4255
  242MOL0     C33265   9.016   7.278   2.226  0.7076 -0.6228 -0.0473
  242MOL0     O33266   9.150   7.263   2.201 -0.2309 -0.1179 -0.1642
  242MOL0     C33267   9.232   7.180   2.295 -0.3019 -0.1123  0.6541
  242MOL0     C33268   9.379   7.183   2.253  0.0874 -0.2718 -0.3371
  242MOL0     C33269   9.458   7.106   2.353  0.3672  0.9635 -0.1131
  242MOL0     C33270   9.460   6.953   2.359  0.2049  1.4659 -0.5234
  242MOL0     C33271   9.472   6.915   2.503  0.5742  0.2482  0.0734
  242MOL0     C33272   9.473   6.769   2.528  0.1363  0.2344  0.2165
  242MOL0     C33273   9.456   6.733   2.674 -0.0109 -0.7077  0.1782
  242MOL0     C33274   9.411   6.595   2.691 -0.5994 -0.7215  0.4389
  242MOL0     N33275   9.288   6.565   2.621  0.5351  0.6369  1.3401
  242MOL0     C33276   9.169   6.639   2.613  0.3828  0.1383  0.0783
  242MOL0     C33277   9.108   6.593   2.497  0.2213 -0.3864 -0.7150
  242MOL0     C33278   8.973   6.633   2.437 -0.0044 -0.5856  0.8006
  242MOL0     C33279   8.975   6.778   2.391 -1.3319 -0.8862  0.2668
  242MOL0     C33280   9.080   6.811   2.277 -0.3312 -0.9065  0.0560
  242MOL0     C33281   9.077   6.716   2.158 -0.3756 -0.7090  0.2404
  242MOL0     O33282   9.149   6.771   2.048  0.4529 -0.1224  0.0304
  242MOL0     C33283   9.286   6.751   2.061 -0.4471  0.5839 -0.2690
  242MOL0     C33284   9.348   6.631   2.087 -0.0195  0.1721  0.0900
  242MOL0     C33285   9.491   6.620   2.083 -0.0575 -0.0962 -0.3073
  242MOL0     C33286   9.539   6.477   2.108  1.0261 -0.4051  0.5938
  242MOL0     C33287   9.573   6.739   2.061  0.8834  0.5167 -0.4354
  242MOL0     C33288   9.717   6.747   2.063  0.0270 -0.9091 -0.2631
  242MOL0     O33289   9.774   6.863   2.005  0.1587 -0.0819 -0.2020
  242MOL0     C33290   9.908   6.865   1.981  1.0448 -0.3403 -1.1177
  242MOL0     C33291   9.985   6.924   2.080 -0.0786  0.6563 -0.8637
  242MOL0     C33292  10.120   6.942   2.057  0.6864 -0.4932  0.4458
  242MOL0     C33293  10.186   6.893   1.940  0.5244 -1.1639 -0.3216
  242MOL0     O33294  10.316   6.926   1.909  0.3086  0.8369  0.7198
  242MOL0     C33295  10.333   7.065   1.908  0.4993  0.8277  0.2044
  242MOL0     C33296  10.480   7.077   1.879  0.4241  0.2293  0.6201
  242MOL0     C33297  10.562   7.094   2.011  0.2231 -0.3067  0.0374
  242MOL0     C33298  10.720   7.092   1.982 -0.2573 -0.5454 -0.1611
  242MOL0     C33299  10.774   7.239   1.952 -0.7158  0.7847 -0.5755
  242MOL0     C33300  10.926   7.234   1.944 -0.1834 -0.1536 -1.2123
  242MOL0     C33301  10.996   7.376   1.918  0.4971 -0.2995  0.4768
  242MOL0     C33302  11.136   7.368   1.862 -1.4412  0.2374 -0.1931
  242MOL0    Cl33303  11.156   7.272   1.710  0.6621 -0.4069  0.0101
  242MOL0     C33304  10.106   6.835   1.843  0.1387 -1.2560 -0.8793
  242MOL0     C33305   9.964   6.820   1.864  0.2673  0.6184  0.3833
  242MOL0     O33306   9.780   6.665   2.126  0.7146 -0.1969 -0.0971
  242MOL0     C33307   9.503   6.859   2.026  0.6586 -0.6586 -0.0541
  242MOL0     C33308   9.366   6.867   2.034  0.7840  0.0444  0.5386
  242MOL0     N33309   9.193   6.492   2.450 -0.4712 -0.1766 -0.2643
  242MOL0     N33310   9.297   6.473   2.524  0.4981 -0.7634  0.0271
  242MOL0     C33311   8.958   7.393   2.189  0.0070 -0.4191 -1.0386
  242MOL0     C33312   8.827   7.423   2.205 -0.1132  0.3074  0.7569
  242MOL0     C33313   8.389   7.293   2.257  0.8108 -0.7310  0.1904
  242MOL0     C33314   8.350   7.352   2.381  0.5522  0.5269 -0.0567
  242MOL0     C33315   8.228   7.331   2.436 -0.1641 -0.0573  0.9356
  242MOL0     C33316   8.143   7.235   2.378 -0.3728 -0.6599  1.2961
  242MOL0     O33317   8.016   7.225   2.432  0.1021  0.1684 -0.0194
  242MOL0     C33318   7.958   7.340   2.494  0.1360 -0.0987 -0.5042
  242MOL0     C33319   7.812   7.322   2.466 -0.0690  0.5884  0.5240
  242MOL0     C33320   7.740   7.207   2.533 -0.1711  0.1631 -0.0701
  242MOL0     C33321   7.594   7.174   2.477 -0.3728 -0.0301 -0.8604
  242MOL0     C33322   7.501   7.289   2.494  0.0941  0.5314 -0.5630
  242MOL0     C33323   7.425   7.382   2.500  0.4198  0.2287  0.4429
  242MOL0     C33324   8.185   7.173   2.257  0.0542 -0.0475 -0.0931
  242MOL0     C33325   8.307   7.203   2.195  0.3046  0.2111 -0.0264
  242MOL0     C33326   8.336   7.127   2.062 -0.1657 -0.5745  0.7426
  242MOL0     H33327   8.745   7.159   2.396  0.3333  1.0065  0.4771
  242MOL0     H33328   8.977   7.086   2.318 -0.2599 -0.0427  0.2452
  242MOL0     H33329   9.198   7.077   2.307 -0.9659  0.3491  3.3844
  242MOL0     H33330   9.219   7.228   2.393 -0.0851 -0.7929  1.0170
  242MOL0     H33331   9.408   7.138   2.158 -1.2139  1.1064 -1.4171
  242MOL0     H33332   9.408   7.288   2.252 -1.8604  0.3423 -3.6528
  242MOL0     H33333   9.561   7.139   2.342  0.1610  1.5405 -0.3257
  242MOL0     H33334   9.427   7.146   2.450  1.8667  2.1941 -0.1011
  242MOL0     H33335   9.369   6.915   2.313  1.9808 -1.7311 -1.7112
  242MOL0     H33336   9.545   6.916   2.301 -1.1278  0.3937 -1.8466
  242MOL0     H33337   9.392   6.969   2.555  0.4948  0.3339 -0.1409
  242MOL0     H33338   9.572   6.949   2.534 -0.3487  0.8835  2.6269
  242MOL0     H33339   9.403   6.725   2.456  1.8185 -1.5471 -0.4411
  242MOL0     H33340   9.568   6.726   2.494  1.1114  2.7878 -0.4885
  242MOL0     H33341   9.371   6.787   2.717  1.2885 -0.9932  3.3619
  242MOL0     H33342   9.545   6.763   2.730 -0.1032 -0.9181  0.4413
  242MOL0     H33343   9.495   6.532   2.660  1.1326 -0.4682  4.0749
  242MOL0     H33344   9.400   6.584   2.799 -2.5316  3.1114  0.7835
  242MOL0     H33345   9.121   6.706   2.684 -1.2467 -0.1373 -0.7212
  242MOL0     H33346   8.898   6.617   2.515  2.0944 -1.9732  2.6473
  242MOL0     H33347   8.951   6.569   2.350  3.5221  2.4716 -2.7531
  242MOL0     H33348   8.873   6.794   2.356 -1.4613 -1.7016  0.2622
  242MOL0     H33349   8.983   6.848   2.474  3.1089 -0.4526 -0.2813
  242MOL0     H33350   9.066   6.914   2.241  2.6579 -1.4005 -2.9603
  242MOL0     H33351   9.179   6.813   2.323 -0.6189 -0.7986  0.6947
  242MOL0     H33352   9.111   6.616   2.187  4.5870  0.9149  0.9591
  242MOL0     H33353   8.975   6.712   2.119  0.8314  1.7881 -3.6950
  242MOL0     H33354   9.277   6.549   2.084 -0.4650  0.3846  2.6541
  242MOL0     H33355   9.601   6.465   2.197  2.8871  0.7347 -0.4992
  242MOL0     H33356   9.588   6.432   2.022 -0.2052 -0.0935 -0.2959
  242MOL0     H33357   9.451   6.411   2.112 -1.0106  2.1802  0.9413
  242MOL0     H33358   9.937   6.945   2.175  0.6841 -2.6940  0.3952
  242MOL0     H33359  10.179   6.994   2.132  0.3978 -1.5433  1.4214
  242MOL0     H33360  10.267   7.107   1.831 -0.4926  0.4409  0.8268
  242MOL0     H33361  10.309   7.112   2.004  0.1015  2.7243 -0.7846
  242MOL0     H33362  10.509   6.989   1.821  1.0481  1.2431 -0.6559
  242MOL0     H33363  10.496   7.171   1.825 -1.1781  0.2286  0.0923
  242MOL0     H33364  10.541   7.012   2.080  0.0666  0.5426  1.0307
  242MOL0     H33365  10.530   7.190   2.055  0.7182 -0.6616  1.2168
  242MOL0     H33366  10.752   7.023   1.903  0.4150  0.0165 -0.3835
  242MOL0     H33367  10.755   7.054   2.079  2.6184 -1.8916 -1.5798
  242MOL0     H33368  10.731   7.283   1.862  0.0152  1.0131 -0.8195
  242MOL0     H33369  10.744   7.307   2.032 -1.4980 -0.2366  0.0195
  242MOL0     H33370  10.960   7.169   1.863 -1.5890 -0.5185 -1.5221
  242MOL0     H33371  10.965   7.203   2.042 -2.3179  0.9328  0.0585
  242MOL0     H33372  10.996   7.437   2.009 -0.9325  0.9692 -0.3144
  242MOL0     H33373  10.930   7.424   1.844  2.6937 -0.0547 -1.4150
  242MOL0     H33374  11.194   7.333   1.947 -0.6449  0.3733 -0.6774
  242MOL0     H33375  11.164   7.470   1.836 -0.6271  1.1131  3.5408
  242MOL0     H33376  10.153   6.802   1.751  0.7132 -0.5298 -0.8654
  242MOL0     H33377   9.906   6.765   1.791 -1.2409  2.9212 -0.2641
  242MOL0     H33378   9.548   6.953   1.996 -3.4250  2.0228  1.2793
  242MOL0     H33379   9.316   6.957   1.998 -3.3906 -1.9477  0.8243
  242MOL0     H33380   9.018   7.477   2.156 -1.6569  1.6226  0.7907
  242MOL0     H33381   8.779   7.517   2.178  0.7945  1.0321  1.5514
  242MOL0     H33382   8.407   7.420   2.444 -0.3054  2.3394 -1.1456
  242MOL0     H33383   8.188   7.385   2.522 -0.3013  0.4333  0.5636
  242MOL0     H33384   7.985   7.350   2.599 -0.2512 -1.3736 -0.2642
  242MOL0     H33385   7.983   7.435   2.446 -2.9582  2.2379  2.0826
  242MOL0     H33386   7.810   7.302   2.358 -2.2217  0.0667  0.6170
  242MOL0     H33387   7.757   7.416   2.481 -0.4559 -0.0336  3.6061
  242MOL0     H33388   7.813   7.125   2.531  1.3782  1.4795 -2.1487
  242MOL0     H33389   7.727   7.233   2.638  1.6949  0.0029  0.2373
  242MOL0     H33390   7.563   7.084   2.531  0.1868  2.3767  4.0324
  242MOL0     H33391   7.607   7.153   2.370 -0.0938  4.6921 -1.9791
  242MOL0     H33392   7.348   7.456   2.495  0.4772  0.2685  0.1612
  242MOL0     H33393   8.109   7.111   2.211 -0.3008 -0.1304  0.5858
  242MOL0     H33394   8.350   7.203   1.984  2.2463 -0.4799  1.2193
  242MOL0     H33395   8.416   7.053   2.057 -0.0106 -0.3281 -1.0051
  242MOL0     H33396   8.243   7.077   2.033 -0.5798  0.0211  1.0331
  243MOL0     O33397   3.447   2.918   6.352  0.5422  0.1027  0.0379
  243MOL0     C33398   3.354   2.918   6.276 -0.6515  0.1900  0.2708
  243MOL0     O33399   3.358   2.955   6.144 -0.3717 -0.7138 -0.3056
  243MOL0     C33400   3.483   2.999   6.102  0.6802 -0.7223  1.0012
  243MOL0     C33401   3.571   2.915   6.044 -0.9411 -0.1425  0.7494
  243MOL0     C33402   3.703   2.951   6.026 -0.5673 -0.0112 -0.2836
  243MOL0     C33403   3.750   3.080   6.067 -0.4411 -0.8545 -0.3016
  243MOL0     O33404   3.882   3.104   6.046 -0.4869 -0.8142  0.0690
  243MOL0     C33405   3.945   3.211   6.121  0.0497  0.4173  0.1582
  243MOL0     C33406   4.098   3.194   6.133 -0.6089  0.2290  0.4228
  243MOL0     C33407   4.171   3.288   6.237  0.8839 -0.7281  1.1317
  243MOL0     C33408   4.304   3.232   6.294  0.8883 -0.9555  0.5155
  243MOL0     C33409   4.385   3.359   6.333  1.1229  0.3170  0.1079
  243MOL0     C33410   4.524   3.306   6.360 -0.1976  0.0308 -0.6866
  243MOL0     C33411   4.591   3.411   6.449 -0.5461 -0.6422 -0.1831
  243MOL0     C33412   4.640   3.536   6.377 -0.4336  0.7216 -0.0573
  243MOL0     N33413   4.702   3.630   6.465 -0.6973 -0.0247 -0.0946
  243MOL0     C33414   4.799   3.723   6.424  0.2006  0.9818 -0.6897
  243MOL0     C33415   4.826   3.793   6.536 -0.6872  0.0822 -1.0920
  243MOL0     C33416   4.914   3.910   6.542  0.2217 -0.7801  0.6180
  243MOL0     C33417   5.055   3.875   6.595  0.5684  0.4278  0.3169
  243MOL0     C33418   5.047   3.835   6.752  0.1118 -0.1931 -0.1666
  243MOL0     C33419   5.190   3.825   6.812  0.1635 -0.8823  0.6729
  243MOL0     O33420   5.272   3.948   6.778 -0.3194 -0.0369 -0.4243
  243MOL0     C33421   5.397   3.957   6.845  0.3508  0.3396  0.5022
  243MOL0     C33422   5.479   4.068   6.813  0.1152  0.3711  0.4327
  243MOL0     C33423   5.594   4.092   6.883 -1.0639  0.3996 -0.2155
  243MOL0     C33424   5.661   4.217   6.850  0.5913 -0.2730  0.2580
  243MOL0     C33425   5.637   4.004   6.988 -0.1323  0.5865 -0.1173
  243MOL0     C33426   5.771   4.020   7.066  0.1861 -0.4297 -0.2934
  243MOL0     O33427   5.833   4.141   7.073  0.5073 -0.7722 -0.2381
  243MOL0     C33428   5.952   4.158   7.133  0.4255  1.1532 -0.0980
  243MOL0     C33429   6.054   4.067   7.141 -0.1482  0.1649  0.1765
  243MOL0     C33430   6.169   4.102   7.222  0.0137  1.3790 -0.1649
  243MOL0     C33431   6.180   4.220   7.306  0.5294 -0.1998  0.9977
  243MOL0     O33432   6.287   4.250   7.380 -0.4918 -0.2584 -0.5668
  243MOL0     C33433   6.336   4.383   7.408  0.1815 -0.3150  0.7216
  243MOL0     C33434   6.474   4.398   7.354 -0.5167 -0.1758  0.5247
  243MOL0     C33435   6.536   4.540   7.360 -0.1572  0.0789 -0.0176
  243MOL0     C33436   6.450   4.650   7.296  0.2404 -0.0362 -0.4172
  243MOL0     C33437   6.517   4.795   7.295 -0.3347 -0.6660 -0.9907
  243MOL0     C33438   6.414   4.898   7.273 -0.0827  0.2189 -0.5323
  243MOL0     C33439   6.340   4.893   7.136 -0.2645 -0.5594  0.4910
  243MOL0     C33440   6.295   5.038   7.094 -0.0580  0.4142  0.0256
  243MOL0    Cl33441   6.445   5.126   7.028  0.4336  0.1215  0.4467
  243MOL0     C33442   6.065   4.307   7.294 -0.5109  0.1535 -0.4559
  243MOL0     C33443   5.957   4.273   7.222 -0.5116  0.0846  0.6363
  243MOL0     O33444   5.802   3.921   7.140  0.5426 -0.0965  0.0998
  243MOL0     C33445   5.561   3.886   7.007  0.8682  0.2623 -0.3590
  243MOL0     C33446   5.438   3.866   6.941  0.1948  0.3159 -0.0224
  243MOL0     N33447   4.736   3.747   6.631  0.8280  0.5002 -0.3967
  243MOL0     N33448   4.672   3.648   6.592  0.5882 -0.3383 -0.8975
  243MOL0     C33449   3.656   3.167   6.129  0.2232 -0.8128  0.1766
  243MOL0     C33450   3.524   3.126   6.149 -0.3078  0.9288 -0.5853
  243MOL0     C33451   3.219   2.891   6.344 -0.5434 -1.0426 -0.0338
  243MOL0     C33452   3.219   2.829   6.466 -0.2046 -0.6823 -0.6630
  243MOL0     C33453   3.101   2.801   6.534  0.0347  0.3380 -0.0727
  243MOL0     C33454   2.974   2.835   6.475  1.7020 -0.2703 -0.6622
  243MOL0     O33455   2.858   2.810   6.550  0.1529 -0.7862  0.0892
  243MOL0     C33456   2.770   2.924   6.572  0.0558 -0.7561 -0.5874
  243MOL0     C33457   2.821   3.029   6.666 -0.4482 -1.4912  0.3115
  243MOL0     C33458   2.887   3.146   6.603 -0.5154  0.5311  0.1121
  243MOL0     C33459   2.905   3.261   6.706  0.0557 -0.1599  0.3690
  243MOL0     C33460   3.035   3.243   6.778 -0.0339 -0.0529  0.3263
  243MOL0     C33461   3.136   3.234   6.843 -0.2977  0.6864 -0.0023
  243MOL0     C33462   2.971   2.885   6.350  0.6860 -0.5488 -0.0725
  243MOL0     C33463   3.092   2.911   6.285 -0.4840 -0.6794 -0.0911
  243MOL0     C33464   3.065   2.967   6.142  0.5401 -0.3545 -0.5885
  243MOL0     H33465   3.538   2.814   6.022 -2.0403  0.2793  0.4396
  243MOL0     H33466   3.770   2.874   5.990  2.3681  2.5863 -0.7720
  243MOL0     H33467   3.906   3.197   6.222 -0.0541 -3.8269 -0.3004
  243MOL0     H33468   3.916   3.310   6.083 -1.2143 -1.1010 -3.2867
  243MOL0     H33469   4.108   3.089   6.160 -2.7268  0.4919  2.5033
  243MOL0     H33470   4.151   3.200   6.037  2.1314 -3.9252  1.4161
  243MOL0     H33471   4.186   3.387   6.192  0.5810 -1.3628 -0.4055
  243MOL0     H33472   4.112   3.311   6.326  0.4714  1.6793  0.3311
  243MOL0     H33473   4.272   3.161   6.371  1.5780  0.9608  2.6773
  243MOL0     H33474   4.350   3.171   6.216  0.3078  0.1560 -0.7464
  243MOL0     H33475   4.337   3.399   6.423 -1.0956 -2.1553  0.1463
  243MOL0     H33476   4.389   3.435   6.254 -0.1023  0.1413 -0.1395
  243MOL0     H33477   4.521   3.213   6.416 -0.8546  2.1284  3.0782
  243MOL0     H33478   4.574   3.288   6.264 -1.2896  1.4306 -1.5594
  243MOL0     H33479   4.673   3.356   6.496  0.7760 -0.5819 -2.2861
  243MOL0     H33480   4.532   3.441   6.536  2.0942 -1.0968  1.8849
  243MOL0     H33481   4.713   3.501   6.304 -0.3376  0.6832  0.0555
  243MOL0     H33482   4.560   3.590   6.326  0.3175  1.1090 -0.8609
  243MOL0     H33483   4.854   3.722   6.331 -0.6826  0.4505 -1.2110
  243MOL0     H33484   4.868   3.987   6.604 -0.0841  2.0655 -2.7975
  243MOL0     H33485   4.928   3.971   6.453  0.7238  2.1422  2.5684
  243MOL0     H33486   5.099   3.787   6.548 -1.3863 -1.0934  1.2328
  243MOL0     H33487   5.130   3.953   6.577 -0.5145  1.6386  0.8495
  243MOL0     H33488   4.985   3.905   6.809  2.1835 -0.5748  2.7910
  243MOL0     H33489   5.012   3.733   6.773  0.8056 -1.5428 -4.5852
  243MOL0     H33490   5.175   3.806   6.918  1.3100 -4.3094  0.3348
  243MOL0     H33491   5.232   3.734   6.769  1.8740 -0.0465  0.4604
  243MOL0     H33492   5.458   4.132   6.729  0.1029 -0.2784 -0.0695
  243MOL0     H33493   5.769   4.215   6.834  0.5420 -1.3635  0.0279
  243MOL0     H33494   5.638   4.283   6.934  1.1965  1.0205 -0.5468
  243MOL0     H33495   5.613   4.265   6.764 -1.2752  1.8077  2.3064
  243MOL0     H33496   6.061   3.974   7.085 -1.7738 -0.2429  0.5968
  243MOL0     H33497   6.260   4.043   7.207  0.4668  2.2371 -0.8785
  243MOL0     H33498   6.282   4.467   7.362  2.7523  1.0658  0.0576
  243MOL0     H33499   6.334   4.394   7.517 -2.5608  1.2331  0.6255
  243MOL0     H33500   6.541   4.326   7.400 -0.3654  0.3494  1.1348
  243MOL0     H33501   6.480   4.376   7.247  3.1322 -2.4348  1.0414
  243MOL0     H33502   6.631   4.536   7.306 -1.1313 -1.2039 -1.7508
  243MOL0     H33503   6.548   4.551   7.468  2.5064  0.4741 -0.2854
  243MOL0     H33504   6.357   4.664   7.352  0.6776  2.9538 -0.2530
  243MOL0     H33505   6.423   4.635   7.191 -1.4172  2.2523 -0.4090
  243MOL0     H33506   6.559   4.818   7.393  1.1334 -1.8568 -1.3076
  243MOL0     H33507   6.599   4.800   7.223  1.7780 -1.1035  1.2687
  243MOL0     H33508   6.479   4.986   7.282  1.0041 -0.7396  2.1467
  243MOL0     H33509   6.340   4.919   7.351 -0.0769  2.4574 -1.0624
  243MOL0     H33510   6.249   4.832   7.133 -2.8173  2.9305 -3.3960
  243MOL0     H33511   6.408   4.851   7.061  0.2039  2.4552 -0.9029
  243MOL0     H33512   6.243   5.082   7.179  0.1976 -1.6604  1.3079
  243MOL0     H33513   6.231   5.023   7.007 -0.4365  2.3026 -0.0646
  243MOL0     H33514   6.062   4.396   7.358  2.6176  1.6543 -2.1743
  243MOL0     H33515   5.877   4.345   7.238 -0.1821  0.0664  2.7041
  243MOL0     H33516   5.602   3.817   7.080 -1.7060 -1.8817 -0.7768
  243MOL0     H33517   5.372   3.787   6.976 -0.5098  0.9115  0.0296
  243MOL0     H33518   3.691   3.264   6.164 -2.2354 -0.0431  0.6474
  243MOL0     H33519   3.445   3.179   6.201 -0.4896 -1.5928  1.9440
  243MOL0     H33520   3.314   2.806   6.514  0.7029  1.8489 -1.0771
  243MOL0     H33521   3.109   2.765   6.636 -3.7808  2.3878  1.1484
  243MOL0     H33522   2.732   2.970   6.481  0.7520  0.4816 -0.2824
  243MOL0     H33523   2.686   2.881   6.626 -0.9364  2.9262  1.1315
  243MOL0     H33524   2.905   2.986   6.721  2.2804  1.3072 -1.3411
  243MOL0     H33525   2.748   3.059   6.741 -1.1719 -2.6998  0.1210
  243MOL0     H33526   2.980   3.113   6.556 -0.1548  0.0251  1.1546
  243MOL0     H33527   2.818   3.180   6.525 -0.8774 -0.3573  0.0303
  243MOL0     H33528   2.829   3.265   6.785 -0.0152 -0.2469  0.3048
  243MOL0     H33529   2.896   3.358   6.657  1.7940  1.5469  3.1834
  243MOL0     H33530   3.237   3.207   6.866  0.5085  2.6269 -1.0986
  243MOL0     H33531   2.876   2.916   6.307 -0.6586 -2.5132  1.2921
  243MOL0     H33532   3.110   3.066   6.140  1.5607 -0.8203 -2.1116
  243MOL0     H33533   3.108   2.902   6.065 -3.0694 -0.8079 -2.4265
  243MOL0     H33534   2.959   2.975   6.114  0.3416 -1.1468 -0.1065
  244MOL0     O33535   9.185   5.865   1.298  0.6118  0.2190  0.1716
  244MOL0     C33536   9.209   5.828   1.411  0.3668  0.3151 -0.1302
  244MOL0     O33537   9.339   5.802   1.469  0.5925 -0.3941  0.0417
  244MOL0     C33538   9.450   5.821   1.391 -0.2010 -0.5843 -0.1176
  244MOL0     C33539   9.551   5.722   1.392  0.4499  0.2968 -0.0187
  244MOL0     C33540   9.662   5.731   1.304 -0.3292  0.2665  0.2423
  244MOL0     C33541   9.682   5.844   1.231  0.1141 -0.4245 -0.3195
  244MOL0     O33542   9.784   5.877   1.145 -0.7903  0.4766  0.2830
  244MOL0     C33543   9.883   5.774   1.124  0.9661  0.3498 -0.3140
  244MOL0     C33544  10.003   5.816   1.038 -0.0640  0.4381  1.2559
  244MOL0     C33545  10.104   5.705   1.007 -0.2699 -0.5552 -0.4005
  244MOL0     C33546  10.228   5.751   0.929  0.5313  0.2220  0.0171
  244MOL0     C33547  10.308   5.634   0.874 -0.2584 -0.5329 -0.1868
  244MOL0     C33548  10.432   5.686   0.788  0.2639  0.2188 -0.1920
  244MOL0     C33549  10.539   5.591   0.736 -0.6683  0.2130  0.4783
  244MOL0     C33550  10.612   5.658   0.619  0.4077  0.6526  0.2064
  244MOL0     N33551  10.733   5.582   0.574 -0.2943 -0.7139  0.7539
  244MOL0     C33552  10.745   5.451   0.550  1.1768  1.0565  0.0909
  244MOL0     C33553  10.853   5.428   0.470  0.3874 -0.4988 -0.2154
  244MOL0     C33554  10.897   5.298   0.423 -0.0268  0.3234 -0.3377
  244MOL0     C33555  11.054   5.281   0.405  0.8111  0.2167 -0.0659
  244MOL0     C33556  11.123   5.274   0.552 -1.0626 -1.4055 -0.3419
  244MOL0     C33557  11.280   5.276   0.534 -0.2959 -0.3408  0.7102
  244MOL0     O33558  11.329   5.180   0.634  0.4627 -0.2962  0.3328
  244MOL0     C33559  11.456   5.191   0.678 -0.4832 -0.0371  0.2776
  244MOL0     C33560  11.491   5.106   0.777  0.3869 -0.9181  0.3295
  244MOL0     C33561  11.624   5.089   0.815 -0.1216  0.5126 -0.0598
  244MOL0     C33562  11.661   4.963   0.899 -0.1536  0.6341 -0.1830
  244MOL0     C33563  11.720   5.181   0.768  0.3543 -0.1868 -0.6389
  244MOL0     C33564  11.856   5.176   0.807  0.1342 -0.6900  0.3857
  244MOL0     O33565  11.917   5.298   0.834 -0.1411  0.4900  0.8160
  244MOL0     C33566  12.050   5.310   0.867 -0.1081 -0.3310  0.1921
  244MOL0     C33567  12.151   5.328   0.771  0.4357 -0.0392  0.5318
  244MOL0     C33568  12.281   5.355   0.815 -0.0206 -0.6756 -0.6139
  244MOL0     C33569  12.317   5.381   0.948  0.2113  0.6464  0.5270
  244MOL0     O33570  12.445   5.392   0.993 -0.2710  0.2254 -0.1486
  244MOL0     C33571  12.532   5.467   0.902  0.9152  0.1056 -0.2368
  244MOL0     C33572  12.662   5.496   0.982 -0.4609 -0.3622  0.2397
  244MOL0     C33573  12.751   5.586   0.900  0.1880 -0.0523 -0.7486
  244MOL0     C33574  12.694   5.732   0.887 -0.1216  0.0507  0.1118
  244MOL0     C33575  12.790   5.848   0.876  0.0171  0.0921  0.2132
  244MOL0     C33576  12.892   5.855   0.987 -0.0174  1.0468 -0.2595
  244MOL0     C33577  12.992   5.960   0.946  0.1357  0.5199 -0.0686
  244MOL0     C33578  13.078   6.006   1.064 -0.2483 -0.2307  0.0148
  244MOL0    Cl33579  13.182   6.144   1.019 -0.2203  0.2024  0.0562
  244MOL0     C33580  12.222   5.366   1.048  0.7110 -0.5107 -0.7131
  244MOL0     C33581  12.088   5.333   0.999 -0.1536 -0.4624 -0.4406
  244MOL0     O33582  11.913   5.071   0.815 -0.5952 -0.0772  0.7733
  244MOL0     C33583  11.686   5.278   0.675  0.3859 -0.1060  0.0381
  244MOL0     C33584  11.553   5.276   0.630 -0.2791 -0.2406 -0.3192
  244MOL0     N33585  10.906   5.553   0.443 -0.4749  0.0634 -0.1721
  244MOL0     N33586  10.837   5.643   0.513  0.3995  0.1664 -0.0519
  244MOL0     C33587   9.575   5.942   1.241 -1.2092  0.2113  0.4185
  244MOL0     C33588   9.464   5.930   1.315 -0.2293 -0.0492 -0.3998
  244MOL0     C33589   9.094   5.828   1.499  0.1302  0.1504 -0.1396
  244MOL0     C33590   9.126   5.848   1.634  0.8901 -0.7714  0.2499
  244MOL0     C33591   9.035   5.832   1.737 -0.2634 -0.1403  0.2012
  244MOL0     C33592   8.899   5.828   1.706  0.5452  0.3454 -0.4069
  244MOL0     O33593   8.806   5.838   1.803 -0.1222  0.3534  0.0341
  244MOL0     C33594   8.809   5.729   1.905  0.4831  0.9681  0.0461
  244MOL0     C33595   8.673   5.657   1.910 -0.9025  0.4892 -0.2818
  244MOL0     C33596   8.655   5.584   2.044  0.1310  0.0477 -0.3785
  244MOL0     C33597   8.610   5.445   2.054  0.4331  0.3321 -0.0803
  244MOL0     C33598   8.635   5.389   2.187  0.1833 -0.0471 -0.7581
  244MOL0     C33599   8.652   5.344   2.299 -0.7653 -0.6193 -1.5450
  244MOL0     C33600   8.862   5.815   1.575 -0.1791 -0.1406  0.3842
  244MOL0     C33601   8.952   5.800   1.468 -0.3869 -0.8971 -0.5699
  244MOL0     C33602   8.896   5.764   1.336  0.0851 -0.6581 -0.2312
  244MOL0     H33603   9.524   5.631   1.444 -1.8128  1.2926  0.6815
  244MOL0     H33604   9.717   5.640   1.283  0.3996  0.8934 -0.6672
  244MOL0     H33605   9.836   5.687   1.079  1.1306 -0.4035  0.9049
  244MOL0     H33606   9.937   5.743   1.214  0.3088  1.3191  0.4396
  244MOL0     H33607   9.972   5.850   0.939 -0.9183 -0.7715  1.0790
  244MOL0     H33608  10.056   5.898   1.087 -1.0930 -0.3909  3.9497
  244MOL0     H33609  10.130   5.649   1.098  0.1056 -0.3394 -0.3683
  244MOL0     H33610  10.051   5.639   0.938 -0.7067  0.3219 -0.9257
  244MOL0     H33611  10.193   5.810   0.844 -0.3343 -0.4153 -0.0844
  244MOL0     H33612  10.295   5.812   0.990  1.6915 -1.0599  0.0715
  244MOL0     H33613  10.243   5.582   0.803  0.6803 -0.9010 -0.7989
  244MOL0     H33614  10.342   5.578   0.961 -0.8499  1.7367  1.5806
  244MOL0     H33615  10.388   5.737   0.702  1.9129  1.2972 -0.4518
  244MOL0     H33616  10.477   5.766   0.847  0.0514 -0.6487  1.2013
  244MOL0     H33617  10.492   5.499   0.700  1.7406 -0.8083 -0.2412
  244MOL0     H33618  10.613   5.571   0.814  0.3528  1.8183 -0.0214
  244MOL0     H33619  10.535   5.670   0.543 -1.0518  0.4980  1.5982
  244MOL0     H33620  10.654   5.754   0.651  2.1234  0.0188  0.0088
  244MOL0     H33621  10.685   5.377   0.602 -0.1162  1.6708 -0.4810
  244MOL0     H33622  10.843   5.282   0.330 -0.2745  0.5115 -0.2257
  244MOL0     H33623  10.857   5.218   0.486 -0.6243  0.7746 -0.1330
  244MOL0     H33624  11.082   5.192   0.348 -1.9626 -1.2109  0.6080
  244MOL0     H33625  11.092   5.365   0.346 -1.3025 -1.1788 -3.7334
  244MOL0     H33626  11.090   5.366   0.601  0.3775 -0.2022 -1.5248
  244MOL0     H33627  11.101   5.191   0.619  0.4909  0.2208  2.3996
  244MOL0     H33628  11.306   5.245   0.433 -3.0912 -0.4959 -0.0385
  244MOL0     H33629  11.319   5.377   0.552  0.4804 -0.0631 -2.0601
  244MOL0     H33630  11.413   5.046   0.822 -0.3302  1.0775  1.9073
  244MOL0     H33631  11.708   4.886   0.837  2.2506  2.5442 -0.9129
  244MOL0     H33632  11.566   4.927   0.940  1.1089 -1.2938  1.1932
  244MOL0     H33633  11.720   4.982   0.989  0.8655 -0.5658 -0.5867
  244MOL0     H33634  12.133   5.329   0.664  3.9262  2.2194 -0.1959
  244MOL0     H33635  12.349   5.362   0.731 -0.4011  0.9826 -0.8256
  244MOL0     H33636  12.553   5.410   0.811  1.0587  0.1591 -0.2372
  244MOL0     H33637  12.479   5.562   0.888  1.2046  0.1445 -1.1351
  244MOL0     H33638  12.633   5.543   1.076  0.7812 -1.8018  1.4012
  244MOL0     H33639  12.706   5.397   1.000 -0.0771 -0.8747 -2.9148
  244MOL0     H33640  12.752   5.539   0.801  0.0103  0.0810 -0.8131
  244MOL0     H33641  12.853   5.578   0.939  0.6205 -1.9542 -2.1089
  244MOL0     H33642  12.621   5.754   0.965 -1.0386  1.5192 -1.0926
  244MOL0     H33643  12.638   5.732   0.793  1.3039 -1.3116 -0.7922
  244MOL0     H33644  12.837   5.841   0.778 -0.2392 -0.5201  0.1306
  244MOL0     H33645  12.731   5.940   0.882 -0.7252 -0.3379 -0.4251
  244MOL0     H33646  12.955   5.766   0.992  0.8607  1.6221 -0.6808
  244MOL0     H33647  12.845   5.867   1.085  0.7965  0.2381  0.2461
  244MOL0     H33648  12.947   6.052   0.907  2.0158  1.8919  0.8062
  244MOL0     H33649  13.064   5.920   0.874 -0.7127 -0.7634 -0.2437
  244MOL0     H33650  13.148   5.926   1.090 -0.8262 -0.2430  1.6492
  244MOL0     H33651  13.013   6.035   1.147 -0.3705  2.0182 -0.8041
  244MOL0     H33652  12.240   5.379   1.154 -3.9206  2.0454 -0.0001
  244MOL0     H33653  12.016   5.324   1.079 -1.4004 -0.4956 -1.5407
  244MOL0     H33654  11.765   5.341   0.637  0.6452 -0.0163  0.7217
  244MOL0     H33655  11.527   5.350   0.555 -1.3279  2.3741  2.4250
  244MOL0     H33656   9.588   6.030   1.178  0.8431  0.7090  1.4441
  244MOL0     H33657   9.394   6.013   1.321 -0.1590  0.3353 -3.3912
  244MOL0     H33658   9.225   5.879   1.663  0.6235  0.1579  0.1938
  244MOL0     H33659   9.053   5.865   1.839 -1.1089  1.5633 -0.1627
  244MOL0     H33660   8.886   5.654   1.885  2.4170  2.3971  1.7241
  244MOL0     H33661   8.829   5.767   2.005 -1.0116 -0.3109  0.8822
  244MOL0     H33662   8.655   5.588   1.828  1.0434  1.1709 -1.3595
  244MOL0     H33663   8.599   5.737   1.903  0.6897  1.9748 -0.8792
  244MOL0     H33664   8.749   5.593   2.100 -0.1098  2.9295 -0.2711
  244MOL0     H33665   8.579   5.640   2.099 -0.5364 -1.7008  0.5616
  244MOL0     H33666   8.668   5.394   1.976  0.9262  0.5908  0.1161
  244MOL0     H33667   8.507   5.444   2.017  1.0513  0.9937 -1.9566
  244MOL0     H33668   8.657   5.299   2.396 -2.8854 -3.3114 -2.5686
  244MOL0     H33669   8.755   5.819   1.561 -0.5136 -0.9307  2.3943
  244MOL0     H33670   8.966   5.698   1.284 -0.9154 -0.4005 -1.9819
  244MOL0     H33671   8.802   5.709   1.343  0.4313 -1.2390 -0.0873
  244MOL0     H33672   8.889   5.856   1.276  0.1016  0.4048  1.3180
  245MOL0     O33673   4.041   8.882   0.993  0.5591 -0.0592  0.2407
  245MOL0     C33674   3.917   8.876   1.004 -0.7899  1.0063 -0.8799
  245MOL0     O33675   3.835   8.978   1.060  1.0923 -0.4030  0.1002
  245MOL0     C33676   3.893   9.087   1.121  0.4836  0.1906  0.0676
  245MOL0     C33677   3.951   9.082   1.249  0.5591  0.5263 -0.0348
  245MOL0     C33678   3.981   9.201   1.314  0.7772 -0.4215  0.2232
  245MOL0     C33679   3.973   9.330   1.258 -0.8288 -0.2302 -0.3229
  245MOL0     O33680   4.018   9.438   1.333  0.3268 -0.6338 -0.5413
  245MOL0     C33681   4.006   9.565   1.269  0.1154  0.9233 -0.9487
  245MOL0     C33682   4.043   9.674   1.377  0.3206  0.4378 -0.4530
  245MOL0     C33683   4.035   9.812   1.318  0.6682 -0.5100 -0.3255
  245MOL0     C33684   4.160   9.844   1.234  0.2151  0.5117 -0.0771
  245MOL0     C33685   4.265   9.940   1.302  0.7272 -0.1149  0.6991
  245MOL0     C33686   4.288   9.927   1.450 -1.2068 -0.6558 -0.3780
  245MOL0     C33687   4.391  10.035   1.502 -0.1457  0.7253 -0.1758
  245MOL0     C33688   4.524  10.027   1.430  0.8816 -0.1289  0.4767
  245MOL0     N33689   4.612  10.137   1.476  0.3367 -0.9639  0.0632
  245MOL0     C33690   4.662  10.234   1.394  0.6861 -0.0318  0.0405
  245MOL0     C33691   4.752  10.298   1.474  0.1410 -0.7118  0.3521
  245MOL0     C33692   4.841  10.425   1.437  0.9466 -0.7215  0.2393
  245MOL0     C33693   4.779  10.550   1.507 -0.6084  0.2877 -0.5796
  245MOL0     C33694   4.794  10.550   1.663 -0.3911  0.0048  0.0014
  245MOL0     C33695   4.937  10.576   1.699 -0.2223 -0.1501  0.7106
  245MOL0     O33696   4.953  10.594   1.838  0.2103 -0.6334 -0.1038
  245MOL0     C33697   4.950  10.488   1.923 -0.4261 -0.5474 -0.3814
  245MOL0     C33698   4.941  10.348   1.896  0.0078 -0.1294  0.5099
  245MOL0     C33699   4.954  10.255   2.001 -0.7505 -0.9936  0.0948
  245MOL0     C33700   4.951  10.111   1.961  0.3648 -0.7806 -0.9267
  245MOL0     C33701   4.999  10.303   2.129 -1.0147  0.9288  0.8065
  245MOL0     C33702   5.038  10.203   2.237 -0.2351 -1.3251 -0.5327
  245MOL0     O33703   5.066  10.262   2.361 -0.1813 -0.5277  0.6159
  245MOL0     C33704   5.106  10.185   2.474 -0.1166 -0.5232  0.2180
  245MOL0     C33705   5.215  10.239   2.550 -0.8661  0.3273  0.1291
  245MOL0     C33706   5.265  10.174   2.665 -0.3577 -0.2611 -0.3798
  245MOL0     C33707   5.211  10.055   2.706  0.1421  0.0440  1.1045
  245MOL0     O33708   5.280   9.995   2.803  0.1451 -0.5569 -0.3546
  245MOL0     C33709   5.305   9.851   2.785  0.1112  0.1832  0.7897
  245MOL0     C33710   5.377   9.798   2.903 -0.3778 -0.2681  0.8326
  245MOL0     C33711   5.306   9.807   3.029 -0.1340  0.5002 -0.0989
  245MOL0     C33712   5.391   9.772   3.145  0.3864  0.0282  0.5203
  245MOL0     C33713   5.296   9.740   3.269  0.2717  0.2577  0.9344
  245MOL0     C33714   5.242   9.594   3.280  0.5612 -0.5810  0.2509
  245MOL0     C33715   5.155   9.577   3.407  0.3775 -0.2111  0.1599
  245MOL0     C33716   5.062   9.460   3.429  0.5090 -0.4461 -0.7075
  245MOL0    Cl33717   5.128   9.326   3.319 -0.1595  0.1005 -0.5590
  245MOL0     C33718   5.104   9.995   2.637  0.0472 -1.2645  1.1556
  245MOL0     C33719   5.053  10.062   2.517  0.7845 -0.1386 -0.7375
  245MOL0     O33720   5.036  10.085   2.223  0.7757  0.4744 -0.3358
  245MOL0     C33721   5.006  10.437   2.161 -0.5705 -0.1721  0.2456
  245MOL0     C33722   4.963  10.531   2.058 -0.3129 -0.6991 -0.8282
  245MOL0     N33723   4.756  10.237   1.597  0.5576  0.1432  0.0501
  245MOL0     N33724   4.670  10.144   1.604  0.4758  0.1627  0.0961
  245MOL0     C33725   3.927   9.330   1.125 -0.5131 -0.6205  0.2474
  245MOL0     C33726   3.882   9.213   1.060  0.4506 -0.4192  0.3678
  245MOL0     C33727   3.851   8.751   0.958 -0.5233 -0.0462 -0.2601
  245MOL0     C33728   3.716   8.767   0.921  0.6660 -0.5497  0.1014
  245MOL0     C33729   3.639   8.663   0.873  0.9052  0.7697  0.8435
  245MOL0     C33730   3.686   8.534   0.860 -0.4019 -0.1628  0.7096
  245MOL0     O33731   3.599   8.440   0.804 -0.4372 -0.3166  0.0520
  245MOL0     C33732   3.649   8.309   0.771 -0.0239 -0.4012  1.1489
  245MOL0     C33733   3.694   8.303   0.626  0.1715  0.5333 -0.3697
  245MOL0     C33734   3.724   8.164   0.573  0.3455  0.4002 -0.1590
  245MOL0     C33735   3.838   8.082   0.649 -0.7406  0.3190 -0.0555
  245MOL0     C33736   3.946   8.158   0.720  0.4371 -1.1263  0.4168
  245MOL0     C33737   4.033   8.222   0.766  0.2985  0.2386 -0.3365
  245MOL0     C33738   3.819   8.516   0.885  0.4307 -0.1390 -0.1139
  245MOL0     C33739   3.907   8.617   0.936 -0.3503 -0.1436 -0.0383
  245MOL0     C33740   4.056   8.587   0.941  0.3984 -0.1706 -0.9460
  245MOL0     H33741   3.961   8.984   1.294  2.5465  1.9322  2.9746
  245MOL0     H33742   4.020   9.203   1.415  2.2637 -0.0845 -0.3290
  245MOL0     H33743   3.905   9.575   1.230  0.2899 -1.4688 -2.2085
  245MOL0     H33744   4.072   9.572   1.182 -0.1651 -1.0052 -1.3552
  245MOL0     H33745   3.960   9.657   1.446 -0.7723 -0.1022 -1.8428
  245MOL0     H33746   4.135   9.651   1.431  1.4923  0.3125 -2.4055
  245MOL0     H33747   3.944   9.816   1.258 -0.6506 -0.3784  1.5813
  245MOL0     H33748   4.020   9.890   1.394 -0.6201 -2.8161  1.9614
  245MOL0     H33749   4.217   9.754   1.211  1.2319  1.3032 -0.7954
  245MOL0     H33750   4.151   9.887   1.133  2.2081  1.1645 -0.0224
  245MOL0     H33751   4.239  10.046   1.291  2.3664  0.5363  2.6220
  245MOL0     H33752   4.354   9.920   1.242 -0.2871 -1.7072 -0.3420
  245MOL0     H33753   4.190   9.953   1.492  0.1033  0.4550  2.2400
  245MOL0     H33754   4.318   9.826   1.476  2.2616  0.7827  1.9722
  245MOL0     H33755   4.411  10.022   1.609 -2.4112 -2.2959  0.0135
  245MOL0     H33756   4.352  10.137   1.500  1.6825  1.4819 -2.4581
  245MOL0     H33757   4.576   9.933   1.450  1.0110  0.4194  3.1402
  245MOL0     H33758   4.506  10.031   1.322  0.6110 -0.9795  0.4861
  245MOL0     H33759   4.627  10.273   1.298 -0.5369  1.3462  1.0065
  245MOL0     H33760   4.854  10.441   1.329  1.0544  0.2078  0.3824
  245MOL0     H33761   4.941  10.408   1.479  1.2189 -0.3712 -0.2563
  245MOL0     H33762   4.823  10.641   1.465  0.7915  0.1032  0.4185
  245MOL0     H33763   4.673  10.556   1.480 -0.9382  2.2071  0.9515
  245MOL0     H33764   4.741  10.637   1.704 -0.4349  0.3488 -0.7674
  245MOL0     H33765   4.761  10.461   1.717  0.0355 -0.1113  0.0693
  245MOL0     H33766   5.002  10.497   1.659  0.1900  0.3555  0.3570
  245MOL0     H33767   4.980  10.667   1.655 -0.2875 -0.4882 -0.0712
  245MOL0     H33768   4.917  10.308   1.798 -1.3137  2.2675 -0.2276
  245MOL0     H33769   4.900  10.103   1.865 -1.6743 -3.1588  0.2433
  245MOL0     H33770   4.892  10.066   2.041 -0.2655  3.3538  1.2509
  245MOL0     H33771   5.052  10.069   1.966  0.5811 -0.1321  1.2738
  245MOL0     H33772   5.256  10.333   2.515 -0.5953 -0.4202 -1.6606
  245MOL0     H33773   5.346  10.216   2.723  0.2462 -2.0189  0.1225
  245MOL0     H33774   5.212   9.795   2.776 -0.0274  0.1083  2.3769
  245MOL0     H33775   5.369   9.836   2.698 -2.2974 -1.0544 -0.8885
  245MOL0     H33776   5.408   9.695   2.883  0.7666  0.1647  0.3142
  245MOL0     H33777   5.473   9.851   2.910 -2.1343  3.4203 -0.5196
  245MOL0     H33778   5.222   9.737   3.021  0.0168  0.2707  0.2940
  245MOL0     H33779   5.270   9.911   3.035  0.6587  0.8114 -0.7052
  245MOL0     H33780   5.466   9.849   3.165  2.5172 -2.0579  1.0975
  245MOL0     H33781   5.442   9.682   3.108 -2.1519 -0.7196 -1.4314
  245MOL0     H33782   5.354   9.761   3.359  2.7051  2.8526 -1.0490
  245MOL0     H33783   5.212   9.809   3.256 -0.9235 -1.3719 -0.4450
  245MOL0     H33784   5.323   9.521   3.277 -1.2796 -2.7167 -0.2667
  245MOL0     H33785   5.189   9.581   3.186 -0.2422 -0.1105  0.6163
  245MOL0     H33786   5.094   9.667   3.414  1.4845  1.0460 -3.6631
  245MOL0     H33787   5.219   9.567   3.495 -1.0625  0.7626  1.3685
  245MOL0     H33788   4.958   9.471   3.398  0.7940  2.0854 -0.9488
  245MOL0     H33789   5.069   9.439   3.536  0.0156  2.7197  0.0578
  245MOL0     H33790   5.061   9.903   2.674 -1.1313 -1.7047 -1.0938
  245MOL0     H33791   4.971  10.013   2.465  3.7973 -2.5915 -3.5539
  245MOL0     H33792   5.041  10.477   2.256 -0.0070  1.2754 -0.5378
  245MOL0     H33793   4.974  10.638   2.072  1.9194 -0.3729 -3.9618
  245MOL0     H33794   3.921   9.419   1.064 -0.1893  2.0114  3.7894
  245MOL0     H33795   3.826   9.215   0.967  0.0023 -0.4104  0.6392
  245MOL0     H33796   3.670   8.865   0.929 -3.3497 -2.0448 -1.9122
  245MOL0     H33797   3.544   8.682   0.824  1.5797 -1.5706 -1.5944
  245MOL0     H33798   3.723   8.269   0.841  1.3076 -5.0444 -2.3871
  245MOL0     H33799   3.576   8.231   0.794 -2.0632  1.3240  0.9328
  245MOL0     H33800   3.790   8.357   0.620  0.3229  0.3784  0.5970
  245MOL0     H33801   3.623   8.353   0.559  0.2897  0.8554 -0.2602
  245MOL0     H33802   3.634   8.103   0.578  1.8155 -1.7970  1.1784
  245MOL0     H33803   3.752   8.174   0.468  1.6869  0.9051  0.2201
  245MOL0     H33804   3.891   8.012   0.584  1.7803 -0.1403  2.2741
  245MOL0     H33805   3.795   8.032   0.737  2.0899  1.5997  2.2396
  245MOL0     H33806   4.123   8.259   0.811 -0.9357  0.9598  1.6344
  245MOL0     H33807   3.872   8.426   0.855  0.1327 -0.7204  1.0671
  245MOL0     H33808   4.075   8.481   0.962  2.5456  0.3458 -0.0472
  245MOL0     H33809   4.103   8.594   0.842  0.2966 -2.6687 -1.2528
  245MOL0     H33810   4.106   8.639   1.022  0.7090 -2.2163  0.2501
  246MOL0     O33811   5.069   2.786  10.192  0.4219 -0.5466  0.1610
  246MOL0     C33812   5.024   2.838  10.090  0.0697 -0.7531  0.5998
  246MOL0     O33813   5.083   2.935  10.011 -0.0064 -0.1423 -0.4816
  246MOL0     C33814   5.217   2.979  10.033 -0.2290  0.1576 -0.7353
  246MOL0     C33815   5.330   2.898  10.050 -1.3295 -0.3886 -0.3107
  246MOL0     C33816   5.459   2.947  10.075  0.3157 -0.1984 -1.1366
  246MOL0     C33817   5.476   3.086  10.091  0.4405 -0.1688  0.3677
  246MOL0     O33818   5.602   3.133  10.114  0.0757 -0.0618  0.5492
  246MOL0     C33819   5.659   3.082  10.232 -0.6899 -1.2001  0.2916
  246MOL0     C33820   5.792   3.153  10.258  1.0228  0.1145 -0.6903
  246MOL0     C33821   5.891   3.142  10.147 -0.0345 -0.3762  0.1852
  246MOL0     C33822   6.020   3.221  10.158 -0.8170  0.0580  0.1328
  246MOL0     C33823   6.103   3.172  10.038 -0.6779 -0.2298 -0.3342
  246MOL0     C33824   6.250   3.195  10.069  0.4565 -0.8409 -0.6185
  246MOL0     C33825   6.339   3.157   9.948  0.5335  0.3629 -0.5435
  246MOL0     C33826   6.467   3.089  10.007  0.2167  0.2891 -0.9268
  246MOL0     N33827   6.545   3.045   9.898  0.0080 -0.0815  0.5341
  246MOL0     C33828   6.566   2.918   9.851 -0.2448  0.8561 -0.5719
  246MOL0     C33829   6.615   2.927   9.725 -0.1229 -0.2195  0.2600
  246MOL0     C33830   6.597   2.819   9.619  1.0372 -1.0725 -0.6859
  246MOL0     C33831   6.449   2.772   9.610 -0.2846  0.4380 -1.1300
  246MOL0     C33832   6.422   2.658   9.519 -0.7543  0.5216  0.2880
  246MOL0     C33833   6.444   2.695   9.377  0.2237  0.1166 -0.3504
  246MOL0     O33834   6.573   2.688   9.333 -0.8134 -0.0570  0.0612
  246MOL0     C33835   6.616   2.725   9.206 -0.1405  0.2567 -0.3123
  246MOL0     C33836   6.757   2.739   9.186 -0.1169  0.4900 -0.6606
  246MOL0     C33837   6.807   2.784   9.071 -0.8134 -0.1094 -0.7478
  246MOL0     C33838   6.965   2.788   9.066 -0.0952 -0.1607  0.2984
  246MOL0     C33839   6.726   2.828   8.965 -1.0739 -0.1213 -0.4997
  246MOL0     C33840   6.773   2.875   8.834  0.3048 -0.7948  0.8106
  246MOL0     O33841   6.701   2.974   8.778  0.0815 -0.1264 -0.1075
  246MOL0     C33842   6.715   3.007   8.647  0.3297  0.3895 -0.0183
  246MOL0     C33843   6.666   3.137   8.617  0.3682  0.1753 -0.1267
  246MOL0     C33844   6.643   3.180   8.485  0.8380  0.8139 -0.1559
  246MOL0     C33845   6.683   3.091   8.382  0.7461 -0.5784 -0.5639
  246MOL0     O33846   6.675   3.149   8.257  0.6712  0.0359  0.1732
  246MOL0     C33847   6.726   3.075   8.139  1.0451  0.2923  0.1707
  246MOL0     C33848   6.700   3.144   8.007 -0.4462  0.0868  0.4051
  246MOL0     C33849   6.543   3.172   7.996 -0.1251 -0.3400 -0.2406
  246MOL0     C33850   6.527   3.267   7.872 -0.8673  0.2871  0.9633
  246MOL0     C33851   6.396   3.333   7.859 -0.1397  0.5727 -1.4870
  246MOL0     C33852   6.384   3.415   7.729  0.1364 -0.2823  0.7660
  246MOL0     C33853   6.501   3.516   7.693  0.1825  0.0860  0.4667
  246MOL0     C33854   6.523   3.631   7.791  0.0987  0.1037 -0.4291
  246MOL0    Cl33855   6.362   3.718   7.791  0.2269 -0.6141  0.2262
  246MOL0     C33856   6.735   2.963   8.406 -0.3495  0.4847  0.5177
  246MOL0     C33857   6.744   2.917   8.539  0.5861  0.4618 -1.4114
  246MOL0     O33858   6.865   2.815   8.778 -0.2017  0.7936 -0.1172
  246MOL0     C33859   6.587   2.800   8.976  0.2279 -0.8819 -0.2209
  246MOL0     C33860   6.533   2.745   9.091 -0.8113  0.1084 -0.0822
  246MOL0     N33861   6.640   3.061   9.696  0.1227  0.6972  0.1866
  246MOL0     N33862   6.591   3.125   9.799  0.8583 -0.2384  0.4801
  246MOL0     C33863   5.364   3.172  10.055 -0.5789 -0.8135 -0.9131
  246MOL0     C33864   5.240   3.122  10.029  0.2439 -0.2960 -0.6038
  246MOL0     C33865   4.898   2.783  10.032 -0.3416  0.3101  0.6463
  246MOL0     C33866   4.895   2.741   9.896  0.1697 -0.5666  0.2994
  246MOL0     C33867   4.777   2.682   9.846 -0.3909 -0.1424  0.0058
  246MOL0     C33868   4.660   2.671   9.925  0.1118 -0.3882  0.3118
  246MOL0     O33869   4.540   2.620   9.870 -0.0729 -0.1836 -0.3423
  246MOL0     C33870   4.531   2.477   9.846  0.1185  0.2759  0.0263
  246MOL0     C33871   4.392   2.445   9.892 -0.0280 -0.2776 -0.5274
  246MOL0     C33872   4.274   2.524   9.834 -0.9602  1.5083  0.1462
  246MOL0     C33873   4.126   2.488   9.885  0.3577 -0.2395  0.0081
  246MOL0     C33874   4.124   2.508  10.026  0.4976 -0.8947  0.4836
  246MOL0     C33875   4.126   2.518  10.148 -1.2140 -0.0156 -0.3067
  246MOL0     C33876   4.666   2.706  10.057  0.0141  0.0308 -0.6710
  246MOL0     C33877   4.784   2.756  10.116 -0.0569 -0.5492  0.4601
  246MOL0     C33878   4.782   2.786  10.268 -0.0338 -0.9805  0.0409
  246MOL0     H33879   5.312   2.791  10.040 -0.3872 -0.4944 -1.0712
  246MOL0     H33880   5.550   2.888  10.073  0.5743 -0.1868  2.7505
  246MOL0     H33881   5.680   2.976  10.216 -0.1419 -1.3129  1.6343
  246MOL0     H33882   5.602   3.079  10.325 -1.2135  2.3979  0.2274
  246MOL0     H33883   5.777   3.261  10.270  1.2902  0.0865 -0.0639
  246MOL0     H33884   5.836   3.103  10.345  2.1825  0.4315 -1.0690
  246MOL0     H33885   5.914   3.035  10.157  1.5593  0.0167  1.0724
  246MOL0     H33886   5.848   3.159  10.048  1.9275 -1.3581 -0.8979
  246MOL0     H33887   5.997   3.326  10.136  1.6275  0.4684 -0.8156
  246MOL0     H33888   6.077   3.218  10.251  0.4187  1.2840 -0.5427
  246MOL0     H33889   6.074   3.209   9.940 -0.6788 -1.1697 -0.7034
  246MOL0     H33890   6.080   3.065  10.025 -0.3248 -0.1504 -1.7402
  246MOL0     H33891   6.264   3.301  10.090 -1.6377 -0.3953 -1.1921
  246MOL0     H33892   6.283   3.129  10.151  1.0383 -0.0575 -0.2160
  246MOL0     H33893   6.363   3.246   9.889  2.6031 -0.1797 -0.6048
  246MOL0     H33894   6.275   3.088   9.893  0.3773 -1.6799  1.9912
  246MOL0     H33895   6.524   3.152  10.077  0.0105 -1.6353  1.0635
  246MOL0     H33896   6.442   3.001  10.066 -1.3462 -0.1435 -2.1548
  246MOL0     H33897   6.527   2.827   9.895  2.0641 -0.3747 -0.8959
  246MOL0     H33898   6.662   2.731   9.623  1.2205 -0.9426 -0.8113
  246MOL0     H33899   6.623   2.870   9.526  0.5452 -0.5494 -0.5404
  246MOL0     H33900   6.424   2.727   9.706  3.4167 -4.1016 -1.9201
  246MOL0     H33901   6.374   2.849   9.591  1.2625  2.0693 -0.8823
  246MOL0     H33902   6.494   2.576   9.532 -0.7778  0.1967 -1.4049
  246MOL0     H33903   6.323   2.619   9.541  0.7381 -2.8377  1.7926
  246MOL0     H33904   6.381   2.619   9.328 -1.2999 -1.6124  3.8140
  246MOL0     H33905   6.408   2.797   9.362 -2.6039 -0.5256  1.3127
  246MOL0     H33906   6.815   2.718   9.275 -1.5846 -0.6655  0.0777
  246MOL0     H33907   7.004   2.690   9.093  1.2308  1.0318  3.0591
  246MOL0     H33908   7.005   2.860   9.137 -2.8653  1.4683  0.3261
  246MOL0     H33909   7.012   2.804   8.968 -1.3060 -2.4583 -0.7440
  246MOL0     H33910   6.635   3.192   8.705  1.4361 -1.0802  1.0701
  246MOL0     H33911   6.600   3.278   8.470  0.4168  0.5055 -1.0561
  246MOL0     H33912   6.834   3.057   8.140  0.9874 -0.2645 -1.1969
  246MOL0     H33913   6.684   2.974   8.149  0.1736  0.8381  3.0200
  246MOL0     H33914   6.753   3.239   8.008  0.7127 -0.5409  1.6758
  246MOL0     H33915   6.743   3.082   7.928  1.7011  0.6857  1.0515
  246MOL0     H33916   6.504   3.234   8.078 -0.3790 -0.8551  0.0403
  246MOL0     H33917   6.482   3.081   7.994  1.4254 -1.4031 -2.4215
  246MOL0     H33918   6.529   3.195   7.790  1.8436  0.0313  1.1672
  246MOL0     H33919   6.611   3.337   7.864  0.2833 -1.1789 -0.5508
  246MOL0     H33920   6.312   3.266   7.880  1.0110  0.0096  1.9454
  246MOL0     H33921   6.383   3.401   7.943 -2.3344 -2.0369  0.4703
  246MOL0     H33922   6.288   3.467   7.732  1.5649  2.6113  0.2208
  246MOL0     H33923   6.374   3.344   7.646 -0.4418 -0.4694  0.9902
  246MOL0     H33924   6.475   3.571   7.602  0.6094  1.5310  1.1917
  246MOL0     H33925   6.595   3.463   7.678 -0.8984 -1.6493 -0.6112
  246MOL0     H33926   6.607   3.687   7.749 -1.3484  0.5712 -2.9045
  246MOL0     H33927   6.547   3.597   7.892  0.4400 -0.7619 -0.7951
  246MOL0     H33928   6.773   2.901   8.326  1.5308  2.7002 -0.4380
  246MOL0     H33929   6.763   2.811   8.554  1.0376  0.4458 -2.0233
  246MOL0     H33930   6.522   2.824   8.893 -0.8100 -1.0483  0.5275
  246MOL0     H33931   6.427   2.721   9.090 -0.7170 -0.3832  0.8917
  246MOL0     H33932   5.382   3.279  10.048 -2.5327 -0.4007 -0.3141
  246MOL0     H33933   5.161   3.192  10.005 -0.7398 -1.8978 -2.3187
  246MOL0     H33934   4.987   2.742   9.838  0.2647  0.2410  0.4546
  246MOL0     H33935   4.767   2.648   9.743 -0.8442  1.6172 -0.5556
  246MOL0     H33936   4.537   2.445   9.742 -2.6316  1.3994 -0.5789
  246MOL0     H33937   4.595   2.420   9.914 -1.9915  0.5444  2.3868
  246MOL0     H33938   4.387   2.451  10.001 -0.9246 -1.1444 -0.5042
  246MOL0     H33939   4.375   2.338   9.873 -1.9223 -0.9069  3.5317
  246MOL0     H33940   4.300   2.627   9.861  0.0131  1.0980  0.8134
  246MOL0     H33941   4.264   2.507   9.727  2.5045 -0.3281 -0.0182
  246MOL0     H33942   4.107   2.384   9.860 -2.1287  0.1748 -0.0451
  246MOL0     H33943   4.048   2.550   9.839 -2.0610 -1.7278  1.8673
  246MOL0     H33944   4.114   2.532  10.254  0.0669  3.0772 -0.4648
  246MOL0     H33945   4.585   2.690  10.128  0.0122  1.3850 -0.3384
  246MOL0     H33946   4.759   2.893  10.274  2.3569 -0.2207 -2.5127
  246MOL0     H33947   4.696   2.743  10.321 -1.4513 -0.2398 -1.5440
  246MOL0     H33948   4.879   2.778  10.317  0.5810 -1.2553 -1.1759
  247MOL0     O33949   7.389   9.457   0.770 -0.2070 -0.4223  0.0530
  247MOL0     C33950   7.304   9.544   0.773 -0.3548  0.0510 -0.2171
  247MOL0     O33951   7.320   9.668   0.837 -0.0061 -0.5264  0.1286
  247MOL0     C33952   7.433   9.684   0.914 -0.2097  0.1460  0.7419
  247MOL0     C33953   7.421   9.682   1.053  0.2681  0.5510 -0.0050
  247MOL0     C33954   7.535   9.687   1.130  0.2764 -0.0997  0.3618
  247MOL0     C33955   7.665   9.701   1.081  0.5077 -0.7331 -0.2783
  247MOL0     O33956   7.773   9.701   1.168  0.1755  0.0464  0.0678
  247MOL0     C33957   7.863   9.593   1.158 -0.2667 -0.2507  0.6518
  247MOL0     C33958   7.828   9.462   1.228 -0.1303 -0.2553 -0.1117
  247MOL0     C33959   7.949   9.369   1.234 -0.1117 -1.3869 -0.5060
  247MOL0     C33960   7.908   9.241   1.288  0.2989  0.3530 -0.6253
  247MOL0     C33961   8.027   9.144   1.325  0.9016 -0.0979  0.1698
  247MOL0     C33962   8.086   9.077   1.201  0.1356  0.6120  0.1714
  247MOL0     C33963   8.193   8.984   1.245 -0.0019 -0.0642  0.5316
  247MOL0     C33964   8.251   8.896   1.132  0.1656  0.2628  0.1166
  247MOL0     N33965   8.343   8.790   1.177  0.2106  0.9466  0.0289
  247MOL0     C33966   8.313   8.693   1.276 -0.1356  0.1821  0.5334
  247MOL0     C33967   8.430   8.618   1.276  1.0348 -0.1942 -0.5480
  247MOL0     C33968   8.465   8.515   1.376 -0.1804  0.2577 -1.1525
  247MOL0     C33969   8.495   8.382   1.303  0.0840  0.2892 -0.4231
  247MOL0     C33970   8.501   8.262   1.401  0.2508 -0.7850 -0.3731
  247MOL0     C33971   8.604   8.273   1.506  0.0939 -0.3493  0.1546
  247MOL0     O33972   8.632   8.157   1.589 -0.0501 -0.4368 -0.2621
  247MOL0     C33973   8.550   8.125   1.688  0.3152  1.0312 -0.3757
  247MOL0     C33974   8.581   8.143   1.816  0.1068 -0.2451 -0.0730
  247MOL0     C33975   8.491   8.123   1.920  0.9330 -0.3411  1.1347
  247MOL0     C33976   8.529   8.182   2.053  0.6511 -0.5306 -0.9414
  247MOL0     C33977   8.371   8.060   1.900 -0.0612  0.1972 -0.1346
  247MOL0     C33978   8.269   8.035   2.005 -0.4489  0.1578  1.1354
  247MOL0     O33979   8.141   8.024   1.952  0.3317 -0.6171 -0.2403
  247MOL0     C33980   8.029   8.003   2.032 -0.0807  0.2284  0.0729
  247MOL0     C33981   8.015   8.046   2.164  0.0254 -0.0400 -0.8709
  247MOL0     C33982   7.900   8.020   2.242  0.3280 -0.2648  0.9155
  247MOL0     C33983   7.792   7.956   2.181  1.0785  0.2029  0.5495
  247MOL0     O33984   7.677   7.936   2.250 -0.1470 -0.1194 -0.2519
  247MOL0     C33985   7.569   7.851   2.208  0.1725  0.2714 -0.0389
  247MOL0     C33986   7.489   7.797   2.324  0.4401  0.6455 -0.1356
  247MOL0     C33987   7.361   7.711   2.292  0.2356 -0.0643  0.0538
  247MOL0     C33988   7.391   7.580   2.205 -0.6494 -0.3333 -0.0847
  247MOL0     C33989   7.280   7.474   2.187 -1.6381  0.3577 -0.1439
  247MOL0     C33990   7.345   7.336   2.137 -0.0057  0.3705 -0.4741
  247MOL0     C33991   7.239   7.236   2.103 -0.5346 -0.2895 -0.6502
  247MOL0     C33992   7.203   7.154   2.224  0.0893  0.1122  0.9743
  247MOL0    Cl33993   7.319   7.022   2.268  0.4745  0.1059 -0.5490
  247MOL0     C33994   7.804   7.912   2.045 -0.2377 -0.6679  0.2250
  247MOL0     C33995   7.924   7.946   1.974  0.4747 -0.1779  0.0414
  247MOL0     O33996   8.306   8.009   2.116  1.0483  0.5982  0.3029
  247MOL0     C33997   8.351   8.023   1.763  0.4678  0.0666 -0.4534
  247MOL0     C33998   8.434   8.057   1.656  0.0054 -0.0582 -0.0037
  247MOL0     N33999   8.518   8.672   1.187  0.1222  0.1666  0.0882
  247MOL0     N34000   8.462   8.760   1.117 -0.6852  0.2964  0.3014
  247MOL0     C34001   7.675   9.692   0.941  0.4594 -0.2796  0.1252
  247MOL0     C34002   7.563   9.683   0.858  0.2334 -0.6393 -0.1327
  247MOL0     C34003   7.183   9.536   0.686  0.1621  0.7723  0.2058
  247MOL0     C34004   7.134   9.658   0.638 -0.1362 -0.3267  0.3557
  247MOL0     C34005   7.021   9.664   0.556  0.0547  0.2009 -0.6317
  247MOL0     C34006   6.950   9.545   0.527  0.2727 -0.0120 -0.2782
  247MOL0     O34007   6.843   9.572   0.447 -0.3319  0.0149 -0.2524
  247MOL0     C34008   6.753   9.466   0.398 -0.8082 -0.6490 -0.0693
  247MOL0     C34009   6.612   9.534   0.393 -0.7196  0.7720  0.6104
  247MOL0     C34010   6.591   9.585   0.254 -0.1945  1.1068  0.2589
  247MOL0     C34011   6.442   9.629   0.244 -0.7300 -0.5842  0.2952
  247MOL0     C34012   6.405   9.661   0.102  0.4528 -0.0748 -0.1038
  247MOL0     C34013   6.376   9.695  -0.009  0.5369 -0.4701  0.4142
  247MOL0     C34014   7.001   9.425   0.573  0.1323 -0.2333  0.3077
  247MOL0     C34015   7.118   9.412   0.660  0.3965  0.2187 -0.6676
  247MOL0     C34016   7.158   9.280   0.720 -0.6632  0.6062 -0.7164
  247MOL0     H34017   7.319   9.679   1.089  0.4382  0.1477  0.4470
  247MOL0     H34018   7.512   9.678   1.235 -2.2036 -1.7464 -0.2347
  247MOL0     H34019   7.960   9.632   1.189  0.6161 -0.7752 -1.2906
  247MOL0     H34020   7.882   9.572   1.052 -1.4975  0.0147  0.3657
  247MOL0     H34021   7.801   9.493   1.329  1.3323  0.5935  0.0428
  247MOL0     H34022   7.745   9.409   1.181 -1.0928  0.1415  1.1120
  247MOL0     H34023   8.002   9.353   1.140 -1.1827  0.5960 -1.4837
  247MOL0     H34024   8.026   9.410   1.300  1.1637  2.0632 -3.7817
  247MOL0     H34025   7.852   9.255   1.381 -0.3346  0.1454 -0.9706
  247MOL0     H34026   7.841   9.190   1.218 -0.9466 -0.4333  1.0525
  247MOL0     H34027   7.983   9.072   1.396  0.3778 -1.1631 -1.1915
  247MOL0     H34028   8.102   9.209   1.371  0.1757 -0.6866  2.3135
  247MOL0     H34029   8.011   9.020   1.146 -1.0347  1.5282  0.7835
  247MOL0     H34030   8.122   9.158   1.137 -1.6070  1.1643 -0.1388
  247MOL0     H34031   8.159   8.921   1.328  1.2018 -1.4656 -0.0178
  247MOL0     H34032   8.275   9.048   1.280  0.3596  0.4126 -1.0985
  247MOL0     H34033   8.160   8.851   1.091 -0.2060  1.3694 -0.3044
  247MOL0     H34034   8.299   8.957   1.054  0.0108  0.5288  0.2282
  247MOL0     H34035   8.231   8.678   1.346 -0.7287 -1.9627 -0.5340
  247MOL0     H34036   8.372   8.487   1.425  0.0777 -3.8672 -2.6388
  247MOL0     H34037   8.543   8.549   1.445 -0.4536  0.4098 -0.9164
  247MOL0     H34038   8.428   8.354   1.221 -1.6261  2.1209  0.2520
  247MOL0     H34039   8.591   8.399   1.255  0.9700  0.3302  1.2966
  247MOL0     H34040   8.408   8.256   1.458  2.1524 -1.2617  2.9251
  247MOL0     H34041   8.511   8.170   1.341 -1.6185  0.1415 -2.2139
  247MOL0     H34042   8.698   8.299   1.456 -1.1027  0.9219 -1.5117
  247MOL0     H34043   8.576   8.359   1.568  3.1067  0.5679  0.4336
  247MOL0     H34044   8.673   8.195   1.837 -1.5930  2.2444  1.9018
  247MOL0     H34045   8.443   8.243   2.079  0.3173 -0.1930 -2.6892
  247MOL0     H34046   8.620   8.242   2.055 -0.7167  1.6131 -0.1401
  247MOL0     H34047   8.545   8.114   2.137  0.1763  2.3190  1.6091
  247MOL0     H34048   8.097   8.102   2.208  1.0385 -1.8738 -0.3360
  247MOL0     H34049   7.893   8.046   2.347  2.0206  0.7392  0.8084
  247MOL0     H34050   7.495   7.889   2.136 -1.0238 -2.7787 -0.5926
  247MOL0     H34051   7.606   7.760   2.160 -0.9389 -0.3551  0.2437
  247MOL0     H34052   7.560   7.736   2.381  0.7832 -0.2821 -1.5192
  247MOL0     H34053   7.444   7.885   2.371  0.8111  0.0387  1.4288
  247MOL0     H34054   7.290   7.780   2.245 -0.8717 -3.4186 -3.8551
  247MOL0     H34055   7.309   7.682   2.384 -1.5472  1.1845 -0.4945
  247MOL0     H34056   7.476   7.533   2.255 -0.7381  0.3684  0.7451
  247MOL0     H34057   7.413   7.614   2.103  1.1407 -2.1556 -0.3785
  247MOL0     H34058   7.235   7.450   2.283 -0.0833  1.2961  0.8739
  247MOL0     H34059   7.203   7.497   2.113 -2.5819  0.1026  0.7493
  247MOL0     H34060   7.407   7.293   2.216 -0.4250  1.1813  0.3236
  247MOL0     H34061   7.403   7.356   2.047 -0.8301  0.8111 -0.9210
  247MOL0     H34062   7.283   7.168   2.030  1.2186 -3.2352  2.8377
  247MOL0     H34063   7.150   7.289   2.066  0.5481  2.0620 -0.0883
  247MOL0     H34064   7.102   7.112   2.214  0.0089  0.7265 -1.2575
  247MOL0     H34065   7.204   7.216   2.314  2.8423  0.7842  0.5446
  247MOL0     H34066   7.711   7.886   1.995 -0.0643  1.1861 -1.1542
  247MOL0     H34067   7.930   7.927   1.867  3.3580 -2.6349  0.5104
  247MOL0     H34068   8.265   7.965   1.734  0.3135 -1.0875  2.0301
  247MOL0     H34069   8.410   8.014   1.560 -0.1863 -1.4714  0.6620
  247MOL0     H34070   7.778   9.688   0.906  0.2939 -2.8177 -0.2209
  247MOL0     H34071   7.579   9.679   0.751  1.4023 -3.1323  0.0795
  247MOL0     H34072   7.185   9.754   0.632 -1.0810  0.1142 -2.3881
  247MOL0     H34073   6.982   9.758   0.519  2.0272  1.3327  0.0410
  247MOL0     H34074   6.785   9.432   0.299 -0.2083  1.4734 -0.6641
  247MOL0     H34075   6.752   9.374   0.457  0.1472 -1.3496 -1.1041
  247MOL0     H34076   6.585   9.593   0.481  0.1963  0.9322  0.8016
  247MOL0     H34077   6.548   9.446   0.396  1.6486 -1.0863 -0.0996
  247MOL0     H34078   6.658   9.670   0.241 -0.2652  1.0363 -0.6290
  247MOL0     H34079   6.615   9.499   0.191 -0.9673  1.9794 -1.3041
  247MOL0     H34080   6.420   9.712   0.311  1.6792 -0.1772  0.6907
  247MOL0     H34081   6.378   9.542   0.261 -0.2124 -0.7258  1.5995
  247MOL0     H34082   6.344   9.706  -0.111 -0.3962  1.4939  0.8633
  247MOL0     H34083   6.961   9.329   0.541  0.2273 -0.0596 -0.3460
  247MOL0     H34084   7.172   9.298   0.827 -0.5859  0.9011 -0.7761
  247MOL0     H34085   7.086   9.200   0.701 -0.0851  0.2492 -1.4606
  247MOL0     H34086   7.246   9.244   0.665  0.1867  1.3100  0.1604
  248MOL0     O34087   2.869   6.404   2.897  0.4845 -0.7354 -0.0515
  248MOL0     C34088   2.857   6.446   3.012 -0.2390  0.6730 -0.3929
  248MOL0     O34089   2.939   6.402   3.118  0.6189  0.1137 -0.2303
  248MOL0     C34090   3.033   6.310   3.087 -0.6517  0.3080 -0.3446
  248MOL0     C34091   3.016   6.183   3.046  1.3547  0.2627  0.3531
  248MOL0     C34092   3.113   6.090   3.017  0.9517  0.6422  0.4271
  248MOL0     C34093   3.246   6.132   3.026 -0.7127  0.1274  0.2111
  248MOL0     O34094   3.343   6.044   2.990 -0.0383 -0.2098 -0.2951
  248MOL0     C34095   3.443   6.077   2.895  0.0724  0.2668 -0.3233
  248MOL0     C34096   3.574   6.084   2.974  0.9096 -0.0442 -0.3219
  248MOL0     C34097   3.608   5.938   3.032 -0.0721  0.0017 -0.1649
  248MOL0     C34098   3.751   5.942   3.095 -0.1224  0.2916  0.0220
  248MOL0     C34099   3.811   5.802   3.126  0.7200 -1.2642 -0.6970
  248MOL0     C34100   3.943   5.806   3.203  0.7231  0.0567 -0.5810
  248MOL0     C34101   3.995   5.676   3.271  1.2116 -0.3646 -0.4117
  248MOL0     C34102   4.131   5.687   3.335  0.2919 -0.4465  0.2230
  248MOL0     N34103   4.238   5.723   3.239  0.6117 -0.4574 -0.7039
  248MOL0     C34104   4.314   5.836   3.224 -0.5288  0.0062 -1.0735
  248MOL0     C34105   4.400   5.808   3.127  0.3850 -0.3324  0.5492
  248MOL0     C34106   4.528   5.883   3.088  0.8666 -0.5004  0.3798
  248MOL0     C34107   4.499   5.947   2.947 -0.7610  0.8686 -0.9954
  248MOL0     C34108   4.562   6.081   2.919 -0.1538 -0.7113 -0.4142
  248MOL0     C34109   4.717   6.090   2.927  0.7446  0.2865  0.3598
  248MOL0     O34110   4.777   6.022   3.041 -0.1277 -0.0755  0.5746
  248MOL0     C34111   4.910   6.030   3.064  0.2472 -0.0750  0.2517
  248MOL0     C34112   5.008   6.056   2.970  0.1782  0.5799  0.3695
  248MOL0     C34113   5.145   6.061   3.007 -0.5023 -0.4633  0.5964
  248MOL0     C34114   5.232   6.095   2.890 -0.0272 -0.5611 -0.6267
  248MOL0     C34115   5.187   6.047   3.141 -0.0840  0.1742  0.0154
  248MOL0     C34116   5.326   6.067   3.178  0.7660 -0.0696  0.1931
  248MOL0     O34117   5.356   6.131   3.303 -0.5815 -0.2209 -0.7203
  248MOL0     C34118   5.476   6.200   3.327  0.6072  0.6120 -0.3645
  248MOL0     C34119   5.515   6.226   3.459 -0.6690 -0.3968 -0.1050
  248MOL0     C34120   5.632   6.290   3.491  0.3103 -0.9720  0.0100
  248MOL0     C34121   5.725   6.330   3.389  0.3183  0.0041  0.5708
  248MOL0     O34122   5.844   6.377   3.428 -0.5985  0.1326 -0.4293
  248MOL0     C34123   5.941   6.411   3.326  1.0917  1.0211  0.0427
  248MOL0     C34124   6.048   6.496   3.393 -0.4756  0.3955 -0.0762
  248MOL0     C34125   6.152   6.546   3.290  1.4079 -0.3741  0.6735
  248MOL0     C34126   6.233   6.659   3.351 -1.0055  0.4174 -0.1578
  248MOL0     C34127   6.344   6.708   3.251 -0.3909  0.1211  0.1655
  248MOL0     C34128   6.449   6.595   3.235 -0.1071  0.1978 -0.0610
  248MOL0     C34129   6.579   6.660   3.170  0.6481  0.9016  0.1431
  248MOL0     C34130   6.557   6.745   3.050 -0.1226 -0.6881 -0.4755
  248MOL0    Cl34131   6.490   6.638   2.929  0.3620 -0.2854 -0.0054
  248MOL0     C34132   5.681   6.316   3.254 -0.0655 -0.1485  0.1519
  248MOL0     C34133   5.559   6.250   3.223 -0.0641  0.2014  0.1026
  248MOL0     O34134   5.406   6.020   3.102  0.1755 -0.9061  0.0263
  248MOL0     C34135   5.082   6.027   3.235 -0.5774  0.0508 -0.0320
  248MOL0     C34136   4.948   6.020   3.200  0.5093  0.4013  0.4226
  248MOL0     N34137   4.372   5.679   3.088  0.3193 -0.3469 -0.0647
  248MOL0     N34138   4.275   5.630   3.149  1.0123  0.4522  0.0291
  248MOL0     C34139   3.267   6.263   3.066 -0.8678 -0.4812 -0.2035
  248MOL0     C34140   3.166   6.353   3.094  0.1221  0.3621  0.0871
  248MOL0     C34141   2.744   6.541   3.043 -0.3973 -0.5117  0.4000
  248MOL0     C34142   2.755   6.619   3.159  0.8429 -0.0962 -0.1024
  248MOL0     C34143   2.663   6.714   3.196  0.1487  0.2596  0.4077
  248MOL0     C34144   2.548   6.739   3.119 -0.2241  0.3994  0.2326
  248MOL0     O34145   2.441   6.821   3.149 -0.1544  0.5829  0.4450
  248MOL0     C34146   2.425   6.862   3.278  0.9778 -0.6482 -0.2105
  248MOL0     C34147   2.309   6.956   3.276  0.5685  0.4905 -0.3386
  248MOL0     C34148   2.318   7.079   3.188 -0.4556  0.8339 -0.0208
  248MOL0     C34149   2.179   7.146   3.178 -0.0019 -0.0771  0.7581
  248MOL0     C34150   2.175   7.239   3.058 -0.4461 -0.4111 -0.5576
  248MOL0     C34151   2.151   7.322   2.977 -0.6349 -0.1809  0.5410
  248MOL0     C34152   2.531   6.655   3.011  1.4846  0.2035 -0.5123
  248MOL0     C34153   2.626   6.567   2.964 -0.4018  0.6832  0.1290
  248MOL0     C34154   2.592   6.501   2.830  0.7732  0.2675  0.3836
  248MOL0     H34155   2.913   6.148   3.036  1.6071 -0.3366 -0.1983
  248MOL0     H34156   3.086   5.989   2.987 -0.0992  0.8609  0.6030
  248MOL0     H34157   3.408   6.172   2.854 -1.2954  0.2797  0.8021
  248MOL0     H34158   3.450   6.002   2.815  1.0076 -0.0584  0.0452
  248MOL0     H34159   3.656   6.129   2.917 -1.1219  2.3866 -1.5278
  248MOL0     H34160   3.552   6.152   3.056  0.2646  0.1133 -0.6256
  248MOL0     H34161   3.535   5.914   3.110  0.6641 -1.8712 -0.0072
  248MOL0     H34162   3.597   5.858   2.959 -2.8072 -1.7220  1.9337
  248MOL0     H34163   3.815   5.998   3.027 -1.8110  2.3297  0.0059
  248MOL0     H34164   3.731   6.002   3.185  0.1236 -0.1073  0.3483
  248MOL0     H34165   3.823   5.752   3.029 -3.8413 -1.2407 -1.5071
  248MOL0     H34166   3.736   5.748   3.184 -4.0796  3.8322 -1.3008
  248MOL0     H34167   4.017   5.843   3.131  0.3313  1.4575 -0.2832
  248MOL0     H34168   3.941   5.885   3.279  0.2155  2.0372 -2.5495
  248MOL0     H34169   3.998   5.606   3.187 -0.2985  0.6306 -1.3415
  248MOL0     H34170   3.913   5.647   3.338 -0.0815 -2.1577 -2.6158
  248MOL0     H34171   4.137   5.765   3.412  2.7040  0.6232 -0.9034
  248MOL0     H34172   4.174   5.594   3.374  1.0360  0.4731  1.6799
  248MOL0     H34173   4.313   5.926   3.284 -0.5866 -2.3238  2.7298
  248MOL0     H34174   4.613   5.815   3.085  1.5824  0.3868  0.3981
  248MOL0     H34175   4.539   5.971   3.153 -2.1281  1.0994 -1.0672
  248MOL0     H34176   4.543   5.872   2.881  1.3860  1.6831 -0.5928
  248MOL0     H34177   4.392   5.955   2.930 -1.2031  0.0839  1.1137
  248MOL0     H34178   4.518   6.105   2.822  1.1333 -1.1336 -1.1346
  248MOL0     H34179   4.527   6.148   2.997 -0.8048  0.3250 -1.5659
  248MOL0     H34180   4.745   6.074   2.822 -1.3807  1.1696 -0.4010
  248MOL0     H34181   4.741   6.195   2.943  1.4184  0.2202 -0.1644
  248MOL0     H34182   4.975   6.080   2.870 -1.4204 -0.5347  0.5770
  248MOL0     H34183   5.300   6.011   2.874 -0.2797 -1.1473  1.1226
  248MOL0     H34184   5.296   6.179   2.917  0.4436 -1.9767  3.3221
  248MOL0     H34185   5.177   6.119   2.798  0.6046  1.8922 -0.4285
  248MOL0     H34186   5.438   6.207   3.533 -1.2353 -1.2671 -0.8923
  248MOL0     H34187   5.671   6.283   3.592  0.0419  1.3780  0.3281
  248MOL0     H34188   5.986   6.324   3.277 -0.4271  0.1054  0.2350
  248MOL0     H34189   5.894   6.471   3.247 -0.4426 -1.8848 -1.4091
  248MOL0     H34190   6.005   6.582   3.445 -2.0055  0.3409 -1.2042
  248MOL0     H34191   6.093   6.441   3.476 -0.4184 -0.4843 -0.6780
  248MOL0     H34192   6.106   6.584   3.198  2.1939 -1.5739 -0.2553
  248MOL0     H34193   6.217   6.465   3.254  1.6428 -0.3973  1.1490
  248MOL0     H34194   6.273   6.619   3.445 -0.1640 -0.2861 -0.8043
  248MOL0     H34195   6.173   6.743   3.386  0.6978  0.8085  2.0841
  248MOL0     H34196   6.297   6.742   3.158  3.8840  2.3754 -1.4306
  248MOL0     H34197   6.387   6.801   3.287 -2.4211  1.4613 -0.6460
  248MOL0     H34198   6.407   6.511   3.180  2.1242  1.2070 -3.6444
  248MOL0     H34199   6.480   6.553   3.331  2.8230  2.6158  0.2026
  248MOL0     H34200   6.648   6.584   3.132  0.9625  1.3285 -0.1423
  248MOL0     H34201   6.634   6.724   3.240  4.6497 -1.6617 -0.3173
  248MOL0     H34202   6.645   6.788   3.000  1.4361 -1.9055  1.0931
  248MOL0     H34203   6.494   6.832   3.071 -0.4706 -0.7126 -1.4023
  248MOL0     H34204   5.746   6.340   3.171  0.2860  0.1717  0.5159
  248MOL0     H34205   5.534   6.238   3.118  0.1505 -1.3128  0.2060
  248MOL0     H34206   5.104   6.042   3.340 -1.1613  1.8798 -0.1427
  248MOL0     H34207   4.871   5.978   3.265  0.5484 -3.6969 -1.8895
  248MOL0     H34208   3.369   6.300   3.073 -0.6467 -1.3943  4.2047
  248MOL0     H34209   3.185   6.457   3.120  0.5799 -0.4423  3.4370
  248MOL0     H34210   2.844   6.603   3.219 -0.0283 -0.0215  1.2590
  248MOL0     H34211   2.672   6.778   3.283  1.6842  1.0589 -0.3082
  248MOL0     H34212   2.399   6.772   3.335 -1.0639  0.8435  1.3774
  248MOL0     H34213   2.510   6.918   3.318  2.7031  0.1996 -4.5055
  248MOL0     H34214   2.281   6.980   3.379 -1.2029 -0.4319 -0.5647
  248MOL0     H34215   2.227   6.895   3.237 -1.9231  2.8864  0.8069
  248MOL0     H34216   2.378   7.155   3.238  0.7991  0.1803 -0.5107
  248MOL0     H34217   2.354   7.052   3.089 -0.3989 -2.2579  0.7395
  248MOL0     H34218   2.149   7.201   3.268 -1.6378 -1.3067  1.0284
  248MOL0     H34219   2.095   7.075   3.170 -1.0076  1.2512 -1.5188
  248MOL0     H34220   2.128   7.394   2.902  0.2461  2.0318  2.2643
  248MOL0     H34221   2.431   6.642   2.969 -0.0551  0.5184  2.6965
  248MOL0     H34222   2.596   6.392   2.841  0.8143  0.2884  0.5661
  248MOL0     H34223   2.488   6.517   2.799 -1.0048 -5.0014  2.4535
  248MOL0     H34224   2.653   6.540   2.748  2.4857  0.3868  1.6657
  249MOL0     O34225   6.456   0.540   6.433 -0.5812  0.2218  0.0927
  249MOL0     C34226   6.527   0.533   6.331 -0.5280  0.1546  0.3519
  249MOL0     O34227   6.662   0.511   6.336  0.1018 -0.0238  0.0810
  249MOL0     C34228   6.712   0.475   6.461  0.6804  0.0115  0.9428
  249MOL0     C34229   6.760   0.354   6.489 -0.0612 -0.1523 -0.0438
  249MOL0     C34230   6.823   0.332   6.609 -0.3404 -0.2504 -0.1253
  249MOL0     C34231   6.834   0.431   6.708  0.4352  0.2299  0.2797
  249MOL0     O34232   6.895   0.385   6.821 -0.1477  0.7103 -0.5638
  249MOL0     C34233   6.966   0.475   6.912  0.1371  0.1119  0.7458
  249MOL0     C34234   6.888   0.465   7.048 -0.0048  0.0861  0.9217
  249MOL0     C34235   6.896   0.322   7.099  0.4139 -0.4324 -0.1165
  249MOL0     C34236   7.035   0.293   7.162 -1.2549  0.2054 -0.0613
  249MOL0     C34237   7.039   0.155   7.217  0.1485 -0.2866 -0.7494
  249MOL0     C34238   7.157   0.121   7.304 -0.6326 -0.1643 -0.1909
  249MOL0     C34239   7.175  -0.033   7.341  0.4745 -0.2754  0.3883
  249MOL0     C34240   7.077  -0.089   7.426  0.8988  0.6523 -0.8508
  249MOL0     N34241   7.104  -0.228   7.474  0.3175 -0.7844 -0.2995
  249MOL0     C34242   7.228  -0.276   7.514 -0.2331 -0.4348 -0.8178
  249MOL0     C34243   7.209  -0.411   7.535 -0.4022  0.6382 -0.3191
  249MOL0     C34244   7.316  -0.506   7.583  0.5507 -0.2744  0.5853
  249MOL0     C34245   7.437  -0.477   7.505 -0.4957  0.2928 -0.2233
  249MOL0     C34246   7.553  -0.569   7.548  1.3144  0.3472  0.0318
  249MOL0     C34247   7.682  -0.552   7.473 -0.8986  0.0763 -0.2171
  249MOL0     O34248   7.779  -0.631   7.538 -0.3220 -0.4331  1.2215
  249MOL0     C34249   7.906  -0.619   7.495  0.0341 -0.3987  0.0798
  249MOL0     C34250   7.991  -0.695   7.554 -0.7533 -0.4313 -0.0703
  249MOL0     C34251   8.128  -0.690   7.519 -0.3076  0.8901  0.2589
  249MOL0     C34252   8.214  -0.794   7.587 -0.0931 -0.1767  0.5194
  249MOL0     C34253   8.173  -0.593   7.424 -0.3953 -0.2761  0.0917
  249MOL0     C34254   8.312  -0.592   7.379 -0.1142  0.3956  0.6968
  249MOL0     O34255   8.329  -0.513   7.268 -0.5548 -0.8628 -0.1276
  249MOL0     C34256   8.459  -0.482   7.230  0.1410  0.2288 -0.6436
  249MOL0     C34257   8.536  -0.393   7.307 -0.4703 -0.0182 -0.2902
  249MOL0     C34258   8.675  -0.372   7.285 -0.2236 -0.1037  0.5782
  249MOL0     C34259   8.741  -0.438   7.176  0.0388 -0.3193  0.1652
  249MOL0     O34260   8.877  -0.434   7.160 -0.2154 -0.1585 -0.5634
  249MOL0     C34261   8.941  -0.302   7.148  0.1612 -0.3647  0.5250
  249MOL0     C34262   9.084  -0.296   7.095 -0.3540  0.3656 -0.5255
  249MOL0     C34263   9.098  -0.352   6.960  0.3911 -0.1141  0.1487
  249MOL0     C34264   9.243  -0.375   6.919  0.3751  0.5743  0.3658
  249MOL0     C34265   9.232  -0.462   6.794 -0.4845  0.7114 -0.7879
  249MOL0     C34266   9.364  -0.488   6.729  0.3612  0.3467  0.5786
  249MOL0     C34267   9.346  -0.606   6.629 -0.7361 -0.0805  0.0209
  249MOL0     C34268   9.489  -0.624   6.564  0.2719  0.5721  0.3187
  249MOL0    Cl34269   9.500  -0.790   6.510 -0.0876  0.1006  0.0688
  249MOL0     C34270   8.662  -0.520   7.097 -0.4584 -0.9210 -0.4002
  249MOL0     C34271   8.530  -0.545   7.126  0.0119 -0.3170  1.0751
  249MOL0     O34272   8.405  -0.637   7.448 -0.5138  0.3661 -0.3269
  249MOL0     C34273   8.082  -0.508   7.362  0.6503 -0.5432  0.5180
  249MOL0     C34274   7.948  -0.518   7.404 -0.6132 -0.0867  0.5479
  249MOL0     N34275   7.080  -0.437   7.503  0.1803  0.6118  0.3674
  249MOL0     N34276   7.023  -0.334   7.461  0.4156 -0.4923 -0.3284
  249MOL0     C34277   6.785   0.559   6.690  0.1045  0.1311 -1.0779
  249MOL0     C34278   6.723   0.580   6.560 -0.7151 -0.3473 -0.5113
  249MOL0     C34279   6.454   0.526   6.197  0.6884 -0.8404  0.1481
  249MOL0     C34280   6.316   0.539   6.197 -0.1931 -0.0891  0.3988
  249MOL0     C34281   6.234   0.548   6.080 -0.3604  0.2734  0.1959
  249MOL0     C34282   6.295   0.528   5.961 -0.2703  0.3462  0.4412
  249MOL0     O34283   6.224   0.533   5.844  0.4254 -0.4690 -0.1968
  249MOL0     C34284   6.121   0.432   5.828  0.4043  0.4459 -0.1239
  249MOL0     C34285   5.999   0.488   5.757 -0.5935 -0.5645  0.0999
  249MOL0     C34286   5.878   0.399   5.751 -0.0554 -0.5522  0.0778
  249MOL0     C34287   5.784   0.418   5.638 -0.5098  0.5253  0.1787
  249MOL0     C34288   5.742   0.557   5.623  0.3904 -0.8331 -0.0932
  249MOL0     C34289   5.687   0.669   5.629  0.6739 -0.5007 -0.4419
  249MOL0     C34290   6.426   0.505   5.955  0.7831  0.3371 -0.3422
  249MOL0     C34291   6.513   0.512   6.063  0.4686 -0.5277 -0.4508
  249MOL0     C34292   6.661   0.510   6.023  0.5273  1.0938 -0.6948
  249MOL0     H34293   6.767   0.270   6.419 -0.8051 -0.9058  0.7613
  249MOL0     H34294   6.876   0.241   6.635  1.8241  1.1695  0.6092
  249MOL0     H34295   6.984   0.574   6.869 -0.8760 -0.2398 -0.5427
  249MOL0     H34296   7.066   0.431   6.920 -0.3091 -1.3974 -1.3695
  249MOL0     H34297   6.926   0.535   7.123 -0.7475  1.3398  0.1719
  249MOL0     H34298   6.789   0.506   7.026  0.7478  2.5545  1.8683
  249MOL0     H34299   6.818   0.309   7.175  1.5224  0.8599  1.3009
  249MOL0     H34300   6.872   0.250   7.020  0.0530  2.4685 -2.8153
  249MOL0     H34301   7.113   0.299   7.085 -0.2823 -0.3570  0.8564
  249MOL0     H34302   7.052   0.365   7.242  0.1285  0.5769 -0.6643
  249MOL0     H34303   7.033   0.085   7.133 -1.0527  0.9924 -1.7774
  249MOL0     H34304   6.952   0.141   7.282 -0.3179  0.4708 -1.2049
  249MOL0     H34305   7.243   0.150   7.243 -2.0196  1.7350 -1.3212
  249MOL0     H34306   7.157   0.181   7.395  0.1423 -0.6215  0.1220
  249MOL0     H34307   7.273  -0.058   7.381 -0.1451 -3.7981  0.0337
  249MOL0     H34308   7.178  -0.084   7.244 -0.6368 -0.7684  0.6015
  249MOL0     H34309   7.069  -0.028   7.517 -1.9690 -1.4745  0.4783
  249MOL0     H34310   6.980  -0.089   7.377 -1.3981 -1.9516  3.0874
  249MOL0     H34311   7.314  -0.211   7.528 -1.4661  1.0765  0.0720
  249MOL0     H34312   7.287  -0.610   7.565  0.6437 -0.1818 -0.1253
  249MOL0     H34313   7.336  -0.485   7.689  1.2674 -3.1445  1.1053
  249MOL0     H34314   7.418  -0.496   7.400  0.2959 -1.9855 -0.0013
  249MOL0     H34315   7.476  -0.375   7.516  2.3752 -0.4605 -2.3567
  249MOL0     H34316   7.573  -0.550   7.654  1.6093 -0.0644  0.0509
  249MOL0     H34317   7.527  -0.675   7.540  1.8998  0.1364  0.7499
  249MOL0     H34318   7.682  -0.589   7.370 -1.3774 -2.7530  0.7014
  249MOL0     H34319   7.705  -0.445   7.480  0.7726 -0.3348  1.1497
  249MOL0     H34320   7.964  -0.752   7.642 -3.1636  0.4483 -0.1761
  249MOL0     H34321   8.298  -0.744   7.636 -0.3994  1.7647 -0.8102
  249MOL0     H34322   8.260  -0.857   7.511  0.1544  0.1288  0.4087
  249MOL0     H34323   8.165  -0.863   7.656  1.8601 -2.9472 -0.6833
  249MOL0     H34324   8.485  -0.337   7.385 -3.1268 -0.2261 -1.7789
  249MOL0     H34325   8.724  -0.299   7.349  1.4474  1.5849 -2.3830
  249MOL0     H34326   8.880  -0.240   7.081  4.9851  5.7837  0.8746
  249MOL0     H34327   8.934  -0.246   7.242  2.6462 -0.9740  1.1447
  249MOL0     H34328   9.107  -0.189   7.096 -1.3726  0.5987  1.2277
  249MOL0     H34329   9.139  -0.343   7.177 -6.4046 -1.7250  2.8950
  249MOL0     H34330   9.047  -0.281   6.894 -2.2415  0.3160  2.4455
  249MOL0     H34331   9.039  -0.444   6.958  0.5392 -0.1914 -1.4825
  249MOL0     H34332   9.300  -0.421   7.000 -1.5118  1.1820  2.1248
  249MOL0     H34333   9.283  -0.278   6.889 -0.8447  1.8045  2.4447
  249MOL0     H34334   9.192  -0.559   6.825 -0.7163  0.8140 -0.7629
  249MOL0     H34335   9.171  -0.410   6.720  2.4199  1.8962 -2.5353
  249MOL0     H34336   9.436  -0.514   6.807 -1.5611 -1.6292  1.7820
  249MOL0     H34337   9.396  -0.400   6.671  0.2557  0.2354  0.3503
  249MOL0     H34338   9.275  -0.587   6.548 -0.2630 -1.3357 -0.7178
  249MOL0     H34339   9.329  -0.701   6.682  1.6636 -0.8910 -0.5312
  249MOL0     H34340   9.569  -0.619   6.638  1.0931 -1.3674 -0.3626
  249MOL0     H34341   9.512  -0.554   6.483 -0.9766  0.5896 -0.0348
  249MOL0     H34342   8.696  -0.576   7.011  1.6954 -0.6141  0.2098
  249MOL0     H34343   8.484  -0.630   7.076 -1.2637  0.0564  1.5751
  249MOL0     H34344   8.117  -0.434   7.291 -2.1708  0.3760 -0.0678
  249MOL0     H34345   7.888  -0.443   7.353 -0.2259 -0.7455 -0.9530
  249MOL0     H34346   6.800   0.624   6.777  0.2033 -1.0738 -0.1709
  249MOL0     H34347   6.688   0.677   6.526  2.5192  1.0726 -0.1618
  249MOL0     H34348   6.259   0.544   6.289  0.1260  1.3895  0.5317
  249MOL0     H34349   6.132   0.582   6.092 -0.6398  1.0751 -3.3676
  249MOL0     H34350   6.159   0.360   5.755 -1.2864  0.0800 -0.6739
  249MOL0     H34351   6.098   0.379   5.921  2.5170  1.7834  1.2461
  249MOL0     H34352   6.024   0.514   5.654  3.0770  0.1389  1.0424
  249MOL0     H34353   5.977   0.589   5.794 -0.5188  0.2709 -2.0108
  249MOL0     H34354   5.908   0.294   5.757  1.0979 -0.1804  1.8108
  249MOL0     H34355   5.827   0.431   5.842 -1.6834  0.2393 -1.0596
  249MOL0     H34356   5.688   0.366   5.647 -0.2820 -0.2974 -1.6798
  249MOL0     H34357   5.829   0.385   5.544 -1.2490 -1.2743  0.4296
  249MOL0     H34358   5.629   0.758   5.638  1.7847  0.3576 -1.4134
  249MOL0     H34359   6.462   0.486   5.854 -2.0891  0.9905 -1.5896
  249MOL0     H34360   6.697   0.425   5.965  2.9990 -0.4670  2.8468
  249MOL0     H34361   6.666   0.589   5.947  0.7588  1.5355 -0.2202
  249MOL0     H34362   6.735   0.530   6.100 -0.2949 -2.1426  1.0974
  250MOL0     O34363   0.893   2.339   5.107  0.3744  0.1826 -0.9126
  250MOL0     C34364   0.847   2.239   5.064 -0.0064 -0.5881  0.0171
  250MOL0     O34365   0.931   2.125   5.028 -0.4674  0.2449  0.4766
  250MOL0     C34366   1.063   2.120   5.060  0.1865  1.1328  0.5857
  250MOL0     C34367   1.113   2.171   5.179 -0.5402  0.1408  0.9997
  250MOL0     C34368   1.251   2.174   5.207 -0.3279  0.2664  0.0612
  250MOL0     C34369   1.340   2.107   5.119 -0.3301 -0.4644  0.1519
  250MOL0     O34370   1.468   2.104   5.145  0.3750  0.0132  0.2437
  250MOL0     C34371   1.501   2.017   5.256  0.3558 -0.2859 -0.4449
  250MOL0     C34372   1.637   2.079   5.295 -0.3178  0.1957  0.0079
  250MOL0     C34373   1.616   2.193   5.394  0.3137  0.1535 -0.0633
  250MOL0     C34374   1.617   2.149   5.538 -0.4600 -0.3879  0.6235
  250MOL0     C34375   1.539   2.240   5.620  0.8703  0.0614 -0.4281
  250MOL0     C34376   1.385   2.212   5.601  0.4409 -0.0345 -0.0573
  250MOL0     C34377   1.291   2.250   5.722 -0.2243  1.2010  0.4240
  250MOL0     C34378   1.149   2.200   5.689  0.0280 -0.5463 -0.5870
  250MOL0     N34379   1.046   2.242   5.792  0.0995 -0.1973  0.6274
  250MOL0     C34380   1.014   2.367   5.807 -0.4760 -0.5929 -0.2174
  250MOL0     C34381   0.962   2.388   5.928 -0.3005  0.4161  0.0987
  250MOL0     C34382   0.896   2.507   5.973 -0.2184  0.9635  0.2164
  250MOL0     C34383   0.756   2.519   5.930 -0.1042 -0.0218 -0.5190
  250MOL0     C34384   0.714   2.657   5.880  0.0333 -0.4944  0.0494
  250MOL0     C34385   0.716   2.756   6.000  0.0702  0.8607  0.2989
  250MOL0     O34386   0.708   2.899   5.962 -1.0651 -0.1612 -0.4763
  250MOL0     C34387   0.603   2.962   5.915 -0.7070  1.3005 -0.0047
  250MOL0     C34388   0.620   3.076   5.832 -0.2727 -0.5120 -0.2677
  250MOL0     C34389   0.504   3.150   5.774  0.3878  0.4486 -0.3943
  250MOL0     C34390   0.549   3.271   5.683 -0.4666  0.6462  0.4747
  250MOL0     C34391   0.369   3.115   5.810  0.5589 -0.4900  0.5659
  250MOL0     C34392   0.253   3.184   5.758 -0.0552 -0.7658 -0.0270
  250MOL0     O34393   0.128   3.149   5.808  0.1249  0.0880  1.2277
  250MOL0     C34394   0.014   3.218   5.791  0.0950  0.5005 -0.1022
  250MOL0     C34395   0.011   3.358   5.762 -0.1104  0.1726  0.1794
  250MOL0     C34396  -0.120   3.420   5.760  0.0045  0.7092  0.0312
  250MOL0     C34397  -0.237   3.348   5.794  0.0734 -0.3601 -0.1136
  250MOL0     O34398  -0.355   3.414   5.804  0.5632 -0.5242  0.1691
  250MOL0     C34399  -0.367   3.544   5.864  0.2973 -0.1682 -0.3871
  250MOL0     C34400  -0.507   3.592   5.888 -0.6628  0.0040 -0.1130
  250MOL0     C34401  -0.562   3.635   5.746 -1.1333 -0.0016  0.1755
  250MOL0     C34402  -0.710   3.668   5.761 -0.3426 -0.6879  0.7244
  250MOL0     C34403  -0.773   3.686   5.621  0.2537 -0.1218 -0.5738
  250MOL0     C34404  -0.914   3.735   5.664  0.1148 -0.0364 -0.4810
  250MOL0     C34405  -1.008   3.733   5.549  0.5866 -0.8635  0.7173
  250MOL0     C34406  -1.151   3.754   5.585 -0.4383  0.5636  0.2951
  250MOL0    Cl34407  -1.175   3.904   5.657 -0.4319 -0.0862  0.5837
  250MOL0     C34408  -0.234   3.215   5.821 -0.3399  0.8010  0.5828
  250MOL0     C34409  -0.110   3.150   5.814  1.3159  0.2110 -0.9825
  250MOL0     O34410   0.269   3.263   5.669 -0.5924  0.3427 -0.0497
  250MOL0     C34411   0.357   3.013   5.909 -0.3736  0.4784 -0.5448
  250MOL0     C34412   0.473   2.937   5.962 -0.3219 -0.4065 -0.1611
  250MOL0     N34413   0.973   2.273   5.998  0.3994 -0.0443  0.0783
  250MOL0     N34414   1.024   2.188   5.911  0.0123 -0.1243 -0.9595
  250MOL0     C34415   1.285   2.050   5.001 -0.8896  0.1709 -0.3961
  250MOL0     C34416   1.151   2.060   4.966  0.0035 -0.3875  0.0971
  250MOL0     C34417   0.701   2.216   5.035 -0.3055  0.7164  0.3909
  250MOL0     C34418   0.656   2.102   4.964 -1.0211 -0.1329 -0.5471
  250MOL0     C34419   0.521   2.076   4.934 -0.0975  0.0178  0.3942
  250MOL0     C34420   0.424   2.167   4.967  0.3120  0.2862 -0.8932
  250MOL0     O34421   0.296   2.157   4.926 -0.0561 -0.6242 -0.1100
  250MOL0     C34422   0.235   2.032   4.921  0.9042  0.3147 -0.7597
  250MOL0     C34423   0.119   2.022   5.014  0.6938 -0.3380 -0.4882
  250MOL0     C34424   0.160   2.060   5.158 -0.4701  0.1255  0.0182
  250MOL0     C34425   0.073   2.013   5.270 -0.6366  0.1547 -0.2263
  250MOL0     C34426   0.129   2.057   5.400  1.5737  0.4291 -0.2690
  250MOL0     C34427   0.181   2.112   5.498 -0.6099  0.7011  1.0289
  250MOL0     C34428   0.465   2.284   5.041  0.1448  0.5489  1.3858
  250MOL0     C34429   0.597   2.306   5.079 -0.5486 -0.0087 -0.5908
  250MOL0     C34430   0.606   2.428   5.168 -0.0587  0.5004  0.2536
  250MOL0     H34431   1.050   2.221   5.252  0.6498 -0.4499  2.4781
  250MOL0     H34432   1.279   2.213   5.304  1.5846 -0.5090 -0.1433
  250MOL0     H34433   1.510   1.915   5.217  1.2356 -0.0850 -0.7989
  250MOL0     H34434   1.426   2.015   5.335  1.0064 -0.2622  0.1761
  250MOL0     H34435   1.713   2.015   5.341  2.0319  0.1579 -3.5308
  250MOL0     H34436   1.692   2.116   5.208  0.2543  2.1943  1.1590
  250MOL0     H34437   1.702   2.259   5.385  2.4803 -2.6656 -1.7197
  250MOL0     H34438   1.521   2.246   5.375  0.6993  0.8532 -0.0706
  250MOL0     H34439   1.585   2.044   5.537  2.3174 -1.3597  2.2793
  250MOL0     H34440   1.722   2.146   5.570  0.4607 -1.2724 -2.1636
  250MOL0     H34441   1.567   2.345   5.607  1.8211  0.5758  4.2090
  250MOL0     H34442   1.562   2.214   5.724  3.0423  0.4506 -0.7668
  250MOL0     H34443   1.361   2.283   5.522 -3.8186 -1.7719 -0.6251
  250MOL0     H34444   1.361   2.110   5.567 -2.1073  1.0190 -1.6954
  250MOL0     H34445   1.283   2.357   5.745  0.1838  1.4639 -0.5881
  250MOL0     H34446   1.321   2.198   5.813 -3.0346 -1.0623  0.1813
  250MOL0     H34447   1.114   2.240   5.593  0.0623  1.4198  0.1655
  250MOL0     H34448   1.145   2.091   5.685  0.1596 -0.7048  2.0872
  250MOL0     H34449   1.027   2.450   5.738 -0.1786 -0.8607 -0.4872
  250MOL0     H34450   0.950   2.597   5.942  0.3830  0.9504  1.2044
  250MOL0     H34451   0.906   2.517   6.081  0.8567  2.9319 -0.0125
  250MOL0     H34452   0.732   2.451   5.848 -3.1815  2.8349 -2.2163
  250MOL0     H34453   0.684   2.493   6.009 -0.1049  2.1486  0.2582
  250MOL0     H34454   0.788   2.689   5.806 -1.9220  1.0607 -1.3864
  250MOL0     H34455   0.613   2.645   5.837  0.3686 -0.3325 -0.8071
  250MOL0     H34456   0.631   2.739   6.067 -2.5509  1.4933 -2.6175
  250MOL0     H34457   0.814   2.745   6.048 -0.1187 -1.1145  0.3051
  250MOL0     H34458   0.718   3.106   5.797  0.3576 -2.1209  0.0260
  250MOL0     H34459   0.538   3.363   5.741 -3.5743  0.0012  1.0973
  250MOL0     H34460   0.503   3.278   5.584  1.2901 -1.4326 -0.5707
  250MOL0     H34461   0.656   3.258   5.665 -0.6168  0.5999 -0.4276
  250MOL0     H34462   0.096   3.422   5.740 -1.2107  1.2301 -1.2176
  250MOL0     H34463  -0.121   3.525   5.734  1.5489  0.7383 -0.0041
  250MOL0     H34464  -0.319   3.538   5.962  0.1026  0.7251 -0.2261
  250MOL0     H34465  -0.309   3.620   5.810  1.3581  1.3188  2.5737
  250MOL0     H34466  -0.571   3.516   5.935  0.1358 -0.4001  0.3419
  250MOL0     H34467  -0.511   3.679   5.955  1.6510  0.8180 -0.9322
  250MOL0     H34468  -0.547   3.548   5.682 -0.8862  0.4880 -0.4408
  250MOL0     H34469  -0.494   3.714   5.710  0.3697 -0.6206  1.5204
  250MOL0     H34470  -0.713   3.766   5.809 -0.1655 -0.7118  0.7869
  250MOL0     H34471  -0.764   3.591   5.817  2.7272 -1.5984  2.7299
  250MOL0     H34472  -0.716   3.758   5.560  1.2810 -1.1693 -0.8931
  250MOL0     H34473  -0.783   3.599   5.555 -0.8588  0.5583 -1.3372
  250MOL0     H34474  -0.901   3.840   5.693  0.7076 -0.0257 -0.7747
  250MOL0     H34475  -0.954   3.673   5.745  0.9763 -0.3448 -0.2785
  250MOL0     H34476  -1.000   3.637   5.497  0.4282 -1.1706  1.2538
  250MOL0     H34477  -0.965   3.809   5.481  0.8853 -1.6430  0.0121
  250MOL0     H34478  -1.179   3.670   5.649 -1.6927 -0.3467 -1.3795
  250MOL0     H34479  -1.195   3.745   5.485 -1.3745 -0.1801  0.7555
  250MOL0     H34480  -0.330   3.170   5.844 -0.0442  0.6460  1.5743
  250MOL0     H34481  -0.100   3.042   5.820 -0.7008 -0.3594 -4.7887
  250MOL0     H34482   0.257   2.983   5.939 -0.4225 -1.6081 -2.5427
  250MOL0     H34483   0.460   2.865   6.042 -0.3034 -0.2005  0.0291
  250MOL0     H34484   1.355   1.999   4.935 -0.6858  1.3711 -1.1244
  250MOL0     H34485   1.110   2.017   4.876 -1.4546 -1.7861  1.3756
  250MOL0     H34486   0.728   2.023   4.940 -0.9990 -0.6471  1.1256
  250MOL0     H34487   0.499   1.981   4.886  1.4006 -1.0251  1.6197
  250MOL0     H34488   0.192   2.006   4.823 -1.8670 -0.0475  0.4730
  250MOL0     H34489   0.296   1.950   4.960  0.5768  1.1294  1.6178
  250MOL0     H34490   0.080   1.920   5.012 -1.7866  0.4982  0.5666
  250MOL0     H34491   0.028   2.072   4.979 -1.4647 -2.2315  1.9965
  250MOL0     H34492   0.263   2.024   5.168 -0.7577 -1.0276 -0.9288
  250MOL0     H34493   0.169   2.169   5.160  0.6701  0.0343  1.2015
  250MOL0     H34494   0.068   1.904   5.262  0.6764  0.1134 -0.7500
  250MOL0     H34495  -0.031   2.046   5.261 -0.3883  2.3913  3.1576
  250MOL0     H34496   0.229   2.159   5.582  1.4247 -1.3083  1.0928
  250MOL0     H34497   0.399   2.369   5.052 -1.2457  0.2634 -2.9836
  250MOL0     H34498   0.697   2.430   5.228  0.3046 -0.1233 -0.2690
  250MOL0     H34499   0.610   2.520   5.108  1.4854 -0.9751 -2.0237
  250MOL0     H34500   0.525   2.440   5.242  1.7083  2.8653  1.9600
  251MOL0     O34501   3.362  10.777   0.542 -0.2226 -0.1946 -0.6088
  251MOL0     C34502   3.256  10.828   0.506 -0.0335  0.2115  0.2978
  251MOL0     O34503   3.231  10.962   0.513 -0.2773  0.2009  0.4542
  251MOL0     C34504   3.325  11.060   0.557 -0.8615 -0.1648  0.3769
  251MOL0     C34505   3.279  11.188   0.527 -1.1775 -0.0737  0.4058
  251MOL0     C34506   3.362  11.299   0.573 -0.1229  0.5297  0.1674
  251MOL0     C34507   3.481  11.282   0.655 -0.0571 -0.5520  0.2276
  251MOL0     O34508   3.550  11.385   0.700 -0.0442 -0.0927  0.1155
  251MOL0     C34509   3.513  11.515   0.669  0.0650 -0.7770  0.3617
  251MOL0     C34510   3.608  11.618   0.726 -0.5630 -0.0424  0.4220
  251MOL0     C34511   3.753  11.578   0.691  0.3809 -0.3971  0.5740
  251MOL0     C34512   3.843  11.688   0.740 -0.6252 -0.9650 -0.1899
  251MOL0     C34513   3.989  11.647   0.753  0.8012  0.0021 -0.0062
  251MOL0     C34514   4.075  11.764   0.803 -0.1944 -0.1114  0.3417
  251MOL0     C34515   4.220  11.710   0.808 -0.1587  0.7983 -0.6506
  251MOL0     C34516   4.328  11.816   0.791 -0.1209  0.9880  0.3175
  251MOL0     N34517   4.466  11.772   0.836  0.2885  0.1319  0.5503
  251MOL0     C34518   4.567  11.861   0.884  0.1900 -0.9869  0.9813
  251MOL0     C34519   4.677  11.785   0.898 -1.0164  0.1964  0.7517
  251MOL0     C34520   4.800  11.835   0.965  0.1614 -0.1102  0.1872
  251MOL0     C34521   4.793  11.781   1.102 -0.1786 -0.2298  0.2573
  251MOL0     C34522   4.931  11.808   1.173  0.4776 -0.1426 -0.1378
  251MOL0     C34523   4.947  11.755   1.318  0.0859 -0.4371  0.3544
  251MOL0     O34524   5.082  11.794   1.355 -0.9444 -0.1688  0.1328
  251MOL0     C34525   5.140  11.719   1.461 -0.4118 -0.0450 -0.0177
  251MOL0     C34526   5.071  11.622   1.542 -0.6158  0.8693 -0.0298
  251MOL0     C34527   5.126  11.553   1.646  0.0684 -0.4712  0.5298
  251MOL0     C34528   5.052  11.438   1.714 -0.0983 -0.2374  0.4439
  251MOL0     C34529   5.260  11.590   1.685 -0.1939 -0.5512 -0.3273
  251MOL0     C34530   5.340  11.512   1.781 -0.3078  0.4464  0.2536
  251MOL0     O34531   5.306  11.384   1.819 -0.1969 -0.5173 -0.0335
  251MOL0     C34532   5.410  11.309   1.873  0.2523  0.2383  0.4261
  251MOL0     C34533   5.388  11.242   2.001 -0.1807 -0.3604  0.1398
  251MOL0     C34534   5.484  11.156   2.065  0.2916  0.5840 -0.5611
  251MOL0     C34535   5.602  11.131   1.993 -0.1271  0.0287 -0.8717
  251MOL0     O34536   5.695  11.034   2.025 -0.8224 -0.2135 -0.3538
  251MOL0     C34537   5.716  11.001   2.162 -0.7447  1.0651 -0.0014
  251MOL0     C34538   5.850  10.935   2.179 -0.5380  0.2904  0.2448
  251MOL0     C34539   5.888  10.887   2.325  0.0995 -0.0496  0.9480
  251MOL0     C34540   6.024  10.817   2.320  0.0542  0.9496 -0.0508
  251MOL0     C34541   6.057  10.746   2.454 -0.1038  0.7127  0.0544
  251MOL0     C34542   6.211  10.710   2.447  0.2139  0.5733 -0.1958
  251MOL0     C34543   6.264  10.656   2.576  0.0270  0.0771 -1.5427
  251MOL0     C34544   6.169  10.563   2.657 -0.4596 -1.2222 -0.1636
  251MOL0    Cl34545   6.129  10.421   2.550  0.0399  0.2131  0.3055
  251MOL0     C34546   5.634  11.196   1.868  0.1476 -0.9305 -0.6142
  251MOL0     C34547   5.532  11.286   1.813  0.1829  0.2670  0.8071
  251MOL0     O34548   5.437  11.578   1.827  0.4377 -0.2941 -0.3328
  251MOL0     C34549   5.326  11.699   1.615 -0.2947  0.5118 -0.1772
  251MOL0     C34550   5.270  11.747   1.501 -0.0168 -0.4499  0.0085
  251MOL0     N34551   4.648  11.663   0.855 -0.5742  0.7175 -0.0793
  251MOL0     N34552   4.525  11.654   0.808 -0.1259  0.2958 -0.1771
  251MOL0     C34553   3.513  11.154   0.683 -0.1797  0.0729  0.8092
  251MOL0     C34554   3.440  11.045   0.634  0.1785  0.0191  0.0201
  251MOL0     C34555   3.147  10.736   0.450  0.1390  0.6473  0.3495
  251MOL0     C34556   3.027  10.794   0.425  0.3231  0.0354 -0.8307
  251MOL0     C34557   2.919  10.726   0.376  0.0722  0.3972  0.6411
  251MOL0     C34558   2.924  10.588   0.339 -0.9619 -0.2431  0.4980
  251MOL0     O34559   2.813  10.525   0.288 -0.5239 -0.4486 -0.1330
  251MOL0     C34560   2.689  10.595   0.268 -0.5729  0.5727 -0.2138
  251MOL0     C34561   2.592  10.490   0.211 -0.5675 -0.1130 -1.0371
  251MOL0     C34562   2.629  10.448   0.072 -0.8047 -0.3901 -0.2023
  251MOL0     C34563   2.530  10.348  -0.001  0.1659 -0.2495 -0.6049
  251MOL0     C34564   2.415  10.421  -0.060  0.4888  0.5938  0.2215
  251MOL0     C34565   2.330  10.487  -0.110  0.2293 -0.1819  0.0871
  251MOL0     C34566   3.048  10.527   0.361  0.4023  0.4255 -0.4646
  251MOL0     C34567   3.159  10.594   0.418  0.2680 -0.7108 -0.2502
  251MOL0     C34568   3.289  10.525   0.418  0.2552 -0.3249  0.5151
  251MOL0     H34569   3.190  11.186   0.465 -0.6186 -0.8651 -0.4067
  251MOL0     H34570   3.325  11.400   0.555 -0.7509  0.3627  0.4937
  251MOL0     H34571   3.416  11.535   0.716  0.8432  3.9721  0.4544
  251MOL0     H34572   3.499  11.535   0.562 -1.3865 -1.3101  0.4312
  251MOL0     H34573   3.568  11.713   0.690  1.3551  0.5345 -0.3121
  251MOL0     H34574   3.603  11.610   0.835 -1.3492  1.3148  0.5219
  251MOL0     H34575   3.784  11.486   0.742  1.9739  0.1296  0.5989
  251MOL0     H34576   3.768  11.566   0.583  0.9788  1.4666  0.4209
  251MOL0     H34577   3.832  11.769   0.668  0.9559 -0.1490  0.4432
  251MOL0     H34578   3.806  11.729   0.835 -2.5382 -1.2622 -0.7555
  251MOL0     H34579   4.031  11.616   0.657  0.9439 -1.1359  0.4006
  251MOL0     H34580   4.001  11.564   0.824  4.3757 -2.4236 -3.0741
  251MOL0     H34581   4.082  11.850   0.736 -0.1779  0.1962  0.7390
  251MOL0     H34582   4.037  11.798   0.900 -1.4181  1.3629 -0.6132
  251MOL0     H34583   4.227  11.629   0.735  0.5933 -0.8604  1.1685
  251MOL0     H34584   4.230  11.659   0.904 -2.3192  2.5084  0.5664
  251MOL0     H34585   4.320  11.859   0.691 -0.9772  1.0370  0.3985
  251MOL0     H34586   4.307  11.904   0.853 -1.3995  0.8369  0.1314
  251MOL0     H34587   4.561  11.961   0.926 -0.1494 -1.1378  1.3012
  251MOL0     H34588   4.796  11.945   0.969  0.5322 -0.1305  2.9500
  251MOL0     H34589   4.889  11.795   0.916 -0.3749 -2.0813  0.7532
  251MOL0     H34590   4.713  11.836   1.152  0.3306  1.3175 -0.5559
  251MOL0     H34591   4.774  11.673   1.101 -3.1324  0.2144 -0.7629
  251MOL0     H34592   5.009  11.758   1.114  1.0767  3.4187 -2.7300
  251MOL0     H34593   4.960  11.913   1.165  0.5297 -0.1124  0.4472
  251MOL0     H34594   4.885  11.806   1.393  0.9023  0.3869  0.4860
  251MOL0     H34595   4.937  11.646   1.316  1.1597 -0.5402  0.5208
  251MOL0     H34596   4.972  11.592   1.512 -1.0481  0.7544  1.4280
  251MOL0     H34597   5.098  11.345   1.679  0.8957 -0.1782  1.5585
  251MOL0     H34598   4.950  11.422   1.678  0.4507 -0.2407 -1.2366
  251MOL0     H34599   5.051  11.441   1.823 -1.9134  0.7661  0.4413
  251MOL0     H34600   5.297  11.257   2.058  0.1783 -1.0637  0.9212
  251MOL0     H34601   5.466  11.118   2.164  3.8276 -0.2928 -0.1203
  251MOL0     H34602   5.716  11.097   2.216  1.2877  0.0698  1.9355
  251MOL0     H34603   5.642  10.930   2.199 -1.5940  1.4878 -0.8328
  251MOL0     H34604   5.844  10.854   2.106 -1.7451  0.5618  0.0186
  251MOL0     H34605   5.933  10.994   2.140 -3.0534  2.1623 -2.7431
  251MOL0     H34606   5.807  10.821   2.358 -1.8828  1.7654 -0.0533
  251MOL0     H34607   5.895  10.980   2.383  0.8295  0.0599  0.7024
  251MOL0     H34608   6.097  10.887   2.278 -0.0597  0.3797 -1.2365
  251MOL0     H34609   6.025  10.745   2.238  0.7983  2.4217 -1.3912
  251MOL0     H34610   6.036  10.813   2.538 -0.4297  0.0898  0.4784
  251MOL0     H34611   6.003  10.651   2.459  4.6665 -2.3136  0.4322
  251MOL0     H34612   6.261  10.801   2.412  0.0438  0.6441 -0.2584
  251MOL0     H34613   6.226  10.638   2.366  2.6715 -0.9599  1.4824
  251MOL0     H34614   6.289  10.744   2.637 -1.7323  0.0851 -0.7577
  251MOL0     H34615   6.360  10.607   2.558 -0.4963 -0.8114 -1.9724
  251MOL0     H34616   6.079  10.618   2.687  0.1588 -0.5345  0.4784
  251MOL0     H34617   6.221  10.536   2.750  1.8610  0.2415 -0.9339
  251MOL0     H34618   5.733  11.188   1.824  1.2136  0.8841  1.2587
  251MOL0     H34619   5.565  11.340   1.725 -1.0711  0.6682  0.5530
  251MOL0     H34620   5.424  11.735   1.645 -1.3138  1.3915  2.4382
  251MOL0     H34621   5.323  11.825   1.447 -0.4231  0.2788  0.6390
  251MOL0     H34622   3.583  11.111   0.755  0.2819 -3.0230 -1.2427
  251MOL0     H34623   3.479  10.948   0.662 -1.3198 -0.5335  0.2797
  251MOL0     H34624   3.008  10.897   0.453 -0.6659 -0.4180  0.2360
  251MOL0     H34625   2.834  10.793   0.367 -2.1198 -2.1994  0.7649
  251MOL0     H34626   2.653  10.633   0.364 -0.7004 -0.4135  0.1409
  251MOL0     H34627   2.695  10.684   0.206  0.3591  1.9007  1.6659
  251MOL0     H34628   2.489  10.528   0.209 -0.1899  0.9413 -0.9422
  251MOL0     H34629   2.576  10.406   0.279 -0.4790  0.3222 -0.4771
  251MOL0     H34630   2.646  10.524  -0.004 -0.9413  0.7755  0.8936
  251MOL0     H34631   2.718  10.388   0.095 -2.2148 -1.2287  4.1358
  251MOL0     H34632   2.492  10.278   0.074  2.1314 -1.5957 -0.8064
  251MOL0     H34633   2.580  10.289  -0.078 -2.5876  0.2630 -2.9541
  251MOL0     H34634   2.252  10.550  -0.148  0.6080  1.9025  2.4908
  251MOL0     H34635   3.045  10.427   0.319 -0.5136 -0.6097  1.8870
  251MOL0     H34636   3.286  10.429   0.366  0.1698 -0.2372  0.3582
  251MOL0     H34637   3.366  10.582   0.366 -0.3253  0.7089  0.7602
  251MOL0     H34638   3.313  10.513   0.524  2.3965 -0.5809  0.0359
  252MOL0     O34639   1.572   1.069   5.360  0.1576 -0.3674 -0.4543
  252MOL0     C34640   1.600   1.091   5.480  0.0694 -0.8290  0.3544
  252MOL0     O34641   1.726   1.117   5.522 -0.1101 -0.4470 -0.0041
  252MOL0     C34642   1.820   1.122   5.427 -0.2288  1.1478 -0.1104
  252MOL0     C34643   1.893   1.009   5.386 -0.5144 -0.1357  0.0802
  252MOL0     C34644   1.995   1.038   5.287  0.0056  0.2151  0.0629
  252MOL0     C34645   2.018   1.167   5.240  0.2347  0.7464  0.1647
  252MOL0     O34646   2.131   1.191   5.161  0.0079  0.0229  0.0279
  252MOL0     C34647   2.216   1.093   5.105 -1.4453 -0.2445  0.4137
  252MOL0     C34648   2.353   1.155   5.051  0.7762  0.8599  0.4572
  252MOL0     C34649   2.406   1.273   5.137  0.5447  0.1789 -0.3572
  252MOL0     C34650   2.531   1.332   5.073 -0.0559 -0.0921  0.2588
  252MOL0     C34651   2.584   1.452   5.155  0.3672 -0.2092 -0.2789
  252MOL0     C34652   2.689   1.531   5.069  0.0843  0.4269 -0.4636
  252MOL0     C34653   2.809   1.449   5.034  0.4826 -0.2563  0.3641
  252MOL0     C34654   2.923   1.529   4.967  0.2371 -0.5502 -0.3578
  252MOL0     N34655   2.875   1.599   4.849 -0.1837 -0.3672  0.8004
  252MOL0     C34656   2.859   1.532   4.731 -0.1713  0.6625  1.5113
  252MOL0     C34657   2.816   1.632   4.640 -0.8179  0.5230  0.5225
  252MOL0     C34658   2.755   1.618   4.501  0.3361  0.9836 -0.7049
  252MOL0     C34659   2.863   1.593   4.392 -0.3292 -0.7717 -0.3367
  252MOL0     C34660   2.970   1.713   4.403 -0.2389 -0.4183 -0.5527
  252MOL0     C34661   2.904   1.856   4.386 -0.2942 -0.3499  0.4583
  252MOL0     O34662   2.858   1.856   4.251  0.2663  0.0166  0.6351
  252MOL0     C34663   2.929   1.891   4.144 -0.6139 -0.0485  0.2021
  252MOL0     C34664   3.060   1.934   4.137 -0.1308 -0.0248  0.7612
  252MOL0     C34665   3.125   1.980   4.017 -0.5704  1.1024 -0.0384
  252MOL0     C34666   3.269   2.006   4.035 -0.5353 -0.4553  0.0817
  252MOL0     C34667   3.047   2.014   3.902 -0.7883 -0.4755  0.4485
  252MOL0     C34668   3.099   2.082   3.780 -0.4913  0.4106 -0.4937
  252MOL0     O34669   3.231   2.104   3.767  0.7204  0.4979  0.1939
  252MOL0     C34670   3.278   2.166   3.651  0.6074  0.3287 -0.3988
  252MOL0     C34671   3.291   2.083   3.532 -0.1438  0.0633  0.7806
  252MOL0     C34672   3.333   2.141   3.413  0.2736 -0.3793 -0.5407
  252MOL0     C34673   3.366   2.280   3.414  0.4932  0.2767  0.2709
  252MOL0     O34674   3.398   2.345   3.292  0.3247 -0.9687 -0.0649
  252MOL0     C34675   3.424   2.491   3.286  0.1391 -0.6065  0.6132
  252MOL0     C34676   3.564   2.530   3.337  0.4407  0.1642  0.3595
  252MOL0     C34677   3.573   2.677   3.348  0.7059 -0.0864 -0.2972
  252MOL0     C34678   3.711   2.716   3.406  0.2763 -0.2483  0.4695
  252MOL0     C34679   3.723   2.871   3.417 -0.6844 -0.6791  0.4255
  252MOL0     C34680   3.869   2.913   3.467  0.4546  0.6367 -0.2561
  252MOL0     C34681   3.912   2.858   3.602 -0.8735  0.1571 -0.1393
  252MOL0     C34682   3.824   2.903   3.717  0.9495  0.7709  0.0825
  252MOL0    Cl34683   3.809   3.078   3.744 -0.0574 -0.5193 -0.0585
  252MOL0     C34684   3.355   2.356   3.533 -0.3217 -0.5750  0.0278
  252MOL0     C34685   3.314   2.297   3.653 -0.0122  0.5027  0.0800
  252MOL0     O34686   3.008   2.115   3.699 -0.5038  0.2450 -0.0322
  252MOL0     C34687   2.910   1.959   3.903 -1.0467 -0.2039 -0.1392
  252MOL0     C34688   2.863   1.898   4.023  0.8268 -0.3727  0.0365
  252MOL0     N34689   2.825   1.757   4.710 -0.2655 -0.2360 -0.1079
  252MOL0     N34690   2.867   1.735   4.826  0.3088  0.4742  0.6455
  252MOL0     C34691   1.947   1.275   5.278  0.2275  0.2980 -0.4263
  252MOL0     C34692   1.846   1.251   5.376  0.5991 -0.3863  1.0116
  252MOL0     C34693   1.484   1.131   5.559 -0.0611 -0.8890  0.1458
  252MOL0     C34694   1.479   1.261   5.608  0.2410 -0.3011  0.3193
  252MOL0     C34695   1.368   1.307   5.679  0.5349 -0.2798 -0.4487
  252MOL0     C34696   1.257   1.230   5.709  0.2205  1.0366 -0.3475
  252MOL0     O34697   1.152   1.288   5.780  0.1691  0.2922  0.2524
  252MOL0     C34698   1.045   1.221   5.847 -0.4608  0.4454 -1.0576
  252MOL0     C34699   0.927   1.218   5.755  0.4942  0.2458 -0.1859
  252MOL0     C34700   0.888   1.354   5.720 -0.1718 -0.0035 -0.8096
  252MOL0     C34701   0.745   1.349   5.659 -1.4351  0.2242  0.3482
  252MOL0     C34702   0.693   1.485   5.645 -0.1146 -0.7116  0.1504
  252MOL0     C34703   0.651   1.600   5.637  0.4479 -0.1421 -0.4128
  252MOL0     C34704   1.265   1.094   5.664  0.3195  0.9063 -0.2373
  252MOL0     C34705   1.376   1.044   5.590 -0.4716  0.6236 -0.4638
  252MOL0     C34706   1.367   0.903   5.536 -0.2094  0.9684  0.1836
  252MOL0     H34707   1.860   0.911   5.419 -0.1900 -0.7092 -1.2318
  252MOL0     H34708   2.060   0.959   5.249 -1.6862  0.2056 -3.2141
  252MOL0     H34709   2.166   1.036   5.027  1.3548  2.1735 -3.5619
  252MOL0     H34710   2.245   1.028   5.188  2.2160  2.2098  1.3171
  252MOL0     H34711   2.427   1.075   5.049 -0.6827 -0.5386 -1.6111
  252MOL0     H34712   2.342   1.187   4.947 -3.0272  0.7250  0.6864
  252MOL0     H34713   2.330   1.350   5.156 -1.4760 -1.9541  0.7689
  252MOL0     H34714   2.437   1.231   5.232  0.2941  1.3548  0.2657
  252MOL0     H34715   2.612   1.262   5.056 -1.9527 -2.2458 -0.4656
  252MOL0     H34716   2.497   1.364   4.974 -0.1932 -0.6405  0.1221
  252MOL0     H34717   2.613   1.424   5.257  0.1733 -1.0387 -0.4454
  252MOL0     H34718   2.503   1.525   5.166  0.1748 -0.5095  0.4294
  252MOL0     H34719   2.648   1.566   4.975  0.6825 -0.3257 -1.0173
  252MOL0     H34720   2.716   1.617   5.131 -1.3778  0.7215 -0.2164
  252MOL0     H34721   2.785   1.376   4.955  0.8490  2.2584 -2.2359
  252MOL0     H34722   2.845   1.399   5.124 -1.2438 -0.0624  1.1951
  252MOL0     H34723   2.960   1.599   5.043  1.3926 -1.2602 -0.2402
  252MOL0     H34724   3.011   1.468   4.945 -0.5188 -0.9416 -2.5365
  252MOL0     H34725   2.857   1.424   4.717 -2.5858  0.8174  0.1995
  252MOL0     H34726   2.699   1.710   4.485  0.7324  1.3935  0.2376
  252MOL0     H34727   2.685   1.534   4.493  1.3582  0.2475 -3.0239
  252MOL0     H34728   2.911   1.495   4.402  2.6694  0.3864 -1.9263
  252MOL0     H34729   2.825   1.598   4.290 -2.3748  0.9132  0.4270
  252MOL0     H34730   3.037   1.702   4.489  2.2570  1.3857 -2.1410
  252MOL0     H34731   3.044   1.693   4.326  3.5518 -1.6236  3.0336
  252MOL0     H34732   2.819   1.870   4.452  1.1107  0.5243  2.1511
  252MOL0     H34733   2.972   1.940   4.404 -1.3405  1.3314 -2.6790
  252MOL0     H34734   3.121   1.935   4.227 -1.0339  0.4911  1.3944
  252MOL0     H34735   3.292   1.977   4.138  2.3109  0.1579 -0.2892
  252MOL0     H34736   3.297   2.110   4.017 -0.9727 -0.3751 -0.1343
  252MOL0     H34737   3.330   1.946   3.967 -1.0403 -1.6099  0.6218
  252MOL0     H34738   3.266   1.978   3.544 -0.7520  0.4111  3.0894
  252MOL0     H34739   3.348   2.083   3.323  1.2889 -0.2677 -0.4543
  252MOL0     H34740   3.402   2.526   3.185 -0.9230 -2.8039  0.0383
  252MOL0     H34741   3.359   2.543   3.357 -0.9896  0.9889 -1.4756
  252MOL0     H34742   3.562   2.498   3.441 -0.0590 -0.8431  0.0543
  252MOL0     H34743   3.642   2.486   3.274  0.6371  0.0904  0.6500
  252MOL0     H34744   3.494   2.717   3.412 -1.2742 -1.8801 -1.4828
  252MOL0     H34745   3.563   2.720   3.248 -2.5518  0.4836  0.1602
  252MOL0     H34746   3.781   2.672   3.335 -0.1962  0.3800 -0.4175
  252MOL0     H34747   3.711   2.676   3.508 -1.9601  2.1497  1.5577
  252MOL0     H34748   3.720   2.918   3.319  0.0285  1.5996  1.4174
  252MOL0     H34749   3.643   2.901   3.485 -0.8957 -3.2152  1.3996
  252MOL0     H34750   3.878   3.022   3.470  0.8429  0.5952  0.6803
  252MOL0     H34751   3.943   2.876   3.395  1.0213 -2.9669  1.8664
  252MOL0     H34752   4.006   2.908   3.628 -2.3242  1.3176  3.5292
  252MOL0     H34753   3.926   2.750   3.600 -0.2476  0.1017  2.6458
  252MOL0     H34754   3.843   2.861   3.816  0.6136 -0.2698 -0.2772
  252MOL0     H34755   3.720   2.872   3.700  0.9582 -1.2905  3.0368
  252MOL0     H34756   3.378   2.462   3.543 -1.3827 -0.0228 -2.6581
  252MOL0     H34757   3.295   2.361   3.738  0.2341  0.3817  0.2276
  252MOL0     H34758   2.858   1.970   3.809  0.2441 -0.0094 -0.8477
  252MOL0     H34759   2.757   1.877   4.019  0.5839  0.5571  1.2531
  252MOL0     H34760   1.955   1.367   5.222  0.4767 -1.1861 -2.9925
  252MOL0     H34761   1.779   1.332   5.404  1.0712  0.1368  0.6480
  252MOL0     H34762   1.558   1.332   5.585 -1.2168  2.1224  2.2622
  252MOL0     H34763   1.362   1.407   5.722 -4.4572  0.8951 -3.0652
  252MOL0     H34764   1.058   1.123   5.894  1.1263  0.3801 -1.5813
  252MOL0     H34765   1.019   1.274   5.939  0.1710 -0.0109 -0.6088
  252MOL0     H34766   0.836   1.178   5.801  1.0753  0.6664  1.3910
  252MOL0     H34767   0.961   1.165   5.665  0.5801  1.4175 -0.8654
  252MOL0     H34768   0.889   1.415   5.810  2.6501 -0.3001 -0.5566
  252MOL0     H34769   0.951   1.399   5.643 -2.1403  0.8363 -2.0398
  252MOL0     H34770   0.677   1.292   5.722  0.7561 -2.5980  0.3302
  252MOL0     H34771   0.750   1.303   5.560  0.9982  2.0189 -0.4764
  252MOL0     H34772   0.621   1.700   5.617  0.5040 -0.9843 -6.4166
  252MOL0     H34773   1.179   1.030   5.678 -0.4891  2.1265  0.5065
  252MOL0     H34774   1.293   0.842   5.588 -0.0870  1.0672  0.4780
  252MOL0     H34775   1.350   0.903   5.428 -0.2634  0.0013  0.1845
  252MOL0     H34776   1.464   0.855   5.552 -1.5648 -1.7908  0.6577
  253MOL0     O34777   5.337   2.428   5.663  0.6426 -0.3138 -0.1340
  253MOL0     C34778   5.322   2.445   5.541 -0.4740 -0.3039  0.2152
  253MOL0     O34779   5.234   2.375   5.456 -0.3568  0.1819  0.2136
  253MOL0     C34780   5.165   2.267   5.511  0.6627  0.6283  0.5759
  253MOL0     C34781   5.149   2.143   5.438 -1.0734  0.0882 -0.2196
  253MOL0     C34782   5.055   2.043   5.466 -0.3281  0.2069  0.4026
  253MOL0     C34783   4.985   2.053   5.583 -0.0722 -0.0185 -0.6404
  253MOL0     O34784   4.897   1.946   5.604 -0.9376  0.3107 -0.0432
  253MOL0     C34785   4.827   1.934   5.732  0.1962 -0.7791  0.2533
  253MOL0     C34786   4.749   1.799   5.737  0.3372  1.2313  0.4876
  253MOL0     C34787   4.634   1.811   5.841 -0.0211  0.6508 -0.1332
  253MOL0     C34788   4.567   1.675   5.837 -0.1892  0.4584  0.3432
  253MOL0     C34789   4.458   1.680   5.940  0.6358  0.2426  0.3689
  253MOL0     C34790   4.453   1.550   6.007 -1.1163  0.0279 -0.1938
  253MOL0     C34791   4.334   1.519   6.103  0.4600 -0.2583 -0.3372
  253MOL0     C34792   4.216   1.473   6.017 -0.1380  0.1075 -0.8918
  253MOL0     N34793   4.084   1.488   6.081 -0.2627  0.0546 -0.1010
  253MOL0     C34794   3.999   1.594   6.036  0.5989  0.2316  0.1983
  253MOL0     C34795   3.873   1.550   6.078  0.1601  0.1883  0.5485
  253MOL0     C34796   3.748   1.615   6.056  0.2026 -0.5823 -0.1255
  253MOL0     C34797   3.681   1.654   6.191  0.7235 -0.2644  0.4278
  253MOL0     C34798   3.743   1.783   6.253  0.4960 -0.1241  0.0007
  253MOL0     C34799   3.669   1.919   6.211  0.3033  0.3279  0.4284
  253MOL0     O34800   3.736   2.024   6.272 -0.2190 -1.0210  0.1804
  253MOL0     C34801   3.857   2.066   6.236  0.2254  0.1475  0.5959
  253MOL0     C34802   3.928   2.013   6.120  0.3024  0.7670  0.1010
  253MOL0     C34803   4.056   2.064   6.086 -0.7870  1.2177 -0.4440
  253MOL0     C34804   4.117   1.996   5.964 -0.0056  0.7807 -0.5210
  253MOL0     C34805   4.127   2.153   6.175  0.4652 -0.3739  0.3225
  253MOL0     C34806   4.253   2.220   6.148 -1.0260  0.3219  0.5329
  253MOL0     O34807   4.318   2.184   6.037 -0.6276 -0.0923 -0.4304
  253MOL0     C34808   4.441   2.239   6.017 -0.4471  0.4399  0.4175
  253MOL0     C34809   4.459   2.376   6.024 -0.9585 -0.3854 -0.1798
  253MOL0     C34810   4.588   2.443   6.001  0.4293  0.7301 -1.0442
  253MOL0     C34811   4.701   2.360   5.966  0.3822  0.7337  0.5045
  253MOL0     O34812   4.826   2.421   5.955 -0.0497  0.0373  0.3615
  253MOL0     C34813   4.835   2.523   5.855 -0.7532 -0.0762 -0.1211
  253MOL0     C34814   4.964   2.580   5.849 -0.0115  0.5198 -0.6820
  253MOL0     C34815   4.989   2.675   5.970  0.8912  0.1834 -0.0394
  253MOL0     C34816   4.998   2.820   5.927 -0.5209  0.3255 -0.1702
  253MOL0     C34817   5.024   2.921   6.037  0.7346  0.3384  0.3337
  253MOL0     C34818   4.908   2.945   6.133  0.4318  0.5268 -0.0220
  253MOL0     C34819   4.941   3.057   6.232  0.1847  0.5509 -0.4200
  253MOL0     C34820   4.813   3.091   6.305  0.3607 -0.3510 -0.3044
  253MOL0    Cl34821   4.759   2.950   6.397 -0.1552 -0.4188 -0.4214
  253MOL0     C34822   4.680   2.215   5.946 -0.5943  0.2327  0.9264
  253MOL0     C34823   4.556   2.160   5.976 -0.6137 -0.0829 -0.1597
  253MOL0     O34824   4.301   2.287   6.236  0.3068  0.0625  0.5403
  253MOL0     C34825   4.050   2.205   6.277  0.1704 -0.5415  0.1506
  253MOL0     C34826   3.920   2.165   6.309  0.3795  0.7348 -0.1669
  253MOL0     N34827   3.884   1.428   6.145  0.2954 -0.0863  0.3520
  253MOL0     N34828   4.011   1.391   6.149  0.4845  0.3951  0.1010
  253MOL0     C34829   5.012   2.158   5.673  0.1113  0.3113  0.3566
  253MOL0     C34830   5.098   2.264   5.635  0.3530 -0.0216  0.3046
  253MOL0     C34831   5.400   2.556   5.493 -0.4697  0.4422  0.4196
  253MOL0     C34832   5.332   2.664   5.427 -0.0721  0.3298  0.3171
  253MOL0     C34833   5.403   2.778   5.379  0.6245  0.3182  1.2842
  253MOL0     C34834   5.542   2.785   5.397 -0.3297  0.6924 -0.1825
  253MOL0     O34835   5.606   2.891   5.346  0.6938 -0.4097 -0.0699
  253MOL0     C34836   5.727   2.931   5.405 -0.0201  0.4046 -0.0139
  253MOL0     C34837   5.795   3.047   5.315 -1.0433  0.4062  0.1951
  253MOL0     C34838   5.948   3.032   5.295  0.0358  0.0378 -0.5334
  253MOL0     C34839   6.006   3.140   5.201  0.3886  0.1592  0.2950
  253MOL0     C34840   6.150   3.111   5.190 -0.4000 -0.9260 -0.3609
  253MOL0     C34841   6.265   3.098   5.169 -0.6462 -0.8572 -0.0345
  253MOL0     C34842   5.611   2.679   5.469 -0.1926  0.0708 -0.3855
  253MOL0     C34843   5.541   2.565   5.495 -0.4313  0.3036  0.1112
  253MOL0     C34844   5.624   2.449   5.545 -0.4396 -0.3216 -0.0378
  253MOL0     H34845   5.210   2.126   5.349 -2.9378 -1.4608 -1.2821
  253MOL0     H34846   5.038   1.961   5.397  1.5929  1.7509 -2.0741
  253MOL0     H34847   4.750   2.011   5.735  1.8901  0.9492  1.4721
  253MOL0     H34848   4.886   1.941   5.824  0.0062  1.9890  0.2458
  253MOL0     H34849   4.720   1.771   5.635  4.8521  0.0305 -0.6938
  253MOL0     H34850   4.821   1.720   5.760 -0.1136  0.5976 -0.2207
  253MOL0     H34851   4.672   1.823   5.943  0.0546 -1.8725  0.2012
  253MOL0     H34852   4.562   1.888   5.815 -0.4897  0.2562 -0.0339
  253MOL0     H34853   4.529   1.663   5.736 -0.2581  1.0257  0.3021
  253MOL0     H34854   4.638   1.595   5.860 -0.7338  0.0880  0.7994
  253MOL0     H34855   4.361   1.680   5.890  1.6983  0.1503 -1.8239
  253MOL0     H34856   4.471   1.769   6.002  2.1351  0.4876 -0.2400
  253MOL0     H34857   4.461   1.467   5.937  3.7146 -1.6351  1.9066
  253MOL0     H34858   4.545   1.540   6.065 -0.7180  1.0633 -0.6262
  253MOL0     H34859   4.313   1.604   6.169  1.0426 -0.8445  0.6156
  253MOL0     H34860   4.365   1.441   6.172 -1.4278 -1.8036 -1.1358
  253MOL0     H34861   4.203   1.522   5.920 -0.5724  1.4819 -0.1615
  253MOL0     H34862   4.234   1.367   5.996  0.1849 -0.5553  2.2075
  253MOL0     H34863   4.032   1.684   5.984 -0.8186 -0.1411 -1.4315
  253MOL0     H34864   3.673   1.556   6.003 -1.5761  0.5356  1.0571
  253MOL0     H34865   3.763   1.711   6.006 -3.5138  1.7468  2.7611
  253MOL0     H34866   3.573   1.670   6.183  0.6237 -0.9292  0.4061
  253MOL0     H34867   3.686   1.574   6.265  0.6868  0.3158  1.0652
  253MOL0     H34868   3.732   1.774   6.362 -3.1144  0.1117 -0.1968
  253MOL0     H34869   3.851   1.777   6.241  0.6605  0.7569  0.9122
  253MOL0     H34870   3.657   1.926   6.103  4.7874  0.2392 -0.2864
  253MOL0     H34871   3.572   1.912   6.260  0.8518  2.3843  1.9911
  253MOL0     H34872   3.879   1.941   6.054  0.0601  0.9195  0.1149
  253MOL0     H34873   4.219   1.956   5.967 -0.7237 -1.1297 -0.0090
  253MOL0     H34874   4.110   2.064   5.879  3.0341  0.3627 -1.2022
  253MOL0     H34875   4.063   1.904   5.942  1.2309 -0.6052  1.8277
  253MOL0     H34876   4.374   2.436   6.055  0.3505  2.5498 -1.8347
  253MOL0     H34877   4.591   2.550   6.018 -2.0058  1.0914 -2.4455
  253MOL0     H34878   4.818   2.478   5.757  3.2789  3.1444 -2.6326
  253MOL0     H34879   4.762   2.603   5.874 -0.3040  0.2957  0.0525
  253MOL0     H34880   5.038   2.500   5.849 -0.3231  0.2290 -1.1091
  253MOL0     H34881   4.982   2.636   5.757 -0.2717  1.2284 -0.3104
  253MOL0     H34882   5.084   2.641   6.012  1.6670 -0.4073 -2.1643
  253MOL0     H34883   4.905   2.664   6.039  0.6774  0.5961 -0.2306
  253MOL0     H34884   4.902   2.846   5.882 -0.5704  0.5613  0.0736
  253MOL0     H34885   5.075   2.847   5.855  0.9972 -0.8232  0.9605
  253MOL0     H34886   5.120   2.903   6.085  1.1024  1.5637  0.0946
  253MOL0     H34887   5.048   3.014   5.985  1.2934 -0.1060 -0.2172
  253MOL0     H34888   4.893   2.854   6.192  0.3001  1.0261  0.7269
  253MOL0     H34889   4.820   2.965   6.072 -0.6245 -3.3768 -0.0745
  253MOL0     H34890   4.973   3.144   6.175  0.2790  1.1028  0.4502
  253MOL0     H34891   5.018   3.034   6.306 -1.2589  0.5855  1.1430
  253MOL0     H34892   4.734   3.126   6.238  0.1481  2.1417  1.1104
  253MOL0     H34893   4.840   3.181   6.362  1.1816  0.6170 -2.1391
  253MOL0     H34894   4.773   2.162   5.926  0.4867  1.6494  2.0180
  253MOL0     H34895   4.549   2.053   5.991 -2.0505 -0.0897 -0.6815
  253MOL0     H34896   4.087   2.281   6.346 -2.5171  0.6478  0.4309
  253MOL0     H34897   3.870   2.198   6.399  2.0337 -0.7705  1.3851
  253MOL0     H34898   4.946   2.166   5.759 -1.3063 -4.0513 -0.0430
  253MOL0     H34899   5.091   2.352   5.699 -0.0326  0.6642 -0.6565
  253MOL0     H34900   5.225   2.656   5.417 -0.2461 -2.3373  3.0080
  253MOL0     H34901   5.342   2.856   5.336  1.2654 -0.7071 -1.7742
  253MOL0     H34902   5.712   2.947   5.512  0.8193  0.5682  0.0834
  253MOL0     H34903   5.795   2.846   5.388 -1.1408 -0.1648 -2.1373
  253MOL0     H34904   5.767   3.145   5.354 -2.2652  1.0167 -2.0054
  253MOL0     H34905   5.772   3.033   5.209  2.2925 -2.9199 -0.2969
  253MOL0     H34906   6.002   3.040   5.390 -0.0697 -2.3697 -0.2049
  253MOL0     H34907   5.974   2.934   5.254  1.8735  0.0747  0.4301
  253MOL0     H34908   5.992   3.233   5.257  1.1567 -0.8845  2.3417
  253MOL0     H34909   5.959   3.131   5.103  0.7776  0.5476  0.0685
  253MOL0     H34910   6.370   3.089   5.154 -0.5240 -1.6645  1.1803
  253MOL0     H34911   5.719   2.679   5.484 -0.4400  0.5671  1.7191
  253MOL0     H34912   5.641   2.470   5.651  1.6679 -2.1836  0.0560
  253MOL0     H34913   5.568   2.355   5.543 -0.5393 -0.2510 -1.2369
  253MOL0     H34914   5.718   2.444   5.490  0.1546 -0.7976  1.0017
  254MOL0     O34915   7.964   8.199   8.313  0.6678  0.1852 -0.4356
  254MOL0     C34916   7.876   8.223   8.399  0.0074  0.3109  0.4731
  254MOL0     O34917   7.892   8.314   8.504  0.6145  0.3160  0.1572
  254MOL0     C34918   8.005   8.386   8.496  0.0459  0.6145  0.4158
  254MOL0     C34919   8.105   8.337   8.583 -0.2944  0.0510 -0.3211
  254MOL0     C34920   8.231   8.393   8.577  0.1405  0.3406 -0.4261
  254MOL0     C34921   8.257   8.496   8.490 -0.1685 -1.0144  0.2347
  254MOL0     O34922   8.367   8.578   8.482 -0.3112  0.5333  0.4094
  254MOL0     C34923   8.484   8.534   8.551 -0.3503  0.6138  0.7125
  254MOL0     C34924   8.601   8.617   8.510  0.3606  0.0059 -0.0093
  254MOL0     C34925   8.738   8.567   8.567  0.2845  0.0207 -0.3581
  254MOL0     C34926   8.864   8.646   8.518  0.2869 -0.3148  0.5147
  254MOL0     C34927   8.992   8.572   8.554 -0.2533  0.4277  0.1285
  254MOL0     C34928   9.117   8.658   8.532  0.2551  0.2179  0.2170
  254MOL0     C34929   9.241   8.622   8.617 -0.9873 -0.1969 -0.0689
  254MOL0     C34930   9.290   8.477   8.601 -0.8406 -0.4048  0.0738
  254MOL0     N34931   9.404   8.451   8.685 -0.2975 -0.2365 -0.0284
  254MOL0     C34932   9.410   8.488   8.821  0.1420 -1.4940  0.3183
  254MOL0     C34933   9.526   8.431   8.853 -0.6693 -0.3350  0.1978
  254MOL0     C34934   9.578   8.420   8.995  0.5667 -0.1900 -0.2240
  254MOL0     C34935   9.556   8.274   9.047 -0.4612  0.3912  1.1216
  254MOL0     C34936   9.569   8.263   9.196 -0.0303 -0.0964 -0.1072
  254MOL0     C34937   9.570   8.124   9.242  0.0228 -0.6355  0.6081
  254MOL0     O34938   9.444   8.064   9.222  0.2397  0.4722 -0.0720
  254MOL0     C34939   9.365   8.030   9.324  0.2382  1.1481 -0.1711
  254MOL0     C34940   9.299   7.910   9.303 -0.7656 -0.8494 -0.6446
  254MOL0     C34941   9.219   7.855   9.401  0.0696  0.2036 -0.8027
  254MOL0     C34942   9.152   7.721   9.365  0.5215 -0.3252 -0.3521
  254MOL0     C34943   9.199   7.934   9.524  0.2312  0.7058  0.2249
  254MOL0     C34944   9.112   7.896   9.638  0.0788 -0.9489  0.7562
  254MOL0     O34945   9.049   8.004   9.701  0.2925 -0.5840 -0.5966
  254MOL0     C34946   8.977   7.962   9.816  0.6038  0.6000  1.1744
  254MOL0     C34947   9.020   7.971   9.946  0.3296 -0.2056 -0.4844
  254MOL0     C34948   8.949   7.931  10.054 -0.6825 -0.1563  0.5557
  254MOL0     C34949   8.832   7.864  10.038  0.2721 -0.1200 -0.4673
  254MOL0     O34950   8.755   7.822  10.141  0.2811  0.2901  0.3440
  254MOL0     C34951   8.616   7.871  10.146 -0.5217  0.2699 -0.4967
  254MOL0     C34952   8.551   7.827  10.270 -0.3484  0.7807  0.4214
  254MOL0     C34953   8.526   7.679  10.283  0.1498  0.0902 -0.0795
  254MOL0     C34954   8.462   7.634  10.410 -0.3819 -0.1074  0.0821
  254MOL0     C34955   8.312   7.653  10.396 -0.7702 -0.0852 -0.7322
  254MOL0     C34956   8.232   7.616  10.525 -0.3459  0.2675 -0.1292
  254MOL0     C34957   8.088   7.649  10.505 -0.1409  0.2457  0.3294
  254MOL0     C34958   8.014   7.610  10.629  0.4308 -0.4013 -0.5895
  254MOL0    Cl34959   8.076   7.670  10.781  0.4608  0.4019 -0.1399
  254MOL0     C34960   8.783   7.852   9.905 -0.4097 -0.7265 -0.4134
  254MOL0     C34961   8.858   7.905   9.792  0.2476 -0.0252 -1.0611
  254MOL0     O34962   9.082   7.781   9.660 -0.4247  0.4064 -0.1888
  254MOL0     C34963   9.261   8.054   9.541  0.0262  0.9693 -0.3468
  254MOL0     C34964   9.351   8.107   9.444  0.5825  0.6143 -0.1021
  254MOL0     N34965   9.595   8.384   8.741 -0.6418  0.5365  1.0351
  254MOL0     N34966   9.517   8.397   8.638 -0.2019  1.1053  0.2952
  254MOL0     C34967   8.152   8.552   8.410  0.7656 -0.2613 -0.4676
  254MOL0     C34968   8.022   8.500   8.418  0.4994  0.2874 -0.2857
  254MOL0     C34969   7.742   8.146   8.380  0.1599 -1.0553 -0.4193
  254MOL0     C34970   7.703   8.112   8.249  0.3574 -0.2570 -0.6220
  254MOL0     C34971   7.571   8.068   8.216 -0.0325 -0.3953 -0.1084
  254MOL0     C34972   7.472   8.044   8.326 -0.0641 -0.8750  0.6538
  254MOL0     O34973   7.335   8.001   8.317  0.1267  0.6486 -0.3085
  254MOL0     C34974   7.284   7.980   8.181  0.3976 -0.4597 -1.2091
  254MOL0     C34975   7.249   8.109   8.112 -0.3700 -0.0985  0.7721
  254MOL0     C34976   7.131   8.180   8.190  0.3943 -0.3675  0.3476
  254MOL0     C34977   7.106   8.325   8.155 -0.4543 -0.1884  0.8084
  254MOL0     C34978   7.050   8.339   8.022 -0.0800 -0.0520  0.4671
  254MOL0     C34979   7.004   8.348   7.909  0.4583 -0.0687  0.0522
  254MOL0     C34980   7.515   8.076   8.458 -0.1249  0.7129  0.4069
  254MOL0     C34981   7.647   8.123   8.487  0.2835  0.0612 -0.5902
  254MOL0     C34982   7.668   8.166   8.631 -0.1260 -0.2035  1.4975
  254MOL0     H34983   8.080   8.252   8.646 -0.2368 -2.4322 -3.3855
  254MOL0     H34984   8.308   8.347   8.638 -0.6111 -1.2549 -0.6367
  254MOL0     H34985   8.507   8.430   8.526 -2.7538  0.4070 -1.0946
  254MOL0     H34986   8.470   8.540   8.659  0.2335 -0.7307  0.8873
  254MOL0     H34987   8.598   8.618   8.401 -1.3892  0.3928  0.0182
  254MOL0     H34988   8.584   8.719   8.545  1.4112  0.7665 -1.6187
  254MOL0     H34989   8.740   8.560   8.676 -1.6625  1.7487 -0.1607
  254MOL0     H34990   8.755   8.466   8.527  1.1385  0.0326 -0.0417
  254MOL0     H34991   8.875   8.652   8.409  1.1026  1.4560  0.6540
  254MOL0     H34992   8.855   8.745   8.563  1.0610 -1.0495  2.3833
  254MOL0     H34993   8.985   8.476   8.500 -2.3106  0.2547  0.6009
  254MOL0     H34994   8.979   8.542   8.658 -1.5021 -1.3358 -0.4620
  254MOL0     H34995   9.143   8.639   8.427 -0.6675 -0.0505  0.0315
  254MOL0     H34996   9.101   8.765   8.548  1.2961  0.6822 -1.5840
  254MOL0     H34997   9.212   8.643   8.720  1.9150  0.2794  0.7310
  254MOL0     H34998   9.328   8.686   8.600 -0.9366 -0.3209 -0.2887
  254MOL0     H34999   9.207   8.409   8.619 -0.6853 -0.7807 -0.5968
  254MOL0     H35000   9.329   8.459   8.500  1.6149 -0.2060  0.9077
  254MOL0     H35001   9.331   8.542   8.873  0.2894  2.0195 -2.7330
  254MOL0     H35002   9.524   8.485   9.065  1.5641 -2.0114  2.3933
  254MOL0     H35003   9.683   8.448   9.008  1.0877 -0.8963 -2.5071
  254MOL0     H35004   9.456   8.236   9.025  0.3132 -0.7914 -0.4676
  254MOL0     H35005   9.624   8.219   8.982 -1.0170 -0.2262  1.0538
  254MOL0     H35006   9.665   8.297   9.237 -0.5807 -0.0290  1.1573
  254MOL0     H35007   9.489   8.321   9.241 -0.8220 -0.7904 -0.5886
  254MOL0     H35008   9.646   8.066   9.189  0.1119  0.2291 -0.2408
  254MOL0     H35009   9.587   8.123   9.350 -2.7204  4.3921  1.3863
  254MOL0     H35010   9.324   7.860   9.210  0.5548  0.1265 -0.8489
  254MOL0     H35011   9.186   7.677   9.270  0.8666  0.5989 -0.6670
  254MOL0     H35012   9.044   7.736   9.353  0.2213 -2.0917 -0.1997
  254MOL0     H35013   9.164   7.650   9.447 -1.0258 -2.7029 -2.0347
  254MOL0     H35014   9.119   8.010   9.967 -0.3648  2.1025 -1.1788
  254MOL0     H35015   8.998   7.950  10.150  1.3645  0.7092 -0.5838
  254MOL0     H35016   8.623   7.980  10.155 -0.7917  0.3771 -1.4624
  254MOL0     H35017   8.556   7.838  10.061  0.5803  0.1249 -1.2454
  254MOL0     H35018   8.612   7.859  10.355 -1.3761 -0.4165  1.6494
  254MOL0     H35019   8.457   7.883  10.278 -2.9007 -2.9444 -0.8195
  254MOL0     H35020   8.623   7.630  10.268 -0.3808 -0.9688 -0.1147
  254MOL0     H35021   8.462   7.651  10.199  1.2593 -0.1804 -0.8589
  254MOL0     H35022   8.504   7.683  10.498 -2.2551  1.2189  0.2868
  254MOL0     H35023   8.487   7.527  10.418  2.8410  0.4919 -0.5452
  254MOL0     H35024   8.293   7.759  10.377  1.0624 -0.1404 -3.3651
  254MOL0     H35025   8.262   7.592  10.320 -0.4258 -1.4960  0.1345
  254MOL0     H35026   8.269   7.686  10.601 -0.7769  0.0407  0.2928
  254MOL0     H35027   8.258   7.517  10.563  0.9213  1.5593  2.7619
  254MOL0     H35028   8.055   7.600  10.412  0.1646 -0.8295  0.7739
  254MOL0     H35029   8.079   7.757  10.489 -3.2399 -0.0879 -0.8978
  254MOL0     H35030   8.001   7.501  10.628 -0.5155 -0.3032 -1.4710
  254MOL0     H35031   7.918   7.663  10.621  0.2662 -0.7137 -0.7208
  254MOL0     H35032   8.693   7.793   9.894 -1.6493  0.8948  0.7145
  254MOL0     H35033   8.821   7.890   9.691 -0.3991 -0.6682 -0.7389
  254MOL0     H35034   9.246   8.104   9.636 -0.1896  1.0001 -0.3973
  254MOL0     H35035   9.411   8.197   9.443  2.1845 -0.4081  0.3919
  254MOL0     H35036   8.171   8.634   8.341 -0.4194  0.0887 -0.4070
  254MOL0     H35037   7.944   8.536   8.352  1.4304  1.8716 -0.5542
  254MOL0     H35038   7.768   8.133   8.165  2.3546  1.5377  1.2549
  254MOL0     H35039   7.537   8.055   8.114 -1.8013  2.4137  0.0143
  254MOL0     H35040   7.339   7.908   8.120 -3.7357 -4.9517 -0.2917
  254MOL0     H35041   7.192   7.923   8.196 -1.3902  2.9072  2.4899
  254MOL0     H35042   7.223   8.079   8.010 -0.7673  0.4302  0.7150
  254MOL0     H35043   7.336   8.175   8.111 -0.8623  0.5716  1.3458
  254MOL0     H35044   7.043   8.117   8.171 -0.7065  1.3381 -0.4980
  254MOL0     H35045   7.147   8.177   8.298 -0.9992  3.2340  0.7983
  254MOL0     H35046   7.200   8.380   8.162 -0.9562  0.6203  1.4736
  254MOL0     H35047   7.047   8.384   8.227  1.3286  3.7963 -0.6792
  254MOL0     H35048   6.959   8.368   7.814 -1.5698 -0.5718  0.8591
  254MOL0     H35049   7.443   8.052   8.536  0.9984 -0.7482  1.0318
  254MOL0     H35050   7.591   8.119   8.693 -0.8793 -2.4876 -0.9874
  254MOL0     H35051   7.763   8.130   8.673 -0.0976  0.2392  1.8250
  254MOL0     H35052   7.674   8.275   8.637 -2.0512  0.0597 -0.2430
  255MOL0     O35053   8.835   2.719   8.354  0.2440  0.6755  0.7332
  255MOL0     C35054   8.852   2.709   8.475  0.7412  0.2445  0.2116
  255MOL0     O35055   8.975   2.710   8.535  0.0241 -0.4674  0.1801
  255MOL0     C35056   9.088   2.674   8.462 -0.3254 -1.0103  0.1783
  255MOL0     C35057   9.203   2.755   8.471  1.0236 -0.1704 -0.4437
  255MOL0     C35058   9.327   2.722   8.415 -0.0615 -0.1286  0.3617
  255MOL0     C35059   9.342   2.598   8.346  0.0795  0.1955  0.7011
  255MOL0     O35060   9.464   2.581   8.279  0.5166 -0.3120 -0.6280
  255MOL0     C35061   9.482   2.456   8.219  0.1487  0.4769  0.5172
  255MOL0     C35062   9.620   2.435   8.154 -0.3278 -0.5730 -0.5618
  255MOL0     C35063   9.726   2.409   8.268 -0.2777  0.6746  0.2448
  255MOL0     C35064   9.863   2.404   8.207 -0.1577  0.0796 -0.0224
  255MOL0     C35065   9.969   2.336   8.298 -0.1154  0.7476  0.0331
  255MOL0     C35066  10.111   2.330   8.229  0.8257 -0.8899  0.7222
  255MOL0     C35067  10.221   2.278   8.332 -0.6262  0.1777  0.5148
  255MOL0     C35068  10.335   2.216   8.254 -0.4343  0.3825  0.7739
  255MOL0     N35069  10.406   2.316   8.174  0.1088 -0.2461 -0.8191
  255MOL0     C35070  10.431   2.317   8.032  0.3338  0.6879  0.3444
  255MOL0     C35071  10.520   2.412   8.012  0.8899  0.3137 -0.0443
  255MOL0     C35072  10.582   2.470   7.889 -0.6326 -0.1888 -0.0579
  255MOL0     C35073  10.687   2.384   7.819  0.7901 -0.2052  0.3507
  255MOL0     C35074  10.747   2.473   7.709 -0.1985 -1.1487 -0.6310
  255MOL0     C35075  10.851   2.412   7.619 -0.5736 -0.3967 -0.4955
  255MOL0     O35076  10.898   2.517   7.525 -0.0965  0.1869 -0.2977
  255MOL0     C35077  11.020   2.480   7.477  0.9729  0.2166  0.0028
  255MOL0     C35078  11.129   2.556   7.503  0.2465 -0.9511  0.6214
  255MOL0     C35079  11.248   2.514   7.451  0.9845  0.1996 -0.4577
  255MOL0     C35080  11.377   2.581   7.503  0.3565 -0.7704  0.6120
  255MOL0     C35081  11.262   2.392   7.371 -0.6393  0.0489 -0.1171
  255MOL0     C35082  11.392   2.333   7.328 -0.1004 -0.4398  0.1389
  255MOL0     O35083  11.400   2.202   7.360 -0.8249  0.1846  0.2349
  255MOL0     C35084  11.498   2.118   7.320  0.6809  0.8063  0.5652
  255MOL0     C35085  11.549   2.025   7.407 -0.2664 -0.2342  0.0310
  255MOL0     C35086  11.650   1.940   7.362 -0.4595 -0.6069  0.3820
  255MOL0     C35087  11.693   1.943   7.229  0.1012  0.3161 -0.4461
  255MOL0     O35088  11.810   1.881   7.191  0.0689 -0.5381 -0.0284
  255MOL0     C35089  11.825   1.746   7.232  0.6682  0.5226  0.4889
  255MOL0     C35090  11.965   1.695   7.199  0.1619 -0.3315 -0.0194
  255MOL0     C35091  12.041   1.680   7.335 -0.1043 -0.0856 -0.9909
  255MOL0     C35092  12.187   1.630   7.323  0.4029 -0.0886 -0.5050
  255MOL0     C35093  12.251   1.635   7.469 -0.3774  0.7228  0.7130
  255MOL0     C35094  12.401   1.604   7.465  0.2759  0.3783  0.2362
  255MOL0     C35095  12.452   1.616   7.614  0.1362 -0.1768  0.0430
  255MOL0     C35096  12.596   1.553   7.623 -0.9783 -0.0264  0.2242
  255MOL0    Cl35097  12.636   1.517   7.799  0.3014  0.0484  0.5983
  255MOL0     C35098  11.617   2.020   7.131  0.3039 -0.7306  0.6085
  255MOL0     C35099  11.523   2.113   7.181  0.2715  0.7250 -0.7983
  255MOL0     O35100  11.488   2.403   7.290  0.5893 -0.1476  0.1604
  255MOL0     C35101  11.145   2.327   7.346  0.8142 -0.3383  0.0308
  255MOL0     C35102  11.022   2.368   7.396 -0.6070  0.0759 -0.3989
  255MOL0     N35103  10.563   2.463   8.134  0.8130 -0.2120 -0.0354
  255MOL0     N35104  10.492   2.405   8.229 -0.0324 -0.4061  0.1269
  255MOL0     C35105   9.223   2.516   8.342 -0.8175 -0.8071 -0.5301
  255MOL0     C35106   9.101   2.554   8.409  0.3232  1.2658 -0.2613
  255MOL0     C35107   8.732   2.711   8.575  0.3377  0.5627 -0.8852
  255MOL0     C35108   8.759   2.652   8.701 -0.1888 -0.6211 -0.0260
  255MOL0     C35109   8.655   2.613   8.793 -0.8355  0.4343 -0.0657
  255MOL0     C35110   8.527   2.653   8.773 -0.0989 -0.0273  0.0345
  255MOL0     O35111   8.421   2.633   8.858  0.3214  0.5033 -0.8399
  255MOL0     C35112   8.451   2.626   8.999  0.0994 -0.0979 -1.1459
  255MOL0     C35113   8.322   2.651   9.082  0.0991  0.1619  0.0088
  255MOL0     C35114   8.216   2.537   9.089 -0.5496  0.6704  0.1786
  255MOL0     C35115   8.151   2.501   8.950  0.1222  0.8367  0.3869
  255MOL0     C35116   8.052   2.399   8.970  0.1759 -0.0307 -0.4484
  255MOL0     C35117   7.970   2.305   8.996  0.2677 -0.4886 -0.0778
  255MOL0     C35118   8.504   2.718   8.655 -0.4364 -0.2682  0.1623
  255MOL0     C35119   8.595   2.743   8.557 -0.0038  0.4939  0.2148
  255MOL0     C35120   8.548   2.809   8.429 -0.8119 -0.3009  0.6458
  255MOL0     H35121   9.201   2.842   8.536  2.7730 -0.2228 -0.2656
  255MOL0     H35122   9.412   2.781   8.449 -0.8601  0.2733  1.7061
  255MOL0     H35123   9.412   2.451   8.135  0.0047  1.7949  0.5364
  255MOL0     H35124   9.464   2.370   8.284 -1.7267  0.1536 -0.3443
  255MOL0     H35125   9.621   2.345   8.092  0.0687 -0.1939 -1.1058
  255MOL0     H35126   9.650   2.525   8.100 -0.2108 -0.9124 -1.0620
  255MOL0     H35127   9.723   2.488   8.343 -2.7465 -0.1936  1.1605
  255MOL0     H35128   9.702   2.312   8.313  1.7722  0.0938  0.1917
  255MOL0     H35129   9.852   2.344   8.117  0.1131 -1.5256  0.9772
  255MOL0     H35130   9.892   2.506   8.180  2.2573 -0.2318  1.0911
  255MOL0     H35131   9.932   2.235   8.319  2.5593 -0.5465 -1.0415
  255MOL0     H35132   9.977   2.400   8.387 -0.1674  1.0348 -0.1652
  255MOL0     H35133  10.096   2.274   8.137 -1.1262  2.6699 -1.3535
  255MOL0     H35134  10.149   2.426   8.191 -0.2631  0.1806  2.2016
  255MOL0     H35135  10.169   2.198   8.387 -0.9593 -1.3026 -1.8043
  255MOL0     H35136  10.244   2.361   8.399 -0.9210  0.0655  0.7635
  255MOL0     H35137  10.412   2.173   8.319 -0.2344 -0.1205  0.2151
  255MOL0     H35138  10.284   2.143   8.191 -2.3715  2.6413 -0.4316
  255MOL0     H35139  10.397   2.255   7.949 -1.7765  1.8436  0.2791
  255MOL0     H35140  10.625   2.566   7.919 -0.2296  0.5094 -2.6004
  255MOL0     H35141  10.497   2.484   7.821  0.7212  0.9810 -1.6013
  255MOL0     H35142  10.774   2.352   7.878  0.2319 -0.0156  1.2795
  255MOL0     H35143  10.632   2.294   7.789 -0.6231  0.7348  0.0708
  255MOL0     H35144  10.665   2.504   7.643  1.0242 -0.8185 -2.0579
  255MOL0     H35145  10.792   2.561   7.756  1.7021 -1.8686 -1.0342
  255MOL0     H35146  10.920   2.362   7.688 -1.5337  0.7419  1.4080
  255MOL0     H35147  10.800   2.333   7.564 -0.6578 -0.1116 -0.8339
  255MOL0     H35148  11.111   2.643   7.566 -0.0619  0.5623 -1.4638
  255MOL0     H35149  11.355   2.668   7.564  0.1906  0.8974 -1.6890
  255MOL0     H35150  11.434   2.623   7.420 -0.9134  0.2092  0.2020
  255MOL0     H35151  11.430   2.500   7.555 -1.6216 -0.6577  2.9696
  255MOL0     H35152  11.519   2.030   7.511 -0.6068  1.9839 -0.1340
  255MOL0     H35153  11.698   1.876   7.435  1.6211 -0.4856 -0.8115
  255MOL0     H35154  11.796   1.737   7.338  1.2738  1.3660  0.7372
  255MOL0     H35155  11.756   1.676   7.185  3.1460 -2.1065  0.4883
  255MOL0     H35156  11.967   1.603   7.139  0.3814 -0.6621  0.4923
  255MOL0     H35157  12.018   1.776   7.148 -0.0060 -0.8715 -1.0867
  255MOL0     H35158  11.984   1.608   7.395 -0.2088  1.2356  0.5623
  255MOL0     H35159  12.034   1.773   7.391 -0.6996 -1.7588  1.8991
  255MOL0     H35160  12.235   1.703   7.257  1.1086  1.8173  1.9488
  255MOL0     H35161  12.191   1.527   7.287 -1.2625 -0.9131  1.4669
  255MOL0     H35162  12.243   1.734   7.516  0.2202  1.1338 -0.0342
  255MOL0     H35163  12.203   1.561   7.534  0.4487 -0.5754 -0.1242
  255MOL0     H35164  12.459   1.667   7.397 -0.4672  0.0560 -0.7222
  255MOL0     H35165  12.403   1.499   7.436  0.2456  0.8877 -1.7227
  255MOL0     H35166  12.398   1.555   7.687 -0.8954  1.4495  0.6900
  255MOL0     H35167  12.446   1.723   7.637  3.5539  1.1980 -4.0899
  255MOL0     H35168  12.672   1.617   7.576  0.1366 -0.8856  0.8207
  255MOL0     H35169  12.591   1.465   7.559 -0.9122 -0.2042  0.4646
  255MOL0     H35170  11.622   2.031   7.023  2.7564  1.1274  0.8310
  255MOL0     H35171  11.469   2.181   7.116  0.5774  0.3828 -1.4169
  255MOL0     H35172  11.142   2.230   7.298 -3.9024 -1.5876  2.1738
  255MOL0     H35173  10.933   2.309   7.380 -1.7094  1.5629 -0.0194
  255MOL0     H35174   9.219   2.432   8.273 -1.5702 -2.5337  1.5055
  255MOL0     H35175   9.024   2.478   8.401 -0.3711  2.1119 -5.2702
  255MOL0     H35176   8.858   2.637   8.742  1.2885 -1.9215 -3.6841
  255MOL0     H35177   8.684   2.567   8.887  0.3522  0.6530 -0.3097
  255MOL0     H35178   8.505   2.533   9.019  2.0868  0.2865 -4.0132
  255MOL0     H35179   8.518   2.709   9.025  0.4092 -0.2001 -1.6038
  255MOL0     H35180   8.276   2.746   9.054  0.0343  0.4486  1.0548
  255MOL0     H35181   8.345   2.651   9.189 -1.9443  0.0819  0.4903
  255MOL0     H35182   8.255   2.444   9.132  0.2036  0.6902 -0.4233
  255MOL0     H35183   8.137   2.572   9.156 -0.7036  0.2437  0.2254
  255MOL0     H35184   8.223   2.475   8.871  0.9776  5.4480 -0.6674
  255MOL0     H35185   8.104   2.593   8.913 -0.1236  0.7875  0.5717
  255MOL0     H35186   7.902   2.228   9.024 -0.6891  0.5784  0.6012
  255MOL0     H35187   8.399   2.743   8.647  0.0440  2.3528  1.0128
  255MOL0     H35188   8.542   2.724   8.359 -0.3483  0.8080 -0.7895
  255MOL0     H35189   8.449   2.855   8.441 -0.4546  0.5084  0.5382
  255MOL0     H35190   8.613   2.888   8.391  0.1028 -2.0004 -1.5454
  256MOL0     O35191   0.685   3.738   2.246  0.1407  0.0609  0.0728
  256MOL0     C35192   0.657   3.791   2.352  0.2635 -0.5631  0.0695
  256MOL0     O35193   0.729   3.892   2.405  0.1221 -0.0854 -0.5196
  256MOL0     C35194   0.807   3.977   2.330  0.3012 -0.5286 -0.0729
  256MOL0     C35195   0.905   4.051   2.397 -0.3972 -0.1502 -0.5698
  256MOL0     C35196   0.998   4.137   2.332  0.0475  0.7815 -0.2474
  256MOL0     C35197   0.978   4.161   2.196  0.0925  0.0287  0.0946
  256MOL0     O35198   1.059   4.255   2.131 -0.2145  0.5249 -0.0082
  256MOL0     C35199   1.174   4.202   2.059  0.5528  0.7149  0.3857
  256MOL0     C35200   1.287   4.178   2.160  0.3603  0.7478 -0.6931
  256MOL0     C35201   1.315   4.289   2.261 -0.8918 -0.0985  0.0781
  256MOL0     C35202   1.369   4.421   2.198 -0.3894 -0.1795  0.1274
  256MOL0     C35203   1.441   4.521   2.297  0.7237  0.2140  0.2174
  256MOL0     C35204   1.579   4.476   2.338 -0.6672 -0.4447  0.1799
  256MOL0     C35205   1.668   4.441   2.220 -0.4891  0.2971  0.7849
  256MOL0     C35206   1.669   4.534   2.099 -0.7110  0.1224 -0.0690
  256MOL0     N35207   1.726   4.670   2.126 -0.3552  0.0239 -0.0516
  256MOL0     C35208   1.856   4.708   2.116 -0.1881  0.0038  0.2086
  256MOL0     C35209   1.850   4.837   2.094 -0.1335 -0.5971  0.3566
  256MOL0     C35210   1.972   4.921   2.053 -0.2803 -0.5957  0.2018
  256MOL0     C35211   2.025   4.885   1.923  0.5985  0.4497  0.1749
  256MOL0     C35212   2.165   4.951   1.902 -1.0419  0.2954  0.3731
  256MOL0     C35213   2.172   5.102   1.862 -0.4300  0.2956  0.1126
  256MOL0     O35214   2.221   5.173   1.978  0.4120 -0.5771 -0.8242
  256MOL0     C35215   2.347   5.236   1.962 -0.7029 -0.1718  0.8039
  256MOL0     C35216   2.414   5.267   1.845 -0.5286 -0.4687  0.4623
  256MOL0     C35217   2.537   5.332   1.843  0.1111  0.0085  0.4986
  256MOL0     C35218   2.600   5.344   1.704 -0.1029 -0.6712  0.7239
  256MOL0     C35219   2.601   5.376   1.961 -0.4126  0.2368 -0.0202
  256MOL0     C35220   2.744   5.428   1.963 -0.2808  0.6468  0.4487
  256MOL0     O35221   2.801   5.438   2.088 -0.3716 -0.1709  0.0243
  256MOL0     C35222   2.936   5.477   2.083  0.1530  0.7081  0.1070
  256MOL0     C35223   2.983   5.591   2.142  0.1670 -0.3464  1.0221
  256MOL0     C35224   3.120   5.630   2.142  0.6745  0.0283  0.4442
  256MOL0     C35225   3.216   5.548   2.089  0.4635 -0.8406 -0.3490
  256MOL0     O35226   3.339   5.594   2.102 -0.6161  0.3542  0.2544
  256MOL0     C35227   3.399   5.640   1.986  0.3537 -0.7849  0.3479
  256MOL0     C35228   3.546   5.641   2.002 -0.1013  0.5576 -0.2626
  256MOL0     C35229   3.621   5.662   1.872  0.2125 -0.0034  0.5059
  256MOL0     C35230   3.770   5.691   1.893  0.0716 -0.4411 -0.0705
  256MOL0     C35231   3.834   5.724   1.754 -0.6514 -0.1757 -0.1820
  256MOL0     C35232   3.982   5.734   1.774 -0.2416 -0.1822  0.4449
  256MOL0     C35233   4.056   5.765   1.646  0.4558  0.4125  0.6660
  256MOL0     C35234   4.186   5.849   1.650  0.6512  0.1359 -0.7820
  256MOL0    Cl35235   4.229   5.906   1.485  0.3227 -0.1715  0.6610
  256MOL0     C35236   3.173   5.425   2.038  0.0515 -0.3491  0.8324
  256MOL0     C35237   3.036   5.388   2.038  0.3422 -0.0750 -0.6383
  256MOL0     O35238   2.806   5.432   1.861  0.2276 -0.0562  0.3623
  256MOL0     C35239   2.530   5.336   2.080  0.2607  0.0349  0.6692
  256MOL0     C35240   2.408   5.273   2.082 -0.3073  0.7687 -0.2061
  256MOL0     N35241   1.720   4.886   2.107 -0.1560  0.5626  0.0721
  256MOL0     N35242   1.648   4.781   2.127 -0.0450  0.5796 -0.3137
  256MOL0     C35243   0.872   4.101   2.132 -0.7662 -0.1023 -0.3559
  256MOL0     C35244   0.793   4.006   2.193 -0.2056  0.0501 -0.4151
  256MOL0     C35245   0.554   3.727   2.438 -0.0072 -0.0600  0.0548
  256MOL0     C35246   0.467   3.808   2.509  0.2240 -0.2007  1.0754
  256MOL0     C35247   0.354   3.755   2.581 -0.2081 -0.2089  0.3599
  256MOL0     C35248   0.327   3.619   2.596 -0.8708  0.3167 -0.0738
  256MOL0     O35249   0.214   3.579   2.672 -0.0582  0.4428  0.4008
  256MOL0     C35250   0.104   3.656   2.703  0.3148 -0.4268 -0.4799
  256MOL0     C35251  -0.016   3.581   2.758  1.4816 -0.3229 -0.5234
  256MOL0     C35252  -0.032   3.439   2.680 -1.1625 -0.8179 -0.2721
  256MOL0     C35253  -0.035   3.466   2.528  0.9532 -0.3068  0.0097
  256MOL0     C35254  -0.147   3.557   2.487 -0.0699  0.3706 -1.2345
  256MOL0     C35255  -0.235   3.634   2.444 -0.5765  0.7607 -0.4232
  256MOL0     C35256   0.424   3.535   2.529 -0.4646  0.5510 -0.3268
  256MOL0     C35257   0.531   3.589   2.444  0.9057  0.6697 -0.5664
  256MOL0     C35258   0.628   3.484   2.396 -0.3715 -0.0465 -0.4053
  256MOL0     H35259   0.903   4.049   2.505 -1.7108  0.3761 -0.5594
  256MOL0     H35260   1.074   4.176   2.399  0.7441 -0.6414 -0.1837
  256MOL0     H35261   1.214   4.266   1.980 -0.9807 -0.0898 -1.1159
  256MOL0     H35262   1.143   4.112   2.006 -0.0531  1.0612  0.1407
  256MOL0     H35263   1.258   4.083   2.206  2.4454  1.1061  1.5428
  256MOL0     H35264   1.374   4.155   2.097 -0.1291 -2.6375 -0.3592
  256MOL0     H35265   1.223   4.310   2.317 -1.4113  0.5946 -1.0038
  256MOL0     H35266   1.388   4.237   2.324 -0.8438 -1.9171 -1.4034
  256MOL0     H35267   1.413   4.402   2.100  0.7669  0.4148  0.5026
  256MOL0     H35268   1.274   4.466   2.169 -0.2662  0.1297  0.1930
  256MOL0     H35269   1.379   4.535   2.386  0.5544  0.1930  0.1033
  256MOL0     H35270   1.433   4.621   2.253 -3.0083  0.0852  0.2769
  256MOL0     H35271   1.626   4.563   2.385  1.2661  0.5575 -3.2289
  256MOL0     H35272   1.568   4.395   2.410  2.0258 -1.1315 -0.0917
  256MOL0     H35273   1.635   4.344   2.182  2.3384 -0.2098 -0.6879
  256MOL0     H35274   1.770   4.428   2.257 -0.0992  2.1735  0.4667
  256MOL0     H35275   1.733   4.483   2.026  1.7148  0.6436  1.5679
  256MOL0     H35276   1.567   4.542   2.062 -1.9476 -0.7788  2.8241
  256MOL0     H35277   1.948   4.651   2.108  0.1538 -0.3096  4.4333
  256MOL0     H35278   2.046   4.895   2.129 -0.4460 -1.4765  0.0777
  256MOL0     H35279   1.935   5.024   2.058 -0.5569 -0.7612  3.2493
  256MOL0     H35280   2.028   4.776   1.928 -1.9602  0.2713 -0.7275
  256MOL0     H35281   1.951   4.920   1.850  2.4620  1.9915 -1.1086
  256MOL0     H35282   2.233   4.932   1.986  0.2089 -1.5606 -0.9607
  256MOL0     H35283   2.212   4.906   1.814 -0.0687  1.8472  0.0681
  256MOL0     H35284   2.221   5.116   1.765  1.4648  2.0514  1.2664
  256MOL0     H35285   2.072   5.146   1.846 -0.5914  0.4780  1.5241
  256MOL0     H35286   2.366   5.239   1.752 -1.3984 -0.6371  0.9498
  256MOL0     H35287   2.529   5.311   1.627 -0.7476  1.0989  0.5060
  256MOL0     H35288   2.698   5.297   1.699  2.0268  3.0921  2.5611
  256MOL0     H35289   2.609   5.451   1.680 -2.8552 -0.8419 -1.7171
  256MOL0     H35290   2.910   5.665   2.174  1.5505  1.4560  0.2123
  256MOL0     H35291   3.136   5.727   2.188  1.3352  0.1648 -0.0787
  256MOL0     H35292   3.392   5.572   1.900  0.7174  0.4023 -0.6638
  256MOL0     H35293   3.359   5.738   1.956  0.8238 -1.0538 -1.2652
  256MOL0     H35294   3.581   5.711   2.078  0.5154 -0.8242  0.7671
  256MOL0     H35295   3.583   5.541   2.029  1.0213  0.9256 -0.4139
  256MOL0     H35296   3.582   5.749   1.819  1.2071 -0.5757 -1.2499
  256MOL0     H35297   3.604   5.575   1.808  0.6567  0.5694 -0.4068
  256MOL0     H35298   3.815   5.598   1.928  1.1389 -0.8384 -2.3018
  256MOL0     H35299   3.784   5.771   1.966 -0.8803  1.1959 -1.5942
  256MOL0     H35300   3.806   5.652   1.677 -0.3474  0.8876 -1.3070
  256MOL0     H35301   3.809   5.819   1.707  0.5062 -0.5231 -1.5740
  256MOL0     H35302   4.012   5.637   1.816 -0.1549 -0.5311 -0.4085
  256MOL0     H35303   4.018   5.806   1.848 -2.7717  1.0450  0.5825
  256MOL0     H35304   3.993   5.825   1.579  1.1833 -0.9526 -1.3291
  256MOL0     H35305   4.079   5.669   1.600  1.9109  1.4108 -0.8061
  256MOL0     H35306   4.269   5.791   1.691  0.0262 -0.9526 -0.9960
  256MOL0     H35307   4.165   5.938   1.710  0.7647 -0.1829 -0.2676
  256MOL0     H35308   3.241   5.350   1.999 -1.7308 -0.1130 -3.2026
  256MOL0     H35309   3.003   5.289   2.006  2.0709 -1.5650  1.7507
  256MOL0     H35310   2.574   5.350   2.178  1.2752 -2.1469  0.5950
  256MOL0     H35311   2.359   5.233   2.171 -1.3868 -2.6244 -2.1316
  256MOL0     H35312   0.842   4.131   2.032 -0.9210  0.2544 -0.2027
  256MOL0     H35313   0.713   3.965   2.132 -0.7828 -1.3842  1.2390
  256MOL0     H35314   0.482   3.915   2.508 -1.9431  0.2164 -1.6931
  256MOL0     H35315   0.295   3.833   2.628 -1.3477 -0.7088 -0.2234
  256MOL0     H35316   0.125   3.731   2.780 -4.7828  2.0744 -1.0574
  256MOL0     H35317   0.074   3.705   2.610  0.5989 -0.6912 -0.7127
  256MOL0     H35318  -0.111   3.636   2.753  2.0259  1.3184  3.4178
  256MOL0     H35319  -0.007   3.564   2.865  0.9606 -1.0383 -0.5894
  256MOL0     H35320   0.054   3.375   2.701 -1.6520 -1.4761 -0.2514
  256MOL0     H35321  -0.118   3.385   2.720 -1.8071  1.0296  1.0111
  256MOL0     H35322  -0.039   3.371   2.473 -1.9680  0.4430 -1.2768
  256MOL0     H35323   0.063   3.503   2.498  1.1635  0.2345  1.3263
  256MOL0     H35324  -0.304   3.705   2.404 -0.5188 -0.0338 -2.0263
  256MOL0     H35325   0.409   3.427   2.527  1.2142  0.2991 -0.3985
  256MOL0     H35326   0.638   3.473   2.288  0.4091  0.6277 -0.4059
  256MOL0     H35327   0.727   3.514   2.432 -0.1268 -0.4117 -0.7626
  256MOL0     H35328   0.614   3.388   2.448  1.3918  1.7375  3.8542
  257MOL0     O35329  10.525   7.669   3.708  0.3369 -0.2364  0.1464
  257MOL0     C35330  10.450   7.755   3.660 -0.2115  0.1767 -1.0002
  257MOL0     O35331  10.433   7.773   3.533  0.5189 -0.4922  0.1841
  257MOL0     C35332  10.476   7.683   3.437 -0.9422  0.0881 -0.4833
  257MOL0     C35333  10.564   7.717   3.336 -0.6151  0.2462 -0.6378
  257MOL0     C35334  10.617   7.628   3.245 -0.1057 -0.7278 -0.9493
  257MOL0     C35335  10.582   7.493   3.261  0.8810 -0.6056 -0.3601
  257MOL0     O35336  10.633   7.397   3.175 -0.1233  0.2127 -0.2341
  257MOL0     C35337  10.699   7.282   3.231 -0.0408  0.1226  0.0739
  257MOL0     C35338  10.650   7.157   3.162 -1.0873  0.1206 -0.6554
  257MOL0     C35339  10.708   7.134   3.023  1.1587  0.2006  1.1443
  257MOL0     C35340  10.667   6.988   2.978 -0.3526 -0.0203 -0.6363
  257MOL0     C35341  10.750   6.951   2.854  0.3080  1.2799 -0.2771
  257MOL0     C35342  10.730   6.800   2.826  0.8377  0.3075  0.8494
  257MOL0     C35343  10.790   6.705   2.931 -0.5962 -0.0186  0.6151
  257MOL0     C35344  10.806   6.559   2.875  0.2911 -0.2372 -0.1597
  257MOL0     N35345  10.934   6.549   2.803  1.3258  0.1785 -0.4689
  257MOL0     C35346  10.964   6.602   2.679  0.1027 -0.2458  0.3087
  257MOL0     C35347  11.103   6.578   2.670  0.9117  0.0126 -0.1838
  257MOL0     C35348  11.193   6.638   2.576 -0.4681 -0.3093  0.1508
  257MOL0     C35349  11.167   6.608   2.437 -0.5906 -0.3392  0.3044
  257MOL0     C35350  11.195   6.462   2.402  0.5529 -0.0497 -0.4091
  257MOL0     C35351  11.190   6.437   2.259  0.8453  0.2659 -0.1534
  257MOL0     O35352  11.061   6.475   2.212 -0.2925  0.0591  0.2902
  257MOL0     C35353  10.951   6.385   2.222 -0.5840 -0.0584 -0.0390
  257MOL0     C35354  10.951   6.250   2.255  0.3829 -0.0469 -1.1017
  257MOL0     C35355  10.834   6.170   2.241  0.4626  0.3598 -0.4766
  257MOL0     C35356  10.840   6.028   2.270 -0.0146  0.6028  0.4487
  257MOL0     C35357  10.714   6.239   2.195 -0.6931  0.3861  0.1605
  257MOL0     C35358  10.589   6.167   2.190 -0.2575  0.1303  0.1780
  257MOL0     O35359  10.585   6.076   2.086 -0.0862  0.6008 -0.3410
  257MOL0     C35360  10.468   6.009   2.068  0.2350  0.6685  0.6142
  257MOL0     C35361  10.342   6.062   2.043  0.2408  0.4132 -0.2339
  257MOL0     C35362  10.228   5.979   2.033 -0.1074 -0.0769  0.0963
  257MOL0     C35363  10.244   5.849   2.024 -0.0185  0.8652 -1.2734
  257MOL0     O35364  10.136   5.765   1.997 -0.0364 -0.9323  0.4967
  257MOL0     C35365  10.117   5.738   1.857 -0.2929  0.4741 -0.0542
  257MOL0     C35366  10.030   5.612   1.862 -0.5755  0.5372  0.8602
  257MOL0     C35367   9.880   5.655   1.900  0.1773  0.4058  0.0173
  257MOL0     C35368   9.786   5.536   1.885  0.0768 -0.6120 -0.4871
  257MOL0     C35369   9.638   5.567   1.889 -0.0830  0.0130 -0.2870
  257MOL0     C35370   9.569   5.609   1.765  0.0054 -0.0292  0.1778
  257MOL0     C35371   9.414   5.632   1.789 -0.0531  0.3164 -0.8019
  257MOL0     C35372   9.353   5.489   1.798  1.5832 -0.3954  0.5259
  257MOL0    Cl35373   9.179   5.535   1.808  0.0750  0.4574  0.2162
  257MOL0     C35374  10.367   5.793   2.040  0.2291  0.4381  0.7776
  257MOL0     C35375  10.478   5.874   2.058 -0.2275 -0.0797  0.8082
  257MOL0     O35376  10.493   6.209   2.253  0.5165  0.4433 -0.6076
  257MOL0     C35377  10.721   6.379   2.176 -0.1088  0.0403 -0.0004
  257MOL0     C35378  10.835   6.447   2.186  0.3757  0.1700 -0.5164
  257MOL0     N35379  11.139   6.496   2.775  0.2834  0.1613 -1.1416
  257MOL0     N35380  11.046   6.497   2.861 -0.1325 -0.0120 -0.4009
  257MOL0     C35381  10.491   7.450   3.360  0.2209 -0.4171 -0.7837
  257MOL0     C35382  10.443   7.546   3.455 -0.6507 -0.1222 -0.0146
  257MOL0     C35383  10.381   7.843   3.757 -0.6469 -0.0056 -0.2183
  257MOL0     C35384  10.419   7.836   3.896 -0.4542 -0.2773  0.6907
  257MOL0     C35385  10.356   7.911   4.000 -0.1186  0.8167  0.3715
  257MOL0     C35386  10.264   8.006   3.960  0.1600  0.0453 -0.2730
  257MOL0     O35387  10.217   8.080   4.066 -0.5759 -0.3124 -0.3291
  257MOL0     C35388  10.087   8.140   4.067 -0.8938 -0.5060 -0.6103
  257MOL0     C35389   9.985   8.032   4.072  0.7561  0.2028 -0.2072
  257MOL0     C35390   9.995   7.947   4.204  0.1538 -0.8308 -0.1362
  257MOL0     C35391   9.952   8.013   4.328  0.3125  0.3388 -1.2524
  257MOL0     C35392   9.808   7.988   4.364  0.6865 -0.4647  0.2902
  257MOL0     C35393   9.693   7.963   4.395  0.4708 -0.0376  0.3515
  257MOL0     C35394  10.229   8.023   3.826  0.0283 -0.1907 -0.3490
  257MOL0     C35395  10.277   7.930   3.723  0.2572 -0.9681  0.0751
  257MOL0     C35396  10.194   7.939   3.595 -0.4922  0.3502  0.1812
  257MOL0     H35397  10.594   7.821   3.324 -0.3003  0.2927  0.4247
  257MOL0     H35398  10.688   7.661   3.170  1.6179  3.8862  2.2947
  257MOL0     H35399  10.683   7.274   3.339 -1.8078 -0.2856 -0.1967
  257MOL0     H35400  10.805   7.296   3.207 -0.8008 -1.0989 -5.2144
  257MOL0     H35401  10.686   7.079   3.230  0.3804  1.9889  0.8328
  257MOL0     H35402  10.541   7.149   3.159 -1.0549 -0.3248 -0.8357
  257MOL0     H35403  10.675   7.209   2.950  0.6435 -0.1904  0.9721
  257MOL0     H35404  10.817   7.137   3.027  1.3542 -0.9425 -1.5441
  257MOL0     H35405  10.690   6.919   3.059 -1.3056 -0.9938 -1.1682
  257MOL0     H35406  10.562   6.969   2.955 -0.4768  0.8313 -0.7954
  257MOL0     H35407  10.854   6.960   2.888  1.0291 -2.2072 -1.2455
  257MOL0     H35408  10.733   7.021   2.772 -1.9748  0.9149 -0.1841
  257MOL0     H35409  10.624   6.774   2.812  0.3868  2.4772 -0.2145
  257MOL0     H35410  10.777   6.793   2.728  0.7724  2.4217  0.6230
  257MOL0     H35411  10.721   6.701   3.015 -0.3563 -0.5055  0.7906
  257MOL0     H35412  10.888   6.736   2.968 -1.1515  2.3314  0.2879
  257MOL0     H35413  10.811   6.482   2.953  2.1321  0.0576  0.0498
  257MOL0     H35414  10.720   6.537   2.812 -0.1615  0.2967  0.2539
  257MOL0     H35415  10.905   6.659   2.608  1.2850  1.5283  0.6609
  257MOL0     H35416  11.294   6.607   2.603  0.0978  0.0556 -1.4419
  257MOL0     H35417  11.181   6.744   2.599  1.5172  0.2952 -1.2804
  257MOL0     H35418  11.064   6.636   2.412  0.4111  3.0756 -0.6350
  257MOL0     H35419  11.233   6.675   2.381 -0.5092 -1.7289 -1.3363
  257MOL0     H35420  11.293   6.430   2.438 -0.0041 -1.9138 -0.4769
  257MOL0     H35421  11.121   6.402   2.455 -0.9432  3.0122  1.2230
  257MOL0     H35422  11.264   6.485   2.195 -1.2572  3.3640 -0.4987
  257MOL0     H35423  11.200   6.330   2.239 -3.4563 -0.2011 -0.7506
  257MOL0     H35424  11.040   6.202   2.294 -0.2720 -0.3971  0.0238
  257MOL0     H35425  10.776   6.010   2.357 -0.8497 -2.8366 -0.7350
  257MOL0     H35426  10.936   5.992   2.308 -1.4678 -0.0312  3.9126
  257MOL0     H35427  10.808   5.960   2.190  2.6150 -1.3105  0.8838
  257MOL0     H35428  10.335   6.170   2.034 -0.1026  0.5875  1.6892
  257MOL0     H35429  10.131   6.026   2.024  0.5018  1.3758  0.8385
  257MOL0     H35430  10.065   5.821   1.808 -1.1102  0.5216  0.8674
  257MOL0     H35431  10.208   5.709   1.804  0.2316 -0.3819  1.2435
  257MOL0     H35432  10.028   5.558   1.766 -0.5448 -2.5091  2.4428
  257MOL0     H35433  10.061   5.536   1.934  0.3080  0.5727  0.5312
  257MOL0     H35434   9.848   5.731   1.829 -0.2149 -1.1833 -1.5840
  257MOL0     H35435   9.875   5.705   1.997  2.5130  1.4843 -0.3532
  257MOL0     H35436   9.806   5.471   1.971  0.5296 -0.8685 -0.7862
  257MOL0     H35437   9.809   5.481   1.794 -1.7251 -2.1965 -0.0583
  257MOL0     H35438   9.603   5.464   1.903  2.7080 -0.8223  1.3250
  257MOL0     H35439   9.606   5.626   1.976  0.8284  0.3296 -0.1614
  257MOL0     H35440   9.586   5.523   1.700  0.4416 -0.0802  0.3610
  257MOL0     H35441   9.612   5.691   1.708 -1.9356  0.4436 -0.7148
  257MOL0     H35442   9.368   5.682   1.703  2.2970  1.2791 -1.5744
  257MOL0     H35443   9.404   5.688   1.883  2.9992 -1.3082  0.6498
  257MOL0     H35444   9.375   5.445   1.896 -1.8456 -3.0950  0.2844
  257MOL0     H35445   9.383   5.430   1.711  2.2999  1.1960 -0.3595
  257MOL0     H35446  10.373   5.686   2.025 -0.9707  0.3067  1.1806
  257MOL0     H35447  10.573   5.824   2.065 -0.4187 -0.4959  0.5227
  257MOL0     H35448  10.631   6.436   2.155  0.8807  1.6889  0.1065
  257MOL0     H35449  10.836   6.552   2.160  0.6633  0.4818  0.7148
  257MOL0     H35450  10.462   7.346   3.356  3.1342 -1.3254 -4.4461
  257MOL0     H35451  10.391   7.507   3.543  2.8922 -2.2440  1.3531
  257MOL0     H35452  10.495   7.764   3.926 -0.3995  0.0229  1.2793
  257MOL0     H35453  10.389   7.901   4.103  1.1406  4.1447  0.3969
  257MOL0     H35454  10.090   8.212   4.149  1.9487  1.2795 -2.1323
  257MOL0     H35455  10.067   8.208   3.983 -0.2915  0.2234 -0.1696
  257MOL0     H35456   9.995   7.965   3.986 -0.6973 -0.0542 -0.2042
  257MOL0     H35457   9.885   8.074   4.060 -0.1697 -1.9116 -0.3879
  257MOL0     H35458   9.935   7.856   4.193 -2.7605  1.0671 -1.3369
  257MOL0     H35459  10.097   7.912   4.193 -0.8246 -3.2866 -2.4497
  257MOL0     H35460   9.961   8.122   4.337 -0.1855  0.2766  0.4741
  257MOL0     H35461  10.021   7.972   4.402 -0.6195 -1.6252 -1.4017
  257MOL0     H35462   9.587   7.953   4.413  0.6896 -3.4004  0.4372
  257MOL0     H35463  10.152   8.095   3.799  0.0993 -0.1767 -0.5203
  257MOL0     H35464  10.118   8.016   3.606 -0.7554  0.6869 -2.9670
  257MOL0     H35465  10.256   7.957   3.506  2.5003 -3.4213  1.2108
  257MOL0     H35466  10.145   7.841   3.589 -1.6990  0.8732  1.2244
  258MOL0     O35467   3.665   1.795   9.704 -0.6758  0.4310  0.2482
  258MOL0     C35468   3.626   1.813   9.590 -0.4418  0.3010 -0.1492
  258MOL0     O35469   3.704   1.806   9.484  0.2464 -0.2672 -0.0684
  258MOL0     C35470   3.839   1.783   9.486 -0.3764 -0.5438  0.4018
  258MOL0     C35471   3.922   1.874   9.551 -0.4222  0.0281 -0.1980
  258MOL0     C35472   4.063   1.847   9.551  0.5243  0.2939  0.2377
  258MOL0     C35473   4.117   1.736   9.481 -1.2706  0.2694 -0.1419
  258MOL0     O35474   4.251   1.710   9.481 -0.4579 -0.2512 -0.3631
  258MOL0     C35475   4.314   1.602   9.402 -0.6733  0.0716 -0.4357
  258MOL0     C35476   4.467   1.601   9.388 -0.5749 -0.9510  0.6093
  258MOL0     C35477   4.528   1.743   9.346  0.3297  0.8771 -0.3533
  258MOL0     C35478   4.680   1.726   9.321 -0.2914  0.0751  0.1532
  258MOL0     C35479   4.746   1.862   9.325  0.5508 -0.3026 -0.2414
  258MOL0     C35480   4.895   1.871   9.284 -0.3457  0.4392  0.2228
  258MOL0     C35481   4.924   2.019   9.272 -0.6953  0.1502  0.3288
  258MOL0     C35482   5.065   2.037   9.212  0.5514 -0.6522 -0.8251
  258MOL0     N35483   5.070   2.175   9.165  0.2684 -0.5218 -0.7220
  258MOL0     C35484   5.107   2.207   9.033  0.7772 -0.0609 -0.6694
  258MOL0     C35485   5.166   2.332   9.044  0.5248  0.0481  0.4773
  258MOL0     C35486   5.211   2.419   8.928 -0.3516  0.2160  0.1453
  258MOL0     C35487   5.181   2.569   8.958 -0.2068 -0.9596 -0.7553
  258MOL0     C35488   5.160   2.645   8.829  0.0676 -0.1597 -1.2905
  258MOL0     C35489   5.283   2.653   8.738 -0.8533 -0.1168 -0.7797
  258MOL0     O35490   5.394   2.716   8.811  0.8306 -0.4198  0.1621
  258MOL0     C35491   5.481   2.816   8.759  1.2949  0.5689  0.6211
  258MOL0     C35492   5.494   2.838   8.624  0.4260  0.9268 -0.0339
  258MOL0     C35493   5.579   2.935   8.564  0.0763 -0.5421 -0.1531
  258MOL0     C35494   5.568   2.960   8.418 -0.2766  0.3501  0.2359
  258MOL0     C35495   5.664   3.014   8.648  0.0503  0.4207  0.1565
  258MOL0     C35496   5.760   3.123   8.604  0.1032  0.0758  0.5920
  258MOL0     O35497   5.807   3.201   8.701 -0.0566 -0.2751  0.2806
  258MOL0     C35498   5.932   3.255   8.681 -0.9174  0.0028 -0.5284
  258MOL0     C35499   6.034   3.203   8.747 -0.2485 -0.7755 -0.2658
  258MOL0     C35500   6.167   3.255   8.742  0.0166 -0.2483  0.3726
  258MOL0     C35501   6.187   3.366   8.665 -0.3981  0.1447  0.3748
  258MOL0     O35502   6.318   3.399   8.633  0.1635 -0.0920 -0.7324
  258MOL0     C35503   6.348   3.542   8.634  0.7026  0.8179 -0.6623
  258MOL0     C35504   6.505   3.524   8.627 -0.6117 -0.7099 -0.3140
  258MOL0     C35505   6.566   3.497   8.762 -0.6738 -0.2452  0.2732
  258MOL0     C35506   6.723   3.492   8.755 -0.0333 -0.1663 -0.3872
  258MOL0     C35507   6.792   3.402   8.852  0.1818  0.1205 -0.2177
  258MOL0     C35508   6.942   3.399   8.824  0.2448  0.2133  0.3882
  258MOL0     C35509   7.018   3.372   8.954  0.1114  0.1566 -0.1648
  258MOL0     C35510   7.160   3.324   8.938  0.6385 -0.4327  0.6767
  258MOL0    Cl35511   7.230   3.266   9.092  0.1127  0.3021  0.1456
  258MOL0     C35512   6.080   3.426   8.599 -0.3628 -0.4068  0.1036
  258MOL0     C35513   5.948   3.377   8.608  0.1205 -0.2873 -0.3165
  258MOL0     O35514   5.797   3.125   8.481  0.2412 -0.4552  0.5798
  258MOL0     C35515   5.642   3.004   8.784  0.8864  0.6298 -0.2675
  258MOL0     C35516   5.562   2.897   8.838  0.3555 -0.0677  0.0096
  258MOL0     N35517   5.166   2.368   9.179 -0.1467 -0.2740  0.0539
  258MOL0     N35518   5.102   2.272   9.253 -0.6475 -0.0890  0.6004
  258MOL0     C35519   4.031   1.651   9.414  0.7892  0.0291  0.4213
  258MOL0     C35520   3.893   1.670   9.421  0.0890 -0.6082  0.3201
  258MOL0     C35521   3.485   1.850   9.581 -0.6417  0.1881  0.6115
  258MOL0     C35522   3.381   1.776   9.646  0.6293 -0.7971 -0.2799
  258MOL0     C35523   3.245   1.822   9.644  0.3012 -0.9447  0.3085
  258MOL0     C35524   3.200   1.932   9.563  0.1584  0.5128  0.2620
  258MOL0     O35525   3.069   1.974   9.546  0.2523  0.0875  0.0756
  258MOL0     C35526   2.957   1.901   9.608 -0.2469 -0.2047  0.8948
  258MOL0     C35527   2.827   1.958   9.544 -0.6666  0.4783 -0.9776
  258MOL0     C35528   2.788   2.102   9.577 -0.2602  0.6356  0.1552
  258MOL0     C35529   2.751   2.115   9.723 -0.2000 -0.2742  0.6361
  258MOL0     C35530   2.613   2.087   9.737  0.6878 -0.2195  0.1821
  258MOL0     C35531   2.492   2.075   9.753  0.2995  0.5567  0.8063
  258MOL0     C35532   3.300   1.992   9.484  0.5392  0.2208 -0.8550
  258MOL0     C35533   3.434   1.953   9.490 -0.3274 -0.0653  0.0110
  258MOL0     C35534   3.539   2.020   9.399  1.2094 -0.4252  0.1770
  258MOL0     H35535   3.886   1.963   9.601  2.7010  1.2466  0.1133
  258MOL0     H35536   4.131   1.902   9.616  0.3935 -4.2683  4.8427
  258MOL0     H35537   4.280   1.602   9.297 -5.2785 -0.4125  0.8190
  258MOL0     H35538   4.282   1.516   9.461  0.1375  0.3316  0.4008
  258MOL0     H35539   4.513   1.557   9.477 -1.2337 -3.3690 -0.1680
  258MOL0     H35540   4.490   1.535   9.304 -2.0565 -1.7350  0.7710
  258MOL0     H35541   4.478   1.777   9.256  0.4158 -0.2443 -0.8454
  258MOL0     H35542   4.504   1.811   9.428  0.4930 -0.6878  1.0552
  258MOL0     H35543   4.729   1.660   9.393  1.1966  1.2008  0.2243
  258MOL0     H35544   4.708   1.685   9.224  1.0138  2.5136 -0.5804
  258MOL0     H35545   4.744   1.898   9.428  0.4717 -0.2451 -0.2630
  258MOL0     H35546   4.693   1.932   9.259  1.7124 -0.7325 -1.6959
  258MOL0     H35547   4.960   1.811   9.349 -1.2505 -1.3466 -0.4637
  258MOL0     H35548   4.898   1.823   9.186  1.3408 -2.7104  1.6925
  258MOL0     H35549   4.936   2.052   9.375  1.5361 -0.8706  0.4576
  258MOL0     H35550   4.851   2.082   9.220 -0.0577 -0.4321 -1.3449
  258MOL0     H35551   5.143   2.006   9.282  1.1028 -0.1486 -1.2031
  258MOL0     H35552   5.068   1.967   9.128  4.6723 -0.7230 -0.8387
  258MOL0     H35553   5.087   2.150   8.943  1.0664 -0.9005 -0.2130
  258MOL0     H35554   5.161   2.389   8.835 -0.9573  0.8794  0.2566
  258MOL0     H35555   5.320   2.414   8.913  0.0560  3.0845  1.5862
  258MOL0     H35556   5.092   2.577   9.022 -0.4812  0.1700 -1.2581
  258MOL0     H35557   5.266   2.609   9.012  1.3788  0.0745 -3.7681
  258MOL0     H35558   5.071   2.603   8.781 -1.1180  0.5941  0.1760
  258MOL0     H35559   5.135   2.747   8.857 -0.3129 -0.6815  0.3720
  258MOL0     H35560   5.314   2.552   8.707 -0.4479 -0.5047  0.8189
  258MOL0     H35561   5.258   2.696   8.640  1.6915  2.2913 -0.4759
  258MOL0     H35562   5.422   2.787   8.560 -1.4693 -0.4521  2.9968
  258MOL0     H35563   5.477   2.919   8.373  0.2969  1.7518 -2.3936
  258MOL0     H35564   5.656   2.917   8.369 -0.4573  1.5479 -1.2047
  258MOL0     H35565   5.571   3.067   8.394  0.4785  0.0574 -1.1227
  258MOL0     H35566   6.017   3.124   8.820  3.4676  0.0762  1.8115
  258MOL0     H35567   6.249   3.201   8.788  0.0803  0.1196  0.7008
  258MOL0     H35568   6.303   3.595   8.549 -0.7377 -0.9521 -1.0780
  258MOL0     H35569   6.311   3.595   8.722 -0.6835  0.4049 -0.9776
  258MOL0     H35570   6.532   3.452   8.549  0.4509 -0.4401 -0.2081
  258MOL0     H35571   6.531   3.627   8.600 -1.1264 -0.3484  0.5230
  258MOL0     H35572   6.539   3.397   8.797  1.6480  0.1316  3.5771
  258MOL0     H35573   6.539   3.571   8.838  2.7525  1.3531  0.1314
  258MOL0     H35574   6.768   3.591   8.768  0.5825 -0.5729  0.7889
  258MOL0     H35575   6.751   3.465   8.652 -0.2853  0.5741 -0.6554
  258MOL0     H35576   6.776   3.445   8.951 -1.0736  0.2952 -0.4799
  258MOL0     H35577   6.759   3.298   8.855 -0.0340  0.2173  0.8672
  258MOL0     H35578   6.977   3.489   8.772  0.1134 -1.7405 -3.5178
  258MOL0     H35579   6.969   3.322   8.750  0.9386 -0.3715  1.2330
  258MOL0     H35580   6.963   3.285   8.991 -1.0979  1.0590  0.2454
  258MOL0     H35581   7.019   3.452   9.028  3.1811 -0.8708  1.0585
  258MOL0     H35582   7.226   3.396   8.890  0.6314  0.5414  2.0575
  258MOL0     H35583   7.152   3.238   8.871 -0.0713  0.9111 -1.0185
  258MOL0     H35584   6.099   3.509   8.531  1.7403  1.1939  2.4795
  258MOL0     H35585   5.871   3.427   8.552  1.7147  1.5103 -0.9917
  258MOL0     H35586   5.689   3.070   8.857  2.6564 -1.3855  0.5056
  258MOL0     H35587   5.561   2.881   8.945  0.2346 -2.1595 -0.2624
  258MOL0     H35588   4.076   1.573   9.353  0.7809 -1.1742  1.9129
  258MOL0     H35589   3.820   1.597   9.387 -0.9575 -1.3098  3.6456
  258MOL0     H35590   3.415   1.694   9.709 -1.5972 -0.7787  1.0453
  258MOL0     H35591   3.181   1.758   9.704 -2.9001 -0.7630 -2.6118
  258MOL0     H35592   2.957   1.794   9.587 -0.9462  0.0950 -0.7759
  258MOL0     H35593   2.959   1.918   9.716 -1.3873  1.8140  0.6605
  258MOL0     H35594   2.744   1.890   9.566  1.1796 -2.9143 -3.4976
  258MOL0     H35595   2.834   1.944   9.436  0.6949 -1.8084 -0.6705
  258MOL0     H35596   2.884   2.154   9.565  0.5552 -0.3612  1.9065
  258MOL0     H35597   2.712   2.141   9.509  0.8920  1.4266 -0.7161
  258MOL0     H35598   2.776   2.216   9.757  4.6850 -1.4485  1.3291
  258MOL0     H35599   2.806   2.048   9.790  0.9248 -1.5444 -1.4438
  258MOL0     H35600   2.385   2.067   9.761 -0.3247  3.7008 -2.1264
  258MOL0     H35601   3.282   2.072   9.413  0.7302  2.0288  1.0310
  258MOL0     H35602   3.572   1.941   9.332  2.1497 -0.8412  1.1143
  258MOL0     H35603   3.506   2.113   9.350 -0.8908  0.5026  3.0827
  258MOL0     H35604   3.627   2.043   9.459  0.9520  0.3325  0.2883
  259MOL0     O35605   1.205   5.912   1.255  0.5167 -0.3305  0.1875
  259MOL0     C35606   1.131   6.004   1.224 -0.7961  0.1061 -0.2141
  259MOL0     O35607   1.167   6.134   1.241 -0.1252  0.4408  0.3141
  259MOL0     C35608   1.267   6.171   1.316  0.3716  0.1769  0.7512
  259MOL0     C35609   1.268   6.301   1.349 -0.7719  0.6535  0.0998
  259MOL0     C35610   1.352   6.371   1.440 -0.0500  0.2318 -0.0983
  259MOL0     C35611   1.458   6.294   1.493 -0.0158  0.1893 -0.1458
  259MOL0     O35612   1.545   6.334   1.595  0.7598  0.2489 -0.2525
  259MOL0     C35613   1.540   6.468   1.647  0.0939 -0.3610  0.5089
  259MOL0     C35614   1.638   6.485   1.759  0.3476  0.2106 -0.8990
  259MOL0     C35615   1.782   6.487   1.707  0.4951 -0.1462  0.1365
  259MOL0     C35616   1.880   6.573   1.798  0.2668 -0.3119  0.9944
  259MOL0     C35617   2.023   6.560   1.748 -0.0434 -0.2391 -0.4174
  259MOL0     C35618   2.113   6.635   1.847 -0.8647  0.4543 -0.3233
  259MOL0     C35619   2.257   6.640   1.789 -0.2397 -0.2469  0.3664
  259MOL0     C35620   2.347   6.719   1.886  0.7209  0.5790 -0.0255
  259MOL0     N35621   2.489   6.703   1.845  0.4082  0.7148  0.6985
  259MOL0     C35622   2.543   6.743   1.719  0.3688 -0.1823 -0.2818
  259MOL0     C35623   2.672   6.718   1.725  0.3566 -0.3240 -0.2968
  259MOL0     C35624   2.775   6.750   1.624 -0.7072 -0.2272  0.8474
  259MOL0     C35625   2.817   6.633   1.557 -0.4266  0.3434  0.4910
  259MOL0     C35626   2.943   6.656   1.478 -0.0251  0.2927 -0.1213
  259MOL0     C35627   2.998   6.533   1.397  0.5662 -0.8075  0.0930
  259MOL0     O35628   2.909   6.495   1.288 -0.5859 -1.0873  0.3873
  259MOL0     C35629   2.914   6.589   1.193 -0.2403  0.4726  0.7371
  259MOL0     C35630   2.797   6.595   1.123 -0.0073  0.3572  0.5930
  259MOL0     C35631   2.780   6.680   1.002 -0.1080  0.0981 -0.4849
  259MOL0     C35632   2.652   6.673   0.933  0.0784  0.4587 -0.5904
  259MOL0     C35633   2.887   6.771   0.965  0.1487  0.8216 -0.2730
  259MOL0     C35634   2.877   6.876   0.854  0.3009  0.6846 -0.9668
  259MOL0     O35635   2.978   6.964   0.859  0.3432 -0.0060  0.5301
  259MOL0     C35636   2.963   7.077   0.799 -0.6516 -0.2255 -0.1094
  259MOL0     C35637   2.877   7.172   0.857 -0.2040 -0.0689  0.5260
  259MOL0     C35638   2.864   7.301   0.799  0.8836  0.1525 -0.2279
  259MOL0     C35639   2.929   7.322   0.680 -1.1882  0.0120  0.6067
  259MOL0     O35640   2.928   7.450   0.627 -0.6516  0.2220 -0.4997
  259MOL0     C35641   3.056   7.492   0.585 -0.0743 -0.4628 -0.3421
  259MOL0     C35642   3.049   7.641   0.560  0.1831  1.4450 -0.1139
  259MOL0     C35643   3.024   7.725   0.684  0.0850 -0.6059  0.7580
  259MOL0     C35644   2.990   7.875   0.660  0.0899 -0.6682 -0.4923
  259MOL0     C35645   3.088   7.951   0.570  0.1641 -0.6529  0.0144
  259MOL0     C35646   3.235   7.935   0.610  0.0734 -0.5245  0.1206
  259MOL0     C35647   3.335   8.015   0.524  0.2532  1.2437  0.5508
  259MOL0     C35648   3.318   7.985   0.378 -0.3589 -0.4670  0.1436
  259MOL0    Cl35649   3.454   8.067   0.277  0.1224 -0.2744  0.2992
  259MOL0     C35650   3.028   7.225   0.636 -0.6118  0.0146  0.4661
  259MOL0     C35651   3.031   7.099   0.687 -0.0867  0.1075  0.4000
  259MOL0     O35652   2.797   6.866   0.762  0.5602 -0.4021 -0.5422
  259MOL0     C35653   3.004   6.764   1.042 -0.2457  0.6217 -0.3525
  259MOL0     C35654   3.018   6.678   1.153 -0.0128 -0.3079  0.1378
  259MOL0     N35655   2.704   6.687   1.851  0.2773  0.0683 -0.0033
  259MOL0     N35656   2.597   6.681   1.923  0.3628 -0.3150 -0.0048
  259MOL0     C35657   1.469   6.163   1.455 -0.9951  0.0154 -0.3683
  259MOL0     C35658   1.376   6.098   1.371 -0.6032  0.2669  0.5598
  259MOL0     C35659   1.020   5.962   1.146 -0.0426  0.3958 -0.1813
  259MOL0     C35660   1.003   5.826   1.118  0.3373  0.2939 -0.3295
  259MOL0     C35661   0.899   5.766   1.043  1.2547 -0.4975  0.0985
  259MOL0     C35662   0.795   5.848   0.998 -0.2089  0.1831  0.2104
  259MOL0     O35663   0.681   5.806   0.938 -0.1716 -0.6428  0.3110
  259MOL0     C35664   0.662   5.673   0.890 -0.5891  0.0108  0.0272
  259MOL0     C35665   0.533   5.669   0.810 -0.2668  0.3415 -0.2970
  259MOL0     C35666   0.519   5.796   0.718  0.8109  0.1755  0.1141
  259MOL0     C35667   0.395   5.784   0.623  0.5469  0.3836  0.4266
  259MOL0     C35668   0.411   5.879   0.514  0.3601  0.1656  0.9998
  259MOL0     C35669   0.426   5.962   0.425 -0.2132 -0.0263 -0.0435
  259MOL0     C35670   0.809   5.985   1.019 -0.5864 -0.2438 -0.0454
  259MOL0     C35671   0.915   6.042   1.094 -0.4760  0.5791  0.3479
  259MOL0     C35672   0.913   6.190   1.106 -0.2792 -0.4126 -0.0795
  259MOL0     H35673   1.183   6.362   1.322 -1.9456 -0.9877 -0.0335
  259MOL0     H35674   1.335   6.474   1.467  3.4876  1.1415 -0.8046
  259MOL0     H35675   1.443   6.501   1.685 -0.0642  1.2260 -1.1395
  259MOL0     H35676   1.570   6.519   1.555 -0.0836 -3.4435 -1.4104
  259MOL0     H35677   1.619   6.583   1.804 -0.8946 -0.3908 -0.0532
  259MOL0     H35678   1.616   6.410   1.835 -1.2079 -0.5020 -1.9841
  259MOL0     H35679   1.820   6.384   1.702  2.3527  0.5498 -1.0682
  259MOL0     H35680   1.792   6.536   1.610  2.9544  2.6556  1.6344
  259MOL0     H35681   1.850   6.678   1.796 -3.8538 -1.2885  1.1087
  259MOL0     H35682   1.884   6.540   1.902  0.7211 -0.3896  0.9549
  259MOL0     H35683   2.030   6.611   1.651 -0.9351 -1.4097 -1.1184
  259MOL0     H35684   2.063   6.459   1.746 -3.0222 -1.5020 -1.5546
  259MOL0     H35685   2.085   6.740   1.852 -0.3405  0.5872 -0.1914
  259MOL0     H35686   2.106   6.586   1.945 -0.7435  0.7562 -0.1623
  259MOL0     H35687   2.259   6.687   1.690 -3.9426 -3.2404 -1.4102
  259MOL0     H35688   2.290   6.539   1.763 -1.6319 -1.0741  1.6434
  259MOL0     H35689   2.323   6.825   1.899  0.5019  0.4442  0.7043
  259MOL0     H35690   2.325   6.679   1.985  0.1455  0.5552 -0.1569
  259MOL0     H35691   2.504   6.792   1.630 -0.1253  1.5623  0.8241
  259MOL0     H35692   2.855   6.795   1.683 -1.0269  0.5762  0.6730
  259MOL0     H35693   2.733   6.828   1.560  2.7660  0.5873 -0.7025
  259MOL0     H35694   2.837   6.538   1.609  0.6655  0.6093  0.5866
  259MOL0     H35695   2.737   6.608   1.487 -0.6543 -0.8480  1.1441
  259MOL0     H35696   2.932   6.745   1.415 -0.6612  0.7568  0.6211
  259MOL0     H35697   3.016   6.682   1.554 -1.7720  0.6581  1.5013
  259MOL0     H35698   3.103   6.547   1.369  0.7775 -1.9432  0.2679
  259MOL0     H35699   3.013   6.455   1.473  2.3236  1.5161  2.3324
  259MOL0     H35700   2.707   6.541   1.151 -1.5537  0.5469 -3.3137
  259MOL0     H35701   2.655   6.668   0.823 -3.8583  3.0037 -1.0532
  259MOL0     H35702   2.595   6.763   0.960 -2.3318 -0.3741 -2.4625
  259MOL0     H35703   2.591   6.591   0.973  1.2285  0.6470  1.6621
  259MOL0     H35704   2.821   7.165   0.950 -0.1877 -0.2323  0.5221
  259MOL0     H35705   2.813   7.382   0.849  1.9509  2.2200 -2.2730
  259MOL0     H35706   3.133   7.477   0.661 -0.2633  0.6509  0.0818
  259MOL0     H35707   3.081   7.437   0.494  0.6118  0.5057 -0.7580
  259MOL0     H35708   3.135   7.653   0.495 -2.1279  2.7532 -3.1721
  259MOL0     H35709   2.967   7.663   0.491  1.2344  2.5802 -1.0463
  259MOL0     H35710   3.110   7.716   0.751 -1.4694 -0.7668  2.8139
  259MOL0     H35711   2.934   7.686   0.732 -0.3684 -0.4393  0.0635
  259MOL0     H35712   2.986   7.932   0.753  1.2853 -0.7048 -0.4083
  259MOL0     H35713   2.886   7.882   0.626  0.1430 -1.1529 -0.7639
  259MOL0     H35714   3.073   7.916   0.468  1.3024  0.4300 -0.5484
  259MOL0     H35715   3.056   8.055   0.571 -1.1873 -1.0426 -0.3892
  259MOL0     H35716   3.269   7.831   0.610  0.2368 -0.4737  0.5652
  259MOL0     H35717   3.244   7.968   0.714 -0.6455 -1.7393  0.5867
  259MOL0     H35718   3.431   7.968   0.547 -0.3242  0.0794  0.6691
  259MOL0     H35719   3.328   8.121   0.549 -0.9545  1.2814  0.1584
  259MOL0     H35720   3.220   8.017   0.341 -1.6599 -1.4707  2.4998
  259MOL0     H35721   3.331   7.879   0.353 -2.1684  0.1708 -4.3908
  259MOL0     H35722   3.094   7.231   0.550  0.2835 -0.3141  1.1171
  259MOL0     H35723   3.102   7.027   0.649 -0.6640 -0.2950  0.0653
  259MOL0     H35724   3.090   6.829   1.028 -0.2742  0.5096 -1.1196
  259MOL0     H35725   3.109   6.680   1.213 -0.0344 -3.3951  0.4387
  259MOL0     H35726   1.541   6.107   1.513 -3.2057 -0.2781  2.2664
  259MOL0     H35727   1.383   5.990   1.371  1.8009  0.3763 -0.1071
  259MOL0     H35728   1.084   5.756   1.133 -0.6841 -0.8043  0.1770
  259MOL0     H35729   0.891   5.661   1.020  1.5396 -0.9893  2.0734
  259MOL0     H35730   0.745   5.638   0.828 -0.7861 -0.8250  0.2312
  259MOL0     H35731   0.678   5.609   0.977 -2.0485 -0.6338 -0.1550
  259MOL0     H35732   0.458   5.674   0.889  0.4252 -0.0268  0.3979
  259MOL0     H35733   0.532   5.579   0.747 -1.3146 -1.2899  1.9328
  259MOL0     H35734   0.487   5.886   0.772  0.1209 -0.2354  0.4054
  259MOL0     H35735   0.606   5.819   0.656  0.1175  2.4350 -0.1264
  259MOL0     H35736   0.302   5.799   0.678  0.6198  1.9458  0.1813
  259MOL0     H35737   0.383   5.681   0.588 -1.5763  1.1685 -1.3230
  259MOL0     H35738   0.439   6.038   0.351 -0.7506 -1.8108 -2.0727
  259MOL0     H35739   0.743   6.065   0.988  0.5097  0.5790 -0.3280
  259MOL0     H35740   0.927   6.225   1.209  0.8478  0.7699 -0.6154
  259MOL0     H35741   0.994   6.240   1.053 -0.9473  1.1406  0.3234
  259MOL0     H35742   0.824   6.237   1.064  1.9179  3.4059 -0.8604
  260MOL0     O35743   5.730   9.860   8.533  0.0738  0.0138  0.1583
  260MOL0     C35744   5.716   9.846   8.408 -0.1040 -0.7887 -0.5205
  260MOL0     O35745   5.812   9.880   8.315  0.1655  1.2680  0.4841
  260MOL0     C35746   5.928   9.919   8.375  0.5975 -0.2478  0.0272
  260MOL0     C35747   5.952  10.051   8.416 -0.0415  0.2172  0.9520
  260MOL0     C35748   6.079  10.085   8.477  0.0714 -0.1483  0.3911
  260MOL0     C35749   6.171   9.985   8.510  0.3664  0.0092  0.0732
  260MOL0     O35750   6.291  10.024   8.568  0.3020  0.7737 -0.3332
  260MOL0     C35751   6.363   9.916   8.632  1.2885 -0.4483 -0.4700
  260MOL0     C35752   6.481   9.966   8.709 -1.0768 -0.2422  0.3613
  260MOL0     C35753   6.447  10.085   8.806  0.4867 -0.0354  0.6659
  260MOL0     C35754   6.580  10.125   8.873 -0.0465 -0.3485 -0.0567
  260MOL0     C35755   6.564  10.236   8.981 -0.2655  0.8524  0.8085
  260MOL0     C35756   6.491  10.188   9.105 -0.3064 -0.1293  0.3068
  260MOL0     C35757   6.565  10.076   9.182 -0.5818  0.2518  0.1470
  260MOL0     C35758   6.507  10.034   9.315  0.4388 -0.7452  0.1642
  260MOL0     N35759   6.527  10.117   9.436  0.0426 -0.3798 -0.0517
  260MOL0     C35760   6.583  10.242   9.444  0.8356 -0.2758 -0.5578
  260MOL0     C35761   6.586  10.269   9.580  0.1286 -0.4330  0.0351
  260MOL0     C35762   6.626  10.411   9.637 -0.3715  0.7589 -0.6137
  260MOL0     C35763   6.510  10.496   9.701  0.5081  0.0578  0.0281
  260MOL0     C35764   6.561  10.632   9.736 -0.3262 -0.1796  0.4958
  260MOL0     C35765   6.463  10.715   9.811  0.6274  0.3751  0.1368
  260MOL0     O35766   6.346  10.741   9.726 -0.4203  0.0407  0.3211
  260MOL0     C35767   6.225  10.779   9.783  0.4096 -0.2423  1.2472
  260MOL0     C35768   6.215  10.829   9.908  0.7660 -0.0005  0.1555
  260MOL0     C35769   6.088  10.865   9.953 -0.7519 -0.1851 -1.0645
  260MOL0     C35770   6.086  10.927  10.093  0.1941 -0.1326  0.5050
  260MOL0     C35771   5.973  10.830   9.883  0.1941  1.1845 -0.6539
  260MOL0     C35772   5.831  10.853   9.923 -0.4879  0.2571  0.0739
  260MOL0     O35773   5.741  10.756   9.876 -0.1236  0.1236  1.0562
  260MOL0     C35774   5.610  10.750   9.904 -0.5721 -0.6415  0.1967
  260MOL0     C35775   5.551  10.792  10.026 -0.0821  0.5995 -0.3032
  260MOL0     C35776   5.415  10.775  10.050  0.1126  0.3390  0.1167
  260MOL0     C35777   5.337  10.729   9.940  0.3460 -0.5274 -0.6350
  260MOL0     O35778   5.200  10.725   9.945 -0.9890  0.1078  0.6203
  260MOL0     C35779   5.129  10.805  10.043 -0.6658  0.0582 -0.1472
  260MOL0     C35780   4.988  10.771  10.019  0.2064 -0.4168 -1.2617
  260MOL0     C35781   4.929  10.803   9.880  0.1020 -0.6872 -0.6079
  260MOL0     C35782   4.772  10.822   9.891 -0.1714  0.2821  0.3184
  260MOL0     C35783   4.706  10.755   9.769 -0.2312 -1.1168 -0.1208
  260MOL0     C35784   4.557  10.792   9.744 -0.0020  0.6263 -0.4298
  260MOL0     C35785   4.470  10.719   9.846 -0.9451 -0.2281  0.2590
  260MOL0     C35786   4.319  10.747   9.830  0.7175 -0.3057 -0.2899
  260MOL0    Cl35787   4.219  10.614   9.870 -0.1601 -0.0744  0.1652
  260MOL0     C35788   5.392  10.682   9.824 -0.1503 -0.0427  0.2405
  260MOL0     C35789   5.528  10.700   9.804  0.6830  0.8179 -0.3568
  260MOL0     O35790   5.799  10.948   9.993  0.0594 -0.5302 -0.2703
  260MOL0     C35791   5.986  10.756   9.760  0.3358  0.5331 -0.6587
  260MOL0     C35792   6.112  10.747   9.713  0.2195  0.1046  0.7575
  260MOL0     N35793   6.532  10.160   9.644 -0.2911 -0.1600  0.3780
  260MOL0     N35794   6.499  10.074   9.560  0.1352 -0.0385 -0.5689
  260MOL0     C35795   6.147   9.854   8.469 -0.3763  0.3684  0.4295
  260MOL0     C35796   6.027   9.825   8.396 -0.3139  1.5192  0.4364
  260MOL0     C35797   5.593   9.795   8.352 -0.7782  0.9363 -0.0006
  260MOL0     C35798   5.530   9.859   8.253  1.6737  0.0677  0.4598
  260MOL0     C35799   5.408   9.811   8.199  0.3486  0.4110 -0.1749
  260MOL0     C35800   5.348   9.699   8.257  0.0585  0.2562  0.4235
  260MOL0     O35801   5.229   9.642   8.214 -0.4848 -0.4453 -0.1169
  260MOL0     C35802   5.159   9.708   8.109 -0.3097  0.1290  0.3942
  260MOL0     C35803   5.052   9.607   8.058 -0.2988  0.5527 -0.7231
  260MOL0     C35804   4.936   9.663   7.976  0.0597  0.9747 -0.4603
  260MOL0     C35805   4.832   9.558   7.923 -0.2753  0.6585  0.2769
  260MOL0     C35806   4.708   9.630   7.882 -0.0252 -0.5302  0.2831
  260MOL0     C35807   4.603   9.679   7.830  0.0478  0.9661 -0.2750
  260MOL0     C35808   5.413   9.639   8.364  0.8710 -0.4965  0.4176
  260MOL0     C35809   5.532   9.679   8.412 -0.8507 -0.7393  0.7802
  260MOL0     C35810   5.591   9.594   8.524  0.3681 -0.4214 -0.3243
  260MOL0     H35811   5.885  10.132   8.388 -0.1252 -0.3949 -0.7042
  260MOL0     H35812   6.102  10.187   8.507 -3.2363  0.3840  1.5059
  260MOL0     H35813   6.398   9.852   8.550  0.7302  0.8175 -1.7516
  260MOL0     H35814   6.309   9.858   8.707 -0.1161  1.4401  0.0581
  260MOL0     H35815   6.536   9.887   8.762 -0.7703  0.0940  0.5492
  260MOL0     H35816   6.553  10.011   8.641  1.2292 -0.3506  2.5625
  260MOL0     H35817   6.414  10.166   8.740 -0.4029 -0.5207  0.4931
  260MOL0     H35818   6.369  10.053   8.876 -1.2822 -1.2002 -1.6804
  260MOL0     H35819   6.635  10.038   8.911  0.0595  1.1231  3.5644
  260MOL0     H35820   6.636  10.176   8.795 -2.5119  3.5630  0.4449
  260MOL0     H35821   6.503  10.316   8.936 -1.3359 -0.4514 -0.1676
  260MOL0     H35822   6.667  10.258   9.008  0.4443 -1.0616 -0.1327
  260MOL0     H35823   6.494  10.286   9.153 -1.5138  0.3469 -0.5239
  260MOL0     H35824   6.382  10.176   9.102 -0.5229  1.2356  1.7418
  260MOL0     H35825   6.672  10.097   9.194 -0.5232  0.4624 -0.7094
  260MOL0     H35826   6.562   9.987   9.119 -2.0553 -1.6954  2.7583
  260MOL0     H35827   6.399  10.016   9.310  0.0466  1.3115  0.5367
  260MOL0     H35828   6.559   9.942   9.346  1.2984 -0.8568 -1.5254
  260MOL0     H35829   6.610  10.311   9.365  0.8446  2.3512  1.5762
  260MOL0     H35830   6.663  10.481   9.562  3.3396  1.6884  1.8385
  260MOL0     H35831   6.716  10.393   9.696 -0.4790  0.6927 -0.4678
  260MOL0     H35832   6.423  10.521   9.640  1.1140  3.9073  0.5075
  260MOL0     H35833   6.483  10.450   9.796  0.9242 -1.2951 -0.4825
  260MOL0     H35834   6.648  10.613   9.800 -0.0071 -3.3731 -0.7252
  260MOL0     H35835   6.593  10.684   9.645  1.8441  0.1600  1.3843
  260MOL0     H35836   6.436  10.680   9.912 -1.4420 -1.1925 -0.8695
  260MOL0     H35837   6.501  10.815   9.832 -0.5966  0.5884  1.5369
  260MOL0     H35838   6.308  10.845   9.961  0.0923 -0.1446  1.4169
  260MOL0     H35839   6.184  10.952  10.136 -0.3389  0.8715  1.1638
  260MOL0     H35840   6.021  10.875  10.163  0.3536  0.7410  1.3274
  260MOL0     H35841   6.050  11.029  10.074  4.2572  0.8618 -4.1216
  260MOL0     H35842   5.613  10.844  10.098 -0.2406 -0.0716  0.3292
  260MOL0     H35843   5.382  10.806  10.148  2.3139 -0.9327  1.3283
  260MOL0     H35844   5.157  10.783  10.146  4.2773  3.2894 -0.4285
  260MOL0     H35845   5.152  10.911  10.029  2.6195 -0.1219  2.4720
  260MOL0     H35846   4.978  10.663  10.037 -0.5415 -0.3768 -1.3972
  260MOL0     H35847   4.924  10.818  10.094  1.5504 -1.7199  0.8105
  260MOL0     H35848   4.947  10.721   9.809 -2.8613 -2.1191  0.1277
  260MOL0     H35849   4.962  10.896   9.834 -4.0211  1.8813  1.0870
  260MOL0     H35850   4.745  10.927   9.902  2.4696  1.0052  0.6923
  260MOL0     H35851   4.732  10.765   9.975 -2.4309 -1.7912 -2.0050
  260MOL0     H35852   4.754  10.792   9.678 -0.5107 -0.8661 -0.1686
  260MOL0     H35853   4.715  10.646   9.776  1.0527 -1.0775 -0.7544
  260MOL0     H35854   4.536  10.759   9.642 -0.8882 -0.2331  0.0118
  260MOL0     H35855   4.528  10.897   9.753 -1.5329  0.1263  0.8296
  260MOL0     H35856   4.495  10.730   9.952 -0.5182 -0.3347  0.1704
  260MOL0     H35857   4.489  10.614   9.823 -1.4185 -0.1973 -0.3155
  260MOL0     H35858   4.292  10.766   9.726  1.7799  0.9429 -0.3633
  260MOL0     H35859   4.287  10.830   9.894  1.2560  1.0151 -1.6703
  260MOL0     H35860   5.322  10.646   9.750 -0.5599  0.6769  0.2638
  260MOL0     H35861   5.576  10.663   9.714  4.2464 -0.5864  1.9098
  260MOL0     H35862   5.903  10.713   9.706  0.4910  0.7968 -1.1189
  260MOL0     H35863   6.120  10.693   9.619 -2.1330 -0.3633  0.7444
  260MOL0     H35864   6.225   9.781   8.490 -0.5782 -0.4868 -1.5966
  260MOL0     H35865   6.010   9.723   8.363  0.3693  2.0815 -1.8565
  260MOL0     H35866   5.581   9.946   8.213 -0.4463  1.3337  0.3447
  260MOL0     H35867   5.353   9.864   8.122  0.6417  1.2245  0.1666
  260MOL0     H35868   5.102   9.795   8.143 -0.0151 -0.1538  1.6799
  260MOL0     H35869   5.226   9.741   8.029 -0.4099  1.3778  0.8136
  260MOL0     H35870   5.012   9.563   8.149 -0.3479 -1.9992 -1.8818
  260MOL0     H35871   5.103   9.532   7.996 -2.0991 -2.6763  1.4322
  260MOL0     H35872   4.888   9.729   8.049  1.1817  1.0438  0.2389
  260MOL0     H35873   4.980   9.706   7.886  1.9278 -1.8190 -1.0166
  260MOL0     H35874   4.791   9.492   7.999 -0.9123 -1.0199 -1.4529
  260MOL0     H35875   4.880   9.491   7.851 -1.9962 -1.2781  0.8258
  260MOL0     H35876   4.507   9.713   7.795 -0.0554  0.3941 -0.5622
  260MOL0     H35877   5.359   9.558   8.414  0.0229  0.3241  0.8736
  260MOL0     H35878   5.700   9.583   8.536  0.0452 -1.3889  2.8938
  260MOL0     H35879   5.550   9.631   8.618  0.8173  1.3113 -0.7866
  260MOL0     H35880   5.551   9.493   8.512  0.0834 -0.5689  1.5249
  261MOL0     O35881   6.797   5.664   0.623 -0.1439 -0.8171  0.5646
  261MOL0     C35882   6.765   5.688   0.740 -0.5224 -0.0150 -0.0724
  261MOL0     O35883   6.829   5.784   0.818 -0.1260 -0.1352 -0.1715
  261MOL0     C35884   6.955   5.831   0.802  0.2873  0.0145  0.4447
  261MOL0     C35885   7.047   5.775   0.717 -0.2483 -0.2293  0.5136
  261MOL0     C35886   7.173   5.816   0.714 -0.4389 -0.2754  1.0772
  261MOL0     C35887   7.209   5.933   0.775 -0.2548  0.9909 -0.6054
  261MOL0     O35888   7.338   5.989   0.767  0.2362  0.3124 -0.4958
  261MOL0     C35889   7.387   5.996   0.633 -0.7150  0.4799 -0.9731
  261MOL0     C35890   7.529   6.052   0.648 -0.0132 -0.3716 -0.7597
  261MOL0     C35891   7.596   6.055   0.504  0.6715 -0.5355 -0.5874
  261MOL0     C35892   7.722   6.143   0.499  0.8608  1.1701 -0.8124
  261MOL0     C35893   7.776   6.158   0.360  0.3682  0.2034 -0.3856
  261MOL0     C35894   7.889   6.254   0.382  0.5061  0.5786  0.2428
  261MOL0     C35895   7.955   6.295   0.246  0.2946 -0.3849  0.0013
  261MOL0     C35896   8.043   6.179   0.188  0.5095 -0.4831 -0.3139
  261MOL0     N35897   8.110   6.240   0.076 -1.2885 -0.4142 -0.2398
  261MOL0     C35898   8.225   6.316   0.096  0.2219 -0.3580 -0.1522
  261MOL0     C35899   8.280   6.336  -0.026  0.3124 -1.2106  0.2957
  261MOL0     C35900   8.407   6.420  -0.064  0.1863 -0.4069 -0.5144
  261MOL0     C35901   8.544   6.347  -0.053  0.2200 -0.4972 -0.3748
  261MOL0     C35902   8.653   6.455  -0.085  0.8178  0.3593 -0.1870
  261MOL0     C35903   8.793   6.413  -0.024  0.3450 -0.1923 -0.9047
  261MOL0     O35904   8.786   6.394   0.118  0.5908  0.5172  0.0146
  261MOL0     C35905   8.901   6.410   0.189 -0.0357  0.1649  0.2105
  261MOL0     C35906   8.885   6.452   0.322  0.0916 -0.4768  0.5960
  261MOL0     C35907   8.993   6.483   0.406 -0.1265  0.5118 -0.5162
  261MOL0     C35908   8.958   6.528   0.539 -0.0753 -0.1617 -0.6743
  261MOL0     C35909   9.129   6.471   0.353  0.2495 -0.2524 -0.0250
  261MOL0     C35910   9.250   6.503   0.437 -0.3023 -0.2018 -0.1852
  261MOL0     O35911   9.367   6.437   0.419 -0.7107  0.5237  0.8560
  261MOL0     C35912   9.480   6.486   0.482  0.1177  0.0550  0.2000
  261MOL0     C35913   9.542   6.607   0.440  0.0668  0.1378 -0.4562
  261MOL0     C35914   9.654   6.657   0.500  0.5194 -0.5374 -0.8975
  261MOL0     C35915   9.709   6.583   0.610 -0.0060  0.6461  1.1214
  261MOL0     O35916   9.819   6.630   0.680  0.2015  0.3620  0.4748
  261MOL0     C35917   9.909   6.732   0.630 -0.1269  0.0984  0.1969
  261MOL0     C35918  10.039   6.729   0.721  0.3989 -0.4653 -0.1878
  261MOL0     C35919  10.141   6.825   0.669 -0.1400  0.3345  1.0582
  261MOL0     C35920  10.281   6.819   0.727  0.0575  0.3463  1.4831
  261MOL0     C35921  10.386   6.875   0.621 -0.2447  0.0128  0.0354
  261MOL0     C35922  10.522   6.896   0.694 -0.5637  0.1375 -0.1833
  261MOL0     C35923  10.642   6.890   0.596  0.6181  0.0990 -0.2698
  261MOL0     C35924  10.780   6.897   0.664 -0.2963  0.0788 -0.5175
  261MOL0    Cl35925  10.917   6.863   0.546 -0.1365 -0.0713  0.2373
  261MOL0     C35926   9.648   6.463   0.650  0.7457 -0.3689  0.9264
  261MOL0     C35927   9.542   6.403   0.579 -0.6908 -0.5373  0.3670
  261MOL0     O35928   9.232   6.592   0.524  0.1923 -0.0659 -0.2921
  261MOL0     C35929   9.141   6.415   0.220 -0.9813 -0.2237 -0.0078
  261MOL0     C35930   9.029   6.398   0.139 -0.1525  1.0464  0.3091
  261MOL0     N35931   8.198   6.278  -0.123  0.3032  0.9355  0.5082
  261MOL0     N35932   8.094   6.218  -0.060 -0.1125 -0.4050 -0.3792
  261MOL0     C35933   7.113   5.997   0.851 -0.0301 -0.0657 -0.0228
  261MOL0     C35934   6.985   5.940   0.870 -0.6740 -0.7395  0.7922
  261MOL0     C35935   6.652   5.613   0.810 -0.1107  0.5822 -1.0398
  261MOL0     C35936   6.640   5.634   0.950  0.0089  0.4128  0.4644
  261MOL0     C35937   6.554   5.561   1.025 -0.1120  0.0070 -0.6108
  261MOL0     C35938   6.470   5.473   0.965  0.5510  0.0296  0.1525
  261MOL0     O35939   6.387   5.400   1.040  0.6730 -1.0540  0.0719
  261MOL0     C35940   6.438   5.291   1.104 -0.5481 -0.3089 -0.2966
  261MOL0     C35941   6.378   5.290   1.245  0.3656 -0.4900  0.3829
  261MOL0     C35942   6.428   5.160   1.322 -0.1255 -0.3345 -0.0952
  261MOL0     C35943   6.575   5.175   1.380 -0.2581 -0.1895 -0.4149
  261MOL0     C35944   6.585   5.297   1.467  0.2510 -0.6607  0.1599
  261MOL0     C35945   6.598   5.405   1.527  0.0881  0.5204  0.7431
  261MOL0     C35946   6.473   5.450   0.829  0.3365 -0.2836  0.4010
  261MOL0     C35947   6.567   5.512   0.751 -0.2022 -0.5396  0.2252
  261MOL0     C35948   6.564   5.481   0.607 -0.0973  0.1445  0.1792
  261MOL0     H35949   7.025   5.689   0.654 -2.5833  0.1405  0.7616
  261MOL0     H35950   7.246   5.750   0.667  0.1941  0.6554  0.7219
  261MOL0     H35951   7.343   6.070   0.566  0.5323  0.3191 -2.0260
  261MOL0     H35952   7.397   5.898   0.585  0.1345  2.1055 -4.4228
  261MOL0     H35953   7.518   6.153   0.688  3.9421  0.5754 -1.5980
  261MOL0     H35954   7.586   5.988   0.716 -0.0263 -1.5090 -1.7850
  261MOL0     H35955   7.638   5.957   0.479  3.3525  0.8405 -2.0338
  261MOL0     H35956   7.524   6.081   0.426 -1.2934  1.2608  1.6737
  261MOL0     H35957   7.696   6.237   0.547 -1.0658  1.7189 -2.7365
  261MOL0     H35958   7.791   6.086   0.561 -0.7116  1.2009  1.0576
  261MOL0     H35959   7.702   6.215   0.303  1.8329  1.0962 -1.4618
  261MOL0     H35960   7.808   6.064   0.313  0.9704  1.2917 -2.2635
  261MOL0     H35961   7.848   6.340   0.436 -1.6660 -0.6075  0.5709
  261MOL0     H35962   7.964   6.224   0.456 -0.0100  1.9746  1.3811
  261MOL0     H35963   8.019   6.379   0.273 -0.8227  0.8370 -1.0035
  261MOL0     H35964   7.883   6.334   0.174  2.0932  1.1616 -1.0399
  261MOL0     H35965   8.112   6.147   0.266  1.3527  3.0322  0.5834
  261MOL0     H35966   7.985   6.096   0.147 -0.3486 -0.1945  0.2815
  261MOL0     H35967   8.259   6.347   0.194 -1.7739  1.3162  0.0858
  261MOL0     H35968   8.406   6.497   0.014 -2.0815 -1.9471  1.1111
  261MOL0     H35969   8.396   6.462  -0.164  1.7131  0.2495 -0.4400
  261MOL0     H35970   8.548   6.311   0.050  0.9324  2.6828  0.8122
  261MOL0     H35971   8.553   6.277  -0.137  0.9823  0.6138 -1.2420
  261MOL0     H35972   8.658   6.458  -0.194 -0.6930  0.0052 -0.2832
  261MOL0     H35973   8.629   6.557  -0.053  1.7861 -0.3862  3.3502
  261MOL0     H35974   8.818   6.318  -0.072  1.2881 -0.1794 -0.4690
  261MOL0     H35975   8.869   6.486  -0.054  0.6281 -0.4787 -0.8838
  261MOL0     H35976   8.782   6.451   0.357 -0.6124 -1.2220 -1.3354
  261MOL0     H35977   8.862   6.492   0.576  0.6002 -1.8079 -0.4413
  261MOL0     H35978   8.946   6.636   0.535 -1.9280 -0.1175  2.8591
  261MOL0     H35979   9.032   6.491   0.610 -1.0825 -1.3601 -0.2237
  261MOL0     H35980   9.495   6.658   0.357 -4.5328 -0.4047  1.4929
  261MOL0     H35981   9.702   6.749   0.467  0.0691  0.5618  1.3432
  261MOL0     H35982   9.924   6.697   0.527 -0.1747  0.3139  0.1145
  261MOL0     H35983   9.856   6.828   0.632 -0.7542 -0.1959 -0.9877
  261MOL0     H35984   9.992   6.770   0.811 -1.4857 -1.4986 -0.6381
  261MOL0     H35985  10.077   6.628   0.739 -2.1179 -1.0645  2.6814
  261MOL0     H35986  10.121   6.932   0.682 -0.0619  0.2684  1.8140
  261MOL0     H35987  10.155   6.794   0.565  0.8931  2.3012  0.5435
  261MOL0     H35988  10.305   6.714   0.746 -0.7272 -0.6195 -2.2548
  261MOL0     H35989  10.283   6.887   0.814 -0.2701  2.2317  0.0861
  261MOL0     H35990  10.395   6.803   0.540 -0.8853  0.6805 -0.6466
  261MOL0     H35991  10.352   6.970   0.578 -1.0641 -0.1395  0.3310
  261MOL0     H35992  10.524   6.831   0.783  0.4356 -1.0982 -1.0591
  261MOL0     H35993  10.517   6.997   0.735  0.7874 -0.1309  0.7239
  261MOL0     H35994  10.626   6.977   0.531  0.1633  0.5755  0.4645
  261MOL0     H35995  10.643   6.804   0.528 -2.4654 -0.9185  0.8096
  261MOL0     H35996  10.773   6.822   0.742 -0.9244  0.2915 -0.3580
  261MOL0     H35997  10.787   6.996   0.710 -2.1547 -0.2981  0.6978
  261MOL0     H35998   9.687   6.415   0.740  1.0390 -3.1213 -0.5385
  261MOL0     H35999   9.493   6.311   0.607 -1.5532 -0.2039  0.0107
  261MOL0     H36000   9.240   6.408   0.176 -0.7446 -1.4980  0.6878
  261MOL0     H36001   9.043   6.337   0.050  1.1584 -3.0975  3.0742
  261MOL0     H36002   7.136   6.093   0.897 -0.8217  0.2118 -0.1892
  261MOL0     H36003   6.903   5.986   0.924 -2.2901  0.3958 -2.3868
  261MOL0     H36004   6.706   5.710   0.991  2.2594 -0.9974 -0.3542
  261MOL0     H36005   6.542   5.581   1.131  3.3864  0.1094 -0.1078
  261MOL0     H36006   6.416   5.206   1.039  0.0975 -0.4510 -0.3369
  261MOL0     H36007   6.544   5.316   1.110 -1.2407  2.7298  2.0827
  261MOL0     H36008   6.269   5.284   1.235  0.5676 -2.6430 -1.4438
  261MOL0     H36009   6.401   5.378   1.306 -2.9907 -0.0454  1.1923
  261MOL0     H36010   6.365   5.147   1.411  1.7027 -1.4419  1.1069
  261MOL0     H36011   6.410   5.067   1.269 -0.5289 -0.6080  0.5153
  261MOL0     H36012   6.637   5.191   1.292 -0.1226  2.6808  0.1029
  261MOL0     H36013   6.610   5.091   1.440  0.7801  2.7922  3.6489
  261MOL0     H36014   6.587   5.500   1.575 -4.9783 -0.0828  1.3448
  261MOL0     H36015   6.402   5.383   0.782 -2.2025  2.6068 -0.1730
  261MOL0     H36016   6.474   5.422   0.588  0.5356 -0.9123  0.3683
  261MOL0     H36017   6.554   5.574   0.551 -0.4863  0.4308  0.7191
  261MOL0     H36018   6.653   5.430   0.568  0.0569 -1.0010  1.9091
  262MOL0     O36019   2.672   8.671   4.501  0.0397 -0.4604 -0.5117
  262MOL0     C36020   2.731   8.568   4.549  0.8579 -0.7593 -0.1329
  262MOL0     O36021   2.860   8.569   4.601  0.2782  0.1214  0.3614
  262MOL0     C36022   2.900   8.693   4.662  0.7387  0.4021 -0.8925
  262MOL0     C36023   2.911   8.818   4.591  0.1876 -0.1393 -0.2857
  262MOL0     C36024   2.952   8.932   4.660  0.4675  0.4211 -0.3029
  262MOL0     C36025   2.986   8.921   4.800  0.7764  0.0572  0.1320
  262MOL0     O36026   3.022   9.037   4.865 -0.4518 -0.1409 -0.2461
  262MOL0     C36027   3.135   9.032   4.954  0.0842  0.2531 -0.2026
  262MOL0     C36028   3.175   9.177   4.971 -1.2148  0.6572  0.5863
  262MOL0     C36029   3.196   9.239   4.837 -0.3189 -0.9357  0.9671
  262MOL0     C36030   3.230   9.393   4.846  0.7364  0.7153 -0.2220
  262MOL0     C36031   3.369   9.412   4.900  0.3742 -1.0489  0.4177
  262MOL0     C36032   3.397   9.561   4.923 -0.4979  1.3059  0.6053
  262MOL0     C36033   3.308   9.632   5.027  1.0480 -0.6969 -0.4002
  262MOL0     C36034   3.321   9.563   5.167 -0.0072 -0.4106  0.6082
  262MOL0     N36035   3.452   9.578   5.237  0.1265  0.4603 -0.2662
  262MOL0     C36036   3.491   9.676   5.323  0.4045 -0.7588  0.4916
  262MOL0     C36037   3.611   9.644   5.378  0.2477  0.4008  1.1801
  262MOL0     C36038   3.689   9.717   5.481  0.0543 -0.1469 -0.2531
  262MOL0     C36039   3.814   9.646   5.520  0.6072  0.9707 -0.0369
  262MOL0     C36040   3.892   9.734   5.628 -0.2849 -0.3578  0.1171
  262MOL0     C36041   4.009   9.651   5.696  0.3085 -0.3223  0.5809
  262MOL0     O36042   4.097   9.739   5.766 -0.1398 -0.1546  0.0134
  262MOL0     C36043   4.205   9.693   5.841  0.8777  0.7132 -0.3751
  262MOL0     C36044   4.302   9.787   5.877  0.2281  0.7337  0.4655
  262MOL0     C36045   4.403   9.751   5.969  0.5664  0.5131  0.8836
  262MOL0     C36046   4.484   9.866   6.025  0.5198  0.4358 -0.1073
  262MOL0     C36047   4.415   9.609   6.000  0.0112  0.9606  0.6650
  262MOL0     C36048   4.518   9.560   6.096 -0.4443  0.3713 -0.7242
  262MOL0     O36049   4.558   9.434   6.088 -0.8621 -0.3147 -0.5354
  262MOL0     C36050   4.680   9.409   6.136 -0.8369  0.0884  0.2153
  262MOL0     C36051   4.693   9.309   6.235  0.0051 -0.0979  0.7732
  262MOL0     C36052   4.814   9.292   6.298  0.9737 -1.2828 -0.6371
  262MOL0     C36053   4.932   9.353   6.261  0.7398  1.0634  0.4528
  262MOL0     O36054   5.037   9.313   6.325  0.6349 -0.2537 -0.1663
  262MOL0     C36055   5.165   9.369   6.294 -0.5781  0.5124  0.4679
  262MOL0     C36056   5.265   9.260   6.316 -1.1458  0.1823 -0.1915
  262MOL0     C36057   5.399   9.311   6.371 -0.3532 -0.4445 -0.1664
  262MOL0     C36058   5.503   9.204   6.394 -0.3017  0.5111  0.1169
  262MOL0     C36059   5.619   9.260   6.469 -0.9340  0.0548 -0.3294
  262MOL0     C36060   5.736   9.171   6.482  0.4862 -0.5320 -0.6479
  262MOL0     C36061   5.864   9.242   6.547  0.0803 -0.1401 -0.0030
  262MOL0     C36062   5.961   9.118   6.558 -0.1862 -0.7753  0.3722
  262MOL0    Cl36063   6.104   9.173   6.638  0.0297  0.2198 -0.0437
  262MOL0     C36064   4.924   9.446   6.158  0.0570 -0.1717 -0.0287
  262MOL0     C36065   4.800   9.480   6.104 -0.3088  0.4325 -0.4141
  262MOL0     O36066   4.564   9.646   6.177 -0.1631  0.1079 -0.2631
  262MOL0     C36067   4.331   9.515   5.948 -0.2149  0.1286 -0.1417
  262MOL0     C36068   4.221   9.560   5.877  0.8880 -0.0613 -0.0925
  262MOL0     N36069   3.646   9.522   5.310  0.9802  0.5787  0.3025
  262MOL0     N36070   3.551   9.488   5.231 -0.5134  0.6362 -0.0252
  262MOL0     C36071   2.994   8.791   4.864  0.6692 -0.6040  0.0344
  262MOL0     C36072   2.943   8.680   4.797 -0.4138 -0.2277  0.1564
  262MOL0     C36073   2.676   8.425   4.532  0.0507 -0.7920  0.0977
  262MOL0     C36074   2.723   8.325   4.619  0.6768 -0.2203 -0.2962
  262MOL0     C36075   2.661   8.197   4.621  0.6298  0.2300 -0.0858
  262MOL0     C36076   2.569   8.169   4.521  0.1622  0.7744  0.5255
  262MOL0     O36077   2.505   8.048   4.504 -0.2114  0.3209  0.3763
  262MOL0     C36078   2.497   7.963   4.616  0.2132  0.1407 -0.2545
  262MOL0     C36079   2.401   8.025   4.724  0.1527 -0.1270 -0.0646
  262MOL0     C36080   2.249   8.005   4.700  0.4017  0.5104  0.3464
  262MOL0     C36081   2.190   7.863   4.704  0.6508  0.2144 -0.1312
  262MOL0     C36082   2.223   7.780   4.824  1.1017  0.2540 -0.5465
  262MOL0     C36083   2.241   7.711   4.913 -0.3727  0.8633  0.4512
  262MOL0     C36084   2.529   8.262   4.427 -0.7378  0.8596  0.5628
  262MOL0     C36085   2.584   8.389   4.430  0.1156 -0.6422 -0.4517
  262MOL0     C36086   2.537   8.466   4.317  0.3324 -0.1754  0.4886
  262MOL0     H36087   2.883   8.826   4.486 -1.3435 -2.7299 -0.1458
  262MOL0     H36088   2.945   9.033   4.620  0.6202  0.4888 -0.1600
  262MOL0     H36089   3.219   8.983   4.903 -1.8843  0.4557 -4.0377
  262MOL0     H36090   3.110   8.986   5.050 -1.5167  3.1381  0.8796
  262MOL0     H36091   3.095   9.230   5.023 -0.1190 -0.1494  3.2780
  262MOL0     H36092   3.263   9.183   5.036 -0.5014 -0.3019 -0.2557
  262MOL0     H36093   3.278   9.189   4.785 -1.1522  0.9918 -2.5522
  262MOL0     H36094   3.102   9.244   4.781 -0.1546 -0.2423  0.7354
  262MOL0     H36095   3.223   9.428   4.743  1.6405 -1.8482 -1.2493
  262MOL0     H36096   3.157   9.444   4.910 -0.4754 -0.7865 -0.3369
  262MOL0     H36097   3.443   9.381   4.825 -0.1631  0.3096 -0.7108
  262MOL0     H36098   3.387   9.367   4.998  0.1340 -1.4669  0.2750
  262MOL0     H36099   3.505   9.567   4.936 -0.0311 -0.5609 -1.7101
  262MOL0     H36100   3.380   9.605   4.824 -0.7625  1.6078  0.7800
  262MOL0     H36101   3.207   9.629   4.985  1.6042  0.4028 -1.9685
  262MOL0     H36102   3.340   9.737   5.033  1.0696 -0.7582  0.7743
  262MOL0     H36103   3.243   9.607   5.229 -0.2754  0.7641 -0.5158
  262MOL0     H36104   3.297   9.456   5.169  0.7884 -0.5834  1.3864
  262MOL0     H36105   3.426   9.757   5.356 -0.7024 -0.8082 -1.4275
  262MOL0     H36106   3.634   9.739   5.572 -1.0253 -3.6577  0.0754
  262MOL0     H36107   3.728   9.810   5.437  0.4329 -0.9208 -1.6262
  262MOL0     H36108   3.800   9.549   5.569  2.2119 -0.3813 -2.0553
  262MOL0     H36109   3.875   9.622   5.433 -0.3134  0.5041 -0.5702
  262MOL0     H36110   3.940   9.818   5.577  0.2557 -0.0408  1.1265
  262MOL0     H36111   3.821   9.781   5.696  2.0368 -0.4561  2.7596
  262MOL0     H36112   3.964   9.577   5.763  1.6628 -3.4751 -1.7351
  262MOL0     H36113   4.060   9.590   5.620  0.3622  0.5562 -0.1067
  262MOL0     H36114   4.288   9.890   5.845  3.0010  1.6740  1.8486
  262MOL0     H36115   4.500   9.938   5.944 -2.4966  1.6927  0.2705
  262MOL0     H36116   4.586   9.835   6.051 -0.2884 -2.4944 -0.1411
  262MOL0     H36117   4.437   9.914   6.111  0.5492  0.2291  0.0246
  262MOL0     H36118   4.602   9.260   6.269 -0.7473  1.1470  0.6159
  262MOL0     H36119   4.818   9.231   6.388  1.0384  0.5375  0.6696
  262MOL0     H36120   5.176   9.399   6.190 -2.8653 -2.0212 -0.6087
  262MOL0     H36121   5.176   9.462   6.351 -1.4784  0.8909  0.0317
  262MOL0     H36122   5.225   9.193   6.393 -1.5604  2.6147  1.8136
  262MOL0     H36123   5.297   9.214   6.221  1.3277 -0.9687  1.1021
  262MOL0     H36124   5.375   9.351   6.469  0.0046  0.4153 -0.4189
  262MOL0     H36125   5.456   9.385   6.313  0.6750  0.0521  1.4236
  262MOL0     H36126   5.541   9.162   6.301  3.6830 -1.9098  2.5545
  262MOL0     H36127   5.459   9.125   6.456  1.2624 -0.9237 -0.5291
  262MOL0     H36128   5.659   9.338   6.403  0.8204 -1.1322 -0.7348
  262MOL0     H36129   5.586   9.302   6.565 -2.4829  3.9564 -2.3395
  262MOL0     H36130   5.753   9.139   6.379 -3.3360 -1.5937 -1.1252
  262MOL0     H36131   5.697   9.086   6.538  1.1432 -1.5535 -1.7068
  262MOL0     H36132   5.838   9.280   6.647  1.1449 -1.2515  0.7367
  262MOL0     H36133   5.911   9.315   6.481 -0.9072  2.1642  1.6945
  262MOL0     H36134   5.986   9.088   6.456  3.7909  1.2036  0.5773
  262MOL0     H36135   5.927   9.026   6.607  1.4842 -0.7707  1.5974
  262MOL0     H36136   5.017   9.493   6.128  1.6146 -1.6939  2.1414
  262MOL0     H36137   4.794   9.558   6.029  0.0855 -1.3289 -2.3817
  262MOL0     H36138   4.337   9.412   5.983  0.3296  1.0341  2.6978
  262MOL0     H36139   4.153   9.485   5.837  1.3508 -0.3598 -0.3190
  262MOL0     H36140   3.014   8.781   4.970  1.1251 -0.9302 -0.0768
  262MOL0     H36141   2.937   8.582   4.842  0.8002  0.4315  1.8582
  262MOL0     H36142   2.795   8.342   4.699  3.0496  1.0045 -2.5359
  262MOL0     H36143   2.690   8.116   4.688  0.5767 -0.5864 -1.0284
  262MOL0     H36144   2.468   7.865   4.579 -2.4060  1.0783 -0.8843
  262MOL0     H36145   2.595   7.948   4.663  0.0607  0.6841  0.2475
  262MOL0     H36146   2.415   8.133   4.731 -1.7454  0.2322 -0.9958
  262MOL0     H36147   2.423   7.977   4.820 -0.8351 -1.4481 -0.4607
  262MOL0     H36148   2.208   8.062   4.784 -3.3475  0.6881 -1.3862
  262MOL0     H36149   2.212   8.057   4.611  0.7949  0.5176  0.1834
  262MOL0     H36150   2.224   7.797   4.623  1.4687 -0.4064  0.6917
  262MOL0     H36151   2.081   7.868   4.696  0.7176  0.1053 -1.1604
  262MOL0     H36152   2.284   7.651   4.991 -0.5801 -0.6831 -0.5763
  262MOL0     H36153   2.456   8.234   4.352  0.3927  1.0613 -0.6518
  262MOL0     H36154   2.523   8.408   4.224  4.0369 -0.2839 -0.1412
  262MOL0     H36155   2.443   8.506   4.355  1.0494 -0.4826  2.6843
  262MOL0     H36156   2.610   8.543   4.293  0.9431 -0.0763  2.5144
  263MOL0     O36157   3.193   0.440   4.732  0.1176  0.0403 -0.1878
  263MOL0     C36158   3.134   0.404   4.835  0.2294  0.6135 -0.7198
  263MOL0     O36159   3.001   0.413   4.856  0.2216 -1.2029  0.3356
  263MOL0     C36160   2.928   0.477   4.759 -0.4777  1.3627 -0.2494
  263MOL0     C36161   2.795   0.428   4.755  0.3113 -1.0423 -0.1080
  263MOL0     C36162   2.706   0.474   4.662  0.4819  0.2104 -0.1188
  263MOL0     C36163   2.746   0.579   4.577 -0.5122 -0.2477 -0.1176
  263MOL0     O36164   2.662   0.630   4.479 -0.3817 -0.6791 -0.0959
  263MOL0     C36165   2.543   0.562   4.440  0.1416  0.2195  0.0797
  263MOL0     C36166   2.493   0.635   4.319 -0.2498  0.3465  0.1719
  263MOL0     C36167   2.567   0.597   4.184  0.0001  0.3533 -0.2151
  263MOL0     C36168   2.508   0.676   4.063 -0.5001 -0.0100  0.2129
  263MOL0     C36169   2.614   0.677   3.943 -0.3557  1.0610  0.3032
  263MOL0     C36170   2.649   0.537   3.892 -0.1092 -0.1734 -0.3912
  263MOL0     C36171   2.720   0.555   3.757 -0.9014 -0.2440  0.8751
  263MOL0     C36172   2.872   0.579   3.764 -0.6338 -0.3605  0.0372
  263MOL0     N36173   2.911   0.713   3.813 -0.0348 -0.0763 -0.8891
  263MOL0     C36174   2.860   0.830   3.772 -0.7113 -0.0692  0.5633
  263MOL0     C36175   2.922   0.918   3.852  0.9101 -0.7362 -0.4400
  263MOL0     C36176   2.900   1.060   3.849 -0.3106  0.1325 -0.7581
  263MOL0     C36177   2.954   1.126   3.725  0.4155 -0.7984 -0.5451
  263MOL0     C36178   3.114   1.118   3.725 -0.2926  0.2518  0.6244
  263MOL0     C36179   3.180   1.234   3.653  0.1015  0.5973  0.3880
  263MOL0     O36180   3.321   1.207   3.614 -0.5443  0.2674  0.1948
  263MOL0     C36181   3.388   1.321   3.579  0.4555  0.6057 -0.0943
  263MOL0     C36182   3.345   1.457   3.567  0.1882 -0.3906  0.3773
  263MOL0     C36183   3.433   1.559   3.530 -0.5561  0.2314 -0.4605
  263MOL0     C36184   3.379   1.701   3.514  0.5461 -0.3313  0.0147
  263MOL0     C36185   3.561   1.540   3.478 -0.6835 -0.4203  0.0597
  263MOL0     C36186   3.657   1.640   3.416  1.6513 -0.1349  0.7968
  263MOL0     O36187   3.756   1.583   3.343 -0.0891 -0.5801  0.2753
  263MOL0     C36188   3.848   1.660   3.271  0.2391 -0.7863 -0.0510
  263MOL0     C36189   3.979   1.608   3.270  0.4907  0.8771 -0.2614
  263MOL0     C36190   4.083   1.685   3.212 -0.3090  0.3861  0.0539
  263MOL0     C36191   4.060   1.798   3.146 -1.4186 -0.9320  0.1338
  263MOL0     O36192   4.175   1.849   3.087  0.7295 -0.3515 -0.4101
  263MOL0     C36193   4.172   1.992   3.083  0.3586  0.5523  0.0503
  263MOL0     C36194   4.313   2.036   3.051  0.5182 -1.0396 -0.8766
  263MOL0     C36195   4.313   2.192   3.038 -0.1524  0.5291  0.2174
  263MOL0     C36196   4.432   2.242   3.113 -0.3576 -0.2750  0.1814
  263MOL0     C36197   4.455   2.394   3.100  0.1663 -0.2052 -0.1996
  263MOL0     C36198   4.557   2.434   3.203 -0.5787 -0.0392  0.0642
  263MOL0     C36199   4.563   2.592   3.215 -0.4126  0.2130 -0.0040
  263MOL0     C36200   4.687   2.638   3.286 -0.6467  0.5721  0.4389
  263MOL0    Cl36201   4.835   2.562   3.217  0.1191  0.1423 -0.2605
  263MOL0     C36202   3.933   1.852   3.146 -0.0508  1.2887 -0.8081
  263MOL0     C36203   3.831   1.790   3.213 -1.5582  1.0066 -0.1732
  263MOL0     O36204   3.644   1.758   3.445 -0.1851 -0.7335 -0.4985
  263MOL0     C36205   3.606   1.414   3.487  0.2821 -0.1017 -0.0815
  263MOL0     C36206   3.524   1.306   3.543  1.1061 -1.2507  0.5073
  263MOL0     N36207   3.016   0.860   3.931 -0.2464 -0.3666  0.0968
  263MOL0     N36208   3.004   0.733   3.912 -0.0348 -0.9055 -0.2903
  263MOL0     C36209   2.869   0.631   4.590 -0.7366  0.1448  0.1725
  263MOL0     C36210   2.964   0.587   4.682  0.6896  0.2973 -0.3850
  263MOL0     C36211   3.202   0.335   4.941 -1.0530 -0.0425 -0.4056
  263MOL0     C36212   3.128   0.296   5.049 -0.5088 -0.5279 -0.0128
  263MOL0     C36213   3.186   0.216   5.145  0.2121 -0.3060  0.6751
  263MOL0     C36214   3.324   0.195   5.150 -0.2972  0.1232 -0.1459
  263MOL0     O36215   3.383   0.118   5.249  0.5092 -0.7302 -0.3147
  263MOL0     C36216   3.302   0.050   5.351  0.2487  0.2464  0.1161
  263MOL0     C36217   3.263   0.116   5.481 -0.8899 -0.2360  0.6635
  263MOL0     C36218   3.131   0.070   5.546 -0.1593 -0.4481 -0.7247
  263MOL0     C36219   3.133  -0.073   5.597  0.2793 -0.6540 -0.4973
  263MOL0     C36220   3.246  -0.091   5.679  0.1374 -0.0180  0.4269
  263MOL0     C36221   3.350  -0.092   5.744  0.0752  0.1574 -0.1941
  263MOL0     C36222   3.397   0.251   5.046  0.1258  0.4820 -1.2703
  263MOL0     C36223   3.345   0.319   4.941  0.3036 -0.6560 -0.3226
  263MOL0     C36224   3.446   0.366   4.836 -0.6816 -0.0412  0.2308
  263MOL0     H36225   2.768   0.348   4.823 -1.9020 -2.4010 -2.3888
  263MOL0     H36226   2.601   0.445   4.654  0.7795 -0.7576 -0.6390
  263MOL0     H36227   2.463   0.575   4.514 -0.7815  0.6202 -0.9609
  263MOL0     H36228   2.564   0.460   4.407  1.0891  0.9628 -1.7243
  263MOL0     H36229   2.387   0.618   4.301 -0.2637  1.0406 -0.4537
  263MOL0     H36230   2.509   0.742   4.328  2.0449  0.3771 -2.7652
  263MOL0     H36231   2.673   0.624   4.198  0.3742 -1.5658  0.9479
  263MOL0     H36232   2.571   0.489   4.166 -1.4846 -0.1321  2.0113
  263MOL0     H36233   2.409   0.651   4.025  0.0617 -0.9208 -0.7232
  263MOL0     H36234   2.507   0.781   4.095  3.0918  0.3194 -0.3197
  263MOL0     H36235   2.699   0.738   3.975  1.0570 -2.1099  3.2412
  263MOL0     H36236   2.570   0.732   3.859 -2.4816 -0.6457  0.1958
  263MOL0     H36237   2.726   0.498   3.958 -1.2643  1.0200  1.7492
  263MOL0     H36238   2.552   0.485   3.892 -0.3337  0.2100  1.2560
  263MOL0     H36239   2.679   0.635   3.695  2.1345  0.6407 -0.1847
  263MOL0     H36240   2.713   0.465   3.695  0.5562 -0.5200  1.0673
  263MOL0     H36241   2.915   0.498   3.825 -3.4901 -1.0955  1.2159
  263MOL0     H36242   2.923   0.583   3.668  0.1181  0.2280  0.4514
  263MOL0     H36243   2.788   0.847   3.693 -1.6809 -3.0010  0.6763
  263MOL0     H36244   2.943   1.111   3.936 -0.7514 -0.2519 -0.3097
  263MOL0     H36245   2.791   1.067   3.855 -0.4291 -0.9710 -1.2796
  263MOL0     H36246   2.908   1.081   3.636  0.2382 -1.4115 -0.1505
  263MOL0     H36247   2.925   1.231   3.728 -0.2911 -1.0152  0.5431
  263MOL0     H36248   3.151   1.123   3.828 -2.3592  0.0711  1.4233
  263MOL0     H36249   3.150   1.018   3.698 -2.0220 -0.8411  2.1189
  263MOL0     H36250   3.120   1.269   3.568  0.9936  0.5217 -0.3002
  263MOL0     H36251   3.171   1.325   3.713  2.2445  1.3921 -0.3704
  263MOL0     H36252   3.246   1.496   3.586  0.6590  0.3167  1.5019
  263MOL0     H36253   3.386   1.724   3.407  0.1416  0.8146  0.2166
  263MOL0     H36254   3.438   1.771   3.575  0.6573  0.3662 -0.8556
  263MOL0     H36255   3.278   1.714   3.554  0.6827  0.3660  0.1583
  263MOL0     H36256   3.980   1.512   3.320 -2.8867 -0.2920 -2.1265
  263MOL0     H36257   4.183   1.644   3.224 -0.7066 -0.2805  1.3154
  263MOL0     H36258   4.102   2.031   3.008 -1.1884 -2.1775 -0.0620
  263MOL0     H36259   4.148   2.037   3.179  0.4111  1.1077 -0.1921
  263MOL0     H36260   4.377   1.999   3.131 -1.4717 -0.4740  1.1134
  263MOL0     H36261   4.332   2.000   2.950  1.9837  0.7218 -1.2846
  263MOL0     H36262   4.226   2.224   3.095  0.8590 -1.0536  2.8395
  263MOL0     H36263   4.304   2.227   2.935  0.7214  0.3806  0.0827
  263MOL0     H36264   4.523   2.187   3.085 -0.8919 -1.7235  1.1650
  263MOL0     H36265   4.408   2.226   3.218 -4.2730  0.3145 -0.4802
  263MOL0     H36266   4.486   2.422   2.999 -1.9821 -1.2701 -1.2305
  263MOL0     H36267   4.361   2.442   3.129  0.2671 -1.0233  1.6209
  263MOL0     H36268   4.654   2.394   3.170  1.1438  3.0841  0.8968
  263MOL0     H36269   4.537   2.402   3.305  0.6059  1.9113  0.9541
  263MOL0     H36270   4.477   2.633   3.269 -0.1200  1.5861 -0.5452
  263MOL0     H36271   4.561   2.640   3.117 -1.7814  2.2722  0.9624
  263MOL0     H36272   4.670   2.597   3.386 -3.2540  1.0784  0.2776
  263MOL0     H36273   4.695   2.747   3.292  1.1220  0.5500 -0.7512
  263MOL0     H36274   3.905   1.933   3.078 -0.3378  1.0273 -1.0071
  263MOL0     H36275   3.731   1.833   3.208 -2.9357 -1.6152  2.0076
  263MOL0     H36276   3.701   1.383   3.445  0.4459 -0.2907  0.4240
  263MOL0     H36277   3.557   1.204   3.555 -1.7019 -2.0538  2.2636
  263MOL0     H36278   2.902   0.716   4.531  0.5751  0.2692  1.0251
  263MOL0     H36279   3.058   0.640   4.689  0.4464  0.7473 -0.5090
  263MOL0     H36280   3.020   0.297   5.058 -0.4502 -2.5234  1.6631
  263MOL0     H36281   3.118   0.173   5.218 -2.2068  1.2758 -0.5205
  263MOL0     H36282   3.201   0.026   5.316  0.6015  1.0404 -1.5144
  263MOL0     H36283   3.358  -0.041   5.371 -0.7376 -0.1449  1.2955
  263MOL0     H36284   3.245   0.218   5.448 -1.5573 -0.9782 -1.4499
  263MOL0     H36285   3.342   0.120   5.556 -1.2048 -0.5163  1.0208
  263MOL0     H36286   3.128   0.127   5.640  0.2263 -1.7334  0.0884
  263MOL0     H36287   3.043   0.105   5.491 -2.1758 -0.8595  1.9799
  263MOL0     H36288   3.132  -0.141   5.511  1.0811 -0.8853 -0.3293
  263MOL0     H36289   3.043  -0.095   5.655 -1.5535 -0.6022 -3.1328
  263MOL0     H36290   3.444  -0.097   5.795  1.3199 -0.9445 -2.4413
  263MOL0     H36291   3.496   0.207   5.040 -0.3478 -0.7999 -0.3049
  263MOL0     H36292   3.407   0.321   4.745 -2.8012  0.6487  0.7228
  263MOL0     H36293   3.448   0.476   4.830 -0.9288 -0.0308  0.3395
  263MOL0     H36294   3.548   0.332   4.853 -0.0336  1.0795 -1.1705
  264MOL0     O36295   0.412   5.035   5.674  0.1020  0.4988 -0.4058
  264MOL0     C36296   0.353   5.089   5.762  0.2453  0.9842 -0.1076
  264MOL0     O36297   0.407   5.128   5.881  0.4870  0.1866  0.2238
  264MOL0     C36298   0.546   5.142   5.903 -0.1725 -0.4095 -0.0874
  264MOL0     C36299   0.587   5.154   6.036 -0.5687 -0.6517 -0.3305
  264MOL0     C36300   0.720   5.161   6.071 -0.5339 -1.0619 -0.1685
  264MOL0     C36301   0.816   5.144   5.974  0.4746  1.0816  0.2426
  264MOL0     O36302   0.948   5.134   6.011  0.2300  0.1552  0.1532
  264MOL0     C36303   0.986   5.215   6.124 -0.4928  0.7692 -0.1123
  264MOL0     C36304   1.137   5.245   6.126 -0.4149 -0.4715 -0.1400
  264MOL0     C36305   1.180   5.335   6.247  0.4433 -0.0714 -0.3217
  264MOL0     C36306   1.261   5.455   6.185 -0.0546  0.1613  0.0622
  264MOL0     C36307   1.384   5.408   6.104  0.2276 -0.5196  0.1531
  264MOL0     C36308   1.484   5.523   6.086  0.2824  0.1521 -0.1553
  264MOL0     C36309   1.453   5.648   5.991  0.6681  0.4530 -0.2072
  264MOL0     C36310   1.429   5.605   5.837  0.0539 -0.0087  0.3252
  264MOL0     N36311   1.552   5.610   5.757  0.3406 -1.1148  0.1489
  264MOL0     C36312   1.617   5.724   5.704 -0.2353  0.2513 -0.1493
  264MOL0     C36313   1.683   5.681   5.598  0.0288 -0.6245  0.1860
  264MOL0     C36314   1.746   5.775   5.493  0.2187  0.1203 -0.5482
  264MOL0     C36315   1.893   5.745   5.475  0.5769  0.4483 -0.4595
  264MOL0     C36316   1.977   5.762   5.604 -0.4546 -0.2503  0.2236
  264MOL0     C36317   2.125   5.784   5.581 -0.4958 -0.4638 -0.1808
  264MOL0     O36318   2.141   5.905   5.504  0.3886 -0.6988  0.3675
  264MOL0     C36319   2.265   5.947   5.484 -0.0931 -0.5564 -0.4687
  264MOL0     C36320   2.270   6.073   5.427 -0.3684 -0.3604  0.0203
  264MOL0     C36321   2.401   6.134   5.406 -0.4677  0.6532  0.6395
  264MOL0     C36322   2.401   6.271   5.352  0.2575 -0.5332 -0.5778
  264MOL0     C36323   2.522   6.065   5.440  0.6898 -0.6840 -0.0066
  264MOL0     C36324   2.658   6.124   5.434  0.2959 -0.0244 -0.0723
  264MOL0     O36325   2.747   6.067   5.518 -0.3143  0.2562 -0.7504
  264MOL0     C36326   2.879   6.103   5.510 -0.1801 -0.2948  0.4369
  264MOL0     C36327   2.927   6.187   5.606 -0.2977  0.1417 -0.7395
  264MOL0     C36328   3.065   6.228   5.605 -0.0596 -0.0531  0.0799
  264MOL0     C36329   3.147   6.173   5.510 -0.4721 -0.3613  0.3255
  264MOL0     O36330   3.279   6.214   5.522 -0.2978  0.4469  0.9288
  264MOL0     C36331   3.380   6.140   5.448  0.9114  0.6706  0.7058
  264MOL0     C36332   3.517   6.185   5.503 -0.6512 -0.2768  0.0530
  264MOL0     C36333   3.543   6.146   5.646  0.6172  0.7266 -0.6208
  264MOL0     C36334   3.659   6.043   5.653  0.1258 -0.0803  0.1720
  264MOL0     C36335   3.707   6.004   5.796 -0.1234 -0.4017 -0.6303
  264MOL0     C36336   3.788   6.119   5.848 -0.7460 -0.1606 -0.0367
  264MOL0     C36337   3.918   6.087   5.927  0.4064 -0.3121 -0.6694
  264MOL0     C36338   4.032   6.027   5.838  0.1182 -0.4301 -0.2998
  264MOL0    Cl36339   4.098   6.136   5.727  0.1901 -0.3915  0.2067
  264MOL0     C36340   3.099   6.094   5.405 -0.7065  1.0163 -0.0455
  264MOL0     C36341   2.965   6.055   5.413 -0.6772 -0.3775  0.2441
  264MOL0     O36342   2.690   6.216   5.355 -0.3819 -0.2243 -0.1199
  264MOL0     C36343   2.502   5.937   5.499  0.4526 -0.4097 -0.0794
  264MOL0     C36344   2.379   5.874   5.509 -0.2540  1.4668  0.1728
  264MOL0     N36345   1.679   5.545   5.592  0.4286  0.3025 -0.2416
  264MOL0     N36346   1.598   5.503   5.687  0.1435 -0.0961  0.0552
  264MOL0     C36347   0.783   5.133   5.839 -0.7192  0.0444 -0.6787
  264MOL0     C36348   0.648   5.129   5.799 -0.5441  0.2184 -0.2285
  264MOL0     C36349   0.203   5.085   5.746  0.1744 -0.4919 -1.0782
  264MOL0     C36350   0.123   5.132   5.861 -0.0029  0.0572  0.0593
  264MOL0     C36351  -0.020   5.137   5.855  0.2007 -0.0070  0.7719
  264MOL0     C36352  -0.090   5.093   5.745  0.3629 -0.5671  0.0300
  264MOL0     O36353  -0.227   5.095   5.752  0.3364 -0.1056  0.6524
  264MOL0     C36354  -0.314   5.034   5.655 -0.0705 -0.3379  0.1767
  264MOL0     C36355  -0.429   4.984   5.747 -0.1882 -1.1160 -0.0376
  264MOL0     C36356  -0.509   4.870   5.697  1.0441  0.5406  0.1142
  264MOL0     C36357  -0.548   4.874   5.544  0.5075 -0.0682 -0.0420
  264MOL0     C36358  -0.629   4.997   5.516 -0.6886  0.6369  1.1749
  264MOL0     C36359  -0.694   5.097   5.507 -0.4104  0.2556  0.2132
  264MOL0     C36360  -0.011   5.046   5.636  0.4394 -0.0236  0.3715
  264MOL0     C36361   0.134   5.051   5.628  0.6701  1.1064  0.1471
  264MOL0     C36362   0.207   4.993   5.514 -0.4378 -0.3724  0.3827
  264MOL0     H36363   0.514   5.143   6.116  0.0183 -1.6796  0.0732
  264MOL0     H36364   0.728   5.182   6.177 -2.1406  5.0771 -0.8535
  264MOL0     H36365   0.951   5.172   6.218 -0.4686 -1.7293 -1.1728
  264MOL0     H36366   0.931   5.309   6.131 -0.1392  0.9452  0.3638
  264MOL0     H36367   1.198   5.154   6.128 -0.0133 -0.1898  1.3547
  264MOL0     H36368   1.158   5.294   6.030 -0.4605 -0.4571 -0.1426
  264MOL0     H36369   1.094   5.378   6.300 -0.7761  1.3237 -3.2102
  264MOL0     H36370   1.246   5.267   6.301 -0.5901 -0.6293  0.2505
  264MOL0     H36371   1.196   5.521   6.127 -1.9597 -1.4698  0.2746
  264MOL0     H36372   1.293   5.511   6.274 -0.9372 -0.5670  0.8609
  264MOL0     H36373   1.362   5.388   5.999  0.6361  0.3949 -0.1109
  264MOL0     H36374   1.431   5.324   6.156  1.2145  0.3970  0.7888
  264MOL0     H36375   1.491   5.565   6.187  0.0620 -0.6930  0.2184
  264MOL0     H36376   1.583   5.483   6.060  1.6072  2.7504  0.5800
  264MOL0     H36377   1.538   5.716   5.986 -0.7155  2.1634 -2.0418
  264MOL0     H36378   1.368   5.700   6.036  0.8946  1.1392 -0.5612
  264MOL0     H36379   1.367   5.516   5.823 -3.4316  1.9818  1.9167
  264MOL0     H36380   1.367   5.683   5.794 -0.3179 -0.7706 -0.5445
  264MOL0     H36381   1.591   5.822   5.743 -2.0057 -0.8082  1.5269
  264MOL0     H36382   1.738   5.878   5.528  1.2362  0.8700 -2.3611
  264MOL0     H36383   1.684   5.765   5.402  1.0883  2.1489 -1.4231
  264MOL0     H36384   1.898   5.642   5.440  1.2785 -0.3475  1.8036
  264MOL0     H36385   1.934   5.809   5.397 -0.4361  1.6256 -0.0642
  264MOL0     H36386   1.934   5.845   5.661 -0.2298 -1.2866  1.9681
  264MOL0     H36387   1.971   5.675   5.670  0.1121 -1.5890 -1.4107
  264MOL0     H36388   2.174   5.783   5.678 -2.8946  0.6660  1.1312
  264MOL0     H36389   2.159   5.701   5.519  0.6489 -2.3408  2.7520
  264MOL0     H36390   2.182   6.134   5.411  0.4402  0.9916  0.5226
  264MOL0     H36391   2.459   6.282   5.260  1.2309  3.9192  0.3363
  264MOL0     H36392   2.435   6.343   5.428 -1.3582 -0.5252  0.1808
  264MOL0     H36393   2.301   6.303   5.324  1.9759  5.5056 -1.3123
  264MOL0     H36394   2.856   6.220   5.681 -1.1480  1.0593 -1.9113
  264MOL0     H36395   3.108   6.289   5.683 -3.6843  3.9293 -0.6202
  264MOL0     H36396   3.371   6.033   5.467  0.7880  0.5102 -0.2324
  264MOL0     H36397   3.370   6.162   5.342 -1.4701  0.0865  0.7428
  264MOL0     H36398   3.592   6.136   5.440 -1.2339 -1.6257  0.3983
  264MOL0     H36399   3.517   6.294   5.488 -4.0337 -0.1567  0.3370
  264MOL0     H36400   3.449   6.102   5.682  0.7326 -3.1008 -4.2521
  264MOL0     H36401   3.567   6.232   5.710 -0.4458 -1.0101  2.3358
  264MOL0     H36402   3.745   6.083   5.599 -1.6982  1.4403 -1.8260
  264MOL0     H36403   3.617   5.952   5.609 -1.8117  1.1245 -0.6143
  264MOL0     H36404   3.623   5.989   5.865 -0.5681  2.2989 -0.4546
  264MOL0     H36405   3.767   5.913   5.806  0.1262 -0.0054  2.7039
  264MOL0     H36406   3.726   6.166   5.924  1.9870 -0.3478  2.4875
  264MOL0     H36407   3.814   6.190   5.769  1.0942  0.3855  0.9978
  264MOL0     H36408   3.898   6.007   5.998 -1.0416 -1.9350 -2.7825
  264MOL0     H36409   3.949   6.169   5.992  1.1189 -1.5935  0.6712
  264MOL0     H36410   3.999   5.936   5.786  0.5364 -0.8178  0.1028
  264MOL0     H36411   4.118   6.001   5.900  1.8190  3.3341 -0.8361
  264MOL0     H36412   3.167   6.056   5.329 -0.9063  1.9687 -0.7182
  264MOL0     H36413   2.920   5.995   5.335 -2.3766  1.9574 -0.7168
  264MOL0     H36414   2.584   5.875   5.533  2.1089  0.7917 -1.6792
  264MOL0     H36415   2.388   5.774   5.550  0.0507  0.7760 -1.4819
  264MOL0     H36416   0.863   5.128   5.766 -0.3470  1.7740 -0.4262
  264MOL0     H36417   0.632   5.123   5.692 -0.3045  2.8475 -0.4961
  264MOL0     H36418   0.171   5.171   5.950  0.0728 -1.9623  0.9505
  264MOL0     H36419  -0.076   5.174   5.940  1.8361  0.3793  1.7298
  264MOL0     H36420  -0.353   5.109   5.585  1.1121  0.8833  0.7661
  264MOL0     H36421  -0.267   4.956   5.595  1.4187 -0.2120  1.1114
  264MOL0     H36422  -0.497   5.068   5.764  0.8609  0.4379 -2.9466
  264MOL0     H36423  -0.382   4.961   5.843  2.5940 -1.4200 -1.3581
  264MOL0     H36424  -0.468   4.773   5.726 -1.6309 -1.2391 -1.5743
  264MOL0     H36425  -0.606   4.864   5.748  1.0728 -0.0883  0.1122
  264MOL0     H36426  -0.605   4.782   5.529 -0.7292  0.9130 -1.7562
  264MOL0     H36427  -0.459   4.866   5.481  0.9182  1.0042  0.3680
  264MOL0     H36428  -0.754   5.185   5.518 -0.2595  0.3246  0.5021
  264MOL0     H36429  -0.056   5.012   5.544 -0.9211  0.1453  0.9498
  264MOL0     H36430   0.148   4.965   5.426  0.2117  0.7550 -0.4358
  264MOL0     H36431   0.288   5.060   5.486 -2.4503  2.1984  0.3040
  264MOL0     H36432   0.255   4.904   5.553 -0.1670 -0.8417 -0.9571
  265MOL0     O36433   4.892   6.546  11.162  0.1381  0.6433  0.4706
  265MOL0     C36434   4.819   6.512  11.066  0.5159 -1.2128  0.5619
  265MOL0     O36435   4.845   6.535  10.930  0.7818 -0.7344  0.5548
  265MOL0     C36436   4.967   6.591  10.911 -0.4100 -0.1884 -0.1711
  265MOL0     C36437   5.086   6.510  10.905 -0.1614  0.5332 -0.0340
  265MOL0     C36438   5.206   6.561  10.864 -0.0173  0.8960 -0.2744
  265MOL0     C36439   5.211   6.689  10.809 -0.8317  0.0822  1.1270
  265MOL0     O36440   5.330   6.742  10.755 -0.1566 -0.0649 -0.5352
  265MOL0     C36441   5.319   6.841  10.648  0.1259  0.1829 -0.3660
  265MOL0     C36442   5.456   6.889  10.597 -0.3029 -0.2994 -0.5353
  265MOL0     C36443   5.537   6.771  10.532  0.1723 -0.0805  0.4712
  265MOL0     C36444   5.650   6.834  10.454  0.7719 -0.1381 -0.2604
  265MOL0     C36445   5.742   6.717  10.413 -0.5785 -0.0456 -0.7841
  265MOL0     C36446   5.830   6.753  10.302  0.1945  0.1422  0.0193
  265MOL0     C36447   5.945   6.847  10.349 -0.5021  0.0731  0.0829
  265MOL0     C36448   6.031   6.908  10.234  0.1030 -0.3653  0.6491
  265MOL0     N36449   6.136   7.003  10.276 -0.0831  0.2774  0.4618
  265MOL0     C36450   6.251   6.960  10.346  0.6910 -0.7303  0.0760
  265MOL0     C36451   6.315   7.070  10.388 -0.5654  1.1520 -0.1424
  265MOL0     C36452   6.450   7.073  10.458 -0.0307  0.0066 -0.3298
  265MOL0     C36453   6.550   7.172  10.396 -0.5725  0.5080  0.4756
  265MOL0     C36454   6.620   7.120  10.270 -0.5969  0.4122 -0.2034
  265MOL0     C36455   6.722   7.214  10.210  0.2007 -0.0332 -0.3968
  265MOL0     O36456   6.820   7.262  10.308  0.1597  0.4057 -0.0478
  265MOL0     C36457   6.915   7.351  10.264 -0.1091 -0.3994 -0.2555
  265MOL0     C36458   6.940   7.379  10.127 -0.4145  0.7801  0.3344
  265MOL0     C36459   7.054   7.453  10.093  0.2151 -0.1279 -0.2777
  265MOL0     C36460   7.080   7.474   9.949 -0.4405  0.2459  0.3048
  265MOL0     C36461   7.136   7.502  10.191  0.5237 -0.5812  0.3907
  265MOL0     C36462   7.255   7.589  10.158 -0.0817 -0.9278  0.7241
  265MOL0     O36463   7.232   7.694  10.071  0.2983 -0.5147  0.5634
  265MOL0     C36464   7.336   7.777  10.041 -0.2710 -0.2523  0.1897
  265MOL0     C36465   7.436   7.733   9.961 -0.0731 -0.5204  0.1922
  265MOL0     C36466   7.539   7.816   9.918  0.3218 -0.3200 -0.4335
  265MOL0     C36467   7.532   7.952   9.955  0.4867 -0.3713  0.6842
  265MOL0     O36468   7.637   8.035   9.934  0.2072  0.5315  0.0217
  265MOL0     C36469   7.751   8.004  10.019  0.2591 -0.7890  0.2525
  265MOL0     C36470   7.845   8.126  10.034 -0.2328 -0.3930  0.4164
  265MOL0     C36471   7.907   8.170   9.893  0.4444  0.6930 -1.9580
  265MOL0     C36472   7.995   8.301   9.913  0.3050  0.6723  0.4047
  265MOL0     C36473   8.061   8.355   9.784 -0.3505 -0.4040 -0.3440
  265MOL0     C36474   8.123   8.489   9.795 -0.5545  0.0390 -1.3398
  265MOL0     C36475   8.232   8.480   9.902 -0.1736 -0.1459  0.5399
  265MOL0     C36476   8.285   8.624   9.942 -0.1903  0.2948  0.1452
  265MOL0    Cl36477   8.379   8.703   9.815  0.0278  0.1415 -0.0510
  265MOL0     C36478   7.425   8.000  10.029  0.0104 -0.2661 -0.7808
  265MOL0     C36479   7.327   7.913  10.076  0.0713 -0.8565 -0.6791
  265MOL0     O36480   7.363   7.547  10.198  0.7589  0.2021  0.0884
  265MOL0     C36481   7.105   7.475  10.323 -0.4051 -0.5022  0.3464
  265MOL0     C36482   7.003   7.394  10.364 -0.0190  0.4630  0.5602
  265MOL0     N36483   6.225   7.173  10.361  0.2732 -0.1885  0.3984
  265MOL0     N36484   6.124   7.136  10.292  0.4091  0.6446 -0.2978
  265MOL0     C36485   5.089   6.765  10.811 -0.3590 -0.6922  0.0696
  265MOL0     C36486   4.979   6.725  10.876  0.0933  0.4331 -0.0018
  265MOL0     C36487   4.713   6.417  11.089  0.4687 -0.6191  0.0829
  265MOL0     C36488   4.727   6.311  11.190 -0.3466  0.2746 -0.4307
  265MOL0     C36489   4.625   6.212  11.210 -1.0885 -0.6208 -0.8723
  265MOL0     C36490   4.512   6.221  11.132 -0.5157  0.7086  0.2347
  265MOL0     O36491   4.415   6.126  11.146 -0.3443  0.1561 -0.1543
  265MOL0     C36492   4.430   6.011  11.227 -0.5696  1.7287 -0.0966
  265MOL0     C36493   4.297   5.942  11.238  0.4254 -0.0500 -0.1401
  265MOL0     C36494   4.240   5.912  11.104 -0.0124  0.6623  0.4705
  265MOL0     C36495   4.102   5.851  11.107 -0.4962  0.1775 -0.3364
  265MOL0     C36496   4.109   5.704  11.144 -0.0837 -1.1014  0.3975
  265MOL0     C36497   4.097   5.590  11.162  0.1024  0.1531 -0.2558
  265MOL0     C36498   4.496   6.323  11.034  0.3899  0.0462 -0.3325
  265MOL0     C36499   4.593   6.422  11.014 -0.2810 -1.2562  0.2508
  265MOL0     C36500   4.549   6.536  10.924  0.0170  0.1592 -0.6701
  265MOL0     H36501   5.070   6.403  10.917 -0.7497  0.1335 -3.5012
  265MOL0     H36502   5.295   6.499  10.867 -1.0879 -0.6753  1.0761
  265MOL0     H36503   5.249   6.921  10.674 -1.8952 -0.7740 -2.4868
  265MOL0     H36504   5.260   6.795  10.568 -0.9765  1.8081 -0.5467
  265MOL0     H36505   5.442   6.972  10.528 -3.1221  1.1461  1.5598
  265MOL0     H36506   5.514   6.920  10.684 -0.5201  1.5532 -1.0270
  265MOL0     H36507   5.560   6.702  10.614 -2.7898 -1.4865  0.2656
  265MOL0     H36508   5.476   6.737  10.448  2.2942  1.4267 -1.8187
  265MOL0     H36509   5.596   6.887  10.375 -0.7953 -1.8718 -0.4259
  265MOL0     H36510   5.700   6.907  10.519  3.3787 -3.6534  2.0545
  265MOL0     H36511   5.688   6.632  10.369  1.1192 -2.9522  2.2373
  265MOL0     H36512   5.799   6.669  10.493 -1.9891  0.6404  0.7026
  265MOL0     H36513   5.864   6.656  10.264  1.0787  0.5493 -0.2570
  265MOL0     H36514   5.763   6.796  10.227 -0.3251  1.0434  0.9799
  265MOL0     H36515   6.011   6.775  10.400 -0.8061 -1.4949 -1.6305
  265MOL0     H36516   5.907   6.926  10.414 -0.6210  1.0562 -1.1345
  265MOL0     H36517   6.082   6.832  10.175  2.4530  0.5570  1.3944
  265MOL0     H36518   5.975   6.968  10.162  2.7775  1.6065  0.0464
  265MOL0     H36519   6.292   6.860  10.337 -0.6056 -1.4108  1.2801
  265MOL0     H36520   6.498   6.976  10.440 -0.6104 -0.0544 -1.6131
  265MOL0     H36521   6.443   7.077  10.568  0.6290 -1.7229 -0.1889
  265MOL0     H36522   6.503   7.270  10.391 -0.9705  0.3318  0.6546
  265MOL0     H36523   6.617   7.187  10.481 -2.0202 -1.9225  2.2081
  265MOL0     H36524   6.664   7.020  10.274  2.6892  1.7404 -0.4044
  265MOL0     H36525   6.538   7.121  10.197 -1.2021 -0.9832  0.4224
  265MOL0     H36526   6.779   7.152  10.140  1.8335 -0.9933  1.6771
  265MOL0     H36527   6.677   7.300  10.159  2.0603  1.9218  1.0930
  265MOL0     H36528   6.867   7.343  10.056  0.0578 -0.9256  0.6731
  265MOL0     H36529   7.057   7.576   9.917 -0.5994 -0.2453 -1.2289
  265MOL0     H36530   7.012   7.414   9.888  0.6553 -2.0565  1.2444
  265MOL0     H36531   7.180   7.445   9.915 -0.7273 -1.2768  0.6976
  265MOL0     H36532   7.431   7.627   9.936  1.1800 -0.6045  0.2215
  265MOL0     H36533   7.619   7.781   9.852 -0.3343  0.4149 -1.6579
  265MOL0     H36534   7.712   7.976  10.117 -0.2524  0.2081  0.3425
  265MOL0     H36535   7.803   7.928   9.960  2.6345  1.0054 -0.1203
  265MOL0     H36536   7.787   8.212  10.070 -0.5825 -1.1757  1.8107
  265MOL0     H36537   7.918   8.107  10.112  1.4564 -2.8384 -1.6208
  265MOL0     H36538   7.829   8.170   9.816 -2.0568  2.1935  0.4267
  265MOL0     H36539   7.975   8.087   9.870  1.3374  0.4373  1.2117
  265MOL0     H36540   8.071   8.263   9.982 -0.9633 -0.4557  1.2338
  265MOL0     H36541   7.940   8.384   9.960 -0.4660  0.3953 -0.0011
  265MOL0     H36542   8.135   8.280   9.755  0.6324 -0.2989  1.7112
  265MOL0     H36543   7.980   8.356   9.711 -0.8761  0.0980  0.2275
  265MOL0     H36544   8.053   8.570   9.817  0.5255  0.8555 -0.8109
  265MOL0     H36545   8.173   8.503   9.699  1.5901 -0.2744 -0.3296
  265MOL0     H36546   8.310   8.426   9.847 -0.3511 -0.2686  0.4116
  265MOL0     H36547   8.207   8.429   9.995 -1.3847  0.4092  0.5304
  265MOL0     H36548   8.362   8.618  10.019  0.0255  2.1555  0.1161
  265MOL0     H36549   8.199   8.678   9.982 -0.5697 -1.9919  2.6985
  265MOL0     H36550   7.426   8.106  10.052  1.9309 -0.2554 -0.7502
  265MOL0     H36551   7.242   7.945  10.136 -1.5226  0.9286 -3.6551
  265MOL0     H36552   7.176   7.501  10.401 -0.9137 -0.9420  0.9560
  265MOL0     H36553   6.996   7.366  10.469  1.3817 -2.6883 -0.0723
  265MOL0     H36554   5.099   6.866  10.771  1.8251 -0.4545  1.0582
  265MOL0     H36555   4.897   6.796  10.870  1.3029  1.8246 -0.8848
  265MOL0     H36556   4.812   6.299  11.256 -0.4817  2.9261  0.3404
  265MOL0     H36557   4.643   6.139  11.288 -1.3145 -0.7080 -0.9035
  265MOL0     H36558   4.505   5.943  11.185  0.4123  0.7692  2.9539
  265MOL0     H36559   4.462   6.026  11.330 -2.1865 -0.9619  0.8887
  265MOL0     H36560   4.233   6.009  11.296  1.1316  0.3815  0.1630
  265MOL0     H36561   4.306   5.849  11.295 -2.3637 -0.3987 -0.1368
  265MOL0     H36562   4.227   6.002  11.043 -0.2345  0.0254 -0.4354
  265MOL0     H36563   4.308   5.846  11.050 -1.5044 -0.7343  0.2435
  265MOL0     H36564   4.047   5.856  11.013 -0.9870  0.3918 -0.0382
  265MOL0     H36565   4.038   5.904  11.177 -0.2113 -0.0240  0.0853
  265MOL0     H36566   4.081   5.486  11.182  0.0494 -0.0857 -1.4559
  265MOL0     H36567   4.403   6.329  10.979 -0.8903  0.5278  1.8022
  265MOL0     H36568   4.622   6.551  10.844  0.0787  1.5858 -0.3667
  265MOL0     H36569   4.456   6.524  10.868  0.2012  1.2875 -1.2417
  265MOL0     H36570   4.540   6.626  10.986  3.6052 -0.3498  0.8689
  266MOL0     O36571  11.336   4.266   3.860  0.4423 -0.1575  0.6236
  266MOL0     C36572  11.274   4.260   3.961  0.9848 -0.3082 -0.6300
  266MOL0     O36573  11.323   4.248   4.088  0.8294 -0.1494 -0.4419
  266MOL0     C36574  11.458   4.257   4.107  0.3156 -0.0365 -0.1124
  266MOL0     C36575  11.498   4.222   4.237 -0.2151 -0.1591 -0.6272
  266MOL0     C36576  11.632   4.212   4.275  1.5820 -0.3041 -0.2784
  266MOL0     C36577  11.731   4.248   4.180 -0.1350 -0.1288 -0.3306
  266MOL0     O36578  11.866   4.236   4.209 -0.1279  0.7042 -0.0772
  266MOL0     C36579  11.963   4.340   4.204  0.6457  0.3288  0.4507
  266MOL0     C36580  11.945   4.446   4.308  0.5892 -0.1328 -0.2070
  266MOL0     C36581  11.948   4.392   4.455 -0.4852 -0.5910 -0.1775
  266MOL0     C36582  12.072   4.304   4.485  0.4666 -0.5043 -0.2676
  266MOL0     C36583  12.103   4.305   4.634  0.6232  0.3557  0.3890
  266MOL0     C36584  12.002   4.228   4.727 -1.3175  0.7399 -0.0564
  266MOL0     C36585  11.938   4.099   4.664  0.2950 -0.2908  0.9039
  266MOL0     C36586  11.854   4.027   4.772 -0.7594  0.0031 -0.8360
  266MOL0     N36587  11.908   4.018   4.906 -0.7262 -0.4107  0.1617
  266MOL0     C36588  12.007   3.929   4.945 -0.7549 -0.6034 -0.0116
  266MOL0     C36589  12.034   3.969   5.073 -0.3392  1.5098 -0.6524
  266MOL0     C36590  12.135   3.912   5.169 -0.2930 -0.0082 -0.1084
  266MOL0     C36591  12.277   3.906   5.111  0.1223  0.2261  0.7933
  266MOL0     C36592  12.324   4.031   5.027  0.4903  0.3354 -0.2177
  266MOL0     C36593  12.364   4.157   5.107  0.9667 -0.1944  0.1309
  266MOL0     O36594  12.484   4.141   5.182  0.1760  0.2338 -0.3065
  266MOL0     C36595  12.601   4.213   5.157 -0.6783  0.1923 -0.2337
  266MOL0     C36596  12.691   4.233   5.260  0.8405 -0.2043 -0.0456
  266MOL0     C36597  12.811   4.305   5.240  0.4825  0.4999  0.5223
  266MOL0     C36598  12.918   4.299   5.347  0.4864 -0.3761  0.4267
  266MOL0     C36599  12.832   4.379   5.119 -0.1609 -0.1008 -0.0890
  266MOL0     C36600  12.955   4.443   5.086 -0.3488 -1.2174  0.3077
  266MOL0     O36601  12.948   4.570   5.035  0.2282 -0.2779 -0.1748
  266MOL0     C36602  13.070   4.642   5.029  0.2332  0.0305  0.1819
  266MOL0     C36603  13.100   4.705   4.911 -0.1762  0.6951 -0.5987
  266MOL0     C36604  13.211   4.791   4.896 -0.0848 -1.2251 -0.6096
  266MOL0     C36605  13.297   4.819   5.010  0.4465 -0.2097 -0.7214
  266MOL0     O36606  13.384   4.925   5.010  0.3434  0.1329 -0.2223
  266MOL0     C36607  13.477   4.946   5.113 -0.7198  0.0159  0.6387
  266MOL0     C36608  13.571   5.061   5.072  0.0259  0.1965 -0.0882
  266MOL0     C36609  13.666   5.078   5.196 -1.0409 -0.1595  0.5558
  266MOL0     C36610  13.790   5.168   5.161 -0.7819 -0.4421  0.0113
  266MOL0     C36611  13.884   5.183   5.289  0.1614  0.9039 -0.1596
  266MOL0     C36612  14.035   5.214   5.255 -0.0028  0.7116 -0.6606
  266MOL0     C36613  14.110   5.213   5.381 -0.5653 -0.0537  0.1572
  266MOL0     C36614  14.257   5.227   5.343  0.4078  0.6025  0.6181
  266MOL0    Cl36615  14.359   5.241   5.481  0.1899  0.3783  0.2749
  266MOL0     C36616  13.272   4.750   5.128 -0.0819 -0.8338  0.5273
  266MOL0     C36617  13.150   4.670   5.137  0.8763  0.2006 -1.1885
  266MOL0     O36618  13.056   4.379   5.094  0.4034  0.2395 -0.1082
  266MOL0     C36619  12.731   4.371   5.022 -0.3720 -0.3653  0.4491
  266MOL0     C36620  12.625   4.283   5.038 -0.6359  0.3072  1.6385
  266MOL0     N36621  11.962   4.082   5.101  0.2950 -0.3868 -0.1662
  266MOL0     N36622  11.893   4.115   5.000  1.1327  0.0956 -0.9553
  266MOL0     C36623  11.695   4.290   4.044  0.1248  0.3767  0.1389
  266MOL0     C36624  11.559   4.291   4.009 -0.7360  0.2076 -0.2896
  266MOL0     C36625  11.128   4.289   3.946 -0.1929  0.2914  0.5001
  266MOL0     C36626  11.053   4.297   4.069 -0.3353  0.3195  0.1291
  266MOL0     C36627  10.918   4.330   4.059 -0.3629  0.5442 -0.0680
  266MOL0     C36628  10.854   4.352   3.935 -0.0526  0.9883  0.3239
  266MOL0     O36629  10.715   4.365   3.952 -0.6717  0.3324  0.5520
  266MOL0     C36630  10.638   4.393   3.843  0.5118 -0.2892  0.0927
  266MOL0     C36631  10.498   4.396   3.864  0.8040 -0.0063  0.2334
  266MOL0     C36632  10.435   4.406   3.724  0.2491 -0.0630 -0.1276
  266MOL0     C36633  10.283   4.382   3.737 -0.1606 -0.4282 -0.0198
  266MOL0     C36634  10.211   4.481   3.827  0.4103 -0.3556  0.4099
  266MOL0     C36635  10.159   4.570   3.885 -0.2223 -1.1291 -0.3609
  266MOL0     C36636  10.926   4.335   3.826  0.0182 -0.7745 -0.4704
  266MOL0     C36637  11.060   4.310   3.826  0.7123 -0.4434 -0.2272
  266MOL0     C36638  11.127   4.318   3.692 -0.4736  0.6018  0.3777
  266MOL0     H36639  11.417   4.203   4.307  1.1899 -0.1452  1.0739
  266MOL0     H36640  11.655   4.154   4.364  1.7312  1.2702  0.7515
  266MOL0     H36641  11.967   4.397   4.111  2.0940  1.4940  1.1756
  266MOL0     H36642  12.058   4.286   4.210  0.6913  0.0263 -2.0118
  266MOL0     H36643  12.030   4.515   4.304  0.2350  0.8708  4.3964
  266MOL0     H36644  11.857   4.508   4.287 -1.9535 -2.8686  1.5764
  266MOL0     H36645  11.956   4.477   4.524 -2.0056 -0.6382  0.0802
  266MOL0     H36646  11.854   4.341   4.477 -0.2055 -0.4494  1.5158
  266MOL0     H36647  12.055   4.202   4.447  1.3364 -0.1913 -1.5620
  266MOL0     H36648  12.153   4.343   4.422 -0.9571  2.0244 -0.6679
  266MOL0     H36649  12.112   4.409   4.667 -0.6947  1.9064 -3.5501
  266MOL0     H36650  12.202   4.262   4.649  0.7610  0.2335 -0.7666
  266MOL0     H36651  12.059   4.196   4.815  2.1680  0.4562 -2.2099
  266MOL0     H36652  11.921   4.295   4.754 -1.1048  0.2917  1.8188
  266MOL0     H36653  12.021   4.034   4.635 -0.3365  0.3692 -2.8207
  266MOL0     H36654  11.869   4.116   4.581  0.8074  0.7479  0.6679
  266MOL0     H36655  11.762   4.081   4.794 -1.9848 -3.0797  2.6732
  266MOL0     H36656  11.814   3.932   4.737 -1.2597 -1.0673  2.2988
  266MOL0     H36657  12.041   3.842   4.891  0.4416  1.6947 -3.2417
  266MOL0     H36658  12.094   3.815   5.198 -0.7510  0.4662  0.9270
  266MOL0     H36659  12.136   3.977   5.257  0.4138 -1.8474  1.3020
  266MOL0     H36660  12.354   3.895   5.188 -1.2655 -0.1960  2.1791
  266MOL0     H36661  12.280   3.820   5.043 -1.5300  1.2739 -0.6592
  266MOL0     H36662  12.410   3.998   4.969 -1.5978 -2.3883 -2.0267
  266MOL0     H36663  12.249   4.061   4.954 -1.3300 -1.4824  0.7852
  266MOL0     H36664  12.379   4.245   5.044 -1.9463  1.9174  2.0904
  266MOL0     H36665  12.277   4.187   5.167  2.2045  4.0323  0.1510
  266MOL0     H36666  12.657   4.194   5.356 -1.7835  0.1026 -0.7810
  266MOL0     H36667  13.003   4.246   5.303  0.2504 -0.0300 -0.4656
  266MOL0     H36668  12.887   4.243   5.436 -1.5673  0.9265  0.5746
  266MOL0     H36669  12.943   4.400   5.381  1.7264 -1.2960  2.4599
  266MOL0     H36670  13.028   4.687   4.833 -0.2472 -0.8976 -0.1915
  266MOL0     H36671  13.230   4.832   4.798  0.1180 -0.9607 -0.4620
  266MOL0     H36672  13.417   4.981   5.198 -2.2750 -0.5906 -0.1614
  266MOL0     H36673  13.535   4.854   5.123  1.2481  1.0593 -0.4571
  266MOL0     H36674  13.625   5.017   4.988 -1.4254 -1.5538 -0.1522
  266MOL0     H36675  13.523   5.155   5.043  1.5041  0.1900 -2.8954
  266MOL0     H36676  13.701   4.984   5.239  0.4508  0.5975  1.0644
  266MOL0     H36677  13.601   5.125   5.270 -1.4401  0.2550 -0.0450
  266MOL0     H36678  13.764   5.271   5.134  0.6005  0.6542  2.5747
  266MOL0     H36679  13.843   5.128   5.074 -2.1440  1.2545 -1.6893
  266MOL0     H36680  13.856   5.263   5.358 -0.2957  0.4689  0.1720
  266MOL0     H36681  13.878   5.087   5.341 -0.6520  0.5655 -0.8342
  266MOL0     H36682  14.041   5.312   5.206  1.5325  0.0856 -1.7928
  266MOL0     H36683  14.079   5.137   5.191 -0.7059 -0.3822  0.1326
  266MOL0     H36684  14.096   5.118   5.434  0.4683 -0.6738 -0.6476
  266MOL0     H36685  14.082   5.299   5.443 -3.9476  0.0092 -1.2763
  266MOL0     H36686  14.273   5.311   5.274 -1.1265  0.8775  0.5607
  266MOL0     H36687  14.280   5.136   5.287 -0.6528  2.4475 -3.2022
  266MOL0     H36688  13.327   4.767   5.220  0.9463 -1.4899  0.0623
  266MOL0     H36689  13.125   4.623   5.231  1.1263  0.7902 -0.8199
  266MOL0     H36690  12.734   4.431   4.931 -1.8308 -2.8884 -1.4235
  266MOL0     H36691  12.554   4.276   4.956  2.1376  0.4440 -0.9470
  266MOL0     H36692  11.778   4.298   3.975  0.7797  0.0696  0.8726
  266MOL0     H36693  11.545   4.303   3.902 -3.4161 -0.1836 -0.0502
  266MOL0     H36694  11.097   4.286   4.167 -0.4142  0.8289  0.2241
  266MOL0     H36695  10.863   4.361   4.147  0.0985  0.5657  0.2165
  266MOL0     H36696  10.665   4.487   3.795  2.3058 -1.8357 -2.1161
  266MOL0     H36697  10.652   4.317   3.766 -0.0760  0.4762 -0.7999
  266MOL0     H36698  10.486   4.484   3.928  5.8890  0.8212  0.4998
  266MOL0     H36699  10.476   4.301   3.913  0.0086 -0.7793 -1.5350
  266MOL0     H36700  10.460   4.509   3.696  1.4179 -0.0522  0.8292
  266MOL0     H36701  10.488   4.344   3.651 -0.0084  0.0212 -0.3866
  266MOL0     H36702  10.274   4.279   3.772  2.2863 -1.0259 -0.9309
  266MOL0     H36703  10.229   4.370   3.643 -1.4693  1.6222  0.4067
  266MOL0     H36704  10.094   4.640   3.935  1.2505 -1.2932  1.9184
  266MOL0     H36705  10.873   4.365   3.736 -0.5592  0.5671  0.2902
  266MOL0     H36706  11.056   4.365   3.623 -0.1070 -0.6091 -0.8624
  266MOL0     H36707  11.219   4.378   3.689 -1.4469  2.1304 -1.2771
  266MOL0     H36708  11.149   4.217   3.657 -2.7563 -1.0423  3.2747
  267MOL0     O36709   4.916   6.023   8.778  0.6550 -0.0126 -0.4589
  267MOL0     C36710   4.909   6.058   8.893  0.5381 -0.2482 -0.8626
  267MOL0     O36711   5.014   6.114   8.962  0.7584 -0.2746  0.0414
  267MOL0     C36712   5.130   6.130   8.899 -1.2212 -0.8462  0.1536
  267MOL0     C36713   5.152   6.234   8.803  0.1084  0.5079 -0.0283
  267MOL0     C36714   5.267   6.237   8.718 -0.3687  0.4342  0.4835
  267MOL0     C36715   5.375   6.152   8.743 -1.1346 -0.2902 -0.3414
  267MOL0     O36716   5.501   6.171   8.687  0.8422 -0.0187  0.3892
  267MOL0     C36717   5.515   6.259   8.581  0.4220  0.5344  0.1178
  267MOL0     C36718   5.645   6.230   8.512 -0.3014 -0.9284 -0.0363
  267MOL0     C36719   5.760   6.160   8.590 -0.6596 -0.3477  0.2306
  267MOL0     C36720   5.891   6.168   8.511 -0.0822 -1.1921 -0.5523
  267MOL0     C36721   5.975   6.297   8.538 -0.0088  1.1700  0.6271
  267MOL0     C36722   6.122   6.280   8.512  0.0163  0.3113  0.5258
  267MOL0     C36723   6.215   6.391   8.562  0.1314 -0.7567  0.2577
  267MOL0     C36724   6.341   6.419   8.472 -0.7864  0.5521 -0.1666
  267MOL0     N36725   6.302   6.494   8.348  0.1829  1.1020  0.1792
  267MOL0     C36726   6.253   6.619   8.342 -0.6255 -0.1740  0.5205
  267MOL0     C36727   6.207   6.640   8.217 -0.4540 -0.7067  0.1521
  267MOL0     C36728   6.143   6.767   8.168  0.5151 -0.1891  0.3925
  267MOL0     C36729   6.246   6.857   8.087  0.1803 -0.0205 -0.0476
  267MOL0     C36730   6.341   6.924   8.181 -0.9084 -0.2607  0.2663
  267MOL0     C36731   6.444   6.998   8.101 -0.0050 -0.0974  0.0084
  267MOL0     O36732   6.535   6.912   8.030 -0.3074  0.2873 -0.2335
  267MOL0     C36733   6.591   6.944   7.908 -0.0553 -0.0953 -0.5753
  267MOL0     C36734   6.629   6.849   7.815 -0.3895  0.2371  0.6404
  267MOL0     C36735   6.691   6.882   7.687  0.7141  0.9119 -0.6417
  267MOL0     C36736   6.728   6.771   7.594  0.0065  0.3040  0.0893
  267MOL0     C36737   6.716   7.017   7.660  0.5574  0.1942 -0.9340
  267MOL0     C36738   6.780   7.066   7.541 -0.5435  0.7040  0.3862
  267MOL0     O36739   6.763   7.201   7.506 -0.1946  0.7492  0.0819
  267MOL0     C36740   6.848   7.269   7.423 -0.1797  0.7563 -0.0051
  267MOL0     C36741   6.816   7.281   7.287  1.2144  1.0380  0.5161
  267MOL0     C36742   6.901   7.343   7.201 -0.4798 -0.2964 -0.1626
  267MOL0     C36743   6.995   7.425   7.253 -0.8129  0.3576  0.4989
  267MOL0     O36744   7.058   7.519   7.172 -1.2088  0.8301  0.2746
  267MOL0     C36745   7.110   7.464   7.055 -0.5870 -0.7566  0.2899
  267MOL0     C36746   7.213   7.571   7.006 -0.7399 -0.1051  0.6190
  267MOL0     C36747   7.315   7.614   7.110 -0.0445  0.1989 -0.0402
  267MOL0     C36748   7.410   7.707   7.047 -0.0570  0.3312  0.5511
  267MOL0     C36749   7.501   7.764   7.148 -0.7230 -0.1981  0.1146
  267MOL0     C36750   7.560   7.891   7.078  0.7615  0.3970 -0.4500
  267MOL0     C36751   7.643   7.980   7.163  0.0613  0.9511  0.5370
  267MOL0     C36752   7.586   8.020   7.304 -0.2940 -0.0196  0.5888
  267MOL0    Cl36753   7.411   8.081   7.298  0.2114  0.1466  0.1475
  267MOL0     C36754   7.031   7.426   7.382 -0.1209  0.3132  0.1672
  267MOL0     C36755   6.960   7.342   7.469 -0.9834  0.1702 -0.3952
  267MOL0     O36756   6.840   6.992   7.462  0.3468 -0.1977 -0.0004
  267MOL0     C36757   6.676   7.117   7.758 -0.0369  0.2798  0.3111
  267MOL0     C36758   6.617   7.075   7.877  0.1138  0.1052 -0.6730
  267MOL0     N36759   6.228   6.522   8.143 -1.2073  0.1928  0.1929
  267MOL0     N36760   6.282   6.433   8.228  0.9996 -0.5275 -0.5062
  267MOL0     C36761   5.363   6.062   8.845  0.2161  0.9046 -0.4469
  267MOL0     C36762   5.240   6.047   8.924 -0.4724  0.0902  0.8772
  267MOL0     C36763   4.793   6.023   8.974  0.2406  0.0853 -0.2190
  267MOL0     C36764   4.723   5.895   8.937 -0.1495  0.5448 -1.0010
  267MOL0     C36765   4.621   5.850   9.020 -0.8821  0.0876 -0.1710
  267MOL0     C36766   4.586   5.916   9.131  0.3844  0.4025 -0.3042
  267MOL0     O36767   4.474   5.868   9.204  0.3887  0.3242 -0.1232
  267MOL0     C36768   4.376   5.965   9.262  0.5328  1.1130  0.0401
  267MOL0     C36769   4.392   5.999   9.416 -0.7042  0.8711 -0.0757
  267MOL0     C36770   4.385   5.880   9.522 -1.1820 -0.5297  1.0742
  267MOL0     C36771   4.496   5.781   9.510 -1.3389 -0.5983 -0.3244
  267MOL0     C36772   4.623   5.846   9.558  0.4558 -0.1412 -0.3050
  267MOL0     C36773   4.717   5.905   9.602 -0.6442 -0.1483 -0.4917
  267MOL0     C36774   4.656   6.029   9.163  0.0475 -0.4497  0.0430
  267MOL0     C36775   4.752   6.094   9.086  0.4595  0.8410 -0.0246
  267MOL0     C36776   4.814   6.226   9.132 -0.3118 -1.0272  0.5999
  267MOL0     H36777   5.073   6.308   8.792  0.9351  1.2596 -1.1231
  267MOL0     H36778   5.281   6.315   8.644 -0.7584 -2.2098 -2.5669
  267MOL0     H36779   5.514   6.361   8.621  0.4899  0.3449  0.6168
  267MOL0     H36780   5.431   6.249   8.512 -1.1792 -1.2756  2.1692
  267MOL0     H36781   5.626   6.175   8.419 -1.6496  0.3810 -0.5686
  267MOL0     H36782   5.675   6.333   8.490  0.0096 -0.5556  1.9744
  267MOL0     H36783   5.768   6.209   8.688  1.6356 -2.5680  1.2600
  267MOL0     H36784   5.724   6.059   8.608 -3.6354  0.9980  2.9226
  267MOL0     H36785   5.954   6.081   8.531  0.1673 -0.8664  0.1010
  267MOL0     H36786   5.867   6.158   8.405 -2.0510 -1.2397 -0.1537
  267MOL0     H36787   5.960   6.335   8.639 -0.1182  3.7207 -0.2535
  267MOL0     H36788   5.938   6.370   8.465  0.5816 -0.6531 -1.6226
  267MOL0     H36789   6.147   6.190   8.570  0.0504  0.8491  1.3649
  267MOL0     H36790   6.149   6.254   8.410 -0.4669 -2.8065  1.0810
  267MOL0     H36791   6.244   6.372   8.665  0.9640  2.3821  0.6772
  267MOL0     H36792   6.165   6.487   8.574  2.4249  0.3760  1.3207
  267MOL0     H36793   6.404   6.494   8.521  2.8617 -1.6500 -1.0349
  267MOL0     H36794   6.401   6.328   8.459 -0.3136  0.5510  1.7281
  267MOL0     H36795   6.249   6.689   8.424 -0.6024  1.7671 -1.0558
  267MOL0     H36796   6.101   6.821   8.253  1.0278  1.3350 -0.2771
  267MOL0     H36797   6.057   6.738   8.108 -1.0351  1.2027  1.8212
  267MOL0     H36798   6.298   6.803   8.007  0.7745  0.0908  0.2510
  267MOL0     H36799   6.189   6.937   8.040  1.3133  1.9115  1.7125
  267MOL0     H36800   6.297   7.000   8.246  1.6242  0.2023  1.5700
  267MOL0     H36801   6.397   6.848   8.238 -1.2416 -0.9112 -0.2531
  267MOL0     H36802   6.382   7.057   8.033  0.5302  0.2722 -0.1656
  267MOL0     H36803   6.506   7.053   8.173  0.2080  0.5509 -0.6627
  267MOL0     H36804   6.609   6.744   7.831  0.8025 -0.2048 -0.5015
  267MOL0     H36805   6.722   6.673   7.643  4.3790  0.1657  0.8168
  267MOL0     H36806   6.833   6.783   7.566 -0.6007  1.3602 -1.8837
  267MOL0     H36807   6.665   6.766   7.505  0.1130 -0.1882  0.0364
  267MOL0     H36808   6.721   7.240   7.254  0.7824  0.5859  2.1879
  267MOL0     H36809   6.875   7.350   7.096  1.0856  0.7609 -0.5024
  267MOL0     H36810   7.172   7.380   7.086 -0.0968  0.1264  1.8358
  267MOL0     H36811   7.042   7.444   6.972  0.2444  2.3618 -1.2767
  267MOL0     H36812   7.270   7.502   6.943 -2.1935 -0.7179 -0.0774
  267MOL0     H36813   7.166   7.657   6.957  0.8529 -0.7336 -2.2530
  267MOL0     H36814   7.378   7.532   7.144  1.3716  0.9888 -0.6554
  267MOL0     H36815   7.263   7.652   7.198  2.6033  0.0169  1.7113
  267MOL0     H36816   7.356   7.783   6.990 -0.8968 -1.2469 -0.8651
  267MOL0     H36817   7.471   7.650   6.975 -0.2175  0.2357  0.4883
  267MOL0     H36818   7.455   7.799   7.240  0.2365  1.2221  0.0967
  267MOL0     H36819   7.570   7.686   7.182 -1.9452 -0.3185  2.4862
  267MOL0     H36820   7.485   7.952   7.027  1.9691  1.1838 -1.3418
  267MOL0     H36821   7.621   7.858   6.993 -2.1326  2.2968 -3.5060
  267MOL0     H36822   7.664   8.071   7.107 -0.7138  0.3945 -0.6982
  267MOL0     H36823   7.734   7.920   7.175 -2.1499 -2.6731  0.6480
  267MOL0     H36824   7.653   8.097   7.344  1.8276 -0.1227 -2.4049
  267MOL0     H36825   7.592   7.937   7.376  2.0301 -0.1417  0.3492
  267MOL0     H36826   7.101   7.496   7.426 -0.3042 -2.2732  5.4374
  267MOL0     H36827   6.985   7.342   7.575  1.2474  3.0590 -0.8099
  267MOL0     H36828   6.690   7.222   7.734 -1.6939  0.2644 -0.9789
  267MOL0     H36829   6.594   7.155   7.946  1.3865  0.6202 -0.8161
  267MOL0     H36830   5.453   6.007   8.870 -0.0828 -0.4396 -2.0932
  267MOL0     H36831   5.220   5.971   8.999  0.4468 -0.9848  0.0756
  267MOL0     H36832   4.747   5.830   8.854 -2.6828  0.4192 -1.7167
  267MOL0     H36833   4.552   5.768   9.004 -1.0862  0.1022  0.6037
  267MOL0     H36834   4.387   6.058   9.205  0.6995  1.8118  1.1939
  267MOL0     H36835   4.272   5.937   9.242  1.1591 -0.9736 -0.5999
  267MOL0     H36836   4.313   6.070   9.442 -0.6648  0.6429  0.6879
  267MOL0     H36837   4.489   6.047   9.428 -0.1686  0.1841 -1.3902
  267MOL0     H36838   4.375   5.925   9.621  0.8765  2.2498  0.1400
  267MOL0     H36839   4.298   5.821   9.491 -1.0176  0.0616 -0.6242
  267MOL0     H36840   4.497   5.732   9.413 -0.3218  2.1252 -1.8048
  267MOL0     H36841   4.478   5.698   9.579  2.5220 -1.7598 -0.4653
  267MOL0     H36842   4.809   5.944   9.639 -0.3329  1.5449 -2.7954
  267MOL0     H36843   4.623   6.084   9.251 -1.8859 -1.5531  0.0750
  267MOL0     H36844   4.756   6.278   9.209 -0.3700 -0.9396  0.4965
  267MOL0     H36845   4.912   6.214   9.178 -0.2013 -1.0464  0.3546
  267MOL0     H36846   4.815   6.290   9.043 -0.8374 -1.4962  0.2519
  268MOL0     O36847   5.993   5.948   0.571 -0.0396 -0.1113 -0.1587
  268MOL0     C36848   5.997   5.825   0.595  0.5955  0.9106 -0.2171
  268MOL0     O36849   6.105   5.751   0.615  0.1420 -0.2671  0.3445
  268MOL0     C36850   6.229   5.810   0.598 -0.2375  0.1708 -0.2532
  268MOL0     C36851   6.273   5.869   0.480  0.0009  0.2561  0.0232
  268MOL0     C36852   6.395   5.913   0.466 -0.0366 -0.7623 -1.2987
  268MOL0     C36853   6.479   5.910   0.581 -0.7917  0.4722 -0.1858
  268MOL0     O36854   6.612   5.943   0.583 -0.0077 -0.6487 -0.2058
  268MOL0     C36855   6.682   5.976   0.460  0.2902 -0.4728 -0.0872
  268MOL0     C36856   6.827   5.980   0.479  0.1323  0.5843  0.5004
  268MOL0     C36857   6.870   6.102   0.554  0.0942 -0.5991 -0.5202
  268MOL0     C36858   7.010   6.136   0.518 -0.7805  0.0455 -0.8881
  268MOL0     C36859   7.019   6.215   0.381 -0.9068 -0.6968 -0.0633
  268MOL0     C36860   7.167   6.231   0.341  0.6709 -0.5455  0.3754
  268MOL0     C36861   7.192   6.352   0.244  0.3134 -0.7544 -0.6438
  268MOL0     C36862   7.332   6.366   0.192  0.7097  0.1290  0.5038
  268MOL0     N36863   7.347   6.487   0.120 -0.2743 -1.1746 -0.2661
  268MOL0     C36864   7.304   6.519  -0.011 -0.5914  1.1668 -0.4579
  268MOL0     C36865   7.292   6.653  -0.010 -0.8823  0.5586 -0.0807
  268MOL0     C36866   7.265   6.732  -0.134 -0.2294 -0.3389  0.0862
  268MOL0     C36867   7.113   6.716  -0.162  0.4336  0.2914  0.6286
  268MOL0     C36868   7.023   6.767  -0.051 -0.6843 -0.1559 -0.8123
  268MOL0     C36869   6.881   6.740  -0.063 -0.0835  0.7789 -0.2123
  268MOL0     O36870   6.823   6.796   0.054  0.2634  0.9483 -0.4417
  268MOL0     C36871   6.690   6.769   0.082  0.0040  0.1734  1.2591
  268MOL0     C36872   6.651   6.791   0.208  0.5943 -0.4149  0.2070
  268MOL0     C36873   6.517   6.771   0.255 -1.4484 -0.5728  0.2290
  268MOL0     C36874   6.493   6.769   0.412  0.4656 -0.2700 -0.4043
  268MOL0     C36875   6.419   6.746   0.157  1.0301 -0.0585  0.0998
  268MOL0     C36876   6.275   6.748   0.185  0.1579  0.6924 -0.6970
  268MOL0     O36877   6.225   6.856   0.266  0.9589 -0.3022 -0.5282
  268MOL0     C36878   6.096   6.856   0.318  0.5362  0.3081  0.2915
  268MOL0     C36879   6.051   6.751   0.393 -0.0860 -0.5093 -0.4702
  268MOL0     C36880   5.920   6.741   0.439  0.1653 -0.4063  0.2560
  268MOL0     C36881   5.836   6.856   0.436  0.2499 -0.3214  1.2512
  268MOL0     O36882   5.733   6.863   0.520  0.0759  0.4164  0.5076
  268MOL0     C36883   5.610   6.799   0.475 -0.0050 -0.5074 -0.3870
  268MOL0     C36884   5.527   6.891   0.385  0.7783  0.3579  0.2406
  268MOL0     C36885   5.383   6.843   0.366  0.3934 -0.6592 -0.3461
  268MOL0     C36886   5.372   6.735   0.261  0.2443  0.6206 -0.0515
  268MOL0     C36887   5.249   6.637   0.281  0.3401  0.0762  0.3226
  268MOL0     C36888   5.111   6.702   0.244 -0.1234 -0.2694  0.6326
  268MOL0     C36889   5.088   6.714   0.078  0.2791 -0.3431 -0.0990
  268MOL0     C36890   4.942   6.771   0.054  0.2740  1.0322 -0.5932
  268MOL0    Cl36891   4.819   6.666   0.119 -0.1516 -0.2116  0.3603
  268MOL0     C36892   5.887   6.968   0.369 -0.4326 -0.6373  0.1058
  268MOL0     C36893   6.014   6.972   0.313  0.0912  0.0926  0.2979
  268MOL0     O36894   6.208   6.656   0.136 -0.5018 -0.0103 -1.3086
  268MOL0     C36895   6.460   6.711   0.030  0.2820 -0.4310  0.2939
  268MOL0     C36896   6.596   6.721  -0.009  0.3461  0.0411 -0.8724
  268MOL0     N36897   7.325   6.702   0.118  0.1437  0.3611  0.1998
  268MOL0     N36898   7.352   6.603   0.195  0.3632 -0.1318  0.3151
  268MOL0     C36899   6.437   5.861   0.700 -0.6470  0.3069 -0.5250
  268MOL0     C36900   6.311   5.811   0.708 -0.9401  0.2463  0.1816
  268MOL0     C36901   5.874   5.756   0.614 -0.8500  0.6023 -0.6926
  268MOL0     C36902   5.870   5.625   0.572 -0.0641 -0.0528 -0.5898
  268MOL0     C36903   5.749   5.552   0.561  0.2075 -0.9060  0.5129
  268MOL0     C36904   5.636   5.598   0.619  0.5724  0.7765  0.2042
  268MOL0     O36905   5.517   5.528   0.619 -0.5914  0.4046  0.2495
  268MOL0     C36906   5.528   5.386   0.608 -0.3674  0.6134  0.3285
  268MOL0     C36907   5.401   5.309   0.657 -0.2500 -0.8444 -0.0644
  268MOL0     C36908   5.410   5.167   0.605 -0.5536  0.0183  0.9693
  268MOL0     C36909   5.530   5.081   0.641 -0.3428  0.2760 -0.3426
  268MOL0     C36910   5.647   5.093   0.555 -0.5312 -0.3511  0.7228
  268MOL0     C36911   5.740   5.106   0.474  0.6983  1.0550  0.1150
  268MOL0     C36912   5.640   5.729   0.664 -0.1702 -0.2593  0.1365
  268MOL0     C36913   5.758   5.810   0.673  0.7919 -0.2986 -0.6495
  268MOL0     C36914   5.747   5.956   0.717  0.2880 -0.0928 -0.0004
  268MOL0     H36915   6.212   5.868   0.390  1.7612 -1.1086 -1.2379
  268MOL0     H36916   6.432   5.954   0.373  3.0707 -0.2330  0.0588
  268MOL0     H36917   6.645   6.068   0.413  2.8298  0.3956 -0.5203
  268MOL0     H36918   6.660   5.894   0.391  3.4377 -2.0119  0.5499
  268MOL0     H36919   6.867   5.891   0.529  0.5508  1.2331  1.3509
  268MOL0     H36920   6.876   5.976   0.381 -1.4147  2.7910 -0.4451
  268MOL0     H36921   6.800   6.186   0.543  0.4453  0.0281  1.5891
  268MOL0     H36922   6.877   6.079   0.660  3.1609 -0.0464 -0.5140
  268MOL0     H36923   7.060   6.194   0.596 -2.3507 -0.3068  0.4338
  268MOL0     H36924   7.073   6.047   0.516 -0.8063 -0.0424  0.7776
  268MOL0     H36925   6.982   6.316   0.401  1.4553  0.6636 -2.0542
  268MOL0     H36926   6.955   6.165   0.307 -0.2380  0.1442 -1.2215
  268MOL0     H36927   7.223   6.243   0.434 -0.0616  0.8159  0.6745
  268MOL0     H36928   7.207   6.142   0.292 -0.8737 -0.7725 -0.5456
  268MOL0     H36929   7.164   6.441   0.301 -0.6796 -0.0945 -2.0925
  268MOL0     H36930   7.121   6.349   0.161  1.9672 -1.0596 -2.1009
  268MOL0     H36931   7.404   6.367   0.275  2.0034  0.4821 -0.5908
  268MOL0     H36932   7.367   6.287   0.125  1.2404  1.0180 -0.2804
  268MOL0     H36933   7.297   6.442  -0.088  0.9425  0.1673  0.3607
  268MOL0     H36934   7.314   6.690  -0.223 -2.1324 -2.2837 -0.1229
  268MOL0     H36935   7.291   6.836  -0.114  0.0023 -0.1148 -1.2766
  268MOL0     H36936   7.085   6.767  -0.254 -1.7451 -1.3207  0.3273
  268MOL0     H36937   7.086   6.611  -0.179 -0.4302  0.5772  0.1655
  268MOL0     H36938   7.054   6.722   0.044 -2.1559  1.3637  0.4606
  268MOL0     H36939   7.036   6.875  -0.037 -3.1485 -0.0021  1.0080
  268MOL0     H36940   6.839   6.774  -0.158  0.5856 -0.3857 -0.9551
  268MOL0     H36941   6.870   6.631  -0.070 -0.7939  0.9602 -2.3851
  268MOL0     H36942   6.715   6.815   0.292  1.4869  0.7677 -0.7815
  268MOL0     H36943   6.581   6.789   0.474 -0.2334 -3.0769  1.7275
  268MOL0     H36944   6.454   6.672   0.444  1.5527 -0.8819 -0.8463
  268MOL0     H36945   6.422   6.848   0.435 -0.3236 -0.9622 -0.4019
  268MOL0     H36946   6.118   6.668   0.415  1.6482  0.6734 -1.0976
  268MOL0     H36947   5.892   6.653   0.496  1.1340 -1.6402 -1.0864
  268MOL0     H36948   5.624   6.701   0.429  0.8342 -2.2935  3.2518
  268MOL0     H36949   5.551   6.784   0.566 -1.5277 -0.4109 -1.3308
  268MOL0     H36950   5.536   6.996   0.416  0.1538  0.5131 -0.0876
  268MOL0     H36951   5.572   6.884   0.285 -0.8654 -2.9344 -0.3845
  268MOL0     H36952   5.330   6.936   0.344  1.6831  0.6210  1.6445
  268MOL0     H36953   5.342   6.807   0.461 -0.2615  0.9898  0.0253
  268MOL0     H36954   5.454   6.664   0.268 -1.5898 -1.5358  0.7380
  268MOL0     H36955   5.366   6.790   0.167  1.1728  0.7745 -0.0267
  268MOL0     H36956   5.267   6.541   0.232 -1.8420 -0.5277  0.5647
  268MOL0     H36957   5.248   6.603   0.385 -0.2780 -0.0161  0.2943
  268MOL0     H36958   5.110   6.801   0.289  2.0366  1.0272 -1.8814
  268MOL0     H36959   5.035   6.630   0.275 -1.1768 -0.6013 -2.3587
  268MOL0     H36960   5.097   6.617   0.029 -1.0423 -0.9628  0.8242
  268MOL0     H36961   5.158   6.780   0.026 -0.8770 -0.4882 -1.9377
  268MOL0     H36962   4.924   6.802  -0.050 -1.9594  2.6408  0.1748
  268MOL0     H36963   4.933   6.862   0.115  3.1613 -0.4893  2.3535
  268MOL0     H36964   5.818   7.051   0.369  2.4175  1.9072 -0.1172
  268MOL0     H36965   6.056   7.060   0.266 -0.6348 -0.5285 -1.6216
  268MOL0     H36966   6.399   6.672  -0.051  2.1003  0.1899 -1.4596
  268MOL0     H36967   6.618   6.681  -0.107  0.9999 -1.0811 -0.2773
  268MOL0     H36968   6.512   5.855   0.778  0.3243  1.1506 -1.3665
  268MOL0     H36969   6.274   5.782   0.806 -3.1534  0.8577 -0.4128
  268MOL0     H36970   5.947   5.574   0.515 -0.2555  0.1021 -0.9889
  268MOL0     H36971   5.765   5.458   0.509  2.2071  0.8798 -2.3992
  268MOL0     H36972   5.562   5.359   0.507  2.5931  0.2889  1.3178
  268MOL0     H36973   5.614   5.354   0.668 -0.1055  0.0572 -0.3322
  268MOL0     H36974   5.310   5.349   0.611 -0.1473 -1.3291 -0.7024
  268MOL0     H36975   5.386   5.327   0.764 -0.7031  0.6150 -0.3479
  268MOL0     H36976   5.325   5.111   0.644  0.8327 -4.7752 -2.0979
  268MOL0     H36977   5.395   5.165   0.497 -2.1453 -0.8822  1.1706
  268MOL0     H36978   5.499   4.977   0.627  2.8610 -1.0844  1.5049
  268MOL0     H36979   5.562   5.092   0.745 -0.8848  0.4012 -0.1859
  268MOL0     H36980   5.820   5.106   0.403  1.0536  1.5148  0.5120
  268MOL0     H36981   5.548   5.779   0.693  0.2449  0.7440 -0.2125
  268MOL0     H36982   5.758   6.013   0.625 -0.6758 -0.5444 -0.4125
  268MOL0     H36983   5.641   5.965   0.743  0.4388 -0.6346  0.8507
  268MOL0     H36984   5.810   5.977   0.804  0.3576 -2.1697  0.4979
  269MOL0     O36985   1.968   4.158   4.816 -0.2522 -0.4233 -0.2633
  269MOL0     C36986   1.899   4.149   4.921  0.5914 -0.9160  0.0638
  269MOL0     O36987   1.928   4.221   5.038 -0.3191 -0.1550 -0.6256
  269MOL0     C36988   2.036   4.299   5.023 -0.2800 -0.0055 -0.8612
  269MOL0     C36989   2.164   4.259   5.003 -0.5903 -0.7905 -0.3884
  269MOL0     C36990   2.264   4.354   5.003  0.1901 -0.0018 -0.0866
  269MOL0     C36991   2.238   4.488   5.026  0.3215  0.0515 -0.5113
  269MOL0     O36992   2.353   4.562   5.028  0.2001  0.2611 -0.3923
  269MOL0     C36993   2.344   4.709   5.002  0.5093 -0.3907  0.1510
  269MOL0     C36994   2.466   4.753   4.925  0.2777 -0.4490 -0.4648
  269MOL0     C36995   2.600   4.722   4.979 -0.1924  0.2401  0.1228
  269MOL0     C36996   2.715   4.782   4.898  0.7424 -0.5340  0.0187
  269MOL0     C36997   2.857   4.763   4.957 -0.4152  0.2060  0.3146
  269MOL0     C36998   2.956   4.877   4.926 -0.5301 -0.0481 -0.1229
  269MOL0     C36999   3.031   4.879   4.794  0.9049  0.0440  0.7372
  269MOL0     C37000   3.144   4.775   4.793 -0.4427  0.0679  0.8360
  269MOL0     N37001   3.209   4.773   4.659  0.3415  0.5750 -0.1996
  269MOL0     C37002   3.243   4.659   4.591  0.2811  0.2221 -0.5806
  269MOL0     C37003   3.312   4.715   4.488  0.5013  0.6142 -0.8302
  269MOL0     C37004   3.353   4.628   4.372 -0.5836  0.3286  0.7576
  269MOL0     C37005   3.507   4.628   4.364 -0.3900  0.1288  0.4590
  269MOL0     C37006   3.568   4.546   4.253 -0.5515  0.0326  0.6404
  269MOL0     C37007   3.712   4.555   4.258  0.7559 -0.3695  0.0468
  269MOL0     O37008   3.757   4.439   4.180  0.1071  0.1597  0.6150
  269MOL0     C37009   3.896   4.425   4.175 -0.7995  0.2258  0.6356
  269MOL0     C37010   3.941   4.319   4.096 -0.3526  0.5972  0.0255
  269MOL0     C37011   4.076   4.283   4.077 -0.3972  0.6657 -0.5179
  269MOL0     C37012   4.112   4.165   3.989  0.0616 -0.1215 -0.2897
  269MOL0     C37013   4.172   4.353   4.148 -0.9134 -0.6323  0.0395
  269MOL0     C37014   4.316   4.322   4.137  0.0603 -0.1692  0.2157
  269MOL0     O37015   4.379   4.313   4.255  0.0219  0.3235  0.1941
  269MOL0     C37016   4.514   4.292   4.266  0.2974 -0.2066  0.0030
  269MOL0     C37017   4.591   4.346   4.370 -0.3054 -0.2148 -0.4804
  269MOL0     C37018   4.723   4.317   4.398  0.1834  0.6965  0.2074
  269MOL0     C37019   4.783   4.219   4.328 -0.3777  0.5915  0.1302
  269MOL0     O37020   4.916   4.195   4.362  0.5286 -0.3058  0.1481
  269MOL0     C37021   4.992   4.127   4.264 -0.0400 -0.1706  0.2113
  269MOL0     C37022   5.145   4.147   4.297  0.0922  0.4942 -0.4325
  269MOL0     C37023   5.181   4.295   4.333  0.2645 -0.5428 -0.4618
  269MOL0     C37024   5.326   4.322   4.324  0.1196  0.3559  0.3152
  269MOL0     C37025   5.397   4.232   4.441  0.6945 -0.2025  0.5591
  269MOL0     C37026   5.526   4.290   4.465 -0.1754  0.4141 -0.0507
  269MOL0     C37027   5.620   4.274   4.346  0.6416  0.1837 -0.3160
  269MOL0     C37028   5.766   4.320   4.386  0.5290  0.2618  0.4570
  269MOL0    Cl37029   5.775   4.504   4.385  0.2774 -0.4089 -0.0042
  269MOL0     C37030   4.716   4.173   4.216  0.6049  0.8418  0.2477
  269MOL0     C37031   4.578   4.201   4.185 -0.0161  0.4277  0.4206
  269MOL0     O37032   4.367   4.310   4.022  1.0876  0.3232  0.0816
  269MOL0     C37033   4.134   4.470   4.225 -0.6033  1.3267  0.6440
  269MOL0     C37034   4.000   4.498   4.229 -0.0900 -0.2041 -0.3888
  269MOL0     N37035   3.312   4.850   4.485  0.6514  0.2104 -0.5622
  269MOL0     N37036   3.251   4.884   4.593 -0.3384  0.2938  0.1033
  269MOL0     C37037   2.107   4.532   5.052 -0.4061  0.9159  1.4855
  269MOL0     C37038   2.004   4.437   5.049  0.0823 -0.4452 -0.7896
  269MOL0     C37039   1.787   4.056   4.935 -0.5272  0.2486 -0.4296
  269MOL0     C37040   1.695   4.075   5.037 -0.0602  0.0592 -0.4180
  269MOL0     C37041   1.577   3.998   5.053  0.2059  0.3258  0.0806
  269MOL0     C37042   1.556   3.899   4.958 -0.7809  0.4016  0.0732
  269MOL0     O37043   1.441   3.823   4.970  0.0662  0.2284 -1.3800
  269MOL0     C37044   1.336   3.875   4.890 -0.2604 -0.6536 -0.3318
  269MOL0     C37045   1.201   3.802   4.919  0.0653  0.4624  0.7390
  269MOL0     C37046   1.209   3.650   4.895 -0.4198  0.4878 -0.0636
  269MOL0     C37047   1.101   3.606   4.803  0.1473  0.4465 -0.4184
  269MOL0     C37048   1.095   3.457   4.793 -0.3535  1.4074 -0.9665
  269MOL0     C37049   1.093   3.332   4.775 -0.1033  0.0490 -0.3998
  269MOL0     C37050   1.641   3.879   4.850 -0.3401 -1.5819  0.2686
  269MOL0     C37051   1.753   3.960   4.831 -0.4179 -0.3453  0.3554
  269MOL0     C37052   1.840   3.935   4.705  0.8661  0.8027  0.7989
  269MOL0     H37053   2.197   4.157   4.985  0.7997 -0.8263  1.9602
  269MOL0     H37054   2.367   4.326   4.979 -0.0930  0.2161 -1.6559
  269MOL0     H37055   2.333   4.769   5.092 -1.3217  2.4420 -1.8037
  269MOL0     H37056   2.255   4.730   4.942  0.4533  0.0969  0.4059
  269MOL0     H37057   2.459   4.712   4.824  0.4896  0.2399 -0.7702
  269MOL0     H37058   2.461   4.862   4.910  2.4169 -0.4783 -1.7751
  269MOL0     H37059   2.608   4.765   5.080  0.6200  0.8363 -0.1858
  269MOL0     H37060   2.619   4.614   4.979  0.8182  0.3292 -3.2712
  269MOL0     H37061   2.721   4.752   4.792  1.0442  1.5523 -0.6022
  269MOL0     H37062   2.692   4.889   4.906 -0.7323 -0.7276 -1.2429
  269MOL0     H37063   2.900   4.668   4.925  0.6157 -0.2105  2.7687
  269MOL0     H37064   2.850   4.751   5.065  5.1540 -0.3506  0.9183
  269MOL0     H37065   2.900   4.967   4.956 -0.8612 -0.2376 -0.1648
  269MOL0     H37066   3.024   4.864   5.010  0.9980  1.8337 -0.9895
  269MOL0     H37067   3.060   4.982   4.776  0.8599  0.2049  1.5170
  269MOL0     H37068   2.965   4.851   4.711  2.3688 -0.4552 -0.2966
  269MOL0     H37069   3.219   4.808   4.866 -0.1843  2.1774 -0.3077
  269MOL0     H37070   3.100   4.678   4.816  3.4133 -2.6661 -1.9765
  269MOL0     H37071   3.221   4.555   4.612 -1.1917  0.8960  1.5474
  269MOL0     H37072   3.318   4.669   4.276  1.9391  1.7217  0.3441
  269MOL0     H37073   3.312   4.527   4.380  0.6881 -0.1204  2.0676
  269MOL0     H37074   3.535   4.734   4.361  0.0393  0.0279  0.7298
  269MOL0     H37075   3.553   4.586   4.454  1.2343  1.1005  0.1450
  269MOL0     H37076   3.530   4.443   4.255  1.1326 -0.6166  1.2135
  269MOL0     H37077   3.530   4.586   4.159  0.4676  0.7369  0.5123
  269MOL0     H37078   3.752   4.640   4.201 -1.4038  0.5492 -0.1803
  269MOL0     H37079   3.746   4.547   4.361 -0.2473 -2.6150  0.2563
  269MOL0     H37080   3.859   4.258   4.061 -0.5699 -0.8391  2.7141
  269MOL0     H37081   4.147   4.083   4.051 -0.1060 -0.4664 -0.6482
  269MOL0     H37082   4.196   4.185   3.921 -0.5446 -0.1006 -1.0511
  269MOL0     H37083   4.033   4.122   3.927  2.0458 -2.1330 -1.5773
  269MOL0     H37084   4.544   4.419   4.435  1.0181  0.3060 -0.0714
  269MOL0     H37085   4.776   4.377   4.469  1.5086 -0.2364  0.0422
  269MOL0     H37086   4.968   4.021   4.276  0.0446 -0.0829  1.2793
  269MOL0     H37087   4.979   4.165   4.162  0.6961 -0.7600 -0.1075
  269MOL0     H37088   5.165   4.084   4.385  4.3755  3.1883  0.8949
  269MOL0     H37089   5.217   4.105   4.227 -0.0307 -1.0284  0.3193
  269MOL0     H37090   5.146   4.312   4.435 -1.0808 -2.0985 -0.6141
  269MOL0     H37091   5.121   4.356   4.265  0.2861 -0.4212 -0.3700
  269MOL0     H37092   5.343   4.429   4.339  0.7936  0.3149 -0.0941
  269MOL0     H37093   5.370   4.292   4.228  0.4641  0.4860  0.4325
  269MOL0     H37094   5.346   4.240   4.537 -1.8194  0.6120 -0.7442
  269MOL0     H37095   5.409   4.124   4.426 -0.2381 -1.0486  4.6787
  269MOL0     H37096   5.567   4.230   4.548  0.2517 -1.5259 -1.5984
  269MOL0     H37097   5.517   4.394   4.495  3.2056  0.2820  1.9713
  269MOL0     H37098   5.585   4.333   4.261  0.9388 -1.5000 -1.6400
  269MOL0     H37099   5.622   4.168   4.320 -0.9885  0.4895 -1.8022
  269MOL0     H37100   5.835   4.266   4.320  0.1691 -2.1885  1.9521
  269MOL0     H37101   5.794   4.285   4.485  2.2510  2.2938  0.7522
  269MOL0     H37102   4.756   4.111   4.137  0.2714  1.7389 -0.6418
  269MOL0     H37103   4.549   4.142   4.099  0.2552  1.3757 -0.3412
  269MOL0     H37104   4.215   4.531   4.263  0.5776  3.7238 -4.7447
  269MOL0     H37105   3.995   4.593   4.281 -0.0825  0.2672 -1.2334
  269MOL0     H37106   2.088   4.635   5.080  0.8154  0.7129  3.2121
  269MOL0     H37107   1.905   4.462   5.083 -0.4612 -2.7148 -0.5531
  269MOL0     H37108   1.712   4.152   5.112  1.3421 -2.1340  1.6894
  269MOL0     H37109   1.504   4.008   5.132 -0.0192 -2.1656  0.2727
  269MOL0     H37110   1.310   3.978   4.918 -2.1200 -0.9640 -0.7787
  269MOL0     H37111   1.351   3.866   4.782 -0.7311 -0.8790 -0.3816
  269MOL0     H37112   1.118   3.838   4.858  1.0908  0.1110 -0.9341
  269MOL0     H37113   1.182   3.823   5.025  0.3830  3.4778  0.2926
  269MOL0     H37114   1.297   3.634   4.833 -0.1164  1.7856  0.0092
  269MOL0     H37115   1.220   3.597   4.990  0.5028 -2.0469 -1.4980
  269MOL0     H37116   1.131   3.638   4.703  0.3943 -1.9515 -1.1890
  269MOL0     H37117   1.008   3.652   4.837 -0.4217 -0.9450 -0.0244
  269MOL0     H37118   1.094   3.226   4.764 -0.2798  0.2145 -2.5749
  269MOL0     H37119   1.626   3.803   4.774 -0.5342  0.6108 -2.0443
  269MOL0     H37120   1.787   3.861   4.645  0.4340  0.8955  1.0626
  269MOL0     H37121   1.862   4.023   4.644 -3.3908 -0.3696 -2.8871
  269MOL0     H37122   1.931   3.884   4.738 -0.6488 -1.1437  2.2199
  270MOL0     O37123   5.613   9.892   4.375 -0.9002 -0.8456 -0.3918
  270MOL0     C37124   5.566   9.990   4.315  1.1645  0.0560 -0.0441
  270MOL0     O37125   5.633  10.110   4.283  0.3485 -0.7225 -0.2193
  270MOL0     C37126   5.746  10.150   4.347 -0.0936  0.3681  0.2518
  270MOL0     C37127   5.761  10.140   4.488 -0.5580 -0.1120  1.5203
  270MOL0     C37128   5.881  10.177   4.544  0.2523 -1.3140  0.3437
  270MOL0     C37129   5.981  10.245   4.465 -0.3853 -0.5981 -0.0986
  270MOL0     O37130   6.091  10.290   4.528  0.6345  0.2339  0.2814
  270MOL0     C37131   6.204  10.335   4.453 -0.1915  0.1456  0.3968
  270MOL0     C37132   6.323  10.382   4.543  0.0578 -1.3406 -0.3787
  270MOL0     C37133   6.441  10.446   4.467  0.5560  0.3405 -0.1311
  270MOL0     C37134   6.540  10.466   4.582  0.1779  0.0875  0.0446
  270MOL0     C37135   6.673  10.495   4.510  0.2471 -0.9564 -0.1593
  270MOL0     C37136   6.792  10.507   4.606  0.1112 -0.2229 -0.1672
  270MOL0     C37137   6.773  10.602   4.727  0.0774 -0.6432  0.7812
  270MOL0     C37138   6.737  10.745   4.695  0.0674 -0.3711 -0.4011
  270MOL0     N37139   6.859  10.823   4.694 -0.0549  0.0235  0.7316
  270MOL0     C37140   6.935  10.845   4.582  0.1627  0.2291  0.2393
  270MOL0     C37141   7.045  10.905   4.619 -0.8427 -0.7591  0.2027
  270MOL0     C37142   7.143  10.978   4.531 -0.4124 -0.0876 -0.5597
  270MOL0     C37143   7.173  10.916   4.397  0.4682  0.1723 -0.2142
  270MOL0     C37144   7.233  10.773   4.407  0.2151 -0.3346  0.5143
  270MOL0     C37145   7.194  10.708   4.272 -0.2690  0.3016  0.5414
  270MOL0     O37146   7.190  10.569   4.283 -0.3416 -0.0970  0.6244
  270MOL0     C37147   7.305  10.498   4.279 -0.0848 -0.6690 -0.5167
  270MOL0     C37148   7.433  10.542   4.249  0.1197 -0.4725 -1.1467
  270MOL0     C37149   7.547  10.459   4.263  0.3641  0.5859 -0.1581
  270MOL0     C37150   7.684  10.510   4.226  0.8588 -1.0004  0.4130
  270MOL0     C37151   7.529  10.331   4.321  0.5640  0.5584  0.5611
  270MOL0     C37152   7.634  10.231   4.361 -0.0501 -0.5521  0.0548
  270MOL0     O37153   7.590  10.115   4.403  0.6626  0.3194  0.5860
  270MOL0     C37154   7.673  10.027   4.476  0.2754 -0.7521 -0.1198
  270MOL0     C37155   7.670   9.895   4.431  1.2035 -1.0989  0.5966
  270MOL0     C37156   7.761   9.798   4.479  0.3325 -0.9320 -0.7900
  270MOL0     C37157   7.845   9.823   4.589  0.0379  0.2283 -0.0390
  270MOL0     O37158   7.926   9.723   4.639 -1.0000 -0.3590 -0.0008
  270MOL0     C37159   7.898   9.580   4.620 -0.2247 -0.0949  0.1510
  270MOL0     C37160   7.961   9.498   4.733  0.0462 -0.3563  0.4080
  270MOL0     C37161   8.111   9.520   4.734  0.4084  0.1137 -0.7728
  270MOL0     C37162   8.157   9.493   4.884 -0.1714 -0.1247 -0.0860
  270MOL0     C37163   8.305   9.502   4.901 -0.0754  0.4693  0.0173
  270MOL0     C37164   8.372   9.374   4.852 -0.1126  0.4521  0.5057
  270MOL0     C37165   8.521   9.393   4.862 -0.7878 -0.2584 -0.3881
  270MOL0     C37166   8.591   9.282   4.790 -0.4576 -0.5085 -0.1006
  270MOL0    Cl37167   8.780   9.301   4.788 -0.1274  0.3061 -0.0002
  270MOL0     C37168   7.841   9.954   4.645  0.0958  0.6070  0.1536
  270MOL0     C37169   7.763  10.054   4.582  1.0857  0.1210  1.6396
  270MOL0     O37170   7.746  10.276   4.388  0.1905 -0.0897 -0.9372
  270MOL0     C37171   7.398  10.283   4.341  0.4508 -0.9913  0.2307
  270MOL0     C37172   7.287  10.371   4.317 -1.2429  0.2282 -1.0271
  270MOL0     N37173   7.041  10.901   4.758 -0.5336 -0.4510  0.0287
  270MOL0     N37174   6.932  10.853   4.800  0.3994 -0.2592 -0.6878
  270MOL0     C37175   5.955  10.270   4.329  0.7726  0.1967  0.8458
  270MOL0     C37176   5.843  10.213   4.272 -0.3639  0.5179  0.3110
  270MOL0     C37177   5.418   9.983   4.272 -0.4596 -0.7555  0.7043
  270MOL0     C37178   5.359   9.856   4.259  0.1420  0.3473  0.3613
  270MOL0     C37179   5.225   9.836   4.231 -0.2385  0.1836 -0.2277
  270MOL0     C37180   5.139   9.942   4.207 -0.3130 -0.1971 -0.4520
  270MOL0     O37181   5.004   9.928   4.196 -0.3056  0.1312  0.6770
  270MOL0     C37182   4.935  10.014   4.110  0.0766 -0.2371 -0.3019
  270MOL0     C37183   4.821   9.935   4.056 -0.9802  0.8743  0.4043
  270MOL0     C37184   4.750  10.020   3.955  0.0393 -0.5158  0.2524
  270MOL0     C37185   4.621   9.960   3.908 -0.3164 -0.1838  0.4930
  270MOL0     C37186   4.527  10.051   3.845 -0.3237  0.7879  0.6250
  270MOL0     C37187   4.453  10.119   3.777  0.9854  0.3708 -0.5629
  270MOL0     C37188   5.198  10.070   4.209 -0.7363 -0.5987  0.2219
  270MOL0     C37189   5.336  10.095   4.238  0.7057  0.1436 -0.3987
  270MOL0     C37190   5.379  10.244   4.254 -0.5018  0.3241 -0.1932
  270MOL0     H37191   5.682  10.099   4.550 -1.6103  1.5514  1.3452
  270MOL0     H37192   5.887  10.173   4.652  3.4415  1.1259  0.4092
  270MOL0     H37193   6.171  10.408   4.379 -1.1025 -0.4053  0.2392
  270MOL0     H37194   6.238  10.253   4.389  1.3517  1.1239 -0.0829
  270MOL0     H37195   6.283  10.447   4.621  0.0542 -2.7618  0.8445
  270MOL0     H37196   6.344  10.292   4.601 -2.3708  0.1905  3.2110
  270MOL0     H37197   6.466  10.371   4.391 -1.7912 -0.5112 -0.1533
  270MOL0     H37198   6.410  10.544   4.429 -1.5066 -0.9254 -1.9364
  270MOL0     H37199   6.501  10.549   4.642 -0.2867 -1.5961  2.1999
  270MOL0     H37200   6.558  10.377   4.643  0.0731 -1.1337 -1.6505
  270MOL0     H37201   6.664  10.598   4.473 -0.2942 -0.7548  0.5165
  270MOL0     H37202   6.691  10.422   4.430  1.5010 -1.5880  0.6620
  270MOL0     H37203   6.803  10.407   4.650 -1.1505 -0.3120 -0.0274
  270MOL0     H37204   6.879  10.538   4.547  0.2795  1.4652  0.8919
  270MOL0     H37205   6.868  10.603   4.781 -0.0512  4.5465  1.4226
  270MOL0     H37206   6.699  10.557   4.793  1.0267 -0.7437  1.8038
  270MOL0     H37207   6.679  10.752   4.602 -0.3223  1.2606 -0.0658
  270MOL0     H37208   6.666  10.783   4.770  0.8909  0.2640  0.0766
  270MOL0     H37209   6.906  10.831   4.479 -0.7235 -0.8466  0.6091
  270MOL0     H37210   7.238  10.987   4.584 -0.3212 -0.7937 -0.5974
  270MOL0     H37211   7.114  11.081   4.507  1.6189  0.4120 -1.0602
  270MOL0     H37212   7.083  10.924   4.336  1.7931 -0.3632 -2.3472
  270MOL0     H37213   7.249  10.981   4.351  3.1657 -1.8840  1.0573
  270MOL0     H37214   7.342  10.778   4.420  0.1273  1.0027  0.8270
  270MOL0     H37215   7.206  10.719   4.498  1.4418 -1.7123  0.1055
  270MOL0     H37216   7.090  10.735   4.254  0.1329  2.1242  0.6840
  270MOL0     H37217   7.255  10.742   4.188 -0.8100 -0.0623  0.0021
  270MOL0     H37218   7.442  10.644   4.212 -0.7839 -0.4828 -1.3984
  270MOL0     H37219   7.750  10.530   4.311  1.0751 -0.3231  0.0933
  270MOL0     H37220   7.672  10.610   4.182 -1.9062 -1.4706 -0.0740
  270MOL0     H37221   7.743  10.445   4.161  1.8154 -0.3166  0.5829
  270MOL0     H37222   7.614   9.872   4.341  3.0952  0.0038 -0.9320
  270MOL0     H37223   7.750   9.694   4.450 -1.5623 -1.3593  1.2241
  270MOL0     H37224   7.792   9.553   4.617  0.3251 -2.9514  2.1967
  270MOL0     H37225   7.945   9.549   4.527  0.5289 -1.6432  1.0095
  270MOL0     H37226   7.921   9.541   4.825  2.0993  0.9113  0.7840
  270MOL0     H37227   7.929   9.396   4.713  1.4528 -0.6473 -0.5593
  270MOL0     H37228   8.139   9.622   4.707  1.2632  0.1149  0.0442
  270MOL0     H37229   8.151   9.453   4.658  0.3876 -1.3969  0.4961
  270MOL0     H37230   8.123   9.395   4.920  2.3298 -1.7151 -1.7498
  270MOL0     H37231   8.123   9.564   4.959  1.3434  0.3043  0.2270
  270MOL0     H37232   8.342   9.591   4.850 -1.9151  3.1804  3.0800
  270MOL0     H37233   8.323   9.505   5.009  1.4440  0.3548 -0.2178
  270MOL0     H37234   8.343   9.355   4.748 -1.9944  1.5059  0.7976
  270MOL0     H37235   8.331   9.289   4.907 -1.1381 -1.7605 -3.3083
  270MOL0     H37236   8.554   9.389   4.966 -0.9343 -1.8305 -0.3750
  270MOL0     H37237   8.562   9.485   4.819  1.5230 -1.8040 -1.7562
  270MOL0     H37238   8.546   9.291   4.690  0.8487  2.9869 -0.5317
  270MOL0     H37239   8.568   9.187   4.837 -2.9911 -0.1692 -0.4940
  270MOL0     H37240   7.889   9.997   4.732 -0.5880 -0.0871  0.8971
  270MOL0     H37241   7.751  10.150   4.631 -0.0684  0.7433  0.2372
  270MOL0     H37242   7.379  10.183   4.377 -5.1980  0.5379  2.6144
  270MOL0     H37243   7.187  10.334   4.335  0.8236 -5.2819  1.3840
  270MOL0     H37244   6.019  10.326   4.262  0.7239 -1.8454 -1.0326
  270MOL0     H37245   5.824  10.214   4.165  1.0676 -0.3439  0.0216
  270MOL0     H37246   5.422   9.767   4.264 -0.9113 -0.3757  1.9723
  270MOL0     H37247   5.190   9.733   4.232  0.7754 -0.1818  1.3793
  270MOL0     H37248   4.891  10.091   4.174 -2.7825 -1.9012 -0.0972
  270MOL0     H37249   4.995  10.055   4.029 -0.4496 -2.8910 -2.1802
  270MOL0     H37250   4.741   9.913   4.128 -1.2620  2.4134  0.5967
  270MOL0     H37251   4.843   9.837   4.012  0.9558  1.2930  0.3605
  270MOL0     H37252   4.732  10.117   4.002  2.1783  0.7064 -1.2601
  270MOL0     H37253   4.808  10.037   3.863 -1.3665 -1.0742 -0.7715
  270MOL0     H37254   4.572   9.913   3.994 -0.9243  1.2503  0.9627
  270MOL0     H37255   4.639   9.889   3.827  1.2027  0.5374  0.1637
  270MOL0     H37256   4.385  10.175   3.715  1.6532  0.3596 -1.3230
  270MOL0     H37257   5.136  10.158   4.200 -1.4897 -1.2011 -0.6767
  270MOL0     H37258   5.455  10.252   4.331  0.7323  1.9750 -1.5063
  270MOL0     H37259   5.425  10.296   4.169 -1.0480 -1.1974 -1.4830
  270MOL0     H37260   5.289  10.299   4.284  0.2518  0.8807  1.0954
  271MOL0     O37261  10.552   2.016   0.663  1.2871 -0.3412 -0.1460
  271MOL0     C37262  10.498   1.918   0.610 -0.3500  0.2657  0.3005
  271MOL0     O37263  10.549   1.791   0.612  0.7081  0.6891  0.5010
  271MOL0     C37264  10.655   1.776   0.692  0.3842  0.2595  0.0864
  271MOL0     C37265  10.776   1.727   0.640  0.4771 -0.8404  0.7310
  271MOL0     C37266  10.890   1.713   0.721 -0.2364  0.6589  0.6175
  271MOL0     C37267  10.890   1.747   0.855  0.0015 -0.9372  0.5335
  271MOL0     O37268  10.993   1.734   0.948 -0.4042 -0.0116  0.5595
  271MOL0     C37269  11.123   1.737   0.886  0.2060  0.9923 -0.5780
  271MOL0     C37270  11.219   1.747   1.003 -0.9331  0.2115  1.0348
  271MOL0     C37271  11.174   1.833   1.114  0.0352 -0.2238  0.2814
  271MOL0     C37272  11.289   1.867   1.219  0.6821 -0.1193  0.2704
  271MOL0     C37273  11.243   1.945   1.342 -0.2687  0.3687  0.6493
  271MOL0     C37274  11.364   2.023   1.407  0.0192  0.1434  0.4635
  271MOL0     C37275  11.460   1.937   1.480  0.0013  0.5536 -0.2072
  271MOL0     C37276  11.407   1.869   1.613 -0.1198 -0.3464  0.1487
  271MOL0     N37277  11.516   1.805   1.683 -0.1346  0.3546 -0.0087
  271MOL0     C37278  11.622   1.744   1.621 -0.1232  0.0966 -0.1554
  271MOL0     C37279  11.717   1.740   1.712 -0.4642 -0.3109 -0.2937
  271MOL0     C37280  11.860   1.679   1.695  1.0043  0.6686  0.7546
  271MOL0     C37281  11.982   1.773   1.709  0.1332  0.5175  0.8663
  271MOL0     C37282  12.112   1.684   1.747  0.0069  0.2238 -0.2194
  271MOL0     C37283  12.186   1.653   1.620  0.3918  0.3117 -0.0969
  271MOL0     O37284  12.314   1.594   1.637  0.1788  0.6485  0.2819
  271MOL0     C37285  12.397   1.590   1.529  0.5487  0.2607 -0.6533
  271MOL0     C37286  12.513   1.509   1.534 -0.5549 -0.5591  0.3808
  271MOL0     C37287  12.590   1.478   1.423 -0.0562 -0.2163  0.1210
  271MOL0     C37288  12.716   1.401   1.456 -0.1611 -0.1768  0.0838
  271MOL0     C37289  12.549   1.530   1.298  0.2667  0.1226 -0.4842
  271MOL0     C37290  12.616   1.498   1.172 -0.9433  0.5957 -0.4852
  271MOL0     O37291  12.570   1.552   1.058  0.2293 -1.2497 -0.4853
  271MOL0     C37292  12.618   1.516   0.937 -0.2273  0.0103  0.6761
  271MOL0     C37293  12.659   1.382   0.902 -0.8139 -1.3110 -0.2233
  271MOL0     C37294  12.711   1.367   0.773 -0.1926  0.7733  0.3406
  271MOL0     C37295  12.723   1.473   0.676 -0.1896 -0.7026  0.5054
  271MOL0     O37296  12.760   1.453   0.546 -0.1857 -0.6076  0.2799
  271MOL0     C37297  12.761   1.322   0.488 -0.0190 -0.3288  0.2303
  271MOL0     C37298  12.807   1.319   0.341 -0.8312  0.5131 -0.1487
  271MOL0     C37299  12.949   1.376   0.320  0.2246 -0.1726 -0.5212
  271MOL0     C37300  13.006   1.336   0.183  0.5075 -0.4129  0.0935
  271MOL0     C37301  13.154   1.361   0.163  0.4922 -0.1089  0.0731
  271MOL0     C37302  13.174   1.503   0.118  0.3746  0.2251  0.1764
  271MOL0     C37303  13.319   1.534   0.111 -0.7400  0.0306  0.6832
  271MOL0     C37304  13.393   1.481  -0.013 -0.0961  0.5413  0.3614
  271MOL0    Cl37305  13.562   1.542  -0.017  0.0851  0.0986 -0.4791
  271MOL0     C37306  12.682   1.599   0.716  0.2657  0.7594 -0.1804
  271MOL0     C37307  12.627   1.622   0.847 -0.4925 -0.0230 -0.0443
  271MOL0     O37308  12.717   1.428   1.175 -0.4498 -0.5468 -0.0965
  271MOL0     C37309  12.443   1.618   1.297  0.3151 -0.5487 -0.6671
  271MOL0     C37310  12.365   1.648   1.412 -1.2144  0.1227  0.3616
  271MOL0     N37311  11.659   1.803   1.832  0.4351  0.9881 -0.5757
  271MOL0     N37312  11.541   1.842   1.806  0.0983  0.1936 -0.6116
  271MOL0     C37313  10.771   1.800   0.906 -0.7305 -0.2628 -0.1901
  271MOL0     C37314  10.658   1.806   0.829  0.4576 -0.4940 -1.0278
  271MOL0     C37315  10.379   1.937   0.531  0.1408  0.3978 -0.1331
  271MOL0     C37316  10.281   2.041   0.571 -0.2535  0.3491 -0.3426
  271MOL0     C37317  10.163   2.053   0.508 -1.0467  0.0860 -0.1254
  271MOL0     C37318  10.124   1.966   0.405 -0.9125 -0.1807  0.0017
  271MOL0     O37319  10.005   1.966   0.341 -0.2832  0.3224 -1.0659
  271MOL0     C37320   9.907   2.063   0.366  0.0299  0.6523  0.0129
  271MOL0     C37321   9.792   2.032   0.267  0.5144 -0.7446  1.1392
  271MOL0     C37322   9.669   2.125   0.273 -0.4311 -0.5097  0.3660
  271MOL0     C37323   9.555   2.084   0.182 -0.1121 -0.9041 -0.2394
  271MOL0     C37324   9.433   2.164   0.205  0.7128  0.5556  0.5806
  271MOL0     C37325   9.331   2.225   0.233 -0.4182 -0.6321  0.3378
  271MOL0     C37326  10.221   1.877   0.361  0.3117 -0.6897  0.2128
  271MOL0     C37327  10.350   1.862   0.418  0.2134 -0.3109 -1.4576
  271MOL0     C37328  10.441   1.783   0.332  0.3212 -0.3092  0.7173
  271MOL0     H37329  10.765   1.709   0.534 -1.3043  5.3325 -0.5579
  271MOL0     H37330  10.972   1.659   0.676 -1.4368 -2.1461  1.5900
  271MOL0     H37331  11.137   1.818   0.814 -2.5786  0.2907 -2.0684
  271MOL0     H37332  11.124   1.645   0.828 -0.5801 -1.3068  2.7936
  271MOL0     H37333  11.243   1.647   1.042 -0.2462 -0.1055 -0.1477
  271MOL0     H37334  11.316   1.790   0.975  0.8627 -2.9341  1.9260
  271MOL0     H37335  11.135   1.929   1.076  0.3178 -0.1605  0.1520
  271MOL0     H37336  11.099   1.780   1.173  3.0597 -0.8142  3.9185
  271MOL0     H37337  11.343   1.777   1.250  1.6423  0.4636  0.3336
  271MOL0     H37338  11.349   1.933   1.155 -0.4922  1.5006  0.7565
  271MOL0     H37339  11.199   1.878   1.417  0.1318  0.7200  1.2030
  271MOL0     H37340  11.169   2.017   1.307  1.6850  0.6719 -3.4090
  271MOL0     H37341  11.412   2.074   1.323  0.2511 -2.1786 -0.9232
  271MOL0     H37342  11.327   2.100   1.475 -2.5193 -1.4530  1.0316
  271MOL0     H37343  11.548   1.993   1.514 -0.4780  0.9243  0.4489
  271MOL0     H37344  11.495   1.859   1.412  0.1803  3.2322 -3.4029
  271MOL0     H37345  11.352   1.949   1.663 -1.1588 -0.2442 -1.0830
  271MOL0     H37346  11.339   1.786   1.592  1.4433 -1.3869 -1.0691
  271MOL0     H37347  11.629   1.714   1.517  0.1601  1.6038 -0.5936
  271MOL0     H37348  11.873   1.639   1.594  2.4107 -0.1169  1.2136
  271MOL0     H37349  11.865   1.585   1.750 -1.6565 -0.7838 -1.2656
  271MOL0     H37350  11.986   1.823   1.612  0.3927 -1.7951 -0.3727
  271MOL0     H37351  11.962   1.843   1.792  0.2217 -0.3258  1.6149
  271MOL0     H37352  12.168   1.743   1.820 -1.5375  0.3884  0.8883
  271MOL0     H37353  12.074   1.596   1.799 -2.8343  1.5717  0.2091
  271MOL0     H37354  12.116   1.590   1.564 -1.7893  2.4995 -0.0316
  271MOL0     H37355  12.191   1.749   1.569 -4.0700  0.2733 -0.9860
  271MOL0     H37356  12.540   1.474   1.633 -2.7356  2.7359  2.3475
  271MOL0     H37357  12.724   1.302   1.409  3.7332  0.4028 -0.7554
  271MOL0     H37358  12.728   1.388   1.564  1.4554 -3.0816 -0.3255
  271MOL0     H37359  12.805   1.449   1.416  0.8553 -0.2394  2.1542
  271MOL0     H37360  12.651   1.293   0.965  1.3307 -0.2869  1.6363
  271MOL0     H37361  12.744   1.265   0.759 -1.2149  0.4057  0.5288
  271MOL0     H37362  12.826   1.260   0.550 -2.6432 -2.3052  1.1603
  271MOL0     H37363  12.659   1.284   0.491 -0.9138  1.9739  1.8619
  271MOL0     H37364  12.806   1.218   0.300  1.3186 -0.1411  1.2273
  271MOL0     H37365  12.733   1.371   0.278 -1.4293 -0.9846 -0.7350
  271MOL0     H37366  13.021   1.341   0.394  0.8381  0.8134 -0.6246
  271MOL0     H37367  12.953   1.485   0.320 -0.4242 -0.1288  0.9973
  271MOL0     H37368  12.947   1.389   0.108  1.3225 -0.5048 -0.6345
  271MOL0     H37369  12.983   1.229   0.172 -0.2115 -0.0992 -1.9751
  271MOL0     H37370  13.203   1.343   0.259  0.5518 -0.8010 -0.0833
  271MOL0     H37371  13.200   1.290   0.094  2.6373 -0.1907  1.4818
  271MOL0     H37372  13.126   1.555   0.201  0.4889 -1.4143  1.3404
  271MOL0     H37373  13.116   1.522   0.027  2.4640  1.2306 -0.9996
  271MOL0     H37374  13.378   1.495   0.195 -0.5674 -0.5360  0.3039
  271MOL0     H37375  13.332   1.643   0.105 -4.0228  0.4493 -0.6140
  271MOL0     H37376  13.336   1.519  -0.098 -2.9067 -1.0307  1.4183
  271MOL0     H37377  13.378   1.373  -0.024 -0.2171  0.6209 -0.3392
  271MOL0     H37378  12.677   1.680   0.645 -2.6210  0.2883 -0.6652
  271MOL0     H37379  12.584   1.717   0.878 -0.7313 -1.0016  2.9334
  271MOL0     H37380  12.426   1.683   1.212  0.4975 -0.5536 -0.7088
  271MOL0     H37381  12.287   1.719   1.388 -1.2493  0.6312  1.9213
  271MOL0     H37382  10.768   1.828   1.011  1.9086  1.1620 -0.4151
  271MOL0     H37383  10.569   1.843   0.877  0.4118  2.5076 -3.1446
  271MOL0     H37384  10.311   2.116   0.644 -0.3387 -0.3836  0.4641
  271MOL0     H37385  10.083   2.119   0.540 -2.7324 -1.1202 -1.6731
  271MOL0     H37386   9.882   2.053   0.472  0.3323 -0.3786 -0.0080
  271MOL0     H37387   9.944   2.164   0.345 -3.3262  2.1657  0.6748
  271MOL0     H37388   9.748   1.936   0.298  1.4971 -1.1460  1.3174
  271MOL0     H37389   9.830   2.018   0.166  0.7192 -2.0038  1.3696
  271MOL0     H37390   9.637   2.140   0.377 -0.4858  0.1846  0.2565
  271MOL0     H37391   9.708   2.221   0.238 -0.1597 -0.5922  0.4361
  271MOL0     H37392   9.529   1.979   0.190  2.2777 -1.3903  2.7635
  271MOL0     H37393   9.590   2.095   0.078  2.8868  1.4121  0.8450
  271MOL0     H37394   9.248   2.291   0.252  2.5919  3.4152  0.7364
  271MOL0     H37395  10.190   1.808   0.282  0.1439 -0.0087 -0.3217
  271MOL0     H37396  10.485   1.695   0.379 -2.2048 -1.6790  0.7429
  271MOL0     H37397  10.396   1.755   0.236 -0.0768  0.7823  0.5675
  271MOL0     H37398  10.523   1.850   0.307 -0.3736  0.2681 -0.0864
  272MOL0     O37399   8.162   3.226   0.686 -0.3609  0.1175  0.3290
  272MOL0     C37400   8.129   3.111   0.718  0.1107  0.1847 -0.1603
  272MOL0     O37401   8.222   3.012   0.755 -0.4471 -0.2002 -0.2898
  272MOL0     C37402   8.339   3.038   0.821  0.1492 -0.6152  0.5124
  272MOL0     C37403   8.433   2.936   0.802 -0.8676 -0.2592  0.0995
  272MOL0     C37404   8.555   2.941   0.880  1.2180  0.1358  0.5518
  272MOL0     C37405   8.578   3.044   0.971 -0.6841 -0.2487  0.7691
  272MOL0     O37406   8.686   3.042   1.054 -0.4258 -0.2081 -0.5098
  272MOL0     C37407   8.687   2.941   1.150  0.8762  0.1602 -1.2961
  272MOL0     C37408   8.780   2.982   1.271 -0.0649  0.1239  0.4710
  272MOL0     C37409   8.722   3.100   1.357 -0.7086  0.1308  0.2789
  272MOL0     C37410   8.598   3.053   1.432 -0.0810  0.6909  0.3713
  272MOL0     C37411   8.549   3.160   1.527  0.1528 -0.8148 -0.5819
  272MOL0     C37412   8.427   3.105   1.603  0.2864  0.7463  0.0625
  272MOL0     C37413   8.376   3.215   1.692  0.2316 -0.4750  0.1465
  272MOL0     C37414   8.256   3.173   1.773  0.6086  0.0501 -0.6063
  272MOL0     N37415   8.191   3.286   1.834  0.6073  0.3929  0.2034
  272MOL0     C37416   8.066   3.332   1.785  0.6047 -0.1398 -0.0562
  272MOL0     C37417   8.018   3.402   1.889 -0.4836  0.1461  0.1052
  272MOL0     C37418   7.874   3.444   1.898  0.1890 -0.1113  0.0929
  272MOL0     C37419   7.841   3.595   1.885  0.2410 -0.2666 -0.0091
  272MOL0     C37420   7.870   3.647   1.745  0.7029  0.5747  1.1799
  272MOL0     C37421   7.919   3.790   1.739 -0.0504 -0.2880 -0.1465
  272MOL0     O37422   8.038   3.814   1.811  0.2657  0.4206 -0.7162
  272MOL0     C37423   8.155   3.752   1.769  0.3640 -0.2854 -0.1685
  272MOL0     C37424   8.178   3.722   1.630 -0.5161  0.6138  0.9056
  272MOL0     C37425   8.299   3.658   1.595  0.2039 -0.6536  0.4480
  272MOL0     C37426   8.312   3.618   1.452 -0.3333  0.6872 -0.0744
  272MOL0     C37427   8.401   3.640   1.691 -0.2526  0.2408  0.0607
  272MOL0     C37428   8.538   3.591   1.658 -0.4156 -0.0316  0.9061
  272MOL0     O37429   8.605   3.542   1.769  0.6990  0.1896 -0.3268
  272MOL0     C37430   8.721   3.463   1.767  0.1502  0.2636  0.3751
  272MOL0     C37431   8.783   3.431   1.888 -0.2757 -0.0756 -0.8834
  272MOL0     C37432   8.894   3.350   1.896  0.0252 -0.5529 -0.1523
  272MOL0     C37433   8.958   3.302   1.783  0.2575  0.2488  0.2501
  272MOL0     O37434   9.073   3.222   1.788  0.1487  0.4637  0.2070
  272MOL0     C37435   9.156   3.233   1.906  0.5137  0.0569  0.1795
  272MOL0     C37436   9.291   3.181   1.855 -0.0841 -0.3891 -0.2799
  272MOL0     C37437   9.404   3.199   1.966  0.3940 -0.3204  0.2224
  272MOL0     C37438   9.417   3.086   2.072 -0.1808 -0.1270  0.5505
  272MOL0     C37439   9.539   3.099   2.175  0.2978  0.3324 -0.3514
  272MOL0     C37440   9.681   3.069   2.113  0.8819 -0.4995  0.0168
  272MOL0     C37441   9.787   3.035   2.219  0.3035 -0.6839  0.5587
  272MOL0     C37442   9.915   2.975   2.155  0.8934 -0.4440 -0.5830
  272MOL0    Cl37443  10.014   3.120   2.078 -0.0853  0.2829  0.7299
  272MOL0     C37444   8.890   3.316   1.662  0.1458 -0.6094  0.0844
  272MOL0     C37445   8.779   3.405   1.652  0.7169  0.2849 -0.3227
  272MOL0     O37446   8.578   3.590   1.541  0.0733 -0.3075 -0.1333
  272MOL0     C37447   8.370   3.659   1.827  0.0886 -0.0293  0.3530
  272MOL0     C37448   8.249   3.713   1.867  0.3526  0.0395  0.0232
  272MOL0     N37449   8.113   3.400   1.990 -0.3340 -0.3487 -0.4434
  272MOL0     N37450   8.214   3.329   1.957  0.2068  0.3485 -0.6917
  272MOL0     C37451   8.485   3.150   0.980 -0.3227  0.1274  0.5160
  272MOL0     C37452   8.369   3.147   0.903 -0.3105 -1.1474 -0.2859
  272MOL0     C37453   7.989   3.069   0.720 -0.0116 -0.9755  0.5243
  272MOL0     C37454   7.954   2.938   0.758 -0.5827 -0.6158 -0.1415
  272MOL0     C37455   7.826   2.887   0.759  0.1222  0.2177 -0.5958
  272MOL0     C37456   7.718   2.967   0.717  0.6272 -1.0779 -0.4530
  272MOL0     O37457   7.589   2.907   0.715  0.6821 -0.1080  0.7056
  272MOL0     C37458   7.464   2.978   0.687  0.0302  0.1270 -0.1911
  272MOL0     C37459   7.349   2.910   0.756  0.1977 -0.5803  0.6436
  272MOL0     C37460   7.253   3.015   0.797  0.7391  0.3786  0.3128
  272MOL0     C37461   7.178   3.059   0.675  0.4905 -0.4184  0.0542
  272MOL0     C37462   7.073   3.155   0.712  0.7793 -0.4958 -0.0278
  272MOL0     C37463   6.983   3.245   0.725 -0.3658  0.4137  0.2762
  272MOL0     C37464   7.750   3.093   0.671  0.2988  1.2613 -0.3192
  272MOL0     C37465   7.881   3.150   0.683 -0.1165 -0.8983  0.2544
  272MOL0     C37466   7.888   3.287   0.629 -0.0962 -0.5607  0.2944
  272MOL0     H37467   8.410   2.865   0.724 -0.2902 -0.8383  0.4553
  272MOL0     H37468   8.623   2.857   0.879  0.8351 -0.2874 -3.2933
  272MOL0     H37469   8.723   2.848   1.104 -1.5468 -1.9232  0.7166
  272MOL0     H37470   8.588   2.916   1.188  1.3928 -0.2118 -0.1585
  272MOL0     H37471   8.809   2.894   1.330  0.6474 -1.5611 -2.1923
  272MOL0     H37472   8.875   2.998   1.218  0.2021  0.9501  1.1659
  272MOL0     H37473   8.798   3.132   1.429  0.7092  2.2108 -1.9533
  272MOL0     H37474   8.707   3.185   1.289 -0.3339 -0.3478 -0.4205
  272MOL0     H37475   8.523   3.017   1.362  0.5865 -1.5532  0.7552
  272MOL0     H37476   8.635   2.967   1.488  0.6095  1.8129  1.7305
  272MOL0     H37477   8.516   3.247   1.469  0.1130  0.0302  0.6807
  272MOL0     H37478   8.625   3.194   1.597 -1.2773  1.5046 -0.0526
  272MOL0     H37479   8.350   3.071   1.533 -0.3007  1.0660  0.5336
  272MOL0     H37480   8.464   3.026   1.669  0.1261  0.1448 -0.5651
  272MOL0     H37481   8.342   3.293   1.623 -3.2254 -1.8963  0.0335
  272MOL0     H37482   8.457   3.252   1.756  1.5539  0.1509 -1.7690
  272MOL0     H37483   8.192   3.115   1.705 -0.2760 -0.6224  0.7433
  272MOL0     H37484   8.286   3.103   1.852 -0.2373 -0.7714 -0.9956
  272MOL0     H37485   8.014   3.320   1.691 -0.4633  1.3740  0.3047
  272MOL0     H37486   7.842   3.412   1.997  0.9313 -1.4471 -0.0825
  272MOL0     H37487   7.808   3.395   1.826 -0.1816  0.8259 -0.2273
  272MOL0     H37488   7.735   3.609   1.909 -0.6883 -2.6068 -2.2682
  272MOL0     H37489   7.898   3.642   1.966  1.6239 -0.1388 -1.0234
  272MOL0     H37490   7.942   3.578   1.700  0.3054 -0.5002  2.1246
  272MOL0     H37491   7.795   3.634   1.667  2.3418 -0.9701 -0.2474
  272MOL0     H37492   7.928   3.833   1.638  1.6592  0.4679  0.2965
  272MOL0     H37493   7.850   3.847   1.801  1.2763 -1.7112  2.7959
  272MOL0     H37494   8.110   3.754   1.551  0.3394 -1.8248 -0.9422
  272MOL0     H37495   8.231   3.659   1.390 -0.6165  0.1420 -0.0742
  272MOL0     H37496   8.303   3.509   1.442 -1.0481  0.6479  0.8533
  272MOL0     H37497   8.408   3.646   1.408  0.0252 -0.6018 -0.1645
  272MOL0     H37498   8.726   3.461   1.976 -1.7607 -2.2705 -1.0336
  272MOL0     H37499   8.928   3.317   1.994 -0.2836  0.4637  0.3062
  272MOL0     H37500   9.151   3.335   1.947  1.4414  1.8077 -3.5466
  272MOL0     H37501   9.122   3.155   1.974  1.1143  0.6340  1.1821
  272MOL0     H37502   9.283   3.074   1.832 -0.1027 -0.3245 -0.5852
  272MOL0     H37503   9.315   3.243   1.769 -0.7823  0.7761  0.3432
  272MOL0     H37504   9.392   3.291   2.025 -1.1276  0.2937 -0.9719
  272MOL0     H37505   9.502   3.197   1.919  0.7041  0.0587  0.8371
  272MOL0     H37506   9.416   2.990   2.018 -0.7509 -0.1633  0.6164
  272MOL0     H37507   9.329   3.100   2.136 -0.8363 -0.4641 -0.2604
  272MOL0     H37508   9.536   3.204   2.206  0.8603  0.2941 -0.1647
  272MOL0     H37509   9.516   3.030   2.257  3.0953  0.8432  0.9665
  272MOL0     H37510   9.706   3.154   2.049 -0.6944  1.2212  1.5436
  272MOL0     H37511   9.675   2.984   2.045 -2.0546 -0.8119  0.5272
  272MOL0     H37512   9.749   2.973   2.301 -1.3565 -2.4955 -1.4206
  272MOL0     H37513   9.819   3.127   2.269 -0.9486 -0.2271  0.5544
  272MOL0     H37514   9.886   2.897   2.083 -0.1238 -1.0100  0.4201
  272MOL0     H37515   9.986   2.934   2.227  1.5063 -0.6784 -1.3055
  272MOL0     H37516   8.930   3.277   1.569 -0.7695  0.1732 -0.6641
  272MOL0     H37517   8.723   3.411   1.559 -2.0905  2.0692  1.3313
  272MOL0     H37518   8.439   3.642   1.909  0.0361  0.5938  0.5349
  272MOL0     H37519   8.226   3.720   1.972 -0.6479 -0.6631 -0.1432
  272MOL0     H37520   8.504   3.235   1.044  2.2610 -0.3539  0.5276
  272MOL0     H37521   8.293   3.225   0.907 -0.3816 -1.1693 -1.1056
  272MOL0     H37522   8.027   2.874   0.807  1.2960  0.6047 -1.2255
  272MOL0     H37523   7.806   2.785   0.791 -1.3312  1.3492  2.4308
  272MOL0     H37524   7.469   3.084   0.712 -1.7608  0.4380 -1.0097
  272MOL0     H37525   7.451   2.963   0.579 -0.5456 -3.8122  0.2658
  272MOL0     H37526   7.359   2.849   0.846 -2.5537 -0.7808  0.8900
  272MOL0     H37527   7.300   2.848   0.680 -0.2539  1.2215 -0.6136
  272MOL0     H37528   7.182   2.983   0.874  0.9069  0.7070  0.6082
  272MOL0     H37529   7.297   3.094   0.859  0.8856 -0.0240  0.7338
  272MOL0     H37530   7.134   2.974   0.623  3.0101 -1.7555 -0.0528
  272MOL0     H37531   7.243   3.116   0.608  2.8802  0.4320  2.8702
  272MOL0     H37532   6.902   3.315   0.731 -0.5388  0.1317  1.4577
  272MOL0     H37533   7.671   3.165   0.651 -1.5818 -0.6670 -0.1279
  272MOL0     H37534   7.803   3.319   0.568  0.5317  2.5388  0.8909
  272MOL0     H37535   7.905   3.356   0.712 -2.3371 -1.7681  1.8773
  272MOL0     H37536   7.971   3.288   0.558  0.2465  2.4440  0.6290
  273MOL0     O37537   3.029   6.573   9.812 -0.3264 -0.5919 -0.4717
  273MOL0     C37538   2.930   6.591   9.740 -0.0227 -0.1751  0.5663
  273MOL0     O37539   2.926   6.575   9.604 -0.8683 -0.1629  1.1369
  273MOL0     C37540   3.040   6.521   9.537 -0.4442  0.9231 -0.0196
  273MOL0     C37541   3.029   6.400   9.464 -0.0670  0.6528 -0.1963
  273MOL0     C37542   3.144   6.345   9.399 -0.8201  0.1174 -0.1248
  273MOL0     C37543   3.262   6.421   9.411 -0.8629  0.3493  0.0959
  273MOL0     O37544   3.375   6.386   9.347  0.7145 -0.4756  0.8197
  273MOL0     C37545   3.370   6.298   9.238 -0.2751 -0.1632 -0.3028
  273MOL0     C37546   3.501   6.341   9.160  0.0423  0.2365 -0.2358
  273MOL0     C37547   3.513   6.268   9.027 -0.1026 -0.6209  0.0865
  273MOL0     C37548   3.632   6.325   8.945  0.3921 -0.1675 -1.4304
  273MOL0     C37549   3.627   6.278   8.800 -0.1613  0.5012  0.3685
  273MOL0     C37550   3.736   6.340   8.719 -0.3450  0.0217 -0.3010
  273MOL0     C37551   3.709   6.301   8.575  0.7188  0.4125 -0.9357
  273MOL0     C37552   3.813   6.369   8.480  0.6235 -0.5295  0.3147
  273MOL0     N37553   3.780   6.514   8.444  0.3548  0.4211 -0.0965
  273MOL0     C37554   3.857   6.631   8.454  0.0891 -0.1258 -0.7138
  273MOL0     C37555   3.776   6.734   8.451  0.8792 -0.8166 -0.7423
  273MOL0     C37556   3.811   6.880   8.440  0.8815  0.8503  0.0193
  273MOL0     C37557   3.949   6.924   8.497 -0.0566  0.3249  1.1814
  273MOL0     C37558   4.039   7.004   8.394 -0.6170  0.1397 -0.6800
  273MOL0     C37559   4.164   7.062   8.459  0.2931  0.2889 -0.0335
  273MOL0     O37560   4.235   6.974   8.542  0.5581 -0.0810 -0.0529
  273MOL0     C37561   4.363   7.016   8.567 -0.3185  0.2102 -0.9322
  273MOL0     C37562   4.409   7.146   8.562  0.4368  0.5313 -1.0599
  273MOL0     C37563   4.543   7.180   8.563 -0.2947 -0.3416  0.0963
  273MOL0     C37564   4.573   7.330   8.554 -0.3801  0.0377  0.4312
  273MOL0     C37565   4.637   7.076   8.574 -0.6712 -0.1418  0.7667
  273MOL0     C37566   4.784   7.089   8.560 -0.6765 -0.2177  0.3168
  273MOL0     O37567   4.864   6.984   8.595  0.9951 -0.1207  0.3116
  273MOL0     C37568   5.003   6.996   8.576  0.6025 -0.1258  0.1336
  273MOL0     C37569   5.050   7.013   8.439  0.4303  0.6823  0.0177
  273MOL0     C37570   5.189   7.019   8.419  0.2127  0.5042  0.2954
  273MOL0     C37571   5.273   7.019   8.526 -0.7549  0.0754 -0.1184
  273MOL0     O37572   5.410   7.036   8.485  0.1124 -0.3966 -0.0803
  273MOL0     C37573   5.504   7.047   8.597  0.6431 -0.1597 -0.1529
  273MOL0     C37574   5.653   7.049   8.542  0.1752 -1.1899 -1.0655
  273MOL0     C37575   5.678   7.192   8.495  0.7306 -0.4069  0.5428
  273MOL0     C37576   5.811   7.216   8.430  0.0254  0.2742  0.1906
  273MOL0     C37577   5.818   7.343   8.347 -0.1136  0.5424  0.8005
  273MOL0     C37578   5.934   7.347   8.253 -0.1839  0.1176  0.3280
  273MOL0     C37579   5.961   7.483   8.194  0.3751  0.1400  0.0883
  273MOL0     C37580   6.066   7.477   8.088  0.1095 -0.1021  0.6050
  273MOL0    Cl37581   6.055   7.640   8.015 -0.1529  0.1085  0.4734
  273MOL0     C37582   5.226   7.003   8.656  0.6116 -0.3175  0.2417
  273MOL0     C37583   5.088   6.985   8.687  0.2341 -0.7191  0.5444
  273MOL0     O37584   4.829   7.197   8.520  0.6049 -0.4721 -0.0441
  273MOL0     C37585   4.593   6.944   8.597 -0.6116 -0.4360  0.5812
  273MOL0     C37586   4.454   6.917   8.589  0.7641  0.1601 -0.6663
  273MOL0     N37587   3.652   6.677   8.410 -0.5975 -0.6130 -0.4391
  273MOL0     N37588   3.655   6.545   8.412 -0.2543 -0.1228  0.2448
  273MOL0     C37589   3.273   6.542   9.484  0.4948  0.0429 -0.6078
  273MOL0     C37590   3.161   6.588   9.549  0.8406 -0.1110 -0.0516
  273MOL0     C37591   2.794   6.614   9.792  0.0429 -0.0652  0.1481
  273MOL0     C37592   2.687   6.668   9.710 -0.2342  0.1835 -0.4780
  273MOL0     C37593   2.563   6.709   9.764 -0.4717  0.0347 -0.3013
  273MOL0     C37594   2.541   6.685   9.897 -0.5229 -0.3157  0.4365
  273MOL0     O37595   2.424   6.718   9.954 -0.2491  0.1663 -0.3402
  273MOL0     C37596   2.429   6.833  10.036 -1.2690 -0.4926  0.0842
  273MOL0     C37597   2.295   6.882  10.084 -0.0074 -0.0983  0.4435
  273MOL0     C37598   2.215   6.790  10.175 -0.4799  0.2207 -0.6188
  273MOL0     C37599   2.078   6.845  10.205  0.1702 -0.0836  0.4649
  273MOL0     C37600   1.996   6.883  10.086 -0.6899  0.6234  0.7238
  273MOL0     C37601   1.919   6.900   9.991  0.0936  0.2820 -0.5546
  273MOL0     C37602   2.635   6.627   9.976 -0.1452  0.3139  0.1338
  273MOL0     C37603   2.766   6.594   9.927 -0.2106  0.4173 -0.1991
  273MOL0     C37604   2.852   6.535  10.040 -0.0684 -0.9791 -0.2292
  273MOL0     H37605   2.930   6.357   9.473  0.0074  0.1673 -1.4594
  273MOL0     H37606   3.140   6.249   9.348 -0.7407 -0.5085  1.0013
  273MOL0     H37607   3.291   6.306   9.163 -2.3976 -0.2716  1.8138
  273MOL0     H37608   3.372   6.195   9.275 -1.1643 -0.6644 -1.5926
  273MOL0     H37609   3.489   6.448   9.138  1.9609  0.5915  0.2219
  273MOL0     H37610   3.590   6.333   9.224 -0.1061  0.1582 -0.0397
  273MOL0     H37611   3.535   6.162   9.046  0.6166 -0.1085  2.4591
  273MOL0     H37612   3.412   6.274   8.986 -1.1938 -2.2713  2.3208
  273MOL0     H37613   3.622   6.434   8.957  0.0722 -0.3060 -0.4044
  273MOL0     H37614   3.729   6.297   8.986  0.9851  1.7109 -1.4496
  273MOL0     H37615   3.529   6.307   8.762  0.3064  1.4538 -0.1338
  273MOL0     H37616   3.631   6.169   8.811  0.2336  0.3667 -0.9223
  273MOL0     H37617   3.740   6.447   8.738  1.7224  0.1509 -1.2191
  273MOL0     H37618   3.832   6.292   8.741  0.0083 -0.2926 -2.2987
  273MOL0     H37619   3.610   6.335   8.543  0.7304 -0.0111 -1.4377
  273MOL0     H37620   3.711   6.192   8.563 -0.0712  0.3490 -0.5664
  273MOL0     H37621   3.909   6.363   8.531  1.5949 -0.2886 -1.3908
  273MOL0     H37622   3.828   6.317   8.384  0.4714 -0.8907  0.4855
  273MOL0     H37623   3.965   6.631   8.466  0.0535 -1.1632 -0.3053
  273MOL0     H37624   3.734   6.942   8.488 -0.4529 -1.5325  1.1480
  273MOL0     H37625   3.809   6.893   8.332 -0.0184 -1.9481 -0.3793
  273MOL0     H37626   3.919   6.982   8.585 -0.4192  1.2088  0.4940
  273MOL0     H37627   4.001   6.837   8.539 -1.0131 -0.6433  0.4027
  273MOL0     H37628   4.063   6.942   8.307 -0.0320  0.5130 -0.7949
  273MOL0     H37629   3.984   7.090   8.354 -1.1912  0.4676  0.7428
  273MOL0     H37630   4.222   7.104   8.376  2.5801 -1.2741  0.6755
  273MOL0     H37631   4.129   7.139   8.529 -1.9325 -1.5777  1.0492
  273MOL0     H37632   4.338   7.228   8.556 -0.4822 -0.1787 -0.2911
  273MOL0     H37633   4.621   7.354   8.460 -2.2322  0.6639 -0.4010
  273MOL0     H37634   4.636   7.361   8.638 -2.4644  1.9140  1.4173
  273MOL0     H37635   4.482   7.391   8.565 -2.4263 -1.4884 -5.0276
  273MOL0     H37636   4.994   7.011   8.346  1.7075  3.0066 -0.8886
  273MOL0     H37637   5.229   7.020   8.318 -1.3969 -0.3472 -0.3921
  273MOL0     H37638   5.489   7.141   8.650 -1.4554 -0.9906  0.8610
  273MOL0     H37639   5.485   6.955   8.654  1.2564 -2.2086 -3.0364
  273MOL0     H37640   5.710   7.021   8.631 -2.2371 -0.3105  0.8656
  273MOL0     H37641   5.671   6.980   8.459 -0.6492 -0.1196 -2.1671
  273MOL0     H37642   5.666   7.265   8.576 -0.5898  0.5959 -0.5043
  273MOL0     H37643   5.600   7.219   8.423  0.1655 -2.2764  0.4141
  273MOL0     H37644   5.838   7.129   8.370  0.7792 -0.3102  1.3341
  273MOL0     H37645   5.887   7.216   8.509 -0.1194 -1.1904  0.3539
  273MOL0     H37646   5.730   7.359   8.285  0.7786  3.2044  0.1085
  273MOL0     H37647   5.831   7.420   8.423 -1.0658  0.0239  1.5142
  273MOL0     H37648   5.919   7.280   8.167  0.4548  0.6796 -0.2344
  273MOL0     H37649   6.026   7.316   8.303  0.5959  2.7646  0.6659
  273MOL0     H37650   5.993   7.558   8.268 -0.4473 -0.8377  1.4808
  273MOL0     H37651   5.869   7.529   8.156 -0.5006 -1.0596  0.7044
  273MOL0     H37652   6.039   7.406   8.010 -0.5073 -0.4584  1.1344
  273MOL0     H37653   6.166   7.458   8.127  0.9420  1.2114 -0.8036
  273MOL0     H37654   5.293   7.020   8.739  2.2595 -0.3312 -1.0348
  273MOL0     H37655   5.044   6.981   8.786 -0.9079  1.5252  0.2030
  273MOL0     H37656   4.664   6.867   8.622  0.3520  0.6085  1.1663
  273MOL0     H37657   4.413   6.817   8.595 -2.6041  1.3626 -1.3721
  273MOL0     H37658   3.362   6.601   9.502 -1.3220  2.9147 -0.4012
  273MOL0     H37659   3.164   6.678   9.610  0.6724 -0.1142 -0.0367
  273MOL0     H37660   2.714   6.700   9.610  4.0902  1.2817  0.8056
  273MOL0     H37661   2.485   6.758   9.706 -1.5936  2.7436  3.1259
  273MOL0     H37662   2.489   6.808  10.124 -0.5331  0.8992  0.0032
  273MOL0     H37663   2.464   6.916   9.973 -2.4330 -0.1236 -0.0979
  273MOL0     H37664   2.236   6.901   9.993 -1.4350 -0.1372  1.3378
  273MOL0     H37665   2.310   6.981  10.128  0.2345 -1.0029  2.5115
  273MOL0     H37666   2.203   6.702  10.111 -1.5104  1.1437 -1.7622
  273MOL0     H37667   2.272   6.774  10.267  3.6851 -1.0178 -3.1639
  273MOL0     H37668   2.082   6.941  10.257  1.4713  0.0224  0.2083
  273MOL0     H37669   2.024   6.769  10.262 -0.4917 -0.0715 -0.1200
  273MOL0     H37670   1.844   6.910   9.916  0.5158 -0.7886 -1.1391
  273MOL0     H37671   2.604   6.624  10.080 -1.5732  2.0657 -0.1896
  273MOL0     H37672   2.794   6.471  10.108 -0.8928 -1.0175 -0.9462
  273MOL0     H37673   2.928   6.471   9.994  0.3334 -0.5767 -0.1299
  273MOL0     H37674   2.902   6.614  10.097 -1.6877 -0.3645  0.4080
  274MOL0     O37675  10.326   2.922   4.396 -0.0524 -0.3523  0.0936
  274MOL0     C37676  10.296   2.890   4.282  0.3318  0.2814  0.4194
  274MOL0     O37677  10.346   2.787   4.214 -0.5887  0.1403  0.1089
  274MOL0     C37678  10.465   2.726   4.262  0.2008 -0.4393  0.3347
  274MOL0     C37679  10.592   2.763   4.217  0.2494 -1.0667 -0.8542
  274MOL0     C37680  10.706   2.716   4.281  0.1162 -0.5432  0.1198
  274MOL0     C37681  10.695   2.605   4.370 -0.1638 -0.1345 -0.0157
  274MOL0     O37682  10.808   2.545   4.428 -0.3644  0.0997 -0.2962
  274MOL0     C37683  10.932   2.562   4.358  0.1564  0.3488  0.0900
  274MOL0     C37684  11.035   2.478   4.434  0.3394  1.1492 -0.3675
  274MOL0     C37685  11.003   2.321   4.439 -0.3023 -0.2362 -0.5894
  274MOL0     C37686  11.124   2.240   4.499  0.6168  0.3580 -0.0498
  274MOL0     C37687  11.100   2.085   4.479  1.3950  0.7942  0.9288
  274MOL0     C37688  11.025   2.034   4.602  0.0819  0.0471  0.3718
  274MOL0     C37689  10.947   1.906   4.566 -1.0193  0.9262  0.2388
  274MOL0     C37690  11.037   1.797   4.504  0.1924  0.4419  0.0141
  274MOL0     N37691  10.969   1.660   4.514 -0.9991  0.7548 -0.5172
  274MOL0     C37692  10.862   1.626   4.433  0.2009 -0.0748  0.0953
  274MOL0     C37693  10.814   1.514   4.482  0.6142  0.4316 -0.1901
  274MOL0     C37694  10.686   1.448   4.436  1.2247  0.2827  0.7156
  274MOL0     C37695  10.589   1.382   4.544  0.1393  1.1478 -0.3341
  274MOL0     C37696  10.537   1.492   4.639  0.1019 -0.1629  0.4707
  274MOL0     C37697  10.504   1.430   4.771  0.4408 -0.8599 -0.4977
  274MOL0     O37698  10.434   1.519   4.858 -0.0448  0.1112 -0.6642
  274MOL0     C37699  10.306   1.568   4.835 -0.3642  0.3650 -0.4070
  274MOL0     C37700  10.273   1.687   4.882 -0.2385 -0.8082  0.0167
  274MOL0     C37701  10.136   1.740   4.866 -0.7295  0.4692  0.2197
  274MOL0     C37702  10.110   1.875   4.938 -0.3511  0.4230 -0.7173
  274MOL0     C37703  10.045   1.673   4.781 -0.6339 -0.4328  0.5942
  274MOL0     C37704   9.915   1.721   4.735  0.3119  0.1016  0.6158
  274MOL0     O37705   9.886   1.846   4.789  0.3194 -0.4537  0.0321
  274MOL0     C37706   9.762   1.902   4.786 -0.1637  0.0440  0.5409
  274MOL0     C37707   9.729   1.968   4.902  0.4799 -0.2441 -0.1243
  274MOL0     C37708   9.600   2.014   4.934  0.4100  0.0621  0.4348
  274MOL0     C37709   9.496   1.979   4.849  0.2429 -0.6717 -0.0079
  274MOL0     O37710   9.365   2.011   4.879  0.2587 -1.1527  0.5034
  274MOL0     C37711   9.332   2.089   4.995  1.3039 -0.4906 -0.7215
  274MOL0     C37712   9.367   2.233   4.975  0.2629  0.6456  0.5540
  274MOL0     C37713   9.259   2.306   4.904  0.1939  0.8079  0.0654
  274MOL0     C37714   9.299   2.443   4.876 -0.3734  0.3400 -0.0025
  274MOL0     C37715   9.220   2.510   4.761 -0.1739  0.4072 -0.0071
  274MOL0     C37716   9.069   2.543   4.807 -0.8537 -0.1367  0.4762
  274MOL0     C37717   9.003   2.646   4.705  0.4296 -0.3311  0.0798
  274MOL0     C37718   8.977   2.585   4.569 -0.7046  0.3030 -0.0819
  274MOL0    Cl37719   8.890   2.712   4.479  0.1103  0.1841  0.2673
  274MOL0     C37720   9.527   1.913   4.731  0.4587  0.1204 -1.0651
  274MOL0     C37721   9.655   1.881   4.695 -0.2299 -0.2281  0.1420
  274MOL0     O37722   9.842   1.651   4.664  0.2175 -0.3802 -0.5762
  274MOL0     C37723  10.090   1.556   4.724 -1.1312 -0.2558  0.3557
  274MOL0     C37724  10.216   1.502   4.757 -0.3239  0.2000 -0.3748
  274MOL0     N37725  10.890   1.472   4.590  0.4491 -0.2272 -0.0500
  274MOL0     N37726  10.993   1.550   4.591  0.2861  0.3287  0.0751
  274MOL0     C37727  10.568   2.567   4.417  0.4777 -0.7513 -0.3669
  274MOL0     C37728  10.456   2.632   4.361 -0.3120 -0.0943  0.8381
  274MOL0     C37729  10.168   2.948   4.220 -0.1851  0.3390 -0.7954
  274MOL0     C37730  10.105   2.864   4.129 -0.8017 -0.0502 -0.6786
  274MOL0     C37731  10.001   2.914   4.057 -0.9147  0.0803  0.6574
  274MOL0     C37732   9.942   3.040   4.076 -0.6433 -0.7098  0.0557
  274MOL0     O37733   9.830   3.070   4.009 -0.2372  0.2809  0.5408
  274MOL0     C37734   9.783   3.200   3.985  0.4493  0.0322  0.3528
  274MOL0     C37735   9.672   3.198   3.878 -0.2892  0.0354  0.1177
  274MOL0     C37736   9.641   3.343   3.827  0.5212 -0.5133 -0.5758
  274MOL0     C37737   9.532   3.412   3.919 -0.0403  0.0636 -0.5092
  274MOL0     C37738   9.484   3.537   3.855  0.1698 -0.2526  0.7884
  274MOL0     C37739   9.454   3.636   3.800 -0.3544 -0.0018 -0.3962
  274MOL0     C37740   9.993   3.113   4.183  0.2325  0.3785  2.0248
  274MOL0     C37741  10.112   3.069   4.244  0.0730 -0.0270  0.2322
  274MOL0     C37742  10.165   3.161   4.348  0.2511 -0.2952 -0.0037
  274MOL0     H37743  10.599   2.838   4.139 -1.9319  0.4125  0.2618
  274MOL0     H37744  10.803   2.758   4.257 -0.0482  1.4672  2.6176
  274MOL0     H37745  10.963   2.665   4.338 -0.2449  0.1297 -1.9333
  274MOL0     H37746  10.916   2.527   4.255 -1.8270  3.5610 -0.8569
  274MOL0     H37747  11.136   2.499   4.400  1.5253 -2.3345  0.5573
  274MOL0     H37748  11.034   2.506   4.539  2.3545 -0.5237  0.1692
  274MOL0     H37749  10.916   2.306   4.503  0.0150  3.5779  0.9699
  274MOL0     H37750  10.986   2.289   4.335 -0.9473 -0.7783 -0.3212
  274MOL0     H37751  11.204   2.263   4.428 -1.6452  0.6778 -2.6734
  274MOL0     H37752  11.156   2.264   4.601 -3.2469  0.9007  1.1844
  274MOL0     H37753  11.193   2.031   4.460  0.7917 -0.4288  1.3600
  274MOL0     H37754  11.039   2.074   4.389 -0.3159  2.8851  1.7258
  274MOL0     H37755  11.101   2.018   4.679  0.5822 -2.5739 -0.5361
  274MOL0     H37756  10.948   2.108   4.621 -1.6680 -0.7469 -2.9219
  274MOL0     H37757  10.863   1.912   4.496  0.7642 -2.4409 -2.4944
  274MOL0     H37758  10.918   1.866   4.664 -1.3835  0.5585 -0.0169
  274MOL0     H37759  11.052   1.802   4.396  0.2618 -2.6829 -0.1990
  274MOL0     H37760  11.131   1.794   4.560  1.2352 -2.0265 -1.6832
  274MOL0     H37761  10.835   1.682   4.344 -0.7577  0.2578  0.5769
  274MOL0     H37762  10.719   1.385   4.353  0.1126  1.0905 -0.3698
  274MOL0     H37763  10.628   1.520   4.378 -0.6054 -2.3939 -0.9669
  274MOL0     H37764  10.505   1.331   4.496  1.4581 -1.3162 -0.1319
  274MOL0     H37765  10.641   1.307   4.603 -0.1064  0.0671 -1.4539
  274MOL0     H37766  10.623   1.557   4.656 -0.0586 -0.1392  1.2142
  274MOL0     H37767  10.450   1.550   4.605  0.1321 -0.7713 -0.6747
  274MOL0     H37768  10.441   1.342   4.753  1.2168 -1.3412 -0.9200
  274MOL0     H37769  10.600   1.392   4.808 -0.6748 -1.4499  2.0707
  274MOL0     H37770  10.344   1.745   4.939 -1.3042  0.6521 -0.0700
  274MOL0     H37771  10.189   1.888   5.012 -0.9670 -1.6701  0.3996
  274MOL0     H37772  10.019   1.866   4.997 -0.0797 -2.1186 -0.5394
  274MOL0     H37773  10.093   1.954   4.864 -2.8777 -0.4503 -1.1877
  274MOL0     H37774   9.794   2.001   4.982  1.2873 -1.3305 -0.3167
  274MOL0     H37775   9.576   2.055   5.031 -0.5748  0.5312  0.0028
  274MOL0     H37776   9.224   2.092   5.011  1.6826  1.2366  2.0516
  274MOL0     H37777   9.363   2.058   5.095 -1.0812 -0.2350  0.1538
  274MOL0     H37778   9.385   2.276   5.074  2.9174 -2.5949  1.6686
  274MOL0     H37779   9.451   2.237   4.906 -0.8905 -0.9279 -1.0384
  274MOL0     H37780   9.173   2.322   4.970  0.3654  4.5281 -0.4048
  274MOL0     H37781   9.232   2.250   4.814 -1.9721 -0.4299  1.3911
  274MOL0     H37782   9.405   2.442   4.848  0.5283  1.0092  2.9961
  274MOL0     H37783   9.284   2.505   4.964 -1.0773  0.1634  0.0129
  274MOL0     H37784   9.265   2.606   4.734 -0.3582  0.2744 -0.8120
  274MOL0     H37785   9.225   2.445   4.673 -1.3597  0.7788 -0.3778
  274MOL0     H37786   9.067   2.576   4.911 -1.3207  0.7865  0.1872
  274MOL0     H37787   9.011   2.450   4.807 -0.9539 -0.0759  0.7078
  274MOL0     H37788   9.065   2.735   4.692  0.7228 -0.4111  0.8660
  274MOL0     H37789   8.908   2.674   4.751  1.4848 -0.2637  2.3846
  274MOL0     H37790   8.910   2.500   4.586  0.2621  0.0371  3.0121
  274MOL0     H37791   9.070   2.543   4.529 -0.4852  0.0711  0.6591
  274MOL0     H37792   9.442   1.898   4.664 -2.3226  0.2178  2.1777
  274MOL0     H37793   9.675   1.825   4.604 -2.1706 -0.1742 -0.3670
  274MOL0     H37794  10.020   1.500   4.662 -2.6682  1.2549  0.6460
  274MOL0     H37795  10.248   1.406   4.718  2.4950 -0.0729  2.2794
  274MOL0     H37796  10.552   2.487   4.488 -1.9927 -0.8829 -0.9824
  274MOL0     H37797  10.357   2.604   4.396 -0.7986  0.4343 -0.0790
  274MOL0     H37798  10.144   2.765   4.106 -0.0257 -0.1143  0.7731
  274MOL0     H37799   9.962   2.849   3.978 -0.2940  0.7420 -0.2069
  274MOL0     H37800   9.737   3.240   4.076 -0.9398  0.3931 -0.4751
  274MOL0     H37801   9.865   3.268   3.959  1.5434 -1.0673  0.8587
  274MOL0     H37802   9.583   3.148   3.920  0.4391  0.4565  2.2603
  274MOL0     H37803   9.706   3.143   3.790  0.6579  1.7891 -0.6433
  274MOL0     H37804   9.726   3.410   3.820 -0.1551  0.4588  0.3315
  274MOL0     H37805   9.605   3.324   3.725 -0.2688  0.2244 -0.4393
  274MOL0     H37806   9.578   3.438   4.015  0.0623 -1.9346  0.0134
  274MOL0     H37807   9.454   3.338   3.939  1.4566 -1.4797 -0.1560
  274MOL0     H37808   9.427   3.723   3.744  1.6505  0.9099 -0.0217
  274MOL0     H37809   9.946   3.204   4.219 -2.0377 -0.6150  1.7839
  274MOL0     H37810  10.272   3.172   4.333  0.1205  0.0488 -0.7112
  274MOL0     H37811  10.126   3.263   4.348 -0.2846 -0.4843  0.6574
  274MOL0     H37812  10.137   3.127   4.449 -0.3320  0.5777  0.1454
  275MOL0     O37813   5.964   5.135   2.276  0.0556 -0.1918 -0.6831
  275MOL0     C37814   5.922   5.047   2.348 -0.0459  0.3139 -0.3682
  275MOL0     O37815   5.991   4.989   2.447  0.1095  0.9490 -0.3858
  275MOL0     C37816   6.125   4.970   2.425 -0.0350  0.0651  0.2787
  275MOL0     C37817   6.204   4.994   2.533 -0.1848  0.6138  0.0179
  275MOL0     C37818   6.342   4.972   2.522 -0.0686 -0.6773  0.3236
  275MOL0     C37819   6.411   4.938   2.400  0.3688 -0.1811 -0.3388
  275MOL0     O37820   6.543   4.930   2.366  0.9047  0.6276 -0.3937
  275MOL0     C37821   6.630   4.953   2.477 -0.1279 -0.4979  0.1809
  275MOL0     C37822   6.771   4.955   2.422  0.4503  0.1579 -0.1224
  275MOL0     C37823   6.865   4.970   2.553 -0.6232  0.4918  0.0089
  275MOL0     C37824   6.997   5.040   2.512  0.2389 -0.7582  1.0449
  275MOL0     C37825   7.096   5.062   2.631  0.4498 -0.0278  0.2225
  275MOL0     C37826   7.232   5.113   2.579 -0.1480 -0.1171 -0.3569
  275MOL0     C37827   7.358   5.100   2.666  0.3852 -0.0427 -0.7967
  275MOL0     C37828   7.405   4.956   2.680  0.2005 -0.2411  0.2229
  275MOL0     N37829   7.492   4.936   2.564  0.1242 -0.0264  0.4319
  275MOL0     C37830   7.464   4.910   2.430 -0.5866  0.2384 -0.5646
  275MOL0     C37831   7.583   4.903   2.363 -0.0474  0.2543  0.2929
  275MOL0     C37832   7.584   4.893   2.213 -0.3375 -0.0216  0.1050
  275MOL0     C37833   7.676   5.007   2.159  0.2041  0.1674  0.8309
  275MOL0     C37834   7.814   4.941   2.119 -0.1118  0.5635  0.2756
  275MOL0     C37835   7.909   5.036   2.067 -0.5536  0.9015 -0.7100
  275MOL0     O37836   7.866   5.101   1.946  0.3311 -0.2553 -0.5661
  275MOL0     C37837   7.860   5.027   1.830 -0.1990  0.0023 -0.1346
  275MOL0     C37838   7.932   4.907   1.813 -0.7964  0.6438  0.2566
  275MOL0     C37839   7.931   4.844   1.688 -0.5269  0.1439  0.5489
  275MOL0     C37840   8.031   4.735   1.669  1.3915 -0.1609 -0.7697
  275MOL0     C37841   7.839   4.889   1.582  0.5653 -0.0033 -0.2283
  275MOL0     C37842   7.790   4.801   1.475 -0.8782  0.6582  0.7510
  275MOL0     O37843   7.782   4.869   1.354 -0.5198 -0.1556  0.3297
  275MOL0     C37844   7.699   4.814   1.251 -0.7746 -0.7852 -0.2173
  275MOL0     C37845   7.560   4.812   1.257 -0.1367 -0.2714 -0.8428
  275MOL0     C37846   7.486   4.781   1.142  0.1956 -0.2491 -0.5169
  275MOL0     C37847   7.550   4.741   1.019  0.2677  0.7059 -0.2363
  275MOL0     O37848   7.477   4.688   0.913 -0.4748 -0.1906 -0.1643
  275MOL0     C37849   7.371   4.769   0.883  0.2262  0.1171  0.2937
  275MOL0     C37850   7.332   4.745   0.746 -0.2466 -0.5194  0.0508
  275MOL0     C37851   7.212   4.839   0.712 -0.0512  0.3575  0.3996
  275MOL0     C37852   7.162   4.809   0.564 -0.3879 -1.2048 -0.5199
  275MOL0     C37853   7.232   4.883   0.453  0.1505  0.2914  0.3305
  275MOL0     C37854   7.202   4.822   0.316 -0.4851 -0.6783 -0.1454
  275MOL0     C37855   7.261   4.914   0.198  0.5955  0.0713  0.1409
  275MOL0     C37856   7.150   4.942   0.092  0.2946 -0.1130 -0.0956
  275MOL0    Cl37857   7.007   5.013   0.175 -0.1027  0.0307 -0.3278
  275MOL0     C37858   7.690   4.736   1.015  1.0751 -0.3661  0.6953
  275MOL0     C37859   7.757   4.779   1.131 -0.7768  0.0848  0.0009
  275MOL0     O37860   7.755   4.684   1.496 -0.0825 -0.1242  0.6527
  275MOL0     C37861   7.772   5.008   1.601  0.0753  0.1190 -1.0775
  275MOL0     C37862   7.797   5.083   1.715 -0.1460  0.6138  0.3651
  275MOL0     N37863   7.681   4.916   2.454  0.2458 -0.3021 -0.1959
  275MOL0     N37864   7.628   4.930   2.570 -0.2747 -0.0990  0.3001
  275MOL0     C37865   6.324   4.917   2.287  0.7542  0.0110 -0.4638
  275MOL0     C37866   6.181   4.927   2.303 -0.5501 -0.5152 -0.7128
  275MOL0     C37867   5.778   5.010   2.341  0.0261 -0.5105  0.0314
  275MOL0     C37868   5.749   4.883   2.366 -0.2021  0.1648  0.3502
  275MOL0     C37869   5.624   4.831   2.360  0.3931 -0.2664 -0.2800
  275MOL0     C37870   5.515   4.914   2.340 -0.6253  0.7571 -0.2158
  275MOL0     O37871   5.392   4.846   2.340 -0.0547 -0.3265 -0.9101
  275MOL0     C37872   5.285   4.919   2.398 -0.0246  0.2052 -0.2261
  275MOL0     C37873   5.256   4.878   2.546 -0.5141 -0.1489 -0.3845
  275MOL0     C37874   5.137   4.956   2.605  0.4276  0.4559  0.6907
  275MOL0     C37875   5.110   4.891   2.740 -0.3423 -0.5694 -0.0966
  275MOL0     C37876   5.010   4.976   2.817  0.3161 -0.8176 -0.0472
  275MOL0     C37877   4.940   5.063   2.875 -0.4475 -0.1874  0.0411
  275MOL0     C37878   5.541   5.048   2.309 -0.3497  0.3224 -0.8122
  275MOL0     C37879   5.667   5.104   2.313 -0.1129  1.1775 -0.4161
  275MOL0     C37880   5.685   5.255   2.300  0.8377  0.6674 -0.1267
  275MOL0     H37881   6.164   5.022   2.630 -1.6680 -2.0716  0.2620
  275MOL0     H37882   6.398   5.005   2.609  0.1915  0.4951 -0.2690
  275MOL0     H37883   6.620   4.879   2.557 -2.1988  0.4644  0.8695
  275MOL0     H37884   6.609   5.055   2.511  0.6448 -0.3617  0.2781
  275MOL0     H37885   6.793   4.864   2.366 -0.6455 -0.6604  0.7183
  275MOL0     H37886   6.773   5.039   2.353 -1.4524 -0.9306 -1.5892
  275MOL0     H37887   6.817   5.014   2.641 -0.0154  1.1960  0.0053
  275MOL0     H37888   6.905   4.875   2.590  1.4379  1.2283 -0.1879
  275MOL0     H37889   7.038   4.980   2.430  0.8238 -0.2101  0.9244
  275MOL0     H37890   6.967   5.142   2.487  1.0306 -0.7378  0.1258
  275MOL0     H37891   7.104   4.967   2.683 -1.5366  0.3796  1.3784
  275MOL0     H37892   7.057   5.139   2.699  1.5162  1.8943 -1.2455
  275MOL0     H37893   7.254   5.079   2.477  3.3595  0.4039  0.1087
  275MOL0     H37894   7.213   5.220   2.568  0.7758 -0.1471 -2.7492
  275MOL0     H37895   7.345   5.138   2.767 -1.0487 -0.7937 -0.6751
  275MOL0     H37896   7.444   5.157   2.631  1.4627  0.6988  2.7018
  275MOL0     H37897   7.464   4.928   2.767  0.2608 -1.1103 -0.0831
  275MOL0     H37898   7.326   4.881   2.674  0.2798 -0.3045 -0.0840
  275MOL0     H37899   7.365   4.900   2.386 -3.1788  1.3122  4.2360
  275MOL0     H37900   7.487   4.899   2.162 -0.7547  1.0531  0.9727
  275MOL0     H37901   7.618   4.792   2.190  2.5903  0.4211  2.0000
  275MOL0     H37902   7.631   5.048   2.069 -0.4824 -1.6142  0.3297
  275MOL0     H37903   7.682   5.082   2.239  2.0674 -0.1235  1.0012
  275MOL0     H37904   7.868   4.904   2.207 -0.9814 -0.0399  0.5702
  275MOL0     H37905   7.807   4.856   2.051  0.9834 -0.3288  1.2333
  275MOL0     H37906   7.930   5.104   2.150  1.7966 -1.1369  0.4902
  275MOL0     H37907   8.010   5.000   2.047 -0.7873 -0.0572 -0.1915
  275MOL0     H37908   7.991   4.856   1.889  0.6045  0.9430 -0.5938
  275MOL0     H37909   8.050   4.730   1.561  1.7337 -0.2734 -0.7046
  275MOL0     H37910   7.978   4.645   1.701 -4.3370  2.0630 -2.6959
  275MOL0     H37911   8.121   4.749   1.729  1.3877  3.8491 -1.4463
  275MOL0     H37912   7.514   4.831   1.353  1.8703 -1.0017  0.3262
  275MOL0     H37913   7.380   4.784   1.165  0.5108  1.5357  0.8544
  275MOL0     H37914   7.295   4.746   0.959  1.0139 -0.1142  1.0289
  275MOL0     H37915   7.395   4.875   0.897  0.8003 -0.0748  0.8278
  275MOL0     H37916   7.414   4.770   0.677  1.3666  1.8683  2.6150
  275MOL0     H37917   7.306   4.640   0.732  0.7508 -0.4792 -2.7046
  275MOL0     H37918   7.232   4.946   0.716  1.0263  0.1380  1.3822
  275MOL0     H37919   7.116   4.826   0.764 -0.8818  3.0844 -0.2767
  275MOL0     H37920   7.053   4.821   0.564 -0.1466  1.6406 -1.2813
  275MOL0     H37921   7.167   4.701   0.547 -0.6338 -1.8551  2.7784
  275MOL0     H37922   7.189   4.984   0.448  1.7436  1.1279  2.3025
  275MOL0     H37923   7.341   4.884   0.464  0.1460 -0.5162  0.4561
  275MOL0     H37924   7.096   4.799   0.308 -0.1514 -3.0360  1.4237
  275MOL0     H37925   7.258   4.729   0.304  2.7076  0.8995  1.2725
  275MOL0     H37926   7.339   4.863   0.141  1.6029  1.1756  0.4718
  275MOL0     H37927   7.307   5.007   0.235  2.2487 -1.0923  1.1214
  275MOL0     H37928   7.116   4.847   0.050  3.2468 -0.6122 -1.6124
  275MOL0     H37929   7.182   5.004   0.007  1.2043 -2.5823 -1.6523
  275MOL0     H37930   7.737   4.700   0.924  0.2143 -1.1094  0.5268
  275MOL0     H37931   7.866   4.785   1.130 -0.7093 -0.3831 -2.4636
  275MOL0     H37932   7.713   5.047   1.519  0.3549  0.9955 -0.8728
  275MOL0     H37933   7.759   5.184   1.729 -0.0630  0.3515  2.9473
  275MOL0     H37934   6.375   4.886   2.196  2.2412 -1.3758  0.7716
  275MOL0     H37935   6.117   4.899   2.220  1.0990 -1.5463 -1.6856
  275MOL0     H37936   5.815   4.804   2.398 -0.9043  0.3608  2.4446
  275MOL0     H37937   5.596   4.727   2.371 -0.7501 -0.4444 -3.7524
  275MOL0     H37938   5.299   5.026   2.413 -0.2944  0.1103  0.7852
  275MOL0     H37939   5.195   4.913   2.335 -0.3156  0.0220  0.1990
  275MOL0     H37940   5.345   4.910   2.601 -0.5821  1.8001 -1.3431
  275MOL0     H37941   5.246   4.769   2.554 -0.5503 -0.1255 -0.0781
  275MOL0     H37942   5.164   5.062   2.608  0.2853  0.5211 -0.2193
  275MOL0     H37943   5.054   4.946   2.534  2.0362  1.4055 -1.4050
  275MOL0     H37944   5.202   4.894   2.799 -0.8608  3.9201  0.8349
  275MOL0     H37945   5.083   4.785   2.730 -0.1426 -0.5694 -0.7074
  275MOL0     H37946   4.882   5.144   2.916  0.9749  1.0558 -0.3082
  275MOL0     H37947   5.456   5.112   2.287  0.1162  1.0832 -0.4722
  275MOL0     H37948   5.740   5.274   2.207 -0.1895 -3.0370 -1.6846
  275MOL0     H37949   5.583   5.293   2.308 -0.2492 -1.9056 -0.7930
  275MOL0     H37950   5.741   5.300   2.383 -0.5832  0.0436  1.2338
  276MOL0     O37951   9.202   6.950   5.923 -0.4865  0.3346 -0.0362
  276MOL0     C37952   9.193   6.975   5.801  0.2233  0.4560 -0.4758
  276MOL0     O37953   9.276   7.056   5.728 -0.3044  0.0783 -0.6176
  276MOL0     C37954   9.389   7.098   5.792 -0.5082  0.2930  0.3776
  276MOL0     C37955   9.467   7.026   5.882 -0.3110  0.1540 -0.5068
  276MOL0     C37956   9.597   7.081   5.927  0.4624 -0.5614  0.1005
  276MOL0     C37957   9.642   7.210   5.880 -0.4503 -0.5362 -0.2708
  276MOL0     O37958   9.765   7.262   5.914  0.1783  0.1161 -0.3929
  276MOL0     C37959   9.846   7.206   6.025 -0.2891 -0.1467 -0.8202
  276MOL0     C37960   9.975   7.290   6.046  1.0457 -0.3255 -0.8043
  276MOL0     C37961  10.066   7.283   5.922  0.3896 -0.0119  0.0545
  276MOL0     C37962  10.182   7.375   5.930 -0.9930 -0.5795  0.0050
  276MOL0     C37963  10.255   7.381   5.795 -0.1642  0.0986  0.5134
  276MOL0     C37964  10.369   7.492   5.793 -0.0125  0.4880  0.0004
  276MOL0     C37965  10.427   7.526   5.648 -1.0359 -0.3612  0.3695
  276MOL0     C37966  10.514   7.653   5.653 -0.2227 -0.3118  0.0876
  276MOL0     N37967  10.650   7.619   5.711  0.2849 -0.3194  0.0884
  276MOL0     C37968  10.753   7.573   5.643  0.1754 -0.1115  0.7473
  276MOL0     C37969  10.857   7.575   5.731  0.2527 -0.0876 -0.9688
  276MOL0     C37970  11.002   7.538   5.706  0.0826  0.6441 -0.4623
  276MOL0     C37971  11.105   7.640   5.762  0.1792 -0.3650 -0.6469
  276MOL0     C37972  11.250   7.599   5.735 -0.2241 -0.3254  0.2328
  276MOL0     C37973  11.281   7.608   5.581 -0.3802 -0.2033 -0.6055
  276MOL0     O37974  11.418   7.588   5.583  0.0317  0.0007 -0.3264
  276MOL0     C37975  11.478   7.478   5.523 -0.5750 -0.9122  0.3214
  276MOL0     C37976  11.422   7.394   5.425  0.0190  0.7574  0.3833
  276MOL0     C37977  11.479   7.278   5.369  0.2321  0.5572  0.4864
  276MOL0     C37978  11.391   7.202   5.269 -0.1339 -0.3639  0.0700
  276MOL0     C37979  11.611   7.247   5.411  0.3377 -0.2235 -0.4600
  276MOL0     C37980  11.683   7.128   5.365  0.4501 -1.0015  0.1999
  276MOL0     O37981  11.771   7.091   5.452  0.3077  0.1445  0.0910
  276MOL0     C37982  11.834   6.976   5.417 -0.3932 -0.0834 -0.4351
  276MOL0     C37983  11.974   6.985   5.388 -0.1622 -0.3936  0.6758
  276MOL0     C37984  12.045   6.863   5.352 -0.2838  0.6944 -0.8910
  276MOL0     C37985  11.980   6.739   5.349  0.8372  0.4667  0.0784
  276MOL0     O37986  12.033   6.619   5.306 -0.0798  0.4899 -0.0387
  276MOL0     C37987  12.170   6.608   5.260 -1.0913  0.2953  0.6989
  276MOL0     C37988  12.253   6.585   5.380  0.0190  0.2999  0.1785
  276MOL0     C37989  12.399   6.592   5.347 -0.1720  0.5362  0.1254
  276MOL0     C37990  12.451   6.735   5.357  0.3131 -0.5348  0.4417
  276MOL0     C37991  12.602   6.727   5.315 -0.6873 -0.8004  0.3874
  276MOL0     C37992  12.684   6.848   5.369 -0.1358 -0.3686 -0.7433
  276MOL0     C37993  12.640   6.994   5.329 -0.5508 -0.4478 -1.1531
  276MOL0     C37994  12.649   7.011   5.180 -0.2384 -0.2454  0.7944
  276MOL0    Cl37995  12.809   6.966   5.119 -0.0917  0.2323 -0.0509
  276MOL0     C37996  11.839   6.738   5.376  0.5092 -1.5960  0.2013
  276MOL0     C37997  11.767   6.851   5.409  0.2661 -1.0591  0.5890
  276MOL0     O37998  11.670   7.098   5.252 -0.1902  0.2334  0.8011
  276MOL0     C37999  11.665   7.332   5.509  0.1319  0.5072 -0.8087
  276MOL0     C38000  11.603   7.442   5.566  0.9951 -1.1085  0.7699
  276MOL0     N38001  10.812   7.627   5.856 -0.9846  0.2844  1.0028
  276MOL0     N38002  10.684   7.648   5.834 -0.2762  0.1712 -0.0099
  276MOL0     C38003   9.567   7.268   5.781 -0.4057  1.2450 -0.2274
  276MOL0     C38004   9.446   7.215   5.738 -0.4793  0.2258 -0.9037
  276MOL0     C38005   9.088   6.898   5.720 -0.2956 -0.3810 -0.0471
  276MOL0     C38006   9.045   6.783   5.775 -0.1198  0.3082 -0.0842
  276MOL0     C38007   8.954   6.695   5.714 -0.2249  0.2308  0.0654
  276MOL0     C38008   8.915   6.722   5.583  0.2364 -0.2905  0.1201
  276MOL0     O38009   8.835   6.624   5.531 -0.4780  0.2403  0.3341
  276MOL0     C38010   8.808   6.618   5.389 -0.4714  0.9651 -0.2967
  276MOL0     C38011   8.765   6.474   5.356  0.3823  0.4964  0.4003
  276MOL0     C38012   8.622   6.439   5.395 -0.5469 -0.5020  0.8689
  276MOL0     C38013   8.507   6.532   5.345  0.1321  0.2186  0.3880
  276MOL0     C38014   8.520   6.551   5.199 -1.0379  0.5147 -0.2513
  276MOL0     C38015   8.517   6.576   5.080 -0.2833  0.4913  0.1128
  276MOL0     C38016   8.950   6.848   5.527 -0.0482 -0.3381  0.1568
  276MOL0     C38017   9.037   6.933   5.594 -0.5888  0.7990  0.7345
  276MOL0     C38018   9.072   7.054   5.512 -0.0252  0.1388  0.2033
  276MOL0     H38019   9.449   6.924   5.914 -0.9405 -0.3624 -2.3742
  276MOL0     H38020   9.651   7.016   5.996  0.8578  0.9812  1.2826
  276MOL0     H38021   9.870   7.101   6.005  0.4609 -0.4592  1.3910
  276MOL0     H38022   9.780   7.209   6.112 -0.2473  1.2640 -0.8187
  276MOL0     H38023   9.942   7.393   6.061  1.6762 -0.2594  0.3122
  276MOL0     H38024  10.020   7.259   6.141 -0.2727  1.8498  0.6210
  276MOL0     H38025  10.103   7.182   5.902  0.1574 -0.0811 -0.0292
  276MOL0     H38026  10.002   7.322   5.842 -1.3911 -1.5626  0.6479
  276MOL0     H38027  10.150   7.475   5.959  0.9463  0.2730 -0.5893
  276MOL0     H38028  10.260   7.341   5.999  0.7446 -0.2189 -1.6691
  276MOL0     H38029  10.194   7.402   5.707 -2.3128 -0.0955  1.8878
  276MOL0     H38030  10.301   7.284   5.774 -1.0611  0.1742 -2.0455
  276MOL0     H38031  10.321   7.580   5.835 -0.9570 -0.7185  1.5366
  276MOL0     H38032  10.454   7.455   5.850  0.4403  1.3838 -0.0734
  276MOL0     H38033  10.341   7.555   5.588  0.6014  2.6638 -0.6951
  276MOL0     H38034  10.474   7.439   5.601 -1.8073 -0.7444  0.2873
  276MOL0     H38035  10.535   7.686   5.551  3.3682 -2.0889  0.0967
  276MOL0     H38036  10.468   7.728   5.718 -1.2628 -1.0431  0.2121
  276MOL0     H38037  10.762   7.545   5.538 -0.0315 -0.8198  0.9126
  276MOL0     H38038  11.016   7.513   5.600 -0.9537 -1.6254 -0.1345
  276MOL0     H38039  11.027   7.451   5.767  1.2833  0.2121 -1.5011
  276MOL0     H38040  11.076   7.737   5.721  3.3071  1.6296  1.4756
  276MOL0     H38041  11.086   7.653   5.869  0.2801 -3.6769 -0.1376
  276MOL0     H38042  11.314   7.660   5.800 -3.0279 -0.5022  3.4085
  276MOL0     H38043  11.261   7.498   5.774  0.8854 -0.4161 -0.2720
  276MOL0     H38044  11.230   7.532   5.520 -0.4688  0.4735 -1.3852
  276MOL0     H38045  11.259   7.703   5.532 -2.4594 -1.8684 -3.2284
  276MOL0     H38046  11.319   7.411   5.396 -0.3127 -1.5650 -0.0030
  276MOL0     H38047  11.415   7.245   5.171  5.6322 -3.6421 -0.3965
  276MOL0     H38048  11.285   7.210   5.294  0.0507  0.7230  0.5390
  276MOL0     H38049  11.412   7.095   5.266  0.6392 -0.2426  0.8823
  276MOL0     H38050  12.027   7.079   5.384  2.2575 -1.7306 -0.9194
  276MOL0     H38051  12.152   6.874   5.336  0.1853 -1.8490  0.1284
  276MOL0     H38052  12.175   6.519   5.197  0.0083  3.0683 -3.5105
  276MOL0     H38053  12.200   6.688   5.192  1.5808 -0.2305  1.1622
  276MOL0     H38054  12.238   6.667   5.451  2.0468 -0.9473  2.1734
  276MOL0     H38055  12.218   6.492   5.425 -3.7609  1.1458 -0.7000
  276MOL0     H38056  12.420   6.546   5.250  2.3925  2.1363 -0.1767
  276MOL0     H38057  12.444   6.521   5.417 -1.4032 -0.5208 -0.1180
  276MOL0     H38058  12.430   6.768   5.459 -0.6884 -1.9280  0.7287
  276MOL0     H38059  12.394   6.802   5.292 -3.2898 -1.3350  2.4607
  276MOL0     H38060  12.643   6.637   5.361  0.6738  0.4118  1.6513
  276MOL0     H38061  12.607   6.723   5.206  2.6774  0.6174  0.3648
  276MOL0     H38062  12.790   6.833   5.347  0.8527  1.5849  2.0173
  276MOL0     H38063  12.679   6.858   5.478  1.0346 -0.1391 -0.6941
  276MOL0     H38064  12.703   7.071   5.374 -0.0722 -0.7450 -1.3137
  276MOL0     H38065  12.535   7.013   5.355 -0.8833 -2.4117 -0.8755
  276MOL0     H38066  12.632   7.113   5.146  3.7562 -0.8308 -4.1950
  276MOL0     H38067  12.576   6.945   5.131  0.1224  0.6395 -1.0055
  276MOL0     H38068  11.792   6.640   5.367  2.0840 -2.2694 -1.2791
  276MOL0     H38069  11.659   6.860   5.416  0.3984 -0.2442  1.8357
  276MOL0     H38070  11.757   7.310   5.562 -0.4581 -0.0203  0.0174
  276MOL0     H38071  11.650   7.505   5.641 -1.2047  0.2733  1.0920
  276MOL0     H38072   9.596   7.360   5.731 -2.9797  1.3547 -1.6863
  276MOL0     H38073   9.398   7.248   5.647  1.8501 -0.9785 -2.6730
  276MOL0     H38074   9.070   6.766   5.879 -1.2029  0.5703  0.2278
  276MOL0     H38075   8.932   6.607   5.773  3.0760  0.2363  1.4979
  276MOL0     H38076   8.741   6.699   5.361  1.6023  2.2360 -1.8969
  276MOL0     H38077   8.898   6.643   5.332 -1.4655  1.5385 -1.6419
  276MOL0     H38078   8.839   6.410   5.405 -1.3831 -1.2758  0.8583
  276MOL0     H38079   8.781   6.455   5.249  0.4080  1.1347  0.2862
  276MOL0     H38080   8.607   6.334   5.369  0.0343 -1.1023  2.7737
  276MOL0     H38081   8.610   6.450   5.503 -1.6641 -1.0520  0.8170
  276MOL0     H38082   8.511   6.630   5.393 -0.1858  1.1990 -1.5122
  276MOL0     H38083   8.413   6.487   5.380  0.0655  1.2505  1.5940
  276MOL0     H38084   8.515   6.593   4.974 -0.1608 -0.2902 -0.0224
  276MOL0     H38085   8.903   6.876   5.433  0.3728  1.4516  0.4337
  276MOL0     H38086   9.146   7.035   5.433 -0.6306  1.2186 -0.6523
  276MOL0     H38087   8.986   7.084   5.450  0.6955 -0.4038 -1.1104
  276MOL0     H38088   9.097   7.144   5.569 -0.0859  0.9136 -0.9507
  277MOL0     O38089   4.476   2.480  10.742  0.0573  0.0559  0.0417
  277MOL0     C38090   4.490   2.562  10.646 -0.0953 -0.0036 -0.3688
  277MOL0     O38091   4.573   2.548  10.541 -0.3533  0.5290  0.3484
  277MOL0     C38092   4.681   2.463  10.534  0.2355  0.3230 -1.1155
  277MOL0     C38093   4.678   2.327  10.564 -0.3977  0.0593 -0.4561
  277MOL0     C38094   4.792   2.244  10.557 -0.1647 -0.4586  0.1056
  277MOL0     C38095   4.916   2.303  10.517 -0.0695 -0.1339  0.8593
  277MOL0     O38096   5.035   2.240  10.512 -0.0208  0.6261  0.7027
  277MOL0     C38097   5.048   2.098  10.543  0.8916 -0.1477 -0.9654
  277MOL0     C38098   5.188   2.047  10.539  0.2632  0.0929  0.8600
  277MOL0     C38099   5.264   2.070  10.667 -0.0148 -0.0141  0.0455
  277MOL0     C38100   5.404   2.016  10.651  0.0569 -0.4677 -0.4473
  277MOL0     C38101   5.506   2.066  10.753  0.8516  0.1144 -0.7368
  277MOL0     C38102   5.644   2.018  10.705  0.2387  0.0303  0.6707
  277MOL0     C38103   5.741   2.026  10.822 -0.7855  0.5659  0.5209
  277MOL0     C38104   5.890   2.047  10.784 -0.2336 -0.5270  0.1875
  277MOL0     N38105   5.951   1.917  10.781 -0.4220 -0.6714  0.6127
  277MOL0     C38106   5.956   1.842  10.664 -0.5731 -0.1241  0.1096
  277MOL0     C38107   6.049   1.749  10.687 -0.6385 -0.4614 -0.8425
  277MOL0     C38108   6.072   1.638  10.594  0.1402  0.1928 -0.2527
  277MOL0     C38109   6.175   1.680  10.484 -0.7538  0.1219 -0.1425
  277MOL0     C38110   6.228   1.565  10.398  0.0874 -0.4944  1.0228
  277MOL0     C38111   6.298   1.451  10.476 -0.0698  0.3754  0.0262
  277MOL0     O38112   6.369   1.496  10.592 -0.1132  0.5246 -0.3837
  277MOL0     C38113   6.505   1.535  10.590  0.6521 -0.0217 -0.0943
  277MOL0     C38114   6.571   1.516  10.710 -0.2124 -0.8170 -0.1830
  277MOL0     C38115   6.708   1.553  10.718  0.4051  0.7556 -0.0867
  277MOL0     C38116   6.779   1.533  10.849  0.2150 -0.5220  0.0811
  277MOL0     C38117   6.783   1.604  10.600  0.1838  0.8670 -0.2197
  277MOL0     C38118   6.922   1.645  10.603 -0.4104 -0.4808 -0.5105
  277MOL0     O38119   7.009   1.592  10.698 -0.1941  0.0923  0.3258
  277MOL0     C38120   7.131   1.659  10.725 -0.0967 -0.2409  0.9867
  277MOL0     C38121   7.121   1.793  10.776 -0.2914 -0.3324  1.3018
  277MOL0     C38122   7.246   1.851  10.815  0.3606  0.5325 -0.3438
  277MOL0     C38123   7.372   1.788  10.804 -0.8406 -0.6839  1.0601
  277MOL0     O38124   7.483   1.846  10.847  0.2831  1.2559 -0.1042
  277MOL0     C38125   7.499   1.975  10.790 -0.1875 -0.4800 -0.4743
  277MOL0     C38126   7.644   2.014  10.800  0.0807 -0.1953  0.9491
  277MOL0     C38127   7.678   2.150  10.742  0.6913  0.4301  0.6258
  277MOL0     C38128   7.816   2.190  10.769  0.1578 -0.1559 -0.0074
  277MOL0     C38129   7.863   2.311  10.684 -0.1310 -0.4388  0.6022
  277MOL0     C38130   7.830   2.293  10.538 -0.5992 -0.0193 -0.2977
  277MOL0     C38131   7.925   2.383  10.451 -1.0199  0.6666 -0.3854
  277MOL0     C38132   7.944   2.531  10.503  0.1764  0.0418  0.5545
  277MOL0    Cl38133   8.048   2.604  10.388 -0.3155 -0.0346 -0.3308
  277MOL0     C38134   7.378   1.657  10.759 -0.8759 -0.1907  0.2663
  277MOL0     C38135   7.257   1.595  10.724  0.3225  0.4449 -0.0066
  277MOL0     O38136   6.952   1.740  10.532  0.1192  0.0872 -0.2782
  277MOL0     C38137   6.703   1.627  10.485 -0.0485 -0.3865  0.1016
  277MOL0     C38138   6.567   1.591  10.482 -0.2046  0.0001 -0.8992
  277MOL0     N38139   6.088   1.764  10.820 -0.0529  0.5717  0.5483
  277MOL0     N38140   6.022   1.864  10.877 -0.0925 -0.4395 -0.4653
  277MOL0     C38141   4.921   2.441  10.496  0.5279 -0.4729 -0.0974
  277MOL0     C38142   4.804   2.515  10.504  0.1172 -0.5163 -0.6859
  277MOL0     C38143   4.379   2.654  10.631 -0.4292  0.7565 -0.1727
  277MOL0     C38144   4.363   2.716  10.503  0.7074  0.7404  1.1780
  277MOL0     C38145   4.265   2.817  10.483 -0.7925 -0.1294  0.0357
  277MOL0     C38146   4.187   2.856  10.593 -0.7827 -0.5416 -0.0364
  277MOL0     O38147   4.113   2.978  10.572  0.0807 -0.5674 -0.8688
  277MOL0     C38148   4.026   3.028  10.680  0.5972 -0.1723  0.0336
  277MOL0     C38149   3.934   3.148  10.627 -0.6217  1.0719 -0.3553
  277MOL0     C38150   3.884   3.222  10.754 -0.0126  0.0171  0.0269
  277MOL0     C38151   3.829   3.354  10.705  0.3997  0.9586 -0.4404
  277MOL0     C38152   3.777   3.427  10.821  0.8891 -0.1336  0.1246
  277MOL0     C38153   3.755   3.475  10.930 -0.0250  0.8149 -0.0161
  277MOL0     C38154   4.184   2.790  10.712 -0.8956 -0.3874 -0.0743
  277MOL0     C38155   4.291   2.698  10.741 -0.4434 -0.5717  1.3365
  277MOL0     C38156   4.314   2.646  10.884 -0.1193 -0.7520  0.4967
  277MOL0     H38157   4.583   2.279  10.584  0.3404 -1.2462  0.0077
  277MOL0     H38158   4.796   2.144  10.598  1.4356 -1.7505 -2.9321
  277MOL0     H38159   4.986   2.046  10.468 -0.7140  0.3814 -0.0637
  277MOL0     H38160   5.008   2.070  10.641  0.6521  0.6377 -0.8379
  277MOL0     H38161   5.203   1.943  10.509  1.7299  0.9984 -2.0152
  277MOL0     H38162   5.237   2.110  10.463  1.7989  0.0076  1.7316
  277MOL0     H38163   5.265   2.176  10.691  2.2418 -0.1442  0.7325
  277MOL0     H38164   5.219   2.018  10.752 -0.0416 -1.0833 -0.5927
  277MOL0     H38165   5.395   1.907  10.660  0.7271 -0.5571 -0.7657
  277MOL0     H38166   5.436   2.033  10.548  0.4745  1.2657 -0.0706
  277MOL0     H38167   5.494   2.021  10.852  3.1067 -0.4232 -0.6518
  277MOL0     H38168   5.504   2.175  10.763 -0.7863 -0.1109  2.3668
  277MOL0     H38169   5.635   1.914  10.674 -0.9339  0.0682  0.8040
  277MOL0     H38170   5.675   2.082  10.622  1.5735 -1.3280  0.0849
  277MOL0     H38171   5.712   1.940  10.883 -3.0105  0.2653 -0.8455
  277MOL0     H38172   5.718   2.114  10.881 -1.6989 -0.1786  1.3099
  277MOL0     H38173   5.889   2.098  10.687 -3.4564 -1.7404 -0.5526
  277MOL0     H38174   5.948   2.108  10.854  0.9908 -1.6175  0.1731
  277MOL0     H38175   5.887   1.855  10.581  0.0725  1.8250 -0.1973
  277MOL0     H38176   5.975   1.604  10.556  0.2387 -1.6258  1.0316
  277MOL0     H38177   6.115   1.563  10.661  2.8665  1.7598 -0.1132
  277MOL0     H38178   6.138   1.757  10.416  1.4650  0.9183 -0.5314
  277MOL0     H38179   6.262   1.710  10.543 -1.5841 -1.3368  1.9638
  277MOL0     H38180   6.146   1.540  10.331 -0.7121  2.5856  0.6879
  277MOL0     H38181   6.300   1.605  10.327  1.0838 -1.2681  1.5635
  277MOL0     H38182   6.234   1.372  10.516  2.1835 -1.1288  0.8842
  277MOL0     H38183   6.361   1.392  10.409 -0.4538 -2.3707  1.9060
  277MOL0     H38184   6.530   1.457  10.791 -1.1290  0.4262  0.2927
  277MOL0     H38185   6.712   1.494  10.927  0.9223 -1.3428  0.2929
  277MOL0     H38186   6.816   1.629  10.885 -1.8584 -0.1148  1.2985
  277MOL0     H38187   6.848   1.448  10.847  2.3314  1.1261 -0.0484
  277MOL0     H38188   7.025   1.840  10.795 -0.4295 -0.3902  0.7833
  277MOL0     H38189   7.234   1.953  10.849  1.8916  0.6030  0.1101
  277MOL0     H38190   7.475   1.968  10.683 -1.5736 -2.1582 -0.0836
  277MOL0     H38191   7.431   2.044  10.840 -0.5058 -1.6144  0.7158
  277MOL0     H38192   7.674   2.024  10.905  0.8822  2.3157  0.5348
  277MOL0     H38193   7.712   1.946  10.748 -1.2481  0.7060 -2.1694
  277MOL0     H38194   7.608   2.215  10.795 -2.5332 -3.1570  1.2073
  277MOL0     H38195   7.661   2.152  10.634 -0.6579  1.3150  0.8382
  277MOL0     H38196   7.875   2.102  10.741 -0.9592 -0.4807 -1.4737
  277MOL0     H38197   7.827   2.226  10.872 -1.7630  0.4049  0.0428
  277MOL0     H38198   7.822   2.406  10.720 -1.2709  0.5924 -2.9768
  277MOL0     H38199   7.972   2.319  10.698  0.1565 -1.8098 -0.6527
  277MOL0     H38200   7.728   2.329  10.524 -0.3050 -0.0560 -3.2086
  277MOL0     H38201   7.821   2.197  10.487 -0.8396  0.1170 -0.5172
  277MOL0     H38202   7.882   2.396  10.352  0.7225 -0.8900 -1.4000
  277MOL0     H38203   8.016   2.325  10.435 -0.2568  1.4511  0.9253
  277MOL0     H38204   7.987   2.541  10.603  2.4790 -0.5430 -0.3118
  277MOL0     H38205   7.848   2.583  10.495 -0.8081 -1.7379  0.2242
  277MOL0     H38206   7.470   1.599  10.752 -0.6568  0.3385 -1.9398
  277MOL0     H38207   7.244   1.489  10.705 -0.2349 -0.1588  3.1031
  277MOL0     H38208   6.747   1.665  10.393 -0.4359 -0.6484 -0.1944
  277MOL0     H38209   6.518   1.602  10.386 -0.6161  0.4014 -0.6439
  277MOL0     H38210   5.016   2.486  10.469 -0.4601  0.8678 -1.5226
  277MOL0     H38211   4.797   2.621  10.482  0.8021 -0.4851 -0.7989
  277MOL0     H38212   4.418   2.690  10.413 -1.3533  1.6966 -0.4622
  277MOL0     H38213   4.272   2.864  10.386  2.0408  1.5383  0.9162
  277MOL0     H38214   3.961   2.945  10.709  0.7352 -0.1749  0.3344
  277MOL0     H38215   4.085   3.056  10.768  0.0239 -1.0680  0.7190
  277MOL0     H38216   3.852   3.105  10.570  0.4756 -0.2789 -0.9846
  277MOL0     H38217   4.000   3.212  10.567  1.0187  0.1244  0.3769
  277MOL0     H38218   3.811   3.155  10.800 -0.7960  0.9076  0.1009
  277MOL0     H38219   3.972   3.242  10.816 -1.1169 -0.8632  1.9519
  277MOL0     H38220   3.745   3.349  10.634 -0.3155  1.2388  0.3705
  277MOL0     H38221   3.902   3.424  10.663 -0.0913  1.9539  0.3308
  277MOL0     H38222   3.741   3.521  11.026  0.5218 -1.5418  1.2812
  277MOL0     H38223   4.113   2.812  10.791  0.4028  2.5557  0.3921
  277MOL0     H38224   4.286   2.540  10.890  2.0594 -1.3414  1.5178
  277MOL0     H38225   4.420   2.656  10.911  0.6338  1.3034 -2.6159
  277MOL0     H38226   4.262   2.708  10.956  0.3829  3.7724 -2.6165
  278MOL0     O38227   3.187   6.058   1.248  0.5276 -0.3447 -0.2588
  278MOL0     C38228   3.111   6.113   1.174  0.3394  0.0021  0.4751
  278MOL0     O38229   3.145   6.214   1.082 -0.5431  0.2248  0.1321
  278MOL0     C38230   3.274   6.263   1.100  0.4065  0.1371  0.0959
  278MOL0     C38231   3.288   6.395   1.151  0.2937  0.6414 -0.4399
  278MOL0     C38232   3.405   6.451   1.185  0.0006  0.0816  0.5095
  278MOL0     C38233   3.521   6.378   1.165  0.3993 -0.4107 -0.7437
  278MOL0     O38234   3.636   6.457   1.159 -0.2929  0.2341 -0.7968
  278MOL0     C38235   3.761   6.396   1.128 -0.8849 -0.0599 -0.8184
  278MOL0     C38236   3.871   6.503   1.132 -0.4776  0.3140 -0.2314
  278MOL0     C38237   3.845   6.626   1.043  1.5212  0.1536  0.4245
  278MOL0     C38238   3.960   6.720   1.030  0.9903 -0.0590  0.3928
  278MOL0     C38239   3.981   6.783   1.171  0.2984 -0.7131  0.1425
  278MOL0     C38240   4.093   6.883   1.156 -0.0991 -0.1262  0.4493
  278MOL0     C38241   4.119   6.969   1.283  0.4539  0.5469  0.3100
  278MOL0     C38242   4.168   6.883   1.405 -0.6394 -0.4433 -0.5086
  278MOL0     N38243   4.320   6.888   1.407 -0.1527 -0.1958  0.1087
  278MOL0     C38244   4.413   6.983   1.446 -0.3884 -0.2627 -0.4553
  278MOL0     C38245   4.527   6.916   1.451 -0.0299 -0.9114 -0.1888
  278MOL0     C38246   4.657   6.987   1.484 -0.1591  0.4398  0.1330
  278MOL0     C38247   4.675   7.081   1.365 -0.4917 -0.3054  0.1041
  278MOL0     C38248   4.687   7.011   1.230 -0.9039 -0.2508  0.9080
  278MOL0     C38249   4.812   6.922   1.212 -1.1399 -0.0442 -0.3406
  278MOL0     O38250   4.824   6.868   1.081  0.3240 -0.0168 -0.4938
  278MOL0     C38251   4.724   6.799   1.024 -0.1084 -0.5229  0.4995
  278MOL0     C38252   4.741   6.776   0.884  0.5398  0.2779  0.6348
  278MOL0     C38253   4.647   6.715   0.803  0.0970 -0.1502  0.0896
  278MOL0     C38254   4.682   6.691   0.651  0.6230 -0.8630  0.0122
  278MOL0     C38255   4.533   6.655   0.865  1.1565  0.9474 -0.2241
  278MOL0     C38256   4.423   6.589   0.789  0.3421  0.1157 -0.0920
  278MOL0     O38257   4.343   6.512   0.861  0.3895 -0.0319 -0.4310
  278MOL0     C38258   4.218   6.473   0.820  0.5103  0.5433  0.2232
  278MOL0     C38259   4.184   6.348   0.862 -0.0654 -0.0320  0.0740
  278MOL0     C38260   4.057   6.297   0.842  0.4982  0.1455 -0.3810
  278MOL0     C38261   3.964   6.361   0.766 -0.6661  0.5525 -0.0918
  278MOL0     O38262   3.848   6.292   0.760  0.1156 -0.1684 -0.3049
  278MOL0     C38263   3.733   6.335   0.681 -0.8656 -0.1152  0.7202
  278MOL0     C38264   3.640   6.211   0.671  0.0748  0.2731 -0.5640
  278MOL0     C38265   3.526   6.225   0.555  0.2477 -0.7112 -0.1444
  278MOL0     C38266   3.409   6.131   0.586  0.3496 -0.7537 -0.1896
  278MOL0     C38267   3.305   6.131   0.477 -0.1153 -0.6276 -0.1449
  278MOL0     C38268   3.174   6.082   0.537 -0.6288 -0.4358 -0.3400
  278MOL0     C38269   3.062   6.112   0.445 -0.6410 -0.4360 -0.1766
  278MOL0     C38270   2.939   6.031   0.506 -0.0124 -0.4057  0.1493
  278MOL0    Cl38271   2.796   6.096   0.419 -0.1709 -0.0640  0.3736
  278MOL0     C38272   4.001   6.491   0.715 -0.9022  0.2241 -0.0519
  278MOL0     C38273   4.124   6.545   0.741 -0.7583  0.2058  0.2927
  278MOL0     O38274   4.403   6.606   0.667 -0.6263 -0.6880 -0.6209
  278MOL0     C38275   4.518   6.673   1.008 -0.2826  0.6363 -0.0333
  278MOL0     C38276   4.615   6.736   1.082  0.2281  1.1760  0.2811
  278MOL0     N38277   4.510   6.781   1.429  0.1435 -0.1905  0.3566
  278MOL0     N38278   4.386   6.770   1.400  0.1377  0.2555  0.0514
  278MOL0     C38279   3.514   6.247   1.115 -0.4115 -0.5544  0.5253
  278MOL0     C38280   3.391   6.188   1.077 -1.2582 -0.2343 -0.4730
  278MOL0     C38281   2.963   6.078   1.179 -0.4162 -0.0158  0.8664
  278MOL0     C38282   2.871   6.181   1.146 -0.5264 -0.0143 -0.2149
  278MOL0     C38283   2.734   6.159   1.153  0.5496 -0.2498  0.3878
  278MOL0     C38284   2.679   6.043   1.207 -1.7264  0.2929 -0.4376
  278MOL0     O38285   2.543   6.022   1.218  0.1380 -0.3343  0.1932
  278MOL0     C38286   2.462   6.071   1.117  0.9285  0.1654  0.0886
  278MOL0     C38287   2.343   5.983   1.096 -0.5045  0.2190 -0.6410
  278MOL0     C38288   2.230   6.023   1.195  0.1699 -0.2848  0.0948
  278MOL0     C38289   2.091   5.959   1.164 -0.1938 -0.6363  0.0279
  278MOL0     C38290   2.096   5.816   1.118  0.3186 -0.1050  0.4040
  278MOL0     C38291   2.105   5.697   1.096  0.3559  0.8300  0.5720
  278MOL0     C38292   2.768   5.938   1.238  0.4992 -0.3733  0.6963
  278MOL0     C38293   2.906   5.954   1.218 -0.3619  0.1594 -0.0767
  278MOL0     C38294   2.993   5.827   1.247 -0.1595  0.2491 -0.2926
  278MOL0     H38295   3.186   6.429   1.165 -2.2768 -4.1398 -4.3601
  278MOL0     H38296   3.404   6.550   1.229 -0.9644  0.0946  0.4856
  278MOL0     H38297   3.752   6.345   1.032 -2.4092  1.1065 -1.3343
  278MOL0     H38298   3.797   6.317   1.194  0.3424 -0.1234 -1.5285
  278MOL0     H38299   3.888   6.534   1.235  0.0585  3.5198 -1.1590
  278MOL0     H38300   3.958   6.455   1.087 -1.7053 -0.6251 -1.7436
  278MOL0     H38301   3.819   6.592   0.943  2.0276  3.2829 -0.8811
  278MOL0     H38302   3.757   6.686   1.070  0.9439  0.3092 -1.6810
  278MOL0     H38303   4.047   6.663   0.995  0.9688 -0.7898  1.4808
  278MOL0     H38304   3.932   6.798   0.960 -0.3691 -1.0078 -0.1498
  278MOL0     H38305   4.018   6.711   1.245  0.8921  0.3016  0.8507
  278MOL0     H38306   3.891   6.831   1.210  0.3806 -1.6534  1.5634
  278MOL0     H38307   4.185   6.829   1.130 -0.1736  0.6517 -1.6581
  278MOL0     H38308   4.069   6.957   1.079 -0.9416 -0.5696  0.2842
  278MOL0     H38309   4.021   7.009   1.311 -0.2340  1.8952 -3.4854
  278MOL0     H38310   4.183   7.055   1.263 -0.8643  1.3825 -0.4201
  278MOL0     H38311   4.135   6.934   1.496 -1.5733 -0.8661 -0.6004
  278MOL0     H38312   4.124   6.783   1.415 -0.7918 -0.2612  0.8191
  278MOL0     H38313   4.394   7.089   1.460 -1.9145 -0.5343 -0.3548
  278MOL0     H38314   4.741   6.917   1.484 -0.2849  0.2748 -0.7220
  278MOL0     H38315   4.659   7.050   1.573 -0.9509  3.2954 -1.7206
  278MOL0     H38316   4.590   7.150   1.362  1.0010  1.6932 -4.3312
  278MOL0     H38317   4.761   7.149   1.366  0.2695 -1.1988 -1.2991
  278MOL0     H38318   4.594   6.960   1.200 -0.1341 -0.5260 -1.1928
  278MOL0     H38319   4.705   7.081   1.148 -0.7821 -0.7982  0.4573
  278MOL0     H38320   4.904   6.978   1.231  0.1143 -2.0949 -0.0646
  278MOL0     H38321   4.808   6.840   1.284  1.1395  0.9309  0.9929
  278MOL0     H38322   4.833   6.813   0.840  0.1311 -1.6811 -2.0674
  278MOL0     H38323   4.624   6.755   0.583  0.9270  0.6292  1.1338
  278MOL0     H38324   4.676   6.585   0.624  0.8372 -1.0680  0.7450
  278MOL0     H38325   4.786   6.718   0.630  0.2785 -1.2114 -2.4552
  278MOL0     H38326   4.256   6.290   0.919 -0.0429  2.0163  2.2825
  278MOL0     H38327   4.041   6.191   0.855  1.4814 -0.0558 -0.6843
  278MOL0     H38328   3.686   6.422   0.728 -1.0980 -0.0506  0.3717
  278MOL0     H38329   3.762   6.363   0.580 -1.0731 -2.9118 -0.1801
  278MOL0     H38330   3.695   6.117   0.659  0.3081  0.7075 -3.5172
  278MOL0     H38331   3.591   6.200   0.768  1.4485  2.8640  0.5446
  278MOL0     H38332   3.571   6.200   0.458 -1.6841 -1.7076 -0.8464
  278MOL0     H38333   3.491   6.329   0.554 -0.2053 -0.8070  1.9881
  278MOL0     H38334   3.369   6.164   0.683 -0.3057  2.1537 -1.3560
  278MOL0     H38335   3.463   6.040   0.614  2.3199  1.5808  4.9228
  278MOL0     H38336   3.286   6.235   0.448  2.2205  0.1042  0.7122
  278MOL0     H38337   3.348   6.073   0.395  2.9557 -0.0215  0.9049
  278MOL0     H38338   3.151   6.139   0.627  2.3013  1.4704 -0.6609
  278MOL0     H38339   3.182   5.977   0.565 -0.8974 -0.5765 -0.7792
  278MOL0     H38340   3.087   6.079   0.343  0.6369  1.2782 -0.4590
  278MOL0     H38341   3.038   6.218   0.438  1.9407  0.1323 -2.6466
  278MOL0     H38342   2.929   6.043   0.614  2.0234 -1.6724  0.5431
  278MOL0     H38343   2.943   5.923   0.490 -0.0035 -0.2281 -1.1929
  278MOL0     H38344   3.930   6.546   0.653  1.7739  0.8021 -2.8635
  278MOL0     H38345   4.154   6.641   0.701  0.4444 -0.1497  0.2934
  278MOL0     H38346   4.429   6.622   1.043 -0.8385  0.7895 -1.1614
  278MOL0     H38347   4.598   6.740   1.189  0.3982  3.1889  0.2826
  278MOL0     H38348   3.603   6.196   1.081  0.1603  0.3410  0.6702
  278MOL0     H38349   3.389   6.091   1.028  1.9369 -1.2498  1.1355
  278MOL0     H38350   2.899   6.286   1.135  2.6144 -0.6690  0.4197
  278MOL0     H38351   2.662   6.240   1.145  1.1636  0.7695  3.5311
  278MOL0     H38352   2.439   6.175   1.143 -2.7114 -0.2401 -0.8602
  278MOL0     H38353   2.510   6.077   1.020 -2.4880 -0.2196 -1.8059
  278MOL0     H38354   2.388   5.886   1.119 -0.2005  0.4268 -0.3468
  278MOL0     H38355   2.322   5.980   0.989  1.8677  1.0070 -1.1867
  278MOL0     H38356   2.255   5.977   1.291  2.7018 -1.5752 -1.0843
  278MOL0     H38357   2.223   6.132   1.193 -0.2164 -0.1488  3.4608
  278MOL0     H38358   2.056   6.023   1.082  1.3506 -1.0517 -1.0049
  278MOL0     H38359   2.034   5.966   1.257 -1.1843  2.6881 -0.6783
  278MOL0     H38360   2.118   5.593   1.076  0.8063  0.9368  0.2970
  278MOL0     H38361   2.715   5.846   1.256 -0.8585 -0.1311 -1.6827
  278MOL0     H38362   2.989   5.802   1.353 -1.0303  0.5085 -0.2533
  278MOL0     H38363   2.949   5.740   1.196 -2.3258  0.9048  0.3441
  278MOL0     H38364   3.096   5.844   1.214 -0.0083  1.1674  0.6051
  279MOL0     O38365   7.282  10.906   1.896  0.1538  0.0979  0.1415
  279MOL0     C38366   7.216  10.869   1.799  0.5471 -0.7061  0.5831
  279MOL0     O38367   7.173  10.949   1.706  0.2309 -0.1511  0.6293
  279MOL0     C38368   7.184  11.088   1.732  0.0138  0.5198  0.3841
  279MOL0     C38369   7.306  11.153   1.730  0.0922  0.2469  0.0778
  279MOL0     C38370   7.310  11.295   1.725  0.2624  0.4041 -0.2894
  279MOL0     C38371   7.190  11.364   1.741 -0.7609 -0.4332  0.1314
  279MOL0     O38372   7.201  11.501   1.749 -0.3285  0.5883 -0.2422
  279MOL0     C38373   7.123  11.555   1.854 -0.3902  0.1458 -0.3415
  279MOL0     C38374   7.140  11.705   1.872 -0.4228 -0.2382 -0.5733
  279MOL0     C38375   7.288  11.742   1.901  0.7641  0.4106 -0.8907
  279MOL0     C38376   7.325  11.683   2.037 -0.0077 -0.4699  0.9125
  279MOL0     C38377   7.470  11.718   2.085 -0.1717  0.7354 -0.2459
  279MOL0     C38378   7.575  11.691   1.984  0.9974  0.9697 -0.8979
  279MOL0     C38379   7.711  11.740   2.035 -0.4003  0.2656 -0.4921
  279MOL0     C38380   7.768  11.675   2.161 -0.2296  0.0776 -0.1932
  279MOL0     N38381   7.906  11.639   2.144  0.2584 -0.2244  0.0355
  279MOL0     C38382   8.017  11.708   2.190 -0.0669 -0.7186 -0.5326
  279MOL0     C38383   8.125  11.637   2.141 -0.6216 -0.8480 -0.3475
  279MOL0     C38384   8.270  11.680   2.156 -0.5369 -0.1176 -0.8914
  279MOL0     C38385   8.360  11.559   2.170  0.6893  0.2350  0.3780
  279MOL0     C38386   8.491  11.606   2.237 -0.5781  0.9918  0.0419
  279MOL0     C38387   8.585  11.486   2.255  0.4419  0.5203  0.0921
  279MOL0     O38388   8.715  11.528   2.302  0.7016 -0.5597  0.7012
  279MOL0     C38389   8.813  11.440   2.317  0.8296 -0.0077 -0.7198
  279MOL0     C38390   8.939  11.483   2.368  0.4255  0.5727  0.5129
  279MOL0     C38391   9.050  11.393   2.390 -0.1264 -0.2742 -0.3920
  279MOL0     C38392   9.178  11.448   2.450  0.1982 -0.7571  0.1895
  279MOL0     C38393   9.033  11.252   2.360 -0.2017  0.1815  0.2111
  279MOL0     C38394   9.134  11.142   2.389 -0.7987 -0.1337  0.5319
  279MOL0     O38395   9.252  11.172   2.443  0.6889  0.6104 -0.2656
  279MOL0     C38396   9.364  11.097   2.429 -0.0866 -0.0754  0.6999
  279MOL0     C38397   9.399  11.042   2.308  0.2352  0.4802  0.0831
  279MOL0     C38398   9.522  10.972   2.302  0.1358  0.1763 -0.5227
  279MOL0     C38399   9.612  10.970   2.406  1.0003 -0.1198 -0.1179
  279MOL0     O38400   9.729  10.913   2.384  0.6901  0.1290 -0.8277
  279MOL0     C38401   9.833  11.002   2.335 -0.0351  0.4514 -0.1217
  279MOL0     C38402   9.960  10.972   2.417 -0.6094 -0.1487  0.1420
  279MOL0     C38403  10.024  10.832   2.378 -0.6070  0.3925 -0.3846
  279MOL0     C38404  10.162  10.815   2.439  0.6157  0.4440 -0.0881
  279MOL0     C38405  10.209  10.677   2.433 -0.2252  0.5974  0.0768
  279MOL0     C38406  10.358  10.645   2.462 -0.2023  0.9030 -0.4179
  279MOL0     C38407  10.452  10.706   2.348 -0.0492 -0.0859 -0.1257
  279MOL0     C38408  10.595  10.669   2.386 -0.1147 -0.1708 -0.2957
  279MOL0    Cl38409  10.709  10.727   2.250 -0.2158  0.2742  0.2009
  279MOL0     C38410   9.573  11.033   2.527 -0.2537  0.5374 -0.7344
  279MOL0     C38411   9.448  11.096   2.541 -0.4790 -0.2004  0.3849
  279MOL0     O38412   9.103  11.033   2.345  0.2612 -0.1363 -0.0097
  279MOL0     C38413   8.911  11.218   2.313 -0.3403  0.1466  0.7404
  279MOL0     C38414   8.801  11.311   2.282  0.3672  0.0245  0.5405
  279MOL0     N38415   8.080  11.524   2.077 -0.4335 -0.2681 -0.1098
  279MOL0     N38416   7.946  11.526   2.081 -0.3974  0.9084  0.1448
  279MOL0     C38417   7.067  11.298   1.749 -0.6126  0.4531 -0.1802
  279MOL0     C38418   7.065  11.158   1.746  0.3954 -0.2178  0.6211
  279MOL0     C38419   7.215  10.717   1.771 -0.9293 -0.5072 -0.7025
  279MOL0     C38420   7.221  10.683   1.636 -1.2609  0.6098 -0.1477
  279MOL0     C38421   7.234  10.547   1.605 -0.5420 -0.1358 -0.4701
  279MOL0     C38422   7.254  10.450   1.703  0.0030  0.3753  0.4107
  279MOL0     O38423   7.267  10.313   1.688 -0.0754  0.4367 -0.3736
  279MOL0     C38424   7.228  10.261   1.563  0.0339 -0.1512 -0.2236
  279MOL0     C38425   7.219  10.114   1.593  0.1794  0.0947 -0.5280
  279MOL0     C38426   7.147  10.068   1.723 -0.4794  0.1436 -0.1757
  279MOL0     C38427   6.993  10.077   1.720  0.4199  0.5207  0.3178
  279MOL0     C38428   6.942  10.012   1.595 -0.4542 -0.8074  0.3865
  279MOL0     C38429   6.908   9.951   1.492  0.5608  1.1428  0.0250
  279MOL0     C38430   7.243  10.483   1.834  0.2409 -0.8778  0.8746
  279MOL0     C38431   7.224  10.615   1.878 -0.3687 -0.6857  0.2354
  279MOL0     C38432   7.219  10.647   2.025  0.6493 -0.1124  0.4315
  279MOL0     H38433   7.395  11.097   1.701  1.0701  0.4825  2.4464
  279MOL0     H38434   7.403  11.349   1.713  0.4176  0.5522  1.3225
  279MOL0     H38435   7.133  11.499   1.947  0.4372 -2.3936 -1.8453
  279MOL0     H38436   7.016  11.540   1.838 -0.4727 -1.2361  1.2478
  279MOL0     H38437   7.112  11.758   1.780  0.2610  5.1693  1.9694
  279MOL0     H38438   7.082  11.749   1.953  1.2109 -0.3906  0.7287
  279MOL0     H38439   7.347  11.687   1.826  1.1442 -0.6971  0.1977
  279MOL0     H38440   7.309  11.849   1.888  2.6864  0.1693 -0.1027
  279MOL0     H38441   7.248  11.721   2.105  1.5350  1.2382  1.8063
  279MOL0     H38442   7.307  11.575   2.043 -0.0518 -0.5234 -0.0400
  279MOL0     H38443   7.491  11.675   2.184  1.0921 -0.7174 -1.1061
  279MOL0     H38444   7.481  11.827   2.090  3.7232  0.5981 -2.4450
  279MOL0     H38445   7.580  11.585   1.960  0.4710  1.1935 -2.1118
  279MOL0     H38446   7.561  11.747   1.891  0.5933  1.2489 -0.6761
  279MOL0     H38447   7.721  11.845   2.063  2.3162 -0.9329  4.1429
  279MOL0     H38448   7.785  11.719   1.957  0.6275  2.8586 -0.3061
  279MOL0     H38449   7.752  11.725   2.257  1.2702  1.1448 -0.4655
  279MOL0     H38450   7.706  11.587   2.178 -0.2258 -0.2791 -1.8717
  279MOL0     H38451   8.020  11.798   2.252 -0.3857 -3.2166  3.4492
  279MOL0     H38452   8.265  11.739   2.247 -0.2722 -2.5322  0.7852
  279MOL0     H38453   8.301  11.740   2.069 -0.3445 -2.7563 -2.7766
  279MOL0     H38454   8.321  11.480   2.234  1.2700 -0.8203 -0.5348
  279MOL0     H38455   8.370  11.508   2.074 -1.4684 -0.9532  0.7323
  279MOL0     H38456   8.548  11.677   2.176  2.0347 -2.1045 -1.3720
  279MOL0     H38457   8.481  11.658   2.333 -0.0393  0.0837  0.6056
  279MOL0     H38458   8.528  11.404   2.299  0.2947 -0.0614 -1.1578
  279MOL0     H38459   8.591  11.455   2.150 -1.1915 -0.9264  0.3820
  279MOL0     H38460   8.951  11.588   2.395  1.6336  0.5575  0.0681
  279MOL0     H38461   9.192  11.408   2.551 -0.7652  1.7406  1.4144
  279MOL0     H38462   9.163  11.556   2.467  0.1244 -0.7352 -0.0096
  279MOL0     H38463   9.259  11.439   2.378  0.1818 -0.3339  0.1125
  279MOL0     H38464   9.332  11.047   2.222  0.9124  0.4360 -0.4602
  279MOL0     H38465   9.545  10.938   2.202 -1.2252  3.8407 -2.2801
  279MOL0     H38466   9.857  10.974   2.232  5.0262  0.2958  0.8720
  279MOL0     H38467   9.806  11.107   2.349  1.0417  0.6401  0.6543
  279MOL0     H38468  10.039  11.044   2.395  0.5521 -1.8504 -1.6799
  279MOL0     H38469   9.942  10.980   2.524 -1.7005  2.7576 -0.1629
  279MOL0     H38470  10.018  10.820   2.270 -0.6545 -0.8240 -0.2638
  279MOL0     H38471   9.958  10.754   2.417  2.9294 -1.7261  2.0387
  279MOL0     H38472  10.159  10.864   2.537 -0.4224 -1.3641  0.8220
  279MOL0     H38473  10.227  10.877   2.376 -1.0140  0.9418 -1.3627
  279MOL0     H38474  10.151  10.627   2.511 -3.3562  4.0298  0.2078
  279MOL0     H38475  10.181  10.634   2.336 -0.8523  3.2696 -1.0144
  279MOL0     H38476  10.372  10.537   2.457  0.9350  0.9569  1.0119
  279MOL0     H38477  10.387  10.666   2.566  1.8560 -3.8281  0.2179
  279MOL0     H38478  10.449  10.813   2.327 -0.6822 -0.6805 -3.7859
  279MOL0     H38479  10.425  10.659   2.253  2.4446 -0.8872 -0.5079
  279MOL0     H38480  10.598  10.560   2.392 -1.4211 -0.1772  0.9464
  279MOL0     H38481  10.616  10.707   2.487  0.3541  2.8327 -1.4357
  279MOL0     H38482   9.638  11.030   2.614  1.0046 -0.0680 -1.6668
  279MOL0     H38483   9.437  11.142   2.638 -0.2030 -0.9051  0.7539
  279MOL0     H38484   8.892  11.113   2.295  1.9406 -0.6424  2.5104
  279MOL0     H38485   8.713  11.262   2.242 -1.3477  2.5349  1.0395
  279MOL0     H38486   6.971  11.341   1.774 -2.3838 -2.5960 -1.2352
  279MOL0     H38487   6.972  11.102   1.751  0.3406 -0.0673  1.5100
  279MOL0     H38488   7.228  10.747   1.549  0.8687 -1.1605 -1.3947
  279MOL0     H38489   7.239  10.509   1.503  2.2787 -1.7444  0.1639
  279MOL0     H38490   7.132  10.299   1.529 -0.1633  0.9469  1.4445
  279MOL0     H38491   7.300  10.287   1.485 -0.4257  0.6254 -0.4023
  279MOL0     H38492   7.317  10.066   1.596  0.4513  0.6238  2.6586
  279MOL0     H38493   7.173  10.070   1.504  2.6082 -1.0806 -1.2845
  279MOL0     H38494   7.168   9.962   1.735  1.2877  0.3732 -0.9430
  279MOL0     H38495   7.180  10.126   1.809  0.5089  2.1548 -1.8092
  279MOL0     H38496   6.960  10.181   1.737 -0.3065  0.1096  1.5707
  279MOL0     H38497   6.956  10.013   1.800  1.5823 -0.4567  0.0934
  279MOL0     H38498   6.875   9.890   1.410 -0.5657  3.0735 -1.0343
  279MOL0     H38499   7.265  10.400   1.901 -1.0744 -0.9446  1.2422
  279MOL0     H38500   7.306  10.704   2.058  1.0867  0.9784 -2.3479
  279MOL0     H38501   7.143  10.723   2.043  2.7800  2.2826 -0.1664
  279MOL0     H38502   7.197  10.557   2.085  1.6007 -0.4408  0.3061
  280MOL0     O38503   3.264   3.888   9.205 -0.4150  0.3041  0.7599
  280MOL0     C38504   3.227   3.930   9.314  0.2316 -0.5881  0.3209
  280MOL0     O38505   3.310   3.933   9.421  0.1698 -0.2943 -0.4231
  280MOL0     C38506   3.441   3.900   9.401 -0.1322 -0.2144 -0.0629
  280MOL0     C38507   3.556   3.988   9.433 -0.1436  0.3183  0.3473
  280MOL0     C38508   3.688   3.939   9.441 -0.4270  1.2895 -0.3016
  280MOL0     C38509   3.714   3.805   9.399  0.1352 -0.3834  0.2501
  280MOL0     O38510   3.840   3.752   9.392  0.2417  0.1450 -0.0794
  280MOL0     C38511   3.944   3.842   9.425 -0.2836 -1.0155  0.0221
  280MOL0     C38512   4.082   3.767   9.408 -0.2800  0.3498 -0.2722
  280MOL0     C38513   4.208   3.844   9.432  0.2951  0.3852  0.7027
  280MOL0     C38514   4.272   3.806   9.562  0.0320 -0.3556 -0.8273
  280MOL0     C38515   4.395   3.891   9.601 -0.0111 -0.6640 -0.7195
  280MOL0     C38516   4.520   3.872   9.507  0.3027  0.5944 -0.2240
  280MOL0     C38517   4.564   3.718   9.496  0.2509 -0.2974  0.3970
  280MOL0     C38518   4.621   3.667   9.625  0.0841 -0.8496  0.0658
  280MOL0     N38519   4.750   3.736   9.654  0.2258  0.0397  0.0905
  280MOL0     C38520   4.870   3.705   9.592 -0.3373 -0.9246 -0.5760
  280MOL0     C38521   4.963   3.777   9.657 -0.8083  0.2940 -1.2077
  280MOL0     C38522   5.116   3.752   9.628  0.3984  1.0668 -0.2234
  280MOL0     C38523   5.195   3.854   9.723  0.7224 -0.2168  0.3893
  280MOL0     C38524   5.335   3.864   9.692 -0.7912  0.4597  0.0185
  280MOL0     C38525   5.420   3.936   9.801 -0.0836 -0.9094 -0.3152
  280MOL0     O38526   5.437   3.858   9.918  0.0398  0.0172 -0.6803
  280MOL0     C38527   5.517   3.920  10.015 -0.3436  0.4506  0.4966
  280MOL0     C38528   5.496   4.038  10.084  0.1459 -0.3214 -0.3437
  280MOL0     C38529   5.604   4.088  10.172  0.2689  1.5692  0.4481
  280MOL0     C38530   5.566   4.216  10.238 -0.3270  0.4319  0.0662
  280MOL0     C38531   5.722   4.015  10.189 -0.3712  0.1232  0.1755
  280MOL0     C38532   5.836   4.063  10.273  0.7284  1.0452  0.3913
  280MOL0     O38533   5.930   3.977  10.314 -0.1591  0.1345 -0.5793
  280MOL0     C38534   6.048   4.017  10.369 -0.6152  1.2926 -0.5665
  280MOL0     C38535   6.055   4.101  10.481  1.1504 -1.1987  1.1075
  280MOL0     C38536   6.183   4.137  10.529 -0.4128  0.8433 -0.8023
  280MOL0     C38537   6.310   4.083  10.487 -0.3681  0.4647 -0.3046
  280MOL0     O38538   6.440   4.108  10.529 -0.2618 -0.6287 -0.4832
  280MOL0     C38539   6.441   4.160  10.668 -0.8118 -0.4600  0.3432
  280MOL0     C38540   6.574   4.115  10.725  0.2499  0.5095 -0.4862
  280MOL0     C38541   6.591   4.134  10.879 -0.0831 -0.5607  0.3346
  280MOL0     C38542   6.713   4.044  10.922  0.2693  0.1241 -0.0001
  280MOL0     C38543   6.848   4.089  10.866  0.1424  0.1517 -0.3032
  280MOL0     C38544   6.963   4.058  10.957  0.5693 -0.3996 -0.0085
  280MOL0     C38545   6.973   3.903  10.979 -0.0895 -1.2840 -0.2647
  280MOL0     C38546   7.094   3.877  11.069 -0.0326 -0.7658 -0.6509
  280MOL0    Cl38547   7.025   3.895  11.237  0.2695  0.0359  0.3275
  280MOL0     C38548   6.297   3.999  10.377  1.2198  0.3258 -0.0186
  280MOL0     C38549   6.169   3.961  10.323  0.4136  0.0503 -0.4130
  280MOL0     O38550   5.842   4.186  10.280  0.0311  1.4022  0.3210
  280MOL0     C38551   5.728   3.885  10.129 -0.1077  0.0028  0.3205
  280MOL0     C38552   5.631   3.843  10.046  1.0024 -1.0415  0.5891
  280MOL0     N38553   4.901   3.840   9.762 -0.9852 -0.4356 -0.2099
  280MOL0     N38554   4.774   3.811   9.761  0.0956 -0.2057 -0.6247
  280MOL0     C38555   3.608   3.723   9.357 -0.4611 -0.0514 -0.6026
  280MOL0     C38556   3.470   3.768   9.363 -0.2874  0.0608  0.5885
  280MOL0     C38557   3.092   3.990   9.350 -0.1533 -1.0414  0.1355
  280MOL0     C38558   3.094   4.100   9.434  0.5821 -0.2250 -0.2584
  280MOL0     C38559   2.980   4.167   9.484 -0.6390 -0.3372 -0.1335
  280MOL0     C38560   2.859   4.117   9.452  0.5588 -0.5569  0.3179
  280MOL0     O38561   2.732   4.161   9.489 -0.9372 -0.1041  0.1548
  280MOL0     C38562   2.706   4.288   9.551 -0.1989 -0.6581 -0.0626
  280MOL0     C38563   2.738   4.413   9.469  0.3605  0.3053 -0.0071
  280MOL0     C38564   2.614   4.462   9.406  0.3759  0.1349  0.4921
  280MOL0     C38565   2.641   4.607   9.341 -0.5326  0.0732 -0.4758
  280MOL0     C38566   2.521   4.690   9.354  0.3625  0.0701 -0.6067
  280MOL0     C38567   2.421   4.760   9.360  0.5827  0.3575  0.5869
  280MOL0     C38568   2.851   4.015   9.350  0.4832  1.2016  0.0751
  280MOL0     C38569   2.969   3.949   9.300  0.6876 -0.0726 -0.8099
  280MOL0     C38570   2.953   3.838   9.210  0.5882  0.0436 -0.3435
  280MOL0     H38571   3.538   4.090   9.467  1.7271  1.1210 -0.8939
  280MOL0     H38572   3.767   4.001   9.481 -0.3456  0.0629  1.6226
  280MOL0     H38573   3.937   3.878   9.527  1.4729 -0.5332  0.0110
  280MOL0     H38574   3.944   3.919   9.347 -0.9080 -1.0081  0.0220
  280MOL0     H38575   4.085   3.673   9.465  1.8306  0.6128  0.1447
  280MOL0     H38576   4.091   3.728   9.307 -0.5261  0.4796 -0.3453
  280MOL0     H38577   4.270   3.820   9.344  0.5486 -2.7539  1.6346
  280MOL0     H38578   4.205   3.953   9.441 -0.0444  0.5479 -1.0343
  280MOL0     H38579   4.208   3.816   9.651  1.5090 -1.3394  0.3969
  280MOL0     H38580   4.291   3.698   9.566  1.9215 -0.0416  0.0605
  280MOL0     H38581   4.422   3.867   9.704  2.3964  2.0563 -0.5718
  280MOL0     H38582   4.371   3.996   9.584  0.3542 -0.5980 -0.8334
  280MOL0     H38583   4.495   3.905   9.406 -0.8167 -1.8838 -0.8297
  280MOL0     H38584   4.597   3.943   9.538 -0.3878  0.6517  1.4950
  280MOL0     H38585   4.624   3.705   9.406 -3.2240  0.6012 -2.2637
  280MOL0     H38586   4.473   3.663   9.470 -0.6517  2.2684 -2.3517
  280MOL0     H38587   4.553   3.682   9.710  1.4314  0.7578  0.9160
  280MOL0     H38588   4.652   3.563   9.616 -0.4131 -0.8588 -2.1445
  280MOL0     H38589   4.893   3.639   9.509  2.1819 -1.8018  0.7332
  280MOL0     H38590   5.141   3.787   9.527  1.7278  1.5235  0.2311
  280MOL0     H38591   5.159   3.654   9.649  2.4143  1.5570 -1.6685
  280MOL0     H38592   5.140   3.948   9.712 -0.0539 -0.6395  0.5516
  280MOL0     H38593   5.181   3.824   9.827  2.7647 -2.4178  0.1152
  280MOL0     H38594   5.379   3.766   9.669  0.7939  1.0532  0.3511
  280MOL0     H38595   5.350   3.916   9.597  0.0037  0.5891  0.2088
  280MOL0     H38596   5.519   3.961   9.761  0.3586  0.7817  1.6368
  280MOL0     H38597   5.374   4.028   9.840  0.1766 -1.9746  2.7759
  280MOL0     H38598   5.408   4.101  10.077 -0.1456 -0.6900 -0.0485
  280MOL0     H38599   5.600   4.219  10.342 -0.2648  2.3001  0.0305
  280MOL0     H38600   5.459   4.236  10.239 -0.2432  1.3872 -2.4615
  280MOL0     H38601   5.622   4.295  10.187  2.6786 -0.8718  1.1129
  280MOL0     H38602   5.960   4.143  10.513  1.8568  0.2620  1.3383
  280MOL0     H38603   6.184   4.210  10.609 -0.1649 -0.1667  0.1351
  280MOL0     H38604   6.434   4.269  10.665 -0.6490 -0.4494  0.3276
  280MOL0     H38605   6.355   4.127  10.727 -0.6779 -2.1857 -0.3580
  280MOL0     H38606   6.587   4.008  10.705 -0.6633  0.1672  0.6617
  280MOL0     H38607   6.646   4.175  10.669  0.1175  1.3555  0.2405
  280MOL0     H38608   6.502   4.095  10.929  0.0453 -2.6957 -0.9900
  280MOL0     H38609   6.604   4.239  10.908 -1.4150 -0.2066 -0.2535
  280MOL0     H38610   6.699   3.942  10.886 -1.5791 -0.6955  2.7429
  280MOL0     H38611   6.724   4.036  11.031  0.9079  1.8999  0.1045
  280MOL0     H38612   6.864   4.055  10.764 -0.1389  1.0987 -0.6704
  280MOL0     H38613   6.844   4.198  10.870 -2.2712  0.1274 -0.3099
  280MOL0     H38614   6.956   4.121  11.046  2.9872 -0.6467  0.4265
  280MOL0     H38615   7.056   4.094  10.912  0.6509 -2.4567 -1.6122
  280MOL0     H38616   6.986   3.855  10.882 -0.3526  0.0763 -0.9926
  280MOL0     H38617   6.879   3.866  11.020  0.8806 -2.4754  1.0168
  280MOL0     H38618   7.187   3.925  11.038  2.3048 -2.1185  3.5285
  280MOL0     H38619   7.121   3.771  11.061  0.1650 -0.6846 -1.1248
  280MOL0     H38620   6.391   3.967  10.332  1.2946  0.5984 -0.0538
  280MOL0     H38621   6.160   3.879  10.253  1.9411 -1.6664  1.2573
  280MOL0     H38622   5.815   3.821  10.136 -4.0844 -5.9639  4.2074
  280MOL0     H38623   5.648   3.746  10.000  0.4706  1.1542 -4.9443
  280MOL0     H38624   3.630   3.619   9.336 -1.8838 -0.6434  0.6471
  280MOL0     H38625   3.396   3.694   9.338 -1.9603  0.9869  2.5771
  280MOL0     H38626   3.188   4.130   9.479  0.9399 -2.3847  0.5746
  280MOL0     H38627   2.997   4.253   9.547  0.0100 -0.2514 -0.4219
  280MOL0     H38628   2.599   4.296   9.573 -0.1164  0.2380  0.0288
  280MOL0     H38629   2.757   4.296   9.647  0.2496  1.7576 -0.4534
  280MOL0     H38630   2.810   4.395   9.389  0.2416 -0.2040 -0.0018
  280MOL0     H38631   2.781   4.495   9.528 -0.9553  2.3040 -1.6803
  280MOL0     H38632   2.592   4.391   9.326  1.5661  2.0397 -1.6545
  280MOL0     H38633   2.532   4.475   9.477  1.3572  0.3123  1.6226
  280MOL0     H38634   2.659   4.610   9.233  2.3455  0.5540 -0.0914
  280MOL0     H38635   2.722   4.670   9.380 -2.3109  1.8629  0.5367
  280MOL0     H38636   2.345   4.833   9.349  0.4548 -0.0949 -2.5524
  280MOL0     H38637   2.750   3.981   9.332  1.0447 -1.6543  1.7560
  280MOL0     H38638   3.005   3.750   9.248  3.4134  1.4372 -0.7624
  280MOL0     H38639   2.847   3.813   9.195  0.4386  1.8307 -2.8229
  280MOL0     H38640   2.987   3.876   9.113 -0.1349  0.5321 -0.4107
  281MOL0     O38641   2.897   9.151   4.405 -0.6907  0.1177 -0.0818
  281MOL0     C38642   2.847   9.116   4.299 -0.0110 -0.8541  0.7893
  281MOL0     O38643   2.712   9.129   4.277 -0.3140  0.0777 -0.3312
  281MOL0     C38644   2.618   9.136   4.380 -0.2997  0.4751  0.3347
  281MOL0     C38645   2.627   9.091   4.512  0.3123 -0.0481  0.1133
  281MOL0     C38646   2.513   9.112   4.603  0.5592  0.2902 -0.2039
  281MOL0     C38647   2.399   9.173   4.563 -0.0302  0.6208  0.1117
  281MOL0     O38648   2.291   9.184   4.645 -0.5730  0.1249  0.1310
  281MOL0     C38649   2.251   9.325   4.665  0.1322 -0.3381  1.1840
  281MOL0     C38650   2.238   9.366   4.814 -0.0781  0.7798  0.4632
  281MOL0     C38651   2.379   9.380   4.867  0.0559  0.1460  1.0327
  281MOL0     C38652   2.387   9.376   5.025  0.2853  0.2275 -0.3038
  281MOL0     C38653   2.531   9.386   5.079 -0.4556  0.2537  0.0988
  281MOL0     C38654   2.610   9.257   5.044  0.1194 -0.4380  1.1332
  281MOL0     C38655   2.752   9.266   5.115 -0.3620 -0.0793  0.1378
  281MOL0     C38656   2.831   9.137   5.116  0.0876  0.3938 -0.2738
  281MOL0     N38657   2.768   9.029   5.200 -0.3607  0.5197  0.4751
  281MOL0     C38658   2.662   8.950   5.154  0.4897  1.1540 -0.3996
  281MOL0     C38659   2.627   8.873   5.258  0.1604 -0.6018  0.9487
  281MOL0     C38660   2.513   8.764   5.248  0.2900 -0.2954  0.2380
  281MOL0     C38661   2.435   8.735   5.383 -0.7409 -0.6030  0.6195
  281MOL0     C38662   2.329   8.626   5.375  0.0881 -0.3618  0.0706
  281MOL0     C38663   2.394   8.487   5.402 -0.6430 -0.0783 -0.1664
  281MOL0     O38664   2.518   8.464   5.328  0.5258 -0.9832 -0.6840
  281MOL0     C38665   2.632   8.439   5.412  0.5824  0.2640  0.4090
  281MOL0     C38666   2.635   8.335   5.500 -0.1135  0.3593 -0.0632
  281MOL0     C38667   2.743   8.307   5.586 -0.0780  0.0581  0.1951
  281MOL0     C38668   2.740   8.200   5.692  0.1893 -0.0249  0.1540
  281MOL0     C38669   2.859   8.390   5.569 -0.9405 -0.5888  0.4261
  281MOL0     C38670   2.984   8.360   5.639  0.5988 -0.5462 -0.0639
  281MOL0     O38671   3.070   8.465   5.659  0.2351  0.0759 -0.2754
  281MOL0     C38672   3.201   8.446   5.682 -0.8304  0.7592 -0.2680
  281MOL0     C38673   3.263   8.500   5.802 -0.2581 -0.3246 -0.1259
  281MOL0     C38674   3.403   8.475   5.823  1.1491  0.1648  0.9969
  281MOL0     C38675   3.477   8.404   5.729 -0.0687 -0.8057  0.5170
  281MOL0     O38676   3.606   8.380   5.767  0.6574  0.4177 -0.2558
  281MOL0     C38677   3.700   8.485   5.762 -0.1146  0.1128  0.4536
  281MOL0     C38678   3.829   8.428   5.708  0.3701  0.5183 -0.1898
  281MOL0     C38679   3.829   8.359   5.575 -0.5530  0.0698 -0.4640
  281MOL0     C38680   3.970   8.345   5.509 -0.5659  0.3715 -0.6458
  281MOL0     C38681   3.951   8.254   5.393 -0.2566 -0.3614  1.4306
  281MOL0     C38682   4.087   8.238   5.311  0.1381 -0.4440  0.3284
  281MOL0     C38683   4.077   8.156   5.181 -0.0216 -0.3446 -0.1844
  281MOL0     C38684   4.214   8.126   5.120 -0.8537  0.5082 -0.7335
  281MOL0    Cl38685   4.268   8.283   5.046  0.3654  0.1328  0.0272
  281MOL0     C38686   3.411   8.351   5.619 -0.1551  0.5246  0.1185
  281MOL0     C38687   3.275   8.370   5.592 -0.4783  0.4523  0.7649
  281MOL0     O38688   3.012   8.245   5.655 -0.5889  0.2172 -0.1927
  281MOL0     C38689   2.858   8.495   5.476  0.8190 -0.6239 -0.3328
  281MOL0     C38690   2.743   8.524   5.405  0.2980 -0.9912  0.1941
  281MOL0     N38691   2.712   8.894   5.356 -0.4056  0.2811 -0.8692
  281MOL0     N38692   2.797   8.982   5.324  0.3866 -0.6501  0.8314
  281MOL0     C38693   2.384   9.207   4.427 -1.1923 -0.5407  0.2750
  281MOL0     C38694   2.496   9.194   4.341 -0.0779 -0.1956 -0.2531
  281MOL0     C38695   2.933   9.055   4.197  0.3806  1.0252 -0.3958
  281MOL0     C38696   3.055   8.994   4.232 -0.1571  0.9545  0.5041
  281MOL0     C38697   3.140   8.931   4.141  0.1628  0.7168  0.5278
  281MOL0     C38698   3.096   8.915   4.013 -0.5832  0.8667  0.0025
  281MOL0     O38699   3.161   8.843   3.912 -0.0912 -0.1573  0.2109
  281MOL0     C38700   3.289   8.788   3.937 -0.3810  0.0601 -0.7893
  281MOL0     C38701   3.290   8.652   4.003  1.0920  0.1644 -0.8748
  281MOL0     C38702   3.205   8.554   3.917 -0.7408 -0.6024 -0.9469
  281MOL0     C38703   3.248   8.407   3.950 -0.0466  0.0744 -0.2796
  281MOL0     C38704   3.190   8.302   3.867  0.9274  0.4010 -0.4571
  281MOL0     C38705   3.148   8.207   3.800 -0.5603 -0.0991  0.4456
  281MOL0     C38706   2.979   8.968   3.978  0.5375 -1.0865  0.8632
  281MOL0     C38707   2.898   9.038   4.060  1.0689 -0.1124 -0.9604
  281MOL0     C38708   2.773   9.091   4.004  0.3321 -0.4968  0.0108
  281MOL0     H38709   2.717   9.049   4.556  1.9418  0.4530 -2.4720
  281MOL0     H38710   2.516   9.067   4.702  1.7787  0.8692  0.0478
  281MOL0     H38711   2.153   9.338   4.618  0.6726 -1.8235 -0.4628
  281MOL0     H38712   2.320   9.401   4.627 -0.1814  0.4812  2.2057
  281MOL0     H38713   2.203   9.469   4.825 -1.2487  0.2052  2.6447
  281MOL0     H38714   2.179   9.294   4.871 -2.5572  1.1344 -1.4843
  281MOL0     H38715   2.432   9.293   4.826 -0.8606  1.2102 -2.7749
  281MOL0     H38716   2.434   9.470   4.839 -0.7761 -0.2021 -2.0554
  281MOL0     H38717   2.332   9.465   5.055  0.2826 -0.0237  0.4315
  281MOL0     H38718   2.334   9.292   5.071 -0.5961  0.3725 -1.0356
  281MOL0     H38719   2.527   9.417   5.184 -1.3528 -0.7513  0.3742
  281MOL0     H38720   2.579   9.470   5.027  1.9056 -0.2202  1.3831
  281MOL0     H38721   2.546   9.174   5.077 -2.3486  0.7169 -0.4262
  281MOL0     H38722   2.631   9.242   4.937  2.9960  1.1885  1.3587
  281MOL0     H38723   2.728   9.305   5.214 -1.5178 -1.0123  0.2563
  281MOL0     H38724   2.804   9.346   5.062 -1.1562 -1.8556 -3.6790
  281MOL0     H38725   2.835   9.096   5.015  1.1250 -0.9768  0.2712
  281MOL0     H38726   2.933   9.153   5.153 -0.3134  3.1872 -0.1914
  281MOL0     H38727   2.625   8.949   5.052  0.4487  3.8852 -0.5098
  281MOL0     H38728   2.566   8.675   5.211  0.0426  0.3188 -1.7367
  281MOL0     H38729   2.439   8.797   5.174  0.0701  3.5383  1.9661
  281MOL0     H38730   2.517   8.713   5.453  1.6218 -1.1571 -2.1308
  281MOL0     H38731   2.387   8.829   5.414  2.2888  1.2183  0.2383
  281MOL0     H38732   2.249   8.631   5.449 -0.7888 -1.1453 -0.7920
  281MOL0     H38733   2.279   8.632   5.278  1.4687 -1.1528 -0.7341
  281MOL0     H38734   2.397   8.484   5.512 -4.2013  3.5088  0.2464
  281MOL0     H38735   2.320   8.413   5.374 -0.9755  0.2613 -0.1986
  281MOL0     H38736   2.555   8.262   5.494  1.9866 -2.2240  1.0756
  281MOL0     H38737   2.632   8.185   5.706  0.3721 -2.3833 -0.6249
  281MOL0     H38738   2.787   8.227   5.787 -0.3088 -1.0631  0.7046
  281MOL0     H38739   2.784   8.105   5.661 -1.0836 -0.4305 -0.4870
  281MOL0     H38740   3.213   8.568   5.870  0.6590 -0.6321  0.8719
  281MOL0     H38741   3.454   8.507   5.914  1.5216  1.7166  0.2799
  281MOL0     H38742   3.680   8.571   5.698  4.5796  0.4908 -0.8172
  281MOL0     H38743   3.715   8.508   5.868 -1.4004  0.2792  0.6243
  281MOL0     H38744   3.899   8.512   5.700  0.1641  0.8964  1.6202
  281MOL0     H38745   3.867   8.358   5.783  2.1098  2.7365  1.1004
  281MOL0     H38746   3.765   8.418   5.509  0.6411  0.1945 -1.5499
  281MOL0     H38747   3.791   8.258   5.593  1.0503 -0.8366 -1.9717
  281MOL0     H38748   4.041   8.302   5.579 -1.2232  2.0690  1.1522
  281MOL0     H38749   4.001   8.445   5.474  1.9552  0.3173  1.1651
  281MOL0     H38750   3.903   8.158   5.416 -0.4170 -1.5039 -2.8175
  281MOL0     H38751   3.881   8.305   5.326  1.5801  1.2039  0.6102
  281MOL0     H38752   4.164   8.200   5.379 -0.5086  0.8827  1.8923
  281MOL0     H38753   4.125   8.335   5.275  4.2882 -2.4807 -1.4832
  281MOL0     H38754   4.029   8.213   5.101  1.5560 -0.7807 -1.4940
  281MOL0     H38755   4.033   8.057   5.197  0.1137 -1.0740 -3.6252
  281MOL0     H38756   4.216   8.045   5.046  2.4251 -0.1306 -0.0858
  281MOL0     H38757   4.280   8.090   5.199 -2.4983 -1.9155 -0.3407
  281MOL0     H38758   3.466   8.285   5.553 -0.2186 -0.7182  1.2633
  281MOL0     H38759   3.235   8.331   5.499 -1.0938 -0.6129  1.4626
  281MOL0     H38760   2.950   8.551   5.463  0.4637 -0.3559 -1.8574
  281MOL0     H38761   2.739   8.591   5.320  0.8081  0.6263  1.4045
  281MOL0     H38762   2.292   9.249   4.390  0.2447 -0.1696 -3.2251
  281MOL0     H38763   2.493   9.221   4.236 -0.9258  2.7470  0.4192
  281MOL0     H38764   3.089   9.007   4.334  0.1437  1.7245  0.3099
  281MOL0     H38765   3.238   8.895   4.170  0.8887  2.2139 -0.0195
  281MOL0     H38766   3.344   8.780   3.843  0.9692  1.4079 -0.1743
  281MOL0     H38767   3.346   8.856   4.001 -0.9973 -1.2465  1.2584
  281MOL0     H38768   3.245   8.657   4.102 -0.0217  2.8983 -1.4300
  281MOL0     H38769   3.395   8.626   4.015  2.5115  4.3405 -2.5533
  281MOL0     H38770   3.101   8.555   3.951  0.2164 -2.0771  2.5878
  281MOL0     H38771   3.208   8.570   3.809 -1.6647  0.3429 -0.8533
  281MOL0     H38772   3.227   8.375   4.052  1.0626  1.2498  0.3477
  281MOL0     H38773   3.357   8.400   3.937 -0.1206 -0.1454 -0.7973
  281MOL0     H38774   3.102   8.129   3.744  1.0307 -0.8783  0.1624
  281MOL0     H38775   2.952   8.942   3.876 -2.6175 -0.8373  1.5271
  281MOL0     H38776   2.688   9.025   4.021 -0.7995  0.9482  0.1457
  281MOL0     H38777   2.741   9.189   4.039 -1.6195 -0.7378 -1.0016
  281MOL0     H38778   2.786   9.102   3.896 -2.5639  1.2140 -0.2536
  282MOL0     O38779  10.612  10.472   0.219 -0.1050 -0.3226  0.6667
  282MOL0     C38780  10.540  10.376   0.199 -0.0523 -0.8456 -0.6256
  282MOL0     O38781  10.582  10.256   0.170  0.1778 -0.3422  0.3110
  282MOL0     C38782  10.717  10.215   0.143  0.0242 -0.7096  0.4865
  282MOL0     C38783  10.826  10.295   0.112  0.2894 -0.7928 -0.3900
  282MOL0     C38784  10.950  10.242   0.085 -0.0339 -0.2828 -0.2508
  282MOL0     C38785  10.964  10.107   0.075  0.1387  0.3088  0.3652
  282MOL0     O38786  11.084  10.042   0.051  0.6610 -0.3278  0.1582
  282MOL0     C38787  11.197  10.117   0.000 -0.3228 -0.3216  0.0830
  282MOL0     C38788  11.288  10.163   0.106  0.4128  0.0839 -0.1471
  282MOL0     C38789  11.414  10.234   0.053  0.4223  0.0481 -0.3021
  282MOL0     C38790  11.510  10.269   0.165 -0.7670 -0.2935 -0.5888
  282MOL0     C38791  11.662  10.269   0.125  0.3046  0.2551 -0.3692
  282MOL0     C38792  11.761  10.297   0.242  0.1824  0.0098 -0.6391
  282MOL0     C38793  11.909  10.244   0.211 -0.1937 -1.0923 -0.4655
  282MOL0     C38794  11.994  10.340   0.138  0.2978  0.1475  0.4281
  282MOL0     N38795  12.001  10.483   0.185 -0.8494 -0.3896 -0.1020
  282MOL0     C38796  12.086  10.534   0.281 -0.2836  0.2225 -0.2095
  282MOL0     C38797  12.071  10.667   0.269 -0.8689 -0.5799  0.3141
  282MOL0     C38798  12.147  10.779   0.346  0.9090  0.0764 -0.6799
  282MOL0     C38799  12.298  10.771   0.336 -0.7683 -0.0971 -0.7041
  282MOL0     C38800  12.352  10.902   0.387 -0.0613 -0.6558 -0.7308
  282MOL0     C38801  12.499  10.893   0.423 -0.5057  0.1076  0.2867
  282MOL0     O38802  12.540  11.009   0.507  0.0285  0.3537 -0.5857
  282MOL0     C38803  12.669  11.048   0.523  0.4433  0.1853 -0.1089
  282MOL0     C38804  12.693  11.150   0.624  0.1263 -0.2771  0.3241
  282MOL0     C38805  12.822  11.187   0.655 -0.0559  0.0946 -0.3760
  282MOL0     C38806  12.821  11.294   0.766 -0.3018 -0.1852  0.1813
  282MOL0     C38807  12.931  11.129   0.582  0.6241 -0.9212  0.3840
  282MOL0     C38808  13.079  11.171   0.617  0.1809  1.2589  0.4020
  282MOL0     O38809  13.172  11.130   0.528  0.4267 -0.2260  0.3424
  282MOL0     C38810  13.301  11.149   0.562 -0.8090  0.0631 -0.5198
  282MOL0     C38811  13.377  11.049   0.634  0.7540 -0.1701  0.0547
  282MOL0     C38812  13.512  11.064   0.662 -0.5410 -0.3765 -0.0045
  282MOL0     C38813  13.579  11.180   0.626 -0.3239  0.1593 -0.9594
  282MOL0     O38814  13.716  11.179   0.648 -0.5684 -0.6343 -0.5561
  282MOL0     C38815  13.773  11.304   0.694  0.0289 -0.3486  0.3163
  282MOL0     C38816  13.864  11.270   0.814 -0.0247  0.2592 -0.5231
  282MOL0     C38817  13.964  11.386   0.857 -0.0812  0.1275 -0.1385
  282MOL0     C38818  14.033  11.453   0.745  0.7789  0.4361  0.2819
  282MOL0     C38819  14.143  11.545   0.786 -1.7110 -1.3069 -0.3549
  282MOL0     C38820  14.185  11.657   0.696 -0.4682 -0.4234  0.0844
  282MOL0     C38821  14.318  11.713   0.734  0.6361 -0.7052  0.6824
  282MOL0     C38822  14.372  11.812   0.628 -0.1843 -0.3513  0.7136
  282MOL0    Cl38823  14.384  11.728   0.464 -0.0462 -0.1656  0.0353
  282MOL0     C38824  13.509  11.274   0.557 -0.5875  0.4270  0.5636
  282MOL0     C38825  13.372  11.265   0.528  0.3275 -0.3049  0.7235
  282MOL0     O38826  13.099  11.228   0.720 -1.0491  0.7098  0.9131
  282MOL0     C38827  12.906  11.034   0.487  0.3455 -0.4249  0.7770
  282MOL0     C38828  12.776  10.980   0.463  0.3367  0.1288  0.1675
  282MOL0     N38829  11.996  10.696   0.162  1.2707 -0.2063 -0.1504
  282MOL0     N38830  11.939  10.584   0.116 -0.0976 -0.1322 -0.2523
  282MOL0     C38831  10.858  10.029   0.109  0.3981 -0.1987 -0.0868
  282MOL0     C38832  10.729  10.081   0.141  0.3767  0.7024 -0.4116
  282MOL0     C38833  10.394  10.395   0.219  0.2557  0.4363  0.1889
  282MOL0     C38834  10.333  10.300   0.299 -0.1346  0.0950  0.1428
  282MOL0     C38835  10.194  10.308   0.331  0.1630  0.8067  0.5838
  282MOL0     C38836  10.115  10.402   0.266  0.8022  0.2480  0.2401
  282MOL0     O38837   9.981  10.434   0.281  0.3078 -0.5127 -0.0877
  282MOL0     C38838   9.908  10.386   0.400 -0.5178 -0.5971  0.4498
  282MOL0     C38839   9.771  10.442   0.379  0.2843 -0.0327  0.4101
  282MOL0     C38840   9.678  10.341   0.310 -0.5086  0.3971  0.5806
  282MOL0     C38841   9.632  10.238   0.411  0.0698  0.2575  0.3705
  282MOL0     C38842   9.544  10.142   0.341 -0.2126  0.0568  0.1964
  282MOL0     C38843   9.477  10.050   0.287  0.1801  0.5606 -1.0729
  282MOL0     C38844  10.178  10.488   0.172  0.0307  0.5214  0.1792
  282MOL0     C38845  10.312  10.488   0.151 -0.2489  0.4067  0.5244
  282MOL0     C38846  10.373  10.608   0.082 -0.0174  0.5753  0.3223
  282MOL0     H38847  10.819  10.404   0.111  0.0395 -0.8107 -0.7653
  282MOL0     H38848  11.029  10.313   0.062  2.0620 -2.9193 -1.8166
  282MOL0     H38849  11.173  10.204  -0.061  3.3366  2.8705  2.6927
  282MOL0     H38850  11.254  10.047  -0.061 -0.5255 -3.9974  3.6638
  282MOL0     H38851  11.232  10.225   0.176 -0.6709 -2.4613  1.3912
  282MOL0     H38852  11.312  10.075   0.167  0.6945 -0.3252 -0.8360
  282MOL0     H38853  11.472  10.166  -0.010 -0.5951 -0.0239 -1.1890
  282MOL0     H38854  11.416  10.322  -0.012  3.4512 -0.3506 -0.9173
  282MOL0     H38855  11.472  10.361   0.211 -0.0771  0.4392 -1.4563
  282MOL0     H38856  11.505  10.193   0.244 -0.4113 -0.0530 -0.3287
  282MOL0     H38857  11.689  10.341   0.046  0.8029 -0.5087 -0.9166
  282MOL0     H38858  11.677  10.165   0.094 -0.1332 -0.4960  1.8093
  282MOL0     H38859  11.758  10.403   0.270 -0.9089 -0.0382 -0.5255
  282MOL0     H38860  11.737  10.243   0.334  4.2041 -1.1642 -0.0918
  282MOL0     H38861  11.880  10.149   0.164 -3.2046 -1.2483  1.3956
  282MOL0     H38862  11.957  10.220   0.306  2.1848  3.1325 -0.4030
  282MOL0     H38863  12.096  10.302   0.124  1.0050  1.6985  1.2420
  282MOL0     H38864  11.949  10.355   0.039  1.2394  0.7307  0.0810
  282MOL0     H38865  12.144  10.478   0.354 -1.3576  1.3978  1.6073
  282MOL0     H38866  12.117  10.771   0.451 -1.2617  2.0575 -1.0780
  282MOL0     H38867  12.127  10.879   0.309  3.7291  1.9292  2.2567
  282MOL0     H38868  12.338  10.690   0.398  0.6191  0.4338 -0.8912
  282MOL0     H38869  12.330  10.757   0.233  1.0509  1.7948 -0.4497
  282MOL0     H38870  12.336  10.987   0.321  0.3561 -1.3423 -1.7372
  282MOL0     H38871  12.296  10.926   0.478 -0.3471 -4.4733  0.2623
  282MOL0     H38872  12.518  10.796   0.471 -2.4609  0.1722  1.3183
  282MOL0     H38873  12.551  10.886   0.328 -1.3424 -0.1337 -0.1664
  282MOL0     H38874  12.610  11.205   0.668 -0.2864 -1.1660  0.6916
  282MOL0     H38875  12.722  11.299   0.811 -0.2676  1.2412  0.1227
  282MOL0     H38876  12.836  11.397   0.732 -2.4580  0.5330  1.2247
  282MOL0     H38877  12.895  11.274   0.844 -0.3039 -1.5664 -0.1312
  282MOL0     H38878  13.312  10.969   0.667  1.4388 -0.6402  0.2775
  282MOL0     H38879  13.570  10.994   0.721 -2.9571  1.5472  5.2678
  282MOL0     H38880  13.837  11.349   0.617 -2.3010  0.4283 -1.2601
  282MOL0     H38881  13.700  11.381   0.720  1.9367  1.3313  0.9370
  282MOL0     H38882  13.807  11.244   0.903 -1.1219 -1.7023 -1.7218
  282MOL0     H38883  13.926  11.183   0.789 -1.5384 -1.7167  2.1641
  282MOL0     H38884  14.038  11.340   0.922  1.2127 -0.4572 -1.9619
  282MOL0     H38885  13.923  11.467   0.919  3.2390  0.8408  1.3429
  282MOL0     H38886  13.954  11.518   0.706 -0.7783 -2.1591 -1.1247
  282MOL0     H38887  14.065  11.390   0.662 -2.4713 -0.1981 -0.6484
  282MOL0     H38888  14.124  11.598   0.880 -0.0036  2.6822 -2.0127
  282MOL0     H38889  14.236  11.488   0.796 -0.8468  0.2351  0.8057
  282MOL0     H38890  14.110  11.737   0.698  0.4772  0.5295 -1.0944
  282MOL0     H38891  14.201  11.613   0.597  1.5359 -2.7763  1.3592
  282MOL0     H38892  14.388  11.630   0.752 -0.3560 -1.6541  0.3095
  282MOL0     H38893  14.312  11.770   0.827  3.0705  2.3459 -0.8618
  282MOL0     H38894  14.472  11.850   0.652 -0.8529  2.2277 -0.3463
  282MOL0     H38895  14.312  11.903   0.623 -0.0524 -0.3262 -1.2275
  282MOL0     H38896  13.553  11.370   0.532 -3.2285  1.6757  0.2785
  282MOL0     H38897  13.307  11.345   0.494 -0.1619 -0.6285  0.8845
  282MOL0     H38898  12.990  10.991   0.434  0.0044 -0.7682  0.5121
  282MOL0     H38899  12.757  10.894   0.399 -1.3273  1.4615 -1.2121
  282MOL0     H38900  10.868   9.921   0.111 -0.6721 -0.3138 -0.6099
  282MOL0     H38901  10.643  10.015   0.152 -0.2698  1.1585 -2.3333
  282MOL0     H38902  10.392  10.222   0.347  0.5585  0.5943  0.1116
  282MOL0     H38903  10.159  10.258   0.421  1.7383 -0.4985  0.5164
  282MOL0     H38904   9.906  10.277   0.399  0.5087 -0.6413  1.2842
  282MOL0     H38905   9.949  10.424   0.494  1.2858 -1.6954  0.1581
  282MOL0     H38906   9.781  10.534   0.321 -0.6090 -0.1358  0.0744
  282MOL0     H38907   9.721  10.476   0.471  0.5781 -2.2513  1.4582
  282MOL0     H38908   9.592  10.400   0.276 -0.4173  0.8030  1.0457
  282MOL0     H38909   9.714  10.288   0.222 -2.5315  0.8653 -0.5865
  282MOL0     H38910   9.582  10.293   0.491  0.9238 -0.2673  1.2918
  282MOL0     H38911   9.702  10.173   0.466 -2.0743 -0.5223  2.3474
  282MOL0     H38912   9.419   9.967   0.253  1.5982 -1.1301  0.4719
  282MOL0     H38913  10.109  10.552   0.117 -1.3592 -1.5415 -0.5962
  282MOL0     H38914  10.435  10.657   0.158  4.5285 -0.6137 -2.2508
  282MOL0     H38915  10.446  10.580   0.005  0.0843  1.7594 -0.0340
  282MOL0     H38916  10.293  10.665   0.034  0.1562  0.7745  0.2670
  283MOL0     O38917  10.495   7.229   2.294 -0.2710 -0.1814  0.1533
  283MOL0     C38918  10.503   7.181   2.406 -0.0903  0.2601  0.5435
  283MOL0     O38919  10.610   7.188   2.492  0.0045  0.7304 -0.7845
  283MOL0     C38920  10.724   7.246   2.455  0.1647  0.1954  0.0264
  283MOL0     C38921  10.822   7.165   2.417  0.1268 -0.0827  0.5010
  283MOL0     C38922  10.936   7.218   2.356  0.3901 -0.4467  1.0812
  283MOL0     C38923  10.945   7.360   2.329 -1.1950 -0.2914  0.7569
  283MOL0     O38924  11.059   7.415   2.263  0.0178 -0.5495 -0.0976
  283MOL0     C38925  11.178   7.399   2.338 -1.1122 -0.0936  0.7741
  283MOL0     C38926  11.297   7.380   2.240 -0.4053 -0.0121 -0.1812
  283MOL0     C38927  11.354   7.521   2.191  0.0922  0.0748  0.1707
  283MOL0     C38928  11.457   7.488   2.076 -0.1833 -0.6990 -0.1840
  283MOL0     C38929  11.540   7.602   2.026  1.1771 -0.1874 -0.9104
  283MOL0     C38930  11.601   7.569   1.888 -1.1376 -0.8395 -0.3359
  283MOL0     C38931  11.701   7.670   1.829  0.8686  0.2266  0.0189
  283MOL0     C38932  11.790   7.582   1.733 -0.0203  0.2746  0.1992
  283MOL0     N38933  11.916   7.647   1.693 -0.5367 -0.6952 -0.1652
  283MOL0     C38934  11.922   7.765   1.615  0.5472  0.2687 -0.5112
  283MOL0     C38935  12.054   7.793   1.614  0.6338  0.1596 -0.5139
  283MOL0     C38936  12.104   7.919   1.564 -0.2167  0.7575  0.0646
  283MOL0     C38937  12.219   7.974   1.648  0.7628 -0.0791  0.3810
  283MOL0     C38938  12.286   8.095   1.592  0.3328  0.1629 -0.7217
  283MOL0     C38939  12.390   8.077   1.482 -0.3618 -0.2096 -0.0034
  283MOL0     O38940  12.435   8.210   1.440 -0.4357  0.4049  0.4777
  283MOL0     C38941  12.544   8.215   1.360  0.3468 -0.6208  0.3505
  283MOL0     C38942  12.621   8.113   1.319 -0.2706  0.6397  0.0105
  283MOL0     C38943  12.731   8.131   1.229  0.0213  0.4342  0.0498
  283MOL0     C38944  12.805   8.003   1.192 -0.4433  0.4629 -0.0455
  283MOL0     C38945  12.774   8.268   1.200  0.2157 -0.0515 -0.1486
  283MOL0     C38946  12.885   8.307   1.112  1.4820  0.2777 -0.4217
  283MOL0     O38947  12.959   8.213   1.050 -0.2132 -0.3848  0.2140
  283MOL0     C38948  13.088   8.244   1.005 -0.2109  0.3143 -0.4456
  283MOL0     C38949  13.116   8.252   0.868  0.9189  0.4634  0.0890
  283MOL0     C38950  13.249   8.272   0.826 -0.4062  0.1350 -0.2942
  283MOL0     C38951  13.359   8.281   0.913 -0.2586  0.0244  0.6385
  283MOL0     O38952  13.483   8.312   0.861 -0.2779 -0.3406 -0.6183
  283MOL0     C38953  13.583   8.368   0.956  0.0497 -0.6696 -0.3150
  283MOL0     C38954  13.693   8.442   0.884 -0.8448  0.0491  0.7690
  283MOL0     C38955  13.662   8.592   0.857 -0.7053 -0.0738  0.0825
  283MOL0     C38956  13.787   8.679   0.831 -1.0388  0.9558  0.0493
  283MOL0     C38957  13.890   8.633   0.715  0.3632 -0.7840  0.4443
  283MOL0     C38958  13.835   8.653   0.572  0.2931 -1.2318  0.6647
  283MOL0     C38959  13.954   8.646   0.469 -0.0724  0.0624 -0.9646
  283MOL0     C38960  13.894   8.644   0.333  0.5053  0.8406  0.1824
  283MOL0    Cl38961  13.848   8.808   0.284 -0.0883  0.0078 -0.1927
  283MOL0     C38962  13.332   8.261   1.051  0.3858  0.3141 -0.3679
  283MOL0     C38963  13.198   8.254   1.093  0.9131 -0.3165 -0.2517
  283MOL0     O38964  12.909   8.426   1.116  0.2978  0.4073 -0.2366
  283MOL0     C38965  12.691   8.372   1.243 -0.3072  0.1132 -0.4112
  283MOL0     C38966  12.579   8.342   1.322 -0.1919  0.1891  0.1920
  283MOL0     N38967  12.123   7.711   1.704  0.0213  0.2863 -0.4290
  283MOL0     N38968  12.040   7.619   1.747  0.4802  0.2653  0.6974
  283MOL0     C38969  10.842   7.439   2.374  0.9540 -0.8302 -0.1774
  283MOL0     C38970  10.734   7.384   2.440  0.9899  0.2700 -0.8591
  283MOL0     C38971  10.389   7.099   2.455  1.3037 -0.6946  0.9779
  283MOL0     C38972  10.410   7.006   2.552 -0.7065  0.9767  0.4907
  283MOL0     C38973  10.322   6.908   2.581  0.4948 -0.2226  0.5751
  283MOL0     C38974  10.190   6.909   2.530  0.1729  0.6279 -0.1670
  283MOL0     O38975  10.102   6.810   2.573  0.8090  0.2185  0.0067
  283MOL0     C38976   9.962   6.851   2.579 -0.2102  0.7559 -0.2847
  283MOL0     C38977   9.858   6.735   2.605  0.5744  0.4474  0.8375
  283MOL0     C38978   9.859   6.646   2.483 -0.5016  0.9645  0.2501
  283MOL0     C38979   9.788   6.510   2.502 -0.4442  0.1826  0.7762
  283MOL0     C38980   9.876   6.427   2.584  0.2720 -0.5303 -0.1882
  283MOL0     C38981   9.935   6.349   2.649  0.1506  0.2311 -1.2882
  283MOL0     C38982  10.156   7.010   2.444 -1.1301 -1.0198  1.1459
  283MOL0     C38983  10.256   7.101   2.397 -0.9685  0.1849 -0.1082
  283MOL0     C38984  10.204   7.200   2.288 -0.6819 -0.0528 -0.6770
  283MOL0     H38985  10.812   7.060   2.444 -0.1956 -0.6820 -1.7705
  283MOL0     H38986  11.028   7.165   2.335  0.9729  0.3946  1.4297
  283MOL0     H38987  11.171   7.312   2.404 -2.8613 -0.7054 -0.1683
  283MOL0     H38988  11.199   7.478   2.411  2.0192 -3.0378  3.3938
  283MOL0     H38989  11.376   7.331   2.299 -2.2441 -2.8140  0.1260
  283MOL0     H38990  11.268   7.314   2.158 -1.9500  2.4071 -1.7342
  283MOL0     H38991  11.274   7.587   2.158  1.5359  2.7335  1.6361
  283MOL0     H38992  11.409   7.555   2.280 -0.0008 -2.2113  1.1880
  283MOL0     H38993  11.531   7.411   2.101  2.5529  1.9187  0.4765
  283MOL0     H38994  11.403   7.460   1.985  1.7807 -0.3473 -1.5194
  283MOL0     H38995  11.620   7.625   2.097  0.5273 -0.5947 -0.0413
  283MOL0     H38996  11.474   7.690   2.023  0.2215 -0.7149  1.8329
  283MOL0     H38997  11.654   7.473   1.895  0.1018 -0.1429  0.0108
  283MOL0     H38998  11.515   7.559   1.821 -2.7292 -0.6655  1.5881
  283MOL0     H38999  11.772   7.703   1.906  0.8801 -0.2188  0.2012
  283MOL0     H39000  11.643   7.739   1.767 -2.1466 -1.3222  0.8847
  283MOL0     H39001  11.826   7.497   1.791  0.1390  1.2286  1.5315
  283MOL0     H39002  11.729   7.549   1.648 -1.6539  0.6152  1.1781
  283MOL0     H39003  11.838   7.826   1.585  0.5239  0.6608  0.3300
  283MOL0     H39004  12.026   7.993   1.545 -0.2638  1.1028  1.4843
  283MOL0     H39005  12.136   7.886   1.465 -1.6504 -0.2712 -0.0913
  283MOL0     H39006  12.176   7.993   1.747  2.4653 -0.6428  1.2691
  283MOL0     H39007  12.290   7.892   1.656  1.6074  0.4905 -0.9571
  283MOL0     H39008  12.202   8.152   1.551  0.7505  3.3410  2.3733
  283MOL0     H39009  12.334   8.155   1.670  1.2884  3.0560 -3.3030
  283MOL0     H39010  12.475   8.018   1.517 -1.2619 -2.4731 -1.4076
  283MOL0     H39011  12.343   8.020   1.401 -1.5167  2.0216 -0.9893
  283MOL0     H39012  12.586   8.012   1.342 -0.8703  0.8516  0.0405
  283MOL0     H39013  12.892   7.991   1.256 -1.1783 -0.4058  0.8338
  283MOL0     H39014  12.845   8.011   1.090  0.7675  1.0443  0.4601
  283MOL0     H39015  12.737   7.918   1.205 -3.1199  2.4442 -0.1141
  283MOL0     H39016  13.039   8.258   0.792 -0.8493  2.4040  1.8869
  283MOL0     H39017  13.260   8.289   0.719  0.1446 -0.5369 -0.3485
  283MOL0     H39018  13.546   8.439   1.031 -1.0945  2.0136 -3.1933
  283MOL0     H39019  13.636   8.285   1.003  1.2858 -2.3465 -4.2198
  283MOL0     H39020  13.789   8.435   0.936 -0.5025  1.1678  0.3083
  283MOL0     H39021  13.708   8.391   0.788  1.1386  1.0651  0.4819
  283MOL0     H39022  13.609   8.642   0.938  1.4651  0.8347  1.0081
  283MOL0     H39023  13.618   8.599   0.757  3.2613 -0.5164 -1.9000
  283MOL0     H39024  13.848   8.678   0.921  1.5781 -2.6081 -1.4911
  283MOL0     H39025  13.766   8.785   0.812 -2.9334  0.5074 -0.5913
  283MOL0     H39026  13.981   8.687   0.743 -0.6968 -0.6583  4.2290
  283MOL0     H39027  13.919   8.528   0.726  2.2393 -0.6951 -2.5041
  283MOL0     H39028  13.782   8.749   0.565 -0.6032 -1.6338  1.5790
  283MOL0     H39029  13.770   8.572   0.537  0.3097 -1.2604  0.6987
  283MOL0     H39030  14.014   8.557   0.488  0.5024  0.5837 -0.2555
  283MOL0     H39031  14.036   8.713   0.496  0.7964 -2.4628  3.6430
  283MOL0     H39032  13.803   8.584   0.333  2.5112 -2.7250 -3.5083
  283MOL0     H39033  13.968   8.604   0.263 -0.1275 -0.5793  0.2845
  283MOL0     H39034  13.404   8.248   1.131 -1.9473  0.2767  1.8379
  283MOL0     H39035  13.173   8.251   1.199 -0.5801 -2.0147 -0.6304
  283MOL0     H39036  12.701   8.476   1.214  1.7594 -0.7996 -3.4746
  283MOL0     H39037  12.513   8.423   1.352  0.6796  0.6049  1.0281
  283MOL0     H39038  10.845   7.544   2.345  1.1798 -1.2143 -1.6580
  283MOL0     H39039  10.659   7.452   2.476  0.7774  0.7374 -2.1190
  283MOL0     H39040  10.494   7.001   2.620  0.0545 -0.0972 -0.4805
  283MOL0     H39041  10.339   6.826   2.650  0.3362 -0.3674  0.4440
  283MOL0     H39042   9.944   6.914   2.667  1.1338 -0.0614  0.6112
  283MOL0     H39043   9.927   6.898   2.487  2.5712  1.2813 -1.1693
  283MOL0     H39044   9.762   6.783   2.625  0.0426  0.6043 -1.7073
  283MOL0     H39045   9.895   6.669   2.684 -0.0124 -1.5197 -0.4247
  283MOL0     H39046   9.816   6.701   2.399 -3.7612 -1.4798  0.1309
  283MOL0     H39047   9.961   6.615   2.459 -0.9526 -1.3872  1.1030
  283MOL0     H39048   9.777   6.455   2.408  0.7897  0.5865  0.3732
  283MOL0     H39049   9.695   6.520   2.558  0.6626  1.3862  2.4907
  283MOL0     H39050   9.969   6.265   2.706 -2.5950 -2.3321 -3.1401
  283MOL0     H39051  10.058   7.028   2.403 -1.3922  1.7246  2.7061
  283MOL0     H39052  10.250   7.182   2.190 -0.2647  0.3974 -0.5675
  283MOL0     H39053  10.097   7.190   2.270 -0.3619 -2.8419 -1.6038
  283MOL0     H39054  10.221   7.306   2.310 -2.7453  0.5065 -1.5396
  284MOL0     O39055   7.296   6.976   1.601 -0.4594 -0.1506 -0.4502
  284MOL0     C39056   7.311   6.883   1.675 -0.5620  0.2194  0.1740
  284MOL0     O39057   7.423   6.870   1.769  0.1218 -0.2911  0.5341
  284MOL0     C39058   7.493   6.974   1.809  0.1054 -0.6222 -0.5541
  284MOL0     C39059   7.579   7.049   1.724  0.0190  0.6742  0.0599
  284MOL0     C39060   7.661   7.144   1.773 -0.0015 -0.6196 -0.1346
  284MOL0     C39061   7.664   7.174   1.909  0.4120 -0.0251 -0.4988
  284MOL0     O39062   7.750   7.278   1.953  0.0020 -0.0590 -0.5992
  284MOL0     C39063   7.733   7.347   2.071 -0.5354 -0.5989 -0.6578
  284MOL0     C39064   7.830   7.467   2.091 -0.0091  0.4168 -0.5147
  284MOL0     C39065   7.983   7.437   2.069 -0.6633  0.2116 -0.2054
  284MOL0     C39066   8.063   7.567   2.068 -0.9257 -0.0644  0.7876
  284MOL0     C39067   8.214   7.546   2.066  0.1943 -0.6432 -0.0162
  284MOL0     C39068   8.288   7.681   2.048 -0.4206  0.2046 -0.2587
  284MOL0     C39069   8.443   7.655   2.045  0.5757  0.1143 -0.1276
  284MOL0     C39070   8.525   7.785   2.035 -0.0910 -0.5846 -0.5617
  284MOL0     N39071   8.669   7.748   2.006  0.0981  1.1090  0.4540
  284MOL0     C39072   8.727   7.686   1.905  0.6136 -0.2350  0.7268
  284MOL0     C39073   8.861   7.673   1.933 -0.3779  0.3035  0.6690
  284MOL0     C39074   8.962   7.587   1.857  0.1478 -0.0532 -0.5664
  284MOL0     C39075   9.100   7.656   1.846  0.0621  0.0212 -0.3161
  284MOL0     C39076   9.211   7.599   1.928 -0.1659  0.6350  0.8582
  284MOL0     C39077   9.256   7.465   1.874 -0.6269 -0.5880  0.8667
  284MOL0     O39078   9.303   7.475   1.734 -0.1476  0.6123  1.2003
  284MOL0     C39079   9.435   7.507   1.708 -0.1619  0.2662 -0.3230
  284MOL0     C39080   9.477   7.481   1.581 -0.8014  0.6125 -0.2058
  284MOL0     C39081   9.604   7.523   1.526 -0.4179  0.3169 -0.0788
  284MOL0     C39082   9.636   7.503   1.373 -0.1188 -0.6298 -0.1593
  284MOL0     C39083   9.702   7.582   1.618 -0.2187 -0.0339 -0.8022
  284MOL0     C39084   9.839   7.620   1.579  0.1308  0.5444  0.1037
  284MOL0     O39085   9.852   7.654   1.445 -0.7082 -0.4383 -0.0049
  284MOL0     C39086   9.977   7.663   1.385 -0.3961  0.1025  0.4145
  284MOL0     C39087  10.026   7.555   1.311 -0.3772  0.3522  0.4150
  284MOL0     C39088  10.148   7.572   1.234  0.3435 -0.8054  0.4296
  284MOL0     C39089  10.222   7.690   1.241  0.5842 -0.0648 -0.5869
  284MOL0     O39090  10.336   7.708   1.167  0.7340  1.0867 -0.2140
  284MOL0     C39091  10.451   7.767   1.227  0.2103 -0.1692 -0.0787
  284MOL0     C39092  10.570   7.724   1.139 -0.1209  0.9039  0.5021
  284MOL0     C39093  10.697   7.804   1.171 -1.2295  0.0990  0.2123
  284MOL0     C39094  10.813   7.754   1.082 -0.7697 -0.0437  0.0433
  284MOL0     C39095  10.964   7.775   1.125 -0.4089  0.5256 -0.1393
  284MOL0     C39096  11.018   7.916   1.113 -0.1925 -0.3550  0.2362
  284MOL0     C39097  11.167   7.928   1.135  0.5256 -0.0855  0.0675
  284MOL0     C39098  11.221   8.074   1.133  0.2590  0.2106  0.2902
  284MOL0    Cl39099  11.398   8.057   1.109  0.0099 -0.3776 -0.1455
  284MOL0     C39100  10.166   7.800   1.323  0.4875  0.2107  0.2327
  284MOL0     C39101  10.054   7.779   1.392  0.3574 -0.1211 -0.8409
  284MOL0     O39102   9.924   7.640   1.664 -0.3641  0.0057 -0.2760
  284MOL0     C39103   9.657   7.603   1.753 -0.0165 -0.3250  0.5255
  284MOL0     C39104   9.531   7.568   1.793 -0.4822  0.5632 -0.4037
  284MOL0     N39105   8.886   7.739   2.049  0.8699 -0.1201 -0.3998
  284MOL0     N39106   8.769   7.764   2.099 -0.3786  0.2649  0.2198
  284MOL0     C39107   7.582   7.095   1.998 -0.0851  0.2352  0.7308
  284MOL0     C39108   7.492   7.002   1.944  0.7855  0.6546 -0.7277
  284MOL0     C39109   7.211   6.765   1.673 -0.0739 -0.4943 -0.7686
  284MOL0     C39110   7.225   6.672   1.780 -0.9044  0.6288  0.2039
  284MOL0     C39111   7.122   6.571   1.798  0.4092 -0.2569 -1.2825
  284MOL0     C39112   7.027   6.546   1.702 -0.3758  0.0687  0.4178
  284MOL0     O39113   6.937   6.444   1.735 -0.2403  0.5994  0.6276
  284MOL0     C39114   6.858   6.407   1.619  0.5982  0.3264 -0.1303
  284MOL0     C39115   6.773   6.276   1.625 -0.2748  0.6159 -0.2629
  284MOL0     C39116   6.867   6.160   1.670  1.1410 -0.0246  0.1233
  284MOL0     C39117   6.790   6.034   1.700 -0.6418  0.1035  0.2516
  284MOL0     C39118   6.686   6.043   1.801 -0.1740  1.0621 -0.6752
  284MOL0     C39119   6.584   6.057   1.869 -0.1630  0.7375  0.2909
  284MOL0     C39120   7.014   6.641   1.598 -0.4746  0.0089  0.4244
  284MOL0     C39121   7.102   6.752   1.582  0.1586 -0.1802 -1.0682
  284MOL0     C39122   7.066   6.845   1.476 -0.5860 -0.1629  0.5199
  284MOL0     H39123   7.572   7.021   1.620 -1.2974  1.0189  0.0321
  284MOL0     H39124   7.705   7.209   1.698  0.5495  0.1988  0.8630
  284MOL0     H39125   7.745   7.277   2.154  0.0175 -0.3763 -0.5481
  284MOL0     H39126   7.629   7.381   2.077 -0.3782 -0.2851  0.3398
  284MOL0     H39127   7.805   7.548   2.021  5.0794  3.5932  0.7510
  284MOL0     H39128   7.809   7.500   2.193 -1.8181 -0.5144 -0.5507
  284MOL0     H39129   8.004   7.367   2.151  3.7188 -2.3194 -3.1251
  284MOL0     H39130   7.999   7.378   1.978  1.1638 -1.7523  1.2712
  284MOL0     H39131   8.030   7.625   1.981 -2.4008 -1.2515  0.5074
  284MOL0     H39132   8.051   7.620   2.164  0.4716  0.4956  0.6740
  284MOL0     H39133   8.250   7.485   1.983 -3.2355 -1.6962 -0.9076
  284MOL0     H39134   8.238   7.500   2.163 -2.9189 -0.5149  0.9256
  284MOL0     H39135   8.253   7.733   1.959 -1.8077 -0.2158  0.0108
  284MOL0     H39136   8.271   7.747   2.134  2.6552 -0.2056  0.7812
  284MOL0     H39137   8.462   7.595   1.955  1.6007 -0.0967  0.2118
  284MOL0     H39138   8.480   7.597   2.130  1.1313  1.1927  0.3932
  284MOL0     H39139   8.497   7.859   1.959 -1.8866 -0.1267  0.4824
  284MOL0     H39140   8.529   7.829   2.135 -0.4307 -0.7988 -0.4520
  284MOL0     H39141   8.676   7.651   1.816 -0.2212  1.7938  0.3434
  284MOL0     H39142   8.922   7.577   1.755 -0.5925  0.2191 -0.3124
  284MOL0     H39143   8.960   7.488   1.904  0.0547 -1.2149 -2.8542
  284MOL0     H39144   9.141   7.654   1.745 -1.6902 -3.7328 -1.1239
  284MOL0     H39145   9.098   7.762   1.874 -0.5492 -0.6511  2.4798
  284MOL0     H39146   9.295   7.668   1.935 -0.2794  1.6840 -4.2749
  284MOL0     H39147   9.174   7.573   2.028  0.1763  1.6489  1.2530
  284MOL0     H39148   9.340   7.432   1.937  1.9481 -0.5225 -2.2702
  284MOL0     H39149   9.176   7.391   1.877  1.5873 -3.1607  0.2450
  284MOL0     H39150   9.408   7.428   1.516  1.5055 -1.1289 -1.3749
  284MOL0     H39151   9.646   7.601   1.325 -1.7858  1.6744  3.7272
  284MOL0     H39152   9.554   7.446   1.328 -1.2985 -0.6735  1.9403
  284MOL0     H39153   9.732   7.451   1.359  0.0415  0.1798 -2.5489
  284MOL0     H39154   9.975   7.459   1.310  0.2840 -0.0439  1.9770
  284MOL0     H39155  10.178   7.485   1.177 -1.2773 -1.2159  0.1397
  284MOL0     H39156  10.440   7.876   1.229  0.7082 -0.1180 -0.2526
  284MOL0     H39157  10.464   7.737   1.332 -3.7518  2.6049  1.4772
  284MOL0     H39158  10.597   7.621   1.163 -2.1502 -0.2795 -1.8796
  284MOL0     H39159  10.543   7.739   1.034  1.9944  2.5643  0.1328
  284MOL0     H39160  10.734   7.785   1.272 -0.1268  1.9382  0.1929
  284MOL0     H39161  10.684   7.912   1.165  0.8259  0.5011  1.8047
  284MOL0     H39162  10.790   7.793   0.982  0.5121  0.4033 -0.0952
  284MOL0     H39163  10.804   7.645   1.071  0.6483 -0.9060  5.0225
  284MOL0     H39164  10.987   7.731   1.223 -0.2358  0.4084 -0.2317
  284MOL0     H39165  11.026   7.717   1.055  2.6963  3.1404  0.2077
  284MOL0     H39166  10.965   7.978   1.185  2.9515  1.1373  1.4453
  284MOL0     H39167  10.996   7.953   1.013  1.3464  2.7099  0.9113
  284MOL0     H39168  11.215   7.868   1.058  1.2035 -2.3673  2.1078
  284MOL0     H39169  11.190   7.884   1.233 -2.0460 -0.9715  0.3442
  284MOL0     H39170  11.205   8.127   1.227  0.5229  2.5807 -0.9371
  284MOL0     H39171  11.189   8.122   1.040 -0.1525  0.3168  0.4862
  284MOL0     H39172  10.209   7.900   1.317  1.6551 -0.3546 -1.4046
  284MOL0     H39173  10.007   7.853   1.456 -0.2403 -0.1493 -1.2364
  284MOL0     H39174   9.726   7.648   1.824 -0.3824 -0.6181  1.0718
  284MOL0     H39175   9.503   7.591   1.896  0.7379 -0.6104  0.2219
  284MOL0     H39176   7.565   7.112   2.104  0.2180 -2.1211  1.2197
  284MOL0     H39177   7.421   6.940   1.999  2.7116  0.4534  1.7291
  284MOL0     H39178   7.297   6.669   1.861 -0.6743 -1.1992 -0.0232
  284MOL0     H39179   7.123   6.514   1.890 -2.6064 -1.0318 -1.6257
  284MOL0     H39180   6.787   6.484   1.588  0.9051  0.8103  0.3551
  284MOL0     H39181   6.929   6.396   1.537 -0.1415 -2.8074 -0.4898
  284MOL0     H39182   6.739   6.250   1.525  0.2786 -0.8476 -0.0944
  284MOL0     H39183   6.689   6.286   1.695  0.0088  0.2228  0.1414
  284MOL0     H39184   6.931   6.141   1.584 -0.9793 -0.2059 -1.4850
  284MOL0     H39185   6.929   6.179   1.759  2.6896 -4.3400  0.1954
  284MOL0     H39186   6.852   5.947   1.723 -0.8319  0.3322  1.7263
  284MOL0     H39187   6.737   6.022   1.605 -1.1610  2.3926  0.1975
  284MOL0     H39188   6.493   6.063   1.925 -1.9232 -2.4760 -1.9069
  284MOL0     H39189   6.937   6.636   1.522 -2.1101  1.1041  1.9440
  284MOL0     H39190   7.007   6.805   1.393  0.8507 -0.5828 -0.3414
  284MOL0     H39191   7.007   6.925   1.522  0.2869 -0.9095  3.1234
  284MOL0     H39192   7.159   6.883   1.433 -0.2674 -1.5486 -0.0962
  285MOL0     O39193   9.944   4.896   7.469  0.1911 -0.2232  0.6400
  285MOL0     C39194   9.877   4.851   7.378  0.3345 -0.2225 -0.9073
  285MOL0     O39195   9.872   4.726   7.329  0.1410  0.4680 -0.0402
  285MOL0     C39196   9.981   4.639   7.349  0.5386  0.6674  0.1054
  285MOL0     C39197   9.966   4.506   7.307 -0.4571  0.2462  1.2271
  285MOL0     C39198  10.076   4.413   7.302 -1.0142 -0.1378 -0.4999
  285MOL0     C39199  10.202   4.454   7.340  0.2451 -1.1381 -1.0629
  285MOL0     O39200  10.314   4.374   7.339 -0.3273  0.8091  0.2423
  285MOL0     C39201  10.308   4.234   7.305  0.2217  0.4474  0.5611
  285MOL0     C39202  10.295   4.199   7.152  0.6770  0.6566 -0.4004
  285MOL0     C39203  10.428   4.217   7.079 -0.0114  0.5369 -0.0022
  285MOL0     C39204  10.500   4.083   7.055  0.2135 -0.3011  0.3746
  285MOL0     C39205  10.650   4.100   7.019 -0.1115  0.0412 -0.6058
  285MOL0     C39206  10.684   4.225   6.938  1.4197 -0.2078  0.2202
  285MOL0     C39207  10.836   4.229   6.910  0.8821 -0.0213 -0.2070
  285MOL0     C39208  10.879   4.370   6.858  0.5185  0.5729 -0.7130
  285MOL0     N39209  11.023   4.385   6.886  1.2875 -0.0331  1.1202
  285MOL0     C39210  11.076   4.509   6.910 -0.5303  0.2320  0.2063
  285MOL0     C39211  11.212   4.486   6.888  0.4381 -0.4220  0.6701
  285MOL0     C39212  11.323   4.603   6.894  0.0183 -0.0226 -0.1094
  285MOL0     C39213  11.458   4.553   6.847 -0.7305  0.2475  0.5402
  285MOL0     C39214  11.552   4.668   6.812 -0.0793  1.3175  0.6068
  285MOL0     C39215  11.589   4.763   6.925 -0.6370 -0.8699 -0.1258
  285MOL0     O39216  11.661   4.870   6.868  0.7825 -0.9848  0.4585
  285MOL0     C39217  11.800   4.879   6.854 -0.0875 -0.3987 -0.7628
  285MOL0     C39218  11.850   4.995   6.788 -0.1014 -0.0370  0.6795
  285MOL0     C39219  11.984   4.994   6.746 -0.3074  0.0989 -0.7645
  285MOL0     C39220  12.031   5.100   6.650  0.2446  0.0302 -0.4287
  285MOL0     C39221  12.076   4.895   6.799  0.2368  0.1515  0.4018
  285MOL0     C39222  12.228   4.885   6.761 -0.1347  0.4689  0.1174
  285MOL0     O39223  12.278   5.000   6.733 -0.2216 -0.0995  0.9208
  285MOL0     C39224  12.413   5.023   6.707 -0.6040  0.7925  0.2735
  285MOL0     C39225  12.509   5.037   6.804  0.1793  0.2879 -0.4922
  285MOL0     C39226  12.647   5.052   6.776 -0.7030 -0.4113 -0.7323
  285MOL0     C39227  12.683   5.061   6.643 -1.2914  0.4023  0.1711
  285MOL0     O39228  12.818   5.082   6.616 -0.0366 -0.2432  0.0654
  285MOL0     C39229  12.861   5.072   6.484 -0.2825 -0.4667 -0.2526
  285MOL0     C39230  13.014   5.067   6.488  0.0252 -0.2225 -0.4064
  285MOL0     C39231  13.083   5.054   6.356 -0.1068  0.1427 -0.6258
  285MOL0     C39232  13.232   5.011   6.394 -0.2749 -0.1560  0.7266
  285MOL0     C39233  13.297   4.972   6.256  0.9154 -0.4511 -0.2200
  285MOL0     C39234  13.455   4.948   6.270  0.1479 -0.4672  0.1723
  285MOL0     C39235  13.527   4.978   6.138 -0.8599  0.1860  0.8209
  285MOL0     C39236  13.676   4.971   6.140 -0.9817 -0.8342  0.1973
  285MOL0    Cl39237  13.731   5.071   6.000  0.6345 -0.5447  0.2648
  285MOL0     C39238  12.592   5.043   6.537 -0.2626  1.0861  0.3783
  285MOL0     C39239  12.460   5.025   6.575  0.8466 -0.0635 -0.1823
  285MOL0     O39240  12.285   4.772   6.754  0.0779 -0.4557  0.7773
  285MOL0     C39241  12.024   4.793   6.877 -0.1105 -0.1159 -0.1029
  285MOL0     C39242  11.887   4.776   6.896 -0.2833  0.1439 -0.6987
  285MOL0     N39243  11.229   4.358   6.841 -0.1266 -0.2824  0.0916
  285MOL0     N39244  11.117   4.303   6.834  0.3155 -0.2040  0.0407
  285MOL0     C39245  10.220   4.586   7.372  0.3894  0.0796  0.2837
  285MOL0     C39246  10.109   4.670   7.382  0.1458 -0.3514 -0.1142
  285MOL0     C39247   9.793   4.962   7.313 -0.4305  0.3451 -0.7749
  285MOL0     C39248   9.662   4.920   7.267 -1.1044 -0.0629  0.2094
  285MOL0     C39249   9.575   5.010   7.201 -0.9163 -0.3950 -0.1672
  285MOL0     C39250   9.600   5.142   7.196  0.0997 -0.2794  0.7715
  285MOL0     O39251   9.492   5.207   7.149 -0.4179 -0.2703 -0.2221
  285MOL0     C39252   9.507   5.349   7.140  0.4486 -0.0050  0.3583
  285MOL0     C39253   9.380   5.406   7.078 -0.2341 -0.3349 -0.1882
  285MOL0     C39254   9.279   5.434   7.193  0.5075 -0.0660  0.1014
  285MOL0     C39255   9.147   5.478   7.127  0.3873  0.3133 -0.3259
  285MOL0     C39256   9.057   5.361   7.108  0.0543  0.3174  0.3630
  285MOL0     C39257   8.995   5.258   7.103 -0.7187 -0.1528  0.0831
  285MOL0     C39258   9.722   5.186   7.237 -1.3187 -0.2389 -0.2042
  285MOL0     C39259   9.818   5.101   7.296  0.1209  0.8940 -0.2790
  285MOL0     C39260   9.942   5.164   7.338  0.1537 -0.6328  0.5840
  285MOL0     H39261   9.874   4.471   7.260 -0.8113 -0.7746  2.5739
  285MOL0     H39262  10.074   4.314   7.259  5.3492 -0.9052  0.0672
  285MOL0     H39263  10.225   4.194   7.362  0.2101 -1.8024 -0.9179
  285MOL0     H39264  10.404   4.190   7.335  2.4668  2.9821 -2.1047
  285MOL0     H39265  10.253   4.098   7.138 -0.1781  1.0357 -0.6548
  285MOL0     H39266  10.221   4.267   7.109  0.9227  1.5673  0.6005
  285MOL0     H39267  10.414   4.268   6.983  1.3055 -1.2927 -1.2163
  285MOL0     H39268  10.499   4.278   7.135 -0.9322  2.1455 -0.5085
  285MOL0     H39269  10.496   4.012   7.138  0.4097 -1.3264 -0.4714
  285MOL0     H39270  10.446   4.039   6.970 -1.7434 -0.0514  1.4353
  285MOL0     H39271  10.691   4.007   6.979  0.1358 -0.5375  0.9382
  285MOL0     H39272  10.710   4.101   7.111 -0.4574 -2.2164 -0.2956
  285MOL0     H39273  10.627   4.222   6.845 -0.0493 -1.1078  1.1102
  285MOL0     H39274  10.663   4.322   6.984 -0.5469  0.9624 -2.7947
  285MOL0     H39275  10.870   4.155   6.837  0.7404 -1.1390  0.8153
  285MOL0     H39276  10.878   4.213   7.010 -0.4664 -0.1169  0.3791
  285MOL0     H39277  10.852   4.370   6.752  1.0113 -0.7550 -0.8533
  285MOL0     H39278  10.821   4.455   6.895 -2.3734 -1.5130 -0.2235
  285MOL0     H39279  11.015   4.594   6.938 -0.8302 -0.0763  0.5112
  285MOL0     H39280  11.321   4.647   6.995 -0.0573  1.1295 -0.5972
  285MOL0     H39281  11.284   4.676   6.823 -3.4041 -0.6649  0.9059
  285MOL0     H39282  11.500   4.496   6.930 -0.1838  0.8830  0.7170
  285MOL0     H39283  11.446   4.484   6.764 -1.9005 -0.5260  1.3383
  285MOL0     H39284  11.642   4.613   6.783 -0.3316  0.6319  1.1083
  285MOL0     H39285  11.507   4.715   6.724  1.3339 -2.1758 -2.2261
  285MOL0     H39286  11.497   4.798   6.975 -0.6208 -1.1436  0.1018
  285MOL0     H39287  11.645   4.704   6.998 -1.6327 -1.2579  0.3488
  285MOL0     H39288  11.785   5.071   6.746 -0.4345 -2.4205 -3.6833
  285MOL0     H39289  11.946   5.119   6.584  0.1870 -0.2226 -0.4297
  285MOL0     H39290  12.116   5.085   6.583 -0.9897  3.0656 -2.9162
  285MOL0     H39291  12.037   5.182   6.722 -3.0051 -0.4305  0.5283
  285MOL0     H39292  12.475   5.042   6.907  1.4825  1.4978 -0.0861
  285MOL0     H39293  12.730   5.065   6.845  0.4051 -0.7770 -1.9620
  285MOL0     H39294  12.830   4.978   6.436  4.1545 -2.4438  0.2285
  285MOL0     H39295  12.832   5.158   6.424 -0.4879  0.0449  0.5678
  285MOL0     H39296  13.048   5.159   6.535 -1.1606  0.3743 -0.6815
  285MOL0     H39297  13.036   4.981   6.553 -1.0773  0.6938  1.2534
  285MOL0     H39298  13.082   5.155   6.315  0.6585  0.7208  0.7112
  285MOL0     H39299  13.031   4.988   6.286 -1.5899 -2.4513  2.6489
  285MOL0     H39300  13.234   4.926   6.462  0.1389  0.7774  1.9194
  285MOL0     H39301  13.286   5.094   6.441  2.5152 -1.5606  0.2086
  285MOL0     H39302  13.240   4.882   6.233 -2.4656  0.4139  3.5369
  285MOL0     H39303  13.291   5.047   6.176  0.8996  0.7472  0.8718
  285MOL0     H39304  13.480   4.850   6.312  3.3752 -0.0709 -0.5127
  285MOL0     H39305  13.497   5.012   6.348 -1.9620 -0.7488  1.6025
  285MOL0     H39306  13.512   5.082   6.110  2.3369  0.1261 -1.6799
  285MOL0     H39307  13.488   4.918   6.055  2.8682  1.2852 -2.0241
  285MOL0     H39308  13.716   4.870   6.127 -0.3478 -0.4904 -0.6046
  285MOL0     H39309  13.720   5.010   6.233 -0.9310  1.5490 -0.7709
  285MOL0     H39310  12.611   5.035   6.431  2.3144  0.8588  0.7983
  285MOL0     H39311  12.393   5.004   6.493  2.7425 -0.5573 -1.6709
  285MOL0     H39312  12.093   4.721   6.921 -1.1275 -0.9025  0.2701
  285MOL0     H39313  11.843   4.688   6.943  0.3627 -1.0294 -2.1974
  285MOL0     H39314  10.323   4.615   7.393  1.5475 -2.1981 -1.6965
  285MOL0     H39315  10.127   4.773   7.411  0.5590 -0.2965 -0.5440
  285MOL0     H39316   9.633   4.815   7.277  1.0528 -0.6671  0.6872
  285MOL0     H39317   9.481   4.966   7.168 -0.7312 -1.8783  1.1432
  285MOL0     H39318   9.537   5.398   7.234  2.1730 -1.2045  0.4860
  285MOL0     H39319   9.596   5.359   7.077  1.5654  1.0438  2.0113
  285MOL0     H39320   9.330   5.331   7.015 -2.3599  0.7158  0.1336
  285MOL0     H39321   9.394   5.492   7.011 -1.7268 -1.4376 -2.0382
  285MOL0     H39322   9.269   5.346   7.257 -0.7688  0.7234  1.0440
  285MOL0     H39323   9.323   5.509   7.259  0.6099 -0.5703  0.6138
  285MOL0     H39324   9.149   5.532   7.031 -2.0272  3.3280  1.1354
  285MOL0     H39325   9.098   5.558   7.183  2.4543  2.3647 -1.2250
  285MOL0     H39326   8.940   5.167   7.115  0.7877 -1.2711 -1.0098
  285MOL0     H39327   9.747   5.289   7.217  1.9040 -0.8822 -0.0012
  285MOL0     H39328   9.920   5.271   7.338 -3.1574 -1.2026  0.3866
  285MOL0     H39329   9.986   5.128   7.431  4.2818  0.6358 -0.6640
  285MOL0     H39330  10.017   5.152   7.259  1.5988  2.6571  1.2911
  286MOL0     O39331   1.393   6.206   0.370 -0.0950 -0.3880 -0.1614
  286MOL0     C39332   1.497   6.212   0.311 -0.4919 -0.7154 -0.2826
  286MOL0     O39333   1.514   6.189   0.174  0.1662  0.1756  0.1445
  286MOL0     C39334   1.417   6.101   0.116 -0.1792  0.2195  0.5775
  286MOL0     C39335   1.443   5.967   0.131  0.0222  0.1479 -0.0285
  286MOL0     C39336   1.361   5.870   0.061  0.8093 -0.3582  0.3638
  286MOL0     C39337   1.242   5.917  -0.003 -0.5094 -0.7613  0.1371
  286MOL0     O39338   1.156   5.821  -0.058  0.4905  0.2768 -0.0044
  286MOL0     C39339   1.016   5.852  -0.055  0.1691 -0.5488 -0.6581
  286MOL0     C39340   0.935   5.724  -0.069 -0.3034  0.6178 -0.0426
  286MOL0     C39341   0.794   5.746  -0.019 -0.3778 -0.3654  0.7274
  286MOL0     C39342   0.723   5.614  -0.007  0.0660 -0.1948 -0.0834
  286MOL0     C39343   0.589   5.616   0.071 -0.1868 -0.0894 -0.1142
  286MOL0     C39344   0.494   5.699  -0.009  0.3613 -0.5772 -0.4687
  286MOL0     C39345   0.347   5.667   0.021  0.5408  1.0123  0.0383
  286MOL0     C39346   0.280   5.724   0.150 -0.2232 -0.8258  0.4161
  286MOL0     N39347   0.161   5.655   0.204 -0.3586 -0.1288 -0.5483
  286MOL0     C39348   0.047   5.723   0.238 -0.1809 -0.2393  0.7637
  286MOL0     C39349  -0.022   5.625   0.309  0.0660  0.3082 -0.5886
  286MOL0     C39350  -0.149   5.658   0.394  0.3183  0.1350  0.5872
  286MOL0     C39351  -0.157   5.794   0.463  0.0014 -0.3135  0.2754
  286MOL0     C39352  -0.027   5.837   0.541  0.2739 -0.4263 -1.1299
  286MOL0     C39353  -0.044   5.955   0.637  0.6751 -0.9937  0.1309
  286MOL0     O39354   0.068   5.958   0.725 -0.2251 -0.3335 -0.5657
  286MOL0     C39355   0.127   6.073   0.764 -0.3189 -0.4260 -0.4490
  286MOL0     C39356   0.081   6.198   0.729  0.9690 -0.9421 -0.0280
  286MOL0     C39357   0.146   6.313   0.772  0.4619 -0.3132 -0.1626
  286MOL0     C39358   0.074   6.441   0.726 -0.6378  0.1016 -0.0586
  286MOL0     C39359   0.268   6.302   0.855  0.1707 -0.1554  0.1986
  286MOL0     C39360   0.339   6.427   0.895 -0.6285 -0.6489 -0.5466
  286MOL0     O39361   0.416   6.422   1.003  0.2119 -0.1030 -0.1497
  286MOL0     C39362   0.499   6.528   1.032  0.2430 -1.0340 -0.6114
  286MOL0     C39363   0.600   6.579   0.944 -0.1111 -0.5535  0.4595
  286MOL0     C39364   0.663   6.705   0.963 -0.0525  0.6336 -0.9859
  286MOL0     C39365   0.655   6.769   1.083  0.5645  0.1978 -0.2379
  286MOL0     O39366   0.737   6.881   1.108 -0.6941 -0.1080  0.6002
  286MOL0     C39367   0.713   6.967   1.222 -0.1774 -0.2773 -0.0758
  286MOL0     C39368   0.806   7.086   1.212  0.2878 -0.0575 -0.3796
  286MOL0     C39369   0.951   7.044   1.185  0.9813  1.0490  0.1050
  286MOL0     C39370   1.048   7.161   1.214 -1.5331  0.1720  0.4359
  286MOL0     C39371   1.193   7.134   1.167 -0.0675 -0.4235  0.5858
  286MOL0     C39372   1.271   7.259   1.173 -0.0862 -0.2678  0.3896
  286MOL0     C39373   1.413   7.248   1.129  0.0701  0.7165 -0.0060
  286MOL0     C39374   1.468   7.129   1.023 -0.0351 -0.6822 -0.0653
  286MOL0    Cl39375   1.651   7.142   0.994  0.6436 -0.2400 -0.4292
  286MOL0     C39376   0.568   6.717   1.178 -0.4030  0.7951  0.6894
  286MOL0     C39377   0.491   6.600   1.152 -0.1200 -0.1257  0.5382
  286MOL0     O39378   0.312   6.529   0.840  0.1960  0.0197 -0.5197
  286MOL0     C39379   0.311   6.174   0.896  0.0042  0.0773  0.3170
  286MOL0     C39380   0.242   6.062   0.850  0.3536 -0.3311  0.4262
  286MOL0     N39381   0.046   5.505   0.307  0.1876 -0.3850 -0.0552
  286MOL0     N39382   0.150   5.527   0.247  0.4169 -0.0193  0.5655
  286MOL0     C39383   1.216   6.057  -0.010  0.7950 -0.5432 -0.4933
  286MOL0     C39384   1.304   6.146   0.038 -0.5833 -0.0403  0.0407
  286MOL0     C39385   1.611   6.271   0.393  0.1247 -0.4778 -0.3557
  286MOL0     C39386   1.590   6.294   0.533 -0.8146  0.1296  0.5977
  286MOL0     C39387   1.681   6.354   0.618 -1.1215 -0.2543  0.1399
  286MOL0     C39388   1.810   6.383   0.570 -0.8338 -0.3327  0.0033
  286MOL0     O39389   1.914   6.426   0.653  0.3034  0.0117 -0.5765
  286MOL0     C39390   1.891   6.498   0.773  0.4820  0.7207 -0.1430
  286MOL0     C39391   1.843   6.644   0.758  0.7103 -0.6346 -0.3912
  286MOL0     C39392   1.934   6.737   0.667 -0.0239  0.4432 -0.6282
  286MOL0     C39393   1.918   6.884   0.690 -0.3834  0.0048 -0.2176
  286MOL0     C39394   1.999   6.974   0.604  0.6046  0.6108 -0.5018
  286MOL0     C39395   2.064   7.051   0.535 -0.5705 -0.0901 -0.1385
  286MOL0     C39396   1.839   6.353   0.435 -0.4134  0.8758  0.7626
  286MOL0     C39397   1.746   6.294   0.340  0.7205  1.0345  0.6720
  286MOL0     C39398   1.805   6.255   0.206 -0.0426 -0.7740  0.4094
  286MOL0     H39399   1.520   5.932   0.199  1.2477 -0.8658 -1.8496
  286MOL0     H39400   1.383   5.764   0.058  0.7039 -0.3562 -2.0274
  286MOL0     H39401   0.999   5.920  -0.139 -0.6584 -1.9524 -1.6834
  286MOL0     H39402   0.990   5.904   0.038 -2.0131 -1.6140 -0.6185
  286MOL0     H39403   0.932   5.699  -0.175 -2.8878  1.2831 -0.1899
  286MOL0     H39404   0.983   5.643  -0.012  0.9977  1.4720  0.0950
  286MOL0     H39405   0.795   5.791   0.081 -0.4345 -1.7730  1.3872
  286MOL0     H39406   0.743   5.809  -0.093  0.7501  1.6559  1.5881
  286MOL0     H39407   0.707   5.564  -0.103 -0.2903  1.5802 -1.0005
  286MOL0     H39408   0.789   5.559   0.060  2.3223  1.0638 -1.1619
  286MOL0     H39409   0.612   5.661   0.168  2.3090 -1.7161  0.1364
  286MOL0     H39410   0.557   5.514   0.095  1.5293 -0.2697  1.5655
  286MOL0     H39411   0.513   5.807   0.002  0.2940 -0.4812 -1.2362
  286MOL0     H39412   0.534   5.686  -0.110  1.9100  1.6769 -0.2422
  286MOL0     H39413   0.327   5.560   0.028 -0.4654  1.2074  0.3874
  286MOL0     H39414   0.286   5.701  -0.064 -0.0332  0.0705  0.0540
  286MOL0     H39415   0.367   5.720   0.217  0.8040  0.6144 -0.7712
  286MOL0     H39416   0.263   5.832   0.143 -0.5150 -0.8751  0.3716
  286MOL0     H39417   0.029   5.829   0.222  3.0295  0.5743  1.8796
  286MOL0     H39418  -0.142   5.582   0.472  4.3695 -0.5215 -0.1896
  286MOL0     H39419  -0.240   5.641   0.335 -1.8541  4.2592  2.2762
  286MOL0     H39420  -0.177   5.866   0.383 -0.8966  0.3998  1.1189
  286MOL0     H39421  -0.241   5.798   0.532  1.2142 -1.2426  1.8895
  286MOL0     H39422   0.005   5.751   0.601  0.7454  0.0204 -0.7336
  286MOL0     H39423   0.053   5.856   0.468 -1.0371  0.5091 -2.3850
  286MOL0     H39424  -0.054   6.046   0.577  3.3369  2.0500  3.8374
  286MOL0     H39425  -0.137   5.936   0.692  1.2339 -0.2848  1.3652
  286MOL0     H39426  -0.010   6.204   0.671  1.6510 -1.8573 -1.2385
  286MOL0     H39427   0.149   6.503   0.675  1.4122 -2.5238 -0.4444
  286MOL0     H39428   0.032   6.498   0.809  0.6435  1.8584 -0.5581
  286MOL0     H39429  -0.010   6.417   0.660 -1.7926 -0.7739  1.6769
  286MOL0     H39430   0.623   6.522   0.854  2.8608  0.7177  0.3022
  286MOL0     H39431   0.721   6.745   0.880  1.1862  1.1648  0.1074
  286MOL0     H39432   0.612   7.008   1.229 -0.3026 -0.6203  0.1726
  286MOL0     H39433   0.742   6.912   1.312  0.5023 -1.8439 -1.2078
  286MOL0     H39434   0.775   7.161   1.139 -0.0994 -1.3232 -1.5596
  286MOL0     H39435   0.800   7.130   1.312 -0.5437 -0.9541 -0.0169
  286MOL0     H39436   0.957   7.008   1.082  0.0654  0.0478  0.3805
  286MOL0     H39437   0.991   6.959   1.241  2.3484  0.9477 -0.9719
  286MOL0     H39438   1.053   7.188   1.320 -1.0976 -0.5676  0.6145
  286MOL0     H39439   1.012   7.251   1.163  0.2964  0.9287  0.4076
  286MOL0     H39440   1.238   7.050   1.219  0.7732 -1.8610 -2.2369
  286MOL0     H39441   1.188   7.102   1.062  2.4106  0.8715 -0.0109
  286MOL0     H39442   1.270   7.315   1.267  2.0507  2.4424 -1.0225
  286MOL0     H39443   1.224   7.328   1.102 -3.5481 -3.2018 -0.4484
  286MOL0     H39444   1.486   7.245   1.211  0.8946  5.1238 -0.3124
  286MOL0     H39445   1.436   7.338   1.072  0.3037 -0.2388 -1.4720
  286MOL0     H39446   1.434   7.139   0.920  0.9294 -1.2170 -0.4471
  286MOL0     H39447   1.447   7.027   1.056  2.0076 -1.0681  0.1701
  286MOL0     H39448   0.556   6.777   1.268  0.2952 -0.7805  1.8806
  286MOL0     H39449   0.433   6.561   1.235 -0.0281 -1.4618 -0.0030
  286MOL0     H39450   0.400   6.168   0.957  1.4609  0.2714 -1.6607
  286MOL0     H39451   0.258   5.958   0.878  1.6953 -0.0796  0.6602
  286MOL0     H39452   1.130   6.086  -0.070  0.0374 -3.1119 -0.7630
  286MOL0     H39453   1.303   6.254   0.024  1.1626 -0.1907 -1.7092
  286MOL0     H39454   1.501   6.269   0.590  1.0550 -1.1587  3.1000
  286MOL0     H39455   1.648   6.375   0.719  2.1113 -0.3214  1.3145
  286MOL0     H39456   1.815   6.434   0.819 -0.9605 -2.0649 -5.5398
  286MOL0     H39457   1.981   6.499   0.836  0.6332  0.0841 -0.3413
  286MOL0     H39458   1.839   6.697   0.854 -2.1524  1.3968 -1.4808
  286MOL0     H39459   1.743   6.640   0.714  0.7868 -0.7421 -0.5565
  286MOL0     H39460   2.042   6.718   0.677  0.4500  1.2053 -3.5388
  286MOL0     H39461   1.909   6.711   0.564 -1.2461 -0.0819 -0.2192
  286MOL0     H39462   1.941   6.902   0.796 -0.6143 -0.5786 -0.0610
  286MOL0     H39463   1.812   6.902   0.675 -0.3209  0.3450 -0.2467
  286MOL0     H39464   2.124   7.112   0.471 -1.0776  1.5804  0.9257
  286MOL0     H39465   1.942   6.383   0.416 -1.2782  4.0328  0.5041
  286MOL0     H39466   1.777   6.151   0.188  0.0490 -0.3631 -2.6391
  286MOL0     H39467   1.764   6.324   0.132 -0.4719  0.3438  1.6474
  286MOL0     H39468   1.915   6.258   0.211  0.1448 -1.0141 -2.0535
  287MOL0     O39469   2.720  10.415   4.088  0.4381 -1.0853  0.0053
  287MOL0     C39470   2.691  10.474   4.195  0.3073  0.5281 -0.5937
  287MOL0     O39471   2.771  10.491   4.304 -0.4197 -0.6241  0.4873
  287MOL0     C39472   2.904  10.468   4.286 -0.2539 -1.0258 -0.0822
  287MOL0     C39473   2.996  10.576   4.298 -0.0606 -0.3264  0.6145
  287MOL0     C39474   3.135  10.551   4.290  0.4651  0.5582  0.9690
  287MOL0     C39475   3.187  10.417   4.265  0.1545  0.5258  0.0250
  287MOL0     O39476   3.311  10.393   4.237 -0.1889 -0.3575 -0.3154
  287MOL0     C39477   3.415  10.461   4.319 -0.1034  1.0564  0.2993
  287MOL0     C39478   3.430  10.383   4.449 -0.1724 -0.1822 -0.2242
  287MOL0     C39479   3.535  10.431   4.540 -0.3120 -0.3882  0.6560
  287MOL0     C39480   3.571  10.330   4.654  0.3651 -0.1931 -0.0968
  287MOL0     C39481   3.698  10.363   4.736 -0.1321  0.8145 -0.1802
  287MOL0     C39482   3.761  10.242   4.815  0.5894 -0.2458 -0.7100
  287MOL0     C39483   3.900  10.284   4.877  1.0218 -0.3733  0.1558
  287MOL0     C39484   3.955  10.192   4.985 -0.0366  0.4670 -0.4719
  287MOL0     N39485   4.074  10.250   5.059  0.6265  1.2979 -1.1430
  287MOL0     C39486   4.195  10.281   5.009 -0.0164 -0.5535 -0.9144
  287MOL0     C39487   4.274  10.316   5.116 -0.3687  0.0787  0.1189
  287MOL0     C39488   4.409  10.361   5.101 -0.3015  0.3814  0.2277
  287MOL0     C39489   4.500  10.250   5.037 -1.6571 -0.3209  1.0223
  287MOL0     C39490   4.643  10.287   5.066 -0.5826 -0.1230 -0.1373
  287MOL0     C39491   4.682  10.240   5.207 -0.0786  0.5076 -1.0125
  287MOL0     O39492   4.822  10.272   5.234  0.7033  0.2310  0.6912
  287MOL0     C39493   4.876  10.398   5.262  0.1054  0.2209  0.0370
  287MOL0     C39494   4.797  10.518   5.273 -0.3036  0.3550 -0.0153
  287MOL0     C39495   4.845  10.645   5.313 -0.3753 -0.1068  0.7904
  287MOL0     C39496   4.743  10.760   5.323 -0.6432 -0.1501  0.0028
  287MOL0     C39497   4.988  10.656   5.341  0.1666  0.2908 -0.2416
  287MOL0     C39498   5.049  10.780   5.404  0.3904  0.3778 -0.8873
  287MOL0     O39499   5.185  10.782   5.405  0.0004  0.8729 -0.3410
  287MOL0     C39500   5.255  10.877   5.474 -0.0255  0.9949 -0.1741
  287MOL0     C39501   5.229  10.919   5.600 -0.1217 -0.6065 -1.1677
  287MOL0     C39502   5.309  11.019   5.662  0.4236  0.0962  0.1372
  287MOL0     C39503   5.407  11.085   5.592  0.6160 -0.7421  0.0134
  287MOL0     O39504   5.465  11.191   5.652 -0.5120  0.4029 -0.4131
  287MOL0     C39505   5.604  11.203   5.621 -0.0943  0.3383 -0.5833
  287MOL0     C39506   5.661  11.285   5.732 -0.2046 -0.9881 -0.5188
  287MOL0     C39507   5.809  11.291   5.724  1.0021 -0.7289 -0.1948
  287MOL0     C39508   5.867  11.362   5.844 -1.2671 -0.4209  0.1075
  287MOL0     C39509   6.020  11.356   5.824  0.9802  0.3935 -0.0171
  287MOL0     C39510   6.102  11.392   5.943 -0.4658  0.6554  0.4125
  287MOL0     C39511   6.238  11.317   5.938 -0.2399  0.4281  0.7476
  287MOL0     C39512   6.327  11.345   5.812 -0.0878 -0.5519 -0.5388
  287MOL0    Cl39513   6.317  11.523   5.794  0.1158 -0.0014  0.5412
  287MOL0     C39514   5.433  11.032   5.456  0.2346  0.2041 -0.4526
  287MOL0     C39515   5.365  10.928   5.407 -0.1411  0.2074  0.0756
  287MOL0     O39516   4.973  10.867   5.450 -0.4828 -0.3048 -0.3704
  287MOL0     C39517   5.063  10.537   5.317 -0.6394 -0.7055 -0.1748
  287MOL0     C39518   5.009  10.412   5.277 -0.4204  0.4148 -1.1802
  287MOL0     N39519   4.201  10.298   5.229  0.5254  0.6573  0.2473
  287MOL0     N39520   4.083  10.250   5.201  0.2105  0.0110 -0.3916
  287MOL0     C39521   3.090  10.317   4.236 -0.5740 -1.0947  0.3500
  287MOL0     C39522   2.955  10.338   4.249 -0.1627 -0.2540  0.0589
  287MOL0     C39523   2.558  10.548   4.192  0.4782  0.1544 -1.5911
  287MOL0     C39524   2.441  10.468   4.181 -0.0176 -0.3706  0.2250
  287MOL0     C39525   2.316  10.522   4.178  0.3657 -0.3200  0.0580
  287MOL0     C39526   2.304  10.661   4.172 -0.8569  0.2771  0.2997
  287MOL0     O39527   2.186  10.733   4.163  0.9256  0.3941  0.6022
  287MOL0     C39528   2.058  10.663   4.146  0.7373  0.8903 -0.3628
  287MOL0     C39529   2.007  10.590   4.275  0.2092  0.8379 -0.2725
  287MOL0     C39530   1.924  10.471   4.231  0.7520 -0.2928  0.0308
  287MOL0     C39531   1.876  10.388   4.357 -0.6560  0.4453  0.7536
  287MOL0     C39532   1.794  10.273   4.333 -0.9117 -0.0593  0.1791
  287MOL0     C39533   1.721  10.176   4.316 -0.7218 -0.1934 -0.3697
  287MOL0     C39534   2.416  10.741   4.183  0.3995  0.2359  0.7394
  287MOL0     C39535   2.541  10.690   4.183  0.0439 -0.8732  0.0777
  287MOL0     C39536   2.656  10.786   4.188  0.1430 -0.7968  0.0660
  287MOL0     H39537   2.959  10.676   4.317 -0.3854  0.3655 -2.9515
  287MOL0     H39538   3.192  10.642   4.282  0.0432  0.8678  1.4103
  287MOL0     H39539   3.387  10.564   4.342 -1.5178  0.5554  0.9289
  287MOL0     H39540   3.511  10.450   4.267 -1.6879 -4.6948 -2.3070
  287MOL0     H39541   3.340  10.394   4.510  0.5712 -0.6550  0.9994
  287MOL0     H39542   3.445  10.276   4.434  0.7656 -0.3456  1.6199
  287MOL0     H39543   3.627  10.459   4.488 -0.5207  1.3923  1.1632
  287MOL0     H39544   3.509  10.526   4.588 -1.9413 -1.4867  2.0785
  287MOL0     H39545   3.496  10.322   4.733 -0.6426  0.7612 -0.9366
  287MOL0     H39546   3.589  10.228   4.617  1.2635  0.4212 -1.4341
  287MOL0     H39547   3.676  10.446   4.804 -0.0457 -1.5642  2.9473
  287MOL0     H39548   3.770  10.398   4.661  0.8880 -1.2528 -0.2163
  287MOL0     H39549   3.687  10.203   4.886 -0.0333 -1.9706 -2.2323
  287MOL0     H39550   3.775  10.174   4.730  1.0890  0.5179 -1.2588
  287MOL0     H39551   3.897  10.380   4.929 -1.4900  0.0420 -0.6416
  287MOL0     H39552   3.973  10.293   4.796  0.0662 -4.3632 -1.3774
  287MOL0     H39553   3.878  10.182   5.062  1.7214  1.4805  1.5031
  287MOL0     H39554   3.971  10.092   4.943  0.1165  0.3454 -0.1260
  287MOL0     H39555   4.223  10.279   4.904  0.1982  0.4661 -0.8828
  287MOL0     H39556   4.445  10.404   5.195  0.8559  0.6092 -0.3053
  287MOL0     H39557   4.398  10.439   5.025  0.5940  0.0060 -0.2961
  287MOL0     H39558   4.485  10.150   5.080 -0.9242 -0.5203  0.8292
  287MOL0     H39559   4.482  10.251   4.930 -0.4013 -0.1173  0.8015
  287MOL0     H39560   4.704  10.234   4.992 -1.4484 -2.1056  0.4937
  287MOL0     H39561   4.674  10.391   5.053 -1.3174  0.0395 -0.6644
  287MOL0     H39562   4.626  10.287   5.288 -1.0781  0.6878 -1.7935
  287MOL0     H39563   4.672  10.131   5.217 -1.8861  0.8109  1.4244
  287MOL0     H39564   4.690  10.514   5.253 -0.4429 -3.7841  0.6322
  287MOL0     H39565   4.647  10.722   5.287 -0.4703 -1.1349  0.5590
  287MOL0     H39566   4.781  10.841   5.260  0.7010 -0.9470 -0.2434
  287MOL0     H39567   4.726  10.796   5.425  0.1074 -1.0265  0.4501
  287MOL0     H39568   5.142  10.892   5.659  1.0237 -0.3951  0.6738
  287MOL0     H39569   5.273  11.068   5.752 -1.5846  0.9680 -1.0520
  287MOL0     H39570   5.651  11.105   5.608  0.0913  0.0657  1.7507
  287MOL0     H39571   5.604  11.260   5.527  2.3042  0.1373 -0.7556
  287MOL0     H39572   5.610  11.380   5.718  1.0794 -0.0576  0.8371
  287MOL0     H39573   5.635  11.241   5.829 -0.4700 -1.5247 -0.8303
  287MOL0     H39574   5.839  11.353   5.639  2.9337 -2.5289 -0.8916
  287MOL0     H39575   5.843  11.188   5.721  2.5474 -0.2920  1.2976
  287MOL0     H39576   5.844  11.314   5.940  0.3002  0.3295  0.8965
  287MOL0     H39577   5.824  11.463   5.845 -2.7880 -1.0171  2.0483
  287MOL0     H39578   6.051  11.259   5.785 -1.3597  0.9210 -3.7056
  287MOL0     H39579   6.035  11.430   5.744 -1.7598  0.4044 -0.6114
  287MOL0     H39580   6.057  11.355   6.036 -1.2020 -1.7685 -0.8142
  287MOL0     H39581   6.118  11.499   5.952 -1.1936  0.8414 -0.4265
  287MOL0     H39582   6.222  11.209   5.946  0.1112  0.2417 -0.7530
  287MOL0     H39583   6.300  11.335   6.026  2.1140  1.9130 -1.1116
  287MOL0     H39584   6.302  11.296   5.718  1.3475 -0.6534 -0.8907
  287MOL0     H39585   6.426  11.314   5.847  1.0250  2.1629 -1.0175
  287MOL0     H39586   5.514  11.064   5.390 -1.3276  0.7206 -2.1948
  287MOL0     H39587   5.394  10.893   5.308 -1.6744 -0.5087 -0.1526
  287MOL0     H39588   5.167  10.541   5.348 -0.6985  0.7188 -0.0970
  287MOL0     H39589   5.072  10.326   5.256  4.4576  2.4127  2.9607
  287MOL0     H39590   3.123  10.226   4.186  1.2469  0.2734 -1.0387
  287MOL0     H39591   2.878  10.264   4.232  0.1595 -1.2553  2.5502
  287MOL0     H39592   2.454  10.361   4.164 -0.5921 -0.3464 -0.4351
  287MOL0     H39593   2.237  10.448   4.172 -1.5440  1.5384  0.8712
  287MOL0     H39594   1.980  10.737   4.125  0.9485  1.0261 -0.6744
  287MOL0     H39595   2.057  10.592   4.063 -0.0013  0.0023  0.3847
  287MOL0     H39596   1.945  10.648   4.344 -1.0431 -2.9049  2.0650
  287MOL0     H39597   2.090  10.554   4.337 -1.6949 -2.1381  0.7741
  287MOL0     H39598   1.841  10.516   4.174 -1.5408 -2.1752  1.6569
  287MOL0     H39599   1.971  10.408   4.155  1.4532  0.0577  0.1743
  287MOL0     H39600   1.813  10.447   4.425 -1.6848  0.5249 -0.2297
  287MOL0     H39601   1.970  10.371   4.410 -1.2408 -0.8593  1.4197
  287MOL0     H39602   1.635  10.114   4.307 -0.0156 -1.4408  1.0479
  287MOL0     H39603   2.397  10.848   4.191 -0.4150  0.2904 -1.4025
  287MOL0     H39604   2.689  10.809   4.290 -2.5963  2.3903  0.4136
  287MOL0     H39605   2.743  10.755   4.131  1.7433  2.6513  0.3585
  287MOL0     H39606   2.630  10.884   4.147  1.2581 -0.4365  0.2106
  288MOL0     O39607   2.315   0.602   0.921 -0.0514  0.1834 -0.1292
  288MOL0     C39608   2.309   0.490   0.862 -0.1230 -0.3976  0.2771
  288MOL0     O39609   2.382   0.456   0.754  0.1087 -0.9332 -0.4142
  288MOL0     C39610   2.483   0.549   0.720 -0.4229 -0.6569  0.0857
  288MOL0     C39611   2.593   0.570   0.798 -0.9738 -0.3468 -0.2786
  288MOL0     C39612   2.701   0.654   0.754 -0.2804  0.0314  0.0528
  288MOL0     C39613   2.690   0.717   0.633 -0.4181 -0.8500  0.0115
  288MOL0     O39614   2.812   0.780   0.602  0.7554  0.0030 -0.2874
  288MOL0     C39615   2.821   0.841   0.474  0.3622  0.1085  0.2977
  288MOL0     C39616   2.932   0.958   0.477  0.4033  0.1174  0.1174
  288MOL0     C39617   3.074   0.897   0.502  0.1304  0.0347 -0.5086
  288MOL0     C39618   3.120   0.829   0.377  0.2647  0.6921  0.3888
  288MOL0     C39619   3.252   0.767   0.415  0.5051  0.0098  0.3808
  288MOL0     C39620   3.367   0.866   0.429  0.3085  0.7191 -0.5586
  288MOL0     C39621   3.411   0.939   0.303 -0.3075  0.3454  1.1970
  288MOL0     C39622   3.520   1.033   0.339  0.6413 -0.0773 -0.1780
  288MOL0     N39623   3.570   1.097   0.208  0.1180  0.2583  0.4524
  288MOL0     C39624   3.584   1.030   0.091 -0.0412 -0.5147 -0.1491
  288MOL0     C39625   3.643   1.115   0.007  0.0880  0.1462  0.9269
  288MOL0     C39626   3.675   1.076  -0.133  0.0100  0.0888  0.2836
  288MOL0     C39627   3.680   1.199  -0.227 -0.1707 -0.4433 -0.0319
  288MOL0     C39628   3.827   1.246  -0.252  0.0287 -0.2310 -0.6062
  288MOL0     C39629   3.815   1.369  -0.346  0.1775 -0.2105  0.1562
  288MOL0     O39630   3.766   1.327  -0.477  0.6480  0.6494 -0.2794
  288MOL0     C39631   3.664   1.392  -0.527  0.0099 -0.6082 -0.2493
  288MOL0     C39632   3.556   1.312  -0.576  0.3711  0.2179 -0.2863
  288MOL0     C39633   3.446   1.379  -0.628  0.2076 -0.8235 -0.5435
  288MOL0     C39634   3.335   1.289  -0.669  0.4205 -0.3299 -0.1023
  288MOL0     C39635   3.438   1.519  -0.638  0.6415 -0.1882  0.6622
  288MOL0     C39636   3.312   1.576  -0.690  0.6403  0.3512 -0.1083
  288MOL0     O39637   3.338   1.690  -0.764 -0.3220 -0.4660  0.6147
  288MOL0     C39638   3.232   1.759  -0.829 -0.0062  0.2139  0.7287
  288MOL0     C39639   3.235   1.894  -0.845  0.0066  0.6494 -0.4869
  288MOL0     C39640   3.150   1.972  -0.917  0.5050 -0.1800  0.1738
  288MOL0     C39641   3.051   1.908  -1.003  0.0078  0.1941 -0.3431
  288MOL0     O39642   2.964   1.966  -1.084  0.0530 -0.8406 -0.0696
  288MOL0     C39643   2.974   2.111  -1.107  0.2223  0.7370 -0.9804
  288MOL0     C39644   2.907   2.181  -0.983 -0.1059  0.2554 -0.2535
  288MOL0     C39645   2.915   2.340  -0.997 -0.2805 -0.0519  0.5172
  288MOL0     C39646   2.844   2.435  -0.896 -0.3768  0.2620  0.7858
  288MOL0     C39647   2.689   2.432  -0.918  0.3350 -0.3713  0.5985
  288MOL0     C39648   2.660   2.531  -1.031 -1.3844 -0.3299 -0.6456
  288MOL0     C39649   2.511   2.579  -1.032  0.9027  1.2345 -0.3284
  288MOL0     C39650   2.476   2.702  -1.121  0.2173 -1.0882  0.3891
  288MOL0    Cl39651   2.517   2.656  -1.286 -0.2359  0.3923  0.1398
  288MOL0     C39652   3.053   1.768  -1.000  0.0800  0.2683  0.0618
  288MOL0     C39653   3.128   1.692  -0.904 -0.7809  0.7427  0.3272
  288MOL0     O39654   3.198   1.536  -0.664  0.1842 -0.0912  0.0510
  288MOL0     C39655   3.544   1.596  -0.598  0.4387 -0.1325 -0.0226
  288MOL0     C39656   3.651   1.530  -0.539 -0.2894  0.1917  0.2008
  288MOL0     N39657   3.666   1.228   0.078 -0.2945 -0.8438  0.1596
  288MOL0     N39658   3.623   1.218   0.198 -0.2579  0.0652  0.0889
  288MOL0     C39659   2.578   0.705   0.552  0.1887  0.0163 -0.2334
  288MOL0     C39660   2.478   0.619   0.601  0.0357  0.5538 -0.1282
  288MOL0     C39661   2.196   0.400   0.895  0.5111 -0.1478 -0.1917
  288MOL0     C39662   2.136   0.319   0.798 -0.0239  0.6096 -0.1440
  288MOL0     C39663   2.056   0.212   0.824  0.3551  0.0211 -0.0483
  288MOL0     C39664   2.013   0.188   0.950  0.9074 -0.0280 -0.3262
  288MOL0     O39665   1.931   0.079   0.981 -0.6426  0.2081 -0.3585
  288MOL0     C39666   1.928  -0.033   0.903  0.1998  0.0663  0.2662
  288MOL0     C39667   2.046  -0.121   0.944  0.0567  0.3795 -0.3208
  288MOL0     C39668   2.026  -0.172   1.087 -0.4739  0.3130  0.0327
  288MOL0     C39669   2.139  -0.273   1.124 -0.0551 -0.3507  0.0245
  288MOL0     C39670   2.128  -0.313   1.263 -0.2545  0.3818 -0.5238
  288MOL0     C39671   2.130  -0.344   1.384 -0.4490  0.5571  0.5115
  288MOL0     C39672   2.059   0.274   1.055  0.7680 -0.1349 -0.0552
  288MOL0     C39673   2.145   0.382   1.025 -0.1217 -0.0746  0.0042
  288MOL0     C39674   2.201   0.447   1.152  0.3320  1.2586  0.4638
  288MOL0     H39675   2.607   0.494   0.874  0.4859 -1.3820 -1.5029
  288MOL0     H39676   2.795   0.673   0.804  1.0393 -3.4480 -0.8496
  288MOL0     H39677   2.730   0.890   0.436  0.4109  2.1128  2.5129
  288MOL0     H39678   2.849   0.766   0.399  0.3811  0.2847  0.1271
  288MOL0     H39679   2.922   1.006   0.379  2.2475  1.8619  0.7064
  288MOL0     H39680   2.897   1.025   0.555  0.5005 -0.5240  0.7206
  288MOL0     H39681   3.148   0.965   0.547  0.4373 -0.2712 -0.5441
  288MOL0     H39682   3.060   0.826   0.585  5.3063  0.5543  1.1838
  288MOL0     H39683   3.053   0.748   0.346  1.9399 -0.5590 -0.1174
  288MOL0     H39684   3.127   0.890   0.287  0.6183  0.5667  0.3281
  288MOL0     H39685   3.282   0.706   0.329  2.7499  1.2024  0.2274
  288MOL0     H39686   3.244   0.699   0.500 -0.5937  0.1443  0.3938
  288MOL0     H39687   3.336   0.935   0.508 -0.4894 -0.3283  0.0800
  288MOL0     H39688   3.460   0.818   0.460  0.3686  0.1874 -1.5153
  288MOL0     H39689   3.332   0.998   0.255  0.6149  1.3184  0.8123
  288MOL0     H39690   3.448   0.871   0.226  2.2070  1.9936  0.8142
  288MOL0     H39691   3.476   1.107   0.407 -1.6560 -1.1853 -0.3895
  288MOL0     H39692   3.601   0.979   0.388  1.2187 -0.4348 -1.4787
  288MOL0     H39693   3.552   0.930   0.062  1.2839 -0.7693 -0.8165
  288MOL0     H39694   3.590   1.015  -0.166 -0.1528  0.4519  0.0257
  288MOL0     H39695   3.764   1.014  -0.148  0.6069  1.3693 -1.9057
  288MOL0     H39696   3.618   1.177  -0.314 -2.0370  0.9863  0.8601
  288MOL0     H39697   3.629   1.281  -0.176 -1.4763 -1.0749 -0.2889
  288MOL0     H39698   3.885   1.274  -0.163 -0.4027  1.3179 -0.7842
  288MOL0     H39699   3.886   1.179  -0.315 -0.3644  2.0376 -3.6055
  288MOL0     H39700   3.764   1.456  -0.301 -0.9416 -0.8136  0.0971
  288MOL0     H39701   3.914   1.415  -0.354 -0.4834  1.6840  1.8008
  288MOL0     H39702   3.550   1.204  -0.565  1.7125  0.2787  1.2500
  288MOL0     H39703   3.272   1.278  -0.581  0.2884 -0.5828 -0.2294
  288MOL0     H39704   3.372   1.189  -0.695 -0.6033 -0.6569 -0.3405
  288MOL0     H39705   3.272   1.318  -0.753  0.9023 -1.4322 -0.8719
  288MOL0     H39706   3.300   1.948  -0.778 -0.7758 -0.4701  1.2588
  288MOL0     H39707   3.159   2.080  -0.910  1.1428 -0.2847  1.0270
  288MOL0     H39708   3.070   2.155  -1.136  0.4955  1.0194  0.2862
  288MOL0     H39709   2.910   2.135  -1.193 -0.1155 -0.0563 -0.9621
  288MOL0     H39710   2.803   2.153  -0.965  0.4046 -0.7741  1.2795
  288MOL0     H39711   2.963   2.160  -0.891  1.1814  0.8759 -0.8717
  288MOL0     H39712   2.873   2.360  -1.096 -0.6774  1.5832  0.9704
  288MOL0     H39713   3.018   2.375  -0.987 -0.5315  0.4309  1.5925
  288MOL0     H39714   2.887   2.532  -0.923  0.0035  0.3504  1.7010
  288MOL0     H39715   2.868   2.412  -0.792 -4.1564  2.0892  2.2584
  288MOL0     H39716   2.641   2.337  -0.940 -1.7091  0.8524 -0.4813
  288MOL0     H39717   2.639   2.474  -0.830 -0.7531 -1.5337  0.5592
  288MOL0     H39718   2.691   2.492  -1.129  0.4912  0.1451 -0.2833
  288MOL0     H39719   2.721   2.619  -1.008 -2.2489 -0.4498  2.6163
  288MOL0     H39720   2.472   2.611  -0.935 -0.7490  3.5664 -1.6465
  288MOL0     H39721   2.457   2.493  -1.072  2.1438  0.1066  0.3500
  288MOL0     H39722   2.528   2.791  -1.084  2.4966 -2.0899 -0.2245
  288MOL0     H39723   2.370   2.721  -1.099  0.1052 -1.7029  0.3833
  288MOL0     H39724   2.980   1.716  -1.062  1.3262 -0.0254 -1.1925
  288MOL0     H39725   3.109   1.585  -0.893 -0.9827  0.7096 -0.2952
  288MOL0     H39726   3.543   1.703  -0.610  1.4566  0.0814  1.5131
  288MOL0     H39727   3.750   1.568  -0.517  0.9933 -3.3870  1.3948
  288MOL0     H39728   2.571   0.742   0.450  3.0264  1.0754 -0.1222
  288MOL0     H39729   2.389   0.608   0.541  0.5795 -0.8902 -0.7214
  288MOL0     H39730   2.184   0.335   0.702  0.6168 -0.6624 -0.0611
  288MOL0     H39731   2.031   0.154   0.735 -1.5656  3.5651 -2.0299
  288MOL0     H39732   1.833  -0.082   0.924 -1.5192  2.6798 -0.8767
  288MOL0     H39733   1.922  -0.016   0.795  0.8860 -0.7408  0.0878
  288MOL0     H39734   2.140  -0.066   0.945  0.8318 -0.9138  1.1789
  288MOL0     H39735   2.046  -0.205   0.875 -2.6840 -0.5776  0.6814
  288MOL0     H39736   2.036  -0.086   1.154 -0.4893  1.8595 -1.8626
  288MOL0     H39737   1.933  -0.230   1.087 -0.5728  0.3877 -2.5960
  288MOL0     H39738   2.244  -0.243   1.112  0.5398 -0.8205  3.1527
  288MOL0     H39739   2.116  -0.364   1.068 -1.6259  1.5209 -2.5602
  288MOL0     H39740   2.123  -0.372   1.487 -0.9868 -0.7473  0.1354
  288MOL0     H39741   2.029   0.251   1.157  1.3695 -0.2209  0.1033
  288MOL0     H39742   2.206   0.556   1.141 -1.3924  1.1124 -4.4398
  288MOL0     H39743   2.137   0.425   1.238 -0.5405  0.5046 -0.3417
  288MOL0     H39744   2.301   0.407   1.170 -0.1599 -1.3620 -1.8956
  289MOL0     O39745  10.063   0.022   9.227  0.5663 -0.8303  0.3128
  289MOL0     C39746  10.042   0.073   9.114  0.5787 -0.2901 -0.5001
  289MOL0     O39747  10.131   0.110   9.027 -0.1770 -1.0097 -0.0761
  289MOL0     C39748  10.263   0.087   9.049 -0.7923 -0.6100  0.3906
  289MOL0     C39749  10.330  -0.031   9.013 -1.0537 -0.0708  0.0785
  289MOL0     C39750  10.470  -0.042   9.029 -0.6887 -0.3483  0.7986
  289MOL0     C39751  10.540   0.073   9.064 -0.8808  0.3161 -0.0224
  289MOL0     O39752  10.679   0.059   9.072 -0.1146 -0.2218  0.2540
  289MOL0     C39753  10.738   0.101   9.198  0.2938 -0.3413  0.8223
  289MOL0     C39754  10.867   0.181   9.167 -0.6593 -0.1858 -0.2085
  289MOL0     C39755  10.836   0.335   9.165 -0.0662  0.0920  0.9849
  289MOL0     C39756  10.960   0.411   9.123 -0.1932 -0.5630 -0.6345
  289MOL0     C39757  10.939   0.564   9.092  0.0357  0.2746  0.1607
  289MOL0     C39758  10.992   0.656   9.206  0.1938  0.3423  0.6318
  289MOL0     C39759  10.969   0.808   9.155  0.3370 -0.1481 -0.1763
  289MOL0     C39760  10.953   0.905   9.270 -0.0243 -0.8665 -0.7077
  289MOL0     N39761  11.068   0.896   9.361  0.3980 -0.0431 -0.5821
  289MOL0     C39762  11.194   0.928   9.323 -0.4297 -1.2101 -0.1263
  289MOL0     C39763  11.269   0.928   9.433  0.0781  1.0368  0.3918
  289MOL0     C39764  11.410   0.967   9.443  0.4810 -0.5180 -0.1031
  289MOL0     C39765  11.493   0.841   9.425  0.6738 -0.7442  0.5815
  289MOL0     C39766  11.544   0.786   9.555  0.0678 -0.9228  0.0121
  289MOL0     C39767  11.641   0.873   9.644  0.1148  0.3249  1.0432
  289MOL0     O39768  11.746   0.816   9.728 -0.1285 -0.2374  0.3135
  289MOL0     C39769  11.867   0.803   9.674 -0.7182  0.0946 -0.3458
  289MOL0     C39770  11.894   0.798   9.541  0.3869  0.2487 -0.4548
  289MOL0     C39771  12.020   0.782   9.491 -0.1802 -0.3978 -0.1870
  289MOL0     C39772  12.020   0.793   9.340 -0.5342  0.2586  0.7918
  289MOL0     C39773  12.137   0.763   9.575 -0.0658  0.3138  1.2107
  289MOL0     C39774  12.274   0.742   9.523 -0.4114 -0.4642  0.9046
  289MOL0     O39775  12.378   0.770   9.615  0.8773  0.1170 -0.2148
  289MOL0     C39776  12.506   0.731   9.585 -0.3008  0.1679  0.8614
  289MOL0     C39777  12.551   0.598   9.614  0.2920 -0.9539 -0.2455
  289MOL0     C39778  12.679   0.554   9.585 -0.7124  0.2920 -0.0203
  289MOL0     C39779  12.772   0.646   9.527 -0.1639  0.2854  0.2911
  289MOL0     O39780  12.903   0.617   9.500 -0.0094  0.4848 -0.1316
  289MOL0     C39781  12.982   0.548   9.599  0.3236  0.4040  0.4835
  289MOL0     C39782  13.035   0.648   9.698  0.2343  0.1082  0.1422
  289MOL0     C39783  13.097   0.580   9.828  0.2691  0.0547  0.1909
  289MOL0     C39784  13.202   0.465   9.813  0.5436  0.7991  0.0342
  289MOL0     C39785  13.323   0.507   9.742 -0.3910 -0.2369  0.1718
  289MOL0     C39786  13.435   0.399   9.753 -0.2099 -0.4618 -0.1438
  289MOL0     C39787  13.524   0.430   9.636 -0.1545  0.0521  0.6088
  289MOL0     C39788  13.648   0.347   9.640  0.3859  0.4058  0.2713
  289MOL0    Cl39789  13.751   0.384   9.784 -0.2554 -0.5398 -0.2029
  289MOL0     C39790  12.722   0.775   9.491 -1.0224  0.0953 -0.1369
  289MOL0     C39791  12.594   0.821   9.524 -0.1226  0.8351 -0.7013
  289MOL0     O39792  12.295   0.682   9.416 -0.0606 -0.4722 -0.0783
  289MOL0     C39793  12.110   0.762   9.714  0.4789 -0.3068 -0.0866
  289MOL0     C39794  11.975   0.764   9.760 -0.3961  0.4475 -0.2848
  289MOL0     N39795  11.187   0.887   9.541  0.5153 -0.2570  0.0122
  289MOL0     N39796  11.073   0.864   9.491  0.7391  0.1405  0.5341
  289MOL0     C39797  10.478   0.194   9.099  0.6939  0.0716  0.1738
  289MOL0     C39798  10.341   0.199   9.095  1.1491 -0.1855 -0.4601
  289MOL0     C39799   9.901   0.094   9.066 -0.1869 -0.3535  0.0603
  289MOL0     C39800   9.877   0.147   8.937 -0.0616 -0.2873 -0.0640
  289MOL0     C39801   9.751   0.165   8.885  0.3446  0.6754 -0.4892
  289MOL0     C39802   9.643   0.130   8.973 -0.1579 -0.8448 -0.5329
  289MOL0     O39803   9.514   0.149   8.936 -0.4627  0.3051  0.6459
  289MOL0     C39804   9.483   0.053   8.832 -0.5067  0.1977 -0.1309
  289MOL0     C39805   9.421   0.127   8.728  0.6018 -0.1730  0.1790
  289MOL0     C39806   9.299   0.202   8.784  0.1856 -0.0312 -0.1188
  289MOL0     C39807   9.207   0.219   8.667 -0.0805 -0.8040  0.7695
  289MOL0     C39808   9.100   0.315   8.695 -0.3373 -0.7444  0.3260
  289MOL0     C39809   9.018   0.396   8.728  0.6845 -0.2053  1.2163
  289MOL0     C39810   9.664   0.076   9.094  0.4379 -0.0440 -0.8581
  289MOL0     C39811   9.788   0.049   9.139 -0.4825 -0.1062 -0.1273
  289MOL0     C39812   9.802  -0.031   9.272  0.3980 -0.2205  0.0792
  289MOL0     H39813  10.279  -0.118   8.975  1.1929 -0.7787 -1.5039
  289MOL0     H39814  10.519  -0.131   8.992 -2.7335 -0.9249 -0.7354
  289MOL0     H39815  10.766   0.017   9.262  0.4998 -1.5654 -0.8220
  289MOL0     H39816  10.688   0.172   9.264  0.6041 -0.5767  1.3138
  289MOL0     H39817  10.928   0.152   9.253 -0.1878  1.0081 -0.1203
  289MOL0     H39818  10.912   0.147   9.073 -1.9313 -1.4300 -0.4032
  289MOL0     H39819  10.758   0.351   9.090 -0.5142 -1.7252  1.0273
  289MOL0     H39820  10.807   0.383   9.259  0.7850  3.3189 -0.2577
  289MOL0     H39821  11.022   0.398   9.212 -3.1428 -1.4648  1.4542
  289MOL0     H39822  11.018   0.359   9.046  1.2389 -0.6898  0.4970
  289MOL0     H39823  10.834   0.587   9.076  0.1224  2.2313  1.9443
  289MOL0     H39824  10.992   0.595   9.001 -2.0087 -0.2201 -1.2570
  289MOL0     H39825  10.930   0.643   9.295 -0.4827 -2.5260 -0.1732
  289MOL0     H39826  11.097   0.631   9.225  0.1838  0.4292  0.8022
  289MOL0     H39827  10.872   0.819   9.106 -0.0939 -2.1757  0.1159
  289MOL0     H39828  11.039   0.843   9.080  0.6155  1.2966  0.7199
  289MOL0     H39829  10.961   1.006   9.229  2.4563 -0.3248  0.8869
  289MOL0     H39830  10.859   0.887   9.323  0.8685 -3.1446  0.2310
  289MOL0     H39831  11.229   0.949   9.223  0.1827 -5.4073 -1.0036
  289MOL0     H39832  11.423   1.008   9.544 -1.3558  0.3236 -0.1736
  289MOL0     H39833  11.443   1.044   9.372  0.9417  0.0205  0.6771
  289MOL0     H39834  11.430   0.768   9.373 -0.1847  1.1873 -1.2220
  289MOL0     H39835  11.583   0.865   9.368  1.9357 -4.0273  0.9302
  289MOL0     H39836  11.467   0.738   9.615  2.3076 -1.6601  2.5086
  289MOL0     H39837  11.606   0.703   9.520 -0.4709 -0.5807 -1.8609
  289MOL0     H39838  11.671   0.960   9.585 -0.5091  0.4141  0.8412
  289MOL0     H39839  11.573   0.923   9.715 -2.2761  1.5358 -1.8822
  289MOL0     H39840  11.817   0.837   9.476 -1.2589  4.9046  3.6799
  289MOL0     H39841  12.090   0.742   9.273 -1.8438  0.8430 -1.1194
  289MOL0     H39842  12.033   0.900   9.321  0.4466  0.4558  2.3879
  289MOL0     H39843  11.919   0.767   9.308 -0.5764  1.5871 -0.2167
  289MOL0     H39844  12.478   0.529   9.654  2.4188 -3.9738 -1.2160
  289MOL0     H39845  12.711   0.451   9.599  1.8813  0.3107 -4.0689
  289MOL0     H39846  12.927   0.465   9.645  0.7449 -1.4061 -2.0483
  289MOL0     H39847  13.069   0.493   9.560 -0.7764 -1.6630  0.7873
  289MOL0     H39848  13.105   0.709   9.642  0.7684 -0.7950 -0.2029
  289MOL0     H39849  12.948   0.704   9.733  0.3768  0.7237 -0.4794
  289MOL0     H39850  13.012   0.547   9.888  1.1626 -0.9807  0.9353
  289MOL0     H39851  13.141   0.662   9.884  1.1104 -0.1576 -0.1422
  289MOL0     H39852  13.167   0.384   9.748  1.6294 -0.0552  0.4986
  289MOL0     H39853  13.229   0.426   9.912  0.1072  1.7626  0.5466
  289MOL0     H39854  13.293   0.527   9.639  0.3690  1.4355  0.2434
  289MOL0     H39855  13.361   0.605   9.772  0.6155 -0.9520  1.3371
  289MOL0     H39856  13.390   0.300   9.742  1.8024 -1.2606 -1.8419
  289MOL0     H39857  13.478   0.404   9.853  0.4217 -0.9623 -0.3834
  289MOL0     H39858  13.557   0.535   9.638  2.6001 -0.7121 -0.3248
  289MOL0     H39859  13.475   0.407   9.542  2.4538  0.7497 -1.0290
  289MOL0     H39860  13.696   0.378   9.547 -0.9021  1.7067  0.0189
  289MOL0     H39861  13.619   0.241   9.644  0.0299  0.0147 -4.9977
  289MOL0     H39862  12.790   0.836   9.433 -2.7481  1.4293 -0.8410
  289MOL0     H39863  12.556   0.921   9.504 -0.1120  0.7413 -1.2014
  289MOL0     H39864  12.186   0.751   9.790  1.8325  3.6528 -0.6300
  289MOL0     H39865  11.959   0.742   9.865  0.8579  2.5340  0.4111
  289MOL0     H39866  10.534   0.285   9.118 -0.1241  0.4502  0.8695
  289MOL0     H39867  10.302   0.299   9.115  1.7402 -0.3719  1.8978
  289MOL0     H39868   9.958   0.180   8.872 -1.2600 -0.0578 -1.4959
  289MOL0     H39869   9.741   0.207   8.786  0.2759  1.1826 -0.2714
  289MOL0     H39870   9.569   0.002   8.787  0.4961  0.8449  1.0140
  289MOL0     H39871   9.412  -0.022   8.867 -0.6384  1.3792  2.2795
  289MOL0     H39872   9.385   0.061   8.648  1.5424 -0.6679  0.1495
  289MOL0     H39873   9.503   0.189   8.689 -1.3482  2.0311 -0.6564
  289MOL0     H39874   9.248   0.144   8.861 -1.0397 -0.8423 -1.4770
  289MOL0     H39875   9.330   0.294   8.834 -0.8358 -0.6706  1.7975
  289MOL0     H39876   9.163   0.122   8.643 -0.7168  0.6091 -5.2495
  289MOL0     H39877   9.268   0.248   8.581  2.4014  1.5929  3.1259
  289MOL0     H39878   8.938   0.462   8.753  0.6084  1.0752 -2.0270
  289MOL0     H39879   9.579   0.048   9.156 -0.6514  1.1637 -1.7436
  289MOL0     H39880   9.882  -0.105   9.266  2.2725  1.7335 -0.7701
  289MOL0     H39881   9.829   0.047   9.344 -1.2765 -1.3065  1.9464
  289MOL0     H39882   9.711  -0.084   9.300  1.9770 -4.2680 -1.5679
  290MOL0     O39883  10.138   4.766  10.922  0.1652  0.3626 -0.0593
  290MOL0     C39884  10.046   4.808  10.855  0.8673 -0.2577  0.3987
  290MOL0     O39885  10.056   4.916  10.764 -0.0808  0.1226 -0.0880
  290MOL0     C39886  10.176   4.940  10.707  0.1959  0.6193  0.9532
  290MOL0     C39887  10.230   5.072  10.704 -1.0111  0.2570  0.2478
  290MOL0     C39888  10.364   5.099  10.664 -0.4490  0.1004  0.2799
  290MOL0     C39889  10.444   4.989  10.616 -0.1406 -0.1040  0.5730
  290MOL0     O39890  10.574   5.018  10.575  0.2949 -0.4735  0.5475
  290MOL0     C39891  10.667   4.912  10.568  0.2308 -0.5036 -0.0411
  290MOL0     C39892  10.812   4.958  10.607 -0.4493 -0.2944 -0.7651
  290MOL0     C39893  10.929   4.892  10.520  0.3751  1.6121 -0.6310
  290MOL0     C39894  10.943   4.742  10.551  0.3613  1.2302  0.4861
  290MOL0     C39895  10.860   4.644  10.466  0.4254  0.5542  0.2352
  290MOL0     C39896  10.891   4.497  10.484 -0.4546 -0.8126 -0.0154
  290MOL0     C39897  10.846   4.409  10.366 -0.4556 -0.6709 -0.7367
  290MOL0     C39898  10.729   4.310  10.387 -0.0431 -0.1095  0.2676
  290MOL0     N39899  10.615   4.381  10.447  0.0703 -0.7829  0.9522
  290MOL0     C39900  10.552   4.338  10.554 -0.4487 -0.3009  0.0017
  290MOL0     C39901  10.464   4.448  10.583 -0.8243 -0.2981 -0.2877
  290MOL0     C39902  10.364   4.443  10.698  0.0198  0.4624 -0.3177
  290MOL0     C39903  10.216   4.437  10.644 -0.2972 -0.3387  0.2416
  290MOL0     C39904  10.124   4.390  10.762 -0.1330 -0.6186 -0.3989
  290MOL0     C39905   9.986   4.361  10.713 -0.2980  0.1219 -0.4745
  290MOL0     O39906   9.982   4.244  10.631  0.0316  0.0662  0.4342
  290MOL0     C39907   9.849   4.191  10.606 -0.4778  0.1740  0.2906
  290MOL0     C39908   9.732   4.262  10.613  0.3173 -0.0944 -0.0781
  290MOL0     C39909   9.609   4.193  10.579  0.2090 -0.0507  0.1066
  290MOL0     C39910   9.484   4.286  10.579  0.6043  0.0158 -0.3979
  290MOL0     C39911   9.606   4.062  10.533 -0.3787  0.7069 -0.1414
  290MOL0     C39912   9.483   3.988  10.488 -0.4570 -0.6772 -0.7601
  290MOL0     O39913   9.499   3.905  10.384 -0.0621  0.4817 -0.7733
  290MOL0     C39914   9.384   3.844  10.326 -0.2806  0.2008 -0.9559
  290MOL0     C39915   9.376   3.832  10.183 -0.5832  0.6063  0.0373
  290MOL0     C39916   9.265   3.779  10.126 -0.5357  0.5074 -0.0811
  290MOL0     C39917   9.171   3.730  10.208  0.1422  0.2179 -0.7253
  290MOL0     O39918   9.064   3.666  10.154  0.5484 -0.0990 -0.4137
  290MOL0     C39919   8.986   3.738  10.058 -0.0986  0.6793 -0.5008
  290MOL0     C39920   8.832   3.698  10.083 -0.0849 -0.1832 -0.4985
  290MOL0     C39921   8.794   3.712  10.229  0.1177 -0.9694 -0.2098
  290MOL0     C39922   8.654   3.668  10.251  0.3319 -0.0606  0.6946
  290MOL0     C39923   8.635   3.600  10.385 -0.8253 -0.9128  0.0035
  290MOL0     C39924   8.487   3.558  10.407 -0.0764 -0.6935  1.4272
  290MOL0     C39925   8.425   3.457  10.314 -0.4135  0.3715 -0.2702
  290MOL0     C39926   8.273   3.440  10.348 -0.5513  0.2247  0.1758
  290MOL0    Cl39927   8.173   3.581  10.267  0.1446  0.3191  0.1285
  290MOL0     C39928   9.180   3.736  10.348  0.6680  0.4168 -0.1915
  290MOL0     C39929   9.286   3.787  10.408 -0.6396 -0.0034 -0.9177
  290MOL0     O39930   9.380   4.016  10.553 -0.0257 -0.1612 -1.0407
  290MOL0     C39931   9.730   3.988  10.529  0.1485  0.2990 -1.0761
  290MOL0     C39932   9.850   4.049  10.574  0.7324 -1.1822  0.2053
  290MOL0     N39933  10.484   4.541  10.487  0.4832  0.7268 -0.1272
  290MOL0     N39934  10.574   4.504  10.405 -1.1130 -0.2272 -0.1631
  290MOL0     C39935  10.389   4.862  10.612  0.7571  0.1759 -0.2540
  290MOL0     C39936  10.266   4.837  10.663  0.1657 -0.5554 -1.1011
  290MOL0     C39937   9.907   4.753  10.876  0.4189  0.4967  0.2857
  290MOL0     C39938   9.813   4.796  10.779  0.0361  0.0307  0.5366
  290MOL0     C39939   9.684   4.749  10.784 -0.4603 -0.2930 -0.8295
  290MOL0     C39940   9.648   4.648  10.877  0.2272 -1.1513 -0.2150
  290MOL0     O39941   9.509   4.626  10.874  0.4892 -0.0380 -0.6610
  290MOL0     C39942   9.448   4.542  10.979 -0.6393  0.2513 -0.3910
  290MOL0     C39943   9.304   4.574  10.966  0.1017 -1.1803 -0.7230
  290MOL0     C39944   9.240   4.552  10.823  0.5708 -0.1563 -0.1067
  290MOL0     C39945   9.094   4.513  10.825 -0.3963 -0.1431  0.5189
  290MOL0     C39946   9.068   4.366  10.843  0.6734  0.0276  0.2547
  290MOL0     C39947   9.053   4.246  10.854  0.5135 -0.3376 -0.4721
  290MOL0     C39948   9.737   4.602  10.976 -0.8743  0.2619 -0.2826
  290MOL0     C39949   9.867   4.658  10.981 -0.3529  0.8060 -0.6112
  290MOL0     C39950   9.960   4.635  11.104  0.9392 -0.1042  0.2296
  290MOL0     H39951  10.169   5.154  10.739  1.0144  1.8629  0.2729
  290MOL0     H39952  10.402   5.201  10.664 -2.4736  0.8935  0.2326
  290MOL0     H39953  10.666   4.872  10.466 -1.3182  0.8788 -0.6106
  290MOL0     H39954  10.640   4.822  10.624  0.5299  0.1319  1.1629
  290MOL0     H39955  10.824   5.067  10.618 -0.8091 -0.4692  2.3338
  290MOL0     H39956  10.830   4.925  10.710  1.3560  1.9784 -0.2525
  290MOL0     H39957  10.909   4.897  10.413 -2.8543 -2.0561 -0.4495
  290MOL0     H39958  11.026   4.942  10.532  1.4354  0.0801 -2.2517
  290MOL0     H39959  11.049   4.717  10.537  0.1362 -0.1598  1.0589
  290MOL0     H39960  10.919   4.726  10.657 -0.6650  0.8979  0.2154
  290MOL0     H39961  10.881   4.670  10.362 -2.0578 -4.2002 -1.7741
  290MOL0     H39962  10.752   4.649  10.481  0.5571  0.6421  1.2962
  290MOL0     H39963  11.000   4.496  10.494 -0.5100  1.4174  1.3286
  290MOL0     H39964  10.862   4.462  10.583 -0.0069  0.1777  0.4785
  290MOL0     H39965  10.928   4.357  10.316  0.2991  2.3264 -2.9204
  290MOL0     H39966  10.825   4.485  10.290 -2.5393 -0.2099  0.2349
  290MOL0     H39967  10.704   4.265  10.290  1.5487  0.4886 -0.4569
  290MOL0     H39968  10.758   4.239  10.465  1.3244  0.2598  0.1247
  290MOL0     H39969  10.542   4.236  10.592 -1.4339 -1.8003 -3.8530
  290MOL0     H39970  10.390   4.535  10.752  2.1068 -0.7869  0.9291
  290MOL0     H39971  10.384   4.359  10.765 -3.0484 -1.1198 -1.2089
  290MOL0     H39972  10.193   4.538  10.610  0.9658 -0.1418 -0.1054
  290MOL0     H39973  10.203   4.378  10.553 -0.5898  2.3840 -1.6155
  290MOL0     H39974  10.173   4.305  10.812 -0.9437 -1.0353 -0.3062
  290MOL0     H39975  10.111   4.471  10.835 -0.4972 -0.5867 -0.4999
  290MOL0     H39976   9.927   4.343  10.803  1.0496 -0.1913  0.3666
  290MOL0     H39977   9.936   4.441  10.657  1.3962  1.7294  0.2209
  290MOL0     H39978   9.740   4.365  10.648  0.8601  0.7835 -2.5798
  290MOL0     H39979   9.509   4.386  10.615 -1.9599  1.1711 -1.5552
  290MOL0     H39980   9.410   4.247  10.649 -0.4469 -2.9260 -2.8708
  290MOL0     H39981   9.439   4.298  10.480 -1.4500  0.6412  0.5685
  290MOL0     H39982   9.454   3.879  10.123  1.1021  0.5163  2.0412
  290MOL0     H39983   9.253   3.773  10.019 -1.2971  0.4480  0.0030
  290MOL0     H39984   9.008   3.845  10.073 -0.7159  0.4916  2.1018
  290MOL0     H39985   9.005   3.732   9.950  1.0043  0.6475 -0.3125
  290MOL0     H39986   8.775   3.760  10.014 -1.8044  0.0227  1.0400
  290MOL0     H39987   8.829   3.594  10.048  1.5569 -0.5346  0.3119
  290MOL0     H39988   8.814   3.811  10.272  1.8241 -1.4216  0.1101
  290MOL0     H39989   8.863   3.645  10.280 -0.0959 -3.6208 -3.1142
  290MOL0     H39990   8.625   3.591  10.179 -0.8060 -0.0122  1.0847
  290MOL0     H39991   8.587   3.752  10.234 -0.3263 -1.1984 -3.6717
  290MOL0     H39992   8.701   3.513  10.393 -0.7687 -0.9347 -0.6168
  290MOL0     H39993   8.661   3.662  10.471  2.3727 -0.6735 -1.0079
  290MOL0     H39994   8.432   3.652  10.395 -2.0081 -2.1214 -2.7530
  290MOL0     H39995   8.469   3.521  10.508 -1.4654 -1.2573  0.9917
  290MOL0     H39996   8.464   3.360  10.344 -5.2125 -2.3135 -1.6484
  290MOL0     H39997   8.448   3.466  10.208 -0.1599  2.4260 -0.0838
  290MOL0     H39998   8.254   3.433  10.455 -0.2378  0.7932  0.2755
  290MOL0     H39999   8.231   3.345  10.314 -1.7771 -0.0422  2.2831
  290MOL0     H40000   9.096   3.693  10.402  2.3806 -3.2150 -0.1183
  290MOL0     H40001   9.292   3.803  10.515  1.7108  4.4347 -1.4917
  290MOL0     H40002   9.741   3.889  10.485  0.7120 -0.2507  0.2590
  290MOL0     H40003   9.942   3.993  10.582  1.2684 -0.2479  0.8124
  290MOL0     H40004  10.436   4.778  10.561  0.1940 -0.7846  0.7528
  290MOL0     H40005  10.221   4.740  10.647  0.1428 -0.8185  0.4532
  290MOL0     H40006   9.837   4.860  10.694 -2.1544 -1.6983 -1.5316
  290MOL0     H40007   9.609   4.776  10.710  1.2218  2.8919 -1.5567
  290MOL0     H40008   9.464   4.437  10.953  0.4797 -0.8719  3.9311
  290MOL0     H40009   9.483   4.550  11.083  0.7401 -3.4549 -0.4217
  290MOL0     H40010   9.283   4.678  10.992 -0.4884 -1.3214 -0.6406
  290MOL0     H40011   9.250   4.510  11.036  0.4483  1.6306  2.3449
  290MOL0     H40012   9.262   4.631  10.751  1.9247 -0.9751 -0.6186
  290MOL0     H40013   9.295   4.466  10.783  1.3266  0.3811 -0.2281
  290MOL0     H40014   9.057   4.541  10.726 -1.6907  1.4981  1.4337
  290MOL0     H40015   9.026   4.563  10.893 -2.7977 -0.6719 -1.3506
  290MOL0     H40016   9.024   4.147  10.882  1.8163 -0.3452  0.9798
  290MOL0     H40017   9.698   4.528  11.046 -0.0714  0.5968  0.5377
  290MOL0     H40018  10.049   4.576  11.081  1.6260  1.5421 -1.6450
  290MOL0     H40019   9.997   4.733  11.135 -0.0269  0.3043  0.1149
  290MOL0     H40020   9.918   4.602  11.200  2.0868  1.5725  1.3652
  291MOL0     O40021   1.566   5.464   2.319 -0.0526 -0.1551 -0.1191
  291MOL0     C40022   1.543   5.397   2.220  0.4709  0.9747 -0.0087
  291MOL0     O40023   1.636   5.321   2.152 -0.4467  0.3630 -0.1374
  291MOL0     C40024   1.761   5.277   2.202  1.0947  0.7456  0.0552
  291MOL0     C40025   1.766   5.213   2.331 -0.1304 -0.4204  0.9697
  291MOL0     C40026   1.882   5.156   2.379  0.2180  0.0794 -0.7891
  291MOL0     C40027   1.999   5.189   2.322 -0.0938 -0.4013 -0.0537
  291MOL0     O40028   2.126   5.173   2.377 -0.0211  0.1171 -0.5834
  291MOL0     C40029   2.135   5.119   2.509 -0.3612 -0.8148 -0.5075
  291MOL0     C40030   2.281   5.104   2.564  1.0758  0.0492 -0.0191
  291MOL0     C40031   2.370   5.118   2.440 -0.0358  0.5046 -0.1808
  291MOL0     C40032   2.515   5.105   2.499 -0.1089  0.3845  1.1000
  291MOL0     C40033   2.621   5.115   2.393  0.1285 -0.3266 -1.0268
  291MOL0     C40034   2.763   5.096   2.452  0.5423 -0.2240 -0.1006
  291MOL0     C40035   2.873   5.083   2.352 -0.9875  0.7578 -0.1111
  291MOL0     C40036   3.006   5.056   2.434  0.8829 -0.6322  0.1929
  291MOL0     N40037   3.119   5.056   2.343  0.2573 -0.8888 -0.2520
  291MOL0     C40038   3.170   5.174   2.302  0.2328 -0.1584  0.4816
  291MOL0     C40039   3.301   5.137   2.289 -0.4706  0.1515 -0.4460
  291MOL0     C40040   3.416   5.225   2.268 -0.4585  0.1374 -0.5036
  291MOL0     C40041   3.505   5.226   2.390  0.5347  0.1981  0.6254
  291MOL0     C40042   3.585   5.359   2.418  0.0411 -0.1578 -0.7269
  291MOL0     C40043   3.715   5.358   2.338  0.0475 -0.8778 -0.2223
  291MOL0     O40044   3.811   5.279   2.409  0.4398 -0.5419 -0.4290
  291MOL0     C40045   3.943   5.295   2.384 -0.0836  1.0928 -0.7227
  291MOL0     C40046   4.034   5.280   2.490  0.1720  0.2055 -0.0249
  291MOL0     C40047   4.173   5.278   2.459  0.1197  0.1968 -0.0278
  291MOL0     C40048   4.265   5.281   2.587 -0.3120  0.7126  0.1965
  291MOL0     C40049   4.219   5.300   2.326  0.2187 -0.0732  0.7361
  291MOL0     C40050   4.362   5.294   2.287 -0.7194  0.4730 -0.5634
  291MOL0     O40051   4.454   5.225   2.359  0.5360  1.0356  0.4986
  291MOL0     C40052   4.565   5.169   2.305  1.0286  0.5128 -0.4308
  291MOL0     C40053   4.577   5.140   2.171 -0.2768 -0.4385  0.5145
  291MOL0     C40054   4.689   5.083   2.113 -0.6346  0.1392 -0.1533
  291MOL0     C40055   4.796   5.046   2.196 -0.2013 -0.3941  0.0751
  291MOL0     O40056   4.920   4.997   2.154  0.3019 -0.6885 -0.0497
  291MOL0     C40057   4.922   4.930   2.026 -0.9500 -0.1390 -0.2369
  291MOL0     C40058   5.056   4.868   1.989  0.7016 -0.3550 -0.0489
  291MOL0     C40059   5.163   4.979   1.979 -0.0283  0.3953 -0.4037
  291MOL0     C40060   5.299   4.916   1.984  1.1219  0.5647  0.6703
  291MOL0     C40061   5.413   5.012   1.958  0.9678 -0.0220  0.1456
  291MOL0     C40062   5.551   4.940   1.967 -0.3463 -0.4841 -0.5625
  291MOL0     C40063   5.673   5.031   1.948 -1.3488  0.1463 -0.3808
  291MOL0     C40064   5.801   4.941   1.915 -0.4866 -0.3243 -0.8922
  291MOL0    Cl40065   5.954   5.031   1.958  0.1211  0.0461 -0.5422
  291MOL0     C40066   4.777   5.064   2.333 -0.0147  0.3380  0.5512
  291MOL0     C40067   4.661   5.116   2.387 -0.4062 -0.0798  0.7372
  291MOL0     O40068   4.387   5.352   2.182  0.4331  0.4263 -0.1768
  291MOL0     C40069   4.124   5.315   2.220  0.2728  0.0409  0.1755
  291MOL0     C40070   3.989   5.301   2.253  0.0620 -0.2630  0.3814
  291MOL0     N40071   3.315   4.994   2.296 -0.0466 -0.6161 -0.9217
  291MOL0     N40072   3.202   4.948   2.324  0.1833 -0.5267  0.1452
  291MOL0     C40073   1.995   5.248   2.190  0.1916 -0.5555  0.2892
  291MOL0     C40074   1.873   5.291   2.130 -0.4865  0.6480  0.1436
  291MOL0     C40075   1.404   5.396   2.173  0.4493 -0.1296 -0.2034
  291MOL0     C40076   1.380   5.319   2.057 -0.0542 -0.1911 -0.2086
  291MOL0     C40077   1.249   5.329   1.994 -0.0430 -0.5174 -0.1655
  291MOL0     C40078   1.147   5.408   2.044 -0.5778 -0.3738 -0.6983
  291MOL0     O40079   1.022   5.421   1.994 -0.3115 -0.3619  0.5570
  291MOL0     C40080   0.915   5.337   2.029 -0.9130 -0.2259 -0.8416
  291MOL0     C40081   0.915   5.207   1.955  0.2138 -0.0519 -0.4285
  291MOL0     C40082   0.894   5.221   1.807 -0.6641  0.3531  0.3696
  291MOL0     C40083   0.836   5.102   1.737  0.7682  0.0755  0.3006
  291MOL0     C40084   0.920   4.981   1.735 -0.6002  0.0238  0.1727
  291MOL0     C40085   0.968   4.870   1.747 -0.6209  0.0593  0.0233
  291MOL0     C40086   1.169   5.477   2.161 -1.0801  0.1332 -0.6163
  291MOL0     C40087   1.292   5.469   2.228 -0.8341  0.6660  0.1861
  291MOL0     C40088   1.305   5.550   2.348 -0.0858  0.1193 -0.3061
  291MOL0     H40089   1.676   5.205   2.391 -0.5827  0.1062  0.3735
  291MOL0     H40090   1.879   5.110   2.478  0.6113  1.6445 -0.0211
  291MOL0     H40091   2.090   5.019   2.507 -1.1953 -0.4515 -0.4710
  291MOL0     H40092   2.090   5.191   2.578  1.7439  0.4496 -0.3620
  291MOL0     H40093   2.302   5.188   2.630 -0.3581  1.2841 -1.0431
  291MOL0     H40094   2.293   5.010   2.619 -2.9981 -0.1443  0.9303
  291MOL0     H40095   2.346   5.032   2.377 -1.3176  0.2581  0.6031
  291MOL0     H40096   2.362   5.212   2.384  3.3782  1.3594  0.5106
  291MOL0     H40097   2.522   5.184   2.574  1.1000  1.1682  0.1928
  291MOL0     H40098   2.517   5.006   2.546 -2.1903  0.3615  1.2245
  291MOL0     H40099   2.619   5.216   2.349  0.8296 -0.1129 -0.5937
  291MOL0     H40100   2.593   5.047   2.312 -0.8158  0.7024 -1.5931
  291MOL0     H40101   2.783   5.175   2.525  1.1670  0.3001 -0.8380
  291MOL0     H40102   2.759   5.004   2.512  0.8195 -0.3521 -0.2769
  291MOL0     H40103   2.882   5.179   2.300  3.0664  1.1956  1.1091
  291MOL0     H40104   2.840   5.003   2.285 -0.8108 -0.0165  0.7067
  291MOL0     H40105   3.029   5.131   2.510 -0.7421 -0.3268  0.4343
  291MOL0     H40106   3.002   4.962   2.489  2.6678  1.3553  4.1529
  291MOL0     H40107   3.122   5.271   2.300 -1.5546 -1.0104  0.1565
  291MOL0     H40108   3.380   5.325   2.243  0.5970 -0.2338 -4.1514
  291MOL0     H40109   3.463   5.193   2.174  0.0231  0.1191 -0.2614
  291MOL0     H40110   3.435   5.220   2.475 -0.7517  1.1031 -0.3314
  291MOL0     H40111   3.563   5.134   2.395 -1.1942 -1.0240 -0.4919
  291MOL0     H40112   3.533   5.451   2.390 -1.4650  0.2605  2.7964
  291MOL0     H40113   3.601   5.372   2.526 -0.9913 -0.2202 -0.5482
  291MOL0     H40114   3.695   5.303   2.246  0.3460  0.3385 -1.0408
  291MOL0     H40115   3.752   5.460   2.321  1.5892 -1.6791 -2.1037
  291MOL0     H40116   4.002   5.279   2.594  3.9028 -1.9391  1.3024
  291MOL0     H40117   4.302   5.384   2.593 -2.5430  1.8377 -2.6962
  291MOL0     H40118   4.359   5.227   2.570  0.5191  2.3820 -0.8450
  291MOL0     H40119   4.221   5.242   2.679  2.7593 -2.0981  0.6442
  291MOL0     H40120   4.497   5.163   2.102  1.2127  2.1303 -0.4833
  291MOL0     H40121   4.698   5.055   2.009 -2.3009  0.3322 -0.3897
  291MOL0     H40122   4.851   4.847   2.032 -1.8113  0.6031  0.0173
  291MOL0     H40123   4.893   5.002   1.949  0.3369 -0.0872 -0.6958
  291MOL0     H40124   5.086   4.789   2.059 -0.9528 -1.2205 -0.2778
  291MOL0     H40125   5.046   4.829   1.888 -0.2694  0.7107 -0.3864
  291MOL0     H40126   5.156   5.050   2.061 -0.7185  1.1673 -1.1085
  291MOL0     H40127   5.154   5.029   1.882  1.8786 -0.6410 -1.1747
  291MOL0     H40128   5.308   4.835   1.910  1.5903  0.1422  1.1814
  291MOL0     H40129   5.319   4.873   2.082 -0.3143 -0.8219  0.3988
  291MOL0     H40130   5.407   5.067   1.864  0.2074  0.6843  0.5936
  291MOL0     H40131   5.425   5.087   2.037  1.0569  0.8276 -0.6665
  291MOL0     H40132   5.549   4.861   1.891 -2.9528 -1.0908  0.0319
  291MOL0     H40133   5.556   4.902   2.070  1.3264  0.6257 -0.2077
  291MOL0     H40134   5.685   5.096   2.036 -1.8345  0.1697 -0.3245
  291MOL0     H40135   5.669   5.093   1.858  1.3367 -1.0501 -1.4204
  291MOL0     H40136   5.805   4.906   1.812  4.7326 -0.0527 -1.0617
  291MOL0     H40137   5.796   4.847   1.970  0.6081  0.3207  0.3676
  291MOL0     H40138   4.861   5.037   2.397  0.4684  2.2889  0.8209
  291MOL0     H40139   4.657   5.122   2.496  0.5014  0.5750  0.7485
  291MOL0     H40140   4.149   5.332   2.116  1.2085  3.5355  0.8478
  291MOL0     H40141   3.916   5.300   2.173 -2.2137  0.3289  2.3408
  291MOL0     H40142   2.090   5.268   2.142  0.7820 -1.4268  1.0362
  291MOL0     H40143   1.866   5.348   2.038 -5.0777  1.1302  0.5647
  291MOL0     H40144   1.464   5.276   2.002  1.1612  1.1167  0.5749
  291MOL0     H40145   1.245   5.276   1.900  1.6375 -3.3209  1.2004
  291MOL0     H40146   0.925   5.326   2.138  1.4197  2.3426 -0.6740
  291MOL0     H40147   0.817   5.377   1.999 -1.6709 -2.9317 -2.2967
  291MOL0     H40148   0.823   5.161   1.993  0.1684  0.3422 -0.0529
  291MOL0     H40149   1.000   5.141   1.974 -1.4566 -1.7575  1.6195
  291MOL0     H40150   0.828   5.307   1.793 -1.8974 -0.7086 -0.5893
  291MOL0     H40151   0.986   5.236   1.751 -0.7739 -1.8537 -0.5069
  291MOL0     H40152   0.817   5.135   1.635 -1.9411  1.1956  1.0745
  291MOL0     H40153   0.741   5.085   1.788  0.1188  1.5636 -0.3532
  291MOL0     H40154   1.016   4.778   1.776  1.6902  1.1227 -0.1966
  291MOL0     H40155   1.089   5.529   2.214  2.4138  2.9417  2.4348
  291MOL0     H40156   1.370   5.635   2.326 -0.5762  0.1008 -1.9082
  291MOL0     H40157   1.213   5.594   2.387 -0.7812 -0.4163 -1.3246
  291MOL0     H40158   1.363   5.497   2.424 -0.1351  0.2712 -0.1620
  292MOL0     O40159   9.611   7.696   2.092 -0.2625  0.2600  0.2181
  292MOL0     C40160   9.601   7.788   2.174 -0.1369  0.2791 -0.3023
  292MOL0     O40161   9.707   7.870   2.206 -0.6730  0.1522 -0.5753
  292MOL0     C40162   9.830   7.871   2.136  0.5307 -0.1673 -0.3876
  292MOL0     C40163   9.850   7.854   1.996 -0.2243 -0.0904  0.1536
  292MOL0     C40164   9.984   7.861   1.948  0.4500 -0.4987  0.4373
  292MOL0     C40165  10.090   7.888   2.026 -0.5942  0.4109  0.3300
  292MOL0     O40166  10.223   7.875   1.987 -0.4144 -0.4761  0.0336
  292MOL0     C40167  10.243   7.852   1.849 -0.5937 -0.1751  0.0458
  292MOL0     C40168  10.387   7.835   1.814  0.0937  0.9208 -0.1240
  292MOL0     C40169  10.485   7.930   1.876 -0.0654 -0.0254  0.1781
  292MOL0     C40170  10.482   8.066   1.799  0.6556  0.9115 -0.2391
  292MOL0     C40171  10.531   8.178   1.894 -0.5379  0.1626  0.5873
  292MOL0     C40172  10.544   8.311   1.817 -1.2617  0.6104  0.4063
  292MOL0     C40173  10.538   8.436   1.907 -0.4611  0.1163  0.5123
  292MOL0     C40174  10.673   8.467   1.984 -0.5938  0.4421  0.8498
  292MOL0     N40175  10.782   8.511   1.894 -0.2300  0.1569  0.5808
  292MOL0     C40176  10.884   8.426   1.857  0.4234  0.6818  0.4863
  292MOL0     C40177  10.969   8.496   1.783  0.4188 -0.6132  0.1241
  292MOL0     C40178  11.094   8.453   1.722 -0.7372  0.2547  0.6265
  292MOL0     C40179  11.223   8.483   1.790 -0.1990  0.1858 -0.5891
  292MOL0     C40180  11.338   8.414   1.732  0.2458 -0.2840 -0.2262
  292MOL0     C40181  11.474   8.467   1.767 -0.0947 -1.1354 -0.0825
  292MOL0     O40182  11.489   8.605   1.733 -0.0683 -0.2474  0.3405
  292MOL0     C40183  11.588   8.680   1.792  0.2944  0.4440  0.8048
  292MOL0     C40184  11.552   8.808   1.840 -0.4058  0.4701  0.2376
  292MOL0     C40185  11.650   8.877   1.914  0.1611  1.1175 -0.0301
  292MOL0     C40186  11.608   9.009   1.972  0.8063  0.5068  0.1076
  292MOL0     C40187  11.776   8.819   1.941  0.3748 -0.2686 -0.6250
  292MOL0     C40188  11.871   8.880   2.035 -0.7415  0.2252  0.9442
  292MOL0     O40189  11.969   8.791   2.076  0.0436  0.0493  0.2898
  292MOL0     C40190  12.062   8.826   2.170  0.7027 -0.4616  0.1308
  292MOL0     C40191  12.196   8.800   2.143 -0.1852 -0.1253  1.6258
  292MOL0     C40192  12.293   8.829   2.237  0.6100 -0.6888 -0.5450
  292MOL0     C40193  12.270   8.887   2.361 -0.1256  0.4711 -0.4111
  292MOL0     O40194  12.366   8.899   2.453 -0.3080 -0.5398 -0.0018
  292MOL0     C40195  12.410   9.027   2.484 -0.6740 -0.2516 -0.4678
  292MOL0     C40196  12.511   9.027   2.603  0.5616 -0.9487  0.3778
  292MOL0     C40197  12.650   8.964   2.559  0.4363 -0.2496 -0.0966
  292MOL0     C40198  12.738   9.047   2.478 -0.0329  0.1809 -0.0836
  292MOL0     C40199  12.878   8.994   2.458  0.3663  0.7674  0.2027
  292MOL0     C40200  12.958   9.070   2.365 -0.1817 -0.6511 -0.7292
  292MOL0     C40201  12.998   9.200   2.431  1.0209 -0.6711  0.3577
  292MOL0     C40202  13.081   9.284   2.345 -0.0909  0.0176  0.3535
  292MOL0    Cl40203  12.994   9.356   2.202  0.0740 -0.1452 -0.0246
  292MOL0     C40204  12.136   8.921   2.384 -0.5883 -0.0954  0.6537
  292MOL0     C40205  12.037   8.898   2.286 -0.0224 -0.3314 -0.1188
  292MOL0     O40206  11.868   8.997   2.069  0.3718  0.1845  0.1209
  292MOL0     C40207  11.815   8.695   1.886  0.1023 -0.2296 -0.2222
  292MOL0     C40208  11.718   8.629   1.812  1.5698  0.6703 -1.3743
  292MOL0     N40209  10.926   8.625   1.788 -0.2728  0.5650 -0.5617
  292MOL0     N40210  10.821   8.637   1.862  0.1849 -0.6721  0.5948
  292MOL0     C40211  10.078   7.903   2.160  0.2806 -0.8521 -0.3093
  292MOL0     C40212   9.944   7.894   2.209 -0.7350  0.6907  0.0582
  292MOL0     C40213   9.477   7.824   2.227  0.5961  0.6835  0.2777
  292MOL0     C40214   9.457   7.966   2.251  0.6769  0.2937  1.1588
  292MOL0     C40215   9.331   8.008   2.277  0.8454  0.4738 -0.2114
  292MOL0     C40216   9.221   7.927   2.304  0.3190 -0.1827 -0.1007
  292MOL0     O40217   9.105   8.004   2.333 -0.2405  0.0076  0.2611
  292MOL0     C40218   8.980   7.951   2.295 -0.6613  0.8546 -0.2855
  292MOL0     C40219   8.852   8.026   2.337  0.6379 -0.8801 -0.5558
  292MOL0     C40220   8.861   8.035   2.492 -0.0951  0.6179 -1.0236
  292MOL0     C40221   8.740   8.096   2.558  0.7495  0.3365 -1.0766
  292MOL0     C40222   8.738   8.081   2.703 -0.0415  1.5052  0.0265
  292MOL0     C40223   8.748   8.048   2.821 -0.3276 -0.5425  0.3597
  292MOL0     C40224   9.240   7.796   2.287  0.1438 -0.0074 -0.1312
  292MOL0     C40225   9.361   7.743   2.246 -0.3346  0.5263  0.0629
  292MOL0     C40226   9.363   7.593   2.243 -0.5616  0.3362 -0.0710
  292MOL0     H40227   9.771   7.828   1.927  2.5904 -1.1912 -2.9517
  292MOL0     H40228   9.980   7.840   1.842 -0.1528  1.0899  0.1170
  292MOL0     H40229  10.207   7.931   1.782 -1.3775 -2.5425 -2.5637
  292MOL0     H40230  10.191   7.761   1.819 -1.5976  0.3158  0.2756
  292MOL0     H40231  10.417   7.738   1.855 -1.3206 -0.1698 -1.5432
  292MOL0     H40232  10.396   7.846   1.706  0.8139  0.2135 -0.1462
  292MOL0     H40233  10.468   7.951   1.982  0.0196  1.2715 -0.0495
  292MOL0     H40234  10.586   7.889   1.860  0.8838  3.0072 -2.9920
  292MOL0     H40235  10.541   8.055   1.708 -1.3885  1.5854 -1.7015
  292MOL0     H40236  10.379   8.096   1.778  0.1209 -1.2714 -0.9781
  292MOL0     H40237  10.632   8.144   1.920 -0.0429  0.9679 -0.2231
  292MOL0     H40238  10.473   8.194   1.985 -1.9652 -1.9798  0.1068
  292MOL0     H40239  10.630   8.308   1.749  0.6519 -1.8214  2.7218
  292MOL0     H40240  10.451   8.329   1.762 -1.8117  1.1051  1.4677
  292MOL0     H40241  10.454   8.420   1.974 -0.9621  1.7315  0.3196
  292MOL0     H40242  10.516   8.529   1.854  0.8980  1.7926  2.7258
  292MOL0     H40243  10.660   8.550   2.055  1.0877 -0.6199  2.5169
  292MOL0     H40244  10.711   8.389   2.051 -0.9151  0.8175  1.4910
  292MOL0     H40245  10.899   8.321   1.879  1.1492  0.9892  1.6038
  292MOL0     H40246  11.111   8.488   1.619 -1.7489  5.6993  2.0130
  292MOL0     H40247  11.098   8.343   1.721  3.2150  0.2418 -0.7210
  292MOL0     H40248  11.242   8.591   1.791 -3.7482  0.9708 -2.1735
  292MOL0     H40249  11.206   8.458   1.895  1.2662 -0.1562 -0.4198
  292MOL0     H40250  11.336   8.305   1.747  1.5002 -0.0686  1.7564
  292MOL0     H40251  11.334   8.428   1.623 -0.8369  3.3683  0.1690
  292MOL0     H40252  11.503   8.451   1.871 -2.3133 -1.1542  0.5833
  292MOL0     H40253  11.547   8.415   1.704  0.1708 -0.7424 -0.1042
  292MOL0     H40254  11.452   8.849   1.827  0.5049  3.5262  1.7804
  292MOL0     H40255  11.670   9.093   1.938  0.9150  0.3262 -0.1444
  292MOL0     H40256  11.618   9.001   2.080  1.2275  0.1553  0.0436
  292MOL0     H40257  11.505   9.035   1.948  1.7945  1.6786 -3.7343
  292MOL0     H40258  12.227   8.771   2.043  3.6698  0.8032  2.3643
  292MOL0     H40259  12.397   8.819   2.210  0.6559 -0.2213 -0.5584
  292MOL0     H40260  12.454   9.071   2.394  0.4987  1.3472  0.8081
  292MOL0     H40261  12.332   9.099   2.510  1.8665  2.1976  1.0530
  292MOL0     H40262  12.536   9.124   2.648 -0.4115 -1.7414  2.7931
  292MOL0     H40263  12.476   8.969   2.689 -0.8336  0.3679  0.7506
  292MOL0     H40264  12.628   8.866   2.517 -2.4689 -0.2265  1.0932
  292MOL0     H40265  12.701   8.942   2.654  0.4692 -0.7472 -0.2260
  292MOL0     H40266  12.741   9.142   2.532 -0.0072  0.3157 -0.3207
  292MOL0     H40267  12.695   9.069   2.380  1.7160 -0.5870 -1.0850
  292MOL0     H40268  12.928   8.971   2.553 -2.4971 -0.3365  1.5518
  292MOL0     H40269  12.859   8.902   2.402  0.6313  1.3559 -0.8687
  292MOL0     H40270  12.898   9.092   2.275 -0.2322 -1.9030 -1.0194
  292MOL0     H40271  13.049   9.020   2.329  1.0778 -0.0177  1.4395
  292MOL0     H40272  13.055   9.181   2.522 -0.7325 -0.5112  1.5498
  292MOL0     H40273  12.912   9.259   2.464  2.3442  1.9331 -0.5725
  292MOL0     H40274  13.176   9.235   2.321  0.5715  0.7560  1.3825
  292MOL0     H40275  13.112   9.371   2.403  0.3147 -0.8363  1.4396
  292MOL0     H40276  12.105   8.944   2.485  2.2330 -1.9382  2.0565
  292MOL0     H40277  11.930   8.902   2.308 -0.1426 -0.9601 -0.5516
  292MOL0     H40278  11.913   8.650   1.899  0.7773  1.2625  0.1155
  292MOL0     H40279  11.750   8.528   1.791  0.7915 -0.6279  2.7796
  292MOL0     H40280  10.165   7.918   2.222  0.9168 -1.2205 -1.1011
  292MOL0     H40281   9.932   7.923   2.313  3.7269  2.6890  0.2387
  292MOL0     H40282   9.534   8.042   2.242 -2.1776  3.3659  0.6313
  292MOL0     H40283   9.311   8.114   2.288  0.3806  0.4323 -0.5954
  292MOL0     H40284   8.980   7.944   2.186 -2.0199 -0.6193 -0.2312
  292MOL0     H40285   8.977   7.844   2.317  3.2218  0.1603 -2.2781
  292MOL0     H40286   8.758   7.974   2.316 -0.3999  0.7319 -0.0085
  292MOL0     H40287   8.847   8.128   2.299  0.3740  0.0237  1.7759
  292MOL0     H40288   8.861   7.939   2.544 -2.2608  1.1616  0.1198
  292MOL0     H40289   8.948   8.096   2.519  1.8313 -2.0129 -0.9768
  292MOL0     H40290   8.644   8.066   2.514  0.2248  4.3639 -3.1643
  292MOL0     H40291   8.735   8.205   2.551 -0.3283  0.2012 -3.8766
  292MOL0     H40292   8.729   8.021   2.924 -0.6201  2.7874  1.2933
  292MOL0     H40293   9.157   7.729   2.304  0.0039  0.0642 -0.5095
  292MOL0     H40294   9.272   7.550   2.284  0.5630 -0.8826  1.2398
  292MOL0     H40295   9.371   7.557   2.140 -1.1235 -0.1336  0.0431
  292MOL0     H40296   9.452   7.558   2.297 -0.5876 -1.3241 -1.0170
  293MOL0     O40297   9.090   0.737  11.114  0.1675 -0.1650  0.6145
  293MOL0     C40298   9.031   0.742  11.223 -0.4996 -0.2442 -0.1380
  293MOL0     O40299   9.095   0.753  11.346 -0.3850 -0.6317  0.1825
  293MOL0     C40300   9.232   0.744  11.342 -0.6041 -0.1082 -0.7361
  293MOL0     C40301   9.307   0.862  11.339  0.7401 -0.8209  0.2862
  293MOL0     C40302   9.447   0.862  11.337  0.5510  0.7489 -0.2193
  293MOL0     C40303   9.511   0.739  11.349 -0.2926  0.5024  0.2215
  293MOL0     O40304   9.651   0.722  11.366  0.1214 -0.5034  0.9041
  293MOL0     C40305   9.732   0.839  11.381 -1.2568 -1.2802  0.2596
  293MOL0     C40306   9.877   0.793  11.402 -0.0775  0.3076 -0.3436
  293MOL0     C40307   9.918   0.667  11.322 -1.4084  0.1848  0.4892
  293MOL0     C40308  10.064   0.638  11.377 -0.4017  0.8024 -0.2499
  293MOL0     C40309  10.137   0.541  11.274 -0.0239 -0.5943 -0.2274
  293MOL0     C40310  10.269   0.482  11.330  0.2726 -1.0538 -0.2849
  293MOL0     C40311  10.381   0.591  11.354  0.0042  0.5588  0.5633
  293MOL0     C40312  10.518   0.521  11.359 -0.3416 -0.2658  1.0194
  293MOL0     N40313  10.622   0.593  11.421 -0.8206 -0.3640 -0.2652
  293MOL0     C40314  10.708   0.673  11.353 -0.0371 -0.2095 -0.5611
  293MOL0     C40315  10.774   0.740  11.457  0.5417  0.6334  0.9162
  293MOL0     C40316  10.872   0.850  11.424 -0.1616  0.4483 -0.4063
  293MOL0     C40317  10.799   0.969  11.363 -0.4007  0.0861  0.3582
  293MOL0     C40318  10.891   1.093  11.354 -0.1313 -0.3038 -0.5693
  293MOL0     C40319  11.008   1.090  11.256 -0.0769  1.0141 -0.1452
  293MOL0     O40320  11.054   1.221  11.222 -0.3027 -0.0456  0.0163
  293MOL0     C40321  11.117   1.233  11.109  0.3870 -0.3423  0.5779
  293MOL0     C40322  11.120   1.356  11.043  0.0039 -0.8952  0.3247
  293MOL0     C40323  11.207   1.388  10.940 -0.5755 -0.5802  0.0400
  293MOL0     C40324  11.191   1.526  10.877 -0.1617  0.8918  0.1406
  293MOL0     C40325  11.311   1.293  10.901 -0.1727 -0.3106  0.1996
  293MOL0     C40326  11.421   1.318  10.806  0.9398  0.5920  0.1263
  293MOL0     O40327  11.459   1.216  10.727  0.0424 -0.4826 -0.4439
  293MOL0     C40328  11.577   1.233  10.653 -0.0778  0.1517 -0.5079
  293MOL0     C40329  11.686   1.148  10.667 -0.2761  0.4846  0.1836
  293MOL0     C40330  11.795   1.149  10.577 -0.1580 -0.1587 -0.7920
  293MOL0     C40331  11.807   1.244  10.472  0.4518 -0.0562  0.1672
  293MOL0     O40332  11.917   1.253  10.382 -0.4813  0.3047 -0.0894
  293MOL0     C40333  12.004   1.140  10.374  0.4120  0.1477 -0.1612
  293MOL0     C40334  12.082   1.158  10.242 -0.7147  0.1269 -0.1418
  293MOL0     C40335  12.195   1.056  10.219 -0.8089  0.0447  0.0705
  293MOL0     C40336  12.145   0.939  10.131 -0.0249 -0.5702 -0.2578
  293MOL0     C40337  12.246   0.826  10.116 -0.3704  0.4138  0.2791
  293MOL0     C40338  12.370   0.862  10.033  0.9559  0.0026  0.2811
  293MOL0     C40339  12.452   0.735  10.021 -1.1563 -0.0409  0.0526
  293MOL0     C40340  12.591   0.761   9.949 -0.3968 -0.0047 -0.2703
  293MOL0    Cl40341  12.718   0.820  10.057  0.0972  0.2491 -0.2765
  293MOL0     C40342  11.701   1.341  10.476  0.5210 -0.1671  0.0288
  293MOL0     C40343  11.584   1.332  10.561 -0.6056  0.9533  0.4497
  293MOL0     O40344  11.466   1.431  10.801 -0.0970 -0.5702 -0.1812
  293MOL0     C40345  11.301   1.166  10.963 -0.3226  0.0336 -0.5437
  293MOL0     C40346  11.210   1.135  11.063  0.8201  0.3002  0.5844
  293MOL0     N40347  10.734   0.691  11.581  0.2842 -0.0922 -0.5323
  293MOL0     N40348  10.643   0.598  11.553 -0.4650  0.0874  0.0335
  293MOL0     C40349   9.443   0.613  11.348 -0.6090 -0.0639  0.0840
  293MOL0     C40350   9.302   0.620  11.342  0.1097  0.0524 -0.3361
  293MOL0     C40351   8.884   0.709  11.229 -0.2293  0.7324  0.1541
  293MOL0     C40352   8.850   0.627  11.336 -0.3139 -0.0883 -0.1905
  293MOL0     C40353   8.732   0.558  11.329 -0.7176 -0.2603  0.7615
  293MOL0     C40354   8.640   0.569  11.225  0.5287 -1.4222 -0.3227
  293MOL0     O40355   8.520   0.501  11.250 -0.3264 -0.6078  0.5009
  293MOL0     C40356   8.416   0.503  11.154 -0.5933 -0.0221  0.7494
  293MOL0     C40357   8.293   0.453  11.217  0.4220 -0.5510 -0.0705
  293MOL0     C40358   8.166   0.486  11.127  0.3002  0.0009 -0.1951
  293MOL0     C40359   8.042   0.432  11.194 -0.2058 -0.3767  0.5802
  293MOL0     C40360   7.920   0.492  11.132 -1.0802  0.6893  0.0088
  293MOL0     C40361   7.821   0.528  11.077  0.5275 -0.4110  0.2134
  293MOL0     C40362   8.666   0.655  11.121  0.1600 -0.5488  0.2686
  293MOL0     C40363   8.793   0.729  11.124  0.2406  0.4720  0.6979
  293MOL0     C40364   8.825   0.830  11.019 -0.2361 -0.0821 -0.6067
  293MOL0     H40365   9.257   0.958  11.330 -0.5593 -1.3957  1.1168
  293MOL0     H40366   9.503   0.955  11.332 -0.4686  1.6662  2.8971
  293MOL0     H40367   9.699   0.893  11.469  0.8707 -0.0890  0.3908
  293MOL0     H40368   9.735   0.901  11.291 -0.1459  0.8487  1.6653
  293MOL0     H40369   9.955   0.868  11.387  0.5310 -0.1570  0.4226
  293MOL0     H40370   9.891   0.759  11.505 -0.0481  1.3770  0.0208
  293MOL0     H40371   9.852   0.582  11.343 -0.8938  0.2299  2.4412
  293MOL0     H40372   9.906   0.679  11.214  1.1731 -1.3511 -0.0840
  293MOL0     H40373  10.124   0.729  11.371  0.0417  0.4190 -3.9560
  293MOL0     H40374  10.062   0.586  11.473 -0.6727  0.9652 -0.1676
  293MOL0     H40375  10.151   0.583  11.173 -1.9056 -2.6480 -1.4456
  293MOL0     H40376  10.079   0.449  11.262  0.2226 -0.8347  0.4233
  293MOL0     H40377  10.242   0.426  11.419 -2.2614  0.2907 -0.1162
  293MOL0     H40378  10.315   0.414  11.257 -1.5243 -1.3734 -1.1813
  293MOL0     H40379  10.355   0.634  11.451  1.4383  0.0917  1.1740
  293MOL0     H40380  10.393   0.673  11.282  3.3278 -1.3116 -1.2377
  293MOL0     H40381  10.515   0.428  11.415 -0.4004 -1.5699 -1.0377
  293MOL0     H40382  10.550   0.487  11.260  0.5979 -4.0618  2.4751
  293MOL0     H40383  10.711   0.694  11.247 -1.9762 -2.4671 -1.1383
  293MOL0     H40384  10.944   0.799  11.359 -1.0986 -2.1766  0.4656
  293MOL0     H40385  10.921   0.889  11.514  0.5408 -2.3843  0.5401
  293MOL0     H40386  10.770   0.935  11.263 -0.3404 -0.6854  0.6009
  293MOL0     H40387  10.711   1.000  11.419 -1.3002 -1.0398 -0.3900
  293MOL0     H40388  10.823   1.170  11.317 -0.3809  0.2102  0.9243
  293MOL0     H40389  10.920   1.134  11.451  1.5354  3.5150 -2.4619
  293MOL0     H40390  11.090   1.031  11.297 -0.2435  1.3880  0.7378
  293MOL0     H40391  10.975   1.041  11.164  2.6960  0.2133 -0.8246
  293MOL0     H40392  11.056   1.437  11.075  2.9169  1.9832 -0.6130
  293MOL0     H40393  11.160   1.511  10.773 -1.1966  0.5146  0.4981
  293MOL0     H40394  11.292   1.569  10.882  0.4060 -0.2248 -0.9415
  293MOL0     H40395  11.123   1.589  10.933  0.8310  0.8436  1.4450
  293MOL0     H40396  11.678   1.077  10.749  0.4787 -1.1191 -1.0586
  293MOL0     H40397  11.877   1.081  10.598 -1.3412 -1.5418 -0.5118
  293MOL0     H40398  12.078   1.140  10.455  3.8558  2.6587 -2.9557
  293MOL0     H40399  11.960   1.040  10.372  2.6168 -0.9189  0.5047
  293MOL0     H40400  12.025   1.166  10.150  3.1796  1.5468 -2.7141
  293MOL0     H40401  12.139   1.251  10.246  0.9588 -0.8404 -0.3455
  293MOL0     H40402  12.241   1.016  10.310  0.4943  0.9815 -0.1395
  293MOL0     H40403  12.275   1.117  10.176 -0.3341 -0.4073  0.2958
  293MOL0     H40404  12.112   0.967  10.031 -0.7327 -1.1564 -0.1971
  293MOL0     H40405  12.057   0.901  10.183  1.8602 -1.3641  2.5570
  293MOL0     H40406  12.278   0.798  10.217 -0.9886  1.1141  0.6800
  293MOL0     H40407  12.200   0.738  10.070  1.2804 -0.8027  0.8454
  293MOL0     H40408  12.431   0.935  10.086  1.9071 -1.2655  0.9949
  293MOL0     H40409  12.326   0.896   9.939 -2.3312  1.4943  2.2080
  293MOL0     H40410  12.395   0.667   9.959 -0.9116 -1.8131  1.6768
  293MOL0     H40411  12.470   0.686  10.117 -2.2865  1.1248  0.8971
  293MOL0     H40412  12.582   0.834   9.868 -0.8010  0.9058  0.5731
  293MOL0     H40413  12.628   0.665   9.914 -0.3169 -0.2517  0.4853
  293MOL0     H40414  11.710   1.424  10.408  1.4911  1.6484  2.2442
  293MOL0     H40415  11.507   1.408  10.558  0.7610  2.3532 -1.7233
  293MOL0     H40416  11.373   1.088  10.939 -1.1172 -0.7418 -0.4619
  293MOL0     H40417  11.211   1.037  11.110  5.6436 -0.1132  0.1526
  293MOL0     H40418   9.503   0.523  11.358  0.3303  0.4582 -0.6360
  293MOL0     H40419   9.242   0.530  11.344  0.0833  0.0017  3.2030
  293MOL0     H40420   8.919   0.628  11.420  1.1718  1.1910 -1.3897
  293MOL0     H40421   8.700   0.489  11.406 -2.6108 -3.6665 -2.7231
  293MOL0     H40422   8.397   0.606  11.125  0.1352  0.0157  0.3735
  293MOL0     H40423   8.454   0.439  11.073 -0.3609 -1.5893  2.0419
  293MOL0     H40424   8.285   0.496  11.318  1.4589 -0.1509 -0.1528
  293MOL0     H40425   8.308   0.345  11.227  3.8037 -0.6957 -4.1970
  293MOL0     H40426   8.141   0.590  11.105 -2.5357 -0.6043 -0.1807
  293MOL0     H40427   8.183   0.436  11.031  1.9190  2.1799 -1.1318
  293MOL0     H40428   8.037   0.463  11.299  1.2032  1.4041  0.1651
  293MOL0     H40429   8.035   0.322  11.194 -1.6959 -0.3059  1.0673
  293MOL0     H40430   7.735   0.568  11.027 -0.3762 -0.8088  1.4156
  293MOL0     H40431   8.591   0.658  11.043 -0.7241  0.0998  1.1131
  293MOL0     H40432   8.904   0.791  10.953 -1.8491 -1.0973 -2.0296
  293MOL0     H40433   8.733   0.846  10.962 -1.8493 -5.4187 -0.0777
  293MOL0     H40434   8.856   0.918  11.076 -0.5943 -1.2002  1.4252
  294MOL0     O40435   1.417   0.277   9.896  0.6877 -0.0086  0.1114
  294MOL0     C40436   1.429   0.188   9.981 -0.3935  0.0040 -0.0537
  294MOL0     O40437   1.516   0.086   9.977 -0.0293 -0.5263 -0.4102
  294MOL0     C40438   1.605   0.092   9.871 -0.4606 -0.1625 -0.2251
  294MOL0     C40439   1.566   0.082   9.740 -0.8108 -0.1546  0.4414
  294MOL0     C40440   1.663   0.072   9.638 -0.2473 -0.9477 -0.9884
  294MOL0     C40441   1.800   0.072   9.674 -0.7716 -0.7618 -0.0206
  294MOL0     O40442   1.878   0.045   9.564  0.2204 -0.5333 -0.8175
  294MOL0     C40443   2.014   0.010   9.589 -0.9314  0.0277  0.8675
  294MOL0     C40444   2.062  -0.050   9.449  0.0204 -0.1345 -0.1120
  294MOL0     C40445   2.213  -0.067   9.449  0.3359 -0.1714  0.3921
  294MOL0     C40446   2.269  -0.129   9.322 -0.1096 -0.2799  0.2105
  294MOL0     C40447   2.411  -0.161   9.340  0.4124 -0.6149 -0.7309
  294MOL0     C40448   2.451  -0.222   9.207 -0.3298  0.7094 -0.2190
  294MOL0     C40449   2.603  -0.237   9.193 -0.1888 -0.1904 -0.6208
  294MOL0     C40450   2.638  -0.300   9.052 -0.9984  0.7597  0.7560
  294MOL0     N40451   2.776  -0.349   9.025 -0.0088  0.9540 -0.1147
  294MOL0     C40452   2.882  -0.282   9.064  0.1299  0.1559 -0.1726
  294MOL0     C40453   2.986  -0.324   8.980 -0.4942 -0.6000  0.1046
  294MOL0     C40454   3.131  -0.269   8.990  1.3550  0.2553  0.6724
  294MOL0     C40455   3.215  -0.385   9.052 -0.6062 -1.2097 -0.0476
  294MOL0     C40456   3.226  -0.504   8.962  0.0957 -0.6301 -0.5112
  294MOL0     C40457   3.284  -0.490   8.828 -0.5555  0.5081 -0.0303
  294MOL0     O40458   3.424  -0.441   8.846 -0.9415  0.2521 -0.4283
  294MOL0     C40459   3.498  -0.401   8.732  0.1908  0.3492  0.2027
  294MOL0     C40460   3.503  -0.479   8.616  0.0959 -0.5270  0.3092
  294MOL0     C40461   3.584  -0.456   8.503  0.0354  0.2117  0.1955
  294MOL0     C40462   3.593  -0.564   8.396  0.6588 -0.2676 -0.2135
  294MOL0     C40463   3.674  -0.344   8.505 -0.1817 -0.4548  0.3305
  294MOL0     C40464   3.759  -0.299   8.391 -0.0359  0.4025  0.0476
  294MOL0     O40465   3.832  -0.398   8.328  0.0703  0.2752 -0.0654
  294MOL0     C40466   3.912  -0.370   8.223 -0.3497  0.3331  0.3414
  294MOL0     C40467   4.043  -0.355   8.251  0.2822 -0.2326  0.0400
  294MOL0     C40468   4.131  -0.334   8.150  0.5744 -0.1801  0.6236
  294MOL0     C40469   4.084  -0.316   8.019  0.4785 -0.6608 -0.2464
  294MOL0     O40470   4.166  -0.287   7.921 -0.2011  0.7751 -0.1767
  294MOL0     C40471   4.278  -0.372   7.905 -0.5897  0.0463 -1.2497
  294MOL0     C40472   4.405  -0.299   7.949 -0.2050 -0.9327  0.1045
  294MOL0     C40473   4.524  -0.368   7.884  0.1703  0.0667  0.3873
  294MOL0     C40474   4.656  -0.302   7.931  0.4248  1.0796  0.0689
  294MOL0     C40475   4.768  -0.415   7.926 -0.3249 -0.8122  0.7022
  294MOL0     C40476   4.908  -0.338   7.938 -0.1859 -0.2090  0.8050
  294MOL0     C40477   4.945  -0.283   8.082 -0.4460  0.3443  0.3811
  294MOL0     C40478   5.085  -0.221   8.076  0.3477  0.2713  0.4023
  294MOL0    Cl40479   5.200  -0.363   8.073 -0.4486 -0.3344  0.3168
  294MOL0     C40480   3.944  -0.309   7.992  0.0943  0.0508  0.9423
  294MOL0     C40481   3.857  -0.345   8.092 -0.7473  0.1898 -0.4432
  294MOL0     O40482   3.754  -0.184   8.353 -0.1935  0.1824 -0.4518
  294MOL0     C40483   3.673  -0.263   8.622  0.7454 -0.2946  0.5073
  294MOL0     C40484   3.589  -0.294   8.739  0.2082  0.4319  1.2322
  294MOL0     N40485   2.936  -0.411   8.889  0.0777  0.2419 -0.1164
  294MOL0     N40486   2.811  -0.436   8.922  0.4038 -0.7363  0.2274
  294MOL0     C40487   1.843   0.076   9.806  0.6580  0.3879  0.2699
  294MOL0     C40488   1.744   0.092   9.905 -0.3739  0.8299  0.1506
  294MOL0     C40489   1.354   0.194  10.108 -0.5766  0.0194 -0.0097
  294MOL0     C40490   1.397   0.101  10.207  0.7386  0.1172  0.1736
  294MOL0     C40491   1.346   0.099  10.335  0.1412  0.4360 -0.0623
  294MOL0     C40492   1.249   0.190  10.372 -0.7206 -0.1008  0.0292
  294MOL0     O40493   1.201   0.175  10.498  0.7109 -0.4997 -0.4036
  294MOL0     C40494   1.094   0.260  10.542 -0.1614 -0.4427 -0.7722
  294MOL0     C40495   1.039   0.200  10.663  0.5227  0.5311 -0.7956
  294MOL0     C40496   1.156   0.200  10.768 -0.6439 -0.1124  0.2112
  294MOL0     C40497   1.114   0.156  10.916 -0.4700  0.4432  0.5135
  294MOL0     C40498   1.040   0.026  10.913  0.1533  0.4793 -0.0764
  294MOL0     C40499   1.007  -0.089  10.909 -0.6134  0.4020  0.0053
  294MOL0     C40500   1.206   0.289  10.273 -0.6360 -0.0529  0.4030
  294MOL0     C40501   1.256   0.287  10.150 -0.2309 -1.2348  0.0952
  294MOL0     C40502   1.196   0.385  10.045  0.3008 -0.1150 -0.1250
  294MOL0     H40503   1.468   0.063   9.696  0.1120 -1.1938 -1.3209
  294MOL0     H40504   1.637   0.075   9.533  0.0789 -2.0275 -1.1157
  294MOL0     H40505   2.022  -0.070   9.664 -0.4551 -0.1384  0.6374
  294MOL0     H40506   2.073   0.095   9.623  0.6710 -0.4264 -0.6680
  294MOL0     H40507   2.018  -0.148   9.427  0.1552 -0.0020 -1.0124
  294MOL0     H40508   2.041   0.021   9.369  1.2808  0.2460 -0.1301
  294MOL0     H40509   2.259   0.031   9.470 -1.4415  0.8480 -0.2274
  294MOL0     H40510   2.244  -0.129   9.533  1.0340  0.9746  1.0193
  294MOL0     H40511   2.209  -0.220   9.313 -0.1009 -0.3187  0.5119
  294MOL0     H40512   2.260  -0.056   9.241 -1.6020 -1.5047 -0.7735
  294MOL0     H40513   2.418  -0.234   9.421  1.6569  0.3453  0.0605
  294MOL0     H40514   2.470  -0.072   9.367 -2.2766  1.3381 -0.9014
  294MOL0     H40515   2.392  -0.314   9.199 -1.4830  1.4689 -0.7140
  294MOL0     H40516   2.422  -0.159   9.122 -1.2225  0.2835 -0.2355
  294MOL0     H40517   2.629  -0.307   9.273 -0.6054  0.0864 -0.2399
  294MOL0     H40518   2.665  -0.150   9.215  0.6398 -0.9845  0.2518
  294MOL0     H40519   2.578  -0.390   9.036  1.3886 -0.7773 -0.0144
  294MOL0     H40520   2.603  -0.240   8.967  1.7437 -0.1599 -1.1195
  294MOL0     H40521   2.882  -0.208   9.143 -0.7235 -0.3694  0.3320
  294MOL0     H40522   3.131  -0.178   9.050  1.2743 -0.6414  2.0659
  294MOL0     H40523   3.173  -0.232   8.896  2.4976  0.3602  1.2115
  294MOL0     H40524   3.317  -0.355   9.078  0.2243 -2.9188 -1.1279
  294MOL0     H40525   3.171  -0.418   9.147 -0.5245 -3.1406 -0.6357
  294MOL0     H40526   3.290  -0.570   9.022 -2.0519 -0.2322  2.4167
  294MOL0     H40527   3.127  -0.552   8.961 -0.4492  0.4545 -0.2788
  294MOL0     H40528   3.283  -0.589   8.781  1.9147  0.3467  0.1688
  294MOL0     H40529   3.227  -0.425   8.761 -1.8329 -0.7363 -0.2093
  294MOL0     H40530   3.445  -0.571   8.624 -1.0591  0.1608  0.1001
  294MOL0     H40531   3.688  -0.618   8.404  1.2914  0.4765 -2.2234
  294MOL0     H40532   3.586  -0.523   8.295  0.2217  0.1817 -0.0015
  294MOL0     H40533   3.513  -0.637   8.408  1.2250 -1.3703 -2.4608
  294MOL0     H40534   4.083  -0.389   8.346 -1.5349  1.7995  1.6266
  294MOL0     H40535   4.238  -0.318   8.165  0.3317  0.6546  1.6034
  294MOL0     H40536   4.260  -0.465   7.961 -1.9806  2.1285  2.0324
  294MOL0     H40537   4.292  -0.399   7.799 -1.5587 -1.7696 -0.9697
  294MOL0     H40538   4.416  -0.195   7.917  1.4164 -1.1827 -0.2384
  294MOL0     H40539   4.415  -0.297   8.058 -1.8077 -1.4497  0.2854
  294MOL0     H40540   4.500  -0.363   7.777 -2.7420 -1.0829  0.8999
  294MOL0     H40541   4.543  -0.475   7.901  1.0014 -0.4636 -3.0474
  294MOL0     H40542   4.647  -0.275   8.037 -0.6743 -0.6358  0.4760
  294MOL0     H40543   4.689  -0.220   7.868  1.5937 -0.9141 -2.0774
  294MOL0     H40544   4.763  -0.484   8.011 -0.5232  0.0822  1.4267
  294MOL0     H40545   4.750  -0.461   7.828  2.4569  0.6062 -0.5933
  294MOL0     H40546   4.916  -0.251   7.872  1.6723  1.5533  3.1742
  294MOL0     H40547   4.976  -0.417   7.905 -2.1139 -1.4467 -0.4192
  294MOL0     H40548   4.952  -0.368   8.151  0.8004  0.5974  0.5784
  294MOL0     H40549   4.869  -0.214   8.120 -2.8843 -1.2439 -1.2940
  294MOL0     H40550   5.102  -0.160   8.164 -1.1299  2.9307 -1.0230
  294MOL0     H40551   5.080  -0.152   7.991 -1.6716 -1.2976 -0.8604
  294MOL0     H40552   3.904  -0.293   7.892 -1.1246  1.3682  1.6026
  294MOL0     H40553   3.751  -0.366   8.078 -1.1750  0.9735  1.3606
  294MOL0     H40554   3.733  -0.173   8.628  0.9160 -0.3700  0.0039
  294MOL0     H40555   3.592  -0.240   8.833 -1.3304 -1.1735  2.2826
  294MOL0     H40556   1.944   0.083   9.844 -0.1565 -0.8360  2.8498
  294MOL0     H40557   1.756   0.107  10.012  0.1213 -0.4561  0.2933
  294MOL0     H40558   1.472   0.025  10.188 -0.9227 -0.8134 -3.3733
  294MOL0     H40559   1.382   0.024  10.404 -0.2152 -0.3173 -0.6781
  294MOL0     H40560   1.128   0.361  10.563 -0.6442 -0.3417 -0.4529
  294MOL0     H40561   1.006   0.255  10.476 -1.9742 -2.2619  1.5962
  294MOL0     H40562   1.001   0.102  10.633  0.5744  0.5316 -0.8606
  294MOL0     H40563   0.967   0.266  10.712 -0.1950 -2.3250  2.4368
  294MOL0     H40564   1.227   0.122  10.739 -2.7108 -1.9996 -0.0127
  294MOL0     H40565   1.207   0.295  10.786 -0.1669 -1.0423  5.0299
  294MOL0     H40566   1.047   0.232  10.957 -0.6143 -0.1598  1.4336
  294MOL0     H40567   1.204   0.148  10.977 -0.2466  4.0625  0.8605
  294MOL0     H40568   0.991  -0.191  10.937 -0.5201  0.7494  1.4276
  294MOL0     H40569   1.122   0.356  10.288 -0.2849  1.1861 -2.6470
  294MOL0     H40570   1.116   0.448  10.086  0.2657 -1.1233  1.4478
  294MOL0     H40571   1.279   0.450  10.015  0.4146 -0.6456 -0.9754
  294MOL0     H40572   1.150   0.328   9.964  0.2277 -2.4842  1.4950
  295MOL0     O40573   5.238   5.600   7.836  0.3110 -0.0310 -0.3089
  295MOL0     C40574   5.335   5.614   7.910 -0.0883  0.1846  0.3518
  295MOL0     O40575   5.338   5.610   8.051 -0.3018 -0.2399  0.9731
  295MOL0     C40576   5.242   5.542   8.116  0.1651 -0.5630  0.1608
  295MOL0     C40577   5.147   5.613   8.197 -0.0720  0.6649  0.2048
  295MOL0     C40578   5.050   5.539   8.266 -0.1842  0.7022 -0.7828
  295MOL0     C40579   5.035   5.407   8.241 -0.5671  0.2036 -0.0779
  295MOL0     O40580   4.939   5.338   8.299 -1.0440  0.1889 -0.3859
  295MOL0     C40581   4.820   5.350   8.226  0.4469 -0.4277 -0.5884
  295MOL0     C40582   4.713   5.260   8.290  0.0777 -1.0166 -0.2946
  295MOL0     C40583   4.572   5.286   8.233  0.5019 -0.1661 -0.3300
  295MOL0     C40584   4.479   5.184   8.289  0.0050  0.5436  0.7274
  295MOL0     C40585   4.347   5.189   8.210 -0.3571 -0.0385  0.3696
  295MOL0     C40586   4.244   5.297   8.256 -0.6477  0.7416  0.0222
  295MOL0     C40587   4.119   5.294   8.170  0.1265  0.3459 -0.3768
  295MOL0     C40588   4.031   5.428   8.206 -0.1767  0.5353 -0.4090
  295MOL0     N40589   3.964   5.417   8.343  0.5967 -0.5739 -0.4023
  295MOL0     C40590   3.911   5.522   8.411  0.5734  0.8215  0.0552
  295MOL0     C40591   3.846   5.473   8.523 -0.3305  0.9369 -0.2114
  295MOL0     C40592   3.777   5.554   8.626  0.4529  0.7130 -0.3397
  295MOL0     C40593   3.877   5.621   8.723 -0.5238 -0.1930  0.3359
  295MOL0     C40594   3.975   5.518   8.779 -0.4537 -0.3733 -1.0572
  295MOL0     C40595   3.911   5.393   8.856  0.8558  0.6609  0.6819
  295MOL0     O40596   4.010   5.351   8.945 -0.6668  0.2429 -0.2197
  295MOL0     C40597   4.106   5.265   8.893 -0.5344  0.0397 -0.2382
  295MOL0     C40598   4.196   5.217   8.990 -0.0766 -0.5010 -0.0168
  295MOL0     C40599   4.303   5.135   8.959  0.5851 -0.0360  0.4250
  295MOL0     C40600   4.387   5.086   9.068  0.6760 -0.2202  0.5631
  295MOL0     C40601   4.324   5.101   8.819  0.0848  0.4545 -0.0339
  295MOL0     C40602   4.445   5.027   8.766  0.5002  0.4572  0.4359
  295MOL0     O40603   4.439   4.994   8.637 -0.3089  0.0922  0.1333
  295MOL0     C40604   4.548   4.935   8.561  0.0792 -0.2473  0.3648
  295MOL0     C40605   4.527   4.816   8.486  0.7195  0.1984 -0.9025
  295MOL0     C40606   4.630   4.763   8.404 -0.0924 -0.2378  0.0218
  295MOL0     C40607   4.757   4.829   8.399 -0.0123 -0.2505  0.5418
  295MOL0     O40608   4.856   4.771   8.319 -0.4498 -0.3537  0.1943
  295MOL0     C40609   4.981   4.836   8.322 -0.6529 -0.4148  0.0850
  295MOL0     C40610   5.092   4.767   8.228  0.3407 -0.2122 -0.9524
  295MOL0     C40611   5.238   4.817   8.226  0.6719 -1.3431  0.9651
  295MOL0     C40612   5.315   4.779   8.346  0.0189  0.5030 -0.4718
  295MOL0     C40613   5.470   4.806   8.335 -0.0931 -0.1036 -0.3832
  295MOL0     C40614   5.540   4.765   8.465  0.4818  0.0215  0.3695
  295MOL0     C40615   5.680   4.804   8.456 -0.1439  0.1568 -0.0642
  295MOL0     C40616   5.748   4.806   8.596 -0.0877 -0.6974  1.0061
  295MOL0    Cl40617   5.931   4.830   8.582  0.1739  0.0969  0.0325
  295MOL0     C40618   4.779   4.940   8.486 -0.5733 -0.6775  0.3224
  295MOL0     C40619   4.675   4.984   8.561  0.3226 -0.6847  0.5765
  295MOL0     O40620   4.538   5.009   8.838 -0.0442  0.3702 -0.3897
  295MOL0     C40621   4.229   5.149   8.725 -0.1149  0.2695  0.0363
  295MOL0     C40622   4.120   5.230   8.760  1.0746  0.7797 -0.0575
  295MOL0     N40623   3.873   5.333   8.522  0.5084 -0.8107  0.0595
  295MOL0     N40624   3.948   5.305   8.417  1.5615  0.4377 -0.1924
  295MOL0     C40625   5.123   5.339   8.154  0.2646 -0.0902 -0.0213
  295MOL0     C40626   5.229   5.407   8.096  0.7427 -0.8674 -0.1677
  295MOL0     C40627   5.471   5.613   7.846 -0.7400 -0.3127 -0.1728
  295MOL0     C40628   5.587   5.660   7.924  1.3890 -0.2931  0.4204
  295MOL0     C40629   5.717   5.643   7.872 -0.6678  0.9869  0.6379
  295MOL0     C40630   5.746   5.579   7.751 -0.3254 -0.4570  0.2586
  295MOL0     O40631   5.877   5.536   7.731 -0.4441 -0.6353  0.0579
  295MOL0     C40632   5.895   5.431   7.632  0.5345  0.5322 -0.2520
  295MOL0     C40633   6.040   5.386   7.619 -0.2145  0.3012 -0.2852
  295MOL0     C40634   6.118   5.496   7.545  0.1136  0.1299  0.3572
  295MOL0     C40635   6.271   5.479   7.573  0.9756 -1.0071 -0.2337
  295MOL0     C40636   6.334   5.366   7.498 -0.1729  0.3327  0.6053
  295MOL0     C40637   6.373   5.279   7.417 -1.1392 -0.3976  0.2875
  295MOL0     C40638   5.633   5.541   7.672  0.2373 -0.3332 -1.0586
  295MOL0     C40639   5.498   5.554   7.719  0.7159 -0.2866  0.0474
  295MOL0     C40640   5.394   5.472   7.643 -0.1718  1.2284  0.4475
  295MOL0     H40641   5.159   5.721   8.203  0.9589  0.5155  1.1250
  295MOL0     H40642   4.990   5.596   8.337  1.5760  0.9393  0.5967
  295MOL0     H40643   4.838   5.326   8.120  0.1514  3.5333 -1.7183
  295MOL0     H40644   4.794   5.455   8.241 -0.6658 -1.1477  3.8166
  295MOL0     H40645   4.738   5.161   8.251  2.6866  0.3702 -2.5720
  295MOL0     H40646   4.717   5.253   8.399  1.6076  0.4012 -0.2103
  295MOL0     H40647   4.534   5.385   8.259 -0.6071 -0.4569 -0.8172
  295MOL0     H40648   4.570   5.271   8.125 -1.8982 -0.3672 -0.3144
  295MOL0     H40649   4.527   5.087   8.274 -0.6804  0.2908  0.1287
  295MOL0     H40650   4.463   5.184   8.397  0.3075 -3.0443  0.8821
  295MOL0     H40651   4.310   5.087   8.209 -0.8575  0.1413 -0.6217
  295MOL0     H40652   4.372   5.207   8.105  1.5397  0.2975  0.8427
  295MOL0     H40653   4.233   5.283   8.364  0.8931  1.2891  0.2687
  295MOL0     H40654   4.283   5.398   8.251  1.7783 -0.0980  0.8113
  295MOL0     H40655   4.065   5.201   8.186 -0.3765  1.0424  2.7537
  295MOL0     H40656   4.157   5.296   8.068  4.1172  0.5736  0.9169
  295MOL0     H40657   4.099   5.513   8.206  1.6445 -0.7687  2.4999
  295MOL0     H40658   3.949   5.431   8.133 -0.8212  2.0309  0.3412
  295MOL0     H40659   3.920   5.626   8.382 -0.2406  0.9649  0.2905
  295MOL0     H40660   3.708   5.487   8.679  0.1991 -2.5288 -4.3102
  295MOL0     H40661   3.708   5.623   8.576 -0.7755 -1.5787 -1.9882
  295MOL0     H40662   3.937   5.695   8.668  0.3883 -0.9571  0.2679
  295MOL0     H40663   3.824   5.669   8.805 -1.6841  1.2506 -1.1716
  295MOL0     H40664   4.044   5.475   8.705 -0.1336 -0.9594 -0.4265
  295MOL0     H40665   4.034   5.576   8.850 -1.0218 -1.1658  0.1032
  295MOL0     H40666   3.822   5.429   8.908 -0.8570 -0.5979 -1.1986
  295MOL0     H40667   3.876   5.313   8.790  0.4805  0.1475  1.4887
  295MOL0     H40668   4.178   5.248   9.093 -2.3260  1.2996 -0.8496
  295MOL0     H40669   4.489   5.122   9.051  1.1432 -2.3596 -1.8373
  295MOL0     H40670   4.392   4.977   9.075 -0.3520 -0.2104  1.7354
  295MOL0     H40671   4.343   5.116   9.163 -2.6540 -1.4900 -0.4227
  295MOL0     H40672   4.425   4.779   8.485 -0.6711  3.2991  2.3771
  295MOL0     H40673   4.600   4.687   8.333 -2.0449  2.0804 -1.7846
  295MOL0     H40674   4.959   4.937   8.287 -1.1763 -0.6275 -0.2166
  295MOL0     H40675   5.010   4.840   8.427 -1.5910 -0.2759  0.3440
  295MOL0     H40676   5.092   4.659   8.243 -1.4995 -0.6601 -3.4773
  295MOL0     H40677   5.055   4.793   8.128  0.1211  1.4933 -0.4630
  295MOL0     H40678   5.234   4.926   8.219 -0.6375 -1.2854  2.2279
  295MOL0     H40679   5.284   4.774   8.137  1.0211 -0.1094  0.5213
  295MOL0     H40680   5.306   4.671   8.355 -1.8062  0.2927 -3.4012
  295MOL0     H40681   5.271   4.826   8.434  1.3885 -0.1952  0.6294
  295MOL0     H40682   5.510   4.744   8.254 -1.0281 -1.0868 -0.1099
  295MOL0     H40683   5.494   4.909   8.307 -0.8359 -0.7088 -3.5621
  295MOL0     H40684   5.530   4.658   8.486 -0.6955 -0.2110 -1.1974
  295MOL0     H40685   5.475   4.819   8.535 -2.9631 -2.9438 -0.2056
  295MOL0     H40686   5.688   4.908   8.421  1.8781  0.5305  1.3372
  295MOL0     H40687   5.736   4.741   8.387 -0.2183  0.1700 -0.1369
  295MOL0     H40688   5.715   4.712   8.641  0.6646 -0.5945  1.8091
  295MOL0     H40689   5.723   4.889   8.661  1.2131  1.0926 -0.6544
  295MOL0     H40690   4.869   4.999   8.503 -1.3024  0.4027  0.5068
  295MOL0     H40691   4.695   5.083   8.601 -0.8571  0.9522 -2.5467
  295MOL0     H40692   4.245   5.126   8.620  0.6628  1.0290 -0.0225
  295MOL0     H40693   4.041   5.254   8.690  0.7667 -2.7615 -1.1416
  295MOL0     H40694   5.112   5.231   8.152 -0.3019 -0.1763  3.3173
  295MOL0     H40695   5.304   5.359   8.033  2.0624  0.4110  0.3743
  295MOL0     H40696   5.567   5.708   8.019  0.1675  2.3328 -1.0527
  295MOL0     H40697   5.807   5.681   7.919 -0.0835 -1.1987  1.3569
  295MOL0     H40698   5.834   5.347   7.667 -0.4135  2.5018  3.3245
  295MOL0     H40699   5.860   5.470   7.536  3.0740 -0.4435 -1.6793
  295MOL0     H40700   6.046   5.295   7.558  2.3269 -0.1941  0.5619
  295MOL0     H40701   6.073   5.358   7.720  0.6137  3.0576  0.3144
  295MOL0     H40702   6.115   5.487   7.436 -1.5269  0.1852  0.3762
  295MOL0     H40703   6.088   5.597   7.571 -2.8627 -0.3554 -0.7914
  295MOL0     H40704   6.284   5.465   7.681 -0.2758  0.0833  0.0882
  295MOL0     H40705   6.330   5.569   7.554  1.2046 -0.4785  2.5232
  295MOL0     H40706   6.415   5.209   7.348  1.6576  0.1661  1.2978
  295MOL0     H40707   5.636   5.497   7.573 -2.3368 -0.4660 -1.1443
  295MOL0     H40708   5.331   5.540   7.585  0.6587 -0.0550 -2.0780
  295MOL0     H40709   5.441   5.406   7.571 -0.5002 -0.0582  1.3811
  295MOL0     H40710   5.335   5.414   7.715  0.2857 -0.6728 -0.6385
  296MOL0     O40711  10.985   4.106   6.458  0.2680 -0.1203  0.5608
  296MOL0     C40712  10.960   4.167   6.351 -0.7390  0.5445 -0.4678
  296MOL0     O40713  11.051   4.236   6.286  0.9322 -0.2954 -0.1537
  296MOL0     C40714  11.183   4.251   6.324  0.3558 -0.4516 -0.1985
  296MOL0     C40715  11.227   4.260   6.460  0.0234 -0.6183 -0.0755
  296MOL0     C40716  11.360   4.290   6.489  0.0537 -0.6826  0.1865
  296MOL0     C40717  11.460   4.304   6.384  0.0187 -0.2706  0.6882
  296MOL0     O40718  11.586   4.353   6.407  0.1278 -0.0402 -0.0516
  296MOL0     C40719  11.641   4.377   6.534  0.5306 -0.6664 -1.0048
  296MOL0     C40720  11.754   4.466   6.510  1.0015  0.5569  0.1924
  296MOL0     C40721  11.726   4.586   6.431 -0.6045 -0.4153  0.3452
  296MOL0     C40722  11.832   4.696   6.449  0.1885 -0.0120 -0.1812
  296MOL0     C40723  11.978   4.655   6.401  0.0835 -0.5754 -0.5438
  296MOL0     C40724  12.054   4.784   6.378 -0.3972 -0.4291 -0.1381
  296MOL0     C40725  12.193   4.762   6.314 -0.2152  0.5153  0.6265
  296MOL0     C40726  12.300   4.699   6.403 -0.3704 -0.1954  0.2053
  296MOL0     N40727  12.432   4.716   6.350  0.3495  0.2165  0.2142
  296MOL0     C40728  12.524   4.615   6.358  0.2064 -0.9450  0.4061
  296MOL0     C40729  12.634   4.672   6.308 -0.6800 -0.1031  0.3088
  296MOL0     C40730  12.768   4.595   6.295  0.4159  0.2198  0.7009
  296MOL0     C40731  12.903   4.675   6.318  0.6268 -0.4784  0.5049
  296MOL0     C40732  13.004   4.564   6.365  0.3912 -0.4319  0.1916
  296MOL0     C40733  13.139   4.621   6.401 -0.3008 -0.6860 -0.9201
  296MOL0     O40734  13.233   4.508   6.422  0.6089  0.5529  0.1265
  296MOL0     C40735  13.362   4.546   6.434 -1.3393  0.0721  0.6195
  296MOL0     C40736  13.408   4.663   6.496 -0.6215 -0.1254  0.6157
  296MOL0     C40737  13.545   4.695   6.495 -0.1018  0.5030  0.7668
  296MOL0     C40738  13.593   4.811   6.573 -0.2760  0.0921  0.1683
  296MOL0     C40739  13.633   4.614   6.421 -0.4746  0.2478 -1.0123
  296MOL0     C40740  13.781   4.644   6.409  0.4830 -0.5727 -1.0701
  296MOL0     O40741  13.866   4.555   6.451  0.0423  0.1045 -0.5746
  296MOL0     C40742  14.005   4.566   6.448  0.2146 -0.6084  0.2851
  296MOL0     C40743  14.076   4.646   6.550  0.8036 -0.7445  0.0012
  296MOL0     C40744  14.211   4.671   6.528 -0.4485 -0.6771 -0.4392
  296MOL0     C40745  14.280   4.615   6.421 -0.6002 -0.0350  0.3996
  296MOL0     O40746  14.408   4.647   6.382  0.3342 -0.2742 -0.5864
  296MOL0     C40747  14.493   4.738   6.455 -0.1276 -0.8102  0.3981
  296MOL0     C40748  14.638   4.727   6.417 -0.4627  0.4195  1.1705
  296MOL0     C40749  14.656   4.759   6.263 -0.1697 -0.6547  0.6943
  296MOL0     C40750  14.799   4.734   6.217 -0.2906  0.9821 -0.2601
  296MOL0     C40751  14.819   4.756   6.069  0.1853 -0.1080 -0.2994
  296MOL0     C40752  14.920   4.665   6.003 -0.7926 -0.1648  0.1470
  296MOL0     C40753  15.059   4.699   6.054 -0.1253  0.0747  0.5935
  296MOL0     C40754  15.167   4.620   5.988 -0.2318 -0.1802 -0.7898
  296MOL0    Cl40755  15.326   4.684   6.040 -0.0681  0.3514 -0.2117
  296MOL0     C40756  14.216   4.525   6.337  0.5865 -0.1047 -0.0527
  296MOL0     C40757  14.082   4.504   6.344  0.3872 -0.4996  0.0108
  296MOL0     O40758  13.809   4.753   6.367 -0.2967 -0.0758 -0.0087
  296MOL0     C40759  13.578   4.500   6.355  0.0100  0.3952 -1.0225
  296MOL0     C40760  13.448   4.459   6.363 -0.6332 -0.6668 -0.3295
  296MOL0     N40761  12.610   4.802   6.276  0.1503 -0.5971  0.2036
  296MOL0     N40762  12.481   4.829   6.307  0.1875 -0.4313 -0.5477
  296MOL0     C40763  11.417   4.291   6.248  0.4563  0.0384  1.0695
  296MOL0     C40764  11.282   4.274   6.223  0.2259  0.5099  0.5576
  296MOL0     C40765  10.820   4.172   6.300 -0.2408  0.0923 -0.2647
  296MOL0     C40766  10.803   4.194   6.166 -0.7321  0.0848  0.1306
  296MOL0     C40767  10.683   4.180   6.103  0.2986 -0.3398 -0.4566
  296MOL0     C40768  10.568   4.143   6.171 -0.1271 -0.0529  0.1527
  296MOL0     O40769  10.455   4.132   6.100 -0.0792 -0.0611  0.0255
  296MOL0     C40770  10.326   4.128   6.169 -0.3351 -0.0120 -1.0486
  296MOL0     C40771  10.268   3.995   6.218 -0.4503 -0.2701 -0.7745
  296MOL0     C40772  10.214   3.907   6.108 -0.2946  0.1507  0.3838
  296MOL0     C40773  10.324   3.854   6.008  0.8956 -0.1202 -0.0729
  296MOL0     C40774  10.440   3.799   6.076 -0.8719  0.4372  0.7056
  296MOL0     C40775  10.547   3.748   6.104  0.7490  0.1838 -0.2278
  296MOL0     C40776  10.579   4.130   6.312 -0.0952 -0.0235  0.2256
  296MOL0     C40777  10.702   4.142   6.374  0.0364 -0.0553  0.3877
  296MOL0     C40778  10.706   4.130   6.522 -0.1500 -0.3383 -0.0695
  296MOL0     H40779  11.158   4.243   6.543 -0.3903  2.2835  0.2892
  296MOL0     H40780  11.393   4.293   6.593  1.7351  2.9799 -0.3029
  296MOL0     H40781  11.671   4.285   6.585 -0.8931 -0.7880 -0.3248
  296MOL0     H40782  11.577   4.432   6.605  2.6957 -1.6919  1.9674
  296MOL0     H40783  11.804   4.495   6.602  0.1591  2.4690  0.1026
  296MOL0     H40784  11.840   4.411   6.471  3.4461  2.7171  2.2061
  296MOL0     H40785  11.705   4.574   6.324 -0.0485  0.8683  0.0790
  296MOL0     H40786  11.629   4.629   6.459 -1.3895  0.4194 -3.2118
  296MOL0     H40787  11.799   4.791   6.406  0.6962  0.6785  0.9340
  296MOL0     H40788  11.845   4.723   6.554  0.4349  0.3000 -0.2896
  296MOL0     H40789  11.964   4.611   6.302 -2.6539  0.4831 -0.7324
  296MOL0     H40790  12.031   4.587   6.468  3.9532  2.5793 -0.0269
  296MOL0     H40791  11.991   4.849   6.316 -1.1498 -1.7727 -0.8399
  296MOL0     H40792  12.065   4.828   6.477 -2.6328 -1.7392  0.7651
  296MOL0     H40793  12.236   4.855   6.275  2.3350 -0.5613  0.7265
  296MOL0     H40794  12.190   4.702   6.222  2.7828 -1.2418  1.5601
  296MOL0     H40795  12.297   4.744   6.502 -2.8487 -2.2784  1.1687
  296MOL0     H40796  12.274   4.594   6.416 -0.8272 -0.0106  0.8076
  296MOL0     H40797  12.501   4.512   6.386 -2.4355 -0.6537 -0.3573
  296MOL0     H40798  12.765   4.558   6.193  1.5686 -2.4984  1.5662
  296MOL0     H40799  12.752   4.510   6.361 -0.3062  0.0190  0.2838
  296MOL0     H40800  12.931   4.721   6.222  1.6539 -0.1454  0.9546
  296MOL0     H40801  12.888   4.752   6.394 -0.1796  1.3685 -1.4088
  296MOL0     H40802  12.962   4.505   6.447  0.0709  2.7834  2.5214
  296MOL0     H40803  13.011   4.495   6.280 -0.7918  0.9272 -1.0791
  296MOL0     H40804  13.186   4.686   6.327 -1.6765  2.4405  0.7494
  296MOL0     H40805  13.131   4.685   6.490  1.5601  0.9784 -1.8666
  296MOL0     H40806  13.341   4.727   6.553  0.5578  0.2791  1.5836
  296MOL0     H40807  13.654   4.890   6.527 -3.1683  1.9672 -0.7112
  296MOL0     H40808  13.654   4.777   6.658  1.1754  2.0649  0.0010
  296MOL0     H40809  13.506   4.868   6.606  0.3993  2.0242 -1.1659
  296MOL0     H40810  14.017   4.695   6.627  0.3612 -0.4637 -0.5058
  296MOL0     H40811  14.265   4.734   6.598 -0.2115 -0.8622 -0.4523
  296MOL0     H40812  14.446   4.836   6.452  0.1448 -0.5942  2.0895
  296MOL0     H40813  14.482   4.721   6.563  1.2831 -0.4487  0.6232
  296MOL0     H40814  14.700   4.783   6.487 -0.1091 -1.3851  2.3661
  296MOL0     H40815  14.676   4.625   6.424 -1.4585 -0.4090 -2.8064
  296MOL0     H40816  14.640   4.867   6.256 -1.2610 -0.8337  0.3670
  296MOL0     H40817  14.577   4.713   6.203 -1.1793 -0.4292  1.8068
  296MOL0     H40818  14.814   4.626   6.226 -1.8301  0.7477 -0.3018
  296MOL0     H40819  14.872   4.790   6.278  1.7465 -0.6260 -1.0995
  296MOL0     H40820  14.724   4.737   6.018  1.5479  1.2734 -3.6521
  296MOL0     H40821  14.841   4.862   6.053 -0.0243 -0.1027 -0.5743
  296MOL0     H40822  14.926   4.688   5.896  1.8706 -1.9006 -0.1703
  296MOL0     H40823  14.901   4.560   6.026 -1.4921 -0.3133 -1.0363
  296MOL0     H40824  15.072   4.679   6.161 -4.9903 -1.1911  1.1816
  296MOL0     H40825  15.079   4.806   6.045 -3.3119  0.6476 -1.3935
  296MOL0     H40826  15.173   4.626   5.878 -2.6636 -2.1124 -1.1290
  296MOL0     H40827  15.159   4.515   6.016 -2.5915  0.2352  0.2948
  296MOL0     H40828  14.261   4.464   6.259 -1.8536 -2.4370  0.2245
  296MOL0     H40829  14.043   4.433   6.272  1.8017 -3.2579  1.7835
  296MOL0     H40830  13.635   4.432   6.293  0.2085 -0.4828  0.0828
  296MOL0     H40831  13.412   4.377   6.301  0.1254 -0.2258 -1.3836
  296MOL0     H40832  11.492   4.292   6.169 -0.5587  0.8789  0.0722
  296MOL0     H40833  11.245   4.260   6.122  1.8523  1.4281 -0.2130
  296MOL0     H40834  10.896   4.200   6.111  0.2891 -2.0414  1.4823
  296MOL0     H40835  10.688   4.191   5.996  1.8524 -2.4118 -0.6680
  296MOL0     H40836  10.330   4.195   6.256  0.1023 -0.9808 -0.3082
  296MOL0     H40837  10.250   4.164   6.099 -2.1015 -1.7227 -0.1119
  296MOL0     H40838  10.181   4.030   6.275 -0.2647 -1.6663  0.4086
  296MOL0     H40839  10.349   3.944   6.271 -0.3897  1.9927  1.5223
  296MOL0     H40840  10.170   3.816   6.150 -1.3210  0.4461 -0.0391
  296MOL0     H40841  10.130   3.957   6.059 -1.4235 -1.8529  0.1438
  296MOL0     H40842  10.351   3.943   5.951 -0.5679  0.9312  0.7894
  296MOL0     H40843  10.281   3.779   5.941  0.3758  0.1000  0.0028
  296MOL0     H40844  10.640   3.696   6.113  0.9987  0.6195 -0.2774
  296MOL0     H40845  10.493   4.098   6.370 -0.5413 -0.7026 -0.7819
  296MOL0     H40846  10.763   4.043   6.557  0.1966 -0.0113  0.1960
  296MOL0     H40847  10.754   4.218   6.568 -1.8930 -0.2386  1.6457
  296MOL0     H40848  10.606   4.116   6.563  0.9075 -0.3500  2.7789
  297MOL0     O40849   9.027   2.922   3.320 -0.4397  0.2597  0.1247
  297MOL0     C40850   9.034   2.945   3.198 -0.0467 -0.0001 -0.0558
  297MOL0     O40851   9.154   2.960   3.123  0.6353  0.5958  0.2375
  297MOL0     C40852   9.273   2.978   3.183 -1.1904  0.3632 -0.8307
  297MOL0     C40853   9.389   2.922   3.120 -0.1123  0.1635 -0.1979
  297MOL0     C40854   9.513   2.958   3.163  0.4040  0.2930  0.3500
  297MOL0     C40855   9.530   3.043   3.273  0.1157 -0.5560  0.4975
  297MOL0     O40856   9.660   3.091   3.292  0.0515 -0.3227  0.0584
  297MOL0     C40857   9.689   3.155   3.411 -0.1342 -0.1654 -0.2076
  297MOL0     C40858   9.840   3.155   3.430 -0.4095  0.6713  0.1260
  297MOL0     C40859   9.882   3.219   3.567  0.0488  0.0070 -0.6445
  297MOL0     C40860  10.029   3.266   3.553 -0.0604  0.1695 -0.4934
  297MOL0     C40861  10.105   3.282   3.683 -0.6755 -0.4660 -0.7030
  297MOL0     C40862  10.160   3.145   3.744  0.1528 -0.5805  0.4448
  297MOL0     C40863  10.264   3.170   3.843 -0.7119 -0.6507  0.0575
  297MOL0     C40864  10.331   3.045   3.890 -0.3650 -0.7323  0.6306
  297MOL0     N40865  10.435   3.084   3.987 -0.5186 -0.3006 -0.4885
  297MOL0     C40866  10.430   3.157   4.100 -0.4588 -0.5579  0.0304
  297MOL0     C40867  10.547   3.169   4.159  0.0427 -0.1548 -0.1747
  297MOL0     C40868  10.587   3.238   4.288  0.4792 -0.4944  0.8969
  297MOL0     C40869  10.632   3.141   4.402 -0.1826  0.1203  0.6130
  297MOL0     C40870  10.769   3.084   4.360 -0.4447 -1.0423 -0.1035
  297MOL0     C40871  10.819   2.993   4.473  0.8564  0.2567 -0.0144
  297MOL0     O40872  10.955   2.946   4.434  0.2329 -0.2030  0.9393
  297MOL0     C40873  11.063   3.026   4.418  0.7714 -0.4160  0.5611
  297MOL0     C40874  11.088   3.150   4.471 -0.3836 -0.3418  0.5180
  297MOL0     C40875  11.207   3.219   4.460 -0.5265  0.0331  0.1974
  297MOL0     C40876  11.227   3.358   4.527  0.0663 -0.6927  0.0750
  297MOL0     C40877  11.316   3.151   4.395  0.4611 -0.5245 -0.0304
  297MOL0     C40878  11.459   3.199   4.381  0.4241  0.8447  0.0305
  297MOL0     O40879  11.547   3.114   4.329  0.4679  0.5452  0.8572
  297MOL0     C40880  11.681   3.112   4.352  0.6842  0.3178  0.0321
  297MOL0     C40881  11.755   3.014   4.279 -0.3782  0.1469 -0.2160
  297MOL0     C40882  11.892   2.998   4.293  0.5212 -0.3988  1.0359
  297MOL0     C40883  11.954   3.077   4.389  0.5080 -0.3129  0.0088
  297MOL0     O40884  12.089   3.061   4.414  0.7681  0.2194  0.3690
  297MOL0     C40885  12.109   3.013   4.545 -0.0081 -0.5152  0.3663
  297MOL0     C40886  12.203   2.891   4.549  0.2295  0.0725 -0.3870
  297MOL0     C40887  12.347   2.931   4.516 -0.3274 -0.2659 -0.2814
  297MOL0     C40888  12.424   2.798   4.536 -0.7524 -0.3068 -0.2303
  297MOL0     C40889  12.576   2.825   4.508  0.4434  0.4199  0.0907
  297MOL0     C40890  12.649   2.687   4.529  0.1577 -0.3353  0.8665
  297MOL0     C40891  12.783   2.697   4.457  0.5314 -0.1138  0.5582
  297MOL0     C40892  12.883   2.596   4.494 -0.0503  1.2086  0.1193
  297MOL0    Cl40893  12.928   2.610   4.676 -0.0728  0.6323 -0.1842
  297MOL0     C40894  11.878   3.172   4.466 -0.6701 -0.2566 -0.2400
  297MOL0     C40895  11.740   3.188   4.448 -0.3641 -0.1421  0.4225
  297MOL0     O40896  11.482   3.320   4.402 -0.3281  0.4821  0.1057
  297MOL0     C40897  11.290   3.024   4.352 -0.2696  0.8059  0.0759
  297MOL0     C40898  11.172   2.962   4.374  0.7174  0.4904  0.9097
  297MOL0     N40899  10.629   3.080   4.082 -0.3221  0.4179 -0.1766
  297MOL0     N40900  10.562   3.044   3.975  0.1561 -0.0549 -0.5188
  297MOL0     C40901   9.416   3.094   3.339  0.2549  0.0534  1.2319
  297MOL0     C40902   9.292   3.072   3.292 -0.2520 -0.0192  1.0360
  297MOL0     C40903   8.907   2.927   3.126 -0.0369  0.4462 -0.0933
  297MOL0     C40904   8.913   2.889   2.990 -0.5951 -0.6866 -0.1421
  297MOL0     C40905   8.801   2.871   2.916 -0.8245  0.0800 -0.1432
  297MOL0     C40906   8.674   2.878   2.975 -0.1608 -0.3112 -0.2298
  297MOL0     O40907   8.570   2.863   2.890  0.5710  1.8946 -0.5534
  297MOL0     C40908   8.436   2.872   2.950  0.6835  0.4657  0.4986
  297MOL0     C40909   8.335   2.825   2.842  0.0032  0.6276 -0.3292
  297MOL0     C40910   8.359   2.682   2.800 -0.2641 -0.2986 -0.2229
  297MOL0     C40911   8.245   2.639   2.705 -0.3714 -0.5416  0.3366
  297MOL0     C40912   8.119   2.609   2.773  0.4552  0.3044 -0.2157
  297MOL0     C40913   8.010   2.588   2.812 -0.1765 -0.2808 -1.2326
  297MOL0     C40914   8.667   2.930   3.105 -0.1335  0.6652 -0.7179
  297MOL0     C40915   8.776   2.937   3.184 -0.6456 -0.2892 -0.2823
  297MOL0     C40916   8.757   2.979   3.324 -0.3285 -1.1380  0.2843
  297MOL0     H40917   9.378   2.869   3.026  0.2790  0.0519 -0.1809
  297MOL0     H40918   9.600   2.921   3.110  1.3051 -0.4262  2.2599
  297MOL0     H40919   9.650   3.103   3.499 -2.8759  1.0573 -0.6229
  297MOL0     H40920   9.647   3.256   3.412 -0.5875 -0.3519 -0.0608
  297MOL0     H40921   9.876   3.052   3.440  3.6989  1.9873  0.8999
  297MOL0     H40922   9.885   3.198   3.340 -3.3609  0.8825 -1.3601
  297MOL0     H40923   9.822   3.302   3.605  2.2438  0.5701  1.8783
  297MOL0     H40924   9.881   3.141   3.644  1.5340 -0.6956 -1.2918
  297MOL0     H40925  10.100   3.208   3.493  0.9560  0.3065  0.5543
  297MOL0     H40926  10.011   3.360   3.501  0.4124  0.1911 -0.6170
  297MOL0     H40927  10.042   3.321   3.763  0.9195  0.9042 -0.0502
  297MOL0     H40928  10.190   3.348   3.663  1.1634 -2.3000  0.6829
  297MOL0     H40929  10.083   3.090   3.799 -1.1442  0.3951 -0.3197
  297MOL0     H40930  10.190   3.079   3.662 -1.9275  0.3552 -1.1959
  297MOL0     H40931  10.221   3.220   3.930  1.2981  1.8299 -0.2187
  297MOL0     H40932  10.340   3.237   3.800 -0.9691  0.2596  0.9724
  297MOL0     H40933  10.271   2.965   3.934  1.2358 -2.0683  0.4885
  297MOL0     H40934  10.372   2.995   3.802  4.3055 -1.8124  3.0718
  297MOL0     H40935  10.342   3.212   4.132 -1.4366 -1.7785 -0.4804
  297MOL0     H40936  10.489   3.278   4.319  0.9058  1.7307 -0.4213
  297MOL0     H40937  10.666   3.312   4.277 -1.6904  2.5419  3.5320
  297MOL0     H40938  10.648   3.189   4.499  0.7430  0.1978  0.4295
  297MOL0     H40939  10.563   3.057   4.409 -0.0022  0.1124  3.4938
  297MOL0     H40940  10.775   3.024   4.268  3.4118 -1.4740  0.2908
  297MOL0     H40941  10.839   3.166   4.344  1.0757 -2.3321 -0.2746
  297MOL0     H40942  10.830   3.044   4.569 -0.0544 -1.7570  1.2280
  297MOL0     H40943  10.758   2.905   4.497 -1.0033  1.3612 -0.5037
  297MOL0     H40944  11.002   3.202   4.512  1.3855  0.8592  3.0213
  297MOL0     H40945  11.147   3.393   4.594 -0.2527  0.2566 -0.7776
  297MOL0     H40946  11.227   3.443   4.458  2.3388 -0.4156  0.3441
  297MOL0     H40947  11.317   3.360   4.590  1.2111  1.2448 -1.5113
  297MOL0     H40948  11.706   2.951   4.205 -0.7005  2.0154 -1.6563
  297MOL0     H40949  11.944   2.925   4.232 -0.9286 -0.1426 -0.5785
  297MOL0     H40950  12.145   3.088   4.615 -0.4049 -2.6639  3.0611
  297MOL0     H40951  12.019   2.974   4.594  1.7781 -3.6380  1.4935
  297MOL0     H40952  12.205   2.857   4.653 -0.1413  4.3773  1.2239
  297MOL0     H40953  12.174   2.813   4.478 -0.2422  0.6609 -0.8525
  297MOL0     H40954  12.388   3.009   4.582  0.8851 -2.1451  1.2907
  297MOL0     H40955  12.356   2.972   4.415 -1.2905  2.7617  0.7458
  297MOL0     H40956  12.384   2.725   4.465  0.0372 -0.9645 -0.0131
  297MOL0     H40957  12.411   2.765   4.639 -0.1974 -1.2582 -0.4499
  297MOL0     H40958  12.599   2.859   4.407 -0.3974  4.9093  1.1735
  297MOL0     H40959  12.618   2.895   4.581  0.6766  1.1745 -0.7494
  297MOL0     H40960  12.588   2.615   4.474 -1.0222 -1.5110  3.4964
  297MOL0     H40961  12.660   2.666   4.636  1.4951 -2.4077  0.3887
  297MOL0     H40962  12.823   2.796   4.480  1.8356 -0.7666  1.2191
  297MOL0     H40963  12.775   2.709   4.349  2.9278  2.4579  0.5530
  297MOL0     H40964  12.973   2.599   4.432  0.6703 -0.1615  1.0522
  297MOL0     H40965  12.821   2.507   4.484 -1.5664  2.2717 -0.3993
  297MOL0     H40966  11.930   3.235   4.538 -1.6847  0.5683 -0.2081
  297MOL0     H40967  11.686   3.253   4.515 -1.4315 -0.3873 -0.1796
  297MOL0     H40968  11.368   2.958   4.317 -2.7136 -1.2001 -1.9860
  297MOL0     H40969  11.161   2.856   4.352  2.5544  0.6800 -1.3167
  297MOL0     H40970   9.425   3.165   3.420  2.4368 -1.3642  2.3597
  297MOL0     H40971   9.213   3.130   3.339  0.5430  2.5918 -0.6587
  297MOL0     H40972   9.008   2.876   2.939 -0.5374 -0.0889 -0.1954
  297MOL0     H40973   8.805   2.838   2.812 -1.8417  1.6032 -0.6996
  297MOL0     H40974   8.418   2.794   3.024 -0.2739 -1.6178 -1.7786
  297MOL0     H40975   8.423   2.970   2.998  0.8915 -0.7340  3.1906
  297MOL0     H40976   8.345   2.890   2.754  1.2093  2.7318  1.2503
  297MOL0     H40977   8.233   2.823   2.882  0.1390 -0.8358 -0.0132
  297MOL0     H40978   8.446   2.667   2.735 -0.6064 -4.3464 -0.0106
  297MOL0     H40979   8.366   2.623   2.892 -2.7345 -0.2212  0.0718
  297MOL0     H40980   8.275   2.549   2.650  1.0456 -1.3569  2.3291
  297MOL0     H40981   8.215   2.718   2.636 -0.7588  0.1436  1.2593
  297MOL0     H40982   7.909   2.570   2.843  0.4053 -1.3643  0.0870
  297MOL0     H40983   8.571   2.931   3.156 -1.3701 -1.2932 -2.7686
  297MOL0     H40984   8.818   3.069   3.335 -0.3790 -1.3627  3.2018
  297MOL0     H40985   8.650   2.989   3.347 -0.1175  0.0996  0.7657
  297MOL0     H40986   8.799   2.913   3.400  1.0561  1.4505  1.8992
  298MOL0     O40987  10.557  10.341   9.382 -0.6523 -0.2816 -0.4861
  298MOL0     C40988  10.510  10.317   9.493  0.0987 -0.2567  0.2326
  298MOL0     O40989  10.570  10.337   9.616 -0.1913  0.3901 -0.5518
  298MOL0     C40990  10.700  10.382   9.621  0.4044 -0.0638 -0.2493
  298MOL0     C40991  10.736  10.514   9.590  0.3370 -0.5073 -0.4851
  298MOL0     C40992  10.867  10.554   9.591 -0.3243 -0.2662  1.0096
  298MOL0     C40993  10.961  10.461   9.633  0.1276  0.2675 -0.1290
  298MOL0     O40994  11.097  10.480   9.635  0.6092  0.3659 -0.2740
  298MOL0     C40995  11.163  10.460   9.511 -0.3807 -0.4445  0.4072
  298MOL0     C40996  11.250  10.328   9.516  0.4430  0.1119 -0.7909
  298MOL0     C40997  11.350  10.323   9.633 -0.8975 -1.2462 -0.2594
  298MOL0     C40998  11.459  10.222   9.613 -0.0737  0.5736 -0.9096
  298MOL0     C40999  11.542  10.184   9.738 -0.6200  0.0420  0.5320
  298MOL0     C41000  11.612  10.302   9.803  0.6425 -0.1484  0.1759
  298MOL0     C41001  11.707  10.373   9.704  0.2465  0.1250  0.0587
  298MOL0     C41002  11.803  10.461   9.774 -0.3188  0.2731  0.2264
  298MOL0     N41003  11.918  10.509   9.689  0.4829 -0.3017  0.6608
  298MOL0     C41004  11.919  10.633   9.628  0.0487  0.3452 -0.1305
  298MOL0     C41005  12.049  10.654   9.583  0.2876  0.9509 -0.8429
  298MOL0     C41006  12.107  10.760   9.501  0.5011 -0.5064 -0.5100
  298MOL0     C41007  12.250  10.738   9.461  0.0478  0.8827 -0.3506
  298MOL0     C41008  12.302  10.846   9.376  0.3183  0.9459  0.6136
  298MOL0     C41009  12.437  10.820   9.304 -0.2008 -0.0659  0.1291
  298MOL0     O41010  12.539  10.750   9.373 -0.0652 -0.1478 -0.2331
  298MOL0     C41011  12.604  10.808   9.478  0.1343 -0.3349 -0.7593
  298MOL0     C41012  12.586  10.940   9.523  0.9909  0.1509 -1.3332
  298MOL0     C41013  12.640  10.982   9.647 -0.0032 -0.2279  0.3751
  298MOL0     C41014  12.618  11.137   9.686 -0.4406  0.5702  0.1377
  298MOL0     C41015  12.718  10.892   9.729  0.4390 -0.2486 -0.0358
  298MOL0     C41016  12.791  10.931   9.846  0.3233 -0.1815 -0.5799
  298MOL0     O41017  12.756  11.045   9.902  0.3064  0.1125 -0.4382
  298MOL0     C41018  12.819  11.083  10.016 -0.8004 -0.1115  0.2690
  298MOL0     C41019  12.942  11.146  10.008 -0.5882 -0.8485 -0.5552
  298MOL0     C41020  13.012  11.178  10.125  0.3598 -0.8152 -0.8312
  298MOL0     C41021  12.942  11.175  10.242  0.0121  0.2482 -0.1720
  298MOL0     O41022  13.010  11.238  10.347  0.6065 -0.0096  0.2618
  298MOL0     C41023  12.969  11.198  10.482 -0.7138 -0.2511 -1.1349
  298MOL0     C41024  13.035  11.269  10.597 -0.6176  0.2990  0.6771
  298MOL0     C41025  12.993  11.421  10.596  1.0159 -0.0836  0.3255
  298MOL0     C41026  13.068  11.499  10.716 -0.7330 -0.6543  0.2743
  298MOL0     C41027  13.057  11.653  10.708  0.3310 -0.0275 -0.5121
  298MOL0     C41028  12.913  11.698  10.718  0.8987 -0.0403  0.5310
  298MOL0     C41029  12.893  11.852  10.710 -0.6498 -0.1588  0.2043
  298MOL0     C41030  12.926  11.911  10.841  0.3645 -0.4527 -0.5680
  298MOL0    Cl41031  12.862  12.073  10.858 -0.0592 -0.4321  0.1664
  298MOL0     C41032  12.814  11.124  10.250  0.6885 -0.2454  0.2872
  298MOL0     C41033  12.749  11.076  10.138  0.0741 -0.1174 -0.6618
  298MOL0     O41034  12.893  10.870   9.872  0.4061  0.3718 -0.1845
  298MOL0     C41035  12.730  10.758   9.690  0.0214  0.2871  0.5541
  298MOL0     C41036  12.669  10.712   9.568  0.3959  0.0057 -0.1551
  298MOL0     N41037  12.110  10.528   9.607 -0.4342  0.4791 -0.2488
  298MOL0     N41038  12.035  10.447   9.667 -0.9440  0.2289 -0.9288
  298MOL0     C41039  10.924  10.328   9.673  0.6075 -0.5611 -0.1802
  298MOL0     C41040  10.794  10.287   9.666 -0.2691  0.2780  0.0479
  298MOL0     C41041  10.382  10.249   9.485  0.1831  0.5585  0.0345
  298MOL0     C41042  10.273  10.316   9.546 -0.5988 -0.2742 -0.5648
  298MOL0     C41043  10.148  10.263   9.547 -0.0987 -0.4292  0.5007
  298MOL0     C41044  10.121  10.151   9.474 -0.7977  0.1567  0.8599
  298MOL0     O41045   9.988  10.114   9.459 -0.2246 -0.4797  0.4632
  298MOL0     C41046   9.886  10.134   9.558 -0.7120 -0.1321  0.0852
  298MOL0     C41047   9.821  10.005   9.598 -1.2149  0.7536  0.6455
  298MOL0     C41048   9.757  10.012   9.735  0.2752 -0.0051  0.3636
  298MOL0     C41049   9.679   9.887   9.762  0.2840  0.0999  0.0729
  298MOL0     C41050   9.595   9.901   9.881  0.1975  0.0043 -0.4379
  298MOL0     C41051   9.537   9.928   9.986  0.0663 -0.0036  0.5929
  298MOL0     C41052  10.230  10.084   9.412 -0.0630 -0.1519  0.0952
  298MOL0     C41053  10.366  10.126   9.419 -0.6098  0.5781 -0.0851
  298MOL0     C41054  10.479  10.052   9.352  0.7707  0.6954 -0.6381
  298MOL0     H41055  10.654  10.571   9.547  0.3051  1.2953  1.7326
  298MOL0     H41056  10.915  10.644   9.554 -2.1279 -0.0105 -0.9053
  298MOL0     H41057  11.215  10.551   9.478 -1.7801  0.8450  1.5871
  298MOL0     H41058  11.088  10.435   9.437  0.9731  1.0381 -1.5813
  298MOL0     H41059  11.192  10.235   9.518 -1.3629  1.1433  2.9117
  298MOL0     H41060  11.311  10.317   9.425  4.0305  2.2905  1.1074
  298MOL0     H41061  11.398  10.421   9.642 -4.2007  0.5228 -0.2570
  298MOL0     H41062  11.304  10.305   9.731  1.6500  1.4766  1.5923
  298MOL0     H41063  11.425  10.131   9.563 -0.0445  0.5396 -0.8661
  298MOL0     H41064  11.531  10.260   9.538 -0.0110  2.0444 -0.1456
  298MOL0     H41065  11.612  10.107   9.705  0.5219  0.3268  2.2097
  298MOL0     H41066  11.479  10.134   9.811 -0.2895 -3.8055 -1.5866
  298MOL0     H41067  11.530  10.365   9.837  0.0928 -0.6665 -0.1743
  298MOL0     H41068  11.670  10.276   9.892  0.4253 -3.6689 -0.5680
  298MOL0     H41069  11.642  10.439   9.647 -0.4333 -0.6914 -0.1394
  298MOL0     H41070  11.758  10.296   9.645  0.6463  0.8576 -0.5489
  298MOL0     H41071  11.746  10.551   9.802  0.2043  0.9516 -0.8216
  298MOL0     H41072  11.859  10.401   9.845 -1.3530 -2.4144 -1.0793
  298MOL0     H41073  11.832  10.695   9.611  0.7131  1.5230  0.6114
  298MOL0     H41074  12.092  10.853   9.557  2.1308 -0.3747 -0.2479
  298MOL0     H41075  12.043  10.776   9.414  1.4409 -0.4579 -1.2022
  298MOL0     H41076  12.310  10.717   9.551 -0.2381  2.0512  0.1394
  298MOL0     H41077  12.245  10.641   9.412 -2.1278 -0.6793  2.6319
  298MOL0     H41078  12.224  10.866   9.301 -0.1442  0.0494  0.8505
  298MOL0     H41079  12.318  10.941   9.427 -0.8452  1.0779  0.7528
  298MOL0     H41080  12.422  10.761   9.214  4.0195 -1.9761  0.4650
  298MOL0     H41081  12.469  10.916   9.262 -1.0644  0.6294  1.0050
  298MOL0     H41082  12.537  11.016   9.463 -0.5996  3.1708  3.2462
  298MOL0     H41083  12.573  11.146   9.785 -0.3037  2.2284  0.0730
  298MOL0     H41084  12.571  11.185   9.599  2.8248  0.0355 -2.1160
  298MOL0     H41085  12.715  11.185   9.673 -0.1166 -0.3020 -0.9435
  298MOL0     H41086  12.992  11.147   9.912 -0.4618  1.4997 -0.5152
  298MOL0     H41087  13.113  11.220  10.125 -0.2150  0.6283  0.0450
  298MOL0     H41088  12.863  11.218  10.497 -0.3719 -0.4179  2.4870
  298MOL0     H41089  12.992  11.093  10.502  1.7582  0.2334 -1.0606
  298MOL0     H41090  13.002  11.222  10.690 -2.1914  2.1103  1.1005
  298MOL0     H41091  13.144  11.260  10.585 -1.0829 -1.4449 -3.7924
  298MOL0     H41092  12.886  11.431  10.612  1.3630  3.8271  1.2167
  298MOL0     H41093  13.024  11.464  10.500  0.2063  1.4056  0.7063
  298MOL0     H41094  13.175  11.479  10.716 -0.3106  1.3583  1.5216
  298MOL0     H41095  13.025  11.475  10.813  0.6621  3.2925  2.0908
  298MOL0     H41096  13.124  11.693  10.784  1.1820 -1.3175 -0.5440
  298MOL0     H41097  13.103  11.682  10.613 -1.7056  1.8207 -1.0154
  298MOL0     H41098  12.869  11.641  10.801 -1.8864 -1.4519 -1.7097
  298MOL0     H41099  12.859  11.665  10.629  2.6150 -2.0553  0.1801
  298MOL0     H41100  12.787  11.867  10.687 -0.2440 -0.1494 -1.9357
  298MOL0     H41101  12.957  11.896  10.632 -0.9951 -1.4200 -0.8362
  298MOL0     H41102  13.034  11.901  10.855  0.6763 -1.8543 -3.2661
  298MOL0     H41103  12.891  11.845  10.921  1.3058 -0.8885 -0.4971
  298MOL0     H41104  12.740  11.120  10.329 -0.1294  0.6566 -0.3946
  298MOL0     H41105  12.648  11.038  10.149  0.4160 -0.4082  2.4293
  298MOL0     H41106  12.780  10.697   9.765 -0.5953  1.1460  1.6925
  298MOL0     H41107  12.681  10.606   9.545  2.3594  0.0761  0.3696
  298MOL0     H41108  10.998  10.256   9.706  1.0141  0.3535  1.0004
  298MOL0     H41109  10.755  10.191   9.698 -1.5944  1.2993  1.6705
  298MOL0     H41110  10.294  10.417   9.580 -0.8339  0.0617 -1.4023
  298MOL0     H41111  10.073  10.329   9.590  0.5181  0.7514 -0.1641
  298MOL0     H41112   9.919  10.189   9.646  2.3276 -0.6794 -0.5720
  298MOL0     H41113   9.800  10.182   9.511  0.1376  0.9112 -0.4285
  298MOL0     H41114   9.891   9.923   9.583 -2.3966 -0.1094 -0.2793
  298MOL0     H41115   9.748   9.974   9.523  1.3648 -0.0715 -1.6752
  298MOL0     H41116   9.822  10.034   9.820 -0.6926  4.7009  0.1301
  298MOL0     H41117   9.694  10.101   9.739 -0.5326 -0.5451  0.0391
  298MOL0     H41118   9.752   9.806   9.775 -0.5526 -0.7226 -0.2578
  298MOL0     H41119   9.621   9.847   9.678  0.7399  1.5426 -0.9687
  298MOL0     H41120   9.480   9.934  10.077  0.6338  0.1749  0.9431
  298MOL0     H41121  10.200  10.000   9.349 -1.1072  0.3690 -0.1174
  298MOL0     H41122  10.561  10.042   9.423  0.5371  1.4949 -0.2525
  298MOL0     H41123  10.446   9.953   9.318 -0.6643  0.5959  0.9351
  298MOL0     H41124  10.510  10.113   9.267  3.8035  0.3691  0.1433
  299MOL0     O41125   1.103  10.435   2.178 -0.0904 -0.2594  0.0447
  299MOL0     C41126   1.117  10.327   2.229  0.4342 -0.0620 -0.6266
  299MOL0     O41127   1.230  10.281   2.280 -0.3322  0.3619 -0.8353
  299MOL0     C41128   1.329  10.306   2.189 -0.4063  0.5782  0.1931
  299MOL0     C41129   1.353  10.217   2.085  0.6861 -0.1682 -0.0035
  299MOL0     C41130   1.463  10.226   2.004  0.2696 -0.6282 -0.2932
  299MOL0     C41131   1.550  10.333   2.024 -0.3442 -1.1220 -1.1730
  299MOL0     O41132   1.671  10.318   1.953 -0.0273 -0.5797 -0.1921
  299MOL0     C41133   1.692  10.428   1.870  0.5159  0.1038 -0.6256
  299MOL0     C41134   1.798  10.538   1.930  0.3290 -0.4790 -0.0687
  299MOL0     C41135   1.926  10.460   1.978 -0.1966 -0.0345 -0.0517
  299MOL0     C41136   2.048  10.544   2.011  0.4083  0.5508  0.4999
  299MOL0     C41137   2.018  10.672   2.095 -0.5977  0.9954 -0.3316
  299MOL0     C41138   2.147  10.738   2.130 -0.1578 -0.7475 -1.0347
  299MOL0     C41139   2.124  10.869   2.227  0.0072  0.6695  0.8411
  299MOL0     C41140   2.192  10.993   2.171 -0.0163 -0.5393  0.3226
  299MOL0     N41141   2.167  11.107   2.270  0.3515  0.4043 -0.4484
  299MOL0     C41142   2.040  11.158   2.302 -0.3736 -0.0382  0.7108
  299MOL0     C41143   2.056  11.216   2.427 -0.2610 -0.1291 -0.3484
  299MOL0     C41144   1.936  11.281   2.497 -1.0071  1.1128 -0.1227
  299MOL0     C41145   1.880  11.409   2.443  0.1317  0.0287 -0.1986
  299MOL0     C41146   1.960  11.533   2.456  0.1668 -0.0299 -0.2484
  299MOL0     C41147   2.057  11.547   2.347 -0.2651  0.1781 -0.6792
  299MOL0     O41148   2.117  11.677   2.360 -0.3250 -0.2114  0.2581
  299MOL0     C41149   2.224  11.712   2.276 -0.5009  0.0166 -0.9975
  299MOL0     C41150   2.272  11.627   2.181  0.4608 -0.8192 -0.0129
  299MOL0     C41151   2.385  11.667   2.100 -0.4831 -0.8335 -0.0332
  299MOL0     C41152   2.437  11.568   1.995 -0.0658  0.3039 -0.5376
  299MOL0     C41153   2.457  11.790   2.122 -0.1430 -0.4915 -0.6424
  299MOL0     C41154   2.581  11.825   2.043  0.1885  0.6988  0.3945
  299MOL0     O41155   2.674  11.732   1.997  0.4189 -0.4094 -0.6552
  299MOL0     C41156   2.737  11.740   1.865  0.3266  0.0557 -0.7833
  299MOL0     C41157   2.674  11.814   1.767 -0.1597 -0.3804  0.2412
  299MOL0     C41158   2.735  11.826   1.646 -0.5460 -0.4055  0.1538
  299MOL0     C41159   2.856  11.764   1.621  0.7345  0.2841  0.2424
  299MOL0     O41160   2.906  11.767   1.495 -0.1466 -0.1693 -0.2022
  299MOL0     C41161   3.044  11.816   1.490  0.5742 -0.1972 -0.0194
  299MOL0     C41162   3.042  11.963   1.442  0.1050  0.0116 -1.0870
  299MOL0     C41163   3.168  12.048   1.481 -0.6682  0.5837 -0.1375
  299MOL0     C41164   3.169  12.192   1.431  0.4781 -0.3252 -0.6335
  299MOL0     C41165   3.196  12.180   1.286  0.3239  0.1275  0.4397
  299MOL0     C41166   3.310  12.276   1.244 -0.3089 -0.3181  0.3470
  299MOL0     C41167   3.347  12.259   1.093 -0.0873  0.4277 -0.5668
  299MOL0     C41168   3.471  12.342   1.062 -0.9331 -0.3535 -0.1341
  299MOL0    Cl41169   3.459  12.388   0.884 -0.1208  0.3578 -0.3631
  299MOL0     C41170   2.915  11.689   1.715 -0.2297 -0.0074 -0.4975
  299MOL0     C41171   2.861  11.684   1.842 -0.5974  0.0774 -0.3646
  299MOL0     O41172   2.586  11.952   2.024  0.0522 -0.6828  0.2586
  299MOL0     C41173   2.403  11.881   2.214  0.2920 -0.8055  0.1250
  299MOL0     C41174   2.290  11.840   2.288  0.7685  1.1136 -0.1307
  299MOL0     N41175   2.193  11.204   2.469  0.3789 -0.1694  0.6711
  299MOL0     N41176   2.257  11.144   2.377  0.2059 -0.0560  0.7839
  299MOL0     C41177   1.525  10.435   2.125  0.0497  0.0276 -0.0303
  299MOL0     C41178   1.416  10.419   2.203  0.5036  0.6220 -0.4227
  299MOL0     C41179   0.992  10.249   2.270 -0.2986  0.0912 -0.9352
  299MOL0     C41180   1.015  10.154   2.379 -0.1719 -0.3057 -0.2471
  299MOL0     C41181   0.915  10.075   2.434  0.0896 -0.2818 -0.3802
  299MOL0     C41182   0.789  10.076   2.379  0.9500 -0.0283  0.5573
  299MOL0     O41183   0.682  10.006   2.432  0.3701 -0.1083  0.3015
  299MOL0     C41184   0.715   9.896   2.519 -0.2765  0.2049 -0.7489
  299MOL0     C41185   0.609   9.793   2.529 -0.2502  1.4192 -0.5030
  299MOL0     C41186   0.552   9.750   2.389 -0.2540 -0.0439 -0.0589
  299MOL0     C41187   0.416   9.679   2.383 -0.3217 -0.3186 -0.3973
  299MOL0     C41188   0.383   9.664   2.240 -0.3609 -0.6930 -0.3886
  299MOL0     C41189   0.340   9.659   2.123 -0.7955 -1.1036  0.4412
  299MOL0     C41190   0.761  10.162   2.269  0.1389  0.4244  0.2079
  299MOL0     C41191   0.860  10.246   2.219  0.0016 -0.6663 -0.4265
  299MOL0     C41192   0.806  10.343   2.118 -0.3333  0.2774  0.7828
  299MOL0     H41193   1.284  10.133   2.082  0.6360 -0.1253 -0.0345
  299MOL0     H41194   1.473  10.147   1.931 -0.3658 -3.2131  2.2314
  299MOL0     H41195   1.595  10.468   1.838 -0.1134 -1.0261 -0.1849
  299MOL0     H41196   1.746  10.388   1.784  0.2417 -0.7638 -0.4041
  299MOL0     H41197   1.828  10.607   1.851  0.1368 -2.0608 -1.5916
  299MOL0     H41198   1.750  10.589   2.014  1.4043  1.1090 -0.3779
  299MOL0     H41199   1.903  10.388   2.057 -1.3885 -1.0269 -1.2583
  299MOL0     H41200   1.957  10.396   1.894 -2.9540  0.2318 -1.3692
  299MOL0     H41201   2.121  10.478   2.059  0.8812  1.2444  0.7582
  299MOL0     H41202   2.093  10.586   1.921  2.2010  2.7019  2.2650
  299MOL0     H41203   1.970  10.643   2.189 -0.8562  0.7748 -0.5294
  299MOL0     H41204   1.955  10.738   2.035 -2.2677 -0.1136  0.1084
  299MOL0     H41205   2.213  10.670   2.185 -1.0431 -1.0295 -0.2882
  299MOL0     H41206   2.196  10.764   2.037  1.2221 -2.5444 -0.8703
  299MOL0     H41207   2.165  10.853   2.327  0.6427 -0.0122  0.4844
  299MOL0     H41208   2.016  10.884   2.238 -0.2676  0.1177 -0.8025
  299MOL0     H41209   2.297  10.969   2.154 -0.2950 -1.3826 -0.2730
  299MOL0     H41210   2.149  11.020   2.073  0.2055  2.1882  0.8994
  299MOL0     H41211   1.945  11.138   2.255 -1.2441  1.0871  1.9321
  299MOL0     H41212   1.972  11.293   2.599  3.9884  2.3322 -1.7434
  299MOL0     H41213   1.861  11.202   2.510  0.3179 -0.5259 -1.8353
  299MOL0     H41214   1.873  11.403   2.334  0.8124 -1.3621 -0.1907
  299MOL0     H41215   1.782  11.416   2.492 -0.2326 -2.1450 -0.4940
  299MOL0     H41216   1.893  11.617   2.439  0.3725  0.3665  0.8102
  299MOL0     H41217   2.012  11.546   2.552  0.8988  4.1754 -1.0458
  299MOL0     H41218   2.128  11.466   2.362 -0.1264  0.0906 -1.6950
  299MOL0     H41219   2.007  11.548   2.250 -3.0559  0.4821  0.6818
  299MOL0     H41220   2.238  11.525   2.174  0.1940 -1.0758  3.1752
  299MOL0     H41221   2.523  11.514   2.036 -1.2951  0.0993  2.0120
  299MOL0     H41222   2.456  11.618   1.900  1.3069  2.6933  0.8953
  299MOL0     H41223   2.367  11.485   1.979  2.0820 -1.7176 -0.0755
  299MOL0     H41224   2.590  11.882   1.770  1.1857  1.6327 -2.5469
  299MOL0     H41225   2.676  11.877   1.571 -1.9470 -0.8038  0.9649
  299MOL0     H41226   3.092  11.820   1.588 -0.6835  2.2513  0.5629
  299MOL0     H41227   3.107  11.747   1.432  1.6936  0.8136 -0.0427
  299MOL0     H41228   3.012  11.975   1.337 -0.9167  0.8274 -0.7184
  299MOL0     H41229   2.953  12.004   1.491 -1.4106 -1.5491 -2.4000
  299MOL0     H41230   3.254  11.990   1.448 -1.8792 -0.9492 -0.7159
  299MOL0     H41231   3.183  12.057   1.589 -0.7487  1.6835 -0.2035
  299MOL0     H41232   3.250  12.251   1.475 -0.4736 -0.1697  0.9894
  299MOL0     H41233   3.076  12.244   1.457  0.6192 -0.1370 -0.5037
  299MOL0     H41234   3.221  12.079   1.252 -2.8475  0.0400 -2.2148
  299MOL0     H41235   3.098  12.197   1.240 -0.6688 -2.3136  1.5104
  299MOL0     H41236   3.395  12.261   1.311 -0.3825  1.9512  1.0209
  299MOL0     H41237   3.278  12.378   1.269  0.3160 -0.1972  0.6834
  299MOL0     H41238   3.263  12.275   1.025 -0.3286  1.2763 -0.0796
  299MOL0     H41239   3.375  12.153   1.081  0.6104  0.7955 -2.5089
  299MOL0     H41240   3.559  12.279   1.080 -1.7457 -1.0104  1.7211
  299MOL0     H41241   3.481  12.442   1.105  0.9847  0.5168 -2.3240
  299MOL0     H41242   3.007  11.636   1.692  0.5120  0.5757  0.9597
  299MOL0     H41243   2.909  11.636   1.927 -0.4942  0.3108 -0.2912
  299MOL0     H41244   2.453  11.977   2.218 -4.3312  1.9898 -1.1513
  299MOL0     H41245   2.238  11.899   2.362  1.2409 -0.1841  1.2999
  299MOL0     H41246   1.594  10.517   2.143  2.0307 -1.4849 -0.4259
  299MOL0     H41247   1.387  10.499   2.271  0.0972 -1.4406  1.9745
  299MOL0     H41248   1.116  10.126   2.409 -0.2285 -2.1990 -1.6314
  299MOL0     H41249   0.942  10.012   2.519 -0.2847  0.4306  0.2720
  299MOL0     H41250   0.809   9.847   2.492  0.7896  1.6644  0.1947
  299MOL0     H41251   0.739   9.928   2.621 -2.4596  1.7843 -0.6642
  299MOL0     H41252   0.533   9.850   2.584 -1.2224 -0.0445 -0.2922
  299MOL0     H41253   0.647   9.707   2.584 -2.2467  2.4130  2.7127
  299MOL0     H41254   0.548   9.841   2.329 -1.1390 -0.9080 -1.3644
  299MOL0     H41255   0.625   9.677   2.351 -2.2471 -1.8626 -0.5496
  299MOL0     H41256   0.342   9.733   2.443  0.6148 -0.7745  1.2418
  299MOL0     H41257   0.414   9.587   2.443 -1.9865  0.7686  1.3043
  299MOL0     H41258   0.304   9.651   2.022  0.0805  1.9306 -0.2164
  299MOL0     H41259   0.667  10.160   2.215  0.4000 -0.2530 -0.2329
  299MOL0     H41260   0.830  10.448   2.138 -2.2661  0.3596  3.0385
  299MOL0     H41261   0.847  10.323   2.018 -0.0635  2.4522  0.4144
  299MOL0     H41262   0.698  10.335   2.104  0.0691 -2.4015 -1.8741
  300MOL0     O41263   9.592   0.734   5.053 -0.6195  0.0854  0.2180
  300MOL0     C41264   9.659   0.721   4.948  0.6761  0.0100  0.2390
  300MOL0     O41265   9.614   0.717   4.823 -0.0534 -0.4512 -0.0470
  300MOL0     C41266   9.485   0.757   4.789 -0.1310  0.0945  0.3733
  300MOL0     C41267   9.364   0.688   4.827  0.1138  0.0597 -0.5068
  300MOL0     C41268   9.241   0.720   4.779 -0.0144 -0.3524  0.9037
  300MOL0     C41269   9.228   0.833   4.694  0.4117 -0.9141  0.2422
  300MOL0     O41270   9.101   0.867   4.646  0.3005  0.0568 -0.1458
  300MOL0     C41271   9.090   0.948   4.531 -0.4705  0.2245 -0.5947
  300MOL0     C41272   8.954   0.933   4.472  0.4568 -0.2889  0.1563
  300MOL0     C41273   8.909   1.058   4.392 -0.1844  0.4398  0.1594
  300MOL0     C41274   8.769   1.037   4.336 -0.1022 -0.2569  0.5727
  300MOL0     C41275   8.664   1.044   4.454 -0.4365 -0.3305 -0.7865
  300MOL0     C41276   8.687   1.166   4.540 -0.9475 -0.3835 -0.1932
  300MOL0     C41277   8.570   1.203   4.626  0.6558 -0.5319  0.2850
  300MOL0     C41278   8.525   1.081   4.721  0.1133 -0.0929  0.2844
  300MOL0     N41279   8.437   1.134   4.827  0.4020 -0.4047  0.2018
  300MOL0     C41280   8.300   1.121   4.834 -0.8610  0.1309 -0.2677
  300MOL0     C41281   8.274   1.163   4.963  0.3583  0.0560  0.5036
  300MOL0     C41282   8.130   1.179   5.022 -0.2595 -0.2435  0.9746
  300MOL0     C41283   8.100   1.087   5.145 -0.2384 -0.0665 -0.2965
  300MOL0     C41284   7.947   1.118   5.183 -0.3578 -0.2583 -0.1908
  300MOL0     C41285   7.899   1.050   5.302 -0.1674  0.2770  0.7356
  300MOL0     O41286   7.757   1.048   5.296 -0.4681 -0.0199  0.0036
  300MOL0     C41287   7.683   1.137   5.367 -0.2123  0.2072 -0.8228
  300MOL0     C41288   7.728   1.251   5.451  0.2885  0.2943  0.4624
  300MOL0     C41289   7.626   1.330   5.512  0.1153  0.7863 -0.4776
  300MOL0     C41290   7.689   1.449   5.579 -0.5242  0.2934  0.2688
  300MOL0     C41291   7.493   1.298   5.509  0.7313 -0.2798  1.0434
  300MOL0     C41292   7.384   1.376   5.571  0.5425  0.1112 -1.0544
  300MOL0     O41293   7.416   1.463   5.680 -0.5179  0.3328 -0.3762
  300MOL0     C41294   7.319   1.539   5.743  0.0686 -0.8673 -0.0865
  300MOL0     C41295   7.358   1.673   5.765  0.2983 -0.5324  0.2894
  300MOL0     C41296   7.269   1.755   5.840 -0.1686  0.1156 -0.2438
  300MOL0     C41297   7.148   1.703   5.891  0.3411  0.4217 -0.2045
  300MOL0     O41298   7.065   1.792   5.949  0.2015  0.1770  0.4393
  300MOL0     C41299   6.936   1.823   5.885 -0.7363  0.7829 -0.8563
  300MOL0     C41300   6.925   1.887   5.748 -0.4858 -0.1933  0.0934
  300MOL0     C41301   6.779   1.911   5.727  0.0149  0.1959  0.7018
  300MOL0     C41302   6.748   1.951   5.584  0.2342 -1.2344  0.0794
  300MOL0     C41303   6.591   1.977   5.563 -0.6288  0.4600 -0.3464
  300MOL0     C41304   6.550   1.989   5.420 -0.3451 -0.5519  0.9525
  300MOL0     C41305   6.396   1.978   5.399  0.2919 -0.5091  1.3402
  300MOL0     C41306   6.333   2.112   5.437  0.5440 -0.1163  0.4952
  300MOL0    Cl41307   6.162   2.074   5.397 -0.2505 -0.0014  0.1139
  300MOL0     C41308   7.120   1.564   5.885  0.1461  0.1927 -0.1877
  300MOL0     C41309   7.209   1.484   5.807  0.4159 -0.6950 -0.4747
  300MOL0     O41310   7.267   1.357   5.532 -0.2914 -0.2821  0.7994
  300MOL0     C41311   7.452   1.184   5.431  0.1843 -0.5597 -0.4776
  300MOL0     C41312   7.549   1.111   5.364  1.2563  0.1736  0.3585
  300MOL0     N41313   8.392   1.203   5.024  0.0007  0.3366 -0.1898
  300MOL0     N41314   8.487   1.183   4.942  0.5067  0.1509 -0.1667
  300MOL0     C41315   9.345   0.919   4.664 -0.2405 -0.8882 -0.4235
  300MOL0     C41316   9.466   0.868   4.713 -0.5045  0.0777  0.5436
  300MOL0     C41317   9.807   0.720   4.956  0.4126  0.7945  0.1637
  300MOL0     C41318   9.866   0.823   5.025 -0.3911 -0.2992 -0.1379
  300MOL0     C41319  10.006   0.840   5.016 -0.1790  0.0920  0.0443
  300MOL0     C41320  10.082   0.755   4.943  0.4882 -0.2419 -0.2150
  300MOL0     O41321  10.212   0.748   4.976  1.1236 -0.0392 -0.1368
  300MOL0     C41322  10.297   0.701   4.873 -0.3575  0.4743 -0.1180
  300MOL0     C41323  10.445   0.743   4.889 -0.0373  0.1263  0.4840
  300MOL0     C41324  10.537   0.678   4.786 -0.2190  0.5954 -0.3828
  300MOL0     C41325  10.685   0.685   4.832 -0.5116  0.0930  0.1166
  300MOL0     C41326  10.765   0.596   4.748  0.7006  0.7849 -0.8816
  300MOL0     C41327  10.835   0.516   4.691  0.0122  0.4259 -0.0791
  300MOL0     C41328  10.021   0.650   4.872  0.0777  0.1367 -0.6438
  300MOL0     C41329   9.885   0.631   4.874  0.5395 -0.1582 -0.0746
  300MOL0     C41330   9.823   0.501   4.824  0.0015  0.3141 -0.8711
  300MOL0     H41331   9.371   0.598   4.887 -0.5142 -0.6789 -1.5074
  300MOL0     H41332   9.156   0.655   4.797  1.4262 -2.4342  0.5035
  300MOL0     H41333   9.164   0.932   4.451  0.7087  3.3929 -0.2539
  300MOL0     H41334   9.117   1.044   4.574  1.3738  0.6049 -2.4473
  300MOL0     H41335   8.948   0.850   4.401 -1.1759  1.0369 -1.3593
  300MOL0     H41336   8.884   0.913   4.554 -1.4698  1.2971 -0.9879
  300MOL0     H41337   8.922   1.149   4.451  1.9811  1.1405 -1.3001
  300MOL0     H41338   8.979   1.060   4.309 -1.6395  2.7387 -1.0977
  300MOL0     H41339   8.735   1.108   4.260  0.8588 -0.6533 -0.2630
  300MOL0     H41340   8.754   0.942   4.283 -1.7445  0.6437 -0.6933
  300MOL0     H41341   8.677   0.955   4.516  2.6106 -0.5190 -1.5144
  300MOL0     H41342   8.560   1.038   4.422 -0.3888  1.9662 -1.5960
  300MOL0     H41343   8.771   1.154   4.609  0.1948  3.1863 -0.7332
  300MOL0     H41344   8.692   1.257   4.479 -0.0914 -0.6484 -0.5329
  300MOL0     H41345   8.485   1.240   4.568 -0.7942 -1.8351  1.5236
  300MOL0     H41346   8.594   1.289   4.689  0.1755 -0.1817 -0.0033
  300MOL0     H41347   8.475   0.997   4.672 -0.9438  0.2835  0.6855
  300MOL0     H41348   8.615   1.040   4.767  0.5578  1.3786  0.7910
  300MOL0     H41349   8.227   1.110   4.754 -1.2645 -0.1896  0.1451
  300MOL0     H41350   8.053   1.159   4.947  1.5272 -1.8734 -0.5544
  300MOL0     H41351   8.120   1.286   5.041 -0.7940  0.3686 -2.2550
  300MOL0     H41352   8.121   0.981   5.128 -1.4777  0.0894 -3.6218
  300MOL0     H41353   8.156   1.118   5.233  0.2945 -0.6262 -0.4298
  300MOL0     H41354   7.916   1.223   5.191  0.3846  0.0540 -1.1864
  300MOL0     H41355   7.892   1.080   5.096  1.8170 -0.3467 -1.6113
  300MOL0     H41356   7.933   0.946   5.297 -1.6479 -0.3135  2.0747
  300MOL0     H41357   7.939   1.096   5.393  0.2681  3.2237 -0.8203
  300MOL0     H41358   7.831   1.285   5.454 -0.5986  3.2205  2.8439
  300MOL0     H41359   7.795   1.459   5.554 -0.0800 -1.8956  1.0661
  300MOL0     H41360   7.699   1.437   5.688 -2.2479  1.0317  0.5379
  300MOL0     H41361   7.638   1.542   5.552 -0.2280 -0.1230 -1.8725
  300MOL0     H41362   7.446   1.717   5.717 -0.0459  0.1626  0.2893
  300MOL0     H41363   7.296   1.858   5.863  2.1031 -0.7400  1.2902
  300MOL0     H41364   6.875   1.733   5.891  1.5057 -0.8949 -1.7764
  300MOL0     H41365   6.897   1.899   5.953 -2.7823 -3.1336  2.7613
  300MOL0     H41366   6.982   1.980   5.739  0.3765 -0.8384 -1.4782
  300MOL0     H41367   6.957   1.818   5.670  0.3995  0.7567 -0.4056
  300MOL0     H41368   6.740   2.001   5.777 -2.6902  0.2108 -1.2009
  300MOL0     H41369   6.721   1.821   5.752  0.7985 -0.9703 -1.4548
  300MOL0     H41370   6.794   1.889   5.507 -0.2439  0.5408 -1.7395
  300MOL0     H41371   6.789   2.051   5.567 -1.8987 -0.3036  0.0436
  300MOL0     H41372   6.540   1.885   5.590  1.8590 -0.5657  1.2463
  300MOL0     H41373   6.560   2.058   5.630  0.1694  0.3552  0.1651
  300MOL0     H41374   6.601   1.912   5.361 -0.6597 -0.5763  0.7092
  300MOL0     H41375   6.574   2.087   5.377  1.3645 -0.7809  1.3264
  300MOL0     H41376   6.357   1.889   5.451  0.3986 -2.9553 -2.3773
  300MOL0     H41377   6.377   1.966   5.292  2.0281  4.8385  0.1169
  300MOL0     H41378   6.371   2.196   5.379  0.4525 -0.9024 -0.7430
  300MOL0     H41379   6.341   2.130   5.545  2.2856  3.6650 -0.1251
  300MOL0     H41380   7.027   1.526   5.927  0.8524 -1.8271 -0.3181
  300MOL0     H41381   7.187   1.381   5.781 -0.6859 -0.9096  1.1666
  300MOL0     H41382   7.350   1.149   5.440 -0.0547  0.3914  0.7560
  300MOL0     H41383   7.526   1.030   5.296 -2.3116  2.3842 -1.3662
  300MOL0     H41384   9.342   1.003   4.595 -5.1474  1.2353  1.8699
  300MOL0     H41385   9.550   0.925   4.675 -2.7714  1.6289 -2.5727
  300MOL0     H41386   9.807   0.896   5.079  1.5875  1.6800 -0.4853
  300MOL0     H41387  10.061   0.915   5.073 -0.8756  0.0985  0.7294
  300MOL0     H41388  10.289   0.592   4.863  1.3900  0.5310 -3.8599
  300MOL0     H41389  10.261   0.739   4.777  0.2428 -0.8585 -0.9048
  300MOL0     H41390  10.478   0.702   4.985 -0.0445  0.1599  0.5002
  300MOL0     H41391  10.449   0.852   4.889 -0.2609  0.1637  1.9042
  300MOL0     H41392  10.513   0.572   4.773 -1.4800  0.5363  1.8545
  300MOL0     H41393  10.528   0.741   4.697  0.6865 -0.2053 -1.0443
  300MOL0     H41394  10.693   0.661   4.938 -1.6448  0.6188  0.3412
  300MOL0     H41395  10.708   0.791   4.822  0.1020 -0.2199 -2.5174
  300MOL0     H41396  10.904   0.454   4.638  1.9872  0.4478  2.2811
  300MOL0     H41397  10.083   0.571   4.830 -0.7017 -1.5595  1.2404
  300MOL0     H41398   9.741   0.469   4.889  2.8501 -1.0271  2.3689
  300MOL0     H41399   9.792   0.514   4.720 -1.0513  2.7960 -0.3361
  300MOL0     H41400   9.894   0.418   4.824 -2.3953 -1.8615 -1.1292
  301MOL0     O41401   8.707   1.082   1.284  0.0724 -0.0993  0.2302
  301MOL0     C41402   8.655   0.970   1.284  0.5857  0.5236  0.7643
  301MOL0     O41403   8.719   0.853   1.252  0.6245  0.1523  0.6456
  301MOL0     C41404   8.853   0.861   1.258 -0.2332 -0.2380  0.9993
  301MOL0     C41405   8.917   0.832   1.132  0.3886 -0.4408 -0.4853
  301MOL0     C41406   9.055   0.826   1.133 -0.0934 -0.1432  0.2178
  301MOL0     C41407   9.132   0.822   1.246 -0.4011  0.6802 -0.2754
  301MOL0     O41408   9.268   0.801   1.234  0.8526 -0.0440 -0.1463
  301MOL0     C41409   9.359   0.774   1.343 -0.3580  0.1507  1.2015
  301MOL0     C41410   9.484   0.728   1.288 -0.1384  0.3235  0.1761
  301MOL0     C41411   9.597   0.721   1.399  0.1476  0.3780  1.1079
  301MOL0     C41412   9.586   0.586   1.469 -0.0873 -0.4294  0.0561
  301MOL0     C41413   9.687   0.579   1.585 -0.7777  0.1814 -0.4160
  301MOL0     C41414   9.702   0.437   1.656 -0.5313  0.4320  0.2683
  301MOL0     C41415   9.570   0.402   1.728  0.2115 -0.5624 -0.0721
  301MOL0     C41416   9.588   0.261   1.799 -0.1913  0.3999  0.6898
  301MOL0     N41417   9.474   0.233   1.888 -0.7580  0.6560 -0.3049
  301MOL0     C41418   9.379   0.136   1.886  0.2994  0.0808  0.2663
  301MOL0     C41419   9.310   0.137   2.005  0.0331  0.2503  0.6872
  301MOL0     C41420   9.208   0.042   2.055  0.2328 -0.5369  0.7318
  301MOL0     C41421   9.278  -0.093   2.100  0.4938 -0.0363  0.7757
  301MOL0     C41422   9.320  -0.171   1.981 -0.1087 -0.1451  0.3555
  301MOL0     C41423   9.212  -0.218   1.881 -0.5977  0.6276  0.6067
  301MOL0     O41424   9.117  -0.302   1.959  0.6327 -0.3313  0.4834
  301MOL0     C41425   8.996  -0.330   1.905  0.2786  0.6738  0.2618
  301MOL0     C41426   8.918  -0.211   1.908  0.1852 -0.7466  0.3180
  301MOL0     C41427   8.790  -0.210   1.845  0.9158  0.2614 -0.4484
  301MOL0     C41428   8.718  -0.082   1.864 -0.1457 -0.1055  0.4491
  301MOL0     C41429   8.746  -0.328   1.770 -0.4860 -0.4775 -0.2416
  301MOL0     C41430   8.614  -0.325   1.693 -0.2692  0.5748  0.1723
  301MOL0     O41431   8.518  -0.237   1.718 -0.4483 -0.1973 -0.1166
  301MOL0     C41432   8.391  -0.240   1.657 -0.6423 -0.4069  0.8062
  301MOL0     C41433   8.326  -0.119   1.655 -0.0039  0.5746 -0.7441
  301MOL0     C41434   8.193  -0.120   1.625 -0.6776  0.1198  0.5919
  301MOL0     C41435   8.117  -0.240   1.596 -0.2320 -1.0161  0.9892
  301MOL0     O41436   7.981  -0.231   1.567 -0.2623 -0.4380 -0.0186
  301MOL0     C41437   7.911  -0.352   1.616 -0.6254 -0.7633  0.2207
  301MOL0     C41438   7.770  -0.326   1.668  0.0114  0.0196  0.5467
  301MOL0     C41439   7.793  -0.227   1.779 -0.3319 -0.1159 -0.8044
  301MOL0     C41440   7.655  -0.204   1.854 -0.5365  0.0919  0.2267
  301MOL0     C41441   7.684  -0.152   1.994  0.2066 -0.2826  0.2397
  301MOL0     C41442   7.557  -0.097   2.067  0.8528 -0.2671 -0.4049
  301MOL0     C41443   7.434  -0.199   2.075  0.6576  0.0545 -0.1415
  301MOL0     C41444   7.452  -0.311   2.177  0.1177  0.5477 -0.6059
  301MOL0    Cl41445   7.445  -0.252   2.340 -0.0634 -0.2145  0.0079
  301MOL0     C41446   8.188  -0.360   1.590  0.4720 -0.5699  0.0859
  301MOL0     C41447   8.321  -0.358   1.619  0.1169  0.2066 -0.2079
  301MOL0     O41448   8.607  -0.406   1.602  0.8927 -0.2366 -1.0210
  301MOL0     C41449   8.833  -0.443   1.765 -0.1239 -0.7767 -0.1581
  301MOL0     C41450   8.956  -0.445   1.834 -1.1886 -0.3265 -0.0997
  301MOL0     N41451   9.359   0.248   2.072  0.0577  0.1863  0.5159
  301MOL0     N41452   9.452   0.304   2.005  0.4808 -0.3540 -0.8750
  301MOL0     C41453   9.062   0.840   1.372 -0.4349 -0.1737  0.4006
  301MOL0     C41454   8.927   0.864   1.375  0.1384 -0.3136 -1.7579
  301MOL0     C41455   8.514   0.973   1.321 -0.5766  0.1157 -0.6918
  301MOL0     C41456   8.452   0.853   1.341  0.4207 -0.0136 -0.6490
  301MOL0     C41457   8.322   0.841   1.385 -0.0041  0.3234 -0.2704
  301MOL0     C41458   8.240   0.949   1.417 -0.0385 -0.3954  0.6002
  301MOL0     O41459   8.125   0.937   1.470 -0.2865 -0.3319  0.0168
  301MOL0     C41460   8.053   0.810   1.482 -0.2714  0.0066 -0.7777
  301MOL0     C41461   7.905   0.825   1.500 -0.1882 -0.4375  0.3969
  301MOL0     C41462   7.843   0.941   1.418  0.8620  0.6904 -0.5548
  301MOL0     C41463   7.691   0.960   1.457  0.3079  0.5742 -0.2599
  301MOL0     C41464   7.626   1.069   1.381  0.5862 -0.2537  0.9511
  301MOL0     C41465   7.587   1.171   1.318  0.0400  0.1205  0.5183
  301MOL0     C41466   8.306   1.071   1.395 -1.2575 -0.5628  0.4993
  301MOL0     C41467   8.437   1.089   1.347  0.3285  0.0967  0.1371
  301MOL0     C41468   8.487   1.231   1.315 -0.1093  0.1180  0.3355
  301MOL0     H41469   8.849   0.809   1.051 -0.3653 -1.1761  0.3276
  301MOL0     H41470   9.117   0.827   1.044  1.3196 -0.3700  1.1661
  301MOL0     H41471   9.318   0.699   1.412  0.9968  0.9109  2.8931
  301MOL0     H41472   9.372   0.874   1.385  0.9616  0.9199 -0.8620
  301MOL0     H41473   9.462   0.630   1.245  0.6032 -1.4279  3.4794
  301MOL0     H41474   9.513   0.803   1.213 -1.5847  0.7971  0.0657
  301MOL0     H41475   9.693   0.724   1.346 -0.9759  1.0302 -1.0204
  301MOL0     H41476   9.590   0.805   1.469  1.7494  0.0101  1.7435
  301MOL0     H41477   9.483   0.582   1.506 -0.4488 -1.9005 -0.9939
  301MOL0     H41478   9.599   0.491   1.415  2.1581 -0.2729  0.2003
  301MOL0     H41479   9.671   0.646   1.670  0.7810  1.1090 -0.8071
  301MOL0     H41480   9.786   0.604   1.546 -0.2164 -0.2475  0.7006
  301MOL0     H41481   9.720   0.363   1.577  0.9153 -1.3412  2.1742
  301MOL0     H41482   9.784   0.432   1.728 -0.7834 -3.0172  0.4517
  301MOL0     H41483   9.491   0.387   1.654 -1.9670  1.2828  1.7680
  301MOL0     H41484   9.543   0.482   1.797  0.5052  1.5413 -2.2303
  301MOL0     H41485   9.610   0.187   1.722  1.6387  2.6595 -1.0905
  301MOL0     H41486   9.680   0.265   1.859  0.5294  0.7886 -0.4099
  301MOL0     H41487   9.369   0.070   1.800  1.3237  1.0980 -0.6705
  301MOL0     H41488   9.136   0.016   1.976  0.1143 -2.3632  1.3829
  301MOL0     H41489   9.158   0.087   2.141  2.8466  2.4079  0.8730
  301MOL0     H41490   9.360  -0.064   2.166  0.4691  1.2755  0.2642
  301MOL0     H41491   9.211  -0.160   2.155  1.5653 -1.9990 -0.2028
  301MOL0     H41492   9.388  -0.107   1.924 -1.1449  1.2442  0.6170
  301MOL0     H41493   9.371  -0.258   2.025 -0.9066 -0.9922 -0.3524
  301MOL0     H41494   9.163  -0.136   1.826  1.0657  0.2997 -1.4821
  301MOL0     H41495   9.262  -0.273   1.801 -1.1571  0.6865  0.2008
  301MOL0     H41496   8.956  -0.132   1.973  0.4726  1.0447 -1.9306
  301MOL0     H41497   8.613  -0.102   1.885 -0.3319 -1.9500 -1.8246
  301MOL0     H41498   8.719  -0.024   1.771  0.0989  0.8987  1.0620
  301MOL0     H41499   8.766  -0.027   1.946  0.9887  0.7774 -0.7499
  301MOL0     H41500   8.384  -0.031   1.682  0.6674  0.0327 -0.3800
  301MOL0     H41501   8.139  -0.025   1.624 -1.4978 -0.3407  0.5508
  301MOL0     H41502   7.913  -0.436   1.545 -0.2343 -1.1892  0.7185
  301MOL0     H41503   7.968  -0.387   1.703  0.1959 -1.8499 -0.7097
  301MOL0     H41504   7.705  -0.282   1.591  1.0419 -1.7822 -1.4531
  301MOL0     H41505   7.722  -0.413   1.712 -0.5961  0.7485  1.3678
  301MOL0     H41506   7.827  -0.131   1.741  0.4882  0.9149  2.2291
  301MOL0     H41507   7.875  -0.267   1.840  0.1496  1.1621 -0.5991
  301MOL0     H41508   7.604  -0.300   1.863 -0.8023  0.0426 -1.4525
  301MOL0     H41509   7.593  -0.138   1.793  0.4988  0.5155 -0.3878
  301MOL0     H41510   7.721  -0.224   2.067 -0.8830  1.1487  2.3181
  301MOL0     H41511   7.748  -0.064   1.983 -3.4767  2.4539 -1.7296
  301MOL0     H41512   7.518  -0.005   2.024  0.4462  0.9826  2.3755
  301MOL0     H41513   7.584  -0.078   2.172  0.5384  0.1530 -0.4010
  301MOL0     H41514   7.416  -0.251   1.980  0.1598  0.6894 -0.4037
  301MOL0     H41515   7.342  -0.144   2.097  1.2653  0.3898  1.6961
  301MOL0     H41516   7.540  -0.371   2.152 -0.7162 -0.2345 -1.7607
  301MOL0     H41517   7.370  -0.383   2.174 -0.0688  0.7113  0.2220
  301MOL0     H41518   8.133  -0.449   1.559 -2.7237  0.7292  1.5500
  301MOL0     H41519   8.363  -0.457   1.635  0.8756  0.6522  0.6820
  301MOL0     H41520   8.808  -0.520   1.694 -0.4827  0.1890 -1.0995
  301MOL0     H41521   9.033  -0.521   1.831 -0.2227  0.4191  2.5859
  301MOL0     H41522   9.115   0.832   1.466  0.4129 -0.2705 -0.0766
  301MOL0     H41523   8.877   0.870   1.471  1.0879  1.9458 -1.3353
  301MOL0     H41524   8.505   0.763   1.311 -0.7506 -0.4229 -1.5547
  301MOL0     H41525   8.289   0.738   1.399  1.4846  0.0191  1.3150
  301MOL0     H41526   8.071   0.748   1.393 -1.5721 -2.1705  0.3785
  301MOL0     H41527   8.093   0.742   1.558  3.5707  2.5308 -0.2755
  301MOL0     H41528   7.873   0.851   1.602 -2.1126  0.9625 -0.4920
  301MOL0     H41529   7.861   0.733   1.461  0.9264 -0.7923 -0.0373
  301MOL0     H41530   7.899   1.035   1.423 -0.3223  1.4478 -1.1588
  301MOL0     H41531   7.844   0.898   1.318 -1.0296 -5.0870  1.5037
  301MOL0     H41532   7.679   0.979   1.564 -1.8057  1.8602 -0.6687
  301MOL0     H41533   7.653   0.863   1.423  3.7688  0.0239 -3.1764
  301MOL0     H41534   7.555   1.266   1.280  0.6852 -0.4291 -1.4956
  301MOL0     H41535   8.244   1.158   1.414 -1.2949 -0.1832 -1.1819
  301MOL0     H41536   8.404   1.299   1.295  0.7654  1.0547 -0.2356
  301MOL0     H41537   8.546   1.262   1.401  0.3280  1.5559 -0.4514
  301MOL0     H41538   8.536   1.229   1.217  0.3310  1.2497  0.5177
  302MOL0     O41539   6.058   6.755   6.389  0.5703 -0.1493  0.4429
  302MOL0     C41540   5.969   6.767   6.474  0.2779 -0.2306  0.3774
  302MOL0     O41541   5.989   6.790   6.612  0.1230 -0.0038  1.2220
  302MOL0     C41542   6.109   6.823   6.656 -0.7655  1.0504 -0.0436
  302MOL0     C41543   6.160   6.749   6.760 -1.3584 -0.2478 -0.3551
  302MOL0     C41544   6.281   6.789   6.812 -0.4848 -0.3478 -0.2523
  302MOL0     C41545   6.347   6.912   6.776  0.6230  0.8179 -0.3072
  302MOL0     O41546   6.463   6.958   6.830  0.1988 -0.4155 -0.0706
  302MOL0     C41547   6.524   6.885   6.952  0.1113  0.3314 -0.4747
  302MOL0     C41548   6.443   6.926   7.070  0.2605 -0.2672 -0.4348
  302MOL0     C41549   6.424   7.077   7.083  0.0942 -0.7483  0.1605
  302MOL0     C41550   6.335   7.103   7.209 -0.1607  0.0631 -0.1795
  302MOL0     C41551   6.416   7.093   7.342 -0.6417  0.5221 -0.1795
  302MOL0     C41552   6.315   7.146   7.447 -0.3038 -0.4731 -0.2797
  302MOL0     C41553   6.364   7.151   7.587  0.0405  0.3572  0.3050
  302MOL0     C41554   6.267   7.208   7.690  0.3665 -0.7925 -0.7166
  302MOL0     N41555   6.275   7.353   7.717  0.1633  0.4492 -0.1398
  302MOL0     C41556   6.248   7.445   7.622 -0.8784 -0.0610 -0.0867
  302MOL0     C41557   6.278   7.564   7.686 -0.5000  0.2352 -0.2170
  302MOL0     C41558   6.258   7.697   7.622  0.4618  0.3851 -0.1698
  302MOL0     C41559   6.361   7.719   7.516  0.2540 -0.6067  0.4906
  302MOL0     C41560   6.506   7.731   7.569 -0.1335 -0.1440  0.2009
  302MOL0     C41561   6.595   7.659   7.471 -1.6349 -0.0501 -0.3284
  302MOL0     O41562   6.730   7.692   7.516  0.2925  0.0503 -1.1214
  302MOL0     C41563   6.784   7.638   7.633 -0.0571 -0.5105  1.1324
  302MOL0     C41564   6.723   7.548   7.722 -0.3267 -0.3909 -1.8634
  302MOL0     C41565   6.784   7.515   7.839 -0.5506 -0.6231  0.7905
  302MOL0     C41566   6.707   7.455   7.941  0.0994 -0.7824 -0.5327
  302MOL0     C41567   6.915   7.571   7.867  0.4146  0.0381 -0.2262
  302MOL0     C41568   7.002   7.518   7.982  0.9815 -0.3269 -0.5213
  302MOL0     O41569   7.106   7.599   8.017  0.2514 -0.0408  0.2295
  302MOL0     C41570   7.211   7.555   8.104  0.0430 -1.0149  0.0567
  302MOL0     C41571   7.347   7.587   8.070  0.3854  0.2591 -0.2567
  302MOL0     C41572   7.459   7.549   8.147  0.1587 -0.4303 -0.0653
  302MOL0     C41573   7.431   7.483   8.267 -0.0394  0.1510  0.0613
  302MOL0     O41574   7.544   7.450   8.347  0.1231  0.3831 -0.1809
  302MOL0     C41575   7.526   7.386   8.482 -0.3487  0.0185 -0.1308
  302MOL0     C41576   7.654   7.368   8.556  0.3486  0.2564 -0.2311
  302MOL0     C41577   7.612   7.294   8.688 -0.3902 -0.3663  0.0599
  302MOL0     C41578   7.717   7.286   8.795 -0.2856  0.2685  0.2460
  302MOL0     C41579   7.678   7.222   8.925  0.3791  0.6295 -0.3797
  302MOL0     C41580   7.584   7.310   9.012 -0.0004 -0.2652 -0.2775
  302MOL0     C41581   7.548   7.248   9.150 -0.3063  0.2148 -0.1238
  302MOL0     C41582   7.462   7.125   9.140 -0.1567 -0.5030 -0.1511
  302MOL0    Cl41583   7.546   6.973   9.116 -0.4616  0.3389  0.0168
  302MOL0     C41584   7.297   7.451   8.303 -0.4281  0.4362  1.2842
  302MOL0     C41585   7.191   7.497   8.224  0.2074 -0.1418  0.3582
  302MOL0     O41586   6.961   7.423   8.043 -0.1350 -0.5772  0.2460
  302MOL0     C41587   6.967   7.667   7.783  0.4776 -0.6410 -0.2855
  302MOL0     C41588   6.911   7.700   7.661 -0.4391  1.0641  0.4957
  302MOL0     N41589   6.330   7.539   7.811  0.2032 -0.7506 -0.4964
  302MOL0     N41590   6.329   7.410   7.833  0.1624  0.3110 -0.9897
  302MOL0     C41591   6.291   6.984   6.669  0.0312 -0.2325 -0.0599
  302MOL0     C41592   6.161   6.946   6.612 -0.1215 -0.3901 -0.5147
  302MOL0     C41593   5.824   6.747   6.426  0.3557 -0.4708 -0.0450
  302MOL0     C41594   5.733   6.698   6.523  0.3746 -0.7916 -0.7796
  302MOL0     C41595   5.600   6.673   6.493 -0.6752 -0.5708 -0.3624
  302MOL0     C41596   5.551   6.680   6.363 -0.7834 -0.0524  0.5326
  302MOL0     O41597   5.416   6.681   6.323 -0.8348  0.0062  0.3548
  302MOL0     C41598   5.311   6.644   6.409  1.2988  0.0838  0.3283
  302MOL0     C41599   5.325   6.499   6.467  0.3832  0.5229 -0.6890
  302MOL0     C41600   5.384   6.381   6.382  0.0428  0.6126 -0.0674
  302MOL0     C41601   5.286   6.341   6.276  0.2882  0.4042  0.0221
  302MOL0     C41602   5.323   6.212   6.210 -0.5201  0.3386 -0.3647
  302MOL0     C41603   5.336   6.101   6.160  0.1527 -0.7002  0.1772
  302MOL0     C41604   5.649   6.700   6.259  0.8131  0.0029  0.1198
  302MOL0     C41605   5.776   6.742   6.290  0.2019  0.1381 -0.6856
  302MOL0     C41606   5.864   6.767   6.170 -0.5302 -0.7187 -0.1389
  302MOL0     H41607   6.118   6.651   6.780  0.8637 -0.9446  1.3707
  302MOL0     H41608   6.323   6.723   6.888 -1.0888  1.6869  1.9751
  302MOL0     H41609   6.622   6.920   6.986 -0.4116  0.1184  1.3650
  302MOL0     H41610   6.535   6.777   6.942  0.2549 -0.0708  2.9161
  302MOL0     H41611   6.340   6.886   7.068 -0.0383  0.4725 -2.4149
  302MOL0     H41612   6.492   6.884   7.159  2.8800 -0.4641 -1.8739
  302MOL0     H41613   6.519   7.131   7.092  0.7927 -2.0031  0.4399
  302MOL0     H41614   6.378   7.127   6.996 -0.7490 -1.3263  0.2585
  302MOL0     H41615   6.308   7.209   7.200  0.6275  0.3123  0.2903
  302MOL0     H41616   6.243   7.044   7.220 -1.2134  1.7616  0.5849
  302MOL0     H41617   6.506   7.154   7.333  0.7466 -1.4901 -0.7869
  302MOL0     H41618   6.452   6.989   7.350  0.2311  0.9243  1.6745
  302MOL0     H41619   6.303   7.251   7.417  1.1397  0.2469  1.5262
  302MOL0     H41620   6.217   7.099   7.442  0.2612 -1.9037  1.2321
  302MOL0     H41621   6.460   7.204   7.576  0.1106  0.6070  1.9341
  302MOL0     H41622   6.386   7.049   7.618 -1.1881  0.2565  0.8758
  302MOL0     H41623   6.165   7.186   7.658  0.8151  0.3619 -3.1832
  302MOL0     H41624   6.280   7.157   7.786  1.5130  3.3325  1.5257
  302MOL0     H41625   6.216   7.436   7.519 -1.0677 -1.3142  0.0763
  302MOL0     H41626   6.270   7.775   7.698  0.9881  0.4288 -0.2938
  302MOL0     H41627   6.162   7.697   7.570 -0.6193 -3.7111  1.4428
  302MOL0     H41628   6.353   7.639   7.442  0.4894  1.3733 -1.8131
  302MOL0     H41629   6.333   7.809   7.459  1.3941 -0.8635 -0.5127
  302MOL0     H41630   6.532   7.837   7.581 -1.3878  0.1776  0.2088
  302MOL0     H41631   6.507   7.695   7.673 -0.1175  1.5670  0.8249
  302MOL0     H41632   6.573   7.552   7.467 -0.0246 -0.4695  0.6493
  302MOL0     H41633   6.585   7.703   7.372  2.0782  2.3919  0.1632
  302MOL0     H41634   6.625   7.512   7.696 -1.7280  1.4557  0.4612
  302MOL0     H41635   6.736   7.350   7.939 -0.4400 -0.9918  1.0768
  302MOL0     H41636   6.602   7.450   7.913  0.2581 -0.2248 -1.2386
  302MOL0     H41637   6.716   7.503   8.039  1.5914 -1.7622 -0.1520
  302MOL0     H41638   7.366   7.635   7.974 -0.9874  1.3783 -0.0076
  302MOL0     H41639   7.564   7.571   8.135  0.0924 -0.1299 -0.0946
  302MOL0     H41640   7.461   7.447   8.546  0.2286 -2.0729  2.6629
  302MOL0     H41641   7.479   7.288   8.470  1.6729 -0.8458 -1.3967
  302MOL0     H41642   7.726   7.309   8.498  2.0085  0.5050  1.4986
  302MOL0     H41643   7.701   7.464   8.582  0.3729  0.3639 -0.6549
  302MOL0     H41644   7.587   7.190   8.664 -0.6538 -0.8712  2.3215
  302MOL0     H41645   7.522   7.340   8.731 -1.2494 -0.4336 -1.5627
  302MOL0     H41646   7.746   7.387   8.825  2.3954 -0.4566  0.3778
  302MOL0     H41647   7.809   7.236   8.761 -0.4942 -0.5282  0.8245
  302MOL0     H41648   7.620   7.133   8.902 -1.5601  1.8173 -0.2793
  302MOL0     H41649   7.756   7.192   8.996 -0.5612 -1.1892 -0.0707
  302MOL0     H41650   7.491   7.327   8.957 -0.5245  1.4254  1.0215
  302MOL0     H41651   7.628   7.410   9.020  0.2340 -0.0420 -3.3447
  302MOL0     H41652   7.494   7.325   9.206 -0.6216 -1.4898  2.0462
  302MOL0     H41653   7.643   7.234   9.203 -0.8492 -0.0374  0.8229
  302MOL0     H41654   7.392   7.149   9.060 -0.3904 -2.2785 -0.5228
  302MOL0     H41655   7.415   7.120   9.239 -0.0600 -1.5866 -0.1474
  302MOL0     H41656   7.269   7.395   8.392 -0.6188 -1.2076  0.2372
  302MOL0     H41657   7.089   7.479   8.256 -0.8735  1.6756 -1.7996
  302MOL0     H41658   7.056   7.719   7.817  0.7097 -2.1768  1.6508
  302MOL0     H41659   6.949   7.776   7.593 -3.3623  2.8578  0.6995
  302MOL0     H41660   6.340   7.076   6.640  0.6016 -0.4735  0.1336
  302MOL0     H41661   6.115   7.015   6.543 -2.2558  1.3519  2.4237
  302MOL0     H41662   5.766   6.705   6.626  2.8835  2.5642 -1.6393
  302MOL0     H41663   5.535   6.660   6.578  2.1454 -0.4445  1.9628
  302MOL0     H41664   5.295   6.726   6.480  1.2593  0.4143 -0.0614
  302MOL0     H41665   5.227   6.640   6.339 -1.8488 -0.8658  3.8348
  302MOL0     H41666   5.222   6.481   6.500  0.8725  2.5012  2.2911
  302MOL0     H41667   5.387   6.502   6.556 -0.7746 -1.2252  0.2315
  302MOL0     H41668   5.481   6.407   6.338 -0.7190  2.1061 -0.9486
  302MOL0     H41669   5.397   6.286   6.434 -3.0478 -2.2787 -3.9795
  302MOL0     H41670   5.284   6.416   6.197 -1.8379 -0.7106 -1.0675
  302MOL0     H41671   5.186   6.324   6.316  0.1577 -3.3007 -1.4513
  302MOL0     H41672   5.349   6.015   6.097  0.5651 -0.1972 -0.4402
  302MOL0     H41673   5.616   6.685   6.157 -3.0925  4.2609  0.4745
  302MOL0     H41674   5.913   6.863   6.189  0.4769 -1.7815  3.3170
  302MOL0     H41675   5.948   6.698   6.159  2.1377  2.3462 -0.4548
  302MOL0     H41676   5.810   6.769   6.075  0.9042  3.5690 -1.1044
  303MOL0     O41677   7.564   2.285   6.126  0.7141 -0.2833  0.5291
  303MOL0     C41678   7.470   2.358   6.153 -0.3992  0.2302  0.8838
  303MOL0     O41679   7.475   2.483   6.207 -0.0312  0.2378 -0.9238
  303MOL0     C41680   7.584   2.522   6.291  0.1550 -0.1426  0.0207
  303MOL0     C41681   7.625   2.651   6.288 -0.7322 -0.3803  0.1250
  303MOL0     C41682   7.738   2.694   6.365  0.0058 -0.2335  0.4245
  303MOL0     C41683   7.814   2.602   6.438 -0.1666 -0.0817  0.4919
  303MOL0     O41684   7.929   2.628   6.504 -0.0562 -0.0118  0.3480
  303MOL0     C41685   7.980   2.758   6.524  0.3053  0.9943  0.8940
  303MOL0     C41686   8.092   2.728   6.630  0.0079  0.3596  0.0900
  303MOL0     C41687   8.168   2.856   6.639  0.4640 -0.8417 -0.0755
  303MOL0     C41688   8.255   2.836   6.771  1.0389 -0.5068 -0.1748
  303MOL0     C41689   8.385   2.916   6.784 -0.0682 -0.2991  0.3217
  303MOL0     C41690   8.369   3.068   6.789 -0.3214  0.0388 -0.7254
  303MOL0     C41691   8.502   3.139   6.758  0.3889  0.0687 -0.1668
  303MOL0     C41692   8.479   3.288   6.762 -0.2158  0.1843  0.0400
  303MOL0     N41693   8.608   3.365   6.762  0.0298  0.2484 -0.0665
  303MOL0     C41694   8.686   3.388   6.648 -0.0039  0.3885  0.2766
  303MOL0     C41695   8.804   3.441   6.697 -0.4473  0.5615 -0.2653
  303MOL0     C41696   8.913   3.488   6.621 -0.1017 -0.4590  0.5256
  303MOL0     C41697   8.965   3.354   6.566 -0.1990  0.6715  1.2706
  303MOL0     C41698   9.109   3.373   6.504  0.2381  0.5414  0.3211
  303MOL0     C41699   9.185   3.246   6.471 -0.8012  0.7426  0.3692
  303MOL0     O41700   9.274   3.254   6.361 -0.1336  0.0237 -0.7677
  303MOL0     C41701   9.322   3.133   6.306  0.1276 -0.4047 -0.3528
  303MOL0     C41702   9.361   3.131   6.177  0.1030 -0.6022  0.8051
  303MOL0     C41703   9.410   3.019   6.119  0.4891  1.2727  0.5777
  303MOL0     C41704   9.420   3.018   5.970 -0.4286 -0.2845  0.0636
  303MOL0     C41705   9.431   2.903   6.196 -0.2712  0.4019  0.0400
  303MOL0     C41706   9.513   2.781   6.157  0.0169 -0.1636  0.6223
  303MOL0     O41707   9.619   2.808   6.074 -0.1043 -0.6397  0.0952
  303MOL0     C41708   9.724   2.721   6.082 -0.2811 -0.7787 -0.1554
  303MOL0     C41709   9.711   2.609   6.011  0.3358 -0.0372  0.2247
  303MOL0     C41710   9.810   2.514   6.011  0.1543  0.1103 -0.2080
  303MOL0     C41711   9.928   2.536   6.078 -0.2005  0.2471  0.5426
  303MOL0     O41712  10.006   2.423   6.087  0.2481 -0.2087  0.4215
  303MOL0     C41713  10.087   2.410   6.206 -0.4558 -0.1182  0.6521
  303MOL0     C41714  10.142   2.274   6.222  0.5616 -1.0481 -0.5504
  303MOL0     C41715  10.252   2.245   6.118  0.2618  0.5777 -0.5756
  303MOL0     C41716  10.305   2.113   6.155 -0.1043  0.6601 -0.8983
  303MOL0     C41717  10.364   2.055   6.024 -0.9347 -0.2879 -0.4210
  303MOL0     C41718  10.443   1.917   6.049 -1.1603  0.1408 -0.1782
  303MOL0     C41719  10.516   1.863   5.924 -0.8126 -0.9623  0.4142
  303MOL0     C41720  10.542   1.718   5.938 -0.5628  0.8253 -0.3079
  303MOL0    Cl41721  10.672   1.669   5.818  0.1349 -0.5096 -0.1231
  303MOL0     C41722   9.954   2.661   6.138  0.6875  0.4283 -0.2391
  303MOL0     C41723   9.843   2.741   6.153  0.1937 -0.2704 -0.1909
  303MOL0     O41724   9.489   2.669   6.213  0.1630 -0.0829 -0.6157
  303MOL0     C41725   9.372   2.899   6.320 -0.2054  0.7364  0.1772
  303MOL0     C41726   9.322   3.012   6.378 -0.2029  0.0990 -0.4762
  303MOL0     N41727   8.800   3.449   6.831 -0.1725  0.5472  0.6516
  303MOL0     N41728   8.685   3.398   6.867  0.3031 -0.2218  1.1181
  303MOL0     C41729   7.774   2.465   6.442  0.0252  0.2273 -0.1067
  303MOL0     C41730   7.658   2.428   6.366 -0.3914 -0.1395 -0.9738
  303MOL0     C41731   7.339   2.328   6.097 -0.6108  0.7200 -1.3059
  303MOL0     C41732   7.257   2.437   6.065  0.6305  0.1720 -0.6625
  303MOL0     C41733   7.131   2.426   6.016 -0.1387 -0.5842 -0.1277
  303MOL0     C41734   7.086   2.303   5.990 -0.6565  0.0491 -0.0999
  303MOL0     O41735   6.957   2.287   5.946  0.0150  0.2232  0.4875
  303MOL0     C41736   6.912   2.356   5.829 -0.1867 -0.5186  1.1286
  303MOL0     C41737   6.766   2.316   5.791  0.8700 -0.4433 -0.5314
  303MOL0     C41738   6.667   2.347   5.908  0.0094 -0.7947  0.5214
  303MOL0     C41739   6.526   2.348   5.860  0.2972 -0.3235 -0.8368
  303MOL0     C41740   6.440   2.397   5.967  0.6855 -0.7792 -0.5421
  303MOL0     C41741   6.360   2.430   6.059  0.0089  0.1071  0.5696
  303MOL0     C41742   7.160   2.187   6.018 -0.0829 -0.3530  0.5431
  303MOL0     C41743   7.295   2.197   6.057  0.3752  0.4957 -0.4283
  303MOL0     C41744   7.384   2.076   6.075  0.2967 -0.4666  0.0287
  303MOL0     H41745   7.583   2.722   6.217  3.3771 -0.4183 -2.6728
  303MOL0     H41746   7.762   2.799   6.356  0.7005 -0.3955  0.3132
  303MOL0     H41747   7.912   2.833   6.566  0.2634  0.6496  1.4501
  303MOL0     H41748   8.030   2.802   6.437  0.4275 -0.1906  0.3417
  303MOL0     H41749   8.049   2.693   6.725 -0.8061  1.7067  0.2279
  303MOL0     H41750   8.167   2.656   6.596  0.3595  0.7385  0.0630
  303MOL0     H41751   8.241   2.864   6.557 -1.1456 -1.6516 -1.6656
  303MOL0     H41752   8.112   2.950   6.643 -0.0222 -1.1662  2.6319
  303MOL0     H41753   8.192   2.863   6.857  1.7284 -2.0358  0.8619
  303MOL0     H41754   8.286   2.731   6.775 -0.4768 -1.0362 -1.3606
  303MOL0     H41755   8.450   2.888   6.701 -1.2362  2.3694 -1.6419
  303MOL0     H41756   8.440   2.894   6.876  2.3226  2.1272 -0.3851
  303MOL0     H41757   8.297   3.096   6.711 -0.4289 -0.4200 -0.7925
  303MOL0     H41758   8.332   3.100   6.887  1.4332 -1.1818  0.3934
  303MOL0     H41759   8.555   3.109   6.668  3.0701 -1.5244  1.7898
  303MOL0     H41760   8.568   3.123   6.844  1.1782  2.2278 -0.3104
  303MOL0     H41761   8.422   3.329   6.678  1.3221  2.0226 -0.1697
  303MOL0     H41762   8.416   3.312   6.848  0.1024 -1.3749  0.7357
  303MOL0     H41763   8.663   3.376   6.543 -0.7154  0.3965  0.4258
  303MOL0     H41764   8.986   3.541   6.682 -0.9840 -0.2155  1.4017
  303MOL0     H41765   8.876   3.543   6.534 -0.4960 -2.3272 -0.5580
  303MOL0     H41766   8.978   3.277   6.644  2.7849 -1.1146 -0.7855
  303MOL0     H41767   8.893   3.323   6.490  0.5561  1.6143  0.1439
  303MOL0     H41768   9.101   3.431   6.412  1.9969  0.5669  0.1476
  303MOL0     H41769   9.167   3.435   6.572 -0.6922  2.0835 -0.2472
  303MOL0     H41770   9.232   3.201   6.559 -1.0179 -0.2388  0.0008
  303MOL0     H41771   9.107   3.178   6.437  1.6226 -1.0217 -2.0823
  303MOL0     H41772   9.352   3.220   6.117 -1.4026 -0.6028  0.9882
  303MOL0     H41773   9.344   3.082   5.925 -0.9499 -0.9382  0.0021
  303MOL0     H41774   9.412   2.918   5.925 -0.5963 -0.2843  0.0913
  303MOL0     H41775   9.519   3.056   5.945 -0.1920  2.6939  4.3559
  303MOL0     H41776   9.626   2.580   5.950 -0.2406 -1.1526  1.4876
  303MOL0     H41777   9.804   2.419   5.958  0.6296 -0.0254 -0.0198
  303MOL0     H41778  10.175   2.476   6.201  1.5533 -2.6689 -0.2285
  303MOL0     H41779  10.033   2.437   6.297  0.3431 -0.3055  1.2028
  303MOL0     H41780  10.171   2.271   6.328  2.6317  1.2896 -0.9788
  303MOL0     H41781  10.064   2.197   6.214  0.8119 -1.1105 -3.4716
  303MOL0     H41782  10.331   2.318   6.098  1.2125 -0.3854 -0.4477
  303MOL0     H41783  10.200   2.245   6.022 -2.9150  3.0530  0.9294
  303MOL0     H41784  10.226   2.047   6.194  1.1914 -1.3942 -1.5811
  303MOL0     H41785  10.387   2.114   6.228  0.6807  0.2732 -1.7597
  303MOL0     H41786  10.289   2.037   5.947 -2.2491  1.7071  0.3239
  303MOL0     H41787  10.434   2.128   5.982 -1.0669 -1.3250 -2.5573
  303MOL0     H41788  10.366   1.846   6.081  0.3955 -1.8617 -0.6723
  303MOL0     H41789  10.505   1.938   6.137 -1.6205  1.8604 -0.2433
  303MOL0     H41790  10.611   1.916   5.913  0.0309 -2.3889  0.5378
  303MOL0     H41791  10.467   1.871   5.827  3.4248  0.1153 -1.9030
  303MOL0     H41792  10.448   1.667   5.913  0.2996 -0.0036 -2.0203
  303MOL0     H41793  10.562   1.683   6.040 -2.8270  0.1883 -0.0164
  303MOL0     H41794  10.044   2.672   6.198 -0.4212 -2.3047  2.1432
  303MOL0     H41795   9.849   2.825   6.222  0.7392 -0.0582 -0.4905
  303MOL0     H41796   9.374   2.805   6.375  4.0828 -0.2065 -1.1897
  303MOL0     H41797   9.284   3.007   6.479 -2.0318  1.3725 -1.0477
  303MOL0     H41798   7.836   2.390   6.492  2.2799  1.9892 -0.1120
  303MOL0     H41799   7.622   2.326   6.375 -0.6619  0.0935  1.0488
  303MOL0     H41800   7.290   2.537   6.087  1.6874 -0.5762  1.3464
  303MOL0     H41801   7.067   2.513   5.999  1.4909  0.2178 -2.9663
  303MOL0     H41802   6.925   2.463   5.846  2.8081 -0.0057 -2.7249
  303MOL0     H41803   6.983   2.319   5.754 -2.4734 -1.1409 -0.8367
  303MOL0     H41804   6.750   2.212   5.761  1.0111 -1.5099  2.6482
  303MOL0     H41805   6.742   2.374   5.701  2.5699  4.2211  1.6648
  303MOL0     H41806   6.687   2.270   5.983  0.5948  0.0744  1.2773
  303MOL0     H41807   6.692   2.441   5.958 -0.3286  1.0451 -2.5023
  303MOL0     H41808   6.493   2.247   5.835 -1.2924 -0.8141  2.5901
  303MOL0     H41809   6.521   2.413   5.772  0.3759 -0.5077 -0.9762
  303MOL0     H41810   6.284   2.451   6.131 -3.9548 -0.6807 -3.0059
  303MOL0     H41811   7.116   2.088   6.014  0.7711 -0.7140 -0.3436
  303MOL0     H41812   7.464   2.081   6.001  0.7048  0.9034  0.5441
  303MOL0     H41813   7.424   2.071   6.177 -0.4898  1.6179  0.4877
  303MOL0     H41814   7.331   1.983   6.050  1.8254 -1.5857  0.7768
  304MOL0     O41815   8.824   7.360   0.104 -0.0042 -1.6608  1.0837
  304MOL0     C41816   8.706   7.374   0.061 -0.3555 -0.4106  0.3729
  304MOL0     O41817   8.671   7.364  -0.070 -0.2988  0.1984 -0.3969
  304MOL0     C41818   8.778   7.347  -0.150 -0.6774  0.2996 -0.2043
  304MOL0     C41819   8.810   7.218  -0.189  1.1566 -0.0094 -0.2477
  304MOL0     C41820   8.907   7.205  -0.288 -0.2473 -0.0251  0.7019
  304MOL0     C41821   8.984   7.314  -0.341 -0.2075  0.4844 -0.1928
  304MOL0     O41822   9.086   7.283  -0.429 -0.7635 -0.4648 -0.4183
  304MOL0     C41823   9.190   7.380  -0.452 -0.5061  0.1769  0.6490
  304MOL0     C41824   9.276   7.348  -0.572 -0.8992  0.2435 -0.2988
  304MOL0     C41825   9.386   7.247  -0.528  0.0561 -0.7552  0.2634
  304MOL0     C41826   9.477   7.208  -0.638 -0.1773 -0.0970  0.4761
  304MOL0     C41827   9.575   7.109  -0.605 -0.2975  0.5572 -0.7678
  304MOL0     C41828   9.657   7.054  -0.727  0.1443  0.9026 -0.2781
  304MOL0     C41829   9.738   6.934  -0.681  0.0950  0.6160 -0.0742
  304MOL0     C41830   9.816   6.860  -0.795 -0.2565  0.3772 -1.1661
  304MOL0     N41831   9.900   6.748  -0.737  0.6783  0.9993 -0.6397
  304MOL0     C41832  10.013   6.776  -0.668  0.2256  0.3064  0.0133
  304MOL0     C41833  10.080   6.661  -0.657 -0.3156  0.6414 -0.6307
  304MOL0     C41834  10.212   6.638  -0.575 -0.3282  0.0713 -0.1738
  304MOL0     C41835  10.315   6.584  -0.667  0.1174  0.4916  1.0337
  304MOL0     C41836  10.425   6.531  -0.586 -0.1219  0.1211 -0.1961
  304MOL0     C41837  10.544   6.497  -0.667  0.4183 -0.1610  0.2276
  304MOL0     O41838  10.650   6.444  -0.588  0.8680 -0.0220 -0.5523
  304MOL0     C41839  10.779   6.459  -0.633  0.0847 -0.7817  0.0361
  304MOL0     C41840  10.873   6.418  -0.543  0.0474  0.9030 -0.5169
  304MOL0     C41841  11.007   6.399  -0.572  0.2331  0.7482 -0.4598
  304MOL0     C41842  11.082   6.315  -0.476 -1.0981  0.5752 -0.3270
  304MOL0     C41843  11.057   6.453  -0.693  0.5864 -0.3904 -0.2547
  304MOL0     C41844  11.193   6.467  -0.720 -0.5923  0.6090 -0.0015
  304MOL0     O41845  11.277   6.456  -0.619 -0.5925  0.5111 -0.3365
  304MOL0     C41846  11.404   6.416  -0.647  0.3031  0.6277 -0.0338
  304MOL0     C41847  11.434   6.292  -0.689  0.6965 -0.3292  0.0826
  304MOL0     C41848  11.566   6.261  -0.717 -0.7183  0.2235 -0.0388
  304MOL0     C41849  11.667   6.358  -0.711 -0.5856 -0.4285  0.1480
  304MOL0     O41850  11.796   6.349  -0.746  0.0022  0.3797 -0.8730
  304MOL0     C41851  11.824   6.241  -0.837  0.2346 -0.2553 -0.0091
  304MOL0     C41852  11.959   6.239  -0.900 -0.4845  0.1355 -0.6803
  304MOL0     C41853  12.071   6.210  -0.804  0.7692  0.1582  0.6623
  304MOL0     C41854  12.203   6.214  -0.870  0.0043  0.0242  0.0491
  304MOL0     C41855  12.315   6.157  -0.785  0.2483 -0.0259 -0.1074
  304MOL0     C41856  12.453   6.170  -0.847  0.0555  0.1580 -0.4365
  304MOL0     C41857  12.559   6.073  -0.777 -0.2332 -0.6602  0.2674
  304MOL0     C41858  12.700   6.133  -0.797  0.4133  0.2355  0.2603
  304MOL0    Cl41859  12.820   6.050  -0.706  0.4241  0.0366 -0.0331
  304MOL0     C41860  11.628   6.489  -0.680  0.0653 -0.2877 -0.1561
  304MOL0     C41861  11.503   6.515  -0.637 -0.1780 -0.4103  0.4971
  304MOL0     O41862  11.230   6.482  -0.836 -0.0981 -0.4807  0.1175
  304MOL0     C41863  10.965   6.501  -0.791 -0.7736  0.2511  0.4660
  304MOL0     C41864  10.829   6.499  -0.762 -0.4856  0.7001  0.1449
  304MOL0     N41865  10.008   6.559  -0.716  0.7013 -0.5090 -0.3948
  304MOL0     N41866   9.899   6.612  -0.774 -0.0559  0.1341  0.6840
  304MOL0     C41867   8.947   7.447  -0.301  0.4591 -0.0241  0.1570
  304MOL0     C41868   8.848   7.457  -0.207  0.3520  0.2731 -0.0825
  304MOL0     C41869   8.595   7.380   0.157 -0.1266  0.8005  0.6987
  304MOL0     C41870   8.469   7.420   0.104  0.2919  0.2022 -0.6120
  304MOL0     C41871   8.359   7.428   0.189 -0.0430 -0.3022 -0.5221
  304MOL0     C41872   8.371   7.379   0.326  0.6503 -0.7087 -0.0410
  304MOL0     O41873   8.263   7.368   0.415  0.2546  0.2468  0.2030
  304MOL0     C41874   8.130   7.379   0.367  0.7326 -0.4822  0.4496
  304MOL0     C41875   8.033   7.361   0.479 -0.1547  0.6801  0.5981
  304MOL0     C41876   8.039   7.212   0.515  0.3951  0.5077 -0.8656
  304MOL0     C41877   7.931   7.165   0.614 -0.9710  0.4026 -0.2705
  304MOL0     C41878   7.932   7.252   0.736 -0.1858 -0.3971  0.6039
  304MOL0     C41879   7.925   7.305   0.846  0.0378 -0.3801 -0.4368
  304MOL0     C41880   8.486   7.342   0.377 -0.0001 -0.0787  0.0121
  304MOL0     C41881   8.603   7.347   0.294 -0.1463 -0.6067  0.1195
  304MOL0     C41882   8.735   7.311   0.360  0.4171  0.6706  0.7883
  304MOL0     H41883   8.752   7.136  -0.150  0.1871  2.1415  3.2271
  304MOL0     H41884   8.934   7.102  -0.310 -1.0230  0.2036 -1.5455
  304MOL0     H41885   9.245   7.380  -0.357 -0.4830 -0.9874  0.6488
  304MOL0     H41886   9.156   7.483  -0.471  0.5736  0.5913  0.8796
  304MOL0     H41887   9.217   7.311  -0.656  0.1210 -1.4928 -0.2842
  304MOL0     H41888   9.327   7.438  -0.608  2.3782 -2.2840 -2.6228
  304MOL0     H41889   9.442   7.293  -0.446 -4.6169  0.2079  3.2447
  304MOL0     H41890   9.344   7.156  -0.484  1.5544 -0.4962  2.4083
  304MOL0     H41891   9.410   7.174  -0.717  1.3513  3.5931 -2.7398
  304MOL0     H41892   9.524   7.302  -0.671 -0.9690  0.4526  0.8909
  304MOL0     H41893   9.522   7.030  -0.551 -1.5267  1.5546 -0.4631
  304MOL0     H41894   9.651   7.147  -0.536 -0.9709  0.6058 -0.0426
  304MOL0     H41895   9.580   7.021  -0.798  0.4456  1.2782 -0.7835
  304MOL0     H41896   9.717   7.133  -0.773  0.7068  2.8699  3.4188
  304MOL0     H41897   9.679   6.860  -0.627 -0.0831  0.6825 -0.1777
  304MOL0     H41898   9.812   6.972  -0.609  1.2462 -0.1441 -0.8201
  304MOL0     H41899   9.738   6.816  -0.858 -2.6271 -2.3361  3.1374
  304MOL0     H41900   9.884   6.920  -0.855  2.4123  0.1845  1.4494
  304MOL0     H41901  10.030   6.874  -0.623 -1.1598  0.0250  1.2391
  304MOL0     H41902  10.197   6.568  -0.492  1.3858  0.6664  0.6824
  304MOL0     H41903  10.263   6.724  -0.531  1.0581 -2.4604  3.6453
  304MOL0     H41904  10.265   6.505  -0.724  0.2992 -0.3860  2.0604
  304MOL0     H41905  10.351   6.659  -0.739 -0.3786  0.7827  1.0858
  304MOL0     H41906  10.450   6.613  -0.517  2.0951  2.1886 -3.1738
  304MOL0     H41907  10.380   6.444  -0.538 -1.6287  0.3337 -1.1723
  304MOL0     H41908  10.516   6.425  -0.744 -0.5621 -0.2181  0.6234
  304MOL0     H41909  10.574   6.594  -0.707 -0.5267  0.2497  0.4884
  304MOL0     H41910  10.841   6.381  -0.446  0.3031  0.2243 -0.6806
  304MOL0     H41911  11.017   6.262  -0.406  1.4922 -1.0203  1.0406
  304MOL0     H41912  11.153   6.379  -0.422  1.0847  0.2710 -2.6793
  304MOL0     H41913  11.142   6.236  -0.522 -1.8335 -0.2512  0.0963
  304MOL0     H41914  11.364   6.209  -0.697  1.5750 -1.1667  0.8208
  304MOL0     H41915  11.590   6.158  -0.743 -0.0936  0.6255 -1.1038
  304MOL0     H41916  11.810   6.143  -0.790  0.8073 -0.8707 -1.0925
  304MOL0     H41917  11.751   6.257  -0.917  0.0692  2.9936  0.6661
  304MOL0     H41918  11.967   6.168  -0.983 -0.3010 -1.1751  0.4092
  304MOL0     H41919  11.973   6.340  -0.938  1.1789  1.1908  2.3378
  304MOL0     H41920  12.062   6.107  -0.768  1.7616 -0.4995 -0.8685
  304MOL0     H41921  12.065   6.269  -0.712 -0.3819 -1.0826  1.4213
  304MOL0     H41922  12.232   6.314  -0.905  2.7998 -0.8792 -0.4431
  304MOL0     H41923  12.208   6.156  -0.962  1.9413 -1.1176  0.7983
  304MOL0     H41924  12.311   6.209  -0.689 -0.2092 -0.1161 -0.0726
  304MOL0     H41925  12.289   6.052  -0.766 -0.4511 -0.6868 -3.8592
  304MOL0     H41926  12.489   6.272  -0.830  0.4379  0.0933 -0.8392
  304MOL0     H41927  12.455   6.150  -0.955 -0.9579 -1.3101 -0.2131
  304MOL0     H41928  12.549   5.977  -0.828 -0.4520 -0.5569  0.1105
  304MOL0     H41929  12.544   6.058  -0.670  1.7310 -4.8113  0.1436
  304MOL0     H41930  12.693   6.234  -0.757 -2.0140  1.6967 -3.2984
  304MOL0     H41931  12.722   6.131  -0.905  0.5959 -0.2492  0.3017
  304MOL0     H41932  11.692   6.577  -0.688  1.2119 -0.9808  0.9164
  304MOL0     H41933  11.465   6.615  -0.618 -0.1570 -0.5685  1.4346
  304MOL0     H41934  11.004   6.539  -0.885 -1.3292  5.3551  2.0221
  304MOL0     H41935  10.757   6.532  -0.836 -0.3077 -0.1612 -0.4264
  304MOL0     H41936   8.985   7.544  -0.332 -0.7207  1.4401  2.9711
  304MOL0     H41937   8.807   7.550  -0.169  0.1876 -0.1524  0.8199
  304MOL0     H41938   8.473   7.452   0.000 -0.7929  0.0294 -0.7213
  304MOL0     H41939   8.261   7.463   0.157 -0.9273 -0.9627  1.2977
  304MOL0     H41940   8.109   7.474   0.316  1.7117 -1.4649 -1.9361
  304MOL0     H41941   8.112   7.294   0.301  2.2773 -2.1841  2.1134
  304MOL0     H41942   7.934   7.404   0.457  0.1008  1.4586  0.9128
  304MOL0     H41943   8.059   7.427   0.563 -2.9124  0.7629  1.5097
  304MOL0     H41944   8.036   7.147   0.427  3.4111 -0.4572 -0.3677
  304MOL0     H41945   8.138   7.186   0.554 -0.3428 -0.8231  0.2337
  304MOL0     H41946   7.944   7.064   0.655 -0.5739  0.4901 -0.1763
  304MOL0     H41947   7.843   7.169   0.550 -1.6327  2.4580  0.6918
  304MOL0     H41948   7.917   7.353   0.941  1.1056 -0.6217 -0.2131
  304MOL0     H41949   8.487   7.323   0.484 -0.8465 -0.3918 -0.0270
  304MOL0     H41950   8.790   7.405   0.375  1.8260  0.4051 -1.9669
  304MOL0     H41951   8.730   7.248   0.449 -1.4802  0.1689  0.3734
  304MOL0     H41952   8.801   7.260   0.289  0.4847  3.0845 -1.0584
  305MOL0     O41953   5.022   9.007  10.872 -0.2564 -0.9870 -0.2707
  305MOL0     C41954   4.996   9.021  10.754  0.8167  0.7454  0.4258
  305MOL0     O41955   5.088   9.070  10.661 -0.0125  0.0665 -0.2353
  305MOL0     C41956   5.218   9.095  10.698 -1.4528  0.4923 -0.6810
  305MOL0     C41957   5.268   9.203  10.617 -0.1947 -0.4192 -0.1363
  305MOL0     C41958   5.409   9.218  10.612 -0.3673 -0.0511  0.1009
  305MOL0     C41959   5.496   9.153  10.695  0.7213 -0.2210 -0.5289
  305MOL0     O41960   5.628   9.191  10.694  0.3400  0.0431  0.9132
  305MOL0     C41961   5.728   9.091  10.726 -0.1480  0.1134  0.0427
  305MOL0     C41962   5.847   9.090  10.645 -0.0090 -0.5213  1.3419
  305MOL0     C41963   5.910   9.239  10.647  0.3584 -0.2174  0.4194
  305MOL0     C41964   6.041   9.229  10.561  0.3770 -0.7518  0.6518
  305MOL0     C41965   6.164   9.224  10.646  0.0916  0.2195  0.8519
  305MOL0     C41966   6.287   9.227  10.554  0.6450  0.0486 -0.5046
  305MOL0     C41967   6.324   9.084  10.523  0.0025  0.2398 -0.5958
  305MOL0     C41968   6.449   9.083  10.437  0.5910  0.0236  0.2983
  305MOL0     N41969   6.556   9.147  10.509 -0.8868  1.1005 -0.1291
  305MOL0     C41970   6.653   9.228  10.462 -0.1048  0.2335 -0.1548
  305MOL0     C41971   6.728   9.265  10.569  0.7716 -0.8128  0.9267
  305MOL0     C41972   6.856   9.353  10.557  0.2189 -0.3972 -0.5197
  305MOL0     C41973   6.970   9.296  10.481 -1.2964  0.0316 -0.9528
  305MOL0     C41974   7.096   9.383  10.478  0.0399 -0.3750 -0.0055
  305MOL0     C41975   7.203   9.324  10.386 -0.0009 -0.4743 -0.1009
  305MOL0     O41976   7.306   9.429  10.368 -0.3027  0.0642 -0.0285
  305MOL0     C41977   7.432   9.400  10.344  0.5958 -0.3280 -0.2038
  305MOL0     C41978   7.483   9.275  10.298  0.5390 -0.1751 -0.7079
  305MOL0     C41979   7.613   9.238  10.278 -0.0812 -0.5057 -0.8061
  305MOL0     C41980   7.646   9.111  10.218  0.8046  1.5149 -0.0186
  305MOL0     C41981   7.716   9.327  10.318  0.3249 -0.3710  0.4410
  305MOL0     C41982   7.868   9.309  10.305  0.4181 -0.7002 -0.4234
  305MOL0     O41983   7.947   9.421  10.336 -0.0990 -0.1349  0.5443
  305MOL0     C41984   8.079   9.398  10.346  0.2965 -0.0225  0.6281
  305MOL0     C41985   8.135   9.373  10.466 -0.2542 -0.6823 -0.3239
  305MOL0     C41986   8.272   9.358  10.479  0.4188  0.2073 -0.6879
  305MOL0     C41987   8.355   9.358  10.370 -0.2792  0.5993  0.7056
  305MOL0     O41988   8.485   9.341  10.394 -0.3549  0.2195 -0.1264
  305MOL0     C41989   8.579   9.378  10.287 -1.1508  0.3532 -0.5356
  305MOL0     C41990   8.614   9.243  10.213  0.4012 -0.7556  0.1214
  305MOL0     C41991   8.673   9.135  10.303 -0.4942  0.2268  0.1933
  305MOL0     C41992   8.692   9.010  10.227  0.6740  0.7720  1.1333
  305MOL0     C41993   8.798   9.012  10.114 -0.5696 -1.3417 -0.6082
  305MOL0     C41994   8.754   9.033   9.969 -0.0002  0.3000  0.0854
  305MOL0     C41995   8.665   8.916   9.915 -1.1097 -0.4608 -0.2063
  305MOL0     C41996   8.633   8.921   9.763  0.0269 -0.1070  0.3721
  305MOL0    Cl41997   8.782   8.894   9.661  0.0601  0.1972 -0.0356
  305MOL0     C41998   8.298   9.375  10.244 -0.8157 -0.4699 -0.1842
  305MOL0     C41999   8.159   9.396  10.231  0.3659 -0.5851 -0.1626
  305MOL0     O42000   7.908   9.205  10.260  0.2290 -0.2228 -0.4947
  305MOL0     C42001   7.673   9.446  10.380  0.5194 -0.4070 -0.4220
  305MOL0     C42002   7.538   9.480  10.390  0.9787  0.3018 -0.0178
  305MOL0     N42003   6.688   9.204  10.687  0.5464  0.3617 -0.8699
  305MOL0     N42004   6.591   9.130  10.642 -0.4859  0.2006  0.2766
  305MOL0     C42005   5.446   9.045  10.773 -0.2398  0.7880 -0.4236
  305MOL0     C42006   5.309   9.007  10.766  0.1504 -0.2567  0.4149
  305MOL0     C42007   4.859   8.965  10.707 -0.6521  0.3410  0.7369
  305MOL0     C42008   4.857   8.903  10.574  0.1935 -1.2596 -0.2717
  305MOL0     C42009   4.731   8.863  10.518  0.2595 -0.5167  0.7816
  305MOL0     C42010   4.613   8.875  10.595 -0.7501 -0.7728  0.5147
  305MOL0     O42011   4.482   8.831  10.556  0.0983  0.0408  0.3175
  305MOL0     C42012   4.483   8.764  10.427 -0.0204 -0.1967 -1.3351
  305MOL0     C42013   4.349   8.701  10.381 -0.0934  0.5615 -1.2614
  305MOL0     C42014   4.266   8.629  10.498 -0.0508  0.4466  0.0847
  305MOL0     C42015   4.116   8.606  10.469 -0.5649  0.2593  0.7219
  305MOL0     C42016   4.036   8.611  10.592 -0.4305 -0.1870  0.0536
  305MOL0     C42017   3.977   8.603  10.696  0.3963 -0.3722  0.1912
  305MOL0     C42018   4.626   8.936  10.721 -0.1532 -0.7719  0.9286
  305MOL0     C42019   4.747   8.981  10.779  0.0266 -0.3025  0.4754
  305MOL0     C42020   4.733   9.028  10.922  0.0768 -0.0354  0.3861
  305MOL0     H42021   5.202   9.260  10.553  1.4493 -0.6932 -2.2062
  305MOL0     H42022   5.459   9.290  10.547  0.8482 -1.0427 -0.1044
  305MOL0     H42023   5.684   8.991  10.726 -0.2610  0.1618 -0.2825
  305MOL0     H42024   5.751   9.114  10.831 -0.7913  2.1424 -0.2195
  305MOL0     H42025   5.914   9.021  10.699 -0.1053 -0.4506  1.5514
  305MOL0     H42026   5.812   9.059  10.546 -1.7759 -2.1053  2.4029
  305MOL0     H42027   5.843   9.307  10.594  2.9175 -0.5640 -3.6964
  305MOL0     H42028   5.940   9.278  10.745 -1.2343  0.6951  0.5851
  305MOL0     H42029   6.028   9.149  10.489 -0.3130 -0.8983  0.9375
  305MOL0     H42030   6.045   9.325  10.509  3.7375 -0.8718  0.4688
  305MOL0     H42031   6.159   9.138  10.713  0.5771  0.3387  1.0465
  305MOL0     H42032   6.159   9.310  10.715 -0.4440 -0.9919  2.3880
  305MOL0     H42033   6.260   9.280  10.462 -1.0499 -1.3648 -0.8865
  305MOL0     H42034   6.369   9.284  10.597 -0.9927 -0.5158  3.8887
  305MOL0     H42035   6.246   9.031  10.468  1.5380 -1.3025 -1.3761
  305MOL0     H42036   6.346   9.028  10.615 -0.3111 -0.1145 -0.7362
  305MOL0     H42037   6.476   8.978  10.421  2.7046  0.5926 -0.1124
  305MOL0     H42038   6.433   9.136  10.343  1.8705  1.3198  0.7699
  305MOL0     H42039   6.683   9.260  10.363  1.9314 -0.8832  0.0547
  305MOL0     H42040   6.898   9.373  10.656 -2.5346 -1.3694  0.9411
  305MOL0     H42041   6.837   9.450  10.511 -1.3345  1.6063  3.8177
  305MOL0     H42042   7.008   9.210  10.536  0.4698  2.2953  1.6254
  305MOL0     H42043   6.930   9.276  10.381 -3.1404  1.0945 -0.4777
  305MOL0     H42044   7.074   9.484  10.440 -1.7692 -0.7917 -0.1370
  305MOL0     H42045   7.138   9.390  10.579  0.3893 -0.3055 -0.1529
  305MOL0     H42046   7.251   9.236  10.430  0.5538  0.6929  1.7406
  305MOL0     H42047   7.159   9.297  10.289  0.1821 -1.5523  0.1009
  305MOL0     H42048   7.405   9.206  10.268 -2.1465  0.8498  3.0900
  305MOL0     H42049   7.719   9.126  10.138  0.7321  1.9366 -0.0081
  305MOL0     H42050   7.562   9.051  10.181  3.2471 -1.5594 -1.0521
  305MOL0     H42051   7.692   9.048  10.294 -2.3177  1.6293  2.1535
  305MOL0     H42052   8.076   9.356  10.555 -3.3492  1.3015 -1.8479
  305MOL0     H42053   8.302   9.343  10.582  0.9891  0.6525 -0.7865
  305MOL0     H42054   8.548   9.458  10.219  0.0626 -0.8980 -2.6406
  305MOL0     H42055   8.667   9.411  10.343 -0.1382 -3.7340  0.6502
  305MOL0     H42056   8.521   9.214  10.162  1.3698 -1.4700 -1.3386
  305MOL0     H42057   8.690   9.261  10.137 -2.0553 -0.1392 -2.3851
  305MOL0     H42058   8.611   9.123  10.392  0.0532 -0.9604  0.4439
  305MOL0     H42059   8.768   9.170  10.344 -1.1348  0.3324  1.6444
  305MOL0     H42060   8.596   9.000  10.176  1.1051  1.9656  0.0408
  305MOL0     H42061   8.721   8.930  10.296  2.1150 -0.2904 -0.6266
  305MOL0     H42062   8.858   9.097  10.149 -2.2402 -1.0017  1.7277
  305MOL0     H42063   8.861   8.923  10.120  1.3449 -0.0400 -0.5653
  305MOL0     H42064   8.847   9.034   9.910  1.4496 -0.2889  2.2489
  305MOL0     H42065   8.699   9.126   9.957 -0.2723 -0.0669 -1.8921
  305MOL0     H42066   8.572   8.912   9.974  0.0489  1.5742  1.9021
  305MOL0     H42067   8.711   8.819   9.937  0.6663  0.1963 -0.9005
  305MOL0     H42068   8.599   9.023   9.744  2.9647  0.6407 -1.5936
  305MOL0     H42069   8.559   8.842   9.748 -1.1481  0.5563  2.3520
  305MOL0     H42070   8.346   9.367  10.148 -0.9190  0.5384 -0.3278
  305MOL0     H42071   8.117   9.413  10.132  1.3362 -0.0598 -0.5017
  305MOL0     H42072   7.740   9.528  10.404 -0.5356  0.3321  0.0497
  305MOL0     H42073   7.525   9.575  10.440  1.8816  1.1572 -1.3384
  305MOL0     H42074   5.509   8.992  10.844  0.7046  2.4790  0.0560
  305MOL0     H42075   5.264   8.920  10.812  0.1413  0.7071  2.3227
  305MOL0     H42076   4.947   8.882  10.518  0.7209 -0.3243  0.1970
  305MOL0     H42077   4.731   8.811  10.423  0.1062 -2.9633  2.0618
  305MOL0     H42078   4.515   8.840  10.355 -1.8335  1.9204 -0.0376
  305MOL0     H42079   4.561   8.688  10.433  0.6051  0.5510  1.7266
  305MOL0     H42080   4.369   8.625  10.305  1.3928 -1.6800  1.1781
  305MOL0     H42081   4.286   8.781  10.340 -0.4771 -0.4320 -2.6993
  305MOL0     H42082   4.317   8.535  10.520 -1.7272 -1.1293 -2.2936
  305MOL0     H42083   4.279   8.702  10.578  2.3195 -2.3318  2.4941
  305MOL0     H42084   4.106   8.516  10.407  1.6432 -0.1813  0.9410
  305MOL0     H42085   4.069   8.681  10.405 -0.8221 -1.2258 -0.8968
  305MOL0     H42086   3.920   8.597  10.787 -1.9094 -0.2675 -1.1646
  305MOL0     H42087   4.538   8.958  10.781 -1.1926  2.4117 -1.4781
  305MOL0     H42088   4.639   8.999  10.971  0.3006  1.3108  1.6679
  305MOL0     H42089   4.819   9.006  10.986  0.8774  0.6256 -0.4324
  305MOL0     H42090   4.735   9.137  10.923 -1.3344  0.0132  1.3031
  306MOL0     O42091   8.737   6.837   0.457 -0.5542 -0.6166 -0.1828
  306MOL0     C42092   8.657   6.791   0.373 -0.5864 -0.4415  0.4249
  306MOL0     O42093   8.679   6.793   0.240  0.5503  0.3276 -0.9795
  306MOL0     C42094   8.796   6.851   0.188  0.7341 -0.3917 -0.7153
  306MOL0     C42095   8.910   6.777   0.175 -0.4497  0.2454 -0.3395
  306MOL0     C42096   9.026   6.832   0.128 -0.3733 -0.0388 -1.0041
  306MOL0     C42097   9.026   6.964   0.089 -0.2199  0.0095 -0.7763
  306MOL0     O42098   9.144   7.019   0.027  0.1154  0.0730  0.1223
  306MOL0     C42099   9.148   7.164  -0.003  0.2287 -0.9761  0.7289
  306MOL0     C42100   9.273   7.196  -0.079  1.0323  0.0484  0.0762
  306MOL0     C42101   9.403   7.201  -0.007 -0.1407  0.0806 -0.8107
  306MOL0     C42102   9.446   7.344   0.008 -0.0803 -0.4289 -1.2854
  306MOL0     C42103   9.578   7.359   0.093 -0.3469 -0.5939  0.4493
  306MOL0     C42104   9.545   7.339   0.241  0.0952  0.1854 -0.4475
  306MOL0     C42105   9.667   7.313   0.329  0.1204  0.3071 -0.1577
  306MOL0     C42106   9.638   7.296   0.477 -0.1511 -0.1262 -0.0394
  306MOL0     N42107   9.600   7.167   0.517 -0.6199  0.5413  0.0108
  306MOL0     C42108   9.476   7.111   0.486  0.9174  0.1139  0.0786
  306MOL0     C42109   9.476   6.990   0.542 -0.1102  0.5273  0.2262
  306MOL0     C42110   9.368   6.877   0.540 -0.7573 -0.2568 -0.2823
  306MOL0     C42111   9.227   6.913   0.601  0.4460 -0.5462 -0.1315
  306MOL0     C42112   9.137   6.968   0.488 -0.6059  0.6186 -0.5004
  306MOL0     C42113   9.012   7.031   0.543  0.0445  0.0593 -0.3412
  306MOL0     O42114   9.027   7.137   0.636  0.3978  0.3366 -0.4725
  306MOL0     C42115   9.087   7.254   0.592  0.3693 -0.0263 -0.1859
  306MOL0     C42116   9.105   7.302   0.460 -0.4511 -0.1877 -0.3677
  306MOL0     C42117   9.193   7.415   0.431  0.8678  0.5728 -0.0377
  306MOL0     C42118   9.182   7.466   0.291 -0.0566  0.6759 -0.9020
  306MOL0     C42119   9.256   7.484   0.539 -0.0273 -0.9646 -0.7863
  306MOL0     C42120   9.352   7.595   0.518  0.8915 -0.1982  0.2050
  306MOL0     O42121   9.449   7.618   0.609  0.5668 -0.4268 -0.4854
  306MOL0     C42122   9.542   7.712   0.573  1.5307 -0.1604  0.8069
  306MOL0     C42123   9.579   7.804   0.670  0.2423  0.0987  0.5380
  306MOL0     C42124   9.664   7.907   0.633 -0.1646  1.1721  0.6557
  306MOL0     C42125   9.724   7.908   0.510  0.4546  0.4131 -0.5263
  306MOL0     O42126   9.822   7.995   0.470  0.5023  0.5509 -0.2961
  306MOL0     C42127   9.925   8.044   0.551 -0.4016 -0.7931 -0.1130
  306MOL0     C42128  10.043   8.098   0.464  0.1060  0.4330  0.0095
  306MOL0     C42129  10.129   7.984   0.406 -0.3265 -0.8558  0.6145
  306MOL0     C42130  10.222   8.033   0.290 -0.2482  0.5542  0.5370
  306MOL0     C42131  10.349   7.940   0.274  0.0818 -0.6908  0.3492
  306MOL0     C42132  10.472   8.010   0.205 -0.0623  1.0351  0.3347
  306MOL0     C42133  10.605   7.943   0.244  0.3201 -0.3838  0.0071
  306MOL0     C42134  10.724   8.005   0.186  0.0713 -0.2074  0.6427
  306MOL0    Cl42135  10.695   8.047   0.015  0.4594  0.1412  0.0232
  306MOL0     C42136   9.683   7.825   0.404 -0.0486  0.2391  0.1848
  306MOL0     C42137   9.593   7.719   0.442  0.0857 -0.2248  0.5171
  306MOL0     O42138   9.323   7.670   0.423  0.5078 -0.1569 -0.2566
  306MOL0     C42139   9.232   7.435   0.663  0.0784 -0.0146 -1.3463
  306MOL0     C42140   9.153   7.319   0.692 -0.6319 -0.8995  0.6315
  306MOL0     N42141   9.601   6.977   0.612  0.1116 -0.1069  0.3016
  306MOL0     N42142   9.670   7.082   0.593  0.0216  0.4875 -1.0699
  306MOL0     C42143   8.916   7.040   0.114 -0.5560  0.3702 -0.0339
  306MOL0     C42144   8.798   6.984   0.159  0.6192 -0.9855  0.0346
  306MOL0     C42145   8.523   6.773   0.429 -0.2651  1.2402 -0.1678
  306MOL0     C42146   8.476   6.866   0.522  0.3950 -0.2479  0.7132
  306MOL0     C42147   8.339   6.861   0.554 -0.1718  0.5429 -0.4420
  306MOL0     C42148   8.255   6.756   0.525  0.0326 -0.0067  0.4471
  306MOL0     O42149   8.128   6.756   0.580  0.1552 -0.6898  0.2716
  306MOL0     C42150   8.041   6.639   0.569  0.0836  0.5021  0.5683
  306MOL0     C42151   8.091   6.538   0.673  0.0764 -0.1084  0.2651
  306MOL0     C42152   8.041   6.584   0.810  0.4529 -0.6858 -0.4112
  306MOL0     C42153   8.073   6.481   0.920  0.2764 -0.0015  0.2374
  306MOL0     C42154   8.096   6.559   1.044  0.8892  0.6391 -0.6684
  306MOL0     C42155   8.118   6.616   1.150 -0.3698  0.6502 -0.0682
  306MOL0     C42156   8.305   6.656   0.428  0.3827  0.1688 -0.1951
  306MOL0     C42157   8.431   6.678   0.380  0.4648 -0.7560 -0.4027
  306MOL0     C42158   8.472   6.578   0.272  0.7996  0.4493 -0.6271
  306MOL0     H42159   8.907   6.676   0.215 -0.9564 -0.2379 -1.5436
  306MOL0     H42160   9.109   6.767   0.103 -0.2294 -0.0376 -0.5399
  306MOL0     H42161   9.131   7.233   0.080 -0.5738  0.9071 -0.9272
  306MOL0     H42162   9.059   7.191  -0.060  0.8025  0.9032  0.6605
  306MOL0     H42163   9.294   7.128  -0.163 -0.5070 -2.1570  1.3856
  306MOL0     H42164   9.247   7.294  -0.120  2.8314  0.2411 -0.7152
  306MOL0     H42165   9.398   7.153   0.091  0.6021  0.5707 -0.5288
  306MOL0     H42166   9.486   7.153  -0.060 -0.4016  0.6956 -1.7917
  306MOL0     H42167   9.465   7.391  -0.089  0.2534  2.4357  0.0445
  306MOL0     H42168   9.371   7.404   0.061 -1.2963 -1.3274 -1.9474
  306MOL0     H42169   9.623   7.458   0.086 -0.8527 -0.3106  1.1597
  306MOL0     H42170   9.642   7.277   0.058 -1.4127  0.6291 -5.4166
  306MOL0     H42171   9.500   7.428   0.284  0.2776 -0.6728  1.6178
  306MOL0     H42172   9.477   7.256   0.261 -1.0745  1.5328  1.4156
  306MOL0     H42173   9.731   7.401   0.332  1.0627 -0.3316 -0.7301
  306MOL0     H42174   9.730   7.230   0.293  0.3733  0.5432 -0.2666
  306MOL0     H42175   9.726   7.309   0.542 -1.9433 -0.9563  2.7092
  306MOL0     H42176   9.559   7.369   0.499  0.7161  1.3213 -1.5171
  306MOL0     H42177   9.387   7.161   0.449  0.9372  1.1121  1.3175
  306MOL0     H42178   9.421   6.798   0.594  0.3952 -0.7482 -2.0662
  306MOL0     H42179   9.356   6.851   0.434 -1.0696 -0.4732 -0.1963
  306MOL0     H42180   9.186   6.833   0.664 -0.1549  1.0885  1.6509
  306MOL0     H42181   9.246   6.999   0.665  1.4690 -0.2164 -0.8571
  306MOL0     H42182   9.187   7.036   0.419  0.6168 -0.0138 -0.2628
  306MOL0     H42183   9.116   6.879   0.428  4.3245 -0.4846 -1.0272
  306MOL0     H42184   8.951   7.059   0.457  0.6321 -4.3175 -2.4659
  306MOL0     H42185   8.951   6.953   0.589  0.1204  0.1530 -0.0802
  306MOL0     H42186   9.057   7.255   0.375 -2.4099  0.4616  0.3209
  306MOL0     H42187   9.145   7.568   0.284 -1.6356  0.5044  2.6162
  306MOL0     H42188   9.129   7.398   0.224  0.0728  0.5984 -0.9261
  306MOL0     H42189   9.282   7.468   0.247  0.6905 -1.8752  0.4621
  306MOL0     H42190   9.546   7.799   0.773 -0.0360  1.8236  0.5707
  306MOL0     H42191   9.696   7.985   0.702 -0.6207  1.5134  0.4895
  306MOL0     H42192   9.889   8.133   0.603  3.3363  3.4268 -3.7718
  306MOL0     H42193   9.956   7.965   0.620 -0.9945 -2.1122 -1.2983
  306MOL0     H42194  10.002   8.155   0.381 -1.2137  0.6788  0.7984
  306MOL0     H42195  10.110   8.170   0.512  3.3186  0.3956 -3.8809
  306MOL0     H42196  10.078   7.892   0.377  1.0536 -1.7361  0.8694
  306MOL0     H42197  10.202   7.947   0.479  0.1346  1.0380  1.1684
  306MOL0     H42198  10.245   8.140   0.296  1.6183  0.2365 -0.3710
  306MOL0     H42199  10.172   7.999   0.199 -2.0045 -0.6050  1.8599
  306MOL0     H42200  10.372   7.903   0.374  0.8715 -0.1891  0.3669
  306MOL0     H42201  10.334   7.857   0.204 -4.0963 -2.4329  2.9565
  306MOL0     H42202  10.472   8.117   0.231 -0.3042  1.8322 -2.5321
  306MOL0     H42203  10.449   8.017   0.098 -0.9544  0.9320  0.5096
  306MOL0     H42204  10.595   7.838   0.213  1.3172 -0.0545 -1.5360
  306MOL0     H42205  10.611   7.950   0.353  0.1726  2.1870 -0.0834
  306MOL0     H42206  10.802   7.928   0.177  0.7897  0.6136 -0.4417
  306MOL0     H42207  10.766   8.081   0.252 -2.4339  0.6062  1.3845
  306MOL0     H42208   9.725   7.826   0.304 -1.1495 -3.2936 -0.4507
  306MOL0     H42209   9.568   7.652   0.360  3.0050  1.3627 -1.8841
  306MOL0     H42210   9.287   7.480   0.745  0.3408 -0.9696 -0.9820
  306MOL0     H42211   9.159   7.266   0.786  2.5318 -1.2289  0.3360
  306MOL0     H42212   8.933   7.146   0.098  1.9575 -0.3497 -3.1310
  306MOL0     H42213   8.722   7.061   0.165  3.2760  1.8394  0.4356
  306MOL0     H42214   8.544   6.937   0.567  0.8791 -0.4231  0.2640
  306MOL0     H42215   8.312   6.942   0.621  1.9286 -0.1415  1.3458
  306MOL0     H42216   7.938   6.670   0.587  0.1372  1.6168 -0.9195
  306MOL0     H42217   8.052   6.588   0.473 -1.4816  1.1852 -0.0105
  306MOL0     H42218   8.199   6.525   0.675  0.1559  0.4768  0.0155
  306MOL0     H42219   8.063   6.438   0.636  1.5644 -1.8524  3.4524
  306MOL0     H42220   8.096   6.677   0.824  0.9871 -0.5671 -2.8833
  306MOL0     H42221   7.932   6.594   0.802  0.0706 -3.7912 -0.5272
  306MOL0     H42222   8.161   6.418   0.905 -0.0919 -0.7909  1.2636
  306MOL0     H42223   7.979   6.427   0.930 -0.6674  1.3401 -0.9714
  306MOL0     H42224   8.126   6.662   1.246 -2.0656  0.1420  0.3513
  306MOL0     H42225   8.246   6.572   0.391  2.3802 -1.4422  0.1112
  306MOL0     H42226   8.389   6.515   0.240 -0.1571  3.2191 -4.2441
  306MOL0     H42227   8.494   6.643   0.187 -0.7827 -0.5016 -1.8051
  306MOL0     H42228   8.558   6.515   0.300 -0.5925 -1.2957 -0.0877
  307MOL0     O42229   5.543   8.679   7.722  0.6696 -0.9430  0.2883
  307MOL0     C42230   5.622   8.763   7.756 -0.2920  0.0402  0.4311
  307MOL0     O42231   5.718   8.744   7.845  0.2911  0.3701 -0.1779
  307MOL0     C42232   5.755   8.621   7.895  0.6322  0.4048 -0.4201
  307MOL0     C42233   5.869   8.637   7.977 -1.0389 -0.1926  0.0847
  307MOL0     C42234   5.911   8.523   8.049 -0.2123  0.2199 -0.2190
  307MOL0     C42235   5.849   8.398   8.060 -0.9328  0.1320 -0.6084
  307MOL0     O42236   5.911   8.296   8.142 -1.4503 -0.2869  0.4312
  307MOL0     C42237   5.860   8.167   8.127  0.4991 -0.2542  0.1768
  307MOL0     C42238   5.968   8.062   8.117 -0.1986 -0.7343  0.3461
  307MOL0     C42239   6.090   8.091   8.031 -0.8437 -1.3940  0.0366
  307MOL0     C42240   6.187   7.977   7.998  0.2231 -0.2057  0.0637
  307MOL0     C42241   6.246   7.926   8.128  0.0568  0.3675  0.9374
  307MOL0     C42242   6.374   7.832   8.107  0.2285  0.2401  0.2977
  307MOL0     C42243   6.370   7.703   8.188 -0.3853  0.0905  0.9525
  307MOL0     C42244   6.463   7.588   8.145  0.3017 -0.0071  0.5429
  307MOL0     N42245   6.435   7.469   8.225  0.9073 -0.0865 -0.4216
  307MOL0     C42246   6.439   7.465   8.361  0.1958 -0.9093  0.4798
  307MOL0     C42247   6.403   7.341   8.392 -0.4112 -0.1723  0.5400
  307MOL0     C42248   6.402   7.277   8.523  0.1904  0.0846  0.0296
  307MOL0     C42249   6.259   7.284   8.574 -0.0409  0.7918  0.0679
  307MOL0     C42250   6.166   7.179   8.513 -0.4986 -0.4470 -0.2402
  307MOL0     C42251   6.223   7.036   8.535  0.4732  0.0174 -0.0328
  307MOL0     O42252   6.140   6.928   8.494 -0.2610 -0.3128 -0.1812
  307MOL0     C42253   6.051   6.884   8.591 -1.0223  0.0015  0.1078
  307MOL0     C42254   5.976   6.778   8.553 -0.0349 -0.1496 -0.1545
  307MOL0     C42255   5.872   6.718   8.629 -1.7927 -0.6504 -0.5314
  307MOL0     C42256   5.814   6.592   8.576  0.0571  0.8084 -0.4849
  307MOL0     C42257   5.852   6.780   8.754 -0.2599  0.7854  0.4522
  307MOL0     C42258   5.749   6.719   8.844 -0.2438  0.2341 -0.4077
  307MOL0     O42259   5.629   6.692   8.784  0.1616 -1.0933  0.5415
  307MOL0     C42260   5.512   6.666   8.849 -0.3673  0.2185 -0.9675
  307MOL0     C42261   5.411   6.653   8.755 -0.1393 -0.1899 -0.8733
  307MOL0     C42262   5.280   6.627   8.801 -0.4460  0.1313  0.2544
  307MOL0     C42263   5.246   6.649   8.940 -0.1781 -0.4325 -0.9485
  307MOL0     O42264   5.108   6.637   8.979  0.7540  0.6336 -0.0530
  307MOL0     C42265   5.054   6.749   9.053  1.3016  0.5120 -0.3856
  307MOL0     C42266   4.906   6.743   9.043  0.8318 -0.9523  0.0749
  307MOL0     C42267   4.835   6.646   9.135 -0.3589  0.1017 -0.1768
  307MOL0     C42268   4.707   6.586   9.073 -0.4475 -0.6739  0.0511
  307MOL0     C42269   4.612   6.691   9.019  0.4403 -0.5153 -0.2900
  307MOL0     C42270   4.499   6.639   8.927 -0.1432  0.2274 -0.4344
  307MOL0     C42271   4.379   6.736   8.916 -0.0408 -0.6070  0.2760
  307MOL0     C42272   4.278   6.711   9.024  0.4979  0.0807 -0.8651
  307MOL0    Cl42273   4.154   6.840   9.018  0.5280  0.1608 -0.0015
  307MOL0     C42274   5.347   6.681   9.028 -0.0247 -0.0391 -0.7259
  307MOL0     C42275   5.481   6.684   8.985  0.4033 -0.9161  0.0653
  307MOL0     O42276   5.779   6.697   8.962 -0.4315 -0.1346 -0.1597
  307MOL0     C42277   5.922   6.891   8.795 -0.9920  0.3070 -0.7818
  307MOL0     C42278   6.025   6.939   8.718 -1.2494 -0.3532 -0.1910
  307MOL0     N42279   6.392   7.269   8.276 -0.8036 -0.6172  0.2527
  307MOL0     N42280   6.408   7.347   8.172 -0.2809  0.2925  0.3873
  307MOL0     C42281   5.729   8.390   7.994  0.5978 -0.3024 -0.0398
  307MOL0     C42282   5.677   8.493   7.912  0.6382 -0.0419  0.4498
  307MOL0     C42283   5.597   8.892   7.681  0.3595  0.6405  0.2635
  307MOL0     C42284   5.472   8.932   7.622 -0.1050  0.3224 -0.3585
  307MOL0     C42285   5.449   9.040   7.543 -1.0162 -0.3705  0.1937
  307MOL0     C42286   5.552   9.127   7.511  0.1478 -0.8442  0.8500
  307MOL0     O42287   5.551   9.228   7.414 -1.0459 -0.0824  0.0055
  307MOL0     C42288   5.432   9.275   7.354  0.3433 -0.2105 -0.5797
  307MOL0     C42289   5.462   9.382   7.237  0.1992  0.2983 -0.3391
  307MOL0     C42290   5.483   9.523   7.284 -0.0776  0.1760  0.1790
  307MOL0     C42291   5.615   9.547   7.365 -0.3810 -0.0481  0.3092
  307MOL0     C42292   5.617   9.666   7.424 -0.6497 -0.2714 -0.9900
  307MOL0     C42293   5.598   9.769   7.487 -0.6793 -0.3416  0.3215
  307MOL0     C42294   5.672   9.101   7.575  0.1079  0.1674 -0.3327
  307MOL0     C42295   5.698   8.996   7.668  0.5539 -0.3907 -0.4656
  307MOL0     C42296   5.835   8.991   7.735 -0.3593  0.1705  0.5394
  307MOL0     H42297   5.916   8.734   7.993  1.3950 -1.6992  3.3268
  307MOL0     H42298   6.004   8.515   8.104 -0.6681 -3.6624  0.2907
  307MOL0     H42299   5.800   8.157   8.036 -0.0446  1.5538  0.2900
  307MOL0     H42300   5.800   8.148   8.217  3.6381 -3.6323  1.8360
  307MOL0     H42301   6.001   8.047   8.220  0.2406  2.1558  0.7054
  307MOL0     H42302   5.925   7.968   8.082 -1.3054 -0.6887  1.5033
  307MOL0     H42303   6.060   8.152   7.946  1.2503  0.6220  0.6501
  307MOL0     H42304   6.144   8.160   8.096  2.1476 -4.9380  1.6876
  307MOL0     H42305   6.136   7.895   7.947 -2.6717 -0.3795  2.9468
  307MOL0     H42306   6.273   8.017   7.943  0.8906 -0.1737  1.0941
  307MOL0     H42307   6.166   7.857   8.159 -0.9621  0.4282 -1.3521
  307MOL0     H42308   6.259   8.004   8.203 -1.0634  0.5089  1.0129
  307MOL0     H42309   6.371   7.796   8.004 -0.7054  0.2157  0.3223
  307MOL0     H42310   6.456   7.897   8.137 -1.7070  1.6361  3.0823
  307MOL0     H42311   6.268   7.666   8.197  0.1280 -1.2475  1.5675
  307MOL0     H42312   6.398   7.730   8.290 -0.4628  1.7565  0.5620
  307MOL0     H42313   6.425   7.556   8.048 -0.5183 -0.3475  0.9626
  307MOL0     H42314   6.571   7.608   8.148  0.3123  0.3928 -1.3087
  307MOL0     H42315   6.458   7.546   8.430  0.4301 -0.5797  0.0341
  307MOL0     H42316   6.462   7.340   8.589 -0.6561 -0.1755  1.0774
  307MOL0     H42317   6.444   7.177   8.503  0.9212  0.9035 -3.1177
  307MOL0     H42318   6.276   7.273   8.682  3.3439 -0.5527 -0.4793
  307MOL0     H42319   6.215   7.383   8.559  1.2854  1.3294 -0.4172
  307MOL0     H42320   6.071   7.196   8.564 -0.5088 -1.2015  0.0108
  307MOL0     H42321   6.152   7.203   8.407 -0.8527  3.8852  0.6246
  307MOL0     H42322   6.319   7.023   8.484 -0.7595 -0.2699 -2.3953
  307MOL0     H42323   6.255   7.011   8.636 -3.0121 -0.3368  1.1333
  307MOL0     H42324   6.003   6.749   8.452 -0.8596  4.7973 -2.0496
  307MOL0     H42325   5.835   6.499   8.629  1.2215  1.9183  1.0911
  307MOL0     H42326   5.846   6.559   8.476  0.3135 -2.2902  0.5162
  307MOL0     H42327   5.705   6.590   8.567 -0.1006 -1.6021  1.0306
  307MOL0     H42328   5.419   6.641   8.647  0.4919  1.0048 -0.9659
  307MOL0     H42329   5.207   6.580   8.735  1.1723 -2.6715  0.3096
  307MOL0     H42330   5.098   6.743   9.153  3.7363 -2.3173 -1.4603
  307MOL0     H42331   5.086   6.841   9.003 -0.0949  0.2801 -1.7645
  307MOL0     H42332   4.867   6.843   9.064 -1.7420 -2.1361  1.3636
  307MOL0     H42333   4.872   6.724   8.941 -0.2779  0.9298  0.0464
  307MOL0     H42334   4.813   6.692   9.232 -0.2516 -1.5369  0.6559
  307MOL0     H42335   4.910   6.568   9.154 -0.6461  0.2292  1.5996
  307MOL0     H42336   4.654   6.518   9.140 -2.5679 -2.2897 -3.0045
  307MOL0     H42337   4.737   6.519   8.991  0.2533  0.2771 -0.4788
  307MOL0     H42338   4.577   6.734   9.113  1.2615 -2.9607  1.2342
  307MOL0     H42339   4.664   6.769   8.962 -0.5861  1.3414  1.1806
  307MOL0     H42340   4.450   6.546   8.956  1.8236 -0.6328  0.3433
  307MOL0     H42341   4.548   6.614   8.832  1.1912 -1.1948  0.5776
  307MOL0     H42342   4.330   6.727   8.818  0.0947 -0.8957  0.2347
  307MOL0     H42343   4.419   6.838   8.921  0.3094 -0.7848  1.4060
  307MOL0     H42344   4.328   6.714   9.121 -0.2281 -0.2219 -0.4706
  307MOL0     H42345   4.228   6.615   9.010 -0.1024  0.2639 -0.1195
  307MOL0     H42346   5.331   6.691   9.135  0.3139 -0.6349 -0.6151
  307MOL0     H42347   5.560   6.700   9.058 -1.2785  1.7412  1.4554
  307MOL0     H42348   5.905   6.941   8.890 -2.5145  0.3045 -1.0347
  307MOL0     H42349   6.071   7.031   8.753 -1.9120 -0.0457 -0.1152
  307MOL0     H42350   5.674   8.297   7.999 -0.4284  0.2001 -1.2698
  307MOL0     H42351   5.579   8.477   7.869  1.0461 -0.9413 -0.1835
  307MOL0     H42352   5.385   8.874   7.651  1.1398 -1.5235 -0.1053
  307MOL0     H42353   5.355   9.054   7.492 -0.4120 -1.4608 -1.2940
  307MOL0     H42354   5.381   9.192   7.304 -1.9431  0.5041  0.4137
  307MOL0     H42355   5.363   9.314   7.430 -0.8533  0.4870 -1.9864
  307MOL0     H42356   5.393   9.376   7.153  0.6132 -2.8503 -0.5791
  307MOL0     H42357   5.561   9.351   7.202  0.4135  1.4922 -0.8298
  307MOL0     H42358   5.487   9.587   7.196  1.6118  1.7452  1.3018
  307MOL0     H42359   5.405   9.554   7.354 -1.1180 -1.3597 -0.2548
  307MOL0     H42360   5.699   9.533   7.296 -0.8405 -1.3769 -0.0228
  307MOL0     H42361   5.631   9.471   7.442  0.1623 -0.5651 -0.2964
  307MOL0     H42362   5.572   9.848   7.555 -0.5596 -1.0560  1.2318
  307MOL0     H42363   5.749   9.173   7.550  1.2588 -1.1003 -0.5218
  307MOL0     H42364   5.894   8.902   7.711  0.5197  1.2195 -1.4221
  307MOL0     H42365   5.900   9.078   7.724 -0.0823  0.1963  2.1565
  307MOL0     H42366   5.825   8.978   7.843  0.9605 -0.2711  0.6147
  308MOL0     O42367  10.675   0.076   4.480 -0.1814 -1.0987  0.4608
  308MOL0     C42368  10.630   0.172   4.415 -0.3088  0.6462  0.5638
  308MOL0     O42369  10.699   0.278   4.361  0.1149 -0.5102 -0.1437
  308MOL0     C42370  10.838   0.296   4.372 -0.2829  0.2764 -0.0685
  308MOL0     C42371  10.928   0.242   4.468  0.8778 -0.0093 -0.1102
  308MOL0     C42372  11.059   0.290   4.479  0.0620 -0.6418  0.7703
  308MOL0     C42373  11.114   0.380   4.388 -0.1296 -1.1018  0.0953
  308MOL0     O42374  11.248   0.418   4.391  0.0212  0.0236  0.5954
  308MOL0     C42375  11.315   0.453   4.263  0.4757  0.2643  0.0928
  308MOL0     C42376  11.457   0.496   4.292 -0.3317  0.8708  0.0087
  308MOL0     C42377  11.473   0.622   4.379 -0.4302 -0.4042  0.3029
  308MOL0     C42378  11.626   0.634   4.408 -1.0907  0.4130  0.4341
  308MOL0     C42379  11.665   0.767   4.458  0.6577 -0.5235  1.3262
  308MOL0     C42380  11.605   0.796   4.593 -0.4210 -0.3277 -1.2719
  308MOL0     C42381  11.639   0.935   4.642  0.3930 -0.1026  0.5404
  308MOL0     C42382  11.591   0.944   4.793  1.0536  0.8500 -0.1690
  308MOL0     N42383  11.673   0.863   4.886  0.0804 -0.3826  1.1845
  308MOL0     C42384  11.792   0.901   4.943  0.5636  0.7924 -0.7811
  308MOL0     C42385  11.830   0.794   5.013 -0.2858 -0.2886 -0.0355
  308MOL0     C42386  11.963   0.774   5.082  0.3313 -0.4570 -0.2140
  308MOL0     C42387  12.091   0.778   4.993  0.2090  0.3615  0.1686
  308MOL0     C42388  12.072   0.685   4.873  0.1275 -0.3256  0.4662
  308MOL0     C42389  12.170   0.726   4.764  0.8324 -0.1064  0.5634
  308MOL0     O42390  12.136   0.655   4.651  0.2863  0.1247  0.8958
  308MOL0     C42391  12.230   0.633   4.558  0.9776 -0.1425  0.5366
  308MOL0     C42392  12.202   0.529   4.472  0.0425 -0.1797 -0.1409
  308MOL0     C42393  12.300   0.484   4.380 -0.4487  0.7943 -0.4933
  308MOL0     C42394  12.255   0.363   4.295 -0.8520 -0.5828  0.6517
  308MOL0     C42395  12.435   0.529   4.385 -0.2764  0.6839 -0.6952
  308MOL0     C42396  12.542   0.470   4.309  0.1010  0.4324  0.4691
  308MOL0     O42397  12.659   0.531   4.322  0.7402 -0.3486  0.2524
  308MOL0     C42398  12.763   0.472   4.255 -0.2668 -0.0869 -0.1352
  308MOL0     C42399  12.809   0.523   4.135 -0.2210 -0.3332 -0.4513
  308MOL0     C42400  12.920   0.462   4.077 -0.2336  0.5351  0.6546
  308MOL0     C42401  12.976   0.348   4.133 -0.4171 -0.4593  0.4584
  308MOL0     O42402  13.079   0.278   4.073 -0.3552  0.3585  0.5749
  308MOL0     C42403  13.084   0.267   3.929 -0.5330 -0.9556  0.1489
  308MOL0     C42404  13.219   0.200   3.897 -0.7665 -0.2602  0.3908
  308MOL0     C42405  13.347   0.286   3.914  0.0497  0.4598 -0.7003
  308MOL0     C42406  13.462   0.189   3.963  0.9345  0.5378  0.5906
  308MOL0     C42407  13.561   0.282   4.040 -0.6813 -0.3943 -0.6236
  308MOL0     C42408  13.685   0.197   4.068 -0.0172 -0.4489  0.0792
  308MOL0     C42409  13.781   0.277   4.151  0.4302  0.3557  0.2554
  308MOL0     C42410  13.911   0.203   4.197  0.1520 -0.2810 -0.4481
  308MOL0    Cl42411  14.025   0.178   4.053  0.5876 -0.3835 -0.1766
  308MOL0     C42412  12.938   0.304   4.257  0.0691  0.0341 -0.3252
  308MOL0     C42413  12.828   0.369   4.319 -0.5225  0.7552  0.3238
  308MOL0     O42414  12.516   0.376   4.233 -0.7250 -0.2038 -0.2682
  308MOL0     C42415  12.458   0.637   4.469  1.0235 -0.4074 -0.1775
  308MOL0     C42416  12.355   0.700   4.543 -0.0066 -0.3726 -0.2557
  308MOL0     N42417  11.737   0.694   4.995  0.1334 -0.3017 -0.2100
  308MOL0     N42418  11.642   0.737   4.925  0.2712  0.1151  0.3717
  308MOL0     C42419  11.019   0.444   4.296  0.2741 -0.0412  0.2317
  308MOL0     C42420  10.887   0.395   4.287 -0.1153 -0.3956 -0.2983
  308MOL0     C42421  10.482   0.171   4.399 -0.1637 -0.0669 -0.4044
  308MOL0     C42422  10.439   0.134   4.273 -0.6760  0.0744 -0.4835
  308MOL0     C42423  10.297   0.141   4.239 -1.1379  0.5558 -0.7601
  308MOL0     C42424  10.210   0.183   4.334  0.7695  0.7063 -0.8647
  308MOL0     O42425  10.074   0.175   4.326  0.3054 -0.2091  0.2263
  308MOL0     C42426  10.017   0.092   4.224 -0.2808  0.3877  0.6641
  308MOL0     C42427  10.010  -0.059   4.265 -1.0308 -0.4049  0.7050
  308MOL0     C42428   9.923  -0.147   4.175  0.4993 -0.2247  1.0763
  308MOL0     C42429   9.911  -0.291   4.213  0.4684  1.0128 -0.3080
  308MOL0     C42430   9.819  -0.375   4.142 -0.0843  0.1788  1.1788
  308MOL0     C42431   9.760  -0.453   4.071 -0.1129 -0.0893  0.4745
  308MOL0     C42432  10.257   0.230   4.457  0.5072 -0.2003  0.2843
  308MOL0     C42433  10.388   0.221   4.495  0.1062  0.3581 -0.1595
  308MOL0     C42434  10.440   0.259   4.629  0.6031  0.6885 -0.2433
  308MOL0     H42435  10.900   0.158   4.531 -1.0449 -0.3401 -1.3365
  308MOL0     H42436  11.120   0.241   4.555 -1.1910 -1.1421  1.4749
  308MOL0     H42437  11.262   0.528   4.204 -0.5416 -0.3921  0.1400
  308MOL0     H42438  11.326   0.357   4.213  0.1335 -0.8400  2.0422
  308MOL0     H42439  11.526   0.421   4.333 -1.1174  0.1748  0.0860
  308MOL0     H42440  11.496   0.526   4.194  1.5574 -0.6762  0.2237
  308MOL0     H42441  11.432   0.712   4.333  2.6116  0.9080 -0.0048
  308MOL0     H42442  11.418   0.609   4.473  0.0132 -1.3037  0.4425
  308MOL0     H42443  11.675   0.562   4.475  0.6351  2.2954  1.3249
  308MOL0     H42444  11.671   0.620   4.309  1.5724  1.4140  1.4062
  308MOL0     H42445  11.633   0.842   4.386 -0.3263 -1.8801  0.2845
  308MOL0     H42446  11.772   0.790   4.460  0.7539 -0.7591  0.0160
  308MOL0     H42447  11.497   0.793   4.610 -0.4842  3.4945 -0.0215
  308MOL0     H42448  11.656   0.717   4.650  0.1542  1.1843  0.3949
  308MOL0     H42449  11.584   1.017   4.596  0.9734 -0.5870 -1.0887
  308MOL0     H42450  11.747   0.955   4.643  0.3431  0.1763  1.3596
  308MOL0     H42451  11.607   1.049   4.820 -1.4898  1.8128 -2.0200
  308MOL0     H42452  11.485   0.924   4.807  1.2239 -1.5289 -1.7227
  308MOL0     H42453  11.839   0.999   4.946  1.9562  0.1831  3.4749
  308MOL0     H42454  11.955   0.678   5.134  1.8407  0.0267  1.0120
  308MOL0     H42455  11.975   0.845   5.164  0.6044 -2.0511  1.1852
  308MOL0     H42456  12.089   0.880   4.955 -3.2236  0.2067 -0.3625
  308MOL0     H42457  12.181   0.738   5.040 -0.0057 -3.6730 -2.4028
  308MOL0     H42458  12.077   0.578   4.895  1.2072 -0.3629  0.1254
  308MOL0     H42459  11.970   0.689   4.836  0.3732 -2.6768 -0.7071
  308MOL0     H42460  12.169   0.834   4.748  0.1377 -0.4310 -1.9454
  308MOL0     H42461  12.272   0.698   4.793  0.1015 -2.2308  1.3404
  308MOL0     H42462  12.102   0.486   4.475 -0.6798  1.4453  3.0337
  308MOL0     H42463  12.260   0.386   4.189 -2.3099 -3.1350 -0.0513
  308MOL0     H42464  12.149   0.340   4.310 -0.3556 -3.2724  0.5476
  308MOL0     H42465  12.309   0.274   4.329  3.0134  1.4166  0.3155
  308MOL0     H42466  12.759   0.604   4.083 -2.1379 -1.7076 -0.8433
  308MOL0     H42467  12.959   0.498   3.983 -0.6559 -0.0685  0.2383
  308MOL0     H42468  13.001   0.203   3.898 -0.7371 -1.0528  0.8792
  308MOL0     H42469  13.069   0.361   3.875 -0.8536 -1.8173 -1.3241
  308MOL0     H42470  13.223   0.105   3.951 -1.8134 -0.2386  0.5208
  308MOL0     H42471  13.215   0.170   3.792  0.5846 -3.8509  1.2059
  308MOL0     H42472  13.331   0.366   3.988 -0.4961 -0.7376  0.5164
  308MOL0     H42473  13.372   0.330   3.817  1.3923 -1.3515 -1.2317
  308MOL0     H42474  13.509   0.145   3.875  1.2546  2.0759 -0.0537
  308MOL0     H42475  13.417   0.115   4.029  1.1363  0.7859  1.0120
  308MOL0     H42476  13.587   0.375   3.987  2.5354 -1.4586 -1.1301
  308MOL0     H42477  13.514   0.323   4.130  1.2256  0.0659  0.2126
  308MOL0     H42478  13.728   0.159   3.975  1.5293 -2.9930  1.6951
  308MOL0     H42479  13.659   0.108   4.127  0.5352  0.2040  1.3597
  308MOL0     H42480  13.738   0.296   4.249  1.9259 -1.2863  1.2942
  308MOL0     H42481  13.806   0.371   4.100  0.3288  0.4488  0.3798
  308MOL0     H42482  13.896   0.103   4.240  4.7808 -0.9225  0.1812
  308MOL0     H42483  13.971   0.268   4.260  1.5247 -1.7576 -0.1765
  308MOL0     H42484  12.978   0.213   4.301  1.5667  0.6007 -0.4729
  308MOL0     H42485  12.788   0.339   4.415 -0.5951 -2.5462 -0.5992
  308MOL0     H42486  12.557   0.679   4.484  0.9169 -0.7999  1.8721
  308MOL0     H42487  12.381   0.778   4.613 -0.2833 -0.4815 -0.0279
  308MOL0     H42488  11.055   0.511   4.219  0.7911 -1.7826 -1.1232
  308MOL0     H42489  10.817   0.442   4.219 -0.3381 -0.5655 -0.1907
  308MOL0     H42490  10.503   0.091   4.196  0.7062  0.5220  0.3847
  308MOL0     H42491  10.262   0.110   4.141 -1.5725  1.0208 -0.7590
  308MOL0     H42492   9.911   0.118   4.213 -0.3092 -0.4130 -1.6028
  308MOL0     H42493  10.065   0.110   4.127  1.4201  0.3967  1.4727
  308MOL0     H42494   9.994  -0.065   4.373 -0.6503  2.1546  0.9783
  308MOL0     H42495  10.111  -0.098   4.252 -0.9390  0.8547 -5.2495
  308MOL0     H42496   9.825  -0.099   4.173 -1.4219 -3.8223  0.1891
  308MOL0     H42497   9.975  -0.137   4.079 -1.7215 -0.2407 -0.1925
  308MOL0     H42498   9.886  -0.293   4.320 -0.2143 -0.9228 -0.4593
  308MOL0     H42499  10.012  -0.329   4.194 -0.5098 -2.3351  0.4277
  308MOL0     H42500   9.734  -0.530   4.001 -0.1263 -0.7170  1.1654
  308MOL0     H42501  10.181   0.276   4.519 -0.1821 -1.4847  0.4453
  308MOL0     H42502  10.361   0.250   4.704  0.3588 -0.4794 -0.6321
  308MOL0     H42503  10.527   0.203   4.666  1.1121  3.1011  2.5768
  308MOL0     H42504  10.474   0.363   4.628  2.7259  0.0705 -2.1213
  309MOL0     O42505   1.030   3.330   8.507  0.1226 -0.1512 -0.4975
  309MOL0     C42506   1.107   3.423   8.489 -0.3439  0.1686  0.3156
  309MOL0     O42507   1.088   3.551   8.528  0.1010  0.4246  0.3069
  309MOL0     C42508   0.964   3.569   8.573 -0.1422 -0.6588 -0.1439
  309MOL0     C42509   0.864   3.609   8.484 -0.0502  0.5103 -0.3723
  309MOL0     C42510   0.736   3.639   8.528 -0.5792  0.1657  0.6015
  309MOL0     C42511   0.706   3.641   8.660 -0.0773 -0.1065 -0.1350
  309MOL0     O42512   0.580   3.668   8.695  0.6211 -0.5327 -0.1195
  309MOL0     C42513   0.503   3.544   8.722 -0.2518  0.6470 -0.3055
  309MOL0     C42514   0.369   3.577   8.776 -0.0912  0.7514  0.6240
  309MOL0     C42515   0.283   3.452   8.764  0.7267  0.1440  0.3996
  309MOL0     C42516   0.256   3.401   8.620 -0.6157 -0.3505 -1.0389
  309MOL0     C42517   0.161   3.280   8.628 -0.0526 -0.6686 -0.6517
  309MOL0     C42518   0.245   3.151   8.664 -0.1075 -0.7114 -0.0832
  309MOL0     C42519   0.151   3.041   8.704  0.1583 -0.5841 -0.1606
  309MOL0     C42520   0.230   2.904   8.753 -0.0218 -0.3612  0.5278
  309MOL0     N42521   0.287   2.840   8.635  0.9707  0.4681  0.5321
  309MOL0     C42522   0.211   2.779   8.531 -0.0267 -1.2039 -0.8625
  309MOL0     C42523   0.305   2.729   8.444 -0.2621 -0.2280  0.0260
  309MOL0     C42524   0.287   2.664   8.320 -0.0782 -0.1908 -0.5022
  309MOL0     C42525   0.381   2.722   8.207 -0.0022 -0.0116 -0.6874
  309MOL0     C42526   0.350   2.668   8.069 -0.7826  0.8184  0.0151
  309MOL0     C42527   0.442   2.731   7.962  0.5775 -0.3757  0.1534
  309MOL0     O42528   0.579   2.692   7.968  0.8052  0.0871 -0.6059
  309MOL0     C42529   0.675   2.746   7.887 -1.1518 -0.2146  0.7805
  309MOL0     C42530   0.661   2.812   7.765  0.3981 -0.5036  0.1426
  309MOL0     C42531   0.764   2.856   7.685 -0.1143  0.0108  0.4550
  309MOL0     C42532   0.739   2.938   7.564  0.8044 -0.2350  0.3180
  309MOL0     C42533   0.896   2.818   7.725 -0.2030 -0.4598 -0.6803
  309MOL0     C42534   1.025   2.836   7.645  0.6903  0.4127 -0.2243
  309MOL0     O42535   1.042   2.944   7.571  0.7488 -0.3780 -0.2601
  309MOL0     C42536   1.170   2.961   7.530 -0.1572 -1.7780  0.2136
  309MOL0     C42537   1.252   3.041   7.605 -0.4831 -0.6888 -0.3758
  309MOL0     C42538   1.376   3.074   7.561 -0.3508 -0.2646 -0.7515
  309MOL0     C42539   1.428   3.038   7.435  0.0894 -0.1935  0.5095
  309MOL0     O42540   1.557   3.072   7.407 -0.1262  0.7531 -0.2174
  309MOL0     C42541   1.610   3.021   7.282 -0.0731 -0.3400 -0.8693
  309MOL0     C42542   1.719   3.115   7.233 -0.7260  0.1071  0.1980
  309MOL0     C42543   1.772   3.069   7.098  0.2455  1.0635 -1.0446
  309MOL0     C42544   1.902   3.150   7.065 -0.3254  0.3246 -0.5181
  309MOL0     C42545   1.946   3.101   6.920 -0.9287  0.0052  0.2437
  309MOL0     C42546   2.082   3.168   6.889 -0.1556  0.1102 -0.3767
  309MOL0     C42547   2.207   3.118   6.975  0.9597  0.4602 -0.2542
  309MOL0     C42548   2.335   3.174   6.912  0.6165  0.6202 -0.0300
  309MOL0    Cl42549   2.481   3.089   6.986 -0.1003 -0.0161  0.6050
  309MOL0     C42550   1.339   2.962   7.359 -0.2829  0.1540 -0.6207
  309MOL0     C42551   1.207   2.927   7.404 -0.2052 -0.2945  0.5321
  309MOL0     O42552   1.102   2.741   7.650 -0.1235  0.0815 -0.0301
  309MOL0     C42553   0.912   2.761   7.852  0.0178  0.6641  0.3299
  309MOL0     C42554   0.805   2.728   7.926  0.8836  0.0407  0.1772
  309MOL0     N42555   0.431   2.760   8.491 -0.6216  0.3903 -0.3286
  309MOL0     N42556   0.416   2.797   8.618  0.4153 -0.9098  0.1802
  309MOL0     C42557   0.804   3.599   8.752 -0.1527 -0.7410 -0.0804
  309MOL0     C42558   0.938   3.567   8.710  0.9025 -0.0084  0.6977
  309MOL0     C42559   1.236   3.399   8.417  0.3018  0.2393  0.2100
  309MOL0     C42560   1.290   3.507   8.352 -0.5844 -0.0697 -0.6406
  309MOL0     C42561   1.409   3.494   8.283 -0.6904  0.4439 -0.2074
  309MOL0     C42562   1.481   3.375   8.276  0.5239 -0.7194 -0.0498
  309MOL0     O42563   1.591   3.391   8.198 -0.2935  0.2501  0.0331
  309MOL0     C42564   1.680   3.286   8.151 -0.5140 -0.4975  0.7868
  309MOL0     C42565   1.638   3.211   8.019 -0.1133 -0.4251  0.2584
  309MOL0     C42566   1.609   3.310   7.901  0.0681 -0.8540 -0.7837
  309MOL0     C42567   1.467   3.389   7.899  0.2605  0.3706 -0.4177
  309MOL0     C42568   1.455   3.471   7.780  0.6378  0.3181  0.2319
  309MOL0     C42569   1.421   3.541   7.685  0.8307 -0.0324 -0.1959
  309MOL0     C42570   1.424   3.263   8.338  0.3019  0.1857  0.1190
  309MOL0     C42571   1.302   3.274   8.415  0.1138  1.1681  0.2054
  309MOL0     C42572   1.258   3.160   8.485  0.8533 -0.1914  0.3972
  309MOL0     H42573   0.884   3.631   8.379  1.7820 -0.5306 -0.2816
  309MOL0     H42574   0.661   3.665   8.454 -0.4948 -0.0683  0.4316
  309MOL0     H42575   0.549   3.480   8.797  1.3261  0.1048 -1.6834
  309MOL0     H42576   0.499   3.503   8.621  3.6090  1.4109 -0.9266
  309MOL0     H42577   0.370   3.599   8.883  0.3356  0.8718  0.5985
  309MOL0     H42578   0.320   3.660   8.723 -0.3993 -0.6123 -1.3194
  309MOL0     H42579   0.333   3.371   8.819  2.3055  1.8032  1.5124
  309MOL0     H42580   0.184   3.475   8.803 -1.4400 -3.0839 -2.5111
  309MOL0     H42581   0.208   3.479   8.560  1.0016  1.5602  0.0451
  309MOL0     H42582   0.349   3.369   8.573 -0.2080  0.0871 -0.5473
  309MOL0     H42583   0.100   3.271   8.537 -4.4726  3.6557  1.4126
  309MOL0     H42584   0.096   3.299   8.713 -2.0599 -0.0967 -2.2279
  309MOL0     H42585   0.296   3.109   8.576 -1.3407 -1.1412 -0.6043
  309MOL0     H42586   0.315   3.164   8.747  0.1937  0.6374 -0.5300
  309MOL0     H42587   0.099   3.017   8.611 -1.0715 -2.6060  0.9503
  309MOL0     H42588   0.082   3.082   8.778 -0.0300  0.4291 -0.8920
  309MOL0     H42589   0.301   2.910   8.836  1.1309 -0.7065 -0.4078
  309MOL0     H42590   0.152   2.831   8.776 -1.8109  0.3386 -2.6484
  309MOL0     H42591   0.104   2.782   8.516 -0.6261 -0.7166  2.6335
  309MOL0     H42592   0.185   2.676   8.283 -0.2750 -1.4312 -0.4159
  309MOL0     H42593   0.312   2.557   8.329 -0.3641 -0.1712  0.6244
  309MOL0     H42594   0.368   2.830   8.211 -1.4317 -0.2075  1.9769
  309MOL0     H42595   0.484   2.701   8.236 -0.4718 -2.3674 -0.4945
  309MOL0     H42596   0.379   2.563   8.075  2.1335  1.5200 -0.2996
  309MOL0     H42597   0.246   2.692   8.047 -2.0030 -1.1969  3.0147
  309MOL0     H42598   0.407   2.716   7.859 -0.3827 -0.5179  0.4986
  309MOL0     H42599   0.437   2.839   7.979  1.3897 -0.3659  0.3696
  309MOL0     H42600   0.560   2.831   7.730  0.3389  1.5635  1.2473
  309MOL0     H42601   0.638   2.924   7.523  1.1618 -1.1026 -0.3176
  309MOL0     H42602   0.802   2.901   7.482  1.4396 -0.2883  0.8295
  309MOL0     H42603   0.762   3.043   7.582 -2.2772  0.4575  0.6746
  309MOL0     H42604   1.212   3.061   7.704  0.1414 -2.0402  0.1757
  309MOL0     H42605   1.446   3.129   7.622 -1.5683  0.1513  0.3028
  309MOL0     H42606   1.658   2.923   7.287 -0.3882 -0.5584 -1.8024
  309MOL0     H42607   1.533   3.028   7.204  0.3589  3.5085 -1.1196
  309MOL0     H42608   1.684   3.218   7.223  0.5143  0.3976 -1.6219
  309MOL0     H42609   1.797   3.107   7.309 -2.1546 -2.2419  1.5282
  309MOL0     H42610   1.691   3.069   7.024 -0.9390  3.0636  0.1642
  309MOL0     H42611   1.801   2.964   7.104  1.7874  1.4630 -0.9949
  309MOL0     H42612   1.983   3.118   7.132  0.1653 -0.5685 -1.5204
  309MOL0     H42613   1.894   3.259   7.067  3.2188  0.7111  1.8847
  309MOL0     H42614   1.960   2.993   6.910 -1.4336  0.0452 -1.1757
  309MOL0     H42615   1.876   3.113   6.836  1.9602 -1.6925 -2.6170
  309MOL0     H42616   2.082   3.277   6.897 -1.2826  0.6698 -4.9381
  309MOL0     H42617   2.106   3.154   6.783  1.2771  2.8521 -0.4936
  309MOL0     H42618   2.208   3.009   6.961 -0.2982  0.1167  1.7953
  309MOL0     H42619   2.198   3.145   7.081  2.7296 -0.6433  0.2098
  309MOL0     H42620   2.334   3.282   6.931 -0.9896  0.1701  3.2626
  309MOL0     H42621   2.323   3.162   6.804  1.3787  1.5665 -0.2290
  309MOL0     H42622   1.371   2.921   7.263 -1.5867  2.5712 -2.1776
  309MOL0     H42623   1.151   2.865   7.336  1.3479 -1.2495  0.0748
  309MOL0     H42624   1.007   2.740   7.900 -0.6015 -0.8863  0.9194
  309MOL0     H42625   0.827   2.687   8.024  1.5274  1.1850  0.5224
  309MOL0     H42626   0.763   3.612   8.851 -1.7197  4.1816 -1.0846
  309MOL0     H42627   1.001   3.547   8.796  0.3916  0.2518  1.1396
  309MOL0     H42628   1.262   3.612   8.343  1.0051  0.4920  0.4279
  309MOL0     H42629   1.443   3.591   8.248 -3.9461  0.6318 -3.4449
  309MOL0     H42630   1.784   3.320   8.140 -0.3160 -1.8295 -3.3524
  309MOL0     H42631   1.692   3.216   8.234  1.5824 -1.4358 -0.2008
  309MOL0     H42632   1.546   3.157   8.039 -0.7934  0.5024 -0.2700
  309MOL0     H42633   1.716   3.142   7.985 -1.3268 -0.5884 -2.3902
  309MOL0     H42634   1.692   3.381   7.888  0.2068 -1.0379 -0.9118
  309MOL0     H42635   1.613   3.255   7.807 -3.2742 -0.1041 -1.4873
  309MOL0     H42636   1.467   3.459   7.982 -1.1443  2.0497 -1.7436
  309MOL0     H42637   1.386   3.316   7.909  2.3270 -1.6535  5.2964
  309MOL0     H42638   1.384   3.618   7.620 -2.5272 -2.1524 -1.0344
  309MOL0     H42639   1.481   3.171   8.335 -0.7592 -0.4534 -1.3841
  309MOL0     H42640   1.153   3.133   8.470  0.4963  2.0892 -1.7716
  309MOL0     H42641   1.313   3.072   8.450  1.2736  1.3553 -3.2543
  309MOL0     H42642   1.279   3.174   8.592  1.6268 -1.1084  0.3776
  310MOL0     O42643   2.194  10.789   2.877 -1.2240  0.2159  0.7668
  310MOL0     C42644   2.202  10.911   2.870  0.4788  0.4622 -0.4094
  310MOL0     O42645   2.099  10.990   2.840 -0.3700 -0.3461 -0.0526
  310MOL0     C42646   1.995  10.938   2.774 -0.3365  0.9379  0.6911
  310MOL0     C42647   1.875  10.911   2.836  0.2496 -0.3003 -0.3788
  310MOL0     C42648   1.763  10.878   2.761 -0.2797  0.3876 -0.8313
  310MOL0     C42649   1.769  10.880   2.621 -0.9628  0.9651  0.4248
  310MOL0     O42650   1.664  10.855   2.536 -0.1508 -0.2847 -0.6188
  310MOL0     C42651   1.572  10.747   2.573  0.0839 -0.0234  0.0478
  310MOL0     C42652   1.569  10.640   2.476  0.1375 -0.3556 -0.0034
  310MOL0     C42653   1.701  10.591   2.422  0.6663  0.0386 -0.5503
  310MOL0     C42654   1.791  10.530   2.538  0.0734  0.6558 -0.6068
  310MOL0     C42655   1.932  10.497   2.485  0.3428  1.0974 -0.3268
  310MOL0     C42656   2.021  10.413   2.575  0.1466  0.3314  0.2761
  310MOL0     C42657   2.172  10.415   2.536 -0.7633  0.2586  0.0989
  310MOL0     C42658   2.250  10.540   2.587  0.8340 -0.4463 -0.3151
  310MOL0     N42659   2.387  10.519   2.627 -0.2918  0.2310 -0.1472
  310MOL0     C42660   2.433  10.493   2.753 -0.4322  0.1026  1.0636
  310MOL0     C42661   2.565  10.464   2.740  0.2772 -1.3225 -1.4037
  310MOL0     C42662   2.660  10.419   2.845  0.1356  0.4586 -0.2514
  310MOL0     C42663   2.664  10.264   2.860  0.7892 -0.2902 -0.1306
  310MOL0     C42664   2.742  10.207   2.738  0.3340  0.3944  0.3091
  310MOL0     C42665   2.751  10.056   2.754  0.0231  0.7222 -0.3773
  310MOL0     O42666   2.830  10.008   2.641  0.5979  1.0054 -0.6250
  310MOL0     C42667   2.773   9.909   2.564 -0.2096  0.3798 -0.0609
  310MOL0     C42668   2.649   9.843   2.584  0.5098  0.0642 -0.0117
  310MOL0     C42669   2.587   9.764   2.501  0.2309 -0.4498  0.1409
  310MOL0     C42670   2.447   9.717   2.534 -0.2328 -0.4789  0.0447
  310MOL0     C42671   2.669   9.723   2.391  0.1870 -0.1310 -0.2828
  310MOL0     C42672   2.620   9.632   2.283  0.3738  1.2800 -0.0230
  310MOL0     O42673   2.686   9.648   2.165 -0.0872 -0.0460 -0.3932
  310MOL0     C42674   2.703   9.552   2.073 -0.4261  0.3612  0.4566
  310MOL0     C42675   2.805   9.452   2.086  0.3048  0.4853 -0.3882
  310MOL0     C42676   2.822   9.350   2.000  0.1213 -0.5912 -0.0725
  310MOL0     C42677   2.730   9.330   1.898 -0.4274 -0.2376  0.0843
  310MOL0     O42678   2.760   9.229   1.815 -0.2564  0.1465 -0.5601
  310MOL0     C42679   2.664   9.131   1.786  0.7809  0.1007  0.0361
  310MOL0     C42680   2.696   9.020   1.885  0.2657  0.5855 -0.3896
  310MOL0     C42681   2.774   8.912   1.801  0.5770 -0.2913  0.6242
  310MOL0     C42682   2.830   8.804   1.892  0.0495  1.2032  0.3796
  310MOL0     C42683   2.865   8.681   1.813 -0.4058  0.3162  0.0611
  310MOL0     C42684   2.920   8.565   1.900  0.2572 -0.9176  0.0176
  310MOL0     C42685   3.053   8.487   1.843 -0.3285 -0.5018  0.3184
  310MOL0     C42686   3.081   8.370   1.941 -0.2559  0.2838  0.8555
  310MOL0    Cl42687   2.960   8.237   1.915 -0.1709 -0.0329  0.0674
  310MOL0     C42688   2.625   9.422   1.886 -0.9260 -0.7684 -0.3235
  310MOL0     C42689   2.610   9.523   1.976 -0.0764 -0.1006  0.5793
  310MOL0     O42690   2.549   9.537   2.318 -0.5932 -0.2138  0.7947
  310MOL0     C42691   2.794   9.786   2.373  0.0842  1.0637  0.7230
  310MOL0     C42692   2.849   9.879   2.452  0.2721 -0.4987  0.0696
  310MOL0     N42693   2.590  10.473   2.609  0.0881  0.1187  0.0976
  310MOL0     N42694   2.491  10.507   2.538  0.0891 -0.2526 -0.3322
  310MOL0     C42695   1.888  10.909   2.563 -0.3782  0.0433  0.3982
  310MOL0     C42696   2.002  10.944   2.635  0.1487  0.3696 -0.7827
  310MOL0     C42697   2.326  10.987   2.896 -0.4492  0.2472  0.0079
  310MOL0     C42698   2.331  11.126   2.868 -0.5586 -1.2175 -1.4841
  310MOL0     C42699   2.449  11.205   2.879 -0.3245 -0.1888 -1.1341
  310MOL0     C42700   2.565  11.144   2.933  0.0070 -0.2799 -0.2969
  310MOL0     O42701   2.690  11.203   2.964 -0.2575  0.0047 -0.5100
  310MOL0     C42702   2.722  11.330   2.901  0.5241  0.7964 -0.5505
  310MOL0     C42703   2.683  11.451   2.978 -0.1234  0.1763 -1.3246
  310MOL0     C42704   2.727  11.584   2.914  0.3232 -0.8298  0.6093
  310MOL0     C42705   2.877  11.624   2.923  0.1841 -0.3246 -0.0093
  310MOL0     C42706   2.896  11.731   2.823 -0.1213  0.0093 -0.4819
  310MOL0     C42707   2.914  11.818   2.741 -0.0193 -0.4989  0.5794
  310MOL0     C42708   2.554  11.008   2.965  0.3241  0.1875 -0.0854
  310MOL0     C42709   2.445  10.928   2.941  0.9242  1.0334 -0.1748
  310MOL0     C42710   2.458  10.781   2.962  0.7170 -0.1326 -0.4552
  310MOL0     H42711   1.848  10.913   2.942 -2.8032 -0.5492 -1.0528
  310MOL0     H42712   1.672  10.866   2.819  0.5809  0.4772  0.5705
  310MOL0     H42713   1.473  10.793   2.565 -1.7756 -3.5079  0.9947
  310MOL0     H42714   1.595  10.715   2.675  2.7490  3.9896  0.9205
  310MOL0     H42715   1.515  10.559   2.525 -0.8593  0.4738  0.2879
  310MOL0     H42716   1.518  10.675   2.386  0.3400 -1.8957 -0.7533
  310MOL0     H42717   1.677  10.509   2.353 -3.0684 -0.5583  1.1616
  310MOL0     H42718   1.745  10.668   2.357 -1.6010  2.2452  0.3643
  310MOL0     H42719   1.784  10.602   2.620  2.1987  0.1518  0.0781
  310MOL0     H42720   1.752  10.435   2.577  1.9182 -0.4619 -1.3281
  310MOL0     H42721   1.992  10.587   2.469 -1.1961  1.9517 -1.5692
  310MOL0     H42722   1.927  10.448   2.387 -1.6369  2.8718 -1.1675
  310MOL0     H42723   1.997  10.449   2.676 -2.8173  0.2386 -0.3080
  310MOL0     H42724   1.992  10.309   2.560  0.3323  0.7726 -4.8329
  310MOL0     H42725   2.175  10.401   2.427 -0.9837 -0.7777  0.2183
  310MOL0     H42726   2.220  10.331   2.586 -0.4779  0.8139  0.7765
  310MOL0     H42727   2.255  10.620   2.513  2.5068 -0.3369 -0.1160
  310MOL0     H42728   2.194  10.581   2.672  1.1931 -1.5904  0.5020
  310MOL0     H42729   2.373  10.513   2.842  0.0957  1.1577  1.1931
  310MOL0     H42730   2.634  10.462   2.942  4.2095  3.5007 -0.2394
  310MOL0     H42731   2.755  10.468   2.821 -0.6015  1.1605 -1.8772
  310MOL0     H42732   2.722  10.245   2.951  0.2895  2.0756  0.7466
  310MOL0     H42733   2.564  10.220   2.868  0.5443  0.4189  0.7815
  310MOL0     H42734   2.689  10.234   2.647  0.3042  1.4271  0.6153
  310MOL0     H42735   2.845  10.245   2.730 -0.2380  2.3110  1.4528
  310MOL0     H42736   2.802  10.039   2.849  1.6536 -0.2606 -1.3814
  310MOL0     H42737   2.649  10.018   2.757  0.0005  0.6580 -1.4320
  310MOL0     H42738   2.599   9.843   2.681 -4.2999  2.0091 -2.1898
  310MOL0     H42739   2.397   9.789   2.599  0.7057  0.4131 -0.2077
  310MOL0     H42740   2.466   9.625   2.591 -2.2539 -0.6975  0.4342
  310MOL0     H42741   2.377   9.700   2.452 -0.7862 -0.5732  0.5311
  310MOL0     H42742   2.875   9.455   2.169 -0.1596 -1.2884  0.0959
  310MOL0     H42743   2.897   9.274   2.018 -0.3518 -0.6765  1.8249
  310MOL0     H42744   2.569   9.182   1.803  0.6014  0.1563 -1.0257
  310MOL0     H42745   2.669   9.103   1.680  1.3033  0.9609 -0.1832
  310MOL0     H42746   2.752   9.065   1.969 -0.0381  2.0166 -0.9209
  310MOL0     H42747   2.603   8.977   1.921 -0.0953 -0.7110 -2.7120
  310MOL0     H42748   2.858   8.958   1.748  0.4307  0.0553  0.6850
  310MOL0     H42749   2.704   8.876   1.725  1.2812 -0.5230  0.0746
  310MOL0     H42750   2.762   8.781   1.974 -0.7440  0.2833 -0.5119
  310MOL0     H42751   2.928   8.845   1.918  1.4581 -0.8485 -1.3720
  310MOL0     H42752   2.775   8.650   1.758  0.6202 -1.9241 -0.4718
  310MOL0     H42753   2.938   8.716   1.739  0.5979 -1.3292  0.2483
  310MOL0     H42754   2.844   8.490   1.923 -0.4782 -0.9703 -2.3176
  310MOL0     H42755   2.954   8.617   1.990 -0.5572  0.2359 -0.3168
  310MOL0     H42756   3.142   8.550   1.843  0.3041 -1.3701  1.0016
  310MOL0     H42757   3.033   8.461   1.739  0.5575  1.7143 -0.4718
  310MOL0     H42758   3.070   8.415   2.040  0.7904  1.0083  0.6617
  310MOL0     H42759   3.183   8.334   1.927 -0.3192  1.1596 -2.9005
  310MOL0     H42760   2.554   9.426   1.804 -0.0259  0.0358 -1.0810
  310MOL0     H42761   2.531   9.597   1.966  2.5562  3.0395  1.3657
  310MOL0     H42762   2.850   9.782   2.280 -0.9006  1.4035  0.0981
  310MOL0     H42763   2.940   9.937   2.440 -1.0848  1.6176 -0.4450
  310MOL0     H42764   1.896  10.922   2.455  1.5843  0.1628  0.5308
  310MOL0     H42765   2.090  10.977   2.581 -1.4557  1.1562 -3.0827
  310MOL0     H42766   2.242  11.179   2.834 -0.1461  1.8869  1.6600
  310MOL0     H42767   2.453  11.310   2.854  2.4290 -0.3828 -1.8144
  310MOL0     H42768   2.831  11.328   2.907  0.4800  0.9448  0.5099
  310MOL0     H42769   2.697  11.336   2.794  0.5192 -0.2214 -0.6152
  310MOL0     H42770   2.723  11.446   3.080  0.3635  1.5740 -1.4192
  310MOL0     H42771   2.574  11.447   2.981 -0.1845  1.7085 -0.0245
  310MOL0     H42772   2.695  11.581   2.809  4.6155 -1.4207 -0.8704
  310MOL0     H42773   2.664  11.664   2.954 -0.4339 -2.0073  1.8287
  310MOL0     H42774   2.931  11.533   2.893 -0.3345 -0.9230  0.8477
  310MOL0     H42775   2.909  11.651   3.024 -2.6291  0.9831  0.6139
  310MOL0     H42776   2.919  11.909   2.684 -0.7097  0.7474  2.4184
  310MOL0     H42777   2.646  10.963   3.001  0.9124  0.3226 -1.3365
  310MOL0     H42778   2.460  10.741   2.860 -0.5364 -0.8345 -0.2207
  310MOL0     H42779   2.557  10.768   3.006  0.6833  1.4569  0.1526
  310MOL0     H42780   2.384  10.723   3.019 -0.3060 -3.8610 -4.9666
  311MOL0     O42781   8.783   5.807   3.763 -0.0287  0.1167  0.6701
  311MOL0     C42782   8.718   5.903   3.807 -0.4742 -0.0432  0.4358
  311MOL0     O42783   8.663   6.006   3.729  0.1052  0.0693 -0.2394
  311MOL0     C42784   8.704   6.025   3.597 -0.6341  0.6826 -0.2901
  311MOL0     C42785   8.824   5.989   3.540  0.4511  0.3980  0.4689
  311MOL0     C42786   8.867   6.009   3.410  0.3547  0.0119 -0.1398
  311MOL0     C42787   8.771   6.063   3.314 -0.2241 -0.0410  0.4276
  311MOL0     O42788   8.797   6.087   3.179  0.6876  0.2915  0.7242
  311MOL0     C42789   8.704   6.015   3.087 -0.3797  0.1412  0.0668
  311MOL0     C42790   8.752   5.875   3.089  0.2403 -0.3787  0.3590
  311MOL0     C42791   8.903   5.876   3.043  0.1593  0.8320 -0.8459
  311MOL0     C42792   8.958   5.727   3.057 -0.4159 -0.0493  0.2851
  311MOL0     C42793   9.090   5.699   2.984  0.3227 -0.8069  0.0042
  311MOL0     C42794   9.121   5.546   2.977 -0.3285  0.1227 -0.0992
  311MOL0     C42795   9.252   5.525   2.897 -0.4463 -0.4258 -0.1016
  311MOL0     C42796   9.299   5.375   2.906 -0.2099  0.0770 -0.0378
  311MOL0     N42797   9.404   5.346   2.804 -0.0633  0.2283 -0.2469
  311MOL0     C42798   9.384   5.329   2.667 -0.2077  0.2972 -1.6956
  311MOL0     C42799   9.501   5.288   2.621 -0.5502 -0.2358 -0.8337
  311MOL0     C42800   9.530   5.247   2.476 -0.2161 -0.0493 -0.2373
  311MOL0     C42801   9.524   5.089   2.459 -0.9737 -0.3815 -0.1675
  311MOL0     C42802   9.620   5.004   2.544 -0.1670 -0.4192  0.2344
  311MOL0     C42803   9.769   5.036   2.532 -0.5646 -0.4939  0.1908
  311MOL0     O42804   9.816   5.015   2.397 -0.1815 -0.1524 -0.2186
  311MOL0     C42805   9.952   5.027   2.379 -1.0171 -0.0635 -0.4445
  311MOL0     C42806  10.050   5.037   2.484 -1.2167  0.5829  0.1256
  311MOL0     C42807  10.180   5.063   2.462 -0.2285  0.5118 -0.1513
  311MOL0     C42808  10.258   5.102   2.581 -0.3225  0.8776 -0.3485
  311MOL0     C42809  10.232   5.056   2.328  0.8013 -0.2586 -0.9251
  311MOL0     C42810  10.375   5.065   2.297 -0.0523 -1.0653  0.3154
  311MOL0     O42811  10.417   4.996   2.183 -0.1362 -0.4619 -0.2277
  311MOL0     C42812  10.537   5.026   2.130 -0.0686 -0.5925 -0.5911
  311MOL0     C42813  10.653   5.026   2.209 -0.1911 -0.0020  0.1510
  311MOL0     C42814  10.780   5.060   2.151  1.5630 -0.1110 -0.5295
  311MOL0     C42815  10.798   5.079   2.015 -0.1396  0.3666  0.3673
  311MOL0     O42816  10.915   5.104   1.946  0.3560 -0.0484 -0.4069
  311MOL0     C42817  11.034   5.100   2.026 -0.0431  0.4889 -0.2293
  311MOL0     C42818  11.148   5.126   1.939 -0.5532  1.2521 -0.2522
  311MOL0     C42819  11.274   5.084   2.013 -0.7795  0.3042 -0.4316
  311MOL0     C42820  11.398   5.113   1.915  0.6978  0.2348 -0.3396
  311MOL0     C42821  11.422   5.264   1.906  0.1859  0.9007 -0.0225
  311MOL0     C42822  11.556   5.280   1.832 -0.0933  0.0537  0.4426
  311MOL0     C42823  11.680   5.230   1.910  0.3293  0.0049  0.0430
  311MOL0     C42824  11.801   5.325   1.899 -0.4857 -0.5162  0.0496
  311MOL0    Cl42825  11.949   5.271   2.000  0.1774  0.4590  0.2339
  311MOL0     C42826  10.684   5.078   1.939  0.7868 -0.6000  0.2919
  311MOL0     C42827  10.556   5.059   1.998  0.4007 -0.8603  0.6011
  311MOL0     O42828  10.448   5.141   2.364  0.1767 -0.3041 -0.0103
  311MOL0     C42829  10.134   5.035   2.222 -1.6047 -0.7211 -0.5351
  311MOL0     C42830   9.997   5.023   2.251  0.0802  0.5101 -1.2549
  311MOL0     N42831   9.595   5.286   2.733 -0.1828  0.1053  0.2131
  311MOL0     N42832   9.532   5.335   2.835 -0.1814 -0.3207  0.2601
  311MOL0     C42833   8.645   6.098   3.370  0.0475 -0.8112 -0.2638
  311MOL0     C42834   8.617   6.080   3.508  0.1119 -0.4648  0.1468
  311MOL0     C42835   8.689   5.916   3.952  0.0812  0.2642 -0.8585
  311MOL0     C42836   8.666   6.051   4.008 -0.7045  0.8780  0.7702
  311MOL0     C42837   8.660   6.066   4.149 -0.1608 -0.0040  0.4679
  311MOL0     C42838   8.664   5.957   4.237 -0.0213 -0.0306 -0.3682
  311MOL0     O42839   8.629   5.984   4.366  0.5480  0.2738 -0.0679
  311MOL0     C42840   8.629   5.875   4.463  0.7864  0.0566  0.0207
  311MOL0     C42841   8.495   5.805   4.455  0.1938  1.0753  0.1866
  311MOL0     C42842   8.410   5.812   4.575  0.2661 -0.5863 -0.6018
  311MOL0     C42843   8.306   5.694   4.591  0.1069 -0.1264  0.1559
  311MOL0     C42844   8.196   5.700   4.487  0.7065  0.2511 -0.1503
  311MOL0     C42845   8.103   5.701   4.404  0.0970  0.3084  0.5481
  311MOL0     C42846   8.688   5.832   4.184 -0.5957  0.5982 -0.6868
  311MOL0     C42847   8.707   5.810   4.048  0.5014 -0.5426 -0.1286
  311MOL0     C42848   8.746   5.670   4.006  0.8442  0.2369 -0.3165
  311MOL0     H42849   8.888   5.933   3.607 -0.2793 -0.8485  0.1597
  311MOL0     H42850   8.967   5.980   3.380  0.0534 -0.2566 -0.8910
  311MOL0     H42851   8.721   6.044   2.983  2.0279 -1.1505  0.0452
  311MOL0     H42852   8.601   6.014   3.125  0.2318 -2.5480  2.0134
  311MOL0     H42853   8.731   5.832   3.188 -2.7511 -1.2644 -0.5562
  311MOL0     H42854   8.700   5.814   3.015  0.3895  0.0230 -0.0778
  311MOL0     H42855   8.900   5.902   2.937 -2.6226  0.5442 -0.9196
  311MOL0     H42856   8.968   5.939   3.104 -0.6724  0.3701  0.5596
  311MOL0     H42857   8.974   5.704   3.163 -0.9530 -3.9428 -0.3181
  311MOL0     H42858   8.881   5.665   3.011 -2.3549  1.1156  1.7724
  311MOL0     H42859   9.170   5.761   3.026 -0.1053  0.9953 -1.7242
  311MOL0     H42860   9.073   5.736   2.883  0.6140  2.7946  1.1545
  311MOL0     H42861   9.132   5.487   3.068  3.5114 -1.5544 -1.4081
  311MOL0     H42862   9.039   5.500   2.923 -1.6737 -0.2634  2.1444
  311MOL0     H42863   9.333   5.590   2.931  0.8184 -1.5438 -0.8353
  311MOL0     H42864   9.233   5.548   2.792 -0.1524  1.0585  0.1510
  311MOL0     H42865   9.316   5.352   3.011 -0.4574 -0.2621 -0.0686
  311MOL0     H42866   9.215   5.309   2.882  1.2402 -1.4203 -1.1295
  311MOL0     H42867   9.292   5.312   2.612 -2.3742  0.7569  1.5071
  311MOL0     H42868   9.629   5.289   2.459 -0.0226  1.0659  2.9884
  311MOL0     H42869   9.455   5.304   2.421 -1.1608  0.4984  1.5322
  311MOL0     H42870   9.422   5.056   2.481  0.2027 -3.8394  0.8093
  311MOL0     H42871   9.555   5.062   2.358  0.6714 -1.8406  0.6669
  311MOL0     H42872   9.590   5.015   2.649 -1.0119 -1.6666  0.1470
  311MOL0     H42873   9.607   4.895   2.533 -3.3972 -0.3609  1.9294
  311MOL0     H42874   9.787   5.139   2.563 -0.3254 -1.2593  2.7855
  311MOL0     H42875   9.821   4.979   2.609  1.4028  2.2753  1.0302
  311MOL0     H42876  10.018   5.034   2.587 -1.2737 -0.3127  0.0915
  311MOL0     H42877  10.354   5.052   2.599 -0.7364 -0.7902 -2.4094
  311MOL0     H42878  10.198   5.083   2.670  1.2436 -2.2796  0.1557
  311MOL0     H42879  10.275   5.211   2.580 -1.9285  1.1635  0.3806
  311MOL0     H42880  10.649   5.011   2.317 -2.0224 -0.3469  0.0752
  311MOL0     H42881  10.857   5.066   2.226  0.4504  1.2252  0.5469
  311MOL0     H42882  11.048   5.177   2.102  1.3065 -0.7489  0.8350
  311MOL0     H42883  11.032   5.004   2.078 -2.4866  0.6888  0.1445
  311MOL0     H42884  11.123   5.074   1.846 -2.0257 -1.0227  1.3218
  311MOL0     H42885  11.161   5.233   1.922 -0.4404  1.7262  2.3557
  311MOL0     H42886  11.275   4.979   2.043  1.4109  0.7562  1.3293
  311MOL0     H42887  11.277   5.142   2.106 -2.7836 -0.7656  0.3529
  311MOL0     H42888  11.379   5.078   1.813  2.6111  0.5555 -0.8419
  311MOL0     H42889  11.486   5.059   1.952  1.8114  2.1180 -0.1202
  311MOL0     H42890  11.353   5.319   1.841  0.1169  2.6989  1.4950
  311MOL0     H42891  11.431   5.303   2.007 -1.5128  1.6700 -0.1437
  311MOL0     H42892  11.570   5.386   1.807  3.9812  0.1237  2.1811
  311MOL0     H42893  11.538   5.231   1.736 -0.9556 -0.2203  0.7333
  311MOL0     H42894  11.700   5.129   1.872 -0.0830  0.2809 -0.9441
  311MOL0     H42895  11.640   5.216   2.011 -4.9117  1.0884 -1.5611
  311MOL0     H42896  11.779   5.425   1.938  3.1772  0.2878  0.3765
  311MOL0     H42897  11.836   5.327   1.796 -0.5601  0.4514  0.0334
  311MOL0     H42898  10.685   5.104   1.833  0.5517  0.0668  0.4485
  311MOL0     H42899  10.476   5.048   1.926 -0.0337 -3.0161  1.3368
  311MOL0     H42900  10.165   5.022   2.119 -2.8870  0.6590 -1.1275
  311MOL0     H42901   9.933   5.008   2.165  2.2122 -0.3792 -2.7703
  311MOL0     H42902   8.566   6.148   3.314 -0.8281 -1.3639  0.4596
  311MOL0     H42903   8.521   6.117   3.543 -1.3245  0.4106 -4.1204
  311MOL0     H42904   8.649   6.137   3.945 -3.0074 -0.4795 -0.6457
  311MOL0     H42905   8.635   6.168   4.176 -3.9813 -1.0049  1.3586
  311MOL0     H42906   8.707   5.801   4.444  1.1150  0.2888  0.4329
  311MOL0     H42907   8.649   5.921   4.561 -2.0187 -1.6631  1.5187
  311MOL0     H42908   8.505   5.699   4.432 -0.7327  0.9377  0.3996
  311MOL0     H42909   8.427   5.853   4.384 -1.7117 -0.5001  0.8743
  311MOL0     H42910   8.476   5.829   4.660 -1.3099 -0.6229  0.6863
  311MOL0     H42911   8.361   5.909   4.576  0.2557 -0.5754 -1.5974
  311MOL0     H42912   8.272   5.680   4.694 -0.9285 -0.9991 -0.2801
  311MOL0     H42913   8.361   5.602   4.568  0.3587 -0.5960  2.4154
  311MOL0     H42914   8.033   5.704   4.322  1.6745  0.8330 -0.8306
  311MOL0     H42915   8.694   5.741   4.244 -3.8644 -1.4052 -3.0459
  311MOL0     H42916   8.715   5.597   4.081 -0.0017  0.1924 -0.7023
  311MOL0     H42917   8.688   5.638   3.918 -2.1217  1.1402  1.1742
  311MOL0     H42918   8.851   5.656   3.976  0.2557 -3.1395 -1.2837
  312MOL0     O42919   9.997   8.120   6.390  0.6908 -0.1003 -0.1838
  312MOL0     C42920   9.956   8.125   6.508  0.5066  0.2708 -0.2119
  312MOL0     O42921  10.034   8.105   6.622 -1.0761 -0.4609  0.1212
  312MOL0     C42922  10.151   8.042   6.598  0.3519  0.0454  0.6467
  312MOL0     C42923  10.168   7.916   6.535 -0.6099  0.5635 -0.2773
  312MOL0     C42924  10.302   7.865   6.526  0.0430 -0.6049 -0.4700
  312MOL0     C42925  10.413   7.932   6.580 -0.5679 -0.1024  0.4113
  312MOL0     O42926  10.545   7.894   6.566 -0.7169  0.4755 -0.3537
  312MOL0     C42927  10.567   7.747   6.564 -1.1536 -0.2014 -0.5853
  312MOL0     C42928  10.716   7.703   6.580  0.7233 -0.2338 -0.2443
  312MOL0     C42929  10.770   7.737   6.718 -0.0214  0.7104 -0.5636
  312MOL0     C42930  10.922   7.716   6.721 -0.0209 -0.5349  0.1162
  312MOL0     C42931  10.976   7.746   6.864 -0.4201  0.1768 -0.0858
  312MOL0     C42932  11.120   7.799   6.860 -0.7397 -0.1523  0.8974
  312MOL0     C42933  11.173   7.846   6.995 -0.2732  0.0540  0.1592
  312MOL0     C42934  11.313   7.898   6.981 -0.0436 -0.5135 -1.0594
  312MOL0     N42935  11.365   7.954   7.113 -0.3985  0.1480  0.2650
  312MOL0     C42936  11.376   7.877   7.230  0.0048  0.0919  0.1498
  312MOL0     C42937  11.410   7.970   7.324  0.2000 -0.7682  0.1343
  312MOL0     C42938  11.437   7.948   7.466 -0.0678  0.1127 -0.7559
  312MOL0     C42939  11.589   7.925   7.496  0.5188 -0.4423  0.0482
  312MOL0     C42940  11.641   7.788   7.452  0.0962 -0.3125 -0.0994
  312MOL0     C42941  11.558   7.662   7.483 -0.3248  0.4441 -0.1878
  312MOL0     O42942  11.632   7.537   7.494  0.5269  0.2027  0.3273
  312MOL0     C42943  11.556   7.422   7.506  0.1846 -0.6104 -0.2868
  312MOL0     C42944  11.418   7.411   7.533  0.0554  0.2825 -0.2556
  312MOL0     C42945  11.352   7.289   7.563  0.0472 -0.0404 -0.0215
  312MOL0     C42946  11.203   7.291   7.581  0.0989  0.4013  0.6255
  312MOL0     C42947  11.439   7.169   7.575  0.1397 -0.3366  0.2804
  312MOL0     C42948  11.392   7.034   7.607  0.5489 -0.1400 -0.6350
  312MOL0     O42949  11.494   6.963   7.674  0.6459  0.0378 -0.0250
  312MOL0     C42950  11.485   6.836   7.713  0.1130 -0.1452  0.2789
  312MOL0     C42951  11.453   6.733   7.630  0.9276 -0.3866  0.0763
  312MOL0     C42952  11.431   6.606   7.682  0.8614  0.3732 -0.3604
  312MOL0     C42953  11.426   6.580   7.821 -0.1965  1.0167  0.8060
  312MOL0     O42954  11.385   6.457   7.871  0.3095 -0.0769 -0.4549
  312MOL0     C42955  11.455   6.399   7.982  0.0384 -0.1722 -0.0327
  312MOL0     C42956  11.464   6.248   7.970  0.0861  0.1956  0.3381
  312MOL0     C42957  11.529   6.188   8.088 -0.5751  0.3371 -0.2330
  312MOL0     C42958  11.440   6.179   8.211 -0.2859  0.5749 -0.4202
  312MOL0     C42959  11.500   6.123   8.337 -0.1869  0.5044 -0.8364
  312MOL0     C42960  11.395   6.127   8.444 -0.0712  0.0144  0.0310
  312MOL0     C42961  11.434   6.052   8.571  0.0351 -0.8841  0.3833
  312MOL0     C42962  11.457   5.901   8.548 -0.9243 -0.8905 -0.0983
  312MOL0    Cl42963  11.510   5.813   8.703  0.2091 -0.4476  0.2220
  312MOL0     C42964  11.452   6.687   7.909 -0.3843 -0.0836  0.2003
  312MOL0     C42965  11.489   6.812   7.850 -0.5502 -0.1355  0.5153
  312MOL0     O42966  11.272   6.999   7.599  0.8483 -0.3499 -0.4151
  312MOL0     C42967  11.574   7.185   7.533 -0.6550  0.1084 -0.4241
  312MOL0     C42968  11.629   7.308   7.506  1.0542 -0.6019  0.9819
  312MOL0     N42969  11.417   8.100   7.266  0.7208 -0.2346 -0.7465
  312MOL0     N42970  11.399   8.088   7.140  0.7459  0.3961  0.1362
  312MOL0     C42971  10.384   8.056   6.627 -0.0500  0.0420 -0.3267
  312MOL0     C42972  10.256   8.109   6.644 -0.3234  1.2736  0.4474
  312MOL0     C42973   9.804   8.158   6.522 -0.6747  0.1491 -0.6398
  312MOL0     C42974   9.717   8.158   6.409  0.0158 -0.3922  0.0826
  312MOL0     C42975   9.587   8.187   6.421  0.0649  0.9085 -0.5831
  312MOL0     C42976   9.534   8.223   6.548  0.2284 -0.2451 -0.6166
  312MOL0     O42977   9.411   8.283   6.572  0.6153  0.1539  0.5640
  312MOL0     C42978   9.322   8.299   6.453  0.6402  0.4492 -0.1813
  312MOL0     C42979   9.215   8.396   6.478  0.2339 -1.6775 -0.4695
  312MOL0     C42980   9.262   8.542   6.523 -1.0254  0.1302 -0.3428
  312MOL0     C42981   9.372   8.610   6.431  0.7171  1.1609 -0.0690
  312MOL0     C42982   9.431   8.725   6.497 -0.3064  0.5585 -0.3832
  312MOL0     C42983   9.482   8.809   6.574  0.2824 -0.0282  0.4033
  312MOL0     C42984   9.619   8.230   6.651 -0.1866 -0.1322 -0.6682
  312MOL0     C42985   9.760   8.208   6.647 -0.1952 -0.4666  0.6915
  312MOL0     C42986   9.849   8.267   6.760  0.4263  0.0641  0.1297
  312MOL0     H42987  10.093   7.857   6.483 -0.3888  0.1451 -0.1259
  312MOL0     H42988  10.324   7.772   6.476 -0.1826 -0.3851 -0.9822
  312MOL0     H42989  10.538   7.713   6.464  2.6364  0.2801 -2.0112
  312MOL0     H42990  10.509   7.699   6.644  0.8340 -5.7225 -2.0324
  312MOL0     H42991  10.714   7.594   6.571  0.2885 -0.6241  3.2232
  312MOL0     H42992  10.770   7.765   6.508 -0.8879  0.0501 -1.2605
  312MOL0     H42993  10.735   7.837   6.746 -3.1267 -0.4304  0.0749
  312MOL0     H42994  10.724   7.668   6.789  3.3624  0.4666  1.6080
  312MOL0     H42995  10.946   7.610   6.706 -0.7552 -0.5761 -0.8896
  312MOL0     H42996  10.977   7.779   6.651 -0.3709 -1.5487 -1.1097
  312MOL0     H42997  10.976   7.653   6.921  3.2042  1.4065  2.2185
  312MOL0     H42998  10.914   7.817   6.920 -0.3128  0.8814 -0.8438
  312MOL0     H42999  11.189   7.719   6.833 -1.1267 -0.3129  0.3650
  312MOL0     H43000  11.128   7.881   6.788 -3.2145  1.0838  1.9079
  312MOL0     H43001  11.181   7.767   7.070 -0.2219 -0.3028 -0.2233
  312MOL0     H43002  11.100   7.924   7.021 -1.2710 -1.1231  1.0492
  312MOL0     H43003  11.372   7.810   6.954 -1.1165 -1.4034 -0.5467
  312MOL0     H43004  11.321   7.980   6.908  1.8751  1.8803  1.6232
  312MOL0     H43005  11.371   7.769   7.243 -1.1274  0.2592  1.2794
  312MOL0     H43006  11.371   7.877   7.518  0.8266  0.6212  1.1909
  312MOL0     H43007  11.419   8.042   7.519 -0.3296  0.6497 -1.7758
  312MOL0     H43008  11.646   8.007   7.452 -1.2243 -0.4229 -2.4164
  312MOL0     H43009  11.601   7.929   7.604 -1.0681 -1.8996  0.3291
  312MOL0     H43010  11.660   7.794   7.344  0.5615 -0.6500 -0.0354
  312MOL0     H43011  11.730   7.790   7.515 -0.0092  3.9774  0.2138
  312MOL0     H43012  11.500   7.686   7.573  0.7297  2.0062  0.1156
  312MOL0     H43013  11.485   7.650   7.402 -2.2084  3.3871  0.8767
  312MOL0     H43014  11.351   7.497   7.540  0.5574  0.6502  0.0461
  312MOL0     H43015  11.158   7.226   7.505  1.8146  1.3519 -1.3098
  312MOL0     H43016  11.167   7.393   7.566 -1.0528 -0.2538 -1.6077
  312MOL0     H43017  11.169   7.265   7.681  1.7803 -1.4368  0.7613
  312MOL0     H43018  11.440   6.762   7.526 -0.2758  1.5203  0.7014
  312MOL0     H43019  11.391   6.522   7.626 -1.8362  0.4416  1.2851
  312MOL0     H43020  11.556   6.438   7.998 -0.4845  1.1249  0.2814
  312MOL0     H43021  11.404   6.421   8.077 -1.6869  3.3891 -1.5686
  312MOL0     H43022  11.368   6.196   7.958  0.9238 -0.8799 -2.3751
  312MOL0     H43023  11.524   6.228   7.881  0.6355 -0.6209  0.8819
  312MOL0     H43024  11.622   6.244   8.094 -0.7143  0.6055 -0.5437
  312MOL0     H43025  11.563   6.087   8.063  2.6970  1.3954 -0.4215
  312MOL0     H43026  11.356   6.115   8.184  0.6550  0.7440 -4.4867
  312MOL0     H43027  11.411   6.281   8.238  1.7177  0.2455  3.6530
  312MOL0     H43028  11.533   6.020   8.322 -0.2405  0.2299  0.6756
  312MOL0     H43029  11.587   6.183   8.363 -1.7034  2.6481 -0.4338
  312MOL0     H43030  11.297   6.095   8.408  1.3108 -5.1525  0.1357
  312MOL0     H43031  11.386   6.234   8.466  1.8929  0.5598 -1.5298
  312MOL0     H43032  11.366   6.075   8.653  0.7894 -0.5369  0.9294
  312MOL0     H43033  11.529   6.099   8.597 -0.2379 -0.6025  0.8834
  312MOL0     H43034  11.539   5.885   8.478 -0.5735  0.0119  0.0952
  312MOL0     H43035  11.361   5.864   8.511 -0.4092 -1.4997 -0.8475
  312MOL0     H43036  11.444   6.683   8.017 -1.2905  2.3124  0.2907
  312MOL0     H43037  11.530   6.891   7.913  0.5597 -0.4550  0.2208
  312MOL0     H43038  11.648   7.108   7.516  1.6027  2.4008 -1.4689
  312MOL0     H43039  11.737   7.321   7.503  0.7799  3.9279 -3.1475
  312MOL0     H43040  10.470   8.117   6.654  0.7639 -1.5131  0.7675
  312MOL0     H43041  10.246   8.208   6.688  2.2740  2.1394 -0.6531
  312MOL0     H43042   9.758   8.138   6.311 -0.1851  1.8412 -0.5143
  312MOL0     H43043   9.527   8.178   6.331  0.5571  0.2260 -0.8521
  312MOL0     H43044   9.383   8.329   6.367 -2.4778  1.3134 -2.2371
  312MOL0     H43045   9.273   8.205   6.428 -1.0089 -0.4041  5.0356
  312MOL0     H43046   9.135   8.356   6.540 -1.8716  0.3532 -1.7440
  312MOL0     H43047   9.169   8.411   6.380 -0.2326 -2.9736 -0.4621
  312MOL0     H43048   9.176   8.610   6.520 -1.0135  0.1346 -3.2034
  312MOL0     H43049   9.295   8.532   6.627  1.5508  0.6590 -1.0475
  312MOL0     H43050   9.328   8.627   6.332 -3.1768 -0.5450  1.1770
  312MOL0     H43051   9.450   8.535   6.412 -1.3780 -0.4402 -3.2556
  312MOL0     H43052   9.528   8.886   6.634 -0.2995  2.4429 -2.1182
  312MOL0     H43053   9.584   8.280   6.741  0.4918 -0.8471  0.0098
  312MOL0     H43054   9.926   8.330   6.716  0.6492  0.0822  0.5435
  312MOL0     H43055   9.796   8.334   6.828  1.2594 -2.5201  3.6320
  312MOL0     H43056   9.879   8.180   6.819 -0.2475 -0.8108 -0.7873
  313MOL0     O43057   9.506   3.367   5.593  0.0193 -0.3203 -0.0386
  313MOL0     C43058   9.526   3.276   5.506  0.2208 -0.0057  0.0572
  313MOL0     O43059   9.649   3.231   5.469  0.0280 -0.4553  0.2301
  313MOL0     C43060   9.753   3.297   5.538  0.7617 -0.2401  0.0612
  313MOL0     C43061   9.789   3.253   5.667 -0.3132 -0.3107 -0.1195
  313MOL0     C43062   9.880   3.324   5.746  0.3409 -1.0433  1.0170
  313MOL0     C43063   9.934   3.449   5.698 -0.7917  0.0505  0.1418
  313MOL0     O43064  10.021   3.526   5.770  0.3650  0.9404 -0.6510
  313MOL0     C43065  10.058   3.499   5.903 -0.1250 -0.2078  0.4331
  313MOL0     C43066  10.170   3.394   5.903 -0.2158  0.5862  0.3367
  313MOL0     C43067  10.307   3.437   5.861 -0.0580 -0.0458  0.3091
  313MOL0     C43068  10.397   3.313   5.835  0.2162 -0.2080 -0.0420
  313MOL0     C43069  10.535   3.337   5.771 -0.1553  0.2481 -0.2204
  313MOL0     C43070  10.590   3.230   5.689 -0.7170 -0.1925 -0.9152
  313MOL0     C43071  10.716   3.282   5.611 -0.2623 -0.9056 -0.1505
  313MOL0     C43072  10.801   3.166   5.557  0.2155 -0.6269 -0.4098
  313MOL0     N43073  10.897   3.207   5.457 -0.7750  0.3479  0.4921
  313MOL0     C43074  11.022   3.265   5.482  0.9139  0.6757  0.0492
  313MOL0     C43075  11.075   3.263   5.355 -0.2290 -0.0081  0.0833
  313MOL0     C43076  11.205   3.322   5.315  0.2867  0.1086 -0.3829
  313MOL0     C43077  11.282   3.400   5.426  0.5031  0.7573  0.8602
  313MOL0     C43078  11.409   3.466   5.377 -0.9760  0.1590  0.1223
  313MOL0     C43079  11.527   3.368   5.335  0.3992 -0.2757 -0.0826
  313MOL0     O43080  11.525   3.342   5.193 -0.8050 -0.3430 -0.4738
  313MOL0     C43081  11.639   3.285   5.146 -0.7411  0.6747  0.0833
  313MOL0     C43082  11.662   3.302   5.011  0.9809  0.4247  0.1384
  313MOL0     C43083  11.787   3.267   4.951  0.0539 -0.7000  1.0114
  313MOL0     C43084  11.814   3.320   4.805  0.3485  0.2932  0.4181
  313MOL0     C43085  11.884   3.192   5.017  0.8631  0.5437  1.0169
  313MOL0     C43086  12.007   3.128   4.958  0.1663 -0.1339 -0.1533
  313MOL0     O43087  12.103   3.090   5.047 -0.3378 -0.0398  0.0237
  313MOL0     C43088  12.203   3.003   5.014 -0.8439 -0.2967 -0.5242
  313MOL0     C43089  12.325   3.045   4.955 -0.1895  0.0217 -0.2295
  313MOL0     C43090  12.428   2.953   4.928  1.1862  0.0170  0.2127
  313MOL0     C43091  12.412   2.817   4.948 -0.1011 -0.4713  0.8773
  313MOL0     O43092  12.492   2.718   4.905  0.1043  0.4491 -0.1257
  313MOL0     C43093  12.631   2.743   4.881  0.9900 -0.5900 -0.1627
  313MOL0     C43094  12.692   2.797   5.014  0.0106 -0.4520  0.3996
  313MOL0     C43095  12.850   2.799   5.004  0.0938 -0.2032 -0.3367
  313MOL0     C43096  12.894   2.941   4.993  0.3594 -0.2966  0.3773
  313MOL0     C43097  13.047   2.954   4.991 -1.1370 -0.3391 -0.6557
  313MOL0     C43098  13.088   3.104   4.990  0.0179  0.2346  0.4336
  313MOL0     C43099  13.241   3.135   5.012 -0.3365  0.3673 -0.0842
  313MOL0     C43100  13.343   3.049   4.932 -0.8618 -0.5448 -0.2300
  313MOL0    Cl43101  13.341   3.117   4.760  0.2133 -0.1579 -0.5245
  313MOL0     C43102  12.289   2.775   5.002 -0.2548 -0.8081  0.2094
  313MOL0     C43103  12.192   2.870   5.038  0.2606  0.6623 -0.2129
  313MOL0     O43104  12.017   3.104   4.837  0.6754  0.4885  0.3965
  313MOL0     C43105  11.861   3.162   5.154  0.0497 -0.2490 -0.7415
  313MOL0     C43106  11.742   3.218   5.218  0.3081 -0.2742  0.9199
  313MOL0     N43107  10.982   3.215   5.259 -0.7332  0.1912 -1.0577
  313MOL0     N43108  10.873   3.193   5.323  0.0767 -0.0561 -0.6177
  313MOL0     C43109   9.903   3.491   5.572 -0.3185 -0.6205  1.0450
  313MOL0     C43110   9.802   3.420   5.492 -0.3892 -0.7821 -0.2247
  313MOL0     C43111   9.412   3.236   5.430  0.0974  0.0701 -0.0840
  313MOL0     C43112   9.420   3.203   5.292 -0.0512 -0.5548 -0.0126
  313MOL0     C43113   9.309   3.169   5.218  0.0931 -0.7241  0.6822
  313MOL0     C43114   9.187   3.169   5.276 -0.6717 -0.7929  0.3853
  313MOL0     O43115   9.065   3.148   5.207  0.1455 -0.6496 -0.3097
  313MOL0     C43116   9.079   3.120   5.072  0.3036  0.5061  1.2716
  313MOL0     C43117   8.952   3.063   5.016 -0.4145  0.6081  0.9365
  313MOL0     C43118   8.839   3.170   5.016  0.2650  0.4633 -0.6241
  313MOL0     C43119   8.700   3.098   5.002 -0.2563  0.1686 -0.8102
  313MOL0     C43120   8.670   3.045   4.871  0.8435 -0.6442 -1.0715
  313MOL0     C43121   8.644   3.009   4.763 -0.2404  0.7834  0.0908
  313MOL0     C43122   9.175   3.199   5.408  0.0329  0.4497  0.3380
  313MOL0     C43123   9.284   3.226   5.488 -0.6486 -0.0055 -0.7211
  313MOL0     C43124   9.261   3.230   5.646  0.6307  0.0103  1.5868
  313MOL0     H43125   9.741   3.166   5.712  0.2974  0.4106  2.0891
  313MOL0     H43126   9.904   3.273   5.839 -0.1951  0.6803  2.1406
  313MOL0     H43127   9.971   3.469   5.962  0.9105 -2.2747  1.0040
  313MOL0     H43128  10.108   3.587   5.945  2.6821 -1.8818  0.8689
  313MOL0     H43129  10.187   3.365   6.008 -1.1683  1.2548  0.6897
  313MOL0     H43130  10.135   3.303   5.853 -0.1094  0.5056  0.4089
  313MOL0     H43131  10.301   3.502   5.772  4.3966  0.5407  0.1995
  313MOL0     H43132  10.343   3.499   5.944 -0.9597  0.3780  0.3976
  313MOL0     H43133  10.398   3.245   5.920  0.3555 -2.5354 -1.8127
  313MOL0     H43134  10.341   3.254   5.762  1.8309 -1.5283 -0.2745
  313MOL0     H43135  10.603   3.368   5.850 -2.9354  2.5024  1.5056
  313MOL0     H43136  10.513   3.418   5.701 -4.2905 -1.8126 -1.6881
  313MOL0     H43137  10.623   3.165   5.770 -1.4527  1.3192  0.6639
  313MOL0     H43138  10.516   3.183   5.623 -0.2026  1.5914 -2.8644
  313MOL0     H43139  10.780   3.345   5.674 -0.7536  1.1650 -1.6045
  313MOL0     H43140  10.682   3.345   5.528 -1.0328 -0.3725  0.5432
  313MOL0     H43141  10.848   3.119   5.644 -0.1703 -1.0015 -0.3995
  313MOL0     H43142  10.738   3.097   5.500 -1.2877  1.3265 -1.2141
  313MOL0     H43143  11.060   3.305   5.576  2.5695  1.3025 -0.8409
  313MOL0     H43144  11.192   3.375   5.220  2.9027 -1.9772 -2.0679
  313MOL0     H43145  11.274   3.238   5.300  1.5576  1.0053  0.3705
  313MOL0     H43146  11.208   3.471   5.463  0.1733  0.2021  1.2684
  313MOL0     H43147  11.303   3.336   5.512 -1.6848  1.4053  1.9400
  313MOL0     H43148  11.385   3.531   5.292 -0.9213 -1.8909 -1.5466
  313MOL0     H43149  11.444   3.520   5.465  2.3155 -0.0185 -0.9424
  313MOL0     H43150  11.623   3.414   5.356  0.8256  0.0176 -2.3587
  313MOL0     H43151  11.514   3.272   5.386 -0.0491 -0.3701 -0.3616
  313MOL0     H43152  11.596   3.373   4.962  2.0426  0.4505 -1.3148
  313MOL0     H43153  11.823   3.235   4.737 -0.0585  0.3509  0.2891
  313MOL0     H43154  11.914   3.364   4.814  1.4150 -2.2205  2.2677
  313MOL0     H43155  11.741   3.395   4.774 -2.3693 -2.6767 -1.0191
  313MOL0     H43156  12.346   3.150   4.937 -2.6833  0.9388  1.6516
  313MOL0     H43157  12.521   2.993   4.891  0.6767  0.1261 -0.9833
  313MOL0     H43158  12.674   2.648   4.849 -3.8850 -2.6870 -1.2228
  313MOL0     H43159  12.649   2.810   4.796  0.0978 -0.9867 -0.6718
  313MOL0     H43160  12.655   2.896   5.040 -2.6759 -1.4980  0.9255
  313MOL0     H43161  12.672   2.739   5.104  2.5531 -0.1667  1.2190
  313MOL0     H43162  12.888   2.731   4.926 -1.8165 -0.9874 -0.6542
  313MOL0     H43163  12.886   2.757   5.098  0.9476 -0.1932 -0.6493
  313MOL0     H43164  12.853   3.007   5.069  0.0048 -0.5717  0.4284
  313MOL0     H43165  12.855   2.982   4.899  0.1549 -0.1511  0.5259
  313MOL0     H43166  13.068   2.920   5.093 -1.9912  2.6666  0.6195
  313MOL0     H43167  13.096   2.900   4.909  2.2393 -1.0636  1.6165
  313MOL0     H43168  13.033   3.168   5.060 -1.9823 -0.0796 -0.7805
  313MOL0     H43169  13.056   3.141   4.893  1.5822 -1.9641 -0.9976
  313MOL0     H43170  13.274   3.131   5.116  3.5832 -1.2405 -1.2058
  313MOL0     H43171  13.257   3.237   4.976  1.4771  1.4210  3.3126
  313MOL0     H43172  13.307   2.946   4.927  1.0541 -1.2386 -0.6593
  313MOL0     H43173  13.443   3.055   4.976 -0.8486 -1.1260 -0.1737
  313MOL0     H43174  12.273   2.670   5.023  1.5373 -1.4560 -1.4462
  313MOL0     H43175  12.103   2.830   5.086  1.3470 -1.2368  0.3686
  313MOL0     H43176  11.929   3.103   5.214 -1.2824  0.9144  2.1389
  313MOL0     H43177  11.726   3.193   5.322 -2.1001 -0.9433  0.4485
  313MOL0     H43178   9.966   3.570   5.533 -2.0505  0.6514  0.7166
  313MOL0     H43179   9.777   3.451   5.391 -0.2634  0.5599  0.1345
  313MOL0     H43180   9.516   3.184   5.244 -1.0633 -2.0616 -1.5638
  313MOL0     H43181   9.315   3.128   5.118  1.3146 -0.1208  0.4973
  313MOL0     H43182   9.124   3.199   5.011  1.6940  1.1141  2.9970
  313MOL0     H43183   9.150   3.042   5.041  3.3083  3.6564 -0.5103
  313MOL0     H43184   8.923   2.981   5.082  0.6242 -0.1213  0.5105
  313MOL0     H43185   8.963   3.020   4.916  2.3630  0.8990  1.0409
  313MOL0     H43186   8.838   3.217   5.115 -0.9448  1.2576 -0.9998
  313MOL0     H43187   8.860   3.244   4.938 -1.2080  1.9186  0.2858
  313MOL0     H43188   8.624   3.172   5.028 -0.9810 -1.4958  2.2721
  313MOL0     H43189   8.704   3.017   5.075  1.2363 -1.8102 -2.9631
  313MOL0     H43190   8.631   2.966   4.667  1.5727 -0.2918  0.2854
  313MOL0     H43191   9.080   3.202   5.460 -0.8497  2.4986 -1.2835
  313MOL0     H43192   9.231   3.326   5.687 -1.8765  1.8450 -3.6160
  313MOL0     H43193   9.182   3.164   5.683  0.4305 -1.9702 -1.9034
  313MOL0     H43194   9.351   3.207   5.704  1.4915  2.6835  1.4139
  314MOL0     O43195   1.114  10.099   5.688  0.7313  0.4088 -0.4489
  314MOL0     C43196   1.061   9.996   5.642  1.0389  0.3844 -0.3750
  314MOL0     O43197   1.128   9.903   5.565 -0.1236  0.7078 -0.7093
  314MOL0     C43198   1.266   9.913   5.572  0.5845  0.1060 -0.2834
  314MOL0     C43199   1.343   9.833   5.655 -0.0135  0.3740 -0.4955
  314MOL0     C43200   1.484   9.842   5.663 -0.3994  0.2501  0.1274
  314MOL0     C43201   1.543   9.935   5.579 -0.7649  0.8143  0.4327
  314MOL0     O43202   1.677   9.954   5.604  0.1021  0.0666 -0.3433
  314MOL0     C43203   1.740  10.080   5.585 -0.4244  0.3372 -0.0915
  314MOL0     C43204   1.876  10.063   5.647 -0.6077 -0.5759  0.1100
  314MOL0     C43205   1.942  10.199   5.652 -0.1519 -0.0923 -0.2568
  314MOL0     C43206   2.082  10.166   5.717  0.5076  0.7559 -0.0255
  314MOL0     C43207   2.149  10.296   5.727  0.2203 -1.2700 -1.3895
  314MOL0     C43208   2.280  10.280   5.808 -0.2279  0.6146 -0.5287
  314MOL0     C43209   2.337  10.419   5.839 -0.8110 -0.5338  0.1056
  314MOL0     C43210   2.457  10.409   5.946 -0.4839 -0.4768 -0.4717
  314MOL0     N43211   2.533  10.541   5.945  0.6489  0.0209 -0.0806
  314MOL0     C43212   2.600  10.595   5.835  0.8549  0.6117  0.5091
  314MOL0     C43213   2.661  10.705   5.883  0.9168 -0.4960 -0.0005
  314MOL0     C43214   2.732  10.813   5.811  0.1798  0.0337  0.6827
  314MOL0     C43215   2.891  10.789   5.800  1.0474  1.4042  0.3296
  314MOL0     C43216   2.951  10.905   5.722 -0.8155  0.3833 -1.3428
  314MOL0     C43217   3.100  10.916   5.738  1.1032 -0.7318  0.1405
  314MOL0     O43218   3.167  10.798   5.694 -0.1580 -0.0246  0.0036
  314MOL0     C43219   3.301  10.779   5.720  0.4224 -0.1773  0.7185
  314MOL0     C43220   3.360  10.683   5.642 -0.2242 -0.6755  0.0602
  314MOL0     C43221   3.494  10.638   5.649  0.3621  0.6957 -0.7430
  314MOL0     C43222   3.530  10.524   5.565 -0.0511 -0.2334 -0.6291
  314MOL0     C43223   3.575  10.714   5.742  0.5031  0.7957  0.4372
  314MOL0     C43224   3.726  10.683   5.755  0.1898  0.1990 -0.2592
  314MOL0     O43225   3.786  10.749   5.854 -0.5016 -0.7596 -0.9501
  314MOL0     C43226   3.918  10.722   5.882  0.0830  0.0375 -0.1485
  314MOL0     C43227   4.025  10.710   5.789  0.8108  0.5893  0.3346
  314MOL0     C43228   4.159  10.707   5.829  1.2421  0.6503 -1.2720
  314MOL0     C43229   4.179  10.692   5.969 -0.4760  0.2310  0.0303
  314MOL0     O43230   4.303  10.702   6.027 -0.4046  0.0014 -0.0364
  314MOL0     C43231   4.399  10.601   5.989 -0.2972 -0.1476 -0.1791
  314MOL0     C43232   4.533  10.626   6.062  0.7209  0.2259 -0.1176
  314MOL0     C43233   4.522  10.617   6.218 -0.2601  0.1357 -0.2546
  314MOL0     C43234   4.658  10.638   6.276 -0.4062  0.3979  0.4728
  314MOL0     C43235   4.671  10.621   6.422  0.4138  0.1526 -0.3639
  314MOL0     C43236   4.821  10.600   6.460 -0.4084 -0.7116  0.0923
  314MOL0     C43237   4.911  10.489   6.397  1.2716 -0.7272  0.4606
  314MOL0     C43238   4.916  10.373   6.508 -0.4342 -0.6449  0.0465
  314MOL0    Cl43239   5.022  10.447   6.633 -0.4804  0.1771  0.0072
  314MOL0     C43240   4.072  10.693   6.057 -0.1566 -0.2060 -0.5602
  314MOL0     C43241   3.945  10.716   6.017 -0.0284  0.1272 -0.9750
  314MOL0     O43242   3.779  10.601   5.682  0.4591 -0.3440 -0.5553
  314MOL0     C43243   3.519  10.820   5.812 -0.4286  0.1731 -0.1912
  314MOL0     C43244   3.381  10.856   5.810  0.3207  0.8575 -0.1897
  314MOL0     N43245   2.628  10.719   6.016 -0.3439  0.1842  0.3116
  314MOL0     N43246   2.550  10.618   6.052 -0.7807  0.3901 -0.3244
  314MOL0     C43247   1.474  10.011   5.488  0.1251 -0.4820 -0.3476
  314MOL0     C43248   1.328  10.001   5.483  0.3577  0.4352 -0.5862
  314MOL0     C43249   0.912   9.991   5.664 -0.1866  0.3534  0.1626
  314MOL0     C43250   0.840  10.105   5.702  0.0207  0.1000 -0.1240
  314MOL0     C43251   0.703  10.103   5.717  0.2073  0.4728  0.0224
  314MOL0     C43252   0.629   9.987   5.693  0.5266 -0.3624  0.1903
  314MOL0     O43253   0.489   9.991   5.695  0.2068  0.1880 -0.3711
  314MOL0     C43254   0.420  10.120   5.675 -0.1698  0.4242  0.0576
  314MOL0     C43255   0.450  10.180   5.534  0.3815  0.7162  0.8837
  314MOL0     C43256   0.406  10.097   5.414  0.0793  0.8355 -0.4628
  314MOL0     C43257   0.256  10.097   5.389  0.2499 -0.0313  0.7761
  314MOL0     C43258   0.183   9.986   5.456 -0.8361 -0.2394  0.8691
  314MOL0     C43259   0.126   9.889   5.502 -0.2829  0.5333 -0.1520
  314MOL0     C43260   0.697   9.872   5.665  0.0658  0.3428 -0.7344
  314MOL0     C43261   0.837   9.868   5.651 -0.4357 -0.7327 -0.8550
  314MOL0     C43262   0.904   9.740   5.604  0.7293  0.5681 -0.9738
  314MOL0     H43263   1.295   9.756   5.715 -0.1193  1.1395  0.4223
  314MOL0     H43264   1.542   9.779   5.729  3.7475  0.8895 -2.5407
  314MOL0     H43265   1.674  10.148   5.640 -0.7184 -1.0676  1.3384
  314MOL0     H43266   1.749  10.108   5.480  0.8666  0.2683 -0.0068
  314MOL0     H43267   1.855  10.014   5.742 -2.0667 -0.0116  0.1163
  314MOL0     H43268   1.942  10.011   5.577 -0.7753  2.6148 -2.6936
  314MOL0     H43269   1.951  10.244   5.553  0.9067 -0.8639 -0.5414
  314MOL0     H43270   1.885  10.263   5.719 -1.7951 -0.3865 -1.3213
  314MOL0     H43271   2.076  10.122   5.817 -1.0692  3.0239  0.9570
  314MOL0     H43272   2.134  10.102   5.645 -1.4564 -0.3576 -0.5101
  314MOL0     H43273   2.088  10.369   5.781  1.7610 -0.0969 -1.1667
  314MOL0     H43274   2.160  10.340   5.627  4.2554 -1.0631 -1.0225
  314MOL0     H43275   2.257  10.227   5.901  0.2411  0.2027 -0.6466
  314MOL0     H43276   2.347  10.213   5.754 -0.1609 -0.6717  1.0900
  314MOL0     H43277   2.273  10.499   5.876 -1.2228 -0.3586 -0.9607
  314MOL0     H43278   2.383  10.460   5.749 -1.8850 -1.0649 -0.7063
  314MOL0     H43279   2.430  10.380   6.048  1.2911  0.1382  0.2071
  314MOL0     H43280   2.529  10.331   5.918 -0.5487 -0.8695  0.4123
  314MOL0     H43281   2.610  10.570   5.730 -0.8687  4.4985 -0.7616
  314MOL0     H43282   2.696  10.901   5.863  0.9515  1.0133 -0.3766
  314MOL0     H43283   2.688  10.826   5.712 -1.7168  2.6199  1.7767
  314MOL0     H43284   2.948  10.771   5.891  0.6777 -3.2336 -0.0757
  314MOL0     H43285   2.903  10.696   5.743 -0.3753 -0.5927  3.0742
  314MOL0     H43286   2.932  10.888   5.615  0.3497 -1.6015 -1.2907
  314MOL0     H43287   2.911  11.000   5.758 -2.4033 -0.0404 -1.9207
  314MOL0     H43288   3.130  11.008   5.686 -2.3103  0.5813  0.2560
  314MOL0     H43289   3.129  10.931   5.842  2.9597  0.4107 -0.4937
  314MOL0     H43290   3.299  10.633   5.568  0.7965  0.8817 -1.9213
  314MOL0     H43291   3.451  10.493   5.496 -0.9621  0.9277 -0.1562
  314MOL0     H43292   3.563  10.439   5.625 -0.7197 -1.0627 -1.4034
  314MOL0     H43293   3.613  10.548   5.498  0.2632 -1.9823 -0.8980
  314MOL0     H43294   4.015  10.707   5.681  2.3612  0.6939  0.1736
  314MOL0     H43295   4.241  10.731   5.763  1.0709  2.2299 -0.9569
  314MOL0     H43296   4.352  10.506   6.015 -2.0255  0.3091 -1.4363
  314MOL0     H43297   4.428  10.607   5.884  0.9931 -2.5232 -0.0214
  314MOL0     H43298   4.609  10.554   6.032  1.8874  1.0114  0.8820
  314MOL0     H43299   4.570  10.724   6.031 -2.0318  1.0771 -1.0719
  314MOL0     H43300   4.486  10.520   6.254 -0.7513  0.2546 -0.4290
  314MOL0     H43301   4.455  10.693   6.259 -0.4649  0.4294 -1.1306
  314MOL0     H43302   4.687  10.739   6.246 -0.5314  0.2668 -0.0909
  314MOL0     H43303   4.720  10.562   6.228 -1.8152  0.3532 -1.3615
  314MOL0     H43304   4.626  10.702   6.481  1.2787  2.9006 -3.1866
  314MOL0     H43305   4.626  10.526   6.451  2.1234 -0.7120 -0.4206
  314MOL0     H43306   4.821  10.588   6.569 -0.7062 -2.2594 -0.0582
  314MOL0     H43307   4.858  10.701   6.440 -1.4624 -0.3650 -0.1753
  314MOL0     H43308   5.013  10.522   6.376  1.4200 -1.7335 -0.4842
  314MOL0     H43309   4.859  10.443   6.312  1.5325 -1.3138  0.6157
  314MOL0     H43310   4.959  10.280   6.469 -0.3192 -0.5223 -0.1230
  314MOL0     H43311   4.816  10.346   6.540 -0.7533  2.4056  1.9781
  314MOL0     H43312   4.095  10.685   6.162  0.6223 -1.0323 -0.7765
  314MOL0     H43313   3.865  10.727   6.089 -0.6545 -0.5095 -1.5598
  314MOL0     H43314   3.585  10.881   5.872  1.1511 -0.8709 -0.7997
  314MOL0     H43315   3.351  10.933   5.880  0.5909 -1.1452  2.2691
  314MOL0     H43316   1.515  10.089   5.425 -0.9669  1.9745  1.7821
  314MOL0     H43317   1.269  10.058   5.412 -0.1926  0.7579  0.1225
  314MOL0     H43318   0.902  10.193   5.711  0.6204 -0.2474 -0.7716
  314MOL0     H43319   0.656  10.199   5.738 -0.1611  0.1050  0.9325
  314MOL0     H43320   0.312  10.099   5.674 -0.4501  0.9421 -4.6701
  314MOL0     H43321   0.450  10.185   5.758  6.7893 -1.0867 -0.7301
  314MOL0     H43322   0.556  10.208   5.530 -0.1004  2.5677 -2.5254
  314MOL0     H43323   0.397  10.275   5.527  3.0335  2.2750  0.5291
  314MOL0     H43324   0.457  10.139   5.327 -1.2394 -0.0989 -1.7543
  314MOL0     H43325   0.445   9.995   5.424  1.9593  1.3375 -2.0609
  314MOL0     H43326   0.242  10.101   5.281  4.3795  1.2643  0.1179
  314MOL0     H43327   0.215  10.189   5.432  1.2570  2.2181 -2.6762
  314MOL0     H43328   0.074   9.808   5.549  1.2344 -1.4127 -1.6126
  314MOL0     H43329   0.630   9.788   5.649 -0.6899  0.7479  0.2169
  314MOL0     H43330   0.831   9.661   5.591  1.5938 -0.2803 -0.7758
  314MOL0     H43331   0.952   9.750   5.506  3.4597  0.5906  0.2571
  314MOL0     H43332   0.984   9.704   5.669  2.8954  1.4648 -2.9855
  315MOL0     O43333   4.874   4.590   5.379 -0.0851  0.2862 -0.4747
  315MOL0     C43334   4.802   4.640   5.289  0.4227  1.0253  0.5668
  315MOL0     O43335   4.846   4.632   5.157  0.4738  0.2067  0.4694
  315MOL0     C43336   4.965   4.582   5.116 -0.7704  1.1154  0.0627
  315MOL0     C43337   5.027   4.637   5.006 -0.4352  0.8930  0.2068
  315MOL0     C43338   5.155   4.598   4.971  0.5371  0.1866 -0.7084
  315MOL0     C43339   5.229   4.496   5.034  0.0116 -0.0957 -0.1630
  315MOL0     O43340   5.365   4.473   4.992  0.3579 -0.2368 -0.8053
  315MOL0     C43341   5.391   4.330   5.000 -0.2799 -0.1813  0.4139
  315MOL0     C43342   5.487   4.281   4.894  0.6034 -0.4599  0.9655
  315MOL0     C43343   5.619   4.355   4.880 -0.1968  0.1490  0.2334
  315MOL0     C43344   5.728   4.255   4.823 -1.0000 -0.5425 -0.8214
  315MOL0     C43345   5.865   4.321   4.805  0.3998  0.5704 -0.2852
  315MOL0     C43346   5.983   4.234   4.745  1.2619 -0.3324  0.2228
  315MOL0     C43347   6.116   4.307   4.748  0.4663  0.1798  0.1557
  315MOL0     C43348   6.176   4.292   4.883 -0.1546 -0.0806  0.6529
  315MOL0     N43349   6.286   4.391   4.906  0.3877 -0.1474 -0.0854
  315MOL0     C43350   6.255   4.509   4.968  0.8704  0.2786 -0.1601
  315MOL0     C43351   6.367   4.574   5.005  0.2681 -0.1868  0.7036
  315MOL0     C43352   6.385   4.700   5.092 -0.4413  0.1603  0.2819
  315MOL0     C43353   6.493   4.666   5.191  0.2893  0.1976  1.2964
  315MOL0     C43354   6.491   4.758   5.311 -0.5596  0.4372  0.1383
  315MOL0     C43355   6.586   4.729   5.426  0.4992 -0.2476  0.3390
  315MOL0     O43356   6.720   4.764   5.380 -0.1553  0.3915  0.5611
  315MOL0     C43357   6.785   4.864   5.448 -0.3192  0.2882  0.4399
  315MOL0     C43358   6.760   4.996   5.428  0.1779 -0.5170  0.4443
  315MOL0     C43359   6.830   5.095   5.495  0.7825 -0.5425  0.0162
  315MOL0     C43360   6.798   5.240   5.455 -0.1920  0.0488  0.4623
  315MOL0     C43361   6.922   5.061   5.591 -0.5456 -0.4492 -0.4289
  315MOL0     C43362   7.002   5.162   5.672 -0.0999 -0.4063 -0.7008
  315MOL0     O43363   7.112   5.115   5.740  0.3372 -0.1768 -0.2073
  315MOL0     C43364   7.168   5.190   5.839 -0.6655 -1.3582  0.5583
  315MOL0     C43365   7.304   5.200   5.853 -0.0491 -0.1205  0.1693
  315MOL0     C43366   7.353   5.252   5.973 -0.1009 -0.4274 -0.4214
  315MOL0     C43367   7.272   5.298   6.080  0.3322  0.8796 -0.1655
  315MOL0     O43368   7.331   5.341   6.194 -0.4192 -0.6147  0.2027
  315MOL0     C43369   7.326   5.272   6.321 -0.2524 -0.1644  0.6119
  315MOL0     C43370   7.337   5.369   6.437  0.5229  0.3348 -0.6186
  315MOL0     C43371   7.461   5.452   6.437 -0.4883 -0.1724 -0.6714
  315MOL0     C43372   7.575   5.369   6.506  0.1346 -0.3037 -0.5767
  315MOL0     C43373   7.703   5.461   6.507 -0.6182 -0.7495  0.5371
  315MOL0     C43374   7.824   5.399   6.569  0.5764 -0.5460  0.2533
  315MOL0     C43375   7.948   5.487   6.595 -0.0121 -0.4310 -0.6156
  315MOL0     C43376   8.056   5.404   6.657 -0.6262  0.4356 -0.1077
  315MOL0    Cl43377   8.204   5.492   6.676 -0.3633 -0.3317  0.3862
  315MOL0     C43378   7.136   5.289   6.059 -0.4320  0.0241 -0.3919
  315MOL0     C43379   7.087   5.240   5.943 -0.0130 -0.0634  0.5625
  315MOL0     O43380   6.955   5.274   5.682  0.4885 -1.3840 -0.3873
  315MOL0     C43381   6.943   4.928   5.623 -0.0242  0.2327  0.3408
  315MOL0     C43382   6.880   4.830   5.544 -0.4507  0.2864 -0.3175
  315MOL0     N43383   6.469   4.501   4.945  0.5947  0.2689  0.1723
  315MOL0     N43384   6.419   4.392   4.889  0.6266  0.0433 -0.7878
  315MOL0     C43385   5.161   4.435   5.138  0.0862 -0.3247 -0.2589
  315MOL0     C43386   5.029   4.470   5.175  0.1949 -0.4271 -0.3152
  315MOL0     C43387   4.674   4.700   5.325 -0.7212  0.0220 -0.8322
  315MOL0     C43388   4.580   4.708   5.219 -0.5310 -0.2725  0.5260
  315MOL0     C43389   4.453   4.762   5.244  0.5085  0.5308  0.2482
  315MOL0     C43390   4.422   4.808   5.373 -0.1074  0.1040  0.2096
  315MOL0     O43391   4.299   4.857   5.405 -0.2950 -0.9286  0.3490
  315MOL0     C43392   4.181   4.827   5.330  0.0877 -0.3757 -0.7955
  315MOL0     C43393   4.060   4.885   5.410 -1.0798  0.1332 -0.4768
  315MOL0     C43394   4.032   4.827   5.545 -0.4267  0.1848 -0.2702
  315MOL0     C43395   3.996   4.683   5.563 -0.0865 -0.8097 -0.4232
  315MOL0     C43396   3.855   4.660   5.583  0.7605  0.9621  0.3560
  315MOL0     C43397   3.740   4.639   5.603  0.1775 -0.3107 -0.0358
  315MOL0     C43398   4.507   4.801   5.475  1.2340  0.8269  0.2622
  315MOL0     C43399   4.636   4.735   5.454  1.1992  0.5874  0.0551
  315MOL0     C43400   4.725   4.739   5.577 -0.3482 -0.8364  1.1751
  315MOL0     H43401   4.983   4.721   4.952  0.3841  0.4464 -1.2232
  315MOL0     H43402   5.207   4.659   4.897  0.4642  0.7087 -0.3343
  315MOL0     H43403   5.301   4.275   4.971  1.1575 -0.8128 -3.3483
  315MOL0     H43404   5.430   4.293   5.095 -1.3055  0.5456  1.1531
  315MOL0     H43405   5.500   4.174   4.916 -2.4463 -0.9477  0.9282
  315MOL0     H43406   5.427   4.288   4.803 -1.5747  0.8877  2.4236
  315MOL0     H43407   5.605   4.431   4.803 -1.3588 -1.3086 -1.0705
  315MOL0     H43408   5.652   4.405   4.971 -1.0088  0.0953  0.5584
  315MOL0     H43409   5.749   4.181   4.901 -0.1631  2.1765  1.7075
  315MOL0     H43410   5.714   4.208   4.725  1.4261  3.2044 -3.2315
  315MOL0     H43411   5.898   4.358   4.902  0.4577  1.3408 -0.5894
  315MOL0     H43412   5.856   4.411   4.743 -0.1208  0.0646 -0.9715
  315MOL0     H43413   5.992   4.136   4.792 -1.6923 -0.7815  0.0483
  315MOL0     H43414   5.959   4.213   4.641  2.8694 -3.1747  0.3217
  315MOL0     H43415   6.111   4.415   4.727  2.5090  0.5180  1.1036
  315MOL0     H43416   6.178   4.249   4.679  0.8131 -1.8686  2.0873
  315MOL0     H43417   6.107   4.315   4.965  0.8862  3.8381  0.6316
  315MOL0     H43418   6.211   4.189   4.891 -0.5168 -0.2847 -0.2996
  315MOL0     H43419   6.152   4.535   4.991  0.9883 -0.4899  1.2914
  315MOL0     H43420   6.289   4.721   5.140 -1.3508 -1.8624 -0.5020
  315MOL0     H43421   6.421   4.780   5.027 -2.1531 -1.4114 -2.8379
  315MOL0     H43422   6.479   4.562   5.224 -2.0576 -0.0304 -0.1624
  315MOL0     H43423   6.591   4.672   5.142  0.2769 -0.2624  1.2043
  315MOL0     H43424   6.509   4.859   5.273 -1.9044  0.2889 -0.9671
  315MOL0     H43425   6.386   4.771   5.340 -1.4779 -0.9949 -2.2716
  315MOL0     H43426   6.555   4.789   5.513 -0.0654 -1.1632  0.7927
  315MOL0     H43427   6.588   4.624   5.456  0.8866 -0.2613  0.2623
  315MOL0     H43428   6.680   5.019   5.358  1.5721 -0.7989 -1.3169
  315MOL0     H43429   6.895   5.290   5.449 -0.3229  0.7835  3.0583
  315MOL0     H43430   6.735   5.296   5.526  3.1766  1.9810  2.1929
  315MOL0     H43431   6.751   5.242   5.357 -2.1510 -1.1737  1.2972
  315MOL0     H43432   7.366   5.169   5.770  1.5212  2.9171  0.0817
  315MOL0     H43433   7.461   5.252   5.984  0.1141  0.8318 -2.2255
  315MOL0     H43434   7.231   5.219   6.329 -0.8128  0.7625  0.2722
  315MOL0     H43435   7.403   5.195   6.323 -0.3652 -0.3671 -1.3237
  315MOL0     H43436   7.253   5.438   6.432 -0.8237 -1.2865 -1.1532
  315MOL0     H43437   7.324   5.307   6.527  2.0643 -0.2515 -0.7663
  315MOL0     H43438   7.442   5.542   6.498 -1.7261  0.1401 -1.4828
  315MOL0     H43439   7.496   5.482   6.338 -1.1335 -2.6142 -1.7088
  315MOL0     H43440   7.593   5.274   6.454  0.8423 -1.4143  1.5527
  315MOL0     H43441   7.541   5.337   6.605  0.0941  0.6771 -0.2618
  315MOL0     H43442   7.723   5.506   6.409 -3.9953  0.1293  0.1070
  315MOL0     H43443   7.683   5.558   6.555 -2.6279 -1.8486  2.0937
  315MOL0     H43444   7.862   5.319   6.504 -0.2255 -2.2495  1.7632
  315MOL0     H43445   7.789   5.350   6.661 -0.9804 -0.7509 -0.4036
  315MOL0     H43446   7.926   5.571   6.662 -1.7659 -1.8756  0.7148
  315MOL0     H43447   7.991   5.527   6.502 -1.6917  3.8523  0.1881
  315MOL0     H43448   8.071   5.314   6.597 -4.4057 -0.9699  0.7528
  315MOL0     H43449   8.034   5.374   6.760 -1.4430 -1.5235 -0.8096
  315MOL0     H43450   7.076   5.316   6.146 -0.2872 -2.6981  0.6419
  315MOL0     H43451   6.979   5.232   5.933  0.2768 -1.9765 -2.0185
  315MOL0     H43452   7.001   4.897   5.709  1.3697 -0.1364 -0.7004
  315MOL0     H43453   6.874   4.723   5.561 -0.5648  0.5397  1.3743
  315MOL0     H43454   5.210   4.360   5.198  0.4651  0.6815  0.7348
  315MOL0     H43455   4.977   4.411   5.251 -1.6177  2.2550  0.6959
  315MOL0     H43456   4.611   4.687   5.118 -0.7791  1.9578 -0.0714
  315MOL0     H43457   4.376   4.763   5.168  2.2679  2.5048 -1.6699
  315MOL0     H43458   4.176   4.876   5.232 -1.4179  0.4265 -0.3532
  315MOL0     H43459   4.182   4.718   5.318 -0.3692 -0.8644  2.5981
  315MOL0     H43460   3.968   4.867   5.354 -1.9269  2.8754 -0.0987
  315MOL0     H43461   4.069   4.993   5.421 -1.1526 -0.0787  2.5873
  315MOL0     H43462   4.128   4.845   5.594  0.0128  0.8446 -1.3358
  315MOL0     H43463   3.956   4.883   5.600 -1.4887 -0.9154 -0.5873
  315MOL0     H43464   4.048   4.650   5.653 -1.8593 -0.3110  0.8355
  315MOL0     H43465   4.025   4.623   5.477 -2.2069 -0.6857 -1.2909
  315MOL0     H43466   3.637   4.615   5.617  0.2299 -1.0991 -0.8708
  315MOL0     H43467   4.480   4.838   5.574  1.6423 -1.9641  1.5107
  315MOL0     H43468   4.828   4.760   5.548 -1.2297  1.6987 -0.4805
  315MOL0     H43469   4.694   4.824   5.638  1.2647 -1.2455  2.6470
  315MOL0     H43470   4.717   4.651   5.641  0.5606 -0.7690  1.3963
  316MOL0     O43471   5.055   8.762   2.377  0.4210  0.4971 -0.4068
  316MOL0     C43472   4.997   8.864   2.343  0.1751 -0.7444  0.7209
  316MOL0     O43473   5.052   8.989   2.319 -0.5971 -0.3149  0.3430
  316MOL0     C43474   5.185   9.009   2.339 -0.5847  0.4384  0.7648
  316MOL0     C43475   5.289   8.925   2.297  0.1304 -0.4436  0.4084
  316MOL0     C43476   5.421   8.950   2.322 -0.5898  1.2895  0.7914
  316MOL0     C43477   5.450   9.069   2.384 -0.7966  1.1133  0.8773
  316MOL0     O43478   5.586   9.073   2.407  0.2938 -0.0401 -0.0156
  316MOL0     C43479   5.646   9.201   2.443 -0.6538  0.1133 -0.1931
  316MOL0     C43480   5.795   9.198   2.463  0.0924  0.3069  0.3940
  316MOL0     C43481   5.856   9.139   2.334  0.4651 -0.7856  0.2849
  316MOL0     C43482   6.005   9.136   2.347 -1.3465  0.5994 -0.1928
  316MOL0     C43483   6.084   9.135   2.207 -0.0536  0.5848  0.1236
  316MOL0     C43484   6.218   9.063   2.202 -0.0773 -0.3351 -0.3654
  316MOL0     C43485   6.330   9.148   2.253 -0.7640 -0.5669 -0.3655
  316MOL0     C43486   6.459   9.075   2.290 -0.7456 -0.8919  0.1249
  316MOL0     N43487   6.529   9.032   2.173 -0.0059 -0.0015 -0.6326
  316MOL0     C43488   6.493   8.918   2.095 -0.5640 -0.6827 -0.8529
  316MOL0     C43489   6.617   8.893   2.036  0.0189  0.1888  0.5033
  316MOL0     C43490   6.653   8.771   1.958  0.2149  0.0617 -0.3385
  316MOL0     C43491   6.574   8.769   1.821  0.5775 -0.2413  0.3934
  316MOL0     C43492   6.434   8.700   1.823 -0.4084  0.0841 -0.2572
  316MOL0     C43493   6.379   8.669   1.683  0.2231 -0.1174  0.2936
  316MOL0     O43494   6.275   8.571   1.691 -0.4901  0.0824  0.0799
  316MOL0     C43495   6.182   8.556   1.588 -0.7478  0.4503  0.0609
  316MOL0     C43496   6.177   8.632   1.470 -0.4935  0.0231 -0.0557
  316MOL0     C43497   6.095   8.606   1.361 -0.4164  0.3796 -0.0975
  316MOL0     C43498   6.096   8.712   1.251 -0.1111  0.0058 -0.5735
  316MOL0     C43499   5.999   8.502   1.375  0.5543 -0.5620 -0.0257
  316MOL0     C43500   5.905   8.469   1.268  0.6487  0.0591 -0.2794
  316MOL0     O43501   5.865   8.337   1.264  0.1465  0.2096 -0.5844
  316MOL0     C43502   5.771   8.296   1.168  0.0434  0.1116  0.9319
  316MOL0     C43503   5.648   8.238   1.212  0.1493  0.3085  0.6327
  316MOL0     C43504   5.558   8.196   1.118 -0.5456  0.1675 -0.0799
  316MOL0     C43505   5.584   8.202   0.980  0.3139 -0.0660 -0.2872
  316MOL0     O43506   5.492   8.141   0.896 -0.1590 -0.6146  0.5814
  316MOL0     C43507   5.525   8.124   0.757 -0.0632 -0.6205 -1.0807
  316MOL0     C43508   5.643   8.026   0.749 -0.0271 -0.8164  0.2652
  316MOL0     C43509   5.666   7.965   0.606 -0.0525  0.0304  0.7238
  316MOL0     C43510   5.569   7.855   0.579  0.1871  0.7876 -0.1503
  316MOL0     C43511   5.559   7.844   0.425  0.2239 -0.2699  0.2603
  316MOL0     C43512   5.476   7.723   0.379 -0.3292 -1.2064 -0.1651
  316MOL0     C43513   5.475   7.704   0.235 -0.8511  0.4067  0.3183
  316MOL0     C43514   5.376   7.594   0.194 -0.2347 -0.0741  0.0901
  316MOL0    Cl43515   5.235   7.666   0.104  0.2601 -0.1664 -0.2327
  316MOL0     C43516   5.700   8.272   0.941  0.1000 -1.0032 -0.0067
  316MOL0     C43517   5.792   8.313   1.033 -0.3034  0.5141  1.1315
  316MOL0     O43518   5.853   8.554   1.201 -0.1822  0.4708 -0.3037
  316MOL0     C43519   6.007   8.414   1.491 -0.0928 -0.7283  0.7886
  316MOL0     C43520   6.103   8.443   1.594 -0.0187  0.2205  0.2137
  316MOL0     N43521   6.705   8.991   2.069  0.0826 -0.6450 -0.0478
  316MOL0     N43522   6.652   9.074   2.144  0.1020  0.1220  0.2294
  316MOL0     C43523   5.348   9.158   2.429  0.2660 -0.3403  0.1891
  316MOL0     C43524   5.221   9.125   2.400  0.5166  0.2406 -0.5395
  316MOL0     C43525   4.853   8.843   2.304 -0.0746  0.7114 -0.0566
  316MOL0     C43526   4.800   8.717   2.283  0.6278  0.4379  0.6511
  316MOL0     C43527   4.674   8.698   2.228  0.0730  0.3255  0.4730
  316MOL0     C43528   4.587   8.807   2.218  0.1069  0.7120 -0.0412
  316MOL0     O43529   4.460   8.806   2.175  0.3121  0.0284 -0.0694
  316MOL0     C43530   4.382   8.683   2.171  0.2482 -0.1446 -0.0012
  316MOL0     C43531   4.232   8.703   2.142 -0.1234 -0.1098 -0.7237
  316MOL0     C43532   4.156   8.577   2.196 -0.0674 -0.4162  0.3554
  316MOL0     C43533   4.006   8.595   2.201  0.2341  0.5086  1.2698
  316MOL0     C43534   3.981   8.668   2.331  0.3391 -0.2039  0.1100
  316MOL0     C43535   3.949   8.714   2.440 -0.1752 -0.5146 -0.1489
  316MOL0     C43536   4.632   8.932   2.243  0.0977  0.3280  0.5160
  316MOL0     C43537   4.768   8.953   2.287 -0.1213  0.6949 -0.3230
  316MOL0     C43538   4.793   9.099   2.328  0.7333 -0.0408 -0.3565
  316MOL0     H43539   5.252   8.836   2.247 -3.4630  0.7964  0.5563
  316MOL0     H43540   5.491   8.870   2.297 -1.3826  1.1098 -1.0252
  316MOL0     H43541   5.608   9.248   2.534  1.0803  0.6094  0.3222
  316MOL0     H43542   5.633   9.269   2.358  0.3636 -0.7708 -1.0945
  316MOL0     H43543   5.842   9.296   2.479  2.7259 -0.7675 -0.1738
  316MOL0     H43544   5.816   9.122   2.539  2.5510  1.1399  0.6583
  316MOL0     H43545   5.829   9.038   2.300  0.0803 -0.2995 -0.8869
  316MOL0     H43546   5.836   9.207   2.251  0.0116 -0.8517  0.3355
  316MOL0     H43547   6.043   9.215   2.412 -1.7459 -0.7118  1.7419
  316MOL0     H43548   6.031   9.046   2.403 -0.5189  0.6012 -0.5618
  316MOL0     H43549   6.094   9.237   2.169 -2.7290 -0.0789 -2.7655
  316MOL0     H43550   6.022   9.086   2.132 -4.4033  4.7124  0.5756
  316MOL0     H43551   6.214   8.969   2.259 -0.2334  0.1389  0.4244
  316MOL0     H43552   6.224   9.036   2.096  0.8314 -1.1727 -0.1149
  316MOL0     H43553   6.301   9.197   2.346 -1.4393 -3.6342  1.1811
  316MOL0     H43554   6.350   9.223   2.176 -1.6173  0.5006  0.4352
  316MOL0     H43555   6.522   9.140   2.351 -2.1222  0.8262 -0.2010
  316MOL0     H43556   6.439   8.992   2.359  0.9533 -0.3562  1.3281
  316MOL0     H43557   6.413   8.847   2.106 -1.2051  0.2974  1.2980
  316MOL0     H43558   6.630   8.679   2.013  0.1132 -0.1383 -0.7165
  316MOL0     H43559   6.760   8.767   1.937 -0.2017 -1.7894 -2.5080
  316MOL0     H43560   6.562   8.875   1.797  1.3415 -0.0986  0.6213
  316MOL0     H43561   6.636   8.734   1.739 -1.2312 -1.0293 -0.7073
  316MOL0     H43562   6.438   8.602   1.872 -0.6154 -0.1508 -0.7032
  316MOL0     H43563   6.367   8.766   1.879  1.3386  1.3707  0.4088
  316MOL0     H43564   6.352   8.763   1.633 -0.7936 -0.5728 -0.0411
  316MOL0     H43565   6.454   8.618   1.623  0.9821  0.8904  0.3630
  316MOL0     H43566   6.238   8.722   1.469  0.1070 -0.3294  1.6407
  316MOL0     H43567   6.194   8.756   1.233  1.0454 -2.4872 -0.7654
  316MOL0     H43568   6.033   8.798   1.272  0.1935 -0.2352  1.5718
  316MOL0     H43569   6.065   8.674   1.153 -0.7247 -1.1403  0.0404
  316MOL0     H43570   5.638   8.217   1.318 -2.0382  1.9990  0.8490
  316MOL0     H43571   5.467   8.148   1.153 -0.8975  0.9136  0.0460
  316MOL0     H43572   5.439   8.078   0.706 -0.1161 -1.8181  0.0331
  316MOL0     H43573   5.554   8.214   0.702 -2.1090  1.0246  0.3799
  316MOL0     H43574   5.737   8.066   0.787 -0.0715 -1.2412  0.8414
  316MOL0     H43575   5.617   7.945   0.818  0.7501  0.2671  1.8854
  316MOL0     H43576   5.764   7.922   0.585 -0.4507  0.2390 -1.9306
  316MOL0     H43577   5.654   8.051   0.540  0.4340  0.8672  1.6938
  316MOL0     H43578   5.470   7.872   0.623 -0.4532 -1.3866 -0.6318
  316MOL0     H43579   5.617   7.765   0.618  1.5798  1.7390  0.4168
  316MOL0     H43580   5.514   7.937   0.391  0.0767 -0.2355  0.5433
  316MOL0     H43581   5.660   7.840   0.383 -0.3961 -0.6179 -1.2670
  316MOL0     H43582   5.377   7.735   0.423 -0.0825 -0.7580  0.2940
  316MOL0     H43583   5.515   7.630   0.421 -0.4075 -0.9179  0.5745
  316MOL0     H43584   5.572   7.668   0.198 -0.3774 -0.1471  1.9896
  316MOL0     H43585   5.450   7.798   0.184  0.3864  0.3554 -0.4293
  316MOL0     H43586   5.346   7.537   0.282  0.8771  1.6631  1.6809
  316MOL0     H43587   5.427   7.521   0.130 -0.0201 -1.0646  1.3379
  316MOL0     H43588   5.725   8.284   0.836 -0.0797  1.3686  0.1834
  316MOL0     H43589   5.872   8.373   0.991  0.0793 -0.5657  0.2584
  316MOL0     H43590   5.938   8.332   1.510 -1.1723  0.2522  1.2593
  316MOL0     H43591   6.111   8.395   1.691  1.6799 -1.8903 -0.8794
  316MOL0     H43592   5.355   9.245   2.493  0.2423  0.6471 -1.1135
  316MOL0     H43593   5.145   9.192   2.438  0.5556  0.6685 -1.2155
  316MOL0     H43594   4.849   8.622   2.305 -0.0810 -0.2364 -0.5705
  316MOL0     H43595   4.647   8.601   2.188  0.1688  0.6839 -0.5047
  316MOL0     H43596   4.416   8.615   2.092  0.1283 -1.8009  1.3208
  316MOL0     H43597   4.398   8.623   2.261 -1.3085 -0.1991  0.2696
  316MOL0     H43598   4.213   8.713   2.034 -2.4597 -0.5192 -0.3976
  316MOL0     H43599   4.190   8.798   2.176 -1.5810 -1.1681  0.5495
  316MOL0     H43600   4.170   8.491   2.130 -2.1296 -1.4036  1.1082
  316MOL0     H43601   4.195   8.553   2.295  0.0678  0.4086  0.5103
  316MOL0     H43602   3.959   8.496   2.204  2.3679 -0.5697  0.7591
  316MOL0     H43603   3.977   8.653   2.113  2.1996 -0.7339 -0.2915
  316MOL0     H43604   3.909   8.743   2.535 -2.7218  0.7513 -1.4894
  316MOL0     H43605   4.572   9.018   2.217  3.3639  3.4676  2.3198
  316MOL0     H43606   4.829   9.146   2.236  0.5370  0.2277 -0.2938
  316MOL0     H43607   4.701   9.152   2.355  2.2362  2.5657 -0.0815
  316MOL0     H43608   4.869   9.113   2.404  3.1084 -1.0558 -2.3853
  317MOL0     O43609   8.537   5.679   4.925 -0.0007 -0.3663  0.1106
  317MOL0     C43610   8.519   5.563   4.961  0.0945  0.4739 -0.0075
  317MOL0     O43611   8.605   5.460   4.952  0.0783  0.4506  0.0224
  317MOL0     C43612   8.738   5.485   4.934  0.4967  0.1431  0.9044
  317MOL0     C43613   8.831   5.409   5.007 -0.0708  0.1494 -1.1933
  317MOL0     C43614   8.972   5.419   4.974 -0.4418  0.2074 -0.4656
  317MOL0     C43615   9.022   5.512   4.889  0.1455  0.2188  0.9605
  317MOL0     O43616   9.160   5.533   4.879  0.3272  0.2214 -0.0383
  317MOL0     C43617   9.202   5.607   4.767 -0.1896 -0.1966  1.0474
  317MOL0     C43618   9.355   5.634   4.784  0.0476 -0.2747 -0.3406
  317MOL0     C43619   9.439   5.507   4.802 -0.0893 -0.6911 -0.7585
  317MOL0     C43620   9.592   5.533   4.816 -0.2778 -0.3975  0.2614
  317MOL0     C43621   9.676   5.397   4.802  0.3739  0.2622 -0.2895
  317MOL0     C43622   9.646   5.298   4.911  0.8233 -0.8549  0.1444
  317MOL0     C43623   9.763   5.204   4.928  0.9218 -0.5193 -0.5067
  317MOL0     C43624   9.732   5.123   5.049 -0.0990 -0.3058 -0.0528
  317MOL0     N43625   9.820   5.003   5.069  0.0467 -0.4885 -0.8387
  317MOL0     C43626   9.961   4.986   5.054  0.0057  0.5303 -0.6835
  317MOL0     C43627   9.992   4.884   5.134  0.5296  0.0317 -0.7933
  317MOL0     C43628  10.135   4.829   5.142 -0.0097 -0.1417 -0.6649
  317MOL0     C43629  10.246   4.940   5.185 -1.2360 -0.5747  0.4451
  317MOL0     C43630  10.380   4.905   5.119 -0.2154 -0.4109  0.3137
  317MOL0     C43631  10.491   5.001   5.137  0.5981  0.2205 -0.2377
  317MOL0     O43632  10.611   4.936   5.089  0.3660  0.6158  0.6334
  317MOL0     C43633  10.736   4.964   5.143  0.3405 -0.5046  0.2659
  317MOL0     C43634  10.831   4.859   5.162 -0.7029 -0.8381  0.1420
  317MOL0     C43635  10.964   4.888   5.198  0.3076 -0.0317  1.1938
  317MOL0     C43636  11.052   4.763   5.187 -0.2933  0.1378 -0.2371
  317MOL0     C43637  10.999   5.024   5.234 -0.2734 -0.3671  0.4050
  317MOL0     C43638  11.127   5.058   5.287  0.1594 -0.3400  0.0061
  317MOL0     O43639  11.141   5.190   5.320  0.1895 -0.3009 -0.0313
  317MOL0     C43640  11.264   5.250   5.350 -0.0456 -0.1269  0.1686
  317MOL0     C43641  11.290   5.320   5.473  0.3578  0.2574  1.3594
  317MOL0     C43642  11.418   5.383   5.483  0.3151  0.0604 -0.8832
  317MOL0     C43643  11.509   5.395   5.379 -0.3185  0.0123  0.2370
  317MOL0     O43644  11.640   5.443   5.393  0.7970  0.0293  0.0125
  317MOL0     C43645  11.702   5.411   5.520 -0.7332  0.1196  0.2860
  317MOL0     C43646  11.843   5.370   5.481  0.0194  0.0544 -0.4156
  317MOL0     C43647  11.941   5.484   5.496  0.7798 -0.1436  0.5076
  317MOL0     C43648  11.943   5.575   5.375 -0.0332 -1.0152 -0.9974
  317MOL0     C43649  12.072   5.659   5.392  0.0457 -0.6473  0.3955
  317MOL0     C43650  12.093   5.749   5.270 -0.0734 -0.6361 -0.4290
  317MOL0     C43651  12.221   5.823   5.278 -0.4681 -0.0639 -0.0955
  317MOL0     C43652  12.234   5.948   5.184  1.3021 -0.1351 -0.8174
  317MOL0    Cl43653  12.377   6.044   5.231  0.0355 -0.3744  0.1246
  317MOL0     C43654  11.474   5.328   5.261  0.2523  0.5224 -0.2563
  317MOL0     C43655  11.354   5.264   5.248  0.1668  0.2754 -0.5679
  317MOL0     O43656  11.207   4.973   5.322 -0.4658  0.3172 -0.1055
  317MOL0     C43657  10.895   5.116   5.225  0.4763 -0.6682  0.1963
  317MOL0     C43658  10.766   5.089   5.180 -0.0992 -0.3243 -0.2482
  317MOL0     N43659   9.874   4.837   5.190 -0.0710 -0.4778 -0.2821
  317MOL0     N43660   9.777   4.906   5.150  0.0437  0.6127 -0.4399
  317MOL0     C43661   8.927   5.584   4.817  0.3997  0.7722  0.8305
  317MOL0     C43662   8.788   5.572   4.832  0.3756 -0.6880  0.4459
  317MOL0     C43663   8.378   5.525   5.013 -0.1798 -0.1004 -0.3070
  317MOL0     C43664   8.339   5.394   5.021 -0.3287  0.1363 -0.4793
  317MOL0     C43665   8.211   5.351   5.071  0.8821 -0.5321 -0.2568
  317MOL0     C43666   8.135   5.444   5.138 -0.0293 -0.1677 -0.0770
  317MOL0     O43667   8.004   5.432   5.169 -0.3419 -0.0682 -0.4220
  317MOL0     C43668   7.944   5.311   5.142  1.1724 -0.3622  0.2261
  317MOL0     C43669   7.804   5.298   5.207  0.1719  0.3760  0.0995
  317MOL0     C43670   7.706   5.382   5.131  0.3032  0.2587 -1.0345
  317MOL0     C43671   7.659   5.518   5.189  0.0969  0.4662 -0.4556
  317MOL0     C43672   7.612   5.509   5.325 -0.5184  0.4650 -0.0767
  317MOL0     C43673   7.591   5.510   5.441 -0.5411 -0.0046 -0.6200
  317MOL0     C43674   8.175   5.579   5.147 -0.5210 -0.3214  0.3149
  317MOL0     C43675   8.293   5.622   5.082  0.6234 -0.1684 -0.4189
  317MOL0     C43676   8.320   5.773   5.096 -0.0507 -0.2055  0.1649
  317MOL0     H43677   8.810   5.350   5.095  1.9168 -0.1685 -0.8900
  317MOL0     H43678   9.041   5.359   5.032  1.7114  0.4696 -2.6308
  317MOL0     H43679   9.161   5.708   4.755  2.2605  1.2023  3.3652
  317MOL0     H43680   9.190   5.546   4.677  2.4891 -1.2368  1.2990
  317MOL0     H43681   9.389   5.691   4.698 -2.5367  1.5477 -0.2915
  317MOL0     H43682   9.360   5.701   4.871  0.5467  2.3949 -2.3174
  317MOL0     H43683   9.402   5.455   4.890 -0.4186 -1.1745 -1.1787
  317MOL0     H43684   9.426   5.441   4.716 -0.4472  0.4163 -1.5852
  317MOL0     H43685   9.625   5.595   4.732  1.1368 -0.0704  1.0198
  317MOL0     H43686   9.609   5.576   4.915  0.5608 -0.8669  0.3315
  317MOL0     H43687   9.781   5.427   4.817  1.0698 -2.7621  1.8093
  317MOL0     H43688   9.658   5.341   4.710 -2.1732 -1.3587  1.0790
  317MOL0     H43689   9.622   5.344   5.007  0.2005  3.9277 -2.0106
  317MOL0     H43690   9.557   5.238   4.888  0.5365  0.1331 -1.4562
  317MOL0     H43691   9.848   5.267   4.953 -1.4699  2.2466  1.3620
  317MOL0     H43692   9.770   5.151   4.832  1.9843  1.2677 -1.4627
  317MOL0     H43693   9.741   5.193   5.133  0.2470 -1.6432  1.0639
  317MOL0     H43694   9.630   5.084   5.038  0.6093 -2.9415  1.7171
  317MOL0     H43695  10.030   5.044   4.993 -0.3648 -1.0538 -2.7322
  317MOL0     H43696  10.148   4.788   5.042 -3.2564  1.8113 -2.0679
  317MOL0     H43697  10.125   4.747   5.213  1.1601  0.6696  0.4861
  317MOL0     H43698  10.219   5.045   5.172 -1.0117 -0.1516  2.9084
  317MOL0     H43699  10.260   4.939   5.294  0.9888  1.2053  0.2380
  317MOL0     H43700  10.415   4.805   5.144  0.8120 -0.2510 -0.4138
  317MOL0     H43701  10.369   4.905   5.010  4.3827  2.1316 -0.4282
  317MOL0     H43702  10.473   5.092   5.078 -1.1367 -0.5510 -0.9672
  317MOL0     H43703  10.499   5.012   5.245  0.4454 -0.8400 -0.1133
  317MOL0     H43704  10.807   4.758   5.133  2.1916 -1.6402  0.2757
  317MOL0     H43705  11.016   4.685   5.120  0.5363  0.2110 -0.7836
  317MOL0     H43706  11.054   4.714   5.285  2.8705  1.5249  0.5403
  317MOL0     H43707  11.156   4.786   5.160 -0.0950 -0.2730  0.1625
  317MOL0     H43708  11.220   5.334   5.555  1.6063  2.6267  2.1354
  317MOL0     H43709  11.432   5.421   5.583 -1.8944 -1.7003  0.1796
  317MOL0     H43710  11.704   5.499   5.584 -1.1937 -0.0659  0.5597
  317MOL0     H43711  11.650   5.335   5.580  3.3078 -2.6476  0.6764
  317MOL0     H43712  11.867   5.301   5.562  1.8865  1.2138  0.0923
  317MOL0     H43713  11.840   5.320   5.383 -2.6436 -1.1941  0.2072
  317MOL0     H43714  12.045   5.454   5.509  0.6160 -0.4948  1.0312
  317MOL0     H43715  11.910   5.545   5.582  2.2825  0.4656  0.6440
  317MOL0     H43716  11.860   5.646   5.387  2.2007  1.4945  0.9086
  317MOL0     H43717  11.946   5.515   5.284 -0.5372  0.7002 -2.1906
  317MOL0     H43718  12.065   5.717   5.485 -0.2397 -2.9152  1.8646
  317MOL0     H43719  12.159   5.593   5.402  1.8568  1.0312 -2.6568
  317MOL0     H43720  12.019   5.828   5.260  1.8067  1.1161 -1.1875
  317MOL0     H43721  12.100   5.691   5.177 -3.4619 -3.1970  0.7170
  317MOL0     H43722  12.304   5.756   5.254  0.8965  1.7296 -0.6623
  317MOL0     H43723  12.246   5.863   5.377  0.6054  1.4387 -0.9284
  317MOL0     H43724  12.147   6.014   5.188  0.4829 -1.2147  1.5236
  317MOL0     H43725  12.255   5.914   5.083 -0.6791 -1.5340 -0.8296
  317MOL0     H43726  11.546   5.325   5.181 -1.2098  0.0424 -1.6013
  317MOL0     H43727  11.312   5.219   5.158  1.5569 -0.1842 -1.0043
  317MOL0     H43728  10.911   5.218   5.259  1.8581 -0.9170  0.3570
  317MOL0     H43729  10.697   5.172   5.166  0.6705  0.9824  2.8382
  317MOL0     H43730   8.949   5.650   4.733 -0.3429  1.4025  1.1229
  317MOL0     H43731   8.711   5.621   4.774 -0.6168  0.7964  2.8554
  317MOL0     H43732   8.404   5.318   4.979  0.4704  0.6620 -0.2078
  317MOL0     H43733   8.184   5.246   5.067  0.1646 -0.3364 -0.9614
  317MOL0     H43734   7.928   5.304   5.034  0.1044  2.6245  0.0880
  317MOL0     H43735   8.013   5.234   5.177  1.0207 -0.5641  0.0810
  317MOL0     H43736   7.813   5.322   5.314 -1.3845  0.4500  0.2382
  317MOL0     H43737   7.769   5.195   5.206 -2.2503  1.1293  0.6252
  317MOL0     H43738   7.740   5.406   5.030 -1.6527 -1.5139 -2.2115
  317MOL0     H43739   7.618   5.319   5.113  0.6484 -0.9888  1.3018
  317MOL0     H43740   7.580   5.569   5.133 -0.8788 -0.1111  0.3524
  317MOL0     H43741   7.751   5.576   5.180  1.0442 -0.7140  1.1000
  317MOL0     H43742   7.573   5.485   5.543 -0.3939  0.6976 -0.4133
  317MOL0     H43743   8.104   5.645   5.196  1.0031  0.2772  1.8484
  317MOL0     H43744   8.422   5.810   5.112  0.8645 -2.5627  0.2155
  317MOL0     H43745   8.282   5.821   5.006 -2.9856  0.1364  1.4475
  317MOL0     H43746   8.254   5.804   5.178  0.2436  3.3504 -0.7923
  318MOL0     O43747   9.720   8.193   5.693  0.7978 -0.3637  0.4702
  318MOL0     C43748   9.625   8.198   5.772 -0.4332 -0.6269  0.8654
  318MOL0     O43749   9.499   8.159   5.753 -0.3750  0.2860  0.3099
  318MOL0     C43750   9.456   8.093   5.642 -1.4373 -0.0137  0.0935
  318MOL0     C43751   9.342   8.136   5.560 -1.0674  1.0395 -0.8058
  318MOL0     C43752   9.321   8.079   5.435 -0.9029 -0.0395  0.1813
  318MOL0     C43753   9.400   7.984   5.388  0.1515  0.9465 -0.8588
  318MOL0     O43754   9.387   7.930   5.263 -0.3320 -0.0012 -0.1119
  318MOL0     C43755   9.382   8.023   5.156 -0.7881 -0.0051  0.4958
  318MOL0     C43756   9.467   7.972   5.034  0.7694  0.5709 -0.4262
  318MOL0     C43757   9.385   7.856   4.964 -0.2051 -0.5646  0.0923
  318MOL0     C43758   9.444   7.828   4.825  0.3181  0.6278  0.6581
  318MOL0     C43759   9.588   7.785   4.832 -0.1024  0.1501  0.7067
  318MOL0     C43760   9.636   7.746   4.695 -0.5501  0.2713  1.1674
  318MOL0     C43761   9.785   7.693   4.692 -0.2642  0.7412  0.9908
  318MOL0     C43762   9.799   7.641   4.550 -0.5394  0.4396 -0.6958
  318MOL0     N43763   9.938   7.617   4.520 -0.5643 -0.9800 -0.1538
  318MOL0     C43764  10.034   7.588   4.607  0.7065  0.4589  1.1454
  318MOL0     C43765  10.151   7.618   4.537 -0.9021 -0.4121  0.7213
  318MOL0     C43766  10.295   7.612   4.584  0.1704  0.3411 -0.3163
  318MOL0     C43767  10.361   7.752   4.583 -0.0208  0.6896 -0.5652
  318MOL0     C43768  10.372   7.810   4.442  0.4008  0.8251  0.0543
  318MOL0     C43769  10.463   7.726   4.350  0.0228 -0.4440 -0.2451
  318MOL0     O43770  10.580   7.705   4.423 -0.4887 -0.4713 -0.1333
  318MOL0     C43771  10.674   7.621   4.358  0.1973  0.0051  0.1096
  318MOL0     C43772  10.659   7.541   4.238 -0.8158  0.4077 -0.1057
  318MOL0     C43773  10.767   7.455   4.189  0.5095 -0.2403  0.2006
  318MOL0     C43774  10.729   7.377   4.066  0.1166 -0.1267  0.0352
  318MOL0     C43775  10.889   7.458   4.246  0.1971  0.0658  0.2220
  318MOL0     C43776  11.012   7.413   4.188  0.2002 -0.3009 -1.2811
  318MOL0     O43777  11.010   7.284   4.147  0.4361  0.2078  0.3038
  318MOL0     C43778  11.112   7.228   4.071 -0.6816  0.0839  0.3540
  318MOL0     C43779  11.076   7.166   3.959 -0.4158  0.7036  0.3465
  318MOL0     C43780  11.175   7.113   3.874 -0.0856  0.4700 -0.3013
  318MOL0     C43781  11.311   7.112   3.915  1.1952  0.3542 -0.4657
  318MOL0     O43782  11.398   7.049   3.828 -0.1983  0.4855 -0.9874
  318MOL0     C43783  11.532   7.024   3.862 -0.1653 -0.8957 -0.5095
  318MOL0     C43784  11.601   6.937   3.756  0.2299 -0.4943  0.0936
  318MOL0     C43785  11.680   6.826   3.817  0.1581  0.9935  0.0501
  318MOL0     C43786  11.734   6.741   3.708  0.7346 -0.6373 -0.2670
  318MOL0     C43787  11.798   6.613   3.767  0.4519 -0.1522 -0.2967
  318MOL0     C43788  11.861   6.507   3.675  0.3075  0.1904  0.6119
  318MOL0     C43789  11.978   6.428   3.730  0.3642  0.7312 -0.5851
  318MOL0     C43790  12.023   6.315   3.638  0.3539 -0.2497 -0.9936
  318MOL0    Cl43791  12.130   6.374   3.511 -0.0158 -0.2390  0.1683
  318MOL0     C43792  11.336   7.173   4.043 -0.1367 -0.9166 -0.0197
  318MOL0     C43793  11.237   7.228   4.124  0.0571  0.0765 -0.5624
  318MOL0     O43794  11.104   7.496   4.169 -0.3209  0.5548  0.7919
  318MOL0     C43795  10.901   7.541   4.356  0.3435 -0.4541  0.5306
  318MOL0     C43796  10.802   7.623   4.410 -0.4471  0.0271 -0.6628
  318MOL0     N43797  10.114   7.645   4.409 -0.7739  0.1446  1.0724
  318MOL0     N43798   9.991   7.649   4.402  0.2327  0.2613  0.5892
  318MOL0     C43799   9.505   7.941   5.469  0.4572  0.1319 -0.4803
  318MOL0     C43800   9.532   7.985   5.599 -0.8442  0.3771  0.6355
  318MOL0     C43801   9.663   8.255   5.905  0.0032 -0.0982 -0.2446
  318MOL0     C43802   9.554   8.309   5.969 -0.3750  0.3139 -0.6275
  318MOL0     C43803   9.578   8.386   6.084  0.4257  0.1471  0.4220
  318MOL0     C43804   9.706   8.408   6.133 -0.5530  0.4384  0.3149
  318MOL0     O43805   9.713   8.485   6.247 -0.1243  0.0547 -0.7452
  318MOL0     C43806   9.841   8.515   6.308  0.4614  0.3407 -0.0969
  318MOL0     C43807   9.815   8.599   6.431  0.6967  0.0356 -0.3606
  318MOL0     C43808   9.935   8.585   6.526  0.3984 -0.3191 -0.1102
  318MOL0     C43809   9.929   8.688   6.641 -0.0249 -0.1794 -0.8179
  318MOL0     C43810  10.058   8.753   6.651 -0.4731 -0.5687 -0.4589
  318MOL0     C43811  10.158   8.821   6.660 -0.0361 -0.6692 -0.7963
  318MOL0     C43812   9.813   8.348   6.073 -0.0968  0.2452 -0.3440
  318MOL0     C43813   9.796   8.271   5.955  0.2948  0.0048  0.0840
  318MOL0     C43814   9.920   8.213   5.880  1.2297  0.3925 -0.4987
  318MOL0     H43815   9.278   8.219   5.585 -1.1846  0.4797  0.8667
  318MOL0     H43816   9.238   8.111   5.373 -1.1320 -2.0116 -0.6329
  318MOL0     H43817   9.426   8.120   5.181  0.7106 -0.2692 -0.9342
  318MOL0     H43818   9.277   8.033   5.128 -0.6334 -2.8030 -1.5464
  318MOL0     H43819   9.481   8.059   4.969 -0.0082  1.2526  0.3018
  318MOL0     H43820   9.564   7.940   5.072  1.0123 -0.6344 -1.9712
  318MOL0     H43821   9.387   7.763   5.021  1.3202 -0.9265 -0.4818
  318MOL0     H43822   9.282   7.891   4.953  0.5003  1.6356 -0.1487
  318MOL0     H43823   9.382   7.745   4.790  3.0109 -1.7160  1.0587
  318MOL0     H43824   9.426   7.914   4.759  0.3898  1.8229  2.1364
  318MOL0     H43825   9.590   7.699   4.900  0.6692  0.2491  0.8169
  318MOL0     H43826   9.649   7.867   4.872  0.7156 -0.5326  0.8974
  318MOL0     H43827   9.563   7.672   4.662 -0.5011  0.7492 -0.0484
  318MOL0     H43828   9.636   7.827   4.622 -1.4368  1.0046  1.9505
  318MOL0     H43829   9.802   7.612   4.763  1.1602  0.9017  0.8582
  318MOL0     H43830   9.852   7.776   4.718  0.0838  0.1051  2.2027
  318MOL0     H43831   9.748   7.544   4.550  1.1557 -0.7092  3.5034
  318MOL0     H43832   9.747   7.713   4.486  0.1948  0.8790 -0.8082
  318MOL0     H43833  10.026   7.558   4.711 -2.7733 -2.6632  0.1901
  318MOL0     H43834  10.355   7.544   4.524 -2.6665 -1.1294 -1.7190
  318MOL0     H43835  10.298   7.583   4.690  1.8694  1.7590  0.0600
  318MOL0     H43836  10.304   7.827   4.638  0.8836  0.1766  1.1502
  318MOL0     H43837  10.462   7.745   4.625 -0.0015  0.6198 -0.6216
  318MOL0     H43838  10.274   7.822   4.395 -0.1829 -1.7477  0.4351
  318MOL0     H43839  10.424   7.905   4.453  2.9203 -0.4616 -0.0113
  318MOL0     H43840  10.422   7.625   4.336  0.4399 -0.2805 -3.4604
  318MOL0     H43841  10.483   7.770   4.252  2.2458  1.8749  1.1237
  318MOL0     H43842  10.565   7.533   4.185 -1.0824 -2.0493  0.6184
  318MOL0     H43843  10.757   7.272   4.065 -3.4114 -1.1978  0.8811
  318MOL0     H43844  10.778   7.428   3.982 -2.2383 -0.4467 -1.6484
  318MOL0     H43845  10.622   7.372   4.042 -0.1634 -0.4527  1.3186
  318MOL0     H43846  10.972   7.165   3.926 -0.3652  0.5091  0.1899
  318MOL0     H43847  11.154   7.055   3.785 -0.9443 -2.3295  1.5754
  318MOL0     H43848  11.598   7.110   3.881 -0.3080 -1.1186  1.0837
  318MOL0     H43849  11.520   6.970   3.955  0.6315  0.9879  0.7565
  318MOL0     H43850  11.521   6.890   3.697  1.5819 -2.7750 -0.0522
  318MOL0     H43851  11.668   6.996   3.693  0.8715 -1.5740 -0.2619
  318MOL0     H43852  11.623   6.763   3.886  2.7278 -0.0860  1.3232
  318MOL0     H43853  11.763   6.874   3.870  1.2118  0.8982 -1.4437
  318MOL0     H43854  11.813   6.791   3.653  0.3938 -0.1173 -0.2839
  318MOL0     H43855  11.653   6.708   3.642  1.2122  2.3637 -2.5433
  318MOL0     H43856  11.881   6.649   3.828 -1.3374  5.0309 -0.4583
  318MOL0     H43857  11.733   6.562   3.839  0.4328 -1.3631 -1.1341
  318MOL0     H43858  11.898   6.561   3.587  0.1315  1.6871  1.4191
  318MOL0     H43859  11.778   6.439   3.653  0.2025  0.5343 -0.0699
  318MOL0     H43860  11.944   6.383   3.824 -0.4846 -1.5050 -1.8804
  318MOL0     H43861  12.061   6.496   3.749 -0.1899  1.6760 -1.4554
  318MOL0     H43862  11.936   6.272   3.587  2.2667 -0.5231 -4.2494
  318MOL0     H43863  12.073   6.241   3.701 -0.5219 -1.0148 -1.1709
  318MOL0     H43864  11.439   7.179   4.075  0.0851  2.1372 -1.0207
  318MOL0     H43865  11.256   7.278   4.219  1.5704  0.8300 -1.2388
  318MOL0     H43866  11.001   7.551   4.396  1.3505 -1.7632 -1.4936
  318MOL0     H43867  10.835   7.698   4.482  1.6087  0.7851 -2.2918
  318MOL0     H43868   9.575   7.877   5.416  2.1219  2.0096 -0.7174
  318MOL0     H43869   9.618   7.942   5.648 -1.4482 -1.6062  0.0629
  318MOL0     H43870   9.452   8.288   5.938 -0.8935 -2.8887  2.6146
  318MOL0     H43871   9.486   8.410   6.135 -0.8450 -1.0893 -1.1770
  318MOL0     H43872   9.894   8.421   6.322 -2.9650 -2.1945 -2.4471
  318MOL0     H43873   9.911   8.566   6.242  2.0284 -1.7888 -0.1856
  318MOL0     H43874   9.714   8.569   6.461  1.1787 -0.9596  0.3254
  318MOL0     H43875   9.805   8.705   6.406 -1.0392 -0.3928 -1.7331
  318MOL0     H43876   9.931   8.483   6.568  0.9866 -0.6794 -0.9051
  318MOL0     H43877  10.028   8.596   6.470  0.8028  0.7160  0.7418
  318MOL0     H43878   9.892   8.654   6.738 -1.8987  3.3997 -0.1021
  318MOL0     H43879   9.866   8.772   6.611  0.9059  1.3028  1.1383
  318MOL0     H43880  10.249   8.872   6.681  0.8744 -3.2485  2.5556
  318MOL0     H43881   9.915   8.362   6.106  0.6955 -0.4169 -2.3906
  318MOL0     H43882  10.015   8.229   5.930  0.4462  2.9214  0.3638
  318MOL0     H43883   9.909   8.106   5.865  0.7512  0.3828 -0.0898
  318MOL0     H43884   9.923   8.257   5.780 -3.6500 -2.0336 -2.0655
  319MOL0     O43885  10.007  10.085  11.087 -0.0586  0.6573 -0.3756
  319MOL0     C43886   9.966  10.040  11.194  0.2025  0.6798 -0.0113
  319MOL0     O43887  10.050  10.019  11.305  0.4969  0.1631 -0.5821
  319MOL0     C43888  10.182  10.032  11.276 -0.4188 -0.8265  0.4505
  319MOL0     C43889  10.244   9.963  11.169 -0.0917  0.8556 -0.2104
  319MOL0     C43890  10.380   9.978  11.146  0.4910  0.2062  0.1750
  319MOL0     C43891  10.463  10.058  11.216 -0.5790  0.2375  0.9766
  319MOL0     O43892  10.600  10.048  11.197 -0.1793  0.0364  0.1612
  319MOL0     C43893  10.657  10.006  11.077 -0.0264  0.1254  0.6839
  319MOL0     C43894  10.803  10.057  11.068  0.0448 -0.3596 -0.6196
  319MOL0     C43895  10.887   9.986  10.963  0.0714  0.0489 -0.5673
  319MOL0     C43896  11.028  10.048  10.973 -0.7785  0.2732 -0.0247
  319MOL0     C43897  11.122   9.999  10.864 -0.3569 -0.2348  0.2086
  319MOL0     C43898  11.268  10.047  10.875 -0.0556 -0.0977 -0.2866
  319MOL0     C43899  11.338  10.002  11.001 -0.3751 -0.4002  0.4550
  319MOL0     C43900  11.484  10.029  10.985  0.2476 -0.3972  0.3282
  319MOL0     N43901  11.568  10.006  11.100  0.9005  0.1445  0.0703
  319MOL0     C43902  11.609   9.885  11.162 -0.8999 -0.0771 -0.0944
  319MOL0     C43903  11.714   9.918  11.239  0.3953 -0.5817 -0.5244
  319MOL0     C43904  11.783   9.829  11.332  0.4650 -0.2047  0.3708
  319MOL0     C43905  11.924   9.779  11.300  0.2963  0.1933  0.2218
  319MOL0     C43906  12.033   9.889  11.327  0.4457  0.5738 -0.4926
  319MOL0     C43907  12.175   9.837  11.292  0.2326 -0.3610  0.2686
  319MOL0     O43908  12.187   9.814  11.151  0.2488 -0.5268 -0.2088
  319MOL0     C43909  12.305   9.766  11.104 -0.4763 -0.6519 -0.1498
  319MOL0     C43910  12.415   9.727  11.175  0.2806 -0.5588 -0.2176
  319MOL0     C43911  12.530   9.682  11.108 -1.0103  0.5723 -0.4090
  319MOL0     C43912  12.654   9.660  11.193 -0.2642  0.3368 -0.1052
  319MOL0     C43913  12.531   9.657  10.969 -0.1079  0.0088  0.5249
  319MOL0     C43914  12.645   9.597  10.888 -0.1339 -0.2648 -0.9400
  319MOL0     O43915  12.761   9.598  10.954 -0.1492 -0.2139  0.1544
  319MOL0     C43916  12.886   9.597  10.895 -0.4439 -0.4311  0.5329
  319MOL0     C43917  12.993   9.623  10.982  0.8908  0.1442 -0.2029
  319MOL0     C43918  13.120   9.622  10.930  0.3621 -0.1202  0.1970
  319MOL0     C43919  13.154   9.603  10.794 -0.0963 -0.7169  0.0964
  319MOL0     O43920  13.273   9.619  10.734  0.1568 -0.4533  0.8835
  319MOL0     C43921  13.378   9.682  10.803  0.3809  0.0368 -0.3270
  319MOL0     C43922  13.491   9.705  10.702 -0.4628  0.5984 -0.6410
  319MOL0     C43923  13.573   9.576  10.692 -1.0059  1.1050  0.0626
  319MOL0     C43924  13.682   9.592  10.592 -0.7559  0.5423  0.6663
  319MOL0     C43925  13.766   9.468  10.592 -0.0341  0.0313  0.2763
  319MOL0     C43926  13.716   9.339  10.528  0.6997 -0.3974  0.0728
  319MOL0     C43927  13.842   9.253  10.513  0.2517  0.0198  0.5017
  319MOL0     C43928  13.820   9.108  10.475 -0.1374 -0.2622 -1.0438
  319MOL0    Cl43929  13.974   9.030  10.435  0.5970  0.2852 -0.5409
  319MOL0     C43930  13.035   9.575  10.711  0.1554  0.6109 -0.2306
  319MOL0     C43931  12.914   9.573  10.759 -0.0656  0.3432  0.1158
  319MOL0     O43932  12.631   9.584  10.768  0.0303  0.7892 -0.5859
  319MOL0     C43933  12.413   9.687  10.896 -0.3256 -0.6459  0.8544
  319MOL0     C43934  12.310   9.748  10.964  0.3906 -0.2024  0.6455
  319MOL0     N43935  11.717  10.051  11.241  0.2731 -0.1826 -0.0528
  319MOL0     N43936  11.624  10.103  11.170 -0.8833 -0.0555 -0.0205
  319MOL0     C43937  10.397  10.139  11.314 -0.3939 -0.5520  0.1706
  319MOL0     C43938  10.258  10.124  11.350  0.1505  0.1327 -0.2990
  319MOL0     C43939   9.823  10.036  11.221  0.5243  0.7611 -0.0950
  319MOL0     C43940   9.778  10.017  11.352 -0.3737 -0.9752  0.4046
  319MOL0     C43941   9.643  10.010  11.388 -0.4757  0.1944  0.1723
  319MOL0     C43942   9.545  10.009  11.292  0.0347  0.3867  0.7451
  319MOL0     O43943   9.424   9.999  11.352  0.6896 -0.3294 -0.3692
  319MOL0     C43944   9.304  10.025  11.281  0.7408  0.7631 -0.2557
  319MOL0     C43945   9.229   9.905  11.220 -0.1277 -0.2959 -0.1148
  319MOL0     C43946   9.206   9.785  11.320 -0.3806  0.0946 -0.9950
  319MOL0     C43947   9.061   9.776  11.368  0.6114  0.3845  0.0244
  319MOL0     C43948   9.044   9.852  11.490 -0.9448 -0.2516  0.0830
  319MOL0     C43949   9.032   9.916  11.589  1.0353 -0.6343  0.4833
  319MOL0     C43950   9.584  10.023  11.163  0.5916 -0.4521  0.4667
  319MOL0     C43951   9.726  10.038  11.117 -0.0946  0.1931 -0.2273
  319MOL0     C43952   9.744  10.080  10.972 -0.0057 -0.0720 -0.0610
  319MOL0     H43953  10.195   9.886  11.111 -0.5970  1.2689 -0.3325
  319MOL0     H43954  10.420   9.929  11.057 -1.5051 -1.3323  0.0425
  319MOL0     H43955  10.599  10.032  10.988 -1.1237 -3.8761  0.0521
  319MOL0     H43956  10.660   9.897  11.081 -0.8411  0.1447  2.4338
  319MOL0     H43957  10.795  10.165  11.052  1.0336 -0.4118 -1.5417
  319MOL0     H43958  10.858  10.039  11.160  0.0743  1.4625 -0.2353
  319MOL0     H43959  10.885   9.878  10.980 -0.0843 -0.0130 -0.9705
  319MOL0     H43960  10.846  10.002  10.863 -4.0165 -1.2664  0.6927
  319MOL0     H43961  11.021  10.155  10.952  0.3955  0.3674 -0.0009
  319MOL0     H43962  11.074  10.042  11.072 -0.8195  0.6984  0.0205
  319MOL0     H43963  11.084  10.036  10.769  2.9989 -0.4240 -1.3803
  319MOL0     H43964  11.132   9.890  10.857 -0.4613 -0.1465 -2.8663
  319MOL0     H43965  11.321   9.999  10.792 -0.1179 -1.1568  0.2701
  319MOL0     H43966  11.266  10.157  10.872 -1.7149  0.0205  2.0482
  319MOL0     H43967  11.327   9.894  11.015 -3.4404  0.0473  2.4178
  319MOL0     H43968  11.301  10.052  11.091 -0.4570  1.6257 -0.6555
  319MOL0     H43969  11.516   9.970  10.898 -1.4383 -1.2894  0.2678
  319MOL0     H43970  11.504  10.131  10.949  5.5765 -1.3791 -0.4321
  319MOL0     H43971  11.580   9.781  11.149 -0.0209 -0.4263  0.6588
  319MOL0     H43972  11.725   9.737  11.339 -0.5789  0.5532  3.0429
  319MOL0     H43973  11.772   9.874  11.431  0.3462 -1.8781  1.1364
  319MOL0     H43974  11.924   9.696  11.372  1.1102  0.4873  0.5837
  319MOL0     H43975  11.939   9.738  11.200  1.8634 -1.6684  1.1429
  319MOL0     H43976  12.004   9.988  11.291  2.3818  1.1607 -0.5463
  319MOL0     H43977  12.049   9.907  11.433 -1.8081 -0.3745  0.0706
  319MOL0     H43978  12.251   9.910  11.317 -0.5030  0.8766 -0.9810
  319MOL0     H43979  12.193   9.744  11.348 -0.0153 -0.6056 -0.0488
  319MOL0     H43980  12.410   9.729  11.283 -1.6540  1.1318 -0.2908
  319MOL0     H43981  12.736   9.730  11.174 -0.1677  0.1001 -0.5991
  319MOL0     H43982  12.685   9.557  11.172 -1.5207 -0.1466  0.3534
  319MOL0     H43983  12.625   9.665  11.298  0.1163 -2.5547  0.2312
  319MOL0     H43984  12.963   9.628  11.086  0.5470  1.7477 -0.3686
  319MOL0     H43985  13.209   9.649  10.988  1.1640 -0.9730 -0.6033
  319MOL0     H43986  13.342   9.775  10.847 -1.5076 -1.0772  0.5800
  319MOL0     H43987  13.420   9.628  10.889  0.6215  2.4552  1.1905
  319MOL0     H43988  13.453   9.735  10.604 -1.5981 -0.5034 -0.5668
  319MOL0     H43989  13.554   9.787  10.739  1.6564 -0.8609 -0.8587
  319MOL0     H43990  13.505   9.494  10.667 -1.4313  1.1907  0.9350
  319MOL0     H43991  13.628   9.555  10.784 -0.5780 -0.3693 -0.4947
  319MOL0     H43992  13.741   9.681  10.615  0.6019  0.7529 -3.0936
  319MOL0     H43993  13.634   9.610  10.496 -1.9898 -2.1998  0.6884
  319MOL0     H43994  13.861   9.487  10.540 -0.7476 -1.8088 -1.8513
  319MOL0     H43995  13.792   9.432  10.692 -0.3396 -3.1646 -0.6793
  319MOL0     H43996  13.660   9.355  10.436  4.9391  0.3172 -2.6567
  319MOL0     H43997  13.648   9.293  10.601  0.8785 -2.4084 -0.9709
  319MOL0     H43998  13.910   9.256  10.599  0.7675  2.5070  0.0774
  319MOL0     H43999  13.890   9.288  10.422  0.5802 -1.9059 -0.1182
  319MOL0     H44000  13.748   9.103  10.393 -1.1919  2.2270 -0.3511
  319MOL0     H44001  13.775   9.065  10.565  1.6851  1.7762  0.9580
  319MOL0     H44002  13.044   9.561  10.604  3.7117 -0.3651  0.0572
  319MOL0     H44003  12.838   9.551  10.685 -0.6234 -2.6657  1.4344
  319MOL0     H44004  12.410   9.668  10.790  0.6803 -1.7921  1.0115
  319MOL0     H44005  12.229   9.801  10.915  0.6361 -0.5880 -0.2008
  319MOL0     H44006  10.457  10.206  11.376 -0.6473 -1.3748  1.3405
  319MOL0     H44007  10.211  10.194  11.418 -3.2774  0.2983 -2.6102
  319MOL0     H44008   9.854  10.014  11.428 -0.4221  0.9087  0.5750
  319MOL0     H44009   9.605  10.014  11.490 -4.6681  1.6554 -1.2333
  319MOL0     H44010   9.233  10.064  11.355  2.0307  2.1379  0.3099
  319MOL0     H44011   9.323  10.098  11.202 -0.6639  1.8323  0.3355
  319MOL0     H44012   9.286   9.861  11.137 -0.8226  1.5113 -1.6237
  319MOL0     H44013   9.140   9.945  11.172  0.6634 -0.4879 -1.8351
  319MOL0     H44014   9.229   9.688  11.275  3.6376  0.8906 -1.0335
  319MOL0     H44015   9.276   9.801  11.403 -2.7912 -0.3952  1.2513
  319MOL0     H44016   9.045   9.675  11.408 -3.8916  1.4396  1.4802
  319MOL0     H44017   8.988   9.805  11.291 -2.5296 -1.4567  2.0462
  319MOL0     H44018   9.016   9.985  11.669 -0.4866 -1.9106  1.3366
  319MOL0     H44019   9.509  10.040  11.087  0.6819  1.1776  0.7063
  319MOL0     H44020   9.658  10.066  10.906 -1.2476  2.1545  0.9780
  319MOL0     H44021   9.762  10.185  10.994 -1.4708  0.1087  0.3672
  319MOL0     H44022   9.829  10.030  10.924 -1.8401 -1.0600 -2.5559
  320MOL0     O44023  10.816   0.360   3.757 -0.1875  0.5421 -0.0411
  320MOL0     C44024  10.740   0.302   3.837  0.6959 -0.7587  1.4451
  320MOL0     O44025  10.761   0.197   3.913  0.0770 -0.2064 -0.0239
  320MOL0     C44026  10.863   0.112   3.881  0.3293  0.2546  0.5527
  320MOL0     C44027  10.858   0.031   3.772  0.6704 -0.3848  0.2552
  320MOL0     C44028  10.960  -0.057   3.729  0.0151  0.4188  0.0379
  320MOL0     C44029  11.081  -0.052   3.808 -0.4928 -0.5684 -0.2257
  320MOL0     O44030  11.181  -0.133   3.763 -0.4385  0.6833 -0.3497
  320MOL0     C44031  11.304  -0.119   3.829 -1.2062 -0.1331  0.2200
  320MOL0     C44032  11.406  -0.206   3.754 -0.7599 -0.4118  0.0108
  320MOL0     C44033  11.551  -0.177   3.803  0.5634  0.8149 -0.3973
  320MOL0     C44034  11.661  -0.192   3.693  0.2584 -0.4402  0.6821
  320MOL0     C44035  11.788  -0.116   3.727  0.1498  0.3016 -0.1980
  320MOL0     C44036  11.894  -0.126   3.623 -0.2521  0.7389 -0.0267
  320MOL0     C44037  12.028  -0.063   3.653 -0.3957 -0.3076 -1.0898
  320MOL0     C44038  12.146  -0.100   3.556 -0.1225 -0.1352 -0.3262
  320MOL0     N44039  12.180  -0.240   3.542  0.5844 -0.2839 -0.0700
  320MOL0     C44040  12.288  -0.306   3.596  0.4890 -0.4082  0.0052
  320MOL0     C44041  12.302  -0.420   3.525 -0.8926 -0.1461 -0.0652
  320MOL0     C44042  12.391  -0.538   3.555 -0.4537 -0.3428  0.2328
  320MOL0     C44043  12.537  -0.490   3.541 -0.3080  0.2131  0.5085
  320MOL0     C44044  12.630  -0.607   3.561 -0.3412  0.3305 -0.4835
  320MOL0     C44045  12.776  -0.576   3.541  1.0063 -0.8426 -0.1783
  320MOL0     O44046  12.852  -0.688   3.575  0.5064 -0.0982  0.2225
  320MOL0     C44047  12.989  -0.681   3.604 -0.2155  0.1632 -0.7726
  320MOL0     C44048  13.057  -0.788   3.672 -0.9064  0.8995  0.7378
  320MOL0     C44049  13.194  -0.784   3.695 -0.1514 -0.1409 -0.3143
  320MOL0     C44050  13.269  -0.912   3.743 -0.1233  0.1223 -0.3567
  320MOL0     C44051  13.271  -0.674   3.668 -0.4889 -1.1367  0.1922
  320MOL0     C44052  13.414  -0.653   3.704 -0.6640 -0.5981  0.5605
  320MOL0     O44053  13.472  -0.728   3.794 -0.3417 -0.1295 -0.7841
  320MOL0     C44054  13.604  -0.719   3.809  0.7972 -0.2416 -0.0415
  320MOL0     C44055  13.686  -0.833   3.800  0.2363 -0.2340  0.0258
  320MOL0     C44056  13.821  -0.832   3.815 -0.2834 -1.0127  0.3036
  320MOL0     C44057  13.893  -0.712   3.837 -0.3338  0.1084 -0.0671
  320MOL0     O44058  14.027  -0.703   3.851 -0.3274  0.1120  0.2764
  320MOL0     C44059  14.095  -0.816   3.797 -0.3621  0.4780  0.9530
  320MOL0     C44060  14.233  -0.767   3.755 -1.1913  0.5780  0.2965
  320MOL0     C44061  14.329  -0.733   3.869  0.5178 -0.0973  0.2032
  320MOL0     C44062  14.467  -0.698   3.807  0.0538 -0.2580 -0.1881
  320MOL0     C44063  14.570  -0.670   3.921 -0.0220  0.1235  0.5465
  320MOL0     C44064  14.714  -0.677   3.863  0.5166 -0.0197 -0.4405
  320MOL0     C44065  14.811  -0.633   3.973 -0.2204 -0.9566  0.2350
  320MOL0     C44066  14.955  -0.610   3.924 -0.4693 -0.2160 -0.0589
  320MOL0    Cl44067  14.951  -0.489   3.784  0.2944 -0.4552  0.0582
  320MOL0     C44068  13.810  -0.601   3.849 -0.4674  0.1046 -0.5608
  320MOL0     C44069  13.668  -0.596   3.835 -0.0728  0.2992 -0.5169
  320MOL0     O44070  13.468  -0.557   3.646 -0.3393 -0.8548  0.3406
  320MOL0     C44071  13.200  -0.564   3.598  0.0350  0.0854 -0.2206
  320MOL0     C44072  13.065  -0.566   3.574  0.2587  0.0341 -0.8468
  320MOL0     N44073  12.194  -0.428   3.439 -0.1805  0.8668 -0.0928
  320MOL0     N44074  12.129  -0.318   3.445  0.0178  0.2244  0.1434
  320MOL0     C44075  11.085   0.031   3.930  0.3416  0.9275  0.9471
  320MOL0     C44076  10.979   0.121   3.955 -0.8120 -0.5664  0.1332
  320MOL0     C44077  10.607   0.368   3.858 -0.0611 -0.0314  0.2309
  320MOL0     C44078  10.546   0.357   3.984 -0.5439  0.3538  0.4298
  320MOL0     C44079  10.422   0.410   4.002  0.3153  0.1223 -0.1875
  320MOL0     C44080  10.346   0.474   3.905 -0.2943  0.1068  0.2828
  320MOL0     O44081  10.226   0.529   3.936  0.0124  0.4336 -0.8024
  320MOL0     C44082  10.157   0.601   3.841  0.7060  0.5912  0.5518
  320MOL0     C44083  10.043   0.673   3.895  0.0078 -0.7198  0.2236
  320MOL0     C44084   9.956   0.596   3.996  0.5096 -0.4523  0.8124
  320MOL0     C44085   9.899   0.467   3.940 -0.7545 -0.2978  0.2480
  320MOL0     C44086   9.809   0.494   3.832  0.8980 -0.4904 -0.1917
  320MOL0     C44087   9.730   0.533   3.759  0.2798  0.4029  0.2421
  320MOL0     C44088  10.411   0.477   3.780 -0.7226 -0.7674 -0.2592
  320MOL0     C44089  10.539   0.428   3.753 -0.2663  0.1054  0.0790
  320MOL0     C44090  10.597   0.460   3.616  0.5671  0.5593 -0.4539
  320MOL0     H44091  10.779   0.044   3.699  0.5566  1.2197  0.6369
  320MOL0     H44092  10.956  -0.125   3.646 -3.9692  2.2994 -1.5792
  320MOL0     H44093  11.306  -0.156   3.932  2.9220  1.4991  0.9285
  320MOL0     H44094  11.338  -0.015   3.839  0.7703 -0.7579  0.4853
  320MOL0     H44095  11.377  -0.311   3.765  3.1895 -1.8865 -1.6282
  320MOL0     H44096  11.406  -0.177   3.649  0.0548  1.5360  0.4995
  320MOL0     H44097  11.559  -0.071   3.830 -0.7328  1.2188 -1.4611
  320MOL0     H44098  11.567  -0.225   3.900 -2.8690  0.3717  0.0851
  320MOL0     H44099  11.693  -0.295   3.676 -1.3360 -0.5471 -2.4544
  320MOL0     H44100  11.620  -0.159   3.597 -1.4265 -1.5597  0.9578
  320MOL0     H44101  11.831  -0.147   3.823 -0.4646 -0.4956 -0.1630
  320MOL0     H44102  11.765  -0.010   3.737  5.3834  1.8968 -1.9169
  320MOL0     H44103  11.908  -0.232   3.599  1.6853  1.1337 -0.8475
  320MOL0     H44104  11.858  -0.078   3.532  0.4459 -0.2430 -0.8373
  320MOL0     H44105  12.058  -0.097   3.753  0.7281 -0.4036 -1.4455
  320MOL0     H44106  12.024   0.046   3.655 -0.3176 -0.2951 -1.6521
  320MOL0     H44107  12.118  -0.061   3.457 -1.2561 -2.5473 -1.0364
  320MOL0     H44108  12.236  -0.047   3.588 -1.9897  2.6306  0.8008
  320MOL0     H44109  12.348  -0.289   3.685 -0.9786  0.8608  0.7922
  320MOL0     H44110  12.371  -0.623   3.490 -3.0960 -0.3219  0.9082
  320MOL0     H44111  12.365  -0.557   3.660 -1.2003  0.1974  0.1536
  320MOL0     H44112  12.558  -0.461   3.438 -2.1742 -2.8591 -0.8629
  320MOL0     H44113  12.559  -0.409   3.611 -2.3607 -1.0641  2.7949
  320MOL0     H44114  12.619  -0.642   3.664 -0.2263 -1.2834 -0.9766
  320MOL0     H44115  12.611  -0.694   3.497  5.1350  1.0611 -3.7344
  320MOL0     H44116  12.793  -0.552   3.436  1.2953  0.8648  0.2322
  320MOL0     H44117  12.788  -0.487   3.602 -1.4237 -0.6034  0.0269
  320MOL0     H44118  12.994  -0.871   3.702 -1.6194  1.2780  0.3051
  320MOL0     H44119  13.291  -0.903   3.850  2.4397 -0.1028 -0.8199
  320MOL0     H44120  13.362  -0.912   3.687  1.4027 -0.8502  2.0180
  320MOL0     H44121  13.210  -1.004   3.729  0.9432 -0.6373 -0.0449
  320MOL0     H44122  13.623  -0.921   3.788  2.0697 -1.5584 -0.2433
  320MOL0     H44123  13.859  -0.934   3.814 -1.3681 -1.4336 -0.6665
  320MOL0     H44124  14.090  -0.906   3.859 -1.5912  0.4365  0.8304
  320MOL0     H44125  14.046  -0.853   3.706  0.2241 -0.8197  1.1424
  320MOL0     H44126  14.277  -0.847   3.695 -1.4067 -0.0345  0.9445
  320MOL0     H44127  14.227  -0.674   3.698 -3.0676  1.3451  1.6359
  320MOL0     H44128  14.341  -0.827   3.923  2.4578  0.7677  1.3623
  320MOL0     H44129  14.282  -0.659   3.935 -2.6678  1.0736 -2.9989
  320MOL0     H44130  14.466  -0.616   3.736  1.2270  1.1585  1.3496
  320MOL0     H44131  14.514  -0.777   3.748 -0.2284  0.2049 -1.0386
  320MOL0     H44132  14.556  -0.565   3.952  1.4362  0.9022 -1.2316
  320MOL0     H44133  14.558  -0.730   4.011 -1.5429  1.5167  1.3339
  320MOL0     H44134  14.697  -0.610   3.779 -2.7551 -1.3585 -0.9924
  320MOL0     H44135  14.738  -0.780   3.834  0.1368 -0.5833  1.1050
  320MOL0     H44136  14.805  -0.702   4.058  3.6751 -0.7509  0.8699
  320MOL0     H44137  14.777  -0.536   4.008 -0.8440 -1.0490 -0.0987
  320MOL0     H44138  15.002  -0.703   3.892 -1.5113 -0.1914 -1.7939
  320MOL0     H44139  15.018  -0.576   4.007 -1.8144 -2.2718  1.9276
  320MOL0     H44140  13.843  -0.502   3.881 -0.1226  0.6537 -2.4701
  320MOL0     H44141  13.603  -0.511   3.851 -0.4119  0.0632 -0.6477
  320MOL0     H44142  13.247  -0.467   3.581  1.6879 -1.0079 -2.3945
  320MOL0     H44143  13.017  -0.490   3.513 -0.7983  0.6568  0.6900
  320MOL0     H44144  11.170   0.028   3.997  0.5990  1.2750  0.6402
  320MOL0     H44145  10.980   0.193   4.036  0.9373 -0.8436  0.4108
  320MOL0     H44146  10.602   0.319   4.068  2.2061 -1.2918 -1.9661
  320MOL0     H44147  10.375   0.405   4.100 -0.4172 -0.3779 -0.5579
  320MOL0     H44148  10.223   0.675   3.794 -0.5871  0.4243 -1.6639
  320MOL0     H44149  10.117   0.538   3.762 -1.0880 -0.3796  2.1425
  320MOL0     H44150   9.976   0.705   3.814 -1.0628 -0.7293  1.0784
  320MOL0     H44151  10.065   0.768   3.945 -0.9232  0.3187 -1.2290
  320MOL0     H44152  10.009   0.570   4.088 -0.3105  0.9182  1.7034
  320MOL0     H44153   9.875   0.667   4.015  0.6076 -0.4625  1.2898
  320MOL0     H44154   9.828   0.412   4.003 -1.8270  2.0244  1.1757
  320MOL0     H44155   9.984   0.404   3.914 -0.1133  0.3542  0.7366
  320MOL0     H44156   9.656   0.568   3.690  1.1264  0.8719 -0.4607
  320MOL0     H44157  10.368   0.517   3.689  2.3154  0.6810 -1.1906
  320MOL0     H44158  10.692   0.515   3.620  0.9540 -0.1500  2.2393
  320MOL0     H44159  10.618   0.362   3.573  2.9213  0.6187  0.4329
  320MOL0     H44160  10.528   0.503   3.544 -0.4429 -1.3089 -0.6756
  321MOL0     O44161   7.998   7.324   9.476  0.0484  0.1280 -0.3788
  321MOL0     C44162   7.900   7.392   9.483 -0.5264 -0.0644  0.2310
  321MOL0     O44163   7.907   7.528   9.461  0.0447 -0.0043  0.0448
  321MOL0     C44164   8.029   7.599   9.445  0.3183  0.0071  0.0436
  321MOL0     C44165   8.150   7.564   9.492  0.0218  0.2535 -0.3787
  321MOL0     C44166   8.268   7.629   9.461  0.4416 -0.3544  0.0107
  321MOL0     C44167   8.267   7.747   9.384 -0.5585  0.8551  0.5133
  321MOL0     O44168   8.385   7.821   9.355  0.2168  0.1575 -0.1175
  321MOL0     C44169   8.507   7.742   9.363 -0.5078 -0.0561 -0.1323
  321MOL0     C44170   8.620   7.829   9.313  0.4434  0.2823 -0.5213
  321MOL0     C44171   8.647   7.956   9.408  0.0385 -0.0549 -0.0752
  321MOL0     C44172   8.791   8.000   9.371 -0.1671 -0.3288  0.4196
  321MOL0     C44173   8.836   8.126   9.461  0.3638 -0.0718 -0.3967
  321MOL0     C44174   8.941   8.201   9.377  0.5162  0.2081 -1.2923
  321MOL0     C44175   8.996   8.324   9.464 -1.1088 -0.0031  0.3751
  321MOL0     C44176   9.106   8.402   9.392 -0.5379  0.7582 -0.2839
  321MOL0     N44177   9.153   8.528   9.447 -0.0149  0.7016  0.0722
  321MOL0     C44178   9.083   8.644   9.481  0.2382  0.0332 -0.4167
  321MOL0     C44179   9.165   8.729   9.552  1.2089 -0.0420 -0.0422
  321MOL0     C44180   9.123   8.859   9.615 -0.0135  0.3655 -0.4337
  321MOL0     C44181   9.123   8.829   9.769 -0.3094  0.2734  0.2912
  321MOL0     C44182   9.110   8.949   9.852 -0.6163 -0.5445 -0.5026
  321MOL0     C44183   9.246   9.018   9.859 -0.3192 -0.1646  0.9873
  321MOL0     O44184   9.326   8.950   9.946  0.2341 -0.9415 -0.2460
  321MOL0     C44185   9.450   8.915   9.908 -0.0284  0.5192 -0.8613
  321MOL0     C44186   9.498   8.904   9.772  0.0286  0.6249 -0.2373
  321MOL0     C44187   9.622   8.854   9.736  0.2646 -0.2679  0.2591
  321MOL0     C44188   9.657   8.834   9.591 -0.1563 -0.6048  0.1297
  321MOL0     C44189   9.716   8.824   9.842  0.0984 -0.1352 -0.4399
  321MOL0     C44190   9.843   8.748   9.827 -0.0622  0.1824 -0.8747
  321MOL0     O44191   9.935   8.774   9.930  0.1408 -0.6301 -0.0038
  321MOL0     C44192  10.066   8.739   9.909 -0.0370 -0.7331  0.0311
  321MOL0     C44193  10.129   8.772   9.793 -0.0307 -0.3848  0.4776
  321MOL0     C44194  10.262   8.736   9.778 -0.4363 -0.1282  0.2383
  321MOL0     C44195  10.335   8.682   9.889 -0.0019 -0.2014  0.5553
  321MOL0     O44196  10.454   8.620   9.860  0.8709 -0.0470 -0.1913
  321MOL0     C44197  10.560   8.654   9.953 -0.6933 -0.2243 -0.1501
  321MOL0     C44198  10.692   8.610   9.893  0.8274 -0.2856  1.0632
  321MOL0     C44199  10.712   8.685   9.759  0.7433 -0.4629 -0.1671
  321MOL0     C44200  10.783   8.605   9.652  0.6988  0.3055 -0.1829
  321MOL0     C44201  10.925   8.583   9.701 -0.3509  0.3011  0.2419
  321MOL0     C44202  11.014   8.512   9.589  0.5746  0.2399  0.1478
  321MOL0     C44203  11.159   8.515   9.641  0.5427  0.2380 -0.1889
  321MOL0     C44204  11.188   8.426   9.764  0.5211  0.0435  0.6191
  321MOL0    Cl44205  11.140   8.255   9.734 -0.1014 -0.2120  0.2095
  321MOL0     C44206  10.269   8.645  10.014 -0.2447  0.2417  0.5817
  321MOL0     C44207  10.136   8.682  10.016 -0.2784 -0.0827 -0.8293
  321MOL0     O44208   9.854   8.672   9.733  0.3364 -0.1971 -0.2802
  321MOL0     C44209   9.668   8.853   9.972 -0.1996  0.1511 -0.6847
  321MOL0     C44210   9.544   8.890  10.011  0.2658 -1.1693  0.4536
  321MOL0     N44211   9.286   8.660   9.560 -0.2648  0.4824  0.1225
  321MOL0     N44212   9.279   8.545   9.492  0.6117 -0.1824  0.7634
  321MOL0     C44213   8.143   7.788   9.333  0.6030 -0.2242  0.7923
  321MOL0     C44214   8.020   7.720   9.370  0.5226  0.2274 -0.2644
  321MOL0     C44215   7.760   7.340   9.501  0.4866 -0.4085  0.2359
  321MOL0     C44216   7.670   7.438   9.540 -1.2041  0.4074  0.1562
  321MOL0     C44217   7.539   7.405   9.566 -0.0751  0.1722 -0.5377
  321MOL0     C44218   7.504   7.268   9.551  0.0313  0.4451  0.1828
  321MOL0     O44219   7.369   7.227   9.557 -0.2248 -0.2705 -0.0830
  321MOL0     C44220   7.283   7.328   9.502  0.3544  0.3080  0.1115
  321MOL0     C44221   7.158   7.261   9.443 -0.6461  0.2144  0.6502
  321MOL0     C44222   7.045   7.247   9.544  0.8412 -0.3245 -1.4361
  321MOL0     C44223   7.083   7.137   9.644  0.1899 -0.3982 -0.0609
  321MOL0     C44224   6.973   7.131   9.742  0.3711  0.5413 -0.9238
  321MOL0     C44225   6.883   7.134   9.824  0.0713 -0.0764  0.6886
  321MOL0     C44226   7.593   7.169   9.511  0.5411 -0.2610 -0.3302
  321MOL0     C44227   7.725   7.194   9.512 -1.1854 -0.7632  0.6017
  321MOL0     C44228   7.828   7.081   9.481  0.7638 -0.6269  0.1124
  321MOL0     H44229   8.147   7.478   9.558 -2.9981  0.6043  0.0961
  321MOL0     H44230   8.357   7.590   9.510  1.8972  3.1295  0.4361
  321MOL0     H44231   8.504   7.658   9.293  0.6058 -0.7340  0.5956
  321MOL0     H44232   8.529   7.702   9.463  0.0527 -1.6648 -0.8704
  321MOL0     H44233   8.707   7.767   9.335  1.3663  1.4092 -0.8555
  321MOL0     H44234   8.613   7.831   9.204  0.4158 -3.1438 -0.6834
  321MOL0     H44235   8.574   8.038   9.407  0.3549  0.3294  2.1824
  321MOL0     H44236   8.637   7.936   9.515 -1.6818  0.3815 -0.1137
  321MOL0     H44237   8.858   7.917   9.396  1.5327  0.3099 -1.7169
  321MOL0     H44238   8.810   8.022   9.266  2.9059  0.1248  0.9695
  321MOL0     H44239   8.869   8.112   9.565  3.0268  1.3143 -0.9770
  321MOL0     H44240   8.747   8.188   9.475  0.7996  0.7315 -1.1082
  321MOL0     H44241   9.024   8.134   9.352 -1.1924 -1.1760 -3.7873
  321MOL0     H44242   8.897   8.243   9.286  0.7323 -1.0886 -2.0178
  321MOL0     H44243   9.037   8.283   9.557 -0.5330 -2.6276 -0.9307
  321MOL0     H44244   8.917   8.399   9.473 -2.2216 -1.0882 -0.0757
  321MOL0     H44245   9.195   8.340   9.385  0.7951  2.3996  1.2251
  321MOL0     H44246   9.061   8.420   9.293 -2.2381 -0.5989  0.1890
  321MOL0     H44247   8.978   8.658   9.457  0.1006  0.0865  0.2170
  321MOL0     H44248   9.024   8.889   9.582 -1.0799 -1.0645  1.2673
  321MOL0     H44249   9.192   8.933   9.573 -0.3857  0.8454 -0.2023
  321MOL0     H44250   9.044   8.758   9.795 -1.2068  0.3954 -1.9221
  321MOL0     H44251   9.213   8.775   9.799 -0.5335 -1.2196 -1.5480
  321MOL0     H44252   9.038   9.020   9.811 -1.5418 -1.5176 -0.6210
  321MOL0     H44253   9.088   8.911   9.953  2.4819 -1.2306 -0.0018
  321MOL0     H44254   9.258   9.043   9.754 -2.2983 -1.8768  0.2873
  321MOL0     H44255   9.238   9.109   9.920  0.6009 -0.4710  1.5868
  321MOL0     H44256   9.433   8.928   9.688  3.2780 -1.1763 -3.5808
  321MOL0     H44257   9.755   8.877   9.567 -0.6465  0.8827  0.6242
  321MOL0     H44258   9.585   8.890   9.530  0.7423  1.1299  0.5932
  321MOL0     H44259   9.661   8.727   9.570 -1.6567 -0.4325 -1.1935
  321MOL0     H44260  10.078   8.831   9.717 -2.0880 -0.5441  1.6718
  321MOL0     H44261  10.312   8.754   9.683 -3.5938 -0.4448 -1.6294
  321MOL0     H44262  10.564   8.762   9.970 -2.4927 -0.3586  1.3016
  321MOL0     H44263  10.555   8.601  10.048  3.0290  1.8000  1.4072
  321MOL0     H44264  10.772   8.639   9.961 -0.7534  1.5556  2.2313
  321MOL0     H44265  10.688   8.502   9.875  0.4490  0.0197 -0.9125
  321MOL0     H44266  10.759   8.781   9.783 -0.4826 -0.0202  0.5582
  321MOL0     H44267  10.613   8.718   9.727  0.0428  0.1982  2.4436
  321MOL0     H44268  10.777   8.653   9.554 -1.3562 -0.6455 -0.5867
  321MOL0     H44269  10.732   8.509   9.636  1.2167 -0.5719  2.7345
  321MOL0     H44270  10.970   8.681   9.718 -0.5095  0.3724  0.2500
  321MOL0     H44271  10.923   8.522   9.791  0.5404 -0.6691 -0.3601
  321MOL0     H44272  11.008   8.572   9.498 -2.5149 -1.4121 -0.8687
  321MOL0     H44273  10.976   8.412   9.565  1.8738  0.1804 -1.9065
  321MOL0     H44274  11.182   8.620   9.660 -2.5553  1.2743 -1.3874
  321MOL0     H44275  11.225   8.483   9.559  4.0200  2.3547  1.5618
  321MOL0     H44276  11.123   8.450   9.849  1.1246 -2.2717  1.8474
  321MOL0     H44277  11.294   8.448   9.782  0.3386  3.1975 -1.4279
  321MOL0     H44278  10.318   8.585  10.089 -0.7281 -2.4857 -1.1507
  321MOL0     H44279  10.073   8.667  10.104 -0.0102  2.7053 -0.0676
  321MOL0     H44280   9.735   8.836  10.056 -2.2237 -1.6750  0.6758
  321MOL0     H44281   9.517   8.891  10.116 -3.1072 -0.8134 -0.2909
  321MOL0     H44282   8.151   7.873   9.267 -2.9378  0.0857  0.6035
  321MOL0     H44283   7.923   7.758   9.338  1.1112  2.2542  0.2093
  321MOL0     H44284   7.687   7.545   9.539 -2.7406  0.7135  1.4629
  321MOL0     H44285   7.470   7.487   9.584  2.0298  2.2413 -1.3657
  321MOL0     H44286   7.256   7.403   9.576  1.4392  1.9450 -1.0881
  321MOL0     H44287   7.330   7.374   9.414  1.0659  1.8352  1.2641
  321MOL0     H44288   7.180   7.163   9.399 -0.3867  1.1147 -1.3207
  321MOL0     H44289   7.126   7.318   9.356  1.1491  0.7121  0.2812
  321MOL0     H44290   7.033   7.341   9.600  0.9928 -2.4865  2.6566
  321MOL0     H44291   6.950   7.211   9.504 -0.4368  1.0092  0.2265
  321MOL0     H44292   7.172   7.157   9.703 -1.9232  3.3068  2.2247
  321MOL0     H44293   7.103   7.043   9.591 -1.5507 -0.5705 -0.4567
  321MOL0     H44294   6.802   7.126   9.894 -1.0665  0.0739 -0.5704
  321MOL0     H44295   7.561   7.068   9.487 -0.7594  0.1477 -0.3862
  321MOL0     H44296   7.852   7.088   9.374 -2.5984 -0.6206 -0.7701
  321MOL0     H44297   7.920   7.086   9.539  0.5750  2.8494  0.3218
  321MOL0     H44298   7.781   6.983   9.497 -0.9723 -0.0419 -1.0805
  322MOL0     O44299   3.976   3.374   0.408 -0.2343 -0.0613  0.1902
  322MOL0     C44300   3.990   3.493   0.413  0.0923  0.8683 -0.3648
  322MOL0     O44301   4.107   3.558   0.422 -0.2355 -0.2372  0.4699
  322MOL0     C44302   4.220   3.483   0.453  0.5284 -0.8011 -0.3892
  322MOL0     C44303   4.219   3.396   0.563  0.5888 -1.4914 -0.1548
  322MOL0     C44304   4.332   3.326   0.590  0.3964 -0.1619  0.0615
  322MOL0     C44305   4.455   3.333   0.516  0.3708  0.1039  0.6197
  322MOL0     O44306   4.572   3.271   0.552  0.2167  0.1962 -0.1215
  322MOL0     C44307   4.597   3.268   0.688  0.1990  0.5209 -0.3414
  322MOL0     C44308   4.739   3.226   0.713 -1.0368 -0.0282  0.6014
  322MOL0     C44309   4.768   3.226   0.869  0.1011 -0.2145  0.0751
  322MOL0     C44310   4.897   3.165   0.897 -0.1493 -0.5998 -0.0640
  322MOL0     C44311   4.938   3.194   1.040  0.6582 -0.1706 -0.2911
  322MOL0     C44312   5.074   3.152   1.086  0.5291  0.1684  0.5347
  322MOL0     C44313   5.107   3.170   1.228  0.2392  0.0622 -0.3113
  322MOL0     C44314   5.025   3.092   1.330 -0.0512 -0.4262 -0.2519
  322MOL0     N44315   5.041   3.153   1.463 -0.7550  0.1640  0.1296
  322MOL0     C44316   5.151   3.214   1.524 -0.2592  0.7754 -0.1521
  322MOL0     C44317   5.116   3.234   1.653  0.3737  0.4815 -0.8774
  322MOL0     C44318   5.202   3.294   1.763  0.5761 -0.4359  0.7010
  322MOL0     C44319   5.269   3.422   1.709 -0.7871  0.4219 -0.1646
  322MOL0     C44320   5.357   3.501   1.811 -0.3356  0.9215  0.1780
  322MOL0     C44321   5.476   3.419   1.853 -0.1688  0.3275 -0.2330
  322MOL0     O44322   5.545   3.484   1.958 -0.1368  0.0381  0.2025
  322MOL0     C44323   5.665   3.556   1.939  0.4834 -0.3011 -0.0314
  322MOL0     C44324   5.734   3.599   2.047 -0.3494 -1.2485 -0.0662
  322MOL0     C44325   5.842   3.688   2.048 -0.6865  0.2111 -0.3917
  322MOL0     C44326   5.898   3.723   2.181 -0.4946  0.3586  1.3632
  322MOL0     C44327   5.893   3.727   1.925 -0.6184 -0.4670 -0.2308
  322MOL0     C44328   6.024   3.797   1.914  0.2956 -0.2328 -0.6034
  322MOL0     O44329   6.104   3.825   2.019  0.0279  0.1716  0.3503
  322MOL0     C44330   6.223   3.878   1.996  0.2551 -1.0514 -0.2258
  322MOL0     C44331   6.282   3.963   2.095  0.2412  0.1674 -0.0783
  322MOL0     C44332   6.419   3.992   2.093 -0.8575 -0.6728  0.3899
  322MOL0     C44333   6.499   3.967   1.974  0.1889 -0.9262 -0.3732
  322MOL0     O44334   6.627   4.021   1.975  0.2181 -0.0428 -0.1393
  322MOL0     C44335   6.742   3.966   1.903 -0.2991  0.4866  0.2567
  322MOL0     C44336   6.874   4.021   1.962  0.6065  0.6769 -0.9000
  322MOL0     C44337   6.882   4.180   1.956  0.3727 -0.0435  0.2702
  322MOL0     C44338   7.017   4.228   2.013 -0.0760 -0.1205  0.4905
  322MOL0     C44339   7.054   4.364   1.963 -0.3517  0.0738  0.0956
  322MOL0     C44340   7.036   4.471   2.075  0.4143  0.3397 -0.9228
  322MOL0     C44341   6.884   4.512   2.092  0.5172  0.5542  0.8052
  322MOL0     C44342   6.853   4.640   2.168 -0.2617 -0.4059 -0.4024
  322MOL0    Cl44343   6.958   4.770   2.100  0.3383  0.0383 -0.4548
  322MOL0     C44344   6.445   3.889   1.873 -0.4824  0.1213  0.0479
  322MOL0     C44345   6.316   3.843   1.890  0.5996  0.4579 -0.6296
  322MOL0     O44346   6.044   3.842   1.800 -0.1514  0.0171 -0.2840
  322MOL0     C44347   5.825   3.691   1.808 -0.0135 -0.5624 -0.3077
  322MOL0     C44348   5.707   3.614   1.818  0.4209  0.6403  0.2955
  322MOL0     N44349   4.984   3.192   1.667  0.1857 -0.1934 -0.1049
  322MOL0     N44350   4.942   3.140   1.554 -0.0405  0.0496 -1.0166
  322MOL0     C44351   4.451   3.421   0.403 -0.5667 -0.8641 -0.1192
  322MOL0     C44352   4.338   3.496   0.376  0.2158  0.6454 -0.2811
  322MOL0     C44353   3.851   3.572   0.421 -1.1993  0.4932  1.5927
  322MOL0     C44354   3.868   3.712   0.406  0.6788 -0.6253  0.1968
  322MOL0     C44355   3.762   3.799   0.402  1.6165  0.2739  0.4239
  322MOL0     C44356   3.636   3.763   0.442  0.5033  0.8432  1.1124
  322MOL0     O44357   3.521   3.838   0.453 -0.3056 -0.5382  0.5631
  322MOL0     C44358   3.527   3.978   0.481 -1.0830 -0.1506 -0.2283
  322MOL0     C44359   3.392   4.035   0.532 -0.3017 -0.3146 -0.4844
  322MOL0     C44360   3.285   4.011   0.427  0.6684 -0.5081  0.4270
  322MOL0     C44361   3.144   4.048   0.475  0.3462 -0.5047 -0.1970
  322MOL0     C44362   3.142   4.181   0.529 -0.3700  0.3415  0.1360
  322MOL0     C44363   3.149   4.284   0.593  0.1150  0.8158  0.7129
  322MOL0     C44364   3.620   3.624   0.463  0.8240  1.9768  0.6201
  322MOL0     C44365   3.719   3.529   0.452 -0.6720  0.3590 -0.7276
  322MOL0     C44366   3.673   3.384   0.466 -0.8445 -0.6867 -0.0842
  322MOL0     H44367   4.130   3.377   0.623  1.4088 -1.1957  1.1975
  322MOL0     H44368   4.318   3.269   0.681 -0.4839  0.7742  0.5397
  322MOL0     H44369   4.524   3.203   0.738 -0.1745  0.9026 -0.3796
  322MOL0     H44370   4.578   3.371   0.718  0.6614  0.2517  0.9367
  322MOL0     H44371   4.742   3.130   0.661 -1.5161  0.0644  0.3958
  322MOL0     H44372   4.813   3.287   0.662 -1.0408 -2.0327 -1.9784
  322MOL0     H44373   4.758   3.330   0.898 -0.4538 -0.5120  0.9677
  322MOL0     H44374   4.688   3.171   0.920  2.2130 -0.7468  3.0405
  322MOL0     H44375   4.899   3.058   0.871  0.8676 -0.7488  0.5763
  322MOL0     H44376   4.964   3.207   0.821  0.0004 -1.8995 -0.6814
  322MOL0     H44377   4.866   3.145   1.106 -1.2482 -0.6450 -2.5641
  322MOL0     H44378   4.915   3.299   1.062 -0.3660 -0.3506 -0.4196
  322MOL0     H44379   5.084   3.045   1.062 -0.0592 -0.1166  1.4844
  322MOL0     H44380   5.154   3.202   1.032  2.7134 -0.8076  2.6962
  322MOL0     H44381   5.100   3.278   1.242 -1.7535 -0.2691  2.0285
  322MOL0     H44382   5.209   3.138   1.252  1.1529  1.3207 -2.2365
  322MOL0     H44383   4.919   3.093   1.302  0.4858  2.7836 -2.7635
  322MOL0     H44384   5.056   2.988   1.341 -0.2577 -0.3170  1.9142
  322MOL0     H44385   5.251   3.224   1.484  1.4249 -1.3007  3.1603
  322MOL0     H44386   5.282   3.222   1.785 -0.9199 -1.7788  1.9548
  322MOL0     H44387   5.154   3.322   1.857  1.8505 -2.0215  1.8907
  322MOL0     H44388   5.335   3.386   1.629 -0.0262 -0.0889  0.6587
  322MOL0     H44389   5.193   3.484   1.662 -2.1627 -1.3850 -0.4033
  322MOL0     H44390   5.402   3.590   1.765 -2.8564  2.0997 -0.1958
  322MOL0     H44391   5.289   3.546   1.884  0.7421  4.6761 -0.9129
  322MOL0     H44392   5.442   3.323   1.893 -0.3028 -0.0289 -1.1899
  322MOL0     H44393   5.531   3.403   1.760  2.0879  1.7156  0.7848
  322MOL0     H44394   5.693   3.577   2.146  0.4071  1.4615  0.9259
  322MOL0     H44395   5.977   3.654   2.212 -1.5870 -1.5984  0.0121
  322MOL0     H44396   5.821   3.734   2.258  0.1674  0.7197  1.9810
  322MOL0     H44397   5.946   3.821   2.173 -0.2791  0.1599 -0.0479
  322MOL0     H44398   6.226   3.981   2.186 -0.4507  1.4020 -0.7146
  322MOL0     H44399   6.458   4.066   2.162 -1.9309  0.9090 -0.6465
  322MOL0     H44400   6.734   3.857   1.909 -0.5563  0.2777 -2.6269
  322MOL0     H44401   6.739   3.990   1.797 -1.1450  0.5271  0.2827
  322MOL0     H44402   6.884   3.985   2.065 -1.4587  1.0564 -0.5210
  322MOL0     H44403   6.949   3.985   1.891  0.4222  0.7065 -1.1099
  322MOL0     H44404   6.791   4.215   2.007 -0.9846 -1.1284 -1.2935
  322MOL0     H44405   6.873   4.210   1.851 -1.7093 -1.6085 -0.0737
  322MOL0     H44406   7.100   4.165   1.982 -0.2021  0.1660 -0.4513
  322MOL0     H44407   7.017   4.235   2.122  2.8505 -0.0361  0.5482
  322MOL0     H44408   7.163   4.371   1.952 -0.1218 -0.9912  1.3921
  322MOL0     H44409   7.008   4.393   1.868  2.4991 -0.8152 -1.6963
  322MOL0     H44410   7.101   4.553   2.044  0.2482  1.1025  0.6768
  322MOL0     H44411   7.083   4.434   2.167  1.7064 -1.6082 -2.2787
  322MOL0     H44412   6.836   4.428   2.143  0.0770  0.7796  0.7650
  322MOL0     H44413   6.842   4.531   1.993  2.9038  1.0027 -0.1729
  322MOL0     H44414   6.887   4.637   2.272  0.5062 -0.8293 -0.6517
  322MOL0     H44415   6.747   4.663   2.170 -0.7603 -2.5054 -0.7168
  322MOL0     H44416   6.506   3.867   1.786 -1.0025  2.5090 -0.9902
  322MOL0     H44417   6.288   3.786   1.802  0.6232  1.0759 -1.0478
  322MOL0     H44418   5.874   3.697   1.711  1.2126  0.9917  0.3690
  322MOL0     H44419   5.658   3.603   1.722  0.3927 -2.3773  0.5680
  322MOL0     H44420   4.536   3.429   0.337  0.1898 -2.3721  0.6206
  322MOL0     H44421   4.340   3.572   0.299  1.3881  0.4280 -0.4789
  322MOL0     H44422   3.964   3.753   0.375  0.1591  0.0436 -0.5609
  322MOL0     H44423   3.787   3.905   0.397  0.1918  0.5846 -1.1037
  322MOL0     H44424   3.615   4.003   0.542 -0.2323  1.8943 -2.1519
  322MOL0     H44425   3.539   4.026   0.383  0.2896 -0.2811 -0.1541
  322MOL0     H44426   3.396   4.143   0.550 -0.0001 -0.3868 -0.0987
  322MOL0     H44427   3.369   3.983   0.625  2.8422  0.0876  0.6245
  322MOL0     H44428   3.304   4.067   0.335 -1.8174 -0.4477 -0.1391
  322MOL0     H44429   3.278   3.907   0.396  0.0130 -0.0931 -0.9005
  322MOL0     H44430   3.104   3.973   0.544 -1.8681 -2.1027 -3.0028
  322MOL0     H44431   3.079   4.038   0.387  0.8345 -2.1888 -0.4051
  322MOL0     H44432   3.173   4.374   0.646 -0.1573  1.1431  0.2883
  322MOL0     H44433   3.518   3.592   0.484  0.3900  0.8338 -2.6554
  322MOL0     H44434   3.564   3.382   0.470 -0.7935 -1.1378  1.5114
  322MOL0     H44435   3.712   3.316   0.389 -0.4834 -0.8463  0.2386
  322MOL0     H44436   3.708   3.353   0.564  0.6878  0.6839 -0.1550
  323MOL0     O44437   6.402  11.236   7.690  0.2139  0.1470  0.0567
  323MOL0     C44438   6.302  11.221   7.621  0.8458 -0.7997  0.3254
  323MOL0     O44439   6.298  11.130   7.520  0.2917  0.5614  0.2010
  323MOL0     C44440   6.400  11.050   7.481  0.2982  0.5766  0.6062
  323MOL0     C44441   6.357  10.973   7.373 -0.1630 -0.6041  0.0037
  323MOL0     C44442   6.443  10.878   7.318  0.5210 -0.6934 -0.2790
  323MOL0     C44443   6.578  10.872   7.355  0.2223 -0.6090 -0.4633
  323MOL0     O44444   6.653  10.781   7.285  0.6976  0.3273 -0.1340
  323MOL0     C44445   6.721  10.689   7.370 -0.3670  0.5158  0.9126
  323MOL0     C44446   6.865  10.664   7.311 -0.0489 -0.2030  0.4033
  323MOL0     C44447   6.978  10.630   7.408 -0.2572  0.5185  0.2556
  323MOL0     C44448   7.108  10.583   7.337  0.1433 -0.1812  0.2116
  323MOL0     C44449   7.211  10.562   7.433 -0.4033  0.0872 -0.2397
  323MOL0     C44450   7.296  10.442   7.397 -0.1140 -0.1579  0.3791
  323MOL0     C44451   7.391  10.418   7.517 -0.5751  0.5850 -0.1153
  323MOL0     C44452   7.482  10.313   7.457  0.5465 -1.2258  0.4459
  323MOL0     N44453   7.588  10.270   7.543  0.4143 -0.1150  0.0606
  323MOL0     C44454   7.582  10.189   7.657 -0.0606  0.3834  0.2621
  323MOL0     C44455   7.705  10.185   7.704 -0.4112 -0.1029 -1.1840
  323MOL0     C44456   7.750  10.104   7.825 -0.2558  0.2498 -0.0337
  323MOL0     C44457   7.887  10.035   7.800 -0.0250 -0.5088 -0.0551
  323MOL0     C44458   7.945   9.979   7.930 -0.4450  0.4440  0.1552
  323MOL0     C44459   8.070   9.893   7.911 -0.4394 -0.8928  0.6702
  323MOL0     O44460   8.167   9.956   7.824 -0.3624  0.1619  0.0357
  323MOL0     C44461   8.282   9.887   7.788 -0.2338 -0.7300 -0.5111
  323MOL0     C44462   8.318   9.760   7.841  0.1255 -0.2862 -0.0816
  323MOL0     C44463   8.438   9.699   7.791 -0.3247  0.5936 -0.6805
  323MOL0     C44464   8.469   9.562   7.850 -0.8723 -0.1756  0.5914
  323MOL0     C44465   8.524   9.759   7.703  0.2974 -0.3891  0.2553
  323MOL0     C44466   8.651   9.699   7.644  0.2919  0.1812 -0.2787
  323MOL0     O44467   8.725   9.630   7.727  0.5599  1.0123 -0.5806
  323MOL0     C44468   8.843   9.578   7.684 -0.2404  0.6596  0.0678
  323MOL0     C44469   8.950   9.590   7.777 -1.2963  0.4976  0.0380
  323MOL0     C44470   9.078   9.541   7.749  0.2975  0.0911 -0.4649
  323MOL0     C44471   9.106   9.472   7.631  1.1699 -0.2371  0.1109
  323MOL0     O44472   9.232   9.411   7.613  0.4189 -0.3718  0.0348
  323MOL0     C44473   9.347   9.463   7.680 -0.7517  1.1529 -0.3021
  323MOL0     C44474   9.457   9.344   7.670  0.0016 -0.8756 -0.4258
  323MOL0     C44475   9.585   9.372   7.746 -0.4080  0.2446 -0.3570
  323MOL0     C44476   9.708   9.314   7.677 -0.0993  0.1812 -0.2980
  323MOL0     C44477   9.840   9.365   7.730 -0.3882 -0.3778  0.1043
  323MOL0     C44478   9.949   9.266   7.696  0.0297  1.0363 -0.0655
  323MOL0     C44479   9.970   9.235   7.546 -0.7610 -0.5402  0.5462
  323MOL0     C44480  10.076   9.128   7.548 -1.1829  0.5276  0.1372
  323MOL0    Cl44481  10.166   9.138   7.391 -0.2194  0.5833 -0.1971
  323MOL0     C44482   9.005   9.458   7.534 -0.4219 -0.2601  0.4738
  323MOL0     C44483   8.873   9.506   7.566  0.9789  0.0561  0.7991
  323MOL0     O44484   8.677   9.720   7.524  0.0238 -0.6068  0.1752
  323MOL0     C44485   8.483   9.883   7.661  0.2550 -0.2167 -0.2206
  323MOL0     C44486   8.366   9.950   7.700 -0.2338  0.0749  0.3240
  323MOL0     N44487   7.784  10.255   7.616 -0.2739 -0.4030 -0.2494
  323MOL0     N44488   7.722  10.304   7.517  0.3283 -0.0672 -0.1074
  323MOL0     C44489   6.628  10.962   7.454  0.0573  0.1676 -0.1294
  323MOL0     C44490   6.536  11.046   7.511  0.3886 -0.5936 -0.9777
  323MOL0     C44491   6.189  11.308   7.654 -0.8681  0.4451 -0.5119
  323MOL0     C44492   6.216  11.443   7.655 -0.5114  0.1309  0.1748
  323MOL0     C44493   6.106  11.533   7.671 -0.1772 -0.2016  0.0572
  323MOL0     C44494   5.978  11.487   7.675  0.2977 -0.0907  0.5969
  323MOL0     O44495   5.878  11.587   7.678  0.9874 -0.2595  0.0645
  323MOL0     C44496   5.735  11.546   7.675 -0.6580 -0.2687 -0.6203
  323MOL0     C44497   5.648  11.680   7.679 -0.1148 -0.7391 -0.7337
  323MOL0     C44498   5.526  11.661   7.770 -0.4000  0.2578 -0.4843
  323MOL0     C44499   5.433  11.557   7.706 -1.1326 -0.0419  0.2732
  323MOL0     C44500   5.320  11.514   7.793  0.2495 -0.4341 -0.1417
  323MOL0     C44501   5.221  11.479   7.845 -0.1620 -0.0415  0.0342
  323MOL0     C44502   5.955  11.347   7.675 -0.0096  0.0569 -0.2566
  323MOL0     C44503   6.063  11.252   7.662  0.8621 -0.2029  0.1154
  323MOL0     C44504   6.039  11.103   7.656 -0.5361 -1.0997 -0.3041
  323MOL0     H44505   6.253  10.984   7.343 -0.1190  0.6785  0.2317
  323MOL0     H44506   6.413  10.804   7.244  1.5079 -0.9332 -0.4472
  323MOL0     H44507   6.663  10.597   7.381  0.7327 -0.1811  1.0218
  323MOL0     H44508   6.729  10.716   7.476  0.1079 -1.1489  1.3267
  323MOL0     H44509   6.858  10.582   7.239 -0.7492  2.1366 -2.3754
  323MOL0     H44510   6.905  10.747   7.251  1.3141 -1.4113 -0.4208
  323MOL0     H44511   6.994  10.716   7.473 -0.0848  1.5819 -1.1342
  323MOL0     H44512   6.932  10.557   7.475  0.1980  0.6967  0.7751
  323MOL0     H44513   7.082  10.488   7.290 -1.3970 -0.6444  1.8961
  323MOL0     H44514   7.138  10.653   7.259  0.8138 -1.5063 -0.7627
  323MOL0     H44515   7.176  10.549   7.536 -1.0252 -0.1136 -0.4691
  323MOL0     H44516   7.277  10.649   7.429  1.8248 -1.5443 -0.4706
  323MOL0     H44517   7.237  10.352   7.379 -0.6243  0.4267 -1.0234
  323MOL0     H44518   7.354  10.473   7.309  1.3420  0.4265  1.5022
  323MOL0     H44519   7.337  10.382   7.605  1.9027  0.7367  1.5752
  323MOL0     H44520   7.440  10.509   7.553 -2.2102  0.2642  3.3106
  323MOL0     H44521   7.421  10.223   7.449  0.0375 -0.8663  0.2126
  323MOL0     H44522   7.520  10.352   7.362  0.2171  0.0766  0.8244
  323MOL0     H44523   7.495  10.140   7.701  1.1154 -1.9667  0.1337
  323MOL0     H44524   7.682  10.022   7.851  1.6713 -2.0978 -1.9447
  323MOL0     H44525   7.758  10.169   7.912  1.0915 -1.2372  0.9896
  323MOL0     H44526   7.876   9.956   7.725  0.2641  1.6538 -2.5136
  323MOL0     H44527   7.965  10.100   7.759  0.6782 -1.3049  0.0003
  323MOL0     H44528   7.966  10.066   7.993 -0.5505 -0.3980  1.3941
  323MOL0     H44529   7.869   9.917   7.978 -1.9726  1.1441 -1.2945
  323MOL0     H44530   8.105   9.883   8.014 -0.9655  1.4578  1.1387
  323MOL0     H44531   8.036   9.791   7.888 -1.4189 -0.8926  2.0168
  323MOL0     H44532   8.261   9.715   7.922  0.0820  0.8466  0.5408
  323MOL0     H44533   8.379   9.520   7.897  1.0187 -1.7114  3.0650
  323MOL0     H44534   8.546   9.560   7.927 -0.0033  0.9951 -0.2047
  323MOL0     H44535   8.490   9.495   7.767  0.4930 -0.3813  1.0871
  323MOL0     H44536   8.927   9.633   7.874 -2.9071  1.3540 -0.6839
  323MOL0     H44537   9.153   9.576   7.819  0.1528  0.2542 -0.3909
  323MOL0     H44538   9.384   9.557   7.636 -1.3381 -0.5200 -4.8857
  323MOL0     H44539   9.328   9.481   7.786 -1.4149  0.9478 -0.3836
  323MOL0     H44540   9.408   9.261   7.722 -1.5482  0.2582  0.0135
  323MOL0     H44541   9.474   9.305   7.570  1.5340  0.9243 -0.9205
  323MOL0     H44542   9.593   9.328   7.846  0.5939 -0.4538 -0.7244
  323MOL0     H44543   9.588   9.481   7.750  0.8878  0.2279 -0.3623
  323MOL0     H44544   9.702   9.341   7.571 -0.2961  1.6320  0.0593
  323MOL0     H44545   9.697   9.205   7.685 -1.2035  0.3297  0.5157
  323MOL0     H44546   9.857   9.468   7.698 -0.8660 -0.7543 -1.4380
  323MOL0     H44547   9.830   9.361   7.839  0.8381  2.9149  0.4233
  323MOL0     H44548   9.907   9.177   7.744 -0.4942  1.4840  0.3078
  323MOL0     H44549  10.043   9.293   7.745 -1.5013  1.3173  2.9473
  323MOL0     H44550  10.015   9.319   7.491 -0.8895 -0.2239  0.9160
  323MOL0     H44551   9.877   9.207   7.498 -0.9282  0.2227  0.4045
  323MOL0     H44552  10.032   9.028   7.553  1.2032 -0.7668 -2.0690
  323MOL0     H44553  10.140   9.147   7.634 -2.7046 -3.4171  2.3946
  323MOL0     H44554   9.009   9.399   7.443 -0.8560  0.0670  0.2430
  323MOL0     H44555   8.789   9.480   7.502 -0.5382  1.2265  2.2125
  323MOL0     H44556   8.545   9.935   7.589  1.5827 -0.6190  0.5776
  323MOL0     H44557   8.340  10.045   7.657  0.2184 -0.6317 -1.6062
  323MOL0     H44558   6.734  10.957   7.478 -0.2191 -2.2773  0.9281
  323MOL0     H44559   6.580  11.104   7.591  1.5272 -1.2897 -1.0783
  323MOL0     H44560   6.316  11.482   7.647 -1.2342  1.9040 -0.7952
  323MOL0     H44561   6.133  11.638   7.674 -1.7680  0.3719 -2.7277
  323MOL0     H44562   5.729  11.488   7.582  2.6972 -1.0957 -0.4493
  323MOL0     H44563   5.718  11.488   7.767 -1.4574 -0.7483 -1.0526
  323MOL0     H44564   5.605  11.712   7.583  2.2176 -0.7826 -1.8645
  323MOL0     H44565   5.713  11.760   7.714  0.3362 -1.4973  0.2030
  323MOL0     H44566   5.563  11.631   7.869  0.7654  0.7215 -0.7647
  323MOL0     H44567   5.461  11.747   7.785 -2.5021 -1.4056  0.5809
  323MOL0     H44568   5.486  11.464   7.687 -1.3996 -0.3639  1.0497
  323MOL0     H44569   5.387  11.598   7.616 -0.0646  2.0222  0.5987
  323MOL0     H44570   5.125  11.456   7.886 -0.8956  2.5921 -0.0273
  323MOL0     H44571   5.853  11.311   7.662 -0.7120  1.0828  1.8713
  323MOL0     H44572   5.935  11.095   7.689 -1.1360  0.5189 -1.6196
  323MOL0     H44573   6.065  11.059   7.559  0.3908 -0.3437 -0.4158
  323MOL0     H44574   6.109  11.056   7.725  1.7992  1.7328 -0.5542
  324MOL0     O44575   9.731   3.427   7.922 -0.1700 -0.7744 -0.8905
  324MOL0     C44576   9.728   3.327   7.989 -0.0382 -0.3367  0.1523
  324MOL0     O44577   9.833   3.270   8.058  0.1425  0.7364  0.3251
  324MOL0     C44578   9.965   3.300   8.050 -0.0701  0.1936  0.2940
  324MOL0     C44579  10.043   3.223   8.131  0.1371  0.1180 -0.0753
  324MOL0     C44580  10.182   3.235   8.140 -0.6866  0.3606 -0.5968
  324MOL0     C44581  10.236   3.317   8.045 -0.5220  0.4086 -1.0816
  324MOL0     O44582  10.377   3.313   8.049 -0.4735 -0.7962 -0.3270
  324MOL0     C44583  10.443   3.355   7.928 -0.2128 -0.6198 -0.3344
  324MOL0     C44584  10.441   3.265   7.802 -0.2339  0.4677  0.0259
  324MOL0     C44585  10.488   3.120   7.836  0.7843  0.2089  0.2314
  324MOL0     C44586  10.459   3.030   7.707 -0.9280 -0.7260 -0.7345
  324MOL0     C44587  10.563   2.912   7.672  0.1478  0.8179  0.3540
  324MOL0     C44588  10.701   2.959   7.623 -0.0810 -0.2594  1.0857
  324MOL0     C44589  10.809   2.843   7.608 -0.3655 -0.9616 -1.0869
  324MOL0     C44590  10.903   2.824   7.726  0.4903 -0.1410 -0.1501
  324MOL0     N44591  11.007   2.932   7.742  0.0375  0.6633 -0.6197
  324MOL0     C44592  10.986   3.052   7.810  0.8491  0.4467  0.5000
  324MOL0     C44593  11.108   3.107   7.791 -0.6120 -0.0461 -0.3316
  324MOL0     C44594  11.136   3.252   7.825 -0.2154 -0.3321 -0.2169
  324MOL0     C44595  11.289   3.273   7.827  0.2323 -1.1968 -0.7159
  324MOL0     C44596  11.315   3.416   7.872 -0.4359 -1.4078  0.8888
  324MOL0     C44597  11.468   3.454   7.835 -0.7129  0.3097 -0.2065
  324MOL0     O44598  11.480   3.597   7.873  0.2511  0.1845 -0.4988
  324MOL0     C44599  11.602   3.655   7.846 -0.8688 -1.7037 -0.4072
  324MOL0     C44600  11.722   3.589   7.811 -0.1267 -0.6599 -0.8867
  324MOL0     C44601  11.839   3.666   7.777 -0.3944 -0.4341  0.3354
  324MOL0     C44602  11.961   3.579   7.736  0.0882 -0.6394  0.1211
  324MOL0     C44603  11.834   3.807   7.791 -0.2771  0.1430  0.3397
  324MOL0     C44604  11.942   3.897   7.747  0.6650 -0.2648  0.6865
  324MOL0     O44605  11.918   4.034   7.764 -0.4530  0.3455 -0.4957
  324MOL0     C44606  12.026   4.112   7.745 -0.8831  0.5228  0.4867
  324MOL0     C44607  12.057   4.179   7.626 -1.0465 -0.2954 -0.5165
  324MOL0     C44608  12.172   4.259   7.614 -0.0376 -0.7598 -0.0825
  324MOL0     C44609  12.264   4.282   7.717  0.6196  0.3530  0.1042
  324MOL0     O44610  12.365   4.377   7.699  0.0964  0.4708  0.5116
  324MOL0     C44611  12.464   4.388   7.800  0.2537 -0.1903  0.6708
  324MOL0     C44612  12.569   4.502   7.780  0.0596 -0.4716 -0.4545
  324MOL0     C44613  12.672   4.488   7.905 -0.4823 -0.5577 -0.2968
  324MOL0     C44614  12.788   4.399   7.873  0.0656 -0.3238 -0.9258
  324MOL0     C44615  12.890   4.384   7.990 -0.0739 -0.4539  0.4773
  324MOL0     C44616  13.001   4.280   7.967  0.4729  0.6171  0.8288
  324MOL0     C44617  13.104   4.343   7.868  0.4512 -0.0404 -0.0514
  324MOL0     C44618  13.235   4.260   7.868  0.2386 -0.5355 -1.1445
  324MOL0    Cl44619  13.208   4.090   7.834  0.1794 -0.3295  0.1492
  324MOL0     C44620  12.233   4.217   7.838 -0.1977  0.0884 -0.0312
  324MOL0     C44621  12.118   4.133   7.849 -0.0935 -0.3766 -0.9600
  324MOL0     O44622  12.034   3.850   7.689  0.0909  0.0531 -0.3496
  324MOL0     C44623  11.715   3.871   7.834  0.4301  0.2974 -0.6937
  324MOL0     C44624  11.603   3.792   7.861  0.7668 -0.3286  0.9173
  324MOL0     N44625  11.191   3.025   7.717  0.4729  0.2772 -0.1217
  324MOL0     N44626  11.135   2.918   7.694  0.3658  0.1701 -0.7601
  324MOL0     C44627  10.165   3.393   7.946  0.2436  0.7900  0.0708
  324MOL0     C44628  10.027   3.387   7.957 -0.2804 -0.5617  0.5906
  324MOL0     C44629   9.596   3.245   8.003  0.0307 -0.3336 -0.5357
  324MOL0     C44630   9.599   3.124   8.074  0.6345  0.7427  0.5724
  324MOL0     C44631   9.492   3.031   8.081  0.4984 -0.1944  0.3981
  324MOL0     C44632   9.374   3.068   8.026 -0.1700 -0.0890 -0.4819
  324MOL0     O44633   9.268   2.992   8.012 -0.3185  0.6000 -0.0131
  324MOL0     C44634   9.217   2.901   8.105  0.4120 -0.5889  0.1406
  324MOL0     C44635   9.064   2.929   8.110  0.2379  0.8192 -0.5303
  324MOL0     C44636   9.020   3.068   8.158  0.6592 -0.0932  0.2504
  324MOL0     C44637   8.868   3.068   8.186  0.4909 -0.7853 -0.4421
  324MOL0     C44638   8.791   3.034   8.062 -0.1853 -0.1598  0.0791
  324MOL0     C44639   8.721   3.021   7.963  0.4190  0.2059  0.4342
  324MOL0     C44640   9.369   3.190   7.952  0.2728 -1.1215  0.4599
  324MOL0     C44641   9.485   3.274   7.931  0.5795 -0.7383 -0.8565
  324MOL0     C44642   9.457   3.394   7.851  0.2325 -0.9314 -0.3151
  324MOL0     H44643  10.004   3.144   8.193 -2.5800 -0.3189 -2.1524
  324MOL0     H44644  10.254   3.191   8.208  3.6010  0.6250 -4.4481
  324MOL0     H44645  10.549   3.359   7.957 -0.2376 -3.1151  0.3666
  324MOL0     H44646  10.419   3.459   7.904  1.5265 -0.1063  0.0216
  324MOL0     H44647  10.344   3.257   7.753  0.1425 -1.6273 -0.5090
  324MOL0     H44648  10.514   3.300   7.728 -2.3714  1.5614 -1.6887
  324MOL0     H44649  10.596   3.117   7.854  0.8806  0.4548 -0.2810
  324MOL0     H44650  10.435   3.069   7.916  2.0666 -2.3822 -0.4352
  324MOL0     H44651  10.360   2.983   7.718 -1.0318 -0.6269 -1.2412
  324MOL0     H44652  10.442   3.088   7.616 -0.3001 -0.6244 -0.7898
  324MOL0     H44653  10.518   2.852   7.593 -2.2978  0.6795  1.7714
  324MOL0     H44654  10.586   2.847   7.757  0.9118  0.4817 -0.0962
  324MOL0     H44655  10.689   3.015   7.529 -0.6710  0.4009  1.5490
  324MOL0     H44656  10.730   3.035   7.695 -2.5801  3.7584 -1.6994
  324MOL0     H44657  10.876   2.869   7.525  1.0322 -0.7571  0.0520
  324MOL0     H44658  10.759   2.747   7.596 -2.4284 -0.6590  3.3442
  324MOL0     H44659  10.836   2.818   7.813 -0.8848  0.9904 -1.0774
  324MOL0     H44660  10.956   2.730   7.714 -0.9121 -1.3774  2.4779
  324MOL0     H44661  10.899   3.081   7.868 -0.7022 -2.2072 -0.3123
  324MOL0     H44662  11.107   3.272   7.929  0.0265  0.3565 -0.2754
  324MOL0     H44663  11.087   3.319   7.755 -0.6035 -1.0598 -0.6503
  324MOL0     H44664  11.338   3.210   7.902 -1.3596  0.4312  1.8413
  324MOL0     H44665  11.325   3.260   7.725  0.9846  3.8593 -1.3472
  324MOL0     H44666  11.247   3.491   7.830 -1.8504 -3.4018 -0.5909
  324MOL0     H44667  11.303   3.427   7.980 -0.6630  1.4367  0.6638
  324MOL0     H44668  11.533   3.389   7.894 -1.9751 -1.7304 -0.9504
  324MOL0     H44669  11.491   3.430   7.730 -0.6707  0.7138 -0.2903
  324MOL0     H44670  11.742   3.483   7.807  0.4386 -0.5286 -3.6636
  324MOL0     H44671  12.047   3.584   7.804  1.8580 -0.0307 -2.0160
  324MOL0     H44672  12.000   3.621   7.643 -1.7633  0.2513 -0.2794
  324MOL0     H44673  11.923   3.478   7.720  0.2345 -0.2808 -3.3894
  324MOL0     H44674  11.996   4.186   7.537  2.1515  0.4059 -2.8482
  324MOL0     H44675  12.178   4.316   7.521 -0.6829  2.7077  1.8207
  324MOL0     H44676  12.411   4.401   7.894  0.4884  0.9536  0.6595
  324MOL0     H44677  12.528   4.300   7.793  1.3650  0.6442 -0.1165
  324MOL0     H44678  12.619   4.490   7.684  2.3569 -0.3081  0.6562
  324MOL0     H44679  12.504   4.590   7.780  0.0551 -0.4616 -1.3464
  324MOL0     H44680  12.625   4.458   7.999 -1.1013  0.1360 -0.3719
  324MOL0     H44681  12.707   4.591   7.916 -0.5788 -0.8450  4.5061
  324MOL0     H44682  12.826   4.438   7.779  0.1426 -1.4368 -1.3673
  324MOL0     H44683  12.755   4.298   7.848  2.2259 -0.9553 -1.4419
  324MOL0     H44684  12.932   4.483   8.009  0.9367 -0.9240  0.7815
  324MOL0     H44685  12.838   4.364   8.084  2.6116  1.6788  2.5872
  324MOL0     H44686  12.958   4.184   7.935 -1.7726  1.3691  1.4006
  324MOL0     H44687  13.046   4.259   8.065 -1.6302 -1.2707  1.4736
  324MOL0     H44688  13.129   4.441   7.908  1.1753 -0.3794  0.3565
  324MOL0     H44689  13.068   4.357   7.765  1.4799  0.4943 -0.3534
  324MOL0     H44690  13.279   4.271   7.967  1.2505  0.9580 -1.7219
  324MOL0     H44691  13.304   4.306   7.796 -1.8078  3.2078 -0.9754
  324MOL0     H44692  12.302   4.223   7.921  1.7295 -0.7297 -1.4901
  324MOL0     H44693  12.089   4.099   7.948  0.2271  1.0891 -0.3491
  324MOL0     H44694  11.705   3.974   7.867 -1.3910 -0.5905  1.8174
  324MOL0     H44695  11.509   3.840   7.887 -0.9396 -3.2366  0.5222
  324MOL0     H44696  10.225   3.459   7.884  1.4477  1.2841  1.6779
  324MOL0     H44697   9.967   3.442   7.885  0.1801 -0.1249  0.5330
  324MOL0     H44698   9.682   3.090   8.136 -1.1245 -2.9144  1.2173
  324MOL0     H44699   9.523   2.934   8.118  1.0066  0.6446  2.3017
  324MOL0     H44700   9.231   2.794   8.086  1.6485 -0.4133 -0.0170
  324MOL0     H44701   9.268   2.921   8.200 -1.3820  0.3146  0.9680
  324MOL0     H44702   9.022   2.861   8.185  0.0592  1.4382 -0.0567
  324MOL0     H44703   9.028   2.922   8.007  2.9481  1.1611 -1.5728
  324MOL0     H44704   9.077   3.101   8.245 -0.3243 -0.0102  0.8863
  324MOL0     H44705   9.036   3.142   8.079 -0.0797  0.3981  0.5493
  324MOL0     H44706   8.836   3.164   8.228  1.7582 -1.2645  1.7424
  324MOL0     H44707   8.847   2.991   8.260 -0.5901 -1.6434 -1.5961
  324MOL0     H44708   8.656   3.026   7.878  1.2636  2.0453 -0.1399
  324MOL0     H44709   9.278   3.217   7.900  1.2277 -0.5294 -0.9637
  324MOL0     H44710   9.501   3.486   7.889 -0.1326 -0.3200 -1.3531
  324MOL0     H44711   9.496   3.379   7.750  1.6846 -4.3534  0.5990
  324MOL0     H44712   9.351   3.419   7.844  0.5013  0.0017 -1.2520
  325MOL0     O44713   9.683   6.771   1.637 -0.0004  0.5952  0.4605
  325MOL0     C44714   9.617   6.710   1.553  0.0501  0.1137  0.4477
  325MOL0     O44715   9.669   6.596   1.494 -0.3495 -0.7920  0.2066
  325MOL0     C44716   9.798   6.558   1.535 -0.1960  0.3317  0.9653
  325MOL0     C44717   9.819   6.479   1.655  0.3173  0.3506  0.4370
  325MOL0     C44718   9.947   6.450   1.699  0.3896 -0.3902 -1.6272
  325MOL0     C44719  10.057   6.500   1.625 -0.4353 -1.3752  0.3064
  325MOL0     O44720  10.189   6.494   1.663  0.3424  0.6331  0.3130
  325MOL0     C44721  10.222   6.457   1.797 -0.4039 -0.5697 -0.4557
  325MOL0     C44722  10.372   6.457   1.813 -0.0482 -0.7042  0.3734
  325MOL0     C44723  10.433   6.325   1.746  0.2317 -0.2158  0.8042
  325MOL0     C44724  10.584   6.351   1.747  0.3869 -0.9518  0.2440
  325MOL0     C44725  10.659   6.236   1.687 -0.8889  0.1240  0.7381
  325MOL0     C44726  10.683   6.129   1.785 -0.4933  1.1516  0.3706
  325MOL0     C44727  10.739   6.003   1.726 -0.5643  0.3101  0.3791
  325MOL0     C44728  10.869   6.026   1.645  0.4416 -1.0309 -0.3368
  325MOL0     N44729  10.983   6.040   1.731 -0.2040 -0.1097 -0.0202
  325MOL0     C44730  11.021   5.945   1.822 -0.2375 -0.1579  0.5408
  325MOL0     C44731  11.096   6.011   1.916  0.1218 -0.4966  0.2823
  325MOL0     C44732  11.170   5.953   2.037  0.0878  0.1343 -0.6598
  325MOL0     C44733  11.241   5.814   2.011 -0.0718 -0.6921 -0.0573
  325MOL0     C44734  11.372   5.852   1.923  0.0152 -0.5205 -0.1388
  325MOL0     C44735  11.430   5.721   1.874 -0.8510  0.9684 -0.1056
  325MOL0     O44736  11.453   5.632   1.984  0.2097  0.3979  0.1729
  325MOL0     C44737  11.581   5.622   2.035 -0.6065 -0.0830 -0.8564
  325MOL0     C44738  11.612   5.517   2.119 -0.6762 -0.7196  1.1233
  325MOL0     C44739  11.724   5.513   2.206  0.5623  0.5118  0.8539
  325MOL0     C44740  11.740   5.393   2.307  0.3444  0.2402  0.9710
  325MOL0     C44741  11.816   5.612   2.200  0.7216  0.0686  0.0459
  325MOL0     C44742  11.954   5.603   2.254  0.0339  0.2645 -0.0606
  325MOL0     O44743  12.025   5.715   2.268  0.2247  0.0596  0.1101
  325MOL0     C44744  12.151   5.728   2.324 -0.1137  0.6195 -0.5977
  325MOL0     C44745  12.184   5.860   2.347  0.2153 -0.4244  0.0024
  325MOL0     C44746  12.291   5.883   2.428 -0.4336 -0.2672 -0.7180
  325MOL0     C44747  12.386   5.784   2.468  0.1002 -0.1446 -0.0438
  325MOL0     O44748  12.502   5.812   2.524 -0.2620  0.0348 -0.7187
  325MOL0     C44749  12.497   5.831   2.661 -0.8626 -0.1896 -1.1399
  325MOL0     C44750  12.613   5.904   2.726  0.6174 -0.0271  0.0113
  325MOL0     C44751  12.724   5.796   2.750  0.1497  0.0631  0.3666
  325MOL0     C44752  12.831   5.845   2.852 -0.1147 -0.1610 -0.2349
  325MOL0     C44753  12.874   5.986   2.833 -0.4090  0.2987  0.0542
  325MOL0     C44754  12.978   6.007   2.711  0.5884 -0.1218 -0.5304
  325MOL0     C44755  13.094   6.096   2.768 -0.4533  0.4190 -0.2853
  325MOL0     C44756  13.211   6.125   2.670  0.1099 -0.4340  0.0218
  325MOL0    Cl44757  13.317   6.248   2.734 -0.6855  0.3650  0.2209
  325MOL0     C44758  12.353   5.651   2.439  0.3005 -0.4757  0.3268
  325MOL0     C44759  12.233   5.622   2.370 -0.3261 -0.6099  0.4867
  325MOL0     O44760  11.992   5.495   2.279 -0.0426 -0.0945 -0.2761
  325MOL0     C44761  11.783   5.729   2.120  0.2130 -0.3612  0.5521
  325MOL0     C44762  11.664   5.726   2.041 -0.1079 -0.1274 -0.1157
  325MOL0     N44763  11.110   6.139   1.868 -0.7544 -0.3091 -0.0590
  325MOL0     N44764  11.054   6.154   1.754  0.3904 -0.0755  0.9319
  325MOL0     C44765  10.035   6.571   1.507 -0.4171 -0.1844  0.0172
  325MOL0     C44766   9.910   6.601   1.463  0.7812 -0.2810  0.6191
  325MOL0     C44767   9.482   6.764   1.517 -0.6803  0.4839 -0.7141
  325MOL0     C44768   9.424   6.856   1.605  0.7157 -0.6641  0.2125
  325MOL0     C44769   9.299   6.908   1.565 -0.9983 -0.1738  0.2648
  325MOL0     C44770   9.237   6.870   1.451 -0.3420 -0.1229 -0.6347
  325MOL0     O44771   9.108   6.915   1.424 -0.6470  1.0338  0.2919
  325MOL0     C44772   9.005   6.857   1.497  0.3095  0.0900  0.5451
  325MOL0     C44773   8.965   6.719   1.445 -0.2770  1.1441 -0.4310
  325MOL0     C44774   8.878   6.646   1.549  0.8347  0.2749 -0.7750
  325MOL0     C44775   8.957   6.544   1.627  1.3677 -0.8900  0.3487
  325MOL0     C44776   9.069   6.600   1.698  0.1521  0.1877 -0.1055
  325MOL0     C44777   9.165   6.627   1.759 -0.3731  0.8388  0.5474
  325MOL0     C44778   9.285   6.781   1.367  0.2207  0.4544  0.1883
  325MOL0     C44779   9.411   6.724   1.403  0.3743  0.8977  0.4450
  325MOL0     C44780   9.470   6.626   1.302 -0.1536 -0.0040  0.2504
  325MOL0     H44781   9.733   6.450   1.715  0.4209  4.2361  2.8260
  325MOL0     H44782   9.959   6.389   1.788  1.8110  3.0789  0.7775
  325MOL0     H44783  10.168   6.363   1.808  0.5035 -1.0155  0.3603
  325MOL0     H44784  10.190   6.534   1.868  1.5527 -1.3349  1.3688
  325MOL0     H44785  10.421   6.544   1.769  1.8288 -2.0519 -0.3108
  325MOL0     H44786  10.407   6.458   1.917  0.7406  0.3534  0.1147
  325MOL0     H44787  10.402   6.235   1.800 -0.0620  0.7150  2.2474
  325MOL0     H44788  10.414   6.322   1.638  2.7706  2.9718  0.0907
  325MOL0     H44789  10.613   6.435   1.683  0.4016 -2.0499 -1.2260
  325MOL0     H44790  10.622   6.369   1.848 -1.6577  2.1700  0.5826
  325MOL0     H44791  10.754   6.271   1.645 -0.5685 -1.5598 -0.0118
  325MOL0     H44792  10.604   6.189   1.606  0.8044 -2.0471  0.7791
  325MOL0     H44793  10.746   6.159   1.869  0.0345  1.5172 -0.1576
  325MOL0     H44794  10.589   6.092   1.827  0.4477 -1.8917  0.0327
  325MOL0     H44795  10.662   5.966   1.658 -1.4346  2.5051  0.0818
  325MOL0     H44796  10.758   5.932   1.806  0.8281  1.1878  0.8683
  325MOL0     H44797  10.881   5.938   1.581  0.5754 -0.2590 -1.3966
  325MOL0     H44798  10.859   6.107   1.571 -4.2480  1.0125  2.0851
  325MOL0     H44799  10.991   5.841   1.818 -1.5383  0.1585  1.2795
  325MOL0     H44800  11.102   5.952   2.122  0.3549  2.3702 -0.3717
  325MOL0     H44801  11.246   6.027   2.061  0.3370  0.0327 -1.1128
  325MOL0     H44802  11.263   5.770   2.108 -0.7021 -1.3799 -0.2154
  325MOL0     H44803  11.176   5.746   1.955 -1.5423  1.2861 -0.8955
  325MOL0     H44804  11.340   5.919   1.842 -1.5634  1.1537  1.7443
  325MOL0     H44805  11.449   5.898   1.986 -0.5665 -1.6963  1.5105
  325MOL0     H44806  11.366   5.672   1.800 -0.1403 -1.1248  0.6055
  325MOL0     H44807  11.519   5.741   1.813 -2.2502  0.2265 -2.5637
  325MOL0     H44808  11.524   5.454   2.108 -2.8511  2.3555 -0.4936
  325MOL0     H44809  11.804   5.317   2.262  2.2586  2.1852  0.2646
  325MOL0     H44810  11.641   5.347   2.316  0.0016 -0.3845 -3.6060
  325MOL0     H44811  11.787   5.428   2.399 -0.7042  2.2318  0.8182
  325MOL0     H44812  12.123   5.943   2.314  0.3240 -0.7874 -1.1281
  325MOL0     H44813  12.321   5.985   2.444 -0.2349 -0.6073  1.2828
  325MOL0     H44814  12.406   5.880   2.695 -1.0239  1.9448 -4.2387
  325MOL0     H44815  12.490   5.732   2.706  0.9106  0.5999  1.0904
  325MOL0     H44816  12.638   5.985   2.658 -0.0256  0.1249 -0.0519
  325MOL0     H44817  12.576   5.947   2.820 -2.7018  2.3677 -2.1762
  325MOL0     H44818  12.774   5.780   2.654 -0.5283 -0.2683  0.0628
  325MOL0     H44819  12.681   5.701   2.782 -0.3557  0.0209 -0.4321
  325MOL0     H44820  12.918   5.778   2.846 -0.4783 -0.7351  0.7472
  325MOL0     H44821  12.800   5.835   2.956  2.7891 -0.8489  0.6632
  325MOL0     H44822  12.788   6.053   2.825  1.0688  2.6048  2.2590
  325MOL0     H44823  12.927   6.011   2.925  1.0116  0.2508 -0.7143
  325MOL0     H44824  12.933   6.067   2.631  2.0294 -1.3616 -2.3493
  325MOL0     H44825  13.023   5.911   2.683 -0.3036 -1.3279  1.8672
  325MOL0     H44826  13.133   6.032   2.848  0.0702  2.1599  0.9226
  325MOL0     H44827  13.064   6.194   2.805 -0.0168  0.3201  0.3529
  325MOL0     H44828  13.180   6.157   2.571  2.8194 -0.8731 -1.0496
  325MOL0     H44829  13.266   6.032   2.651  1.0771  0.0350  0.4419
  325MOL0     H44830  12.418   5.574   2.480 -0.9530 -0.4478  2.5538
  325MOL0     H44831  12.206   5.526   2.327 -0.8770 -0.2555  0.0265
  325MOL0     H44832  11.849   5.813   2.104 -0.2542  0.5153  2.8780
  325MOL0     H44833  11.643   5.813   1.980 -1.8405  0.1291  0.7893
  325MOL0     H44834  10.125   6.616   1.465 -0.0253 -0.1459  0.8758
  325MOL0     H44835   9.895   6.662   1.375  1.0709 -1.4952 -0.3018
  325MOL0     H44836   9.467   6.873   1.704 -1.2683  0.1961  0.9792
  325MOL0     H44837   9.246   6.981   1.625 -0.6032 -1.2203  1.9540
  325MOL0     H44838   9.024   6.856   1.605 -1.1214  2.7260  0.9173
  325MOL0     H44839   8.922   6.928   1.487  0.1560 -0.2809 -0.9195
  325MOL0     H44840   9.049   6.652   1.426 -1.1616  0.4342 -2.0775
  325MOL0     H44841   8.904   6.723   1.354 -0.9560 -1.8492 -0.2345
  325MOL0     H44842   8.846   6.724   1.619 -1.1389 -1.6764  0.6190
  325MOL0     H44843   8.791   6.601   1.501  1.5093  0.0418 -1.8189
  325MOL0     H44844   8.989   6.462   1.563  1.4855 -1.3427  0.9770
  325MOL0     H44845   8.896   6.493   1.702 -0.3981  0.4421 -0.1032
  325MOL0     H44846   9.257   6.656   1.805 -0.6239  2.5590  0.0620
  325MOL0     H44847   9.231   6.735   1.285  0.0944 -2.4302  1.7461
  325MOL0     H44848   9.413   6.617   1.209 -0.1796  0.1792  0.2498
  325MOL0     H44849   9.565   6.673   1.278 -0.9848  1.3951 -0.4870
  325MOL0     H44850   9.478   6.524   1.341 -3.7141  0.0209  1.4532
  326MOL0     O44851   3.696   5.907   8.499 -0.6564 -0.1068 -0.6861
  326MOL0     C44852   3.579   5.919   8.464 -0.5368  0.0031  0.1039
  326MOL0     O44853   3.538   5.891   8.327 -0.4902  0.7082 -0.8492
  326MOL0     C44854   3.634   5.843   8.242 -0.7998 -0.1107  0.5259
  326MOL0     C44855   3.652   5.704   8.247 -0.4594  0.2663 -0.5364
  326MOL0     C44856   3.741   5.646   8.163  0.7974 -0.7186  0.6566
  326MOL0     C44857   3.816   5.725   8.067  0.1138  0.1012 -0.2961
  326MOL0     O44858   3.909   5.664   7.981  0.1349 -0.3261  0.4393
  326MOL0     C44859   4.042   5.728   7.969  1.0143 -0.1278 -0.0129
  326MOL0     C44860   4.122   5.629   7.887 -0.2459  0.0040  0.3343
  326MOL0     C44861   4.255   5.691   7.860 -0.6503 -0.3962  0.0316
  326MOL0     C44862   4.262   5.783   7.738  0.0354  0.1840 -0.6821
  326MOL0     C44863   4.316   5.707   7.614 -0.0273 -0.5049  0.5676
  326MOL0     C44864   4.311   5.806   7.497  0.1240  0.8053 -0.9462
  326MOL0     C44865   4.385   5.729   7.381 -0.0570 -0.5612 -0.1087
  326MOL0     C44866   4.420   5.817   7.257 -0.1845  0.0932 -0.3228
  326MOL0     N44867   4.523   5.920   7.295 -0.3771  0.4862  0.0132
  326MOL0     C44868   4.624   5.918   7.387  0.4028 -0.8953 -0.0799
  326MOL0     C44869   4.687   6.038   7.372  0.2362 -0.3246  0.4996
  326MOL0     C44870   4.786   6.100   7.458  0.5514  0.0013 -1.0506
  326MOL0     C44871   4.891   6.180   7.380 -0.3186 -0.2553 -0.3934
  326MOL0     C44872   4.996   6.232   7.472 -0.0235  0.3028 -0.2447
  326MOL0     C44873   5.123   6.293   7.396 -0.0282  1.0082 -0.6104
  326MOL0     O44874   5.082   6.396   7.299  0.4706  0.2471  0.5409
  326MOL0     C44875   5.181   6.434   7.215  0.0699 -0.0497 -0.7405
  326MOL0     C44876   5.144   6.438   7.082 -0.2360  0.0922  0.0896
  326MOL0     C44877   5.221   6.510   6.986 -0.1251 -0.6480  0.7269
  326MOL0     C44878   5.172   6.516   6.843  0.4754 -0.8769 -0.3196
  326MOL0     C44879   5.346   6.568   7.031 -0.4787 -0.2139 -0.1829
  326MOL0     C44880   5.450   6.614   6.937 -0.0319  0.1064 -0.1980
  326MOL0     O44881   5.543   6.692   6.988  0.0057 -0.6363  0.5881
  326MOL0     C44882   5.601   6.790   6.908  0.0086 -0.4352 -0.2663
  326MOL0     C44883   5.739   6.810   6.917 -0.0611  0.6226  0.1385
  326MOL0     C44884   5.796   6.904   6.840  0.4931  0.4392  0.4443
  326MOL0     C44885   5.722   6.986   6.749 -0.4056  1.2053  0.5028
  326MOL0     O44886   5.796   7.068   6.668  0.5542 -0.3990 -0.2452
  326MOL0     C44887   5.735   7.117   6.544 -0.0729 -0.1255 -0.5465
  326MOL0     C44888   5.841   7.199   6.471  0.6091 -0.5462 -0.3530
  326MOL0     C44889   5.784   7.257   6.337 -0.1409 -0.1518 -0.5331
  326MOL0     C44890   5.798   7.162   6.235 -0.2273 -1.1864  1.2247
  326MOL0     C44891   5.793   7.214   6.094 -0.2388 -0.2966  0.1570
  326MOL0     C44892   5.667   7.307   6.067 -0.6123 -0.6361  0.3381
  326MOL0     C44893   5.522   7.249   6.077  0.2045 -0.6493 -1.8565
  326MOL0     C44894   5.491   7.129   5.990  0.4499 -0.6274  0.1062
  326MOL0    Cl44895   5.587   6.989   6.046 -0.2126 -0.0084 -0.3587
  326MOL0     C44896   5.581   6.972   6.749  0.3757 -0.2869  0.4005
  326MOL0     C44897   5.521   6.879   6.828 -0.3840  0.6180  0.7661
  326MOL0     O44898   5.431   6.596   6.819  0.3970  0.5774  0.4454
  326MOL0     C44899   5.378   6.557   7.171 -0.8901 -0.3057  0.6896
  326MOL0     C44900   5.300   6.487   7.256  0.6599 -0.8043 -0.6204
  326MOL0     N44901   4.612   6.107   7.281 -0.4143 -0.0419 -0.5642
  326MOL0     N44902   4.519   6.031   7.224 -0.4444  0.5603 -0.2479
  326MOL0     C44903   3.794   5.863   8.056  0.1521 -0.3862  0.3762
  326MOL0     C44904   3.706   5.924   8.150 -0.4438  0.3423 -0.2322
  326MOL0     C44905   3.482   5.964   8.562  0.2231 -0.8770  0.1730
  326MOL0     C44906   3.392   6.050   8.510  0.6846 -0.3501  0.3922
  326MOL0     C44907   3.281   6.088   8.582  0.1539  0.0625 -0.4482
  326MOL0     C44908   3.286   6.071   8.720 -0.0523  0.1150  0.3985
  326MOL0     O44909   3.177   6.116   8.792  0.0965 -0.1227  0.2905
  326MOL0     C44910   3.077   6.016   8.806  1.2185  0.7071  1.1343
  326MOL0     C44911   3.103   5.926   8.924  0.6756 -0.2010 -0.2031
  326MOL0     C44912   3.116   6.010   9.048 -0.3906 -0.1400  0.4282
  326MOL0     C44913   3.122   5.939   9.182  0.3230  0.4957  0.2255
  326MOL0     C44914   3.252   5.862   9.202  0.3920  0.3846  0.0239
  326MOL0     C44915   3.351   5.804   9.246  0.9564  0.0935 -0.0288
  326MOL0     C44916   3.391   6.007   8.783 -0.4234  0.2255  0.2763
  326MOL0     C44917   3.485   5.942   8.704  0.6451  0.7003  1.4047
  326MOL0     C44918   3.590   5.866   8.781  0.6423  0.4010 -0.2363
  326MOL0     H44919   3.602   5.638   8.317 -0.8745  0.1829 -0.9138
  326MOL0     H44920   3.760   5.539   8.162  1.2887 -0.7483 -3.6500
  326MOL0     H44921   4.091   5.755   8.063  1.6544  0.5735 -0.5397
  326MOL0     H44922   4.028   5.815   7.905  0.5926 -1.1793 -1.4069
  326MOL0     H44923   4.135   5.533   7.938  0.3405 -0.9119 -1.4758
  326MOL0     H44924   4.086   5.607   7.786 -1.4397 -1.3574  1.0196
  326MOL0     H44925   4.295   5.743   7.947  1.9149 -0.0333 -1.2761
  326MOL0     H44926   4.328   5.609   7.856  2.0518  1.7257  1.9088
  326MOL0     H44927   4.167   5.825   7.703 -1.0118 -0.1819  1.5515
  326MOL0     H44928   4.333   5.862   7.764 -2.2779  1.2835  3.1350
  326MOL0     H44929   4.261   5.615   7.595  1.0098 -0.8752 -0.7637
  326MOL0     H44930   4.419   5.674   7.633  0.5685  0.7528 -0.2851
  326MOL0     H44931   4.208   5.824   7.466 -0.0093 -0.4693 -1.3265
  326MOL0     H44932   4.356   5.903   7.520 -1.3756  1.4636 -0.7258
  326MOL0     H44933   4.319   5.647   7.350  2.5080 -2.8217  0.0767
  326MOL0     H44934   4.474   5.688   7.429 -1.0049 -0.7784  1.5693
  326MOL0     H44935   4.461   5.757   7.176  0.3153 -1.6440  1.1703
  326MOL0     H44936   4.322   5.860   7.231  0.5498  2.3371  0.3308
  326MOL0     H44937   4.647   5.832   7.449 -0.2893 -0.0490  1.3903
  326MOL0     H44938   4.831   6.029   7.527 -1.2007 -1.5346 -1.3972
  326MOL0     H44939   4.735   6.172   7.522  0.7445  1.1861 -2.1891
  326MOL0     H44940   4.941   6.101   7.324  0.9475 -0.1431  0.5293
  326MOL0     H44941   4.837   6.246   7.312  0.4474 -0.6681 -1.4247
  326MOL0     H44942   4.951   6.313   7.531 -1.5308 -1.0111  0.4902
  326MOL0     H44943   5.031   6.147   7.530  3.2754  0.4208 -1.8315
  326MOL0     H44944   5.198   6.337   7.463 -1.7336  1.7189  0.9048
  326MOL0     H44945   5.182   6.217   7.343  0.1121 -0.3161  1.3434
  326MOL0     H44946   5.054   6.386   7.051  0.1680  0.6708 -2.2833
  326MOL0     H44947   5.067   6.484   6.847 -0.6952  2.6355  0.4720
  326MOL0     H44948   5.230   6.451   6.778  1.2918 -0.5266  0.0487
  326MOL0     H44949   5.170   6.622   6.814 -1.7739 -0.1275  2.1532
  326MOL0     H44950   5.792   6.748   6.989  1.5850  0.6663 -0.9862
  326MOL0     H44951   5.904   6.918   6.843  0.7410 -1.3391  1.1067
  326MOL0     H44952   5.710   7.038   6.473  2.5079 -1.9406  0.4370
  326MOL0     H44953   5.649   7.181   6.564  1.2051  1.5881 -0.3392
  326MOL0     H44954   5.881   7.279   6.533 -0.3645  0.2945 -0.7907
  326MOL0     H44955   5.930   7.137   6.453  1.2370  0.3705 -0.4794
  326MOL0     H44956   5.839   7.350   6.318 -0.6753  0.7824  2.0189
  326MOL0     H44957   5.682   7.296   6.344 -0.1507  0.9703 -4.4209
  326MOL0     H44958   5.733   7.077   6.258 -1.7268  0.4028  3.2334
  326MOL0     H44959   5.900   7.125   6.248  0.7827  1.4553  1.2719
  326MOL0     H44960   5.878   7.273   6.059 -0.2241  0.7236  1.7950
  326MOL0     H44961   5.803   7.132   6.023  2.0399 -0.5546  0.6791
  326MOL0     H44962   5.676   7.361   5.972 -0.0287  2.8378  2.2123
  326MOL0     H44963   5.673   7.396   6.129  0.8142  0.7863 -1.7088
  326MOL0     H44964   5.451   7.328   6.052  1.5165  1.2569  0.0939
  326MOL0     H44965   5.510   7.219   6.182  1.0809  1.6058 -1.0644
  326MOL0     H44966   5.516   7.150   5.885  0.1383  2.5930  0.5769
  326MOL0     H44967   5.384   7.110   5.998  0.3398  0.6011  2.0520
  326MOL0     H44968   5.517   7.041   6.694  0.2785 -1.1027 -0.5444
  326MOL0     H44969   5.413   6.868   6.824 -0.1760 -1.4463 -1.8466
  326MOL0     H44970   5.473   6.601   7.199 -1.9977  2.3953  0.5159
  326MOL0     H44971   5.323   6.483   7.362  0.6813  0.6419 -0.5539
  326MOL0     H44972   3.833   5.916   7.970  0.3686  0.8495  1.2025
  326MOL0     H44973   3.690   6.030   8.136 -0.8042  0.5617  1.6036
  326MOL0     H44974   3.387   6.070   8.404 -0.3522 -0.5781  0.3944
  326MOL0     H44975   3.194   6.124   8.526 -0.3569 -1.2713 -0.5336
  326MOL0     H44976   2.980   6.063   8.819  0.3282 -0.9062  0.6121
  326MOL0     H44977   3.067   5.948   8.720 -1.8687 -2.2301  3.5519
  326MOL0     H44978   3.197   5.872   8.915  1.5402  1.5436 -2.5078
  326MOL0     H44979   3.020   5.854   8.933 -0.1159  0.9011  2.4701
  326MOL0     H44980   3.208   6.069   9.037 -1.2181  0.8781 -1.3178
  326MOL0     H44981   3.035   6.083   9.054 -1.0132 -0.6510 -1.3322
  326MOL0     H44982   3.044   5.862   9.180  1.7246 -0.9671 -1.5498
  326MOL0     H44983   3.102   6.007   9.265 -2.3509  1.5985 -1.1977
  326MOL0     H44984   3.433   5.743   9.277 -1.2267 -1.4707  3.1103
  326MOL0     H44985   3.399   6.016   8.890  0.0786  3.5075  0.0850
  326MOL0     H44986   3.652   5.800   8.719  1.1080 -3.4847  3.7653
  326MOL0     H44987   3.652   5.939   8.834 -1.8280  1.8399  0.7946
  326MOL0     H44988   3.550   5.792   8.851  2.7428 -0.7091 -0.0932
  327MOL0     O44989   5.441   1.423   6.480  0.6656 -0.0958 -0.0769
  327MOL0     C44990   5.437   1.298   6.467 -0.0618 -0.0969 -0.0009
  327MOL0     O44991   5.538   1.220   6.433 -0.2742  1.0937  0.4596
  327MOL0     C44992   5.657   1.276   6.382  0.4475  0.3371  0.8791
  327MOL0     C44993   5.661   1.341   6.257  0.1471  0.2515  0.4310
  327MOL0     C44994   5.773   1.409   6.211 -0.5363  0.3381 -0.1552
  327MOL0     C44995   5.895   1.397   6.274  0.6081 -0.7678 -0.2323
  327MOL0     O44996   5.999   1.479   6.241  0.1710  0.5691  0.2388
  327MOL0     C44997   6.064   1.554   6.349  0.3401 -0.4861  0.2508
  327MOL0     C44998   6.208   1.491   6.377  0.6439 -0.0573 -0.1883
  327MOL0     C44999   6.306   1.607   6.421  0.0848  0.1864  0.4216
  327MOL0     C45000   6.442   1.549   6.444  1.2463  0.7684  0.7918
  327MOL0     C45001   6.541   1.636   6.504  0.0363 -0.4768 -0.2464
  327MOL0     C45002   6.527   1.638   6.658  0.3294  0.0869  0.6929
  327MOL0     C45003   6.640   1.720   6.713 -0.1828  0.2426  0.5392
  327MOL0     C45004   6.763   1.638   6.751  0.4859 -0.0249  0.0331
  327MOL0     N45005   6.887   1.713   6.757  0.1751 -0.4884 -0.1330
  327MOL0     C45006   7.013   1.680   6.704 -0.1350 -0.0782 -0.7595
  327MOL0     C45007   7.102   1.768   6.763  0.3109 -0.1374 -0.1678
  327MOL0     C45008   7.241   1.785   6.729 -0.1817  0.2211  0.0090
  327MOL0     C45009   7.308   1.657   6.680  0.1216  0.1269 -0.8819
  327MOL0     C45010   7.462   1.661   6.688 -0.9305 -0.0866  0.5604
  327MOL0     C45011   7.536   1.528   6.660 -0.2641  0.2625 -0.4124
  327MOL0     O45012   7.674   1.569   6.648 -0.1855 -0.1602  0.7764
  327MOL0     C45013   7.769   1.484   6.698 -0.6320 -0.7528 -0.1966
  327MOL0     C45014   7.884   1.542   6.758 -0.9680  0.5692 -0.7426
  327MOL0     C45015   7.981   1.458   6.819  0.3322 -0.8038  0.3364
  327MOL0     C45016   8.096   1.533   6.861 -0.5810  0.4752 -0.1539
  327MOL0     C45017   7.954   1.318   6.831  0.0867  0.7022 -0.3849
  327MOL0     C45018   8.040   1.230   6.912 -0.4270 -0.4304 -0.1410
  327MOL0     O45019   8.024   1.095   6.894 -0.4452 -0.1246  0.4327
  327MOL0     C45020   8.091   1.006   6.975 -0.1115 -0.7028 -0.9074
  327MOL0     C45021   8.072   1.011   7.116 -0.5877  0.1871 -0.8557
  327MOL0     C45022   8.117   0.903   7.192  0.4484  0.7735 -0.1081
  327MOL0     C45023   8.177   0.790   7.138  0.4258  0.7983 -0.1310
  327MOL0     O45024   8.234   0.686   7.209 -0.1298  0.4170  0.2765
  327MOL0     C45025   8.241   0.554   7.143 -0.3933 -0.5339 -1.5633
  327MOL0     C45026   8.317   0.465   7.249  0.0584  0.7371 -0.5523
  327MOL0     C45027   8.469   0.465   7.253  0.3263  0.4400 -0.1119
  327MOL0     C45028   8.531   0.428   7.390 -0.5595  0.7621  0.0929
  327MOL0     C45029   8.679   0.394   7.379 -0.0391 -0.3548  0.5220
  327MOL0     C45030   8.707   0.270   7.473 -0.3175  0.1755 -1.0582
  327MOL0     C45031   8.863   0.241   7.492  0.1889  0.3981 -0.1019
  327MOL0     C45032   8.924   0.237   7.351  0.2560 -0.4080 -0.6951
  327MOL0    Cl45033   9.095   0.175   7.370  0.5140 -0.1461 -0.1591
  327MOL0     C45034   8.194   0.797   7.004 -1.4704  0.7124  0.4824
  327MOL0     C45035   8.159   0.902   6.920  0.4096  0.5737  0.0072
  327MOL0     O45036   8.118   1.280   6.989  0.1413  0.0459 -0.4372
  327MOL0     C45037   7.841   1.261   6.768  1.4198 -0.1184  0.5779
  327MOL0     C45038   7.752   1.346   6.697  0.6477  0.0234 -0.9429
  327MOL0     N45039   7.026   1.844   6.847 -0.7785 -0.8948  0.2509
  327MOL0     N45040   6.902   1.811   6.854  0.2725 -0.1637  0.2442
  327MOL0     C45041   5.901   1.311   6.387  0.3019 -0.1230 -0.6107
  327MOL0     C45042   5.784   1.256   6.442 -0.0097 -0.1117 -0.2683
  327MOL0     C45043   5.312   1.225   6.495  0.5197  0.4494  0.3855
  327MOL0     C45044   5.194   1.309   6.470 -0.2592  0.6834 -0.0838
  327MOL0     C45045   5.066   1.265   6.482  0.3494  0.3279 -0.6705
  327MOL0     C45046   5.052   1.124   6.516 -0.0739  0.2388 -0.5620
  327MOL0     O45047   4.917   1.092   6.535  0.0283 -0.2296 -0.3423
  327MOL0     C45048   4.875   0.960   6.508 -0.2549 -0.3762  0.8020
  327MOL0     C45049   4.729   0.946   6.522 -0.0497  0.0115 -0.6559
  327MOL0     C45050   4.688   0.976   6.663  0.1767  0.9953  1.2683
  327MOL0     C45051   4.540   1.029   6.649  0.9402 -0.4855  0.3412
  327MOL0     C45052   4.462   0.925   6.587 -0.3433 -0.6572 -0.3176
  327MOL0     C45053   4.395   0.850   6.524  0.1692 -0.0570 -0.3542
  327MOL0     C45054   5.159   1.048   6.558 -0.4272  0.6583  0.5327
  327MOL0     C45055   5.294   1.093   6.543  1.1304 -0.3489 -0.6243
  327MOL0     C45056   5.402   0.996   6.590 -0.5406  0.0089 -0.0438
  327MOL0     H45057   5.565   1.355   6.208  0.5471 -0.0686 -0.4737
  327MOL0     H45058   5.768   1.483   6.132  0.5001  3.8387  2.8200
  327MOL0     H45059   6.005   1.563   6.440 -1.5495 -1.1281 -0.8552
  327MOL0     H45060   6.087   1.654   6.312  2.0442 -0.0560  2.2894
  327MOL0     H45061   6.187   1.421   6.458 -0.9308 -0.4270 -0.8751
  327MOL0     H45062   6.242   1.434   6.290 -1.6581 -0.1534 -1.1028
  327MOL0     H45063   6.301   1.681   6.341 -2.2010 -0.8129 -0.4420
  327MOL0     H45064   6.266   1.649   6.514 -1.8907 -1.8948  0.6071
  327MOL0     H45065   6.417   1.466   6.510  3.2184 -1.0288 -0.5883
  327MOL0     H45066   6.481   1.513   6.349  1.0408  0.9820  0.6262
  327MOL0     H45067   6.519   1.736   6.465  1.6281  0.4308  1.0084
  327MOL0     H45068   6.644   1.608   6.478 -0.0180 -0.9653  0.0534
  327MOL0     H45069   6.439   1.698   6.684  0.3059 -0.2736  1.4793
  327MOL0     H45070   6.525   1.537   6.701 -0.0733 -0.4778 -0.6167
  327MOL0     H45071   6.607   1.769   6.806 -0.6289 -2.2026  1.7503
  327MOL0     H45072   6.655   1.804   6.644 -2.9644  0.1170 -0.3620
  327MOL0     H45073   6.750   1.602   6.853  0.9698  3.7907  1.5909
  327MOL0     H45074   6.786   1.556   6.682  2.1864 -1.2826  1.9838
  327MOL0     H45075   7.032   1.596   6.638  1.2484 -1.2577  1.0297
  327MOL0     H45076   7.292   1.839   6.809  0.4752 -0.4124  0.0273
  327MOL0     H45077   7.245   1.859   6.649  1.7740  0.5078  0.3232
  327MOL0     H45078   7.269   1.564   6.724  0.7031 -0.7605 -2.1887
  327MOL0     H45079   7.290   1.640   6.574  0.8383 -0.7467 -0.8738
  327MOL0     H45080   7.501   1.735   6.618 -0.3873 -1.9509 -1.1903
  327MOL0     H45081   7.493   1.692   6.788  1.1964 -1.0076  0.2145
  327MOL0     H45082   7.527   1.465   6.749  1.6443 -0.5185 -0.7246
  327MOL0     H45083   7.504   1.472   6.572  1.7223 -0.1291 -0.9299
  327MOL0     H45084   7.891   1.650   6.757 -1.8826  0.6382 -1.6449
  327MOL0     H45085   8.119   1.513   6.966 -0.0171  0.3926 -0.2886
  327MOL0     H45086   8.085   1.641   6.847  5.5506  1.6178  0.7335
  327MOL0     H45087   8.179   1.512   6.793  0.6020  0.3658  1.2772
  327MOL0     H45088   8.010   1.082   7.171 -0.9165  0.1574 -1.1886
  327MOL0     H45089   8.102   0.912   7.299  2.4028 -0.3224  0.3043
  327MOL0     H45090   8.141   0.512   7.139 -2.6497  3.8761  0.8755
  327MOL0     H45091   8.307   0.546   7.056  3.2157 -1.6942  1.0368
  327MOL0     H45092   8.280   0.506   7.344 -0.8417  0.5661 -0.8118
  327MOL0     H45093   8.287   0.362   7.231  1.0305  0.3042  0.2298
  327MOL0     H45094   8.508   0.564   7.229  0.5888  0.1556 -0.8920
  327MOL0     H45095   8.504   0.400   7.172 -2.3038 -0.7270 -0.4235
  327MOL0     H45096   8.479   0.342   7.433  1.1903 -0.2691  0.2086
  327MOL0     H45097   8.536   0.505   7.468  0.4182 -1.1595  2.0129
  327MOL0     H45098   8.703   0.360   7.278 -1.4923 -2.2165  0.7392
  327MOL0     H45099   8.745   0.477   7.406 -1.9471  1.2157  0.5570
  327MOL0     H45100   8.670   0.177   7.428  2.7322 -1.4727 -0.4503
  327MOL0     H45101   8.656   0.287   7.568 -1.2899  2.2056 -1.8809
  327MOL0     H45102   8.871   0.150   7.552  2.9330 -0.1246 -1.0849
  327MOL0     H45103   8.928   0.311   7.545  1.4212 -1.1273  0.4911
  327MOL0     H45104   8.933   0.336   7.306  1.4336  0.6549  1.6652
  327MOL0     H45105   8.863   0.170   7.290 -2.0214  0.2852  0.6811
  327MOL0     H45106   8.258   0.720   6.962 -2.1519 -0.3303  1.3147
  327MOL0     H45107   8.188   0.901   6.815 -0.2808 -2.4225 -0.2256
  327MOL0     H45108   7.804   1.160   6.778  0.1665  0.3323  0.6274
  327MOL0     H45109   7.672   1.291   6.649  1.4488 -1.7806 -0.3216
  327MOL0     H45110   5.989   1.307   6.451 -1.0857  1.1459  1.5258
  327MOL0     H45111   5.783   1.195   6.531 -2.1731 -0.7548 -0.6696
  327MOL0     H45112   5.209   1.410   6.432 -2.1107  0.9064 -0.3012
  327MOL0     H45113   4.985   1.332   6.456  0.3182  0.6037  0.0958
  327MOL0     H45114   4.896   0.945   6.402  1.9515  3.6692  0.4505
  327MOL0     H45115   4.923   0.882   6.568 -0.8107 -2.2346 -1.0461
  327MOL0     H45116   4.697   0.843   6.510 -0.4081  0.3494 -3.1526
  327MOL0     H45117   4.681   1.008   6.446  0.2813  1.3016  0.1470
  327MOL0     H45118   4.695   0.887   6.727 -0.2176  1.6609  2.2708
  327MOL0     H45119   4.747   1.056   6.708  0.3804  1.5999 -0.0208
  327MOL0     H45120   4.544   1.122   6.592  3.2971 -0.9746 -0.3947
  327MOL0     H45121   4.501   1.037   6.751  1.7313  0.6137  0.5685
  327MOL0     H45122   4.320   0.797   6.469 -3.2080  3.4698  0.3705
  327MOL0     H45123   5.136   0.951   6.601 -1.3765  0.3430 -0.6419
  327MOL0     H45124   5.502   1.038   6.601 -0.5072 -0.0971  0.0561
  327MOL0     H45125   5.370   0.942   6.679 -1.1250  1.2917  0.5602
  327MOL0     H45126   5.411   0.930   6.503 -2.2084  1.1058 -1.1181
  328MOL0     O45127   9.150   3.987   6.806  0.4811 -0.0952  0.0359
  328MOL0     C45128   9.085   3.884   6.842  0.7834 -0.2148 -0.0098
  328MOL0     O45129   9.141   3.763   6.861 -0.0461  0.3428  0.5698
  328MOL0     C45130   9.266   3.742   6.895 -0.0116 -0.4650 -0.2415
  328MOL0     C45131   9.348   3.833   6.965 -1.1734 -0.9277 -0.4472
  328MOL0     C45132   9.484   3.795   6.985  0.1094  0.5769  1.0359
  328MOL0     C45133   9.532   3.669   6.949 -0.5425  1.1304 -0.1267
  328MOL0     O45134   9.660   3.636   6.982 -0.2714  0.0047  0.0144
  328MOL0     C45135   9.693   3.495   6.999  0.5462  0.6698  0.0381
  328MOL0     C45136   9.837   3.488   7.032  0.3616  1.8308  0.0295
  328MOL0     C45137   9.872   3.557   7.163 -0.6303  0.4030  0.7506
  328MOL0     C45138   9.821   3.486   7.295 -0.0467  0.0115  0.0748
  328MOL0     C45139   9.833   3.571   7.421  0.2596 -0.4386  0.5431
  328MOL0     C45140   9.971   3.597   7.472 -0.3064 -0.4957 -0.0363
  328MOL0     C45141   9.969   3.652   7.605 -0.5091  0.0749  0.7100
  328MOL0     C45142  10.109   3.677   7.655 -0.4952 -0.2687 -0.7812
  328MOL0     N45143  10.175   3.803   7.609  0.0430  0.6240 -0.7134
  328MOL0     C45144  10.203   3.909   7.688  0.7069 -0.1404 -0.0710
  328MOL0     C45145  10.277   3.989   7.613  0.7784 -0.8652  0.2812
  328MOL0     C45146  10.347   4.110   7.674 -0.1597  0.2453 -0.2384
  328MOL0     C45147  10.275   4.244   7.665  0.2239  0.3821 -0.3939
  328MOL0     C45148  10.133   4.247   7.727 -0.5410  0.4780  0.3718
  328MOL0     C45149  10.059   4.380   7.698  0.6006  0.4884 -0.8722
  328MOL0     O45150   9.938   4.372   7.783  0.1815  0.7711 -0.3108
  328MOL0     C45151   9.841   4.470   7.794 -0.2746  0.1468 -0.3727
  328MOL0     C45152   9.760   4.475   7.905 -0.4585 -0.3533  0.3063
  328MOL0     C45153   9.661   4.583   7.922 -0.2520 -0.0515 -0.2976
  328MOL0     C45154   9.569   4.564   8.046 -0.4835  0.4476  0.2063
  328MOL0     C45155   9.654   4.688   7.825  0.0789  0.2362 -0.0697
  328MOL0     C45156   9.554   4.802   7.835 -0.3045 -0.0104  0.4148
  328MOL0     O45157   9.555   4.885   7.732 -0.1451 -0.1468  0.5455
  328MOL0     C45158   9.455   4.977   7.703 -0.7807 -0.5884  0.3764
  328MOL0     C45159   9.335   5.015   7.773  0.7174  0.1472 -0.0751
  328MOL0     C45160   9.259   5.120   7.737  0.2173  0.6084 -0.3707
  328MOL0     C45161   9.295   5.201   7.628 -0.2587  0.1862 -0.7353
  328MOL0     O45162   9.223   5.310   7.590  0.1395  0.0976  0.2120
  328MOL0     C45163   9.191   5.409   7.685  0.6246 -0.1613  0.1291
  328MOL0     C45164   9.198   5.551   7.618 -0.2718 -0.3882  0.2586
  328MOL0     C45165   9.051   5.606   7.592 -0.5478 -0.3935 -1.0457
  328MOL0     C45166   9.031   5.734   7.512 -0.4940 -0.6323 -0.2378
  328MOL0     C45167   9.123   5.854   7.552 -0.4483  0.6222  0.6325
  328MOL0     C45168   9.091   5.976   7.475  0.1017  0.0122 -0.7763
  328MOL0     C45169   8.946   6.022   7.468  0.0528 -0.4238  0.4842
  328MOL0     C45170   8.921   6.159   7.402 -0.2387 -0.3687 -0.5460
  328MOL0    Cl45171   9.002   6.285   7.504  0.2803  0.0689 -0.1545
  328MOL0     C45172   9.408   5.165   7.555 -0.1354 -0.2152 -0.2717
  328MOL0     C45173   9.479   5.050   7.593 -0.5904 -0.2094  0.7941
  328MOL0     O45174   9.483   4.812   7.933  0.2812  0.2281  0.5987
  328MOL0     C45175   9.754   4.683   7.726 -0.1415 -0.0547  0.0882
  328MOL0     C45176   9.847   4.582   7.709 -0.3929  1.4097  0.6406
  328MOL0     N45177  10.298   3.939   7.492  0.4485 -0.3536  0.2782
  328MOL0     N45178  10.239   3.826   7.491  0.5444 -0.0390  0.1464
  328MOL0     C45179   9.437   3.576   6.888 -0.1267 -0.6326  0.0017
  328MOL0     C45180   9.311   3.611   6.864  0.0748 -0.0678  0.6495
  328MOL0     C45181   8.940   3.896   6.856 -0.2793 -0.7052  0.2593
  328MOL0     C45182   8.870   3.789   6.894  0.5870 -0.0377 -0.3298
  328MOL0     C45183   8.743   3.792   6.946 -0.6920 -0.1757  0.0740
  328MOL0     C45184   8.681   3.919   6.957 -0.3051  0.3565 -0.0714
  328MOL0     O45185   8.561   3.910   7.023  0.4624 -0.0681 -0.4715
  328MOL0     C45186   8.486   4.027   7.046 -0.2410  0.0574 -0.0224
  328MOL0     C45187   8.357   3.989   7.124 -0.2169  0.0942 -0.1242
  328MOL0     C45188   8.269   4.109   7.129 -0.1186 -0.1128  0.0482
  328MOL0     C45189   8.166   4.081   7.247  0.2728  0.3666 -0.1315
  328MOL0     C45190   8.026   4.073   7.192 -0.1004 -0.5026 -0.6688
  328MOL0     C45191   7.913   4.070   7.152  0.3581 -0.3210 -0.0590
  328MOL0     C45192   8.741   4.028   6.901  0.6049  0.2147 -0.3049
  328MOL0     C45193   8.875   4.023   6.857 -0.3746  0.1705  0.7593
  328MOL0     C45194   8.932   4.155   6.790 -0.2911  0.6668 -0.0357
  328MOL0     H45195   9.317   3.934   6.991  0.5364 -0.5830  0.4006
  328MOL0     H45196   9.552   3.861   7.038  1.1033 -0.1613  0.7133
  328MOL0     H45197   9.675   3.444   6.903 -0.7182 -0.0179  0.6149
  328MOL0     H45198   9.631   3.444   7.073 -1.9221  2.3271 -0.7374
  328MOL0     H45199   9.864   3.382   7.025 -3.3895  0.7635 -0.2252
  328MOL0     H45200   9.888   3.546   6.954  0.0077  3.0289  0.6578
  328MOL0     H45201   9.980   3.566   7.176 -0.6483  0.5125  0.8245
  328MOL0     H45202   9.831   3.658   7.173 -2.1659  0.0181 -1.0029
  328MOL0     H45203   9.714   3.470   7.278 -0.4754 -1.5235  3.4293
  328MOL0     H45204   9.865   3.387   7.311  0.6801  0.0609 -1.4168
  328MOL0     H45205   9.782   3.507   7.494  0.7125 -0.1243  1.1430
  328MOL0     H45206   9.773   3.662   7.415 -1.9877 -1.9250 -0.8679
  328MOL0     H45207  10.022   3.501   7.466 -0.8353 -0.7751 -0.1126
  328MOL0     H45208  10.024   3.665   7.406 -0.9588  0.2735  0.2084
  328MOL0     H45209   9.917   3.579   7.668 -1.2347 -1.5964 -1.6825
  328MOL0     H45210   9.919   3.749   7.604 -2.1912 -0.7694  0.4476
  328MOL0     H45211  10.111   3.679   7.765  0.6746  0.6959 -0.7963
  328MOL0     H45212  10.165   3.587   7.630 -1.1655 -1.1789  0.8719
  328MOL0     H45213  10.181   3.915   7.794  0.1450 -0.2535 -0.1787
  328MOL0     H45214  10.444   4.113   7.622 -0.5092  5.8968 -1.2271
  328MOL0     H45215  10.363   4.094   7.781 -2.1551 -0.5983 -0.0412
  328MOL0     H45216  10.343   4.300   7.730  2.4792 -2.6246  0.0669
  328MOL0     H45217  10.270   4.263   7.557 -2.3070 -2.3127 -0.8619
  328MOL0     H45218  10.077   4.165   7.681  0.7045 -0.8815  1.1839
  328MOL0     H45219  10.136   4.223   7.834 -0.4012 -0.9381  0.0715
  328MOL0     H45220  10.114   4.471   7.721 -0.1978  0.5725  0.9137
  328MOL0     H45221  10.021   4.370   7.596  0.8565  1.0810 -1.0281
  328MOL0     H45222   9.764   4.386   7.968  1.6831  0.1920  1.0307
  328MOL0     H45223   9.537   4.663   8.082 -0.4303  0.5399  0.0018
  328MOL0     H45224   9.628   4.520   8.127  1.6625 -0.9965 -2.0338
  328MOL0     H45225   9.482   4.504   8.018  0.4246 -0.2734 -1.1660
  328MOL0     H45226   9.312   4.955   7.860 -0.6363 -0.0377 -0.5285
  328MOL0     H45227   9.166   5.144   7.788 -0.4727  0.1354 -1.3624
  328MOL0     H45228   9.093   5.383   7.727  0.4903 -1.1126 -0.7404
  328MOL0     H45229   9.268   5.405   7.762 -0.9266  1.8324  1.9085
  328MOL0     H45230   9.252   5.618   7.686 -1.7114 -0.8559  1.9584
  328MOL0     H45231   9.247   5.548   7.521 -3.1889 -1.0612 -1.3216
  328MOL0     H45232   9.000   5.621   7.687 -2.7952 -1.1985 -2.0554
  328MOL0     H45233   8.991   5.534   7.536 -1.7555  2.0215 -3.0681
  328MOL0     H45234   8.928   5.771   7.516 -0.0820  0.5874 -0.2860
  328MOL0     H45235   9.054   5.703   7.410  3.1095 -0.4344  0.3957
  328MOL0     H45236   9.116   5.879   7.659 -2.4279  0.5876  0.5418
  328MOL0     H45237   9.229   5.829   7.543 -0.2210  2.0233 -1.2110
  328MOL0     H45238   9.134   5.974   7.375 -1.3714  0.1740 -1.4459
  328MOL0     H45239   9.145   6.055   7.527 -3.3546  2.2093 -0.2094
  328MOL0     H45240   8.901   6.029   7.567  0.7344 -0.0271  0.7678
  328MOL0     H45241   8.895   5.959   7.394  0.7012 -1.0715  0.5742
  328MOL0     H45242   8.815   6.188   7.405  0.4062  2.1515  0.5141
  328MOL0     H45243   8.956   6.158   7.299  0.1727  1.2357 -0.4403
  328MOL0     H45244   9.440   5.225   7.470 -2.7001  1.4833 -0.1570
  328MOL0     H45245   9.577   5.028   7.551  0.3127  0.2595  2.5292
  328MOL0     H45246   9.772   4.770   7.664 -2.5014  1.2283  1.0444
  328MOL0     H45247   9.910   4.584   7.621  1.4635 -0.0871  1.8421
  328MOL0     H45248   9.450   3.474   6.855 -3.2129 -0.8558 -0.8660
  328MOL0     H45249   9.246   3.551   6.802  0.3627 -0.7276  0.9773
  328MOL0     H45250   8.913   3.689   6.890 -0.7055 -0.5674 -1.5897
  328MOL0     H45251   8.699   3.695   6.966  2.0855 -1.0707  2.4611
  328MOL0     H45252   8.544   4.091   7.114  0.6363 -0.5140 -0.2245
  328MOL0     H45253   8.458   4.069   6.949  0.9037  0.8854 -0.0184
  328MOL0     H45254   8.386   3.964   7.227  0.3715  0.9884 -0.0624
  328MOL0     H45255   8.301   3.909   7.076 -0.5566  0.8597 -1.0230
  328MOL0     H45256   8.323   4.200   7.156 -1.7284  0.4779  1.4962
  328MOL0     H45257   8.225   4.116   7.029  1.5209 -2.9257 -0.9904
  328MOL0     H45258   8.172   4.163   7.319  1.0236 -0.6481  1.0167
  328MOL0     H45259   8.189   3.992   7.307  3.2176 -1.6424 -3.8061
  328MOL0     H45260   7.810   4.075   7.126  0.7525  0.6596 -1.5490
  328MOL0     H45261   8.673   4.112   6.912  0.5078  0.0653  0.3056
  328MOL0     H45262   8.992   4.139   6.700  3.0590  0.5511  2.0718
  328MOL0     H45263   8.851   4.225   6.765 -0.9250 -0.4904 -1.4246
  328MOL0     H45264   8.996   4.205   6.863 -0.8829  0.9531  0.2921
  329MOL0     O45265  10.696   5.699   5.568 -0.3014  0.2735 -0.1918
  329MOL0     C45266  10.770   5.649   5.488 -0.5389  0.1863  0.0405
  329MOL0     O45267  10.742   5.534   5.412 -0.1468  0.0131 -0.5076
  329MOL0     C45268  10.625   5.464   5.433  0.0865 -0.0556  0.2090
  329MOL0     C45269  10.557   5.432   5.546 -0.4047 -0.1648  0.3276
  329MOL0     C45270  10.446   5.350   5.543  0.6712  0.4859 -0.5634
  329MOL0     C45271  10.389   5.301   5.417 -0.5845  0.6908  0.1299
  329MOL0     O45272  10.288   5.210   5.408  0.5411 -0.7616 -0.5280
  329MOL0     C45273  10.177   5.226   5.495  0.4426  1.1053 -0.5929
  329MOL0     C45274  10.040   5.206   5.419 -0.8907  0.7188 -0.6341
  329MOL0     C45275   9.934   5.177   5.533 -0.8430  0.7082  0.0247
  329MOL0     C45276   9.801   5.177   5.462 -0.7249 -0.1240  0.0318
  329MOL0     C45277   9.684   5.163   5.558  0.2507 -0.8826 -0.0774
  329MOL0     C45278   9.677   5.028   5.635  1.3120  0.8610  0.0411
  329MOL0     C45279   9.560   5.020   5.735 -0.5464 -0.3328 -0.1169
  329MOL0     C45280   9.551   4.890   5.817 -0.6546  0.6606 -0.1125
  329MOL0     N45281   9.661   4.878   5.908  0.2311  0.2199 -0.0462
  329MOL0     C45282   9.718   4.760   5.928 -0.0994 -1.2364  0.1207
  329MOL0     C45283   9.825   4.779   6.012 -0.4688 -0.2323  0.3393
  329MOL0     C45284   9.929   4.686   6.051 -0.3646  0.1819  0.0351
  329MOL0     C45285   9.963   4.683   6.202 -0.4407  0.2813 -0.5647
  329MOL0     C45286  10.034   4.550   6.228 -0.2649 -0.4293  0.7591
  329MOL0     C45287  10.112   4.556   6.354 -0.6564  0.4885 -0.5740
  329MOL0     O45288  10.172   4.430   6.396 -1.0424 -0.7074 -0.0990
  329MOL0     C45289  10.298   4.446   6.452 -1.0324  0.4289 -0.1646
  329MOL0     C45290  10.323   4.483   6.580 -0.2332  0.1898 -0.4803
  329MOL0     C45291  10.445   4.518   6.633  0.8850  0.6482 -0.3530
  329MOL0     C45292  10.457   4.591   6.772  0.3351  0.1663  0.4986
  329MOL0     C45293  10.555   4.507   6.542 -0.5001 -0.4186  0.0470
  329MOL0     C45294  10.699   4.553   6.574 -0.6768 -0.6141 -0.0346
  329MOL0     O45295  10.803   4.492   6.513  0.1420  0.4657 -0.5765
  329MOL0     C45296  10.918   4.560   6.504  0.1482  0.7448 -0.0644
  329MOL0     C45297  11.042   4.518   6.561  0.3113  0.1946 -0.7348
  329MOL0     C45298  11.161   4.590   6.540 -0.0036  0.0007 -0.9689
  329MOL0     C45299  11.155   4.717   6.478 -0.0241  0.3521 -0.4619
  329MOL0     O45300  11.270   4.789   6.474  0.7808 -0.0838 -0.0327
  329MOL0     C45301  11.300   4.860   6.350 -0.6287 -1.1194  1.0069
  329MOL0     C45302  11.445   4.906   6.359  0.3570 -0.0338  0.0648
  329MOL0     C45303  11.471   5.004   6.243 -0.5850  0.2503  0.4477
  329MOL0     C45304  11.613   5.069   6.253 -0.5301  0.3016 -0.4645
  329MOL0     C45305  11.629   5.188   6.350  0.0096  0.0327 -0.3903
  329MOL0     C45306  11.771   5.240   6.348  0.4708 -0.6692 -0.4498
  329MOL0     C45307  11.786   5.360   6.444 -0.1602  0.3764  0.5199
  329MOL0     C45308  11.926   5.421   6.411 -0.0016  0.7603 -0.0153
  329MOL0    Cl45309  12.068   5.324   6.443  0.1736 -0.1769  0.2297
  329MOL0     C45310  11.035   4.756   6.423  0.5688  0.2376 -0.6453
  329MOL0     C45311  10.920   4.680   6.430  0.0465  0.8850 -0.2262
  329MOL0     O45312  10.711   4.650   6.650 -0.2299 -0.0259  0.1932
  329MOL0     C45313  10.534   4.464   6.409 -0.7227 -0.8023 -1.1216
  329MOL0     C45314  10.407   4.427   6.370 -1.0285 -0.1923 -0.2636
  329MOL0     N45315   9.827   4.915   6.030 -0.1135  0.3090  0.1242
  329MOL0     N45316   9.723   4.974   5.980  0.5671 -0.3118  0.1047
  329MOL0     C45317  10.465   5.334   5.301 -1.1309  0.4039  0.0832
  329MOL0     C45318  10.581   5.416   5.312  0.3913 -0.3002  0.4061
  329MOL0     C45319  10.913   5.708   5.468  0.0105 -0.1094  0.3298
  329MOL0     C45320  10.987   5.668   5.349  0.1817 -1.7367  0.7472
  329MOL0     C45321  11.122   5.720   5.328  0.2413  0.3732  0.3518
  329MOL0     C45322  11.167   5.818   5.419 -0.5179  0.7835 -0.6545
  329MOL0     O45323  11.291   5.886   5.409 -0.3721  0.2530  1.3795
  329MOL0     C45324  11.356   5.881   5.274  0.7953  0.4986 -0.9123
  329MOL0     C45325  11.486   5.960   5.279 -0.7335  0.3173  0.2135
  329MOL0     C45326  11.482   6.064   5.162  0.0873 -0.0368  0.1886
  329MOL0     C45327  11.624   6.121   5.159 -0.9056 -0.7195 -0.2027
  329MOL0     C45328  11.718   6.034   5.082 -0.3142 -1.0672 -0.5335
  329MOL0     C45329  11.786   5.968   5.010 -0.2871  0.2343  1.1313
  329MOL0     C45330  11.100   5.847   5.532 -0.1768  0.2034 -0.1834
  329MOL0     C45331  10.975   5.796   5.561 -0.3353  0.4840 -0.3433
  329MOL0     C45332  10.914   5.857   5.687  0.7433  0.0070 -0.5482
  329MOL0     H45333  10.589   5.486   5.635  1.9221  0.6014 -0.8903
  329MOL0     H45334  10.399   5.330   5.639  1.8494 -1.0792 -0.2744
  329MOL0     H45335  10.160   5.321   5.547 -0.9180 -0.3824  1.8735
  329MOL0     H45336  10.186   5.158   5.580  1.9676  1.1516 -0.6942
  329MOL0     H45337  10.025   5.300   5.365 -1.4426 -0.5412 -2.8471
  329MOL0     H45338  10.054   5.129   5.342  1.8977  0.9537 -0.4863
  329MOL0     H45339   9.952   5.084   5.587  3.6414  1.1096 -0.3597
  329MOL0     H45340   9.948   5.264   5.599  1.5223  0.4943 -0.0861
  329MOL0     H45341   9.784   5.273   5.413  0.1346  1.0738  1.9710
  329MOL0     H45342   9.806   5.098   5.386 -1.0140  0.0167 -0.1357
  329MOL0     H45343   9.596   5.165   5.494 -0.8121 -0.2144  1.3529
  329MOL0     H45344   9.688   5.251   5.623  1.1064  0.2354 -1.5777
  329MOL0     H45345   9.660   4.942   5.570  0.3012  0.0794  1.2677
  329MOL0     H45346   9.771   5.019   5.690  0.3248 -1.7141  1.4906
  329MOL0     H45347   9.462   5.031   5.688 -0.1208 -1.6068 -1.3910
  329MOL0     H45348   9.564   5.108   5.800 -0.6047 -0.2370 -0.2427
  329MOL0     H45349   9.449   4.886   5.856 -1.1390 -1.0847 -1.4335
  329MOL0     H45350   9.561   4.809   5.744  0.4629  3.0012 -2.7352
  329MOL0     H45351   9.675   4.670   5.884 -2.1185 -0.9470  1.3522
  329MOL0     H45352  10.018   4.717   5.994 -1.6149  1.8555 -1.1171
  329MOL0     H45353   9.907   4.587   6.010  2.1924 -0.7002  0.6027
  329MOL0     H45354  10.026   4.769   6.225  1.1385 -0.3639 -2.2306
  329MOL0     H45355   9.876   4.693   6.267  2.4546 -0.4652  3.9080
  329MOL0     H45356   9.960   4.470   6.229  0.7231 -1.5404 -2.4003
  329MOL0     H45357  10.118   4.532   6.159 -0.1340  0.0940  0.7802
  329MOL0     H45358  10.194   4.629   6.352  0.0458 -0.2645 -0.0669
  329MOL0     H45359  10.052   4.597   6.435  2.1858  0.8328  1.5456
  329MOL0     H45360  10.232   4.484   6.638 -0.5046  0.4818 -0.9093
  329MOL0     H45361  10.382   4.555   6.843 -0.7654 -1.2446 -1.2728
  329MOL0     H45362  10.447   4.700   6.759 -0.0990  0.3827  2.3412
  329MOL0     H45363  10.554   4.569   6.817  1.4633 -2.4526 -2.8299
  329MOL0     H45364  11.042   4.437   6.632  1.6501 -0.0870 -1.0354
  329MOL0     H45365  11.257   4.568   6.585 -1.0079 -0.3119  1.1658
  329MOL0     H45366  11.298   4.794   6.262  0.6742  0.4326 -0.2682
  329MOL0     H45367  11.220   4.933   6.333  0.1667 -0.7704 -1.7012
  329MOL0     H45368  11.453   4.956   6.456 -2.5999 -0.5427  0.6527
  329MOL0     H45369  11.506   4.815   6.350 -0.7467 -0.7772 -0.1356
  329MOL0     H45370  11.387   5.075   6.238 -2.7206 -2.2005 -1.1467
  329MOL0     H45371  11.471   4.941   6.154  0.9824  1.0964 -0.1848
  329MOL0     H45372  11.644   5.098   6.152  0.0246  0.0783 -0.3636
  329MOL0     H45373  11.688   4.994   6.281  0.6544  2.2904  2.1876
  329MOL0     H45374  11.553   5.264   6.333  0.7995  0.6265 -1.4302
  329MOL0     H45375  11.609   5.141   6.446 -1.0036  1.3319  0.0588
  329MOL0     H45376  11.801   5.267   6.246 -1.9750  1.7932 -0.6468
  329MOL0     H45377  11.840   5.161   6.378  0.1497 -0.8805 -0.2603
  329MOL0     H45378  11.795   5.324   6.547 -0.4747 -0.9194  0.1219
  329MOL0     H45379  11.705   5.433   6.431 -0.2140  0.0496 -1.2759
  329MOL0     H45380  11.926   5.514   6.468  0.9071  0.7129  0.0814
  329MOL0     H45381  11.935   5.458   6.308  0.4777  0.7270  0.0134
  329MOL0     H45382  11.033   4.849   6.368  1.6231 -0.5510 -2.1131
  329MOL0     H45383  10.826   4.713   6.389  1.1321  1.8134 -2.0875
  329MOL0     H45384  10.619   4.464   6.342 -0.2278 -1.3878 -0.5017
  329MOL0     H45385  10.394   4.402   6.265 -1.9567  0.3312 -0.2850
  329MOL0     H45386  10.441   5.296   5.203  0.8831  2.0332 -1.1144
  329MOL0     H45387  10.639   5.432   5.222 -1.5431  0.8699 -0.7131
  329MOL0     H45388  10.959   5.585   5.284 -0.5515 -0.9990  0.1051
  329MOL0     H45389  11.180   5.691   5.241 -0.6442  1.8104 -0.7655
  329MOL0     H45390  11.374   5.777   5.246 -0.1581 -0.2319  1.0016
  329MOL0     H45391  11.283   5.923   5.205 -2.2864 -0.3664  1.5602
  329MOL0     H45392  11.575   5.896   5.278 -1.3776 -0.6006  0.2038
  329MOL0     H45393  11.485   6.010   5.376 -0.4571 -2.5218  1.7706
  329MOL0     H45394  11.442   6.030   5.066  0.3016  1.0781 -0.3138
  329MOL0     H45395  11.412   6.143   5.191 -2.0423 -2.3846  1.8264
  329MOL0     H45396  11.660   6.148   5.259 -0.4220 -1.6165 -0.1202
  329MOL0     H45397  11.624   6.215   5.104  2.0090 -0.0983  0.6873
  329MOL0     H45398  11.843   5.903   4.948 -1.5599  0.3031 -0.1514
  329MOL0     H45399  11.147   5.920   5.598  3.2176 -1.4332 -0.6018
  329MOL0     H45400  10.996   5.867   5.759  0.3950 -0.1789 -0.1258
  329MOL0     H45401  10.883   5.961   5.669  0.5464  0.4083  1.7414
  329MOL0     H45402  10.846   5.789   5.738  1.6839  0.2187  1.0846
  330MOL0     O45403   8.494   7.409   3.345 -0.8883  0.1107  0.3647
  330MOL0     C45404   8.446   7.485   3.260  0.1529  0.0728 -0.6026
  330MOL0     O45405   8.512   7.548   3.158  0.0345 -0.1011  0.4017
  330MOL0     C45406   8.642   7.520   3.140  0.1618 -0.9013 -0.3252
  330MOL0     C45407   8.739   7.623   3.173  0.2302 -0.1079  0.3477
  330MOL0     C45408   8.870   7.604   3.134  0.1634  0.9248  0.9720
  330MOL0     C45409   8.912   7.491   3.068  0.1121  1.0059  0.0822
  330MOL0     O45410   9.040   7.463   3.032  0.5525 -0.6248 -0.2014
  330MOL0     C45411   9.136   7.487   3.133  0.0801  0.6378 -0.3898
  330MOL0     C45412   9.269   7.520   3.054  0.2653  0.2578  0.4162
  330MOL0     C45413   9.250   7.642   2.956  0.3194  0.0771 -0.4136
  330MOL0     C45414   9.248   7.774   3.022 -0.9473  0.4131 -0.5267
  330MOL0     C45415   9.260   7.895   2.920  0.7183 -0.7431 -0.2827
  330MOL0     C45416   9.123   7.938   2.855 -0.5178  0.1629  0.3334
  330MOL0     C45417   9.142   8.077   2.787 -0.5669  0.2532 -0.6185
  330MOL0     C45418   9.238   8.097   2.669 -0.1802  0.5623 -0.0409
  330MOL0     N45419   9.378   8.092   2.709 -0.0411 -0.0524  0.4080
  330MOL0     C45420   9.481   8.044   2.634  0.4655  0.4451  0.4756
  330MOL0     C45421   9.592   8.078   2.695 -0.4718 -0.1674  0.0461
  330MOL0     C45422   9.733   8.062   2.633  0.7618  0.2824  0.0509
  330MOL0     C45423   9.818   7.989   2.741  0.4808 -0.4988  0.9093
  330MOL0     C45424   9.947   7.933   2.683  0.2309 -0.1064  0.2959
  330MOL0     C45425  10.017   8.013   2.576 -0.5019  0.1362  0.2718
  330MOL0     O45426  10.071   8.145   2.626 -0.2637  0.7901  0.4466
  330MOL0     C45427  10.183   8.191   2.566  0.2238 -0.6801  0.1932
  330MOL0     C45428  10.267   8.266   2.644  0.0862 -1.1854  0.1439
  330MOL0     C45429  10.386   8.318   2.594  1.1596 -0.3309  0.5350
  330MOL0     C45430  10.466   8.381   2.702 -0.1322 -0.7086  0.1293
  330MOL0     C45431  10.423   8.296   2.455 -0.2428 -0.2130  0.8211
  330MOL0     C45432  10.544   8.343   2.382 -0.3581 -0.2990 -0.1778
  330MOL0     O45433  10.607   8.443   2.457  0.6795  0.7390 -0.1902
  330MOL0     C45434  10.717   8.506   2.404 -0.3676  0.4710  0.0344
  330MOL0     C45435  10.730   8.640   2.427 -0.2546 -0.3155  0.3478
  330MOL0     C45436  10.827   8.720   2.366  0.9222  0.1719 -0.5621
  330MOL0     C45437  10.921   8.659   2.285 -0.1451  0.9687  0.8256
  330MOL0     O45438  11.023   8.735   2.225 -0.1435  0.5064 -0.3051
  330MOL0     C45439  11.120   8.667   2.137  0.0807  1.1663 -0.1884
  330MOL0     C45440  11.198   8.774   2.059 -0.5101  0.9266  0.5731
  330MOL0     C45441  11.310   8.853   2.134 -0.1460 -0.8352  1.4411
  330MOL0     C45442  11.402   8.784   2.233  0.4024  0.3670  1.4256
  330MOL0     C45443  11.495   8.870   2.329 -0.6065  0.4529  0.8730
  330MOL0     C45444  11.566   8.771   2.423 -0.3694  0.2021  0.0617
  330MOL0     C45445  11.658   8.853   2.516  0.7286 -0.1666 -0.0204
  330MOL0     C45446  11.694   8.776   2.634  0.5717 -0.6184  0.2218
  330MOL0    Cl45447  11.831   8.868   2.712 -0.5280  0.1410  0.3380
  330MOL0     C45448  10.920   8.520   2.266  0.8218 -0.2625  0.4000
  330MOL0     C45449  10.817   8.444   2.321  1.1561  0.4783 -0.1318
  330MOL0     O45450  10.579   8.301   2.271  0.1322  0.2859 -0.4913
  330MOL0     C45451  10.339   8.216   2.378  0.3576  1.2250 -0.5599
  330MOL0     C45452  10.218   8.165   2.435  0.4311 -0.8736  0.7893
  330MOL0     N45453   9.562   8.147   2.814 -0.2804  0.5191 -0.5879
  330MOL0     N45454   9.428   8.165   2.816  0.0458 -0.3056  0.8008
  330MOL0     C45455   8.821   7.391   3.044 -0.0294 -0.2386 -1.0288
  330MOL0     C45456   8.683   7.402   3.078  0.4189  1.3788 -0.0710
  330MOL0     C45457   8.299   7.501   3.281 -0.6286  0.6378  0.4815
  330MOL0     C45458   8.230   7.414   3.368  0.0154 -0.8389  0.2114
  330MOL0     C45459   8.096   7.433   3.395 -0.2003 -0.5031 -0.4308
  330MOL0     C45460   8.018   7.526   3.320 -0.3904 -0.2917 -0.2554
  330MOL0     O45461   7.886   7.529   3.350  0.4444 -0.4854  0.1911
  330MOL0     C45462   7.799   7.581   3.254  0.3679  0.1525 -0.5034
  330MOL0     C45463   7.656   7.517   3.270 -0.4888 -0.2480  0.2966
  330MOL0     C45464   7.605   7.560   3.406  0.0052  0.4124  0.2755
  330MOL0     C45465   7.462   7.518   3.424 -0.2096  1.0237  0.5140
  330MOL0     C45466   7.428   7.381   3.372 -0.1479  0.4727  0.3456
  330MOL0     C45467   7.393   7.272   3.331  0.4209  0.0600 -0.2668
  330MOL0     C45468   8.090   7.605   3.236  0.1962 -0.8745 -0.1062
  330MOL0     C45469   8.225   7.592   3.211 -0.5153  0.2764 -0.3854
  330MOL0     C45470   8.277   7.682   3.104 -0.7171  0.1194 -0.8450
  330MOL0     H45471   8.723   7.719   3.220  1.3401 -0.0493  0.6303
  330MOL0     H45472   8.940   7.682   3.163 -0.7603  2.2385 -0.2209
  330MOL0     H45473   9.142   7.394   3.191  0.9347 -0.2834 -1.8956
  330MOL0     H45474   9.113   7.578   3.189  0.4956  0.4725  0.0530
  330MOL0     H45475   9.351   7.546   3.121 -0.3032  0.7050  0.9524
  330MOL0     H45476   9.297   7.439   2.987  1.0323  1.8078 -1.2190
  330MOL0     H45477   9.339   7.630   2.894  0.3117 -1.2038 -0.1995
  330MOL0     H45478   9.154   7.632   2.904  0.3679 -0.0916 -0.4712
  330MOL0     H45479   9.158   7.776   3.085  0.7931  0.6848  2.1076
  330MOL0     H45480   9.333   7.765   3.091 -0.3427  0.3776 -1.2623
  330MOL0     H45481   9.345   7.878   2.853 -0.3040  0.4886 -1.9692
  330MOL0     H45482   9.292   7.986   2.971  0.8040  1.6630 -4.2247
  330MOL0     H45483   9.081   7.864   2.785  0.0948  1.8280 -1.9273
  330MOL0     H45484   9.048   7.973   2.927 -1.3398  2.4532 -1.4678
  330MOL0     H45485   9.166   8.152   2.862  0.8580 -0.9993  0.2256
  330MOL0     H45486   9.041   8.101   2.752 -0.7093  0.3376 -0.1582
  330MOL0     H45487   9.213   8.022   2.594 -1.0139  0.6316  0.1625
  330MOL0     H45488   9.217   8.195   2.624 -0.2785  0.0405 -1.1447
  330MOL0     H45489   9.475   8.002   2.534  2.0538 -0.7052  0.8187
  330MOL0     H45490   9.770   8.161   2.606 -0.8448  1.6470  2.4768
  330MOL0     H45491   9.720   8.004   2.540 -1.9527  0.9131 -0.0653
  330MOL0     H45492   9.831   8.069   2.815  1.0801  0.0151  0.2619
  330MOL0     H45493   9.758   7.910   2.788  0.0785  0.0261  1.2943
  330MOL0     H45494  10.007   7.899   2.769  1.1412 -3.5346 -1.5180
  330MOL0     H45495   9.920   7.839   2.633 -2.1830  0.9862 -0.5981
  330MOL0     H45496  10.090   7.948   2.526 -1.0423  0.5441 -1.0823
  330MOL0     H45497   9.946   8.038   2.497  1.1729  0.4356 -1.1971
  330MOL0     H45498  10.252   8.264   2.751  1.3260  1.4596  0.4458
  330MOL0     H45499  10.440   8.336   2.799 -1.7574 -0.2720 -0.0770
  330MOL0     H45500  10.431   8.484   2.711  1.3325 -0.1614 -0.1506
  330MOL0     H45501  10.575   8.379   2.689 -0.2986 -0.6903 -1.3773
  330MOL0     H45502  10.664   8.693   2.494 -1.4209  0.9574 -1.7003
  330MOL0     H45503  10.829   8.827   2.381  2.1033  0.0277  0.4618
  330MOL0     H45504  11.188   8.601   2.192 -0.8898 -1.5571 -2.0062
  330MOL0     H45505  11.070   8.600   2.067 -0.6064 -1.7794  2.8459
  330MOL0     H45506  11.239   8.716   1.975 -2.6778 -1.0475  0.7601
  330MOL0     H45507  11.126   8.847   2.020 -1.7619  0.7578  2.4537
  330MOL0     H45508  11.260   8.945   2.166  0.6766  0.6995 -1.3616
  330MOL0     H45509  11.376   8.903   2.063  0.1615  3.1427  4.1833
  330MOL0     H45510  11.469   8.727   2.167  0.5596  0.7385  1.2635
  330MOL0     H45511  11.343   8.710   2.289  0.1502 -0.5262  0.0308
  330MOL0     H45512  11.576   8.911   2.269 -0.3597 -0.6266  0.4370
  330MOL0     H45513  11.434   8.948   2.375 -2.7617  0.1669 -1.2597
  330MOL0     H45514  11.619   8.691   2.372 -3.2570 -0.4595 -2.1615
  330MOL0     H45515  11.492   8.731   2.493 -0.2519  3.2751  2.1425
  330MOL0     H45516  11.605   8.946   2.541 -0.2681 -0.9584  0.8939
  330MOL0     H45517  11.752   8.882   2.468  1.5443  1.4508  2.3624
  330MOL0     H45518  11.720   8.673   2.609  1.5438 -0.4651  0.5547
  330MOL0     H45519  11.608   8.782   2.701  0.8196 -0.0967  0.4988
  330MOL0     H45520  11.003   8.466   2.222  2.9575  0.8195  2.8033
  330MOL0     H45521  10.816   8.340   2.290  0.0371  0.4251  0.0122
  330MOL0     H45522  10.365   8.181   2.278  0.2801 -0.3244 -0.0668
  330MOL0     H45523  10.157   8.103   2.370 -1.5991  0.2821  1.5129
  330MOL0     H45524   8.869   7.303   3.004  0.9727  0.9024 -2.4297
  330MOL0     H45525   8.609   7.325   3.059 -0.7102  2.8221 -1.8693
  330MOL0     H45526   8.278   7.332   3.420 -1.3147 -1.0524  1.1480
  330MOL0     H45527   8.062   7.356   3.463 -0.0451 -0.2488 -0.0626
  330MOL0     H45528   7.788   7.689   3.271 -3.3392  0.1287 -1.9305
  330MOL0     H45529   7.834   7.566   3.152  1.2507  0.4080 -0.2573
  330MOL0     H45530   7.673   7.409   3.265 -1.4519 -0.3719 -0.4086
  330MOL0     H45531   7.584   7.555   3.197  0.1782 -1.9892 -1.3755
  330MOL0     H45532   7.665   7.497   3.472 -1.0708 -3.2012 -1.9217
  330MOL0     H45533   7.623   7.665   3.432 -0.9946  1.3415 -2.4080
  330MOL0     H45534   7.415   7.589   3.356 -0.4735 -0.8231 -1.3449
  330MOL0     H45535   7.437   7.529   3.530  1.0308 -0.0304  0.9432
  330MOL0     H45536   7.345   7.182   3.298  1.6437 -0.5172 -0.5425
  330MOL0     H45537   8.032   7.683   3.187  0.6454  0.4973  1.4393
  330MOL0     H45538   8.200   7.756   3.079 -0.6174  0.3118 -0.5898
  330MOL0     H45539   8.358   7.742   3.145 -1.3320 -0.5359  1.4624
  330MOL0     H45540   8.304   7.626   3.014 -0.0214  0.2333 -0.7124
  331MOL0     O45541   7.567   4.471   3.282 -0.6270  0.2975  0.2423
  331MOL0     C45542   7.566   4.592   3.291 -0.0766  0.2902  0.5288
  331MOL0     O45543   7.661   4.667   3.359 -0.1053 -0.2502 -0.0729
  331MOL0     C45544   7.712   4.609   3.477  0.7640  0.3903  0.3997
  331MOL0     C45545   7.659   4.495   3.546  0.5466 -0.0450  0.3281
  331MOL0     C45546   7.714   4.438   3.666  1.1180 -0.7103  0.5647
  331MOL0     C45547   7.831   4.488   3.712  0.4452 -0.2436 -0.0905
  331MOL0     O45548   7.905   4.443   3.820  0.2808  0.8702  0.8104
  331MOL0     C45549   7.869   4.324   3.887  0.7616 -0.4218  0.2754
  331MOL0     C45550   7.997   4.248   3.934  0.4115  0.0037  0.9589
  331MOL0     C45551   8.029   4.318   4.060 -0.6647  0.2917 -0.3109
  331MOL0     C45552   8.158   4.274   4.122  0.5418  0.3528 -0.1129
  331MOL0     C45553   8.170   4.336   4.262  0.1116  0.4073 -0.1801
  331MOL0     C45554   8.293   4.295   4.339  0.4861 -1.4071  0.3642
  331MOL0     C45555   8.417   4.369   4.294  0.5128  0.4988 -0.7589
  331MOL0     C45556   8.406   4.521   4.286 -0.1533 -0.0109 -0.3044
  331MOL0     N45557   8.529   4.584   4.329  0.0223 -0.0131 -1.2781
  331MOL0     C45558   8.660   4.552   4.292  0.9473  0.1031  0.3106
  331MOL0     C45559   8.742   4.592   4.390 -0.0334 -0.7635 -0.0089
  331MOL0     C45560   8.888   4.566   4.392 -0.4843 -1.0554  0.0490
  331MOL0     C45561   8.948   4.512   4.520 -0.2708 -0.9276 -0.0729
  331MOL0     C45562   8.879   4.381   4.555  0.6580  0.1114 -0.2197
  331MOL0     C45563   8.967   4.273   4.616 -0.0261 -0.7470 -0.0536
  331MOL0     O45564   9.018   4.312   4.743 -0.3596 -0.9055  0.4562
  331MOL0     C45565   9.137   4.251   4.783 -0.5210  0.6606 -0.1591
  331MOL0     C45566   9.224   4.329   4.860  0.3660 -0.0979  0.1680
  331MOL0     C45567   9.346   4.288   4.894  0.6408  0.0808  0.2762
  331MOL0     C45568   9.435   4.384   4.965  0.1474  0.0017 -0.4753
  331MOL0     C45569   9.389   4.153   4.864 -0.1378 -0.1324  0.0518
  331MOL0     C45570   9.522   4.101   4.907 -0.3676  0.3376 -0.1642
  331MOL0     O45571   9.533   3.967   4.954 -0.1284  0.0646 -0.7302
  331MOL0     C45572   9.661   3.922   4.962  0.7948 -0.5282  0.3414
  331MOL0     C45573   9.707   3.842   4.865  0.3524  0.5347  0.1322
  331MOL0     C45574   9.838   3.792   4.876  0.0714 -0.9485 -0.1138
  331MOL0     C45575   9.916   3.816   4.995  0.9473  0.1871 -0.3208
  331MOL0     O45576  10.028   3.735   5.013  0.4887  0.6705  0.2493
  331MOL0     C45577  10.097   3.732   5.141 -0.7067 -0.0801  0.0585
  331MOL0     C45578  10.188   3.854   5.149  0.9620 -0.1200  1.0194
  331MOL0     C45579  10.325   3.814   5.085 -0.1427  0.1287  0.3049
  331MOL0     C45580  10.407   3.748   5.195 -1.2168  0.1361 -0.4052
  331MOL0     C45581  10.532   3.674   5.146 -0.4427 -0.0591  0.6633
  331MOL0     C45582  10.631   3.629   5.256 -0.9871 -0.6583 -0.3482
  331MOL0     C45583  10.771   3.624   5.193  0.0849 -0.1697  0.5876
  331MOL0     C45584  10.870   3.543   5.277  0.5859  0.9619  0.3732
  331MOL0    Cl45585  10.917   3.600   5.430  0.5395 -0.1536  0.0095
  331MOL0     C45586   9.854   3.897   5.098 -1.1159 -0.8898  1.3764
  331MOL0     C45587   9.724   3.947   5.086 -0.9926  0.0394 -0.1499
  331MOL0     O45588   9.616   4.179   4.897  0.7500  0.3321  0.5714
  331MOL0     C45589   9.310   4.070   4.783  0.5162 -0.5378 -0.5547
  331MOL0     C45590   9.180   4.114   4.749  0.1070 -0.1951  0.0191
  331MOL0     N45591   8.664   4.645   4.491 -0.0989 -0.6652  0.0993
  331MOL0     N45592   8.532   4.646   4.452 -0.1394  0.0703  0.9106
  331MOL0     C45593   7.882   4.596   3.647  0.2570  0.5787 -0.5524
  331MOL0     C45594   7.826   4.659   3.534  0.4411  0.4806 -0.0246
  331MOL0     C45595   7.461   4.668   3.213  0.3031  0.0217 -0.3066
  331MOL0     C45596   7.478   4.809   3.199 -1.2281 -0.2455 -0.2959
  331MOL0     C45597   7.382   4.892   3.139 -0.0664  0.4247  0.5207
  331MOL0     C45598   7.268   4.834   3.082  0.4598  0.6923  0.0297
  331MOL0     O45599   7.166   4.911   3.029 -0.3917 -0.6057 -0.2321
  331MOL0     C45600   7.157   5.045   3.090  0.1130 -0.3827  0.2650
  331MOL0     C45601   7.021   5.105   3.052 -0.1679  0.1651 -0.9144
  331MOL0     C45602   6.907   5.038   3.139 -1.3338  0.1740 -0.1377
  331MOL0     C45603   6.776   5.114   3.146 -0.7535  0.6236  0.0452
  331MOL0     C45604   6.686   5.045   3.241  0.4245  0.9488 -0.3271
  331MOL0     C45605   6.604   4.994   3.314  0.9161  0.0193 -0.2367
  331MOL0     C45606   7.253   4.699   3.089 -0.0127  0.0800  0.0196
  331MOL0     C45607   7.348   4.610   3.146  1.1267  0.1630 -0.4715
  331MOL0     C45608   7.316   4.460   3.134 -0.0142 -0.8382  0.5814
  331MOL0     H45609   7.560   4.455   3.524  1.0055 -0.7188 -0.5928
  331MOL0     H45610   7.655   4.362   3.716 -0.3338  1.4348  2.2628
  331MOL0     H45611   7.815   4.252   3.825  2.1752 -0.3385 -1.1162
  331MOL0     H45612   7.814   4.362   3.974  2.4355 -1.2555  1.7582
  331MOL0     H45613   7.976   4.145   3.965 -3.9117  0.0976 -1.0017
  331MOL0     H45614   8.082   4.254   3.866  0.9099  0.9780  1.6441
  331MOL0     H45615   8.048   4.423   4.031  0.9191  0.0694 -0.1866
  331MOL0     H45616   7.947   4.319   4.132 -1.5984 -0.3452 -1.3269
  331MOL0     H45617   8.172   4.166   4.131  3.4207  0.8150  4.3072
  331MOL0     H45618   8.245   4.306   4.064  0.9252 -0.4703 -0.0069
  331MOL0     H45619   8.092   4.298   4.328  0.5445 -0.9824 -0.4409
  331MOL0     H45620   8.162   4.445   4.254  0.8670  0.5084  0.3365
  331MOL0     H45621   8.280   4.333   4.441  0.4136 -0.3250 -0.0325
  331MOL0     H45622   8.304   4.186   4.331 -0.0619 -1.7756  3.4903
  331MOL0     H45623   8.446   4.327   4.197  0.6237 -2.9889  0.6362
  331MOL0     H45624   8.492   4.327   4.362 -1.1711 -2.4683 -0.5775
  331MOL0     H45625   8.391   4.547   4.181  4.2916  0.2145 -1.0676
  331MOL0     H45626   8.318   4.540   4.348 -1.5172  0.8306 -2.3909
  331MOL0     H45627   8.683   4.487   4.209  2.2995  1.1235 -0.1525
  331MOL0     H45628   8.935   4.656   4.351  0.0878  0.6344  3.9512
  331MOL0     H45629   8.901   4.493   4.312 -3.2684  0.5778 -2.0717
  331MOL0     H45630   9.054   4.489   4.509 -0.5277 -2.5026  0.5109
  331MOL0     H45631   8.946   4.589   4.597  3.2147  0.8723 -1.5430
  331MOL0     H45632   8.793   4.404   4.618 -1.4050 -0.0352 -2.7964
  331MOL0     H45633   8.840   4.334   4.464  0.0181  2.6766 -1.3804
  331MOL0     H45634   8.913   4.177   4.623 -0.2623 -0.6365 -0.3160
  331MOL0     H45635   9.039   4.258   4.535  1.0867  0.0465  0.7696
  331MOL0     H45636   9.188   4.427   4.891  0.7204 -0.8162  3.1229
  331MOL0     H45637   9.501   4.431   4.891  1.5595 -0.5724  0.3654
  331MOL0     H45638   9.500   4.345   5.044  1.7115  1.2907 -1.0584
  331MOL0     H45639   9.373   4.457   5.018 -0.8256 -1.2181  0.1285
  331MOL0     H45640   9.641   3.828   4.780 -0.2153  0.6866  0.5383
  331MOL0     H45641   9.884   3.730   4.799  1.0518 -1.5847  0.9633
  331MOL0     H45642  10.018   3.735   5.216 -0.8697  1.3586 -0.1306
  331MOL0     H45643  10.160   3.643   5.147  0.3968  0.6836  0.2401
  331MOL0     H45644  10.153   3.939   5.089  0.4695  1.0484  2.8722
  331MOL0     H45645  10.188   3.884   5.255 -2.4039 -2.1825  1.7443
  331MOL0     H45646  10.368   3.904   5.042  0.9309 -1.0573 -1.1815
  331MOL0     H45647  10.311   3.743   5.003 -1.2990 -1.6408  1.9216
  331MOL0     H45648  10.341   3.672   5.239  1.1504 -3.6780 -2.8946
  331MOL0     H45649  10.439   3.822   5.269  0.5240 -0.5772 -0.3985
  331MOL0     H45650  10.503   3.582   5.092 -1.2605  0.5464  0.0441
  331MOL0     H45651  10.578   3.732   5.066 -1.6107 -0.5457 -0.4079
  331MOL0     H45652  10.598   3.532   5.295 -0.3931 -0.0648  1.7868
  331MOL0     H45653  10.630   3.698   5.341 -2.5407  1.4170 -1.9424
  331MOL0     H45654  10.806   3.726   5.176 -0.2554  0.4301  3.0628
  331MOL0     H45655  10.763   3.574   5.096  2.6300  0.3485  0.0286
  331MOL0     H45656  10.963   3.522   5.224 -1.4084 -1.5008 -2.5543
  331MOL0     H45657  10.823   3.444   5.283  0.4226  1.0324  0.2891
  331MOL0     H45658   9.927   3.913   5.177  1.9055 -0.0215 -1.3593
  331MOL0     H45659   9.683   4.009   5.165 -1.0594 -0.3210  0.0979
  331MOL0     H45660   9.345   3.976   4.743 -0.3546 -0.8645 -0.5783
  331MOL0     H45661   9.104   4.063   4.690  0.1394  1.5730 -1.6691
  331MOL0     H45662   7.976   4.642   3.676  1.7934 -2.6468  0.1001
  331MOL0     H45663   7.867   4.750   3.492 -1.0111  1.9969  1.6847
  331MOL0     H45664   7.557   4.866   3.245 -1.3947 -2.2428  2.7635
  331MOL0     H45665   7.399   4.999   3.136  0.0268  0.4513  1.5737
  331MOL0     H45666   7.172   5.037   3.198 -0.8642 -2.8562  0.2746
  331MOL0     H45667   7.234   5.106   3.042  2.2488 -0.7558  2.9888
  331MOL0     H45668   6.998   5.095   2.946  1.4711 -1.2334 -1.1829
  331MOL0     H45669   7.024   5.210   3.083  1.2287 -0.3627  0.9417
  331MOL0     H45670   6.894   4.934   3.108 -1.4140 -0.5224  2.0615
  331MOL0     H45671   6.941   5.024   3.242 -3.0245 -1.5846  0.2202
  331MOL0     H45672   6.730   5.117   3.047  2.8226 -2.1835 -1.9140
  331MOL0     H45673   6.796   5.216   3.182 -0.8326  0.2649  1.1512
  331MOL0     H45674   6.538   4.940   3.379  0.4935  1.5332  0.6367
  331MOL0     H45675   7.164   4.660   3.040  0.6268 -0.7793 -0.4740
  331MOL0     H45676   7.305   4.406   3.229  0.4258 -1.9770 -0.0071
  331MOL0     H45677   7.229   4.435   3.073  0.4907  2.0979 -1.5450
  331MOL0     H45678   7.398   4.409   3.083 -1.2220 -0.9877 -1.3170
  332MOL0     O45679  10.829   8.885   4.466  0.0175 -0.4056  0.2331
  332MOL0     C45680  10.733   8.956   4.484 -0.5017 -0.8873  0.0345
  332MOL0     O45681  10.716   9.081   4.432  0.6840 -0.1721  0.0897
  332MOL0     C45682  10.829   9.148   4.404  0.4873 -0.3457  0.1645
  332MOL0     C45683  10.861   9.199   4.284 -0.3659  0.5061  0.6500
  332MOL0     C45684  10.963   9.288   4.273 -0.2584 -0.4552  0.0403
  332MOL0     C45685  11.041   9.321   4.389  0.3040 -0.5340  0.5146
  332MOL0     O45686  11.138   9.415   4.380 -0.9111  0.2370 -0.4245
  332MOL0     C45687  11.085   9.544   4.423 -0.0746 -0.8829  0.0492
  332MOL0     C45688  11.173   9.667   4.389  0.6676  0.1109  0.8285
  332MOL0     C45689  11.317   9.659   4.445  0.3890 -0.8031  0.5306
  332MOL0     C45690  11.370   9.800   4.459 -1.1161 -0.2523 -0.1350
  332MOL0     C45691  11.508   9.814   4.531  0.0381 -0.0181  1.0167
  332MOL0     C45692  11.585   9.945   4.511  0.2918 -0.2245  0.3023
  332MOL0     C45693  11.527  10.065   4.592  0.4187  0.4629  0.9068
  332MOL0     C45694  11.620  10.181   4.601  0.3643  0.0745 -0.1410
  332MOL0     N45695  11.561  10.290   4.686  0.4210  0.1277 -0.2974
  332MOL0     C45696  11.433  10.340   4.674  0.0541  0.1755 -0.1341
  332MOL0     C45697  11.432  10.439   4.768  0.0813  0.6288 -0.3367
  332MOL0     C45698  11.326  10.529   4.804  0.3066  0.0037  0.2424
  332MOL0     C45699  11.182  10.459   4.809 -0.3255  0.0552 -0.4104
  332MOL0     C45700  11.092  10.573   4.856  0.1163 -0.1301  0.0890
  332MOL0     C45701  10.955  10.547   4.807 -0.1179 -0.0490  0.4061
  332MOL0     O45702  10.854  10.638   4.854 -0.6326 -0.2301 -0.0113
  332MOL0     C45703  10.732  10.620   4.803  0.8012 -0.3340 -0.0412
  332MOL0     C45704  10.681  10.496   4.748 -0.5477 -0.1272 -0.3329
  332MOL0     C45705  10.548  10.490   4.698  0.0424  1.2356  0.0292
  332MOL0     C45706  10.509  10.349   4.662  0.3786  0.4738 -0.1120
  332MOL0     C45707  10.461  10.600   4.712 -0.0889  0.8099  1.2210
  332MOL0     C45708  10.321  10.602   4.651  0.0344 -0.1094  0.4127
  332MOL0     O45709  10.244  10.709   4.682 -0.0500  0.8348 -0.5900
  332MOL0     C45710  10.108  10.707   4.659 -0.6821  0.7422 -0.5495
  332MOL0     C45711  10.056  10.827   4.648  1.2053  0.5055  0.0227
  332MOL0     C45712   9.918  10.852   4.624 -0.2656  0.1271  0.1358
  332MOL0     C45713   9.835  10.737   4.619  0.2540 -0.0378  0.3543
  332MOL0     O45714   9.695  10.746   4.626 -0.1609 -0.2133  0.6226
  332MOL0     C45715   9.637  10.869   4.581  0.7027  0.4202 -0.6930
  332MOL0     C45716   9.483  10.855   4.573 -0.2173 -0.1569  0.1481
  332MOL0     C45717   9.433  10.963   4.471  0.0613  0.1403  0.2764
  332MOL0     C45718   9.464  10.936   4.317 -0.2436  0.2169  0.4605
  332MOL0     C45719   9.340  10.971   4.231  0.1418 -0.0481 -0.3491
  332MOL0     C45720   9.358  10.919   4.087  0.9608 -0.8305  0.3759
  332MOL0     C45721   9.261  10.970   3.989 -0.5539 -0.5162  0.7802
  332MOL0     C45722   9.330  10.981   3.850  0.6054 -0.2648  0.8122
  332MOL0    Cl45723   9.198  10.999   3.731 -0.0451 -0.1128  0.1676
  332MOL0     C45724   9.890  10.611   4.624  0.1117 -0.6546  0.1880
  332MOL0     C45725  10.021  10.603   4.644 -0.4078 -0.4005 -0.3187
  332MOL0     O45726  10.287  10.512   4.576  0.1958 -0.4530  0.2241
  332MOL0     C45727  10.505  10.720   4.775 -0.5756 -0.4486 -0.5192
  332MOL0     C45728  10.637  10.729   4.817 -0.6400  0.6381 -0.1042
  332MOL0     N45729  11.556  10.447   4.834 -0.2432 -0.0893 -0.0083
  332MOL0     N45730  11.629  10.359   4.780  0.2021  0.5296 -0.5794
  332MOL0     C45731  11.012   9.263   4.512 -0.4630  0.5715 -0.3251
  332MOL0     C45732  10.905   9.178   4.517 -0.5964  0.2500  0.4219
  332MOL0     C45733  10.613   8.877   4.536  0.4111 -1.1580 -0.4924
  332MOL0     C45734  10.510   8.957   4.586  0.3029 -0.0165  0.3080
  332MOL0     C45735  10.395   8.901   4.639  0.0187 -0.1567 -1.0348
  332MOL0     C45736  10.377   8.764   4.650 -0.3606 -0.1972  0.5595
  332MOL0     O45737  10.278   8.700   4.713  0.4793  0.2415  0.2643
  332MOL0     C45738  10.176   8.781   4.765  0.5440  0.7444 -0.2243
  332MOL0     C45739  10.085   8.678   4.831  0.1428  0.4279 -0.0985
  332MOL0     C45740   9.989   8.751   4.922 -0.6917  0.1529  0.2488
  332MOL0     C45741   9.884   8.655   4.965  0.1346 -0.5229 -0.3985
  332MOL0     C45742   9.799   8.726   5.070 -0.5422  0.4534  0.9275
  332MOL0     C45743   9.741   8.792   5.151  0.4222 -0.2593  0.1632
  332MOL0     C45744  10.487   8.684   4.604 -0.1249  0.3179 -0.2375
  332MOL0     C45745  10.596   8.738   4.545 -0.8391 -0.5170 -0.1289
  332MOL0     C45746  10.700   8.641   4.500 -0.4568  0.9550  0.4290
  332MOL0     H45747  10.809   9.160   4.197  2.7264 -3.4569  0.2721
  332MOL0     H45748  10.998   9.328   4.179  1.6400 -2.8639 -0.3594
  332MOL0     H45749  11.067   9.537   4.531  2.6615 -0.2366  0.6251
  332MOL0     H45750  10.986   9.563   4.379 -0.3396 -0.7327  0.6927
  332MOL0     H45751  11.184   9.661   4.280 -2.3126 -1.7651  0.5116
  332MOL0     H45752  11.122   9.754   4.431  0.2835  1.1045 -1.5616
  332MOL0     H45753  11.316   9.616   4.545  1.2350  0.8374  1.2816
  332MOL0     H45754  11.376   9.596   4.377 -1.4513  1.6053 -3.7250
  332MOL0     H45755  11.376   9.851   4.362 -0.0495  1.9536  1.0026
  332MOL0     H45756  11.304   9.866   4.516 -0.1528 -0.9802  1.9434
  332MOL0     H45757  11.570   9.741   4.478  1.1755  1.3903  0.3490
  332MOL0     H45758  11.497   9.789   4.637  2.0489  0.5814  1.4194
  332MOL0     H45759  11.687   9.925   4.547  1.1284  0.5235 -1.5183
  332MOL0     H45760  11.594   9.970   4.405 -1.5042 -1.2765 -0.1273
  332MOL0     H45761  11.501  10.029   4.693 -2.4297 -3.0662 -0.8437
  332MOL0     H45762  11.445  10.100   4.529  1.5633 -2.3678 -2.4492
  332MOL0     H45763  11.713  10.147   4.647  0.1074 -3.4234 -1.8773
  332MOL0     H45764  11.652  10.224   4.505  0.9237  3.0571  1.2685
  332MOL0     H45765  11.356  10.316   4.601  0.3045 -0.8724 -0.0659
  332MOL0     H45766  11.333  10.606   4.727  1.1136 -1.8623 -1.6429
  332MOL0     H45767  11.347  10.571   4.903  1.0384 -0.1748  0.1687
  332MOL0     H45768  11.161  10.418   4.709  1.1688 -0.3690 -0.5779
  332MOL0     H45769  11.179  10.376   4.880  0.8824 -0.1438 -0.5592
  332MOL0     H45770  11.092  10.591   4.964 -1.6184  1.6189 -0.1630
  332MOL0     H45771  11.129  10.670   4.821  1.1753 -0.8213 -0.7815
  332MOL0     H45772  10.962  10.547   4.698  0.6804  0.4150  0.4412
  332MOL0     H45773  10.921  10.449   4.842 -1.1957 -1.2558 -3.5115
  332MOL0     H45774  10.744  10.408   4.751 -0.8046 -0.3265 -0.7554
  332MOL0     H45775  10.522  10.330   4.555 -3.2375  3.2159 -1.2411
  332MOL0     H45776  10.404  10.325   4.680 -0.0475  1.1652 -1.5687
  332MOL0     H45777  10.556  10.266   4.716 -2.8322 -2.0317 -0.8543
  332MOL0     H45778  10.117  10.914   4.670 -1.0537  1.7765  1.6625
  332MOL0     H45779   9.878  10.953   4.630  0.1466  0.2290  2.2429
  332MOL0     H45780   9.656  10.949   4.653  1.7237 -1.0579  0.7551
  332MOL0     H45781   9.683  10.903   4.488 -0.3821  0.0753 -1.3721
  332MOL0     H45782   9.457  10.757   4.532  0.2725 -0.2349  0.0230
  332MOL0     H45783   9.432  10.863   4.670  0.3658 -1.1914  0.5533
  332MOL0     H45784   9.466  11.061   4.507 -0.2623  0.1250  0.6197
  332MOL0     H45785   9.325  10.957   4.482  0.3391 -0.2620  3.8114
  332MOL0     H45786   9.495  10.831   4.314  0.9550  0.5602  0.3648
  332MOL0     H45787   9.543  11.006   4.289 -1.6976  2.8824  2.5818
  332MOL0     H45788   9.256  10.922   4.282 -0.4851 -1.2051 -2.3962
  332MOL0     H45789   9.330  11.079   4.242  0.4011 -0.1530  1.1967
  332MOL0     H45790   9.341  10.811   4.082  2.4063 -1.1076  0.8474
  332MOL0     H45791   9.458  10.950   4.055  0.3882  0.2572 -0.4243
  332MOL0     H45792   9.226  11.072   4.009  0.2581  0.1760 -1.1645
  332MOL0     H45793   9.188  10.888   3.994 -0.9295 -0.1338  2.1471
  332MOL0     H45794   9.385  10.889   3.829  0.1204 -0.2514 -0.6020
  332MOL0     H45795   9.393  11.070   3.844  2.1261 -1.3716 -0.7531
  332MOL0     H45796   9.826  10.523   4.624  0.9061 -1.3298 -2.6075
  332MOL0     H45797  10.066  10.508   4.669 -2.4523 -1.9632 -2.1283
  332MOL0     H45798  10.435  10.802   4.785 -2.5977 -2.1484 -0.0906
  332MOL0     H45799  10.654  10.827   4.861  1.1395  0.9175 -1.2852
  332MOL0     H45800  11.061   9.296   4.602 -0.5755 -2.0502  0.7869
  332MOL0     H45801  10.876   9.151   4.617 -1.9490  2.9781  0.8739
  332MOL0     H45802  10.510   9.066   4.595 -0.2064  0.0263 -0.1487
  332MOL0     H45803  10.323   8.970   4.682 -0.7705 -1.6786  0.1774
  332MOL0     H45804  10.223   8.837   4.847 -3.9664  2.3198  1.5995
  332MOL0     H45805  10.125   8.848   4.695  0.4325  1.3479  0.4228
  332MOL0     H45806  10.145   8.615   4.897 -0.2613  3.0516  3.0564
  332MOL0     H45807  10.024   8.628   4.755  0.8744  0.5461 -0.7811
  332MOL0     H45808  10.054   8.791   5.000 -0.4500 -0.5991  0.4459
  332MOL0     H45809   9.934   8.833   4.875 -1.4875 -1.3049 -1.5155
  332MOL0     H45810   9.932   8.566   5.007  1.5068  1.2758  2.1178
  332MOL0     H45811   9.826   8.624   4.878  0.2222  0.4654 -0.8124
  332MOL0     H45812   9.698   8.847   5.232  1.8036  0.9869  0.0858
  332MOL0     H45813  10.476   8.577   4.618  2.2723 -0.0748 -0.9298
  332MOL0     H45814  10.730   8.666   4.398 -0.7865  0.2955  0.1642
  332MOL0     H45815  10.790   8.629   4.560 -0.1222 -0.1120 -0.2556
  332MOL0     H45816  10.662   8.538   4.495  2.9194 -0.4719  1.5947
  333MOL0     O45817   8.300  10.122   8.678 -0.2004  0.2149 -0.2198
  333MOL0     C45818   8.291  10.004   8.715 -0.0280 -0.2028  0.7444
  333MOL0     O45819   8.381   9.902   8.684  0.1145 -0.7863  0.6471
  333MOL0     C45820   8.499   9.933   8.625  0.0233 -0.2330  0.0839
  333MOL0     C45821   8.580   9.843   8.547 -0.2931  0.4801 -0.2251
  333MOL0     C45822   8.706   9.872   8.499  0.1114 -0.6137  0.3693
  333MOL0     C45823   8.775   9.991   8.535  0.6321  0.0167  0.4257
  333MOL0     O45824   8.903  10.021   8.491  0.6559  0.4839 -0.0088
  333MOL0     C45825   8.987   9.910   8.466 -0.5750 -0.6583  0.1007
  333MOL0     C45826   9.127   9.976   8.473 -0.3549  0.3100 -0.0386
  333MOL0     C45827   9.233   9.871   8.437 -0.8817 -0.1788 -0.0913
  333MOL0     C45828   9.364   9.951   8.445  0.0312  0.2684  0.5363
  333MOL0     C45829   9.487   9.864   8.435  0.7837  0.2867  0.0275
  333MOL0     C45830   9.609   9.949   8.398  0.0153 -0.0618 -0.0959
  333MOL0     C45831   9.734   9.865   8.377 -0.4130 -0.5925  0.3300
  333MOL0     C45832   9.854   9.947   8.331 -0.5337  0.2325  0.0026
  333MOL0     N45833   9.957   9.865   8.268 -0.0768 -0.4542  0.5553
  333MOL0     C45834  10.037   9.906   8.172  0.1044 -0.7894  0.2804
  333MOL0     C45835  10.130   9.809   8.151  0.8331 -0.2339  0.6521
  333MOL0     C45836  10.249   9.818   8.052 -0.1418  0.5458  1.3366
  333MOL0     C45837  10.389   9.857   8.108  0.2046 -0.1113  0.0837
  333MOL0     C45838  10.513   9.852   8.015  0.3796  1.3137  0.4330
  333MOL0     C45839  10.637   9.918   8.076  0.1462  0.1226  0.0300
  333MOL0     O45840  10.741   9.891   7.978  0.4370  0.3082  0.3470
  333MOL0     C45841  10.863   9.931   8.020  0.1323  0.3895 -0.4259
  333MOL0     C45842  10.922  10.034   7.951 -0.4467 -0.1730 -0.6576
  333MOL0     C45843  11.056  10.072   7.972 -0.4600 -0.0096  0.3427
  333MOL0     C45844  11.111  10.194   7.900 -0.3346  0.3540 -0.3856
  333MOL0     C45845  11.139   9.998   8.067 -1.0500 -0.3643  0.3073
  333MOL0     C45846  11.286  10.026   8.094  0.7509 -0.5157 -0.9970
  333MOL0     O45847  11.319  10.057   8.228  0.6743  0.3309  0.5630
  333MOL0     C45848  11.456  10.057   8.259 -0.2184 -0.6446 -0.9482
  333MOL0     C45849  11.539  10.161   8.225  0.2213  0.4915 -0.0789
  333MOL0     C45850  11.677  10.147   8.245  0.1403 -0.5813  0.3811
  333MOL0     C45851  11.729  10.040   8.314  0.7081  0.5239  0.1377
  333MOL0     O45852  11.867  10.042   8.313 -0.2059 -0.6105  0.6020
  333MOL0     C45853  11.936   9.939   8.384  0.0480 -0.6928  0.1073
  333MOL0     C45854  12.089   9.950   8.373  0.0681 -0.1783 -0.2803
  333MOL0     C45855  12.143   9.874   8.252  0.2649 -0.0638  0.9032
  333MOL0     C45856  12.294   9.867   8.230  0.9116  0.0586  0.4690
  333MOL0     C45857  12.324   9.795   8.097  0.0464  0.2395  0.0540
  333MOL0     C45858  12.474   9.810   8.054  0.0229 -0.1998 -0.6293
  333MOL0     C45859  12.583   9.768   8.154 -0.2481 -0.5405 -0.0226
  333MOL0     C45860  12.591   9.620   8.153 -0.0098  0.6986  0.1539
  333MOL0    Cl45861  12.669   9.538   8.008 -0.1614 -0.3311  0.1978
  333MOL0     C45862  11.647   9.941   8.365 -0.0803  0.8556  0.5019
  333MOL0     C45863  11.514   9.953   8.334  0.4819  0.0074 -0.0965
  333MOL0     O45864  11.351  10.046   7.996  0.2006 -0.2099  0.2555
  333MOL0     C45865  11.076   9.891   8.127 -0.0264 -0.3593 -0.9080
  333MOL0     C45866  10.938   9.863   8.112 -0.3411 -0.0773 -0.6064
  333MOL0     N45867  10.109   9.709   8.241  0.2960 -0.0224  0.2422
  333MOL0     N45868  10.003   9.739   8.316 -0.3053 -0.7945 -0.9184
  333MOL0     C45869   8.703  10.073   8.626  0.2100 -0.4799 -0.8659
  333MOL0     C45870   8.569  10.047   8.663 -1.1312 -1.0433 -0.8918
  333MOL0     C45871   8.158   9.970   8.775 -0.2906  0.2161 -0.0672
  333MOL0     C45872   8.147   9.844   8.821 -0.4213 -0.1774 -0.7149
  333MOL0     C45873   8.028   9.787   8.852  0.3194  1.1258  0.5082
  333MOL0     C45874   7.901   9.854   8.828 -0.4051  0.0835  0.0868
  333MOL0     O45875   7.782   9.803   8.866 -0.3127 -0.1278  1.0491
  333MOL0     C45876   7.770   9.679   8.911  0.0741  0.4620  0.4472
  333MOL0     C45877   7.624   9.644   8.945 -0.5096  0.1944  0.9058
  333MOL0     C45878   7.550   9.764   9.016  0.3774  0.0808  0.0690
  333MOL0     C45879   7.630   9.816   9.136 -0.2357 -0.2642  0.2169
  333MOL0     C45880   7.691   9.705   9.212  0.5165  0.5027 -0.1589
  333MOL0     C45881   7.739   9.611   9.265  0.9428  0.0767 -0.8672
  333MOL0     C45882   7.917   9.985   8.784 -0.3084 -1.2545  0.9092
  333MOL0     C45883   8.045  10.048   8.766  0.5204  0.4315 -1.0178
  333MOL0     C45884   8.047  10.197   8.738  0.5974  0.2442  0.2444
  333MOL0     H45885   8.542   9.746   8.517  0.1710  0.4672 -0.7878
  333MOL0     H45886   8.743   9.796   8.430 -1.0619 -2.6043  1.8432
  333MOL0     H45887   8.972   9.863   8.367  1.7755 -2.7198  0.5987
  333MOL0     H45888   8.980   9.828   8.538  2.2257 -1.5258 -0.4901
  333MOL0     H45889   9.131  10.059   8.402 -3.5971  0.3151 -0.3422
  333MOL0     H45890   9.147  10.012   8.575 -0.1351  1.1333 -0.3642
  333MOL0     H45891   9.234   9.794   8.515  1.1102 -0.8747 -0.7667
  333MOL0     H45892   9.224   9.834   8.335  0.9233  1.5709 -0.9476
  333MOL0     H45893   9.357  10.021   8.361  0.6893  0.0629  0.2995
  333MOL0     H45894   9.372  10.012   8.535  1.5048 -0.3775  0.8680
  333MOL0     H45895   9.475   9.787   8.358 -1.7419 -1.0842  1.6558
  333MOL0     H45896   9.494   9.808   8.529 -0.2424  1.3299  0.7577
  333MOL0     H45897   9.594  10.008   8.307  0.9808  0.7515  0.2536
  333MOL0     H45898   9.628  10.018   8.480  1.7261 -1.1517  0.4917
  333MOL0     H45899   9.715   9.784   8.305  1.5519 -0.8859  0.0789
  333MOL0     H45900   9.758   9.814   8.470  0.9695  0.4479  0.5639
  333MOL0     H45901   9.819  10.020   8.258 -3.6893 -0.9768  0.1716
  333MOL0     H45902   9.885  10.011   8.414  1.5296  0.4523 -0.8748
  333MOL0     H45903  10.030  10.006   8.130  1.7936  0.0513  1.8622
  333MOL0     H45904  10.216   9.878   7.967 -1.1154 -0.7207  0.7752
  333MOL0     H45905  10.251   9.713   8.020 -1.1701  0.6123  1.0100
  333MOL0     H45906  10.379   9.963   8.135 -2.4738 -0.3126  0.0990
  333MOL0     H45907  10.411   9.799   8.197  1.0699 -1.8742 -1.2209
  333MOL0     H45908  10.528   9.747   7.992  1.6037  1.8956 -1.6751
  333MOL0     H45909  10.495   9.898   7.918  1.6847 -0.6205 -0.7726
  333MOL0     H45910  10.610  10.024   8.078 -4.1072 -0.7362 -1.4480
  333MOL0     H45911  10.665   9.894   8.179 -1.7493  0.4586  0.6566
  333MOL0     H45912  10.861  10.074   7.870  0.0225  0.0953 -0.8817
  333MOL0     H45913  11.033  10.241   7.840  0.7177  1.1075 -1.1942
  333MOL0     H45914  11.191  10.163   7.832  0.4513 -1.4601  1.2390
  333MOL0     H45915  11.141  10.259   7.982 -0.8367  0.5143 -0.3278
  333MOL0     H45916  11.500  10.248   8.173  0.9274  0.6900 -0.2905
  333MOL0     H45917  11.741  10.228   8.210 -0.9286  0.3986  0.6457
  333MOL0     H45918  11.907   9.955   8.488  0.1193  2.5269 -0.2815
  333MOL0     H45919  11.903   9.839   8.356  0.5908 -0.7337 -0.4040
  333MOL0     H45920  12.117  10.055   8.359  0.7707  0.3133  3.6458
  333MOL0     H45921  12.145   9.925   8.464 -0.6361  0.6626  0.4050
  333MOL0     H45922  12.093   9.923   8.168  2.4040  1.6714  0.5345
  333MOL0     H45923  12.105   9.772   8.262  2.0114 -0.8303  0.1662
  333MOL0     H45924  12.347   9.811   8.308  1.5646 -1.0176 -0.6954
  333MOL0     H45925  12.337   9.967   8.220  5.7658 -1.8045 -0.1962
  333MOL0     H45926  12.307   9.687   8.096 -1.4842  0.4414 -1.9009
  333MOL0     H45927  12.259   9.828   8.016 -0.5633  0.7030  0.7251
  333MOL0     H45928  12.486   9.912   8.016  0.4451  0.3787  1.0038
  333MOL0     H45929  12.490   9.750   7.964  0.3369  2.5465 -2.5178
  333MOL0     H45930  12.564   9.807   8.254  4.1114  1.2274  0.3345
  333MOL0     H45931  12.676   9.820   8.128  0.0612  0.4192  2.7336
  333MOL0     H45932  12.487   9.585   8.151  0.2120  0.0574 -1.2004
  333MOL0     H45933  12.636   9.587   8.247  0.1984 -2.9738 -1.0870
  333MOL0     H45934  11.677   9.847   8.411 -1.4693  0.4270  0.5855
  333MOL0     H45935  11.437   9.885   8.369 -1.7728  0.9761 -2.7724
  333MOL0     H45936  11.133   9.828   8.194 -0.7692 -1.5917 -1.3959
  333MOL0     H45937  10.912   9.767   8.154  2.0626 -0.5785 -0.0955
  333MOL0     H45938   8.761  10.155   8.666  2.0259 -2.0924 -0.0485
  333MOL0     H45939   8.526  10.116   8.735 -0.1075 -0.7906 -0.4902
  333MOL0     H45940   8.238   9.787   8.834  1.6714  2.9728 -0.4239
  333MOL0     H45941   8.030   9.687   8.894 -0.9424  0.0018 -1.9254
  333MOL0     H45942   7.804   9.607   8.836 -3.3714  0.0331 -0.8941
  333MOL0     H45943   7.835   9.668   8.999 -0.8723  2.9375  1.5500
  333MOL0     H45944   7.616   9.563   9.018  0.8503  1.5881  2.6754
  333MOL0     H45945   7.564   9.622   8.856 -0.7060  2.0704  0.5418
  333MOL0     H45946   7.536   9.845   8.944  2.9777 -1.6108 -2.5749
  333MOL0     H45947   7.457   9.716   9.046  0.1264  1.0243  0.8454
  333MOL0     H45948   7.558   9.868   9.201 -1.6134 -1.5382 -0.2158
  333MOL0     H45949   7.710   9.882   9.103  0.2198  0.8272  3.1470
  333MOL0     H45950   7.789   9.537   9.324  0.3670  1.0571  0.9556
  333MOL0     H45951   7.824  10.040   8.792 -0.5671 -1.6995  0.9832
  333MOL0     H45952   7.949  10.243   8.752  0.2288  1.0676 -3.9223
  333MOL0     H45953   8.119  10.256   8.797  1.1743 -0.3230  0.1208
  333MOL0     H45954   8.080  10.216   8.636  2.1464 -0.6957  0.5320
  334MOL0     O45955   9.261  10.970   9.324  0.0954 -0.2665 -0.1574
  334MOL0     C45956   9.250  10.850   9.305 -0.4044 -0.3150  0.4854
  334MOL0     O45957   9.355  10.761   9.299 -0.4044  0.3866 -0.2600
  334MOL0     C45958   9.478  10.818   9.269 -0.7364 -0.2743 -1.3705
  334MOL0     C45959   9.579  10.829   9.360 -0.5212  0.1176 -0.0605
  334MOL0     C45960   9.701  10.886   9.323 -0.1452  0.8000  0.4248
  334MOL0     C45961   9.731  10.924   9.196 -0.0791 -0.5512 -0.2612
  334MOL0     O45962   9.866  10.948   9.178  0.2035  0.5373  0.6575
  334MOL0     C45963   9.918  11.001   9.055 -0.1990  0.8077  0.6009
  334MOL0     C45964  10.073  10.989   9.039  0.1265 -0.0509 -0.1656
  334MOL0     C45965  10.155  11.075   9.134  0.2043  0.6434 -0.0240
  334MOL0     C45966  10.163  11.021   9.275 -0.2559  0.6878  0.4112
  334MOL0     C45967  10.216  11.122   9.376  0.6979  0.0652 -1.0076
  334MOL0     C45968  10.373  11.150   9.381 -0.4985 -0.5474  0.1345
  334MOL0     C45969  10.409  11.257   9.476 -0.1382  0.0450  0.6844
  334MOL0     C45970  10.378  11.395   9.420 -0.8288  0.5080  1.1553
  334MOL0     N45971  10.410  11.502   9.519 -0.9880 -0.5160  0.1899
  334MOL0     C45972  10.349  11.521   9.641  0.2768 -1.0581 -0.2762
  334MOL0     C45973  10.411  11.627   9.700 -0.1040 -0.3047  0.0284
  334MOL0     C45974  10.382  11.691   9.831  0.3105  0.0028 -0.4984
  334MOL0     C45975  10.495  11.760   9.900  0.4532  0.4307  0.0411
  334MOL0     C45976  10.598  11.652   9.939 -0.3972  0.4722 -0.1209
  334MOL0     C45977  10.724  11.725   9.978  0.8931  0.5990  0.5793
  334MOL0     O45978  10.822  11.637  10.041 -0.4863  0.3485  0.2679
  334MOL0     C45979  10.960  11.640  10.006 -0.1616 -0.4556 -0.4223
  334MOL0     C45980  11.037  11.557  10.080  0.4185  0.3731 -0.2314
  334MOL0     C45981  11.176  11.546  10.070 -0.1669  0.7462  0.1948
  334MOL0     C45982  11.237  11.441  10.154  0.4628  0.4201  0.7480
  334MOL0     C45983  11.243  11.634   9.984 -1.2974 -0.0411 -0.0367
  334MOL0     C45984  11.394  11.625   9.960  0.6864 -0.1675 -0.6430
  334MOL0     O45985  11.434  11.662   9.831  0.2384 -0.1182 -0.7952
  334MOL0     C45986  11.561  11.672   9.787 -0.2106 -0.1327  0.5817
  334MOL0     C45987  11.664  11.584   9.831 -0.2940 -0.0783  0.6221
  334MOL0     C45988  11.789  11.593   9.778 -0.3385 -0.5705  0.0838
  334MOL0     C45989  11.811  11.683   9.679  0.0663  0.0980 -0.6652
  334MOL0     O45990  11.944  11.687   9.636  0.1725 -0.1420 -0.3811
  334MOL0     C45991  12.005  11.816   9.643  0.4797  0.3298 -0.3700
  334MOL0     C45992  12.147  11.813   9.600  0.7712 -0.2615 -0.2859
  334MOL0     C45993  12.229  11.730   9.698  0.2919  0.3838 -0.7021
  334MOL0     C45994  12.348  11.662   9.626 -0.7566 -0.8153  0.1684
  334MOL0     C45995  12.461  11.610   9.705  0.8285 -0.1956 -0.2944
  334MOL0     C45996  12.415  11.518   9.812  0.0424  0.2539  0.0347
  334MOL0     C45997  12.327  11.393   9.771 -0.0728  0.2746  0.1554
  334MOL0     C45998  12.266  11.324   9.898 -0.0001 -1.0063 -0.5910
  334MOL0    Cl45999  12.110  11.386   9.971 -0.0262 -0.0301 -0.0621
  334MOL0     C46000  11.717  11.776   9.640  0.2135  0.0040  1.3287
  334MOL0     C46001  11.585  11.764   9.687 -0.3013  0.7266 -0.2037
  334MOL0     O46002  11.471  11.589  10.045 -0.1141  0.1562 -0.0752
  334MOL0     C46003  11.168  11.716   9.906 -0.0961 -0.5599 -0.4940
  334MOL0     C46004  11.030  11.720   9.910 -0.7768 -0.0086 -0.3793
  334MOL0     N46005  10.514  11.662   9.613 -0.3059 -0.9756  0.5928
  334MOL0     N46006  10.517  11.589   9.507  0.1984 -0.3707 -0.5253
  334MOL0     C46007   9.630  10.911   9.097 -1.0232  0.7492 -0.2238
  334MOL0     C46008   9.507  10.863   9.140 -0.1136  0.4611 -0.5099
  334MOL0     C46009   9.112  10.785   9.291 -0.6057 -0.1266  0.4538
  334MOL0     C46010   9.090  10.653   9.336 -0.4406  0.2214 -0.1026
  334MOL0     C46011   8.967  10.590   9.317 -0.1699  0.1148  0.4677
  334MOL0     C46012   8.860  10.659   9.258 -0.2538 -0.5730 -0.0330
  334MOL0     O46013   8.724  10.640   9.254  0.3614 -0.3914  0.4040
  334MOL0     C46014   8.662  10.546   9.340 -0.4225 -0.3150 -0.0711
  334MOL0     C46015   8.516  10.547   9.315 -0.0266 -0.4894 -0.4841
  334MOL0     C46016   8.447  10.671   9.369  0.0250 -0.2164 -0.0401
  334MOL0     C46017   8.448  10.676   9.523  0.0555 -0.6124 -1.0145
  334MOL0     C46018   8.385  10.794   9.577 -0.0453 -0.5085 -0.0388
  334MOL0     C46019   8.323  10.889   9.616  0.8522 -0.2671 -1.5860
  334MOL0     C46020   8.890  10.783   9.203 -0.1005 -0.4815 -0.1405
  334MOL0     C46021   9.012  10.852   9.218 -0.3631  0.1381  0.2153
  334MOL0     C46022   9.026  10.978   9.139 -0.4892  0.9589 -0.1964
  334MOL0     H46023   9.576  10.792   9.461  0.4462 -1.0285 -0.4407
  334MOL0     H46024   9.774  10.884   9.403 -0.2894 -1.8689  0.5759
  334MOL0     H46025   9.891  11.103   9.027  1.0694  0.7000 -1.2546
  334MOL0     H46026   9.878  10.946   8.969  0.2287  2.8874 -1.0145
  334MOL0     H46027  10.091  10.881   9.049 -0.5531 -0.4333 -2.4503
  334MOL0     H46028  10.094  11.006   8.933 -1.6500 -2.2389 -0.9517
  334MOL0     H46029  10.256  11.088   9.094  0.4042  1.5967  0.7564
  334MOL0     H46030  10.116  11.177   9.138 -0.8438  0.2811 -0.6767
  334MOL0     H46031  10.061  10.995   9.305 -0.3695  0.7906  0.1081
  334MOL0     H46032  10.221  10.928   9.276 -1.5630 -0.1554  1.7599
  334MOL0     H46033  10.189  11.083   9.475  3.4700  0.4903  0.0066
  334MOL0     H46034  10.157  11.214   9.370 -1.5936 -1.3247 -0.9979
  334MOL0     H46035  10.433  11.060   9.398  0.0244 -0.4785 -1.2053
  334MOL0     H46036  10.393  11.170   9.275 -0.3399 -2.2192 -0.1863
  334MOL0     H46037  10.518  11.258   9.488  0.4117  2.1023 -2.9001
  334MOL0     H46038  10.360  11.239   9.572 -0.2420  1.4344  0.9147
  334MOL0     H46039  10.427  11.403   9.323 -2.5765 -2.0920 -0.0729
  334MOL0     H46040  10.273  11.405   9.391 -0.4594 -2.6540 -1.8546
  334MOL0     H46041  10.279  11.461   9.697  0.4812  0.6890  1.9691
  334MOL0     H46042  10.332  11.617   9.894 -1.8571 -0.1653 -2.3031
  334MOL0     H46043  10.305  11.763   9.801  1.3811  1.0247 -0.8777
  334MOL0     H46044  10.527  11.843   9.836 -1.4625  0.8559 -0.4154
  334MOL0     H46045  10.462  11.798   9.997  0.0688  1.1685 -0.3654
  334MOL0     H46046  10.559  11.595  10.024  1.0796  0.0005  0.2676
  334MOL0     H46047  10.623  11.581   9.859 -2.5375 -1.8812  1.1399
  334MOL0     H46048  10.766  11.779   9.892  0.2785  0.7381  0.3610
  334MOL0     H46049  10.704  11.797  10.058  2.1728  1.2018  0.3805
  334MOL0     H46050  10.983  11.486  10.142 -2.8281  1.5688 -1.4561
  334MOL0     H46051  11.175  11.354  10.178 -1.6594  0.5788 -3.2272
  334MOL0     H46052  11.254  11.488  10.251  0.8780  1.7096  0.0795
  334MOL0     H46053  11.334  11.407  10.115  0.8119 -0.0259  1.9690
  334MOL0     H46054  11.651  11.512   9.911  1.7186 -0.3336  0.7618
  334MOL0     H46055  11.871  11.532   9.815  2.1953  2.2275 -0.5090
  334MOL0     H46056  11.947  11.876   9.572 -0.4637  3.1114  2.5265
  334MOL0     H46057  11.992  11.863   9.741  1.8225  1.4074 -0.6803
  334MOL0     H46058  12.147  11.771   9.498  0.1709 -1.3493  0.1444
  334MOL0     H46059  12.177  11.918   9.593 -2.7937  0.7860 -2.4998
  334MOL0     H46060  12.169  11.652   9.745  0.4735 -0.0756 -1.2226
  334MOL0     H46061  12.275  11.788   9.779  0.4128 -2.1170  1.1508
  334MOL0     H46062  12.394  11.747   9.574 -1.1451 -1.2270 -0.8844
  334MOL0     H46063  12.313  11.586   9.555 -4.5223 -0.1000  1.0528
  334MOL0     H46064  12.523  11.549   9.638  2.2584 -2.0210  2.4988
  334MOL0     H46065  12.531  11.687   9.738 -0.3374  0.3265  1.0201
  334MOL0     H46066  12.359  11.576   9.887  0.1924 -2.4396  2.4273
  334MOL0     H46067  12.502  11.482   9.869  0.5434 -1.1642 -1.5487
  334MOL0     H46068  12.405  11.340   9.715  0.9944 -1.9556  3.4606
  334MOL0     H46069  12.249  11.430   9.703  0.8816  1.9894 -0.0627
  334MOL0     H46070  12.345  11.323   9.974 -0.3853  0.9157 -0.1315
  334MOL0     H46071  12.242  11.226   9.855  0.9216 -1.3656 -0.3128
  334MOL0     H46072  11.731  11.856   9.568  3.1060 -2.4212 -1.1305
  334MOL0     H46073  11.503  11.824   9.651  0.2182  1.5486 -0.0420
  334MOL0     H46074  11.211  11.788   9.837 -1.6774  2.9299  1.8676
  334MOL0     H46075  10.986  11.793   9.843 -1.7175 -0.1888  0.0325
  334MOL0     H46076   9.650  10.934   8.993  0.7710  1.4187  0.2334
  334MOL0     H46077   9.428  10.852   9.068 -0.4638 -0.6306  0.0242
  334MOL0     H46078   9.171  10.592   9.374 -1.3879 -0.2975  1.1054
  334MOL0     H46079   8.953  10.491   9.359  1.4709 -0.8112 -1.0358
  334MOL0     H46080   8.717  10.458   9.305  0.8109  0.6436 -0.6446
  334MOL0     H46081   8.690  10.556   9.445  2.5529 -2.7810 -0.4881
  334MOL0     H46082   8.468  10.455   9.349  0.9756 -0.5482  0.8541
  334MOL0     H46083   8.510  10.552   9.206  0.0715 -0.5676 -0.4940
  334MOL0     H46084   8.504  10.758   9.335  1.1006  0.5797  3.4460
  334MOL0     H46085   8.349  10.675   9.320 -0.0002  0.3633  0.0534
  334MOL0     H46086   8.551  10.672   9.558  0.2303 -2.6013 -1.6658
  334MOL0     H46087   8.408  10.583   9.565  0.5166 -1.1683 -1.7937
  334MOL0     H46088   8.250  10.965   9.635 -0.8675 -2.5120  1.7578
  334MOL0     H46089   8.810  10.840   9.158 -0.0715  0.6092  1.1372
  334MOL0     H46090   9.091  10.971   9.052  0.7889  2.6905  0.5470
  334MOL0     H46091   8.927  11.004   9.098 -0.2072 -1.4940 -2.7418
  334MOL0     H46092   9.052  11.061   9.205  1.9528 -0.7847  1.1827
  335MOL0     O46093   7.862   3.767  11.203  0.6643  0.0551  0.1907
  335MOL0     C46094   7.845   3.834  11.101 -0.1575  0.5138  1.1597
  335MOL0     O46095   7.945   3.914  11.042 -0.2377  0.7638 -0.2277
  335MOL0     C46096   8.057   3.930  11.112 -0.9859  0.4641 -1.0416
  335MOL0     C46097   8.139   3.827  11.167 -0.3174  0.3757  0.1439
  335MOL0     C46098   8.262   3.859  11.237 -0.3578 -0.1600 -0.3361
  335MOL0     C46099   8.308   3.995  11.232 -0.9599  0.4116 -0.5526
  335MOL0     O46100   8.427   4.030  11.304 -0.1175 -0.9356 -0.2401
  335MOL0     C46101   8.438   4.175  11.336  0.6571 -0.8574 -0.3196
  335MOL0     C46102   8.552   4.183  11.437  0.6755  0.4531  0.2030
  335MOL0     C46103   8.684   4.151  11.379 -0.4273 -0.1661  0.2151
  335MOL0     C46104   8.805   4.162  11.475  0.1260  0.4395  0.4984
  335MOL0     C46105   8.943   4.139  11.401 -0.2800 -0.3276 -0.3843
  335MOL0     C46106   8.965   3.997  11.334 -0.3145 -0.3630  0.2701
  335MOL0     C46107   9.119   3.964  11.279 -0.0455 -0.3855 -0.0188
  335MOL0     C46108   9.168   4.061  11.166 -0.5105  0.0948 -0.3622
  335MOL0     N46109   9.257   4.172  11.213 -0.5279 -0.3353 -0.1048
  335MOL0     C46110   9.368   4.152  11.289 -1.1994 -0.1076 -0.4555
  335MOL0     C46111   9.408   4.271  11.342  0.8725  0.1533 -0.6043
  335MOL0     C46112   9.517   4.295  11.441  0.7343  0.4069 -0.3810
  335MOL0     C46113   9.650   4.304  11.366 -0.3291  0.0249 -0.1773
  335MOL0     C46114   9.764   4.329  11.463 -1.1648  0.2165 -0.3269
  335MOL0     C46115   9.882   4.379  11.391 -0.7836  1.1893  0.2242
  335MOL0     O46116   9.990   4.394  11.481 -1.0488 -0.8072  0.0027
  335MOL0     C46117  10.127   4.405  11.436 -0.6730 -0.4230  0.0764
  335MOL0     C46118  10.164   4.404  11.305 -0.5643 -0.2371 -0.3034
  335MOL0     C46119  10.300   4.414  11.267  0.0103  0.6536 -0.7955
  335MOL0     C46120  10.336   4.423  11.124  1.1870  0.6419  0.0985
  335MOL0     C46121  10.397   4.412  11.372 -0.0697  0.2185 -0.5847
  335MOL0     C46122  10.541   4.421  11.342 -0.3049 -0.2173 -1.1455
  335MOL0     O46123  10.620   4.485  11.436  0.2081  0.1096  0.0776
  335MOL0     C46124  10.748   4.515  11.406 -0.3642 -0.7822 -0.4214
  335MOL0     C46125  10.862   4.471  11.477 -0.1553  0.3706 -0.1070
  335MOL0     C46126  10.988   4.535  11.463  0.4267 -0.2058 -0.2183
  335MOL0     C46127  10.998   4.630  11.364 -0.5192 -0.1233  0.1870
  335MOL0     O46128  11.116   4.683  11.317 -0.8469  0.0289  0.0178
  335MOL0     C46129  11.234   4.652  11.385 -1.2484  0.1468 -0.5633
  335MOL0     C46130  11.346   4.747  11.345  1.2400  0.6785 -0.0608
  335MOL0     C46131  11.475   4.733  11.427  0.4094 -1.0016  0.4496
  335MOL0     C46132  11.589   4.783  11.346 -0.4358 -0.0029 -0.3569
  335MOL0     C46133  11.717   4.769  11.435 -0.3075 -0.3924  0.9952
  335MOL0     C46134  11.837   4.781  11.340  0.0909 -0.0270  0.1469
  335MOL0     C46135  11.962   4.768  11.419 -0.6403  0.4468 -0.4978
  335MOL0     C46136  12.077   4.771  11.314 -0.8242 -0.9198 -0.0491
  335MOL0    Cl46137  12.083   4.925  11.230 -0.0511 -0.2877  0.0139
  335MOL0     C46138  10.887   4.677  11.294 -0.7397  0.4008 -0.3036
  335MOL0     C46139  10.770   4.622  11.319  0.7202 -0.1420  0.5843
  335MOL0     O46140  10.592   4.369  11.247 -0.2517  0.0822  0.4835
  335MOL0     C46141  10.356   4.393  11.505 -0.9742  0.4404 -0.2569
  335MOL0     C46142  10.224   4.400  11.537 -0.1083 -0.7494 -0.5101
  335MOL0     N46143   9.320   4.365  11.297 -0.2988 -0.1064 -0.4779
  335MOL0     N46144   9.235   4.307  11.218 -0.2099 -0.1649 -0.6578
  335MOL0     C46145   8.225   4.091  11.171 -0.3753 -0.1881 -0.6193
  335MOL0     C46146   8.096   4.059  11.115 -0.0689  0.0567 -0.2940
  335MOL0     C46147   7.713   3.828  11.035 -0.6632  0.3675 -0.3312
  335MOL0     C46148   7.700   3.921  10.923 -0.0390  0.4413 -1.0779
  335MOL0     C46149   7.577   3.938  10.856 -0.0511  0.2575  0.2221
  335MOL0     C46150   7.468   3.845  10.891 -0.1226  0.2462  0.3486
  335MOL0     O46151   7.349   3.847  10.830  0.4624 -1.0459 -0.4227
  335MOL0     C46152   7.310   3.967  10.750  0.0392 -0.0108 -0.0012
  335MOL0     C46153   7.195   3.932  10.657  0.1027  0.2069  0.4864
  335MOL0     C46154   7.240   3.866  10.531  0.3355  1.2755 -0.0092
  335MOL0     C46155   7.119   3.841  10.438 -0.4187  0.3677  0.1528
  335MOL0     C46156   7.103   3.701  10.393  0.3555 -0.0612 -0.2687
  335MOL0     C46157   7.090   3.576  10.365  0.3295 -0.2651 -0.3719
  335MOL0     C46158   7.485   3.753  10.990 -0.4359  0.1072 -0.1558
  335MOL0     C46159   7.608   3.736  11.063 -0.3055 -0.0559  0.5933
  335MOL0     C46160   7.613   3.612  11.150 -0.6051 -0.5592 -0.5411
  335MOL0     H46161   8.118   3.721  11.172 -0.8736  0.5111  1.0369
  335MOL0     H46162   8.319   3.783  11.288 -1.0978 -1.6739 -1.6568
  335MOL0     H46163   8.352   4.213  11.392  0.6530 -0.7694 -0.3831
  335MOL0     H46164   8.463   4.236  11.248  0.6893  0.2593  0.4449
  335MOL0     H46165   8.548   4.285  11.477 -1.0051  1.0285 -1.3115
  335MOL0     H46166   8.533   4.117  11.522 -1.2591  1.0829  0.2976
  335MOL0     H46167   8.684   4.051  11.336 -1.5896  0.8160 -2.2709
  335MOL0     H46168   8.698   4.218  11.294  0.2417  2.8386  2.5056
  335MOL0     H46169   8.804   4.262  11.518 -1.3397 -0.3358  2.4008
  335MOL0     H46170   8.787   4.083  11.549 -1.6736 -0.5972 -0.9392
  335MOL0     H46171   9.014   4.158  11.482  1.1264 -0.5919 -1.5319
  335MOL0     H46172   8.955   4.216  11.324 -1.6731 -1.8241 -2.2031
  335MOL0     H46173   8.938   3.924  11.411 -1.2581  0.3767  0.6464
  335MOL0     H46174   8.897   3.992  11.249  1.2130  1.3349 -1.1424
  335MOL0     H46175   9.114   3.867  11.229 -0.0081  0.3136 -1.4270
  335MOL0     H46176   9.195   3.953  11.357 -0.9450 -4.2861  0.4685
  335MOL0     H46177   9.219   3.995  11.094 -1.5004 -0.4029 -0.6203
  335MOL0     H46178   9.088   4.106  11.107 -0.0299  1.0614 -0.2986
  335MOL0     H46179   9.407   4.054  11.315 -3.3508 -0.2999  2.7133
  335MOL0     H46180   9.519   4.208  11.506  0.8623  0.9100  0.3031
  335MOL0     H46181   9.493   4.381  11.505  3.9292 -0.3762  2.1864
  335MOL0     H46182   9.677   4.211  11.315 -0.3031 -0.7299  1.1702
  335MOL0     H46183   9.646   4.385  11.292 -0.0796  0.3924  0.2014
  335MOL0     H46184   9.731   4.400  11.540 -0.7855 -1.0931  1.1058
  335MOL0     H46185   9.778   4.232  11.512  0.0086  0.5814  0.0739
  335MOL0     H46186   9.909   4.314  11.307  1.0138 -0.1089  1.7104
  335MOL0     H46187   9.867   4.478  11.347  2.2945  1.1794 -1.1216
  335MOL0     H46188  10.084   4.404  11.232 -0.7829 -0.0520 -0.0658
  335MOL0     H46189  10.420   4.356  11.102 -0.4527 -1.1748 -0.8914
  335MOL0     H46190  10.356   4.525  11.090 -0.8167  0.6084 -1.3628
  335MOL0     H46191  10.248   4.388  11.070 -1.2474  1.4164  3.2620
  335MOL0     H46192  10.847   4.390  11.548  0.8416  1.0286  0.8798
  335MOL0     H46193  11.062   4.508  11.538 -1.6701 -0.2429  1.9786
  335MOL0     H46194  11.220   4.656  11.493 -1.9029 -0.4473 -0.6170
  335MOL0     H46195  11.275   4.556  11.354 -0.6324 -0.6331  2.3742
  335MOL0     H46196  11.370   4.736  11.239  0.3661 -4.1442  0.0174
  335MOL0     H46197  11.310   4.850  11.353 -2.3484 -0.2925 -1.4892
  335MOL0     H46198  11.481   4.633  11.472 -0.3822 -0.6123  1.4759
  335MOL0     H46199  11.460   4.794  11.517 -0.7934 -1.7200  0.7689
  335MOL0     H46200  11.572   4.886  11.314  2.5964  0.7759  0.1536
  335MOL0     H46201  11.603   4.716  11.261 -0.8836  0.4619 -0.8038
  335MOL0     H46202  11.714   4.847  11.511  0.4603 -1.5132  2.2100
  335MOL0     H46203  11.719   4.676  11.492  1.6292 -0.8645  0.2119
  335MOL0     H46204  11.837   4.879  11.290 -1.3718 -0.5617 -0.9676
  335MOL0     H46205  11.830   4.708  11.260  0.1385  1.7428 -1.5350
  335MOL0     H46206  11.978   4.666  11.455 -0.4619  0.5576 -0.2645
  335MOL0     H46207  11.981   4.847  11.492  0.0119  0.2773 -0.4776
  335MOL0     H46208  12.061   4.692  11.240 -1.8987 -0.2544 -0.5440
  335MOL0     H46209  12.179   4.767  11.354  1.0437  1.3273 -3.9341
  335MOL0     H46210  10.898   4.755  11.220  0.1754  2.5199  1.9102
  335MOL0     H46211  10.682   4.660  11.267  1.8930 -0.7920 -2.0485
  335MOL0     H46212  10.431   4.381  11.583  0.9721 -1.8553 -2.3098
  335MOL0     H46213  10.193   4.377  11.639  1.1492 -1.8149 -0.3257
  335MOL0     H46214   8.249   4.196  11.182 -1.0776 -0.0439 -0.3786
  335MOL0     H46215   8.034   4.136  11.069 -0.2645  0.5800  0.8142
  335MOL0     H46216   7.774   3.994  10.894  1.5266 -1.6169 -2.5942
  335MOL0     H46217   7.561   4.023  10.791 -0.6501  0.5742  0.7761
  335MOL0     H46218   7.280   4.046  10.820 -0.7549 -0.4180  0.1369
  335MOL0     H46219   7.386   4.003  10.681  0.0278 -2.1082 -1.1790
  335MOL0     H46220   7.128   4.012  10.623 -2.4575 -1.8486  0.3592
  335MOL0     H46221   7.128   3.865  10.713  1.0547 -0.3858  0.9401
  335MOL0     H46222   7.309   3.937  10.484  0.2048  1.2958 -0.1716
  335MOL0     H46223   7.294   3.773  10.549 -1.9612  0.1633  1.6201
  335MOL0     H46224   7.153   3.901  10.353 -1.3080  1.9868  0.8964
  335MOL0     H46225   7.030   3.881  10.486  1.9447  0.6518  4.8086
  335MOL0     H46226   7.071   3.470  10.365 -3.9800  0.3326 -0.9241
  335MOL0     H46227   7.392   3.699  11.007 -2.1915  2.6696 -1.0392
  335MOL0     H46228   7.646   3.646  11.249  0.9513 -0.4185 -1.0781
  335MOL0     H46229   7.518   3.566  11.180 -1.4268  0.3945 -1.5998
  335MOL0     H46230   7.683   3.538  11.111  0.4176  0.2721 -0.3442
  336MOL0     O46231   5.043   1.453   9.039  0.4926  0.2283 -0.0721
  336MOL0     C46232   5.038   1.346   8.981  0.5644  0.6277 -0.1029
  336MOL0     O46233   5.137   1.301   8.897 -0.1414 -0.2588  0.0700
  336MOL0     C46234   5.223   1.395   8.832  0.5000 -0.4391 -0.7155
  336MOL0     C46235   5.174   1.468   8.722 -0.8142  0.5208  0.1939
  336MOL0     C46236   5.256   1.545   8.643  0.2951 -0.2217 -0.1681
  336MOL0     C46237   5.382   1.571   8.689  0.1580  0.1531 -0.0256
  336MOL0     O46238   5.471   1.661   8.636 -0.5379  0.3433  0.0288
  336MOL0     C46239   5.506   1.650   8.497 -0.5692 -0.0662 -0.2580
  336MOL0     C46240   5.617   1.547   8.465 -0.5455 -0.5742 -0.1768
  336MOL0     C46241   5.731   1.551   8.577  0.2088 -0.3093  0.4412
  336MOL0     C46242   5.838   1.438   8.573  0.1205  0.0197 -0.3096
  336MOL0     C46243   5.900   1.420   8.709  0.3545 -0.1466 -0.8825
  336MOL0     C46244   6.030   1.339   8.705  0.0848  0.5209 -0.3838
  336MOL0     C46245   6.004   1.191   8.655  0.3032  0.2538  0.5401
  336MOL0     C46246   6.093   1.083   8.726  0.9141 -0.9516 -0.3865
  336MOL0     N46247   6.241   1.101   8.714  0.7292  0.4596  0.4269
  336MOL0     C46248   6.326   1.056   8.809 -0.3052  0.1373 -0.5138
  336MOL0     C46249   6.446   1.101   8.762  0.1284 -0.1977  0.6948
  336MOL0     C46250   6.583   1.098   8.835  0.8051  0.7529 -0.3989
  336MOL0     C46251   6.689   1.014   8.774 -0.3016 -0.9142  0.2227
  336MOL0     C46252   6.761   1.081   8.652  0.6429  0.2783  0.1226
  336MOL0     C46253   6.865   1.005   8.594 -0.2987  0.8448 -0.0808
  336MOL0     O46254   6.923   1.078   8.485  0.5430  0.2434  1.0224
  336MOL0     C46255   7.052   1.046   8.453  0.2480  1.2115 -0.5922
  336MOL0     C46256   7.081   0.935   8.370  0.1844 -0.0800  0.0688
  336MOL0     C46257   7.215   0.896   8.337  0.3778 -0.1598  0.1098
  336MOL0     C46258   7.239   0.779   8.236  0.1171 -0.3568 -0.5671
  336MOL0     C46259   7.320   0.971   8.394 -0.4435 -0.1974 -0.4569
  336MOL0     C46260   7.469   0.943   8.379 -0.6173  0.0062  1.1564
  336MOL0     O46261   7.547   1.033   8.442 -0.4600 -1.3443  0.8219
  336MOL0     C46262   7.684   1.047   8.420 -0.1997  0.0828 -0.7534
  336MOL0     C46263   7.775   0.953   8.361  0.6431 -0.3309 -0.4497
  336MOL0     C46264   7.907   0.990   8.339 -0.0835 -0.6567  0.1942
  336MOL0     C46265   7.963   1.107   8.395  0.3122 -0.9031  0.8843
  336MOL0     O46266   8.093   1.147   8.389  0.2264  0.7453  0.2636
  336MOL0     C46267   8.199   1.077   8.329 -0.4441  0.3588 -1.0016
  336MOL0     C46268   8.340   1.128   8.360  0.0107 -0.4526  0.5914
  336MOL0     C46269   8.463   1.064   8.289 -0.3142  1.0575 -0.4740
  336MOL0     C46270   8.597   1.141   8.324  0.5118 -0.8731  0.2266
  336MOL0     C46271   8.721   1.083   8.272 -0.5392 -0.1304  0.4919
  336MOL0     C46272   8.840   1.166   8.308 -0.1619 -0.2202  0.2813
  336MOL0     C46273   8.967   1.076   8.277  1.1442 -0.0592 -0.4190
  336MOL0     C46274   9.093   1.154   8.312 -0.2988  0.6322 -0.4395
  336MOL0    Cl46275   9.230   1.038   8.326  0.0946  0.3357 -0.9328
  336MOL0     C46276   7.871   1.199   8.452 -0.3867  0.8200  0.9173
  336MOL0     C46277   7.733   1.173   8.461  0.0840  0.6981  0.5247
  336MOL0     O46278   7.508   0.847   8.313 -0.4740 -0.4268  0.7233
  336MOL0     C46279   7.287   1.072   8.482  0.1377  1.0626 -0.4821
  336MOL0     C46280   7.163   1.115   8.502  0.3123 -0.1736 -0.9305
  336MOL0     N46281   6.422   1.165   8.641  0.4345 -0.4079 -0.5220
  336MOL0     N46282   6.297   1.168   8.616 -0.2332  1.2059  0.4549
  336MOL0     C46283   5.426   1.515   8.810  0.3251 -0.3561  0.5894
  336MOL0     C46284   5.347   1.418   8.877  0.5097  0.1488 -0.3928
  336MOL0     C46285   4.913   1.263   9.011  0.4329 -0.5511 -0.0548
  336MOL0     C46286   4.901   1.147   8.935 -0.0030  0.7642 -0.5583
  336MOL0     C46287   4.790   1.061   8.953 -0.5767 -0.1948 -0.0910
  336MOL0     C46288   4.679   1.098   9.032 -0.0193 -0.2143 -0.4882
  336MOL0     O46289   4.572   1.019   9.052  0.2476 -0.3352  0.3496
  336MOL0     C46290   4.503   0.981   8.926  0.1684 -0.0494 -1.1199
  336MOL0     C46291   4.417   0.850   8.937  0.3829  0.2630  0.3026
  336MOL0     C46292   4.323   0.852   9.063  0.9418 -0.4340  0.4378
  336MOL0     C46293   4.196   0.925   9.023  0.6953 -0.1443  0.5168
  336MOL0     C46294   4.099   0.914   9.141 -0.5077 -1.5484  0.1794
  336MOL0     C46295   4.023   0.893   9.234 -0.3139  0.5061 -0.0537
  336MOL0     C46296   4.682   1.225   9.095  0.4136 -0.2987 -0.4977
  336MOL0     C46297   4.800   1.304   9.088 -0.1201 -0.0400 -0.2164
  336MOL0     C46298   4.803   1.431   9.160  0.4961  0.2923 -0.6205
  336MOL0     H46299   5.069   1.454   8.697 -0.9107  1.9175 -0.3052
  336MOL0     H46300   5.210   1.600   8.561 -0.9097 -0.0125  0.6156
  336MOL0     H46301   5.546   1.750   8.482  0.4100 -0.4257 -0.1169
  336MOL0     H46302   5.416   1.648   8.435 -3.2780 -1.2310  3.3676
  336MOL0     H46303   5.561   1.453   8.456 -1.7528 -0.0670  1.4325
  336MOL0     H46304   5.659   1.565   8.366  3.0204 -0.8819  1.1360
  336MOL0     H46305   5.786   1.646   8.585  1.1543 -0.6462 -1.5545
  336MOL0     H46306   5.693   1.538   8.679  1.8809 -0.9026  1.0159
  336MOL0     H46307   5.803   1.341   8.536  2.4018 -1.5713  1.4384
  336MOL0     H46308   5.920   1.458   8.503  0.1024  0.1467 -0.2943
  336MOL0     H46309   5.829   1.390   8.786 -0.1750 -1.5919 -1.8905
  336MOL0     H46310   5.939   1.519   8.735  2.9671 -0.6657 -2.5191
  336MOL0     H46311   6.096   1.396   8.639 -1.4977 -0.0952 -2.6223
  336MOL0     H46312   6.070   1.328   8.806 -2.0880  0.2098  0.4913
  336MOL0     H46313   6.028   1.175   8.550  0.6163 -3.8414  1.0405
  336MOL0     H46314   5.900   1.155   8.653  0.3563  0.1352 -0.9073
  336MOL0     H46315   6.068   1.080   8.833  0.3736 -0.4529 -0.4879
  336MOL0     H46316   6.062   0.991   8.677 -2.1115  0.0912 -0.6713
  336MOL0     H46317   6.304   1.016   8.908  1.0030 -1.4326 -0.8218
  336MOL0     H46318   6.555   1.045   8.926 -1.8410  1.0335 -0.9495
  336MOL0     H46319   6.623   1.199   8.843  0.7519  0.7866 -0.5450
  336MOL0     H46320   6.766   1.012   8.851  1.0593 -1.0353 -1.0996
  336MOL0     H46321   6.651   0.914   8.751  2.6753 -1.6787 -1.8402
  336MOL0     H46322   6.688   1.091   8.571  0.4062 -0.3744  0.2527
  336MOL0     H46323   6.796   1.181   8.680 -1.7595  0.3916  3.1895
  336MOL0     H46324   6.938   0.975   8.671 -2.3013  0.6934  1.8586
  336MOL0     H46325   6.813   0.918   8.554 -0.4535  0.3291  1.1879
  336MOL0     H46326   6.989   0.896   8.329  0.0472 -0.8561  1.0830
  336MOL0     H46327   7.146   0.726   8.214  0.4719 -0.5770 -1.6055
  336MOL0     H46328   7.303   0.698   8.274  1.4877  0.8244 -0.2509
  336MOL0     H46329   7.277   0.827   8.146 -1.1212  0.8712 -0.4690
  336MOL0     H46330   7.745   0.857   8.320  0.8167  0.0549 -1.5036
  336MOL0     H46331   7.970   0.929   8.275  0.9685  0.0410  0.5210
  336MOL0     H46332   8.192   0.973   8.361 -0.0743  0.0139 -1.9903
  336MOL0     H46333   8.181   1.086   8.221 -0.7172  0.7031 -0.9291
  336MOL0     H46334   8.332   1.234   8.333  0.9922 -0.4130  0.4090
  336MOL0     H46335   8.364   1.116   8.466  0.7223 -2.0439  0.2695
  336MOL0     H46336   8.451   1.057   8.181 -2.1209 -2.2590 -0.1939
  336MOL0     H46337   8.470   0.961   8.327  0.8165  1.0278 -0.7289
  336MOL0     H46338   8.592   1.162   8.431 -0.4488 -1.0892  0.2338
  336MOL0     H46339   8.588   1.237   8.272  2.0541 -0.5082  0.5886
  336MOL0     H46340   8.730   0.988   8.326  2.8357 -1.1292 -1.5337
  336MOL0     H46341   8.704   1.063   8.165 -2.6679  0.3598  0.6931
  336MOL0     H46342   8.839   1.189   8.415  4.2460 -0.4400  0.5706
  336MOL0     H46343   8.831   1.253   8.244 -3.5420  0.0551  0.9371
  336MOL0     H46344   8.959   1.043   8.173  2.6964 -1.5354 -0.1166
  336MOL0     H46345   8.973   0.988   8.342 -0.5115 -0.1222 -0.3210
  336MOL0     H46346   9.087   1.212   8.405  1.4825 -1.3074  0.9822
  336MOL0     H46347   9.120   1.215   8.225 -1.8618 -1.1649 -2.2717
  336MOL0     H46348   7.928   1.290   8.471  0.2272  1.0856 -1.7655
  336MOL0     H46349   7.668   1.253   8.494 -0.1850  0.6312  0.1592
  336MOL0     H46350   7.360   1.139   8.527 -1.0527  1.6468  0.6430
  336MOL0     H46351   7.145   1.205   8.560 -0.7667  0.1181 -1.6653
  336MOL0     H46352   5.521   1.539   8.856 -0.2281 -1.3902  2.3624
  336MOL0     H46353   5.385   1.372   8.967 -1.2978  2.1326  1.4826
  336MOL0     H46354   4.976   1.111   8.865 -0.9712 -2.3120 -0.1575
  336MOL0     H46355   4.796   0.966   8.902 -2.0692 -0.2542 -0.1944
  336MOL0     H46356   4.434   1.057   8.886 -0.6045 -0.2738 -0.2345
  336MOL0     H46357   4.577   0.964   8.846 -1.5536 -1.4566 -2.4928
  336MOL0     H46358   4.496   0.775   8.947  1.0502  0.6818 -1.4646
  336MOL0     H46359   4.353   0.826   8.852  0.0496  0.8912  0.3758
  336MOL0     H46360   4.307   0.749   9.096  0.6244 -0.8099 -0.8320
  336MOL0     H46361   4.376   0.903   9.144  3.3322 -0.7130 -0.8468
  336MOL0     H46362   4.157   0.868   8.938  2.2906 -0.4401 -0.0660
  336MOL0     H46363   4.220   1.026   8.989 -0.2297 -0.3240 -0.7514
  336MOL0     H46364   3.953   0.880   9.314 -1.9579 -0.0867 -1.5259
  336MOL0     H46365   4.597   1.264   9.149 -0.7459 -0.6852 -1.9759
  336MOL0     H46366   4.720   1.432   9.232  1.7864 -0.5833  0.9250
  336MOL0     H46367   4.892   1.439   9.223  0.9113  0.0222 -1.1700
  336MOL0     H46368   4.785   1.519   9.096 -3.5229 -0.9969 -1.5633
  337MOL0     O46369   7.100   7.926   2.051  0.4094 -0.4481  0.6328
  337MOL0     C46370   6.978   7.922   2.026 -0.5738  0.3440 -0.8074
  337MOL0     O46371   6.888   7.831   2.077 -0.0347 -0.6239 -0.0581
  337MOL0     C46372   6.918   7.773   2.197 -0.3303 -0.1143 -0.0862
  337MOL0     C46373   6.932   7.628   2.206 -0.1679 -0.5890 -0.6025
  337MOL0     C46374   6.962   7.573   2.329  0.2507 -0.8422 -0.0928
  337MOL0     C46375   6.976   7.658   2.442 -0.6017  0.1767 -0.1184
  337MOL0     O46376   7.006   7.593   2.561 -0.2745  0.1252  0.8640
  337MOL0     C46377   6.916   7.624   2.670 -0.0550  0.7860  0.0356
  337MOL0     C46378   6.945   7.518   2.780 -0.5097  0.6161 -0.7976
  337MOL0     C46379   6.845   7.513   2.897 -0.6651  0.3165 -0.6694
  337MOL0     C46380   6.851   7.369   2.965 -0.1872 -0.2123 -0.4266
  337MOL0     C46381   6.753   7.358   3.082  0.5909  0.0364  0.0887
  337MOL0     C46382   6.767   7.219   3.140 -0.0466 -0.1293 -0.1082
  337MOL0     C46383   6.683   7.210   3.275  0.0240 -0.0442  0.3035
  337MOL0     C46384   6.655   7.069   3.319  0.1046  0.3232  0.5181
  337MOL0     N46385   6.775   6.995   3.367  0.4338 -0.0741 -0.2115
  337MOL0     C46386   6.855   7.023   3.483 -0.1810  0.3489  0.4386
  337MOL0     C46387   6.945   6.913   3.489  0.3474  0.6784  0.6873
  337MOL0     C46388   7.063   6.905   3.573 -0.3369  1.4113  0.2976
  337MOL0     C46389   7.193   6.903   3.500  0.4097  0.8960  0.7008
  337MOL0     C46390   7.309   6.886   3.588  0.0770 -0.5444 -0.3599
  337MOL0     C46391   7.432   6.854   3.506  0.0104 -0.0238 -0.3705
  337MOL0     O46392   7.523   6.795   3.588 -0.6190 -0.2823 -0.0974
  337MOL0     C46393   7.653   6.756   3.525  0.5696  0.2278  0.3301
  337MOL0     C46394   7.694   6.778   3.392  0.3094 -0.2812  0.4102
  337MOL0     C46395   7.818   6.739   3.342  0.3660  0.3261  0.2894
  337MOL0     C46396   7.848   6.775   3.200  0.4314 -0.7938  0.4347
  337MOL0     C46397   7.904   6.679   3.432 -0.6355 -0.2192  0.0392
  337MOL0     C46398   8.040   6.634   3.394 -0.3575 -0.3890  1.1440
  337MOL0     O46399   8.147   6.653   3.477  0.0885 -0.0077  0.2875
  337MOL0     C46400   8.268   6.599   3.438  0.6706  0.1314 -0.0205
  337MOL0     C46401   8.376   6.685   3.416  0.2183  0.3707 -0.1440
  337MOL0     C46402   8.488   6.636   3.365 -0.2617 -0.5531 -0.0361
  337MOL0     C46403   8.502   6.498   3.320  0.6131  0.0811 -0.2878
  337MOL0     O46404   8.601   6.437   3.239  0.5115  0.0157  0.2936
  337MOL0     C46405   8.718   6.517   3.230  0.1451 -0.8206 -0.0152
  337MOL0     C46406   8.838   6.443   3.174  0.2723  0.3932  0.0208
  337MOL0     C46407   8.914   6.361   3.287 -0.5924 -0.6720 -0.4605
  337MOL0     C46408   9.035   6.428   3.368 -0.1618 -0.3128  0.1892
  337MOL0     C46409   9.126   6.329   3.430  0.3464  0.7384  0.2804
  337MOL0     C46410   9.175   6.228   3.338 -0.2615  0.3459 -0.1463
  337MOL0     C46411   9.292   6.154   3.394  0.4766 -0.2092  0.3323
  337MOL0     C46412   9.364   6.086   3.278 -0.1709 -0.5029  0.9898
  337MOL0    Cl46413   9.266   5.950   3.221 -0.2779 -0.4517 -0.1455
  337MOL0     C46414   8.400   6.406   3.350  0.2018  0.1108 -0.4650
  337MOL0     C46415   8.280   6.460   3.407 -0.0759  0.5179  0.2652
  337MOL0     O46416   8.051   6.591   3.279  0.0783  0.3525 -0.0983
  337MOL0     C46417   7.869   6.667   3.569  0.3359  0.0119 -0.0493
  337MOL0     C46418   7.749   6.703   3.609  0.4262  0.2888 -0.0562
  337MOL0     N46419   6.905   6.827   3.390 -0.4197 -0.3543  0.4926
  337MOL0     N46420   6.811   6.874   3.322  0.4659 -0.4029  0.1419
  337MOL0     C46421   6.963   7.798   2.432 -0.6029  0.6990 -0.0121
  337MOL0     C46422   6.927   7.855   2.312  0.4571  0.3761  0.0373
  337MOL0     C46423   6.933   8.023   1.930 -0.3997 -0.5355  0.1034
  337MOL0     C46424   7.022   8.092   1.847 -0.4634  0.1984 -0.3437
  337MOL0     C46425   6.986   8.200   1.763  0.7970 -0.6119  0.3080
  337MOL0     C46426   6.850   8.228   1.749 -0.0910  0.1082  0.3488
  337MOL0     O46427   6.809   8.323   1.659 -0.7739  0.2874  0.2350
  337MOL0     C46428   6.676   8.377   1.648 -0.0067 -0.5081  0.2644
  337MOL0     C46429   6.605   8.280   1.544  0.5189 -0.2508 -0.5354
  337MOL0     C46430   6.457   8.311   1.521  0.1951  0.3715  0.1995
  337MOL0     C46431   6.381   8.198   1.449  0.5506  0.3751  0.0597
  337MOL0     C46432   6.384   8.071   1.521  0.6928  0.1776 -0.2141
  337MOL0     C46433   6.396   7.964   1.583 -0.2295  0.0202  0.5634
  337MOL0     C46434   6.762   8.168   1.832 -0.8480 -0.1782 -0.0146
  337MOL0     C46435   6.796   8.066   1.925 -0.6013 -0.2734 -0.0916
  337MOL0     C46436   6.683   8.018   2.012 -0.1398 -0.3447  0.1181
  337MOL0     H46437   6.919   7.553   2.129 -0.2461 -1.9195  0.6571
  337MOL0     H46438   6.969   7.468   2.353  0.1139 -0.1685  3.5757
  337MOL0     H46439   6.812   7.616   2.637 -0.9517  1.1091  2.5787
  337MOL0     H46440   6.937   7.725   2.706 -0.4576  0.6825  0.5729
  337MOL0     H46441   6.946   7.427   2.719  2.3422 -0.4988  0.7355
  337MOL0     H46442   7.042   7.517   2.831  0.7577 -0.6377 -3.0491
  337MOL0     H46443   6.865   7.591   2.971 -2.0270 -1.3753  1.6429
  337MOL0     H46444   6.744   7.519   2.856 -0.6269 -1.3847 -1.0893
  337MOL0     H46445   6.828   7.288   2.894 -1.3958 -2.0484  1.9090
  337MOL0     H46446   6.953   7.354   3.001 -0.5420  1.1109  1.1887
  337MOL0     H46447   6.653   7.377   3.044  0.1014  2.2560  2.1938
  337MOL0     H46448   6.785   7.434   3.154 -1.0266 -1.0124  2.0152
  337MOL0     H46449   6.735   7.149   3.062 -0.1445  1.2437 -1.3182
  337MOL0     H46450   6.872   7.206   3.168  0.0966  1.0665 -0.0658
  337MOL0     H46451   6.593   7.272   3.265 -0.1926 -0.6874 -3.0366
  337MOL0     H46452   6.747   7.252   3.353 -0.0917  1.7590 -0.5296
  337MOL0     H46453   6.585   7.079   3.403 -1.8729  1.1240 -1.1363
  337MOL0     H46454   6.609   7.009   3.240 -0.1173 -0.7349  1.4222
  337MOL0     H46455   6.858   7.111   3.546 -1.1450  1.4968 -1.0696
  337MOL0     H46456   7.053   6.812   3.630  0.5640  1.8028  1.1233
  337MOL0     H46457   7.056   6.991   3.641 -2.2344  0.2763  1.6557
  337MOL0     H46458   7.192   6.820   3.429  1.4940 -0.4730  2.2381
  337MOL0     H46459   7.208   6.997   3.446 -0.9072 -0.4372 -2.2506
  337MOL0     H46460   7.322   6.978   3.645 -1.6144 -0.3371 -0.2580
  337MOL0     H46461   7.287   6.814   3.668 -3.5309 -0.7310 -1.3202
  337MOL0     H46462   7.404   6.799   3.416 -2.9095  2.0595 -0.9005
  337MOL0     H46463   7.480   6.947   3.474  0.5457 -0.1178  0.1406
  337MOL0     H46464   7.633   6.828   3.318  0.3866  0.8355  1.0851
  337MOL0     H46465   7.842   6.684   3.138  2.7222 -0.9528  0.3771
  337MOL0     H46466   7.943   6.828   3.197 -1.1190  2.1742 -1.7930
  337MOL0     H46467   7.774   6.845   3.161 -0.9343 -0.2236  3.7132
  337MOL0     H46468   8.374   6.790   3.444 -1.1014  0.5770 -0.9162
  337MOL0     H46469   8.553   6.714   3.327 -0.1742  0.2086  1.5900
  337MOL0     H46470   8.689   6.605   3.171 -1.3501  0.2018  2.1174
  337MOL0     H46471   8.758   6.556   3.324  0.4987  0.3517 -0.6278
  337MOL0     H46472   8.794   6.375   3.101 -1.8192  0.3702  1.2330
  337MOL0     H46473   8.908   6.510   3.122  0.9831  1.4135  2.1552
  337MOL0     H46474   8.950   6.273   3.232 -0.8344 -1.7828  1.1024
  337MOL0     H46475   8.847   6.327   3.366 -1.1486 -0.6506 -0.9179
  337MOL0     H46476   8.984   6.498   3.435 -0.9531 -0.5077 -0.1927
  337MOL0     H46477   9.093   6.484   3.294 -3.7227 -0.2005 -2.8022
  337MOL0     H46478   9.208   6.388   3.470 -0.6258  1.5440  1.1438
  337MOL0     H46479   9.083   6.285   3.520  0.0142  1.7898  0.6468
  337MOL0     H46480   9.217   6.290   3.258  1.0676 -0.8810 -0.4501
  337MOL0     H46481   9.104   6.156   3.297  1.7284 -2.2788  0.7151
  337MOL0     H46482   9.263   6.077   3.466 -1.0125 -0.1153 -0.1325
  337MOL0     H46483   9.349   6.228   3.451  0.1214  1.3965 -1.2997
  337MOL0     H46484   9.459   6.049   3.318  0.6872 -0.2396 -0.7268
  337MOL0     H46485   9.381   6.151   3.192 -1.1815 -2.2496 -0.6115
  337MOL0     H46486   8.400   6.306   3.309  0.1233  0.5527 -1.5913
  337MOL0     H46487   8.199   6.391   3.427 -0.9638  1.6788  0.8318
  337MOL0     H46488   7.933   6.615   3.639 -0.9685 -1.9503 -0.2497
  337MOL0     H46489   7.738   6.692   3.716  2.8812  0.4875  0.2739
  337MOL0     H46490   6.980   7.862   2.518 -0.2315  0.3465  0.1758
  337MOL0     H46491   6.930   7.963   2.304 -3.0093  0.5034 -0.7792
  337MOL0     H46492   7.129   8.074   1.852 -0.3984  0.6721  0.0712
  337MOL0     H46493   7.041   8.250   1.683 -1.9011 -0.1335 -1.3968
  337MOL0     H46494   6.616   8.373   1.739 -1.6967  2.0084 -0.6246
  337MOL0     H46495   6.687   8.479   1.610  1.8491  0.8043  3.8794
  337MOL0     H46496   6.610   8.179   1.586  0.9930 -1.4457 -3.2559
  337MOL0     H46497   6.649   8.279   1.444 -1.0734  1.2879 -1.3061
  337MOL0     H46498   6.407   8.343   1.613  0.2683 -3.2721  1.6400
  337MOL0     H46499   6.460   8.389   1.444  1.4478  0.8270  0.6827
  337MOL0     H46500   6.426   8.187   1.350  0.6278  1.1814 -0.0025
  337MOL0     H46501   6.275   8.224   1.437 -0.1912 -1.9288  1.0723
  337MOL0     H46502   6.411   7.869   1.630 -2.7236 -0.8945 -0.3097
  337MOL0     H46503   6.655   8.185   1.826 -1.2616 -2.0927  1.1057
  337MOL0     H46504   6.711   8.013   2.118  0.2931 -0.3129  0.0073
  337MOL0     H46505   6.610   8.098   2.007  2.1168  1.7838 -0.8971
  337MOL0     H46506   6.635   7.924   1.984 -0.6380  0.2294 -0.9816
  338MOL0     O46507   5.051   9.236   2.805  0.0027  0.8450  0.1345
  338MOL0     C46508   5.084   9.118   2.780 -0.3821  0.2458  0.3739
  338MOL0     O46509   5.207   9.073   2.806 -0.8524  0.7797 -0.9711
  338MOL0     C46510   5.305   9.156   2.858 -0.3864 -0.4104 -0.7859
  338MOL0     C46511   5.291   9.213   2.984 -0.0159  0.1148  0.2727
  338MOL0     C46512   5.387   9.305   3.031  0.7704  0.1834 -0.1335
  338MOL0     C46513   5.499   9.337   2.960 -0.2586 -0.6180  0.3027
  338MOL0     O46514   5.584   9.430   3.014  0.2286 -0.0561 -0.3122
  338MOL0     C46515   5.712   9.453   2.959 -0.1980 -0.6158 -0.1208
  338MOL0     C46516   5.806   9.335   2.994 -0.4550 -0.0256  0.0908
  338MOL0     C46517   5.959   9.357   2.990  0.0009  0.5549  0.1831
  338MOL0     C46518   5.999   9.419   2.852  0.7315  0.3444 -0.2553
  338MOL0     C46519   6.147   9.423   2.832 -0.5311  1.0289 -0.7046
  338MOL0     C46520   6.187   9.498   2.706 -0.3894 -0.1569 -0.7941
  338MOL0     C46521   6.335   9.500   2.685 -0.1275  0.2261  0.0600
  338MOL0     C46522   6.408   9.625   2.714  0.0284  0.4113  0.5184
  338MOL0     N46523   6.545   9.621   2.734  0.4490  1.0406  0.2028
  338MOL0     C46524   6.634   9.723   2.697  1.1485  0.1479 -0.5383
  338MOL0     C46525   6.760   9.671   2.699  0.3770  0.3359 -0.2094
  338MOL0     C46526   6.897   9.736   2.699  0.3734  0.4510  0.0010
  338MOL0     C46527   6.969   9.708   2.570 -0.0781  1.0989  0.3482
  338MOL0     C46528   7.118   9.752   2.577 -0.4199 -0.2536  0.0499
  338MOL0     C46529   7.141   9.898   2.584  0.6688  0.8924 -0.1521
  338MOL0     O46530   7.270   9.925   2.536 -0.7853 -0.2702 -0.3808
  338MOL0     C46531   7.387   9.921   2.619 -0.3091  0.3482 -0.2212
  338MOL0     C46532   7.512   9.944   2.579 -0.2716 -1.0020 -0.4710
  338MOL0     C46533   7.624   9.952   2.669 -0.2654  0.4604  0.1069
  338MOL0     C46534   7.757   9.984   2.589 -0.8204 -0.0005 -0.7862
  338MOL0     C46535   7.618   9.928   2.799  0.7296  0.1839  0.4176
  338MOL0     C46536   7.733   9.916   2.891  0.5858  0.5192 -0.0781
  338MOL0     O46537   7.866   9.923   2.846 -0.1294 -0.6735 -0.5168
  338MOL0     C46538   7.955   9.947   2.940 -0.0651  1.2859 -0.6042
  338MOL0     C46539   7.989  10.080   2.972  0.4107 -0.3844 -0.5046
  338MOL0     C46540   8.089  10.108   3.067  0.5115  0.4194  0.4263
  338MOL0     C46541   8.155  10.002   3.132  0.1401 -0.7252 -0.2169
  338MOL0     O46542   8.248  10.034   3.230 -0.0157  0.0467  0.6812
  338MOL0     C46543   8.381  10.059   3.178 -0.3005  0.2750  1.0731
  338MOL0     C46544   8.453   9.942   3.115 -0.0135  0.3613  0.5969
  338MOL0     C46545   8.583   9.989   3.054 -1.0603 -0.2435 -0.1087
  338MOL0     C46546   8.654   9.873   2.992  0.3472  0.1638 -0.0663
  338MOL0     C46547   8.793   9.897   2.934 -1.1495  0.0456  0.3684
  338MOL0     C46548   8.915   9.923   3.027  0.0178  0.4208 -0.0713
  338MOL0     C46549   9.046   9.919   2.941  0.2733  0.0264  0.3412
  338MOL0     C46550   9.167   9.943   3.031  0.3937  0.4587  0.8620
  338MOL0    Cl46551   9.294   9.877   2.925  0.1964 -0.2639 -0.1377
  338MOL0     C46552   8.116   9.866   3.113 -0.6292 -0.3310  0.4951
  338MOL0     C46553   8.014   9.837   3.017  0.6412  0.0136  0.3966
  338MOL0     O46554   7.699   9.899   3.010  0.4679  0.2154 -0.1190
  338MOL0     C46555   7.491   9.875   2.842 -0.1735 -0.1837  0.1772
  338MOL0     C46556   7.380   9.877   2.755 -0.3408  0.1397  0.2693
  338MOL0     N46557   6.743   9.537   2.719  0.0251  0.0673  0.9430
  338MOL0     N46558   6.616   9.501   2.733 -0.8416  0.2130  0.0075
  338MOL0     C46559   5.522   9.269   2.835  0.4053 -0.2939  0.1458
  338MOL0     C46560   5.422   9.182   2.785 -0.2717 -0.1550  0.2655
  338MOL0     C46561   4.983   9.012   2.734 -0.3161 -0.0778 -0.0225
  338MOL0     C46562   5.020   8.873   2.740  0.5721 -0.2152  0.7241
  338MOL0     C46563   4.919   8.768   2.729  0.2311 -0.6281  0.2075
  338MOL0     C46564   4.784   8.801   2.705 -0.2510 -1.2091  0.5622
  338MOL0     O46565   4.690   8.698   2.716 -0.6025 -0.0016 -0.0397
  338MOL0     C46566   4.559   8.714   2.672 -0.6500 -0.4155  0.4244
  338MOL0     C46567   4.502   8.574   2.686  0.2539  0.8967 -0.5809
  338MOL0     C46568   4.405   8.557   2.566  0.3138  0.5611  0.3961
  338MOL0     C46569   4.280   8.468   2.592  0.5761 -0.6116 -0.0598
  338MOL0     C46570   4.194   8.545   2.685  0.2539  0.3547  0.4497
  338MOL0     C46571   4.114   8.605   2.751 -0.9127 -0.3174 -0.4026
  338MOL0     C46572   4.755   8.944   2.697 -0.1041  0.3677  0.0831
  338MOL0     C46573   4.851   9.046   2.711 -0.2257  0.0787  0.2517
  338MOL0     C46574   4.795   9.192   2.707  0.1508  0.2612 -0.2507
  338MOL0     H46575   5.205   9.187   3.045  0.5778 -1.7935  0.3654
  338MOL0     H46576   5.370   9.341   3.132 -0.4141 -3.5208  1.1326
  338MOL0     H46577   5.751   9.545   3.004  1.6608  0.4543 -3.5862
  338MOL0     H46578   5.711   9.475   2.852 -0.7143 -1.0718 -0.2142
  338MOL0     H46579   5.786   9.303   3.096 -1.3637  1.0028  0.2594
  338MOL0     H46580   5.778   9.257   2.923 -1.4985  0.3122  0.1145
  338MOL0     H46581   6.005   9.416   3.070  1.4136  0.7765 -0.7562
  338MOL0     H46582   6.016   9.264   2.987  0.4675  0.8358  0.1625
  338MOL0     H46583   5.952   9.362   2.772 -0.9309  2.7799 -1.1316
  338MOL0     H46584   5.958   9.518   2.834 -0.9550 -0.0950  0.9053
  338MOL0     H46585   6.195   9.324   2.835 -2.3952  0.1044  1.1067
  338MOL0     H46586   6.190   9.474   2.919 -1.5402 -1.4744  1.3855
  338MOL0     H46587   6.136   9.452   2.621 -2.5674  0.7211 -0.0351
  338MOL0     H46588   6.142   9.598   2.712  0.9301  0.4761 -1.1826
  338MOL0     H46589   6.353   9.475   2.580  1.2127 -2.0208  0.7371
  338MOL0     H46590   6.377   9.416   2.742  2.3105  1.2092 -0.1421
  338MOL0     H46591   6.396   9.683   2.622 -0.1454 -0.7930 -0.2334
  338MOL0     H46592   6.357   9.668   2.800 -2.7182 -1.3387 -0.1144
  338MOL0     H46593   6.617   9.827   2.672  0.8496  0.2976  0.2478
  338MOL0     H46594   6.948   9.693   2.786  0.0676 -2.1038 -1.0049
  338MOL0     H46595   6.880   9.844   2.708  1.5370  0.7831 -1.3623
  338MOL0     H46596   6.963   9.601   2.545 -2.3235  0.7612  2.0413
  338MOL0     H46597   6.923   9.749   2.479 -0.1313 -1.5535 -0.9245
  338MOL0     H46598   7.166   9.709   2.665  1.7744 -0.5735 -1.2436
  338MOL0     H46599   7.171   9.721   2.487  3.5869 -0.8653  2.4206
  338MOL0     H46600   7.080   9.961   2.519  0.3146  1.6536  0.8858
  338MOL0     H46601   7.118   9.917   2.689 -1.1430  1.6258 -0.6456
  338MOL0     H46602   7.542   9.973   2.479  0.6668  3.4717  0.8404
  338MOL0     H46603   7.806   9.886   2.580  1.9473  1.3282 -1.0879
  338MOL0     H46604   7.816  10.064   2.634 -3.6021  0.7268  1.8585
  338MOL0     H46605   7.734  10.017   2.488  1.2510 -1.5599 -1.8513
  338MOL0     H46606   7.939  10.160   2.918 -2.4592 -1.5350  0.3025
  338MOL0     H46607   8.126  10.207   3.092 -0.1339  0.3387  1.7763
  338MOL0     H46608   8.375  10.146   3.112 -0.2187 -1.6940 -1.7105
  338MOL0     H46609   8.457  10.071   3.256  0.6447 -0.3171  0.2710
  338MOL0     H46610   8.478   9.863   3.187  2.0017  0.7727  0.3967
  338MOL0     H46611   8.385   9.909   3.036  2.9313 -1.5132 -1.3244
  338MOL0     H46612   8.650  10.031   3.129 -1.5886  0.0487  0.1984
  338MOL0     H46613   8.569  10.069   2.981 -0.0842 -0.0860 -0.1395
  338MOL0     H46614   8.591   9.843   2.908  0.2157  0.7019 -0.1668
  338MOL0     H46615   8.661   9.789   3.062  3.6685  1.0182  0.8107
  338MOL0     H46616   8.823   9.794   2.912  0.3564 -0.2131  3.1195
  338MOL0     H46617   8.794   9.964   2.848 -0.6796  0.0257  0.3551
  338MOL0     H46618   8.928   9.841   3.099  1.4971  1.5401  0.9961
  338MOL0     H46619   8.898  10.018   3.080  0.2302  0.6416 -0.3999
  338MOL0     H46620   9.042   9.992   2.860  2.9606  0.0240  0.1298
  338MOL0     H46621   9.047   9.819   2.896  0.4594 -0.4984  1.4700
  338MOL0     H46622   9.173   9.873   3.114 -0.7704  1.6553  1.9978
  338MOL0     H46623   9.184  10.049   3.053 -1.2562  0.8609  0.3592
  338MOL0     H46624   8.167   9.798   3.180  0.8610  0.4291  0.1645
  338MOL0     H46625   7.984   9.736   2.992 -1.4412  0.6421  0.2010
  338MOL0     H46626   7.488   9.828   2.939 -0.4205  2.4982  1.5680
  338MOL0     H46627   7.294   9.830   2.802  0.7317 -1.9422  0.3074
  338MOL0     H46628   5.606   9.287   2.769 -2.0173  0.5495 -2.9481
  338MOL0     H46629   5.449   9.128   2.695  1.2397 -0.3927  0.8225
  338MOL0     H46630   5.125   8.846   2.738  0.2363 -1.6758  1.7119
  338MOL0     H46631   4.952   8.665   2.725  1.9375 -0.2018 -4.9865
  338MOL0     H46632   4.512   8.783   2.743 -0.2326  0.1365  0.1743
  338MOL0     H46633   4.550   8.757   2.571 -1.4627  0.0237  0.6756
  338MOL0     H46634   4.456   8.564   2.784  1.8320  2.0351  0.3070
  338MOL0     H46635   4.585   8.503   2.673  3.4737  4.7296 -3.6627
  338MOL0     H46636   4.383   8.661   2.536  2.5383  2.1740  3.7622
  338MOL0     H46637   4.465   8.513   2.486  4.3546  1.6352  2.5167
  338MOL0     H46638   4.302   8.367   2.628 -2.5836 -1.8099 -1.1510
  338MOL0     H46639   4.224   8.442   2.502  0.9857 -0.6633 -0.3044
  338MOL0     H46640   4.039   8.661   2.804 -0.0922  0.3307  0.1129
  338MOL0     H46641   4.648   8.964   2.695  0.2878  2.8381  0.8473
  338MOL0     H46642   4.695   9.191   2.661  0.2067 -1.1136 -0.4030
  338MOL0     H46643   4.792   9.233   2.808 -0.2780 -0.2346 -0.0499
  338MOL0     H46644   4.863   9.256   2.651  0.4761  0.4385  0.3473
  339MOL0     O46645   5.828   2.173   8.817 -0.6441 -0.3808  0.6273
  339MOL0     C46646   5.748   2.218   8.743  0.0065  0.1628  1.1773
  339MOL0     O46647   5.617   2.190   8.742 -0.3426 -0.1614  0.2088
  339MOL0     C46648   5.568   2.096   8.835  0.0522 -0.8426  0.1928
  339MOL0     C46649   5.497   2.156   8.936 -0.1584 -0.1742  0.0605
  339MOL0     C46650   5.431   2.074   9.030  0.1563 -0.2264  0.3398
  339MOL0     C46651   5.429   1.934   9.026  0.2680  0.7053 -0.2620
  339MOL0     O46652   5.357   1.860   9.125 -0.0276 -0.8866 -0.2576
  339MOL0     C46653   5.371   1.718   9.116  0.6462  0.3109 -0.8135
  339MOL0     C46654   5.264   1.668   9.214 -0.4672  0.7775 -1.0971
  339MOL0     C46655   5.304   1.699   9.362 -0.6439  0.4515 -0.2110
  339MOL0     C46656   5.205   1.637   9.457  0.8043 -0.1573  0.0895
  339MOL0     C46657   5.245   1.649   9.610 -0.6662  0.4074  0.0482
  339MOL0     C46658   5.261   1.789   9.666  0.0664  0.0515 -0.4256
  339MOL0     C46659   5.127   1.858   9.652 -0.6050  0.2352 -0.6983
  339MOL0     C46660   5.114   1.993   9.717 -0.3231 -0.2983 -0.5520
  339MOL0     N46661   5.226   2.083   9.685  0.9658  0.2451  0.5144
  339MOL0     C46662   5.251   2.111   9.555 -0.4599 -1.0506 -0.0871
  339MOL0     C46663   5.375   2.174   9.555 -0.0377  0.6371  0.3579
  339MOL0     C46664   5.448   2.225   9.433  0.6935 -0.4445  0.0626
  339MOL0     C46665   5.542   2.117   9.380  0.5029  0.3207  0.2240
  339MOL0     C46666   5.631   2.183   9.277 -0.0490 -0.0701  0.0110
  339MOL0     C46667   5.754   2.100   9.229 -0.6400  0.8608 -0.1652
  339MOL0     O46668   5.826   2.055   9.347 -0.4527 -0.7634  0.4923
  339MOL0     C46669   5.944   1.981   9.329  0.9839 -0.0008 -0.9349
  339MOL0     C46670   6.001   1.947   9.452  0.4784 -0.3739 -0.6687
  339MOL0     C46671   6.126   1.894   9.461  0.2591 -0.4136 -1.0137
  339MOL0     C46672   6.174   1.861   9.597  0.5970 -0.5821  1.3038
  339MOL0     C46673   6.195   1.854   9.345  0.2381 -0.6073  0.3753
  339MOL0     C46674   6.325   1.774   9.343 -0.4096  0.1477 -0.4557
  339MOL0     O46675   6.389   1.797   9.231 -0.2768  0.1973  0.4821
  339MOL0     C46676   6.496   1.724   9.192  0.1257  0.7001 -1.2998
  339MOL0     C46677   6.472   1.592   9.153 -0.1104  0.0817  1.2493
  339MOL0     C46678   6.571   1.516   9.092  0.0697  0.0748  0.2874
  339MOL0     C46679   6.698   1.575   9.088  0.0128  0.5248  0.4168
  339MOL0     O46680   6.791   1.487   9.038 -0.2269  0.1871  0.4842
  339MOL0     C46681   6.914   1.551   8.987 -0.1173  0.8119 -0.2032
  339MOL0     C46682   7.003   1.431   8.934  0.3428 -0.4446  0.0369
  339MOL0     C46683   7.095   1.379   9.047 -0.2095 -0.0724  0.8403
  339MOL0     C46684   7.184   1.270   8.982  0.3579  0.9903  0.0597
  339MOL0     C46685   7.112   1.139   8.934 -0.6901  0.3457  0.6208
  339MOL0     C46686   7.215   1.027   8.893  0.4035 -0.9564 -0.0662
  339MOL0     C46687   7.152   0.885   8.893  0.4195 -1.2160 -0.5251
  339MOL0     C46688   7.233   0.796   8.804  0.0760  0.5081 -0.3500
  339MOL0    Cl46689   7.412   0.810   8.834  0.2423 -0.6497 -0.4962
  339MOL0     C46690   6.725   1.706   9.137  0.3468  0.0628 -0.1461
  339MOL0     C46691   6.618   1.777   9.192 -0.5039  0.3110 -0.6474
  339MOL0     O46692   6.370   1.712   9.440 -0.7673 -0.1371  0.6890
  339MOL0     C46693   6.132   1.891   9.216 -0.0720  0.5870  0.1576
  339MOL0     C46694   6.003   1.949   9.213 -0.2980 -0.0151  0.4848
  339MOL0     N46695   5.415   2.173   9.688 -0.1088 -0.2240  0.2367
  339MOL0     N46696   5.328   2.115   9.760  0.0489  0.0130 -0.5706
  339MOL0     C46697   5.514   1.880   8.926 -0.0463  0.0896  0.8600
  339MOL0     C46698   5.570   1.962   8.828  0.3823  0.4082  0.2336
  339MOL0     C46699   5.812   2.326   8.662 -0.2116  0.9090  0.6476
  339MOL0     C46700   5.948   2.331   8.636  0.6310  0.1758 -0.6789
  339MOL0     C46701   6.010   2.441   8.567 -0.4610  1.2396  0.1389
  339MOL0     C46702   5.936   2.547   8.522 -0.2022 -0.4504  0.2030
  339MOL0     O46703   5.978   2.655   8.449 -0.0074 -0.4530 -0.3942
  339MOL0     C46704   6.067   2.639   8.339 -0.9637 -0.2119  0.5059
  339MOL0     C46705   6.024   2.701   8.212 -0.1544  0.9516  0.2294
  339MOL0     C46706   5.975   2.849   8.226 -0.4654 -0.1219  0.7339
  339MOL0     C46707   6.069   2.944   8.305  0.0693 -0.0418 -1.1716
  339MOL0     C46708   6.194   2.963   8.233 -0.0011  0.1101  0.4453
  339MOL0     C46709   6.315   2.968   8.206  0.2759  0.6740  0.3631
  339MOL0     C46710   5.801   2.542   8.545  0.6646  0.5605 -0.2569
  339MOL0     C46711   5.736   2.431   8.609 -0.8329  0.3634  0.1288
  339MOL0     C46712   5.586   2.438   8.620 -0.1045  0.2774 -0.0677
  339MOL0     H46713   5.487   2.265   8.934 -2.1863 -0.2807  1.2415
  339MOL0     H46714   5.369   2.129   9.100 -1.4483 -1.1516 -0.3091
  339MOL0     H46715   5.472   1.677   9.128  1.3800  0.6968 -4.4239
  339MOL0     H46716   5.336   1.691   9.016  0.3367  1.2922 -0.9888
  339MOL0     H46717   5.164   1.705   9.189 -0.3512  0.1643 -2.5764
  339MOL0     H46718   5.276   1.560   9.205  1.9334  0.7566  1.0781
  339MOL0     H46719   5.401   1.653   9.385 -0.7344 -0.0290 -0.7419
  339MOL0     H46720   5.312   1.806   9.382 -1.3460 -0.1232  3.8664
  339MOL0     H46721   5.102   1.669   9.442  0.4767 -0.7404  0.9654
  339MOL0     H46722   5.204   1.531   9.431 -0.4027 -0.2010  0.2591
  339MOL0     H46723   5.341   1.597   9.615 -1.7471 -1.9834 -1.9792
  339MOL0     H46724   5.182   1.589   9.676 -0.4653 -1.0344 -1.0382
  339MOL0     H46725   5.292   1.784   9.771  0.4738 -2.1436 -0.5913
  339MOL0     H46726   5.338   1.850   9.619 -0.1238  0.4330 -0.2451
  339MOL0     H46727   5.049   1.794   9.695  0.0468 -1.7288 -2.2621
  339MOL0     H46728   5.103   1.876   9.547 -0.8614 -0.1772 -0.7140
  339MOL0     H46729   5.024   2.045   9.683 -1.8759 -0.0828  3.3359
  339MOL0     H46730   5.121   1.979   9.825  1.9417  4.4281  0.1705
  339MOL0     H46731   5.177   2.087   9.479 -0.7182 -1.1089  0.1782
  339MOL0     H46732   5.512   2.312   9.448  0.1352  0.5736 -2.9008
  339MOL0     H46733   5.372   2.255   9.360  2.0627 -1.4245 -1.8207
  339MOL0     H46734   5.596   2.087   9.470  1.2728  1.2868  0.1017
  339MOL0     H46735   5.477   2.034   9.351  0.7872  0.2789 -0.3209
  339MOL0     H46736   5.566   2.212   9.194 -2.8844  0.4532  2.2346
  339MOL0     H46737   5.674   2.277   9.314  0.8361 -0.8180  0.9363
  339MOL0     H46738   5.736   2.029   9.148  1.4253  2.1233 -1.8517
  339MOL0     H46739   5.824   2.168   9.180 -2.1343  2.6998  0.1316
  339MOL0     H46740   5.949   1.977   9.542 -1.4523 -4.1484 -0.3313
  339MOL0     H46741   6.251   1.929   9.635 -1.2948  1.4815  1.6760
  339MOL0     H46742   6.220   1.763   9.607  2.5977  0.1869  0.3023
  339MOL0     H46743   6.096   1.873   9.672 -2.7688  1.8062 -2.1719
  339MOL0     H46744   6.370   1.556   9.146 -0.5834  1.3848  1.2259
  339MOL0     H46745   6.546   1.421   9.045  1.9300 -0.8877  1.1611
  339MOL0     H46746   6.892   1.626   8.910 -1.3645  0.4812 -0.2018
  339MOL0     H46747   6.969   1.599   9.068 -0.2949 -1.0507  1.0961
  339MOL0     H46748   6.947   1.347   8.892  1.0822  0.2053 -2.4046
  339MOL0     H46749   7.060   1.466   8.848  0.7067 -0.6317  0.1946
  339MOL0     H46750   7.025   1.346   9.123  0.4595 -2.5484  0.4467
  339MOL0     H46751   7.165   1.459   9.074 -0.3881 -0.0403  1.2082
  339MOL0     H46752   7.262   1.250   9.056 -0.3517  2.2013  1.1718
  339MOL0     H46753   7.225   1.307   8.887  1.5270 -1.8113 -0.6120
  339MOL0     H46754   7.076   1.090   9.025  0.1173 -0.7691  0.3616
  339MOL0     H46755   7.034   1.151   8.858 -0.8683 -0.7969  0.6053
  339MOL0     H46756   7.289   1.025   8.973  1.1811  3.4763 -0.4313
  339MOL0     H46757   7.260   1.048   8.796 -0.6012 -0.3351 -0.4170
  339MOL0     H46758   7.047   0.894   8.864 -0.0320  0.9667  1.5076
  339MOL0     H46759   7.145   0.851   8.997 -1.4605  2.0492  0.5598
  339MOL0     H46760   7.211   0.821   8.700 -2.0293 -1.5868 -0.4737
  339MOL0     H46761   7.206   0.691   8.816 -1.2124  0.7972 -0.6343
  339MOL0     H46762   6.827   1.743   9.133  1.4570 -2.5180  1.6235
  339MOL0     H46763   6.634   1.874   9.240  1.0275 -0.7362  1.1099
  339MOL0     H46764   6.168   1.867   9.117 -2.4731 -1.1845 -0.3865
  339MOL0     H46765   5.963   1.963   9.113 -1.5774 -5.6736 -0.1172
  339MOL0     H46766   5.547   1.779   8.908  1.0121  0.5573  0.0670
  339MOL0     H46767   5.621   1.911   8.747 -1.5333 -2.5230  0.7240
  339MOL0     H46768   6.003   2.259   8.697  1.0151  1.3546  0.4121
  339MOL0     H46769   6.118   2.443   8.561 -0.3355 -1.4261  0.4007
  339MOL0     H46770   6.164   2.676   8.373  1.1133 -3.7153 -1.0199
  339MOL0     H46771   6.079   2.533   8.315 -3.8875 -0.3199 -0.9321
  339MOL0     H46772   5.937   2.642   8.184 -0.2609  0.8718  0.7199
  339MOL0     H46773   6.098   2.693   8.132 -0.5004  0.9342 -0.0944
  339MOL0     H46774   5.975   2.883   8.122  0.4762 -0.9386  0.4524
  339MOL0     H46775   5.872   2.847   8.263 -0.4685 -1.8279  0.7101
  339MOL0     H46776   6.097   2.904   8.403  1.0439 -1.1731 -1.8995
  339MOL0     H46777   6.023   3.044   8.311  0.1850 -0.0240 -0.5337
  339MOL0     H46778   6.417   2.996   8.191 -0.4652  5.0835  1.9886
  339MOL0     H46779   5.747   2.630   8.511  0.0066  0.7121  1.1199
  339MOL0     H46780   5.548   2.449   8.722  0.3317 -2.4754  0.4691
  339MOL0     H46781   5.553   2.528   8.568 -3.4208 -2.2006 -2.7374
  339MOL0     H46782   5.539   2.353   8.569 -0.2159 -0.4399  1.1859
  340MOL0     O46783   9.246   6.890   6.363  0.7532  0.2550  0.2435
  340MOL0     C46784   9.253   6.847   6.250  0.1284  0.8599 -0.0832
  340MOL0     O46785   9.361   6.858   6.164 -0.3322 -0.2794  0.9491
  340MOL0     C46786   9.478   6.900   6.204 -0.1605 -0.1653  0.0132
  340MOL0     C46787   9.591   6.813   6.195  0.8512 -0.3946 -0.2307
  340MOL0     C46788   9.712   6.860   6.243  0.0884  0.9533 -0.2627
  340MOL0     C46789   9.724   6.984   6.290 -0.1466 -1.1699 -0.3000
  340MOL0     O46790   9.848   7.028   6.320 -0.7625 -0.2237 -0.6143
  340MOL0     C46791   9.858   7.117   6.432 -0.5998  0.4582 -0.8245
  340MOL0     C46792   9.992   7.095   6.491 -1.6908  0.4292  0.1519
  340MOL0     C46793  10.024   6.952   6.545 -0.3922  0.5602 -0.3187
  340MOL0     C46794  10.164   6.946   6.606 -0.2832  0.7954 -0.8312
  340MOL0     C46795  10.290   6.922   6.508  0.2286 -0.3888 -0.3623
  340MOL0     C46796  10.417   6.954   6.586  0.7998 -0.2254 -0.2065
  340MOL0     C46797  10.448   6.836   6.685  0.1362 -0.2593  0.3623
  340MOL0     C46798  10.593   6.865   6.730  0.1675  0.0844  0.1549
  340MOL0     N46799  10.658   6.755   6.814 -0.2010  0.4928  0.5067
  340MOL0     C46800  10.792   6.744   6.839  0.6340 -0.0413 -0.2076
  340MOL0     C46801  10.804   6.627   6.904  0.4551  0.2468 -0.0513
  340MOL0     C46802  10.917   6.572   6.975  1.2108 -0.2346  0.2517
  340MOL0     C46803  10.932   6.615   7.124  0.0530 -1.1731  0.4711
  340MOL0     C46804  11.056   6.549   7.191 -0.2085  0.5096  0.1314
  340MOL0     C46805  11.189   6.544   7.102 -0.5309 -0.3824  0.1877
  340MOL0     O46806  11.303   6.517   7.185 -0.8099  0.2299 -0.4584
  340MOL0     C46807  11.306   6.390   7.243 -0.5981 -0.6887 -0.2861
  340MOL0     C46808  11.401   6.386   7.348  0.4977  1.4030  1.1078
  340MOL0     C46809  11.405   6.268   7.421 -0.8829  0.3530  0.2331
  340MOL0     C46810  11.516   6.279   7.524  0.3154  0.1899 -0.4858
  340MOL0     C46811  11.337   6.142   7.383 -0.1598 -0.1585  0.0686
  340MOL0     C46812  11.349   6.012   7.454 -0.4322 -0.0599  0.3346
  340MOL0     O46813  11.466   5.966   7.503  0.0644  0.4178 -0.4046
  340MOL0     C46814  11.460   5.853   7.590 -0.0627  0.3700 -0.2818
  340MOL0     C46815  11.442   5.873   7.727 -0.0147  0.0977 -0.0517
  340MOL0     C46816  11.450   5.769   7.817 -1.0084  0.2349  0.3477
  340MOL0     C46817  11.463   5.638   7.774 -0.1272 -0.8118  1.3033
  340MOL0     O46818  11.438   5.535   7.851 -0.3464 -0.0670  0.0523
  340MOL0     C46819  11.543   5.441   7.886  0.6404  0.0264  0.5790
  340MOL0     C46820  11.531   5.399   8.034  0.0084 -0.3739  1.0629
  340MOL0     C46821  11.666   5.341   8.082 -0.3448 -0.9528 -1.1758
  340MOL0     C46822  11.641   5.283   8.227 -0.0119 -0.0592 -0.3902
  340MOL0     C46823  11.778   5.247   8.291  0.6014  0.0652 -0.0915
  340MOL0     C46824  11.851   5.148   8.207 -0.3629  0.8346 -0.5735
  340MOL0     C46825  11.976   5.090   8.280  0.1800  0.0831 -0.1694
  340MOL0     C46826  12.034   4.969   8.206 -0.5709 -0.9182 -0.2325
  340MOL0    Cl46827  12.105   5.047   8.061  0.0896  0.1355  0.3848
  340MOL0     C46828  11.476   5.614   7.631 -0.3461  0.0813  0.4122
  340MOL0     C46829  11.486   5.724   7.539  0.9728 -0.2396 -0.2779
  340MOL0     O46830  11.242   5.952   7.465  0.6108  0.4825  0.1464
  340MOL0     C46831  11.258   6.157   7.267 -0.2497  1.2483 -0.0864
  340MOL0     C46832  11.244   6.278   7.203  0.3120  0.0236 -0.2857
  340MOL0     N46833  10.679   6.561   6.894 -0.6978 -0.4483 -0.0162
  340MOL0     N46834  10.590   6.638   6.838 -0.9631  0.2388 -0.3468
  340MOL0     C46835   9.620   7.074   6.290  0.1745  0.1752  0.3938
  340MOL0     C46836   9.495   7.033   6.248  0.0415 -0.4204 -0.1160
  340MOL0     C46837   9.134   6.762   6.214  0.7066 -0.6010  1.3257
  340MOL0     C46838   9.003   6.816   6.236  1.0173 -0.8763  0.9757
  340MOL0     C46839   8.890   6.743   6.200 -1.0746 -0.5867  0.4031
  340MOL0     C46840   8.899   6.625   6.143 -0.0817 -0.5491 -0.0569
  340MOL0     O46841   8.775   6.569   6.122 -0.2546 -0.0808  0.5879
  340MOL0     C46842   8.780   6.453   6.034 -0.1949 -0.1735  0.0936
  340MOL0     C46843   8.633   6.397   6.030  0.2566 -0.3225  0.0929
  340MOL0     C46844   8.541   6.477   5.937  0.4462  0.6874 -0.2749
  340MOL0     C46845   8.550   6.450   5.787 -0.2560 -0.6602 -0.5775
  340MOL0     C46846   8.494   6.567   5.723  0.8307  0.0472  0.4054
  340MOL0     C46847   8.444   6.672   5.687  0.3572 -0.1672  0.4723
  340MOL0     C46848   9.023   6.575   6.104  0.0115  0.9642  0.0665
  340MOL0     C46849   9.143   6.645   6.131 -0.0085 -0.0189 -0.5080
  340MOL0     C46850   9.269   6.597   6.074 -0.0099  0.2125  0.1024
  340MOL0     H46851   9.580   6.714   6.152 -0.3832 -0.5354  0.3665
  340MOL0     H46852   9.805   6.803   6.251 -0.8379 -0.3188  3.3731
  340MOL0     H46853   9.782   7.089   6.505 -0.8612  1.9707 -0.4757
  340MOL0     H46854   9.847   7.222   6.403 -2.4068 -0.3297 -3.3175
  340MOL0     H46855  10.071   7.135   6.427 -1.3238 -2.5536 -1.4483
  340MOL0     H46856  10.004   7.155   6.582 -1.1109  0.0770  0.3137
  340MOL0     H46857   9.940   6.921   6.609 -3.1004  0.1793 -3.7564
  340MOL0     H46858  10.017   6.881   6.462  0.5783 -0.1052  0.1555
  340MOL0     H46859  10.185   7.038   6.661  0.4562  0.2003 -0.0957
  340MOL0     H46860  10.173   6.868   6.682 -4.0186 -2.1737 -3.0992
  340MOL0     H46861  10.271   6.993   6.427 -1.8788  1.6118  1.7466
  340MOL0     H46862  10.294   6.823   6.462 -1.2124 -0.6811  0.1164
  340MOL0     H46863  10.496   6.954   6.511 -0.7341  2.2040 -1.9841
  340MOL0     H46864  10.410   7.053   6.633 -2.0033 -0.8020  0.8184
  340MOL0     H46865  10.442   6.747   6.622  3.6784 -1.8467  2.0054
  340MOL0     H46866  10.378   6.826   6.768 -2.0473 -0.0618 -1.3381
  340MOL0     H46867  10.661   6.894   6.648  2.3536 -0.5941  1.6310
  340MOL0     H46868  10.587   6.956   6.789 -1.1163  2.2081 -2.9728
  340MOL0     H46869  10.866   6.822   6.826 -0.9788  1.9811  1.8223
  340MOL0     H46870  11.008   6.594   6.919  1.1979  1.5392  0.8600
  340MOL0     H46871  10.899   6.465   6.986 -1.0844  0.1738  1.0723
  340MOL0     H46872  10.952   6.722   7.125 -2.1826 -0.6966  0.5682
  340MOL0     H46873  10.841   6.604   7.185 -0.0628  0.0219  0.5232
  340MOL0     H46874  11.075   6.613   7.279 -0.7048  0.2950  0.3969
  340MOL0     H46875  11.019   6.451   7.223 -0.9759  0.2686 -1.4289
  340MOL0     H46876  11.180   6.464   7.027  1.0174  0.4971 -0.9780
  340MOL0     H46877  11.199   6.638   7.047  1.6153 -1.4864 -1.4630
  340MOL0     H46878  11.451   6.478   7.375 -0.6473  1.8120  1.8883
  340MOL0     H46879  11.501   6.373   7.579 -2.3940  0.8478 -2.1572
  340MOL0     H46880  11.619   6.275   7.487  0.9049 -0.0459  1.0948
  340MOL0     H46881  11.493   6.203   7.600 -1.4189  1.8569  0.7606
  340MOL0     H46882  11.449   5.975   7.762  2.9661 -0.1398  0.3084
  340MOL0     H46883  11.440   5.777   7.924  1.1885 -0.6184  0.6723
  340MOL0     H46884  11.526   5.354   7.822 -0.4281  1.1776 -0.8097
  340MOL0     H46885  11.641   5.483   7.862  0.2917  1.5343  1.6289
  340MOL0     H46886  11.497   5.488   8.088 -0.5353 -0.0604  0.2280
  340MOL0     H46887  11.450   5.325   8.041  0.2776 -0.7254  0.5300
  340MOL0     H46888  11.733   5.428   8.079 -0.6823 -0.7059 -1.8534
  340MOL0     H46889  11.701   5.270   8.007  0.9165 -0.3762 -1.1546
  340MOL0     H46890  11.584   5.191   8.210  0.3208  0.0882 -2.7588
  340MOL0     H46891  11.590   5.353   8.293 -1.2645 -0.6212 -0.7340
  340MOL0     H46892  11.845   5.333   8.301 -0.9579  1.1556  1.9055
  340MOL0     H46893  11.758   5.213   8.393  0.5301  0.6147  0.0847
  340MOL0     H46894  11.879   5.198   8.114  2.8854 -0.3910 -0.3715
  340MOL0     H46895  11.787   5.060   8.193  1.5275 -1.3102  2.7869
  340MOL0     H46896  11.946   5.049   8.377  3.6878 -2.7225 -0.0674
  340MOL0     H46897  12.054   5.165   8.297  0.8403 -0.5788 -0.2550
  340MOL0     H46898  11.947   4.906   8.191 -0.2471 -1.1107 -1.4423
  340MOL0     H46899  12.116   4.916   8.256  1.7816  2.1711 -0.4856
  340MOL0     H46900  11.494   5.518   7.583  0.3633  0.7993 -0.8334
  340MOL0     H46901  11.487   5.709   7.431 -2.0856  3.8792 -1.1421
  340MOL0     H46902  11.223   6.066   7.217 -0.4925  0.5411  1.3117
  340MOL0     H46903  11.179   6.288   7.117 -3.0781 -1.2438  1.9413
  340MOL0     H46904   9.620   7.175   6.331 -0.5595 -0.0858  1.0614
  340MOL0     H46905   9.416   7.108   6.244 -0.1307 -0.5897  0.0369
  340MOL0     H46906   8.994   6.912   6.285 -1.0179 -0.8229  0.5797
  340MOL0     H46907   8.793   6.788   6.220 -1.0773 -1.1675  1.8230
  340MOL0     H46908   8.804   6.488   5.933  0.9040 -1.1327 -0.0069
  340MOL0     H46909   8.828   6.361   6.070 -3.0897 -1.2955  1.4008
  340MOL0     H46910   8.588   6.393   6.129  1.2455 -0.8139  0.5374
  340MOL0     H46911   8.657   6.299   5.987  1.4325  0.9817 -2.4732
  340MOL0     H46912   8.439   6.451   5.966  1.1884  1.5250  3.7914
  340MOL0     H46913   8.553   6.585   5.953 -1.6583  1.0462 -0.8310
  340MOL0     H46914   8.490   6.361   5.766 -1.7294  0.0524  0.4730
  340MOL0     H46915   8.652   6.444   5.749 -0.2557  2.6019 -1.4298
  340MOL0     H46916   8.414   6.770   5.655  1.6626  0.0011 -0.3351
  340MOL0     H46917   9.042   6.483   6.050 -2.0225  0.0996  0.7425
  340MOL0     H46918   9.321   6.558   6.162 -2.7304 -0.7309  1.4087
  340MOL0     H46919   9.256   6.522   5.995 -4.5104  0.1844  0.5694
  340MOL0     H46920   9.310   6.681   6.016 -0.3024 -0.4044 -1.0218
  341MOL0     O46921   3.882   5.947  10.186 -0.2277 -0.2965  0.4502
  341MOL0     C46922   3.845   5.951  10.065 -0.1621 -0.5136 -0.6675
  341MOL0     O46923   3.924   5.933   9.958  0.3196  0.4617  0.0054
  341MOL0     C46924   4.051   5.985   9.962  0.3670 -0.6319 -1.0398
  341MOL0     C46925   4.161   5.925   9.911  0.1792  0.6704 -0.4675
  341MOL0     C46926   4.281   5.984   9.898  0.0799  0.0001 -0.0846
  341MOL0     C46927   4.295   6.118   9.934  0.6892 -0.1479  0.3945
  341MOL0     O46928   4.414   6.185   9.956  0.5421  0.3063  0.1274
  341MOL0     C46929   4.527   6.107   9.979 -0.2528 -0.5136  0.0818
  341MOL0     C46930   4.629   6.206  10.041  0.1021  0.0352  0.4031
  341MOL0     C46931   4.669   6.325   9.959 -0.6537 -0.2645 -0.3193
  341MOL0     C46932   4.802   6.396  10.001 -0.1991 -0.5636 -0.0534
  341MOL0     C46933   4.927   6.319   9.967  0.7723  1.1432  0.2433
  341MOL0     C46934   5.053   6.405   9.944  0.5106 -0.7515  0.0397
  341MOL0     C46935   5.165   6.332   9.878  0.6268  0.3359  0.8582
  341MOL0     C46936   5.228   6.214   9.952 -0.1039 -1.4635 -0.3588
  341MOL0     N46937   5.359   6.183   9.899  0.5249 -0.9428 -0.6685
  341MOL0     C46938   5.476   6.245   9.934 -0.3517 -0.2636  0.5680
  341MOL0     C46939   5.564   6.163   9.872 -1.1482 -0.2087 -1.1690
  341MOL0     C46940   5.712   6.155   9.893  0.4903  0.1429 -0.1410
  341MOL0     C46941   5.780   6.067   9.790  0.4114 -0.0945  0.4840
  341MOL0     C46942   5.935   6.050   9.792  0.2767 -0.0718  0.7409
  341MOL0     C46943   5.995   6.004   9.927 -0.2767 -0.8461  0.8916
  341MOL0     O46944   6.134   5.998   9.888 -0.5792 -0.0130  0.2478
  341MOL0     C46945   6.233   5.938   9.960  0.4157  0.9894  0.1957
  341MOL0     C46946   6.208   5.866  10.079 -0.4075  0.5886 -0.0249
  341MOL0     C46947   6.317   5.795  10.142  0.1664 -1.4165  0.4689
  341MOL0     C46948   6.292   5.690  10.248 -0.1383  0.3039 -0.3584
  341MOL0     C46949   6.452   5.830  10.109 -0.7451  0.0807  0.2531
  341MOL0     C46950   6.568   5.778  10.167  0.1933 -0.7428 -0.0384
  341MOL0     O46951   6.615   5.654  10.120  0.7038 -0.2145 -0.4005
  341MOL0     C46952   6.718   5.602  10.197 -0.1078  0.2071  0.3849
  341MOL0     C46953   6.852   5.630  10.166  0.3921  0.7250 -0.6023
  341MOL0     C46954   6.943   5.585  10.263 -0.2330  0.7336 -0.0677
  341MOL0     C46955   6.915   5.506  10.376 -0.1193  0.3525 -0.1430
  341MOL0     O46956   7.002   5.468  10.474 -0.6522  0.3432 -0.0629
  341MOL0     C46957   6.980   5.328  10.510 -0.5658 -0.4378  0.5976
  341MOL0     C46958   7.105   5.281  10.584 -0.2357  0.5315 -0.0601
  341MOL0     C46959   7.128   5.370  10.704  0.1094 -0.3277 -0.0563
  341MOL0     C46960   7.254   5.329  10.777  0.0805 -0.6102 -0.8055
  341MOL0     C46961   7.285   5.439  10.885  0.4708  0.2788 -0.7085
  341MOL0     C46962   7.393   5.533  10.834  0.1631  0.3043 -0.5977
  341MOL0     C46963   7.422   5.652  10.923  0.4960  1.2588  0.2223
  341MOL0     C46964   7.569   5.684  10.920  1.0824  0.9143 -0.4615
  341MOL0    Cl46965   7.596   5.847  10.934  0.1672 -0.1683 -0.3611
  341MOL0     C46966   6.778   5.490  10.406  0.3416 -0.0943 -1.0433
  341MOL0     C46967   6.681   5.530  10.315 -0.3666  0.0285  0.0998
  341MOL0     O46968   6.619   5.842  10.250 -0.1912  0.1818 -0.3317
  341MOL0     C46969   6.473   5.914   9.993  1.1055 -0.3572  0.0774
  341MOL0     C46970   6.364   5.963   9.921  0.1951 -0.7276  0.8355
  341MOL0     N46971   5.505   6.060   9.802  0.4388 -1.0045  0.5283
  341MOL0     N46972   5.374   6.083   9.815  0.3414  0.3568 -0.4022
  341MOL0     C46973   4.184   6.184   9.993  0.4335 -1.0016 -0.2764
  341MOL0     C46974   4.067   6.120   9.994 -0.1587  0.1950 -0.3588
  341MOL0     C46975   3.705   5.971  10.037 -0.2585 -0.1292  0.4892
  341MOL0     C46976   3.639   5.905   9.928 -0.3305 -0.1337  0.6815
  341MOL0     C46977   3.500   5.904   9.909 -0.3596 -0.7561  0.1525
  341MOL0     C46978   3.422   5.983   9.996  0.3420  0.1860 -0.4947
  341MOL0     O46979   3.281   5.991   9.989 -0.3617 -0.2882 -0.7883
  341MOL0     C46980   3.199   5.901   9.912 -0.3149 -0.3420 -0.1935
  341MOL0     C46981   3.066   5.900   9.970  0.2877  0.5391 -0.4747
  341MOL0     C46982   2.973   5.806   9.891 -0.0306 -0.6569 -0.0017
  341MOL0     C46983   2.831   5.810   9.936  0.1074 -0.6252  1.0868
  341MOL0     C46984   2.819   5.808  10.081  1.1383 -0.8696  0.3119
  341MOL0     C46985   2.806   5.780  10.196 -0.0411 -0.2552  0.5894
  341MOL0     C46986   3.487   6.062  10.093  0.3372  0.6706 -0.0549
  341MOL0     C46987   3.624   6.059  10.111 -0.5395 -0.3973  0.7411
  341MOL0     C46988   3.692   6.168  10.196 -0.6775 -1.0617  0.6939
  341MOL0     H46989   4.154   5.821   9.879  4.0846  0.0699  0.1381
  341MOL0     H46990   4.370   5.927   9.872  0.7057  1.2484 -0.8157
  341MOL0     H46991   4.565   6.073   9.882 -0.8304 -1.7882  0.2777
  341MOL0     H46992   4.500   6.022  10.043 -1.0198 -0.4983 -0.2094
  341MOL0     H46993   4.576   6.246  10.128  0.9938  1.8291  0.1597
  341MOL0     H46994   4.725   6.158  10.061  0.5462  0.5101 -0.5447
  341MOL0     H46995   4.684   6.289   9.856  1.9648  0.2916 -0.2034
  341MOL0     H46996   4.598   6.408   9.970  0.1343  0.4349 -0.3791
  341MOL0     H46997   4.799   6.488   9.940 -1.5086 -1.2845 -1.1467
  341MOL0     H46998   4.806   6.427  10.105  2.8332  0.5108 -0.3928
  341MOL0     H46999   4.920   6.250   9.882 -0.8510 -1.1026  2.0739
  341MOL0     H47000   4.957   6.247  10.043  3.1146  0.6136 -1.0696
  341MOL0     H47001   5.030   6.488   9.877 -2.6409 -2.1641 -0.8111
  341MOL0     H47002   5.084   6.459  10.034 -1.1520  1.2446 -0.4967
  341MOL0     H47003   5.243   6.407   9.858  2.0284 -1.4589 -0.7865
  341MOL0     H47004   5.142   6.295   9.778  3.8259  0.0522  0.1194
  341MOL0     H47005   5.240   6.253  10.053  1.0650 -0.3440 -0.9013
  341MOL0     H47006   5.157   6.131   9.940 -1.3709 -0.5569  0.5838
  341MOL0     H47007   5.475   6.325  10.007 -2.3421  1.3021 -1.0509
  341MOL0     H47008   5.738   6.118   9.993  2.0767 -1.0852 -0.9632
  341MOL0     H47009   5.747   6.258   9.879 -2.7675  1.1643 -1.8026
  341MOL0     H47010   5.737   5.968   9.810  3.5078 -2.2385 -2.4301
  341MOL0     H47011   5.749   6.086   9.687  1.1356 -1.2377  0.0356
  341MOL0     H47012   5.968   5.989   9.708 -0.1743  0.5343  0.1160
  341MOL0     H47013   5.982   6.147   9.772  0.9215 -0.7927 -1.5019
  341MOL0     H47014   5.975   6.076  10.007 -0.3948 -1.2690  1.2452
  341MOL0     H47015   5.943   5.910   9.948 -1.8118  0.3973  3.0482
  341MOL0     H47016   6.108   5.864  10.123 -0.9757  1.2283 -1.2378
  341MOL0     H47017   6.360   5.694  10.333  0.0646 -3.0443 -0.2128
  341MOL0     H47018   6.314   5.593  10.202 -0.9838  1.0990 -2.5782
  341MOL0     H47019   6.189   5.687  10.284  0.4212 -2.9460  1.3642
  341MOL0     H47020   6.884   5.692  10.082 -0.0817  1.5407 -0.1856
  341MOL0     H47021   7.046   5.612  10.243  1.1631 -2.5597  1.8446
  341MOL0     H47022   6.898   5.319  10.583  1.0238 -0.1411  2.5247
  341MOL0     H47023   6.962   5.262  10.425 -1.0496 -1.4176  1.4324
  341MOL0     H47024   7.081   5.178  10.612 -0.7475  1.2462  2.4250
  341MOL0     H47025   7.200   5.283  10.529  0.6865  1.8987  1.4689
  341MOL0     H47026   7.037   5.364  10.764 -2.2645 -1.8549 -3.4597
  341MOL0     H47027   7.136   5.475  10.674 -2.3059 -0.0364  0.0954
  341MOL0     H47028   7.333   5.311  10.703 -1.1970 -1.8615 -1.9207
  341MOL0     H47029   7.239   5.230  10.821  0.0619 -0.3290 -0.1699
  341MOL0     H47030   7.190   5.483  10.915 -1.3808 -3.0078 -1.3075
  341MOL0     H47031   7.317   5.396  10.980 -0.5067  0.2472 -0.3841
  341MOL0     H47032   7.356   5.561  10.735 -1.4263 -4.0086 -1.4814
  341MOL0     H47033   7.487   5.483  10.811  0.9393  0.4831  1.9465
  341MOL0     H47034   7.396   5.639  11.029 -2.3249  2.6283 -0.1982
  341MOL0     H47035   7.366   5.735  10.879  0.1211  1.0540  0.3092
  341MOL0     H47036   7.616   5.660  10.824 -0.5613 -1.9915 -0.6549
  341MOL0     H47037   7.627   5.633  10.997  0.1834  0.2596 -0.2049
  341MOL0     H47038   6.729   5.451  10.495  0.1130  0.7344 -0.7995
  341MOL0     H47039   6.577   5.530  10.345 -0.2717  2.0781  0.5870
  341MOL0     H47040   6.569   5.950   9.959  0.2511 -0.1177 -2.2351
  341MOL0     H47041   6.374   6.033   9.838 -0.7726 -0.4402  0.9420
  341MOL0     H47042   4.205   6.286  10.023 -0.7031 -1.0284  0.7107
  341MOL0     H47043   3.984   6.182  10.027  0.8893  3.0658 -2.7060
  341MOL0     H47044   3.696   5.841   9.861 -3.7106 -0.2560 -2.3534
  341MOL0     H47045   3.452   5.832   9.843 -0.7343 -1.1140  0.8053
  341MOL0     H47046   3.197   5.940   9.809  3.4750  2.0555  0.4502
  341MOL0     H47047   3.242   5.801   9.903 -1.0438 -0.4520 -4.8116
  341MOL0     H47048   3.025   6.001   9.973 -0.1140  0.3728  1.6695
  341MOL0     H47049   3.070   5.860  10.072 -3.7090  1.9178  0.3880
  341MOL0     H47050   2.974   5.830   9.784 -2.2131 -3.4777 -0.7997
  341MOL0     H47051   3.013   5.706   9.911 -1.0504 -0.8963  0.9275
  341MOL0     H47052   2.775   5.722   9.905 -1.0654  0.7577 -0.9926
  341MOL0     H47053   2.781   5.892   9.883  0.5529  0.3662  2.1449
  341MOL0     H47054   2.795   5.757  10.300 -0.5845 -0.6780  0.4454
  341MOL0     H47055   3.416   6.125  10.144 -1.4924 -1.8818  0.7532
  341MOL0     H47056   3.776   6.199  10.134 -1.6926 -3.2142 -1.9601
  341MOL0     H47057   3.613   6.240  10.219  1.2234  0.4496  3.0461
  341MOL0     H47058   3.733   6.136  10.292  1.6097  1.9018  0.8578
  342MOL0     O47059   7.763  10.928  11.136  0.2304 -0.2159 -0.0708
  342MOL0     C47060   7.750  10.831  11.059  0.3797 -0.3212 -0.3261
  342MOL0     O47061   7.645  10.745  11.067 -0.4164  0.6889 -0.1944
  342MOL0     C47062   7.533  10.764  11.144  0.2412  1.2170  0.0513
  342MOL0     C47063   7.504  10.669  11.244  0.4304 -0.1672 -0.2084
  342MOL0     C47064   7.410  10.698  11.350 -0.5513  0.1404 -1.2557
  342MOL0     C47065   7.336  10.817  11.353 -0.5852 -0.7517  0.1072
  342MOL0     O47066   7.247  10.846  11.454  0.4675  0.3131  0.7575
  342MOL0     C47067   7.273  10.968  11.517  1.0397  0.3533  0.2777
  342MOL0     C47068   7.166  10.988  11.625 -0.7855 -0.6827 -0.1923
  342MOL0     C47069   7.028  10.995  11.563  0.4040  0.2325 -0.6111
  342MOL0     C47070   6.926  10.998  11.676 -0.0162  0.1657  0.5834
  342MOL0     C47071   6.799  11.065  11.630  0.1152  0.3609  0.5129
  342MOL0     C47072   6.696  11.078  11.755  0.1739  0.2525  0.6198
  342MOL0     C47073   6.742  11.188  11.848  0.4703 -0.6839 -0.0211
  342MOL0     C47074   6.638  11.222  11.967 -0.3982  1.0388  0.4643
  342MOL0     N47075   6.528  11.309  11.915  0.3485  0.6492 -0.1917
  342MOL0     C47076   6.414  11.272  11.841  0.0752  0.0968 -0.6269
  342MOL0     C47077   6.345  11.391  11.822  0.7384  0.0021  0.1291
  342MOL0     C47078   6.212  11.418  11.764 -0.1721  0.5872  0.9628
  342MOL0     C47079   6.105  11.308  11.782 -0.3116  0.2171 -0.3439
  342MOL0     C47080   6.067  11.284  11.932  0.0508  0.5394 -0.4632
  342MOL0     C47081   5.983  11.160  11.948 -0.7836  0.5541 -0.5008
  342MOL0     O47082   6.026  11.054  11.862 -0.3636  0.4272 -0.0229
  342MOL0     C47083   6.154  10.989  11.875  0.6203  0.2626 -0.6736
  342MOL0     C47084   6.202  10.915  11.769 -0.5033  0.4754  0.8612
  342MOL0     C47085   6.327  10.848  11.778 -0.6959 -0.0769 -0.0818
  342MOL0     C47086   6.368  10.754  11.666  0.1872  0.3152 -0.6941
  342MOL0     C47087   6.397  10.848  11.900 -0.4264  0.1537 -0.2716
  342MOL0     C47088   6.515  10.770  11.936  0.3186 -0.4380  0.1238
  342MOL0     O47089   6.605  10.747  11.841 -0.1091 -0.0640  0.1041
  342MOL0     C47090   6.725  10.680  11.859 -0.5158 -0.4968  0.3009
  342MOL0     C47091   6.784  10.643  11.980 -0.5604  0.4317 -0.1676
  342MOL0     C47092   6.908  10.582  11.985  0.7575 -0.0488 -0.4490
  342MOL0     C47093   6.980  10.560  11.865  0.2626  0.5667 -0.2153
  342MOL0     O47094   7.097  10.495  11.879 -0.0140 -0.3686  0.4346
  342MOL0     C47095   7.201  10.587  11.832 -1.0743  0.5091  0.0849
  342MOL0     C47096   7.336  10.525  11.830  0.0228  0.3198  0.0365
  342MOL0     C47097   7.370  10.431  11.722 -0.3574  0.1123 -1.6407
  342MOL0     C47098   7.500  10.351  11.756 -0.4598  0.1054  0.0397
  342MOL0     C47099   7.540  10.253  11.649 -0.0821 -1.4337 -0.3258
  342MOL0     C47100   7.695  10.231  11.640 -1.2517 -1.2054  0.1686
  342MOL0     C47101   7.762  10.164  11.764  0.0110 -0.5757 -0.1960
  342MOL0     C47102   7.916  10.158  11.762 -0.2899  0.0020  0.2033
  342MOL0    Cl47103   7.998  10.307  11.714  0.0699  0.4433 -0.3197
  342MOL0     C47104   6.916  10.597  11.742  0.0200 -0.1318  0.0834
  342MOL0     C47105   6.790  10.654  11.735 -0.1574  0.4078 -0.1773
  342MOL0     O47106   6.517  10.732  12.056 -0.5874  0.4220  0.6681
  342MOL0     C47107   6.343  10.931  12.000 -0.9668  0.2197  0.0610
  342MOL0     C47108   6.231  11.004  11.991 -0.2038 -0.9795 -0.9990
  342MOL0     N47109   6.419  11.489  11.883  0.2740  0.0547  0.0918
  342MOL0     N47110   6.520  11.441  11.935 -0.1834 -0.0471  0.3024
  342MOL0     C47111   7.360  10.908  11.251  0.0148  0.1389 -0.3484
  342MOL0     C47112   7.457  10.882  11.153  0.0915  0.2113  0.3286
  342MOL0     C47113   7.848  10.813  10.956  0.6072  0.2483 -0.1442
  342MOL0     C47114   7.805  10.763  10.833 -0.2549  1.0440 -0.7280
  342MOL0     C47115   7.893  10.734  10.728  0.1995 -0.3430 -0.5311
  342MOL0     C47116   8.024  10.777  10.731  0.2826  1.0667  0.2566
  342MOL0     O47117   8.099  10.747  10.617  0.3651 -0.4657 -1.0264
  342MOL0     C47118   8.240  10.770  10.614  0.6861 -0.3459 -0.8017
  342MOL0     C47119   8.303  10.712  10.482  0.2515 -0.9360  0.0079
  342MOL0     C47120   8.460  10.724  10.483  0.0156  0.6168  0.9564
  342MOL0     C47121   8.510  10.743  10.344  0.0407 -0.2060 -0.6817
  342MOL0     C47122   8.656  10.767  10.350  0.4840 -0.6368  0.1246
  342MOL0     C47123   8.775  10.768  10.347 -0.4284 -0.2329 -0.4085
  342MOL0     C47124   8.070  10.818  10.856 -0.7974 -1.0705 -0.5353
  342MOL0     C47125   7.991  10.836  10.970  0.6727 -0.0335  1.1657
  342MOL0     C47126   8.064  10.869  11.101 -0.4242  0.0731  0.0533
  342MOL0     H47127   7.562  10.577  11.247 -2.0056 -2.0060 -3.0897
  342MOL0     H47128   7.402  10.624  11.429 -0.8914 -0.8325 -2.1739
  342MOL0     H47129   7.264  11.054  11.449 -1.7002  0.5255  0.7275
  342MOL0     H47130   7.371  10.958  11.564 -0.7429 -1.8848  3.9920
  342MOL0     H47131   7.174  10.901  11.690  1.6081 -0.0521  0.4381
  342MOL0     H47132   7.198  11.076  11.681  0.3698 -1.1861 -0.0448
  342MOL0     H47133   7.028  11.083  11.497  1.4807 -0.2735 -1.3122
  342MOL0     H47134   7.008  10.904  11.505 -0.0486 -0.2185  0.2283
  342MOL0     H47135   6.901  10.900  11.718 -0.4398  0.3641  0.8016
  342MOL0     H47136   6.965  11.070  11.749  1.3681  0.5174 -0.4444
  342MOL0     H47137   6.766  10.988  11.559  1.0056 -0.2420  0.7318
  342MOL0     H47138   6.820  11.161  11.582 -0.8017  0.4461  0.2569
  342MOL0     H47139   6.596  11.098  11.716  1.4249  1.6341 -2.2256
  342MOL0     H47140   6.681  10.989  11.816 -0.2468 -0.9083 -1.1157
  342MOL0     H47141   6.754  11.278  11.787 -0.3684 -0.2415  0.4287
  342MOL0     H47142   6.842  11.163  11.883  0.7568  0.7853  0.2904
  342MOL0     H47143   6.601  11.140  12.029 -0.9816 -0.4073 -1.7090
  342MOL0     H47144   6.680  11.295  12.038  0.2947  2.2154 -1.0857
  342MOL0     H47145   6.379  11.174  11.812  1.0556 -0.9660  1.5653
  342MOL0     H47146   6.242  11.445  11.662 -0.1523 -2.0148  0.2118
  342MOL0     H47147   6.162  11.509  11.797 -2.6679 -1.2714  2.6475
  342MOL0     H47148   6.012  11.348  11.739 -0.2733 -0.1630 -0.7778
  342MOL0     H47149   6.135  11.222  11.723  0.3408  0.0474  0.2226
  342MOL0     H47150   6.160  11.275  11.988  0.6146  1.7476 -1.1589
  342MOL0     H47151   6.009  11.367  11.976 -1.7147 -2.2069  2.8750
  342MOL0     H47152   5.960  11.116  12.046 -2.8315 -1.5468 -1.8219
  342MOL0     H47153   5.886  11.198  11.915  0.3308  4.2749 -0.0273
  342MOL0     H47154   6.136  10.885  11.688  1.1199  1.1202 -0.7715
  342MOL0     H47155   6.278  10.739  11.605 -0.4747  0.4613  0.2105
  342MOL0     H47156   6.397  10.657  11.707  0.8280  0.3963 -0.9472
  342MOL0     H47157   6.449  10.786  11.601  0.2456 -0.1922 -0.8737
  342MOL0     H47158   6.732  10.665  12.072  2.7003 -0.1294  1.9655
  342MOL0     H47159   6.950  10.542  12.078 -0.3818 -0.3894 -0.0586
  342MOL0     H47160   7.174  10.637  11.739  2.1466 -1.9333 -2.4179
  342MOL0     H47161   7.217  10.662  11.910  0.4705  1.7095 -1.3056
  342MOL0     H47162   7.409  10.605  11.814  1.0761 -0.3969  1.0859
  342MOL0     H47163   7.353  10.475  11.926 -3.1930  0.3749  0.7475
  342MOL0     H47164   7.385  10.474  11.623  3.3429 -1.5885 -1.9652
  342MOL0     H47165   7.293  10.355  11.710  0.1837 -0.6830 -0.2658
  342MOL0     H47166   7.478  10.293  11.845  2.5957 -3.6082 -1.3371
  342MOL0     H47167   7.583  10.422  11.765  2.0364 -2.2069 -2.5793
  342MOL0     H47168   7.488  10.159  11.672 -1.3743 -0.4724  0.8977
  342MOL0     H47169   7.505  10.295  11.554  1.9591 -1.1197 -0.9734
  342MOL0     H47170   7.739  10.327  11.612 -2.0967 -0.2967  1.8571
  342MOL0     H47171   7.704  10.163  11.554 -1.3386  2.3533 -2.9124
  342MOL0     H47172   7.724  10.063  11.775 -1.5253  0.1976  2.4009
  342MOL0     H47173   7.733  10.221  11.853 -0.8184  1.1085 -1.4740
  342MOL0     H47174   7.949  10.076  11.696  1.5530  0.4533  0.5150
  342MOL0     H47175   7.963  10.137  11.858  1.3788 -2.0294 -0.9717
  342MOL0     H47176   6.971  10.586  11.649 -0.7131 -2.0220 -0.1550
  342MOL0     H47177   6.739  10.669  11.640 -0.6789 -0.2425 -0.0065
  342MOL0     H47178   6.398  10.946  12.092 -1.4200  1.3105  0.1749
  342MOL0     H47179   6.207  11.062  12.080  1.1409 -0.3111 -1.0432
  342MOL0     H47180   7.314  11.006  11.242  2.0073  0.9747 -2.6768
  342MOL0     H47181   7.476  10.957  11.078  1.3003  0.9890  1.3690
  342MOL0     H47182   7.699  10.755  10.813  0.1888  1.9171 -4.0079
  342MOL0     H47183   7.857  10.684  10.639 -0.2830 -0.8582 -0.0569
  342MOL0     H47184   8.263  10.877  10.620  3.2456 -0.8936  0.9464
  342MOL0     H47185   8.289  10.719  10.698  1.4538  0.3128 -0.8473
  342MOL0     H47186   8.258  10.769  10.400 -0.7698 -1.3319  0.2768
  342MOL0     H47187   8.264  10.610  10.484  0.2108 -0.9408 -0.8507
  342MOL0     H47188   8.493  10.807  10.546 -0.2473  1.2637  0.2696
  342MOL0     H47189   8.496  10.630  10.525  2.0384  0.1850 -1.4843
  342MOL0     H47190   8.464  10.832  10.300  2.2170  1.0932 -0.4432
  342MOL0     H47191   8.498  10.664  10.270  2.0587  0.9394 -2.3379
  342MOL0     H47192   8.882  10.770  10.339 -0.5644  1.3125 -3.1700
  342MOL0     H47193   8.173  10.844  10.876 -1.8298  3.0263  0.4868
  342MOL0     H47194   8.158  10.814  11.094 -0.6947 -0.3271 -0.4634
  342MOL0     H47195   8.088  10.975  11.116 -1.6850  0.4593 -0.4667
  342MOL0     H47196   8.006  10.829  11.185  0.0966  0.7034  0.7329
  343MOL0     O47197   6.780   6.324   2.579  0.5034  0.1831 -0.2079
  343MOL0     C47198   6.814   6.438   2.553 -0.0573 -0.3735 -0.7114
  343MOL0     O47199   6.944   6.480   2.548  0.6491 -0.0735  0.0669
  343MOL0     C47200   7.050   6.398   2.568 -0.5472 -0.2694 -0.0228
  343MOL0     C47201   7.157   6.464   2.624  0.2411 -0.2370 -0.2523
  343MOL0     C47202   7.276   6.404   2.667 -0.2069  0.0794 -0.1662
  343MOL0     C47203   7.285   6.263   2.652 -1.3358 -0.1042  0.3248
  343MOL0     O47204   7.401   6.210   2.705  0.2938 -0.2650 -1.0759
  343MOL0     C47205   7.455   6.093   2.638 -0.4246 -0.1272 -0.6454
  343MOL0     C47206   7.579   6.045   2.728  0.3713 -0.4606  0.0693
  343MOL0     C47207   7.651   5.933   2.659  0.1554  0.2513  0.8413
  343MOL0     C47208   7.760   5.881   2.751 -0.8526  1.0863  0.1598
  343MOL0     C47209   7.862   5.788   2.669  0.2342  0.1537 -0.2731
  343MOL0     C47210   7.947   5.699   2.751 -0.5687 -0.0744 -0.4734
  343MOL0     C47211   8.050   5.609   2.676  0.7551  0.2500  0.1974
  343MOL0     C47212   8.184   5.680   2.659  0.0834 -0.4414 -0.3685
  343MOL0     N47213   8.286   5.576   2.641 -0.2650  0.3190  0.1615
  343MOL0     C47214   8.362   5.523   2.742  0.4035 -0.1708  0.1698
  343MOL0     C47215   8.459   5.446   2.693 -0.5217  0.8289 -0.0013
  343MOL0     C47216   8.557   5.363   2.772 -0.4906 -0.3964 -0.2077
  343MOL0     C47217   8.590   5.233   2.699  0.2659  0.2127 -0.0105
  343MOL0     C47218   8.668   5.144   2.794 -0.5731 -0.6119  0.5647
  343MOL0     C47219   8.664   5.006   2.757  0.6076 -0.2965  0.7066
  343MOL0     O47220   8.749   4.930   2.846  0.1900 -0.7601  0.1013
  343MOL0     C47221   8.884   4.929   2.825 -0.3762 -0.1598 -0.1694
  343MOL0     C47222   8.963   4.852   2.913  0.1175 -0.4453 -0.6025
  343MOL0     C47223   9.097   4.838   2.918  0.0096 -1.6524 -0.1643
  343MOL0     C47224   9.176   4.749   3.021 -0.8716 -0.6721 -0.6203
  343MOL0     C47225   9.161   4.919   2.820 -0.5903  0.9616 -0.7537
  343MOL0     C47226   9.311   4.917   2.806 -0.3699  0.0769 -0.2018
  343MOL0     O47227   9.388   4.871   2.914  0.0063 -0.2477  1.0424
  343MOL0     C47228   9.525   4.877   2.901  0.3716 -0.0020  0.2591
  343MOL0     C47229   9.594   4.785   2.823  0.9776 -0.7194  0.3509
  343MOL0     C47230   9.735   4.795   2.824  0.3021  0.6493 -0.3731
  343MOL0     C47231   9.799   4.897   2.883 -0.4497 -0.2573 -0.7019
  343MOL0     O47232   9.937   4.906   2.882  0.5211 -0.4933 -0.6024
  343MOL0     C47233  10.020   4.819   2.805  1.1772 -0.7527 -0.3403
  343MOL0     C47234  10.160   4.845   2.833  0.1018  0.3763 -0.7198
  343MOL0     C47235  10.211   4.802   2.968  1.1664  0.1712  0.1786
  343MOL0     C47236  10.226   4.652   2.990 -0.4470  0.5151 -0.2957
  343MOL0     C47237  10.368   4.606   3.006  0.3432  0.3571 -0.9435
  343MOL0     C47238  10.443   4.639   2.879 -0.2384  0.6577  0.1371
  343MOL0     C47239  10.587   4.579   2.886  0.7171  0.2775  0.5305
  343MOL0     C47240  10.689   4.642   2.982  0.1180 -0.4410 -0.5055
  343MOL0    Cl47241  10.741   4.799   2.914  0.0075 -0.3028 -0.0456
  343MOL0     C47242   9.733   4.992   2.951 -0.5420  0.4232 -0.3189
  343MOL0     C47243   9.595   4.977   2.973  0.1666 -0.5023  0.0361
  343MOL0     O47244   9.358   4.949   2.700  0.6637 -0.5757  0.6064
  343MOL0     C47245   9.092   5.002   2.729  0.1511  1.7928 -0.4302
  343MOL0     C47246   8.955   5.002   2.728 -0.3362  0.3512  0.1589
  343MOL0     N47247   8.443   5.459   2.560  0.2194  0.9992  0.5563
  343MOL0     N47248   8.338   5.529   2.527  1.1866 -0.3362 -0.2896
  343MOL0     C47249   7.178   6.188   2.593 -0.3664  0.2701  0.1399
  343MOL0     C47250   7.061   6.260   2.552  0.1701 -0.9709 -0.3968
  343MOL0     C47251   6.716   6.551   2.539 -0.2124 -0.0866  0.1447
  343MOL0     C47252   6.756   6.663   2.470  0.3844 -0.8849 -0.3889
  343MOL0     C47253   6.672   6.772   2.455  0.1952  0.3386 -0.6923
  343MOL0     C47254   6.544   6.777   2.512 -0.1999  0.0036 -0.2726
  343MOL0     O47255   6.469   6.891   2.485 -0.3616 -0.3688 -0.2118
  343MOL0     C47256   6.332   6.869   2.498  0.6377  0.1345  0.0050
  343MOL0     C47257   6.268   6.993   2.436 -0.6446 -0.3139  0.2721
  343MOL0     C47258   6.302   6.978   2.287 -0.9148 -0.6013  0.2478
  343MOL0     C47259   6.275   7.102   2.200  0.4630  0.1546  0.3549
  343MOL0     C47260   6.132   7.136   2.199 -0.4728  0.3757  0.0645
  343MOL0     C47261   6.016   7.164   2.203  1.1491  0.8461  0.5582
  343MOL0     C47262   6.499   6.659   2.574 -0.1557 -0.6970  0.1450
  343MOL0     C47263   6.584   6.550   2.591  0.0568 -0.6969 -0.8373
  343MOL0     C47264   6.533   6.426   2.656  0.7951  1.0048  0.7040
  343MOL0     H47265   7.144   6.571   2.633  0.6891  0.0939 -2.7300
  343MOL0     H47266   7.354   6.466   2.709  0.4057 -0.2807 -0.7514
  343MOL0     H47267   7.502   6.117   2.543  0.8510 -0.0796 -0.0251
  343MOL0     H47268   7.388   6.007   2.626  2.0367 -1.8627 -3.4863
  343MOL0     H47269   7.652   6.126   2.727 -0.6396  0.4657 -0.2687
  343MOL0     H47270   7.548   6.015   2.828 -0.1442 -0.9314 -0.2296
  343MOL0     H47271   7.576   5.854   2.648 -0.5915  1.1029 -0.5609
  343MOL0     H47272   7.692   5.964   2.562 -0.9905 -4.3628 -1.4189
  343MOL0     H47273   7.826   5.955   2.797  4.6869 -1.9065 -2.0231
  343MOL0     H47274   7.715   5.817   2.828  1.2481 -1.2643 -0.4387
  343MOL0     H47275   7.934   5.849   2.614  1.7318 -0.5371  0.8324
  343MOL0     H47276   7.805   5.734   2.593 -0.2970  0.5476 -0.1634
  343MOL0     H47277   8.000   5.764   2.821  0.2092 -2.9472  1.7776
  343MOL0     H47278   7.880   5.639   2.813  1.8999 -1.2062  1.2582
  343MOL0     H47279   8.018   5.572   2.578 -2.8748  1.3623  0.8374
  343MOL0     H47280   8.063   5.517   2.734 -2.0919 -1.2923 -1.4044
  343MOL0     H47281   8.172   5.736   2.565 -1.9003  0.2321  0.2415
  343MOL0     H47282   8.213   5.745   2.742  0.1534  0.0749 -0.7925
  343MOL0     H47283   8.339   5.534   2.848  1.4642  0.0127  0.3922
  343MOL0     H47284   8.522   5.341   2.873 -0.6610  0.1393 -0.1471
  343MOL0     H47285   8.652   5.417   2.780 -0.6142  0.1006 -1.8335
  343MOL0     H47286   8.501   5.181   2.661 -2.2068  2.6919  1.9334
  343MOL0     H47287   8.654   5.257   2.613  1.4858 -0.0448  0.8023
  343MOL0     H47288   8.770   5.179   2.811 -0.6554  0.4375 -0.8688
  343MOL0     H47289   8.611   5.144   2.887 -2.8139  0.3831 -0.7225
  343MOL0     H47290   8.558   4.984   2.777  0.9778 -0.0938  3.3320
  343MOL0     H47291   8.683   4.990   2.651  1.4171 -4.2483  1.3124
  343MOL0     H47292   8.911   4.795   2.989 -0.8509  0.4137 -0.6061
  343MOL0     H47293   9.109   4.693   3.087 -1.5107  0.5315 -0.2203
  343MOL0     H47294   9.237   4.810   3.089 -1.5353  1.3970 -1.8184
  343MOL0     H47295   9.228   4.674   2.961  1.5122 -0.9212  1.5585
  343MOL0     H47296   9.548   4.703   2.768  0.2869  0.2357 -0.5563
  343MOL0     H47297   9.794   4.712   2.786  0.3434 -0.7754  2.5182
  343MOL0     H47298   9.991   4.717   2.830 -0.2280 -0.7011 -1.6517
  343MOL0     H47299   9.997   4.840   2.700 -0.7189  2.4599  0.5546
  343MOL0     H47300  10.227   4.805   2.756  0.4850 -2.1682  0.8353
  343MOL0     H47301  10.185   4.952   2.828  1.6137  0.2336  2.0451
  343MOL0     H47302  10.144   4.834   3.049 -1.6210  0.1176 -1.9592
  343MOL0     H47303  10.305   4.853   2.991 -0.1172  1.4703  3.0905
  343MOL0     H47304  10.179   4.605   2.903  0.1130  2.3329 -1.6628
  343MOL0     H47305  10.160   4.625   3.072 -2.1944  1.7277 -1.2292
  343MOL0     H47306  10.405   4.651   3.099 -1.8347 -2.0935  1.2608
  343MOL0     H47307  10.377   4.500   3.034  0.8928  1.3114  3.2156
  343MOL0     H47308  10.460   4.747   2.867  2.1833  0.3073 -0.1140
  343MOL0     H47309  10.383   4.587   2.803 -2.2188  1.8899  0.7855
  343MOL0     H47310  10.625   4.569   2.784  0.5279  0.2016  0.4663
  343MOL0     H47311  10.570   4.476   2.919 -1.1592  0.6562  0.8867
  343MOL0     H47312  10.772   4.572   2.994  0.5494  0.2426  0.6927
  343MOL0     H47313  10.652   4.663   3.082  1.0397 -3.1509  0.4936
  343MOL0     H47314   9.794   5.071   2.993  3.3715 -1.2118 -2.3394
  343MOL0     H47315   9.542   5.040   3.043  2.0687  0.4805  0.6630
  343MOL0     H47316   9.137   5.063   2.651 -2.1291  1.3780 -2.1910
  343MOL0     H47317   8.909   5.066   2.653 -2.0878  0.0400  0.9352
  343MOL0     H47318   7.184   6.083   2.566  1.0580  0.0423  1.1998
  343MOL0     H47319   6.977   6.207   2.508 -0.6393 -0.2908  0.2970
  343MOL0     H47320   6.847   6.671   2.410 -0.3392 -0.2790 -1.4372
  343MOL0     H47321   6.696   6.856   2.390 -1.8590  0.6844 -1.0824
  343MOL0     H47322   6.296   6.783   2.442  2.4556 -0.2480 -0.6737
  343MOL0     H47323   6.296   6.858   2.601 -0.7625  0.8959 -0.3771
  343MOL0     H47324   6.321   7.077   2.481 -1.4246 -0.3735  1.3472
  343MOL0     H47325   6.159   6.991   2.453 -1.1895 -1.7519 -2.7282
  343MOL0     H47326   6.408   6.960   2.267 -0.7908 -0.2539  0.5780
  343MOL0     H47327   6.248   6.892   2.247  1.1625 -1.8704  0.0393
  343MOL0     H47328   6.321   7.072   2.106  1.2072 -1.6048  1.2295
  343MOL0     H47329   6.335   7.187   2.235  1.8487 -1.1206  1.1733
  343MOL0     H47330   5.913   7.192   2.199  0.9874  0.4573  1.5544
  343MOL0     H47331   6.393   6.644   2.591  0.3831 -3.0522  2.0706
  343MOL0     H47332   6.430   6.443   2.691 -0.0322 -2.8424  0.5092
  343MOL0     H47333   6.523   6.344   2.585 -0.2678  0.8668  0.9930
  343MOL0     H47334   6.585   6.387   2.743 -1.9795 -2.0922  1.2026
  344MOL0     O47335   9.363   1.634   7.776  0.2951  0.3665  0.2401
  344MOL0     C47336   9.261   1.602   7.715 -0.1644 -0.0998  0.7638
  344MOL0     O47337   9.263   1.516   7.611  0.0922  0.1614 -0.4418
  344MOL0     C47338   9.386   1.502   7.554  0.6307  0.4601  0.0439
  344MOL0     C47339   9.435   1.378   7.545  0.5078  0.5298 -0.4847
  344MOL0     C47340   9.556   1.360   7.487 -0.4472 -0.0260 -0.6561
  344MOL0     C47341   9.642   1.465   7.449 -0.1981  0.6980 -0.3936
  344MOL0     O47342   9.759   1.450   7.390 -0.0556 -0.3404 -0.5169
  344MOL0     C47343   9.796   1.316   7.343  0.2596  0.1570  0.0529
  344MOL0     C47344   9.859   1.236   7.459 -0.9602  0.1597  0.4202
  344MOL0     C47345   9.978   1.305   7.525 -0.1868 -0.1378 -0.0335
  344MOL0     C47346  10.023   1.242   7.654  0.5511  0.5607 -0.8068
  344MOL0     C47347  10.159   1.284   7.695  0.0108 -0.3225 -0.2727
  344MOL0     C47348  10.206   1.230   7.825  0.2640 -0.5879  0.0432
  344MOL0     C47349  10.361   1.233   7.829 -0.4793 -0.6087  0.5682
  344MOL0     C47350  10.416   1.155   7.956  0.1673 -1.1096  0.1451
  344MOL0     N47351  10.564   1.160   7.960 -0.2630  0.7851 -0.7803
  344MOL0     C47352  10.637   1.261   8.023  0.8396  0.0638  0.3791
  344MOL0     C47353  10.761   1.211   8.029 -0.6109 -0.2739  0.2752
  344MOL0     C47354  10.889   1.273   8.078 -0.6454  1.1007 -0.2730
  344MOL0     C47355  10.950   1.191   8.195  0.3942 -0.5791  0.4689
  344MOL0     C47356  11.078   1.252   8.240  0.0467 -0.5261  0.0622
  344MOL0     C47357  11.163   1.159   8.326  0.4538  0.0211 -0.0702
  344MOL0     O47358  11.079   1.119   8.430  0.4639 -0.3668 -0.8205
  344MOL0     C47359  11.122   1.015   8.512 -0.2008  0.8565  0.6089
  344MOL0     C47360  11.027   0.949   8.586  0.2070 -0.7759 -0.3606
  344MOL0     C47361  11.052   0.843   8.676 -0.3809  0.0854  0.2771
  344MOL0     C47362  10.931   0.761   8.723 -0.1991 -0.2755  0.3281
  344MOL0     C47363  11.188   0.807   8.693 -0.1339 -0.0898  0.5455
  344MOL0     C47364  11.235   0.681   8.758 -0.4555  0.9387 -0.5664
  344MOL0     O47365  11.374   0.656   8.749  0.7560 -0.1890 -0.7217
  344MOL0     C47366  11.437   0.543   8.793 -0.4799  0.3650 -0.5398
  344MOL0     C47367  11.380   0.417   8.825 -0.4417  0.5065 -0.7536
  344MOL0     C47368  11.451   0.308   8.869 -0.5068  0.3841  0.0025
  344MOL0     C47369  11.589   0.305   8.856 -0.1148  0.1379 -1.2059
  344MOL0     O47370  11.681   0.205   8.884 -1.0132  0.4573  0.2182
  344MOL0     C47371  11.616   0.100   8.952  0.0725 -0.2178  0.0837
  344MOL0     C47372  11.716  -0.001   9.010 -0.0113 -0.4064  0.3695
  344MOL0     C47373  11.820  -0.054   8.905  1.0653  0.0987 -0.8786
  344MOL0     C47374  11.886  -0.180   8.959 -0.6383 -0.2031  0.1777
  344MOL0     C47375  12.033  -0.186   8.907  0.6651 -0.2979  0.3178
  344MOL0     C47376  12.109  -0.317   8.947  0.1452 -0.3633 -0.7425
  344MOL0     C47377  12.254  -0.293   8.917 -0.2239  0.3620 -0.6440
  344MOL0     C47378  12.330  -0.429   8.903  0.0234  0.0966 -0.1103
  344MOL0    Cl47379  12.488  -0.405   8.826 -0.4268  0.0853 -0.0325
  344MOL0     C47380  11.655   0.427   8.812 -0.4939 -0.5675  0.5735
  344MOL0     C47381  11.574   0.543   8.786  0.1727  0.1669 -0.5191
  344MOL0     O47382  11.155   0.609   8.813  0.7395 -0.8409 -0.2518
  344MOL0     C47383  11.287   0.884   8.622  0.0984  0.9761 -0.6551
  344MOL0     C47384  11.256   0.984   8.537  0.0933  0.2368  0.4481
  344MOL0     N47385  10.762   1.088   7.974 -0.1834 -0.4513  0.0070
  344MOL0     N47386  10.646   1.057   7.935  1.1153 -0.2641  0.7495
  344MOL0     C47387   9.581   1.590   7.453  0.5270 -0.6971 -0.4605
  344MOL0     C47388   9.457   1.609   7.499  0.3325 -0.2274  0.0623
  344MOL0     C47389   9.124   1.648   7.755  0.1891  0.1713  0.8963
  344MOL0     C47390   9.014   1.620   7.670 -0.4380 -0.7337  0.0191
  344MOL0     C47391   8.887   1.675   7.686  0.0271  0.0790  0.1467
  344MOL0     C47392   8.863   1.761   7.789 -0.0589  0.2390  0.5890
  344MOL0     O47393   8.747   1.829   7.815  0.1562  0.1175 -0.1041
  344MOL0     C47394   8.626   1.802   7.737  0.1649 -0.0144 -0.0091
  344MOL0     C47395   8.631   1.894   7.609 -0.6130  0.4001 -0.8310
  344MOL0     C47396   8.505   1.902   7.533  0.4778  0.3156  0.4587
  344MOL0     C47397   8.492   1.764   7.474 -0.5441 -0.7746 -0.4297
  344MOL0     C47398   8.360   1.745   7.419 -0.2257  0.7479 -1.0178
  344MOL0     C47399   8.248   1.734   7.374  0.3870  0.5107 -1.1794
  344MOL0     C47400   8.968   1.786   7.877 -0.6794 -0.4742 -0.4987
  344MOL0     C47401   9.099   1.729   7.870 -0.6056 -0.0440 -0.4079
  344MOL0     C47402   9.196   1.760   7.985 -0.2305  0.1418  0.7901
  344MOL0     H47403   9.374   1.303   7.596 -1.5090  3.7447  2.2926
  344MOL0     H47404   9.587   1.257   7.480 -2.8642 -0.9207  0.7102
  344MOL0     H47405   9.866   1.325   7.260 -0.6838 -0.4123 -0.8234
  344MOL0     H47406   9.707   1.264   7.305 -2.2966 -0.0369  5.2885
  344MOL0     H47407   9.791   1.209   7.540 -0.7899 -1.2160  0.1359
  344MOL0     H47408   9.882   1.140   7.412 -1.1760  0.4183 -0.2320
  344MOL0     H47409  10.066   1.300   7.460  1.5104  2.0744  1.9222
  344MOL0     H47410   9.961   1.411   7.541 -0.6764  0.1549 -2.1463
  344MOL0     H47411   9.943   1.255   7.727  1.6583  2.4475  0.1556
  344MOL0     H47412  10.029   1.134   7.638  1.9780  0.8141 -2.3326
  344MOL0     H47413  10.160   1.393   7.698  0.0732 -0.3361  0.4792
  344MOL0     H47414  10.230   1.257   7.616  3.4233 -0.1742  2.4950
  344MOL0     H47415  10.175   1.302   7.901  2.7480  1.5065 -0.7914
  344MOL0     H47416  10.161   1.132   7.845 -0.3356 -0.3547 -0.1302
  344MOL0     H47417  10.393   1.337   7.835 -1.5906 -0.2863  1.3455
  344MOL0     H47418  10.398   1.200   7.732 -2.4661  1.3650 -0.9476
  344MOL0     H47419  10.387   1.206   8.048 -0.7841  0.8004 -1.1402
  344MOL0     H47420  10.379   1.052   7.949 -0.4829 -0.8393 -0.5446
  344MOL0     H47421  10.605   1.362   8.049 -1.8249 -0.3517 -0.9317
  344MOL0     H47422  10.865   1.369   8.125  2.4849  0.4285  3.1715
  344MOL0     H47423  10.955   1.298   7.994  1.9737  0.3085  1.4096
  344MOL0     H47424  10.884   1.187   8.281 -1.1949  3.6657 -0.3082
  344MOL0     H47425  10.973   1.091   8.156 -1.4998 -1.1482  0.7156
  344MOL0     H47426  11.141   1.265   8.151 -0.4053 -0.3776 -0.2379
  344MOL0     H47427  11.064   1.350   8.286  2.1778  0.9562 -2.2109
  344MOL0     H47428  11.200   1.074   8.269 -0.4827 -0.1009 -0.5225
  344MOL0     H47429  11.254   1.209   8.359 -0.4261  1.7354 -0.0971
  344MOL0     H47430  10.928   0.990   8.567  1.6232  2.4413 -1.5446
  344MOL0     H47431  10.943   0.730   8.827 -3.0926 -0.5703  0.6550
  344MOL0     H47432  10.928   0.672   8.660  1.8872  2.3126 -3.9585
  344MOL0     H47433  10.839   0.821   8.723 -0.2698 -0.3853  0.4019
  344MOL0     H47434  11.273   0.414   8.841 -0.6104  2.3901 -1.2208
  344MOL0     H47435  11.385   0.228   8.899 -1.7895  1.6573  0.6908
  344MOL0     H47436  11.546   0.137   9.028 -1.9145 -0.6806 -1.4265
  344MOL0     H47437  11.559   0.033   8.887 -1.1302 -0.8011  1.6770
  344MOL0     H47438  11.774   0.051   9.087 -0.7896  0.0019  0.6791
  344MOL0     H47439  11.668  -0.085   9.061  0.2777 -0.2015  0.9903
  344MOL0     H47440  11.889   0.022   8.867 -0.5884  0.4876 -3.3079
  344MOL0     H47441  11.758  -0.085   8.821  0.8191  0.0571 -0.6816
  344MOL0     H47442  11.830  -0.268   8.924 -0.7881 -0.4439  0.9994
  344MOL0     H47443  11.870  -0.185   9.067 -2.0828  2.8379  0.2117
  344MOL0     H47444  12.051  -0.181   8.799  0.2846  1.4384  0.3115
  344MOL0     H47445  12.076  -0.101   8.960 -2.4521  0.7398  1.4290
  344MOL0     H47446  12.070  -0.401   8.889 -0.3557  0.3500 -1.4529
  344MOL0     H47447  12.097  -0.331   9.055 -1.2241  4.4435 -0.0487
  344MOL0     H47448  12.302  -0.224   8.987  0.8438 -0.4297 -0.5912
  344MOL0     H47449  12.254  -0.252   8.816  1.4886 -1.1226 -1.2945
  344MOL0     H47450  12.265  -0.499   8.849  0.3927 -2.1469  2.1334
  344MOL0     H47451  12.338  -0.465   9.006 -0.6735 -2.6197 -0.9198
  344MOL0     H47452  11.759   0.431   8.781 -0.3362 -1.4886  0.9515
  344MOL0     H47453  11.630   0.627   8.745  0.8560 -0.2109 -0.3768
  344MOL0     H47454  11.393   0.867   8.637  0.2221  1.1833 -1.2689
  344MOL0     H47455  11.340   1.029   8.484  0.6540 -2.3465 -1.0262
  344MOL0     H47456   9.634   1.675   7.411 -1.4222  0.5976 -0.4354
  344MOL0     H47457   9.419   1.710   7.492  0.4378  0.1002  3.0413
  344MOL0     H47458   9.024   1.544   7.594 -0.5709 -1.7565  0.9912
  344MOL0     H47459   8.806   1.644   7.622 -1.0705  0.2668  1.3963
  344MOL0     H47460   8.623   1.697   7.707  3.4373  0.0547 -1.0691
  344MOL0     H47461   8.528   1.820   7.781 -1.1578  1.2063 -3.1531
  344MOL0     H47462   8.717   1.857   7.553  2.3488  2.4155  2.0419
  344MOL0     H47463   8.646   2.001   7.626 -4.5056  1.0733 -0.6125
  344MOL0     H47464   8.419   1.924   7.597  0.6547 -1.2131  1.2771
  344MOL0     H47465   8.506   1.981   7.457 -1.8431  0.9113  0.9861
  344MOL0     H47466   8.511   1.687   7.548  0.5269 -1.1696 -1.0921
  344MOL0     H47467   8.571   1.760   7.398 -0.2776 -0.0185 -0.2088
  344MOL0     H47468   8.150   1.726   7.333  0.0457  1.1941 -0.5178
  344MOL0     H47469   8.953   1.850   7.964  1.1509 -1.4685  0.6324
  344MOL0     H47470   9.151   1.811   8.070 -1.4298 -1.5935  1.2564
  344MOL0     H47471   9.240   1.667   8.023 -0.2295  0.8116  2.4935
  344MOL0     H47472   9.283   1.818   7.954 -0.5774  0.6128  0.6749
  345MOL0     O47473   2.944   9.636   5.250 -0.1047 -0.3214 -0.6223
  345MOL0     C47474   2.860   9.672   5.337 -0.8671  0.6424 -0.7282
  345MOL0     O47475   2.876   9.672   5.478  0.1358 -0.2635  0.0268
  345MOL0     C47476   3.001   9.678   5.527 -0.7473 -0.1398 -0.0175
  345MOL0     C47477   3.095   9.762   5.479 -0.3478  0.6606  0.2289
  345MOL0     C47478   3.216   9.772   5.552 -0.2627  0.6327  0.0221
  345MOL0     C47479   3.250   9.691   5.662  0.1239 -0.9398  0.8823
  345MOL0     O47480   3.376   9.696   5.715  0.6109 -0.4036 -0.5424
  345MOL0     C47481   3.380   9.698   5.856 -0.2319 -0.5335 -0.8486
  345MOL0     C47482   3.456   9.827   5.900 -1.5312 -0.4853  0.2189
  345MOL0     C47483   3.596   9.790   5.942 -0.0256  0.4747  0.5243
  345MOL0     C47484   3.680   9.917   5.962 -0.4114  0.6358 -0.3694
  345MOL0     C47485   3.826   9.904   6.009 -0.5181  0.2158  0.0228
  345MOL0     C47486   3.889  10.040   6.016 -0.2070 -1.3861 -0.5588
  345MOL0     C47487   4.039  10.044   6.059  0.3901 -0.5038 -0.6450
  345MOL0     C47488   4.073  10.186   6.069 -0.3250 -1.0653 -0.2034
  345MOL0     N47489   4.218  10.189   6.113 -0.0635  0.7960  0.6891
  345MOL0     C47490   4.268  10.182   6.243  0.7127 -0.1642  0.1453
  345MOL0     C47491   4.404  10.187   6.236 -0.1374  0.1711 -0.0815
  345MOL0     C47492   4.506  10.196   6.356  1.1024  0.4626  0.6028
  345MOL0     C47493   4.453  10.115   6.475 -0.4562 -0.0111  0.4688
  345MOL0     C47494   4.406   9.970   6.459  0.1365 -0.3678  0.0303
  345MOL0     C47495   4.512   9.877   6.404 -0.0792  0.2402  1.0677
  345MOL0     O47496   4.620   9.894   6.489 -0.2243  0.2431 -0.0361
  345MOL0     C47497   4.752   9.911   6.440  0.5116 -0.1815 -0.2615
  345MOL0     C47498   4.834   9.978   6.532  0.0517 -0.8791 -0.8561
  345MOL0     C47499   4.973   9.981   6.508 -0.9626  1.0749  0.0580
  345MOL0     C47500   5.059  10.030   6.624 -0.2214  0.6436 -0.7680
  345MOL0     C47501   5.028   9.915   6.397 -0.4973  0.2368  0.4057
  345MOL0     C47502   5.170   9.890   6.369  0.4373 -0.9164  1.0112
  345MOL0     O47503   5.214   9.767   6.355  0.7373 -0.0056 -0.0419
  345MOL0     C47504   5.349   9.749   6.352 -0.5910  0.5814 -0.3182
  345MOL0     C47505   5.439   9.789   6.255  0.9104  1.0573 -0.3364
  345MOL0     C47506   5.573   9.749   6.260  0.3533  0.7219  0.8647
  345MOL0     C47507   5.609   9.666   6.362 -0.2891  0.4930 -0.0002
  345MOL0     O47508   5.737   9.611   6.359  0.1654  0.1241 -0.2798
  345MOL0     C47509   5.806   9.613   6.485 -0.3767  0.6434  0.0623
  345MOL0     C47510   5.958   9.595   6.460  0.3150  0.5364 -1.0435
  345MOL0     C47511   6.050   9.585   6.586 -0.5512  0.6464  0.7838
  345MOL0     C47512   6.185   9.528   6.541 -0.6782  0.6337  1.5203
  345MOL0     C47513   6.286   9.517   6.651  0.2118 -0.2636 -0.5630
  345MOL0     C47514   6.413   9.435   6.622 -0.0526 -0.3834 -0.5049
  345MOL0     C47515   6.430   9.344   6.742 -0.1505  1.0423  0.8675
  345MOL0     C47516   6.537   9.233   6.716  0.2109  0.6613  0.3711
  345MOL0    Cl47517   6.699   9.282   6.680  0.4362 -0.4269  0.2871
  345MOL0     C47518   5.523   9.633   6.461  0.4432  0.3247 -0.2529
  345MOL0     C47519   5.391   9.673   6.461  0.2312  0.5404  0.9695
  345MOL0     O47520   5.228   9.993   6.339 -0.4284  0.5731 -0.0635
  345MOL0     C47521   4.945   9.857   6.302  0.7895  0.1725  0.6048
  345MOL0     C47522   4.799   9.865   6.313 -0.1741 -0.1385 -0.9416
  345MOL0     N47523   4.437  10.182   6.105 -0.3822  0.2933  0.3444
  345MOL0     N47524   4.330  10.179   6.034 -0.8237  0.9109 -0.9063
  345MOL0     C47525   3.146   9.603   5.704  0.1000 -0.7977  0.7775
  345MOL0     C47526   3.024   9.611   5.646  0.8521 -0.1431  0.8189
  345MOL0     C47527   2.728   9.701   5.283 -1.1008 -0.4419 -0.0731
  345MOL0     C47528   2.625   9.652   5.356 -0.3209  0.3154 -0.1439
  345MOL0     C47529   2.489   9.663   5.307  0.1629 -0.6036  0.2505
  345MOL0     C47530   2.463   9.727   5.182  0.8845 -0.0930 -0.5556
  345MOL0     O47531   2.337   9.735   5.126  0.3493 -0.0282  0.0562
  345MOL0     C47532   2.222   9.755   5.213  0.1563  0.0571  0.3263
  345MOL0     C47533   2.099   9.792   5.131 -0.3186  0.6671  0.1120
  345MOL0     C47534   2.141   9.903   5.028  0.1295  0.8273 -0.6559
  345MOL0     C47535   2.028   9.933   4.929 -0.4401  0.1083 -0.6257
  345MOL0     C47536   2.088  10.043   4.855  0.7110 -0.0155  0.2316
  345MOL0     C47537   2.117  10.133   4.784 -0.0797 -0.0378 -0.5184
  345MOL0     C47538   2.572   9.777   5.110 -0.5330 -0.0582 -0.5134
  345MOL0     C47539   2.708   9.763   5.156  0.0236 -0.9727  0.5488
  345MOL0     C47540   2.810   9.829   5.077 -0.2827 -0.4241 -0.1904
  345MOL0     H47541   3.079   9.815   5.386  1.6568 -0.5654 -0.8948
  345MOL0     H47542   3.285   9.841   5.506 -0.6306 -0.5421 -2.4971
  345MOL0     H47543   3.418   9.604   5.898 -0.4138 -0.4469 -0.4910
  345MOL0     H47544   3.278   9.706   5.895 -0.5569  1.3112 -1.9811
  345MOL0     H47545   3.458   9.906   5.824 -0.1754 -0.0053  0.7342
  345MOL0     H47546   3.398   9.861   5.986 -1.4347 -3.6296  1.6484
  345MOL0     H47547   3.593   9.739   6.038  1.5814 -0.3160  0.1945
  345MOL0     H47548   3.649   9.722   5.875  2.5150  0.0575  2.7905
  345MOL0     H47549   3.683   9.959   5.861  1.2860 -0.2952 -0.7554
  345MOL0     H47550   3.629   9.993   6.022 -1.0032  1.8161 -2.2903
  345MOL0     H47551   3.885   9.836   5.947  0.5617  2.4689 -1.5596
  345MOL0     H47552   3.835   9.855   6.106  2.0801  0.3795 -0.0568
  345MOL0     H47553   3.877  10.086   5.918 -1.6388 -0.7622 -0.1105
  345MOL0     H47554   3.832  10.096   6.090  2.2373  0.4496  0.0347
  345MOL0     H47555   4.095   9.991   5.982 -0.0749 -4.2009  1.2789
  345MOL0     H47556   4.057   9.985   6.150  1.1327  2.2299  1.1092
  345MOL0     H47557   4.064  10.240   5.974 -2.3508 -0.2898  0.3656
  345MOL0     H47558   4.012  10.237   6.144 -0.2683  2.9533 -2.5705
  345MOL0     H47559   4.202  10.180   6.329  2.5465 -2.0380  1.6255
  345MOL0     H47560   4.517  10.303   6.376  3.1368  0.7816 -1.7603
  345MOL0     H47561   4.604  10.156   6.330  1.3996  0.9467  0.9821
  345MOL0     H47562   4.528  10.117   6.555  0.4255  1.0639 -0.3651
  345MOL0     H47563   4.365  10.162   6.519 -0.2830 -1.4716  2.5494
  345MOL0     H47564   4.380   9.945   6.562 -2.1414  0.2606 -0.3298
  345MOL0     H47565   4.316   9.961   6.398 -0.6369 -1.7351  1.3087
  345MOL0     H47566   4.476   9.774   6.405 -2.0242  0.7701 -1.5125
  345MOL0     H47567   4.528   9.903   6.298 -1.0334  3.4569  1.6106
  345MOL0     H47568   4.784  10.017   6.620  3.0702 -0.6611  0.9122
  345MOL0     H47569   5.148   9.970   6.646 -0.7973 -0.5263 -1.4620
  345MOL0     H47570   4.997  10.046   6.712  2.8806  1.7709  1.3443
  345MOL0     H47571   5.098  10.130   6.607  2.4045 -0.4140 -1.4369
  345MOL0     H47572   5.402   9.856   6.178 -2.3506  0.8592  0.8820
  345MOL0     H47573   5.639   9.791   6.184 -0.9395  1.0259 -0.1272
  345MOL0     H47574   5.795   9.711   6.534  1.3762  1.7471 -1.6040
  345MOL0     H47575   5.766   9.531   6.546  0.7027  1.2678  1.6769
  345MOL0     H47576   5.977   9.503   6.404 -0.8954 -1.2119  1.2175
  345MOL0     H47577   5.987   9.687   6.409  1.4836  0.1170 -1.1662
  345MOL0     H47578   6.008   9.510   6.653  1.9054 -1.4220  0.1815
  345MOL0     H47579   6.060   9.681   6.637 -2.0512  1.8982 -1.1169
  345MOL0     H47580   6.226   9.597   6.467  0.1862  0.3680  1.7387
  345MOL0     H47581   6.167   9.428   6.500  4.0924  0.5491 -1.0708
  345MOL0     H47582   6.321   9.617   6.678 -0.4448  0.1138 -1.0740
  345MOL0     H47583   6.234   9.492   6.744 -1.0482 -0.1072 -1.2036
  345MOL0     H47584   6.493   9.508   6.609  0.6872 -0.8049  1.4169
  345MOL0     H47585   6.408   9.366   6.537 -0.4378 -1.8642  0.6698
  345MOL0     H47586   6.341   9.285   6.767  2.9988 -3.5566  2.6190
  345MOL0     H47587   6.462   9.403   6.829 -3.4959  0.3261  2.7566
  345MOL0     H47588   6.493   9.169   6.640  2.0992 -0.4354  0.1527
  345MOL0     H47589   6.550   9.171   6.806 -1.7159  0.6657  0.6851
  345MOL0     H47590   5.560   9.569   6.540 -0.7853  0.8028  0.7483
  345MOL0     H47591   5.315   9.627   6.523  1.3308 -1.8754  0.6274
  345MOL0     H47592   4.981   9.816   6.208 -1.6165 -0.5475 -0.0702
  345MOL0     H47593   4.733   9.843   6.230 -1.5455  0.5201 -0.0514
  345MOL0     H47594   3.165   9.534   5.786  1.7875 -1.8792 -0.4724
  345MOL0     H47595   2.934   9.559   5.676 -0.6421  0.1848 -2.6018
  345MOL0     H47596   2.634   9.591   5.445 -1.5849  0.0241 -0.2074
  345MOL0     H47597   2.404   9.622   5.360 -0.9685 -0.5609 -1.4412
  345MOL0     H47598   2.197   9.665   5.270  1.3507  0.5066  1.6126
  345MOL0     H47599   2.240   9.826   5.294 -2.1026 -1.4499  2.2978
  345MOL0     H47600   2.020   9.826   5.199 -0.8501 -1.8650  0.8531
  345MOL0     H47601   2.064   9.710   5.067  2.1654  0.3188 -0.8934
  345MOL0     H47602   2.158   9.999   5.076 -1.0792  1.6585 -1.8044
  345MOL0     H47603   2.227   9.865   4.973  1.2998  0.7159  1.1945
  345MOL0     H47604   1.942   9.965   4.990  0.9882  0.3155  1.3613
  345MOL0     H47605   1.995   9.841   4.880 -1.5984  1.3618 -2.3188
  345MOL0     H47606   2.147  10.197   4.703  0.1771 -1.1083 -1.2954
  345MOL0     H47607   2.560   9.823   5.012  2.4096  1.7962 -0.1160
  345MOL0     H47608   2.775   9.932   5.074  2.6281  0.7306  1.5129
  345MOL0     H47609   2.908   9.835   5.127  1.0880 -3.3231 -2.2100
  345MOL0     H47610   2.820   9.785   4.977  0.4017 -1.2910  0.2388
  346MOL0     O47611   3.878   4.525   9.617  0.1140  0.4783 -0.4003
  346MOL0     C47612   3.845   4.479   9.509  0.5825  0.1805 -0.8065
  346MOL0     O47613   3.833   4.341   9.482  0.1325 -0.0119 -0.8289
  346MOL0     C47614   3.859   4.259   9.584 -0.4395  0.3335  0.2899
  346MOL0     C47615   3.762   4.233   9.678  0.1645 -0.0596 -0.6767
  346MOL0     C47616   3.788   4.153   9.786  0.6130  0.1103 -0.3923
  346MOL0     C47617   3.911   4.093   9.802  0.1558  0.3239 -0.1217
  346MOL0     O47618   3.930   4.024   9.917  0.4806 -0.1868 -0.2066
  346MOL0     C47619   3.944   3.878   9.897 -0.7218  0.7025 -0.6163
  346MOL0     C47620   3.901   3.801  10.021 -0.1886  0.1503  0.0484
  346MOL0     C47621   4.008   3.795  10.128 -0.1604 -0.1653 -0.2067
  346MOL0     C47622   4.036   3.931  10.178 -0.2418 -0.0077  0.8474
  346MOL0     C47623   4.081   3.928  10.326 -0.5242  0.1000 -0.5409
  346MOL0     C47624   4.106   4.065  10.388 -0.3867 -0.1511  0.0467
  346MOL0     C47625   3.988   4.114  10.475  0.7934  0.6187 -0.2374
  346MOL0     C47626   4.016   4.179  10.612  0.8439  0.3058 -0.0074
  346MOL0     N47627   4.086   4.308  10.602  0.2093 -0.1613  0.1473
  346MOL0     C47628   4.076   4.418  10.521  0.0321  0.4048  0.8106
  346MOL0     C47629   4.161   4.509  10.559  0.3059 -0.3635 -0.6320
  346MOL0     C47630   4.195   4.645  10.505  1.0292  0.6475 -0.1098
  346MOL0     C47631   4.298   4.633  10.392 -0.5737 -0.0883 -0.1529
  346MOL0     C47632   4.311   4.772  10.325 -0.9513  0.4113 -0.2071
  346MOL0     C47633   4.459   4.790  10.279  0.2461 -0.1526 -0.2721
  346MOL0     O47634   4.473   4.917  10.205  0.7960 -0.2138  0.5144
  346MOL0     C47635   4.596   4.965  10.176 -0.0129  0.7495  0.0509
  346MOL0     C47636   4.599   5.085  10.096 -0.1441  0.5502 -0.4041
  346MOL0     C47637   4.716   5.149  10.063  0.6600  0.3345  0.0589
  346MOL0     C47638   4.698   5.271   9.974 -0.0134  0.5709 -0.0474
  346MOL0     C47639   4.843   5.087  10.093  0.2230 -0.3036  0.1469
  346MOL0     C47640   4.977   5.143  10.050 -0.4404 -0.1215 -0.1596
  346MOL0     O47641   5.078   5.076  10.106 -0.0345 -0.1484  0.4103
  346MOL0     C47642   5.204   5.087  10.055 -0.9772  0.1129  0.4261
  346MOL0     C47643   5.311   5.148  10.129 -0.4797 -0.1550  0.0181
  346MOL0     C47644   5.438   5.169  10.072 -0.8834  0.3655  0.3802
  346MOL0     C47645   5.462   5.123   9.938  0.7769 -1.3564 -0.4644
  346MOL0     O47646   5.581   5.117   9.872 -0.0597  0.2974  0.6241
  346MOL0     C47647   5.692   5.198   9.929 -0.3477  0.1795  0.1908
  346MOL0     C47648   5.825   5.215   9.845  1.1017 -0.8727  0.2337
  346MOL0     C47649   5.885   5.087   9.830 -0.0482  0.4266  0.1490
  346MOL0     C47650   6.001   5.091   9.738 -0.3428 -0.0670 -0.3425
  346MOL0     C47651   6.069   4.951   9.716 -0.9320 -0.0501 -0.4450
  346MOL0     C47652   6.195   4.968   9.621 -0.5573  1.3359 -0.3183
  346MOL0     C47653   6.248   4.829   9.614 -0.9550  0.6221  0.5513
  346MOL0     C47654   6.404   4.829   9.575 -0.2815 -0.6624  0.2866
  346MOL0    Cl47655   6.484   4.668   9.532  0.3972 -0.2563 -0.3739
  346MOL0     C47656   5.352   5.073   9.866  0.4054  0.3543  0.4994
  346MOL0     C47657   5.224   5.054   9.924 -1.2101 -0.5525  0.0156
  346MOL0     O47658   4.990   5.246   9.975 -0.2181 -0.3881 -0.4804
  346MOL0     C47659   4.834   4.974  10.171  0.2450  0.6115 -0.0878
  346MOL0     C47660   4.715   4.907  10.224 -0.3380 -0.6596  0.3287
  346MOL0     N47661   4.232   4.452  10.664  0.5777  0.8108 -0.1434
  346MOL0     N47662   4.181   4.335  10.691  0.4029 -0.2565 -0.6869
  346MOL0     C47663   4.013   4.110   9.703 -1.1912  0.1241  0.4197
  346MOL0     C47664   3.987   4.193   9.591  0.3510  0.1056 -0.3640
  346MOL0     C47665   3.791   4.562   9.402 -0.3271 -0.3736  0.3412
  346MOL0     C47666   3.759   4.499   9.278  0.1296  0.1701  0.5993
  346MOL0     C47667   3.695   4.565   9.178 -0.1440  0.0363  0.2273
  346MOL0     C47668   3.663   4.697   9.184  0.0256 -0.4695  0.4731
  346MOL0     O47669   3.605   4.775   9.084 -0.3396 -0.0437 -0.3387
  346MOL0     C47670   3.518   4.702   8.997  0.3540  0.6198 -0.1729
  346MOL0     C47671   3.424   4.797   8.926 -0.8602 -0.8701 -0.0914
  346MOL0     C47672   3.491   4.879   8.816  0.1430  0.4943 -0.0599
  346MOL0     C47673   3.383   4.952   8.728 -0.0572 -0.0162 -0.1861
  346MOL0     C47674   3.317   5.060   8.803  0.5463 -0.2919 -0.5499
  346MOL0     C47675   3.253   5.144   8.869 -0.5099  0.0856 -0.3746
  346MOL0     C47676   3.701   4.757   9.304 -0.2702  0.1713  0.1911
  346MOL0     C47677   3.752   4.700   9.416 -0.7401  0.5331  0.5537
  346MOL0     C47678   3.787   4.790   9.522  0.1120  0.2756  0.1386
  346MOL0     H47679   3.663   4.276   9.684  0.0482 -0.4705  0.7666
  346MOL0     H47680   3.721   4.136   9.869  0.6392 -0.7331 -0.5373
  346MOL0     H47681   4.045   3.844   9.875 -1.4617 -0.8584 -1.7725
  346MOL0     H47682   3.889   3.835   9.813  0.6696  0.3889 -1.3974
  346MOL0     H47683   3.806   3.842  10.056 -0.0220  1.4594 -0.9322
  346MOL0     H47684   3.884   3.698   9.989 -0.1795 -0.7171  2.6576
  346MOL0     H47685   3.972   3.727  10.206  0.5775  1.7807  1.9602
  346MOL0     H47686   4.107   3.761  10.095 -0.6491 -0.5439 -1.2973
  346MOL0     H47687   4.109   3.979  10.112 -0.3914 -0.8201  0.0776
  346MOL0     H47688   3.949   3.997  10.168  0.9378  1.7899  1.7900
  346MOL0     H47689   4.178   3.876  10.327 -0.3583  0.3084 -2.3007
  346MOL0     H47690   4.015   3.863  10.384 -1.2705  0.4498 -0.9850
  346MOL0     H47691   4.204   4.069  10.436  0.4775 -1.7027 -1.4740
  346MOL0     H47692   4.112   4.123  10.295 -0.7687  1.3648  0.9365
  346MOL0     H47693   3.921   4.029  10.490  3.3021 -1.4996 -0.3533
  346MOL0     H47694   3.932   4.183  10.410  1.9652  0.1908 -1.7549
  346MOL0     H47695   3.925   4.196  10.669  0.4626 -1.7069  0.0742
  346MOL0     H47696   4.064   4.107  10.679  1.4320  0.0406 -0.7039
  346MOL0     H47697   4.023   4.429  10.427 -0.5069  1.6988  1.2427
  346MOL0     H47698   4.241   4.712  10.579  2.1375  0.2123 -0.3841
  346MOL0     H47699   4.109   4.699  10.464  0.4098 -0.2151  0.0274
  346MOL0     H47700   4.392   4.611  10.444 -0.5344  3.2461  1.4272
  346MOL0     H47701   4.286   4.555  10.316  1.4502  0.1348 -0.7613
  346MOL0     H47702   4.246   4.782  10.237  0.2572 -0.7402 -1.2729
  346MOL0     H47703   4.283   4.862  10.381 -1.8187  0.1281 -0.1623
  346MOL0     H47704   4.518   4.783  10.371 -2.4072 -0.2946  1.5470
  346MOL0     H47705   4.475   4.709  10.207 -1.2772  0.6310 -1.5392
  346MOL0     H47706   4.508   5.134  10.064 -0.9017 -2.5400 -3.7429
  346MOL0     H47707   4.733   5.253   9.872 -3.7861 -1.3731 -1.1795
  346MOL0     H47708   4.763   5.348  10.015  1.0422  0.8674 -2.1738
  346MOL0     H47709   4.591   5.293   9.975 -0.0584  0.4834  1.9729
  346MOL0     H47710   5.291   5.176  10.232  1.9656 -1.0223  0.7921
  346MOL0     H47711   5.522   5.206  10.131 -0.9052  2.7777 -0.9497
  346MOL0     H47712   5.660   5.298   9.960  1.2994  0.5441  0.8646
  346MOL0     H47713   5.721   5.140  10.017 -2.8997 -1.7083 -0.1255
  346MOL0     H47714   5.795   5.257   9.749  2.2673  2.1595  1.0734
  346MOL0     H47715   5.896   5.284   9.891 -0.8831  1.9642 -0.6751
  346MOL0     H47716   5.817   5.006   9.802  0.1752 -0.2119  1.3792
  346MOL0     H47717   5.921   5.054   9.928 -0.3051 -0.8355 -0.1550
  346MOL0     H47718   6.068   5.162   9.787  0.6879 -2.5413  2.0997
  346MOL0     H47719   5.968   5.128   9.640  0.3942  4.7713  0.9793
  346MOL0     H47720   6.100   4.919   9.816  1.5645 -0.8243 -1.3856
  346MOL0     H47721   5.999   4.883   9.668 -1.2087  1.0213 -1.6213
  346MOL0     H47722   6.265   5.044   9.658 -1.9698  2.8550 -0.6240
  346MOL0     H47723   6.160   4.994   9.520 -1.0255 -3.0592 -1.4832
  346MOL0     H47724   6.189   4.769   9.544 -0.1867 -0.0462  0.4558
  346MOL0     H47725   6.244   4.776   9.709 -1.0827 -1.0806 -0.3494
  346MOL0     H47726   6.453   4.871   9.662 -0.6971  0.2607  0.0884
  346MOL0     H47727   6.419   4.898   9.491 -0.6239 -0.3330  0.4950
  346MOL0     H47728   5.364   5.046   9.761  0.7089  2.0380  0.0771
  346MOL0     H47729   5.131   5.028   9.874 -1.7766  2.5846 -0.7628
  346MOL0     H47730   4.927   4.928  10.205  0.7410  2.3093  0.9712
  346MOL0     H47731   4.708   4.819  10.287 -0.1325  0.0819  1.3988
  346MOL0     H47732   4.114   4.072   9.712 -1.5345 -1.0607 -0.5893
  346MOL0     H47733   4.070   4.202   9.522  1.4210  0.6360  0.9545
  346MOL0     H47734   3.763   4.394   9.250 -1.7228 -0.6054  2.9062
  346MOL0     H47735   3.665   4.505   9.092  0.7504  1.8104 -1.4055
  346MOL0     H47736   3.576   4.647   8.923  0.0784  1.5480 -1.0990
  346MOL0     H47737   3.457   4.629   9.051  1.4499  2.5222  4.0175
  346MOL0     H47738   3.386   4.870   8.999  0.7780 -1.1565  1.1150
  346MOL0     H47739   3.340   4.747   8.878 -1.7151  2.1868 -2.0644
  346MOL0     H47740   3.559   4.958   8.849  0.9327 -0.6308  1.0863
  346MOL0     H47741   3.562   4.811   8.768  0.4830  2.1787 -2.0877
  346MOL0     H47742   3.309   4.874   8.709  0.4635 -0.4421 -0.4890
  346MOL0     H47743   3.429   4.986   8.634  2.0733 -1.6487  0.2144
  346MOL0     H47744   3.194   5.219   8.918 -1.5489 -0.0691 -1.3392
  346MOL0     H47745   3.689   4.865   9.308 -1.6349  0.0102  1.9279
  346MOL0     H47746   3.894   4.809   9.531 -0.3808  2.3107  3.7795
  346MOL0     H47747   3.725   4.881   9.519 -0.2144  0.0416 -0.2744
  346MOL0     H47748   3.760   4.741   9.616 -2.8722  0.6333 -0.4250
  347MOL0     O47749   6.561   4.704  10.570  0.3246 -0.3074  0.2222
  347MOL0     C47750   6.510   4.605  10.623  0.5513 -1.1851  0.4331
  347MOL0     O47751   6.565   4.533  10.719  0.6251  0.7623 -0.9537
  347MOL0     C47752   6.695   4.544  10.745 -0.4719 -0.5440 -0.0488
  347MOL0     C47753   6.799   4.563  10.649  0.1434 -0.0762  0.4587
  347MOL0     C47754   6.932   4.548  10.692 -0.3450  0.1970  0.1840
  347MOL0     C47755   6.971   4.520  10.824 -0.4628  0.9630 -0.3784
  347MOL0     O47756   7.097   4.504  10.866 -0.1437 -0.1705 -0.1873
  347MOL0     C47757   7.186   4.432  10.783 -0.2366 -0.3720  0.6796
  347MOL0     C47758   7.315   4.390  10.855  0.7820 -0.2872 -0.2392
  347MOL0     C47759   7.292   4.314  10.986 -0.8068 -0.0853  0.1348
  347MOL0     C47760   7.434   4.284  11.057  0.1104  0.0474  0.4717
  347MOL0     C47761   7.417   4.191  11.178 -0.4570  0.5015 -0.2738
  347MOL0     C47762   7.556   4.149  11.228  0.0381  0.6350 -0.3967
  347MOL0     C47763   7.535   4.056  11.350 -0.2228 -1.1066  0.5886
  347MOL0     C47764   7.655   3.994  11.411 -0.1581  0.0164 -0.0967
  347MOL0     N47765   7.758   4.091  11.430  0.1863  0.0322 -0.4876
  347MOL0     C47766   7.895   4.069  11.428 -0.4985  0.4635 -0.0920
  347MOL0     C47767   7.944   4.181  11.486  0.8947 -0.0284 -0.2740
  347MOL0     C47768   8.083   4.199  11.508 -0.5951  0.7991 -1.4891
  347MOL0     C47769   8.134   4.164  11.650 -0.3566 -0.0547 -0.2315
  347MOL0     C47770   8.143   4.018  11.673 -0.2252 -0.0939 -0.0917
  347MOL0     C47771   8.227   3.981  11.800 -0.1084 -0.1231  0.0862
  347MOL0     O47772   8.350   4.061  11.793 -0.3671 -0.3903  1.0458
  347MOL0     C47773   8.448   4.056  11.887  0.3978 -0.5101  0.4268
  347MOL0     C47774   8.560   4.126  11.849  0.1245 -0.0714 -0.4304
  347MOL0     C47775   8.675   4.137  11.922 -0.0262  0.5210 -0.2740
  347MOL0     C47776   8.794   4.224  11.881  0.5549 -0.4204  0.4748
  347MOL0     C47777   8.678   4.057  12.041 -0.0546  0.0604 -0.3115
  347MOL0     C47778   8.776   4.069  12.151 -0.3338 -0.4882 -0.2296
  347MOL0     O47779   8.772   3.960  12.245  0.1599  0.2496 -0.6627
  347MOL0     C47780   8.856   3.971  12.349 -0.4034  0.7283 -0.1491
  347MOL0     C47781   8.811   4.040  12.460 -0.5452 -1.0237  0.0991
  347MOL0     C47782   8.896   4.077  12.568 -0.1537 -0.3372 -0.6890
  347MOL0     C47783   9.028   4.012  12.566 -0.6963  0.2823  0.0345
  347MOL0     O47784   9.105   4.037  12.677  0.1176 -0.0973  0.6445
  347MOL0     C47785   9.168   4.163  12.684 -0.0359 -0.4451 -0.6245
  347MOL0     C47786   9.263   4.200  12.566  0.0160 -0.4803  0.5103
  347MOL0     C47787   9.347   4.328  12.598  0.4163  0.3507 -0.2216
  347MOL0     C47788   9.398   4.369  12.457  0.0220  0.5030  0.2571
  347MOL0     C47789   9.502   4.484  12.466 -0.1692  0.7500 -0.4137
  347MOL0     C47790   9.648   4.439  12.508  0.0906  0.6011  0.8761
  347MOL0     C47791   9.745   4.556  12.491  0.0148  0.0370  0.0278
  347MOL0     C47792   9.899   4.508  12.479  0.8580 -0.1912  0.3121
  347MOL0    Cl47793  10.011   4.644  12.486  0.2804  0.5773 -0.4669
  347MOL0     C47794   9.063   3.931  12.466 -0.5127 -0.8657  0.6173
  347MOL0     C47795   8.981   3.913  12.352  0.0507  0.1727  0.1586
  347MOL0     O47796   8.837   4.175  12.172  0.1538 -0.6924  0.1981
  347MOL0     C47797   8.561   3.975  12.076  0.1380  1.1433 -0.0174
  347MOL0     C47798   8.448   3.970  11.994 -0.2838 -0.9091  0.8259
  347MOL0     N47799   7.835   4.251  11.547  0.0636 -0.3596  0.4457
  347MOL0     N47800   7.722   4.203  11.509  0.2251  0.5268 -0.0720
  347MOL0     C47801   6.867   4.527  10.912  0.9223  0.1962  0.3462
  347MOL0     C47802   6.733   4.529  10.876  0.1901  0.3958 -0.5385
  347MOL0     C47803   6.368   4.590  10.598 -0.0047  0.0226 -0.6152
  347MOL0     C47804   6.295   4.554  10.718  0.0003 -0.3646 -0.0691
  347MOL0     C47805   6.162   4.524  10.715  0.0461  0.2875 -0.4297
  347MOL0     C47806   6.081   4.538  10.597  0.3911  0.8464  0.7774
  347MOL0     O47807   5.944   4.495  10.604  0.3829  0.9851  0.6257
  347MOL0     C47808   5.871   4.495  10.478  0.0062  0.5179 -0.2223
  347MOL0     C47809   5.728   4.463  10.502  0.2522  0.2758 -0.7412
  347MOL0     C47810   5.712   4.365  10.627 -0.0318 -0.8033 -0.0300
  347MOL0     C47811   5.568   4.309  10.637 -0.4401 -0.7393  0.5722
  347MOL0     C47812   5.459   4.408  10.605  0.1494  0.0151  0.2097
  347MOL0     C47813   5.385   4.501  10.569 -0.6878 -0.4228  0.5974
  347MOL0     C47814   6.149   4.582  10.479  0.0469  0.5241  0.0600
  347MOL0     C47815   6.288   4.620  10.484  0.6809  0.1715  0.5750
  347MOL0     C47816   6.335   4.693  10.361  0.9405  0.1631  0.1947
  347MOL0     H47817   6.772   4.601  10.551  0.2052 -0.3177  0.3479
  347MOL0     H47818   7.017   4.557  10.625  0.8338 -0.3542  1.5412
  347MOL0     H47819   7.219   4.488  10.694 -0.0333 -0.8977  0.4131
  347MOL0     H47820   7.131   4.341  10.754 -1.2834 -0.2388  2.1846
  347MOL0     H47821   7.377   4.332  10.786  1.5832 -0.3087  0.4778
  347MOL0     H47822   7.371   4.479  10.885 -1.4381  1.3017 -0.5390
  347MOL0     H47823   7.232   4.368  11.060  2.1901 -0.8949  3.4302
  347MOL0     H47824   7.249   4.218  10.956 -0.5922 -0.0229 -0.3887
  347MOL0     H47825   7.494   4.228  10.986 -1.6570 -1.0193 -0.2571
  347MOL0     H47826   7.482   4.379  11.083  1.3398 -0.0969 -1.1436
  347MOL0     H47827   7.348   4.111  11.153  0.2887 -0.3880  0.4749
  347MOL0     H47828   7.376   4.247  11.262 -0.7643 -0.1890  0.0424
  347MOL0     H47829   7.611   4.101  11.146 -4.3778  0.0625 -3.3886
  347MOL0     H47830   7.614   4.239  11.251 -0.1203  1.2030 -2.0628
  347MOL0     H47831   7.464   3.980  11.318 -0.7634  0.4562 -2.2396
  347MOL0     H47832   7.489   4.123  11.424  0.5202 -0.4272  0.4464
  347MOL0     H47833   7.606   3.956  11.501 -1.2549  3.3186  0.8337
  347MOL0     H47834   7.686   3.907  11.352  0.2627  0.5005 -0.6046
  347MOL0     H47835   7.946   3.980  11.392 -0.5796 -0.6363  2.2876
  347MOL0     H47836   8.116   4.303  11.493  1.9272  1.0592  3.4297
  347MOL0     H47837   8.136   4.132  11.440  0.1467 -2.2092  1.7728
  347MOL0     H47838   8.235   4.205  11.647 -1.5318  3.0072 -1.1655
  347MOL0     H47839   8.071   4.212  11.725  0.8956 -1.0114  1.4874
  347MOL0     H47840   8.044   3.978  11.696  1.3401 -2.5782  3.1577
  347MOL0     H47841   8.191   3.977  11.584  1.3885  1.1623  0.1500
  347MOL0     H47842   8.160   4.007  11.882  1.1100 -0.5545  1.2574
  347MOL0     H47843   8.255   3.876  11.799 -0.0692 -0.1157 -0.8745
  347MOL0     H47844   8.560   4.200  11.769  1.0443 -0.3546 -0.7045
  347MOL0     H47845   8.810   4.230  11.773 -2.1109  2.8704  0.1174
  347MOL0     H47846   8.890   4.195  11.925  0.9794 -1.3646 -0.9925
  347MOL0     H47847   8.785   4.324  11.924 -1.9507  0.4955 -1.8701
  347MOL0     H47848   8.706   4.068  12.465 -0.9101 -1.4015 -3.1603
  347MOL0     H47849   8.870   4.135  12.655  0.3866 -0.1405 -0.6571
  347MOL0     H47850   9.095   4.243  12.689 -2.6931 -2.7194 -0.3233
  347MOL0     H47851   9.228   4.146  12.774 -0.8653 -2.6897 -0.4209
  347MOL0     H47852   9.328   4.113  12.553 -0.5208 -0.6670 -1.1974
  347MOL0     H47853   9.202   4.212  12.476  0.4710  0.4072  0.3085
  347MOL0     H47854   9.425   4.305  12.671 -1.4000  1.5200  2.2308
  347MOL0     H47855   9.279   4.397  12.649 -2.1246 -1.8584 -0.4054
  347MOL0     H47856   9.322   4.375  12.378 -0.6194 -1.1266  0.6978
  347MOL0     H47857   9.458   4.282  12.430  2.1563  2.1891 -0.6848
  347MOL0     H47858   9.498   4.542  12.373  1.6556  0.7055 -0.5564
  347MOL0     H47859   9.480   4.549  12.551 -0.5273  1.8760 -1.3272
  347MOL0     H47860   9.678   4.369  12.430 -0.7091  0.1585  0.9565
  347MOL0     H47861   9.648   4.398  12.609 -0.4779 -0.8313  0.3097
  347MOL0     H47862   9.733   4.626  12.574 -0.2811 -0.4454  0.3992
  347MOL0     H47863   9.720   4.616  12.403  2.9795  1.1853 -0.1467
  347MOL0     H47864   9.911   4.451  12.386 -2.7055 -0.8648  0.1299
  347MOL0     H47865   9.910   4.441  12.564 -1.9569 -0.0808  0.8567
  347MOL0     H47866   9.156   3.874  12.466 -0.9458 -1.8326 -3.4393
  347MOL0     H47867   9.008   3.855  12.264 -4.4267 -0.6108 -0.9144
  347MOL0     H47868   8.569   3.905  12.158  2.9305 -1.2587 -2.1036
  347MOL0     H47869   8.369   3.897  12.011 -2.0124  0.5237 -0.6667
  347MOL0     H47870   6.888   4.520  11.018 -2.1321 -0.0659  1.0253
  347MOL0     H47871   6.659   4.512  10.954  0.1114 -0.3908 -0.7751
  347MOL0     H47872   6.350   4.537  10.809 -1.0290  0.8991  0.8299
  347MOL0     H47873   6.108   4.482  10.800 -2.8095  1.3720 -1.5827
  347MOL0     H47874   5.865   4.585  10.416 -1.1482  0.0986 -0.7508
  347MOL0     H47875   5.913   4.424  10.406  0.3075 -0.7928  1.1847
  347MOL0     H47876   5.690   4.419  10.409 -0.3763  0.8896 -0.7918
  347MOL0     H47877   5.681   4.559  10.527 -1.0862 -0.4006 -0.5710
  347MOL0     H47878   5.780   4.280  10.615 -1.3728 -1.7560 -1.3352
  347MOL0     H47879   5.726   4.410  10.726  2.0985 -1.2214 -0.1097
  347MOL0     H47880   5.559   4.256  10.733  0.7327 -0.9175  0.5952
  347MOL0     H47881   5.554   4.227  10.566  4.1630 -2.4559  1.3076
  347MOL0     H47882   5.341   4.589  10.526 -1.8684 -1.4640 -0.4172
  347MOL0     H47883   6.107   4.606  10.381  0.6601 -0.3957 -0.4414
  347MOL0     H47884   6.317   4.800  10.375 -0.1600 -0.1421  1.3533
  347MOL0     H47885   6.441   4.673  10.339  0.2794 -0.0139 -3.3502
  347MOL0     H47886   6.288   4.649  10.273 -0.5029  2.2374 -0.1272
  348MOL0     O47887   0.092   1.642   7.487 -0.6443 -0.0564 -0.4307
  348MOL0     C47888   0.068   1.524   7.463  0.5834 -0.1943 -0.3938
  348MOL0     O47889   0.152   1.416   7.499 -0.7356  0.2635  0.1595
  348MOL0     C47890   0.233   1.442   7.614 -0.0525 -0.2131  0.4246
  348MOL0     C47891   0.353   1.512   7.604  0.1407 -0.2715 -0.0971
  348MOL0     C47892   0.444   1.540   7.709  0.3051 -0.5114 -0.9345
  348MOL0     C47893   0.397   1.508   7.837  0.8194 -1.0608 -1.6344
  348MOL0     O47894   0.464   1.522   7.953  0.0639  0.5739 -0.0297
  348MOL0     C47895   0.595   1.583   7.951 -0.2705 -0.3920 -0.2790
  348MOL0     C47896   0.673   1.558   8.081  0.0031  0.5049 -0.0811
  348MOL0     C47897   0.645   1.418   8.146  0.1922  0.2024 -0.2612
  348MOL0     C47898   0.526   1.410   8.243  0.3623  0.2346 -0.2132
  348MOL0     C47899   0.490   1.271   8.308  0.2542  0.1557 -0.3236
  348MOL0     C47900   0.435   1.172   8.202  0.0832  0.5677 -0.0899
  348MOL0     C47901   0.289   1.202   8.165 -0.5100  0.0764  0.1599
  348MOL0     C47902   0.182   1.182   8.271  0.3345 -0.4958  0.1636
  348MOL0     N47903   0.206   1.066   8.356  0.7005 -0.2904  0.1175
  348MOL0     C47904   0.239   1.072   8.493  0.7275  0.5309  0.5138
  348MOL0     C47905   0.267   0.941   8.525 -0.0470  0.0513  0.8958
  348MOL0     C47906   0.334   0.910   8.661 -0.4648 -0.1213 -0.3103
  348MOL0     C47907   0.469   0.974   8.679  0.2456  1.2135  0.8339
  348MOL0     C47908   0.561   0.899   8.582 -0.2590 -0.0393 -0.7163
  348MOL0     C47909   0.703   0.955   8.593  0.5379 -0.4172  0.0791
  348MOL0     O47910   0.804   0.865   8.549 -0.4106  0.5671  0.3607
  348MOL0     C47911   0.936   0.887   8.559 -0.2028  0.9001  0.7194
  348MOL0     C47912   0.998   0.984   8.642 -0.8108  0.2506 -0.3029
  348MOL0     C47913   1.135   1.000   8.640  0.2561  0.4700 -0.2278
  348MOL0     C47914   1.194   1.115   8.722  0.2643  0.5767  1.2670
  348MOL0     C47915   1.216   0.914   8.555 -0.2481 -1.4471 -0.0316
  348MOL0     C47916   1.364   0.943   8.536 -0.1379 -0.6205  0.3770
  348MOL0     O47917   1.441   0.962   8.641 -0.0764  0.4791  1.0496
  348MOL0     C47918   1.580   0.965   8.637  0.2735 -0.6017 -1.2483
  348MOL0     C47919   1.659   1.052   8.723 -0.8914  0.2300  0.6665
  348MOL0     C47920   1.797   1.047   8.719 -0.2494  0.7078 -0.0706
  348MOL0     C47921   1.865   0.964   8.636  0.5090  0.4393  0.5487
  348MOL0     O47922   1.997   0.981   8.635  0.0671 -0.2048 -0.0255
  348MOL0     C47923   2.068   0.856   8.661  0.0499  0.0879 -0.3466
  348MOL0     C47924   2.060   0.823   8.818 -0.7184 -0.8359 -0.4439
  348MOL0     C47925   2.111   0.689   8.863 -0.0263 -0.6146  0.4570
  348MOL0     C47926   2.252   0.684   8.910  0.6817  0.5981 -0.1909
  348MOL0     C47927   2.303   0.542   8.926 -0.1970 -0.1374 -0.7852
  348MOL0     C47928   2.447   0.522   8.963  0.2164  0.3223 -0.2871
  348MOL0     C47929   2.504   0.636   9.053  0.7533  0.6612 -0.7586
  348MOL0     C47930   2.642   0.604   9.099 -0.2161  0.2850 -0.7392
  348MOL0    Cl47931   2.757   0.604   8.951  0.3806 -0.2876  0.3453
  348MOL0     C47932   1.790   0.873   8.562 -0.2360 -0.1637 -0.1479
  348MOL0     C47933   1.650   0.875   8.555 -0.1368 -0.2884  0.1279
  348MOL0     O47934   1.408   0.927   8.421  0.0703  0.4076 -0.4823
  348MOL0     C47935   1.154   0.812   8.482 -0.3504 -0.8740  0.6833
  348MOL0     C47936   1.018   0.808   8.472  0.5881 -0.7686 -0.5638
  348MOL0     N47937   0.234   0.861   8.414  0.2379 -0.0251 -0.4702
  348MOL0     N47938   0.194   0.937   8.317  0.4689  0.5758 -0.0674
  348MOL0     C47939   0.269   1.441   7.849 -0.1916  0.6755 -0.2524
  348MOL0     C47940   0.191   1.405   7.738  0.5823  0.1314 -0.4145
  348MOL0     C47941  -0.048   1.487   7.373 -0.4177 -0.3029 -0.0293
  348MOL0     C47942  -0.091   1.361   7.394 -0.9292 -0.2090  0.9607
  348MOL0     C47943  -0.199   1.312   7.313 -0.0988 -0.5841  0.4249
  348MOL0     C47944  -0.267   1.403   7.228  0.0293 -0.3726 -0.2370
  348MOL0     O47945  -0.367   1.356   7.147  0.2207 -0.7554  0.0467
  348MOL0     C47946  -0.489   1.413   7.165  0.3630  0.0872  0.0618
  348MOL0     C47947  -0.537   1.432   7.026 -0.2221 -1.0411 -0.4584
  348MOL0     C47948  -0.660   1.526   7.015 -0.0299  0.0703 -0.1279
  348MOL0     C47949  -0.711   1.523   6.876  1.1404  0.1224 -0.3302
  348MOL0     C47950  -0.833   1.599   6.870  0.6122 -0.3605 -0.1484
  348MOL0     C47951  -0.936   1.665   6.852  0.1258 -0.5266 -0.7034
  348MOL0     C47952  -0.207   1.525   7.201 -0.0980  0.5734 -0.6695
  348MOL0     C47953  -0.096   1.569   7.273 -0.5156  0.5451 -0.4648
  348MOL0     C47954  -0.037   1.711   7.235 -0.1734  0.1161  0.7373
  348MOL0     H47955   0.376   1.534   7.500  1.4573 -0.9530  0.0309
  348MOL0     H47956   0.529   1.603   7.686  0.3613 -0.8181 -1.6073
  348MOL0     H47957   0.579   1.691   7.958 -0.0805 -0.4897  4.7954
  348MOL0     H47958   0.650   1.545   7.864 -0.4668 -2.5870  0.5085
  348MOL0     H47959   0.779   1.566   8.055  1.0440 -1.4859  2.9954
  348MOL0     H47960   0.651   1.622   8.167 -3.0628 -4.4612  3.3147
  348MOL0     H47961   0.630   1.349   8.062 -0.6689  4.0012 -3.5532
  348MOL0     H47962   0.735   1.371   8.187  2.1585  2.6999 -1.4357
  348MOL0     H47963   0.558   1.472   8.327  1.2638  0.1097 -0.4611
  348MOL0     H47964   0.435   1.451   8.198 -1.0724 -0.6600  1.6981
  348MOL0     H47965   0.417   1.286   8.388  0.0462 -1.7157 -0.1071
  348MOL0     H47966   0.574   1.221   8.358 -1.9722 -1.8750  1.6540
  348MOL0     H47967   0.497   1.166   8.112  0.0110 -0.7158 -0.0620
  348MOL0     H47968   0.446   1.073   8.247 -2.9563 -0.0639 -0.5448
  348MOL0     H47969   0.261   1.130   8.088  1.9401 -1.2359  0.4026
  348MOL0     H47970   0.298   1.306   8.132 -1.7674  0.8352  2.0529
  348MOL0     H47971   0.176   1.263   8.345 -1.3269 -1.4639  1.1560
  348MOL0     H47972   0.081   1.182   8.229 -0.0426  3.2033  0.6861
  348MOL0     H47973   0.265   1.162   8.546 -0.4610  1.1324  0.1148
  348MOL0     H47974   0.345   0.801   8.668  4.8819  0.2611  1.7150
  348MOL0     H47975   0.261   0.960   8.725  0.1230 -0.1588  0.4098
  348MOL0     H47976   0.465   1.081   8.658  1.8950  1.1479 -0.0266
  348MOL0     H47977   0.503   0.951   8.780  0.9070 -3.4054 -0.1740
  348MOL0     H47978   0.558   0.792   8.602 -1.7374  0.3251  1.3974
  348MOL0     H47979   0.529   0.899   8.478 -3.7145 -1.2589  0.2290
  348MOL0     H47980   0.714   1.040   8.524 -0.8883 -2.8327 -3.4501
  348MOL0     H47981   0.708   0.970   8.701 -0.1946 -0.4019  0.1106
  348MOL0     H47982   0.933   1.041   8.708 -1.7404 -0.6248 -0.4369
  348MOL0     H47983   1.250   1.182   8.655  0.5810  0.0941  1.0456
  348MOL0     H47984   1.262   1.076   8.798 -0.9208  2.6187  3.5217
  348MOL0     H47985   1.114   1.173   8.768 -0.1958  1.2811 -0.3409
  348MOL0     H47986   1.598   1.123   8.780 -2.8056  1.4095 -2.5817
  348MOL0     H47987   1.853   1.104   8.792  1.1258  2.0077 -2.0492
  348MOL0     H47988   2.022   0.769   8.615 -1.5146  0.6839  0.0212
  348MOL0     H47989   2.171   0.872   8.629 -0.1237  0.6798 -0.6214
  348MOL0     H47990   2.115   0.901   8.872  0.0209 -0.0839 -2.2081
  348MOL0     H47991   1.959   0.839   8.856  0.4397 -0.2883  2.6985
  348MOL0     H47992   2.095   0.615   8.784 -0.1872 -2.9887  2.5911
  348MOL0     H47993   2.052   0.654   8.948 -0.4146 -2.1246 -0.3770
  348MOL0     H47994   2.264   0.727   9.010  1.9491 -1.3853  0.5744
  348MOL0     H47995   2.319   0.737   8.842  0.5901 -0.9528 -1.5459
  348MOL0     H47996   2.265   0.522   9.026 -1.8966 -0.3834 -1.4412
  348MOL0     H47997   2.267   0.481   8.842 -1.7234  0.2239 -0.4255
  348MOL0     H47998   2.503   0.519   8.869  0.9637  3.4124 -0.0527
  348MOL0     H47999   2.449   0.426   9.015  1.9057  0.7542  0.5006
  348MOL0     H48000   2.450   0.652   9.147 -0.0615  1.8379 -1.3872
  348MOL0     H48001   2.504   0.725   8.988 -0.9826  0.5517 -0.9586
  348MOL0     H48002   2.649   0.504   9.142  2.8444  0.5788 -0.3118
  348MOL0     H48003   2.682   0.670   9.177  1.1932 -0.1946 -1.0400
  348MOL0     H48004   1.845   0.812   8.491  1.4458  1.3516 -0.2420
  348MOL0     H48005   1.609   0.807   8.480 -0.5557  1.2449 -1.0992
  348MOL0     H48006   1.218   0.740   8.431 -0.3853 -0.0368 -0.6113
  348MOL0     H48007   0.961   0.745   8.405  0.7830 -0.6041 -0.8857
  348MOL0     H48008   0.229   1.406   7.944  1.4060 -0.0805  0.1691
  348MOL0     H48009   0.094   1.357   7.739  1.4718 -1.8533 -1.7920
  348MOL0     H48010  -0.042   1.281   7.447 -4.0156 -3.7612 -1.0526
  348MOL0     H48011  -0.223   1.206   7.314  2.6444 -1.3074 -0.2916
  348MOL0     H48012  -0.569   1.366   7.224 -0.9695  2.4395  0.2510
  348MOL0     H48013  -0.486   1.516   7.202  0.5071 -0.0434  0.4121
  348MOL0     H48014  -0.563   1.333   6.986  1.9401 -1.1017 -1.8711
  348MOL0     H48015  -0.452   1.475   6.972 -1.8059  2.9725 -0.0496
  348MOL0     H48016  -0.741   1.496   7.082 -0.5855  1.8215  0.0315
  348MOL0     H48017  -0.623   1.624   7.047  1.0435 -0.1460 -0.6582
  348MOL0     H48018  -0.735   1.420   6.848  0.6575  0.5697 -1.6566
  348MOL0     H48019  -0.637   1.559   6.804  1.0492  1.2637  0.1194
  348MOL0     H48020  -1.032   1.711   6.848  0.2540  0.0218  1.2678
  348MOL0     H48021  -0.245   1.587   7.121  1.7482  1.8076 -0.6726
  348MOL0     H48022   0.072   1.701   7.234  0.0604  2.1656  1.1553
  348MOL0     H48023  -0.076   1.741   7.137  1.5858 -0.7697 -0.2885
  348MOL0     H48024  -0.067   1.784   7.311  2.2756  1.8195  0.2077
  349MOL0     O48025   5.693   3.085   9.367 -0.4711  0.1519 -0.1181
  349MOL0     C48026   5.672   3.096   9.246 -0.7655  0.0876 -1.8518
  349MOL0     O48027   5.754   3.164   9.160  0.3657 -0.5198 -0.4233
  349MOL0     C48028   5.888   3.166   9.176 -0.6074 -0.6758 -0.5006
  349MOL0     C48029   5.961   3.260   9.098 -0.0684 -0.6324  0.7272
  349MOL0     C48030   6.099   3.266   9.083  0.5074 -0.5674  0.0294
  349MOL0     C48031   6.174   3.179   9.159 -0.2670 -0.0510  0.0245
  349MOL0     O48032   6.311   3.172   9.174 -0.5212  0.1277  0.0161
  349MOL0     C48033   6.400   3.140   9.061  0.2836 -0.4825 -0.3055
  349MOL0     C48034   6.548   3.186   9.075 -0.2920  0.7267  0.1216
  349MOL0     C48035   6.603   3.177   9.209 -0.0726  0.0167 -0.6200
  349MOL0     C48036   6.755   3.201   9.215  0.6294 -0.0914  0.1366
  349MOL0     C48037   6.813   3.179   9.351 -0.3006 -0.1064  0.0953
  349MOL0     C48038   6.963   3.165   9.351 -0.6830 -0.5717 -0.1672
  349MOL0     C48039   6.999   3.074   9.478  0.1177  0.4747  1.1283
  349MOL0     C48040   7.147   3.042   9.491  0.2557 -0.3861  0.1076
  349MOL0     N48041   7.219   3.150   9.558  0.1601  0.0555  0.0904
  349MOL0     C48042   7.305   3.117   9.661  0.8454  1.5395 -0.0966
  349MOL0     C48043   7.327   3.232   9.732  0.0037 -0.1557  0.2566
  349MOL0     C48044   7.399   3.238   9.857  0.2669  0.5548  0.1788
  349MOL0     C48045   7.552   3.219   9.841 -0.0943 -0.3181 -0.0847
  349MOL0     C48046   7.619   3.248   9.979 -0.5970 -0.0239  0.1017
  349MOL0     C48047   7.764   3.292   9.959  0.0398  0.8436  0.7891
  349MOL0     O48048   7.831   3.199   9.875 -0.3853  0.2373  1.3127
  349MOL0     C48049   7.968   3.215   9.854  0.5824 -0.5168 -0.6771
  349MOL0     C48050   8.050   3.319   9.899  0.5472  0.7490 -0.3736
  349MOL0     C48051   8.190   3.309   9.868 -0.1227  0.1586 -1.1492
  349MOL0     C48052   8.277   3.429   9.918  0.1220 -0.8045 -0.2456
  349MOL0     C48053   8.253   3.198   9.817  0.4084  0.5368  0.2772
  349MOL0     C48054   8.396   3.175   9.796  0.3913  1.0655 -0.6098
  349MOL0     O48055   8.478   3.285   9.799 -0.3254 -0.4528 -0.2755
  349MOL0     C48056   8.614   3.287   9.804 -0.4214  0.4072  0.3691
  349MOL0     C48057   8.672   3.414   9.798  0.2596  0.6409 -0.3522
  349MOL0     C48058   8.815   3.421   9.818  0.5526 -0.9476 -0.2865
  349MOL0     C48059   8.896   3.305   9.834 -0.3214  0.0732 -0.2443
  349MOL0     O48060   9.030   3.325   9.856 -0.0156  0.0045 -0.7273
  349MOL0     C48061   9.116   3.209   9.848 -0.1020 -0.5517 -0.5661
  349MOL0     C48062   9.253   3.266   9.848 -0.2037 -0.0444 -1.4644
  349MOL0     C48063   9.289   3.313   9.994 -0.1202  0.3976  0.2883
  349MOL0     C48064   9.429   3.359  10.000 -0.3099  0.1688 -0.3638
  349MOL0     C48065   9.445   3.416  10.144  0.6252 -0.3139 -0.2316
  349MOL0     C48066   9.582   3.480  10.145 -0.7531  0.3369 -0.4838
  349MOL0     C48067   9.627   3.510  10.287  0.7077 -0.3806 -0.6674
  349MOL0     C48068   9.741   3.610  10.310 -0.6645  0.6930  0.2485
  349MOL0    Cl48069   9.894   3.526  10.258  0.1344 -0.0747 -0.0205
  349MOL0     C48070   8.831   3.175   9.836  0.3676 -0.3238  0.6331
  349MOL0     C48071   8.694   3.169   9.826  0.2719 -0.9716  0.7600
  349MOL0     O48072   8.435   3.060   9.788 -0.0597  0.1029 -0.4239
  349MOL0     C48073   8.161   3.092   9.779 -0.4014 -0.3100  0.3256
  349MOL0     C48074   8.026   3.104   9.789  0.8081 -0.1331 -0.1080
  349MOL0     N48075   7.262   3.335   9.664 -0.3046  0.3364  0.0589
  349MOL0     N48076   7.201   3.286   9.562 -0.0526 -0.5462  0.3854
  349MOL0     C48077   6.114   3.077   9.230  0.9593  0.0825  0.4241
  349MOL0     C48078   5.971   3.067   9.247  0.1607 -1.0529  0.1514
  349MOL0     C48079   5.532   3.069   9.197 -0.3922  0.2726 -0.1524
  349MOL0     C48080   5.479   3.163   9.102 -0.6276 -0.2994  0.2084
  349MOL0     C48081   5.357   3.142   9.037  0.0058  0.3785  0.0692
  349MOL0     C48082   5.288   3.026   9.060  0.6205 -0.2084  0.3231
  349MOL0     O48083   5.169   3.008   9.001  0.3351 -0.1139 -0.2487
  349MOL0     C48084   5.078   3.115   9.027  0.1315 -0.1760 -0.5617
  349MOL0     C48085   4.943   3.046   9.007  0.4928  0.2666 -0.2912
  349MOL0     C48086   4.913   2.938   9.130 -0.0166 -0.0838 -0.2420
  349MOL0     C48087   4.796   2.846   9.095 -0.1812  0.2085  0.1584
  349MOL0     C48088   4.791   2.739   9.199  0.3341  0.7279  0.2134
  349MOL0     C48089   4.794   2.649   9.278  0.3059 -0.2558  0.0667
  349MOL0     C48090   5.337   2.929   9.150 -0.6959  0.2828 -0.2437
  349MOL0     C48091   5.456   2.953   9.222  0.3964  0.5392  0.0254
  349MOL0     C48092   5.491   2.855   9.327  0.6303  0.1809 -0.0262
  349MOL0     H48093   5.909   3.334   9.039  3.8606  1.2510 -0.7600
  349MOL0     H48094   6.141   3.347   9.024 -1.1471  0.9072  0.7789
  349MOL0     H48095   6.353   3.186   8.973 -1.8468 -2.6791 -0.4064
  349MOL0     H48096   6.396   3.032   9.047 -3.0224 -0.8816  2.4846
  349MOL0     H48097   6.603   3.121   9.007  0.9440  1.8715 -0.0003
  349MOL0     H48098   6.562   3.285   9.032 -2.3063 -0.3754 -3.4919
  349MOL0     H48099   6.547   3.252   9.266 -3.6495 -2.3145 -0.8082
  349MOL0     H48100   6.581   3.077   9.245 -0.2283  0.4097  0.4224
  349MOL0     H48101   6.806   3.134   9.146  1.0334  1.5810 -1.2520
  349MOL0     H48102   6.778   3.298   9.170  2.7065  0.4007  2.0773
  349MOL0     H48103   6.774   3.086   9.393  1.5987 -0.4530  1.2060
  349MOL0     H48104   6.787   3.259   9.421 -0.0588 -1.1689  1.4288
  349MOL0     H48105   6.996   3.114   9.259 -0.0153 -1.0590  0.3307
  349MOL0     H48106   7.018   3.259   9.361  0.2864 -1.2352  1.0367
  349MOL0     H48107   6.950   2.977   9.466 -1.9067  1.6307 -0.5560
  349MOL0     H48108   6.957   3.118   9.569 -1.4643  2.3901 -0.4383
  349MOL0     H48109   7.153   2.953   9.554  1.4231  0.9851  2.0503
  349MOL0     H48110   7.204   3.032   9.398  2.5333  0.7742  1.2892
  349MOL0     H48111   7.349   3.021   9.684 -2.6130  0.3417  2.2504
  349MOL0     H48112   7.367   3.164   9.932 -3.0150 -0.9798 -2.4646
  349MOL0     H48113   7.374   3.336   9.898  0.1940  0.6774 -0.1625
  349MOL0     H48114   7.577   3.117   9.814 -1.2101 -0.1792 -1.8174
  349MOL0     H48115   7.598   3.277   9.760  3.9395 -0.5606  1.7879
  349MOL0     H48116   7.563   3.330  10.027 -0.5721  1.0514 -1.6284
  349MOL0     H48117   7.606   3.161  10.043 -1.4588  0.3500  0.4559
  349MOL0     H48118   7.766   3.388   9.907 -0.6089 -0.2386 -1.3249
  349MOL0     H48119   7.815   3.314  10.053  2.0946  1.8100 -0.4656
  349MOL0     H48120   8.005   3.406   9.947  0.8205  1.0428 -0.6429
  349MOL0     H48121   8.216   3.502   9.972 -0.4343  0.7461 -2.7768
  349MOL0     H48122   8.311   3.488   9.832 -0.7416  0.9826  0.5811
  349MOL0     H48123   8.357   3.394   9.983  0.6163  1.2499  0.3342
  349MOL0     H48124   8.612   3.502   9.778  2.0727  1.3994 -2.8398
  349MOL0     H48125   8.874   3.512   9.825 -2.4099  1.0441  0.5795
  349MOL0     H48126   9.109   3.140   9.933  1.5073 -0.6275 -0.4755
  349MOL0     H48127   9.104   3.153   9.755 -1.3316  0.9081 -1.3513
  349MOL0     H48128   9.326   3.187   9.827  1.3748  0.2752  2.0604
  349MOL0     H48129   9.259   3.349   9.777  1.0189 -0.3811 -1.7802
  349MOL0     H48130   9.270   3.231  10.064 -1.9934  1.2411  0.8258
  349MOL0     H48131   9.224   3.400  10.008  1.0679  1.1035  1.6964
  349MOL0     H48132   9.435   3.433   9.920  3.8376  0.7819  0.3260
  349MOL0     H48133   9.506   3.283   9.983 -1.9164 -1.1164 -2.5412
  349MOL0     H48134   9.382   3.505  10.146 -0.8518 -0.9965 -4.6664
  349MOL0     H48135   9.426   3.347  10.227  0.0963 -0.4854 -0.4881
  349MOL0     H48136   9.572   3.576  10.093 -1.7192  1.0579  0.9796
  349MOL0     H48137   9.660   3.420  10.098 -1.4605 -0.3821 -0.7583
  349MOL0     H48138   9.652   3.413  10.329  2.2288 -0.0754 -0.7914
  349MOL0     H48139   9.551   3.558  10.350  1.6378 -0.5979  0.6461
  349MOL0     H48140   9.752   3.638  10.415  0.5629 -0.5927  0.4802
  349MOL0     H48141   9.727   3.703  10.254 -1.1577  0.0909 -0.6593
  349MOL0     H48142   8.885   3.083   9.855 -2.4280 -2.4017 -0.7203
  349MOL0     H48143   8.656   3.070   9.851 -0.6499  0.4348  6.0490
  349MOL0     H48144   8.188   2.991   9.750  0.4846 -0.5971  2.0380
  349MOL0     H48145   7.966   3.021   9.754  0.3292  1.3945 -3.2610
  349MOL0     H48146   6.179   3.002   9.274  1.5895 -0.3243 -1.1606
  349MOL0     H48147   5.933   2.980   9.300  0.9246 -1.8040 -0.5204
  349MOL0     H48148   5.539   3.249   9.076  3.2772 -2.8652  0.0055
  349MOL0     H48149   5.325   3.219   8.968  1.3396  1.8185  1.0184
  349MOL0     H48150   5.095   3.153   9.128  0.5491 -2.0910  0.1425
  349MOL0     H48151   5.093   3.192   8.951  1.9403 -0.7568 -0.8307
  349MOL0     H48152   4.953   2.997   8.909  1.1723  2.4429 -1.3687
  349MOL0     H48153   4.862   3.120   9.007 -0.7304 -0.9618  1.8424
  349MOL0     H48154   5.005   2.879   9.142 -0.1743 -0.3169 -0.1898
  349MOL0     H48155   4.878   2.989   9.221  0.0321  3.1762 -1.9144
  349MOL0     H48156   4.816   2.802   8.997 -0.0499 -0.0380  0.2924
  349MOL0     H48157   4.700   2.897   9.081 -1.9171 -2.9176 -0.3749
  349MOL0     H48158   4.813   2.585   9.362  0.4663  1.0089  1.0409
  349MOL0     H48159   5.282   2.840   9.180  0.9655 -0.1821  1.5842
  349MOL0     H48160   5.438   2.873   9.421  1.3518  0.2002  0.3855
  349MOL0     H48161   5.472   2.756   9.286  1.6481 -0.5273  1.1254
  349MOL0     H48162   5.601   2.850   9.333  0.7710 -1.4862 -2.5578
  350MOL0     O48163   9.311   0.203  11.073  0.0678 -0.6596 -0.3099
  350MOL0     C48164   9.332   0.245  11.192 -0.6449 -0.3711  0.5231
  350MOL0     O48165   9.452   0.276  11.243  0.2526  0.2888 -0.0885
  350MOL0     C48166   9.570   0.254  11.176 -0.9090 -0.3428  0.4715
  350MOL0     C48167   9.613   0.362  11.103  1.0868  0.0139  0.7345
  350MOL0     C48168   9.741   0.361  11.041  0.0140  0.1797 -0.3459
  350MOL0     C48169   9.824   0.246  11.058 -0.5902  0.1545  0.2119
  350MOL0     O48170   9.944   0.243  10.989  0.0374  0.0790 -0.0819
  350MOL0     C48171  10.036   0.133  11.004  0.4479  0.0502 -0.2959
  350MOL0     C48172  10.116   0.132  11.136 -0.4480  0.9650  0.2403
  350MOL0     C48173  10.224   0.025  11.128  0.2665 -0.0856 -0.5052
  350MOL0     C48174  10.333   0.045  11.233 -0.3428  1.2949  0.0673
  350MOL0     C48175  10.464  -0.029  11.190  0.4751 -0.2174  0.2847
  350MOL0     C48176  10.578   0.007  11.289 -0.1162 -1.0318  0.4342
  350MOL0     C48177  10.710  -0.066  11.252 -1.0442 -1.5657  0.2531
  350MOL0     C48178  10.789   0.010  11.149  0.2251 -0.6238  0.1977
  350MOL0     N48179  10.837   0.140  11.204  0.6203 -0.4101  0.0916
  350MOL0     C48180  10.949   0.158  11.284 -0.3426 -1.0563 -1.0441
  350MOL0     C48181  10.964   0.293  11.301  0.5067  0.4519 -0.1897
  350MOL0     C48182  11.070   0.369  11.371  0.2162 -0.2078  0.7166
  350MOL0     C48183  11.061   0.352  11.519 -0.2669  0.5500 -0.3116
  350MOL0     C48184  11.109   0.214  11.578  0.2407 -0.9998  0.1523
  350MOL0     C48185  11.143   0.229  11.727 -0.2169 -0.2304  0.5325
  350MOL0     O48186  11.276   0.277  11.724  0.1484  0.0401 -0.1564
  350MOL0     C48187  11.359   0.271  11.834  0.0853 -0.1221  0.1605
  350MOL0     C48188  11.333   0.234  11.959  0.1343  0.3176  0.1813
  350MOL0     C48189  11.432   0.230  12.053 -0.1304  0.4765 -0.5946
  350MOL0     C48190  11.382   0.181  12.188 -1.2073 -0.7726  0.2323
  350MOL0     C48191  11.565   0.260  12.030  0.3298 -0.9086  0.8767
  350MOL0     C48192  11.685   0.251  12.114  0.4938 -0.0910 -0.4104
  350MOL0     O48193  11.805   0.238  12.056  0.3419 -0.0438 -0.0917
  350MOL0     C48194  11.931   0.236  12.122  0.3148 -0.3854  0.2451
  350MOL0     C48195  12.025   0.140  12.083 -0.3676 -0.0301 -0.2897
  350MOL0     C48196  12.153   0.141  12.127 -0.6286  1.5235 -0.0400
  350MOL0     C48197  12.192   0.238  12.221  0.8136  0.9591  0.0974
  350MOL0     O48198  12.316   0.255  12.273  0.1393 -0.3332 -0.6026
  350MOL0     C48199  12.423   0.165  12.226  0.6396 -0.4452  0.0043
  350MOL0     C48200  12.561   0.236  12.220  0.4942  0.0741 -0.5202
  350MOL0     C48201  12.553   0.364  12.131 -0.1752  0.0699  0.5635
  350MOL0     C48202  12.683   0.437  12.112 -0.3450  0.3660 -0.1464
  350MOL0     C48203  12.680   0.571  12.051 -0.0032 -0.0247 -0.2916
  350MOL0     C48204  12.823   0.624  12.041  0.3826 -0.0753  0.3302
  350MOL0     C48205  12.831   0.761  11.962  0.9092 -0.3393  0.4375
  350MOL0     C48206  12.978   0.783  11.924 -0.0931 -0.7225 -0.1950
  350MOL0    Cl48207  13.016   0.940  11.862 -0.1034 -0.3078 -0.4961
  350MOL0     C48208  12.101   0.328  12.267  0.7035  0.2654 -0.3604
  350MOL0     C48209  11.964   0.333  12.221  0.0356  0.9323 -0.1365
  350MOL0     O48210  11.668   0.244  12.233 -0.5881 -0.4176 -0.8881
  350MOL0     C48211  11.591   0.302  11.891 -0.0534 -0.5411 -0.3532
  350MOL0     C48212  11.488   0.317  11.801  0.7045 -0.4683 -0.6974
  350MOL0     N48213  10.860   0.352  11.228 -0.1660  0.0988 -0.2471
  350MOL0     N48214  10.782   0.265  11.182 -0.5924  0.6225 -0.6534
  350MOL0     C48215   9.776   0.143  11.135 -0.2114  0.4946 -0.2238
  350MOL0     C48216   9.657   0.155  11.205  0.2005 -0.5923 -0.0926
  350MOL0     C48217   9.229   0.229  11.292 -0.5047 -0.1427 -0.2182
  350MOL0     C48218   9.266   0.165  11.407  0.1708  0.2282 -0.0824
  350MOL0     C48219   9.169   0.110  11.490  0.1933 -0.3578 -0.5474
  350MOL0     C48220   9.034   0.136  11.472  0.2581  0.5321 -0.6626
  350MOL0     O48221   8.941   0.083  11.555 -0.6987 -0.5197 -0.1979
  350MOL0     C48222   8.936  -0.058  11.580 -0.4154 -0.5679  0.3980
  350MOL0     C48223   8.877  -0.082  11.713  0.2592  0.5697 -0.7705
  350MOL0     C48224   8.961  -0.018  11.827 -0.3114 -1.2110 -0.0096
  350MOL0     C48225   8.912  -0.033  11.968 -0.0837  0.1804  0.2098
  350MOL0     C48226   8.934  -0.171  12.005  0.0844  0.6797 -0.2703
  350MOL0     C48227   8.951  -0.288  12.035  0.3770 -0.3756  0.8581
  350MOL0     C48228   8.995   0.213  11.358  0.2230  0.4997  0.3186
  350MOL0     C48229   9.092   0.258  11.266 -0.2289 -0.0862  0.1362
  350MOL0     C48230   9.043   0.332  11.139  1.1515 -0.0816 -0.2631
  350MOL0     H48231   9.557   0.453  11.083 -1.5177 -0.9473  2.9738
  350MOL0     H48232   9.761   0.443  10.973 -2.6586 -0.4737 -2.0775
  350MOL0     H48233  10.110   0.165  10.931  1.0687  0.6607  0.5777
  350MOL0     H48234   9.994   0.034  10.984  0.7965 -0.0516 -0.5342
  350MOL0     H48235  10.165   0.229  11.136 -0.2038  0.8435  0.1560
  350MOL0     H48236  10.053   0.112  11.223 -2.0323  2.6442 -0.4485
  350MOL0     H48237  10.175  -0.069  11.155 -1.2818  1.0589  0.9167
  350MOL0     H48238  10.273   0.019  11.031  0.4965 -1.8687 -0.3102
  350MOL0     H48239  10.370   0.147  11.244 -0.7352  1.1358  4.3823
  350MOL0     H48240  10.293   0.012  11.329  1.3893 -0.1379  0.3456
  350MOL0     H48241  10.494  -0.008  11.087 -1.1507  2.2547  0.2339
  350MOL0     H48242  10.431  -0.133  11.186  1.6852 -0.6109 -0.1289
  350MOL0     H48243  10.586   0.116  11.287 -1.0385 -0.9427 -1.6051
  350MOL0     H48244  10.547  -0.023  11.389 -1.6596 -0.4841  0.1467
  350MOL0     H48245  10.687  -0.169  11.221  1.8955 -1.8385 -1.3828
  350MOL0     H48246  10.761  -0.083  11.348 -3.2293 -0.0631  1.7945
  350MOL0     H48247  10.874  -0.047  11.111  2.0121  0.7613  1.9024
  350MOL0     H48248  10.736   0.043  11.059  1.4802 -0.6491 -0.5740
  350MOL0     H48249  11.015   0.077  11.314  0.9352 -0.2430 -1.6079
  350MOL0     H48250  11.054   0.475  11.347 -4.8624 -0.9267 -0.2752
  350MOL0     H48251  11.168   0.333  11.341  1.0035  1.5238  1.0994
  350MOL0     H48252  11.133   0.424  11.559  3.7375 -1.1177 -3.7916
  350MOL0     H48253  10.961   0.382  11.554 -0.5230 -0.7653  0.1307
  350MOL0     H48254  11.026   0.143  11.578 -1.0102  0.3747 -1.6740
  350MOL0     H48255  11.193   0.168  11.525  0.2313  1.1217 -1.8347
  350MOL0     H48256  11.061   0.287  11.770 -1.8337 -0.6758 -1.7157
  350MOL0     H48257  11.139   0.130  11.775 -0.4014  0.3627  1.7679
  350MOL0     H48258  11.229   0.210  11.982 -0.0771 -0.1101 -1.1371
  350MOL0     H48259  11.286   0.129  12.182 -3.5704  3.2740 -0.1877
  350MOL0     H48260  11.366   0.257  12.265 -0.5598  3.3036 -3.3378
  350MOL0     H48261  11.446   0.105  12.234  0.3862  2.2195  3.4177
  350MOL0     H48262  12.002   0.067  12.005 -0.7123  0.3404 -0.5359
  350MOL0     H48263  12.220   0.062  12.095  1.4535  3.4377 -0.7141
  350MOL0     H48264  12.435   0.079  12.292  3.6142  0.7019  1.1010
  350MOL0     H48265  12.412   0.120  12.127  2.4851 -2.4517  0.6477
  350MOL0     H48266  12.595   0.264  12.320 -0.5055  1.4365 -0.5214
  350MOL0     H48267  12.630   0.160  12.181  0.4330  0.0847 -0.6529
  350MOL0     H48268  12.489   0.435  12.183  0.7470  0.2662  1.4757
  350MOL0     H48269  12.503   0.342  12.036  0.7374 -2.9773  0.6914
  350MOL0     H48270  12.742   0.370  12.049 -0.7444  0.5642 -0.7399
  350MOL0     H48271  12.733   0.458  12.207  0.5168 -2.0813 -0.0019
  350MOL0     H48272  12.653   0.555  11.946 -2.4124  1.1456  0.0968
  350MOL0     H48273  12.627   0.646  12.109 -1.6893 -2.0359  0.9234
  350MOL0     H48274  12.884   0.545  11.996 -0.7354 -0.5525 -0.3695
  350MOL0     H48275  12.863   0.641  12.142 -0.5377 -2.0013  1.0711
  350MOL0     H48276  12.784   0.842  12.018 -0.8832 -0.8163 -0.2945
  350MOL0     H48277  12.773   0.753  11.869 -3.1612  0.0649  2.7099
  350MOL0     H48278  13.017   0.699  11.866 -0.6215  0.5310 -2.4591
  350MOL0     H48279  13.041   0.778  12.014 -0.5709 -0.5468  0.1559
  350MOL0     H48280  12.127   0.407  12.336 -0.6514  2.0935 -1.8140
  350MOL0     H48281  11.898   0.412  12.254 -0.7793  1.9325 -3.7137
  350MOL0     H48282  11.692   0.313  11.854  0.9142  1.0440  2.4509
  350MOL0     H48283  11.501   0.357  11.700 -1.4699  1.2740 -0.3677
  350MOL0     H48284   9.833   0.052  11.155 -1.8561 -0.6073 -0.3256
  350MOL0     H48285   9.644   0.076  11.278 -3.1823 -0.9563 -0.9307
  350MOL0     H48286   9.371   0.140  11.421  0.0176 -0.4178 -0.0731
  350MOL0     H48287   9.201   0.055  11.577  3.5845  0.9636 -0.7745
  350MOL0     H48288   8.870  -0.109  11.509  0.7620 -0.6755 -0.6524
  350MOL0     H48289   9.036  -0.102  11.587 -0.1406 -0.0071  0.0598
  350MOL0     H48290   8.890  -0.191  11.724  3.2658  0.9217  0.0569
  350MOL0     H48291   8.773  -0.054  11.726 -1.1188 -4.1825  0.6953
  350MOL0     H48292   9.065  -0.050  11.823  0.0360 -0.0314 -1.2628
  350MOL0     H48293   8.947   0.089  11.808 -0.0249 -0.5642  2.9705
  350MOL0     H48294   8.807  -0.001  11.975 -0.8215 -1.8033 -0.8223
  350MOL0     H48295   8.971   0.030  12.035  0.3768 -2.3853  2.3920
  350MOL0     H48296   8.959  -0.390  12.067 -1.3066 -0.5144  0.9080
  350MOL0     H48297   8.897   0.253  11.334  1.2613  1.8951 -1.8796
  350MOL0     H48298   9.115   0.328  11.057  1.2060  1.1178 -0.2934
  350MOL0     H48299   8.944   0.306  11.101  1.3772 -1.5785  0.1003
  350MOL0     H48300   9.034   0.434  11.177 -2.0896  1.2806 -4.0037
  351MOL0     O48301   7.662   3.272   2.785 -0.0281 -0.4613  0.5053
  351MOL0     C48302   7.658   3.150   2.772  0.3702 -1.1920 -0.5720
  351MOL0     O48303   7.764   3.071   2.804 -0.8123  0.4363  0.2209
  351MOL0     C48304   7.898   3.107   2.796 -0.2823 -1.1407 -0.1104
  351MOL0     C48305   7.993   3.026   2.730 -0.1686 -0.8586  0.0125
  351MOL0     C48306   8.127   3.066   2.727  0.0571  0.2525  0.2821
  351MOL0     C48307   8.173   3.178   2.793  0.5671  0.2819  0.0926
  351MOL0     O48308   8.300   3.202   2.800 -0.3177 -0.1239 -0.0116
  351MOL0     C48309   8.399   3.179   2.697 -0.7039  0.5789  0.1729
  351MOL0     C48310   8.535   3.183   2.773  0.7327 -0.1533  0.7358
  351MOL0     C48311   8.615   3.315   2.750 -0.3392  0.3184  0.2327
  351MOL0     C48312   8.749   3.294   2.817  0.8062  0.1858  0.6146
  351MOL0     C48313   8.854   3.222   2.735 -0.3438 -0.0848  0.0797
  351MOL0     C48314   8.982   3.191   2.813  0.3966  0.6104 -0.0514
  351MOL0     C48315   9.073   3.091   2.729  0.5613 -0.9568 -0.1385
  351MOL0     C48316   9.206   3.067   2.811  0.3185  0.4137  0.2073
  351MOL0     N48317   9.299   2.987   2.736 -0.2263 -0.6278 -0.5437
  351MOL0     C48318   9.416   3.033   2.687  0.2390  0.2974 -0.3377
  351MOL0     C48319   9.487   2.923   2.647 -0.2045 -0.3857  0.4249
  351MOL0     C48320   9.627   2.936   2.580 -0.1081 -0.3445  0.0155
  351MOL0     C48321   9.716   2.930   2.702  0.7564 -0.3486 -0.2170
  351MOL0     C48322   9.855   2.860   2.674 -0.2922 -1.5257  0.3628
  351MOL0     C48323   9.937   2.920   2.561 -1.1683 -0.2894  0.4040
  351MOL0     O48324   9.968   3.056   2.590  0.0228  0.2064 -0.1207
  351MOL0     C48325  10.084   3.051   2.655  0.1792 -0.0504  0.3504
  351MOL0     C48326  10.206   3.019   2.603  0.3140 -0.8031  0.3502
  351MOL0     C48327  10.325   3.013   2.680  0.7286 -0.5366 -0.3913
  351MOL0     C48328  10.444   2.954   2.618 -0.1609 -0.5115 -0.2252
  351MOL0     C48329  10.310   3.044   2.819 -0.7399  0.7920  0.1607
  351MOL0     C48330  10.416   3.037   2.931 -0.2917  0.3631 -0.5007
  351MOL0     O48331  10.544   3.037   2.897 -0.7043  0.0109  0.6896
  351MOL0     C48332  10.642   3.025   2.989  0.0254  0.0393 -0.4179
  351MOL0     C48333  10.703   2.901   3.006  0.9907  0.0115  0.4072
  351MOL0     C48334  10.808   2.889   3.097 -0.4782 -0.0452 -0.6112
  351MOL0     C48335  10.847   3.004   3.178  0.1521  0.5251  0.5112
  351MOL0     O48336  10.948   3.003   3.264 -0.3470  0.6778 -0.1698
  351MOL0     C48337  11.048   2.893   3.258  0.4970  0.0826  0.5203
  351MOL0     C48338  11.163   2.935   3.348  1.0967 -0.3166  0.3626
  351MOL0     C48339  11.279   2.844   3.322  0.2016  0.4775 -0.1560
  351MOL0     C48340  11.403   2.896   3.394  0.3806  0.0492  0.0071
  351MOL0     C48341  11.507   2.790   3.389 -0.3892 -0.2091 -0.9137
  351MOL0     C48342  11.634   2.845   3.445  0.5160  0.7744  0.1730
  351MOL0     C48343  11.752   2.741   3.455 -0.2076 -0.3866  0.7287
  351MOL0     C48344  11.882   2.809   3.487  0.0387 -0.4704 -0.0878
  351MOL0    Cl48345  11.939   2.916   3.363  0.0583  0.4331  0.1759
  351MOL0     C48346  10.786   3.128   3.150 -0.6297 -0.4312 -0.1786
  351MOL0     C48347  10.682   3.141   3.051 -0.2173 -0.4738 -0.5767
  351MOL0     O48348  10.372   3.023   3.050 -0.1375 -0.8700  1.0762
  351MOL0     C48349  10.187   3.093   2.867  0.7190 -0.0156  0.2790
  351MOL0     C48350  10.076   3.103   2.785 -0.3499 -0.1363  0.0380
  351MOL0     N48351   9.415   2.811   2.674 -0.2444  0.1334  0.5099
  351MOL0     N48352   9.306   2.850   2.734 -0.2974  0.3460  0.1082
  351MOL0     C48353   8.078   3.267   2.853  0.2956  0.5585  0.4525
  351MOL0     C48354   7.944   3.222   2.856 -0.3635 -0.3957  0.4153
  351MOL0     C48355   7.526   3.087   2.765  0.5590  0.2325  0.3180
  351MOL0     C48356   7.506   2.968   2.837  0.4164 -0.2221  0.4167
  351MOL0     C48357   7.386   2.902   2.828 -0.1330  0.1394 -0.4068
  351MOL0     C48358   7.287   2.945   2.743  0.1909 -0.3799  0.0005
  351MOL0     O48359   7.176   2.868   2.749 -0.3581  0.0468 -0.1527
  351MOL0     C48360   7.059   2.908   2.684 -0.6863  0.2947  0.8273
  351MOL0     C48361   6.936   2.839   2.755  0.4072  0.1961 -0.0713
  351MOL0     C48362   6.906   2.870   2.899 -0.0260 -0.0419 -1.1002
  351MOL0     C48363   6.805   2.777   2.962  0.1274  0.0287 -0.2242
  351MOL0     C48364   6.744   2.852   3.072 -0.3207  0.0830 -0.1168
  351MOL0     C48365   6.697   2.914   3.161 -0.3235  0.1681 -0.9593
  351MOL0     C48366   7.303   3.066   2.673  0.1191  0.1780 -0.2993
  351MOL0     C48367   7.424   3.141   2.683  0.4072 -0.4004 -0.5784
  351MOL0     C48368   7.427   3.281   2.617  1.1078 -0.0826 -0.8354
  351MOL0     H48369   7.952   2.936   2.685  0.8609 -2.1850  1.5936
  351MOL0     H48370   8.186   3.002   2.662  1.2595 -1.0709  2.5631
  351MOL0     H48371   8.397   3.249   2.613  0.4799  0.5351  0.0868
  351MOL0     H48372   8.395   3.083   2.644 -2.0052 -0.2598  1.7175
  351MOL0     H48373   8.536   3.170   2.882  2.7186  0.9181  0.9128
  351MOL0     H48374   8.589   3.094   2.740 -0.4821 -1.3277  1.8105
  351MOL0     H48375   8.641   3.340   2.647 -0.2900 -2.1645 -0.4294
  351MOL0     H48376   8.572   3.400   2.803 -1.3107 -0.1689  0.2527
  351MOL0     H48377   8.792   3.389   2.850  0.6163  1.0363 -1.4332
  351MOL0     H48378   8.730   3.237   2.908 -1.9559 -2.4998 -1.4502
  351MOL0     H48379   8.884   3.296   2.660 -2.4263  1.2539  0.4891
  351MOL0     H48380   8.801   3.143   2.683  0.5380 -0.3958 -0.3744
  351MOL0     H48381   9.036   3.283   2.840  2.2161 -1.2174  3.1586
  351MOL0     H48382   8.954   3.152   2.912  0.4327  3.8670  1.3705
  351MOL0     H48383   9.084   3.129   2.627 -1.1298  0.5121  0.1689
  351MOL0     H48384   9.020   2.997   2.711  0.9325 -1.3277  0.6765
  351MOL0     H48385   9.258   3.157   2.843 -1.5218  2.0543 -1.1694
  351MOL0     H48386   9.179   3.023   2.907  0.6761  0.2144  0.2187
  351MOL0     H48387   9.459   3.129   2.663  1.2798 -0.2090 -0.5770
  351MOL0     H48388   9.647   3.035   2.536 -0.0991 -0.4563 -0.2334
  351MOL0     H48389   9.646   2.860   2.503  0.1164 -0.0104 -0.2631
  351MOL0     H48390   9.736   3.029   2.744  2.6335 -0.6585 -0.2767
  351MOL0     H48391   9.662   2.870   2.775 -1.6723  0.7561 -0.9749
  351MOL0     H48392   9.905   2.844   2.770 -1.9526  2.6950  2.1537
  351MOL0     H48393   9.833   2.764   2.626 -0.4571 -1.5634  0.5128
  351MOL0     H48394  10.017   2.853   2.528 -0.3356 -1.0117  3.4976
  351MOL0     H48395   9.885   2.928   2.465  1.0942  1.3717 -0.7807
  351MOL0     H48396  10.218   2.991   2.498 -2.0676  0.0109 -0.2115
  351MOL0     H48397  10.414   2.879   2.543 -0.0082 -2.8199  1.8781
  351MOL0     H48398  10.502   2.897   2.690  0.5589  1.9925  1.2841
  351MOL0     H48399  10.500   3.040   2.581  2.2676 -1.7876  0.2907
  351MOL0     H48400  10.686   2.806   2.956 -1.4042 -0.4869  2.0086
  351MOL0     H48401  10.845   2.787   3.109 -0.8355  0.1740  3.9628
  351MOL0     H48402  11.009   2.795   3.284  0.5204  0.3566  1.6408
  351MOL0     H48403  11.094   2.891   3.159 -1.2506 -0.7458 -0.3003
  351MOL0     H48404  11.183   3.041   3.330 -2.3461  0.1476 -1.5193
  351MOL0     H48405  11.129   2.926   3.452  1.0237 -0.7505  0.3018
  351MOL0     H48406  11.300   2.839   3.215 -1.6092  0.8261 -0.5617
  351MOL0     H48407  11.259   2.744   3.363 -0.7538  0.5764 -0.3480
  351MOL0     H48408  11.373   2.937   3.491 -3.4264  1.2541 -1.4811
  351MOL0     H48409  11.439   2.982   3.336 -1.3340  1.9400  1.5820
  351MOL0     H48410  11.477   2.701   3.445 -1.4751  1.1447  0.7475
  351MOL0     H48411  11.527   2.760   3.285  2.6800 -0.5001 -0.3274
  351MOL0     H48412  11.631   2.890   3.545  4.8562  0.9687  0.4219
  351MOL0     H48413  11.666   2.931   3.385  4.3539 -0.8943 -0.4405
  351MOL0     H48414  11.752   2.690   3.358 -1.8711  0.3149  0.3156
  351MOL0     H48415  11.728   2.666   3.530 -0.0670  1.1157  2.3476
  351MOL0     H48416  11.957   2.733   3.508 -0.1712 -0.2984  1.4355
  351MOL0     H48417  11.875   2.860   3.584 -1.1201 -0.6334 -0.0654
  351MOL0     H48418  10.814   3.215   3.208  3.9433 -1.6582 -0.2016
  351MOL0     H48419  10.642   3.239   3.027  3.4373  1.4851  0.4808
  351MOL0     H48420  10.179   3.114   2.973  0.6549 -0.5261  0.3782
  351MOL0     H48421   9.989   3.140   2.838  1.4514  3.8138  0.6242
  351MOL0     H48422   8.119   3.362   2.888 -0.8897  1.5648 -0.7653
  351MOL0     H48423   7.882   3.283   2.921  3.8413  1.7674  2.8547
  351MOL0     H48424   7.578   2.913   2.897  0.1597  1.6003  2.5452
  351MOL0     H48425   7.376   2.812   2.887  2.2862 -0.3003 -0.5821
  351MOL0     H48426   7.047   3.016   2.690 -0.9647  0.2420  1.3035
  351MOL0     H48427   7.070   2.880   2.579  2.9618  1.1620  0.8404
  351MOL0     H48428   6.947   2.731   2.743  1.0035  0.1112  1.1199
  351MOL0     H48429   6.851   2.881   2.700  0.7654  2.6523  1.1076
  351MOL0     H48430   7.000   2.860   2.955 -1.4894  0.2566  1.5661
  351MOL0     H48431   6.884   2.976   2.911  0.5932  0.2797 -2.5942
  351MOL0     H48432   6.857   2.689   3.000 -0.6903  0.4944  2.1645
  351MOL0     H48433   6.733   2.745   2.885 -0.3956  1.6524 -0.4456
  351MOL0     H48434   6.651   2.970   3.240  1.0309 -1.0532  0.7995
  351MOL0     H48435   7.225   3.106   2.609 -0.3410  1.0990  0.8064
  351MOL0     H48436   7.327   3.314   2.586  0.3973 -0.9811  0.3739
  351MOL0     H48437   7.466   3.359   2.683 -1.4029  0.8612 -0.3609
  351MOL0     H48438   7.488   3.288   2.527 -1.8025  3.2294 -2.8027
  352MOL0     O48439   8.891   3.078   2.079 -0.7677  0.4875  0.0956
  352MOL0     C48440   8.783   3.016   2.065 -0.0563 -0.3857 -0.7263
  352MOL0     O48441   8.761   2.914   1.980 -0.2511 -0.1589  0.1788
  352MOL0     C48442   8.873   2.861   1.921  0.9738 -0.5638  0.2016
  352MOL0     C48443   8.921   2.739   1.964  0.4734  0.4560  1.2294
  352MOL0     C48444   9.038   2.694   1.901 -0.2293  0.6748 -0.7135
  352MOL0     C48445   9.098   2.770   1.804 -0.7561  1.5324 -0.1988
  352MOL0     O48446   9.221   2.727   1.751  0.7754  0.2737  1.0266
  352MOL0     C48447   9.326   2.703   1.843 -0.1469  0.5042 -0.3528
  352MOL0     C48448   9.451   2.746   1.766 -0.2076 -0.5196 -0.2711
  352MOL0     C48449   9.579   2.739   1.846  0.7205  0.1016  0.2139
  352MOL0     C48450   9.621   2.586   1.863 -0.1994 -0.2856  0.7319
  352MOL0     C48451   9.730   2.594   1.972 -0.3400  0.4060  0.5418
  352MOL0     C48452   9.869   2.638   1.926  0.9346  0.1822 -0.2773
  352MOL0     C48453   9.980   2.626   2.031 -0.0119  0.9712 -0.0213
  352MOL0     C48454  10.111   2.663   1.967 -0.2088  0.0100  0.0152
  352MOL0     N48455  10.217   2.682   2.070  0.5351  0.8999  0.1024
  352MOL0     C48456  10.270   2.580   2.145  0.4849 -0.4735 -0.2231
  352MOL0     C48457  10.340   2.645   2.239  0.0950 -0.3799 -0.4955
  352MOL0     C48458  10.414   2.578   2.354 -0.0729 -1.0253 -1.2983
  352MOL0     C48459  10.552   2.624   2.366  0.4506  0.6849 -0.2424
  352MOL0     C48460  10.620   2.560   2.487  0.2072 -0.4815 -0.5152
  352MOL0     C48461  10.741   2.640   2.522 -0.4695 -0.8665 -0.0364
  352MOL0     O48462  10.795   2.575   2.633  0.0341  0.4947  0.5174
  352MOL0     C48463  10.903   2.620   2.694 -0.1882  0.2746  0.8403
  352MOL0     C48464  10.938   2.538   2.804 -0.7437 -0.0526  0.3366
  352MOL0     C48465  11.053   2.573   2.876  0.4086 -0.0483 -0.0183
  352MOL0     C48466  11.075   2.488   3.000 -0.2366  0.6572  1.2257
  352MOL0     C48467  11.141   2.674   2.838  0.5435 -0.7962  0.1147
  352MOL0     C48468  11.275   2.702   2.903 -0.7337  0.1419  0.1601
  352MOL0     O48469  11.349   2.800   2.837  0.0692  0.2031 -0.9266
  352MOL0     C48470  11.454   2.871   2.889  0.6197 -0.2827  1.3057
  352MOL0     C48471  11.495   2.975   2.802 -0.4141 -0.0985 -0.1597
  352MOL0     C48472  11.600   3.057   2.841 -0.2265 -0.3097 -0.9399
  352MOL0     C48473  11.665   3.048   2.967  0.5123  0.1908  0.1658
  352MOL0     O48474  11.769   3.125   3.020  0.0662  0.1376  1.0718
  352MOL0     C48475  11.812   3.244   2.947  0.4530 -0.7157 -0.1175
  352MOL0     C48476  11.932   3.314   3.009  0.0627 -0.1520  0.4974
  352MOL0     C48477  11.972   3.429   2.916 -0.7669 -0.1110 -0.5905
  352MOL0     C48478  12.085   3.521   2.969  0.5040  0.8308 -0.2342
  352MOL0     C48479  12.138   3.606   2.858 -0.3238 -0.0503  0.0000
  352MOL0     C48480  12.248   3.703   2.914  0.8443 -0.0155 -0.0741
  352MOL0     C48481  12.294   3.804   2.812 -0.2886  0.4946  0.3220
  352MOL0     C48482  12.394   3.743   2.729  0.1596 -0.5314  0.8639
  352MOL0    Cl48483  12.566   3.760   2.777 -0.3137  0.3319  0.2964
  352MOL0     C48484  11.622   2.941   3.051  0.6548 -0.2582 -0.6144
  352MOL0     C48485  11.524   2.845   3.007 -0.3195  0.0285 -0.5275
  352MOL0     O48486  11.310   2.649   3.008  0.1001 -0.6738  0.0396
  352MOL0     C48487  11.099   2.752   2.733  0.7506 -0.3050  0.5820
  352MOL0     C48488  10.993   2.714   2.648 -0.3087 -0.0345 -0.2282
  352MOL0     N48489  10.332   2.782   2.223 -0.4973  0.7839  0.6686
  352MOL0     N48490  10.256   2.804   2.122 -0.4603  0.9373  0.5824
  352MOL0     C48491   9.043   2.880   1.759  0.5617  0.1893  0.0705
  352MOL0     C48492   8.924   2.928   1.808 -0.4888  0.4157 -0.0940
  352MOL0     C48493   8.658   3.064   2.141 -0.2837  0.7675  0.0571
  352MOL0     C48494   8.531   3.009   2.097 -0.1510  0.1942  0.5046
  352MOL0     C48495   8.416   3.047   2.165  0.1864  0.4014  0.1330
  352MOL0     C48496   8.416   3.125   2.275 -0.6071 -0.0966  0.6863
  352MOL0     O48497   8.297   3.169   2.341  0.4123  0.9175 -0.9226
  352MOL0     C48498   8.216   3.259   2.262  1.0124  0.2356 -0.6394
  352MOL0     C48499   8.107   3.331   2.337  0.2662  0.1777 -0.2116
  352MOL0     C48500   8.012   3.232   2.418  0.0540 -0.2705 -0.1601
  352MOL0     C48501   7.893   3.309   2.477  1.1078 -0.0201  0.2651
  352MOL0     C48502   7.764   3.291   2.397 -0.0654  0.4112 -0.6304
  352MOL0     C48503   7.661   3.262   2.334 -0.2775 -0.2680  0.1105
  352MOL0     C48504   8.542   3.165   2.325  0.7502  0.3819  0.6056
  352MOL0     C48505   8.665   3.141   2.259  0.6963 -0.0886 -0.2638
  352MOL0     C48506   8.792   3.189   2.317 -0.7381 -0.6531 -0.1561
  352MOL0     H48507   8.871   2.687   2.044 -0.2890 -0.5073  0.1689
  352MOL0     H48508   9.090   2.604   1.932 -0.6012  0.3246 -1.1014
  352MOL0     H48509   9.329   2.599   1.877 -0.8508  0.6571  0.2055
  352MOL0     H48510   9.315   2.770   1.928 -0.3090  2.0685 -1.5619
  352MOL0     H48511   9.464   2.687   1.674  3.9834  0.2200 -0.3557
  352MOL0     H48512   9.430   2.849   1.737 -1.8835 -0.3249  1.4751
  352MOL0     H48513   9.654   2.791   1.785 -2.2315  1.1641 -2.8217
  352MOL0     H48514   9.567   2.790   1.942 -2.1923  0.3986 -0.2247
  352MOL0     H48515   9.535   2.533   1.903  1.1058 -2.3000  0.9836
  352MOL0     H48516   9.654   2.532   1.774  1.3179  2.1311 -0.2944
  352MOL0     H48517   9.736   2.491   2.009 -1.5876 -0.0083 -0.3279
  352MOL0     H48518   9.703   2.658   2.056  1.0037  1.5208  0.1591
  352MOL0     H48519   9.895   2.567   1.846 -0.6589 -0.0431 -0.6318
  352MOL0     H48520   9.869   2.736   1.878 -0.3038  0.1176 -0.4426
  352MOL0     H48521   9.993   2.523   2.064 -2.3391  0.6726  0.1135
  352MOL0     H48522   9.960   2.689   2.118  4.5187  0.5298  1.5847
  352MOL0     H48523  10.166   2.593   1.904 -1.1704 -1.6569  0.9513
  352MOL0     H48524  10.106   2.762   1.921  0.1913  1.3439  2.6615
  352MOL0     H48525  10.253   2.473   2.144 -0.8822 -0.3688  2.2683
  352MOL0     H48526  10.414   2.469   2.340  0.3101 -0.9485 -1.9672
  352MOL0     H48527  10.361   2.606   2.445 -0.7923  1.6931 -2.4541
  352MOL0     H48528  10.609   2.593   2.278 -0.3564 -2.1813  0.1509
  352MOL0     H48529  10.562   2.733   2.370  1.5050  0.6342 -0.9830
  352MOL0     H48530  10.558   2.563   2.577 -0.1584  0.9718 -0.7852
  352MOL0     H48531  10.654   2.459   2.462 -0.1850 -0.6706 -0.3071
  352MOL0     H48532  10.814   2.631   2.441 -0.2119 -1.4588  0.2542
  352MOL0     H48533  10.718   2.746   2.532  2.4743 -0.1986  0.6540
  352MOL0     H48534  10.877   2.450   2.819 -0.8205  0.0587  0.6878
  352MOL0     H48535  11.000   2.409   3.012 -0.7054  0.6016 -1.3790
  352MOL0     H48536  11.085   2.551   3.089 -4.4103  0.4153  2.0613
  352MOL0     H48537  11.168   2.435   2.978 -1.0190  1.2498 -5.8712
  352MOL0     H48538  11.448   3.011   2.712 -0.2176 -0.4203 -0.3946
  352MOL0     H48539  11.637   3.141   2.783 -0.0164  1.0313  1.0263
  352MOL0     H48540  11.838   3.233   2.841 -1.0316  2.0254 -0.8476
  352MOL0     H48541  11.727   3.313   2.949 -0.2601 -1.5789  0.9212
  352MOL0     H48542  11.915   3.350   3.111  3.8085  2.0740  0.5139
  352MOL0     H48543  12.016   3.244   3.000 -0.4245 -0.4855 -3.5765
  352MOL0     H48544  11.885   3.494   2.905  1.4787  3.7316  1.9220
  352MOL0     H48545  12.004   3.384   2.821 -1.9272 -2.9812  0.2769
  352MOL0     H48546  12.169   3.459   3.003 -0.0994  0.1250  0.0069
  352MOL0     H48547  12.056   3.583   3.055 -1.8335  1.7313 -1.6041
  352MOL0     H48548  12.176   3.544   2.777  1.3263  0.7249  0.1406
  352MOL0     H48549  12.062   3.674   2.819  2.0049  1.7648 -1.6632
  352MOL0     H48550  12.337   3.657   2.958  0.0872 -1.6316 -0.1705
  352MOL0     H48551  12.199   3.761   2.994 -1.6336 -1.9007 -0.1134
  352MOL0     H48552  12.350   3.889   2.854  2.0753 -0.2633 -1.1212
  352MOL0     H48553  12.205   3.834   2.756 -0.6009 -0.3846  0.3475
  352MOL0     H48554  12.376   3.782   2.629 -0.3091  1.6744  1.7570
  352MOL0     H48555  12.378   3.636   2.712 -2.5699  0.3178 -3.4433
  352MOL0     H48556  11.666   2.929   3.150  0.0767 -1.4450 -0.4777
  352MOL0     H48557  11.507   2.760   3.073  2.2597  0.0396  0.2582
  352MOL0     H48558  11.146   2.848   2.714 -2.0796  0.8831 -0.9963
  352MOL0     H48559  10.977   2.765   2.553 -2.7324  0.0313  0.1440
  352MOL0     H48560   9.085   2.943   1.681 -2.7587  0.1149 -1.9982
  352MOL0     H48561   8.896   3.026   1.771 -4.0847 -1.0302 -1.7383
  352MOL0     H48562   8.530   2.945   2.009  1.6867 -0.0675  0.6378
  352MOL0     H48563   8.316   3.012   2.141 -0.1303  0.3359  1.4815
  352MOL0     H48564   8.279   3.326   2.203  0.0059 -0.3389 -2.4411
  352MOL0     H48565   8.165   3.201   2.185 -1.3785  0.0175  1.0070
  352MOL0     H48566   8.057   3.401   2.270 -0.8359  0.3924  0.7953
  352MOL0     H48567   8.160   3.388   2.413  0.9233 -1.0976  0.3269
  352MOL0     H48568   7.988   3.155   2.345 -0.5413  1.4308 -1.8244
  352MOL0     H48569   8.071   3.188   2.499 -0.4834 -0.1609  0.2959
  352MOL0     H48570   7.912   3.415   2.493 -0.2626  0.5918 -1.7129
  352MOL0     H48571   7.869   3.264   2.573  0.2810  3.1920  1.6910
  352MOL0     H48572   7.576   3.222   2.282  0.0491  0.9380 -1.4228
  352MOL0     H48573   8.540   3.207   2.425 -0.4088  1.6773  0.0728
  352MOL0     H48574   8.862   3.113   2.351 -0.9457 -0.5218  0.5793
  352MOL0     H48575   8.830   3.267   2.251 -0.4585  0.2496  1.0469
  352MOL0     H48576   8.770   3.244   2.408 -1.4560  0.2483 -0.8493
  353MOL0     O48577   5.799   2.442   1.376  0.1308 -0.7213  0.2579
  353MOL0     C48578   5.786   2.547   1.437  0.7957  0.0025  0.3985
  353MOL0     O48579   5.663   2.613   1.451 -1.0319 -0.3275 -0.0847
  353MOL0     C48580   5.562   2.557   1.381  0.6473 -0.7279 -0.8638
  353MOL0     C48581   5.545   2.572   1.248 -0.3559 -0.1838  0.5783
  353MOL0     C48582   5.433   2.521   1.188  0.3385  1.0271 -1.2335
  353MOL0     C48583   5.327   2.464   1.266  0.6639 -0.3193  0.6092
  353MOL0     O48584   5.217   2.407   1.207  0.2162  0.0510  0.6330
  353MOL0     C48585   5.201   2.397   1.066 -0.0082 -0.5438  0.1859
  353MOL0     C48586   5.089   2.299   1.039 -0.3054  0.8103 -0.6092
  353MOL0     C48587   4.949   2.361   1.076  0.0677  0.5525 -0.1530
  353MOL0     C48588   4.840   2.311   0.986  1.4114  0.9044 -0.0423
  353MOL0     C48589   4.821   2.161   1.003  0.0783  0.5604 -0.6591
  353MOL0     C48590   4.790   2.112   1.141  0.6011  0.3092 -0.0729
  353MOL0     C48591   4.681   2.183   1.214 -0.8852  0.1426 -0.3188
  353MOL0     C48592   4.650   2.137   1.356  0.5136  0.0682  0.1527
  353MOL0     N48593   4.762   2.135   1.439 -0.3182  0.4363  0.3358
  353MOL0     C48594   4.842   2.245   1.467 -0.5434 -0.3192  0.3888
  353MOL0     C48595   4.936   2.202   1.553  0.0017  0.6068  0.5526
  353MOL0     C48596   5.045   2.289   1.602 -0.0336  0.1822 -0.5172
  353MOL0     C48597   5.010   2.357   1.732  0.0967  0.3457  0.5987
  353MOL0     C48598   5.123   2.427   1.781  0.9146  0.2903  0.4529
  353MOL0     C48599   5.086   2.516   1.906 -0.1371 -0.3645  0.0677
  353MOL0     O48600   5.201   2.594   1.950  0.5367  0.1116 -0.2672
  353MOL0     C48601   5.305   2.537   2.018  0.0101 -0.2230  0.0245
  353MOL0     C48602   5.405   2.613   2.072  0.2818 -0.4826 -0.7317
  353MOL0     C48603   5.506   2.572   2.141 -0.6299  1.1766 -0.6310
  353MOL0     C48604   5.596   2.686   2.200 -0.6601 -0.0417  0.0124
  353MOL0     C48605   5.515   2.430   2.170  0.6973 -0.2281  0.5124
  353MOL0     C48606   5.637   2.376   2.236  0.3836 -0.1878 -0.4070
  353MOL0     O48607   5.653   2.242   2.235 -0.1922  0.0122 -0.2683
  353MOL0     C48608   5.752   2.175   2.311 -0.1460 -0.8947 -1.0892
  353MOL0     C48609   5.793   2.209   2.445  0.0505  0.7135  0.3146
  353MOL0     C48610   5.905   2.146   2.505 -0.2425 -0.6516 -0.3043
  353MOL0     C48611   5.971   2.045   2.438 -0.3581 -0.0013 -0.1053
  353MOL0     O48612   6.089   1.975   2.477  1.0131 -0.1089 -0.1153
  353MOL0     C48613   6.187   2.058   2.532  0.1965 -0.1913 -0.3601
  353MOL0     C48614   6.287   1.974   2.595 -0.2693  0.2049  0.1575
  353MOL0     C48615   6.392   2.054   2.676 -0.4534 -0.2639 -0.0155
  353MOL0     C48616   6.502   2.090   2.584 -1.0659 -0.1602 -0.3894
  353MOL0     C48617   6.621   2.159   2.651 -0.3124  0.1842 -0.3861
  353MOL0     C48618   6.699   2.062   2.751 -0.5461 -0.0791  0.6229
  353MOL0     C48619   6.834   2.126   2.791  0.3224 -0.5116  0.5904
  353MOL0     C48620   6.830   2.258   2.866  0.2365 -0.0474 -0.6642
  353MOL0    Cl48621   6.794   2.408   2.776  0.0507 -0.0269 -0.1139
  353MOL0     C48622   5.928   2.010   2.305 -0.2949  0.1954 -0.0088
  353MOL0     C48623   5.820   2.072   2.250  0.2605  0.2849  0.5603
  353MOL0     O48624   5.711   2.458   2.290  0.3711  0.8165  0.4562
  353MOL0     C48625   5.411   2.345   2.127  0.1267  1.1406 -0.1591
  353MOL0     C48626   5.305   2.400   2.057  0.5359  0.2069 -0.4364
  353MOL0     N48627   4.911   2.067   1.583 -1.0720 -0.8034  0.1557
  353MOL0     N48628   4.812   2.032   1.509  0.0945  0.4485 -0.3436
  353MOL0     C48629   5.342   2.459   1.403 -0.0483  0.4147 -0.1969
  353MOL0     C48630   5.463   2.497   1.457  0.6159 -0.4680  0.0682
  353MOL0     C48631   5.914   2.600   1.494 -0.6062  0.0878  0.1167
  353MOL0     C48632   6.009   2.512   1.543 -0.5146  0.3123  0.4196
  353MOL0     C48633   6.129   2.557   1.609 -0.0065 -0.2150  0.6545
  353MOL0     C48634   6.149   2.692   1.637  0.2706 -0.2534  0.1970
  353MOL0     O48635   6.253   2.743   1.705  0.6611 -0.0223 -0.3845
  353MOL0     C48636   6.356   2.659   1.759 -0.1291 -0.0465 -0.1312
  353MOL0     C48637   6.319   2.616   1.907 -0.0554 -0.2127 -0.7785
  353MOL0     C48638   6.318   2.743   1.995  0.0488 -0.2722 -0.2821
  353MOL0     C48639   6.455   2.802   2.026  0.0040  0.7657  0.2431
  353MOL0     C48640   6.558   2.714   2.082  0.3679  0.6637  0.3257
  353MOL0     C48641   6.658   2.656   2.120  0.3554 -0.7952 -0.2034
  353MOL0     C48642   6.055   2.779   1.593  0.2359  0.1790  0.0587
  353MOL0     C48643   5.939   2.737   1.514 -0.3231 -0.4671 -0.0005
  353MOL0     C48644   5.843   2.844   1.472 -0.5104 -0.6285  0.6281
  353MOL0     H48645   5.613   2.627   1.183 -1.3185 -0.7059 -0.9302
  353MOL0     H48646   5.418   2.523   1.081 -1.6566 -1.2593 -1.0644
  353MOL0     H48647   5.290   2.349   1.023  0.6040  1.5077 -1.0106
  353MOL0     H48648   5.190   2.494   1.016 -2.7763 -2.2984 -2.9688
  353MOL0     H48649   5.090   2.277   0.932  3.1507  0.2706 -0.5577
  353MOL0     H48650   5.115   2.207   1.091  2.0355  2.1513  0.7431
  353MOL0     H48651   4.918   2.337   1.178 -1.1076 -1.0763 -0.8541
  353MOL0     H48652   4.952   2.469   1.057  0.6165  0.4201 -0.8775
  353MOL0     H48653   4.749   2.372   0.993 -0.6696 -1.3270 -3.9221
  353MOL0     H48654   4.868   2.324   0.881  1.7592  0.1475 -0.0526
  353MOL0     H48655   4.881   2.083   0.957 -3.2764 -2.4319 -0.4676
  353MOL0     H48656   4.732   2.147   0.941 -0.6956 -0.0091  0.5252
  353MOL0     H48657   4.765   2.006   1.135  0.7304  0.1822  1.2336
  353MOL0     H48658   4.883   2.109   1.199  1.3270 -1.5522 -1.2484
  353MOL0     H48659   4.596   2.156   1.152  0.0940  0.4151 -1.8216
  353MOL0     H48660   4.694   2.292   1.207 -3.2613  0.4639 -0.4779
  353MOL0     H48661   4.584   2.216   1.394  0.3097 -0.0601  0.0683
  353MOL0     H48662   4.596   2.044   1.373 -2.5873  1.8513  0.8574
  353MOL0     H48663   4.823   2.346   1.430 -3.9654 -0.6473  0.8609
  353MOL0     H48664   5.062   2.365   1.525  2.0514  2.6256  2.1715
  353MOL0     H48665   5.137   2.231   1.611 -0.5303 -0.6026 -0.3760
  353MOL0     H48666   4.927   2.425   1.709  1.0742  0.8113 -1.8138
  353MOL0     H48667   4.979   2.280   1.804 -2.0935 -0.4890 -1.1038
  353MOL0     H48668   5.199   2.354   1.809  0.2345  0.5046  3.1199
  353MOL0     H48669   5.162   2.495   1.704  0.4835  0.5895  0.4983
  353MOL0     H48670   4.999   2.580   1.888  0.8263  0.2118 -3.0876
  353MOL0     H48671   5.051   2.452   1.988 -1.3612 -1.2061 -1.0482
  353MOL0     H48672   5.394   2.719   2.053  0.0154 -0.0345  1.5600
  353MOL0     H48673   5.546   2.783   2.189  1.6254  0.9930 -2.8398
  353MOL0     H48674   5.683   2.695   2.134  1.9723  1.7937  3.3520
  353MOL0     H48675   5.629   2.668   2.303 -0.2891 -1.9113 -0.4056
  353MOL0     H48676   5.743   2.290   2.498 -1.3997  0.8658 -1.1888
  353MOL0     H48677   5.931   2.180   2.605  0.0443 -1.5623 -0.0553
  353MOL0     H48678   6.246   2.116   2.460  1.7024 -1.5165 -0.2515
  353MOL0     H48679   6.145   2.126   2.607  2.1914  0.7918 -0.0602
  353MOL0     H48680   6.236   1.911   2.668  1.1217  0.6111  1.5110
  353MOL0     H48681   6.327   1.908   2.517 -2.4302 -0.9721 -0.0345
  353MOL0     H48682   6.437   1.979   2.741 -1.2433  0.1299  1.0217
  353MOL0     H48683   6.352   2.138   2.735 -0.0155 -0.2433  0.2593
  353MOL0     H48684   6.459   2.161   2.513  1.5380  2.7548  0.6892
  353MOL0     H48685   6.539   2.008   2.523 -0.4666  2.1220 -3.3119
  353MOL0     H48686   6.682   2.204   2.572  2.5760  1.0235  2.1335
  353MOL0     H48687   6.587   2.247   2.707  2.0504  0.6354  0.4558
  353MOL0     H48688   6.701   1.964   2.702 -1.7918 -0.3667  1.0919
  353MOL0     H48689   6.643   2.045   2.844 -1.5068  1.2092  0.3060
  353MOL0     H48690   6.886   2.142   2.697  0.3853  1.6267  0.9347
  353MOL0     H48691   6.889   2.057   2.856  0.7419 -0.6001  0.1426
  353MOL0     H48692   6.934   2.264   2.902 -0.0636  1.1200  0.0618
  353MOL0     H48693   6.761   2.261   2.951  0.4242  0.9546 -0.5266
  353MOL0     H48694   5.971   1.927   2.250 -2.1040  0.0924 -1.3472
  353MOL0     H48695   5.799   2.042   2.147 -3.0706 -2.4497  1.8313
  353MOL0     H48696   5.401   2.240   2.153 -1.8465  1.5393  0.8700
  353MOL0     H48697   5.231   2.337   2.009 -0.4519  1.1956 -0.2554
  353MOL0     H48698   5.269   2.424   1.474  1.1179  1.1294  1.4011
  353MOL0     H48699   5.495   2.494   1.561  0.3907  3.6495  0.4164
  353MOL0     H48700   6.012   2.403   1.542 -0.6021  0.2745  1.8461
  353MOL0     H48701   6.204   2.491   1.651  1.6138  1.0775 -0.0924
  353MOL0     H48702   6.383   2.576   1.693 -1.3138  0.7810 -1.7290
  353MOL0     H48703   6.449   2.717   1.765 -1.1424  1.6750 -0.5024
  353MOL0     H48704   6.389   2.540   1.941 -3.4516 -2.6555  1.5020
  353MOL0     H48705   6.224   2.563   1.921  0.1441 -0.1608  0.9792
  353MOL0     H48706   6.259   2.819   1.943  3.2337  2.1743 -0.6764
  353MOL0     H48707   6.271   2.713   2.089 -0.1709  3.1506  0.8419
  353MOL0     H48708   6.438   2.890   2.089  1.2155  1.9639 -1.0322
  353MOL0     H48709   6.490   2.850   1.934  2.6896 -2.2707 -0.4825
  353MOL0     H48710   6.741   2.596   2.150  0.2459 -0.8870 -0.0760
  353MOL0     H48711   6.076   2.881   1.622 -1.1093  0.4860  0.0191
  353MOL0     H48712   5.746   2.838   1.522 -1.6278 -0.1219 -1.3781
  353MOL0     H48713   5.884   2.945   1.480  1.5823 -1.1085 -2.2160
  353MOL0     H48714   5.811   2.832   1.368 -1.5540 -1.6532  1.0553
  354MOL0     O48715   3.232   3.451  10.820 -0.2417  0.2593 -0.2611
  354MOL0     C48716   3.302   3.547  10.791  0.1250  0.7992  0.8541
  354MOL0     O48717   3.418   3.539  10.724  0.6731  0.1219  0.5150
  354MOL0     C48718   3.431   3.418  10.648 -0.2159 -0.3331 -1.3287
  354MOL0     C48719   3.491   3.296  10.693  0.4034  0.4953 -0.2286
  354MOL0     C48720   3.495   3.188  10.601 -0.0550 -0.1974 -0.1669
  354MOL0     C48721   3.458   3.206  10.467  0.6609  0.1790  0.6258
  354MOL0     O48722   3.466   3.095  10.384 -0.4112  0.1189  0.5898
  354MOL0     C48723   3.389   3.083  10.268 -0.1386  0.0456  0.4337
  354MOL0     C48724   3.381   2.947  10.210  0.5584 -0.4380 -0.6796
  354MOL0     C48725   3.307   2.843  10.290  0.1035 -0.0612 -1.2164
  354MOL0     C48726   3.290   2.702  10.223 -0.4536 -0.0673 -0.4838
  354MOL0     C48727   3.299   2.585  10.321  0.1714  0.1029  0.0726
  354MOL0     C48728   3.313   2.455  10.242 -0.3451 -0.0964 -0.3180
  354MOL0     C48729   3.363   2.323  10.306  0.3378 -0.7746  0.1881
  354MOL0     C48730   3.361   2.205  10.204 -0.4241  0.6249  0.9896
  354MOL0     N48731   3.400   2.070  10.264 -0.2059  0.0032 -0.8143
  354MOL0     C48732   3.468   2.030  10.379 -0.4325 -0.2328 -0.1033
  354MOL0     C48733   3.513   1.909  10.344  0.5308  0.5196 -0.6855
  354MOL0     C48734   3.610   1.828  10.426 -0.6553  0.2845 -0.3935
  354MOL0     C48735   3.742   1.833  10.356 -1.2801  1.0836 -0.6270
  354MOL0     C48736   3.834   1.714  10.394  0.1544 -0.8045 -0.4640
  354MOL0     C48737   3.992   1.725  10.393  1.3551 -0.4867 -0.2541
  354MOL0     O48738   4.033   1.839  10.472 -0.9612  0.0267 -0.5797
  354MOL0     C48739   4.172   1.847  10.496 -0.1875  0.7536  0.5902
  354MOL0     C48740   4.268   1.825  10.393  0.4102  0.3527  0.7161
  354MOL0     C48741   4.406   1.828  10.415 -0.4170  0.2127  0.0694
  354MOL0     C48742   4.491   1.808  10.293  0.0896  0.5900 -0.1033
  354MOL0     C48743   4.447   1.842  10.546  0.0572 -0.0825 -0.3432
  354MOL0     C48744   4.593   1.856  10.583  0.5425  0.2960 -0.5201
  354MOL0     O48745   4.628   1.817  10.711  0.0662  0.5750 -0.5307
  354MOL0     C48746   4.768   1.817  10.726 -0.3530 -0.1602 -0.8415
  354MOL0     C48747   4.868   1.769  10.644  0.9495 -0.1398  0.0325
  354MOL0     C48748   4.995   1.747  10.680 -0.8821  0.1525 -0.1403
  354MOL0     C48749   5.047   1.783  10.799  0.1254  0.4552 -0.8767
  354MOL0     O48750   5.188   1.765  10.830 -0.0710 -0.1330 -0.4711
  354MOL0     C48751   5.207   1.741  10.975 -0.4646  0.2779  0.8171
  354MOL0     C48752   5.355   1.708  10.995 -0.5983 -0.0741  0.0695
  354MOL0     C48753   5.401   1.722  11.143 -0.0961  0.4068  0.6169
  354MOL0     C48754   5.352   1.615  11.234 -0.1082  0.3133 -0.6902
  354MOL0     C48755   5.388   1.633  11.383  0.5900  0.0555 -0.0276
  354MOL0     C48756   5.542   1.622  11.415  0.1758 -0.3318  0.6084
  354MOL0     C48757   5.582   1.653  11.565  0.4578  0.7776  0.3161
  354MOL0     C48758   5.707   1.580  11.604  0.0660 -0.3777  0.9346
  354MOL0    Cl48759   5.756   1.630  11.766 -0.4733  0.3474 -0.1495
  354MOL0     C48760   4.954   1.841  10.891 -0.2808  0.2464 -0.0855
  354MOL0     C48761   4.814   1.852  10.858 -0.4788 -0.6635  0.8176
  354MOL0     O48762   4.660   1.919  10.509 -0.1561  0.6336 -0.2492
  354MOL0     C48763   4.358   1.870  10.650  0.4292  0.6663 -0.0046
  354MOL0     C48764   4.219   1.874  10.627 -0.0187  0.7476  0.2425
  354MOL0     N48765   3.466   1.868  10.228 -1.3174  0.7882  0.4653
  354MOL0     N48766   3.394   1.962  10.184 -0.4858 -0.4183 -0.6803
  354MOL0     C48767   3.395   3.324  10.431 -0.2719 -0.2132 -0.3680
  354MOL0     C48768   3.383   3.431  10.519 -0.4214  0.1593  0.1075
  354MOL0     C48769   3.231   3.674  10.821 -0.0238 -0.2737 -0.5131
  354MOL0     C48770   3.302   3.792  10.775  0.1059 -1.1331  0.0502
  354MOL0     C48771   3.258   3.929  10.801 -0.3042  0.0324 -0.9452
  354MOL0     C48772   3.134   3.937  10.867 -0.5255 -0.0826  0.4886
  354MOL0     O48773   3.078   4.059  10.885  0.3083  0.7457 -0.6793
  354MOL0     C48774   3.162   4.174  10.886 -0.1578  0.8580 -1.1279
  354MOL0     C48775   3.089   4.294  10.930  0.2329 -0.1962 -0.7958
  354MOL0     C48776   3.085   4.314  11.082 -0.0285 -0.0229 -0.2682
  354MOL0     C48777   3.014   4.448  11.113 -0.0727 -0.2382 -0.0077
  354MOL0     C48778   2.868   4.438  11.070 -0.3775  0.0693 -0.2031
  354MOL0     C48779   2.750   4.442  11.044 -0.5984  0.1568  0.1166
  354MOL0     C48780   3.060   3.829  10.903 -0.6689 -0.5995  0.3357
  354MOL0     C48781   3.103   3.701  10.882  0.0445  0.4797 -1.1483
  354MOL0     C48782   3.014   3.590  10.950  0.0763 -0.1638  0.3414
  354MOL0     H48783   3.515   3.286  10.798 -1.9839  0.6043  0.3980
  354MOL0     H48784   3.541   3.097  10.637  2.6728  0.7345 -1.0039
  354MOL0     H48785   3.439   3.139  10.189  1.8333  0.9534  2.2246
  354MOL0     H48786   3.286   3.119  10.276  0.0503  0.6267  0.2675
  354MOL0     H48787   3.338   2.964  10.111 -2.0355  1.2920  0.6363
  354MOL0     H48788   3.484   2.911  10.202  0.6117 -0.7413  1.0029
  354MOL0     H48789   3.362   2.820  10.382 -3.7228 -2.5012  0.7078
  354MOL0     H48790   3.213   2.886  10.323  1.3109  0.8143  1.3333
  354MOL0     H48791   3.199   2.697  10.162 -1.4918  2.9830  0.6350
  354MOL0     H48792   3.370   2.691  10.148 -0.0512 -0.8297  0.0456
  354MOL0     H48793   3.209   2.566  10.380  1.6657 -4.3309  1.3274
  354MOL0     H48794   3.364   2.590  10.408 -1.4480  4.3184  1.2722
  354MOL0     H48795   3.215   2.430  10.199 -0.5184  2.5187 -1.6428
  354MOL0     H48796   3.365   2.466  10.147 -0.7669 -4.2499 -1.2448
  354MOL0     H48797   3.301   2.301  10.394  0.3140  0.5552  0.5311
  354MOL0     H48798   3.463   2.332  10.349 -0.0399 -0.1343  0.9808
  354MOL0     H48799   3.259   2.205  10.164 -0.0503  0.1267 -0.0042
  354MOL0     H48800   3.429   2.229  10.122 -1.8963 -0.0511 -0.4796
  354MOL0     H48801   3.498   2.089  10.465  2.2820 -1.6291 -0.0170
  354MOL0     H48802   3.572   1.728  10.450  0.6224  0.1361  1.1943
  354MOL0     H48803   3.634   1.876  10.521 -1.0495 -0.5139  0.1216
  354MOL0     H48804   3.737   1.835  10.247  1.7280  4.0012 -0.8970
  354MOL0     H48805   3.806   1.921  10.371  0.7591 -0.0661 -2.0510
  354MOL0     H48806   3.804   1.681  10.493 -1.7161  0.3630 -0.5933
  354MOL0     H48807   3.798   1.638  10.323 -0.1111  0.0046 -1.2134
  354MOL0     H48808   4.032   1.634  10.438  1.1927 -0.4606 -0.0573
  354MOL0     H48809   4.022   1.744  10.289  1.2042  1.2813 -0.0097
  354MOL0     H48810   4.227   1.806  10.294  2.7686  1.0858 -0.4977
  354MOL0     H48811   4.542   1.715  10.320 -1.2566 -0.0694  0.2545
  354MOL0     H48812   4.576   1.875  10.281  1.3264 -1.0501 -0.8635
  354MOL0     H48813   4.441   1.804  10.196 -1.3944  1.3641  0.5867
  354MOL0     H48814   4.842   1.732  10.545 -0.6495 -0.6963  0.6295
  354MOL0     H48815   5.067   1.713  10.606  0.3785  2.4499 -0.0574
  354MOL0     H48816   5.192   1.835  11.030 -0.3556  0.0792  1.1833
  354MOL0     H48817   5.142   1.665  11.018 -1.3875  0.2005 -0.6560
  354MOL0     H48818   5.361   1.603  10.965  0.1783 -0.4030  1.3316
  354MOL0     H48819   5.416   1.777  10.936 -0.0887 -2.1922 -2.0496
  354MOL0     H48820   5.376   1.819  11.185 -2.5588 -0.0990  0.4527
  354MOL0     H48821   5.511   1.716  11.141  0.0210  1.7041 -2.2940
  354MOL0     H48822   5.395   1.520  11.201 -0.6130  0.4285 -1.6983
  354MOL0     H48823   5.243   1.607  11.237 -0.0027 -1.2139  0.9273
  354MOL0     H48824   5.364   1.737  11.406  4.8651  1.1570  0.3487
  354MOL0     H48825   5.336   1.571  11.456  1.5151  2.2847  2.6922
  354MOL0     H48826   5.599   1.689  11.350 -1.4347  3.0799  2.4398
  354MOL0     H48827   5.564   1.517  11.394  0.0731  0.0873 -1.8724
  354MOL0     H48828   5.500   1.613  11.626  0.1568  0.5137 -0.2592
  354MOL0     H48829   5.590   1.761  11.581 -2.6456  0.9689  1.3732
  354MOL0     H48830   5.787   1.609  11.535  2.0459 -3.5902  1.6969
  354MOL0     H48831   5.708   1.471  11.596  2.3702 -0.3245 -0.1694
  354MOL0     H48832   4.974   1.878  10.990 -0.5883  0.3411 -0.0568
  354MOL0     H48833   4.745   1.893  10.931  0.7177  1.1390  1.0119
  354MOL0     H48834   4.384   1.891  10.754 -1.9542  1.1760  0.5488
  354MOL0     H48835   4.140   1.901  10.696 -0.0599 -0.6538  0.7749
  354MOL0     H48836   3.367   3.341  10.327  1.0770  0.9500 -0.5800
  354MOL0     H48837   3.339   3.519  10.475 -1.8221 -2.2172 -3.7780
  354MOL0     H48838   3.394   3.773  10.721 -0.0587 -2.0766  0.0959
  354MOL0     H48839   3.314   4.020  10.777  0.0438  0.8572  2.4232
  354MOL0     H48840   3.246   4.154  10.954  1.0271 -0.4364 -2.8820
  354MOL0     H48841   3.201   4.194  10.786  3.0315  0.0541 -0.1791
  354MOL0     H48842   2.993   4.293  10.877  0.8389 -0.1487 -1.9446
  354MOL0     H48843   3.147   4.377  10.888  0.5445  1.6600  2.9030
  354MOL0     H48844   3.036   4.231  11.134 -0.8294  0.0968 -0.8157
  354MOL0     H48845   3.187   4.326  11.118  0.2961  2.3196 -1.7635
  354MOL0     H48846   3.068   4.528  11.062 -1.4550 -0.8532 -2.6272
  354MOL0     H48847   3.017   4.468  11.221  1.4912 -0.3165 -0.0199
  354MOL0     H48848   2.652   4.445  11.002 -0.5167 -0.5969 -0.1279
  354MOL0     H48849   2.955   3.835  10.929 -0.4020 -0.5691  1.4523
  354MOL0     H48850   3.083   3.525  11.006  0.1248 -1.5903 -1.2664
  354MOL0     H48851   2.939   3.634  11.016 -0.4527 -0.9062  0.2494
  354MOL0     H48852   2.965   3.540  10.866  1.8213 -0.1769 -0.7324
  355MOL0     O48853   9.750  11.120  10.845 -0.5189  0.4229  0.5270
  355MOL0     C48854   9.721  11.008  10.881 -0.3899 -0.6140  0.4273
  355MOL0     O48855   9.797  10.903  10.900 -0.2956  0.0831 -0.8561
  355MOL0     C48856   9.932  10.896  10.908 -0.6237  0.6290 -0.1209
  355MOL0     C48857   9.995  10.778  10.874 -0.8457  0.5970 -0.0989
  355MOL0     C48858  10.135  10.766  10.876  0.0312 -0.1287 -0.1919
  355MOL0     C48859  10.218  10.867  10.928 -0.0645  1.1386  0.4202
  355MOL0     O48860  10.354  10.839  10.936 -0.3041 -0.2897  0.4893
  355MOL0     C48861  10.423  10.908  11.047  0.6022 -0.7767 -0.1973
  355MOL0     C48862  10.553  10.828  11.084  0.7494  0.2740  0.4423
  355MOL0     C48863  10.618  10.862  11.228 -0.0303 -0.3145  0.5083
  355MOL0     C48864  10.696  10.750  11.282 -0.1093  0.4391 -0.3451
  355MOL0     C48865  10.765  10.784  11.421 -0.1450 -0.7519 -0.0978
  355MOL0     C48866  10.900  10.713  11.449 -0.4135 -0.0251 -0.1843
  355MOL0     C48867  10.935  10.727  11.599 -0.7136  0.1237  0.2112
  355MOL0     C48868  11.037  10.617  11.650  0.0840 -0.6917 -0.0048
  355MOL0     N48869  11.167  10.641  11.593 -0.3407  0.7139 -0.1139
  355MOL0     C48870  11.266  10.742  11.606  0.8086  0.3523 -1.1237
  355MOL0     C48871  11.374  10.701  11.547  0.6870  0.4097 -0.2337
  355MOL0     C48872  11.494  10.771  11.510  0.0989 -0.3771 -1.0018
  355MOL0     C48873  11.502  10.840  11.368 -0.6911 -0.2387 -0.1183
  355MOL0     C48874  11.386  10.934  11.332  0.1147  0.6193  0.1746
  355MOL0     C48875  11.420  11.018  11.201 -0.0837  0.5299 -0.1387
  355MOL0     O48876  11.360  10.939  11.094  0.3115 -0.2543  0.4141
  355MOL0     C48877  11.232  10.976  11.054 -0.4258  1.0578  0.9876
  355MOL0     C48878  11.202  10.971  10.919  0.0598 -0.7714 -0.2301
  355MOL0     C48879  11.075  11.009  10.874 -0.3890 -0.0650  0.7826
  355MOL0     C48880  11.056  11.009  10.726  0.3400 -0.5762 -0.0782
  355MOL0     C48881  10.981  11.061  10.961  0.4036  0.3792  0.5076
  355MOL0     C48882  10.840  11.116  10.923 -0.0369 -0.0577 -0.6547
  355MOL0     O48883  10.789  11.092  10.800 -0.5733 -0.3722  0.3787
  355MOL0     C48884  10.656  11.125  10.771 -0.6769 -0.4985 -0.2173
  355MOL0     C48885  10.593  11.039  10.688 -0.4540 -0.6363  0.1189
  355MOL0     C48886  10.464  11.067  10.650 -0.3852  0.3098 -0.0692
  355MOL0     C48887  10.396  11.180  10.679  0.3282 -0.6595 -1.1124
  355MOL0     O48888  10.268  11.218  10.645 -0.0583  0.1320 -0.0176
  355MOL0     C48889  10.192  11.119  10.575 -0.2153 -0.5314  0.2344
  355MOL0     C48890  10.045  11.178  10.552 -0.9537  0.4350  0.4296
  355MOL0     C48891   9.945  11.060  10.523 -0.0687 -0.8963  0.0170
  355MOL0     C48892   9.807  11.117  10.489  0.0716 -0.3565  0.5957
  355MOL0     C48893   9.706  11.011  10.452 -0.2687  0.6045  0.0228
  355MOL0     C48894   9.558  11.060  10.468 -0.2030  0.2318 -0.3985
  355MOL0     C48895   9.478  10.927  10.465  0.6781  1.0924 -0.1212
  355MOL0     C48896   9.327  10.940  10.472 -0.6373  0.1909  0.1893
  355MOL0    Cl48897   9.264  10.768  10.479 -0.6067  0.1567 -0.3681
  355MOL0     C48898  10.457  11.271  10.768 -0.2185  0.3450 -0.1455
  355MOL0     C48899  10.584  11.237  10.819  0.1650 -0.3449 -0.7782
  355MOL0     O48900  10.774  11.154  11.016 -0.2294 -0.6210  0.0460
  355MOL0     C48901  11.021  11.080  11.097  0.2655 -0.1552 -0.2412
  355MOL0     C48902  11.142  11.036  11.141  0.6620  0.0101  0.4552
  355MOL0     N48903  11.349  10.568  11.505 -0.4729 -0.2880 -0.0065
  355MOL0     N48904  11.223  10.542  11.519  0.4053  0.5117  0.6270
  355MOL0     C48905  10.157  10.988  10.957 -0.2017 -0.4594 -0.4852
  355MOL0     C48906  10.016  11.004  10.939 -0.5189  0.0853 -0.2752
  355MOL0     C48907   9.575  10.997  10.895 -0.1771  0.3533  0.9880
  355MOL0     C48908   9.504  11.108  10.945 -0.1583  0.6003 -0.3580
  355MOL0     C48909   9.367  11.109  10.950  0.3832  0.3072  0.0349
  355MOL0     C48910   9.292  10.998  10.912 -1.2418 -0.5761 -0.0080
  355MOL0     O48911   9.158  11.024  10.918 -0.7940 -0.9940 -1.1348
  355MOL0     C48912   9.067  10.918  10.953 -0.3919  0.3825 -0.7138
  355MOL0     C48913   9.069  10.850  11.095  0.1715 -0.5125  0.6104
  355MOL0     C48914   8.948  10.778  11.122  1.0321  0.7844  0.1301
  355MOL0     C48915   8.949  10.734  11.269 -0.7194 -0.7070 -0.4129
  355MOL0     C48916   8.850  10.631  11.283 -0.5114  1.4061 -0.4592
  355MOL0     C48917   8.774  10.533  11.288  0.7142 -0.3980  0.3384
  355MOL0     C48918   9.353  10.881  10.872 -0.2348  0.3149  0.0865
  355MOL0     C48919   9.497  10.885  10.862  0.4085 -0.9291  0.7895
  355MOL0     C48920   9.561  10.766  10.802 -0.0803  0.0988 -0.2552
  355MOL0     H48921   9.939  10.692  10.838  1.4692  0.2063 -3.0993
  355MOL0     H48922  10.179  10.666  10.868  2.1042  0.2784  3.4696
  355MOL0     H48923  10.363  10.924  11.137 -1.8153  2.7564 -2.1699
  355MOL0     H48924  10.437  11.011  11.012 -0.0244 -0.8586 -0.7114
  355MOL0     H48925  10.516  10.725  11.085  1.3904  0.0249 -0.6729
  355MOL0     H48926  10.628  10.844  11.007  0.4119  3.0571  0.5765
  355MOL0     H48927  10.682  10.947  11.202 -0.0450 -0.7328 -0.9815
  355MOL0     H48928  10.539  10.886  11.300 -1.8956 -0.9653 -1.2577
  355MOL0     H48929  10.629  10.666  11.304 -1.1043  1.5166  0.9479
  355MOL0     H48930  10.771  10.718  11.210 -0.0097 -0.3049  0.0789
  355MOL0     H48931  10.700  10.756  11.505  1.6976  1.2662  2.1630
  355MOL0     H48932  10.786  10.891  11.423  1.3192 -1.0007 -1.0303
  355MOL0     H48933  10.909  10.609  11.418  0.1206  0.4571 -1.8029
  355MOL0     H48934  10.982  10.766  11.398  0.6511 -3.1706 -1.9916
  355MOL0     H48935  10.850  10.727  11.668 -0.7999  1.3765  0.1298
  355MOL0     H48936  10.992  10.820  11.610  0.7370 -0.4627 -1.8294
  355MOL0     H48937  11.057  10.622  11.758  0.3818 -2.6931  0.0519
  355MOL0     H48938  10.996  10.520  11.623  1.5044 -0.4357 -3.5157
  355MOL0     H48939  11.256  10.842  11.647 -0.2543 -0.2111  0.0762
  355MOL0     H48940  11.571  10.694  11.514 -0.3955 -0.8277  1.1600
  355MOL0     H48941  11.523  10.840  11.590 -0.9771  1.8166 -2.3960
  355MOL0     H48942  11.599  10.890  11.361  0.6113 -2.5171  0.7281
  355MOL0     H48943  11.509  10.758  11.297 -2.3757  1.4764 -2.4403
  355MOL0     H48944  11.290  10.883  11.319  0.5312 -0.5189  1.3791
  355MOL0     H48945  11.369  11.003  11.416 -1.3025  0.5583 -0.0429
  355MOL0     H48946  11.378  11.117  11.220  3.7876  2.1970  0.6277
  355MOL0     H48947  11.526  11.037  11.180  0.2975  2.1318  2.6961
  355MOL0     H48948  11.282  10.944  10.851  0.5446 -0.9340  0.3984
  355MOL0     H48949  10.979  10.937  10.697 -0.5667 -1.1196  3.2159
  355MOL0     H48950  11.150  10.991  10.674 -0.6848  0.9221 -2.6083
  355MOL0     H48951  11.026  11.108  10.691  1.7856 -0.3951 -0.8488
  355MOL0     H48952  10.653  10.960  10.645  0.6242  0.2137  0.0257
  355MOL0     H48953  10.417  10.989  10.591 -0.9576  1.0789 -0.6501
  355MOL0     H48954  10.234  11.084  10.480 -1.4624 -1.4880  0.0145
  355MOL0     H48955  10.178  11.029  10.635 -2.4750  0.6982  1.7204
  355MOL0     H48956  10.015  11.231  10.643 -0.0052 -1.1264  1.7046
  355MOL0     H48957  10.048  11.250  10.469 -0.2925  0.9008  0.8478
  355MOL0     H48958   9.943  10.989  10.606  0.3200 -0.2771  0.5657
  355MOL0     H48959   9.999  11.009  10.442  3.1076  0.9223  0.8386
  355MOL0     H48960   9.822  11.196  10.415  2.9038 -1.9639 -0.6893
  355MOL0     H48961   9.767  11.155  10.584 -1.0322  0.0141 -0.0107
  355MOL0     H48962   9.721  10.981  10.348  0.0018 -4.3334  1.2064
  355MOL0     H48963   9.720  10.922  10.514 -0.7944  0.9735  0.6768
  355MOL0     H48964   9.541  11.122  10.379  0.1340 -0.9207 -1.2962
  355MOL0     H48965   9.529  11.119  10.555  0.3743 -0.6861  0.4451
  355MOL0     H48966   9.515  10.864  10.547  1.1393  1.3962 -0.0899
  355MOL0     H48967   9.504  10.873  10.374 -2.6426 -0.6272 -0.2046
  355MOL0     H48968   9.279  10.994  10.390 -0.0313  2.2293  1.1165
  355MOL0     H48969   9.306  10.994  10.565 -0.0325 -0.1499  0.5295
  355MOL0     H48970  10.399  11.351  10.813 -1.9985 -0.5263 -0.8211
  355MOL0     H48971  10.628  11.298  10.897  2.5655 -1.1439 -1.4290
  355MOL0     H48972  10.948  11.111  11.171 -0.0476 -2.2812  0.3858
  355MOL0     H48973  11.143  11.033  11.250  0.8216  0.8876  0.4909
  355MOL0     H48974  10.217  11.075  10.980  0.9731 -0.7204 -2.3894
  355MOL0     H48975   9.979  11.105  10.949  0.5065  0.3289  1.5540
  355MOL0     H48976   9.569  11.190  10.975  0.6023 -0.5154  1.1935
  355MOL0     H48977   9.311  11.197  10.980 -1.9992 -0.2716 -2.3428
  355MOL0     H48978   8.972  10.971  10.949  0.3547  2.0163  1.3844
  355MOL0     H48979   9.075  10.842  10.875  2.0770  0.9795 -1.1334
  355MOL0     H48980   9.069  10.927  11.173  0.0826 -0.5681  0.6638
  355MOL0     H48981   9.160  10.789  11.094  0.1925 -0.5035 -1.6596
  355MOL0     H48982   8.851  10.823  11.098 -0.6745 -1.8596  1.5830
  355MOL0     H48983   8.951  10.685  11.063 -1.2685  1.1632 -0.6658
  355MOL0     H48984   8.922  10.818  11.333 -0.1550 -0.1010 -0.9640
  355MOL0     H48985   9.048  10.707  11.306  0.5439  1.8355 -1.6989
  355MOL0     H48986   8.702  10.454  11.278 -0.1812  0.4012  0.2971
  355MOL0     H48987   9.302  10.788  10.849  1.8483 -1.1747  1.1564
  355MOL0     H48988   9.641  10.790  10.731  0.7340  0.5398  0.7862
  355MOL0     H48989   9.608  10.715  10.886 -1.4506  0.3708  0.6954
  355MOL0     H48990   9.498  10.690  10.756 -3.4689  2.1749  0.6196
  356MOL0     O48991  11.033   8.732   7.237  0.0105 -0.2059  0.6891
  356MOL0     C48992  11.094   8.734   7.133 -0.4965 -0.8561  0.9230
  356MOL0     O48993  11.043   8.748   7.011  0.2505 -0.0216  0.2605
  356MOL0     C48994  10.917   8.704   6.979  0.4413 -0.2182 -0.3781
  356MOL0     C48995  10.844   8.791   6.892 -0.3191  0.0425  0.8162
  356MOL0     C48996  10.731   8.744   6.833  0.2672  0.0939  0.7162
  356MOL0     C48997  10.670   8.618   6.866  0.2384 -0.5548  0.0319
  356MOL0     O48998  10.555   8.587   6.804  0.1175  1.0693 -0.0038
  356MOL0     C48999  10.554   8.455   6.751 -0.0365  0.1359 -0.6007
  356MOL0     C49000  10.634   8.444   6.618 -0.0654 -0.3290 -0.3844
  356MOL0     C49001  10.602   8.556   6.527 -0.1147 -0.4591 -0.4965
  356MOL0     C49002  10.675   8.523   6.396 -0.6331 -0.0016  0.9440
  356MOL0     C49003  10.657   8.649   6.304  0.0585  0.3588 -0.1307
  356MOL0     C49004  10.714   8.629   6.167 -0.0028 -0.4647 -0.1327
  356MOL0     C49005  10.653   8.709   6.051  0.0780  0.1092 -0.4769
  356MOL0     C49006  10.510   8.663   6.016 -0.1550  0.6352 -0.1067
  356MOL0     N49007  10.515   8.581   5.901  0.3436 -0.1809 -0.1427
  356MOL0     C49008  10.523   8.626   5.777 -1.2586  0.2303  0.7194
  356MOL0     C49009  10.523   8.512   5.697 -0.3980 -0.0033 -0.8186
  356MOL0     C49010  10.528   8.510   5.540  0.4943  0.3363  0.9426
  356MOL0     C49011  10.650   8.588   5.493  0.6553 -0.1329  0.1847
  356MOL0     C49012  10.647   8.606   5.344 -0.3864  0.0102 -0.2201
  356MOL0     C49013  10.750   8.700   5.289 -0.3311 -0.0085  0.0799
  356MOL0     O49014  10.876   8.638   5.326 -0.1861  0.0295  0.3688
  356MOL0     C49015  10.941   8.550   5.242  0.4182  0.2951 -0.4424
  356MOL0     C49016  10.877   8.488   5.133  0.4815 -0.5888  0.2725
  356MOL0     C49017  10.944   8.408   5.037 -0.6889 -1.3641  0.1486
  356MOL0     C49018  10.878   8.361   4.912 -0.6521  0.1419  0.2285
  356MOL0     C49019  11.082   8.387   5.050  0.6661  0.3909 -0.1789
  356MOL0     C49020  11.165   8.294   4.970 -0.1107  0.7938  1.9086
  356MOL0     O49021  11.274   8.356   4.916  0.1686  0.1907 -0.0704
  356MOL0     C49022  11.356   8.296   4.829 -0.8214  0.1260 -0.4574
  356MOL0     C49023  11.337   8.207   4.724  0.4539  0.2291 -0.4667
  356MOL0     C49024  11.446   8.153   4.656  0.6418 -0.1863 -0.2554
  356MOL0     C49025  11.576   8.181   4.692  0.1514  0.6095 -0.0873
  356MOL0     O49026  11.669   8.112   4.617 -0.3367 -0.2836  0.1742
  356MOL0     C49027  11.807   8.128   4.639 -0.3543 -0.2959 -0.4801
  356MOL0     C49028  11.889   8.073   4.521  0.0859  0.3870  0.7107
  356MOL0     C49029  12.040   8.080   4.550  0.6073 -0.1576 -0.3481
  356MOL0     C49030  12.114   8.007   4.447  0.2511 -0.2773  0.4780
  356MOL0     C49031  12.267   8.050   4.444  0.3404  0.4027 -0.1329
  356MOL0     C49032  12.357   7.945   4.369 -0.3120 -0.2026 -1.0603
  356MOL0     C49033  12.304   7.890   4.232 -0.7404 -0.0456 -0.5296
  356MOL0     C49034  12.389   7.780   4.172 -0.2977  0.8458  0.2722
  356MOL0    Cl49035  12.562   7.762   4.229  0.1160 -0.2806 -0.1738
  356MOL0     C49036  11.598   8.270   4.801  0.7472 -0.0425 -0.2603
  356MOL0     C49037  11.487   8.327   4.857 -0.1288 -1.1211  0.6131
  356MOL0     O49038  11.128   8.180   4.951 -0.7383  0.0795 -0.4595
  356MOL0     C49039  11.142   8.450   5.162 -0.4113  0.6653  0.0175
  356MOL0     C49040  11.077   8.537   5.252 -0.1168  0.4101  0.7266
  356MOL0     N49041  10.513   8.400   5.777  0.9450  0.3380  0.5962
  356MOL0     N49042  10.507   8.439   5.897  0.2598 -0.6301  0.0886
  356MOL0     C49043  10.743   8.544   6.957 -0.5816 -0.7360 -0.2373
  356MOL0     C49044  10.861   8.584   7.013  0.7718  0.4653 -0.8358
  356MOL0     C49045  11.239   8.763   7.140  0.1180  0.9074 -0.1803
  356MOL0     C49046  11.302   8.825   7.031 -0.8260 -0.1724  0.3245
  356MOL0     C49047  11.439   8.854   7.029 -0.0061  0.4969  0.5873
  356MOL0     C49048  11.516   8.822   7.142  0.6426  0.1411  0.7246
  356MOL0     O49049  11.644   8.860   7.143  0.0107 -0.2409  0.0733
  356MOL0     C49050  11.738   8.773   7.212 -0.3371 -0.2368  0.7421
  356MOL0     C49051  11.872   8.800   7.152  0.2021  0.1382 -0.6990
  356MOL0     C49052  11.966   8.682   7.182 -0.1820 -0.3749 -0.7607
  356MOL0     C49053  12.121   8.715   7.179 -0.2208  0.5230  1.0439
  356MOL0     C49054  12.164   8.765   7.039 -1.1470  0.4631 -1.0078
  356MOL0     C49055  12.214   8.817   6.947 -1.0210  0.3750  0.2150
  356MOL0     C49056  11.453   8.752   7.246 -0.3037  0.5244  0.1792
  356MOL0     C49057  11.313   8.726   7.246  0.2509 -0.0236  0.3864
  356MOL0     C49058  11.256   8.664   7.371 -0.6440 -0.2008  0.1148
  356MOL0     H49059  10.887   8.885   6.859  2.7145 -1.1770  0.9554
  356MOL0     H49060  10.684   8.807   6.759  1.0905 -0.4790 -0.3211
  356MOL0     H49061  10.452   8.436   6.716 -0.5840  1.4956  0.1429
  356MOL0     H49062  10.572   8.369   6.816 -1.1962 -0.2735 -0.7884
  356MOL0     H49063  10.742   8.438   6.630  0.2384 -0.3742 -2.6857
  356MOL0     H49064  10.608   8.349   6.570 -0.1364  0.2272 -1.4831
  356MOL0     H49065  10.493   8.563   6.525 -0.6833 -3.6967  3.9967
  356MOL0     H49066  10.655   8.638   6.577 -1.8947 -0.8917  2.3249
  356MOL0     H49067  10.782   8.511   6.415  0.5289  0.8648 -3.6820
  356MOL0     H49068  10.630   8.433   6.352  0.3745  0.2224 -0.6513
  356MOL0     H49069  10.700   8.735   6.357 -2.1453  0.2912  1.9418
  356MOL0     H49070  10.550   8.666   6.292 -0.0372  0.1646  0.4330
  356MOL0     H49071  10.821   8.651   6.164  0.2246 -1.5074 -0.3305
  356MOL0     H49072  10.720   8.522   6.142  1.4499  0.0391 -2.1410
  356MOL0     H49073  10.707   8.699   5.956  1.4995  0.9344  0.2209
  356MOL0     H49074  10.648   8.814   6.079 -0.3139  0.7873 -2.8471
  356MOL0     H49075  10.468   8.614   6.105  0.5450  1.2459  0.5725
  356MOL0     H49076  10.444   8.748   5.997  1.0780  1.4588 -0.8116
  356MOL0     H49077  10.534   8.728   5.742  0.0281 -0.4338 -0.9230
  356MOL0     H49078  10.433   8.540   5.495  0.5004  0.7717  1.2135
  356MOL0     H49079  10.526   8.404   5.510 -1.4501  0.6056 -0.0052
  356MOL0     H49080  10.650   8.684   5.545 -2.0704 -0.6080  1.2311
  356MOL0     H49081  10.739   8.537   5.529 -0.7084 -1.0057  2.5527
  356MOL0     H49082  10.640   8.508   5.297 -0.6420 -1.3601  2.5056
  356MOL0     H49083  10.547   8.645   5.323 -0.0182  0.2287 -1.6856
  356MOL0     H49084  10.734   8.718   5.182 -0.6282  2.3928  0.4710
  356MOL0     H49085  10.741   8.799   5.334  0.9394  0.3736 -0.4624
  356MOL0     H49086  10.773   8.508   5.112 -0.0080  0.8459  3.5147
  356MOL0     H49087  10.965   8.345   4.848  1.0587  1.3951  2.1193
  356MOL0     H49088  10.825   8.440   4.859  0.6720  1.3328  0.6049
  356MOL0     H49089  10.826   8.266   4.923  1.5845 -0.9755  1.9842
  356MOL0     H49090  11.239   8.182   4.686 -0.0905 -0.0635  1.0712
  356MOL0     H49091  11.431   8.089   4.570  1.6231 -0.8707  0.0536
  356MOL0     H49092  11.837   8.234   4.645 -0.1032 -0.4449  1.3332
  356MOL0     H49093  11.827   8.094   4.740  0.2871  1.9714  0.2318
  356MOL0     H49094  11.854   7.973   4.495  0.4788  0.7332 -1.3769
  356MOL0     H49095  11.856   8.137   4.438 -1.1445  0.0794  0.9392
  356MOL0     H49096  12.074   8.033   4.643  3.1281  1.3460 -0.4202
  356MOL0     H49097  12.059   8.188   4.546  2.3932 -0.4252  0.2896
  356MOL0     H49098  12.082   8.044   4.349 -0.5310  0.6598  1.0708
  356MOL0     H49099  12.098   7.900   4.455 -1.0721 -0.0396  1.3036
  356MOL0     H49100  12.263   8.149   4.397 -2.2249  0.3886 -0.0576
  356MOL0     H49101  12.296   8.055   4.549 -0.3170 -0.1845  0.0844
  356MOL0     H49102  12.378   7.863   4.438 -2.1801 -0.4005 -0.6846
  356MOL0     H49103  12.458   7.981   4.346 -0.4503  0.4372 -0.6858
  356MOL0     H49104  12.312   7.977   4.166 -2.7279 -1.0341 -2.1720
  356MOL0     H49105  12.203   7.851   4.247 -0.8976  0.3377 -0.5772
  356MOL0     H49106  12.388   7.786   4.063  0.0892  0.3920  0.2366
  356MOL0     H49107  12.340   7.689   4.207 -0.2804  1.2634  1.4286
  356MOL0     H49108  11.695   8.296   4.842  0.0732  0.8905  0.8152
  356MOL0     H49109  11.503   8.381   4.950 -0.1002  0.8438 -0.4604
  356MOL0     H49110  11.249   8.431   5.175 -0.7607 -0.4207  1.5713
  356MOL0     H49111  11.136   8.575   5.334  0.6381 -2.0048  1.3853
  356MOL0     H49112  10.699   8.454   6.998 -2.0573  0.0149 -0.1305
  356MOL0     H49113  10.919   8.518   7.078  1.4040  1.7018 -0.0970
  356MOL0     H49114  11.254   8.853   6.938  2.2736 -0.6218 -1.5648
  356MOL0     H49115  11.484   8.913   6.950 -1.5697  1.2421  0.2107
  356MOL0     H49116  11.732   8.789   7.320 -2.5095  1.7650  0.4120
  356MOL0     H49117  11.726   8.665   7.196  1.1028 -0.1936 -0.8751
  356MOL0     H49118  11.913   8.891   7.197  0.1200  1.3208 -2.8932
  356MOL0     H49119  11.877   8.810   7.043 -0.0340  0.1768 -0.7067
  356MOL0     H49120  11.937   8.646   7.281 -0.8046  0.6392 -0.5629
  356MOL0     H49121  11.935   8.602   7.113 -1.7473 -0.9097  0.5217
  356MOL0     H49122  12.178   8.623   7.199  0.1944  0.1624 -1.4919
  356MOL0     H49123  12.148   8.793   7.250  0.8057  0.6342  0.5520
  356MOL0     H49124  12.279   8.846   6.866  0.1320 -2.7173 -0.0773
  356MOL0     H49125  11.519   8.728   7.329 -0.2629  1.4388  0.4209
  356MOL0     H49126  11.209   8.734   7.441  1.6722  0.0834  1.4875
  356MOL0     H49127  11.193   8.581   7.339 -2.2144  0.9615  0.0932
  356MOL0     H49128  11.338   8.615   7.424 -0.1425 -2.2968 -2.3870
  357MOL0     O49129   4.401   4.792   4.918 -0.4177 -0.3695 -0.1537
  357MOL0     C49130   4.393   4.674   4.909  0.5069  0.4596 -0.3090
  357MOL0     O49131   4.279   4.598   4.915  0.3738  0.6871 -0.2985
  357MOL0     C49132   4.155   4.643   4.974 -0.1951  0.1904  1.0395
  357MOL0     C49133   4.097   4.759   4.941 -0.2398  0.0908 -0.8332
  357MOL0     C49134   3.990   4.806   5.018 -0.5149  0.7869 -0.2772
  357MOL0     C49135   3.929   4.721   5.115  0.8619 -0.1529  0.3787
  357MOL0     O49136   3.824   4.746   5.199  0.4991 -0.5607 -0.1290
  357MOL0     C49137   3.760   4.874   5.203  0.0294  0.4394  0.7017
  357MOL0     C49138   3.651   4.896   5.315  0.9776  0.2698  0.0631
  357MOL0     C49139   3.550   4.775   5.310  0.6717  0.6841  0.2831
  357MOL0     C49140   3.471   4.759   5.181  0.3912  0.1552 -0.2787
  357MOL0     C49141   3.357   4.655   5.198  0.1706 -0.7933  0.2371
  357MOL0     C49142   3.399   4.517   5.233  0.6057 -0.3603 -0.2878
  357MOL0     C49143   3.282   4.417   5.231  0.1261 -1.1173  0.8563
  357MOL0     C49144   3.220   4.390   5.092  0.7545 -0.4301  0.1260
  357MOL0     N49145   3.314   4.389   4.987 -0.0778  0.1932 -0.2660
  357MOL0     C49146   3.414   4.302   4.970  0.4716 -0.5649 -0.6713
  357MOL0     C49147   3.494   4.349   4.867 -0.1723  0.6485  0.6852
  357MOL0     C49148   3.604   4.289   4.790  0.0521 -0.2867 -0.3032
  357MOL0     C49149   3.725   4.384   4.775  0.8497 -0.3463 -0.0023
  357MOL0     C49150   3.861   4.332   4.735 -0.0267  0.2488 -0.3348
  357MOL0     C49151   3.956   4.453   4.716 -0.9007 -0.1370  0.8480
  357MOL0     O49152   4.069   4.420   4.624  0.6659  0.6413 -0.4925
  357MOL0     C49153   4.152   4.325   4.673 -0.0720 -0.2230  0.1569
  357MOL0     C49154   4.161   4.291   4.805 -0.2416  0.3567  0.2064
  357MOL0     C49155   4.253   4.194   4.847 -0.0610 -0.3867 -0.7703
  357MOL0     C49156   4.247   4.156   4.998  0.1742 -0.4570 -0.5281
  357MOL0     C49157   4.342   4.136   4.757  0.0583  0.7324 -0.7632
  357MOL0     C49158   4.438   4.027   4.791 -0.5344 -0.8758 -0.2238
  357MOL0     O49159   4.490   3.956   4.686 -0.5626  0.0057 -0.9651
  357MOL0     C49160   4.587   3.868   4.701 -0.8863  0.8200  0.7940
  357MOL0     C49161   4.714   3.893   4.648 -0.1609  0.5172 -0.3762
  357MOL0     C49162   4.814   3.795   4.650 -0.0207  0.3963 -0.2218
  357MOL0     C49163   4.796   3.663   4.694  0.9275 -0.8787 -0.1667
  357MOL0     O49164   4.899   3.572   4.703  0.5072 -0.5173 -0.0032
  357MOL0     C49165   4.872   3.454   4.782 -0.3384  0.4635  0.1038
  357MOL0     C49166   5.002   3.370   4.804 -1.0065  0.5983  0.6456
  357MOL0     C49167   5.150   3.427   4.782  0.4097 -0.7883  0.9080
  357MOL0     C49168   5.188   3.550   4.867 -0.5181  0.0395  0.8172
  357MOL0     C49169   5.165   3.519   5.023 -0.8816  0.0150 -0.2067
  357MOL0     C49170   5.176   3.655   5.095  0.5777  0.7117 -0.0397
  357MOL0     C49171   5.108   3.652   5.236 -0.1429  0.5412  0.1768
  357MOL0     C49172   5.143   3.769   5.319 -0.2228 -0.7146  1.0649
  357MOL0    Cl49173   5.309   3.767   5.366 -0.0815 -0.0230 -0.0057
  357MOL0     C49174   4.659   3.635   4.733 -0.2292  0.4007  0.0154
  357MOL0     C49175   4.563   3.738   4.744 -0.4753 -0.1673 -0.8125
  357MOL0     O49176   4.466   4.014   4.907  0.2354 -0.2108 -0.2166
  357MOL0     C49177   4.339   4.178   4.626 -0.3937 -0.9032 -0.0486
  357MOL0     C49178   4.243   4.267   4.578 -0.7408 -0.9065 -0.2542
  357MOL0     N49179   3.432   4.463   4.828  0.4896 -0.2705 -0.0754
  357MOL0     N49180   3.323   4.476   4.888  0.9066  0.5386  0.5588
  357MOL0     C49181   3.990   4.602   5.143 -0.1588  0.4413  0.8298
  357MOL0     C49182   4.107   4.567   5.072  0.5431  0.7031 -0.5167
  357MOL0     C49183   4.513   4.598   4.859 -0.2383  1.0556 -0.2771
  357MOL0     C49184   4.502   4.452   4.856  0.2496 -0.9242 -0.3120
  357MOL0     C49185   4.608   4.361   4.837 -0.1673  0.2498  0.0404
  357MOL0     C49186   4.736   4.414   4.805 -0.5612 -0.3105 -0.3108
  357MOL0     O49187   4.832   4.319   4.795 -0.3101  0.4526 -0.2043
  357MOL0     C49188   4.960   4.362   4.766 -0.3687 -0.4285  0.2639
  357MOL0     C49189   5.067   4.263   4.759  0.2349 -0.4009 -0.2464
  357MOL0     C49190   5.019   4.126   4.701 -0.2476 -0.2188 -0.2409
  357MOL0     C49191   5.143   4.033   4.679  0.6658 -0.4517 -0.1270
  357MOL0     C49192   5.207   3.993   4.805 -0.3530 -0.6322 -1.3724
  357MOL0     C49193   5.263   3.965   4.912 -0.2603  0.1471 -0.0957
  357MOL0     C49194   4.745   4.559   4.807 -0.6686 -0.0063  0.1290
  357MOL0     C49195   4.643   4.651   4.835 -0.4878  0.4647 -0.2805
  357MOL0     C49196   4.669   4.799   4.821  0.7908 -0.7185 -0.4285
  357MOL0     H49197   4.138   4.823   4.865 -0.3658 -0.6942 -1.5777
  357MOL0     H49198   3.947   4.904   4.998 -1.7571  0.8222  2.1428
  357MOL0     H49199   3.714   4.910   5.111 -1.9581 -0.9851  1.0639
  357MOL0     H49200   3.834   4.949   5.233  2.9693 -2.0297  0.1442
  357MOL0     H49201   3.696   4.905   5.414  1.6024 -1.2587 -0.0589
  357MOL0     H49202   3.604   4.994   5.300 -0.4707 -0.1739  1.4255
  357MOL0     H49203   3.607   4.684   5.329  0.2300  0.0726 -1.1733
  357MOL0     H49204   3.473   4.792   5.385  1.6039 -0.1016  1.4562
  357MOL0     H49205   3.416   4.853   5.168 -1.1962 -0.8314 -1.0487
  357MOL0     H49206   3.531   4.733   5.094 -0.8348  1.2301 -1.4786
  357MOL0     H49207   3.295   4.657   5.108 -1.7567  2.5870  1.4487
  357MOL0     H49208   3.292   4.688   5.279 -2.8440  2.5960 -3.1496
  357MOL0     H49209   3.477   4.486   5.162 -0.9915  0.1621 -2.3626
  357MOL0     H49210   3.450   4.518   5.330  1.2673  0.2252 -0.6235
  357MOL0     H49211   3.209   4.440   5.310  2.3294  1.9057  2.2471
  357MOL0     H49212   3.337   4.326   5.258  3.0042 -0.1142 -1.1253
  357MOL0     H49213   3.165   4.295   5.085 -2.1722  1.1286  0.2149
  357MOL0     H49214   3.152   4.473   5.073  1.0904 -1.0164 -4.6999
  357MOL0     H49215   3.433   4.215   5.031  2.1734 -0.9362 -1.6685
  357MOL0     H49216   3.576   4.272   4.686  3.5091 -0.0339 -1.3983
  357MOL0     H49217   3.627   4.190   4.831 -0.4262 -1.1450 -2.0391
  357MOL0     H49218   3.683   4.455   4.702 -1.9973 -0.3396  1.4696
  357MOL0     H49219   3.732   4.440   4.869 -0.7535 -1.2668  0.7153
  357MOL0     H49220   3.890   4.267   4.819 -4.8381 -1.0568  0.6652
  357MOL0     H49221   3.853   4.279   4.640  2.5658  0.3315 -0.6693
  357MOL0     H49222   3.908   4.531   4.656  1.3278 -0.0123 -0.9088
  357MOL0     H49223   3.986   4.499   4.810 -3.5554  3.6449  0.0746
  357MOL0     H49224   4.114   4.344   4.887 -1.0969  0.7716 -0.5380
  357MOL0     H49225   4.161   4.198   5.050  0.2556 -1.1299  0.1713
  357MOL0     H49226   4.339   4.195   5.043  0.1231 -0.8218 -0.1008
  357MOL0     H49227   4.233   4.050   5.022 -1.6172 -0.1706 -0.1416
  357MOL0     H49228   4.725   3.990   4.600 -0.5624  0.4958 -0.5222
  357MOL0     H49229   4.913   3.817   4.609  0.0161 -1.3864 -1.2107
  357MOL0     H49230   4.824   3.481   4.876  0.1167 -0.9235  0.7565
  357MOL0     H49231   4.805   3.389   4.725  1.6656 -1.2879 -0.3723
  357MOL0     H49232   4.991   3.340   4.908 -0.2658 -0.0544  0.5459
  357MOL0     H49233   4.989   3.285   4.736 -1.4104  1.3926 -0.3119
  357MOL0     H49234   5.179   3.447   4.679 -4.1959 -0.7536 -0.6114
  357MOL0     H49235   5.215   3.347   4.820  1.9066 -0.8943 -1.6518
  357MOL0     H49236   5.133   3.639   4.832  0.6191  0.4576  0.0434
  357MOL0     H49237   5.292   3.580   4.852 -1.0086  1.4442 -0.0504
  357MOL0     H49238   5.065   3.477   5.037 -0.1138 -1.3834  1.3987
  357MOL0     H49239   5.235   3.451   5.072 -2.8873 -3.0613 -1.3232
  357MOL0     H49240   5.118   3.731   5.042  0.0602  0.9086  0.7885
  357MOL0     H49241   5.282   3.683   5.097  0.5586  0.8621 -0.7570
  357MOL0     H49242   5.146   3.559   5.279 -0.8035 -0.2042 -0.8037
  357MOL0     H49243   5.000   3.641   5.246 -0.1705 -0.5935 -1.0343
  357MOL0     H49244   5.085   3.773   5.412 -0.3506 -2.5642  1.0833
  357MOL0     H49245   5.133   3.858   5.256 -1.6770 -2.0761 -0.7347
  357MOL0     H49246   4.635   3.534   4.764  0.1095  0.7564  1.5197
  357MOL0     H49247   4.464   3.721   4.784  0.9278 -0.6981  2.7880
  357MOL0     H49248   4.413   4.133   4.561 -1.6773 -2.0886 -0.7533
  357MOL0     H49249   4.251   4.304   4.476  4.0114 -3.4491 -1.1102
  357MOL0     H49250   3.941   4.539   5.216  1.2070  1.8327  3.0871
  357MOL0     H49251   4.134   4.463   5.086 -1.0264  0.3286 -0.0669
  357MOL0     H49252   4.409   4.400   4.875 -1.2810  1.4395 -0.9544
  357MOL0     H49253   4.600   4.253   4.851  0.2078  0.0265 -1.3148
  357MOL0     H49254   4.955   4.397   4.662 -2.5358 -2.2221 -0.3101
  357MOL0     H49255   4.972   4.431   4.850 -1.5422  0.1039  0.0272
  357MOL0     H49256   5.097   4.254   4.864 -0.2298  1.0510  0.0218
  357MOL0     H49257   5.152   4.303   4.703 -1.0802  2.1439 -0.5561
  357MOL0     H49258   4.946   4.080   4.769 -0.5875  1.2216  0.3983
  357MOL0     H49259   4.958   4.134   4.611 -0.8397  0.6264  0.2153
  357MOL0     H49260   5.221   4.085   4.621  1.7414  0.5757  2.1308
  357MOL0     H49261   5.103   3.952   4.618  2.8535 -0.4519 -1.7048
  357MOL0     H49262   5.317   3.931   4.998 -0.7299 -0.4756 -0.0425
  357MOL0     H49263   4.840   4.593   4.765 -1.0510 -1.0033 -1.6607
  357MOL0     H49264   4.774   4.823   4.803  0.1975  0.2978 -2.8722
  357MOL0     H49265   4.619   4.844   4.735  1.3522 -0.1736 -0.4759
  357MOL0     H49266   4.649   4.853   4.914  0.0180 -0.7943 -0.5466
  358MOL0     O49267   5.660   3.437   8.909 -0.0450  0.6988  0.0906
  358MOL0     C49268   5.599   3.542   8.889 -0.0669  0.6474  0.0122
  358MOL0     O49269   5.644   3.669   8.922  0.1980  0.1918  0.9379
  358MOL0     C49270   5.784   3.681   8.948  1.1726  0.5301  0.4536
  358MOL0     C49271   5.818   3.742   9.067  0.1932  0.5023 -0.4062
  358MOL0     C49272   5.958   3.760   9.099  0.0640  0.5966  0.0549
  358MOL0     C49273   6.055   3.708   9.012  0.4813 -1.3762 -0.4644
  358MOL0     O49274   6.189   3.756   9.032 -0.3753 -0.2247  0.4138
  358MOL0     C49275   6.276   3.659   9.079  0.3101 -0.5324  0.1088
  358MOL0     C49276   6.396   3.725   9.145  0.4611 -0.4579  0.2231
  358MOL0     C49277   6.503   3.619   9.187  0.0836 -0.1672 -0.2408
  358MOL0     C49278   6.629   3.694   9.228  0.7069  0.1665  0.1871
  358MOL0     C49279   6.733   3.585   9.267  0.7402 -1.2390  0.2318
  358MOL0     C49280   6.877   3.647   9.285  0.3251 -1.1237 -1.1543
  358MOL0     C49281   6.961   3.543   9.369  0.0424 -0.2302  0.3494
  358MOL0     C49282   7.061   3.616   9.451 -0.0673 -0.7419  0.2872
  358MOL0     N49283   7.170   3.662   9.366  0.3632  0.9813 -0.3846
  358MOL0     C49284   7.281   3.589   9.347  0.7124 -0.0715 -0.1097
  358MOL0     C49285   7.358   3.665   9.259 -0.5407  0.6489  0.0122
  358MOL0     C49286   7.491   3.619   9.209 -0.3727  0.5239  0.8418
  358MOL0     C49287   7.608   3.716   9.233  0.1961  1.2336  0.0113
  358MOL0     C49288   7.743   3.632   9.247 -0.6645  0.4816 -1.1074
  358MOL0     C49289   7.879   3.694   9.220 -0.1533  0.4030 -0.8096
  358MOL0     O49290   7.868   3.826   9.277 -0.1085  0.1368 -0.3105
  358MOL0     C49291   7.991   3.880   9.314 -0.1491 -0.3661 -0.3773
  358MOL0     C49292   8.012   3.944   9.440  0.4091  0.0802  0.3876
  358MOL0     C49293   8.128   4.027   9.456  0.4501  0.4833 -0.8915
  358MOL0     C49294   8.134   4.096   9.592  1.2502  0.0859 -0.0762
  358MOL0     C49295   8.228   4.030   9.359  0.2953  0.1894 -0.2857
  358MOL0     C49296   8.359   4.102   9.382 -0.2495 -0.2875 -0.5267
  358MOL0     O49297   8.473   4.064   9.313 -0.4971 -0.4159 -0.5718
  358MOL0     C49298   8.581   4.144   9.314 -0.1022  0.3780  0.7387
  358MOL0     C49299   8.691   4.075   9.364 -0.0681  0.1993 -0.1861
  358MOL0     C49300   8.816   4.142   9.336  0.4770  0.4677  0.0656
  358MOL0     C49301   8.830   4.265   9.265 -0.2495  0.3226 -0.4298
  358MOL0     O49302   8.952   4.318   9.224 -0.2053  0.3302 -0.1146
  358MOL0     C49303   9.068   4.301   9.306  0.3874  0.0992  0.0388
  358MOL0     C49304   9.181   4.383   9.246  0.0888 -0.0536  0.7643
  358MOL0     C49305   9.143   4.532   9.196  0.0975 -0.1301 -0.0554
  358MOL0     C49306   9.281   4.619   9.205  0.1693 -0.0545  0.3273
  358MOL0     C49307   9.265   4.756   9.130  0.2683 -0.3369  0.1951
  358MOL0     C49308   9.274   4.753   8.980  0.2815  0.0768  0.6837
  358MOL0     C49309   9.430   4.728   8.939 -0.2380  0.0172 -0.3307
  358MOL0     C49310   9.450   4.684   8.799  0.3561 -0.8609  1.0804
  358MOL0    Cl49311   9.363   4.789   8.681 -0.2223  0.1668 -0.0329
  358MOL0     C49312   8.709   4.328   9.222  0.1597 -0.1556  0.2363
  358MOL0     C49313   8.580   4.265   9.242 -0.3480 -0.8911 -0.8770
  358MOL0     O49314   8.359   4.190   9.464  0.1858 -0.2921  0.1513
  358MOL0     C49315   8.220   3.946   9.248 -0.0647  0.1750  0.1196
  358MOL0     C49316   8.099   3.883   9.221 -0.3250  0.1645  0.4640
  358MOL0     N49317   7.278   3.772   9.214 -0.1990 -0.1570  0.0792
  358MOL0     N49318   7.163   3.767   9.285  0.1983 -0.0614  1.0319
  358MOL0     C49319   6.021   3.642   8.900  0.6124 -0.1341 -0.2901
  358MOL0     C49320   5.889   3.627   8.867  0.7600 -0.2959 -0.0074
  358MOL0     C49321   5.461   3.533   8.843 -0.3125 -0.3539  0.4524
  358MOL0     C49322   5.374   3.648   8.866 -0.5267  0.3515 -0.0244
  358MOL0     C49323   5.235   3.645   8.854 -1.1385  0.1499 -0.1888
  358MOL0     C49324   5.178   3.537   8.799 -0.0982 -0.2092  0.5487
  358MOL0     O49325   5.042   3.544   8.770  0.0636  0.2386  0.0895
  358MOL0     C49326   4.991   3.662   8.711  0.0760  0.2538 -0.4695
  358MOL0     C49327   4.854   3.629   8.649  0.0272  0.7621 -0.6451
  358MOL0     C49328   4.831   3.497   8.574  0.7049 -0.3697 -0.7721
  358MOL0     C49329   4.878   3.511   8.425  0.3238  0.5083  0.4963
  358MOL0     C49330   4.839   3.385   8.358  0.0159  0.1844  0.2924
  358MOL0     C49331   4.807   3.272   8.318 -0.4330 -0.0621 -1.2209
  358MOL0     C49332   5.257   3.425   8.764  0.7071  0.2894 -0.0585
  358MOL0     C49333   5.396   3.424   8.786  0.3938  0.1372  0.2655
  358MOL0     C49334   5.470   3.304   8.720  0.0207  0.2563  0.3158
  358MOL0     H49335   5.737   3.763   9.137 -0.9845  0.5909 -1.7408
  358MOL0     H49336   5.979   3.795   9.200 -0.2309 -0.0903  0.3595
  358MOL0     H49337   6.310   3.591   9.000  1.8564  0.5781 -0.2152
  358MOL0     H49338   6.227   3.595   9.153  1.5750 -1.8414 -0.1410
  358MOL0     H49339   6.443   3.796   9.077 -1.3148  1.4194  0.8471
  358MOL0     H49340   6.364   3.789   9.227  4.0346  1.9589 -0.0576
  358MOL0     H49341   6.468   3.569   9.278  0.0003  0.4468  0.0649
  358MOL0     H49342   6.528   3.551   9.105  2.4253  0.4753 -0.1325
  358MOL0     H49343   6.676   3.760   9.154 -0.0651  1.4797  0.8250
  358MOL0     H49344   6.602   3.754   9.316 -0.6464  2.0707 -1.4331
  358MOL0     H49345   6.740   3.506   9.192 -4.1928 -0.0091 -1.9503
  358MOL0     H49346   6.699   3.530   9.355 -1.6066 -0.5915 -0.1943
  358MOL0     H49347   6.925   3.668   9.189  1.7063  1.0890 -0.0609
  358MOL0     H49348   6.866   3.740   9.340 -3.9317 -2.5681  0.8503
  358MOL0     H49349   7.016   3.478   9.300 -1.0983 -2.3655  1.3397
  358MOL0     H49350   6.896   3.472   9.421 -0.3469 -1.9057 -2.1940
  358MOL0     H49351   7.016   3.700   9.505 -1.4605 -2.1443  1.3984
  358MOL0     H49352   7.103   3.546   9.524 -0.9620 -0.3808  1.1590
  358MOL0     H49353   7.299   3.496   9.399  0.7488  0.6660  1.2472
  358MOL0     H49354   7.488   3.609   9.100 -1.4207  1.3504  0.7760
  358MOL0     H49355   7.504   3.515   9.241  0.5334  0.9950  2.1137
  358MOL0     H49356   7.623   3.786   9.151  2.4562  1.5766  0.6460
  358MOL0     H49357   7.584   3.763   9.329  0.6939 -0.2082  0.8807
  358MOL0     H49358   7.744   3.591   9.348 -1.8753  1.4191 -0.6776
  358MOL0     H49359   7.735   3.546   9.180  0.8693  0.5947 -1.4688
  358MOL0     H49360   7.960   3.631   9.258 -0.7639  0.3785  0.5381
  358MOL0     H49361   7.883   3.704   9.112 -2.0771  1.4110 -0.8311
  358MOL0     H49362   7.939   3.943   9.521 -2.0649 -0.7188 -1.7000
  358MOL0     H49363   8.237   4.091   9.628  1.3954 -3.8026 -0.6850
  358MOL0     H49364   8.080   4.041   9.670  4.1137  0.0366  2.0144
  358MOL0     H49365   8.105   4.202   9.594 -2.0989 -0.6749  2.5721
  358MOL0     H49366   8.687   3.978   9.412  1.3928  1.4406  2.6876
  358MOL0     H49367   8.895   4.085   9.384  1.0728  1.7664  0.6965
  358MOL0     H49368   9.039   4.335   9.405 -0.8232  1.8097 -0.8496
  358MOL0     H49369   9.101   4.197   9.311 -0.9743 -0.4228 -1.0824
  358MOL0     H49370   9.261   4.382   9.321 -1.3361  0.3323  2.3564
  358MOL0     H49371   9.226   4.329   9.162  1.5916  1.0231  0.8283
  358MOL0     H49372   9.066   4.571   9.262  0.6798  0.4589  0.2903
  358MOL0     H49373   9.099   4.530   9.096  0.3146 -2.3657 -0.1558
  358MOL0     H49374   9.356   4.562   9.149 -0.7236  0.7429 -1.7917
  358MOL0     H49375   9.308   4.634   9.310  0.1650 -3.1101  0.8710
  358MOL0     H49376   9.167   4.802   9.146 -0.6671 -1.9580 -0.6979
  358MOL0     H49377   9.343   4.825   9.164 -0.5353  1.3735 -1.2772
  358MOL0     H49378   9.247   4.846   8.930  1.9816 -0.1805 -0.8040
  358MOL0     H49379   9.212   4.671   8.943  2.1136 -0.7020 -0.7527
  358MOL0     H49380   9.481   4.650   8.997  0.9246  0.5014 -0.6715
  358MOL0     H49381   9.492   4.817   8.949  0.8814 -0.8178  0.4690
  358MOL0     H49382   9.401   4.587   8.791 -0.9474 -0.0637 -2.0353
  358MOL0     H49383   9.554   4.665   8.769 -0.0641 -1.8475  0.1690
  358MOL0     H49384   8.705   4.418   9.162 -1.4828  0.0312  0.5963
  358MOL0     H49385   8.497   4.321   9.199  2.1282  2.1693 -2.0483
  358MOL0     H49386   8.305   3.938   9.181  0.9517  0.3849  1.3464
  358MOL0     H49387   8.085   3.830   9.127  1.7713  0.5046 -0.0839
  358MOL0     H49388   6.096   3.602   8.832 -0.9170 -2.2240 -0.8674
  358MOL0     H49389   5.846   3.587   8.776  1.6123 -0.7367 -0.2249
  358MOL0     H49390   5.417   3.732   8.920 -3.6023  1.4917  0.8467
  358MOL0     H49391   5.179   3.733   8.882 -2.3752 -0.6298 -0.1155
  358MOL0     H49392   4.978   3.752   8.770  2.2111  1.7781 -2.1461
  358MOL0     H49393   5.062   3.699   8.636 -1.7752  1.6573 -1.6083
  358MOL0     H49394   4.827   3.702   8.572 -3.1065  0.1230 -0.3117
  358MOL0     H49395   4.780   3.643   8.729 -0.1837 -3.4093  0.0816
  358MOL0     H49396   4.889   3.423   8.629  0.3703  1.3421  2.1185
  358MOL0     H49397   4.723   3.485   8.570  0.5265  0.1264  1.2926
  358MOL0     H49398   4.987   3.507   8.422  0.3080 -2.7234  0.0530
  358MOL0     H49399   4.837   3.597   8.372  0.2887 -0.2890 -0.8104
  358MOL0     H49400   4.776   3.175   8.283  2.1212 -2.1199  1.6360
  358MOL0     H49401   5.202   3.358   8.697 -0.5832  3.3949 -2.3636
  358MOL0     H49402   5.536   3.344   8.642 -0.7279  1.5411  0.3146
  358MOL0     H49403   5.532   3.253   8.794  1.7620  4.0857  1.7960
  358MOL0     H49404   5.399   3.226   8.692 -2.5871  1.9509  1.7098
  359MOL0     O49405   8.863   5.820  10.261 -0.5244  0.3167 -0.1336
  359MOL0     C49406   8.910   5.753  10.175  0.9521  0.1036 -1.2251
  359MOL0     O49407   9.039   5.729  10.153 -0.0625 -0.5727 -0.1724
  359MOL0     C49408   9.129   5.740  10.256  0.1183  0.1659 -0.9220
  359MOL0     C49409   9.231   5.828  10.233 -0.1542  0.2709 -0.6146
  359MOL0     C49410   9.342   5.832  10.321  0.3104 -0.3703  0.4428
  359MOL0     C49411   9.354   5.742  10.420 -0.7505 -0.1155 -0.2473
  359MOL0     O49412   9.457   5.741  10.508 -0.0619  0.3198 -0.2973
  359MOL0     C49413   9.586   5.719  10.445 -0.1918 -0.1460  0.3429
  359MOL0     C49414   9.598   5.582  10.386  0.8768 -0.3446  0.1631
  359MOL0     C49415   9.652   5.486  10.486  0.5702 -0.0584 -0.7786
  359MOL0     C49416   9.693   5.353  10.417 -0.1220  0.2170  0.3456
  359MOL0     C49417   9.748   5.254  10.518  0.5768 -0.3909  0.0651
  359MOL0     C49418   9.807   5.122  10.472 -0.0915 -0.3034  0.5294
  359MOL0     C49419   9.951   5.143  10.414 -0.1221  1.0178 -0.3356
  359MOL0     C49420  10.005   5.007  10.360 -0.2928  0.3421 -0.6217
  359MOL0     N49421  10.124   5.021  10.277 -0.1286  0.3097 -0.3184
  359MOL0     C49422  10.249   4.988  10.312  0.4798 -0.1290  0.5289
  359MOL0     C49423  10.335   5.041  10.226 -0.5328 -0.3643  0.2112
  359MOL0     C49424  10.480   5.005  10.218 -0.2331 -0.4677 -0.2521
  359MOL0     C49425  10.516   4.850  10.187 -0.0106 -0.7056  0.3051
  359MOL0     C49426  10.668   4.833  10.170 -0.0611 -0.4049 -1.1029
  359MOL0     C49427  10.695   4.693  10.107 -0.0609  0.4903 -1.0378
  359MOL0     O49428  10.666   4.694   9.969 -0.5999 -0.4323  0.4922
  359MOL0     C49429  10.694   4.571   9.905 -0.3516 -0.3867  0.3033
  359MOL0     C49430  10.699   4.440   9.964 -0.3538  0.3644  0.1501
  359MOL0     C49431  10.741   4.329   9.889 -0.4155  1.0577  0.3047
  359MOL0     C49432  10.772   4.203   9.964 -0.4818  0.2877 -0.0676
  359MOL0     C49433  10.754   4.339   9.749 -0.9846 -0.3190  0.4442
  359MOL0     C49434  10.785   4.228   9.658  0.7316  0.5361 -0.0557
  359MOL0     O49435  10.822   4.269   9.539 -0.6373  0.4109  0.9581
  359MOL0     C49436  10.831   4.186   9.433 -0.3396 -0.4732 -1.1684
  359MOL0     C49437  10.761   4.232   9.324  0.2476 -0.0422 -0.7416
  359MOL0     C49438  10.747   4.160   9.207  0.1328 -0.7616 -0.9459
  359MOL0     C49439  10.834   4.057   9.185 -0.0087 -0.5283  0.2304
  359MOL0     O49440  10.848   3.979   9.074  0.7625  0.3577  0.4051
  359MOL0     C49441  10.812   4.031   8.943 -0.4184 -0.3424 -0.6477
  359MOL0     C49442  10.830   3.937   8.827 -0.1352  0.3820 -0.0598
  359MOL0     C49443  10.735   3.825   8.826 -0.1914  0.6356 -0.3330
  359MOL0     C49444  10.753   3.721   8.943 -0.3534 -0.3078  0.3894
  359MOL0     C49445  10.892   3.682   8.979 -0.2067  0.2700  0.1502
  359MOL0     C49446  10.987   3.596   8.884  0.4586 -0.1302  0.5279
  359MOL0     C49447  11.104   3.526   8.964 -0.7916  0.3560 -0.3271
  359MOL0     C49448  11.164   3.407   8.879  1.1209  0.6135 -0.2063
  359MOL0    Cl49449  11.213   3.439   8.706 -0.4415 -0.4620  0.1380
  359MOL0     C49450  10.906   4.016   9.291  0.1618  0.6467  0.6430
  359MOL0     C49451  10.912   4.070   9.418 -0.6490 -0.0973  0.0531
  359MOL0     O49452  10.777   4.110   9.687  0.6341 -0.0123 -0.6971
  359MOL0     C49453  10.734   4.471   9.699  0.6432  0.7877  0.1150
  359MOL0     C49454  10.723   4.588   9.771  0.7301  0.0505 -0.1038
  359MOL0     N49455  10.257   5.104  10.129  0.1426 -0.4420 -0.3335
  359MOL0     N49456  10.137   5.105  10.174 -0.5043 -0.4168  0.2315
  359MOL0     C49457   9.249   5.653  10.446 -0.0716  0.2820 -0.4850
  359MOL0     C49458   9.130   5.654  10.366 -0.0598 -0.0382 -0.1818
  359MOL0     C49459   8.818   5.689  10.081 -0.3977 -0.1068  0.1631
  359MOL0     C49460   8.877   5.587  10.004  0.1691  0.1731 -0.2809
  359MOL0     C49461   8.794   5.517   9.914  0.1994 -0.2022 -0.0639
  359MOL0     C49462   8.664   5.559   9.892 -0.2945  0.6179  0.8644
  359MOL0     O49463   8.602   5.498   9.786 -0.1525  0.1918  0.4650
  359MOL0     C49464   8.524   5.588   9.701  0.2549 -0.6010  0.3785
  359MOL0     C49465   8.497   5.510   9.572 -0.5697  0.4144 -0.0459
  359MOL0     C49466   8.383   5.572   9.485 -0.5578  0.4775  0.5542
  359MOL0     C49467   8.377   5.490   9.352 -0.2073  0.5357 -0.3680
  359MOL0     C49468   8.285   5.566   9.261 -0.1354  0.7814 -0.1964
  359MOL0     C49469   8.194   5.624   9.203 -0.0915 -0.2996  0.2875
  359MOL0     C49470   8.606   5.658   9.972 -0.6059  0.0550 -0.6379
  359MOL0     C49471   8.684   5.720  10.068 -0.1142  0.3001 -0.0121
  359MOL0     C49472   8.608   5.813  10.162 -0.8141 -1.0393  0.5761
  359MOL0     H49473   9.241   5.903  10.156  0.4238  2.0912  1.1291
  359MOL0     H49474   9.405   5.921  10.331 -0.8529  0.5312 -0.0124
  359MOL0     H49475   9.651   5.739  10.531 -0.8771 -0.2392  0.8966
  359MOL0     H49476   9.596   5.791  10.363  1.4396 -0.6489  0.0721
  359MOL0     H49477   9.508   5.539  10.341  0.5684 -0.4339  0.8431
  359MOL0     H49478   9.667   5.592  10.302 -1.6037  0.7014 -1.8964
  359MOL0     H49479   9.734   5.540  10.533 -0.5567  1.3777 -0.3948
  359MOL0     H49480   9.575   5.467  10.561  1.7173  0.4118  0.5469
  359MOL0     H49481   9.615   5.304  10.358  0.9570  0.4949 -1.4120
  359MOL0     H49482   9.778   5.373  10.351  0.5606  2.8375  1.8700
  359MOL0     H49483   9.683   5.234  10.603 -0.1783 -0.9131 -0.6223
  359MOL0     H49484   9.834   5.312  10.555  0.5593  1.5443 -2.6430
  359MOL0     H49485   9.812   5.054  10.558  1.5539  1.6798  2.0923
  359MOL0     H49486   9.754   5.066  10.394  1.0375 -1.7501  0.7436
  359MOL0     H49487  10.022   5.173  10.492 -0.6964  2.5812 -0.3731
  359MOL0     H49488   9.958   5.214  10.331  3.9788  0.0158 -1.0454
  359MOL0     H49489  10.027   4.935  10.439 -2.9589 -1.5086 -1.4280
  359MOL0     H49490   9.927   4.955  10.303 -1.5378  0.0440  1.2851
  359MOL0     H49491  10.279   4.926  10.396  1.4012  0.8898  0.9903
  359MOL0     H49492  10.531   5.033  10.311 -0.1712 -1.3189 -0.0241
  359MOL0     H49493  10.515   5.062  10.131 -0.4451  1.9224  1.1241
  359MOL0     H49494  10.478   4.797  10.274 -2.0065  3.7072  2.4446
  359MOL0     H49495  10.465   4.826  10.094  0.1913 -0.4763  0.1337
  359MOL0     H49496  10.706   4.911  10.104 -0.7363 -0.3824 -1.4658
  359MOL0     H49497  10.714   4.840  10.270 -1.1644  0.2695 -0.6254
  359MOL0     H49498  10.799   4.667  10.127  0.3522  2.9925  0.5820
  359MOL0     H49499  10.633   4.625  10.165  1.8158  0.1230  0.6688
  359MOL0     H49500  10.664   4.426  10.066  0.1067  2.9498  0.7319
  359MOL0     H49501  10.879   4.182   9.956 -0.2136  1.9364 -1.5400
  359MOL0     H49502  10.705   4.127   9.924  0.6801 -0.7882 -0.0042
  359MOL0     H49503  10.746   4.224  10.068  1.7587 -0.3030  0.6557
  359MOL0     H49504  10.705   4.323   9.341  0.3022 -0.3896  1.6582
  359MOL0     H49505  10.682   4.195   9.128  1.7486  1.9436 -1.2075
  359MOL0     H49506  10.709   4.066   8.941  0.1485  1.4685 -0.8306
  359MOL0     H49507  10.876   4.118   8.923 -0.7249  0.1234  0.3351
  359MOL0     H49508  10.816   3.996   8.736  0.3219 -0.4757 -0.7026
  359MOL0     H49509  10.934   3.902   8.834  0.0369  1.1160  1.5727
  359MOL0     H49510  10.743   3.768   8.733  2.7049 -3.9304  2.3667
  359MOL0     H49511  10.638   3.875   8.838  0.4465  1.4130  2.1020
  359MOL0     H49512  10.706   3.625   8.923 -2.4537  0.8209 -0.4457
  359MOL0     H49513  10.708   3.753   9.038  2.6482 -2.3167  2.6969
  359MOL0     H49514  10.949   3.769   9.011  1.4844 -0.8683  0.3724
  359MOL0     H49515  10.892   3.608   9.059 -0.6207 -1.1660 -1.1123
  359MOL0     H49516  11.025   3.662   8.806  0.9551 -0.6082  0.3591
  359MOL0     H49517  10.927   3.518   8.836 -2.4101 -0.2425  3.9217
  359MOL0     H49518  11.065   3.474   9.052 -3.4125 -0.6682 -1.9924
  359MOL0     H49519  11.182   3.596   8.999 -2.1848  2.2097 -0.7761
  359MOL0     H49520  11.098   3.320   8.883 -0.9502  2.1431  1.7197
  359MOL0     H49521  11.258   3.380   8.929  0.7360  1.1670  0.8503
  359MOL0     H49522  10.968   3.928   9.280 -2.4103 -1.4351  1.6291
  359MOL0     H49523  10.985   4.033   9.489 -0.2389 -2.9549 -1.6892
  359MOL0     H49524  10.757   4.487   9.594 -1.0405 -1.5829 -0.7060
  359MOL0     H49525  10.727   4.684   9.721  0.9523 -1.4089 -3.0809
  359MOL0     H49526   9.261   5.579  10.524 -1.8993 -0.5299 -0.9177
  359MOL0     H49527   9.052   5.579  10.367  1.3451 -1.7604  3.9022
  359MOL0     H49528   8.978   5.552  10.024 -1.2774 -2.3884  4.0570
  359MOL0     H49529   8.834   5.435   9.855 -2.1689 -0.7660 -0.9945
  359MOL0     H49530   8.429   5.609   9.751  0.0939 -1.5669  0.5059
  359MOL0     H49531   8.569   5.685   9.680  0.2835 -0.8436 -0.7497
  359MOL0     H49532   8.450   5.417   9.607 -0.9562 -0.0316 -1.6556
  359MOL0     H49533   8.591   5.506   9.517  0.2831  2.1108  1.1779
  359MOL0     H49534   8.290   5.560   9.540  0.1359 -2.2539  1.2520
  359MOL0     H49535   8.397   5.680   9.472 -0.6201  0.2060 -2.8291
  359MOL0     H49536   8.337   5.390   9.374  0.4143 -0.3334 -2.8584
  359MOL0     H49537   8.473   5.462   9.309  0.0612 -0.3337  0.7419
  359MOL0     H49538   8.126   5.674   9.137  2.4617 -0.3303 -2.6018
  359MOL0     H49539   8.503   5.690   9.957 -0.4928  1.9624  1.9110
  359MOL0     H49540   8.619   5.791  10.269  2.4724  1.1446  0.8328
  359MOL0     H49541   8.655   5.912  10.153 -0.5530 -1.0791  1.3797
  359MOL0     H49542   8.504   5.814  10.129 -1.2441 -1.0278  1.8774
  360MOL0     O49543   9.861  10.337   0.729  0.3287  0.5627 -0.1084
  360MOL0     C49544   9.801  10.241   0.772  0.5884  0.4333  0.2589
  360MOL0     O49545   9.835  10.105   0.750  0.2162  0.4722  0.8524
  360MOL0     C49546   9.950  10.076   0.684 -0.1946  0.4900  0.4324
  360MOL0     C49547  10.075  10.112   0.740  0.0761 -1.1827  1.2372
  360MOL0     C49548  10.192  10.083   0.668 -0.1796 -0.4733  0.4515
  360MOL0     C49549  10.184  10.014   0.546 -0.0196  0.2333  0.0648
  360MOL0     O49550  10.301   9.970   0.490  0.0896 -0.2474  0.0119
  360MOL0     C49551  10.356   9.848   0.547  0.2015  0.5040  0.0567
  360MOL0     C49552  10.495   9.822   0.490  0.2576 -0.1850 -0.6704
  360MOL0     C49553  10.587   9.946   0.504 -0.2248 -0.2843 -0.4984
  360MOL0     C49554  10.729   9.913   0.460 -0.6270  0.2904 -0.2521
  360MOL0     C49555  10.825  10.025   0.504 -0.5272 -0.0478  0.2523
  360MOL0     C49556  10.973   9.984   0.473  0.0052 -0.6352 -0.1393
  360MOL0     C49557  11.076  10.084   0.535 -0.4470 -0.2856  0.0624
  360MOL0     C49558  11.057  10.217   0.461 -0.1343 -0.3419 -0.7071
  360MOL0     N49559  11.160  10.317   0.505  0.7258  0.7560 -0.5241
  360MOL0     C49560  11.252  10.386   0.427 -0.4112 -0.1563  0.4135
  360MOL0     C49561  11.314  10.472   0.518 -0.6338  0.3819  1.4199
  360MOL0     C49562  11.409  10.583   0.485 -0.3853 -0.0234 -0.0320
  360MOL0     C49563  11.563  10.565   0.502 -0.0970 -0.7817  0.1413
  360MOL0     C49564  11.620  10.697   0.461 -0.0957  0.0737  1.0151
  360MOL0     C49565  11.765  10.708   0.503  0.1294  0.3945  0.3409
  360MOL0     O49566  11.771  10.701   0.646  0.3647 -0.2497  0.0811
  360MOL0     C49567  11.895  10.713   0.709  0.4388  1.2205 -0.2824
  360MOL0     C49568  11.925  10.615   0.808 -0.1921  0.0538  0.7159
  360MOL0     C49569  12.054  10.608   0.866 -0.8495 -0.0794 -0.7418
  360MOL0     C49570  12.073  10.502   0.961 -0.3946 -0.0693 -1.1895
  360MOL0     C49571  12.157  10.690   0.815 -0.6217 -0.2299 -1.1844
  360MOL0     C49572  12.304  10.684   0.855  0.1081 -0.4659 -0.0148
  360MOL0     O49573  12.351  10.603   0.956  0.1139 -0.7203 -0.3426
  360MOL0     C49574  12.478  10.621   0.993 -1.1013 -0.6146  0.1335
  360MOL0     C49575  12.509  10.697   1.107 -0.6139  0.4873  0.3936
  360MOL0     C49576  12.637  10.697   1.165 -0.2060 -0.1665  0.2444
  360MOL0     C49577  12.736  10.606   1.125 -0.3249 -0.0953 -0.1012
  360MOL0     O49578  12.858  10.596   1.184 -0.1927 -0.3699 -0.0152
  360MOL0     C49579  12.948  10.485   1.155  0.1379  0.2125  0.3698
  360MOL0     C49580  12.895  10.350   1.195 -0.4807 -0.6174 -0.1209
  360MOL0     C49581  12.995  10.247   1.157  1.0628 -0.1293  0.2962
  360MOL0     C49582  13.121  10.239   1.239  0.2417 -0.7851 -0.1749
  360MOL0     C49583  13.221  10.129   1.195  0.2084  0.1764  0.1472
  360MOL0     C49584  13.291  10.147   1.065  0.2900  0.0042 -0.2418
  360MOL0     C49585  13.377  10.273   1.080  1.3640 -0.1843 -0.1722
  360MOL0     C49586  13.471  10.260   0.964  0.6211 -0.5694 -0.3648
  360MOL0    Cl49587  13.600  10.155   1.019 -0.5011  0.2078 -0.0589
  360MOL0     C49588  12.705  10.535   1.011 -0.0542  1.3093  0.6903
  360MOL0     C49589  12.580  10.538   0.947 -0.4563 -0.0898  0.3934
  360MOL0     O49590  12.380  10.744   0.782 -0.3977 -0.2748 -0.4027
  360MOL0     C49591  12.125  10.805   0.730 -0.1227 -0.6907  0.2982
  360MOL0     C49592  11.990  10.813   0.679 -0.2546  0.3695  0.9794
  360MOL0     N49593  11.262  10.449   0.641  0.2121 -0.0838  0.2275
  360MOL0     N49594  11.170  10.359   0.637 -0.3599  0.5550  0.2480
  360MOL0     C49595  10.054   9.968   0.502 -0.1212  0.3267 -0.6820
  360MOL0     C49596   9.943  10.011   0.563  0.9017 -0.0498  0.4153
  360MOL0     C49597   9.668  10.274   0.850 -0.1249  0.1503  0.9079
  360MOL0     C49598   9.628  10.176   0.930 -0.2387  0.7534 -0.3852
  360MOL0     C49599   9.513  10.175   1.009  0.5229 -0.3089 -0.8632
  360MOL0     C49600   9.428  10.287   1.000 -0.7417 -0.0284 -0.3002
  360MOL0     O49601   9.317  10.292   1.070  0.3196  0.2323 -0.1478
  360MOL0     C49602   9.250  10.171   1.113 -0.1668 -1.0879  0.3845
  360MOL0     C49603   9.115  10.202   1.190 -0.2706  0.2649  0.1225
  360MOL0     C49604   8.993  10.230   1.114  0.2070  0.1566 -0.1762
  360MOL0     C49605   8.971  10.385   1.129 -0.7408 -0.1425  0.4393
  360MOL0     C49606   8.840  10.415   1.064  0.1315 -0.7545  0.1459
  360MOL0     C49607   8.745  10.452   0.994 -0.7058 -0.4920 -0.7350
  360MOL0     C49608   9.474  10.397   0.922 -0.0551 -1.0691 -0.0727
  360MOL0     C49609   9.588  10.392   0.838 -0.3386 -0.4116 -0.1932
  360MOL0     C49610   9.620  10.515   0.761 -0.8661  0.1741  0.2184
  360MOL0     H49611  10.076  10.154   0.840  3.5986  1.3229  0.3568
  360MOL0     H49612  10.291  10.104   0.707  0.4429 -0.1787 -1.1676
  360MOL0     H49613  10.294   9.759   0.536  2.4634 -1.3374  1.2321
  360MOL0     H49614  10.363   9.856   0.656 -2.1470  0.3112  0.2673
  360MOL0     H49615  10.539   9.737   0.543  0.4923 -1.3104 -2.5658
  360MOL0     H49616  10.485   9.794   0.384  0.0262 -0.4608 -0.5769
  360MOL0     H49617  10.553  10.031   0.445 -0.8414  0.6064  1.0936
  360MOL0     H49618  10.590   9.982   0.607  0.0493  0.1730 -0.6654
  360MOL0     H49619  10.752   9.814   0.502 -1.0349 -0.3331 -1.4396
  360MOL0     H49620  10.743   9.902   0.352  3.9999  2.1569 -0.0559
  360MOL0     H49621  10.806  10.053   0.608 -0.2236  0.9902  0.0387
  360MOL0     H49622  10.799  10.110   0.440  0.2724  0.6200  0.8054
  360MOL0     H49623  10.991   9.883   0.510  0.4638  1.0347  5.0472
  360MOL0     H49624  10.976   9.988   0.364  1.0615  2.4870 -0.0954
  360MOL0     H49625  11.179  10.050   0.520 -0.8409 -1.1891 -0.7154
  360MOL0     H49626  11.062  10.110   0.640  2.1166  5.0783 -0.5825
  360MOL0     H49627  11.080  10.212   0.354 -1.7114 -0.0825 -1.0893
  360MOL0     H49628  10.953  10.250   0.472  0.0676 -0.0263  0.3118
  360MOL0     H49629  11.268  10.369   0.321 -2.5312  2.3355 -0.4169
  360MOL0     H49630  11.377  10.674   0.537 -4.7244 -1.1753 -0.3507
  360MOL0     H49631  11.392  10.612   0.381 -0.5699 -0.2886 -0.0774
  360MOL0     H49632  11.583  10.555   0.609  0.9905 -2.3532 -0.1682
  360MOL0     H49633  11.597  10.478   0.446  4.5872  1.2149 -0.6300
  360MOL0     H49634  11.622  10.708   0.352 -0.0114  1.4243  1.1418
  360MOL0     H49635  11.566  10.782   0.503 -1.2900 -0.0435 -0.2391
  360MOL0     H49636  11.826  10.641   0.442 -1.5399  2.0902 -3.4913
  360MOL0     H49637  11.803  10.806   0.471 -0.9625  1.6322  2.5751
  360MOL0     H49638  11.840  10.552   0.832  0.8215 -0.2863  3.8320
  360MOL0     H49639  11.974  10.464   0.989  0.0282 -0.4374 -0.1620
  360MOL0     H49640  12.114  10.543   1.053 -0.3107 -0.7347 -0.9216
  360MOL0     H49641  12.129  10.414   0.927 -3.0060 -0.9570 -3.5637
  360MOL0     H49642  12.432  10.759   1.151 -0.0026  0.3176  1.7563
  360MOL0     H49643  12.668  10.762   1.246 -2.1346  1.6974 -0.4413
  360MOL0     H49644  12.979  10.491   1.051 -3.6215  2.0378 -0.8354
  360MOL0     H49645  13.036  10.508   1.216  0.7551  1.7685 -1.0515
  360MOL0     H49646  12.873  10.352   1.302 -0.9149 -0.6843 -0.2059
  360MOL0     H49647  12.807  10.321   1.137  0.9255 -4.1590 -0.7125
  360MOL0     H49648  13.013  10.272   1.052 -0.7980  3.5125  0.6788
  360MOL0     H49649  12.952  10.147   1.168  0.8959  0.0549  1.4519
  360MOL0     H49650  13.094  10.216   1.343  0.8452 -0.5019  0.0507
  360MOL0     H49651  13.172  10.335   1.235  1.0903 -1.2558 -1.2840
  360MOL0     H49652  13.294  10.126   1.276 -0.2760  2.9198  0.7629
  360MOL0     H49653  13.162  10.037   1.202 -0.7627  0.9105  2.7392
  360MOL0     H49654  13.218  10.173   0.988  0.1540 -1.3468 -0.5958
  360MOL0     H49655  13.344  10.055   1.038  1.2575 -0.2145  2.1303
  360MOL0     H49656  13.428  10.290   1.175 -0.9661 -0.0840  1.1108
  360MOL0     H49657  13.322  10.366   1.062  0.7065  0.5591  4.5440
  360MOL0     H49658  13.504  10.362   0.939 -1.6627  0.6741  1.2601
  360MOL0     H49659  13.423  10.222   0.874  1.8019 -2.1855 -0.3457
  360MOL0     H49660  12.770  10.456   0.974  2.0487  2.7138  1.2049
  360MOL0     H49661  12.560  10.474   0.862  0.3070 -0.5909  0.5818
  360MOL0     H49662  12.195  10.877   0.687 -0.5189 -0.5469 -0.1217
  360MOL0     H49663  11.960  10.884   0.602  2.1772 -0.0616 -0.4852
  360MOL0     H49664  10.040   9.919   0.405 -0.2237 -3.3894  1.0309
  360MOL0     H49665   9.845   9.992   0.520  1.3167 -2.0905  0.2646
  360MOL0     H49666   9.691  10.088   0.931 -2.5954 -1.0653 -1.2706
  360MOL0     H49667   9.498  10.097   1.083 -4.3794 -0.6337 -1.8418
  360MOL0     H49668   9.235  10.102   1.030 -2.3623 -2.3218  1.7086
  360MOL0     H49669   9.316  10.114   1.179  1.1145  0.5886  0.6153
  360MOL0     H49670   9.135  10.277   1.267  1.6793  0.1897 -0.2430
  360MOL0     H49671   9.099  10.111   1.249 -0.0075  0.2981  0.2464
  360MOL0     H49672   8.989  10.198   1.009 -1.7405  0.8651 -0.3784
  360MOL0     H49673   8.910  10.174   1.159 -0.4349 -1.3378 -2.9697
  360MOL0     H49674   9.049  10.443   1.078 -0.9387 -0.5560 -0.3494
  360MOL0     H49675   8.961  10.412   1.234  0.5485  1.1457  0.2591
  360MOL0     H49676   8.680  10.503   0.925 -0.4612 -1.4171 -1.6834
  360MOL0     H49677   9.421  10.491   0.930 -0.4617 -1.0753 -2.0638
  360MOL0     H49678   9.590  10.608   0.809 -1.2443  0.2633 -0.1856
  360MOL0     H49679   9.728  10.533   0.765 -0.9226  1.6669 -2.4702
  360MOL0     H49680   9.571  10.517   0.663 -0.0093  0.2664 -0.2138
  361MOL0     O49681   2.596   3.215  10.111  0.2014 -0.3737  0.6356
  361MOL0     C49682   2.585   3.314  10.028 -0.4740  0.9457  0.6112
  361MOL0     O49683   2.633   3.323   9.903  0.0976 -0.0422 -0.4336
  361MOL0     C49684   2.709   3.225   9.855  0.3194 -0.5215  0.0373
  361MOL0     C49685   2.804   3.278   9.771  0.3040  1.4565  0.9648
  361MOL0     C49686   2.898   3.189   9.706 -0.8201  0.0861 -0.9506
  361MOL0     C49687   2.895   3.048   9.725  0.0197  0.2980 -0.1871
  361MOL0     O49688   2.980   2.956   9.669 -0.8439 -0.0325  0.7055
  361MOL0     C49689   3.106   3.007   9.601  0.3253  0.5766 -0.1005
  361MOL0     C49690   3.200   2.885   9.575 -0.2251  0.7175  0.3705
  361MOL0     C49691   3.252   2.829   9.705  0.0632 -0.4240  0.4451
  361MOL0     C49692   3.216   2.681   9.718 -0.4205 -0.1046 -0.2187
  361MOL0     C49693   3.323   2.618   9.804 -0.0345  0.4787 -0.1373
  361MOL0     C49694   3.295   2.473   9.850  0.0460 -0.3361  0.0726
  361MOL0     C49695   3.288   2.372   9.737 -0.5319  0.1239 -0.1072
  361MOL0     C49696   3.316   2.229   9.777 -0.7089 -0.4255  0.2140
  361MOL0     N49697   3.458   2.214   9.829  0.2980 -0.1191  0.5139
  361MOL0     C49698   3.505   2.102   9.899 -0.0408  0.3057  0.0260
  361MOL0     C49699   3.642   2.119   9.901  0.1477  0.0622  0.1598
  361MOL0     C49700   3.741   2.027   9.977  0.2977  0.1580 -0.2236
  361MOL0     C49701   3.886   2.081   9.980  0.2140  0.3646  0.1378
  361MOL0     C49702   3.996   1.985  10.015  0.0574  0.0391 -0.4998
  361MOL0     C49703   4.126   2.053   9.991 -1.0099  0.9640 -0.4199
  361MOL0     O49704   4.166   2.002   9.864 -0.1304  0.1991 -0.6051
  361MOL0     C49705   4.296   2.028   9.826  0.9851  0.5491  0.1465
  361MOL0     C49706   4.308   2.095   9.708  0.4184  0.2517 -0.7332
  361MOL0     C49707   4.435   2.124   9.659 -0.1754 -0.4098 -0.8497
  361MOL0     C49708   4.443   2.190   9.522 -0.0203 -0.0221 -0.6698
  361MOL0     C49709   4.553   2.086   9.728 -0.6799 -0.1676  0.1797
  361MOL0     C49710   4.687   2.126   9.679 -0.2904 -0.8591  0.5715
  361MOL0     O49711   4.709   2.245   9.616 -0.5686  0.9313  0.9949
  361MOL0     C49712   4.831   2.306   9.624  0.0733  0.8500  1.3863
  361MOL0     C49713   4.909   2.341   9.511  0.2431 -0.2422  0.0061
  361MOL0     C49714   5.025   2.409   9.523  0.0221  0.1935  0.1058
  361MOL0     C49715   5.079   2.452   9.646 -0.1271 -0.5258 -0.0231
  361MOL0     O49716   5.200   2.511   9.654 -0.5476  0.5707  0.0933
  361MOL0     C49717   5.277   2.480   9.774 -0.8652 -0.9262  0.4419
  361MOL0     C49718   5.418   2.531   9.759  0.8292 -0.5927  0.6900
  361MOL0     C49719   5.428   2.685   9.739  0.4807 -0.1193 -0.1601
  361MOL0     C49720   5.570   2.731   9.769 -0.3784  0.1225 -0.2754
  361MOL0     C49721   5.593   2.869   9.716  0.1972  1.3864  0.1136
  361MOL0     C49722   5.742   2.899   9.757 -0.2205 -0.0991  0.3003
  361MOL0     C49723   5.777   3.043   9.724  0.1114  0.1724  0.2376
  361MOL0     C49724   5.920   3.088   9.771  0.6234 -0.1330 -0.3167
  361MOL0    Cl49725   6.042   3.002   9.665  0.2656  0.4143  0.1588
  361MOL0     C49726   5.006   2.417   9.761  0.2197 -0.4844 -0.1453
  361MOL0     C49727   4.885   2.348   9.753  0.0716  0.1856 -0.7864
  361MOL0     O49728   4.770   2.050   9.711 -0.1310  0.1079  0.4258
  361MOL0     C49729   4.534   2.009   9.845 -0.3802  0.3265  0.4994
  361MOL0     C49730   4.401   1.984   9.900 -0.0418  0.2357  0.3467
  361MOL0     N49731   3.665   2.246   9.848  0.1794  0.3596  0.5826
  361MOL0     N49732   3.562   2.292   9.794  0.3683 -0.4908 -0.1682
  361MOL0     C49733   2.785   2.998   9.798  0.1843  0.2649 -0.2055
  361MOL0     C49734   2.690   3.091   9.864 -0.6377 -0.2377 -0.5319
  361MOL0     C49735   2.511   3.425  10.082 -0.2718 -0.5474  0.8194
  361MOL0     C49736   2.403   3.410  10.170 -0.6169  0.1118  0.2866
  361MOL0     C49737   2.339   3.510  10.233  0.0049 -0.5473  0.4714
  361MOL0     C49738   2.394   3.645  10.208  0.5794  0.0462  0.1273
  361MOL0     O49739   2.333   3.741  10.280  0.3255 -0.1605 -0.4771
  361MOL0     C49740   2.368   3.879  10.254 -0.7130  0.1346 -0.2626
  361MOL0     C49741   2.314   3.974  10.359 -0.6129  0.2545 -0.2083
  361MOL0     C49742   2.349   4.119  10.334  0.5431  0.5243  0.9394
  361MOL0     C49743   2.276   4.224  10.422 -0.3813  0.0927  0.2530
  361MOL0     C49744   2.284   4.198  10.570  0.4658 -0.4093  0.3529
  361MOL0     C49745   2.297   4.162  10.682 -0.2074 -0.1894 -0.5907
  361MOL0     C49746   2.486   3.668  10.111  0.2252 -0.3134 -0.5465
  361MOL0     C49747   2.553   3.566  10.045 -0.1949  0.0565 -0.6164
  361MOL0     C49748   2.667   3.603   9.949  0.2103  0.0879  0.6123
  361MOL0     H49749   2.809   3.384   9.749  3.7407  1.3235  0.5552
  361MOL0     H49750   2.963   3.238   9.635 -0.2001  1.0265  0.2397
  361MOL0     H49751   3.157   3.074   9.670 -1.4812  0.7329  1.1528
  361MOL0     H49752   3.084   3.046   9.501  0.1678  1.9428  0.4563
  361MOL0     H49753   3.153   2.808   9.513  0.6842 -1.5566  2.3408
  361MOL0     H49754   3.281   2.929   9.516 -0.7454  0.2997 -0.6934
  361MOL0     H49755   3.358   2.855   9.710 -0.2519  1.4043 -1.0624
  361MOL0     H49756   3.213   2.877   9.796  1.5606  2.7295 -0.4384
  361MOL0     H49757   3.119   2.656   9.762  1.1214 -3.5779  1.5612
  361MOL0     H49758   3.216   2.629   9.621 -0.7388 -0.5756  0.0254
  361MOL0     H49759   3.343   2.682   9.890 -4.0361  1.7132  0.0701
  361MOL0     H49760   3.414   2.609   9.744  0.9496  1.4470  1.1711
  361MOL0     H49761   3.375   2.444   9.919  0.7561 -0.8821 -0.9498
  361MOL0     H49762   3.202   2.460   9.906  0.4575 -0.4858  0.7437
  361MOL0     H49763   3.376   2.388   9.673 -0.4988  1.6975  0.3008
  361MOL0     H49764   3.188   2.375   9.694  0.2154  1.2306 -1.8923
  361MOL0     H49765   3.250   2.202   9.860 -0.3115 -0.8441  0.3960
  361MOL0     H49766   3.300   2.164   9.691 -1.1696  2.4998 -2.0942
  361MOL0     H49767   3.444   2.019   9.932  1.8407 -0.5028  1.6553
  361MOL0     H49768   3.745   1.937   9.916  1.4565  0.5468 -0.7480
  361MOL0     H49769   3.709   2.002  10.079  0.1865 -0.6280 -0.4459
  361MOL0     H49770   3.911   2.122   9.882 -2.4072  1.9200  0.0428
  361MOL0     H49771   3.883   2.164  10.050  1.7200  2.6036 -2.2735
  361MOL0     H49772   3.990   1.956  10.120 -1.1496  0.0836 -0.5473
  361MOL0     H49773   3.995   1.890   9.960  1.3725 -0.8274  0.8851
  361MOL0     H49774   4.121   2.162   9.986 -0.4449  0.9616 -1.1162
  361MOL0     H49775   4.192   2.028  10.074 -0.8857  0.0648 -0.7803
  361MOL0     H49776   4.217   2.122   9.655  0.5675  0.4936 -0.8704
  361MOL0     H49777   4.519   2.150   9.455  2.9418  2.5866  0.8694
  361MOL0     H49778   4.455   2.296   9.545 -0.6713 -0.1988  0.6130
  361MOL0     H49779   4.340   2.185   9.485  0.2521  0.4613 -1.5109
  361MOL0     H49780   4.885   2.316   9.408  1.4191 -1.0121 -0.1016
  361MOL0     H49781   5.068   2.442   9.429 -2.3891  0.5887 -0.9256
  361MOL0     H49782   5.242   2.541   9.857  0.1501  0.3828 -0.0642
  361MOL0     H49783   5.275   2.374   9.802 -1.8426 -1.0309 -0.0007
  361MOL0     H49784   5.471   2.515   9.853  2.3598  1.1270  0.1715
  361MOL0     H49785   5.463   2.490   9.668  1.8985  1.8984  0.0185
  361MOL0     H49786   5.362   2.732   9.812 -0.5526 -1.6683 -0.0679
  361MOL0     H49787   5.387   2.717   9.643 -1.3251 -1.1297  0.2392
  361MOL0     H49788   5.625   2.658   9.709 -1.7610 -0.4907 -0.8475
  361MOL0     H49789   5.603   2.709   9.871 -1.1005  0.4302  0.0342
  361MOL0     H49790   5.584   2.869   9.606  1.0350  3.0211  0.0157
  361MOL0     H49791   5.519   2.944   9.746 -3.5717 -0.2823 -3.8008
  361MOL0     H49792   5.799   2.830   9.694  0.7723 -0.8002  1.8963
  361MOL0     H49793   5.756   2.875   9.863 -0.2498 -1.9979 -0.0809
  361MOL0     H49794   5.704   3.113   9.766  0.1165  0.0824  0.3979
  361MOL0     H49795   5.757   3.066   9.619 -0.9479  0.4037  0.4717
  361MOL0     H49796   5.942   3.069   9.876 -1.0851  2.5741  0.6448
  361MOL0     H49797   5.919   3.197   9.767 -0.5943 -0.0584  1.1509
  361MOL0     H49798   5.042   2.438   9.861 -0.1919  0.5494 -0.2013
  361MOL0     H49799   4.827   2.316   9.839  1.0740 -0.7497 -0.4278
  361MOL0     H49800   4.618   1.976   9.905 -1.0921  0.2565  1.4807
  361MOL0     H49801   4.397   1.921   9.988  1.2193 -1.2527 -0.6110
  361MOL0     H49802   2.783   2.891   9.811 -1.3577  0.5712  3.1114
  361MOL0     H49803   2.615   3.039   9.924  1.9861 -4.6076 -0.5666
  361MOL0     H49804   2.379   3.306  10.188 -0.6649  0.0821  0.0580
  361MOL0     H49805   2.261   3.489  10.305  0.5659 -0.6158  1.0725
  361MOL0     H49806   2.477   3.873  10.259 -0.7118 -2.3410 -1.4922
  361MOL0     H49807   2.352   3.912  10.150  1.0761  4.0654  0.5259
  361MOL0     H49808   2.360   3.948  10.455  0.4837  2.8647  0.0542
  361MOL0     H49809   2.207   3.960  10.370 -0.4692  0.6664  2.2144
  361MOL0     H49810   2.458   4.129  10.337  0.4460  1.7666  0.7646
  361MOL0     H49811   2.321   4.139  10.230  2.6436 -0.6208  0.0759
  361MOL0     H49812   2.171   4.213  10.395 -0.4166  0.4121  0.2603
  361MOL0     H49813   2.308   4.323  10.389  1.6559 -0.9177 -1.0470
  361MOL0     H49814   2.290   4.118  10.779 -0.0626  1.9958  0.4687
  361MOL0     H49815   2.516   3.766  10.073  0.6572 -0.5295 -0.7657
  361MOL0     H49816   2.642   3.577   9.846 -1.7349 -1.5227  1.4243
  361MOL0     H49817   2.700   3.707   9.955  1.2816 -0.2315  0.3768
  361MOL0     H49818   2.751   3.540   9.979  0.9755 -1.0780 -3.3638
  362MOL0     O49819   3.503   4.348  10.840 -0.2476  0.2853  0.6663
  362MOL0     C49820   3.613   4.382  10.797  0.1069 -0.5865 -0.1728
  362MOL0     O49821   3.734   4.323  10.823 -0.7892 -0.5305 -0.5434
  362MOL0     C49822   3.757   4.235  10.925  0.8537  0.4033  0.2497
  362MOL0     C49823   3.659   4.158  10.995  0.1129 -0.0815 -0.2156
  362MOL0     C49824   3.706   4.057  11.082 -0.3304 -0.3671  0.5320
  362MOL0     C49825   3.834   4.026  11.106 -0.2839 -0.2483 -0.3372
  362MOL0     O49826   3.851   3.917  11.185  0.3091  0.1204  0.5002
  362MOL0     C49827   3.985   3.854  11.185  0.5219 -0.2623 -0.9055
  362MOL0     C49828   3.998   3.705  11.235  0.4165  0.3067  0.2722
  362MOL0     C49829   4.141   3.658  11.257 -0.6310 -0.2428 -0.1962
  362MOL0     C49830   4.145   3.531  11.341 -0.2571 -0.3080 -0.6030
  362MOL0     C49831   4.290   3.491  11.357  0.5037 -0.0335 -0.2373
  362MOL0     C49832   4.306   3.341  11.383  0.0439  0.3310 -0.1035
  362MOL0     C49833   4.463   3.329  11.406  0.4232  0.3587 -0.0448
  362MOL0     C49834   4.494   3.185  11.456  0.6221  0.1575  0.0934
  362MOL0     N49835   4.635   3.176  11.485 -0.2188 -0.8409 -0.5937
  362MOL0     C49836   4.691   3.181  11.609 -0.6929  0.0909  0.0026
  362MOL0     C49837   4.822   3.165  11.592 -0.0557 -0.3400 -0.2938
  362MOL0     C49838   4.931   3.169  11.691 -0.5435 -0.6374 -0.6161
  362MOL0     C49839   4.963   3.319  11.722 -0.4302  0.5565  0.2738
  362MOL0     C49840   4.852   3.397  11.791 -0.3379 -0.1655  0.8152
  362MOL0     C49841   4.914   3.531  11.832  0.1614  0.6881  0.0901
  362MOL0     O49842   4.900   3.626  11.728  0.0586  0.3260  0.0498
  362MOL0     C49843   4.778   3.668  11.696  0.5670  0.1029 -0.5500
  362MOL0     C49844   4.764   3.714  11.571  0.2916  1.1718  0.1502
  362MOL0     C49845   4.645   3.776  11.523 -1.2644  0.8751  0.0833
  362MOL0     C49846   4.662   3.827  11.385 -0.3192  0.6185 -0.7789
  362MOL0     C49847   4.538   3.800  11.614 -1.1468  0.4124 -0.7459
  362MOL0     C49848   4.420   3.877  11.584  1.4277 -0.7012 -1.0472
  362MOL0     O49849   4.331   3.900  11.691 -0.5070  0.4004  0.3393
  362MOL0     C49850   4.208   3.956  11.665  0.2980  0.4135 -0.1637
  362MOL0     C49851   4.122   3.883  11.581  0.2303  0.2240 -0.4243
  362MOL0     C49852   4.000   3.940  11.554 -0.1603 -0.1556 -0.1175
  362MOL0     C49853   3.958   4.062  11.599 -0.1379 -0.3458  0.8480
  362MOL0     O49854   3.830   4.112  11.581 -0.4749  0.0427  0.0391
  362MOL0     C49855   3.748   4.067  11.468  0.6642  0.3154 -0.0424
  362MOL0     C49856   3.612   4.128  11.498 -0.5094 -0.6177  0.2539
  362MOL0     C49857   3.492   4.097  11.404  0.3530 -0.1683  1.3521
  362MOL0     C49858   3.448   3.945  11.380 -0.8453 -0.0220 -0.2534
  362MOL0     C49859   3.334   3.928  11.281 -0.0134 -0.3119 -0.1530
  362MOL0     C49860   3.205   3.995  11.312 -0.1272  0.6994 -0.2598
  362MOL0     C49861   3.086   3.943  11.227 -0.6372 -0.9721  0.2149
  362MOL0     C49862   3.013   3.835  11.304  0.2609  0.8354 -0.1116
  362MOL0    Cl49863   2.896   3.929  11.402 -0.0022 -0.2563  0.1055
  362MOL0     C49864   4.046   4.135  11.684  0.1717  0.0291 -0.3639
  362MOL0     C49865   4.175   4.081  11.714 -0.1767 -0.3101  0.5071
  362MOL0     O49866   4.390   3.902  11.470  0.2375 -0.1475  0.5412
  362MOL0     C49867   4.556   3.751  11.752  1.1605  0.1975 -0.5809
  362MOL0     C49868   4.676   3.689  11.785  0.9675  0.0628 -0.1796
  362MOL0     N49869   4.849   3.164  11.457  0.5787  0.3549 -0.3747
  362MOL0     N49870   4.737   3.175  11.391 -0.4665  0.6935  1.1790
  362MOL0     C49871   3.934   4.099  11.039 -0.8855  0.0388 -0.2877
  362MOL0     C49872   3.891   4.198  10.947 -0.7003 -0.8967  0.2618
  362MOL0     C49873   3.625   4.506  10.722 -0.3367 -0.4930  0.0460
  362MOL0     C49874   3.733   4.522  10.629  0.4830  0.7474 -0.3909
  362MOL0     C49875   3.737   4.631  10.540 -0.3204  0.6092 -0.3453
  362MOL0     C49876   3.641   4.732  10.542 -0.1901 -0.6676 -0.0044
  362MOL0     O49877   3.630   4.846  10.465 -0.0171  0.3285 -0.3447
  362MOL0     C49878   3.655   4.808  10.326 -0.7066  0.4672 -0.3339
  362MOL0     C49879   3.637   4.934  10.241 -0.0999 -0.4835 -1.5132
  362MOL0     C49880   3.495   4.985  10.242  0.1224  1.1130  0.1498
  362MOL0     C49881   3.466   5.100  10.148 -0.3544  0.0122 -1.2994
  362MOL0     C49882   3.327   5.132  10.150  0.3714  0.1351 -0.6395
  362MOL0     C49883   3.210   5.167  10.154  0.4961 -0.1288  0.4926
  362MOL0     C49884   3.543   4.721  10.639 -0.1000  0.6361  0.0587
  362MOL0     C49885   3.530   4.615  10.728  0.9299  0.2276 -0.5465
  362MOL0     C49886   3.421   4.622  10.830 -0.3640 -0.0195  0.6493
  362MOL0     H49887   3.550   4.161  10.992  0.0015 -2.1324  0.4861
  362MOL0     H49888   3.644   3.986  11.135 -0.9852  0.2691  0.6385
  362MOL0     H49889   4.047   3.913  11.253  3.5020 -2.3343 -1.6435
  362MOL0     H49890   4.035   3.854  11.088  1.5007 -0.5035 -0.4113
  362MOL0     H49891   3.944   3.689  11.329  0.8634  1.1437  0.6782
  362MOL0     H49892   3.958   3.635  11.160  1.6143 -0.0922 -0.0099
  362MOL0     H49893   4.206   3.657  11.169  5.0022  2.0532  3.3569
  362MOL0     H49894   4.182   3.737  11.322  1.8795 -0.8734 -0.8950
  362MOL0     H49895   4.104   3.550  11.441 -0.9332  4.3955 -1.5718
  362MOL0     H49896   4.088   3.444  11.305  1.8624 -2.6930  1.3797
  362MOL0     H49897   4.315   3.553  11.444 -0.1275  0.6937 -0.5585
  362MOL0     H49898   4.347   3.507  11.265 -2.7608  0.2687 -2.3789
  362MOL0     H49899   4.248   3.317  11.472 -2.4680  0.8653 -1.5131
  362MOL0     H49900   4.260   3.295  11.295 -0.8551  1.2603 -0.1364
  362MOL0     H49901   4.496   3.401  11.482  1.7722 -1.9527  1.6983
  362MOL0     H49902   4.521   3.338  11.314 -0.4792 -3.4295 -1.1540
  362MOL0     H49903   4.435   3.162  11.545  0.2317  2.1248  0.3762
  362MOL0     H49904   4.462   3.124  11.371  0.0536 -1.8655  1.6876
  362MOL0     H49905   4.655   3.196  11.710  3.9978 -1.9300  2.2643
  362MOL0     H49906   5.022   3.122  11.653  0.6656  2.3018 -1.6293
  362MOL0     H49907   4.911   3.112  11.782  0.4883 -0.5794 -0.3478
  362MOL0     H49908   5.057   3.324  11.777 -0.8137 -1.7523  1.2402
  362MOL0     H49909   4.980   3.370  11.627 -1.4572 -1.3127 -0.9619
  362MOL0     H49910   4.766   3.411  11.724  1.1453 -2.8131 -1.9206
  362MOL0     H49911   4.820   3.341  11.879 -1.2395  1.6417  1.7011
  362MOL0     H49912   4.866   3.548  11.929 -0.5675 -1.6573  0.2006
  362MOL0     H49913   5.017   3.509  11.862 -0.5851 -0.1743  2.2012
  362MOL0     H49914   4.848   3.691  11.505 -0.1306  2.2612 -0.8164
  362MOL0     H49915   4.738   3.763  11.340 -0.9175 -1.4571  0.9577
  362MOL0     H49916   4.696   3.929  11.367 -0.9826  1.2942  1.5143
  362MOL0     H49917   4.566   3.806  11.337 -1.3116  2.6863  0.1562
  362MOL0     H49918   4.126   3.776  11.564 -2.5820  0.1302 -0.9722
  362MOL0     H49919   3.936   3.888  11.483  0.7902 -2.2214  0.4740
  362MOL0     H49920   3.791   4.115  11.380  1.1597  0.7393  0.4250
  362MOL0     H49921   3.739   3.959  11.455 -1.1042  0.2885  1.0358
  362MOL0     H49922   3.585   4.096  11.599  0.0703  2.4552  1.5010
  362MOL0     H49923   3.623   4.236  11.516 -2.2320 -0.5422  1.0858
  362MOL0     H49924   3.500   4.151  11.309 -0.1877 -0.9310  0.8662
  362MOL0     H49925   3.403   4.145  11.446  0.0214 -1.7247  2.4957
  362MOL0     H49926   3.405   3.905  11.472  1.8782  0.4023  1.3142
  362MOL0     H49927   3.532   3.884  11.346 -1.5130 -2.6970  2.4946
  362MOL0     H49928   3.357   3.969  11.183 -0.7703 -1.0115 -0.6445
  362MOL0     H49929   3.319   3.820  11.271  1.3883 -0.6329  0.9079
  362MOL0     H49930   3.218   4.102  11.290  0.4802  0.7205  0.1973
  362MOL0     H49931   3.175   3.989  11.417  0.3516  1.2481 -0.0847
  362MOL0     H49932   3.129   3.900  11.136  0.9113  0.9503 -0.0207
  362MOL0     H49933   3.027   4.032  11.202  2.0539  0.6777 -0.6740
  362MOL0     H49934   3.091   3.784  11.360 -0.1552  1.4940  1.0849
  362MOL0     H49935   2.952   3.774  11.236 -0.5678 -0.2549  1.5440
  362MOL0     H49936   4.006   4.227  11.727 -1.1580  0.3638 -2.1775
  362MOL0     H49937   4.241   4.129  11.785  0.2861 -1.9744  1.2496
  362MOL0     H49938   4.473   3.758  11.821 -1.2087 -4.4194 -2.4526
  362MOL0     H49939   4.678   3.646  11.885 -1.2821 -1.4970 -0.7221
  362MOL0     H49940   4.040   4.078  11.048 -1.1150 -1.8968 -1.5173
  362MOL0     H49941   3.966   4.255  10.892 -0.4284 -1.1351  0.3885
  362MOL0     H49942   3.805   4.441  10.620  0.2092  0.7208 -3.3538
  362MOL0     H49943   3.818   4.654  10.472 -1.6058  0.2899 -2.0415
  362MOL0     H49944   3.759   4.777  10.321 -0.3556  1.2741  1.2823
  362MOL0     H49945   3.595   4.720  10.300  1.4698 -1.5686  1.1468
  362MOL0     H49946   3.682   4.923  10.142 -1.3299  1.1854 -2.3042
  362MOL0     H49947   3.700   5.010  10.287  0.1733 -2.3723  1.4735
  362MOL0     H49948   3.417   4.913  10.214  0.7379 -0.4402  2.1550
  362MOL0     H49949   3.477   5.022  10.344  0.0158  0.9144  0.2045
  362MOL0     H49950   3.506   5.070  10.050  3.7595 -2.9781  0.9742
  362MOL0     H49951   3.530   5.187  10.164  0.7974 -1.3751  2.6267
  362MOL0     H49952   3.106   5.190  10.152 -0.0888 -1.6632  4.2678
  362MOL0     H49953   3.463   4.793  10.647  1.5092  2.4483  0.5964
  362MOL0     H49954   3.456   4.603  10.932  2.7744  1.3422 -0.0585
  362MOL0     H49955   3.378   4.723  10.832 -3.6035 -1.2506 -0.2352
  362MOL0     H49956   3.351   4.540  10.813  0.7092 -0.8351  0.0506
  363MOL0     O49957   1.255  10.299   6.194  0.0767  1.1358  0.3834
  363MOL0     C49958   1.193  10.286   6.295  0.0923  0.6216 -1.4843
  363MOL0     O49959   1.247  10.288   6.421 -0.1860 -0.3358  0.2281
  363MOL0     C49960   1.386  10.285   6.433  0.4111 -1.3391  0.0659
  363MOL0     C49961   1.445  10.398   6.494  1.0242 -0.5056 -0.2058
  363MOL0     C49962   1.577  10.415   6.493 -1.2047  0.6500 -0.2896
  363MOL0     C49963   1.661  10.306   6.439  0.7952 -0.2220  0.1853
  363MOL0     O49964   1.797  10.305   6.448  0.5312  0.6279 -0.1642
  363MOL0     C49965   1.864  10.308   6.324  0.0911  0.2827  0.3226
  363MOL0     C49966   1.992  10.389   6.335 -0.4481 -0.0681 -0.8295
  363MOL0     C49967   1.972  10.525   6.272 -0.3917  0.2179 -0.2104
  363MOL0     C49968   2.098  10.613   6.261  0.8841  0.8695  0.3470
  363MOL0     C49969   2.092  10.729   6.159 -0.5997 -0.6370 -0.4645
  363MOL0     C49970   2.238  10.790   6.143 -0.0578 -0.4971  0.4497
  363MOL0     C49971   2.240  10.893   6.030 -0.0363 -0.2868  0.8276
  363MOL0     C49972   2.364  10.958   5.985 -0.4494 -0.2285 -0.7058
  363MOL0     N49973   2.412  11.032   6.110  0.4359  0.4296  0.2386
  363MOL0     C49974   2.495  10.990   6.212 -0.6292  0.5304  0.0092
  363MOL0     C49975   2.507  11.087   6.300  0.3166  0.3676 -1.0266
  363MOL0     C49976   2.583  11.088   6.430  0.0388 -0.6109  0.3269
  363MOL0     C49977   2.523  11.003   6.545  0.7582 -0.2662  0.0725
  363MOL0     C49978   2.381  11.030   6.598 -0.1273  0.1178 -0.1920
  363MOL0     C49979   2.367  11.172   6.642 -0.0716 -0.5299 -0.1516
  363MOL0     O49980   2.234  11.195   6.696 -0.6273 -0.6528 -0.0459
  363MOL0     C49981   2.119  11.218   6.619  0.2826 -0.3707 -0.5317
  363MOL0     C49982   2.099  11.210   6.483  0.1969 -0.6139 -0.0513
  363MOL0     C49983   1.981  11.235   6.416 -0.0319  0.3305  0.9506
  363MOL0     C49984   1.989  11.217   6.263 -0.2926  0.4656 -0.7823
  363MOL0     C49985   1.864  11.269   6.484  1.3998  0.5531  0.3083
  363MOL0     C49986   1.726  11.296   6.423  1.5454  0.1259 -0.5580
  363MOL0     O49987   1.709  11.297   6.289 -0.1702 -0.5276  0.0395
  363MOL0     C49988   1.586  11.332   6.240 -0.5238 -0.6474 -0.1556
  363MOL0     C49989   1.493  11.236   6.205  0.4557  0.0821  0.5065
  363MOL0     C49990   1.369  11.272   6.151 -0.0255 -0.4019  0.6821
  363MOL0     C49991   1.341  11.406   6.127 -0.1394 -1.3028 -0.4854
  363MOL0     O49992   1.215  11.432   6.086 -0.0043  0.5175  0.1159
  363MOL0     C49993   1.211  11.510   5.967  0.0013 -0.9571  0.2250
  363MOL0     C49994   1.084  11.480   5.894 -0.0723 -0.1432 -0.1169
  363MOL0     C49995   1.082  11.337   5.834 -0.2637 -0.5731 -0.2918
  363MOL0     C49996   1.169  11.308   5.722 -0.8424 -0.0979 -0.0796
  363MOL0     C49997   1.132  11.182   5.632 -0.4727  0.3588 -0.2539
  363MOL0     C49998   1.238  11.161   5.523 -0.1919  0.2261  0.6660
  363MOL0     C49999   1.208  11.042   5.431  0.5715 -0.0496  0.1187
  363MOL0     C50000   1.233  10.903   5.495  0.1859 -0.1607  0.1491
  363MOL0    Cl50001   1.403  10.871   5.512  0.0980 -0.1071  0.5591
  363MOL0     C50002   1.440  11.501   6.157  0.3391  0.1914  0.5751
  363MOL0     C50003   1.565  11.462   6.211  0.2071 -0.4887  0.9188
  363MOL0     O50004   1.635  11.304   6.506 -0.3446  0.5049 -0.0021
  363MOL0     C50005   1.879  11.281   6.630  0.7789 -0.0582 -0.4233
  363MOL0     C50006   2.005  11.249   6.691 -0.0245 -1.2079 -0.6086
  363MOL0     N50007   2.436  11.195   6.244 -0.3567 -0.0883  0.0804
  363MOL0     N50008   2.388  11.163   6.126  0.4479  0.3155 -0.1522
  363MOL0     C50009   1.597  10.198   6.374  0.6323  0.2458 -0.2895
  363MOL0     C50010   1.455  10.185   6.370  0.6459 -0.7407 -0.2674
  363MOL0     C50011   1.050  10.270   6.273  0.1519  0.7549  0.6103
  363MOL0     C50012   1.008  10.258   6.137  0.2271 -0.6091  0.2477
  363MOL0     C50013   0.886  10.205   6.099 -0.8099  0.0609  0.1229
  363MOL0     C50014   0.793  10.174   6.202  0.2551 -0.7541 -0.6147
  363MOL0     O50015   0.665  10.137   6.183  0.1659  0.0941  0.8974
  363MOL0     C50016   0.637  10.100   6.050  0.3187  0.6254  1.5707
  363MOL0     C50017   0.492  10.054   6.046  0.5014  0.5197  0.3829
  363MOL0     C50018   0.396  10.179   6.058  0.0677 -0.7016  0.0949
  363MOL0     C50019   0.263  10.130   6.022 -0.2192  0.3675 -0.0752
  363MOL0     C50020   0.175  10.245   6.031  1.2235 -0.6714 -1.0788
  363MOL0     C50021   0.095  10.335   6.041  0.5486 -0.1223 -0.0689
  363MOL0     C50022   0.832  10.196   6.338  0.0121  0.3734 -0.7019
  363MOL0     C50023   0.954  10.250   6.368  0.3695  0.6728  0.2351
  363MOL0     C50024   0.977  10.268   6.515  0.7222  0.1584 -1.0859
  363MOL0     H50025   1.381  10.479   6.527  2.3185 -0.2733  1.9380
  363MOL0     H50026   1.625  10.500   6.541  2.0987 -0.4985 -1.2656
  363MOL0     H50027   1.799  10.344   6.244 -1.5663 -3.2975 -0.1657
  363MOL0     H50028   1.888  10.203   6.302 -0.5556  0.0196  0.8168
  363MOL0     H50029   2.012  10.400   6.442 -3.0380  0.1245 -0.2877
  363MOL0     H50030   2.080  10.350   6.284 -0.4077  0.7498 -1.4027
  363MOL0     H50031   1.945  10.503   6.169  1.4799  0.6742 -0.8306
  363MOL0     H50032   1.897  10.581   6.328  0.0437 -0.1991  0.8191
  363MOL0     H50033   2.129  10.656   6.356 -1.7689 -0.4229  1.9196
  363MOL0     H50034   2.168  10.542   6.217 -1.6904 -1.0931 -0.8389
  363MOL0     H50035   2.023  10.804   6.198  0.5140 -0.5022  1.3345
  363MOL0     H50036   2.060  10.687   6.063 -1.1767  1.2449 -1.1548
  363MOL0     H50037   2.275  10.830   6.238 -0.3012 -0.8051  0.6748
  363MOL0     H50038   2.310  10.712   6.118 -0.8553 -1.0585 -0.1512
  363MOL0     H50039   2.175  10.973   6.067 -0.6242 -0.8390  1.0175
  363MOL0     H50040   2.197  10.843   5.942  1.1453  0.3583 -0.1354
  363MOL0     H50041   2.435  10.883   5.949 -0.5356 -0.1221 -1.1022
  363MOL0     H50042   2.337  11.036   5.913  4.7477  1.8735 -0.7511
  363MOL0     H50043   2.534  10.888   6.212  0.4427  0.8781  1.8574
  363MOL0     H50044   2.581  11.189   6.472 -1.0858 -1.3390  2.1623
  363MOL0     H50045   2.685  11.054   6.411 -0.6008 -2.1371 -0.6375
  363MOL0     H50046   2.510  10.904   6.501 -2.8118  0.3243 -0.5027
  363MOL0     H50047   2.593  10.992   6.629 -0.8806 -2.1269  1.2793
  363MOL0     H50048   2.317  11.001   6.513  0.6751 -3.4192  0.2425
  363MOL0     H50049   2.360  10.961   6.680 -0.1925  0.3756  0.0091
  363MOL0     H50050   2.443  11.192   6.718  1.1572 -1.6542 -1.0257
  363MOL0     H50051   2.384  11.232   6.552 -0.0319 -0.2155  0.0671
  363MOL0     H50052   2.183  11.169   6.427  2.4127  0.3116  2.3590
  363MOL0     H50053   1.917  11.147   6.219  0.7368  0.7419 -3.0643
  363MOL0     H50054   2.086  11.182   6.226  0.5168  2.1064 -0.2815
  363MOL0     H50055   1.966  11.307   6.205 -0.4226  0.7586 -0.2817
  363MOL0     H50056   1.514  11.134   6.235 -1.4643 -0.1152  1.3153
  363MOL0     H50057   1.287  11.207   6.122 -0.6838  1.2618 -1.5628
  363MOL0     H50058   1.205  11.617   5.986  2.8863 -0.3523 -1.5723
  363MOL0     H50059   1.297  11.497   5.901 -0.0101  0.6333 -0.1387
  363MOL0     H50060   1.002  11.488   5.966 -0.4609 -2.8319 -0.1359
  363MOL0     H50061   1.066  11.553   5.815 -0.8594 -1.1810 -0.9361
  363MOL0     H50062   0.982  11.328   5.793 -1.0151  0.9122  1.1062
  363MOL0     H50063   1.098  11.259   5.910  0.9248  0.1280  0.2129
  363MOL0     H50064   1.271  11.306   5.761 -0.2342  0.3422 -1.5727
  363MOL0     H50065   1.162  11.392   5.652 -0.4044 -0.6693 -0.8287
  363MOL0     H50066   1.127  11.093   5.695 -1.4740  1.4365  1.2702
  363MOL0     H50067   1.041  11.197   5.574 -0.7526  0.7938  0.2815
  363MOL0     H50068   1.338  11.147   5.563 -1.0469 -1.1753  2.4874
  363MOL0     H50069   1.245  11.250   5.459  4.4030 -0.2761  0.1342
  363MOL0     H50070   1.266  11.038   5.338  0.0573  1.7031 -0.3060
  363MOL0     H50071   1.108  11.041   5.387  1.4604  0.5795 -2.0245
  363MOL0     H50072   1.202  10.827   5.423 -0.7186  0.6047 -0.2938
  363MOL0     H50073   1.186  10.891   5.593  1.5522 -1.7201  0.6456
  363MOL0     H50074   1.414  11.603   6.131 -2.7665 -1.3275 -3.3864
  363MOL0     H50075   1.638  11.541   6.225  0.0598  0.4367 -2.5033
  363MOL0     H50076   1.786  11.308   6.678 -0.5896  0.6101 -3.2092
  363MOL0     H50077   2.015  11.249   6.799  0.5334  0.2843 -0.6358
  363MOL0     H50078   1.660  10.121   6.333  0.3929 -1.7519  2.7477
  363MOL0     H50079   1.412  10.099   6.318 -1.4429 -1.4830  2.4766
  363MOL0     H50080   1.074  10.288   6.056  2.1569 -2.3904  1.0658
  363MOL0     H50081   0.862  10.184   5.995 -0.5243 -3.8701  0.7069
  363MOL0     H50082   0.649  10.178   5.974  0.7297 -0.7133  0.2097
  363MOL0     H50083   0.704  10.018   6.023 -0.9329  0.1895 -0.4851
  363MOL0     H50084   0.461   9.985   6.125 -0.1485  2.4887  1.8981
  363MOL0     H50085   0.479   9.994   5.955  0.6590  0.3194  0.4903
  363MOL0     H50086   0.392  10.222   6.159 -2.1512  0.0488 -0.2543
  363MOL0     H50087   0.422  10.262   5.992 -2.0319 -0.6886 -0.7999
  363MOL0     H50088   0.222  10.055   6.091 -1.8082 -1.7663 -3.1160
  363MOL0     H50089   0.253  10.089   5.921 -3.1938 -1.8326  0.9858
  363MOL0     H50090   0.023  10.414   6.053 -0.1991 -0.2980 -2.8621
  363MOL0     H50091   0.753  10.188   6.412 -0.1724  0.0004 -0.9327
  363MOL0     H50092   1.012  10.369   6.536 -3.8813  1.3826  2.3217
  363MOL0     H50093   0.884  10.247   6.569  0.9255  0.0864 -0.7639
  363MOL0     H50094   1.045  10.201   6.568 -0.3333 -1.0714 -1.2349
  364MOL0     O50095   8.580   6.045   7.525 -0.6376  0.5893  0.6522
  364MOL0     C50096   8.544   6.116   7.618 -0.0252 -1.1765  0.1673
  364MOL0     O50097   8.548   6.253   7.614 -0.0957 -0.0999 -0.3734
  364MOL0     C50098   8.583   6.311   7.495 -0.0802  0.6792  0.2362
  364MOL0     C50099   8.537   6.270   7.370 -0.1938 -0.1969  0.5757
  364MOL0     C50100   8.597   6.324   7.251 -0.1368 -0.1424  0.2569
  364MOL0     C50101   8.698   6.419   7.264 -0.7007  0.2215  0.7234
  364MOL0     O50102   8.771   6.479   7.167 -0.1362  0.0768  0.4046
  364MOL0     C50103   8.753   6.433   7.031 -0.3021 -0.2747  0.1762
  364MOL0     C50104   8.875   6.452   6.939 -0.6014 -0.1830 -0.0648
  364MOL0     C50105   9.007   6.395   6.989  1.0188  0.1348  1.1708
  364MOL0     C50106   9.066   6.477   7.104  0.6452 -0.1847 -0.3538
  364MOL0     C50107   9.216   6.465   7.087  0.2134 -0.1311 -0.1378
  364MOL0     C50108   9.263   6.323   7.117 -0.0452  0.9530 -0.4818
  364MOL0     C50109   9.413   6.302   7.109 -0.4765  0.2089  0.9221
  364MOL0     C50110   9.502   6.360   6.995 -0.1504  0.6637  0.9489
  364MOL0     N50111   9.633   6.294   6.977  0.4882  0.0368 -0.4085
  364MOL0     C50112   9.704   6.296   6.859 -0.2640  0.3734 -0.6590
  364MOL0     C50113   9.830   6.244   6.885 -0.2097 -0.7171 -0.1118
  364MOL0     C50114   9.939   6.223   6.779  0.9220  0.1430  0.3701
  364MOL0     C50115  10.076   6.173   6.840 -0.3468 -0.2741  0.3834
  364MOL0     C50116  10.172   6.117   6.728  0.7898  0.5312 -0.5525
  364MOL0     C50117  10.287   6.037   6.799  0.3823 -0.0676 -0.3106
  364MOL0     O50118  10.395   6.131   6.834  0.2522 -0.2888 -0.8946
  364MOL0     C50119  10.507   6.091   6.886 -0.3689 -0.0336  0.2766
  364MOL0     C50120  10.529   5.965   6.950  0.1189 -0.1274  0.1926
  364MOL0     C50121  10.647   5.929   7.017 -0.0136 -0.3259 -0.0576
  364MOL0     C50122  10.650   5.798   7.085  0.0700  0.2855 -0.2819
  364MOL0     C50123  10.757   6.028   7.011  0.8839  0.4690  0.1943
  364MOL0     C50124  10.892   5.999   7.070  0.3960  0.2202 -0.5310
  364MOL0     O50125  10.915   5.882   7.134 -0.5091  0.1866 -0.3979
  364MOL0     C50126  11.046   5.838   7.139 -0.6293  0.1547 -0.7721
  364MOL0     C50127  11.093   5.773   7.258 -0.2448  0.2101  0.5067
  364MOL0     C50128  11.220   5.713   7.273 -0.5828 -0.1554 -0.2333
  364MOL0     C50129  11.310   5.724   7.166 -0.3034  0.5885 -0.2245
  364MOL0     O50130  11.439   5.682   7.171 -0.2550  0.3748  0.0641
  364MOL0     C50131  11.453   5.561   7.101 -0.8044  0.3729  0.2686
  364MOL0     C50132  11.574   5.479   7.132  0.4224  1.1243 -0.2539
  364MOL0     C50133  11.601   5.455   7.287  0.3211  0.1929  0.0162
  364MOL0     C50134  11.699   5.331   7.304  0.0663  0.6130  1.0778
  364MOL0     C50135  11.747   5.321   7.444 -0.6902  0.5971  0.0974
  364MOL0     C50136  11.799   5.185   7.474  0.3899 -0.7815 -0.0318
  364MOL0     C50137  11.810   5.163   7.627 -0.7283 -0.1859 -0.0976
  364MOL0     C50138  11.695   5.087   7.689 -0.1223  0.0925 -0.4800
  364MOL0    Cl50139  11.738   5.052   7.859  0.4698 -0.1923 -0.6541
  364MOL0     C50140  11.274   5.804   7.057 -1.1475  0.2923  0.0650
  364MOL0     C50141  11.148   5.854   7.039 -0.0345 -0.4781  0.3453
  364MOL0     O50142  10.975   6.085   7.042 -0.6893  0.4498  0.5651
  364MOL0     C50143  10.725   6.156   6.948 -0.2894 -0.0420 -0.4469
  364MOL0     C50144  10.607   6.187   6.894  0.4029 -1.2835 -0.1487
  364MOL0     N50145   9.835   6.232   7.029  0.2361 -1.1490 -0.0248
  364MOL0     N50146   9.712   6.246   7.075 -0.0867  0.3833 -0.3317
  364MOL0     C50147   8.734   6.466   7.390 -0.1795  0.4710 -0.0286
  364MOL0     C50148   8.678   6.414   7.507  0.0313  0.5446  0.3934
  364MOL0     C50149   8.486   6.053   7.742 -0.5142 -0.4216 -0.0899
  364MOL0     C50150   8.392   6.116   7.818 -0.7389 -0.6443 -0.0760
  364MOL0     C50151   8.334   6.060   7.929 -0.4465  0.4295  0.3098
  364MOL0     C50152   8.372   5.937   7.971 -0.3636  0.0330  0.1779
  364MOL0     O50153   8.300   5.871   8.066 -0.1701 -0.0339  0.1873
  364MOL0     C50154   8.162   5.842   8.025  0.0884  0.6338 -0.7056
  364MOL0     C50155   8.151   5.741   7.913  0.3448  0.1824  0.5076
  364MOL0     C50156   8.194   5.607   7.965 -0.1158 -0.1067  0.5457
  364MOL0     C50157   8.188   5.512   7.843  0.4780 -0.6996  0.7175
  364MOL0     C50158   8.291   5.535   7.732  0.0738 -0.1168  0.4605
  364MOL0     C50159   8.380   5.545   7.649 -0.3299  0.6522 -1.2078
  364MOL0     C50160   8.458   5.861   7.891  0.5157  0.1527 -0.4382
  364MOL0     C50161   8.529   5.919   7.778  0.0598  0.6853  0.7497
  364MOL0     C50162   8.640   5.842   7.721  0.6322  0.7513  0.3621
  364MOL0     H50163   8.462   6.193   7.366 -1.3307  0.7813  2.1790
  364MOL0     H50164   8.565   6.290   7.153  0.5425  0.3961 -0.1647
  364MOL0     H50165   8.661   6.479   6.994 -0.9546  0.3301  2.3931
  364MOL0     H50166   8.745   6.324   7.020 -0.7086 -0.0058 -3.0252
  364MOL0     H50167   8.843   6.425   6.838  0.0829 -1.2553 -0.0108
  364MOL0     H50168   8.880   6.561   6.940  1.3918 -0.2253  1.7331
  364MOL0     H50169   8.981   6.294   7.021  0.8681 -1.1413 -2.4688
  364MOL0     H50170   9.073   6.401   6.902 -1.1019  1.5943 -0.4427
  364MOL0     H50171   9.041   6.583   7.090  0.5040  0.3024  2.7550
  364MOL0     H50172   9.029   6.443   7.201  0.5007  3.5398  1.0612
  364MOL0     H50173   9.266   6.531   7.157  0.7721 -2.3689  1.6768
  364MOL0     H50174   9.244   6.489   6.984 -2.7327 -0.4794 -1.1312
  364MOL0     H50175   9.221   6.282   7.209 -2.5570  1.3472 -1.3763
  364MOL0     H50176   9.223   6.257   7.038  3.6610 -0.0711 -1.7145
  364MOL0     H50177   9.445   6.198   7.119 -2.0047 -0.7018 -2.4546
  364MOL0     H50178   9.453   6.352   7.199 -0.8399  0.6107  0.8607
  364MOL0     H50179   9.448   6.364   6.900  0.0954 -4.0648  0.3954
  364MOL0     H50180   9.525   6.462   7.027  1.4377  0.3619  0.8542
  364MOL0     H50181   9.670   6.333   6.763 -1.4326  1.3087  0.0871
  364MOL0     H50182   9.961   6.310   6.716  1.6509  1.0294  1.7953
  364MOL0     H50183   9.901   6.142   6.715  0.2181  0.7610 -0.0153
  364MOL0     H50184  10.128   6.262   6.876  0.9193 -1.6228  2.0561
  364MOL0     H50185  10.059   6.100   6.920 -0.6493 -2.8254 -1.8650
  364MOL0     H50186  10.130   6.042   6.660  2.9378 -0.8490 -0.4649
  364MOL0     H50187  10.217   6.196   6.667 -1.9318  0.7937 -2.3721
  364MOL0     H50188  10.250   5.990   6.891  0.3920 -2.5427 -1.4929
  364MOL0     H50189  10.333   5.961   6.734  3.3891  1.0503  0.3359
  364MOL0     H50190  10.449   5.892   6.953  0.1956 -0.1974  2.8859
  364MOL0     H50191  10.735   5.733   7.064  3.5835  3.6123  2.1423
  364MOL0     H50192  10.557   5.742   7.072  0.4294 -0.2365 -0.6295
  364MOL0     H50193  10.666   5.820   7.191  2.0890  0.5110 -0.6088
  364MOL0     H50194  11.023   5.769   7.341 -2.2009  0.6605 -1.0238
  364MOL0     H50195  11.257   5.672   7.367  1.7863 -1.1595 -1.5016
  364MOL0     H50196  11.364   5.498   7.096  0.5101 -1.7227  1.3225
  364MOL0     H50197  11.475   5.599   7.001 -1.9932 -0.1026 -0.1878
  364MOL0     H50198  11.558   5.377   7.095  0.3151  1.0950 -0.1292
  364MOL0     H50199  11.660   5.524   7.083  0.3477  1.9473  0.3470
  364MOL0     H50200  11.508   5.456   7.345  0.2576  3.2043  0.0075
  364MOL0     H50201  11.637   5.549   7.329 -2.0408  1.2799 -0.2288
  364MOL0     H50202  11.781   5.341   7.233 -1.1192 -0.0352 -0.4420
  364MOL0     H50203  11.663   5.237   7.261  0.3313  1.0532 -0.1235
  364MOL0     H50204  11.826   5.395   7.454 -0.8916  0.6170  1.8053
  364MOL0     H50205  11.667   5.350   7.513 -1.6958 -0.1171 -0.7170
  364MOL0     H50206  11.901   5.182   7.432  1.4572  0.3785  2.3134
  364MOL0     H50207  11.741   5.101   7.435 -0.3281 -0.1524 -0.3555
  364MOL0     H50208  11.811   5.261   7.675 -2.6164 -0.6512  0.9963
  364MOL0     H50209  11.904   5.111   7.646  0.0565  1.6618  1.4954
  364MOL0     H50210  11.670   4.996   7.633 -2.5247 -0.0311  0.6201
  364MOL0     H50211  11.603   5.146   7.691 -1.9091 -2.3966 -2.4847
  364MOL0     H50212  11.355   5.826   6.988  0.7776  0.1648  2.1836
  364MOL0     H50213  11.128   5.905   6.946  1.0826  2.1755  1.4756
  364MOL0     H50214  10.799   6.234   6.960  0.4054 -0.6177 -0.9245
  364MOL0     H50215  10.579   6.276   6.838 -0.5898 -0.9962  0.7713
  364MOL0     H50216   8.807   6.546   7.397  0.9829 -0.4724 -1.0598
  364MOL0     H50217   8.717   6.448   7.602 -0.9473  3.6026 -0.1805
  364MOL0     H50218   8.352   6.215   7.798  0.7572 -0.5168 -3.0455
  364MOL0     H50219   8.261   6.121   7.981 -0.2597  0.5040  0.4857
  364MOL0     H50220   8.095   5.822   8.109 -1.8778  2.6936 -1.6690
  364MOL0     H50221   8.119   5.931   7.978 -0.2985  0.8409  0.0190
  364MOL0     H50222   8.209   5.774   7.826  1.1250 -2.0349  0.1326
  364MOL0     H50223   8.044   5.730   7.893  0.2887 -2.3465  1.8604
  364MOL0     H50224   8.294   5.617   8.008  1.4955  1.2875 -3.1693
  364MOL0     H50225   8.127   5.575   8.046 -1.1991  1.1476  0.1798
  364MOL0     H50226   8.089   5.506   7.797 -0.1047 -1.1309  1.9901
  364MOL0     H50227   8.202   5.408   7.876 -4.0177 -1.8316 -0.2862
  364MOL0     H50228   8.452   5.552   7.570 -0.4508 -1.1571 -1.5339
  364MOL0     H50229   8.483   5.760   7.924  1.4765  0.6473  0.4104
  364MOL0     H50230   8.606   5.808   7.623  2.4249  0.8096 -0.3266
  364MOL0     H50231   8.735   5.895   7.705  2.4890 -2.0345  1.3520
  364MOL0     H50232   8.665   5.760   7.789  3.1010  3.2600  2.7872
  365MOL0     O50233   8.159  11.198  10.852  0.1802 -0.5009  0.1661
  365MOL0     C50234   8.135  11.161  10.734  0.0067  0.0306 -0.2864
  365MOL0     O50235   8.228  11.148  10.635  0.8179 -0.1166 -0.0719
  365MOL0     C50236   8.362  11.137  10.652 -0.1369  0.0943  0.4462
  365MOL0     C50237   8.439  11.111  10.538 -0.4239  0.4451 -0.6597
  365MOL0     C50238   8.572  11.093  10.551  0.4383 -0.6560  0.1121
  365MOL0     C50239   8.645  11.104  10.673  0.3382 -0.1285  0.2757
  365MOL0     O50240   8.780  11.093  10.675 -0.1195  0.2132 -0.6485
  365MOL0     C50241   8.846  11.086  10.550  0.5941  0.3625 -0.3203
  365MOL0     C50242   8.997  11.081  10.588 -0.1651 -0.0649 -0.0172
  365MOL0     C50243   9.031  11.212  10.646 -0.2307  0.3714 -0.5002
  365MOL0     C50244   9.183  11.246  10.644 -0.0619 -1.6742 -0.1297
  365MOL0     C50245   9.208  11.394  10.698 -0.2011 -0.2211  0.2896
  365MOL0     C50246   9.346  11.424  10.766  0.0260 -0.5485  0.1561
  365MOL0     C50247   9.451  11.420  10.658  1.1219 -0.0541 -0.0556
  365MOL0     C50248   9.584  11.470  10.715  0.7322 -0.4156 -0.7200
  365MOL0     N50249   9.702  11.492  10.622 -0.1123  0.1290  0.0922
  365MOL0     C50250   9.809  11.565  10.652  1.0687 -0.1334 -0.6160
  365MOL0     C50251   9.877  11.592  10.541  0.1374  0.0944 -0.3202
  365MOL0     C50252   9.999  11.674  10.537 -0.0412  0.4985 -0.7128
  365MOL0     C50253  10.121  11.591  10.577 -0.3436  0.3447  0.7740
  365MOL0     C50254  10.245  11.674  10.583  0.0443 -0.4474  0.2891
  365MOL0     C50255  10.369  11.595  10.574  0.6992 -0.3956  0.7345
  365MOL0     O50256  10.481  11.670  10.620  0.4028 -0.2338  0.5972
  365MOL0     C50257  10.596  11.605  10.648  0.3178 -0.0995  0.7326
  365MOL0     C50258  10.640  11.496  10.572  0.2786  0.5790 -0.0625
  365MOL0     C50259  10.769  11.443  10.586  1.0429  0.0808 -0.2871
  365MOL0     C50260  10.816  11.342  10.482 -0.5111 -0.0212 -0.0053
  365MOL0     C50261  10.855  11.514  10.675 -0.1596  0.4308 -0.2783
  365MOL0     C50262  11.002  11.475  10.700  0.5637  0.3886  0.7254
  365MOL0     O50263  11.059  11.542  10.805 -0.9633 -0.3894  0.1567
  365MOL0     C50264  11.182  11.496  10.852 -0.0817 -0.7139  0.2468
  365MOL0     C50265  11.274  11.598  10.850 -0.0682  0.7479  0.1335
  365MOL0     C50266  11.409  11.559  10.890  0.3336  0.7684  0.7981
  365MOL0     C50267  11.447  11.428  10.931  0.3401  0.8487 -0.1404
  365MOL0     O50268  11.567  11.396  10.983 -0.4627 -1.3870 -0.5063
  365MOL0     C50269  11.678  11.442  10.903  0.0740  0.0709  1.1198
  365MOL0     C50270  11.796  11.341  10.906 -0.6105  0.0693  0.1628
  365MOL0     C50271  11.843  11.302  11.043  0.5199  0.6815  0.1822
  365MOL0     C50272  11.968  11.368  11.093  0.2326 -0.2560  0.5618
  365MOL0     C50273  12.067  11.287  11.169 -0.1059  0.6076 -0.5983
  365MOL0     C50274  12.201  11.367  11.201  0.0442  0.7490  0.6225
  365MOL0     C50275  12.176  11.495  11.292 -0.2064  0.3740  0.6505
  365MOL0     C50276  12.303  11.539  11.363  0.6759 -0.0953  0.1635
  365MOL0    Cl50277  12.275  11.703  11.440  0.1731  0.1081 -0.2180
  365MOL0     C50278  11.343  11.336  10.927  0.0589  0.3938  0.4800
  365MOL0     C50279  11.213  11.370  10.892 -0.7219  1.0166 -0.0770
  365MOL0     O50280  11.059  11.393  10.628  0.5786  0.5151  0.5043
  365MOL0     C50281  10.809  11.620  10.756  0.2536  0.5382  0.0301
  365MOL0     C50282  10.679  11.669  10.748  0.4694  0.0965  0.2996
  365MOL0     N50283   9.805  11.531  10.431  0.2214  1.3825 -0.2309
  365MOL0     N50284   9.709  11.467  10.491  0.2411 -0.2392  0.4633
  365MOL0     C50285   8.574  11.126  10.788 -0.1616  0.2101  0.5992
  365MOL0     C50286   8.429  11.138  10.778  0.3471 -0.2486  0.2432
  365MOL0     C50287   7.995  11.120  10.705 -0.3139  0.6009 -0.8989
  365MOL0     C50288   7.902  11.131  10.811  0.2994  0.9158  0.0972
  365MOL0     C50289   7.766  11.108  10.786 -0.0049 -0.2660 -0.1948
  365MOL0     C50290   7.724  11.062  10.661 -0.8135  0.4198 -0.4679
  365MOL0     O50291   7.584  11.049  10.655 -0.1636  0.3640  0.0524
  365MOL0     C50292   7.551  10.939  10.573 -0.1529  0.0610 -0.2804
  365MOL0     C50293   7.392  10.911  10.576  0.6451  0.1321 -0.7848
  365MOL0     C50294   7.345  10.811  10.683 -0.2317 -0.3934 -0.1956
  365MOL0     C50295   7.331  10.880  10.815  0.1158  0.3859 -0.3073
  365MOL0     C50296   7.270  10.783  10.913 -0.3144 -0.1786  0.3145
  365MOL0     C50297   7.218  10.714  10.996 -0.5548 -0.2522 -0.5758
  365MOL0     C50298   7.820  11.040  10.562 -0.2812  0.1361  0.2237
  365MOL0     C50299   7.955  11.076  10.572 -0.0679  0.4245  0.1109
  365MOL0     C50300   8.042  11.043  10.455  0.4797 -0.4327 -1.2604
  365MOL0     H50301   8.394  11.102  10.439 -0.7121  2.3941 -0.7364
  365MOL0     H50302   8.625  11.073  10.458 -0.6380  1.5106 -1.0480
  365MOL0     H50303   8.828  11.167  10.479  4.1191 -0.0077 -1.8180
  365MOL0     H50304   8.824  10.993  10.496 -2.1650  0.5853  0.2608
  365MOL0     H50305   9.017  11.003  10.662  1.4833  1.2405  0.9696
  365MOL0     H50306   9.059  11.043  10.506  0.1977 -2.3478  1.2279
  365MOL0     H50307   8.978  11.293  10.595  1.0541  2.6965  1.6217
  365MOL0     H50308   8.987  11.219  10.745  2.0834  1.3469  0.5270
  365MOL0     H50309   9.243  11.176  10.703  2.9357  1.8835  1.4029
  365MOL0     H50310   9.217  11.230  10.541  1.3292 -1.9280  0.3580
  365MOL0     H50311   9.130  11.417  10.771 -2.1797 -1.3765 -1.3194
  365MOL0     H50312   9.183  11.465  10.618 -1.8863 -1.1670 -0.0857
  365MOL0     H50313   9.349  11.517  10.822  0.3721 -0.2428 -0.3646
  365MOL0     H50314   9.381  11.349  10.837  2.7896 -0.5036 -1.0473
  365MOL0     H50315   9.418  11.494  10.584 -1.7953 -1.1421  0.0038
  365MOL0     H50316   9.463  11.331  10.596 -1.2014  0.5675 -1.5632
  365MOL0     H50317   9.562  11.556  10.778 -1.2712 -0.8951 -0.7148
  365MOL0     H50318   9.612  11.398  10.793  0.7268  0.9347  0.5635
  365MOL0     H50319   9.835  11.614  10.745  1.3995  1.3536 -1.4588
  365MOL0     H50320   9.976  11.752  10.610 -2.4071  1.8135 -2.7071
  365MOL0     H50321  10.019  11.720  10.439  0.2008 -0.3841 -1.0850
  365MOL0     H50322  10.105  11.549  10.676 -2.5777 -1.2790 -0.2036
  365MOL0     H50323  10.124  11.516  10.498 -2.6193  1.5534 -0.5570
  365MOL0     H50324  10.254  11.743  10.499  1.1984  1.3055  1.7808
  365MOL0     H50325  10.244  11.740  10.670 -2.8055 -0.8588  0.6849
  365MOL0     H50326  10.355  11.507  10.638 -2.7026 -1.2117 -0.9010
  365MOL0     H50327  10.384  11.559  10.472 -1.2936 -0.7191  0.5301
  365MOL0     H50328  10.595  11.465  10.478  0.3594  0.2998 -0.0096
  365MOL0     H50329  10.898  11.378  10.420  2.0603 -2.5067  1.6564
  365MOL0     H50330  10.736  11.301  10.420  0.9225 -1.7045 -0.8295
  365MOL0     H50331  10.854  11.258  10.541 -4.4466 -1.6064  0.5799
  365MOL0     H50332  11.242  11.691  10.804 -2.4073  0.4080  0.9285
  365MOL0     H50333  11.490  11.632  10.883  1.8192 -0.8641  0.2777
  365MOL0     H50334  11.639  11.462  10.802  0.1166  1.3968  1.3449
  365MOL0     H50335  11.715  11.530  10.957  1.0111  0.0602  0.5151
  365MOL0     H50336  11.770  11.254  10.844  2.8678  0.3146 -1.9427
  365MOL0     H50337  11.876  11.388  10.848 -1.2121 -0.2003 -0.9141
  365MOL0     H50338  11.863  11.195  11.049  0.8907  0.7825  0.7582
  365MOL0     H50339  11.760  11.329  11.108 -0.8982  1.3090 -1.7938
  365MOL0     H50340  11.936  11.454  11.153  1.2646  0.5479  0.0070
  365MOL0     H50341  12.022  11.421  11.014 -1.1752  0.8575  0.2882
  365MOL0     H50342  12.018  11.262  11.264  1.6920 -0.2595  0.1512
  365MOL0     H50343  12.088  11.207  11.098  0.6309  2.3916 -2.4778
  365MOL0     H50344  12.245  11.390  11.103 -1.4797 -0.7123 -0.4617
  365MOL0     H50345  12.266  11.297  11.253 -1.5907 -1.7676 -0.5427
  365MOL0     H50346  12.095  11.481  11.364 -1.0393 -0.0281 -0.3470
  365MOL0     H50347  12.142  11.581  11.234  0.3552  1.4473  1.8678
  365MOL0     H50348  12.384  11.554  11.291 -1.0075  1.0287 -1.6039
  365MOL0     H50349  12.337  11.463  11.434  1.1854  0.0227  0.0537
  365MOL0     H50350  11.366  11.244  10.980 -0.1340 -0.3118 -0.6304
  365MOL0     H50351  11.128  11.304  10.905  1.5668 -1.8984  1.3923
  365MOL0     H50352  10.872  11.667  10.830 -0.6872 -0.4065  1.4998
  365MOL0     H50353  10.640  11.751  10.808  0.6442 -0.4161  1.1330
  365MOL0     H50354   8.621  11.132  10.886  0.1993  1.2547  0.3671
  365MOL0     H50355   8.384  11.122  10.876  2.1337  1.0206  1.3391
  365MOL0     H50356   7.939  11.159  10.909 -0.6524  0.5177  0.5858
  365MOL0     H50357   7.689  11.135  10.857  0.5868 -3.7279  1.9888
  365MOL0     H50358   7.581  10.955  10.470  2.0884  0.1152  0.3310
  365MOL0     H50359   7.602  10.848  10.607 -2.5083 -1.1679  0.1687
  365MOL0     H50360   7.357  10.881  10.477  2.2270 -1.1283 -0.9960
  365MOL0     H50361   7.332  11.001  10.596 -1.5143 -1.5771  1.0547
  365MOL0     H50362   7.252  10.761  10.653 -0.8111  0.4892  0.1113
  365MOL0     H50363   7.419  10.732  10.697  1.3982  1.3472  1.6243
  365MOL0     H50364   7.277  10.973  10.801  0.5032  0.2991 -2.7613
  365MOL0     H50365   7.431  10.908  10.850  0.5653  0.5212 -1.6692
  365MOL0     H50366   7.185  10.663  11.084  1.2293  0.9920  0.8974
  365MOL0     H50367   7.788  11.007  10.464  2.4516 -2.9589  0.2274
  365MOL0     H50368   7.979  10.988  10.384  1.3794 -2.7860 -0.3279
  365MOL0     H50369   8.087  11.132  10.411  1.1988 -0.1998 -0.0957
  365MOL0     H50370   8.122  10.972  10.478  2.0950  0.8599 -2.6572
  366MOL0     O50371   5.520  10.038   9.041  0.0217 -0.3715  0.9855
  366MOL0     C50372   5.479   9.921   9.022  0.6449 -0.0434 -0.3673
  366MOL0     O50373   5.520   9.808   9.090 -0.2681 -0.4384 -0.2958
  366MOL0     C50374   5.600   9.834   9.203 -0.1792 -0.2391  1.0320
  366MOL0     C50375   5.739   9.802   9.212  0.7069 -0.2518  0.1597
  366MOL0     C50376   5.815   9.849   9.313 -0.0370 -0.3312  0.3755
  366MOL0     C50377   5.760   9.922   9.424 -0.1190  0.7835  0.5925
  366MOL0     O50378   5.831   9.941   9.531  0.0774 -0.0384 -0.0940
  366MOL0     C50379   5.825  10.075   9.583  0.3804  0.3249 -0.1451
  366MOL0     C50380   5.775  10.079   9.730  0.4780 -1.0213  0.1740
  366MOL0     C50381   5.881  10.007   9.823 -0.3252 -0.7208 -0.2020
  366MOL0     C50382   5.830  10.023   9.971  0.2586 -0.1000  1.1289
  366MOL0     C50383   5.925   9.956  10.077  0.5473 -0.4902  0.1478
  366MOL0     C50384   5.903   9.807  10.072  0.1119  0.5295  0.9401
  366MOL0     C50385   6.013   9.733  10.150 -0.3794 -0.2572 -0.2098
  366MOL0     C50386   6.042   9.793  10.293 -0.9897  0.9349 -0.5498
  366MOL0     N50387   6.143   9.710  10.365 -1.0751  0.2202 -0.2986
  366MOL0     C50388   6.282   9.707  10.342  0.1626  0.6589 -0.4761
  366MOL0     C50389   6.328   9.607  10.435 -0.3947 -0.0035  0.6984
  366MOL0     C50390   6.468   9.555  10.460 -0.6399  0.1397 -0.5574
  366MOL0     C50391   6.567   9.666  10.513  0.3549  0.7587  0.2238
  366MOL0     C50392   6.566   9.664  10.664  0.1504  0.2090  0.5750
  366MOL0     C50393   6.656   9.785  10.711 -0.1649  0.0632 -0.8801
  366MOL0     O50394   6.790   9.793  10.656 -0.4434  0.5632 -0.1752
  366MOL0     C50395   6.898   9.714  10.701  1.5926  0.5133 -0.6277
  366MOL0     C50396   7.015   9.727  10.644  0.7692  0.3909 -0.3451
  366MOL0     C50397   7.124   9.658  10.683  0.4321  1.4333 -0.0002
  366MOL0     C50398   7.252   9.677  10.608  0.1084  0.7700 -0.3833
  366MOL0     C50399   7.118   9.569  10.797 -0.3188  0.1745  0.4473
  366MOL0     C50400   7.240   9.501  10.858 -0.2788  0.1230 -0.1914
  366MOL0     O50401   7.295   9.392  10.792 -0.3166 -0.7490  0.9544
  366MOL0     C50402   7.417   9.357  10.844  1.3199 -0.4049  0.2674
  366MOL0     C50403   7.421   9.251  10.936 -0.0923 -0.4748 -0.0515
  366MOL0     C50404   7.547   9.207  10.972 -0.3336 -0.1724  0.7331
  366MOL0     C50405   7.666   9.266  10.926  0.2359  0.7354 -0.7333
  366MOL0     O50406   7.801   9.230  10.970 -0.3266  0.6993  1.0607
  366MOL0     C50407   7.818   9.122  11.050  0.6665  0.0861 -0.2341
  366MOL0     C50408   7.959   9.135  11.121 -0.3573 -0.8611  0.4209
  366MOL0     C50409   7.990   9.276  11.177 -0.4129  0.6199  0.2962
  366MOL0     C50410   8.141   9.279  11.207 -0.2135  0.4351 -0.1758
  366MOL0     C50411   8.183   9.416  11.257  0.0903 -0.1102 -0.4727
  366MOL0     C50412   8.338   9.409  11.284  0.7767  0.0495  0.3610
  366MOL0     C50413   8.409   9.549  11.291 -0.2490  0.1707  0.3560
  366MOL0     C50414   8.564   9.533  11.290  0.1048 -0.8486  0.0214
  366MOL0    Cl50415   8.629   9.703  11.285 -0.0700  0.2005  0.1456
  366MOL0     C50416   7.650   9.371  10.836 -0.0266 -1.1102  0.4916
  366MOL0     C50417   7.527   9.420  10.803 -0.2011 -0.1591  0.5597
  366MOL0     O50418   7.284   9.557  10.956 -0.4137  0.4406 -0.1400
  366MOL0     C50419   6.988   9.556  10.863 -0.6639 -0.2921  0.7815
  366MOL0     C50420   6.883   9.635  10.820 -0.4560 -0.0635 -0.1931
  366MOL0     N50421   6.214   9.569  10.500 -0.3764  0.5962 -0.3364
  366MOL0     N50422   6.108   9.634  10.468  0.9199 -0.2377 -0.4216
  366MOL0     C50423   5.620   9.945   9.419  0.5154  0.1174  0.5751
  366MOL0     C50424   5.548   9.908   9.310 -0.0306  0.0186 -0.4923
  366MOL0     C50425   5.372   9.906   8.930  0.0720 -0.7928  0.5652
  366MOL0     C50426   5.389   9.833   8.805  0.2853 -1.1181  0.1294
  366MOL0     C50427   5.282   9.824   8.714  0.1889 -0.4752 -0.2956
  366MOL0     C50428   5.162   9.879   8.742  0.4041  0.1293  0.1724
  366MOL0     O50429   5.068   9.851   8.650  0.3308  0.0985  0.6688
  366MOL0     C50430   4.947   9.932   8.637  0.5087  0.0644  0.5317
  366MOL0     C50431   4.952   9.993   8.489 -0.3953 -0.0884 -0.3433
  366MOL0     C50432   5.085  10.072   8.453 -0.5468  1.1528 -0.0270
  366MOL0     C50433   5.073  10.115   8.302 -0.4539  0.2679 -0.1102
  366MOL0     C50434   5.196  10.187   8.268  0.4018  0.0338 -0.4665
  366MOL0     C50435   5.304  10.233   8.221  0.3571  1.3937  0.1006
  366MOL0     C50436   5.145   9.942   8.869 -0.5890  0.1120  0.0556
  366MOL0     C50437   5.245   9.949   8.965  0.3494  0.5441  0.7297
  366MOL0     C50438   5.212  10.010   9.099 -0.0685  0.3378  0.6508
  366MOL0     H50439   5.782   9.751   9.127 -1.5604  0.6750 -1.6424
  366MOL0     H50440   5.922   9.833   9.306 -0.1620 -1.5455  0.8963
  366MOL0     H50441   5.756  10.142   9.529 -0.5254 -0.9398 -0.6031
  366MOL0     H50442   5.928  10.109   9.570  1.6000 -2.1512  2.1120
  366MOL0     H50443   5.773  10.184   9.761 -1.5412 -2.3239  5.4045
  366MOL0     H50444   5.675  10.037   9.739 -0.1666 -0.1816 -2.2511
  366MOL0     H50445   5.895   9.904   9.788  1.8821 -0.3591 -0.5330
  366MOL0     H50446   5.974  10.058   9.798 -0.7923 -0.5318 -1.6439
  366MOL0     H50447   5.813  10.124  10.009 -2.0292 -1.1509  3.2123
  366MOL0     H50448   5.734   9.972   9.968 -0.0734  0.5357  0.8036
  366MOL0     H50449   5.897  10.002  10.172 -1.7504  4.1863 -2.4193
  366MOL0     H50450   6.028   9.983  10.055  0.1781  0.7424 -0.1297
  366MOL0     H50451   5.808   9.790  10.123 -0.8670 -1.1490 -1.2812
  366MOL0     H50452   5.899   9.773   9.968  2.0451 -0.3292  1.0939
  366MOL0     H50453   6.106   9.724  10.094  0.1422 -3.4517  0.9589
  366MOL0     H50454   5.984   9.628  10.160  0.1016 -0.7741 -3.1980
  366MOL0     H50455   6.080   9.895  10.279 -0.6417  1.1912  1.8554
  366MOL0     H50456   5.951   9.807  10.351 -0.8476  3.1065 -0.7611
  366MOL0     H50457   6.338   9.759  10.265 -1.5196  1.8604 -0.9368
  366MOL0     H50458   6.511   9.514  10.367 -1.3433  0.6203 -1.1068
  366MOL0     H50459   6.465   9.478  10.537  3.0575  0.7043  0.3485
  366MOL0     H50460   6.668   9.645  10.476  1.4842  1.8138  2.4544
  366MOL0     H50461   6.543   9.770  10.488  2.5447  1.6822  1.6161
  366MOL0     H50462   6.464   9.663  10.703  0.8440 -0.2877  2.4949
  366MOL0     H50463   6.614   9.574  10.703 -0.7804 -0.7146 -0.3626
  366MOL0     H50464   6.595   9.874  10.695  0.0041  0.2111 -0.6974
  366MOL0     H50465   6.657   9.787  10.820 -0.7058  1.2684 -0.8907
  366MOL0     H50466   7.019   9.804  10.568 -0.6867  1.9407  1.0619
  366MOL0     H50467   7.261   9.605  10.527  1.0752  0.6677 -0.1927
  366MOL0     H50468   7.341   9.668  10.671  1.4031 -1.8052 -2.4209
  366MOL0     H50469   7.250   9.776  10.561  0.3758  2.5598  3.0228
  366MOL0     H50470   7.328   9.204  10.969  0.5462 -1.6539  0.1309
  366MOL0     H50471   7.555   9.114  11.027  1.8051  0.0972  0.9467
  366MOL0     H50472   7.741   9.119  11.128 -2.0788 -4.0521 -2.7519
  366MOL0     H50473   7.809   9.031  10.991 -0.8056  0.9091 -1.3575
  366MOL0     H50474   7.977   9.057  11.195  2.6106 -1.4536 -0.7876
  366MOL0     H50475   8.027   9.107  11.041 -1.1580 -0.5339 -0.3920
  366MOL0     H50476   7.931   9.292  11.268  1.9168  0.0929  2.0075
  366MOL0     H50477   7.962   9.354  11.105  0.4820  0.2567 -0.4665
  366MOL0     H50478   8.192   9.265  11.111 -0.7633 -0.3078 -0.3705
  366MOL0     H50479   8.177   9.208  11.283  1.0786  0.6914 -0.5293
  366MOL0     H50480   8.166   9.497  11.184  0.3971  0.2771 -0.1193
  366MOL0     H50481   8.136   9.444  11.352  0.9644  0.8318 -0.3036
  366MOL0     H50482   8.378   9.352  11.199  1.6057 -0.7693  1.2735
  366MOL0     H50483   8.360   9.350  11.374  0.7731 -0.6411 -0.0776
  366MOL0     H50484   8.374   9.602  11.380  0.2152 -1.2457  1.4199
  366MOL0     H50485   8.371   9.605  11.205 -2.0615 -0.1327  0.9217
  366MOL0     H50486   8.596   9.482  11.199  2.8094 -0.4904  0.6763
  366MOL0     H50487   8.586   9.471  11.377  0.7809 -1.9917 -0.9325
  366MOL0     H50488   7.738   9.405  10.782 -1.0430 -0.2937 -0.7116
  366MOL0     H50489   7.526   9.502  10.732 -0.0858  0.4259  1.2253
  366MOL0     H50490   6.968   9.488  10.945  1.5141  0.6941  2.2476
  366MOL0     H50491   6.787   9.630  10.872  0.4712  1.7974  1.8961
  366MOL0     H50492   5.567   9.992   9.501 -1.1815 -1.7313  0.6110
  366MOL0     H50493   5.439   9.918   9.311 -0.0058  0.3506 -0.8762
  366MOL0     H50494   5.479   9.788   8.765  0.1083 -1.9658  0.6710
  366MOL0     H50495   5.302   9.777   8.619 -0.8926  1.0897 -1.3313
  366MOL0     H50496   4.864   9.861   8.641  1.2411 -0.8263  0.2777
  366MOL0     H50497   4.940  10.013   8.710 -2.9534  0.5314 -0.1792
  366MOL0     H50498   4.866  10.059   8.474 -2.3118 -2.2942  0.2542
  366MOL0     H50499   4.936   9.909   8.420 -1.4121 -0.3697  0.2102
  366MOL0     H50500   5.113  10.156   8.518  1.4192  1.0523 -0.6631
  366MOL0     H50501   5.168  10.001   8.456  2.3226  4.2676  0.9745
  366MOL0     H50502   4.990  10.185   8.290  1.4743  2.4942 -1.4969
  366MOL0     H50503   5.051  10.033   8.233  0.7366 -1.8054  1.8174
  366MOL0     H50504   5.401  10.271   8.193  0.9138  2.0123  2.6250
  366MOL0     H50505   5.046   9.978   8.897 -0.2414 -0.0719  1.6108
  366MOL0     H50506   5.293  10.073   9.136  0.8968 -0.6616  0.2838
  366MOL0     H50507   5.123  10.073   9.095  0.9568  1.7359 -2.3629
  366MOL0     H50508   5.201   9.933   9.177  0.3815  1.0208  1.4092
  367MOL0     O50509   2.194   5.119   8.340  0.0925  0.1048  0.0741
  367MOL0     C50510   2.156   5.224   8.295  0.5707  0.5570 -0.2218
  367MOL0     O50511   2.040   5.290   8.337  0.4034 -0.3118 -0.1232
  367MOL0     C50512   1.961   5.230   8.434 -0.4129  0.7229  0.2834
  367MOL0     C50513   1.831   5.205   8.401  0.6212 -0.2749  0.3412
  367MOL0     C50514   1.735   5.174   8.492  0.7651 -0.1715 -0.7798
  367MOL0     C50515   1.767   5.176   8.634 -0.9790  0.1408 -0.7773
  367MOL0     O50516   1.676   5.160   8.733  0.0665  0.8241 -0.3063
  367MOL0     C50517   1.668   5.252   8.842  1.2982  0.0391 -0.9032
  367MOL0     C50518   1.521   5.240   8.902 -0.3613 -0.0897  0.7041
  367MOL0     C50519   1.488   5.096   8.924 -0.8681  1.2804  0.1300
  367MOL0     C50520   1.367   5.077   9.003  0.8081 -0.4602 -0.5007
  367MOL0     C50521   1.354   4.924   9.018  0.0568 -0.0452  0.2081
  367MOL0     C50522   1.231   4.868   9.093  0.0155 -0.0476  0.0662
  367MOL0     C50523   1.104   4.942   9.037  0.5728 -0.0491 -0.3879
  367MOL0     C50524   0.984   4.872   9.096  0.5883 -0.6301 -0.1849
  367MOL0     N50525   0.970   4.896   9.238  0.3858  0.5757 -0.8912
  367MOL0     C50526   0.943   5.012   9.305 -0.1882 -0.1363  0.5061
  367MOL0     C50527   0.935   4.970   9.429  0.1180 -0.3943 -0.2523
  367MOL0     C50528   0.906   5.066   9.544  0.0985 -0.0685 -0.0721
  367MOL0     C50529   0.851   5.001   9.668  0.6937  0.3093 -0.5639
  367MOL0     C50530   0.827   5.107   9.776  0.3932 -0.7150 -0.5830
  367MOL0     C50531   0.771   5.052   9.909 -0.3274  0.7462  1.1915
  367MOL0     O50532   0.860   4.939   9.956  0.7781  0.0327 -0.3624
  367MOL0     C50533   0.987   4.961  10.002 -0.2835  0.5681  0.1868
  367MOL0     C50534   1.053   4.845  10.052  0.2680  0.8013 -0.4861
  367MOL0     C50535   1.173   4.848  10.115  0.0420 -0.7849 -0.5313
  367MOL0     C50536   1.234   4.715  10.147 -0.2054 -0.1649  1.1140
  367MOL0     C50537   1.248   4.968  10.119 -0.3991 -0.2779  0.2116
  367MOL0     C50538   1.387   4.974  10.176 -0.0046 -0.2910 -0.4392
  367MOL0     O50539   1.434   5.102  10.181  0.0008  0.3365  0.1128
  367MOL0     C50540   1.562   5.137  10.212 -0.1604  0.2818 -1.0555
  367MOL0     C50541   1.582   5.269  10.260  1.0549  0.0602 -0.1549
  367MOL0     C50542   1.707   5.318  10.289 -0.1964  0.5426 -0.3012
  367MOL0     C50543   1.822   5.235  10.276  0.2613 -0.2682  0.2908
  367MOL0     O50544   1.952   5.275  10.320  0.1629  0.7454  0.5889
  367MOL0     C50545   1.970   5.375  10.420 -0.3764 -0.2152  0.3947
  367MOL0     C50546   2.112   5.354  10.478 -0.2030 -0.7138  0.1978
  367MOL0     C50547   2.099   5.323  10.631 -0.0385 -1.0157 -0.0494
  367MOL0     C50548   2.236   5.290  10.687 -0.6220 -0.5444 -1.5382
  367MOL0     C50549   2.236   5.251  10.841 -0.2897  0.0969  0.1060
  367MOL0     C50550   2.209   5.103  10.859  0.2349 -0.4071  0.1988
  367MOL0     C50551   2.333   5.018  10.818 -0.1986 -0.1551 -0.1082
  367MOL0     C50552   2.310   4.869  10.857  0.3720  1.1043  0.0224
  367MOL0    Cl50553   2.452   4.777  10.779 -0.1977 -0.1067 -0.0305
  367MOL0     C50554   1.803   5.109  10.219 -0.0613 -0.3795 -1.1213
  367MOL0     C50555   1.679   5.064  10.179  0.1468  0.7268 -0.0596
  367MOL0     O50556   1.453   4.877  10.210  0.4201 -0.5354  0.2693
  367MOL0     C50557   1.175   5.085  10.080 -0.4579 -0.1090  0.2979
  367MOL0     C50558   1.044   5.085  10.030 -0.2116 -0.1622  0.6748
  367MOL0     N50559   0.956   4.835   9.447  0.7547 -0.1406  0.1916
  367MOL0     N50560   0.973   4.787   9.322 -0.1772 -0.6288  0.1837
  367MOL0     C50561   1.902   5.186   8.670  0.2750 -0.1847 -0.6605
  367MOL0     C50562   1.998   5.216   8.570 -0.8986 -0.5141  0.0830
  367MOL0     C50563   2.236   5.273   8.178 -0.0636 -0.6970  0.6165
  367MOL0     C50564   2.345   5.201   8.140  0.9189  0.1209  0.4305
  367MOL0     C50565   2.408   5.234   8.021 -0.8353  0.0370 -0.7844
  367MOL0     C50566   2.386   5.353   7.944 -0.1491  0.1722 -0.8003
  367MOL0     O50567   2.454   5.394   7.838  0.1975 -0.0925 -0.7638
  367MOL0     C50568   2.582   5.339   7.823  0.9083 -0.6651  0.1595
  367MOL0     C50569   2.644   5.405   7.695 -0.0359 -0.1425  0.2521
  367MOL0     C50570   2.625   5.564   7.687  0.1883  0.3389 -0.5828
  367MOL0     C50571   2.769   5.619   7.714  0.2226 -0.0244  0.3259
  367MOL0     C50572   2.850   5.593   7.601 -1.4052  0.6978 -0.6255
  367MOL0     C50573   2.931   5.574   7.517  0.4724  0.2389 -0.0356
  367MOL0     C50574   2.274   5.419   7.984  0.2766 -0.4425 -0.0512
  367MOL0     C50575   2.194   5.379   8.093  0.2731 -0.6179 -0.0840
  367MOL0     C50576   2.058   5.448   8.096 -0.8981  0.0051  0.1547
  367MOL0     H50577   1.792   5.212   8.300 -3.3199 -2.3761  1.4981
  367MOL0     H50578   1.631   5.155   8.470  0.8623 -0.9342 -0.5997
  367MOL0     H50579   1.684   5.354   8.808  0.1617  0.3638 -0.5315
  367MOL0     H50580   1.748   5.228   8.912  2.5661  0.2078 -2.2468
  367MOL0     H50581   1.528   5.287   9.000  3.3626 -2.8253  2.0055
  367MOL0     H50582   1.461   5.296   8.829  3.6534 -1.4328 -4.2372
  367MOL0     H50583   1.482   5.040   8.830 -0.7366  2.0060 -0.3141
  367MOL0     H50584   1.571   5.050   8.979 -3.1879 -1.9555  1.2065
  367MOL0     H50585   1.393   5.134   9.092  2.1074  0.6058 -1.5181
  367MOL0     H50586   1.283   5.117   8.946  0.7815 -1.4522 -1.1948
  367MOL0     H50587   1.450   4.897   9.064 -0.0009  2.9396  2.3966
  367MOL0     H50588   1.361   4.877   8.920  0.9062 -2.3637  1.3027
  367MOL0     H50589   1.224   4.760   9.077 -2.3573 -0.3246  2.4355
  367MOL0     H50590   1.256   4.886   9.197  0.1051 -0.5277  0.1326
  367MOL0     H50591   1.094   4.934   8.929  0.9695 -0.3887 -0.4058
  367MOL0     H50592   1.098   5.049   9.057  3.0057  0.1823 -0.6260
  367MOL0     H50593   0.896   4.913   9.046  2.2012 -0.2044 -2.8801
  367MOL0     H50594   0.991   4.765   9.072 -0.3313 -0.4120 -1.5935
  367MOL0     H50595   0.913   5.105   9.257  0.3489 -0.4260 -0.4146
  367MOL0     H50596   0.831   5.137   9.507  0.0167  1.2620  2.4745
  367MOL0     H50597   0.994   5.123   9.571 -0.1923  0.2853  0.1407
  367MOL0     H50598   0.762   4.945   9.639  0.2309 -0.3556  1.9122
  367MOL0     H50599   0.919   4.926   9.708 -2.6875 -2.8263 -0.1410
  367MOL0     H50600   0.916   5.169   9.791 -0.4212  0.2710  0.3655
  367MOL0     H50601   0.747   5.172   9.739  0.1165 -0.8253 -0.1850
  367MOL0     H50602   0.759   5.115   9.997 -2.0623 -1.9005  2.9814
  367MOL0     H50603   0.673   5.013   9.880  0.4823  0.6930 -1.9045
  367MOL0     H50604   1.007   4.747  10.042 -1.2101  1.3503  0.4612
  367MOL0     H50605   1.278   4.720  10.247  3.4376  0.6972 -0.3745
  367MOL0     H50606   1.320   4.702  10.081  0.1230  0.3392  1.4359
  367MOL0     H50607   1.168   4.634  10.114 -0.3488  1.6817 -4.0329
  367MOL0     H50608   1.501   5.340  10.270 -0.3739 -1.5310  0.0652
  367MOL0     H50609   1.721   5.417  10.331 -2.9971 -0.3695  3.2826
  367MOL0     H50610   1.975   5.477  10.382  0.2241 -1.0130 -1.7821
  367MOL0     H50611   1.894   5.369  10.499 -0.0168  2.3208  1.0358
  367MOL0     H50612   2.158   5.272  10.422 -2.8369 -1.7310 -0.6315
  367MOL0     H50613   2.172   5.445  10.467 -1.2726  0.0056  0.2364
  367MOL0     H50614   2.045   5.234  10.664  0.8641 -1.9105 -0.9263
  367MOL0     H50615   2.053   5.406  10.685  0.2295 -1.1202  0.3421
  367MOL0     H50616   2.298   5.379  10.679  0.6154 -0.8915  2.1887
  367MOL0     H50617   2.285   5.209  10.632 -0.9512 -1.3596 -0.6762
  367MOL0     H50618   2.328   5.276  10.896 -0.3414  1.2179 -0.2853
  367MOL0     H50619   2.157   5.307  10.893 -0.4317  0.8801 -0.9159
  367MOL0     H50620   2.120   5.075  10.803 -0.6402 -0.8063  1.7472
  367MOL0     H50621   2.182   5.095  10.964  0.6562  2.0975  0.5528
  367MOL0     H50622   2.424   5.047  10.872  1.1015 -0.0192 -2.2730
  367MOL0     H50623   2.362   5.022  10.713 -3.1306  0.1305 -0.9836
  367MOL0     H50624   2.212   4.839  10.818 -1.3214  1.4915  3.6051
  367MOL0     H50625   2.310   4.856  10.965 -0.7059 -0.4658 -0.1253
  367MOL0     H50626   1.895   5.053  10.210  0.1625  0.1207 -2.1244
  367MOL0     H50627   1.664   4.964  10.139  2.4017  0.7992 -1.2414
  367MOL0     H50628   1.218   5.184  10.076 -1.1818  0.3072  2.1409
  367MOL0     H50629   1.006   5.175   9.984 -0.0706  0.2559  1.3631
  367MOL0     H50630   1.929   5.188   8.775  0.6357 -1.1364 -0.7239
  367MOL0     H50631   2.100   5.242   8.596 -1.3228  1.0084  0.3400
  367MOL0     H50632   2.381   5.118   8.200 -0.3168  2.1103  4.2385
  367MOL0     H50633   2.483   5.166   7.980  1.0954 -1.6247  4.6965
  367MOL0     H50634   2.648   5.371   7.905  2.6611 -1.9543 -0.6831
  367MOL0     H50635   2.581   5.230   7.809  1.8161 -0.4632 -1.8082
  367MOL0     H50636   2.618   5.360   7.598  2.5844  0.9045 -1.0449
  367MOL0     H50637   2.750   5.378   7.694 -0.0856 -0.4638  1.8487
  367MOL0     H50638   2.599   5.586   7.583  2.2233 -1.6734 -1.6010
  367MOL0     H50639   2.549   5.601   7.756  1.2774  2.6831 -0.5371
  367MOL0     H50640   2.809   5.575   7.806  0.6785  1.4700  0.8740
  367MOL0     H50641   2.754   5.726   7.734 -1.7527 -0.4177  1.1801
  367MOL0     H50642   2.999   5.565   7.435 -1.7187 -2.7327 -1.6978
  367MOL0     H50643   2.241   5.503   7.922  1.6305  0.1135 -0.0525
  367MOL0     H50644   2.048   5.530   8.024 -4.1184  1.1954  1.7494
  367MOL0     H50645   1.975   5.378   8.080 -0.6357  0.1153 -1.9103
  367MOL0     H50646   2.048   5.486   8.198  0.2037 -0.8242  0.5968
  368MOL0     O50647   9.970   2.539   0.325  0.2826  0.2349 -0.9711
  368MOL0     C50648   9.921   2.467   0.417 -0.2457  0.4472  0.0955
  368MOL0     O50649   9.999   2.403   0.505  0.0026 -0.7673 -0.7871
  368MOL0     C50650  10.139   2.397   0.491  0.0355 -0.4102 -1.1409
  368MOL0     C50651  10.207   2.356   0.372 -0.8224  0.0825 -1.0897
  368MOL0     C50652  10.343   2.356   0.378  0.5594  0.2285 -1.5962
  368MOL0     C50653  10.418   2.392   0.491  1.3663  0.3400 -0.0437
  368MOL0     O50654  10.549   2.375   0.477  0.2008  0.1018 -0.5440
  368MOL0     C50655  10.627   2.384   0.598  0.1935  0.3168 -0.1403
  368MOL0     C50656  10.775   2.355   0.576 -0.6310  0.4515  0.3351
  368MOL0     C50657  10.796   2.208   0.540 -0.5957  0.5360  0.3443
  368MOL0     C50658  10.939   2.183   0.504 -0.3528 -1.0402  0.6659
  368MOL0     C50659  10.953   2.042   0.457 -0.7339 -0.3213 -0.0584
  368MOL0     C50660  11.092   2.003   0.401  0.6229 -0.9043 -0.4995
  368MOL0     C50661  11.092   1.859   0.352  0.0461  0.1802 -0.3674
  368MOL0     C50662  11.224   1.832   0.278  0.0435  0.2690  0.3077
  368MOL0     N50663  11.221   1.728   0.171  0.3139 -0.3243 -0.6125
  368MOL0     C50664  11.282   1.609   0.159  0.5729 -0.2548 -0.2907
  368MOL0     C50665  11.273   1.569   0.033 -0.3710  0.4694 -0.2345
  368MOL0     C50666  11.314   1.438  -0.015 -0.4845 -0.2822  0.6976
  368MOL0     C50667  11.425   1.451  -0.117 -0.1369  0.0709  0.2272
  368MOL0     C50668  11.465   1.302  -0.147 -0.2305  0.3618 -0.7242
  368MOL0     C50669  11.595   1.302  -0.228  0.3525  1.0842 -1.0318
  368MOL0     O50670  11.631   1.172  -0.279 -0.1523  0.8593  0.3295
  368MOL0     C50671  11.740   1.157  -0.360 -0.6191 -0.4154 -0.0525
  368MOL0     C50672  11.782   1.032  -0.402  0.7477  0.7313  0.4502
  368MOL0     C50673  11.891   1.005  -0.484  0.3585 -0.1539  0.7599
  368MOL0     C50674  11.929   0.863  -0.505  0.1781 -0.6344  0.0952
  368MOL0     C50675  11.966   1.115  -0.538  0.4400  0.2720 -0.3080
  368MOL0     C50676  12.087   1.098  -0.625  0.4540 -0.1442 -0.1287
  368MOL0     O50677  12.154   1.222  -0.648 -0.2935 -0.4911 -0.9233
  368MOL0     C50678  12.267   1.240  -0.730 -0.4327 -0.1152  0.2271
  368MOL0     C50679  12.295   1.366  -0.771  0.3128  0.9825  0.3103
  368MOL0     C50680  12.403   1.381  -0.858 -0.1339  0.1235  0.1928
  368MOL0     C50681  12.490   1.275  -0.897  0.5341  0.6765  0.0018
  368MOL0     O50682  12.593   1.309  -0.972 -1.4628 -0.2255 -0.6583
  368MOL0     C50683  12.706   1.217  -1.001  0.7494  0.0665  0.1352
  368MOL0     C50684  12.814   1.301  -1.075 -0.2464  0.6624  0.4649
  368MOL0     C50685  12.887   1.400  -0.990  0.1951 -0.6728 -0.3410
  368MOL0     C50686  12.977   1.501  -1.059 -0.5848 -0.0240  0.1984
  368MOL0     C50687  13.097   1.439  -1.139  0.0528 -1.1128  0.2083
  368MOL0     C50688  13.192   1.387  -1.033 -0.2474  0.4328  1.1027
  368MOL0     C50689  13.317   1.340  -1.103 -0.5938  0.2390  0.3658
  368MOL0     C50690  13.417   1.283  -1.003  0.6868 -0.5472  0.2243
  368MOL0    Cl50691  13.529   1.175  -1.087 -0.2439 -0.0398 -0.3444
  368MOL0     C50692  12.460   1.145  -0.854  0.0214 -0.4455  0.3958
  368MOL0     C50693  12.358   1.135  -0.766  0.0893 -0.7126 -0.1507
  368MOL0     O50694  12.113   0.994  -0.679  1.0284 -0.8610  0.3302
  368MOL0     C50695  11.925   1.240  -0.503 -0.0477 -0.2215  0.0761
  368MOL0     C50696  11.818   1.268  -0.417  0.3212 -0.4011  0.5193
  368MOL0     N50697  11.190   1.661  -0.037 -0.4071 -0.3743 -0.0520
  368MOL0     N50698  11.163   1.753   0.048 -0.6955 -0.1595  0.5829
  368MOL0     C50699  10.350   2.428   0.614 -0.5034  0.6037  0.2052
  368MOL0     C50700  10.209   2.425   0.617  1.4547 -0.1006  0.6747
  368MOL0     C50701   9.777   2.466   0.441  0.0601 -0.4827 -1.0789
  368MOL0     C50702   9.691   2.496   0.336  0.0870 -0.1914  0.3993
  368MOL0     C50703   9.555   2.509   0.366  0.3541 -0.0636  0.6331
  368MOL0     C50704   9.501   2.470   0.486  0.4919  0.1473  0.8650
  368MOL0     O50705   9.365   2.462   0.502 -0.2795 -0.6311 -0.0943
  368MOL0     C50706   9.307   2.400   0.622 -0.0977 -0.0352 -0.0373
  368MOL0     C50707   9.176   2.332   0.604  0.3184  0.8052 -0.0045
  368MOL0     C50708   9.072   2.419   0.538  0.0844 -0.4405  0.4124
  368MOL0     C50709   8.980   2.350   0.437  0.0672 -0.2512 -0.6047
  368MOL0     C50710   8.894   2.257   0.511  0.0218  0.4796 -0.4239
  368MOL0     C50711   8.831   2.175   0.580  0.9434  0.0115 -0.6933
  368MOL0     C50712   9.589   2.446   0.585 -0.4920  0.0042  0.2660
  368MOL0     C50713   9.728   2.445   0.571  0.0996 -0.2431  1.1093
  368MOL0     C50714   9.815   2.423   0.692 -0.2818  0.2668 -0.8163
  368MOL0     H50715  10.150   2.316   0.289 -0.7090 -1.9494 -0.2290
  368MOL0     H50716  10.391   2.323   0.287  0.5877  0.2300 -1.5821
  368MOL0     H50717  10.589   2.319   0.678  2.1960  1.5866  1.9832
  368MOL0     H50718  10.632   2.488   0.634 -1.4968  1.2366 -2.3011
  368MOL0     H50719  10.831   2.419   0.507  2.3751 -0.3831  1.8478
  368MOL0     H50720  10.827   2.378   0.669 -0.2573  2.8437 -0.3996
  368MOL0     H50721  10.772   2.155   0.633  1.1229 -2.6920 -0.8887
  368MOL0     H50722  10.724   2.176   0.463  0.1651 -3.0647  0.9280
  368MOL0     H50723  10.954   2.253   0.421 -1.8284 -2.2305 -0.6821
  368MOL0     H50724  11.010   2.202   0.585 -1.4718  0.8271  1.2580
  368MOL0     H50725  10.878   2.028   0.379  1.1019  1.4376 -2.2764
  368MOL0     H50726  10.934   1.980   0.545  0.2021  1.6917  1.6313
  368MOL0     H50727  11.121   2.078   0.327  0.5383  0.6337  0.9568
  368MOL0     H50728  11.162   2.018   0.484 -3.0134  2.6538  2.3637
  368MOL0     H50729  11.010   1.848   0.280 -0.4584 -0.8446  0.3362
  368MOL0     H50730  11.080   1.781   0.428 -1.6281  0.9685  0.2388
  368MOL0     H50731  11.257   1.925   0.230  2.1933  0.5480  2.1545
  368MOL0     H50732  11.310   1.811   0.342  1.3194  1.2743 -1.0132
  368MOL0     H50733  11.328   1.551   0.238 -1.9280  0.2394  1.6506
  368MOL0     H50734  11.235   1.390  -0.073  0.6150 -1.5209  0.1857
  368MOL0     H50735  11.339   1.382   0.076 -1.0471  2.2081  2.5067
  368MOL0     H50736  11.382   1.493  -0.209 -1.2745 -1.7255 -0.1177
  368MOL0     H50737  11.509   1.507  -0.077  1.1305 -2.4107  1.2533
  368MOL0     H50738  11.474   1.228  -0.067 -0.2798  2.3214  1.1532
  368MOL0     H50739  11.392   1.262  -0.219 -1.0547  2.4149 -1.0774
  368MOL0     H50740  11.578   1.368  -0.314  0.0269  2.3217 -0.0525
  368MOL0     H50741  11.674   1.350  -0.169 -0.3597  0.5136  0.4365
  368MOL0     H50742  11.728   0.942  -0.373  2.1055 -0.6834 -1.1916
  368MOL0     H50743  11.865   0.786  -0.460  1.1254 -1.5790 -0.1270
  368MOL0     H50744  12.029   0.851  -0.463  0.4393  2.3612  0.5585
  368MOL0     H50745  11.940   0.835  -0.610 -0.4964 -2.8153  0.5525
  368MOL0     H50746  12.239   1.450  -0.730 -2.4639  0.1873 -1.5755
  368MOL0     H50747  12.430   1.475  -0.907  0.1157 -0.5291 -0.9603
  368MOL0     H50748  12.752   1.175  -0.911  0.8342  1.6938  0.8868
  368MOL0     H50749  12.679   1.136  -1.069  0.9786  1.6132 -1.8935
  368MOL0     H50750  12.880   1.224  -1.114 -4.4385 -1.3685 -3.6457
  368MOL0     H50751  12.774   1.351  -1.164  2.8286  1.0238 -0.8425
  368MOL0     H50752  12.943   1.343  -0.915 -0.9822 -1.1417  0.1969
  368MOL0     H50753  12.810   1.452  -0.932 -1.1608 -1.2317 -1.5756
  368MOL0     H50754  13.003   1.573  -0.981  1.4193  0.8418 -1.1621
  368MOL0     H50755  12.919   1.553  -1.135 -1.2947 -1.7315 -0.4846
  368MOL0     H50756  13.052   1.366  -1.208  0.6310 -0.8677 -0.4484
  368MOL0     H50757  13.137   1.515  -1.207 -1.2474 -0.6375 -0.0641
  368MOL0     H50758  13.151   1.304  -0.975  0.5360  0.6247  1.9538
  368MOL0     H50759  13.216   1.471  -0.967  1.5122 -0.6303  1.8838
  368MOL0     H50760  13.370   1.422  -1.151  2.7080 -0.6283  2.2630
  368MOL0     H50761  13.297   1.254  -1.168  2.1933  0.1500 -0.4639
  368MOL0     H50762  13.367   1.231  -0.921 -1.9920  0.9451 -0.3442
  368MOL0     H50763  13.481   1.361  -0.962 -1.3078  1.6342 -0.5851
  368MOL0     H50764  12.523   1.065  -0.891  2.0268  1.6355 -0.9944
  368MOL0     H50765  12.344   1.040  -0.715 -0.1337 -0.1159  0.9292
  368MOL0     H50766  11.982   1.328  -0.530  1.4770 -0.4584  2.2783
  368MOL0     H50767  11.794   1.371  -0.390 -0.0612  0.2784 -2.1838
  368MOL0     H50768  10.390   2.462   0.709 -0.0207 -0.4077  0.3819
  368MOL0     H50769  10.146   2.451   0.701 -1.6999  0.1568 -1.6072
  368MOL0     H50770   9.727   2.520   0.237 -2.1456  1.9632 -0.0035
  368MOL0     H50771   9.480   2.509   0.287  1.9425 -2.7012 -1.0259
  368MOL0     H50772   9.379   2.328   0.662  3.6177  2.4260 -1.7590
  368MOL0     H50773   9.294   2.470   0.705 -1.0370 -1.6374  1.2228
  368MOL0     H50774   9.122   2.288   0.689 -2.1154  0.5266 -1.5721
  368MOL0     H50775   9.198   2.250   0.535  4.2027  0.8831  0.9233
  368MOL0     H50776   9.019   2.471   0.618  1.4074 -0.4519  1.3362
  368MOL0     H50777   9.128   2.495   0.483  0.9617 -1.8308 -0.6808
  368MOL0     H50778   9.030   2.301   0.353  3.7693  0.2815  1.1286
  368MOL0     H50779   8.912   2.427   0.399 -0.5565 -1.1852 -1.4510
  368MOL0     H50780   8.765   2.106   0.629 -1.2486  0.0119 -3.4019
  368MOL0     H50781   9.545   2.443   0.685 -0.5768  0.3490  0.2406
  368MOL0     H50782   9.868   2.327   0.683 -3.1810 -1.4133 -1.3466
  368MOL0     H50783   9.884   2.506   0.708 -1.8676  1.4360  0.3302
  368MOL0     H50784   9.761   2.415   0.787  0.3174  0.3057 -0.4679
  369MOL0     O50785   5.810   7.424   5.163  0.4728  0.7062  0.5950
  369MOL0     C50786   5.734   7.525   5.147  0.2843  0.2213 -0.1299
  369MOL0     O50787   5.741   7.637   5.223  0.3937 -0.0364 -0.3398
  369MOL0     C50788   5.831   7.667   5.321  0.2888 -0.4161  0.0305
  369MOL0     C50789   5.960   7.619   5.331 -0.1526 -0.6192 -0.5255
  369MOL0     C50790   6.032   7.635   5.448 -1.1490  0.4508 -0.1837
  369MOL0     C50791   5.986   7.722   5.549  0.5449 -0.4607  0.4379
  369MOL0     O50792   6.069   7.746   5.654  0.3490  0.3032  0.4841
  369MOL0     C50793   6.017   7.828   5.760  0.3333  0.0848 -0.2194
  369MOL0     C50794   6.093   7.815   5.884 -0.5427  0.7769 -0.4692
  369MOL0     C50795   6.085   7.673   5.946 -0.6800  0.2839  0.5852
  369MOL0     C50796   6.141   7.665   6.086 -0.8114  0.1848 -0.2668
  369MOL0     C50797   6.124   7.534   6.159 -0.3663 -0.5456 -0.1221
  369MOL0     C50798   6.192   7.550   6.289  0.2304  0.3086 -0.3740
  369MOL0     C50799   6.131   7.646   6.391  0.2977 -0.4457  0.8151
  369MOL0     C50800   6.182   7.645   6.532 -0.0220 -0.8745 -0.6571
  369MOL0     N50801   6.310   7.711   6.546 -0.0157 -0.1340 -0.2228
  369MOL0     C50802   6.347   7.841   6.565 -0.3811  0.2585  0.0034
  369MOL0     C50803   6.479   7.838   6.548  0.3184  0.6026  0.6916
  369MOL0     C50804   6.564   7.958   6.577 -0.7129  0.0423 -0.0558
  369MOL0     C50805   6.691   7.968   6.490  0.3867 -0.2198 -0.2913
  369MOL0     C50806   6.801   8.067   6.552 -0.4626 -0.0139  0.7932
  369MOL0     C50807   6.889   8.134   6.449 -0.0658  0.2400 -0.8931
  369MOL0     O50808   7.015   8.064   6.457  0.7196  0.1062 -0.3042
  369MOL0     C50809   7.121   8.113   6.392 -0.2201  0.5684 -0.7500
  369MOL0     C50810   7.237   8.033   6.398  0.0535  0.2689 -0.0377
  369MOL0     C50811   7.363   8.064   6.353  0.0877  0.0541  0.0492
  369MOL0     C50812   7.466   7.961   6.373 -0.9010 -0.0998 -1.2484
  369MOL0     C50813   7.379   8.194   6.291 -0.2248  0.2539 -0.8042
  369MOL0     C50814   7.507   8.255   6.240  0.2461  0.9662  0.6619
  369MOL0     O50815   7.508   8.391   6.206 -0.1856  0.0227  0.5033
  369MOL0     C50816   7.619   8.457   6.172 -0.7090  1.5958 -0.5954
  369MOL0     C50817   7.757   8.420   6.197  0.0586 -0.2863  0.3735
  369MOL0     C50818   7.859   8.485   6.135 -0.2922  0.8030  0.2914
  369MOL0     C50819   7.826   8.580   6.042 -0.1836 -0.9359  0.0494
  369MOL0     O50820   7.931   8.631   5.976  0.0400 -0.4438 -0.4214
  369MOL0     C50821   7.928   8.591   5.842  0.1809  0.3335  0.9398
  369MOL0     C50822   8.079   8.582   5.804 -0.3537  0.6834  0.1825
  369MOL0     C50823   8.173   8.705   5.842 -0.0153  0.3855 -0.0193
  369MOL0     C50824   8.310   8.694   5.777 -0.1504 -0.4244  0.2096
  369MOL0     C50825   8.384   8.827   5.801  0.4879  0.0413 -0.0980
  369MOL0     C50826   8.539   8.817   5.823 -0.0052 -0.0906  0.1509
  369MOL0     C50827   8.602   8.947   5.777  0.3339  0.0199  0.1754
  369MOL0     C50828   8.749   8.936   5.724  0.4490 -0.6262  0.0832
  369MOL0    Cl50829   8.847   8.910   5.866  0.5573  0.1348  0.2411
  369MOL0     C50830   7.699   8.622   6.019  0.8145  0.4465 -0.4197
  369MOL0     C50831   7.591   8.562   6.085 -1.1482 -0.5549 -0.5410
  369MOL0     O50832   7.599   8.168   6.213  0.3542  0.4211 -0.0036
  369MOL0     C50833   7.263   8.274   6.281 -0.4138  0.9337  0.0839
  369MOL0     C50834   7.133   8.231   6.324 -0.4626 -0.6158 -0.5005
  369MOL0     N50835   6.526   7.708   6.524 -0.0542 -0.3543 -0.1534
  369MOL0     N50836   6.418   7.631   6.529  0.4446 -0.6269  0.3396
  369MOL0     C50837   5.854   7.776   5.537  0.2000 -0.2195  0.0600
  369MOL0     C50838   5.782   7.742   5.429  0.1368 -0.2389  0.2156
  369MOL0     C50839   5.615   7.524   5.052 -1.6297 -0.0622  0.1088
  369MOL0     C50840   5.531   7.632   5.057  0.8742  0.6657 -0.6898
  369MOL0     C50841   5.412   7.644   4.985 -0.9376  0.0190 -0.6336
  369MOL0     C50842   5.373   7.532   4.905 -0.3027 -0.6160 -0.3376
  369MOL0     O50843   5.263   7.537   4.829  0.3040  0.2051 -0.3593
  369MOL0     C50844   5.143   7.507   4.899 -0.3281  0.2310  0.7577
  369MOL0     C50845   5.105   7.358   4.897  0.1765  0.2898 -0.1009
  369MOL0     C50846   5.108   7.292   4.756  0.0289 -0.1061  0.3793
  369MOL0     C50847   5.025   7.163   4.742  0.6238  0.6647  0.3102
  369MOL0     C50848   4.880   7.190   4.782 -0.3388 -0.2472 -0.1002
  369MOL0     C50849   4.763   7.204   4.817  0.0126 -0.2375 -0.0377
  369MOL0     C50850   5.461   7.421   4.897  0.8088 -0.7144  0.7846
  369MOL0     C50851   5.585   7.421   4.960  0.3869 -0.3166 -0.4358
  369MOL0     C50852   5.678   7.306   4.930  0.0629  0.1956  0.0525
  369MOL0     H50853   6.007   7.561   5.252  0.7017 -0.3445 -0.2247
  369MOL0     H50854   6.131   7.593   5.463 -0.7139  1.5516  0.1322
  369MOL0     H50855   5.920   7.791   5.793  0.2278  0.0322 -0.5947
  369MOL0     H50856   6.004   7.933   5.731  1.9731  0.7082  1.1005
  369MOL0     H50857   6.198   7.842   5.865 -0.0638 -1.4269 -1.3290
  369MOL0     H50858   6.048   7.880   5.959  2.0043  1.3746  0.6361
  369MOL0     H50859   5.982   7.638   5.961  0.1105 -2.0904  0.8617
  369MOL0     H50860   6.138   7.599   5.886 -1.4386  0.0923  0.1389
  369MOL0     H50861   6.245   7.699   6.076 -0.6818  0.0040  0.3845
  369MOL0     H50862   6.087   7.746   6.137 -0.3713 -1.0499  2.3250
  369MOL0     H50863   6.181   7.456   6.109  2.2273  0.7875  0.5455
  369MOL0     H50864   6.021   7.501   6.173  0.1951 -2.0280  0.7794
  369MOL0     H50865   6.195   7.451   6.336 -0.8527 -1.1179 -3.0615
  369MOL0     H50866   6.297   7.576   6.273  0.4427 -1.8066 -3.3005
  369MOL0     H50867   6.022   7.639   6.388  0.0990  1.5512  1.7700
  369MOL0     H50868   6.157   7.746   6.355 -0.2917 -0.7722 -0.5758
  369MOL0     H50869   6.117   7.710   6.591  2.9362  2.3756 -0.6262
  369MOL0     H50870   6.183   7.546   6.578 -2.8635 -0.4835  0.4121
  369MOL0     H50871   6.274   7.919   6.585 -1.0804 -0.6963  1.3906
  369MOL0     H50872   6.589   7.942   6.682  1.1264 -3.3525 -0.8721
  369MOL0     H50873   6.499   8.044   6.560 -0.0042  0.6776  0.4056
  369MOL0     H50874   6.733   7.869   6.467 -1.7020 -1.2060 -0.0434
  369MOL0     H50875   6.662   8.016   6.396  2.4942  1.4471 -0.1654
  369MOL0     H50876   6.768   8.139   6.628 -2.7824  0.1037 -0.2381
  369MOL0     H50877   6.864   7.989   6.595 -1.4416 -1.2964 -0.0175
  369MOL0     H50878   6.851   8.119   6.347  0.9492 -2.1570 -0.9772
  369MOL0     H50879   6.889   8.241   6.474 -1.0040  0.3914 -1.4874
  369MOL0     H50880   7.238   7.929   6.428 -1.5386  0.3345  0.3413
  369MOL0     H50881   7.549   8.006   6.427 -1.9648  2.9376 -1.9867
  369MOL0     H50882   7.492   7.917   6.276 -1.0438 -0.1115 -1.2818
  369MOL0     H50883   7.440   7.871   6.429  0.9290 -0.7699 -1.3941
  369MOL0     H50884   7.787   8.336   6.259  0.1029 -1.1862 -0.8252
  369MOL0     H50885   7.962   8.458   6.153  0.0001  1.1345 -0.8019
  369MOL0     H50886   7.872   8.499   5.822  1.0419 -0.1840  0.8222
  369MOL0     H50887   7.879   8.662   5.774 -1.4218 -2.3474 -0.9064
  369MOL0     H50888   8.123   8.492   5.848  0.3556  0.9054 -0.0673
  369MOL0     H50889   8.098   8.575   5.696  2.2867 -0.8279  0.6778
  369MOL0     H50890   8.171   8.696   5.950 -2.8493  0.6402  0.0077
  369MOL0     H50891   8.129   8.802   5.817  0.1058  0.1211 -1.3910
  369MOL0     H50892   8.305   8.669   5.671 -0.2056  2.7935 -0.6614
  369MOL0     H50893   8.364   8.610   5.821 -0.2528 -0.2966  0.5910
  369MOL0     H50894   8.356   8.895   5.720 -3.1086 -2.8997 -1.6213
  369MOL0     H50895   8.348   8.874   5.892  3.3650  0.6221  0.8423
  369MOL0     H50896   8.572   8.725   5.773  1.3984  0.2431  0.4095
  369MOL0     H50897   8.568   8.811   5.929  0.9680  3.1535  0.1623
  369MOL0     H50898   8.589   9.021   5.856 -3.7659 -0.9955  0.6721
  369MOL0     H50899   8.540   8.997   5.703 -1.9768 -0.1381  1.9001
  369MOL0     H50900   8.782   9.028   5.675 -1.2104  0.3425  0.6943
  369MOL0     H50901   8.756   8.849   5.658 -2.3189 -0.9237  0.0545
  369MOL0     H50902   7.668   8.695   5.945 -2.1743  0.5202  0.7778
  369MOL0     H50903   7.492   8.604   6.070 -0.4474  1.2209 -0.4065
  369MOL0     H50904   7.272   8.368   6.229 -0.9555  1.3724  0.7675
  369MOL0     H50905   7.050   8.301   6.317  0.8745  0.8939 -2.6856
  369MOL0     H50906   5.803   7.822   5.621 -0.8097  0.0633 -0.6867
  369MOL0     H50907   5.674   7.740   5.417  0.2907  0.2235 -1.4410
  369MOL0     H50908   5.547   7.711   5.130  0.7882  0.7270 -0.7383
  369MOL0     H50909   5.352   7.734   4.996  0.3884  0.8504  0.1199
  369MOL0     H50910   5.145   7.533   5.006 -1.5734  0.7923  0.6638
  369MOL0     H50911   5.076   7.588   4.869  3.5327  3.5221  0.1640
  369MOL0     H50912   5.008   7.359   4.947  0.5447  0.3488  0.6425
  369MOL0     H50913   5.167   7.294   4.962  0.3710 -0.7791 -1.2930
  369MOL0     H50914   5.078   7.359   4.675  0.4491 -0.2736  0.0820
  369MOL0     H50915   5.213   7.269   4.736 -0.5451 -1.1578 -1.7197
  369MOL0     H50916   5.068   7.073   4.787 -1.0090  0.3863  1.4125
  369MOL0     H50917   5.029   7.152   4.634  0.3528  0.0314  0.3591
  369MOL0     H50918   4.659   7.209   4.844 -0.3622 -1.1857 -1.2406
  369MOL0     H50919   5.439   7.335   4.834  0.5071  0.1826 -0.3679
  369MOL0     H50920   5.785   7.326   4.924  0.0820 -0.0639 -0.5460
  369MOL0     H50921   5.659   7.226   5.002  0.5594 -2.0989 -2.2010
  369MOL0     H50922   5.656   7.266   4.831  0.4404  1.3923 -0.5348
  370MOL0     O50923   1.833   9.171   9.808 -0.3725  0.8441  0.1056
  370MOL0     C50924   1.751   9.099   9.746 -0.1510  0.2807 -0.1334
  370MOL0     O50925   1.778   8.977   9.688  0.3015  0.0742  0.1719
  370MOL0     C50926   1.899   8.905   9.696  0.7870 -0.1027 -0.2646
  370MOL0     C50927   2.023   8.966   9.689  0.5837 -0.0052  0.3412
  370MOL0     C50928   2.131   8.888   9.717 -0.5440 -0.0501 -0.0352
  370MOL0     C50929   2.122   8.748   9.756 -0.4940 -0.1009 -0.1699
  370MOL0     O50930   2.222   8.659   9.789 -0.2178 -0.6775  0.2262
  370MOL0     C50931   2.355   8.702   9.752  0.1853 -0.4652  0.3066
  370MOL0     C50932   2.464   8.608   9.796 -0.7299 -0.1479  0.8843
  370MOL0     C50933   2.602   8.654   9.752  1.0112 -0.3259  0.1124
  370MOL0     C50934   2.705   8.553   9.779 -0.7987 -0.2669  0.6327
  370MOL0     C50935   2.830   8.584   9.700  0.2519  0.4987  0.4489
  370MOL0     C50936   2.938   8.477   9.721  0.0450 -0.5312 -0.3106
  370MOL0     C50937   3.045   8.481   9.612 -0.8247 -0.9790 -0.3022
  370MOL0     C50938   3.125   8.613   9.610 -0.3421  0.4642  1.1593
  370MOL0     N50939   3.159   8.663   9.744  0.6018 -0.1369  1.0609
  370MOL0     C50940   3.230   8.593   9.837 -0.5462  0.5515 -0.8976
  370MOL0     C50941   3.231   8.674   9.951 -0.0648 -0.4769 -0.3125
  370MOL0     C50942   3.266   8.625  10.090 -0.5452  0.4137  0.0623
  370MOL0     C50943   3.266   8.720  10.206 -0.9197 -0.1707  0.1639
  370MOL0     C50944   3.280   8.653  10.346  1.3543  0.2307  0.0169
  370MOL0     C50945   3.332   8.745  10.462  0.0640  0.2416  0.4120
  370MOL0     O50946   3.472   8.784  10.444 -0.3095  0.3050  0.2167
  370MOL0     C50947   3.555   8.801  10.555 -0.3498  0.1813 -0.1018
  370MOL0     C50948   3.550   8.730  10.672 -0.1308 -0.2091  0.0679
  370MOL0     C50949   3.628   8.763  10.783 -0.3581  0.1615 -0.4710
  370MOL0     C50950   3.604   8.680  10.911 -0.2225  0.6082  0.4828
  370MOL0     C50951   3.742   8.860  10.764  0.6888  0.9117  0.0392
  370MOL0     C50952   3.865   8.875  10.845  0.2146 -0.0055 -1.0010
  370MOL0     O50953   3.952   8.986  10.822  0.1274  0.0927 -0.5941
  370MOL0     C50954   4.047   9.012  10.921 -0.3208 -0.1701  0.1992
  370MOL0     C50955   4.126   8.906  10.978  0.0576 -1.2008  0.5351
  370MOL0     C50956   4.231   8.939  11.067  0.0483  0.9153 -0.4488
  370MOL0     C50957   4.267   9.070  11.095  0.3116  0.0919 -0.1198
  370MOL0     O50958   4.360   9.094  11.190  0.0848  0.4422  0.1436
  370MOL0     C50959   4.425   9.229  11.182 -1.0433  0.4964  0.0092
  370MOL0     C50960   4.530   9.253  11.285  0.6254 -0.2827  0.6562
  370MOL0     C50961   4.663   9.211  11.228 -0.1135 -0.5389 -0.0875
  370MOL0     C50962   4.780   9.254  11.330 -0.1961 -0.6753  0.5381
  370MOL0     C50963   4.923   9.240  11.259 -0.4680  0.1781 -0.0404
  370MOL0     C50964   4.974   9.094  11.239  0.7428  0.7724 -0.5794
  370MOL0     C50965   5.095   9.094  11.148 -0.1458 -0.7849  0.6985
  370MOL0     C50966   5.224   9.164  11.192 -0.2535 -0.3633 -0.2089
  370MOL0    Cl50967   5.293   9.081  11.331 -0.0231 -0.4714  0.1744
  370MOL0     C50968   4.184   9.164  11.033  0.0183 -0.6657  1.1268
  370MOL0     C50969   4.073   9.142  10.951 -0.4582 -0.0553 -0.5781
  370MOL0     O50970   3.874   8.795  10.936 -0.1044  0.3623 -0.1299
  370MOL0     C50971   3.750   8.922  10.642 -0.5470  0.2144  0.1511
  370MOL0     C50972   3.654   8.895  10.540 -0.1743  0.4589  1.1787
  370MOL0     N50973   3.165   8.796   9.925 -0.3461  0.5601 -0.6724
  370MOL0     N50974   3.135   8.794   9.796 -0.0261  0.9390 -0.4037
  370MOL0     C50975   1.999   8.695   9.769  0.1029 -0.2866  0.0659
  370MOL0     C50976   1.885   8.773   9.734 -0.4722  0.4820 -0.4280
  370MOL0     C50977   1.608   9.155   9.731 -0.5798 -0.4462  0.7745
  370MOL0     C50978   1.522   9.086   9.645  1.6580  0.1423  0.6156
  370MOL0     C50979   1.388   9.116   9.632 -0.1214  0.5874  0.1721
  370MOL0     C50980   1.330   9.212   9.710 -0.2147  0.1257  0.1257
  370MOL0     O50981   1.197   9.236   9.714 -0.1297 -0.0114  0.0963
  370MOL0     C50982   1.103   9.163   9.635 -0.9362 -0.3110 -0.2226
  370MOL0     C50983   1.049   9.030   9.693  0.4141  0.4377  0.5870
  370MOL0     C50984   0.923   8.994   9.608 -0.0802 -0.2901 -0.2208
  370MOL0     C50985   0.828   8.903   9.687  0.5254  0.1786  0.2446
  370MOL0     C50986   0.721   8.860   9.589  0.1484  0.4573 -0.5693
  370MOL0     C50987   0.628   8.829   9.518  0.2574 -0.1875 -0.6029
  370MOL0     C50988   1.408   9.276   9.808 -0.8861 -0.4738  0.3560
  370MOL0     C50989   1.547   9.251   9.818  0.3954 -0.0770 -0.3226
  370MOL0     C50990   1.623   9.322   9.925  0.7446 -1.0586 -0.4823
  370MOL0     H50991   2.030   9.070   9.657  1.4109  0.4672  1.9125
  370MOL0     H50992   2.233   8.916   9.693 -0.2871 -1.8844 -1.2934
  370MOL0     H50993   2.382   8.794   9.805 -1.2567  1.6619 -2.3936
  370MOL0     H50994   2.348   8.726   9.646 -1.5110  2.1522  0.9205
  370MOL0     H50995   2.457   8.599   9.904 -1.2790 -2.6046  0.6943
  370MOL0     H50996   2.454   8.509   9.750  1.7176 -0.2796  0.5000
  370MOL0     H50997   2.588   8.671   9.645  0.4741 -3.1943 -0.3430
  370MOL0     H50998   2.632   8.748   9.800  4.7686 -1.6546  0.7313
  370MOL0     H50999   2.734   8.552   9.884 -2.3492 -2.3520  1.1066
  370MOL0     H51000   2.670   8.450   9.772  2.2338 -1.3938  0.5605
  370MOL0     H51001   2.867   8.687   9.714  1.7956 -0.0831  0.8621
  370MOL0     H51002   2.797   8.594   9.596 -0.4265  0.9687  0.6956
  370MOL0     H51003   2.979   8.490   9.821 -0.0762 -0.5320 -0.2599
  370MOL0     H51004   2.890   8.378   9.717 -2.0425  0.3308  1.2438
  370MOL0     H51005   3.015   8.462   9.509  3.1151  1.6023 -2.1693
  370MOL0     H51006   3.125   8.407   9.624  3.4059  2.7234 -2.5996
  370MOL0     H51007   3.223   8.591   9.567  1.1044 -0.4827  4.6345
  370MOL0     H51008   3.064   8.689   9.560 -1.1408 -2.2991 -2.6002
  370MOL0     H51009   3.283   8.499   9.828  0.7442  0.6280  3.4519
  370MOL0     H51010   3.366   8.584  10.073 -0.9951  0.1657 -2.3615
  370MOL0     H51011   3.194   8.543  10.103 -1.5717  1.2224 -0.3352
  370MOL0     H51012   3.346   8.793  10.195  0.9424 -1.8478  1.6753
  370MOL0     H51013   3.172   8.777  10.203  0.4344  2.1682 -0.5626
  370MOL0     H51014   3.184   8.606  10.367  1.2061 -1.6727 -4.0233
  370MOL0     H51015   3.351   8.572  10.331  1.0197  0.1349 -1.1961
  370MOL0     H51016   3.274   8.837  10.468 -0.6907 -0.2461  0.8591
  370MOL0     H51017   3.313   8.699  10.559  0.3937  1.2714  0.9688
  370MOL0     H51018   3.472   8.656  10.682 -0.9573  0.5152 -0.9021
  370MOL0     H51019   3.694   8.629  10.946 -1.3467 -0.0585  2.5911
  370MOL0     H51020   3.535   8.595  10.905  0.7932 -0.3833  2.0091
  370MOL0     H51021   3.571   8.757  10.982 -1.8882  1.0321 -0.6900
  370MOL0     H51022   4.103   8.809  10.935 -0.1882 -0.0541 -2.1524
  370MOL0     H51023   4.285   8.859  11.116 -0.1017  1.1065  0.0289
  370MOL0     H51024   4.456   9.243  11.078  0.1144 -1.7840 -0.0148
  370MOL0     H51025   4.344   9.297  11.211 -0.4663  1.0452  0.3751
  370MOL0     H51026   4.540   9.360  11.305  0.3026 -0.5478  2.3499
  370MOL0     H51027   4.499   9.207  11.379  1.0798  0.5313  1.2180
  370MOL0     H51028   4.681   9.260  11.132 -1.0959  0.8149  0.3840
  370MOL0     H51029   4.675   9.103  11.218 -0.0708 -0.5435  0.0083
  370MOL0     H51030   4.781   9.194  11.421 -2.3691 -2.2026 -0.3725
  370MOL0     H51031   4.771   9.361  11.351  1.8028 -0.2911 -0.3097
  370MOL0     H51032   4.895   9.255  11.154 -0.6704 -1.9501 -0.3321
  370MOL0     H51033   4.999   9.307  11.298 -0.9384  0.3388  0.6204
  370MOL0     H51034   4.893   9.031  11.202 -1.0410  1.6891  1.4921
  370MOL0     H51035   4.995   9.052  11.338 -0.0925  2.1637  0.2185
  370MOL0     H51036   5.065   9.151  11.059  1.3759  1.8811  1.7696
  370MOL0     H51037   5.124   8.994  11.116  0.0236 -0.2590 -0.8879
  370MOL0     H51038   5.201   9.267  11.221  2.1026  1.2800 -3.5876
  370MOL0     H51039   5.292   9.171  11.107 -2.5180  4.0313 -1.9792
  370MOL0     H51040   4.209   9.270  11.034 -1.0039 -0.2910 -1.8332
  370MOL0     H51041   4.020   9.219  10.896 -2.2400 -1.3774 -0.7907
  370MOL0     H51042   3.819   9.005  10.630 -0.6931  0.3311  0.1047
  370MOL0     H51043   3.648   8.960  10.453  0.9267 -2.0832 -0.9442
  370MOL0     H51044   1.978   8.591   9.790 -0.5339 -0.8474 -2.8214
  370MOL0     H51045   1.785   8.740   9.759  0.6169 -0.3884  3.4738
  370MOL0     H51046   1.565   9.004   9.589  3.1682  1.1295  0.2724
  370MOL0     H51047   1.323   9.065   9.562  0.9329  1.2103 -1.3055
  370MOL0     H51048   1.018   9.230   9.617 -0.6220 -0.3490 -2.1336
  370MOL0     H51049   1.139   9.140   9.534 -0.3572 -0.6309  0.0529
  370MOL0     H51050   1.012   9.061   9.791 -2.3401  2.0292 -0.8328
  370MOL0     H51051   1.125   8.951   9.693 -1.0039 -1.0313 -1.2473
  370MOL0     H51052   0.865   9.078   9.569 -1.1745 -0.1606  1.5423
  370MOL0     H51053   0.960   8.938   9.523  1.7617 -1.3050  1.1781
  370MOL0     H51054   0.784   8.954   9.773  0.6765  1.2170 -0.2693
  370MOL0     H51055   0.881   8.818   9.732  1.2860  1.0857  1.1066
  370MOL0     H51056   0.546   8.795   9.458  0.1951  0.0654 -0.6614
  370MOL0     H51057   1.361   9.361   9.856 -1.9903 -0.2593 -1.0326
  370MOL0     H51058   1.560   9.393   9.979  0.8741 -0.3713 -1.2108
  370MOL0     H51059   1.664   9.250   9.996  3.0314  0.8746  0.2906
  370MOL0     H51060   1.705   9.377   9.877  0.8555 -1.1230 -0.3667
  371MOL0     O51061   5.962   3.578   2.531 -0.0437 -0.9157  0.4797
  371MOL0     C51062   5.888   3.678   2.549  0.0508 -0.6038  0.2150
  371MOL0     O51063   5.934   3.805   2.581  0.8152  0.5373  0.5494
  371MOL0     C51064   6.060   3.842   2.554  0.3691 -0.3424  0.3704
  371MOL0     C51065   6.148   3.785   2.463  0.1491 -0.3759 -0.8697
  371MOL0     C51066   6.269   3.842   2.436 -0.2943 -0.7512  0.6120
  371MOL0     C51067   6.312   3.963   2.490 -0.5214  0.5906 -0.4253
  371MOL0     O51068   6.431   4.023   2.482  0.2741  0.3120  0.3518
  371MOL0     C51069   6.544   3.952   2.433 -0.3444 -0.2154 -0.7612
  371MOL0     C51070   6.658   4.046   2.395  0.4368 -0.0642  0.0451
  371MOL0     C51071   6.794   3.976   2.427  0.1992  0.1854 -0.4272
  371MOL0     C51072   6.918   4.044   2.373 -0.5000 -0.5317 -0.7119
  371MOL0     C51073   7.045   3.970   2.433  0.2012 -0.2388 -0.0457
  371MOL0     C51074   7.074   4.007   2.582 -0.5693  0.1329  0.1330
  371MOL0     C51075   7.208   3.937   2.625  0.0695 -0.2758  0.1734
  371MOL0     C51076   7.195   3.790   2.636 -0.4462  0.8548 -0.0680
  371MOL0     N51077   7.313   3.744   2.714  0.0707  0.9200 -0.5687
  371MOL0     C51078   7.437   3.739   2.662 -0.0590  0.3377 -0.9432
  371MOL0     C51079   7.510   3.665   2.748  0.5480  0.2636 -0.6039
  371MOL0     C51080   7.648   3.624   2.725 -0.6395 -0.3848 -0.3994
  371MOL0     C51081   7.739   3.736   2.775  0.0567 -0.1769  0.4707
  371MOL0     C51082   7.885   3.681   2.774  0.2529  0.1997  0.0043
  371MOL0     C51083   7.979   3.780   2.850  0.2300 -0.3253 -0.3250
  371MOL0     O51084   8.097   3.700   2.884  0.2648 -0.6775 -0.2008
  371MOL0     C51085   8.195   3.765   2.955 -0.2749  0.5813  0.3154
  371MOL0     C51086   8.198   3.881   3.029  0.2001  0.2477  0.1049
  371MOL0     C51087   8.304   3.923   3.109 -0.1815  0.3396  0.3747
  371MOL0     C51088   8.292   4.058   3.170 -0.0507 -0.5078 -0.8503
  371MOL0     C51089   8.410   3.835   3.126 -0.4236 -1.6066  0.0869
  371MOL0     C51090   8.534   3.859   3.214  0.3287 -0.0690 -0.1668
  371MOL0     O51091   8.640   3.766   3.206  0.2653  1.0083  0.7021
  371MOL0     C51092   8.763   3.778   3.258  0.1355  0.8345  0.1790
  371MOL0     C51093   8.790   3.714   3.374 -0.1411 -0.2858  0.6664
  371MOL0     C51094   8.919   3.713   3.423 -0.3299  0.5761 -0.2063
  371MOL0     C51095   9.019   3.781   3.355 -0.0783  0.2202 -0.0312
  371MOL0     O51096   9.143   3.780   3.413 -0.6725  0.6841 -0.7279
  371MOL0     C51097   9.175   3.872   3.525 -0.8442 -0.1158  0.0083
  371MOL0     C51098   9.229   4.016   3.483  0.1912 -0.8956 -0.2919
  371MOL0     C51099   9.366   4.028   3.427 -0.1343  0.5891 -0.3888
  371MOL0     C51100   9.475   4.025   3.537  0.2843 -0.4691 -0.2843
  371MOL0     C51101   9.604   3.997   3.475 -0.6174 -0.7513  0.1154
  371MOL0     C51102   9.713   3.961   3.576  0.4996  1.2543 -0.0621
  371MOL0     C51103   9.743   3.808   3.587  0.3033 -0.3515  0.0349
  371MOL0     C51104   9.864   3.780   3.670  0.9837 -0.6045 -0.2003
  371MOL0    Cl51105   9.872   3.604   3.678  0.4430  0.0381  0.0826
  371MOL0     C51106   9.003   3.845   3.230 -0.0280 -0.2518 -0.6600
  371MOL0     C51107   8.868   3.834   3.183 -0.0695  0.0788  0.6901
  371MOL0     O51108   8.532   3.957   3.290  1.0594  0.0690  0.2455
  371MOL0     C51109   8.410   3.712   3.055  0.2923 -1.4774 -0.4003
  371MOL0     C51110   8.305   3.682   2.972 -0.3359 -0.1910 -0.0716
  371MOL0     N51111   7.432   3.626   2.857 -0.3350  0.4443 -0.1055
  371MOL0     N51112   7.313   3.669   2.827 -1.1172  0.0358  1.1182
  371MOL0     C51113   6.221   4.028   2.570  0.1207  0.8435 -0.1286
  371MOL0     C51114   6.097   3.973   2.605  0.0073  0.7189  1.1683
  371MOL0     C51115   5.745   3.658   2.536  0.0587  0.6653 -0.6444
  371MOL0     C51116   5.660   3.752   2.609  0.2616 -0.4139  1.5017
  371MOL0     C51117   5.520   3.729   2.613  0.8094 -0.6172  1.3803
  371MOL0     C51118   5.465   3.620   2.540  0.4016  0.3317  0.7594
  371MOL0     O51119   5.332   3.606   2.547  0.0106 -0.3388 -0.7679
  371MOL0     C51120   5.268   3.486   2.515 -0.2513 -0.3069  0.0426
  371MOL0     C51121   5.119   3.517   2.502 -0.7081  0.3172 -0.1084
  371MOL0     C51122   5.029   3.398   2.511 -0.3020 -0.6241  0.0982
  371MOL0     C51123   4.893   3.446   2.550  0.1273 -0.4368 -0.1891
  371MOL0     C51124   4.875   3.484   2.692  0.8952  0.6928 -0.0333
  371MOL0     C51125   4.879   3.517   2.809  1.1219  0.4904  0.6807
  371MOL0     C51126   5.549   3.532   2.475  0.1213 -0.0197 -0.2187
  371MOL0     C51127   5.689   3.554   2.468  1.3748 -0.8825 -0.6222
  371MOL0     C51128   5.766   3.458   2.383  0.3857 -0.5610  0.2222
  371MOL0     H51129   6.137   3.695   2.404  2.3031 -0.0082 -1.9404
  371MOL0     H51130   6.337   3.801   2.363 -0.2335  0.1078  0.1679
  371MOL0     H51131   6.529   3.884   2.348 -0.8006 -0.8051 -0.2190
  371MOL0     H51132   6.578   3.895   2.520 -0.5313  3.3914  1.8976
  371MOL0     H51133   6.639   4.070   2.290 -0.5339  0.6014  0.3586
  371MOL0     H51134   6.645   4.134   2.459 -3.9040 -2.0908  2.3980
  371MOL0     H51135   6.803   3.958   2.535 -0.6063 -0.5298 -0.4675
  371MOL0     H51136   6.788   3.876   2.382  0.0469  0.7778 -1.7494
  371MOL0     H51137   6.917   4.032   2.264 -4.3225  5.7327 -1.8545
  371MOL0     H51138   6.919   4.148   2.407  0.0901 -1.1395  1.2201
  371MOL0     H51139   7.137   3.994   2.379  0.4647  0.7358  0.8108
  371MOL0     H51140   7.027   3.864   2.413  0.8366 -0.6160  1.2731
  371MOL0     H51141   7.094   4.114   2.580 -0.0192  0.1160 -3.6975
  371MOL0     H51142   6.992   3.977   2.647 -0.6865 -2.8286 -1.2138
  371MOL0     H51143   7.234   3.977   2.723  1.2000 -1.5111  0.3971
  371MOL0     H51144   7.290   3.970   2.561 -0.5747  1.7401  0.3134
  371MOL0     H51145   7.098   3.755   2.673  0.2001 -2.7596 -1.3445
  371MOL0     H51146   7.193   3.752   2.533 -0.4311  2.3632 -0.6560
  371MOL0     H51147   7.466   3.780   2.566 -1.2006 -0.0916 -1.4966
  371MOL0     H51148   7.669   3.606   2.620  0.5170  2.5924 -0.7727
  371MOL0     H51149   7.674   3.530   2.774 -0.7225 -0.2518 -0.0958
  371MOL0     H51150   7.733   3.821   2.706 -0.1837  0.8312  1.7022
  371MOL0     H51151   7.703   3.771   2.872 -1.6871 -0.2513 -0.1169
  371MOL0     H51152   7.909   3.582   2.814 -0.5581 -0.1850 -0.4530
  371MOL0     H51153   7.928   3.685   2.673  0.6976  0.6682  0.2061
  371MOL0     H51154   8.001   3.866   2.786 -2.2055 -0.0006 -0.8288
  371MOL0     H51155   7.935   3.820   2.942  1.2652 -2.2135  1.0593
  371MOL0     H51156   8.112   3.947   3.039  1.4549  1.6749  2.7291
  371MOL0     H51157   8.385   4.110   3.150 -1.1052  0.8090 -2.6453
  371MOL0     H51158   8.266   4.054   3.276 -3.2887 -0.5297 -1.5409
  371MOL0     H51159   8.218   4.121   3.119 -0.8659 -1.1412 -0.4854
  371MOL0     H51160   8.705   3.672   3.427  0.4069  0.1672  1.9462
  371MOL0     H51161   8.950   3.652   3.508 -0.0023 -0.6852 -1.2070
  371MOL0     H51162   9.090   3.879   3.594  0.9203  1.1706  2.2030
  371MOL0     H51163   9.258   3.820   3.572 -2.4957 -2.0852  0.9306
  371MOL0     H51164   9.164   4.053   3.403  1.3361  3.3010  0.4636
  371MOL0     H51165   9.214   4.082   3.569 -3.0164  0.3484 -1.6604
  371MOL0     H51166   9.373   4.117   3.363 -0.7725  0.2214 -0.9860
  371MOL0     H51167   9.371   3.947   3.353  0.9779 -1.6928  2.0058
  371MOL0     H51168   9.452   3.953   3.616  0.5355  0.8905  1.0539
  371MOL0     H51169   9.467   4.121   3.589 -3.0246 -0.5210 -0.5026
  371MOL0     H51170   9.595   3.923   3.395  2.9269  0.1925 -1.3608
  371MOL0     H51171   9.641   4.091   3.431  3.1239 -2.2094 -0.1896
  371MOL0     H51172   9.687   3.990   3.678  1.8833 -0.6012  0.8767
  371MOL0     H51173   9.807   4.009   3.547  1.5643 -0.0074  1.1753
  371MOL0     H51174   9.759   3.760   3.490 -0.7681  0.1773 -0.4228
  371MOL0     H51175   9.658   3.770   3.645  0.2036 -1.1287 -0.5941
  371MOL0     H51176   9.873   3.821   3.771  1.8964  3.0161 -1.6026
  371MOL0     H51177   9.947   3.817   3.610 -1.7879  3.1083 -2.1529
  371MOL0     H51178   9.087   3.905   3.196  1.6861 -0.5797  2.6013
  371MOL0     H51179   8.851   3.878   3.084  0.6541  0.2600  0.6424
  371MOL0     H51180   8.495   3.645   3.058  2.1630  0.6539 -1.9889
  371MOL0     H51181   8.315   3.594   2.909  0.3340 -1.2804  1.4826
  371MOL0     H51182   6.259   4.118   2.618  0.9070 -0.2084  1.3024
  371MOL0     H51183   6.033   4.028   2.673  0.0670  2.7019 -0.2817
  371MOL0     H51184   5.696   3.838   2.665  1.0391 -0.4788  1.1197
  371MOL0     H51185   5.458   3.796   2.671 -1.1934  1.4657 -2.7017
  371MOL0     H51186   5.291   3.444   2.416 -1.3200  2.2919 -1.4095
  371MOL0     H51187   5.289   3.415   2.595  0.5286 -0.1881 -0.0550
  371MOL0     H51188   5.105   3.569   2.407 -0.4259 -0.5528 -0.6440
  371MOL0     H51189   5.092   3.588   2.580  2.1398 -0.8672  2.1229
  371MOL0     H51190   5.024   3.347   2.414 -0.7775  0.3162 -0.3764
  371MOL0     H51191   5.063   3.323   2.584 -1.0256 -0.6481  0.4211
  371MOL0     H51192   4.830   3.357   2.538  0.8372 -1.4647  2.6969
  371MOL0     H51193   4.847   3.523   2.488  0.4287 -1.4342 -1.6946
  371MOL0     H51194   4.883   3.550   2.911  0.4116  0.7192  0.6398
  371MOL0     H51195   5.520   3.436   2.434  0.0528 -2.2151  4.4011
  371MOL0     H51196   5.696   3.400   2.322  0.2309  0.7389 -0.8709
  371MOL0     H51197   5.836   3.510   2.317 -0.3654  1.8842  1.2423
  371MOL0     H51198   5.829   3.384   2.434  2.2549  0.2999 -0.7226
  372MOL0     O51199   9.301   1.514   1.017 -0.4703  0.0108 -0.6007
  372MOL0     C51200   9.341   1.489   0.903 -0.4299  0.6589 -1.1651
  372MOL0     O51201   9.467   1.455   0.869  0.0171 -0.0035 -0.0117
  372MOL0     C51202   9.582   1.465   0.950  0.9174  0.4072 -0.2619
  372MOL0     C51203   9.704   1.449   0.880 -0.5272 -0.7641 -0.2824
  372MOL0     C51204   9.831   1.454   0.961  0.0494 -0.3543  0.0138
  372MOL0     C51205   9.828   1.466   1.101  0.0683 -0.1841 -0.1880
  372MOL0     O51206   9.930   1.473   1.195 -0.0052  0.5414 -1.1324
  372MOL0     C51207  10.064   1.492   1.146 -0.4417 -0.3299  0.4983
  372MOL0     C51208  10.161   1.508   1.255 -0.3862 -0.8361 -0.3509
  372MOL0     C51209  10.310   1.516   1.199  0.1853  0.0506  0.0242
  372MOL0     C51210  10.415   1.477   1.297  0.0482  0.3033  0.3081
  372MOL0     C51211  10.555   1.494   1.236  0.7571  0.1499  0.4134
  372MOL0     C51212  10.655   1.457   1.353 -0.3996 -0.0449 -0.1925
  372MOL0     C51213  10.801   1.479   1.318 -0.4729  0.0232  0.0685
  372MOL0     C51214  10.898   1.444   1.437 -0.5276 -0.6266 -0.3252
  372MOL0     N51215  11.037   1.495   1.403  0.4558  0.7607 -0.3097
  372MOL0     C51216  11.131   1.417   1.331 -0.0958  0.0315 -0.1382
  372MOL0     C51217  11.233   1.486   1.308 -0.6025 -0.6794  0.0165
  372MOL0     C51218  11.356   1.447   1.231  0.2856  0.3420  0.3047
  372MOL0     C51219  11.469   1.440   1.337  0.2250  0.0441 -0.3625
  372MOL0     C51220  11.599   1.391   1.272  0.3444  0.3138 -0.0443
  372MOL0     C51221  11.683   1.336   1.391 -0.0316  0.2509  0.4498
  372MOL0     O51222  11.669   1.417   1.507 -0.3962  0.1358  0.0491
  372MOL0     C51223  11.696   1.354   1.629  0.6512 -0.0198 -0.6873
  372MOL0     C51224  11.824   1.314   1.671 -0.6356 -0.1392 -0.7048
  372MOL0     C51225  11.846   1.249   1.796  0.1682  0.2723  0.7655
  372MOL0     C51226  11.979   1.197   1.819 -0.1194 -0.4817  0.6888
  372MOL0     C51227  11.734   1.233   1.883  0.5064  0.4835 -0.0780
  372MOL0     C51228  11.750   1.164   2.016 -1.1059 -0.7181  0.0815
  372MOL0     O51229  11.629   1.134   2.076 -0.4888  0.2136 -0.1012
  372MOL0     C51230  11.612   1.055   2.189 -0.1887 -0.1000 -0.0483
  372MOL0     C51231  11.711   0.980   2.262  0.7230 -0.4914  0.0863
  372MOL0     C51232  11.675   0.913   2.377 -0.7405 -0.1763 -0.3435
  372MOL0     C51233  11.544   0.917   2.425 -0.4508  0.3586 -0.7368
  372MOL0     O51234  11.516   0.839   2.534  0.4519  0.4387  0.2233
  372MOL0     C51235  11.501   0.919   2.652  0.0304 -0.7734  0.3383
  372MOL0     C51236  11.633   0.926   2.735 -0.2492  0.0312 -0.2909
  372MOL0     C51237  11.693   0.786   2.769  0.0126  0.1921 -0.5250
  372MOL0     C51238  11.825   0.805   2.851 -1.6985  0.0873 -0.3455
  372MOL0     C51239  11.889   0.671   2.861 -1.0456  1.6085 -0.8173
  372MOL0     C51240  12.028   0.659   2.928  0.7006  0.2342 -0.4754
  372MOL0     C51241  12.125   0.770   2.882 -0.5270 -0.7463  0.2275
  372MOL0     C51242  12.250   0.771   2.964 -0.8482 -0.2537 -0.1394
  372MOL0    Cl51243  12.358   0.629   2.928 -0.3266  0.6219  0.1026
  372MOL0     C51244  11.445   0.992   2.360 -0.2067 -0.1408 -0.6744
  372MOL0     C51245  11.486   1.056   2.243 -0.0625  0.0564 -1.3309
  372MOL0     O51246  11.857   1.170   2.081 -0.0076  0.0143  0.0828
  372MOL0     C51247  11.604   1.272   1.837 -0.1423  0.3408  0.0754
  372MOL0     C51248  11.587   1.332   1.708  0.4319  0.1988 -0.2276
  372MOL0     N51249  11.211   1.603   1.383  0.3069 -0.4252  0.3384
  372MOL0     N51250  11.092   1.613   1.431  0.8327  0.4574 -0.6003
  372MOL0     C51251   9.701   1.480   1.161  0.6929  0.4414 -0.1686
  372MOL0     C51252   9.584   1.482   1.088 -0.4256  0.3808  0.1768
  372MOL0     C51253   9.242   1.486   0.794 -0.8056 -0.3553  1.2548
  372MOL0     C51254   9.126   1.558   0.813 -0.4303  0.8243 -0.1506
  372MOL0     C51255   9.028   1.555   0.715 -0.2312  0.3575  0.0637
  372MOL0     C51256   9.036   1.474   0.597  0.5456  0.2468 -0.0727
  372MOL0     O51257   8.943   1.460   0.503  0.0857  0.4365  0.6010
  372MOL0     C51258   8.826   1.532   0.515 -0.0978  0.0638  0.2534
  372MOL0     C51259   8.845   1.669   0.451 -0.1272  0.0683 -0.4387
  372MOL0     C51260   8.928   1.672   0.319  0.4256 -0.3937  0.5439
  372MOL0     C51261   8.935   1.809   0.248 -0.0265  0.4700  0.2516
  372MOL0     C51262   9.008   1.906   0.330 -0.2227 -0.8685  0.2756
  372MOL0     C51263   9.075   1.977   0.405 -0.5473 -0.9221  0.8378
  372MOL0     C51264   9.148   1.402   0.583 -0.6491 -0.4652  0.6563
  372MOL0     C51265   9.253   1.399   0.678 -0.2600 -0.2646  0.4105
  372MOL0     C51266   9.356   1.290   0.657  0.4767  0.0258 -0.7282
  372MOL0     H51267   9.707   1.440   0.772  1.0060  0.2076 -0.3582
  372MOL0     H51268   9.929   1.432   0.918 -0.7739 -1.5984 -1.3364
  372MOL0     H51269  10.068   1.567   1.067  1.9165  0.0108  0.8700
  372MOL0     H51270  10.090   1.397   1.098 -3.1593 -1.2507  0.6742
  372MOL0     H51271  10.141   1.595   1.317 -2.8433 -0.5305 -1.4695
  372MOL0     H51272  10.157   1.412   1.307  2.5896 -1.1889 -0.6024
  372MOL0     H51273  10.325   1.448   1.114  3.8348  1.1286 -0.3919
  372MOL0     H51274  10.337   1.616   1.163  1.5736  0.3655  1.8394
  372MOL0     H51275  10.419   1.540   1.386  2.1205 -2.3932  2.2968
  372MOL0     H51276  10.401   1.376   1.336 -1.4751  1.6315  3.5785
  372MOL0     H51277  10.567   1.587   1.180  0.1015  1.2154  1.9796
  372MOL0     H51278  10.570   1.414   1.163  1.7702 -1.0210  1.8404
  372MOL0     H51279  10.627   1.511   1.444  0.0669 -2.9605  1.7918
  372MOL0     H51280  10.643   1.353   1.383 -1.1303  0.4631  1.3675
  372MOL0     H51281  10.812   1.585   1.295 -0.9032  0.3951  1.4733
  372MOL0     H51282  10.820   1.420   1.228 -0.1304  1.6637 -0.9652
  372MOL0     H51283  10.864   1.511   1.517 -1.5172 -1.6583  0.1328
  372MOL0     H51284  10.896   1.339   1.467  2.3301 -0.4988  0.6508
  372MOL0     H51285  11.105   1.324   1.281 -2.5386  1.1436 -1.0810
  372MOL0     H51286  11.375   1.523   1.155 -1.7391  1.7510  1.1086
  372MOL0     H51287  11.339   1.355   1.174  0.9942 -0.7894  1.8757
  372MOL0     H51288  11.479   1.537   1.385  2.2953 -0.8970  1.2903
  372MOL0     H51289  11.444   1.367   1.415  1.1620  0.2385  0.1308
  372MOL0     H51290  11.587   1.313   1.196 -0.3064  0.1215  0.2460
  372MOL0     H51291  11.652   1.469   1.216  1.1819 -0.2520 -0.0548
  372MOL0     H51292  11.652   1.234   1.414  0.8627 -0.0051  0.5902
  372MOL0     H51293  11.783   1.315   1.352 -0.0024  1.7550 -0.3621
  372MOL0     H51294  11.908   1.328   1.603 -0.0817  0.7836  0.1340
  372MOL0     H51295  11.973   1.094   1.856 -0.8897  0.0236  2.0372
  372MOL0     H51296  12.035   1.261   1.887  0.9846 -0.4345 -0.2151
  372MOL0     H51297  12.037   1.197   1.725 -0.9498 -1.5446  0.1564
  372MOL0     H51298  11.817   0.983   2.236  0.4894 -1.6213 -1.0769
  372MOL0     H51299  11.751   0.866   2.439  0.6534  2.8056  0.4088
  372MOL0     H51300  11.465   1.019   2.627  3.8989  0.7527  0.0673
  372MOL0     H51301  11.434   0.855   2.709 -0.6665 -0.9240 -0.6345
  372MOL0     H51302  11.690   0.996   2.674 -0.3028  1.0812  0.8181
  372MOL0     H51303  11.601   0.982   2.824  0.1114 -0.4377  0.1387
  372MOL0     H51304  11.716   0.731   2.677  0.5884  0.2754 -0.4314
  372MOL0     H51305  11.623   0.731   2.833  3.2388  0.5488  3.7800
  372MOL0     H51306  11.822   0.854   2.949  4.5673 -0.2974  0.4822
  372MOL0     H51307  11.896   0.866   2.794 -0.4598  0.0269  1.0699
  372MOL0     H51308  11.821   0.602   2.911  0.8019 -0.5604 -1.1517
  372MOL0     H51309  11.902   0.640   2.757 -2.3193  2.0970 -1.1455
  372MOL0     H51310  12.063   0.559   2.903  1.5168  0.0005  1.3875
  372MOL0     H51311  12.023   0.658   3.037  2.9968  0.0121 -0.3193
  372MOL0     H51312  12.085   0.871   2.889  1.4321  0.5652 -4.1012
  372MOL0     H51313  12.152   0.756   2.777 -2.8308 -2.1111 -0.2767
  372MOL0     H51314  12.229   0.772   3.071  0.9124  0.9002  0.2488
  372MOL0     H51315  12.312   0.861   2.956  0.0230 -0.6400  1.7946
  372MOL0     H51316  11.346   1.003   2.402 -0.0534 -1.3952  0.0585
  372MOL0     H51317  11.408   1.118   2.200 -1.9598  0.6115  2.4519
  372MOL0     H51318  11.512   1.256   1.894 -1.0054  1.4728 -0.9490
  372MOL0     H51319  11.491   1.354   1.662 -0.3519 -2.6296 -0.1551
  372MOL0     H51320   9.697   1.473   1.269  2.0353  2.0303  0.0209
  372MOL0     H51321   9.495   1.503   1.146 -0.2700  0.0858  0.5271
  372MOL0     H51322   9.106   1.609   0.906  1.1852  0.9427  0.1531
  372MOL0     H51323   8.937   1.606   0.745  0.9582  1.8523  1.3366
  372MOL0     H51324   8.747   1.480   0.461 -1.6831  1.4219  1.1948
  372MOL0     H51325   8.781   1.543   0.614 -2.5041 -0.0013 -0.7651
  372MOL0     H51326   8.886   1.740   0.524  4.0865 -1.7094 -0.7769
  372MOL0     H51327   8.746   1.711   0.434 -0.6529 -0.0719  1.8980
  372MOL0     H51328   9.022   1.621   0.343 -1.3756 -3.7627  1.0264
  372MOL0     H51329   8.871   1.607   0.252  0.2658 -2.1387  2.2708
  372MOL0     H51330   8.831   1.837   0.232 -0.3833 -1.1605 -0.4690
  372MOL0     H51331   8.988   1.796   0.153  3.5355  1.1177  1.9882
  372MOL0     H51332   9.128   2.022   0.486 -1.3883  1.5429  0.1018
  372MOL0     H51333   9.163   1.343   0.494 -2.5970  0.6359 -0.4693
  372MOL0     H51334   9.329   1.217   0.580 -1.5542 -1.3285  1.1620
  372MOL0     H51335   9.459   1.328   0.646  0.7630 -1.0686 -2.3021
  372MOL0     H51336   9.371   1.235   0.750 -0.2056  1.9795  0.5737
  373MOL0     O51337   1.185   1.006   1.608  0.0401  0.3803  0.0890
  373MOL0     C51338   1.279   0.950   1.666  0.4069  0.5170  0.2332
  373MOL0     O51339   1.377   0.885   1.597  0.2903 -0.0489 -0.4155
  373MOL0     C51340   1.412   0.918   1.468 -0.2408  0.2194  0.1123
  373MOL0     C51341   1.517   0.834   1.432  0.2554 -0.3616  0.1253
  373MOL0     C51342   1.572   0.839   1.303  0.4556 -0.0930  0.9362
  373MOL0     C51343   1.524   0.938   1.212 -0.4555 -0.1099 -0.4874
  373MOL0     O51344   1.581   0.971   1.090 -0.1251 -0.1648  0.4143
  373MOL0     C51345   1.571   0.872   0.985 -0.3127  0.0787 -1.1468
  373MOL0     C51346   1.687   0.903   0.889  0.0773  0.3924 -0.0441
  373MOL0     C51347   1.666   1.039   0.821 -0.3827 -0.0194 -0.0120
  373MOL0     C51348   1.780   1.085   0.731 -0.3365  0.3732  0.5275
  373MOL0     C51349   1.918   1.100   0.792 -0.1362 -0.6436  0.8134
  373MOL0     C51350   2.017   1.153   0.682  0.1173 -0.2040 -0.7452
  373MOL0     C51351   1.995   1.282   0.608  0.0136 -1.1267 -0.7040
  373MOL0     C51352   2.020   1.402   0.694 -0.3767  0.7364  0.3727
  373MOL0     N51353   1.993   1.520   0.609  0.1975 -0.2978 -0.5020
  373MOL0     C51354   1.869   1.581   0.631  0.5022  0.2549 -0.7638
  373MOL0     C51355   1.878   1.698   0.563 -0.3074  0.8385 -0.5294
  373MOL0     C51356   1.783   1.810   0.550  0.4917  0.9707 -0.3889
  373MOL0     C51357   1.838   1.954   0.576  0.5954  0.1998 -0.2303
  373MOL0     C51358   1.723   2.060   0.564 -0.7545 -0.3084 -0.2843
  373MOL0     C51359   1.772   2.210   0.581  0.1745  1.1065 -0.5343
  373MOL0     O51360   1.840   2.241   0.464  0.2905 -0.7710  0.1352
  373MOL0     C51361   1.908   2.361   0.466 -0.7313  0.0381  0.7998
  373MOL0     C51362   1.914   2.447   0.577  0.0011  0.2500  0.3360
  373MOL0     C51363   1.995   2.561   0.578  0.2811 -0.3951 -0.1063
  373MOL0     C51364   1.999   2.654   0.696 -0.6856  0.3714 -0.1057
  373MOL0     C51365   2.057   2.605   0.456 -0.2802  0.6844 -0.5473
  373MOL0     C51366   2.149   2.723   0.448 -0.2896 -0.5226 -0.5369
  373MOL0     O51367   2.264   2.715   0.516  0.3854  0.6367 -0.2228
  373MOL0     C51368   2.361   2.810   0.485  0.0394  0.7039 -0.1132
  373MOL0     C51369   2.488   2.760   0.449  0.3617 -0.2256 -0.2664
  373MOL0     C51370   2.601   2.838   0.428 -0.6686 -0.8047 -0.5251
  373MOL0     C51371   2.592   2.970   0.477  0.3406  0.3097  0.2791
  373MOL0     O51372   2.712   3.043   0.472  0.0846 -1.0325 -0.6416
  373MOL0     C51373   2.700   3.164   0.398  0.1518  0.3061  0.0049
  373MOL0     C51374   2.852   3.206   0.375 -0.5774 -0.8870  0.7354
  373MOL0     C51375   2.924   3.126   0.267 -0.6855 -0.1627 -0.7646
  373MOL0     C51376   3.081   3.133   0.283  0.0258  0.3201 -0.1553
  373MOL0     C51377   3.139   3.109   0.139  0.4112  0.2847  0.2617
  373MOL0     C51378   3.291   3.077   0.157  0.4075  0.0938 -0.1057
  373MOL0     C51379   3.341   3.018   0.026 -0.3473  0.2065  0.2106
  373MOL0     C51380   3.490   2.999   0.024 -0.7229  0.4150  0.4202
  373MOL0    Cl51381   3.561   2.880  -0.099 -0.1065  0.0119  0.2746
  373MOL0     C51382   2.462   3.029   0.511 -0.0277 -0.0342  0.3282
  373MOL0     C51383   2.344   2.945   0.514 -0.4373 -0.7182  0.1906
  373MOL0     O51384   2.103   2.825   0.389 -0.3431  0.7827  0.0492
  373MOL0     C51385   2.038   2.528   0.338 -0.1675  0.0632 -1.0959
  373MOL0     C51386   1.963   2.409   0.344  0.5441 -0.0638  0.1857
  373MOL0     N51387   1.997   1.696   0.494 -0.7954  0.1919  0.1975
  373MOL0     N51388   2.067   1.583   0.514 -0.7326  0.1420 -0.2063
  373MOL0     C51389   1.427   1.024   1.248  0.7149  0.1290  0.3702
  373MOL0     C51390   1.368   1.010   1.377  0.4000  0.0166  1.1857
  373MOL0     C51391   1.267   0.930   1.817  0.0706 -0.4378 -0.4942
  373MOL0     C51392   1.278   0.806   1.879 -0.2602 -0.0821 -0.5452
  373MOL0     C51393   1.252   0.785   2.010  0.6552  0.6245 -0.2403
  373MOL0     C51394   1.209   0.894   2.093  0.1290 -0.1334  0.2966
  373MOL0     O51395   1.169   0.860   2.220 -0.7612  0.3776 -0.0480
  373MOL0     C51396   1.082   0.947   2.293 -0.1847 -1.3568  0.4966
  373MOL0     C51397   0.936   0.944   2.243  0.8451  0.6996  0.1324
  373MOL0     C51398   0.837   1.049   2.304  1.0204  0.1248 -1.0445
  373MOL0     C51399   0.799   1.024   2.453 -0.3444 -0.2701 -1.0105
  373MOL0     C51400   0.739   0.895   2.483 -0.0986  0.6226  0.0689
  373MOL0     C51401   0.693   0.781   2.486 -0.0629 -0.3047  0.6870
  373MOL0     C51402   1.189   1.021   2.032  0.8354  0.3134 -0.3284
  373MOL0     C51403   1.225   1.039   1.900 -0.2157 -0.5073 -0.6865
  373MOL0     C51404   1.188   1.175   1.843  0.4285 -0.1101  0.0387
  373MOL0     H51405   1.567   0.765   1.499 -1.6406 -1.9321  0.0300
  373MOL0     H51406   1.659   0.775   1.289  0.3017 -0.4492  1.6010
  373MOL0     H51407   1.479   0.874   0.927 -1.5165  1.6838  0.6990
  373MOL0     H51408   1.582   0.769   1.021 -0.5064  0.4106 -0.1065
  373MOL0     H51409   1.780   0.901   0.947  1.3034 -1.5958 -1.8809
  373MOL0     H51410   1.691   0.819   0.819 -3.0520 -1.2847  1.5868
  373MOL0     H51411   1.573   1.037   0.764 -0.7872 -0.9220  0.6538
  373MOL0     H51412   1.660   1.115   0.899  2.0958 -2.8099  3.2347
  373MOL0     H51413   1.788   1.028   0.639  1.0125 -0.5675  1.1866
  373MOL0     H51414   1.751   1.187   0.703 -3.1309  0.2201  2.4972
  373MOL0     H51415   1.956   1.010   0.840  2.5335  0.2295  0.5017
  373MOL0     H51416   1.916   1.161   0.883  4.6108 -0.7330  1.2228
  373MOL0     H51417   2.117   1.162   0.726 -0.3000  1.5322 -0.0662
  373MOL0     H51418   2.012   1.076   0.605 -1.3703 -0.3697 -0.5143
  373MOL0     H51419   1.899   1.286   0.556  1.1332 -3.1746 -3.1575
  373MOL0     H51420   2.072   1.292   0.531 -0.1463  0.7661 -0.6649
  373MOL0     H51421   1.967   1.393   0.789 -1.3175 -0.8981 -0.2738
  373MOL0     H51422   2.127   1.404   0.719  0.6279 -1.6772 -3.0652
  373MOL0     H51423   1.790   1.543   0.695  0.5429 -1.2444 -1.5516
  373MOL0     H51424   1.706   1.785   0.623  1.5930 -0.9926  0.1598
  373MOL0     H51425   1.737   1.812   0.451 -0.6117 -2.5321 -0.0596
  373MOL0     H51426   1.883   1.941   0.675 -0.2106 -5.5625 -0.2805
  373MOL0     H51427   1.919   1.976   0.506  0.6070  2.2814  0.3546
  373MOL0     H51428   1.673   2.058   0.466  0.4917  0.9850 -0.9880
  373MOL0     H51429   1.654   2.046   0.648 -1.6936  1.4016 -0.7226
  373MOL0     H51430   1.691   2.282   0.594 -1.1977 -0.8157  3.4886
  373MOL0     H51431   1.839   2.201   0.667  0.7613 -1.6039 -1.1642
  373MOL0     H51432   1.878   2.409   0.672 -0.1411  0.0433  0.1989
  373MOL0     H51433   1.911   2.632   0.757  0.2428  0.3137  1.2473
  373MOL0     H51434   1.984   2.759   0.669  0.8612  0.5560 -0.3302
  373MOL0     H51435   2.091   2.655   0.755 -1.6391  3.9157  1.6081
  373MOL0     H51436   2.502   2.653   0.435 -0.8561 -0.4082 -0.2124
  373MOL0     H51437   2.694   2.800   0.387 -0.5331  0.0893 -1.0592
  373MOL0     H51438   2.637   3.161   0.309 -0.8264 -0.7046  0.7062
  373MOL0     H51439   2.658   3.236   0.470 -0.7595 -0.5191  0.3125
  373MOL0     H51440   2.863   3.306   0.331 -1.0534 -0.3470  1.7975
  373MOL0     H51441   2.914   3.202   0.465 -0.7330  0.1095  0.9012
  373MOL0     H51442   2.886   3.149   0.167 -3.3411 -0.4680  0.0703
  373MOL0     H51443   2.891   3.022   0.279 -3.0226  0.6626  0.7569
  373MOL0     H51444   3.103   3.053   0.354  2.1212  2.1052  1.3164
  373MOL0     H51445   3.109   3.223   0.338  2.6907 -0.7575  0.3611
  373MOL0     H51446   3.085   3.022   0.101 -1.2664  0.5270  1.9863
  373MOL0     H51447   3.119   3.193   0.071 -0.0704 -1.9879 -2.6274
  373MOL0     H51448   3.305   2.998   0.232  0.4725 -0.9365 -1.1711
  373MOL0     H51449   3.353   3.155   0.201  0.7646 -0.3851  0.2586
  373MOL0     H51450   3.323   3.096  -0.049  2.8256  1.5552  0.6597
  373MOL0     H51451   3.302   2.917   0.013  1.0915 -0.2650 -0.6485
  373MOL0     H51452   3.523   2.965   0.123 -1.6534 -3.2511 -0.3624
  373MOL0     H51453   3.541   3.094   0.007 -0.0237 -0.2976 -1.7862
  373MOL0     H51454   2.446   3.133   0.536  1.8405  0.3915 -0.1303
  373MOL0     H51455   2.244   2.976   0.544 -0.1521  0.1766  0.2350
  373MOL0     H51456   2.093   2.561   0.250  1.6891 -0.4013 -0.1559
  373MOL0     H51457   1.941   2.350   0.255 -1.2701 -0.0411  0.5769
  373MOL0     H51458   1.382   1.104   1.191  0.4281 -1.8426 -2.3863
  373MOL0     H51459   1.282   1.068   1.408 -0.1877 -0.1600 -0.0708
  373MOL0     H51460   1.313   0.729   1.811 -0.2284 -1.9404  1.4806
  373MOL0     H51461   1.250   0.689   2.061 -0.8921  2.3763  3.3112
  373MOL0     H51462   1.084   0.910   2.395  3.2020  0.6751  1.3210
  373MOL0     H51463   1.123   1.048   2.294  0.3247 -1.5150 -1.0626
  373MOL0     H51464   0.897   0.842   2.240  0.5142  0.8433 -1.0493
  373MOL0     H51465   0.958   0.956   2.136  2.0221 -0.8012  0.1596
  373MOL0     H51466   0.877   1.151   2.310 -0.2905  0.5988  3.5942
  373MOL0     H51467   0.742   1.046   2.250 -0.1543  1.2087  0.8473
  373MOL0     H51468   0.723   1.101   2.471  1.2962  1.2173 -0.0946
  373MOL0     H51469   0.875   1.042   2.529 -1.3815 -4.6645  1.4355
  373MOL0     H51470   0.634   0.692   2.473  1.8136 -1.6144  0.6966
  373MOL0     H51471   1.168   1.107   2.095  3.3028  0.1538  0.8222
  373MOL0     H51472   1.090   1.173   1.795  0.2407 -1.5444  0.4211
  373MOL0     H51473   1.193   1.248   1.924 -0.4762  2.8152 -2.3754
  373MOL0     H51474   1.255   1.212   1.765 -1.6628 -0.5676 -2.0557
  374MOL0     O51475   1.810   3.458   3.251 -0.3101 -0.1779  0.2279
  374MOL0     C51476   1.733   3.521   3.320 -0.9032 -0.0119 -0.1488
  374MOL0     O51477   1.766   3.590   3.431 -0.9428  0.7943  0.3730
  374MOL0     C51478   1.888   3.652   3.438  0.2662 -0.0422 -0.3799
  374MOL0     C51479   1.972   3.683   3.332  0.8130  0.2221  0.3268
  374MOL0     C51480   2.087   3.761   3.356  0.4321 -0.3394 -0.0647
  374MOL0     C51481   2.125   3.792   3.483 -0.1486  0.3976 -0.4498
  374MOL0     O51482   2.245   3.856   3.480  0.0472  0.3087 -0.0695
  374MOL0     C51483   2.312   3.881   3.603  0.0814 -0.1967 -0.1832
  374MOL0     C51484   2.459   3.920   3.580  0.2916  0.6970  0.1427
  374MOL0     C51485   2.489   4.028   3.473 -0.4372 -0.3232 -0.1579
  374MOL0     C51486   2.638   4.063   3.464  0.2063  0.1626 -0.9818
  374MOL0     C51487   2.657   4.191   3.385 -0.5356  0.0493  0.2020
  374MOL0     C51488   2.802   4.213   3.335  0.4193  0.1597 -0.3614
  374MOL0     C51489   2.806   4.344   3.255 -0.0715  0.2620  0.4721
  374MOL0     C51490   2.946   4.382   3.229 -0.5153 -1.3644  0.3488
  374MOL0     N51491   3.031   4.286   3.163 -0.2031 -0.6010  0.4697
  374MOL0     C51492   3.067   4.285   3.024  0.3680  0.0424 -0.5900
  374MOL0     C51493   3.170   4.199   3.016 -0.1733 -0.2685  0.2579
  374MOL0     C51494   3.234   4.171   2.882  0.0536  0.2509 -0.9233
  374MOL0     C51495   3.351   4.267   2.847  0.8430 -0.0594 -1.3986
  374MOL0     C51496   3.401   4.249   2.703  0.5191 -1.1008  0.4264
  374MOL0     C51497   3.538   4.311   2.678 -0.5908 -0.8573  0.1503
  374MOL0     O51498   3.645   4.263   2.761 -0.4360  1.0009  0.1910
  374MOL0     C51499   3.774   4.296   2.745  0.2804  0.2010 -0.3080
  374MOL0     C51500   3.826   4.393   2.661 -0.0911  0.2050  0.6662
  374MOL0     C51501   3.963   4.407   2.635 -0.1489 -0.5573  0.3541
  374MOL0     C51502   3.997   4.484   2.509 -0.5533  0.1410  0.5302
  374MOL0     C51503   4.056   4.332   2.712 -0.8377  0.3066 -0.3020
  374MOL0     C51504   4.206   4.332   2.691  0.4829 -0.6149  0.0275
  374MOL0     O51505   4.276   4.258   2.775 -0.4997  0.2588  0.0951
  374MOL0     C51506   4.412   4.238   2.750  0.5686 -0.1476 -1.2473
  374MOL0     C51507   4.502   4.298   2.842 -0.6816  0.5997  0.0169
  374MOL0     C51508   4.637   4.286   2.826  0.2360 -0.8428  0.2572
  374MOL0     C51509   4.686   4.212   2.717  0.2684 -0.3400 -0.5577
  374MOL0     O51510   4.822   4.205   2.692  0.9422  0.0672 -0.4359
  374MOL0     C51511   4.922   4.285   2.757  0.5395 -0.7235 -0.2277
  374MOL0     C51512   5.065   4.256   2.695  0.5797  0.1681 -0.2343
  374MOL0     C51513   5.171   4.330   2.782  0.3644  0.1315 -0.4373
  374MOL0     C51514   5.214   4.465   2.727  0.6001 -0.8766 -0.9216
  374MOL0     C51515   5.346   4.509   2.797 -0.0480  0.5742 -0.5456
  374MOL0     C51516   5.423   4.624   2.728  1.0546  0.4782 -0.4983
  374MOL0     C51517   5.573   4.616   2.763 -0.5566  0.4015  0.2310
  374MOL0     C51518   5.647   4.682   2.647 -0.3302  0.0696  0.3262
  374MOL0    Cl51519   5.822   4.693   2.654  0.1409 -0.0650  0.4915
  374MOL0     C51520   4.596   4.143   2.637 -0.4978 -0.5457  0.1092
  374MOL0     C51521   4.463   4.153   2.653 -0.0005 -0.6293 -0.2059
  374MOL0     O51522   4.249   4.376   2.585  0.1160  0.3212  0.0141
  374MOL0     C51523   3.999   4.256   2.816 -0.5235 -0.3631 -0.9987
  374MOL0     C51524   3.867   4.229   2.823 -0.0822  0.6684  0.3316
  374MOL0     N51525   3.198   4.152   3.142 -0.0478  0.6263 -0.0749
  374MOL0     N51526   3.122   4.206   3.226  0.1979 -0.4438  0.0624
  374MOL0     C51527   2.045   3.762   3.600  0.5087 -0.1187 -0.7777
  374MOL0     C51528   1.923   3.699   3.569 -0.2359  0.2384  0.0444
  374MOL0     C51529   1.588   3.496   3.297 -0.0850 -0.3083 -0.4834
  374MOL0     C51530   1.505   3.576   3.372 -0.6206 -0.2355 -0.8394
  374MOL0     C51531   1.367   3.553   3.371  0.4374  0.4556 -0.1119
  374MOL0     C51532   1.308   3.470   3.275  0.0287 -0.2671 -0.0060
  374MOL0     O51533   1.172   3.445   3.260  0.4271  0.1204  0.8741
  374MOL0     C51534   1.103   3.535   3.168 -1.2338  0.2484  0.7337
  374MOL0     C51535   1.059   3.652   3.255  0.0497 -0.6545 -0.0389
  374MOL0     C51536   0.955   3.599   3.348 -0.4190 -0.5899  0.6340
  374MOL0     C51537   0.852   3.696   3.395 -0.3929 -0.7026 -0.0392
  374MOL0     C51538   0.743   3.740   3.299 -0.2822  0.4973 -0.4775
  374MOL0     C51539   0.642   3.765   3.242  0.3224 -0.3898  0.5840
  374MOL0     C51540   1.387   3.402   3.186  0.3333  0.0126 -0.2775
  374MOL0     C51541   1.530   3.403   3.203  0.4915 -0.6009  0.0202
  374MOL0     C51542   1.608   3.304   3.122  0.2080  0.3308  0.1027
  374MOL0     H51543   1.957   3.650   3.230 -0.5515  1.5452  0.0668
  374MOL0     H51544   2.153   3.784   3.273  1.1839  2.2732  1.1425
  374MOL0     H51545   2.301   3.795   3.670  0.7295  0.5047  0.8572
  374MOL0     H51546   2.264   3.965   3.653  1.8919  0.8603 -0.1220
  374MOL0     H51547   2.510   3.950   3.672  0.8847  0.3502 -0.0629
  374MOL0     H51548   2.492   3.820   3.548 -1.3355 -0.1129  0.9381
  374MOL0     H51549   2.445   4.003   3.376  0.7563  0.8259 -1.0308
  374MOL0     H51550   2.442   4.119   3.511 -0.2377  0.2663 -1.2751
  374MOL0     H51551   2.679   4.077   3.565 -3.2932  1.0563  0.4786
  374MOL0     H51552   2.677   3.972   3.418 -1.5208 -1.4348  0.5368
  374MOL0     H51553   2.628   4.278   3.443 -1.2256 -0.6299  0.8952
  374MOL0     H51554   2.586   4.176   3.303  0.3702  2.2370 -1.0598
  374MOL0     H51555   2.869   4.220   3.421 -0.7549 -0.8999  0.6917
  374MOL0     H51556   2.826   4.125   3.274 -1.9167 -0.3257 -0.7071
  374MOL0     H51557   2.771   4.428   3.316  2.2765  0.6304  1.4232
  374MOL0     H51558   2.749   4.331   3.163  2.0631  0.0612 -0.8886
  374MOL0     H51559   2.942   4.474   3.170 -0.6202 -1.2205  0.5750
  374MOL0     H51560   2.988   4.416   3.325 -1.0123  1.3781 -0.3362
  374MOL0     H51561   3.023   4.343   2.943 -0.0430 -0.6472 -0.8642
  374MOL0     H51562   3.150   4.174   2.811 -1.6189  0.7569  0.9855
  374MOL0     H51563   3.271   4.069   2.873  1.7161  1.0034 -3.8620
  374MOL0     H51564   3.316   4.369   2.867 -1.7303 -1.1456  0.1672
  374MOL0     H51565   3.432   4.252   2.919 -0.4715  1.3428  0.4843
  374MOL0     H51566   3.410   4.144   2.677  0.8363 -0.0400 -4.7832
  374MOL0     H51567   3.336   4.297   2.630 -0.4108 -0.0122  1.8919
  374MOL0     H51568   3.568   4.289   2.575 -0.8162 -0.5517  0.0162
  374MOL0     H51569   3.524   4.419   2.684 -0.4694 -0.7424 -1.2736
  374MOL0     H51570   3.751   4.444   2.602 -0.3686 -1.4624 -0.5175
  374MOL0     H51571   3.911   4.526   2.457 -2.4188 -2.5844  1.1620
  374MOL0     H51572   4.055   4.422   2.440  0.4926  0.1651  1.3565
  374MOL0     H51573   4.060   4.566   2.545 -1.1524 -0.2476  2.5874
  374MOL0     H51574   4.470   4.356   2.928  1.7561 -0.2571  1.6177
  374MOL0     H51575   4.709   4.334   2.892  1.6065  2.0358 -3.0430
  374MOL0     H51576   4.884   4.384   2.733  0.0159 -0.1365  2.6357
  374MOL0     H51577   4.909   4.277   2.865 -0.9480 -0.9748 -0.4117
  374MOL0     H51578   5.087   4.149   2.689 -2.1159 -0.4970  0.2636
  374MOL0     H51579   5.078   4.302   2.597  2.6110  1.6163  0.6465
  374MOL0     H51580   5.260   4.266   2.784 -0.1542 -0.6211  1.7580
  374MOL0     H51581   5.141   4.326   2.887  0.8372 -0.1536 -0.3108
  374MOL0     H51582   5.145   4.548   2.742  1.6578 -0.2930  0.9672
  374MOL0     H51583   5.249   4.457   2.623  1.7113 -3.5803 -0.4306
  374MOL0     H51584   5.343   4.533   2.904 -1.0151  2.4234 -0.9355
  374MOL0     H51585   5.414   4.423   2.800  4.2068  3.5853  0.2479
  374MOL0     H51586   5.371   4.714   2.765  1.2853  0.1153  0.7654
  374MOL0     H51587   5.422   4.609   2.620  0.9430  0.1639 -0.4531
  374MOL0     H51588   5.618   4.516   2.762  1.8950  1.4466  0.3644
  374MOL0     H51589   5.591   4.660   2.861 -0.6912 -0.6406  0.7375
  374MOL0     H51590   5.593   4.778   2.646 -1.4275 -0.4483  2.6936
  374MOL0     H51591   5.617   4.624   2.560 -4.2800  2.2921 -0.0616
  374MOL0     H51592   4.647   4.087   2.559  1.2012  0.1395  0.6718
  374MOL0     H51593   4.397   4.103   2.583  0.7543 -1.1859 -0.5368
  374MOL0     H51594   4.054   4.191   2.883 -0.2526 -0.7939 -1.6272
  374MOL0     H51595   3.835   4.153   2.893  1.2475  1.0698  1.4221
  374MOL0     H51596   2.071   3.791   3.701 -4.3464 -3.0538  1.7216
  374MOL0     H51597   1.851   3.678   3.648 -1.2783 -2.9175 -1.5352
  374MOL0     H51598   1.547   3.651   3.438  0.2709 -0.6208 -0.9571
  374MOL0     H51599   1.301   3.624   3.420  1.7973  1.0609  0.9288
  374MOL0     H51600   1.162   3.551   3.077 -1.1982 -3.0392  0.0796
  374MOL0     H51601   1.019   3.481   3.124  1.2868  0.1480 -4.7133
  374MOL0     H51602   1.008   3.724   3.191 -3.4057 -1.8909  1.0777
  374MOL0     H51603   1.141   3.691   3.315 -0.0361 -0.7556  0.1463
  374MOL0     H51604   0.906   3.515   3.299  0.9329 -0.4896 -0.9616
  374MOL0     H51605   1.004   3.555   3.435  1.3648  0.0007 -0.0242
  374MOL0     H51606   0.909   3.784   3.428 -0.2751 -0.7682 -0.0650
  374MOL0     H51607   0.803   3.652   3.483 -3.4350  2.7607  0.2398
  374MOL0     H51608   0.557   3.789   3.182  0.0724 -2.6826 -0.0782
  374MOL0     H51609   1.329   3.346   3.114 -0.8770 -1.8734  2.0356
  374MOL0     H51610   1.665   3.352   3.043  2.0422  1.4170  2.0016
  374MOL0     H51611   1.682   3.264   3.191 -1.5782 -0.1845  1.8085
  374MOL0     H51612   1.551   3.225   3.072  1.0755 -1.1263  1.3528
  375MOL0     O51613   5.161   8.561   0.102 -0.1718 -0.8030  0.5544
  375MOL0     C51614   5.168   8.582  -0.018  1.3046  0.7352  0.1673
  375MOL0     O51615   5.278   8.622  -0.082 -0.2952  0.7503 -0.2526
  375MOL0     C51616   5.399   8.606  -0.006 -0.4461 -0.6685  1.1942
  375MOL0     C51617   5.475   8.498  -0.030  0.3307  0.4629  0.2461
  375MOL0     C51618   5.600   8.478   0.036 -0.2628  0.7595  0.0710
  375MOL0     C51619   5.651   8.585   0.108  0.4989  0.6687 -1.1984
  375MOL0     O51620   5.775   8.564   0.167 -0.2863 -0.7189 -0.7992
  375MOL0     C51621   5.869   8.676   0.193  0.0207 -0.3123  0.5447
  375MOL0     C51622   5.911   8.729   0.063  0.8009  0.1820  0.4269
  375MOL0     C51623   6.013   8.637  -0.008  0.2749 -0.3783 -0.4500
  375MOL0     C51624   6.153   8.670   0.050 -1.3130 -0.7386  0.9843
  375MOL0     C51625   6.262   8.587  -0.022  0.6432 -0.4576  0.0172
  375MOL0     C51626   6.397   8.642   0.010 -1.0606 -0.2830  0.9790
  375MOL0     C51627   6.502   8.581  -0.084  0.4420 -0.6783 -0.1867
  375MOL0     C51628   6.526   8.431  -0.063  0.3232 -0.3388  0.7728
  375MOL0     N51629   6.664   8.396  -0.049  0.8749  0.1674 -0.0672
  375MOL0     C51630   6.753   8.378  -0.154 -0.1272 -0.3161  0.4118
  375MOL0     C51631   6.863   8.336  -0.102  0.2885  1.1536  0.8062
  375MOL0     C51632   6.984   8.285  -0.179 -0.5820  0.9106 -0.2812
  375MOL0     C51633   7.081   8.400  -0.219  0.4626 -0.5545 -0.9964
  375MOL0     C51634   7.225   8.358  -0.213  0.5541 -0.6790  0.1373
  375MOL0     C51635   7.326   8.473  -0.217 -0.4651 -0.1737 -0.5873
  375MOL0     O51636   7.447   8.399  -0.187  0.5777  0.3894 -0.4174
  375MOL0     C51637   7.567   8.460  -0.210  0.0703 -0.4862 -0.7486
  375MOL0     C51638   7.577   8.596  -0.226 -0.1684 -0.5235  0.2233
  375MOL0     C51639   7.702   8.660  -0.253  0.2515  0.0117 -0.6092
  375MOL0     C51640   7.703   8.815  -0.257 -0.2105 -0.5296 -0.3650
  375MOL0     C51641   7.812   8.571  -0.268 -0.4510  0.0878 -0.3217
  375MOL0     C51642   7.955   8.624  -0.292 -0.2722 -0.1993 -0.6114
  375MOL0     O51643   8.055   8.529  -0.302 -0.4544 -0.2392 -0.4679
  375MOL0     C51644   8.180   8.568  -0.283  0.0336  1.0422  0.0562
  375MOL0     C51645   8.263   8.551  -0.398 -0.2191 -1.0115  0.3463
  375MOL0     C51646   8.400   8.581  -0.386  0.5560  0.0293  0.8164
  375MOL0     C51647   8.453   8.624  -0.258 -0.2094  0.0483 -0.1732
  375MOL0     O51648   8.586   8.657  -0.260 -0.2436 -0.0478 -0.1457
  375MOL0     C51649   8.655   8.705  -0.143  0.2594  0.3176 -0.3146
  375MOL0     C51650   8.801   8.717  -0.168 -0.2356 -0.0520 -0.1304
  375MOL0     C51651   8.884   8.776  -0.048  0.1964 -0.0247  0.0325
  375MOL0     C51652   9.008   8.831  -0.099 -0.3581 -0.7574  1.0242
  375MOL0     C51653   9.090   8.901   0.014  0.1079  0.5703 -0.1226
  375MOL0     C51654   9.223   8.958  -0.041 -0.4776 -0.3255 -0.4900
  375MOL0     C51655   9.308   8.853  -0.112  0.4912  0.4994 -1.4257
  375MOL0     C51656   9.452   8.903  -0.144  0.5611 -0.9826 -0.7844
  375MOL0    Cl51657   9.551   8.770  -0.183 -0.0398  0.8697  0.3722
  375MOL0     C51658   8.370   8.618  -0.144 -0.1497 -0.3276 -0.3025
  375MOL0     C51659   8.236   8.599  -0.159 -0.8676  0.8691 -0.7153
  375MOL0     O51660   7.982   8.747  -0.306  0.3550 -0.3046 -0.1982
  375MOL0     C51661   7.799   8.427  -0.265  0.0089  0.2976 -0.7964
  375MOL0     C51662   7.676   8.368  -0.239 -0.2207 -0.0847 -1.0360
  375MOL0     N51663   6.844   8.332   0.035 -0.1683 -0.3325 -0.3869
  375MOL0     N51664   6.724   8.367   0.069 -0.0257  0.6487 -0.6259
  375MOL0     C51665   5.569   8.700   0.128 -0.0214  0.7735 -0.3738
  375MOL0     C51666   5.440   8.712   0.074 -0.4033 -0.5470 -0.6855
  375MOL0     C51667   5.047   8.565  -0.102 -0.8090  1.1257 -0.2403
  375MOL0     C51668   5.015   8.668  -0.182 -0.4909  0.3622 -0.0257
  375MOL0     C51669   4.918   8.654  -0.274  0.3988 -0.5081 -0.5690
  375MOL0     C51670   4.835   8.546  -0.277  1.4230  0.2351  0.7621
  375MOL0     O51671   4.737   8.540  -0.370 -0.4841  0.3009  0.3315
  375MOL0     C51672   4.617   8.587  -0.315  0.6682 -1.8704  0.1516
  375MOL0     C51673   4.564   8.697  -0.408  0.3190 -0.7248 -0.3505
  375MOL0     C51674   4.521   8.652  -0.545 -0.3568  0.7452  0.1577
  375MOL0     C51675   4.430   8.531  -0.554  0.3430  0.0700  0.3083
  375MOL0     C51676   4.305   8.550  -0.478 -0.2400  0.6602  0.1228
  375MOL0     C51677   4.197   8.574  -0.429  1.1043  0.7445 -0.2108
  375MOL0     C51678   4.867   8.436  -0.199 -0.5417  0.4022 -0.0842
  375MOL0     C51679   4.978   8.446  -0.108  0.2468  0.6347 -1.0193
  375MOL0     C51680   5.014   8.322  -0.022 -0.2966 -0.2429  0.8908
  375MOL0     H51681   5.426   8.415  -0.080 -0.8467  0.7323  0.9250
  375MOL0     H51682   5.663   8.390   0.035 -1.6044 -0.2261  0.4382
  375MOL0     H51683   5.961   8.647   0.244  0.5334 -2.5958 -1.5054
  375MOL0     H51684   5.820   8.752   0.256  0.0003  2.4053 -2.5143
  375MOL0     H51685   5.830   8.734  -0.009  2.3157  0.4962 -1.3264
  375MOL0     H51686   5.945   8.833   0.066 -2.1306  1.2116  0.7647
  375MOL0     H51687   5.991   8.534   0.020 -3.3874  0.8604  2.0196
  375MOL0     H51688   6.022   8.657  -0.115 -1.6340  0.5594 -0.4757
  375MOL0     H51689   6.187   8.771   0.024  1.6057 -1.8481  0.0084
  375MOL0     H51690   6.167   8.655   0.157  2.9946  2.4979  1.1529
  375MOL0     H51691   6.237   8.579  -0.128 -0.3035 -0.2290  0.2163
  375MOL0     H51692   6.256   8.482   0.006 -0.5854  0.0499  1.8221
  375MOL0     H51693   6.398   8.750   0.000  1.0648 -0.3203  0.3790
  375MOL0     H51694   6.419   8.622   0.116 -1.2454  1.6049  1.4115
  375MOL0     H51695   6.590   8.639  -0.054 -0.8875  2.4097 -1.8551
  375MOL0     H51696   6.480   8.605  -0.188  1.3296 -0.6104 -0.3662
  375MOL0     H51697   6.472   8.396   0.025 -0.7228  2.4508  1.3315
  375MOL0     H51698   6.491   8.371  -0.148 -1.0373  3.1435 -1.3263
  375MOL0     H51699   6.725   8.363  -0.258 -0.7776 -2.5462  0.8530
  375MOL0     H51700   6.960   8.225  -0.268  0.7639  0.7482 -0.5712
  375MOL0     H51701   7.027   8.209  -0.113 -1.6447 -0.3630 -1.0002
  375MOL0     H51702   7.060   8.436  -0.320  0.4269 -1.3987 -1.3021
  375MOL0     H51703   7.065   8.480  -0.147 -0.9484 -5.1270  4.5598
  375MOL0     H51704   7.238   8.294  -0.125  1.6288 -0.2926  0.2750
  375MOL0     H51705   7.253   8.291  -0.294 -0.3993 -3.7681  2.1822
  375MOL0     H51706   7.323   8.525  -0.312  2.1564  0.7707 -0.2449
  375MOL0     H51707   7.307   8.546  -0.138  1.2770 -2.5736  2.3029
  375MOL0     H51708   7.494   8.665  -0.214  1.4833  1.7117 -0.5645
  375MOL0     H51709   7.601   8.845  -0.283 -0.8110 -2.4420 -0.4308
  375MOL0     H51710   7.776   8.859  -0.325  1.0713 -1.1707  0.5512
  375MOL0     H51711   7.717   8.863  -0.159  2.9671 -0.6980 -0.6410
  375MOL0     H51712   8.224   8.513  -0.492 -3.2228  0.8281  0.7175
  375MOL0     H51713   8.453   8.570  -0.480 -1.0276 -0.6966 -0.0375
  375MOL0     H51714   8.618   8.800  -0.103 -0.7024  0.3137 -1.1425
  375MOL0     H51715   8.633   8.633  -0.063 -3.1568  0.5673 -0.8746
  375MOL0     H51716   8.838   8.619  -0.197 -0.7823 -0.9315  1.9531
  375MOL0     H51717   8.815   8.774  -0.261 -1.3146 -1.5716 -1.2746
  375MOL0     H51718   8.895   8.690   0.020 -1.4884 -1.1101 -0.9674
  375MOL0     H51719   8.820   8.856  -0.010  1.9847  1.1665  0.6366
  375MOL0     H51720   8.992   8.906  -0.177  0.7031 -2.9052 -1.4237
  375MOL0     H51721   9.061   8.746  -0.141 -0.0207 -1.3064  2.4957
  375MOL0     H51722   9.033   8.983   0.058  0.3710  0.0905  1.1369
  375MOL0     H51723   9.109   8.823   0.088 -1.2510 -1.3483 -1.6530
  375MOL0     H51724   9.282   9.000   0.041 -0.2512  0.3481 -0.9832
  375MOL0     H51725   9.200   9.044  -0.105  0.6167  0.8073  0.5914
  375MOL0     H51726   9.272   8.830  -0.213  1.1819  1.6929 -1.9622
  375MOL0     H51727   9.307   8.762  -0.052  0.0544 -0.4018 -2.7563
  375MOL0     H51728   9.503   8.953  -0.061  2.6036 -1.1146 -1.8971
  375MOL0     H51729   9.450   8.974  -0.228  0.4407  1.1436  0.9312
  375MOL0     H51730   8.400   8.649  -0.044 -0.6889  3.0257 -1.0403
  375MOL0     H51731   8.182   8.596  -0.065 -1.8868 -0.7686 -1.3168
  375MOL0     H51732   7.882   8.357  -0.264 -0.4791 -0.3868  2.5137
  375MOL0     H51733   7.679   8.261  -0.223  1.7207 -0.2931 -2.4647
  375MOL0     H51734   5.596   8.785   0.190 -0.0874  0.7341 -0.2903
  375MOL0     H51735   5.369   8.792   0.094 -0.4175 -1.1244  2.0574
  375MOL0     H51736   5.079   8.756  -0.181  1.6201 -1.0682  2.2228
  375MOL0     H51737   4.897   8.730  -0.349 -1.7839 -2.2230 -1.8359
  375MOL0     H51738   4.547   8.504  -0.309 -1.0366 -0.6896 -1.8151
  375MOL0     H51739   4.622   8.639  -0.219  1.3963  2.0240 -1.7978
  375MOL0     H51740   4.641   8.773  -0.421  0.0664 -0.2113  1.0536
  375MOL0     H51741   4.479   8.743  -0.357 -0.3235 -1.8604 -0.3604
  375MOL0     H51742   4.459   8.732  -0.587 -0.9794  0.1791 -0.0266
  375MOL0     H51743   4.611   8.629  -0.603  0.4435 -0.5750  1.8473
  375MOL0     H51744   4.489   8.441  -0.529 -0.1752 -1.4309 -3.2556
  375MOL0     H51745   4.405   8.521  -0.659  0.5941 -0.9281  0.3253
  375MOL0     H51746   4.100   8.593  -0.386  0.1997 -2.3557 -0.6715
  375MOL0     H51747   4.820   8.338  -0.203  0.0564  0.1542 -2.7790
  375MOL0     H51748   5.123   8.317  -0.011  0.0668  1.4232 -1.2350
  375MOL0     H51749   4.968   8.310   0.076  0.7733 -2.5909  1.1768
  375MOL0     H51750   4.980   8.231  -0.073  2.2319 -1.8033  1.8165
  376MOL0     O51751   1.351   0.300   0.342 -0.9439 -0.2520 -0.3481
  376MOL0     C51752   1.320   0.204   0.404  0.6600  0.1174  0.0141
  376MOL0     O51753   1.411   0.125   0.470  0.4483 -0.1826  0.6427
  376MOL0     C51754   1.546   0.146   0.456 -0.6072  0.4643 -0.1507
  376MOL0     C51755   1.615   0.235   0.544  0.2173  0.3294  0.7058
  376MOL0     C51756   1.750   0.249   0.512  0.5886 -1.4913 -0.0452
  376MOL0     C51757   1.823   0.178   0.416  0.0532 -0.6224  0.1142
  376MOL0     O51758   1.955   0.191   0.401 -0.2341  0.5487  0.8228
  376MOL0     C51759   2.005   0.317   0.366  0.1842 -0.2924 -1.2328
  376MOL0     C51760   2.154   0.289   0.381 -0.1752  0.3600 -0.0516
  376MOL0     C51761   2.250   0.398   0.356  0.2910 -0.1906  0.1278
  376MOL0     C51762   2.392   0.333   0.365  0.4133 -0.0450 -0.3578
  376MOL0     C51763   2.490   0.430   0.305  0.3515  0.4100 -0.4526
  376MOL0     C51764   2.635   0.405   0.352  0.6268 -0.0264 -0.3344
  376MOL0     C51765   2.718   0.510   0.284  0.1696  0.2092  0.2688
  376MOL0     C51766   2.734   0.500   0.140  0.3867  0.1289  0.5745
  376MOL0     N51767   2.871   0.535   0.096  0.2700 -0.9493 -0.5507
  376MOL0     C51768   2.989   0.468   0.126  0.2277  0.0140  0.5021
  376MOL0     C51769   3.093   0.532   0.064 -0.5119  0.2044 -0.6380
  376MOL0     C51770   3.236   0.493   0.044  0.0994  0.5708  0.3760
  376MOL0     C51771   3.277   0.495  -0.104  0.0240 -0.0704  1.2096
  376MOL0     C51772   3.270   0.633  -0.176  0.0814  1.0020  0.6227
  376MOL0     C51773   3.330   0.750  -0.097  0.1099 -0.9327 -0.1644
  376MOL0     O51774   3.469   0.731  -0.066  0.3668  0.0187  0.6971
  376MOL0     C51775   3.561   0.742  -0.166  0.4166 -0.1401 -0.4802
  376MOL0     C51776   3.537   0.793  -0.299  0.3294 -0.0647 -0.6723
  376MOL0     C51777   3.641   0.817  -0.386 -0.1943  0.0892 -0.0884
  376MOL0     C51778   3.613   0.892  -0.509  0.6423  0.3856 -0.3372
  376MOL0     C51779   3.780   0.793  -0.337 -0.3692 -0.5225 -0.6332
  376MOL0     C51780   3.908   0.829  -0.414  0.3318  0.8860 -0.8074
  376MOL0     O51781   4.016   0.756  -0.379 -0.8422 -0.1956  0.6915
  376MOL0     C51782   4.139   0.792  -0.434 -0.3664 -0.2292  0.2199
  376MOL0     C51783   4.184   0.915  -0.478 -0.0115  0.0684 -0.1244
  376MOL0     C51784   4.319   0.933  -0.522 -0.3162  0.1495  0.0189
  376MOL0     C51785   4.415   0.829  -0.528  0.2258 -0.1486  0.6966
  376MOL0     O51786   4.548   0.866  -0.545 -0.4679 -0.3992 -0.3714
  376MOL0     C51787   4.629   0.775  -0.621  0.0987  0.4281 -0.5675
  376MOL0     C51788   4.779   0.808  -0.592 -0.0908 -0.8724  0.9275
  376MOL0     C51789   4.845   0.727  -0.477  0.2712  0.7320  0.1788
  376MOL0     C51790   4.982   0.787  -0.439  0.5057 -0.2726 -0.3396
  376MOL0     C51791   5.063   0.692  -0.349  1.1756 -0.1799  0.2443
  376MOL0     C51792   5.200   0.758  -0.320  0.7667 -0.6353 -0.6623
  376MOL0     C51793   5.283   0.675  -0.226  0.0126 -0.5747  0.2242
  376MOL0     C51794   5.425   0.739  -0.213  0.1702 -0.7688 -0.1696
  376MOL0    Cl51795   5.547   0.660  -0.097  0.2026 -0.3624  0.0721
  376MOL0     C51796   4.357   0.702  -0.499  0.0137 -0.1373  0.1201
  376MOL0     C51797   4.226   0.689  -0.455  0.5088  0.2043 -0.3191
  376MOL0     O51798   3.901   0.926  -0.489  0.0276  0.2039 -0.2920
  376MOL0     C51799   3.803   0.727  -0.210  0.8166  0.5916  0.5032
  376MOL0     C51800   3.695   0.700  -0.122 -0.0223  0.2231 -0.2461
  376MOL0     N51801   3.030   0.649   0.017 -0.1923  0.0262 -0.3790
  376MOL0     N51802   2.906   0.645   0.027 -0.0654 -0.3416 -0.5629
  376MOL0     C51803   1.753   0.090   0.335 -0.1526 -0.1214 -0.0233
  376MOL0     C51804   1.617   0.077   0.354  0.4258 -0.2286  0.0017
  376MOL0     C51805   1.182   0.142   0.381 -0.5806  0.5332  0.2367
  376MOL0     C51806   1.169   0.009   0.417 -0.0912 -0.8588 -0.4536
  376MOL0     C51807   1.043  -0.054   0.405  0.0304 -0.0079 -0.2978
  376MOL0     C51808   0.934   0.025   0.368 -0.5206  0.0358  1.0898
  376MOL0     O51809   0.815  -0.038   0.362  0.2165 -0.0810  0.5087
  376MOL0     C51810   0.776  -0.100   0.230 -0.0760 -0.7678  0.8340
  376MOL0     C51811   0.659  -0.201   0.245  0.2354 -0.1299  0.1595
  376MOL0     C51812   0.540  -0.137   0.324  0.6842 -0.3266 -0.1116
  376MOL0     C51813   0.429  -0.220   0.354  0.3042 -0.0038 -0.9075
  376MOL0     C51814   0.411  -0.336   0.257 -0.0602  0.5540 -0.2784
  376MOL0     C51815   0.383  -0.429   0.191 -0.2119  0.4987  0.0145
  376MOL0     C51816   0.949   0.157   0.327 -0.0132  0.3115  0.1730
  376MOL0     C51817   1.077   0.217   0.335  0.2388 -0.5848 -0.0574
  376MOL0     C51818   1.085   0.360   0.297 -0.3772 -0.9145  0.3330
  376MOL0     H51819   1.567   0.287   0.626 -0.4627  0.2910  0.3425
  376MOL0     H51820   1.810   0.315   0.574  2.4693 -2.4991 -0.7150
  376MOL0     H51821   1.974   0.395   0.437  1.0453 -1.4733  0.5184
  376MOL0     H51822   1.976   0.337   0.262 -1.2692 -2.3301 -1.2852
  376MOL0     H51823   2.167   0.249   0.482 -3.1549 -1.0836 -0.1237
  376MOL0     H51824   2.174   0.200   0.321 -1.8225  1.1020 -1.8180
  376MOL0     H51825   2.239   0.444   0.257  1.9769 -1.4096 -0.6815
  376MOL0     H51826   2.240   0.474   0.433 -0.0358  0.8361 -0.9053
  376MOL0     H51827   2.430   0.318   0.467 -0.9621  2.5867  0.6335
  376MOL0     H51828   2.397   0.234   0.319  2.2131  0.4484 -1.3187
  376MOL0     H51829   2.470   0.533   0.335 -0.4877  0.7867 -2.2220
  376MOL0     H51830   2.476   0.425   0.197 -3.8285  0.8254 -0.0885
  376MOL0     H51831   2.642   0.417   0.460 -1.5028 -0.3379 -0.1043
  376MOL0     H51832   2.668   0.307   0.317  1.7065  1.3576 -3.5716
  376MOL0     H51833   2.819   0.509   0.327  0.5587  1.5086 -0.5540
  376MOL0     H51834   2.678   0.609   0.311  1.6624  1.2005 -0.9865
  376MOL0     H51835   2.718   0.396   0.108 -0.1345  0.9994 -2.2669
  376MOL0     H51836   2.661   0.562   0.088 -1.7026 -0.7928  2.2436
  376MOL0     H51837   2.995   0.374   0.180 -0.2958 -0.3112 -0.0012
  376MOL0     H51838   3.242   0.388   0.072 -1.1625  0.8362  1.7887
  376MOL0     H51839   3.307   0.560   0.094 -0.3362  0.9001  0.5648
  376MOL0     H51840   3.379   0.455  -0.109 -0.4887 -1.3263 -2.4950
  376MOL0     H51841   3.215   0.427  -0.164  0.4067  0.8995 -0.3472
  376MOL0     H51842   3.310   0.616  -0.276 -1.2915 -0.0199  0.2104
  376MOL0     H51843   3.165   0.660  -0.193 -0.6585 -1.3302  1.1046
  376MOL0     H51844   3.313   0.841  -0.156  1.2497 -1.3357 -1.1742
  376MOL0     H51845   3.275   0.774  -0.006 -0.7323  4.7175 -1.7999
  376MOL0     H51846   3.439   0.823  -0.334 -0.4267  1.7602  2.5773
  376MOL0     H51847   3.506   0.885  -0.532  0.6511  2.4397 -1.2563
  376MOL0     H51848   3.656   0.851  -0.601 -0.5259  1.0561 -1.2039
  376MOL0     H51849   3.653   0.994  -0.503  3.1914 -0.6474  2.6987
  376MOL0     H51850   4.126   1.006  -0.464  0.4344  0.0178  2.7105
  376MOL0     H51851   4.344   1.035  -0.551 -3.2647  0.9562 -0.0155
  376MOL0     H51852   4.610   0.676  -0.579 -1.8042  1.3191  0.7927
  376MOL0     H51853   4.609   0.785  -0.728  1.6722 -3.5069 -1.4296
  376MOL0     H51854   4.840   0.806  -0.682 -0.9012  1.1144  0.2926
  376MOL0     H51855   4.782   0.908  -0.547  2.0379 -0.8218  0.7797
  376MOL0     H51856   4.860   0.625  -0.515  1.7399  0.7694  0.5823
  376MOL0     H51857   4.782   0.725  -0.387  0.0362 -0.8940  0.0135
  376MOL0     H51858   4.972   0.884  -0.390  3.3286  1.3284 -2.6048
  376MOL0     H51859   5.044   0.805  -0.527  0.8154 -0.0631 -0.0822
  376MOL0     H51860   5.010   0.675  -0.255 -2.0229  0.3516 -1.3250
  376MOL0     H51861   5.079   0.594  -0.396  0.7894  0.7982 -2.0888
  376MOL0     H51862   5.181   0.858  -0.281  0.5766 -0.4955 -1.1112
  376MOL0     H51863   5.257   0.787  -0.408  0.3696  1.0810 -0.3759
  376MOL0     H51864   5.282   0.571  -0.260 -1.2695  0.6435 -4.0193
  376MOL0     H51865   5.240   0.683  -0.126 -0.7504  2.6544 -0.2555
  376MOL0     H51866   5.412   0.845  -0.191  1.1782 -0.2015 -2.1003
  376MOL0     H51867   5.472   0.720  -0.309 -1.8942 -2.1005 -1.0069
  376MOL0     H51868   4.411   0.608  -0.510 -0.4364 -0.1964 -1.8217
  376MOL0     H51869   4.187   0.588  -0.442  2.3171 -0.9864 -3.1366
  376MOL0     H51870   3.900   0.706  -0.167 -0.1508 -0.3271  2.3842
  376MOL0     H51871   3.726   0.655  -0.028 -0.5241 -1.1167 -0.7006
  376MOL0     H51872   1.808   0.035   0.259  1.8440  0.3538  0.9976
  376MOL0     H51873   1.549   0.021   0.291  1.3385 -0.7199 -0.5761
  376MOL0     H51874   1.242  -0.050   0.471 -1.8352 -0.5119  2.5034
  376MOL0     H51875   1.027  -0.158   0.428 -0.1483  0.7242  3.4854
  376MOL0     H51876   0.748  -0.020   0.161  0.9675 -0.1007  1.1585
  376MOL0     H51877   0.860  -0.148   0.180 -0.7538 -0.3850 -0.7180
  376MOL0     H51878   0.691  -0.288   0.304 -2.2864 -0.0262  1.8250
  376MOL0     H51879   0.628  -0.231   0.145  3.0034 -0.5529 -0.6588
  376MOL0     H51880   0.576  -0.105   0.421  2.4692 -1.6643 -0.2928
  376MOL0     H51881   0.505  -0.051   0.266 -1.4015 -2.1385 -1.7803
  376MOL0     H51882   0.342  -0.157   0.373  0.7833  0.4104 -0.0812
  376MOL0     H51883   0.435  -0.261   0.455 -0.6321 -0.0272 -0.8493
  376MOL0     H51884   0.375  -0.519   0.133  0.9497  1.4590 -1.7212
  376MOL0     H51885   0.857   0.196   0.285 -0.7165  1.2779  2.4917
  376MOL0     H51886   1.139   0.385   0.205 -2.5953  2.7859 -0.1695
  376MOL0     H51887   0.986   0.404   0.285 -1.3384 -2.7952  0.9736
  376MOL0     H51888   1.122   0.419   0.381  1.0133  1.1221 -1.6101
  377MOL0     O51889   7.861   6.470   9.943 -0.3645 -0.5901  0.4329
  377MOL0     C51890   7.760   6.495   9.872 -0.2783 -0.1849  0.4052
  377MOL0     O51891   7.764   6.475   9.738  0.2254  0.5702 -0.1002
  377MOL0     C51892   7.885   6.445   9.683 -0.4161  0.9588 -0.3581
  377MOL0     C51893   7.984   6.538   9.650  0.9168  0.0809  0.4793
  377MOL0     C51894   8.102   6.485   9.599 -0.4092 -0.5668  0.2626
  377MOL0     C51895   8.124   6.347   9.576 -0.6440  0.1894  0.0681
  377MOL0     O51896   8.239   6.294   9.517 -0.1250  0.1257 -0.0397
  377MOL0     C51897   8.340   6.396   9.486  0.0670 -0.1221  0.5405
  377MOL0     C51898   8.456   6.332   9.419  0.2104  0.2176 -1.1761
  377MOL0     C51899   8.543   6.441   9.370 -0.6369  0.5058 -0.1799
  377MOL0     C51900   8.652   6.376   9.290 -0.0616  0.2078 -0.6196
  377MOL0     C51901   8.741   6.491   9.247 -0.4009  0.4348 -0.1203
  377MOL0     C51902   8.853   6.442   9.157  0.2087  0.2437 -0.2526
  377MOL0     C51903   8.960   6.538   9.110  0.0348 -1.0912 -0.4399
  377MOL0     C51904   9.045   6.460   9.017  0.2636  0.2262  0.9816
  377MOL0     N51905   9.155   6.534   8.952  0.0037  0.4219  0.7367
  377MOL0     C51906   9.188   6.667   8.958  0.0416  0.5691  0.2338
  377MOL0     C51907   9.299   6.663   8.881 -0.7143 -0.7262 -0.1942
  377MOL0     C51908   9.386   6.786   8.850  0.5647  0.0352 -0.4983
  377MOL0     C51909   9.530   6.762   8.836  0.7207 -0.3356  0.0850
  377MOL0     C51910   9.608   6.892   8.820 -1.3203 -0.6170 -0.0853
  377MOL0     C51911   9.759   6.857   8.787  1.2069 -0.3998 -0.3527
  377MOL0     O51912   9.800   6.740   8.864 -0.0698  0.3638  0.2750
  377MOL0     C51913   9.939   6.707   8.865  0.8864  0.1095 -1.2531
  377MOL0     C51914   9.969   6.600   8.940 -0.0446  0.1222 -0.6369
  377MOL0     C51915  10.105   6.553   8.946  0.2025 -0.2782 -0.6487
  377MOL0     C51916  10.132   6.429   9.030  0.1043  0.3027  0.1196
  377MOL0     C51917  10.211   6.617   8.874 -0.4381 -0.0407  0.0709
  377MOL0     C51918  10.360   6.581   8.868 -0.4075 -0.2572 -0.5897
  377MOL0     O51919  10.454   6.672   8.827  0.7831 -0.6579 -0.3354
  377MOL0     C51920  10.577   6.625   8.834  0.0808  0.7864  0.6486
  377MOL0     C51921  10.646   6.646   8.949 -0.1468  0.7274  0.1758
  377MOL0     C51922  10.778   6.600   8.957  0.4088 -0.8774 -0.7876
  377MOL0     C51923  10.835   6.531   8.850  0.1797  0.4808 -0.7527
  377MOL0     O51924  10.960   6.472   8.857 -0.1292 -0.5032 -0.1619
  377MOL0     C51925  11.042   6.498   8.965 -0.5297  0.2145  0.0802
  377MOL0     C51926  11.163   6.406   8.969  0.3772 -0.9146 -0.0138
  377MOL0     C51927  11.140   6.256   8.966 -0.5110  0.4158 -0.4812
  377MOL0     C51928  11.268   6.176   8.980  0.0130 -0.0940 -0.0530
  377MOL0     C51929  11.236   6.020   8.988  0.5349  0.0415 -0.6957
  377MOL0     C51930  11.144   5.970   8.879  0.8075 -0.6698  0.6414
  377MOL0     C51931  11.152   5.815   8.876 -0.2426  0.1929 -0.0152
  377MOL0     C51932  11.021   5.758   8.827  0.4318  0.1060  0.7593
  377MOL0    Cl51933  11.037   5.582   8.823  0.1432 -0.2949  0.1903
  377MOL0     C51934  10.756   6.508   8.731 -0.4350 -0.4958  0.2549
  377MOL0     C51935  10.627   6.556   8.726  0.5372 -0.2339  0.5086
  377MOL0     O51936  10.388   6.473   8.923 -0.3107  1.0958  0.4295
  377MOL0     C51937  10.168   6.722   8.799 -0.4264 -0.1305  0.2641
  377MOL0     C51938  10.034   6.765   8.789 -0.2559  0.8049  0.0516
  377MOL0     N51939   9.305   6.544   8.821 -0.6793 -0.2397  0.3134
  377MOL0     N51940   9.219   6.459   8.857  0.8294  0.2035  0.3464
  377MOL0     C51941   8.033   6.258   9.616  0.3999  0.9313  0.3135
  377MOL0     C51942   7.911   6.304   9.670  0.8401  1.0332 -0.6242
  377MOL0     C51943   7.627   6.517   9.928 -0.0340 -0.9490  0.0747
  377MOL0     C51944   7.517   6.534   9.840 -0.7893 -0.3188  1.1895
  377MOL0     C51945   7.394   6.558   9.887 -0.0639  0.3407 -1.3863
  377MOL0     C51946   7.367   6.552  10.027  0.5699  0.3616 -0.5548
  377MOL0     O51947   7.246   6.568  10.084  0.7647  0.3458  0.1850
  377MOL0     C51948   7.129   6.509  10.015 -0.3029 -0.4346 -0.2831
  377MOL0     C51949   7.049   6.616   9.943  0.0431  0.5562  0.1736
  377MOL0     C51950   6.944   6.566   9.839 -0.5851  0.2924 -0.0675
  377MOL0     C51951   6.835   6.670   9.833  0.3058 -0.4444 -0.3218
  377MOL0     C51952   6.748   6.643   9.721  0.8049 -0.6667  0.7215
  377MOL0     C51953   6.663   6.594   9.653  0.3673 -0.0668 -0.2951
  377MOL0     C51954   7.474   6.530  10.113 -0.3488 -0.1204  0.0989
  377MOL0     C51955   7.606   6.519  10.064  0.1869 -0.1499  0.3942
  377MOL0     C51956   7.711   6.496  10.176  0.9756 -0.5062 -1.0720
  377MOL0     H51957   7.970   6.645   9.647 -1.4549 -0.1919 -1.6191
  377MOL0     H51958   8.172   6.561   9.567 -1.5949 -0.0975 -1.3045
  377MOL0     H51959   8.370   6.465   9.565 -3.1645 -0.7152  2.4853
  377MOL0     H51960   8.292   6.457   9.409  1.0374  1.9655  1.5277
  377MOL0     H51961   8.501   6.264   9.492  0.3223  0.5482 -0.9349
  377MOL0     H51962   8.420   6.273   9.334  0.4380 -0.9103 -0.5100
  377MOL0     H51963   8.486   6.512   9.309 -0.6756  1.2009  0.6477
  377MOL0     H51964   8.587   6.495   9.454 -0.3655 -0.3319  0.2256
  377MOL0     H51965   8.707   6.303   9.349 -0.3209 -0.7612 -1.5457
  377MOL0     H51966   8.613   6.324   9.202 -1.6361 -0.2147  0.2986
  377MOL0     H51967   8.783   6.538   9.336 -2.3052  1.3848  0.3420
  377MOL0     H51968   8.679   6.570   9.205  0.9697  1.9568  0.6243
  377MOL0     H51969   8.890   6.351   9.207 -0.5910 -0.2868 -0.6150
  377MOL0     H51970   8.797   6.402   9.073 -2.3849 -0.9698  1.9064
  377MOL0     H51971   9.018   6.585   9.190 -0.1440  3.5652 -2.6528
  377MOL0     H51972   8.897   6.613   9.060 -0.6070 -2.3056 -1.5160
  377MOL0     H51973   9.095   6.370   9.054  1.0908  0.2935  0.0751
  377MOL0     H51974   8.978   6.431   8.936  1.1837  2.5898 -0.7399
  377MOL0     H51975   9.140   6.739   9.023  0.5707 -2.1863  4.0588
  377MOL0     H51976   9.369   6.860   8.929 -1.2538  1.4570 -2.1299
  377MOL0     H51977   9.352   6.838   8.760  0.2335  1.7495  0.5660
  377MOL0     H51978   9.553   6.723   8.935  4.2073 -1.3480 -0.9937
  377MOL0     H51979   9.553   6.692   8.755  0.4656 -0.6307  0.2655
  377MOL0     H51980   9.564   6.962   8.748 -0.1820 -0.6012 -0.7907
  377MOL0     H51981   9.611   6.946   8.915  2.4761 -0.0193 -0.3809
  377MOL0     H51982   9.765   6.844   8.678 -1.5459 -1.5011 -0.4654
  377MOL0     H51983   9.819   6.945   8.810  1.9584 -0.2823 -2.4960
  377MOL0     H51984   9.888   6.556   8.997  0.4094  0.4495  0.2810
  377MOL0     H51985  10.040   6.386   9.071 -0.5982  1.5926 -0.0429
  377MOL0     H51986  10.191   6.457   9.118 -0.4080 -0.8644  0.8518
  377MOL0     H51987  10.188   6.357   8.969  0.1785  1.7312 -1.5595
  377MOL0     H51988  10.591   6.675   9.038  1.1563  2.3728  0.4863
  377MOL0     H51989  10.826   6.618   9.052 -1.3463 -2.6784  0.5040
  377MOL0     H51990  11.073   6.602   8.972  1.3194 -0.3021  0.0962
  377MOL0     H51991  10.989   6.460   9.054  0.5175  1.1066  1.1119
  377MOL0     H51992  11.224   6.428   8.880 -0.6636  0.9851 -0.3298
  377MOL0     H51993  11.215   6.427   9.063 -1.8822  0.3581  1.0202
  377MOL0     H51994  11.100   6.230   8.867  0.7062  0.1948 -0.9319
  377MOL0     H51995  11.079   6.228   9.052  1.0357  1.7858  1.1429
  377MOL0     H51996  11.319   6.197   9.075  0.9548 -0.8887 -0.3644
  377MOL0     H51997  11.335   6.205   8.899  1.6937  0.2324  1.3703
  377MOL0     H51998  11.332   5.969   8.980  0.5203 -0.0206 -0.4664
  377MOL0     H51999  11.197   5.993   9.086 -1.4957 -0.6492 -1.6338
  377MOL0     H52000  11.156   6.015   8.780 -2.7936  0.7954  0.7126
  377MOL0     H52001  11.042   6.008   8.893  1.1860  2.4046 -3.0851
  377MOL0     H52002  11.175   5.774   8.974  4.9764 -1.6530 -1.7108
  377MOL0     H52003  11.231   5.791   8.805  0.3381 -0.0438  0.7064
  377MOL0     H52004  10.988   5.802   8.733 -0.5303  0.2242  1.1445
  377MOL0     H52005  10.949   5.787   8.904 -1.9432  1.7326 -1.8866
  377MOL0     H52006  10.798   6.459   8.644  2.8894  1.7168  0.4340
  377MOL0     H52007  10.568   6.525   8.641 -0.5498 -0.3557  1.2928
  377MOL0     H52008  10.231   6.775   8.729 -1.6073  1.6154  0.4729
  377MOL0     H52009   9.997   6.836   8.716 -2.4984 -2.4074 -2.2195
  377MOL0     H52010   8.042   6.152   9.596 -0.3138  0.7180  1.0683
  377MOL0     H52011   7.835   6.228   9.681  0.4715  1.5453  0.4605
  377MOL0     H52012   7.527   6.543   9.732 -1.5733  1.1934  1.2062
  377MOL0     H52013   7.307   6.573   9.824 -2.1539  0.8838  1.4129
  377MOL0     H52014   7.164   6.435   9.943  1.1848  1.7926 -2.0158
  377MOL0     H52015   7.066   6.459  10.088 -1.2202 -1.5857 -1.8206
  377MOL0     H52016   7.126   6.679   9.896  0.5319  2.5560  3.3525
  377MOL0     H52017   7.000   6.663  10.029  2.0928 -0.4657  2.0046
  377MOL0     H52018   6.988   6.563   9.739  0.0745 -1.6804  0.2476
  377MOL0     H52019   6.905   6.465   9.855 -0.1993  0.3040  1.0452
  377MOL0     H52020   6.869   6.773   9.823 -1.0629  0.5028  3.3653
  377MOL0     H52021   6.778   6.668   9.926  2.0449  1.4094  0.8569
  377MOL0     H52022   6.618   6.520   9.590  0.0909 -1.0380  0.9944
  377MOL0     H52023   7.457   6.527  10.220 -0.0153 -4.1959  0.1917
  377MOL0     H52024   7.666   6.519  10.273  0.5846  3.2279 -1.9989
  377MOL0     H52025   7.752   6.395  10.170  3.2814  0.4206 -2.0722
  377MOL0     H52026   7.794   6.567  10.167  2.4324 -1.1282  4.1740
  378MOL0     O52027   4.777   7.952   4.953  0.0058 -0.6676 -0.4400
  378MOL0     C52028   4.791   7.833   4.932 -0.1732 -0.0501  0.0382
  378MOL0     O52029   4.904   7.755   4.960 -0.3397 -0.0900  0.1760
  378MOL0     C52030   5.012   7.823   5.013  0.3902 -0.6000  0.3266
  378MOL0     C52031   5.084   7.923   4.940 -0.0459  0.7059 -0.4748
  378MOL0     C52032   5.187   7.979   4.999 -0.9348 -0.2727 -0.7384
  378MOL0     C52033   5.233   7.938   5.126 -0.2599 -0.1377 -0.2536
  378MOL0     O52034   5.346   7.979   5.184 -0.4020  0.1545 -0.3867
  378MOL0     C52035   5.399   8.103   5.143  0.6303  0.1937  0.3074
  378MOL0     C52036   5.511   8.084   5.039  0.4038  0.2730  0.2669
  378MOL0     C52037   5.631   8.015   5.107 -0.4964  0.3356 -0.3003
  378MOL0     C52038   5.753   8.026   5.014 -0.2628 -0.2238 -0.6061
  378MOL0     C52039   5.887   7.989   5.080  0.0743  0.8262  0.2574
  378MOL0     C52040   5.979   7.943   4.972  0.2205 -0.2153 -0.1780
  378MOL0     C52041   6.117   7.899   5.034  0.2365  0.5796  0.1044
  378MOL0     C52042   6.202   7.831   4.927  0.4337 -0.1296  0.2746
  378MOL0     N52043   6.148   7.699   4.893  0.4327  0.6024 -0.1108
  378MOL0     C52044   6.158   7.576   4.966  1.0797 -0.6971  0.3171
  378MOL0     C52045   6.110   7.478   4.883 -0.0690  0.1545 -0.1836
  378MOL0     C52046   6.096   7.335   4.914 -0.1916 -0.1728  0.2680
  378MOL0     C52047   6.224   7.258   4.873 -0.2128  0.3145  0.5915
  378MOL0     C52048   6.216   7.204   4.724 -0.0004  0.0178  0.0743
  378MOL0     C52049   6.350   7.142   4.698 -0.0131  0.4648 -0.7719
  378MOL0     O52050   6.406   7.189   4.572  0.9466 -0.3835  0.5868
  378MOL0     C52051   6.538   7.165   4.542 -0.9460 -0.6408  0.6518
  378MOL0     C52052   6.568   7.143   4.411  0.2525 -0.6697 -0.4286
  378MOL0     C52053   6.699   7.108   4.372  0.4114 -0.1987 -0.3032
  378MOL0     C52054   6.725   7.059   4.229 -0.2138  0.7229 -1.7270
  378MOL0     C52055   6.807   7.111   4.470 -0.0685  0.2078  0.4828
  378MOL0     C52056   6.943   7.070   4.449  1.0915  0.9109  0.3526
  378MOL0     O52057   6.981   6.956   4.517  0.1980 -0.5180  0.0896
  378MOL0     C52058   7.113   6.943   4.562 -0.9090  0.4988  0.5521
  378MOL0     C52059   7.163   6.815   4.579  0.1362  0.0022  0.5146
  378MOL0     C52060   7.295   6.793   4.621  0.3913  0.2675 -0.4156
  378MOL0     C52061   7.378   6.905   4.657  0.1395 -0.8338  0.3464
  378MOL0     O52062   7.505   6.900   4.711 -0.0778  0.1971 -0.7403
  378MOL0     C52063   7.569   6.772   4.721  0.1005  0.7842 -0.0304
  378MOL0     C52064   7.714   6.793   4.753  0.5060  0.2499 -0.6278
  378MOL0     C52065   7.794   6.843   4.634 -0.1953  0.0576  0.5103
  378MOL0     C52066   7.929   6.897   4.674  0.0742  0.2347  0.7459
  378MOL0     C52067   7.996   6.976   4.563 -0.5103  0.6112 -0.0970
  378MOL0     C52068   8.144   7.008   4.602 -0.4365  0.5946  0.3600
  378MOL0     C52069   8.145   7.107   4.712 -0.0290 -0.0402 -0.6374
  378MOL0     C52070   8.290   7.143   4.747 -0.5809 -0.8893  0.6359
  378MOL0    Cl52071   8.389   7.020   4.844 -0.1232  0.7586 -0.2950
  378MOL0     C52072   7.333   7.028   4.638  0.5943 -0.0202 -0.0528
  378MOL0     C52073   7.202   7.049   4.587 -0.0624 -0.3732  0.1100
  378MOL0     O52074   7.010   7.120   4.363  0.2753 -0.3755 -0.3703
  378MOL0     C52075   6.770   7.144   4.603 -0.1797  0.1071  0.0930
  378MOL0     C52076   6.640   7.162   4.641 -0.2713  0.3149  0.1706
  378MOL0     N52077   6.063   7.546   4.770 -0.3735 -0.1770 -0.0832
  378MOL0     N52078   6.086   7.669   4.774  0.5390  0.6330  0.1970
  378MOL0     C52079   5.169   7.834   5.196 -0.9229  0.0192  0.1697
  378MOL0     C52080   5.054   7.781   5.139  0.0948 -0.3102  0.1366
  378MOL0     C52081   4.673   7.763   4.884  0.2318 -0.3667  0.5137
  378MOL0     C52082   4.567   7.837   4.820 -0.2171  0.0123 -0.0532
  378MOL0     C52083   4.445   7.783   4.777  0.1862  0.1208 -0.7856
  378MOL0     C52084   4.416   7.645   4.787 -0.3660  0.6684 -0.2617
  378MOL0     O52085   4.298   7.599   4.743 -0.0694  0.2968  0.3082
  378MOL0     C52086   4.275   7.453   4.724  0.2437  1.0876  0.4426
  378MOL0     C52087   4.210   7.396   4.847  0.7220  0.0106  0.5378
  378MOL0     C52088   4.143   7.267   4.809  0.8684  0.2421 -0.3302
  378MOL0     C52089   4.146   7.170   4.933  0.0077 -0.4340 -0.2042
  378MOL0     C52090   4.066   7.046   4.910 -0.5824  0.0371  0.3681
  378MOL0     C52091   3.992   6.955   4.890 -0.0169 -0.5255  0.4389
  378MOL0     C52092   4.517   7.568   4.850 -0.3595 -0.2928  0.5470
  378MOL0     C52093   4.639   7.630   4.896 -0.7061  0.5259 -0.2849
  378MOL0     C52094   4.738   7.526   4.973  0.3278 -0.7808  0.7195
  378MOL0     H52095   5.054   7.943   4.838  0.6248 -1.4092 -1.1310
  378MOL0     H52096   5.242   8.055   4.944 -1.5831  0.8968  0.1827
  378MOL0     H52097   5.439   8.154   5.231  1.0295 -1.9105  1.4048
  378MOL0     H52098   5.319   8.169   5.107  0.3078  1.1496  2.5827
  378MOL0     H52099   5.474   8.029   4.952 -0.6614  3.0236 -1.1142
  378MOL0     H52100   5.537   8.182   5.000  0.6562 -0.0277 -0.3302
  378MOL0     H52101   5.647   8.066   5.202 -2.9097  2.8090 -1.0951
  378MOL0     H52102   5.607   7.909   5.120 -1.3930  0.6237  0.4755
  378MOL0     H52103   5.732   7.961   4.929  2.1725 -0.5016 -1.0647
  378MOL0     H52104   5.769   8.130   4.986 -0.5257  0.0661  0.2815
  378MOL0     H52105   5.865   7.895   5.132 -2.2275  0.0650 -1.8831
  378MOL0     H52106   5.931   8.060   5.150  1.0893  0.3026  0.1697
  378MOL0     H52107   5.942   7.860   4.911 -0.4888 -1.1628  1.4654
  378MOL0     H52108   6.003   8.028   4.907 -3.4056  1.8746  0.9370
  378MOL0     H52109   6.115   7.825   5.115  0.4663  0.6510  0.1757
  378MOL0     H52110   6.169   7.990   5.065  0.3000  1.5063 -2.5507
  378MOL0     H52111   6.209   7.887   4.833 -2.5114 -0.3124 -0.1281
  378MOL0     H52112   6.302   7.809   4.966  0.9648  2.4787  0.5733
  378MOL0     H52113   6.204   7.562   5.064 -0.0638 -0.0482  0.9742
  378MOL0     H52114   6.009   7.295   4.860 -0.3394  0.4660  0.0236
  378MOL0     H52115   6.081   7.322   5.021  3.6772  1.9019  1.2677
  378MOL0     H52116   6.311   7.323   4.889 -0.2009 -0.2950  3.4426
  378MOL0     H52117   6.244   7.179   4.946 -0.6955 -0.0645  0.3212
  378MOL0     H52118   6.135   7.131   4.718  0.9064 -1.3744  3.1421
  378MOL0     H52119   6.204   7.282   4.648 -1.6112 -1.7774 -1.6415
  378MOL0     H52120   6.419   7.150   4.783  0.4095  0.9706 -1.1583
  378MOL0     H52121   6.335   7.035   4.680 -0.1581 -0.1914  2.5725
  378MOL0     H52122   6.489   7.125   4.339 -2.7347  2.0519  1.8729
  378MOL0     H52123   6.763   7.147   4.177  2.1934 -0.3168 -1.8647
  378MOL0     H52124   6.636   7.026   4.174 -0.3760  1.8214 -2.1490
  378MOL0     H52125   6.797   6.977   4.243  0.0541  1.0189 -1.3423
  378MOL0     H52126   7.090   6.736   4.567  0.7819 -0.3337 -1.5088
  378MOL0     H52127   7.349   6.700   4.634  0.9235  0.5672 -0.4623
  378MOL0     H52128   7.523   6.713   4.801  1.7274 -0.2300  0.2080
  378MOL0     H52129   7.554   6.721   4.625  0.6348  1.0085 -0.2353
  378MOL0     H52130   7.713   6.858   4.841 -1.3786 -0.5980  0.0442
  378MOL0     H52131   7.765   6.703   4.787 -0.0521  0.0037 -0.4281
  378MOL0     H52132   7.734   6.915   4.577 -0.2835 -1.7979 -1.9209
  378MOL0     H52133   7.802   6.755   4.569  0.1301  1.5058 -1.5077
  378MOL0     H52134   7.988   6.812   4.710  0.1069  0.1279  0.4418
  378MOL0     H52135   7.906   6.962   4.759 -3.2878 -0.5647  0.5887
  378MOL0     H52136   8.010   6.912   4.476  0.7805 -0.5229  0.8962
  378MOL0     H52137   7.953   7.071   4.531  2.4626  1.3383 -2.2556
  378MOL0     H52138   8.190   7.046   4.510  2.1994 -0.2582  1.2217
  378MOL0     H52139   8.196   6.920   4.641 -1.3892 -0.5193 -0.8320
  378MOL0     H52140   8.089   7.066   4.797 -0.9955  1.8638 -0.3125
  378MOL0     H52141   8.097   7.192   4.663 -0.9594 -0.4085 -0.3880
  378MOL0     H52142   8.279   7.237   4.800 -1.1794 -0.2189 -0.6309
  378MOL0     H52143   8.348   7.177   4.660 -1.9725  1.9347  0.6978
  378MOL0     H52144   7.402   7.110   4.649  1.8079 -0.7621 -1.7740
  378MOL0     H52145   7.166   7.145   4.552 -0.6776 -1.2338 -1.7482
  378MOL0     H52146   6.848   7.146   4.678  0.0096  0.7393 -0.1116
  378MOL0     H52147   6.606   7.178   4.743 -0.5416  3.2629 -0.3013
  378MOL0     H52148   5.211   7.802   5.292 -0.2550 -3.3180 -1.0993
  378MOL0     H52149   4.998   7.698   5.181 -3.1030  0.7773 -1.5813
  378MOL0     H52150   4.582   7.944   4.815 -1.3266  0.2787  1.5246
  378MOL0     H52151   4.371   7.847   4.730 -1.5537 -0.8837  0.4697
  378MOL0     H52152   4.215   7.449   4.633 -1.0894  0.1251  1.3249
  378MOL0     H52153   4.370   7.403   4.702 -0.8597  0.0486 -2.3533
  378MOL0     H52154   4.143   7.475   4.883  0.6286 -1.0839  3.0164
  378MOL0     H52155   4.285   7.373   4.923  1.8444  1.0897 -0.2095
  378MOL0     H52156   4.037   7.279   4.785  1.2320 -0.5609 -2.6308
  378MOL0     H52157   4.175   7.208   4.722  3.4363 -0.3729  0.9515
  378MOL0     H52158   4.090   7.222   5.010 -1.1833  1.9461 -2.5144
  378MOL0     H52159   4.242   7.137   4.973 -0.9982 -2.3763  0.7684
  378MOL0     H52160   3.927   6.869   4.895 -2.7747  1.4910  2.2027
  378MOL0     H52161   4.495   7.462   4.859 -1.6911  0.0919  2.3211
  378MOL0     H52162   4.832   7.513   4.917  1.6796  1.9151  2.1661
  378MOL0     H52163   4.757   7.562   5.074 -2.2739  0.1260  0.9435
  378MOL0     H52164   4.703   7.422   4.976  1.4787 -1.2125  0.0276
  379MOL0     O52165   9.755   9.168   1.888  0.4512  0.8711  0.5749
  379MOL0     C52166   9.778   9.175   1.771  0.4019  0.2796  0.5463
  379MOL0     O52167   9.684   9.144   1.676 -0.2865 -0.1202  0.2581
  379MOL0     C52168   9.561   9.111   1.719 -0.8984 -0.2329 -0.3685
  379MOL0     C52169   9.535   8.973   1.735 -0.3594 -0.8709  0.2545
  379MOL0     C52170   9.404   8.931   1.758 -1.4257  0.2297  0.8990
  379MOL0     C52171   9.297   9.023   1.766 -0.3384  1.0503 -0.5472
  379MOL0     O52172   9.164   8.980   1.795  0.3226  0.5400 -0.5787
  379MOL0     C52173   9.115   8.880   1.704 -0.1330  0.1345 -0.3548
  379MOL0     C52174   9.019   8.788   1.777  0.1162  0.3268 -0.3167
  379MOL0     C52175   8.927   8.712   1.684  1.0837 -0.2323  1.1623
  379MOL0     C52176   9.008   8.602   1.620  0.7696  0.0904 -0.1155
  379MOL0     C52177   8.927   8.502   1.538 -0.0015  0.8231 -0.2469
  379MOL0     C52178   8.848   8.577   1.427 -0.9874  0.2445  0.6921
  379MOL0     C52179   8.945   8.631   1.325 -0.6930 -0.1300 -0.3407
  379MOL0     C52180   8.874   8.673   1.190 -0.6218 -0.2038 -0.1174
  379MOL0     N52181   8.974   8.728   1.096  0.6217  0.2837  0.6013
  379MOL0     C52182   8.997   8.681   0.968 -0.1366 -0.8487 -0.3228
  379MOL0     C52183   9.068   8.774   0.913 -0.3906 -0.3725  1.0512
  379MOL0     C52184   9.109   8.783   0.766  0.7392 -0.7117 -0.2171
  379MOL0     C52185   9.007   8.882   0.690 -0.0376  0.1457  0.4530
  379MOL0     C52186   9.021   9.030   0.706 -0.2003  0.2989  0.2719
  379MOL0     C52187   9.156   9.076   0.654 -0.4597 -0.4656  0.2360
  379MOL0     O52188   9.193   9.021   0.532  0.9439  0.6156  0.0492
  379MOL0     C52189   9.309   9.051   0.471  1.2019  0.3301  0.2969
  379MOL0     C52190   9.396   9.155   0.507 -1.0105 -1.1964  0.2044
  379MOL0     C52191   9.518   9.177   0.440 -0.3968 -0.2362 -0.7939
  379MOL0     C52192   9.617   9.284   0.494 -0.2457  0.2532  0.0753
  379MOL0     C52193   9.553   9.089   0.324  0.3509 -0.1428 -0.5217
  379MOL0     C52194   9.679   9.083   0.258 -0.7014 -0.0358  0.3567
  379MOL0     O52195   9.782   9.133   0.319 -0.3588 -0.2529 -0.5969
  379MOL0     C52196   9.902   9.073   0.295 -0.9760  1.1487  0.7797
  379MOL0     C52197   9.991   9.125   0.209 -0.0900 -0.2998  1.1219
  379MOL0     C52198  10.119   9.079   0.193 -0.1758  0.0373 -0.8796
  379MOL0     C52199  10.160   8.961   0.264  0.4626 -0.0635  0.1993
  379MOL0     O52200  10.294   8.929   0.256  0.0464 -0.0446 -0.7080
  379MOL0     C52201  10.343   8.855   0.368  0.2376  0.8024  0.3165
  379MOL0     C52202  10.497   8.810   0.365 -0.0233 -0.2446  0.4810
  379MOL0     C52203  10.612   8.910   0.364  0.2244 -0.1358 -0.1397
  379MOL0     C52204  10.750   8.841   0.380 -0.4994  0.6152  0.1254
  379MOL0     C52205  10.882   8.927   0.364  0.8268 -0.6629  0.2178
  379MOL0     C52206  10.921   8.954   0.225  1.2173  0.5546 -1.1389
  379MOL0     C52207  11.048   9.025   0.215  0.0353  0.0956 -0.5596
  379MOL0     C52208  11.116   9.021   0.074  0.2370 -0.0078 -0.4883
  379MOL0    Cl52209  11.289   9.084   0.059  0.0568 -0.6668  0.1166
  379MOL0     C52210  10.057   8.895   0.340  0.5691  0.2950  1.3975
  379MOL0     C52211   9.942   8.952   0.372 -0.0716 -0.3984 -0.5026
  379MOL0     O52212   9.682   9.051   0.139 -0.2781  0.2901 -0.5398
  379MOL0     C52213   9.457   8.990   0.285  0.4479  0.4869 -0.6895
  379MOL0     C52214   9.327   8.983   0.348 -0.6866  1.3723  0.5275
  379MOL0     N52215   9.107   8.863   1.008  0.1195  0.2654 -0.4315
  379MOL0     N52216   9.041   8.839   1.119 -1.2894  0.5690  0.6472
  379MOL0     C52217   9.324   9.162   1.754  0.3484  0.1160 -0.7201
  379MOL0     C52218   9.453   9.204   1.720 -0.5855  0.7226  0.2960
  379MOL0     C52219   9.922   9.206   1.724  0.6072 -0.9432 -1.0844
  379MOL0     C52220  10.021   9.215   1.827 -0.0900  0.4015  0.1304
  379MOL0     C52221  10.151   9.180   1.793  0.3643 -0.4064 -0.1869
  379MOL0     C52222  10.196   9.197   1.661  0.2837  0.4749 -0.3920
  379MOL0     O52223  10.330   9.192   1.624  0.0596  0.0809 -0.0246
  379MOL0     C52224  10.426   9.150   1.719  0.6140 -0.6697 -0.8122
  379MOL0     C52225  10.570   9.181   1.673 -0.2150 -0.3532  0.0564
  379MOL0     C52226  10.678   9.090   1.751 -0.6632  0.1769 -0.1837
  379MOL0     C52227  10.821   9.091   1.684  0.1781 -0.4132 -0.2767
  379MOL0     C52228  10.849   9.240   1.661  0.2920  0.0182 -1.2498
  379MOL0     C52229  10.881   9.355   1.641 -0.3394  0.1866 -0.2668
  379MOL0     C52230  10.093   9.221   1.563 -0.3684 -0.7016  0.4940
  379MOL0     C52231   9.961   9.220   1.586  1.2946  0.3975 -0.5066
  379MOL0     C52232   9.864   9.244   1.477 -0.5101  0.0394  0.1893
  379MOL0     H52233   9.616   8.902   1.725 -0.7108 -1.2649  0.1798
  379MOL0     H52234   9.393   8.823   1.756  1.1462 -0.0964  1.3311
  379MOL0     H52235   9.193   8.816   1.661  1.3049  0.3851  1.6968
  379MOL0     H52236   9.059   8.940   1.633  0.2099  1.1227  0.1803
  379MOL0     H52237   9.068   8.718   1.845 -2.1377  1.5811  2.8734
  379MOL0     H52238   8.948   8.841   1.841 -0.2732 -1.1030  0.4736
  379MOL0     H52239   8.846   8.663   1.738 -0.7240  1.5249  0.1982
  379MOL0     H52240   8.884   8.786   1.615 -2.6531 -1.5316  1.9030
  379MOL0     H52241   9.083   8.644   1.552 -1.3527  0.9137 -2.0452
  379MOL0     H52242   9.061   8.554   1.703  0.8090  1.3554  0.6198
  379MOL0     H52243   8.851   8.452   1.598  0.1254 -1.2321 -1.6804
  379MOL0     H52244   8.997   8.429   1.495 -0.5842 -0.0266  0.2176
  379MOL0     H52245   8.788   8.503   1.373  1.0239 -1.1514  0.2786
  379MOL0     H52246   8.786   8.661   1.459 -0.4475  0.9380 -0.0337
  379MOL0     H52247   9.020   8.555   1.304 -0.3329  0.2815 -0.5524
  379MOL0     H52248   8.990   8.724   1.361  0.6638 -0.9797  0.2372
  379MOL0     H52249   8.837   8.583   1.140  0.6363 -0.4405 -0.6612
  379MOL0     H52250   8.791   8.744   1.193  0.7953  1.7675 -3.1606
  379MOL0     H52251   8.948   8.595   0.923 -0.6185  0.2240 -1.9299
  379MOL0     H52252   9.106   8.682   0.725  0.9374 -1.2261  0.9834
  379MOL0     H52253   9.211   8.819   0.746 -0.8391  3.3168 -2.2478
  379MOL0     H52254   9.001   8.852   0.585 -1.4593  1.3671  0.1540
  379MOL0     H52255   8.910   8.853   0.733 -0.0827 -0.1251  0.1689
  379MOL0     H52256   8.958   9.090   0.641 -2.8220  1.5136  3.6126
  379MOL0     H52257   9.004   9.067   0.808 -2.0631  0.2222  0.0289
  379MOL0     H52258   9.153   9.185   0.645  0.8037 -0.5836 -2.8740
  379MOL0     H52259   9.231   9.037   0.723  0.7456  3.3002  1.3261
  379MOL0     H52260   9.391   9.210   0.601 -1.2085  0.9106 -0.9768
  379MOL0     H52261   9.566   9.370   0.540  0.0788  1.2846 -1.4215
  379MOL0     H52262   9.676   9.320   0.410 -0.7451  1.2980  0.1525
  379MOL0     H52263   9.680   9.237   0.570 -0.3416 -0.7491 -0.4470
  379MOL0     H52264   9.959   9.213   0.155  1.0127  0.2868  1.3861
  379MOL0     H52265  10.182   9.137   0.126 -1.0037  1.4143 -0.5050
  379MOL0     H52266  10.328   8.922   0.453 -2.8960 -0.5674  0.9811
  379MOL0     H52267  10.281   8.766   0.378  0.6037  0.1939 -2.1985
  379MOL0     H52268  10.508   8.759   0.461 -1.9050  1.5356  1.7106
  379MOL0     H52269  10.516   8.741   0.283 -0.0407 -0.8912  1.0099
  379MOL0     H52270  10.594   8.983   0.443  0.7203 -0.4327  0.2592
  379MOL0     H52271  10.613   8.955   0.264 -0.1819 -0.6793 -0.3946
  379MOL0     H52272  10.748   8.757   0.311 -2.5807  0.0540  0.7965
  379MOL0     H52273  10.761   8.790   0.476 -1.2197 -0.8312 -0.5315
  379MOL0     H52274  10.846   9.021   0.406 -3.6353 -0.1218 -3.9388
  379MOL0     H52275  10.958   8.882   0.429 -1.4672 -1.9641  2.2206
  379MOL0     H52276  10.842   9.013   0.178  0.2592 -1.2308 -1.8859
  379MOL0     H52277  10.921   8.859   0.171 -1.8155 -0.9981  1.2584
  379MOL0     H52278  11.124   8.978   0.278 -1.1423 -0.7808  0.2545
  379MOL0     H52279  11.041   9.131   0.243  0.6762 -0.0767  0.2988
  379MOL0     H52280  11.054   9.080   0.005 -1.9631 -1.2670  0.3249
  379MOL0     H52281  11.108   8.918   0.039 -2.3196 -0.5421  1.3498
  379MOL0     H52282  10.083   8.805   0.395 -1.6121 -0.7509  0.8144
  379MOL0     H52283   9.865   8.905   0.432  0.0111 -0.0397 -0.1043
  379MOL0     H52284   9.472   8.926   0.198 -1.3842 -1.9885  0.6873
  379MOL0     H52285   9.248   8.921   0.308  0.1468  1.5968 -1.6002
  379MOL0     H52286   9.243   9.233   1.769 -0.3963 -0.4129 -2.0183
  379MOL0     H52287   9.481   9.307   1.698 -3.2482  1.7116  1.1954
  379MOL0     H52288   9.985   9.224   1.929 -1.0936  0.7047 -0.2403
  379MOL0     H52289  10.217   9.163   1.878 -1.7922  0.1015  1.6955
  379MOL0     H52290  10.423   9.220   1.803  1.9917 -0.4072 -0.9624
  379MOL0     H52291  10.405   9.048   1.754  0.3036 -0.3012  0.0991
  379MOL0     H52292  10.591   9.285   1.700 -1.3545  0.3599 -1.6286
  379MOL0     H52293  10.569   9.172   1.564  0.1809 -1.8965  0.1611
  379MOL0     H52294  10.699   9.125   1.852 -1.6326 -1.8684  0.7736
  379MOL0     H52295  10.648   8.985   1.752  1.3419 -0.4368 -0.8922
  379MOL0     H52296  10.832   9.049   1.584  0.5504 -0.9876 -0.0023
  379MOL0     H52297  10.889   9.049   1.759  1.4085  3.2506  0.8763
  379MOL0     H52298  10.909   9.457   1.624 -2.2669  0.6544 -0.8747
  379MOL0     H52299  10.135   9.242   1.466  0.8969 -2.9259  0.4833
  379MOL0     H52300   9.913   9.300   1.397 -0.8376  1.8688  1.2024
  379MOL0     H52301   9.821   9.149   1.443 -1.4427  0.2311  0.7986
  379MOL0     H52302   9.783   9.306   1.517 -1.1495  0.2508 -1.3832
  380MOL0     O52303   3.848   5.243   3.884 -0.1397  0.0527  0.2140
  380MOL0     C52304   3.825   5.219   3.999  1.0070 -0.1303  0.1656
  380MOL0     O52305   3.911   5.215   4.099 -0.8282  0.8632  0.2939
  380MOL0     C52306   4.045   5.243   4.075 -0.0765 -0.2638  0.7989
  380MOL0     C52307   4.117   5.201   3.959 -0.6061  0.4792 -0.6766
  380MOL0     C52308   4.244   5.255   3.935 -0.6304 -0.3188 -0.0169
  380MOL0     C52309   4.306   5.343   4.026  0.8309 -0.3930 -0.7507
  380MOL0     O52310   4.434   5.389   4.008 -0.0069  0.1436 -0.4891
  380MOL0     C52311   4.527   5.289   3.966  0.6355 -0.7620 -0.9098
  380MOL0     C52312   4.664   5.340   4.018  0.1969  0.6436  0.8378
  380MOL0     C52313   4.700   5.304   4.166 -0.3131  0.8218  0.1425
  380MOL0     C52314   4.713   5.143   4.191  0.3456  0.1913  0.5936
  380MOL0     C52315   4.785   5.065   4.079  0.3019 -0.7182 -0.2873
  380MOL0     C52316   4.932   5.105   4.065 -1.0178  0.0850  0.6456
  380MOL0     C52317   5.017   5.067   4.188  0.2585 -0.2343  0.0049
  380MOL0     C52318   5.156   5.074   4.139  0.3812 -0.6530  0.2557
  380MOL0     N52319   5.262   5.013   4.224  0.0080  0.3487 -0.0721
  380MOL0     C52320   5.405   5.026   4.209  0.7471 -0.0477  0.0350
  380MOL0     C52321   5.460   4.986   4.330  0.0812  0.3076  0.2826
  380MOL0     C52322   5.601   4.976   4.388  0.1988 -0.3256 -0.9290
  380MOL0     C52323   5.628   4.841   4.460 -0.3169  0.5013 -0.5687
  380MOL0     C52324   5.590   4.850   4.604 -0.6625  1.0279 -0.4127
  380MOL0     C52325   5.582   4.708   4.662  0.5277  0.1048 -0.0337
  380MOL0     O52326   5.720   4.669   4.682  0.3215 -0.3040  0.4206
  380MOL0     C52327   5.785   4.729   4.785 -0.8020  0.0294  0.4432
  380MOL0     C52328   5.923   4.750   4.758 -0.7207 -0.0852  0.2540
  380MOL0     C52329   6.007   4.829   4.845  0.7496  0.5662  0.7510
  380MOL0     C52330   6.146   4.851   4.807 -0.1190  0.7046 -0.4956
  380MOL0     C52331   5.951   4.865   4.971 -0.1241  0.0573  0.4781
  380MOL0     C52332   6.018   4.951   5.074  0.3634 -0.1211  0.7501
  380MOL0     O52333   6.134   5.008   5.039  0.8482  0.2709 -0.6577
  380MOL0     C52334   6.180   5.105   5.127  0.4444  0.3411 -0.4820
  380MOL0     C52335   6.301   5.081   5.192 -0.3508  0.1879  0.3347
  380MOL0     C52336   6.362   5.175   5.268  1.1042  0.0835  0.2869
  380MOL0     C52337   6.311   5.305   5.277 -0.5119 -0.3616 -0.0918
  380MOL0     O52338   6.381   5.392   5.363 -0.1896 -0.2913 -0.5589
  380MOL0     C52339   6.348   5.522   5.367  0.3355 -0.2076  0.1011
  380MOL0     C52340   6.468   5.602   5.433  0.8831  0.4636  0.1655
  380MOL0     C52341   6.582   5.595   5.344  0.0721 -0.3840 -0.0607
  380MOL0     C52342   6.700   5.678   5.414  0.1170  0.0976  0.5508
  380MOL0     C52343   6.813   5.592   5.482 -0.4347 -0.4081 -0.0046
  380MOL0     C52344   6.937   5.676   5.494  0.3968 -0.5969 -0.2926
  380MOL0     C52345   7.041   5.605   5.581 -0.5795 -0.1843 -0.5123
  380MOL0     C52346   7.124   5.507   5.491  1.0124  0.2841  0.5507
  380MOL0    Cl52347   7.215   5.605   5.378  0.0321  0.2945 -0.3400
  380MOL0     C52348   6.190   5.336   5.217 -0.3016 -0.1460 -0.3859
  380MOL0     C52349   6.123   5.232   5.139  0.1144 -0.5232 -0.7056
  380MOL0     O52350   5.969   4.941   5.189  0.1493 -0.7577 -0.0589
  380MOL0     C52351   5.814   4.828   5.000  0.7699  0.0012  0.6688
  380MOL0     C52352   5.736   4.762   4.913  0.3239  0.8431  0.0378
  380MOL0     N52353   5.356   4.946   4.413 -0.3944 -0.1562  0.9722
  380MOL0     N52354   5.243   4.962   4.353 -0.9990  0.2199  0.6938
  380MOL0     C52355   4.228   5.398   4.127 -0.0446 -0.3500  0.1902
  380MOL0     C52356   4.097   5.349   4.150  0.1015 -0.9857 -0.3332
  380MOL0     C52357   3.681   5.172   4.019  0.4714  0.2000  0.5510
  380MOL0     C52358   3.589   5.196   3.916 -0.1332  0.5224 -0.6506
  380MOL0     C52359   3.458   5.147   3.921  0.1291  0.0629 -0.1740
  380MOL0     C52360   3.415   5.081   4.039  0.2216 -0.1048  0.2516
  380MOL0     O52361   3.283   5.038   4.043  0.5334 -0.5545 -0.6293
  380MOL0     C52362   3.250   4.944   4.157  0.5536 -0.3121  0.0376
  380MOL0     C52363   3.111   4.890   4.129 -0.0244 -0.0729 -0.0858
  380MOL0     C52364   3.000   4.969   4.195 -0.0505  0.7004 -0.4395
  380MOL0     C52365   2.969   5.093   4.115  0.5296  0.7756 -0.1515
  380MOL0     C52366   2.833   5.128   4.125  0.2229 -1.0209 -0.1325
  380MOL0     C52367   2.716   5.168   4.121 -0.5134  0.4717  0.3199
  380MOL0     C52368   3.501   5.061   4.142  0.0287  0.8140 -1.0877
  380MOL0     C52369   3.634   5.103   4.136 -0.0946 -0.3774 -0.1504
  380MOL0     C52370   3.718   5.076   4.261  0.0785 -0.0066  0.6885
  380MOL0     H52371   4.073   5.123   3.899  1.7681 -1.9793  0.5651
  380MOL0     H52372   4.302   5.223   3.848 -0.7084  0.1316 -0.2374
  380MOL0     H52373   4.529   5.269   3.859 -0.9984  0.6198 -1.2399
  380MOL0     H52374   4.491   5.201   4.019 -0.2124  0.0481 -0.0995
  380MOL0     H52375   4.734   5.294   3.949 -3.0174 -2.4542 -0.6313
  380MOL0     H52376   4.659   5.448   3.999  1.0415  0.4422 -0.6647
  380MOL0     H52377   4.798   5.350   4.185  0.4896 -0.8076  0.1345
  380MOL0     H52378   4.618   5.337   4.231 -0.9148  1.5685 -0.9730
  380MOL0     H52379   4.761   5.124   4.288 -0.4877 -1.7547  0.6733
  380MOL0     H52380   4.610   5.107   4.200 -0.2639  1.2444 -1.4987
  380MOL0     H52381   4.731   5.083   3.987  0.5344  0.1074 -0.2684
  380MOL0     H52382   4.781   4.956   4.086  0.0044 -0.8562 -2.2273
  380MOL0     H52383   4.975   5.053   3.979  2.8042 -0.3063  2.5778
  380MOL0     H52384   4.949   5.211   4.044 -0.3033 -0.2865 -0.7559
  380MOL0     H52385   4.994   4.962   4.210 -0.9628 -0.9228 -3.8054
  380MOL0     H52386   5.000   5.131   4.275  2.3453 -1.4229  1.3493
  380MOL0     H52387   5.166   5.038   4.036 -2.8776 -0.8260 -0.0907
  380MOL0     H52388   5.178   5.180   4.130 -1.3423 -0.2388  0.6658
  380MOL0     H52389   5.448   5.073   4.121 -0.8262 -0.7855 -1.1978
  380MOL0     H52390   5.610   5.054   4.463 -1.9363  1.6861 -2.6383
  380MOL0     H52391   5.671   4.986   4.304 -0.7616  0.7737 -1.6221
  380MOL0     H52392   5.587   4.754   4.408  0.4830 -0.0358 -0.3195
  380MOL0     H52393   5.737   4.828   4.464 -0.5884 -1.7293  1.3784
  380MOL0     H52394   5.670   4.901   4.659  1.3349 -1.3433 -0.9501
  380MOL0     H52395   5.497   4.905   4.621 -0.6059  0.9798  0.0750
  380MOL0     H52396   5.532   4.724   4.757  1.4702  0.5264  0.3999
  380MOL0     H52397   5.522   4.638   4.603  0.7243 -1.1489  1.2166
  380MOL0     H52398   5.964   4.708   4.667 -0.5333  1.9889 -0.6889
  380MOL0     H52399   6.209   4.803   4.882 -0.3693  2.3999  0.8702
  380MOL0     H52400   6.169   4.958   4.802  0.2631  0.6541  0.1333
  380MOL0     H52401   6.178   4.813   4.710  2.5417 -0.7030  0.8422
  380MOL0     H52402   6.342   4.982   5.174 -0.3029  0.6026 -2.2331
  380MOL0     H52403   6.453   5.158   5.325  0.7537  1.3209  1.2411
  380MOL0     H52404   6.316   5.570   5.273 -2.5869 -2.4410 -0.1997
  380MOL0     H52405   6.258   5.530   5.429 -0.6982 -2.6243 -0.9697
  380MOL0     H52406   6.440   5.706   5.453 -1.0461 -0.0097  0.1697
  380MOL0     H52407   6.507   5.554   5.523 -0.5908 -2.4067 -0.6026
  380MOL0     H52408   6.558   5.643   5.249 -0.0124  0.4751  0.3892
  380MOL0     H52409   6.609   5.489   5.337  1.1337 -0.1876  0.6677
  380MOL0     H52410   6.663   5.744   5.493 -2.9015  1.3263 -1.6958
  380MOL0     H52411   6.731   5.746   5.335  0.3104  0.0932  0.6219
  380MOL0     H52412   6.786   5.545   5.576 -5.8645 -0.8092 -1.4293
  380MOL0     H52413   6.832   5.516   5.406  0.4728  2.2132 -2.6389
  380MOL0     H52414   6.910   5.767   5.548  0.2569 -0.9752  0.2938
  380MOL0     H52415   6.970   5.690   5.391  2.0844 -1.0669  0.1528
  380MOL0     H52416   6.998   5.548   5.664 -2.0204  1.6579  0.0825
  380MOL0     H52417   7.110   5.686   5.610 -2.1062  0.6970  0.7905
  380MOL0     H52418   7.058   5.433   5.443  0.9106  0.6451  0.1290
  380MOL0     H52419   7.188   5.446   5.556 -1.8499 -1.2744  2.1166
  380MOL0     H52420   6.154   5.438   5.217  0.4656  0.1895 -2.2754
  380MOL0     H52421   6.028   5.252   5.092  0.1379 -0.5768 -0.7767
  380MOL0     H52422   5.764   4.858   5.092 -0.2807 -0.3658  0.2332
  380MOL0     H52423   5.632   4.754   4.945  0.6866  0.1951  1.0939
  380MOL0     H52424   4.267   5.474   4.193 -1.6085  0.6488  0.0185
  380MOL0     H52425   4.036   5.393   4.228  0.5283 -0.0997 -0.4864
  380MOL0     H52426   3.602   5.264   3.832  2.1592 -0.0204 -0.7857
  380MOL0     H52427   3.387   5.153   3.839  0.3063 -1.5797 -0.4844
  380MOL0     H52428   3.328   4.868   4.157 -0.0936 -0.9898  0.8944
  380MOL0     H52429   3.261   4.994   4.254  1.1618 -0.7748  0.2129
  380MOL0     H52430   3.102   4.799   4.189  0.2859  0.7581  1.2529
  380MOL0     H52431   3.098   4.871   4.022 -0.4717 -0.4364  0.0263
  380MOL0     H52432   2.913   4.904   4.208 -0.9320  1.8828 -0.2372
  380MOL0     H52433   3.033   4.998   4.295  2.1332 -0.5353 -0.7288
  380MOL0     H52434   3.004   5.078   4.012 -0.8282 -2.4108 -0.2484
  380MOL0     H52435   3.032   5.175   4.152 -0.3844  0.2077  2.9137
  380MOL0     H52436   2.619   5.210   4.106 -1.4096 -1.5381  0.1314
  380MOL0     H52437   3.468   5.017   4.235 -0.8050 -0.2909 -1.8865
  380MOL0     H52438   3.797   5.145   4.291  1.8559 -1.7364  0.2098
  380MOL0     H52439   3.656   5.068   4.351 -0.9454  1.1416  0.1159
  380MOL0     H52440   3.769   4.981   4.242 -0.0137 -0.1214  1.0111
  381MOL0     O52441   4.996   0.417   3.313  0.3111 -0.1606  0.1290
  381MOL0     C52442   4.888   0.370   3.359 -0.7798  0.8764 -0.7028
  381MOL0     O52443   4.866   0.344   3.488  0.2919 -0.1383 -0.2716
  381MOL0     C52444   4.974   0.369   3.570 -0.1846 -0.4753  0.0450
  381MOL0     C52445   5.098   0.297   3.558  0.4496 -0.3723  0.0959
  381MOL0     C52446   5.201   0.324   3.649 -0.5119  0.1421 -0.9625
  381MOL0     C52447   5.172   0.415   3.756 -0.1758  0.9183 -0.3506
  381MOL0     O52448   5.254   0.453   3.858  0.2863  0.6322 -0.7713
  381MOL0     C52449   5.390   0.402   3.876 -0.6957 -0.1057  0.6162
  381MOL0     C52450   5.405   0.260   3.929 -0.1220 -0.1782  0.2870
  381MOL0     C52451   5.344   0.239   4.066  0.6915  0.2275  0.8124
  381MOL0     C52452   5.384   0.093   4.105  0.1762  0.0231  0.8782
  381MOL0     C52453   5.321   0.041   4.244  0.9881  0.6334  0.6142
  381MOL0     C52454   5.169   0.028   4.249 -0.2656  0.5148  0.2786
  381MOL0     C52455   5.098  -0.024   4.124 -0.1667 -0.2074 -0.0029
  381MOL0     C52456   4.961  -0.084   4.158 -0.4743  0.3844  0.3098
  381MOL0     N52457   4.869   0.024   4.187  0.0638  0.0619  0.3445
  381MOL0     C52458   4.778   0.066   4.097  0.1140 -0.1433  0.9228
  381MOL0     C52459   4.730   0.180   4.163 -0.1760 -0.1867  0.4141
  381MOL0     C52460   4.614   0.261   4.102  0.1541 -0.2172 -0.4202
  381MOL0     C52461   4.649   0.368   3.989 -0.5731  0.7037  0.0207
  381MOL0     C52462   4.673   0.506   4.046 -0.3021 -0.2883  0.2869
  381MOL0     C52463   4.794   0.538   4.132 -0.0274 -0.3080  0.6190
  381MOL0     O52464   4.913   0.491   4.057  0.2695 -0.2231  0.6414
  381MOL0     C52465   5.015   0.508   4.134 -0.4235 -0.7309 -1.0901
  381MOL0     C52466   5.088   0.626   4.132 -0.4248 -0.8629  0.2001
  381MOL0     C52467   5.212   0.640   4.208 -0.6366  0.7842 -0.0877
  381MOL0     C52468   5.281   0.776   4.192 -0.5778  0.0329  0.1257
  381MOL0     C52469   5.263   0.531   4.281  1.0994  0.0983  0.2835
  381MOL0     C52470   5.384   0.533   4.370  0.3961  0.3201  0.1810
  381MOL0     O52471   5.457   0.653   4.380  0.3351  0.1142 -0.0724
  381MOL0     C52472   5.534   0.667   4.492 -0.2910  0.5939 -0.0342
  381MOL0     C52473   5.498   0.628   4.620 -0.7960 -0.9049 -0.4219
  381MOL0     C52474   5.592   0.655   4.728  0.3672 -0.7355  0.0286
  381MOL0     C52475   5.714   0.719   4.702  0.4857  1.3377  0.1490
  381MOL0     O52476   5.797   0.737   4.812 -0.0821  0.0767  0.0587
  381MOL0     C52477   5.934   0.746   4.785  0.0367 -0.3052  0.1157
  381MOL0     C52478   6.021   0.729   4.905 -0.0693 -0.1946  0.3988
  381MOL0     C52479   6.175   0.721   4.870 -0.2533 -0.3320  0.2331
  381MOL0     C52480   6.245   0.689   5.002 -0.0967 -0.1746  0.1555
  381MOL0     C52481   6.394   0.706   4.974 -0.9260 -0.5804  0.6222
  381MOL0     C52482   6.471   0.679   5.100  0.4721  0.5367  0.2262
  381MOL0     C52483   6.617   0.676   5.077  0.5907  0.2019 -0.5623
  381MOL0     C52484   6.684   0.667   5.218 -0.3618  0.0151 -0.1170
  381MOL0    Cl52485   6.861   0.700   5.195 -0.1250  0.0588  0.6262
  381MOL0     C52486   5.731   0.768   4.574 -0.2206  0.1341 -0.1841
  381MOL0     C52487   5.650   0.744   4.467 -0.8463  0.0363 -0.1572
  381MOL0     O52488   5.419   0.425   4.421  0.1012  0.6088  0.1135
  381MOL0     C52489   5.184   0.405   4.277  0.1711  0.4206 -0.1340
  381MOL0     C52490   5.064   0.397   4.196  1.0766  0.1408 -0.9060
  381MOL0     N52491   4.788   0.202   4.279 -0.1118  0.9034  0.0598
  381MOL0     N52492   4.863   0.094   4.300 -1.0515 -0.0109  0.6071
  381MOL0     C52493   5.051   0.475   3.762 -0.3958 -0.1143 -0.0355
  381MOL0     C52494   4.953   0.458   3.673 -0.4160  0.4421  0.1208
  381MOL0     C52495   4.774   0.344   3.269 -0.0802  0.5282  0.1242
  381MOL0     C52496   4.650   0.314   3.320 -0.0826  0.1151  1.1235
  381MOL0     C52497   4.527   0.309   3.243 -0.3459 -0.8184  0.1731
  381MOL0     C52498   4.533   0.339   3.109  0.4670 -0.0990  0.5547
  381MOL0     O52499   4.424   0.330   3.026 -0.3263 -0.0882  0.5157
  381MOL0     C52500   4.306   0.255   3.064 -0.0606 -0.3951  0.1986
  381MOL0     C52501   4.214   0.235   2.948 -0.3463  0.0159  0.7394
  381MOL0     C52502   4.123   0.350   2.910  0.9641  1.0201 -0.5432
  381MOL0     C52503   4.187   0.486   2.873  0.3140  0.4549  0.6450
  381MOL0     C52504   4.244   0.473   2.739  0.3368  0.1504 -1.1856
  381MOL0     C52505   4.286   0.466   2.626 -0.5380 -0.5338 -0.7774
  381MOL0     C52506   4.652   0.359   3.062 -0.2533  0.1220  0.0983
  381MOL0     C52507   4.773   0.371   3.129 -0.0207 -0.4302 -0.7225
  381MOL0     C52508   4.887   0.436   3.055 -0.0426  0.2345 -0.1392
  381MOL0     H52509   5.094   0.225   3.477  1.5135  0.1872 -0.4805
  381MOL0     H52510   5.299   0.277   3.648 -0.6969 -0.7094  3.3067
  381MOL0     H52511   5.443   0.463   3.951  0.1336 -0.8326  0.6384
  381MOL0     H52512   5.451   0.409   3.786 -1.2084  0.9925  0.3364
  381MOL0     H52513   5.348   0.198   3.858  3.4562 -1.4616 -1.7011
  381MOL0     H52514   5.510   0.231   3.927  0.1800  0.7547  1.5681
  381MOL0     H52515   5.378   0.315   4.137 -0.8108  2.1930 -0.4893
  381MOL0     H52516   5.237   0.256   4.057  0.8624  0.7915 -0.2242
  381MOL0     H52517   5.354   0.027   4.023 -2.3050  0.7286  1.1346
  381MOL0     H52518   5.493   0.084   4.111  0.2961  1.6440  6.3727
  381MOL0     H52519   5.348   0.111   4.324  0.0322  0.9375  0.6882
  381MOL0     H52520   5.359  -0.057   4.273 -2.3066 -0.7975  0.5600
  381MOL0     H52521   5.137  -0.031   4.335 -0.7802 -0.9781 -0.8734
  381MOL0     H52522   5.125   0.128   4.257  1.3168  1.9410 -4.7838
  381MOL0     H52523   5.156  -0.102   4.074  1.5397  1.3871 -0.6202
  381MOL0     H52524   5.085   0.063   4.058 -0.1791  0.7826  1.2809
  381MOL0     H52525   4.923  -0.130   4.066  2.0651 -0.1427 -0.5417
  381MOL0     H52526   4.942  -0.160   4.234 -0.8462 -0.5176 -0.6708
  381MOL0     H52527   4.749   0.028   4.000  0.1089  1.4359  0.2887
  381MOL0     H52528   4.561   0.317   4.179 -3.3991  0.0099 -2.8007
  381MOL0     H52529   4.542   0.189   4.063  0.2568 -0.8791  0.5745
  381MOL0     H52530   4.736   0.331   3.934  0.4497  4.0717 -0.9078
  381MOL0     H52531   4.569   0.375   3.915 -0.4594  0.2767 -0.1461
  381MOL0     H52532   4.668   0.592   3.979 -1.6711 -0.1004  0.6091
  381MOL0     H52533   4.585   0.527   4.107  0.0380  1.3570  0.2735
  381MOL0     H52534   4.803   0.647   4.131 -0.9014 -0.2281 -0.0062
  381MOL0     H52535   4.786   0.491   4.230 -0.7451 -0.9002  0.2841
  381MOL0     H52536   5.058   0.697   4.057 -1.4926 -1.0609  0.4212
  381MOL0     H52537   5.382   0.769   4.151 -0.8222  0.5882 -0.5964
  381MOL0     H52538   5.282   0.830   4.287  2.4997 -2.9495  2.0427
  381MOL0     H52539   5.223   0.827   4.115 -1.5681 -1.1499  0.0642
  381MOL0     H52540   5.409   0.569   4.640  0.2660 -2.0135  1.3966
  381MOL0     H52541   5.554   0.620   4.823 -2.5950 -1.8424 -1.4190
  381MOL0     H52542   5.960   0.661   4.722 -0.1173  0.8466 -1.5728
  381MOL0     H52543   5.961   0.834   4.725 -1.3882  0.9729  1.2648
  381MOL0     H52544   6.005   0.821   4.963  0.8036  0.0136  0.3240
  381MOL0     H52545   5.984   0.638   4.954 -1.2651 -0.3447 -0.7166
  381MOL0     H52546   6.210   0.818   4.833  2.5759  0.3590  4.0894
  381MOL0     H52547   6.185   0.640   4.798 -3.6919  0.1041 -0.9447
  381MOL0     H52548   6.220   0.593   5.049 -0.7595 -1.0468 -1.8664
  381MOL0     H52549   6.215   0.758   5.082 -0.6022  0.2002 -0.3518
  381MOL0     H52550   6.413   0.632   4.896 -2.7314 -1.4550  0.9473
  381MOL0     H52551   6.415   0.807   4.936  2.2671 -1.2635  0.3718
  381MOL0     H52552   6.436   0.588   5.150  1.1932 -0.1480 -0.4878
  381MOL0     H52553   6.441   0.765   5.161 -3.2412  1.2878 -2.2820
  381MOL0     H52554   6.646   0.766   5.023 -2.0850  0.9354 -0.9353
  381MOL0     H52555   6.655   0.598   5.011  1.3947 -0.1325  0.2743
  381MOL0     H52556   6.668   0.563   5.248  0.8967 -0.1994 -0.1276
  381MOL0     H52557   6.640   0.736   5.289 -4.2590 -0.0532 -2.2050
  381MOL0     H52558   5.807   0.845   4.567 -1.7548  1.5977 -1.5114
  381MOL0     H52559   5.674   0.786   4.370 -1.3456 -0.5502 -0.5435
  381MOL0     H52560   5.219   0.323   4.339  1.7385  0.8626 -0.3904
  381MOL0     H52561   5.005   0.308   4.181  0.0890  0.6903 -0.3736
  381MOL0     H52562   5.036   0.545   3.844  2.8153  0.5508  0.1185
  381MOL0     H52563   4.850   0.492   3.675 -0.4172  0.4088  1.2093
  381MOL0     H52564   4.642   0.276   3.422 -0.6521  3.5888  2.5299
  381MOL0     H52565   4.438   0.282   3.299 -0.8331 -2.7948 -1.4331
  381MOL0     H52566   4.338   0.160   3.110  3.2786 -0.0142 -1.0499
  381MOL0     H52567   4.258   0.316   3.141  1.8168  3.8147 -1.6239
  381MOL0     H52568   4.150   0.151   2.975  2.0734 -3.4351 -3.0608
  381MOL0     H52569   4.257   0.198   2.854 -1.3095 -0.5091  0.4981
  381MOL0     H52570   4.052   0.316   2.835 -0.1216 -0.4462  1.0727
  381MOL0     H52571   4.050   0.358   2.991  0.5836 -0.9262 -0.6493
  381MOL0     H52572   4.267   0.512   2.944  0.0680  0.0230  1.0828
  381MOL0     H52573   4.115   0.567   2.885  0.4047  0.3260  2.3545
  381MOL0     H52574   4.335   0.468   2.530  0.7391 -0.2002 -0.1460
  381MOL0     H52575   4.645   0.382   2.956 -0.1661 -0.8992 -0.1338
  381MOL0     H52576   4.973   0.371   3.074 -0.8716 -1.1572 -0.9500
  381MOL0     H52577   4.868   0.433   2.947  0.9056  1.2429 -0.3531
  381MOL0     H52578   4.912   0.540   3.076  1.9920 -0.3450  0.6209
  382MOL0     O52579   0.658   4.710   1.099  0.1715 -0.0482  0.5861
  382MOL0     C52580   0.612   4.680   0.983  1.0817 -0.1237  0.0685
  382MOL0     O52581   0.681   4.685   0.871 -0.9143 -0.2321 -0.6942
  382MOL0     C52582   0.819   4.704   0.880 -0.5641  0.4179  0.0063
  382MOL0     C52583   0.879   4.821   0.925 -0.0930 -0.9123  1.0798
  382MOL0     C52584   1.015   4.845   0.914  0.3906  0.2454  0.1938
  382MOL0     C52585   1.092   4.749   0.837  0.4865  0.6386 -0.3619
  382MOL0     O52586   1.221   4.756   0.826 -0.3218 -0.5684 -0.6271
  382MOL0     C52587   1.298   4.855   0.899 -0.6006  0.1472 -0.4646
  382MOL0     C52588   1.448   4.828   0.898  0.4965 -0.5846  0.2491
  382MOL0     C52589   1.527   4.951   0.948 -0.3352 -0.0683  0.3871
  382MOL0     C52590   1.675   4.925   0.976  0.1700  0.0388 -0.0360
  382MOL0     C52591   1.740   5.061   1.027 -0.3989 -0.2485  0.1602
  382MOL0     C52592   1.895   5.048   0.985 -0.1543 -0.5821 -0.7694
  382MOL0     C52593   1.979   5.175   1.024 -0.6596 -0.4237 -0.9532
  382MOL0     C52594   2.125   5.148   0.961  1.1625  0.4551  0.3777
  382MOL0     N52595   2.223   5.256   0.971  0.2539  0.7676 -1.0716
  382MOL0     C52596   2.294   5.276   1.091 -0.1311 -0.7444  0.4604
  382MOL0     C52597   2.379   5.380   1.057 -0.3861  0.9237  0.2034
  382MOL0     C52598   2.476   5.439   1.154 -0.9843 -0.0844 -0.7024
  382MOL0     C52599   2.607   5.444   1.081 -0.2455  0.3370 -0.4577
  382MOL0     C52600   2.727   5.486   1.171 -0.5869 -0.3946  1.6438
  382MOL0     C52601   2.756   5.378   1.276 -0.0809 -0.2760  0.3995
  382MOL0     O52602   2.867   5.409   1.349 -0.1118 -0.0960 -0.0144
  382MOL0     C52603   2.993   5.401   1.294  0.6880  0.1405  0.2307
  382MOL0     C52604   3.028   5.322   1.184  0.6614  0.5283  0.7817
  382MOL0     C52605   3.156   5.322   1.129 -0.5197  0.3025 -0.1008
  382MOL0     C52606   3.185   5.225   1.018  0.0741 -0.5768  0.3404
  382MOL0     C52607   3.254   5.396   1.194 -0.0641 -0.6832 -0.0091
  382MOL0     C52608   3.403   5.408   1.149  0.3551  0.2057 -0.3509
  382MOL0     O52609   3.454   5.325   1.051 -0.8810  0.5963  0.2311
  382MOL0     C52610   3.582   5.339   1.009  0.1067 -0.6166 -0.2564
  382MOL0     C52611   3.602   5.354   0.869  1.0760  0.7648  0.3377
  382MOL0     C52612   3.730   5.369   0.819  0.2138  0.3742  0.5923
  382MOL0     C52613   3.844   5.379   0.903 -1.0192  0.7594  0.4241
  382MOL0     O52614   3.972   5.403   0.859 -1.1671  0.2440 -0.0251
  382MOL0     C52615   3.997   5.380   0.719 -0.1021 -0.1256  0.3577
  382MOL0     C52616   4.147   5.424   0.700  0.5746  0.0684 -0.1642
  382MOL0     C52617   4.235   5.362   0.802 -0.0479 -0.3003 -0.1370
  382MOL0     C52618   4.271   5.225   0.772  0.5432 -0.4296 -0.1012
  382MOL0     C52619   4.346   5.155   0.884 -0.7809  0.1964  0.7972
  382MOL0     C52620   4.453   5.059   0.827  0.4533 -0.0695 -0.4888
  382MOL0     C52621   4.402   4.926   0.774  0.9641 -0.0024  0.4545
  382MOL0     C52622   4.518   4.833   0.745 -0.0949  0.3958 -0.1004
  382MOL0    Cl52623   4.592   4.770   0.901 -0.2130 -0.3215 -0.2824
  382MOL0     C52624   3.823   5.363   1.037  0.0406 -0.2549 -0.4726
  382MOL0     C52625   3.696   5.341   1.093 -0.3183  0.3836  0.5724
  382MOL0     O52626   3.466   5.495   1.209 -0.0518  0.0672 -0.4666
  382MOL0     C52627   3.218   5.460   1.312  0.0629 -0.6182 -0.3402
  382MOL0     C52628   3.091   5.466   1.359 -0.1329 -0.1271  0.6722
  382MOL0     N52629   2.349   5.423   0.924 -0.3596  0.1203 -0.3442
  382MOL0     N52630   2.259   5.345   0.877 -0.3645  0.1965  0.5661
  382MOL0     C52631   1.031   4.640   0.785  0.5066 -0.2919 -0.0007
  382MOL0     C52632   0.891   4.619   0.797 -0.3066  0.4236  0.6173
  382MOL0     C52633   0.469   4.641   0.955  0.8978  0.3130 -0.5410
  382MOL0     C52634   0.426   4.621   0.821  0.3866  0.2874  0.7380
  382MOL0     C52635   0.284   4.594   0.791 -0.0551  0.4556  0.6417
  382MOL0     C52636   0.189   4.583   0.888 -1.0830  0.7650  0.1387
  382MOL0     O52637   0.056   4.552   0.868  0.5597 -0.5098 -0.3238
  382MOL0     C52638  -0.007   4.584   0.746 -0.1936 -1.1172 -0.2258
  382MOL0     C52639  -0.160   4.603   0.764 -0.3427  0.8798 -0.5103
  382MOL0     C52640  -0.235   4.501   0.852 -0.4707 -0.3175 -0.5912
  382MOL0     C52641  -0.360   4.552   0.929 -0.7883  0.2964 -1.2365
  382MOL0     C52642  -0.493   4.513   0.884 -0.2923 -0.4771  0.2488
  382MOL0     C52643  -0.609   4.475   0.867  0.1517 -0.4864  0.5480
  382MOL0     C52644   0.228   4.615   1.023 -0.4874 -0.7279  0.0386
  382MOL0     C52645   0.361   4.642   1.058 -0.3676  0.4379 -0.5829
  382MOL0     C52646   0.396   4.679   1.201  0.6607 -0.5497  0.9381
  382MOL0     H52647   0.801   4.874   0.979 -1.7864 -2.2930  0.1144
  382MOL0     H52648   1.052   4.928   0.973 -0.1037  1.3274 -0.9800
  382MOL0     H52649   1.274   4.864   1.005 -1.0137  1.1595 -0.6358
  382MOL0     H52650   1.281   4.946   0.841  0.0188 -0.4649 -1.6391
  382MOL0     H52651   1.454   4.749   0.973 -1.0094 -0.5895  0.3813
  382MOL0     H52652   1.469   4.802   0.794  0.8152 -1.0887  0.4364
  382MOL0     H52653   1.521   5.028   0.871 -0.7428 -0.2763  0.2095
  382MOL0     H52654   1.468   4.983   1.034  2.3113 -1.4967  2.9239
  382MOL0     H52655   1.691   4.844   1.048  0.0160 -0.2709 -0.3499
  382MOL0     H52656   1.725   4.895   0.883 -1.9826  0.1194 -1.2782
  382MOL0     H52657   1.746   5.066   1.136  1.5898 -0.5035  0.1071
  382MOL0     H52658   1.695   5.153   0.988  0.0308  0.5574  1.4894
  382MOL0     H52659   1.933   4.957   1.032 -0.4560 -0.0725  0.4992
  382MOL0     H52660   1.896   5.029   0.877 -1.9269  1.8888 -1.2919
  382MOL0     H52661   1.992   5.184   1.132 -3.2567  0.3435 -0.6247
  382MOL0     H52662   1.934   5.271   0.996 -0.1375  0.3352  0.6933
  382MOL0     H52663   2.166   5.062   1.016  0.3163 -0.2793 -0.1062
  382MOL0     H52664   2.123   5.116   0.857  2.4446 -0.8333  0.7070
  382MOL0     H52665   2.280   5.227   1.186  1.0600 -0.2388  0.9251
  382MOL0     H52666   2.478   5.387   1.251 -4.0525  2.0710  0.6913
  382MOL0     H52667   2.451   5.541   1.185  0.4287  0.1950 -0.4188
  382MOL0     H52668   2.630   5.343   1.045 -3.1591 -0.3166 -0.8195
  382MOL0     H52669   2.601   5.518   1.001  1.7009 -0.8161 -1.7341
  382MOL0     H52670   2.817   5.502   1.112 -0.6250  0.6372  1.8467
  382MOL0     H52671   2.701   5.578   1.224  0.9725 -2.1846  5.9467
  382MOL0     H52672   2.670   5.349   1.337 -1.1614 -1.4009 -1.5266
  382MOL0     H52673   2.781   5.289   1.217 -0.1574  0.3375 -0.5755
  382MOL0     H52674   2.954   5.265   1.128 -0.6166  1.0239  1.8933
  382MOL0     H52675   3.261   5.153   1.048 -0.7779 -1.2904  0.8215
  382MOL0     H52676   3.219   5.280   0.930 -2.6452  0.6621 -0.0323
  382MOL0     H52677   3.097   5.164   0.997  0.4577 -1.7383  1.9465
  382MOL0     H52678   3.509   5.363   0.813  0.0354 -2.9170  1.2057
  382MOL0     H52679   3.735   5.375   0.710  0.0109 -1.3290  0.4618
  382MOL0     H52680   3.977   5.275   0.695 -1.6755  0.3767 -0.7306
  382MOL0     H52681   3.928   5.438   0.657 -0.0535 -0.5238 -0.0771
  382MOL0     H52682   4.190   5.408   0.601 -0.4055 -3.7058 -0.1410
  382MOL0     H52683   4.147   5.529   0.728  0.7000  0.5836 -1.9643
  382MOL0     H52684   4.193   5.362   0.904  1.4122 -1.5680  0.4909
  382MOL0     H52685   4.334   5.406   0.814 -0.1618 -0.5902  2.5298
  382MOL0     H52686   4.340   5.236   0.688  0.9989 -0.8898  0.2096
  382MOL0     H52687   4.178   5.168   0.762 -0.8291  1.4947  0.8923
  382MOL0     H52688   4.403   5.230   0.941  1.7376 -1.0585  0.0939
  382MOL0     H52689   4.285   5.094   0.950 -0.3685 -4.6612 -2.7539
  382MOL0     H52690   4.526   5.048   0.909  1.2294 -3.7830 -1.4652
  382MOL0     H52691   4.508   5.113   0.749  1.8289  0.0057  0.4848
  382MOL0     H52692   4.344   4.937   0.681  0.5554  0.6153  0.7827
  382MOL0     H52693   4.337   4.885   0.851 -0.1036 -2.4132 -1.5724
  382MOL0     H52694   4.594   4.888   0.689  1.6059  1.1042  2.6943
  382MOL0     H52695   4.473   4.748   0.694 -3.8530  1.2465  1.4357
  382MOL0     H52696   3.912   5.361   1.100 -1.3449 -1.4683  1.5586
  382MOL0     H52697   3.693   5.328   1.201  2.9740  2.6476  1.0733
  382MOL0     H52698   3.284   5.520   1.374 -2.8697  1.3365  1.1669
  382MOL0     H52699   3.066   5.505   1.457 -4.9954 -2.2726  0.5822
  382MOL0     H52700   1.096   4.565   0.742  0.2713 -2.2133  2.7243
  382MOL0     H52701   0.840   4.537   0.749 -1.8184  1.1401  0.9291
  382MOL0     H52702   0.498   4.621   0.740  2.1578 -2.4636  2.1490
  382MOL0     H52703   0.256   4.586   0.686  0.4623  1.1865  0.4346
  382MOL0     H52704   0.031   4.679   0.707 -1.9619 -1.4218 -2.9472
  382MOL0     H52705   0.018   4.514   0.666 -1.3362 -1.0549 -0.6555
  382MOL0     H52706  -0.217   4.606   0.670  1.3661  0.2296 -1.6079
  382MOL0     H52707  -0.160   4.700   0.814 -0.7510 -0.3739  2.1311
  382MOL0     H52708  -0.255   4.412   0.791 -1.1059 -0.1124 -0.6880
  382MOL0     H52709  -0.172   4.473   0.937 -0.8238  1.4199  0.2789
  382MOL0     H52710  -0.356   4.661   0.924  0.8485  0.5423  2.4906
  382MOL0     H52711  -0.335   4.533   1.033  2.0978  0.0521 -1.8729
  382MOL0     H52712  -0.713   4.450   0.856  0.2056 -2.0336  2.7657
  382MOL0     H52713   0.146   4.626   1.094 -1.2954 -1.4657 -0.7509
  382MOL0     H52714   0.429   4.783   1.200  1.9032 -0.9202 -0.4452
  382MOL0     H52715   0.304   4.673   1.259 -0.4376  0.2073 -0.6535
  382MOL0     H52716   0.479   4.615   1.234  0.9801 -1.8637 -2.0341
  383MOL0     O52717   4.817   4.916   6.045  0.1837 -0.7111  0.3748
  383MOL0     C52718   4.741   4.984   6.121 -0.4955 -0.8431 -0.3077
  383MOL0     O52719   4.778   5.102   6.184  0.1365 -0.5119  0.6643
  383MOL0     C52720   4.914   5.142   6.182  0.1389 -0.2810 -0.8298
  383MOL0     C52721   4.956   5.252   6.115 -0.8189  0.0110  0.7598
  383MOL0     C52722   5.087   5.293   6.121 -0.0615 -0.0796  0.2011
  383MOL0     C52723   5.185   5.234   6.207 -0.6334 -0.3093 -0.5026
  383MOL0     O52724   5.307   5.291   6.213  0.4457  0.1786  0.4324
  383MOL0     C52725   5.393   5.242   6.326 -0.3714 -0.3267 -0.2038
  383MOL0     C52726   5.526   5.319   6.325  0.6987  0.2422 -0.9028
  383MOL0     C52727   5.512   5.466   6.315 -1.2253  0.0149 -0.7306
  383MOL0     C52728   5.528   5.531   6.457 -0.3489 -0.2458 -0.5115
  383MOL0     C52729   5.469   5.672   6.476 -0.3410  0.6116 -0.4949
  383MOL0     C52730   5.554   5.767   6.386  0.1382 -0.3087  0.0685
  383MOL0     C52731   5.491   5.906   6.373 -0.1948 -0.0081  0.1980
  383MOL0     C52732   5.516   5.994   6.493 -0.5739 -0.8407  0.1785
  383MOL0     N52733   5.650   6.054   6.500 -0.1533 -0.1199 -0.2395
  383MOL0     C52734   5.703   6.146   6.406  0.6820  0.2517 -0.1127
  383MOL0     C52735   5.830   6.175   6.439  0.2322  0.0964 -0.1504
  383MOL0     C52736   5.924   6.262   6.368  0.0415 -0.1492 -0.4278
  383MOL0     C52737   5.933   6.407   6.422  0.4965 -0.4357 -0.8609
  383MOL0     C52738   6.020   6.422   6.550 -0.0104 -0.4263  0.0153
  383MOL0     C52739   6.166   6.377   6.529 -0.5502  0.4297  0.2425
  383MOL0     O52740   6.253   6.421   6.632  1.2120 -0.2984 -0.3295
  383MOL0     C52741   6.366   6.499   6.616  0.3813  0.8023  1.3901
  383MOL0     C52742   6.370   6.602   6.522 -0.6607 -0.4704  0.2229
  383MOL0     C52743   6.480   6.681   6.506  0.8188 -0.8153  0.2841
  383MOL0     C52744   6.469   6.787   6.389 -0.2254  0.3826  1.0807
  383MOL0     C52745   6.594   6.668   6.604  1.1069 -1.2601 -0.0753
  383MOL0     C52746   6.700   6.776   6.615 -0.4482 -0.0111 -0.2857
  383MOL0     O52747   6.783   6.750   6.722  0.3489 -0.4074 -0.5168
  383MOL0     C52748   6.884   6.843   6.757  0.5020 -1.1282  0.3813
  383MOL0     C52749   6.859   6.979   6.763 -0.9108 -0.3573 -0.3527
  383MOL0     C52750   6.968   7.069   6.789 -0.1313  0.0259  0.0102
  383MOL0     C52751   7.098   7.017   6.804  0.3332  0.9305  0.6165
  383MOL0     O52752   7.190   7.115   6.804 -0.3658  0.7005  0.0129
  383MOL0     C52753   7.325   7.077   6.835  0.7187 -0.7057  0.1334
  383MOL0     C52754   7.412   7.199   6.850 -0.0037 -0.7768 -0.5716
  383MOL0     C52755   7.553   7.147   6.898 -0.2484 -0.0746 -0.1062
  383MOL0     C52756   7.649   7.256   6.928 -0.5290 -0.5387 -0.7944
  383MOL0     C52757   7.781   7.192   6.999 -0.5613 -0.0216  0.1309
  383MOL0     C52758   7.883   7.302   7.044 -0.1167 -0.5839 -0.1817
  383MOL0     C52759   8.007   7.225   7.077  0.2818 -0.6648 -1.2502
  383MOL0     C52760   8.098   7.329   7.139  0.9165  1.0351 -0.0457
  383MOL0    Cl52761   8.204   7.236   7.248  0.2003 -0.0008  0.1786
  383MOL0     C52762   7.119   6.884   6.787 -0.7938  0.7735  0.2939
  383MOL0     C52763   7.014   6.793   6.771  0.2356  0.3892 -0.1429
  383MOL0     O52764   6.710   6.875   6.544  0.6531  0.0587  0.0617
  383MOL0     C52765   6.590   6.559   6.696  0.0998 -0.2253  0.1784
  383MOL0     C52766   6.472   6.477   6.703  0.3849 -0.1861  0.4503
  383MOL0     N52767   5.852   6.112   6.557 -0.6516  0.2533 -0.2989
  383MOL0     N52768   5.748   6.049   6.595 -0.0891  0.1754  0.0361
  383MOL0     C52769   5.133   5.132   6.294  0.1902 -0.9160  0.1452
  383MOL0     C52770   4.990   5.098   6.285 -0.0256 -0.2363  0.1269
  383MOL0     C52771   4.609   4.929   6.166 -0.1004  0.8356  0.1657
  383MOL0     C52772   4.566   4.954   6.300  0.3244  0.3436 -0.0302
  383MOL0     C52773   4.439   4.901   6.331  0.1810 -0.4214 -0.1942
  383MOL0     C52774   4.355   4.828   6.242  0.1175 -0.6840 -0.0273
  383MOL0     O52775   4.236   4.779   6.273  0.6230  0.4033 -0.0435
  383MOL0     C52776   4.189   4.786   6.411 -0.1807 -0.7442  0.2023
  383MOL0     C52777   4.075   4.686   6.429  0.2049  0.0676 -0.8814
  383MOL0     C52778   4.008   4.709   6.565 -0.2916 -0.2689  0.4353
  383MOL0     C52779   3.924   4.584   6.592  0.9125 -0.7971  0.7475
  383MOL0     C52780   3.810   4.578   6.501  0.1443  0.2780  0.0278
  383MOL0     C52781   3.710   4.567   6.431  0.1777  0.1103 -0.2688
  383MOL0     C52782   4.411   4.801   6.122  0.5564  0.0813  0.2445
  383MOL0     C52783   4.529   4.848   6.084 -0.4799  0.7943 -0.3279
  383MOL0     C52784   4.573   4.797   5.947 -0.0656 -0.1564  0.3421
  383MOL0     H52785   4.883   5.305   6.055 -1.0489  0.3343  1.3265
  383MOL0     H52786   5.110   5.377   6.055 -0.8544 -0.8505 -1.0965
  383MOL0     H52787   5.419   5.140   6.297 -1.2422 -0.8792  0.8751
  383MOL0     H52788   5.343   5.256   6.423  0.1380  1.0794 -0.1271
  383MOL0     H52789   5.589   5.304   6.414  0.0833  3.4379  0.1819
  383MOL0     H52790   5.587   5.296   6.237 -0.1868  1.9281 -1.9947
  383MOL0     H52791   5.587   5.507   6.247 -0.7411  1.8601  0.8377
  383MOL0     H52792   5.417   5.500   6.273 -1.3951  0.3114 -0.1183
  383MOL0     H52793   5.482   5.467   6.533  0.1914 -2.3847 -1.9051
  383MOL0     H52794   5.637   5.536   6.471 -0.4258  1.8790 -0.3950
  383MOL0     H52795   5.481   5.705   6.580  0.7898 -0.1422 -0.3643
  383MOL0     H52796   5.364   5.680   6.446 -1.1665  1.5906  2.2873
  383MOL0     H52797   5.656   5.774   6.425  0.6021 -0.7329 -1.0433
  383MOL0     H52798   5.557   5.729   6.284  1.7312  0.6428 -0.2640
  383MOL0     H52799   5.384   5.901   6.350  0.3525  0.0406 -2.7856
  383MOL0     H52800   5.531   5.955   6.284 -0.7882 -0.2978 -0.2369
  383MOL0     H52801   5.454   6.082   6.475  0.0472 -0.5302 -0.5072
  383MOL0     H52802   5.490   5.950   6.590 -3.5906 -0.3214 -0.3115
  383MOL0     H52803   5.640   6.173   6.322  0.2554  0.9710  0.4248
  383MOL0     H52804   5.900   6.269   6.261  0.4252  1.9799 -0.4024
  383MOL0     H52805   6.021   6.211   6.355 -0.1423 -0.5606 -0.2115
  383MOL0     H52806   5.978   6.457   6.336  2.7282 -2.9664 -1.3063
  383MOL0     H52807   5.836   6.457   6.435  1.5045  1.2224  0.8320
  383MOL0     H52808   6.030   6.529   6.571  1.7584 -0.3396 -1.0142
  383MOL0     H52809   5.957   6.369   6.621 -1.7070 -2.9592 -3.0961
  383MOL0     H52810   6.163   6.267   6.520 -0.3938  0.3887  0.6896
  383MOL0     H52811   6.197   6.418   6.432 -1.8663  2.9765  0.8227
  383MOL0     H52812   6.280   6.632   6.468 -0.2947 -1.3407 -0.9007
  383MOL0     H52813   6.567   6.777   6.342 -0.5740 -0.2309  0.4669
  383MOL0     H52814   6.464   6.883   6.440  3.8409  1.8315 -0.8452
  383MOL0     H52815   6.384   6.781   6.321 -1.6795  2.7209  2.5516
  383MOL0     H52816   6.760   7.019   6.742 -0.8526 -1.0267 -2.0275
  383MOL0     H52817   6.948   7.175   6.790  0.1184  0.1417 -2.5257
  383MOL0     H52818   7.318   7.041   6.938 -1.0264  1.7816  0.9545
  383MOL0     H52819   7.371   7.008   6.762  2.6094  0.9233 -0.3000
  383MOL0     H52820   7.418   7.249   6.752 -1.3764  0.1562 -0.1938
  383MOL0     H52821   7.370   7.273   6.918  2.5576  0.5870 -0.3497
  383MOL0     H52822   7.605   7.094   6.818 -1.0125 -3.6259  1.5396
  383MOL0     H52823   7.542   7.084   6.987 -4.3366  0.2129 -0.2066
  383MOL0     H52824   7.607   7.322   7.004 -0.9466  0.0915 -1.5526
  383MOL0     H52825   7.675   7.309   6.836  2.5042 -0.8968 -0.2619
  383MOL0     H52826   7.753   7.128   7.083 -0.8163  0.0409  0.0940
  383MOL0     H52827   7.831   7.128   6.926 -1.0448  1.7349 -1.8228
  383MOL0     H52828   7.855   7.370   7.125  0.1450  0.3731 -0.8688
  383MOL0     H52829   7.898   7.371   6.960 -2.7944 -2.0122 -1.9671
  383MOL0     H52830   8.054   7.172   6.994  0.8157  2.8119 -3.3312
  383MOL0     H52831   7.971   7.162   7.159 -0.9115  1.2826 -0.2034
  383MOL0     H52832   8.045   7.406   7.197  0.1762  1.9216 -1.8256
  383MOL0     H52833   8.161   7.375   7.063  2.4513 -2.1285 -0.8605
  383MOL0     H52834   7.218   6.842   6.801 -2.3150 -3.3127  0.0671
  383MOL0     H52835   7.044   6.689   6.778 -0.7497  0.0088 -1.3134
  383MOL0     H52836   6.665   6.542   6.772 -0.8440  0.9641  1.4434
  383MOL0     H52837   6.467   6.393   6.772 -1.8719  0.9601  1.7846
  383MOL0     H52838   5.193   5.096   6.378  3.9974 -1.6258 -2.6204
  383MOL0     H52839   4.952   5.028   6.359 -3.3208  0.4793 -0.7566
  383MOL0     H52840   4.623   5.021   6.364  0.8941  2.1743 -2.3574
  383MOL0     H52841   4.401   4.922   6.431  0.4349  1.1974 -0.4099
  383MOL0     H52842   4.265   4.777   6.488 -0.6216  1.2788  0.9376
  383MOL0     H52843   4.136   4.882   6.418 -1.6864 -1.4807 -0.5487
  383MOL0     H52844   4.115   4.585   6.416  0.8830  0.2265 -0.0877
  383MOL0     H52845   3.999   4.705   6.352  0.0165  0.1631 -0.6717
  383MOL0     H52846   4.072   4.720   6.653  0.9411 -2.2749 -0.1343
  383MOL0     H52847   3.937   4.792   6.563 -0.5525 -0.4900  0.4285
  383MOL0     H52848   3.888   4.583   6.696  1.9657 -1.1246  1.1206
  383MOL0     H52849   3.978   4.489   6.589 -0.7473 -1.7622  0.2260
  383MOL0     H52850   3.627   4.563   6.364 -0.1030  1.9910 -0.0785
  383MOL0     H52851   4.360   4.734   6.053  0.8839  0.3111 -0.2250
  383MOL0     H52852   4.625   4.877   5.893 -1.5351  1.0554  0.6549
  383MOL0     H52853   4.649   4.722   5.971  0.8889  0.7899  0.3466
  383MOL0     H52854   4.501   4.750   5.880  0.1210  1.1943 -0.8538
  384MOL0     O52855   5.219   2.151   2.507 -0.0414  0.5351  0.3978
  384MOL0     C52856   5.284   2.256   2.507  0.6718  0.3044  0.1378
  384MOL0     O52857   5.260   2.361   2.428 -0.0489 -0.1082 -0.0525
  384MOL0     C52858   5.141   2.398   2.368 -0.4418  0.0430 -0.0676
  384MOL0     C52859   5.144   2.523   2.305 -0.3559  0.1934 -0.1914
  384MOL0     C52860   5.031   2.591   2.253  0.8092 -0.6013 -0.5014
  384MOL0     C52861   4.904   2.535   2.275  0.4253 -0.2296 -0.8556
  384MOL0     O52862   4.786   2.592   2.241  0.0724  0.8908 -0.0537
  384MOL0     C52863   4.784   2.736   2.225  0.2136 -0.6167  0.2161
  384MOL0     C52864   4.634   2.775   2.214 -0.7309  0.1173  0.4756
  384MOL0     C52865   4.568   2.709   2.091 -0.8272 -0.4338 -0.5333
  384MOL0     C52866   4.417   2.718   2.121 -0.1441  0.5185  0.1202
  384MOL0     C52867   4.335   2.644   2.010  0.4879 -0.0301 -0.0119
  384MOL0     C52868   4.375   2.698   1.867  0.8398  0.3221 -0.6844
  384MOL0     C52869   4.272   2.643   1.770 -0.1090 -0.4395  0.1797
  384MOL0     C52870   4.253   2.718   1.642 -0.7986 -0.4379 -0.0127
  384MOL0     N52871   4.385   2.724   1.567  0.5173 -0.0354 -1.2144
  384MOL0     C52872   4.451   2.625   1.509  0.1172  0.2784 -0.5584
  384MOL0     C52873   4.556   2.683   1.446 -0.4887  0.0038 -0.2342
  384MOL0     C52874   4.656   2.604   1.377  0.0953 -0.4105  0.3486
  384MOL0     C52875   4.798   2.658   1.409  0.2108  0.9409 -0.0566
  384MOL0     C52876   4.918   2.594   1.347  0.7053  0.2248 -0.1569
  384MOL0     C52877   5.037   2.688   1.349 -0.4470 -1.0056 -0.9033
  384MOL0     O52878   5.059   2.734   1.484  0.8427  0.2023 -0.7938
  384MOL0     C52879   5.175   2.806   1.508 -0.5363 -0.1570 -0.0884
  384MOL0     C52880   5.198   2.833   1.649  0.2710 -0.3882  0.1968
  384MOL0     C52881   5.306   2.912   1.698 -0.5875 -0.6606  0.1968
  384MOL0     C52882   5.307   2.916   1.852  0.3309  0.5878  0.5927
  384MOL0     C52883   5.394   2.969   1.601 -0.6178  0.1731  0.2665
  384MOL0     C52884   5.510   3.061   1.629  0.3352 -0.3381 -0.0058
  384MOL0     O52885   5.539   3.084   1.759  0.3236  0.4701 -0.5654
  384MOL0     C52886   5.661   3.123   1.807  1.0305 -0.4864  0.0539
  384MOL0     C52887   5.661   3.140   1.943 -0.4072 -0.3569 -0.7579
  384MOL0     C52888   5.784   3.177   2.004 -0.0829  0.2467 -0.1918
  384MOL0     C52889   5.899   3.202   1.922 -0.6063  0.2287  0.1971
  384MOL0     O52890   6.012   3.234   1.984  0.0996  0.5654 -0.6685
  384MOL0     C52891   6.065   3.358   1.939 -0.1871  0.6044  0.4024
  384MOL0     C52892   6.118   3.437   2.068  0.0563  0.3574 -0.2969
  384MOL0     C52893   6.256   3.391   2.134 -0.5668 -0.0735  0.3315
  384MOL0     C52894   6.244   3.262   2.209  1.2298  0.1502  0.1498
  384MOL0     C52895   6.376   3.221   2.269  0.3233  0.1412 -0.9879
  384MOL0     C52896   6.356   3.099   2.366  0.0889  0.1557  0.8384
  384MOL0     C52897   6.489   3.023   2.398  0.7032  0.4312  0.3266
  384MOL0     C52898   6.490   2.964   2.542  0.3580  1.2778  0.8937
  384MOL0    Cl52899   6.621   2.853   2.544 -0.3507 -0.1227  0.4305
  384MOL0     C52900   5.893   3.179   1.780  0.3344  0.3940 -0.5950
  384MOL0     C52901   5.771   3.146   1.725 -0.0869  0.5494 -0.0176
  384MOL0     O52902   5.565   3.115   1.537  0.2918  0.6010 -0.6509
  384MOL0     C52903   5.370   2.945   1.464 -0.2627  0.3851  0.6311
  384MOL0     C52904   5.275   2.852   1.417 -0.5624  0.4270 -0.1392
  384MOL0     N52905   4.545   2.822   1.456 -0.1975  0.3058 -0.2243
  384MOL0     N52906   4.442   2.839   1.533 -0.2784 -0.1036  0.3470
  384MOL0     C52907   4.902   2.400   2.326 -0.0547  0.7335 -0.5867
  384MOL0     C52908   5.019   2.334   2.372 -0.0238 -0.5068 -0.3218
  384MOL0     C52909   5.395   2.278   2.612 -0.5498 -0.0378 -0.1007
  384MOL0     C52910   5.429   2.163   2.693  0.2256 -0.2921 -0.4675
  384MOL0     C52911   5.522   2.173   2.801  0.2322 -0.0007  0.5822
  384MOL0     C52912   5.594   2.290   2.815 -0.0697 -0.1385 -0.6143
  384MOL0     O52913   5.687   2.305   2.918 -0.0267 -0.1684  0.7525
  384MOL0     C52914   5.803   2.372   2.870 -0.4049  0.1248 -0.4320
  384MOL0     C52915   5.921   2.308   2.945 -0.6192  1.0759  1.1981
  384MOL0     C52916   5.929   2.162   2.932  0.6952  0.8619 -0.5661
  384MOL0     C52917   6.079   2.120   2.948  0.5285 -0.0533 -0.7694
  384MOL0     C52918   6.121   2.097   3.083 -0.6306 -1.7732 -0.5458
  384MOL0     C52919   6.154   2.065   3.201  0.4992 -0.2882 -0.3535
  384MOL0     C52920   5.566   2.398   2.733 -0.3244 -0.7749 -0.1984
  384MOL0     C52921   5.465   2.401   2.638  0.0351  0.6367  0.3524
  384MOL0     C52922   5.429   2.527   2.574  0.2562 -0.2779  0.3767
  384MOL0     H52923   5.242   2.568   2.291 -0.7293  1.0655 -0.0448
  384MOL0     H52924   5.031   2.685   2.199 -2.0946 -0.4582 -0.3826
  384MOL0     H52925   4.833   2.763   2.131 -2.2355  1.4534 -0.5993
  384MOL0     H52926   4.836   2.795   2.301 -2.5473 -0.7680  2.3999
  384MOL0     H52927   4.594   2.734   2.307  0.7350  1.5519  1.8060
  384MOL0     H52928   4.620   2.883   2.219  2.2435  0.5359  1.8885
  384MOL0     H52929   4.605   2.758   2.001 -0.0507 -0.1103 -0.0462
  384MOL0     H52930   4.599   2.604   2.084  0.4319 -0.5565  3.6945
  384MOL0     H52931   4.391   2.681   2.220 -1.3897  0.1170 -0.3310
  384MOL0     H52932   4.384   2.822   2.118 -0.5765  0.4059  0.8157
  384MOL0     H52933   4.231   2.662   2.038  1.1117 -0.1452  2.6396
  384MOL0     H52934   4.355   2.537   2.015 -2.2056 -0.6467 -1.0138
  384MOL0     H52935   4.364   2.807   1.867  0.5199  0.2924 -1.0810
  384MOL0     H52936   4.479   2.685   1.837  1.3511 -0.5625  1.3538
  384MOL0     H52937   4.174   2.649   1.817 -0.0924 -1.9797  0.4443
  384MOL0     H52938   4.296   2.538   1.754 -2.1212 -0.7913 -0.8440
  384MOL0     H52939   4.173   2.675   1.582 -1.0646  1.9888 -1.5726
  384MOL0     H52940   4.223   2.821   1.666 -3.1781 -1.6178  2.5406
  384MOL0     H52941   4.432   2.521   1.531  1.2572  0.3725  1.1263
  384MOL0     H52942   4.651   2.593   1.268  1.1275  1.0322  0.1184
  384MOL0     H52943   4.658   2.503   1.417 -0.2012  0.3096  2.2726
  384MOL0     H52944   4.797   2.763   1.377 -1.8025  1.4715  1.5688
  384MOL0     H52945   4.818   2.645   1.515  3.6553  1.8518 -0.4661
  384MOL0     H52946   4.944   2.499   1.395 -1.4200 -0.0455  0.5422
  384MOL0     H52947   4.908   2.570   1.241  2.0654 -0.3893 -0.1672
  384MOL0     H52948   5.128   2.633   1.320  1.0149 -0.3043  1.9614
  384MOL0     H52949   5.018   2.776   1.287 -0.5934 -1.3624 -1.3710
  384MOL0     H52950   5.124   2.797   1.720 -2.2987  0.6716 -1.8109
  384MOL0     H52951   5.262   3.011   1.886  0.3524  0.5455  0.7429
  384MOL0     H52952   5.410   2.908   1.886  0.2969 -4.0031  0.2163
  384MOL0     H52953   5.240   2.844   1.900 -1.4345  1.1224 -0.9494
  384MOL0     H52954   5.566   3.127   1.994  0.3499  2.2785  1.5406
  384MOL0     H52955   5.797   3.187   2.111 -0.0579  1.0310 -0.2612
  384MOL0     H52956   6.139   3.338   1.862  0.6670  1.1543  1.0647
  384MOL0     H52957   5.983   3.421   1.903 -1.2865  2.7620  5.6721
  384MOL0     H52958   6.124   3.539   2.029 -1.4070  0.9026  0.7958
  384MOL0     H52959   6.043   3.438   2.148 -0.0506 -3.7840 -0.1032
  384MOL0     H52960   6.295   3.458   2.211 -0.5008 -0.8103  0.9526
  384MOL0     H52961   6.328   3.378   2.053 -1.4337 -1.5949 -0.2248
  384MOL0     H52962   6.216   3.179   2.143  0.1420  0.9675 -0.4473
  384MOL0     H52963   6.161   3.283   2.278  0.2332 -0.5770 -0.7869
  384MOL0     H52964   6.449   3.193   2.192  0.8556 -1.4814  0.0449
  384MOL0     H52965   6.426   3.297   2.331 -1.9666 -0.4809  1.8416
  384MOL0     H52966   6.276   3.032   2.333  0.4057 -0.6497  1.6476
  384MOL0     H52967   6.320   3.142   2.460 -0.2014 -0.4132  0.9939
  384MOL0     H52968   6.574   3.092   2.397  0.9744  0.1666 -2.5739
  384MOL0     H52969   6.506   2.944   2.324 -0.4834 -1.0028  1.5097
  384MOL0     H52970   6.397   2.916   2.573  0.7696  0.4006  0.7940
  384MOL0     H52971   6.524   3.045   2.608  2.6502  1.8172 -0.8213
  384MOL0     H52972   5.986   3.174   1.723  0.0915 -3.2786 -0.9081
  384MOL0     H52973   5.769   3.153   1.617  0.9975 -1.3057 -0.2007
  384MOL0     H52974   5.438   2.985   1.389 -1.9185 -0.1530 -1.2483
  384MOL0     H52975   5.272   2.835   1.310  2.6293  0.5584 -0.3469
  384MOL0     H52976   4.808   2.345   2.331  2.9710 -5.0749  1.6266
  384MOL0     H52977   5.001   2.236   2.417 -1.8081  0.5447  1.4253
  384MOL0     H52978   5.384   2.068   2.665  1.3199 -0.9804 -0.0048
  384MOL0     H52979   5.538   2.083   2.860  0.0832  0.8644  1.9981
  384MOL0     H52980   5.822   2.363   2.763 -1.6157  1.0036 -0.7416
  384MOL0     H52981   5.805   2.480   2.887  4.2000  0.0755  0.6951
  384MOL0     H52982   5.920   2.326   3.052  1.8781 -0.9464  1.6665
  384MOL0     H52983   6.014   2.355   2.911  0.5132 -2.3380 -1.0321
  384MOL0     H52984   5.865   2.110   3.004  1.8397  2.2080  1.5261
  384MOL0     H52985   5.905   2.126   2.832 -1.6308 -0.4772  0.4025
  384MOL0     H52986   6.144   2.184   2.888 -0.4071  0.7100 -0.9970
  384MOL0     H52987   6.089   2.025   2.895  1.5424 -0.2274 -0.2822
  384MOL0     H52988   6.191   2.033   3.296  1.4789 -0.3045 -0.7303
  384MOL0     H52989   5.616   2.492   2.754 -2.2872 -0.3107  2.9851
  384MOL0     H52990   5.476   2.605   2.635  0.4020 -1.0102  1.2238
  384MOL0     H52991   5.447   2.539   2.467 -0.7287  1.6160  0.3755
  384MOL0     H52992   5.322   2.547   2.582 -0.0622 -2.2228  1.6687
  385MOL0     O52993   3.519  10.285   8.295 -0.8219 -0.0572  0.1164
  385MOL0     C52994   3.483  10.168   8.307 -0.2058 -0.6340 -0.1067
  385MOL0     O52995   3.565  10.063   8.304 -1.3407 -0.6746 -0.2525
  385MOL0     C52996   3.689  10.081   8.262 -0.6540 -0.8224 -0.5534
  385MOL0     C52997   3.717  10.150   8.142  0.2925  0.8102 -0.6288
  385MOL0     C52998   3.850  10.183   8.106 -0.0684 -0.1421 -0.0634
  385MOL0     C52999   3.958  10.146   8.183 -1.1057  0.5109  1.7963
  385MOL0     O53000   4.080  10.174   8.129  0.4596  0.3720  0.2169
  385MOL0     C53001   4.180  10.196   8.227  0.0015 -0.0760  0.7043
  385MOL0     C53002   4.301  10.257   8.152  0.2151  0.0080  1.0362
  385MOL0     C53003   4.439  10.250   8.211 -0.0135  0.1917  0.0765
  385MOL0     C53004   4.447  10.316   8.348 -0.3542  0.5646  0.0080
  385MOL0     C53005   4.577  10.278   8.427  0.3147  0.3998 -0.6305
  385MOL0     C53006   4.557  10.315   8.577  0.6055  0.2533  0.2633
  385MOL0     C53007   4.688  10.286   8.648 -0.5993  0.3875  0.3476
  385MOL0     C53008   4.765  10.422   8.657 -0.0746 -0.4934 -0.0163
  385MOL0     N53009   4.888  10.398   8.746  0.3277  0.2200 -0.9707
  385MOL0     C53010   4.895  10.436   8.881 -0.3475  0.3247 -0.0976
  385MOL0     C53011   5.019  10.383   8.915 -0.0774 -0.5154 -0.2220
  385MOL0     C53012   5.096  10.402   9.043  0.1482  0.6975  0.8176
  385MOL0     C53013   5.092  10.540   9.096  0.4050 -0.2383 -0.3133
  385MOL0     C53014   5.147  10.635   8.985  0.7329 -0.5441 -0.3505
  385MOL0     C53015   5.149  10.782   9.040 -0.0322  0.4857  0.2382
  385MOL0     O53016   5.241  10.864   8.961 -0.3414  0.7299  0.4165
  385MOL0     C53017   5.373  10.868   9.005 -0.5439 -0.1050  0.3421
  385MOL0     C53018   5.452  10.927   8.908 -0.2414 -0.4045  0.0242
  385MOL0     C53019   5.589  10.931   8.931  0.1065  0.1967 -0.5067
  385MOL0     C53020   5.677  10.989   8.820 -0.4410 -0.0629  0.4457
  385MOL0     C53021   5.643  10.893   9.053 -0.0768 -0.1417  0.3424
  385MOL0     C53022   5.785  10.906   9.089  0.2143 -0.0549 -0.5127
  385MOL0     O53023   5.800  10.919   9.222 -0.2181  0.0563 -0.0947
  385MOL0     C53024   5.912  10.977   9.267 -0.5197  0.5361 -0.2224
  385MOL0     C53025   5.987  10.921   9.363  0.0398  0.6776 -0.2144
  385MOL0     C53026   6.112  10.960   9.399 -0.3048  0.3103  0.1487
  385MOL0     C53027   6.161  11.085   9.351 -0.6508  0.5529 -0.4527
  385MOL0     O53028   6.285  11.140   9.382 -0.2255 -0.3796 -0.0591
  385MOL0     C53029   6.400  11.057   9.399  0.2655  0.1173 -0.4412
  385MOL0     C53030   6.494  11.103   9.520 -0.4075  0.2118  0.2248
  385MOL0     C53031   6.560  11.240   9.501 -0.8351  0.0329 -0.3405
  385MOL0     C53032   6.549  11.310   9.645  0.5117 -0.7993  0.2177
  385MOL0     C53033   6.634  11.432   9.638  1.1593  0.2743  0.5222
  385MOL0     C53034   6.636  11.494   9.780  0.2908  1.6981  0.4103
  385MOL0     C53035   6.693  11.634   9.786 -0.3432  0.6073  0.4065
  385MOL0     C53036   6.842  11.643   9.769  0.6001 -0.7078 -0.3102
  385MOL0    Cl53037   6.909  11.806   9.771 -0.1145 -0.0724 -0.1755
  385MOL0     C53038   6.070  11.150   9.256  0.6509  0.0867  0.1001
  385MOL0     C53039   5.951  11.097   9.213  0.6244  0.4904 -0.3049
  385MOL0     O53040   5.874  10.890   9.002 -0.0236 -0.1698  0.1792
  385MOL0     C53041   5.558  10.841   9.154 -0.2239 -0.0725  1.6464
  385MOL0     C53042   5.425  10.845   9.133 -0.0988 -0.3891 -0.0997
  385MOL0     N53043   5.065  10.301   8.815 -0.7111 -0.3746  0.4433
  385MOL0     N53044   4.992  10.318   8.706  0.5740  0.4908  0.1631
  385MOL0     C53045   3.932  10.077   8.298 -0.1690 -0.4968  0.0381
  385MOL0     C53046   3.803  10.045   8.341 -0.4575  0.3555 -0.5102
  385MOL0     C53047   3.337  10.142   8.324 -0.6071  0.0464  0.4232
  385MOL0     C53048   3.285  10.011   8.303 -0.4652 -0.1361  0.6817
  385MOL0     C53049   3.145   9.990   8.303 -1.0514 -1.0377 -0.5805
  385MOL0     C53050   3.052  10.090   8.313  0.2196  0.2480  0.0985
  385MOL0     O53051   2.918  10.058   8.310 -0.4220 -0.1915  0.3494
  385MOL0     C53052   2.846  10.106   8.192  0.3187 -0.2420 -0.8505
  385MOL0     C53053   2.703  10.057   8.199 -0.2118 -0.0689  0.1138
  385MOL0     C53054   2.617  10.110   8.089 -0.9169 -0.2538 -0.1489
  385MOL0     C53055   2.640  10.049   7.950 -0.8077 -0.4591 -0.0847
  385MOL0     C53056   2.765  10.089   7.881  0.3155 -0.1135 -0.3863
  385MOL0     C53057   2.879  10.106   7.839  0.6937 -0.6003 -0.0839
  385MOL0     C53058   3.105  10.217   8.336 -0.7389  0.5819 -0.5127
  385MOL0     C53059   3.239  10.242   8.357 -0.0332  0.1777 -0.2742
  385MOL0     C53060   3.272  10.373   8.427 -0.0429 -0.1934 -0.3144
  385MOL0     H53061   3.639  10.181   8.072 -1.4857  1.1302  1.4011
  385MOL0     H53062   3.863  10.240   8.014  1.2612  1.2775  0.9491
  385MOL0     H53063   4.208  10.103   8.277 -1.9058 -0.5688  0.9381
  385MOL0     H53064   4.148  10.259   8.310  1.6141  2.0136 -0.1674
  385MOL0     H53065   4.313  10.200   8.060 -0.7113  2.8343 -0.9699
  385MOL0     H53066   4.278  10.357   8.114  1.3203 -0.6191 -1.4423
  385MOL0     H53067   4.472  10.147   8.228 -0.6791  0.5343  5.0045
  385MOL0     H53068   4.515  10.288   8.142  0.4485 -2.2965 -0.8790
  385MOL0     H53069   4.454  10.425   8.342  0.0458  0.4723 -1.7855
  385MOL0     H53070   4.358  10.287   8.405 -0.2428 -0.5639 -0.3650
  385MOL0     H53071   4.667  10.319   8.379  1.4320  3.2547  3.3360
  385MOL0     H53072   4.597  10.171   8.434 -0.6036  0.0875 -2.3868
  385MOL0     H53073   4.532  10.422   8.575  2.0127  0.6017 -1.8875
  385MOL0     H53074   4.476  10.258   8.624  0.8985 -0.8091 -0.4929
  385MOL0     H53075   4.749  10.205   8.606  0.4445 -0.8288  3.8441
  385MOL0     H53076   4.664  10.246   8.747  1.0878  1.2309  1.1475
  385MOL0     H53077   4.812  10.445   8.560  2.5754 -2.1613  0.7638
  385MOL0     H53078   4.720  10.508   8.707  3.2677  1.4577 -0.0020
  385MOL0     H53079   4.831  10.502   8.939  2.3637  0.7251  2.6748
  385MOL0     H53080   5.198  10.362   9.037 -1.4464 -4.5357  2.7889
  385MOL0     H53081   5.056  10.338   9.122  2.3734  0.0561  1.5232
  385MOL0     H53082   4.993  10.573   9.130  0.8059  0.3064  0.3644
  385MOL0     H53083   5.155  10.554   9.185 -0.0252 -1.1217  0.1362
  385MOL0     H53084   5.250  10.610   8.956  1.6946  2.7377 -0.1882
  385MOL0     H53085   5.082  10.634   8.898 -0.7537 -1.0510  0.7286
  385MOL0     H53086   5.053  10.828   9.016 -0.8212 -1.8876 -1.5446
  385MOL0     H53087   5.175  10.800   9.145 -0.0234  0.7003  0.2000
  385MOL0     H53088   5.412  10.968   8.816 -3.0377 -1.5108  0.6333
  385MOL0     H53089   5.757  10.921   8.791  1.0910  1.5291  0.7386
  385MOL0     H53090   5.737  11.076   8.848  1.0551  0.1137 -2.7855
  385MOL0     H53091   5.616  11.017   8.733 -1.0284  0.8663  1.1376
  385MOL0     H53092   5.956  10.824   9.399 -0.5997  1.3490  1.1469
  385MOL0     H53093   6.174  10.907   9.471 -0.2685  1.6943  1.1805
  385MOL0     H53094   6.372  10.955   9.427 -0.7053  0.8893  1.5149
  385MOL0     H53095   6.450  11.037   9.303 -2.3311 -0.9103 -1.6665
  385MOL0     H53096   6.432  11.100   9.610 -0.7847  2.0018  0.0606
  385MOL0     H53097   6.573  11.028   9.518 -1.1523 -0.5803 -0.3680
  385MOL0     H53098   6.513  11.295   9.419  1.0443 -0.6775 -1.9649
  385MOL0     H53099   6.661  11.211   9.472 -0.1475  1.6528  0.3192
  385MOL0     H53100   6.586  11.249   9.728 -0.4165  0.4196  1.5846
  385MOL0     H53101   6.446  11.331   9.675 -0.0367 -1.1299 -1.3183
  385MOL0     H53102   6.732  11.389   9.615 -0.1260 -2.2816 -0.5940
  385MOL0     H53103   6.598  11.496   9.557 -0.2158 -0.9475  0.1287
  385MOL0     H53104   6.693  11.425   9.842 -2.3982 -1.7419 -0.5990
  385MOL0     H53105   6.532  11.503   9.814  0.1280  1.1242  0.0856
  385MOL0     H53106   6.682  11.674   9.886  0.3838  1.4861  0.1466
  385MOL0     H53107   6.640  11.696   9.713  0.1984  0.5155 -0.0729
  385MOL0     H53108   6.866  11.602   9.670  0.7445  0.2513 -0.6894
  385MOL0     H53109   6.902  11.592   9.845 -1.2379 -0.1287  1.6232
  385MOL0     H53110   6.108  11.244   9.220  0.7652  0.1857  0.4667
  385MOL0     H53111   5.899  11.149   9.134 -1.1136  0.8465  1.0028
  385MOL0     H53112   5.603  10.797   9.243  2.1298  0.3667  0.7596
  385MOL0     H53113   5.358  10.805   9.208 -0.3821 -2.1432 -1.2131
  385MOL0     H53114   4.016  10.050   8.361 -1.0636 -1.0619  1.0232
  385MOL0     H53115   3.779  10.008   8.440  2.6624  2.3766  1.1763
  385MOL0     H53116   3.352   9.926   8.300  1.6277  1.4455 -0.6345
  385MOL0     H53117   3.115   9.886   8.313 -0.1173 -1.2581 -0.0590
  385MOL0     H53118   2.851  10.214   8.179  3.6728 -0.0610  0.9276
  385MOL0     H53119   2.900  10.066   8.106 -2.7033 -0.7561 -2.6574
  385MOL0     H53120   2.661  10.087   8.296  0.4087  1.1479  0.0294
  385MOL0     H53121   2.697   9.948   8.190 -1.9531 -0.1126  1.3572
  385MOL0     H53122   2.511  10.103   8.116 -1.5799  4.6842 -0.6588
  385MOL0     H53123   2.633  10.217   8.070 -2.3225 -0.5158 -3.5088
  385MOL0     H53124   2.553  10.072   7.886 -1.3752 -0.2988  0.7326
  385MOL0     H53125   2.634   9.941   7.963 -0.0564 -0.4525  0.3223
  385MOL0     H53126   2.977  10.125   7.800  0.9419  4.1755  2.1185
  385MOL0     H53127   3.031  10.296   8.343 -2.6053 -1.1873  0.8758
  385MOL0     H53128   3.182  10.432   8.450 -1.1893 -1.0463 -2.3506
  385MOL0     H53129   3.332  10.356   8.517  1.2142  1.6400 -0.7340
  385MOL0     H53130   3.340  10.433   8.366 -1.6600  1.0538 -0.9674
  386MOL0     O53131   8.176   5.274   8.388  0.4099  0.9219 -0.2060
  386MOL0     C53132   8.059   5.262   8.351  0.2423  0.0092  0.6336
  386MOL0     O53133   7.969   5.357   8.344  0.4785  0.2437  0.4196
  386MOL0     C53134   8.012   5.484   8.382  0.3233  0.4446 -0.4074
  386MOL0     C53135   7.932   5.551   8.476 -1.2997 -0.2978 -0.2337
  386MOL0     C53136   7.946   5.684   8.500 -0.4513  0.6445  0.7419
  386MOL0     C53137   8.046   5.756   8.433  0.6220 -0.1518 -0.2721
  386MOL0     O53138   8.028   5.894   8.443 -0.1209  0.0035 -0.2821
  386MOL0     C53139   8.137   5.975   8.401  0.0095  0.4727 -0.9615
  386MOL0     C53140   8.146   6.115   8.470  0.1556 -0.1843  0.1659
  386MOL0     C53141   8.149   6.102   8.620  0.3935 -0.1178  0.3781
  386MOL0     C53142   8.186   6.247   8.671  0.4640 -0.6498  0.1446
  386MOL0     C53143   8.135   6.266   8.819 -0.0276 -0.0996  0.0576
  386MOL0     C53144   8.141   6.411   8.867 -0.4557  0.0350  0.1275
  386MOL0     C53145   8.278   6.477   8.853 -0.4673 -0.3133  0.6297
  386MOL0     C53146   8.389   6.413   8.937 -0.2894  0.1631  0.1678
  386MOL0     N53147   8.527   6.445   8.891  0.1434 -0.1597 -0.2573
  386MOL0     C53148   8.593   6.391   8.782 -0.1680  0.5446 -0.1878
  386MOL0     C53149   8.709   6.457   8.778 -0.1590 -0.5813  0.4151
  386MOL0     C53150   8.829   6.426   8.679  0.2760 -0.8288 -0.6229
  386MOL0     C53151   8.919   6.547   8.663 -0.1483 -0.4407  0.0223
  386MOL0     C53152   9.001   6.551   8.535 -0.0352 -0.1141  0.1642
  386MOL0     C53153   9.098   6.429   8.512  0.7164 -0.1649  0.6133
  386MOL0     O53154   9.015   6.330   8.450  0.3092 -0.1791 -0.0312
  386MOL0     C53155   9.028   6.190   8.474  1.1937 -1.1440  0.2798
  386MOL0     C53156   9.152   6.139   8.498 -0.6287  0.5325  0.4061
  386MOL0     C53157   9.166   5.996   8.500 -0.9972 -0.5515  1.0875
  386MOL0     C53158   9.308   5.945   8.534 -0.1925  0.7564  0.1518
  386MOL0     C53159   9.054   5.915   8.460  0.4300 -0.4626 -0.4743
  386MOL0     C53160   9.055   5.770   8.442  0.5610  0.1269 -0.2083
  386MOL0     O53161   8.949   5.694   8.491 -0.0647  0.3190  0.4037
  386MOL0     C53162   8.960   5.561   8.485 -0.2973  0.6478 -0.3923
  386MOL0     C53163   8.937   5.480   8.598 -0.5887  0.1490  0.0178
  386MOL0     C53164   8.962   5.340   8.609  0.6003 -0.2915  0.1879
  386MOL0     C53165   9.006   5.272   8.500 -0.1655 -0.1875  0.0236
  386MOL0     O53166   9.018   5.134   8.505 -0.1126 -0.2288  0.0381
  386MOL0     C53167   9.050   5.062   8.630  0.2810  0.0418 -0.4216
  386MOL0     C53168   8.942   4.952   8.640  0.0289  0.6726  0.5337
  386MOL0     C53169   8.966   4.853   8.751  0.3587  0.7645 -0.2824
  386MOL0     C53170   8.844   4.819   8.832  0.3834  0.8311 -0.9670
  386MOL0     C53171   8.882   4.746   8.961 -0.3525 -0.3291 -0.0989
  386MOL0     C53172   8.751   4.687   9.027  0.1558 -0.1920 -0.2297
  386MOL0     C53173   8.642   4.791   9.058 -1.4441  1.1082 -0.1406
  386MOL0     C53174   8.565   4.746   9.183 -0.3965 -0.4157 -1.0865
  386MOL0    Cl53175   8.459   4.610   9.150 -0.2189 -0.1389 -0.5084
  386MOL0     C53176   9.022   5.345   8.375  0.4652  0.2037 -0.1255
  386MOL0     C53177   9.002   5.491   8.375 -0.6390 -0.0105  1.0557
  386MOL0     O53178   9.156   5.722   8.392  0.2777  0.6733 -0.2544
  386MOL0     C53179   8.928   5.979   8.432 -0.5846  0.0025  0.1896
  386MOL0     C53180   8.924   6.113   8.438  0.2787 -0.1660 -0.2966
  386MOL0     N53181   8.716   6.552   8.878  0.5715  0.2741 -0.3133
  386MOL0     N53182   8.606   6.553   8.940  0.1448 -0.0721  0.2994
  386MOL0     C53183   8.140   5.686   8.354 -0.7561 -0.2213 -0.3279
  386MOL0     C53184   8.119   5.554   8.318 -0.0414  0.1218 -0.5977
  386MOL0     C53185   8.013   5.125   8.311  0.2339  0.3176 -0.1263
  386MOL0     C53186   7.868   5.114   8.289 -0.1849 -0.0535 -0.6736
  386MOL0     C53187   7.804   4.991   8.265 -0.1732  0.4388  0.2633
  386MOL0     C53188   7.878   4.879   8.254  0.6607 -0.4415  0.4444
  386MOL0     O53189   7.796   4.770   8.232 -1.1220 -0.0685 -0.7952
  386MOL0     C53190   7.850   4.634   8.226  0.9008  0.1416  0.9564
  386MOL0     C53191   7.863   4.595   8.075  0.6690 -0.1292  0.0047
  386MOL0     C53192   7.989   4.629   8.010  0.0857  0.7048 -0.9828
  386MOL0     C53193   7.999   4.584   7.862  0.2495  0.2914 -0.3992
  386MOL0     C53194   8.086   4.651   7.769  0.8960 -0.0926  0.0517
  386MOL0     C53195   8.165   4.698   7.694  0.4622 -0.0086 -0.3622
  386MOL0     C53196   8.019   4.884   8.266 -0.9975  0.9492 -0.0539
  386MOL0     C53197   8.091   5.003   8.299  0.9035  0.3607 -0.8087
  386MOL0     C53198   8.235   4.995   8.296 -0.0654 -0.0858  0.0322
  386MOL0     H53199   7.854   5.490   8.520 -1.2980 -0.1086  0.0361
  386MOL0     H53200   7.863   5.736   8.547 -2.0873  0.2558 -1.5471
  386MOL0     H53201   8.119   5.991   8.294 -0.3906  1.6715 -0.7282
  386MOL0     H53202   8.234   5.924   8.403 -0.9030 -1.3052  0.1121
  386MOL0     H53203   8.236   6.166   8.435 -0.4322  0.7191 -0.0402
  386MOL0     H53204   8.064   6.175   8.430  0.5570 -0.2115 -0.7252
  386MOL0     H53205   8.046   6.077   8.647  0.3657  0.4687  0.8320
  386MOL0     H53206   8.207   6.016   8.653 -0.3468 -0.4879  0.7330
  386MOL0     H53207   8.293   6.269   8.666 -0.0866  2.3942 -0.2155
  386MOL0     H53208   8.140   6.322   8.605 -0.9040 -1.0667  0.6015
  386MOL0     H53209   8.187   6.194   8.883 -0.6062 -0.6172 -0.0449
  386MOL0     H53210   8.032   6.231   8.829  0.0229  0.0092  0.9924
  386MOL0     H53211   8.070   6.469   8.808  0.8060  1.8416  0.2865
  386MOL0     H53212   8.123   6.418   8.975 -1.4465  0.5926 -0.0558
  386MOL0     H53213   8.282   6.586   8.863  3.8420 -0.1045 -1.0103
  386MOL0     H53214   8.309   6.470   8.748 -2.3296  0.9856 -0.0453
  386MOL0     H53215   8.371   6.443   9.041  2.5116  1.1897  0.4373
  386MOL0     H53216   8.380   6.304   8.939 -1.3979  0.2320 -0.2870
  386MOL0     H53217   8.558   6.320   8.708  2.5399 -0.0911 -0.9907
  386MOL0     H53218   8.786   6.398   8.582 -2.5237  0.4861  0.1244
  386MOL0     H53219   8.897   6.348   8.713 -0.1022 -0.5928  0.7282
  386MOL0     H53220   8.868   6.644   8.665  0.1549 -0.2823  1.2510
  386MOL0     H53221   8.993   6.542   8.744 -0.5225 -0.1898  0.3877
  386MOL0     H53222   8.939   6.565   8.446 -0.0355  2.2462  0.4704
  386MOL0     H53223   9.068   6.637   8.543  2.2017 -1.7696  0.1498
  386MOL0     H53224   9.181   6.473   8.455  1.7082 -0.3380  1.8668
  386MOL0     H53225   9.144   6.398   8.607  0.1177  0.4079  1.1050
  386MOL0     H53226   9.238   6.202   8.518  1.2451 -1.4407 -0.9884
  386MOL0     H53227   9.379   6.029   8.527  0.3954  0.2009 -0.8229
  386MOL0     H53228   9.348   5.864   8.472 -2.6798 -2.5094  2.4871
  386MOL0     H53229   9.325   5.903   8.633  1.8014  2.0984  0.4403
  386MOL0     H53230   8.900   5.528   8.688 -1.3039 -1.0748  0.4079
  386MOL0     H53231   8.945   5.293   8.706 -1.4743  0.5620  0.2884
  386MOL0     H53232   9.146   5.014   8.609  0.7058  0.6651  0.0597
  386MOL0     H53233   9.050   5.122   8.722 -2.0361 -1.4677  0.6722
  386MOL0     H53234   8.837   4.981   8.645 -0.0071  0.7720 -0.5699
  386MOL0     H53235   8.959   4.893   8.549 -0.9391 -0.9524  1.3607
  386MOL0     H53236   9.040   4.894   8.820  0.2276 -0.2529  0.5018
  386MOL0     H53237   9.007   4.762   8.709 -1.0362  1.9524 -4.7327
  386MOL0     H53238   8.794   4.739   8.776 -1.2145  2.3156 -1.7690
  386MOL0     H53239   8.774   4.900   8.856  0.6360  0.1105  2.7573
  386MOL0     H53240   8.956   4.667   8.942  0.7420  0.7226 -0.2922
  386MOL0     H53241   8.934   4.823   9.017  1.8186 -0.6056 -1.6088
  386MOL0     H53242   8.775   4.629   9.117  0.6478 -1.6943 -1.2818
  386MOL0     H53243   8.701   4.618   8.958 -0.4288  1.8211 -1.8958
  386MOL0     H53244   8.585   4.813   8.968  0.8152  3.2389 -1.1645
  386MOL0     H53245   8.692   4.886   9.080  0.3918 -0.0608  1.1066
  386MOL0     H53246   8.511   4.833   9.219  0.2363 -0.8453  1.0610
  386MOL0     H53247   8.633   4.719   9.264 -1.1699 -2.5704 -1.0900
  386MOL0     H53248   9.053   5.291   8.286  0.0335 -3.0249  1.5313
  386MOL0     H53249   9.031   5.545   8.285 -1.6844 -0.3409  0.5007
  386MOL0     H53250   8.839   5.924   8.403 -0.8301  1.8058 -2.8317
  386MOL0     H53251   8.826   6.159   8.426  0.4445  0.2387 -0.1090
  386MOL0     H53252   8.228   5.731   8.310 -1.7217  1.1939 -0.8685
  386MOL0     H53253   8.193   5.508   8.255  1.6244 -0.1928  1.4635
  386MOL0     H53254   7.803   5.201   8.284 -0.9987 -0.6147 -0.0978
  386MOL0     H53255   7.696   4.984   8.256 -0.1952 -0.4845  1.0247
  386MOL0     H53256   7.949   4.626   8.272  1.5835  3.3684  0.3121
  386MOL0     H53257   7.788   4.562   8.280  2.8063 -1.3871  1.2441
  386MOL0     H53258   7.791   4.642   8.007  1.1000 -3.6014 -3.1919
  386MOL0     H53259   7.847   4.487   8.064  2.5006 -0.3829 -0.4614
  386MOL0     H53260   7.999   4.738   8.019 -0.4540  0.5720  2.3417
  386MOL0     H53261   8.073   4.594   8.070 -0.5103 -1.0213 -1.1152
  386MOL0     H53262   7.898   4.597   7.820 -0.0355 -0.4056  0.0505
  386MOL0     H53263   8.019   4.476   7.854 -0.7668  0.0636 -0.0437
  386MOL0     H53264   8.233   4.745   7.625  1.9451  1.1871  1.8185
  386MOL0     H53265   8.079   4.794   8.253 -0.3597  1.5082 -1.0877
  386MOL0     H53266   8.268   5.075   8.230  0.9009  0.6381  1.3507
  386MOL0     H53267   8.275   5.018   8.396 -0.5169  0.7110  0.0337
  386MOL0     H53268   8.272   4.897   8.265  0.2968 -0.6678  2.0988
  387MOL0     O53269   2.952   8.144   4.256 -0.7027 -0.4836 -0.6146
  387MOL0     C53270   2.917   8.233   4.179  0.4687  0.3065 -0.6339
  387MOL0     O53271   2.964   8.365   4.179  0.5515 -0.2185 -0.0293
  387MOL0     C53272   3.058   8.413   4.265 -0.7019  0.4809  0.3308
  387MOL0     C53273   3.049   8.552   4.303 -0.5394 -0.7714  0.6264
  387MOL0     C53274   3.151   8.606   4.382 -0.0774  0.3411  0.2643
  387MOL0     C53275   3.266   8.537   4.420  0.7284  1.1548  0.1742
  387MOL0     O53276   3.358   8.595   4.501  0.5022 -0.4000  0.6825
  387MOL0     C53277   3.379   8.740   4.501 -0.9663  0.5980 -0.4244
  387MOL0     C53278   3.499   8.758   4.601 -0.1302  0.1032  0.2736
  387MOL0     C53279   3.502   8.906   4.646  0.4228  0.1073 -0.5408
  387MOL0     C53280   3.623   8.931   4.736 -0.2312  0.9605  0.3282
  387MOL0     C53281   3.637   9.076   4.754 -0.9485  0.1765 -0.5834
  387MOL0     C53282   3.761   9.088   4.851  0.1759  1.0916  0.3715
  387MOL0     C53283   3.780   9.221   4.919  0.1899 -0.1307  0.1088
  387MOL0     C53284   3.814   9.335   4.822  0.3957  1.1139 -0.3386
  387MOL0     N53285   3.875   9.436   4.905 -0.2508 -0.3155  0.0036
  387MOL0     C53286   3.809   9.523   4.994 -0.1890 -0.0578  0.5690
  387MOL0     C53287   3.904   9.618   5.018 -0.1134  0.3941 -0.1418
  387MOL0     C53288   3.869   9.733   5.110  0.0509  0.0986  0.2938
  387MOL0     C53289   3.997   9.817   5.142 -0.3129 -0.2775 -0.4793
  387MOL0     C53290   3.972   9.889   5.264 -0.4487 -0.5156 -0.1557
  387MOL0     C53291   4.115   9.932   5.326  0.3532 -0.9593  0.1459
  387MOL0     O53292   4.180   9.810   5.377 -0.3875 -0.1066  0.7427
  387MOL0     C53293   4.305   9.805   5.432 -0.4304  0.3572  0.1303
  387MOL0     C53294   4.359   9.682   5.475 -0.0803  0.3788  0.3453
  387MOL0     C53295   4.482   9.670   5.536 -0.5204 -0.5751  0.4600
  387MOL0     C53296   4.518   9.534   5.596  0.6418 -1.3053  0.0323
  387MOL0     C53297   4.564   9.784   5.544 -0.3408  0.1379 -0.1968
  387MOL0     C53298   4.693   9.775   5.605  0.8997 -0.0591 -0.5257
  387MOL0     O53299   4.697   9.764   5.736  0.7273 -0.2706  0.9396
  387MOL0     C53300   4.810   9.738   5.807 -0.7666  0.0041  1.3219
  387MOL0     C53301   4.884   9.616   5.787  0.5929 -0.3520  0.2688
  387MOL0     C53302   5.007   9.593   5.849 -0.2460 -0.8089  0.7518
  387MOL0     C53303   5.070   9.696   5.921  0.1207  0.4698 -1.2424
  387MOL0     O53304   5.193   9.674   5.986 -0.5598 -0.0938  0.7024
  387MOL0     C53305   5.273   9.565   5.944 -0.4850 -0.3630 -0.1068
  387MOL0     C53306   5.400   9.560   6.021 -0.3078  0.1801 -0.0077
  387MOL0     C53307   5.494   9.438   6.001 -0.0050 -0.0412  0.3733
  387MOL0     C53308   5.637   9.467   6.050 -0.2252 -0.0399  0.6841
  387MOL0     C53309   5.732   9.354   6.006  0.1174  0.1041 -0.0754
  387MOL0     C53310   5.856   9.356   6.094 -0.4138  0.5733 -0.1264
  387MOL0     C53311   5.960   9.473   6.064  0.4506  0.1799 -0.0363
  387MOL0     C53312   6.098   9.420   6.046 -0.2154 -1.2001  0.0271
  387MOL0    Cl53313   6.173   9.363   6.210 -0.0849  0.1502  0.1318
  387MOL0     C53314   5.000   9.815   5.951  0.3621 -0.5852  0.2227
  387MOL0     C53315   4.869   9.831   5.895 -0.3997  0.1379  0.0647
  387MOL0     O53316   4.781   9.754   5.529 -0.3562  0.0714  0.0240
  387MOL0     C53317   4.511   9.908   5.500  0.1493  0.5273  0.0571
  387MOL0     C53318   4.384   9.918   5.441  0.1101 -0.6711 -1.3251
  387MOL0     N53319   4.015   9.591   4.939  0.6864 -0.6765 -0.5646
  387MOL0     N53320   3.990   9.490   4.870  0.0313 -0.4909 -0.7084
  387MOL0     C53321   3.273   8.407   4.383 -0.3195  0.0150  0.3574
  387MOL0     C53322   3.175   8.342   4.304  1.1302 -0.6653 -0.8836
  387MOL0     C53323   2.803   8.212   4.080  0.5208 -0.0674 -0.0361
  387MOL0     C53324   2.798   8.302   3.976 -0.0842  0.3470  0.3338
  387MOL0     C53325   2.688   8.299   3.892 -0.5518  0.1985  0.0358
  387MOL0     C53326   2.588   8.203   3.901  0.5511 -0.6110  0.0349
  387MOL0     O53327   2.477   8.220   3.819 -0.3879 -0.1711 -0.2907
  387MOL0     C53328   2.352   8.161   3.836 -0.0997 -0.5926 -0.2601
  387MOL0     C53329   2.262   8.227   3.950 -2.0438 -0.4691 -0.4483
  387MOL0     C53330   2.214   8.374   3.912  0.1633 -0.2037  0.4717
  387MOL0     C53331   2.168   8.440   4.036 -0.1253 -1.1290  0.0362
  387MOL0     C53332   2.087   8.552   3.983  0.1386 -0.5074  0.0093
  387MOL0     C53333   2.028   8.658   3.963 -0.8322  0.2930  0.3551
  387MOL0     C53334   2.603   8.112   4.005 -0.0038  0.0349 -0.5433
  387MOL0     C53335   2.708   8.115   4.098  0.2358  0.3730 -1.2042
  387MOL0     C53336   2.707   8.009   4.205  0.5125  0.5030  0.3127
  387MOL0     H53337   2.966   8.611   4.266  0.5125  0.6592  0.4500
  387MOL0     H53338   3.137   8.706   4.422  1.1050  1.3730 -1.7183
  387MOL0     H53339   3.292   8.801   4.528 -2.6851 -1.8900  0.0381
  387MOL0     H53340   3.422   8.776   4.407  3.4002  0.9630  1.4761
  387MOL0     H53341   3.479   8.688   4.683  1.2189 -0.2957  0.2961
  387MOL0     H53342   3.595   8.728   4.559 -0.5155 -2.1794  0.8601
  387MOL0     H53343   3.518   8.969   4.558 -1.2012 -0.0567 -0.9706
  387MOL0     H53344   3.408   8.928   4.697  1.0062 -0.6332  0.9102
  387MOL0     H53345   3.618   8.868   4.826  0.2836 -0.1317 -0.3880
  387MOL0     H53346   3.713   8.896   4.685 -0.0104 -0.0936  1.4078
  387MOL0     H53347   3.544   9.115   4.797 -0.9720  0.1376 -0.5988
  387MOL0     H53348   3.666   9.140   4.670 -0.6411  2.5078  1.1756
  387MOL0     H53349   3.733   9.021   4.933  0.8675  0.1477 -0.1580
  387MOL0     H53350   3.852   9.042   4.812  1.7782  3.2200  1.3320
  387MOL0     H53351   3.857   9.204   4.994  1.2601 -4.0131 -1.6079
  387MOL0     H53352   3.684   9.244   4.966  0.8121  0.8738  0.9241
  387MOL0     H53353   3.890   9.315   4.745  1.3902 -1.3111  1.1820
  387MOL0     H53354   3.720   9.361   4.773 -0.3894 -0.0349  0.5048
  387MOL0     H53355   3.710   9.512   5.036 -0.9832  2.0456 -0.5479
  387MOL0     H53356   3.823   9.706   5.205  2.6252  0.1197  1.6429
  387MOL0     H53357   3.789   9.791   5.063 -2.2183 -2.8755  0.2391
  387MOL0     H53358   4.080   9.748   5.162  0.9275  1.4487  0.7053
  387MOL0     H53359   4.027   9.877   5.055  0.3301  0.1312  0.0093
  387MOL0     H53360   3.916   9.977   5.233 -2.2581 -2.1653 -1.8678
  387MOL0     H53361   3.916   9.829   5.337  2.5761 -1.0732  1.9001
  387MOL0     H53362   4.172   9.984   5.249  0.5402 -0.6625  0.4811
  387MOL0     H53363   4.109   9.994   5.416  0.1745 -2.8776  1.5017
  387MOL0     H53364   4.289   9.598   5.476  1.2875 -0.8089  0.2275
  387MOL0     H53365   4.569   9.547   5.692 -0.1383 -0.3398  0.3265
  387MOL0     H53366   4.578   9.479   5.523 -0.1268 -1.2609 -0.6388
  387MOL0     H53367   4.425   9.480   5.619 -1.9672  2.8928  0.4661
  387MOL0     H53368   4.850   9.540   5.718  1.0238 -0.8485  0.6010
  387MOL0     H53369   5.058   9.498   5.840 -0.7101 -0.9666 -0.3838
  387MOL0     H53370   5.240   9.461   5.954 -0.3563 -0.4787 -0.7903
  387MOL0     H53371   5.295   9.580   5.838 -1.2232  1.8142  0.0015
  387MOL0     H53372   5.457   9.652   6.003  1.3717 -1.1480 -2.0231
  387MOL0     H53373   5.370   9.549   6.125  1.4026  2.4162  0.8164
  387MOL0     H53374   5.500   9.407   5.896  1.5432  1.6409 -0.0910
  387MOL0     H53375   5.448   9.353   6.052 -1.0634  0.3442  0.0787
  387MOL0     H53376   5.645   9.470   6.159  1.0032  1.8348  0.5979
  387MOL0     H53377   5.675   9.557   6.001  0.0614 -0.3331  0.3617
  387MOL0     H53378   5.683   9.256   6.013  2.0493 -1.0377 -1.6630
  387MOL0     H53379   5.758   9.367   5.900 -0.9935  0.2828 -0.3432
  387MOL0     H53380   5.906   9.260   6.077 -3.1907 -0.9900 -0.0845
  387MOL0     H53381   5.833   9.358   6.201  2.0774 -0.2655  0.4822
  387MOL0     H53382   5.940   9.547   6.142 -0.7266 -1.3562  1.1744
  387MOL0     H53383   5.938   9.525   5.970  1.7002  0.6270 -0.1006
  387MOL0     H53384   6.164   9.494   5.999 -2.0307  0.7169  0.3760
  387MOL0     H53385   6.096   9.330   5.983 -2.8556  0.9253 -3.2990
  387MOL0     H53386   5.036   9.892   6.019 -3.9470 -0.7819  3.1188
  387MOL0     H53387   4.805   9.914   5.925 -2.6693 -1.0617 -1.1577
  387MOL0     H53388   4.577   9.994   5.503  0.5327  0.2228  0.4553
  387MOL0     H53389   4.341  10.013   5.409 -0.3994  0.1848  1.5651
  387MOL0     H53390   3.355   8.342   4.414  0.1087  1.4963  2.5579
  387MOL0     H53391   3.191   8.239   4.273 -0.3684 -0.5553 -2.1479
  387MOL0     H53392   2.879   8.371   3.954 -0.0054 -0.9355 -4.7965
  387MOL0     H53393   2.687   8.361   3.803  0.3937  1.6613  1.0017
  387MOL0     H53394   2.318   8.178   3.733  0.9302  0.6671 -0.4250
  387MOL0     H53395   2.355   8.054   3.855 -2.9808 -0.6680  0.1913
  387MOL0     H53396   2.323   8.238   4.040  0.2889 -1.1801 -1.8345
  387MOL0     H53397   2.180   8.165   3.985 -0.5667 -2.2394  0.0580
  387MOL0     H53398   2.297   8.435   3.876  0.0581 -0.5556 -0.3997
  387MOL0     H53399   2.139   8.357   3.833 -1.7780  2.5394  1.5529
  387MOL0     H53400   2.250   8.478   4.097 -0.1635  0.5752 -0.9135
  387MOL0     H53401   2.105   8.382   4.104 -2.7722  0.6055 -0.7793
  387MOL0     H53402   1.978   8.749   3.936 -0.6285 -0.0651 -1.3464
  387MOL0     H53403   2.522   8.048   4.036 -1.3370  2.5344  1.5696
  387MOL0     H53404   2.784   7.934   4.183 -0.1224 -0.4803  1.3239
  387MOL0     H53405   2.705   8.049   4.307 -1.0695  1.2521  0.0042
  387MOL0     H53406   2.623   7.941   4.194 -0.0632  1.4521 -1.4264
  388MOL0     O53407   3.278   6.159   2.587  0.0076 -0.3600 -0.1889
  388MOL0     C53408   3.204   6.120   2.497 -0.1462 -0.3003 -1.1724
  388MOL0     O53409   3.234   6.047   2.389  0.3101 -0.9445 -0.6585
  388MOL0     C53410   3.368   6.045   2.352 -0.3495  0.0387 -0.6106
  388MOL0     C53411   3.445   6.167   2.357 -0.6031 -0.4574 -0.0747
  388MOL0     C53412   3.583   6.176   2.317  0.5873 -0.4869  0.4645
  388MOL0     C53413   3.648   6.061   2.271 -0.0992  0.5442 -0.7557
  388MOL0     O53414   3.776   6.050   2.219 -0.0905  0.2805 -0.2037
  388MOL0     C53415   3.854   6.167   2.231  0.0449 -0.0555  0.1435
  388MOL0     C53416   3.999   6.136   2.206  0.0160  0.0607  0.3105
  388MOL0     C53417   4.031   6.048   2.092 -0.9612 -0.1781 -0.6070
  388MOL0     C53418   4.021   6.120   1.959  0.1976  0.3404 -0.2090
  388MOL0     C53419   4.158   6.178   1.921 -0.1539 -0.1484 -0.6109
  388MOL0     C53420   4.146   6.250   1.783  0.1276 -0.1456  0.4369
  388MOL0     C53421   4.282   6.289   1.718 -1.2419  0.7612  0.4408
  388MOL0     C53422   4.378   6.170   1.688  0.0454 -0.3908  0.0245
  388MOL0     N53423   4.485   6.175   1.795  0.0869  0.0798 -0.0836
  388MOL0     C53424   4.573   6.269   1.820 -0.6457  0.0281  0.4966
  388MOL0     C53425   4.663   6.215   1.905  0.3696  0.1997 -0.2512
  388MOL0     C53426   4.785   6.305   1.953  0.1299  0.3929  0.1585
  388MOL0     C53427   4.881   6.208   2.029 -0.5374  0.1796  0.7852
  388MOL0     C53428   5.016   6.277   2.055  0.2304 -0.2059 -0.1332
  388MOL0     C53429   5.099   6.212   2.174 -0.3043  0.1130  0.3871
  388MOL0     O53430   5.229   6.266   2.158 -0.1085 -0.5751 -0.5158
  388MOL0     C53431   5.323   6.248   2.255 -0.8327 -0.5317 -0.6363
  388MOL0     C53432   5.449   6.290   2.218 -0.1186 -0.2127  0.6090
  388MOL0     C53433   5.567   6.264   2.292 -0.5205 -0.4236 -0.0309
  388MOL0     C53434   5.702   6.295   2.238 -0.3414 -0.2519  0.1506
  388MOL0     C53435   5.548   6.183   2.416  0.4055  0.0264 -0.7940
  388MOL0     C53436   5.665   6.138   2.507  0.7659  0.5182 -0.4967
  388MOL0     O53437   5.625   6.097   2.631 -0.1832  0.5434 -0.1394
  388MOL0     C53438   5.719   6.026   2.715  0.3390 -0.0304  0.9747
  388MOL0     C53439   5.727   6.055   2.852 -0.6200  0.1949 -0.4031
  388MOL0     C53440   5.822   5.994   2.934  1.3445  0.2344  0.7015
  388MOL0     C53441   5.905   5.905   2.879 -0.5501 -0.0299 -0.3616
  388MOL0     O53442   6.014   5.864   2.959  0.4326  0.7369 -0.3348
  388MOL0     C53443   6.067   5.726   2.968 -0.2948 -0.0371 -0.3432
  388MOL0     C53444   6.190   5.723   3.066 -0.8226 -0.0447  0.0234
  388MOL0     C53445   6.152   5.745   3.210  1.0967 -0.6453 -0.1644
  388MOL0     C53446   6.247   5.687   3.312  0.7008 -0.1498 -0.9148
  388MOL0     C53447   6.254   5.782   3.444 -0.1792 -0.1997  0.3719
  388MOL0     C53448   6.337   5.734   3.567  0.3061 -0.2881  0.5112
  388MOL0     C53449   6.341   5.840   3.672 -0.0994 -0.0480 -0.1581
  388MOL0     C53450   6.360   5.779   3.805 -0.6548  0.8576 -0.2977
  388MOL0    Cl53451   6.520   5.699   3.842  0.1492  0.0635 -0.0203
  388MOL0     C53452   5.895   5.856   2.749 -0.9210  0.4083 -0.9159
  388MOL0     C53453   5.800   5.922   2.670  0.1156  0.3749 -0.4707
  388MOL0     O53454   5.786   6.147   2.467 -0.1437  0.6000 -0.1052
  388MOL0     C53455   5.418   6.147   2.451 -0.0060 -0.1574 -0.5712
  388MOL0     C53456   5.307   6.174   2.371  0.9375 -0.3988 -0.2028
  388MOL0     N53457   4.635   6.087   1.936  0.1689  0.5116  0.4051
  388MOL0     N53458   4.518   6.068   1.869 -0.1845 -0.2760 -0.2051
  388MOL0     C53459   3.573   5.949   2.259 -0.0426  0.3845 -0.4855
  388MOL0     C53460   3.441   5.937   2.309  0.2406 -0.4211  0.5602
  388MOL0     C53461   3.061   6.141   2.508  0.5560  0.2248  0.1766
  388MOL0     C53462   2.972   6.037   2.480  0.2381 -0.3154  0.3119
  388MOL0     C53463   2.835   6.051   2.503  0.8542 -0.1668 -0.1036
  388MOL0     C53464   2.777   6.176   2.545  0.1546  0.0352 -0.5195
  388MOL0     O53465   2.641   6.204   2.556 -0.5587  0.1475 -0.3097
  388MOL0     C53466   2.545   6.095   2.524  0.2598  0.2891 -0.3662
  388MOL0     C53467   2.400   6.133   2.546 -0.2370  0.2466  0.5606
  388MOL0     C53468   2.294   6.020   2.587  0.0893  0.2223  0.0223
  388MOL0     C53469   2.300   5.903   2.485 -0.1698 -0.2836 -0.0914
  388MOL0     C53470   2.261   5.941   2.353 -0.7841  0.3735  0.2478
  388MOL0     C53471   2.222   5.980   2.242  0.2887 -0.0375  0.2923
  388MOL0     C53472   2.866   6.278   2.560  0.6443 -0.0440 -0.0426
  388MOL0     C53473   3.006   6.267   2.547  0.2353  1.0829 -0.3553
  388MOL0     C53474   3.087   6.391   2.589 -0.1694  0.7391  0.1776
  388MOL0     H53475   3.394   6.259   2.382  0.9307  0.3701  0.1351
  388MOL0     H53476   3.633   6.273   2.317 -0.7892  0.2609 -0.6617
  388MOL0     H53477   3.848   6.214   2.330  1.0989 -0.6706  0.5073
  388MOL0     H53478   3.821   6.245   2.162  0.6770  1.0178  1.0131
  388MOL0     H53479   4.055   6.230   2.199 -0.9098  0.5628 -0.7296
  388MOL0     H53480   4.047   6.088   2.292 -0.3126 -1.4048 -0.2943
  388MOL0     H53481   4.124   5.992   2.105 -1.7217 -1.3294  0.1022
  388MOL0     H53482   3.951   5.974   2.087 -0.8692 -0.2834 -0.5196
  388MOL0     H53483   3.982   6.057   1.879  0.8690  2.8750 -2.7036
  388MOL0     H53484   3.945   6.196   1.978 -0.1878 -0.0244 -0.2925
  388MOL0     H53485   4.236   6.101   1.920 -2.6852 -2.9111 -0.3270
  388MOL0     H53486   4.186   6.261   1.988 -1.3169  0.4635 -0.8690
  388MOL0     H53487   4.102   6.184   1.708 -0.1285 -1.6226  1.8319
  388MOL0     H53488   4.072   6.328   1.801  0.6113  0.3049  0.5072
  388MOL0     H53489   4.326   6.366   1.782  0.3307 -0.2659  0.6481
  388MOL0     H53490   4.262   6.336   1.621 -0.0706 -1.2805 -0.8701
  388MOL0     H53491   4.333   6.071   1.695 -0.6908 -0.1047 -0.5820
  388MOL0     H53492   4.415   6.188   1.587 -1.0043  2.3371  0.0392
  388MOL0     H53493   4.565   6.369   1.780 -1.4767 -0.3557 -0.3282
  388MOL0     H53494   4.764   6.390   2.019  0.2671  0.6749 -0.1608
  388MOL0     H53495   4.831   6.348   1.864 -0.2112  1.3327  0.4207
  388MOL0     H53496   4.835   6.181   2.125 -1.3438  1.2582  0.7202
  388MOL0     H53497   4.895   6.114   1.976  3.3391  0.1806  1.5409
  388MOL0     H53498   5.072   6.289   1.962  0.8782  2.7953  0.5452
  388MOL0     H53499   4.997   6.381   2.083 -2.3085 -0.0735 -1.9913
  388MOL0     H53500   5.054   6.243   2.268  1.0450  0.1113  1.0586
  388MOL0     H53501   5.111   6.104   2.163  3.9373  0.5464 -1.2560
  388MOL0     H53502   5.460   6.352   2.129 -0.9762 -1.3753 -0.3375
  388MOL0     H53503   5.759   6.202   2.228  0.5968  0.3660 -0.4528
  388MOL0     H53504   5.764   6.362   2.298 -0.5020  1.8138 -1.8602
  388MOL0     H53505   5.686   6.338   2.139  1.8112  0.5338  0.0787
  388MOL0     H53506   5.672   6.133   2.903  1.0378  0.4174  1.1527
  388MOL0     H53507   5.830   6.006   3.041  1.5907 -0.3297  0.7468
  388MOL0     H53508   5.983   5.662   2.997 -2.1840  2.1945 -0.5883
  388MOL0     H53509   6.098   5.702   2.866 -0.1513 -2.7181  0.2537
  388MOL0     H53510   6.219   5.618   3.066 -3.0151 -0.7798  2.7902
  388MOL0     H53511   6.273   5.786   3.031 -0.7701 -0.8264 -1.2869
  388MOL0     H53512   6.051   5.707   3.229  1.0678 -0.0308  0.9985
  388MOL0     H53513   6.156   5.854   3.222 -0.2724 -0.4386 -1.2747
  388MOL0     H53514   6.349   5.685   3.274  0.9883  0.9890 -0.2609
  388MOL0     H53515   6.203   5.591   3.342  0.7932 -0.4426 -1.7071
  388MOL0     H53516   6.307   5.872   3.413 -0.0140  0.8089  3.2799
  388MOL0     H53517   6.155   5.816   3.477  0.6109  0.3141  2.3611
  388MOL0     H53518   6.437   5.707   3.531  0.0096 -0.1919 -0.4100
  388MOL0     H53519   6.296   5.645   3.615 -0.7274  0.0144  0.2153
  388MOL0     H53520   6.257   5.910   3.684  1.3043  2.0281 -1.7511
  388MOL0     H53521   6.417   5.916   3.649 -1.7991  2.6683  2.3740
  388MOL0     H53522   6.279   5.718   3.845  1.2886 -0.7571  1.4198
  388MOL0     H53523   6.363   5.871   3.864 -0.2534 -1.1995  3.2267
  388MOL0     H53524   5.963   5.781   2.711  0.9567  1.2141  0.6203
  388MOL0     H53525   5.795   5.889   2.567  1.2606  0.0702 -0.4330
  388MOL0     H53526   5.398   6.089   2.540 -1.1192 -0.0484 -0.7279
  388MOL0     H53527   5.207   6.146   2.403  0.8969 -1.5318 -1.2480
  388MOL0     H53528   3.620   5.860   2.218  1.9838 -0.4923  3.2797
  388MOL0     H53529   3.394   5.839   2.304  1.4627 -1.0040 -0.1217
  388MOL0     H53530   3.012   5.946   2.437 -0.7386 -0.2330 -0.8378
  388MOL0     H53531   2.767   5.967   2.489  1.6828 -0.8892  0.0937
  388MOL0     H53532   2.558   6.067   2.420  3.1580  2.8042 -0.8345
  388MOL0     H53533   2.566   6.007   2.586 -0.1851 -1.4602 -2.5694
  388MOL0     H53534   2.363   6.181   2.455 -0.2832 -0.3407  0.2640
  388MOL0     H53535   2.405   6.204   2.628  1.0930  0.1529  0.5894
  388MOL0     H53536   2.324   5.991   2.688  2.6094  1.2380 -0.3325
  388MOL0     H53537   2.192   6.057   2.595 -0.7085 -2.1385  2.1571
  388MOL0     H53538   2.242   5.822   2.530 -0.5522 -0.7229 -1.3310
  388MOL0     H53539   2.402   5.862   2.486 -0.0083 -0.2579  4.3595
  388MOL0     H53540   2.186   6.002   2.144 -0.9881 -2.5400  0.1171
  388MOL0     H53541   2.808   6.367   2.579  1.6771  1.1575 -2.1087
  388MOL0     H53542   3.035   6.484   2.615 -0.5525  0.4490  0.4392
  388MOL0     H53543   3.162   6.358   2.661  0.7584  2.3930  0.0290
  388MOL0     H53544   3.135   6.411   2.492  0.4561 -0.2014  0.2849
  389MOL0     O53545   8.454   3.714   3.834  0.2735  0.4654  0.3142
  389MOL0     C53546   8.457   3.712   3.710  0.9530 -0.2611 -0.5647
  389MOL0     O53547   8.558   3.747   3.636 -0.3249 -0.0889  0.1222
  389MOL0     C53548   8.669   3.795   3.696  0.3652  0.3781  1.2533
  389MOL0     C53549   8.760   3.710   3.759  0.5631  0.0588 -0.8278
  389MOL0     C53550   8.868   3.774   3.826 -0.1907 -0.0984  0.3823
  389MOL0     C53551   8.899   3.912   3.812  0.2562 -0.1408  0.9186
  389MOL0     O53552   9.015   3.980   3.848 -1.1270 -0.1897  0.3805
  389MOL0     C53553   9.120   3.921   3.927  0.7306 -0.4823 -0.8635
  389MOL0     C53554   9.240   4.021   3.929  0.0774 -0.0237  0.0357
  389MOL0     C53555   9.348   3.960   4.002  0.2620  0.1578  0.3142
  389MOL0     C53556   9.453   4.061   4.034  0.4480  0.6704  0.6028
  389MOL0     C53557   9.567   3.986   4.114 -0.7959 -0.3955  0.3870
  389MOL0     C53558   9.648   3.903   4.009  0.2314  0.0024 -0.0915
  389MOL0     C53559   9.765   3.841   4.084  0.3315 -0.0509  0.0625
  389MOL0     C53560   9.713   3.712   4.161 -0.5351 -0.1336 -0.4361
  389MOL0     N53561   9.819   3.629   4.218 -0.1967 -0.4568 -0.5081
  389MOL0     C53562   9.872   3.650   4.344  1.2011 -0.0310  0.4102
  389MOL0     C53563   9.962   3.555   4.369  0.4537 -0.9270 -0.3917
  389MOL0     C53564  10.046   3.528   4.497  0.1023  0.0253 -0.3920
  389MOL0     C53565  10.176   3.606   4.488  0.1408  1.1206 -0.4816
  389MOL0     C53566  10.254   3.574   4.623  1.4510 -0.6293  0.6388
  389MOL0     C53567  10.325   3.443   4.629 -0.5648 -0.4860 -1.1521
  389MOL0     O53568  10.389   3.429   4.759 -0.3623  0.3838 -0.1803
  389MOL0     C53569  10.454   3.313   4.796 -0.2994 -0.4186 -0.1607
  389MOL0     C53570  10.523   3.310   4.915  0.4097  0.3748 -0.0498
  389MOL0     C53571  10.598   3.199   4.955  0.1531  0.2651  0.1399
  389MOL0     C53572  10.676   3.221   5.081  0.0378 -0.2401  0.1077
  389MOL0     C53573  10.595   3.081   4.873 -0.0119 -0.8358  0.2593
  389MOL0     C53574  10.679   2.956   4.892 -0.0137 -1.0825  0.3746
  389MOL0     O53575  10.629   2.843   4.837 -0.0288  0.0958 -0.0821
  389MOL0     C53576  10.681   2.717   4.854 -0.5483  0.3086  0.3415
  389MOL0     C53577  10.689   2.666   4.983 -0.0593  0.2947  0.4042
  389MOL0     C53578  10.716   2.525   4.995  0.3825  0.3747  0.8480
  389MOL0     C53579  10.720   2.438   4.886  0.0553  0.2631  0.0823
  389MOL0     O53580  10.734   2.303   4.902 -0.2245 -0.6747  0.1711
  389MOL0     C53581  10.733   2.204   4.799 -0.0247 -0.2918  0.2604
  389MOL0     C53582  10.594   2.146   4.754  0.1298 -0.3803  0.2243
  389MOL0     C53583  10.618   2.026   4.655  0.1032 -0.1992 -1.1646
  389MOL0     C53584  10.479   1.986   4.601 -0.5570 -0.5822 -0.2055
  389MOL0     C53585  10.486   1.885   4.498 -0.5646  0.2925  0.1500
  389MOL0     C53586  10.375   1.877   4.398  0.3245  0.2522 -0.6378
  389MOL0     C53587  10.248   1.842   4.483  0.0603  0.0607  0.1849
  389MOL0     C53588  10.137   1.779   4.395  0.0245 -0.8077 -0.4753
  389MOL0    Cl53589  10.161   1.608   4.401  0.2451 -0.1984 -0.2775
  389MOL0     C53590  10.704   2.497   4.756  0.1210 -0.4826 -1.0083
  389MOL0     C53591  10.697   2.632   4.744 -0.2595 -0.9171 -0.4747
  389MOL0     O53592  10.779   2.969   4.962  0.1234 -0.1355  0.0797
  389MOL0     C53593  10.519   3.082   4.753 -0.7622  1.2058  0.6951
  389MOL0     C53594  10.463   3.201   4.710  0.3848 -0.0638  0.2508
  389MOL0     N53595   9.949   3.467   4.259  0.0165 -0.2313 -0.0343
  389MOL0     N53596   9.868   3.513   4.171 -0.7044  0.3394 -0.0009
  389MOL0     C53597   8.805   3.988   3.745 -0.8064 -0.3832  0.2116
  389MOL0     C53598   8.689   3.932   3.688 -0.3338 -0.0911  0.3290
  389MOL0     C53599   8.334   3.678   3.637  0.4758 -0.0873 -0.1869
  389MOL0     C53600   8.332   3.727   3.503  0.3260 -0.2911  0.6962
  389MOL0     C53601   8.228   3.716   3.423  0.3674 -0.8676  0.3874
  389MOL0     C53602   8.116   3.636   3.457  0.4649 -0.9479 -0.9610
  389MOL0     O53603   8.007   3.620   3.382 -0.1613  0.2945  0.3704
  389MOL0     C53604   7.982   3.676   3.253 -0.3685 -0.5930 -0.6984
  389MOL0     C53605   7.835   3.646   3.216 -0.6650 -1.0003 -0.8005
  389MOL0     C53606   7.821   3.503   3.166  0.3929  0.2670 -0.4554
  389MOL0     C53607   7.689   3.460   3.111 -0.3369 -0.2203 -0.0888
  389MOL0     C53608   7.587   3.483   3.217 -0.4743  0.1451 -0.2213
  389MOL0     C53609   7.494   3.508   3.292  0.9671  0.8712 -0.1923
  389MOL0     C53610   8.120   3.570   3.580 -0.0911 -0.9294 -1.2224
  389MOL0     C53611   8.225   3.591   3.677  0.7447 -0.4802 -0.4205
  389MOL0     C53612   8.235   3.505   3.803  0.1464  0.3802  0.1939
  389MOL0     H53613   8.722   3.609   3.747 -0.4506  0.3380 -0.0950
  389MOL0     H53614   8.935   3.702   3.873  2.0181  1.5160 -0.0799
  389MOL0     H53615   9.148   3.825   3.881 -2.7802 -0.7230 -2.8251
  389MOL0     H53616   9.095   3.900   4.032 -0.2335 -1.3411 -1.2498
  389MOL0     H53617   9.276   4.047   3.829  0.3049 -2.0935 -0.4638
  389MOL0     H53618   9.196   4.112   3.972 -1.4065  0.4217 -2.2615
  389MOL0     H53619   9.314   3.911   4.093 -1.5359 -0.2332 -0.5225
  389MOL0     H53620   9.392   3.884   3.936 -1.9351 -1.8638  1.0420
  389MOL0     H53621   9.498   4.097   3.941  0.7993  0.3292  0.6386
  389MOL0     H53622   9.413   4.146   4.091 -0.6692  0.7516 -0.2776
  389MOL0     H53623   9.537   3.918   4.194  1.0087 -1.2202  0.4289
  389MOL0     H53624   9.631   4.067   4.151  0.9747 -1.1081 -0.9695
  389MOL0     H53625   9.579   3.828   3.968  0.2527 -1.4707  2.3672
  389MOL0     H53626   9.691   3.973   3.937  2.2653  0.1809  1.2166
  389MOL0     H53627   9.814   3.916   4.146  2.0100 -0.2520 -0.9496
  389MOL0     H53628   9.834   3.812   4.004  2.5865  1.6733  1.2623
  389MOL0     H53629   9.636   3.728   4.236 -0.3113 -3.9610  0.8284
  389MOL0     H53630   9.667   3.652   4.082  0.3863 -0.8642 -0.4452
  389MOL0     H53631   9.839   3.733   4.405  0.3226  0.2560 -0.4188
  389MOL0     H53632  10.069   3.422   4.505  1.4397  0.4177  1.5316
  389MOL0     H53633   9.998   3.555   4.591  0.5831 -1.7358  0.3859
  389MOL0     H53634  10.234   3.567   4.404  1.6453  1.9934  0.1049
  389MOL0     H53635  10.146   3.709   4.465 -1.2781  0.9533  0.4928
  389MOL0     H53636  10.337   3.645   4.627  0.2665  0.9994 -1.3171
  389MOL0     H53637  10.185   3.582   4.707 -1.3852 -0.6945 -1.5406
  389MOL0     H53638  10.241   3.373   4.628 -2.6503  1.8380 -0.6910
  389MOL0     H53639  10.390   3.434   4.541 -1.2786 -1.7139 -1.5799
  389MOL0     H53640  10.507   3.395   4.980 -2.5360 -1.4980  1.9463
  389MOL0     H53641  10.657   3.139   5.150  0.2082 -1.1559 -0.9102
  389MOL0     H53642  10.652   3.312   5.136 -2.1236 -0.6031 -0.1581
  389MOL0     H53643  10.783   3.215   5.061  0.3619  0.0701  1.6617
  389MOL0     H53644  10.675   2.733   5.067 -0.6446  3.1521 -1.8163
  389MOL0     H53645  10.709   2.487   5.097 -0.8706 -2.1462 -0.0900
  389MOL0     H53646  10.784   2.248   4.713  2.4689 -1.8931  0.8274
  389MOL0     H53647  10.796   2.121   4.833 -0.3717 -2.6692 -4.1081
  389MOL0     H53648  10.538   2.117   4.844 -1.6150 -0.0796 -0.7355
  389MOL0     H53649  10.540   2.225   4.702 -0.6557 -0.6440  0.6266
  389MOL0     H53650  10.665   1.940   4.702  1.0970  0.3732 -1.0898
  389MOL0     H53651  10.688   2.059   4.577  2.3832  0.6530  1.0940
  389MOL0     H53652  10.428   2.074   4.561  0.0183 -0.3835 -0.5224
  389MOL0     H53653  10.410   1.949   4.677  0.0065  0.2900  0.7678
  389MOL0     H53654  10.580   1.889   4.443  0.0323 -0.6634  1.0579
  389MOL0     H53655  10.496   1.785   4.541 -0.4584 -1.2509 -3.1451
  389MOL0     H53656  10.401   1.791   4.335  0.2385 -1.0062  0.9802
  389MOL0     H53657  10.371   1.972   4.345 -0.3820  0.0235 -1.0162
  389MOL0     H53658  10.215   1.936   4.528  3.9179  2.3104 -1.2540
  389MOL0     H53659  10.269   1.770   4.562  0.4141  0.5725  0.5638
  389MOL0     H53660  10.124   1.827   4.298 -1.9847 -0.4376 -0.0714
  389MOL0     H53661  10.046   1.810   4.448  2.6504 -0.1014  4.1585
  389MOL0     H53662  10.717   2.434   4.669 -0.0514 -2.7012  0.4733
  389MOL0     H53663  10.663   2.673   4.649 -1.2260  0.2378  0.3430
  389MOL0     H53664  10.518   2.995   4.688  1.3871  2.1921 -0.7972
  389MOL0     H53665  10.432   3.195   4.606  1.6619  1.7884 -0.2931
  389MOL0     H53666   8.824   4.095   3.738 -3.2075  0.0654 -0.5023
  389MOL0     H53667   8.627   3.999   3.631 -0.1956  0.4381  0.7930
  389MOL0     H53668   8.415   3.782   3.459 -0.9564  0.9841 -0.1854
  389MOL0     H53669   8.228   3.750   3.320  0.2511 -3.9189 -0.7492
  389MOL0     H53670   8.001   3.782   3.268 -1.0352 -0.9750  4.7205
  389MOL0     H53671   8.041   3.628   3.173  0.7746 -4.0269  1.9265
  389MOL0     H53672   7.796   3.711   3.137 -3.5018 -2.7925 -1.0277
  389MOL0     H53673   7.767   3.666   3.300 -1.0338 -0.5481 -1.1989
  389MOL0     H53674   7.896   3.496   3.087  0.4414  3.7008 -0.8997
  389MOL0     H53675   7.840   3.442   3.254  1.6014  0.5205 -0.5226
  389MOL0     H53676   7.686   3.355   3.081  0.4980 -0.5244  0.8311
  389MOL0     H53677   7.659   3.516   3.022 -1.4185 -4.0475 -2.3629
  389MOL0     H53678   7.422   3.519   3.370 -0.6944 -0.4755 -1.4520
  389MOL0     H53679   8.049   3.491   3.604 -0.8379  0.0548 -0.0007
  389MOL0     H53680   8.228   3.568   3.893  2.0781  0.7930  0.0832
  389MOL0     H53681   8.157   3.430   3.818 -0.2165  0.0249 -2.8884
  389MOL0     H53682   8.333   3.458   3.810 -0.4393 -0.7952  0.9344
  390MOL0     O53683  11.039   5.451   8.515 -0.4108  0.1085 -0.2930
  390MOL0     C53684  10.995   5.557   8.489 -0.1288 -0.3256  0.9143
  390MOL0     O53685  11.058   5.653   8.407 -0.1197 -0.7317  0.2000
  390MOL0     C53686  11.192   5.643   8.374  0.2125 -0.3232  0.6943
  390MOL0     C53687  11.292   5.565   8.440  0.7238  0.2904 -0.3272
  390MOL0     C53688  11.427   5.570   8.402 -0.4141 -0.8092  0.4832
  390MOL0     C53689  11.468   5.661   8.308  0.7810 -0.2873 -0.1909
  390MOL0     O53690  11.597   5.678   8.255 -0.1116 -0.1375 -0.0550
  390MOL0     C53691  11.705   5.663   8.342 -0.6797 -0.5485  0.5347
  390MOL0     C53692  11.823   5.730   8.275 -1.1554 -0.3437 -0.6971
  390MOL0     C53693  11.807   5.879   8.262 -0.3855 -0.4462  0.4408
  390MOL0     C53694  11.943   5.953   8.227  0.8952  0.3564 -0.8000
  390MOL0     C53695  11.918   6.110   8.208 -0.1683  0.3194  0.7228
  390MOL0     C53696  12.024   6.160   8.106 -0.2228 -0.1345 -0.6852
  390MOL0     C53697  12.005   6.308   8.078 -0.2149 -0.0034  0.2647
  390MOL0     C53698  12.084   6.408   8.164  0.4593 -0.1939 -0.5602
  390MOL0     N53699  12.067   6.414   8.308  0.4155 -0.1388 -0.8568
  390MOL0     C53700  11.950   6.412   8.374  0.2607 -0.1086  0.7270
  390MOL0     C53701  11.978   6.419   8.510  0.7283 -1.4497  0.2283
  390MOL0     C53702  11.876   6.406   8.615  0.3805 -0.0408  0.4274
  390MOL0     C53703  11.900   6.289   8.711  0.4092  0.1496  0.2766
  390MOL0     C53704  11.854   6.159   8.651 -0.5084  0.1096 -0.0587
  390MOL0     C53705  11.851   6.043   8.750 -0.2302 -0.4894 -0.2218
  390MOL0     O53706  11.743   6.060   8.844  0.2438  0.5704  0.2510
  390MOL0     C53707  11.737   5.968   8.937 -0.3600 -0.3130 -0.3790
  390MOL0     C53708  11.633   5.977   9.032 -0.6799  0.3665 -0.1472
  390MOL0     C53709  11.601   5.886   9.133  0.5190 -0.4096  0.7911
  390MOL0     C53710  11.482   5.915   9.228 -0.0805  0.4942 -0.9033
  390MOL0     C53711  11.674   5.768   9.140 -0.2033 -0.4865  0.5454
  390MOL0     C53712  11.642   5.654   9.226 -0.0808 -0.4441 -0.1023
  390MOL0     O53713  11.740   5.566   9.240  0.2255 -0.2266  0.3688
  390MOL0     C53714  11.722   5.458   9.324 -1.0063 -0.5697 -0.4237
  390MOL0     C53715  11.829   5.426   9.420  0.0748  0.1426  0.1511
  390MOL0     C53716  11.822   5.312   9.505  0.0483 -0.0728 -0.7752
  390MOL0     C53717  11.709   5.228   9.513 -0.3222 -0.6237  0.1801
  390MOL0     O53718  11.703   5.128   9.606  0.3732  0.3834  0.1917
  390MOL0     C53719  11.585   5.048   9.613 -0.0025 -0.1597  0.0844
  390MOL0     C53720  11.610   4.931   9.703  0.1529  0.0147  0.2958
  390MOL0     C53721  11.510   4.812   9.686 -0.1271 -0.2264  0.4529
  390MOL0     C53722  11.370   4.862   9.682 -0.4769 -0.2032 -0.6045
  390MOL0     C53723  11.266   4.759   9.718  0.4461  0.2657 -0.0461
  390MOL0     C53724  11.241   4.747   9.865 -0.3533  0.1276  0.2420
  390MOL0     C53725  11.156   4.634   9.903 -0.3031  0.8233 -0.0085
  390MOL0     C53726  11.105   4.647  10.044  0.2460  0.0089 -0.3644
  390MOL0    Cl53727  10.999   4.517  10.101 -0.1477  0.2943  0.1039
  390MOL0     C53728  11.606   5.263   9.414  1.2257  0.2147 -0.0896
  390MOL0     C53729  11.616   5.366   9.317 -0.6722  0.5456  0.8802
  390MOL0     O53730  11.532   5.647   9.285  0.0063  0.1990  0.4174
  390MOL0     C53731  11.785   5.747   9.049  0.7342 -0.2892  0.1392
  390MOL0     C53732  11.819   5.850   8.957 -0.3483 -0.7762 -0.0780
  390MOL0     N53733  12.115   6.430   8.520  0.6583  0.2717 -0.4269
  390MOL0     N53734  12.165   6.414   8.405 -1.1290 -0.1258 -0.3595
  390MOL0     C53735  11.374   5.745   8.256  0.2298  0.8934  0.4510
  390MOL0     C53736  11.238   5.743   8.290 -0.7202  0.6181 -0.6305
  390MOL0     C53737  10.852   5.566   8.527  0.1640 -0.2435 -0.7252
  390MOL0     C53738  10.790   5.460   8.594  0.7421  0.8244 -0.0470
  390MOL0     C53739  10.663   5.471   8.658 -0.2239  0.4207 -1.2721
  390MOL0     C53740  10.585   5.590   8.642  0.3245 -0.3799  0.2525
  390MOL0     O53741  10.451   5.601   8.684  0.3202 -0.0415 -0.5533
  390MOL0     C53742  10.385   5.723   8.735  0.9792  0.0170 -0.1048
  390MOL0     C53743  10.234   5.701   8.760  0.4764  0.2498 -0.8645
  390MOL0     C53744  10.161   5.620   8.650 -0.5909 -0.1546  0.3956
  390MOL0     C53745  10.203   5.653   8.498 -0.0649  0.1046 -0.3516
  390MOL0     C53746  10.153   5.790   8.475 -0.4400 -0.8495 -0.6090
  390MOL0     C53747  10.117   5.905   8.456 -0.2107 -0.5687  0.3265
  390MOL0     C53748  10.645   5.697   8.571  0.4356  0.2929 -0.6626
  390MOL0     C53749  10.775   5.688   8.517 -0.1348 -0.0298  0.6887
  390MOL0     C53750  10.815   5.796   8.428 -0.2052 -0.9042  0.6469
  390MOL0     H53751  11.263   5.507   8.528  0.0811  1.2340  0.0951
  390MOL0     H53752  11.497   5.510   8.461  2.0521 -0.6690 -2.0766
  390MOL0     H53753  11.731   5.560   8.370 -0.1954 -0.1870  1.4839
  390MOL0     H53754  11.685   5.720   8.433 -2.3994 -1.2098  0.5984
  390MOL0     H53755  11.901   5.724   8.352 -1.4971  0.0264 -0.3156
  390MOL0     H53756  11.845   5.684   8.178 -0.3426  0.8854 -1.1182
  390MOL0     H53757  11.726   5.895   8.190  1.4958 -3.6579 -2.7734
  390MOL0     H53758  11.773   5.923   8.356 -2.2715  1.1002 -0.8895
  390MOL0     H53759  12.015   5.943   8.308  0.8312  1.2480 -0.6137
  390MOL0     H53760  11.979   5.919   8.129  1.2651  1.7377 -1.1707
  390MOL0     H53761  11.922   6.172   8.298 -0.1513  3.3810 -1.2291
  390MOL0     H53762  11.816   6.126   8.171 -1.1377 -1.6750  2.3704
  390MOL0     H53763  12.122   6.139   8.150 -1.1866  0.2096  1.7847
  390MOL0     H53764  12.017   6.112   8.008  2.2883  1.4073 -1.6965
  390MOL0     H53765  11.899   6.335   8.081 -0.1738  0.5717 -1.6304
  390MOL0     H53766  12.047   6.326   7.978  0.2743  0.7883  0.6078
  390MOL0     H53767  12.190   6.384   8.157  0.4191 -1.3268  1.9123
  390MOL0     H53768  12.075   6.505   8.113 -0.4064 -0.2193 -0.4751
  390MOL0     H53769  11.853   6.404   8.327  0.4281 -1.9740  0.6158
  390MOL0     H53770  11.775   6.405   8.572  0.5970  1.7387 -0.1923
  390MOL0     H53771  11.877   6.500   8.670 -3.2372  1.3761 -1.5344
  390MOL0     H53772  12.002   6.290   8.750  0.2028  0.7373  0.8033
  390MOL0     H53773  11.836   6.310   8.797 -0.4217  1.4690 -0.6124
  390MOL0     H53774  11.753   6.164   8.609 -0.0083 -3.5127 -2.2024
  390MOL0     H53775  11.926   6.128   8.574 -0.9586 -0.5222 -0.2377
  390MOL0     H53776  11.815   5.957   8.693 -2.8309  1.2447 -1.3655
  390MOL0     H53777  11.947   6.013   8.794 -0.5399 -2.5932 -0.8542
  390MOL0     H53778  11.572   6.063   9.008 -1.9489 -1.1102 -2.6292
  390MOL0     H53779  11.515   5.897   9.331  2.8676 -1.0985 -1.9922
  390MOL0     H53780  11.400   5.848   9.202 -3.1969  3.0569  1.4767
  390MOL0     H53781  11.454   6.021   9.224  3.6583  1.7200  0.3703
  390MOL0     H53782  11.913   5.490   9.445  1.5187 -1.6408  0.0775
  390MOL0     H53783  11.902   5.301   9.578 -0.4900  0.6937 -0.0548
  390MOL0     H53784  11.491   5.096   9.641  0.2985 -1.0672  3.0460
  390MOL0     H53785  11.579   5.007   9.512  2.2146  1.2848 -0.7071
  390MOL0     H53786  11.708   4.887   9.685 -0.0204 -0.6003  0.8027
  390MOL0     H53787  11.605   4.968   9.806 -0.9891  0.4794  0.0881
  390MOL0     H53788  11.518   4.743   9.770 -0.8434  0.7925  1.3892
  390MOL0     H53789  11.538   4.757   9.596  0.6760 -2.5335  2.0022
  390MOL0     H53790  11.345   4.910   9.587  4.3168  2.0964 -1.0054
  390MOL0     H53791  11.364   4.937   9.762 -1.2211  1.1982 -1.9051
  390MOL0     H53792  11.169   4.777   9.672 -2.1904 -2.8566  3.5950
  390MOL0     H53793  11.294   4.661   9.677  2.1067 -0.8404  3.2878
  390MOL0     H53794  11.200   4.842   9.899  1.6436  1.8559 -1.8874
  390MOL0     H53795  11.343   4.728   9.902  0.5171  2.0571 -1.0281
  390MOL0     H53796  11.209   4.541   9.880 -1.9511 -0.1836  0.1137
  390MOL0     H53797  11.064   4.638   9.845 -0.0550  2.8880 -0.3287
  390MOL0     H53798  11.054   4.745  10.046  0.7467  0.2742 -0.4531
  390MOL0     H53799  11.191   4.656  10.111 -0.1585  0.6625  0.0868
  390MOL0     H53800  11.513   5.207   9.410  0.6646  1.1359 -0.3598
  390MOL0     H53801  11.547   5.380   9.235 -1.9222  0.3955  1.8766
  390MOL0     H53802  11.836   5.651   9.057  0.4073 -0.4978 -0.2358
  390MOL0     H53803  11.910   5.834   8.900 -1.2402 -1.6812 -1.2995
  390MOL0     H53804  11.400   5.821   8.184  1.7426 -0.7444 -0.8405
  390MOL0     H53805  11.163   5.807   8.243 -2.4454 -0.8022  0.0777
  390MOL0     H53806  10.825   5.358   8.602  1.9139  1.1408 -0.9151
  390MOL0     H53807  10.625   5.390   8.720  0.3740  0.7854 -0.4095
  390MOL0     H53808  10.422   5.757   8.832 -0.1648 -2.5338  1.3081
  390MOL0     H53809  10.401   5.806   8.665 -0.7656 -1.2182 -2.1051
  390MOL0     H53810  10.172   5.790   8.773 -3.7404 -2.5070 -0.0737
  390MOL0     H53811  10.242   5.649   8.856 -0.9735  2.6999  0.6928
  390MOL0     H53812  10.172   5.512   8.665 -1.8808 -0.0722  2.1451
  390MOL0     H53813  10.052   5.630   8.653 -0.6528  0.3733 -1.5871
  390MOL0     H53814  10.168   5.586   8.419 -1.1386  1.5835 -1.1789
  390MOL0     H53815  10.310   5.652   8.476 -0.1346  0.6182 -0.7533
  390MOL0     H53816  10.088   6.006   8.436 -1.5923 -0.7716  1.1659
  390MOL0     H53817  10.605   5.798   8.564  2.2228  1.0785 -0.1489
  390MOL0     H53818  10.729   5.854   8.393  0.7972 -0.4944 -1.2948
  390MOL0     H53819  10.898   5.854   8.469  0.6816 -2.5566  1.2772
  390MOL0     H53820  10.842   5.750   8.332 -0.0138  1.4433 -0.5071
  391MOL0     O53821   6.903   5.075   1.099 -0.4612 -0.2144 -0.3589
  391MOL0     C53822   7.001   5.094   1.033  0.2408 -0.0677  0.2393
  391MOL0     O53823   7.003   5.109   0.903 -0.3409  0.5266  0.3396
  391MOL0     C53824   6.886   5.099   0.826 -0.9033 -0.2148 -0.2056
  391MOL0     C53825   6.895   5.046   0.700 -0.8139 -0.1554  0.1205
  391MOL0     C53826   6.782   5.034   0.614  0.3846 -0.5846 -0.7793
  391MOL0     C53827   6.657   5.082   0.661 -0.5313 -0.1485  1.4183
  391MOL0     O53828   6.536   5.069   0.590 -0.4330  0.2855 -0.8385
  391MOL0     C53829   6.526   4.980   0.475  0.4632  0.0361 -0.0717
  391MOL0     C53830   6.381   4.986   0.422 -0.5545 -0.1478 -0.0477
  391MOL0     C53831   6.329   5.124   0.389  0.2014 -0.0094  0.6415
  391MOL0     C53832   6.179   5.140   0.391  0.3603  0.1359  0.1728
  391MOL0     C53833   6.115   5.263   0.318 -0.2902 -1.0706 -0.4175
  391MOL0     C53834   6.147   5.398   0.387  0.5052 -0.0404 -0.6539
  391MOL0     C53835   6.273   5.464   0.324 -0.9817  0.0687  0.7620
  391MOL0     C53836   6.240   5.582   0.228 -0.1373 -1.1313 -0.5941
  391MOL0     N53837   6.362   5.648   0.172 -0.4831 -0.5391  0.1933
  391MOL0     C53838   6.380   5.681   0.041  0.5876 -0.2178  0.5868
  391MOL0     C53839   6.494   5.748   0.032  0.2820  1.0741 -0.0978
  391MOL0     C53840   6.564   5.801  -0.090 -0.0913 -0.3372 -0.8360
  391MOL0     C53841   6.646   5.691  -0.158  0.9934 -0.1163 -1.3100
  391MOL0     C53842   6.566   5.584  -0.226  0.6867  0.4825 -0.6719
  391MOL0     C53843   6.626   5.447  -0.231 -0.1746  0.1817  0.1121
  391MOL0     O53844   6.770   5.450  -0.258 -0.3232  0.6687 -0.4001
  391MOL0     C53845   6.837   5.330  -0.278  0.4378 -0.2887 -0.4203
  391MOL0     C53846   6.768   5.208  -0.276 -0.0385 -0.4596  0.4581
  391MOL0     C53847   6.840   5.086  -0.289 -0.3365 -0.2710  0.8373
  391MOL0     C53848   6.771   4.960  -0.333 -0.1184 -0.2671  0.7815
  391MOL0     C53849   6.980   5.088  -0.282 -0.9989  0.2022 -0.4151
  391MOL0     C53850   7.067   4.969  -0.267 -0.2024 -0.5563  0.4857
  391MOL0     O53851   7.194   4.993  -0.307 -0.1778 -0.2647 -0.1366
  391MOL0     C53852   7.296   4.899  -0.299 -0.1117  0.0045  0.4839
  391MOL0     C53853   7.416   4.953  -0.250 -0.1678  0.3198 -0.1285
  391MOL0     C53854   7.519   4.866  -0.219  0.4147  0.3160  0.1645
  391MOL0     C53855   7.506   4.724  -0.231 -0.1275 -0.4572  0.2028
  391MOL0     O53856   7.601   4.637  -0.186 -0.7629 -0.5761  0.5573
  391MOL0     C53857   7.600   4.611  -0.048  0.0629 -0.3232 -0.2256
  391MOL0     C53858   7.702   4.704   0.043 -0.1515 -0.2487  0.4675
  391MOL0     C53859   7.694   4.665   0.188 -0.3816 -0.4779  0.1399
  391MOL0     C53860   7.797   4.736   0.265 -0.1354  0.3165 -0.3129
  391MOL0     C53861   7.765   4.713   0.415 -0.0121 -0.0397  0.0213
  391MOL0     C53862   7.891   4.762   0.492  0.1188 -0.0532  0.1647
  391MOL0     C53863   7.879   4.724   0.641 -0.2232 -0.4011  1.0251
  391MOL0     C53864   8.016   4.733   0.715 -0.4368  0.7801 -0.2097
  391MOL0    Cl53865   7.999   4.739   0.890  0.6174  0.0658  0.1704
  391MOL0     C53866   7.385   4.668  -0.281 -0.5254 -0.0287  0.2250
  391MOL0     C53867   7.282   4.756  -0.319 -0.2594  0.1113 -0.2304
  391MOL0     O53868   7.033   4.872  -0.213 -0.1027  0.0167 -0.3754
  391MOL0     C53869   7.051   5.211  -0.294 -1.1476 -0.3064  0.5109
  391MOL0     C53870   6.978   5.327  -0.297  0.2312  0.2871  0.5298
  391MOL0     N53871   6.545   5.754   0.164  0.0816  0.0333 -0.2801
  391MOL0     N53872   6.468   5.692   0.247  0.4160  1.2793 -0.6244
  391MOL0     C53873   6.648   5.141   0.782  0.5056 -0.4842 -0.1407
  391MOL0     C53874   6.757   5.151   0.862 -0.3699 -0.0733 -0.5963
  391MOL0     C53875   7.137   5.085   1.092  0.1977  0.2638  0.6131
  391MOL0     C53876   7.228   5.188   1.075  0.3407 -0.3505 -0.5772
  391MOL0     C53877   7.340   5.212   1.161  0.4170  0.9300  0.4691
  391MOL0     C53878   7.364   5.119   1.260 -0.8443  0.6671  0.3103
  391MOL0     O53879   7.471   5.136   1.344 -0.2381  0.0254 -0.3152
  391MOL0     C53880   7.592   5.183   1.291 -0.0662 -0.0725  0.7065
  391MOL0     C53881   7.623   5.324   1.337 -0.7011 -0.1441  0.6570
  391MOL0     C53882   7.622   5.341   1.491 -0.4411 -0.5036  0.4517
  391MOL0     C53883   7.609   5.488   1.528 -0.8238 -0.9614 -0.3938
  391MOL0     C53884   7.476   5.537   1.499 -1.2133  0.1610  0.5418
  391MOL0     C53885   7.368   5.584   1.473  0.3548 -0.6253 -0.3568
  391MOL0     C53886   7.272   5.017   1.284  0.5431 -0.1417 -0.3732
  391MOL0     C53887   7.160   4.999   1.203  0.1016  0.3921 -0.6350
  391MOL0     C53888   7.047   4.896   1.247  0.4800 -0.3726  0.0072
  391MOL0     H53889   6.996   5.015   0.673  0.1348  1.9852  0.9901
  391MOL0     H53890   6.801   4.969   0.530  3.0397 -3.0302  1.4872
  391MOL0     H53891   6.525   4.877   0.511 -2.2449  0.4521  1.3478
  391MOL0     H53892   6.600   5.004   0.399 -0.9015 -1.1257 -1.8573
  391MOL0     H53893   6.380   4.925   0.331 -0.0857  0.6686 -0.6213
  391MOL0     H53894   6.311   4.943   0.494 -0.9639  0.1387 -0.2630
  391MOL0     H53895   6.376   5.208   0.441 -0.1052  0.6573 -0.1261
  391MOL0     H53896   6.352   5.134   0.282 -1.1721 -0.6352  0.2680
  391MOL0     H53897   6.140   5.048   0.346  3.3841 -0.0482 -2.3830
  391MOL0     H53898   6.151   5.141   0.497 -2.8805  1.1624 -0.5904
  391MOL0     H53899   6.006   5.256   0.313 -0.7382  3.5732 -0.9284
  391MOL0     H53900   6.139   5.266   0.212 -1.5438  0.6180 -0.6880
  391MOL0     H53901   6.061   5.461   0.361  0.5061  0.5654  0.7052
  391MOL0     H53902   6.156   5.397   0.496 -0.9695 -2.7985 -0.4632
  391MOL0     H53903   6.327   5.401   0.253 -0.3106  3.3373 -1.8921
  391MOL0     H53904   6.341   5.508   0.397  0.1484  0.4343 -0.4778
  391MOL0     H53905   6.177   5.540   0.149  1.7184  0.7427 -3.2768
  391MOL0     H53906   6.179   5.651   0.288  1.3487 -2.8418  3.2165
  391MOL0     H53907   6.316   5.660  -0.044  0.5635  1.7091  0.0918
  391MOL0     H53908   6.630   5.881  -0.054  0.6403 -1.6070  0.7838
  391MOL0     H53909   6.486   5.838  -0.158  3.0481  1.0379 -3.9889
  391MOL0     H53910   6.714   5.731  -0.234 -0.9298  0.5722 -2.7560
  391MOL0     H53911   6.708   5.654  -0.076  0.8973  2.0668 -0.1645
  391MOL0     H53912   6.465   5.567  -0.186  1.8678 -0.1321  2.2470
  391MOL0     H53913   6.557   5.612  -0.332 -1.5435 -1.4873 -1.0915
  391MOL0     H53914   6.600   5.401  -0.136 -0.9797  1.0761  0.3401
  391MOL0     H53915   6.580   5.395  -0.315  0.4084  2.1088 -1.4927
  391MOL0     H53916   6.660   5.207  -0.272 -0.0084  0.0882  1.9086
  391MOL0     H53917   6.671   4.986  -0.371 -1.1309 -1.1969  2.6568
  391MOL0     H53918   6.758   4.888  -0.252 -0.9471 -1.2753 -0.2174
  391MOL0     H53919   6.823   4.907  -0.413 -1.7440  0.2738 -0.7172
  391MOL0     H53920   7.427   5.060  -0.240  1.6105  0.1221  0.2534
  391MOL0     H53921   7.619   4.900  -0.192  0.8085 -0.7478  0.0769
  391MOL0     H53922   7.498   4.639  -0.019  0.3190  1.0860 -0.5792
  391MOL0     H53923   7.625   4.508  -0.022 -0.6328 -0.0442  1.7111
  391MOL0     H53924   7.807   4.701   0.014  0.6943 -1.8773  3.3020
  391MOL0     H53925   7.686   4.813   0.046  0.9212  0.0076 -1.4088
  391MOL0     H53926   7.707   4.556   0.193  1.0876 -0.3318  0.1123
  391MOL0     H53927   7.593   4.678   0.226 -1.5039 -2.9685 -1.6421
  391MOL0     H53928   7.793   4.843   0.244  0.5646 -0.1456 -3.1966
  391MOL0     H53929   7.896   4.696   0.247 -0.5097 -0.7607 -0.0465
  391MOL0     H53930   7.683   4.779   0.445  1.4481  0.9891  1.9456
  391MOL0     H53931   7.733   4.610   0.434 -1.8691  0.8251  2.0008
  391MOL0     H53932   7.916   4.865   0.466  2.0871 -0.8493 -1.3749
  391MOL0     H53933   7.971   4.700   0.451 -1.3069 -2.4046  0.7249
  391MOL0     H53934   7.833   4.625   0.644 -2.5201  0.4172 -1.9355
  391MOL0     H53935   7.802   4.788   0.685  1.0116  1.6626  0.3587
  391MOL0     H53936   8.089   4.805   0.677  1.2088 -0.0796  1.1544
  391MOL0     H53937   8.063   4.639   0.682 -0.0464  1.7254 -2.5902
  391MOL0     H53938   7.369   4.561  -0.282  1.0791 -0.2960  0.4253
  391MOL0     H53939   7.188   4.732  -0.366 -0.1712 -0.8403  0.0724
  391MOL0     H53940   7.158   5.227  -0.299 -1.6058  3.0958 -0.5022
  391MOL0     H53941   7.031   5.422  -0.302  0.2969  0.4864  3.2042
  391MOL0     H53942   6.553   5.168   0.827  1.8705  0.0280  2.6663
  391MOL0     H53943   6.742   5.187   0.963  0.1537 -1.5594  0.0499
  391MOL0     H53944   7.195   5.262   1.003 -0.2958 -0.2906 -0.2311
  391MOL0     H53945   7.401   5.301   1.150 -2.2402  2.6179 -2.3812
  391MOL0     H53946   7.676   5.119   1.319 -1.4652 -0.7567  3.7220
  391MOL0     H53947   7.585   5.191   1.182 -1.1442  1.2579  0.8476
  391MOL0     H53948   7.569   5.399   1.277 -0.4019  0.5371  1.2236
  391MOL0     H53949   7.726   5.342   1.307 -0.8454 -0.9387 -0.3618
  391MOL0     H53950   7.529   5.293   1.522 -1.4992  1.0944 -0.0801
  391MOL0     H53951   7.703   5.289   1.542  0.3684 -1.4240 -1.6989
  391MOL0     H53952   7.683   5.554   1.482  1.4667  0.1919  4.3925
  391MOL0     H53953   7.634   5.490   1.634 -3.2363  1.3259  0.2304
  391MOL0     H53954   7.286   5.625   1.418  0.2204 -1.7859 -1.0450
  391MOL0     H53955   7.292   4.952   1.369 -2.4158  0.4630  0.9046
  391MOL0     H53956   6.996   4.855   1.159  1.0979 -2.0769  0.3906
  391MOL0     H53957   7.086   4.806   1.297 -1.4698 -3.4649 -3.4710
  391MOL0     H53958   6.969   4.941   1.308 -0.3077 -0.0607 -1.2017
  392MOL0     O53959   2.305  10.603   8.416 -0.1275  0.5265  0.8358
  392MOL0     C53960   2.233  10.595   8.514  0.0101  0.2681 -0.6491
  392MOL0     O53961   2.272  10.526   8.624  0.2370  0.2041  0.8792
  392MOL0     C53962   2.383  10.453   8.642 -0.4079 -0.2967  0.5752
  392MOL0     C53963   2.381  10.358   8.744 -0.5289 -0.0845  0.5704
  392MOL0     C53964   2.493  10.275   8.757  0.2507  0.0160 -0.0313
  392MOL0     C53965   2.609  10.286   8.670  1.3752  0.0677  0.0366
  392MOL0     O53966   2.718  10.204   8.699  0.0727  0.0277 -0.7994
  392MOL0     C53967   2.849  10.236   8.647 -0.1540  0.1332 -0.0616
  392MOL0     C53968   2.946  10.227   8.761 -0.9781  0.4581 -0.3483
  392MOL0     C53969   3.082  10.177   8.706 -0.1522 -0.2093  0.1076
  392MOL0     C53970   3.184  10.169   8.824  0.0139 -0.4821  0.2061
  392MOL0     C53971   3.321  10.184   8.781 -0.0886  0.0464 -0.3743
  392MOL0     C53972   3.391  10.057   8.720  1.0163  0.8157  0.1736
  392MOL0     C53973   3.539  10.076   8.678  0.1976 -0.0888 -0.7090
  392MOL0     C53974   3.625  10.088   8.808 -0.6542 -0.0088  0.4901
  392MOL0     N53975   3.767  10.129   8.774 -0.5925  0.3374  0.4469
  392MOL0     C53976   3.881  10.110   8.853 -0.2644 -0.0839 -1.0444
  392MOL0     C53977   3.971  10.196   8.787 -0.3910  0.5086  0.7505
  392MOL0     C53978   4.106  10.212   8.849  0.2602 -0.2416 -0.0413
  392MOL0     C53979   4.104  10.283   8.985  0.8370  0.5653 -0.0550
  392MOL0     C53980   4.235  10.284   9.062  0.7082 -0.3898 -0.0624
  392MOL0     C53981   4.347  10.359   8.991 -0.3004 -0.5663 -0.8091
  392MOL0     O53982   4.303  10.485   8.942  0.2123 -0.0610 -0.0429
  392MOL0     C53983   4.398  10.570   8.893 -0.5971  0.2445  0.9246
  392MOL0     C53984   4.361  10.623   8.767 -0.3681  0.5904  0.3113
  392MOL0     C53985   4.447  10.718   8.704 -0.1480  0.1122  0.0174
  392MOL0     C53986   4.395  10.773   8.576 -0.0885 -0.5254 -0.4155
  392MOL0     C53987   4.569  10.751   8.768 -0.5426  0.2388 -0.4355
  392MOL0     C53988   4.672  10.849   8.713  0.8422  1.0021  0.6897
  392MOL0     O53989   4.785  10.780   8.669  0.3115  0.2442 -0.5395
  392MOL0     C53990   4.886  10.858   8.624 -0.0301  0.6303 -0.6142
  392MOL0     C53991   4.990  10.882   8.704  0.1372  0.0873 -0.3983
  392MOL0     C53992   5.094  10.966   8.672 -0.1943 -0.4202  0.0353
  392MOL0     C53993   5.096  11.031   8.551  0.1089  0.4955  0.3952
  392MOL0     O53994   5.210  11.103   8.505 -0.0715  0.0496 -0.2234
  392MOL0     C53995   5.343  11.078   8.553  0.7738  0.2746  0.8655
  392MOL0     C53996   5.442  11.145   8.460 -0.6441  0.1056 -0.6020
  392MOL0     C53997   5.426  11.094   8.316 -0.7590  0.5964  0.8100
  392MOL0     C53998   5.561  11.113   8.249 -0.2866  0.6048  0.5435
  392MOL0     C53999   5.544  11.097   8.098 -0.2581  0.6674  0.1344
  392MOL0     C54000   5.678  11.130   8.021 -0.6689 -0.6532  0.0160
  392MOL0     C54001   5.684  11.086   7.871 -0.9627 -0.6849  0.0683
  392MOL0     C54002   5.563  11.150   7.794 -0.2416  0.4851 -0.2261
  392MOL0    Cl54003   5.595  11.132   7.625 -0.5412  0.0946 -0.1670
  392MOL0     C54004   4.986  11.020   8.469 -0.3764 -1.1416 -0.2804
  392MOL0     C54005   4.884  10.926   8.500  0.2537 -0.7639  0.1429
  392MOL0     O54006   4.653  10.968   8.704 -0.4635  0.4383  0.6811
  392MOL0     C54007   4.605  10.685   8.883 -0.5079  0.2260  0.3211
  392MOL0     C54008   4.525  10.601   8.952  0.6042 -1.0717 -0.1756
  392MOL0     N54009   3.922  10.232   8.660  0.1904 -0.1397  0.6644
  392MOL0     N54010   3.797  10.199   8.659 -0.8190  0.0803  0.2151
  392MOL0     C54011   2.617  10.377   8.570  1.0544 -0.1290 -0.3668
  392MOL0     C54012   2.497  10.449   8.549 -0.7446 -0.4695  0.3403
  392MOL0     C54013   2.104  10.651   8.513  0.2656 -0.5679  0.3630
  392MOL0     C54014   2.003  10.600   8.608  0.4397  0.3422  1.0351
  392MOL0     C54015   1.874  10.649   8.618  0.4685 -0.2875 -0.4344
  392MOL0     C54016   1.836  10.766   8.541  0.2950  0.7354  0.3090
  392MOL0     O54017   1.710  10.818   8.542 -0.4612  0.0778  0.0930
  392MOL0     C54018   1.618  10.758   8.630  0.7763 -0.4275 -0.3307
  392MOL0     C54019   1.495  10.857   8.627 -0.9327  0.4796  0.1353
  392MOL0     C54020   1.373  10.770   8.682 -0.2958 -0.0392  1.3631
  392MOL0     C54021   1.399  10.721   8.821 -0.0342  0.1913 -0.2410
  392MOL0     C54022   1.278  10.704   8.894  0.8656 -0.2285  0.1644
  392MOL0     C54023   1.184  10.701   8.969  0.0384  0.8600  0.4820
  392MOL0     C54024   1.927  10.821   8.446 -0.6780  0.8310 -0.3251
  392MOL0     C54025   2.060  10.771   8.441 -0.6958 -0.0372  0.2864
  392MOL0     C54026   2.147  10.849   8.331  0.2954 -0.6025 -0.1699
  392MOL0     H54027   2.302  10.357   8.819  0.5059 -0.0454  1.6926
  392MOL0     H54028   2.497  10.208   8.843 -0.7561  1.4359  1.1742
  392MOL0     H54029   2.860  10.329   8.590  0.0613  0.1727  0.0435
  392MOL0     H54030   2.874  10.158   8.574  0.2271  0.7518 -0.6048
  392MOL0     H54031   2.942  10.323   8.814  2.2430 -0.0989  1.1817
  392MOL0     H54032   2.914  10.146   8.826  0.6732  0.9135  1.1123
  392MOL0     H54033   3.087  10.078   8.662  0.0874 -1.6935  3.2072
  392MOL0     H54034   3.112  10.251   8.631 -3.0752  0.5085 -0.5092
  392MOL0     H54035   3.178  10.251   8.896  3.1346 -0.9773  1.1956
  392MOL0     H54036   3.184  10.075   8.881 -0.8750  0.1835  1.3338
  392MOL0     H54037   3.377  10.222   8.867 -1.1298  0.3201  0.1867
  392MOL0     H54038   3.322  10.271   8.714  1.2144  1.8615  1.8355
  392MOL0     H54039   3.384   9.973   8.790 -2.6902 -0.5703 -1.6325
  392MOL0     H54040   3.333  10.025   8.633  1.1784  0.4325  0.2044
  392MOL0     H54041   3.540  10.172   8.624  2.4406 -0.2462 -1.0689
  392MOL0     H54042   3.564   9.997   8.607  3.8944 -1.6702  2.0090
  392MOL0     H54043   3.566  10.157   8.868 -3.4123  0.0090 -2.0046
  392MOL0     H54044   3.623   9.991   8.859 -3.2754  0.0505  0.6469
  392MOL0     H54045   3.898  10.065   8.950 -0.3757  1.5446 -0.2280
  392MOL0     H54046   4.170  10.265   8.778  0.2445  0.1408  0.2266
  392MOL0     H54047   4.140  10.109   8.863 -1.1636 -0.4598  2.3040
  392MOL0     H54048   4.052  10.379   8.977 -0.2986  0.1918  2.1422
  392MOL0     H54049   4.044  10.222   9.053 -0.1184 -2.9546 -3.6654
  392MOL0     H54050   4.217  10.330   9.160 -1.3756 -3.2787  1.0285
  392MOL0     H54051   4.267  10.180   9.072 -0.6755 -0.6717  2.1495
  392MOL0     H54052   4.436  10.368   9.054  0.0335 -1.4500 -1.1412
  392MOL0     H54053   4.383  10.309   8.901  1.4528  0.3754 -0.6873
  392MOL0     H54054   4.264  10.609   8.721 -0.4282 -0.4636  0.7335
  392MOL0     H54055   4.297  10.820   8.590 -0.0013  0.7152 -3.2865
  392MOL0     H54056   4.356  10.700   8.505  0.7773  1.2455 -2.8401
  392MOL0     H54057   4.457  10.844   8.521 -1.2470  0.1481 -0.8857
  392MOL0     H54058   4.983  10.836   8.803 -0.6020  1.2134  0.0847
  392MOL0     H54059   5.176  10.976   8.743  0.5972 -0.1401 -0.8899
  392MOL0     H54060   5.362  11.115   8.654 -1.4545 -1.4164  2.0061
  392MOL0     H54061   5.368  10.972   8.545  0.8197  0.4273 -1.8293
  392MOL0     H54062   5.431  11.254   8.460  1.1830  0.3446  0.9339
  392MOL0     H54063   5.542  11.117   8.494 -0.7639  0.3820 -0.0107
  392MOL0     H54064   5.345  11.142   8.261  0.6980  0.3187 -1.7238
  392MOL0     H54065   5.408  10.986   8.315  1.3073  0.2026 -0.5547
  392MOL0     H54066   5.625  11.035   8.291 -1.1047  0.6947  2.0445
  392MOL0     H54067   5.608  11.209   8.273 -0.2167  0.4791  0.9191
  392MOL0     H54068   5.514  10.993   8.085  1.2074  0.0800  1.2145
  392MOL0     H54069   5.466  11.166   8.063 -1.0960  0.0349  0.7267
  392MOL0     H54070   5.757  11.071   8.068 -2.0214 -0.6265  2.4932
  392MOL0     H54071   5.713  11.232   8.035  0.4337 -1.0543  0.3098
  392MOL0     H54072   5.692  10.977   7.864  0.6148 -0.6872  1.5759
  392MOL0     H54073   5.762  11.135   7.812  0.9516  0.9068  3.6488
  392MOL0     H54074   5.541  11.251   7.831 -2.1731 -0.4388  1.3170
  392MOL0     H54075   5.480  11.081   7.808  0.5591 -0.9051 -1.8651
  392MOL0     H54076   4.982  11.063   8.369 -3.1142 -1.3383 -0.3300
  392MOL0     H54077   4.806  10.909   8.427 -0.3246 -0.6965  0.7414
  392MOL0     H54078   4.700  10.720   8.921 -0.0671 -1.0561  0.4552
  392MOL0     H54079   4.547  10.568   9.053  0.3152 -1.7407 -0.3245
  392MOL0     H54080   2.704  10.401   8.508  1.8955  1.6335  1.3787
  392MOL0     H54081   2.497  10.519   8.467  0.9372  0.9542  1.5033
  392MOL0     H54082   2.040  10.517   8.667  0.2110 -1.9031 -1.8108
  392MOL0     H54083   1.811  10.598   8.690  2.0035  0.6614  1.7022
  392MOL0     H54084   1.594  10.659   8.591  1.7513 -1.7496  2.1727
  392MOL0     H54085   1.651  10.746   8.734 -0.1595  1.6307  0.2500
  392MOL0     H54086   1.488  10.893   8.524  1.3120  1.3489  0.2282
  392MOL0     H54087   1.524  10.947   8.682 -1.5667  1.4391 -1.0349
  392MOL0     H54088   1.292  10.843   8.667  0.3889  0.7779  1.5718
  392MOL0     H54089   1.358  10.684   8.616 -1.8547  1.3948 -0.2877
  392MOL0     H54090   1.449  10.798   8.881  3.0413 -2.7732  1.3291
  392MOL0     H54091   1.447  10.624   8.835  2.8204  1.3794 -1.0722
  392MOL0     H54092   1.102  10.700   9.039 -1.4156  1.1548 -1.1411
  392MOL0     H54093   1.900  10.907   8.386  0.5521  0.5156 -1.3855
  392MOL0     H54094   2.225  10.910   8.378  0.1020 -0.9631  0.6384
  392MOL0     H54095   2.194  10.787   8.254 -2.0443 -0.3093 -1.9429
  392MOL0     H54096   2.086  10.923   8.278 -1.3587  0.6478  3.1607
  393MOL0     O54097   8.959   5.753   2.236  0.2862 -0.0384 -0.1160
  393MOL0     C54098   8.997   5.846   2.309 -0.8436  0.0851  0.3953
  393MOL0     O54099   9.113   5.844   2.379  0.1770 -0.4976 -0.2713
  393MOL0     C54100   9.222   5.773   2.346 -0.5441  0.0267 -0.6006
  393MOL0     C54101   9.316   5.753   2.454 -0.0885  0.0440  0.5529
  393MOL0     C54102   9.432   5.686   2.426 -0.8885 -0.1055  1.0207
  393MOL0     C54103   9.456   5.640   2.298  0.1027 -0.1883 -0.3738
  393MOL0     O54104   9.563   5.559   2.267 -0.4662 -0.2617 -0.2201
  393MOL0     C54105   9.692   5.611   2.310  0.0962  0.6507  0.4256
  393MOL0     C54106   9.782   5.485   2.290 -0.1971  0.0782 -0.1003
  393MOL0     C54107   9.925   5.521   2.281  0.0270 -0.4710  0.0769
  393MOL0     C54108   9.980   5.552   2.426  0.7813  0.2729  1.0034
  393MOL0     C54109  10.130   5.583   2.415  0.3137  0.0693  0.3324
  393MOL0     C54110  10.217   5.456   2.411 -0.2723  0.1913 -0.5898
  393MOL0     C54111  10.368   5.486   2.423  0.0291 -0.2398  0.2352
  393MOL0     C54112  10.419   5.540   2.281  0.7559 -0.3463 -0.1998
  393MOL0     N54113  10.565   5.561   2.280 -0.1384 -0.0456  0.3890
  393MOL0     C54114  10.644   5.453   2.244 -0.8106 -0.2172  0.0171
  393MOL0     C54115  10.767   5.514   2.229  0.8011 -0.2025  0.5471
  393MOL0     C54116  10.899   5.449   2.191  0.6976  0.2561 -0.1057
  393MOL0     C54117  11.017   5.543   2.175 -0.5484  0.1074 -0.2193
  393MOL0     C54118  11.156   5.470   2.156 -0.3250 -0.0199  1.5428
  393MOL0     C54119  11.197   5.383   2.272  0.3228 -0.4412 -0.0288
  393MOL0     O54120  11.205   5.455   2.397 -0.4076 -0.4665 -0.3473
  393MOL0     C54121  11.319   5.518   2.414  0.6313 -0.5920 -0.1739
  393MOL0     C54122  11.330   5.650   2.368  0.2342 -0.3483  0.0607
  393MOL0     C54123  11.442   5.729   2.381  0.1344  0.1546  0.4767
  393MOL0     C54124  11.442   5.865   2.322  0.5578  0.4285 -0.3181
  393MOL0     C54125  11.553   5.677   2.453  0.7357 -0.7143 -0.4633
  393MOL0     C54126  11.676   5.759   2.484 -0.0675  0.2697  0.3815
  393MOL0     O54127  11.753   5.707   2.579 -0.6148 -0.1653 -0.2363
  393MOL0     C54128  11.858   5.766   2.640  0.1683 -1.1192 -0.5009
  393MOL0     C54129  11.870   5.902   2.657 -0.3707  0.1078 -1.6064
  393MOL0     C54130  11.979   5.962   2.719  0.8819  0.0438 -0.1120
  393MOL0     C54131  12.082   5.882   2.770 -0.5126 -0.7899 -0.0869
  393MOL0     O54132  12.199   5.920   2.835  0.1395 -0.3204  0.1262
  393MOL0     C54133  12.178   6.006   2.945  0.0331 -0.2022 -0.0167
  393MOL0     C54134  12.275   5.978   3.065  0.1544  0.0191  1.1294
  393MOL0     C54135  12.289   6.097   3.166  1.3032 -1.0458  0.3232
  393MOL0     C54136  12.395   6.071   3.269 -0.5005 -0.3959  0.3854
  393MOL0     C54137  12.448   6.197   3.342  0.0836  0.0521  0.2499
  393MOL0     C54138  12.529   6.161   3.464 -0.0608  0.2626 -0.4937
  393MOL0     C54139  12.528   6.275   3.565  0.4114 -0.3896 -0.6702
  393MOL0     C54140  12.676   6.312   3.599 -0.1725 -0.5329  0.6077
  393MOL0    Cl54141  12.688   6.430   3.738  0.3751 -0.2115  0.0825
  393MOL0     C54142  12.070   5.741   2.756  0.7577  0.0267 -0.4118
  393MOL0     C54143  11.962   5.683   2.683  0.2484 -0.1658 -0.0754
  393MOL0     O54144  11.708   5.856   2.419 -0.2372  0.3886 -0.4884
  393MOL0     C54145  11.543   5.549   2.510  0.6380  0.1076 -0.0768
  393MOL0     C54146  11.421   5.475   2.487  0.1288  0.2004  0.5485
  393MOL0     N54147  10.753   5.647   2.264  0.8172 -0.4751  0.6012
  393MOL0     N54148  10.629   5.682   2.286 -0.8669  1.0860  0.4600
  393MOL0     C54149   9.368   5.663   2.194 -0.3608 -0.0926 -0.3074
  393MOL0     C54150   9.257   5.743   2.216  0.1649 -0.5470 -0.0319
  393MOL0     C54151   8.921   5.978   2.318 -0.6627 -0.0141 -0.6254
  393MOL0     C54152   8.994   6.088   2.372 -0.6004  0.5638  0.7819
  393MOL0     C54153   8.934   6.210   2.409  0.3527  0.3860  0.4078
  393MOL0     C54154   8.803   6.238   2.389  0.6430  0.1532 -0.0138
  393MOL0     O54155   8.749   6.363   2.432 -0.3062 -0.0664  0.7889
  393MOL0     C54156   8.615   6.369   2.474 -0.0732  0.2838  0.8718
  393MOL0     C54157   8.574   6.518   2.486  0.3065 -0.1681  0.0241
  393MOL0     C54158   8.421   6.535   2.536 -0.2259  0.0501  0.5955
  393MOL0     C54159   8.310   6.511   2.430 -0.2748 -0.4140  0.0535
  393MOL0     C54160   8.267   6.371   2.446  0.3852  0.0653  0.4798
  393MOL0     C54161   8.225   6.256   2.444  0.1241  0.0646 -0.2981
  393MOL0     C54162   8.726   6.130   2.341  0.0995 -0.4229  0.1201
  393MOL0     C54163   8.782   6.004   2.302  0.0307  0.7444 -0.1748
  393MOL0     C54164   8.686   5.896   2.261  0.4101 -0.8134  0.3276
  393MOL0     H54165   9.286   5.797   2.549 -0.5995 -0.1210  0.4722
  393MOL0     H54166   9.505   5.656   2.501  0.2964  0.1669  0.0087
  393MOL0     H54167   9.701   5.639   2.416  0.1820  2.0333  0.0713
  393MOL0     H54168   9.726   5.701   2.258 -0.6028  1.7499  1.7933
  393MOL0     H54169   9.757   5.406   2.362 -2.9897 -0.9609 -2.0552
  393MOL0     H54170   9.750   5.445   2.193  0.4879 -1.2334  0.1919
  393MOL0     H54171   9.976   5.436   2.234 -3.0226 -1.0067 -2.6577
  393MOL0     H54172   9.934   5.611   2.219 -0.5847 -1.5065 -1.6089
  393MOL0     H54173   9.929   5.643   2.460 -0.3075  0.3786 -0.7476
  393MOL0     H54174   9.965   5.465   2.491  3.7745 -0.6797  0.5503
  393MOL0     H54175  10.152   5.644   2.503  2.5854 -0.2372  0.0301
  393MOL0     H54176  10.157   5.650   2.332 -2.3335 -1.3559 -1.8363
  393MOL0     H54177  10.194   5.399   2.501  2.3323  0.5288  0.3795
  393MOL0     H54178  10.196   5.391   2.326 -0.4524 -0.1052 -0.3193
  393MOL0     H54179  10.428   5.399   2.454  2.0554  1.1030  0.3334
  393MOL0     H54180  10.386   5.567   2.495  1.3997  0.0943 -0.4356
  393MOL0     H54181  10.380   5.491   2.191 -2.4141  0.8105  0.4135
  393MOL0     H54182  10.381   5.641   2.265  1.6496  0.0243 -0.0414
  393MOL0     H54183  10.620   5.348   2.228 -5.5010  0.8907 -1.9324
  393MOL0     H54184  10.898   5.393   2.097  1.7327  0.8949 -0.5184
  393MOL0     H54185  10.923   5.381   2.274 -1.2790 -0.8466 -0.3821
  393MOL0     H54186  10.992   5.619   2.101 -1.5963  0.2589  0.2777
  393MOL0     H54187  11.036   5.597   2.268  1.3496  0.4222 -0.7440
  393MOL0     H54188  11.164   5.421   2.059 -0.1105  2.9303 -0.0458
  393MOL0     H54189  11.235   5.544   2.141  0.0748 -1.1957 -3.9582
  393MOL0     H54190  11.127   5.300   2.284 -0.2967 -0.1219 -1.2965
  393MOL0     H54191  11.301   5.357   2.252  0.3843 -1.1853  1.1562
  393MOL0     H54192  11.254   5.681   2.296  1.0655 -3.7555 -2.5581
  393MOL0     H54193  11.481   5.944   2.386  0.8621  1.5077 -1.7634
  393MOL0     H54194  11.339   5.897   2.302  0.0797 -1.0921 -0.3595
  393MOL0     H54195  11.486   5.867   2.222 -1.2500 -0.3437 -1.1712
  393MOL0     H54196  11.788   5.968   2.630 -1.6644 -1.0149 -0.5667
  393MOL0     H54197  11.983   6.070   2.718  2.0337  0.0313 -2.0648
  393MOL0     H54198  12.183   6.112   2.918  2.8323 -0.1681  0.3992
  393MOL0     H54199  12.079   5.991   2.990 -0.1409  3.9800  1.4329
  393MOL0     H54200  12.231   5.895   3.120 -3.1926  1.3395  0.6314
  393MOL0     H54201  12.374   5.954   3.024 -0.5847  0.5941 -1.1296
  393MOL0     H54202  12.193   6.108   3.217  1.7239  0.1390  0.8905
  393MOL0     H54203  12.314   6.193   3.118 -1.7025  0.5553  1.6838
  393MOL0     H54204  12.479   6.024   3.217  2.3818  2.5416  2.0389
  393MOL0     H54205  12.345   6.004   3.340 -1.3706 -1.8357 -1.4917
  393MOL0     H54206  12.514   6.248   3.272 -2.0974 -1.8631 -3.5009
  393MOL0     H54207  12.357   6.251   3.368  0.5073  1.6527 -1.4302
  393MOL0     H54208  12.631   6.129   3.443  0.1835  1.2864 -0.9515
  393MOL0     H54209  12.471   6.078   3.507 -0.2213  1.0585  0.8731
  393MOL0     H54210  12.484   6.245   3.660  2.4303 -1.3768  0.0216
  393MOL0     H54211  12.486   6.367   3.525  0.1115 -0.4184 -0.4238
  393MOL0     H54212  12.722   6.354   3.509  0.0741 -0.5419  0.7314
  393MOL0     H54213  12.734   6.225   3.630 -1.6028 -1.4289  0.8676
  393MOL0     H54214  12.154   5.679   2.786 -0.6504 -0.3593  3.2135
  393MOL0     H54215  11.959   5.574   2.680  2.0616 -0.4440  3.0173
  393MOL0     H54216  11.613   5.503   2.579 -1.4521 -0.2468  1.9484
  393MOL0     H54217  11.416   5.377   2.534  0.7185  0.8285  1.9653
  393MOL0     H54218   9.386   5.624   2.094  1.8110  1.0386 -0.4168
  393MOL0     H54219   9.197   5.785   2.136  2.4376 -0.0380 -1.6025
  393MOL0     H54220   9.102   6.076   2.377 -0.7870 -1.5865  0.5559
  393MOL0     H54221   8.987   6.283   2.470  1.3134 -1.0535  1.3452
  393MOL0     H54222   8.544   6.314   2.412 -0.2668  2.3385 -0.8474
  393MOL0     H54223   8.605   6.343   2.580  0.9320  4.3621  2.1566
  393MOL0     H54224   8.585   6.564   2.387  1.6891 -0.0998  0.1925
  393MOL0     H54225   8.637   6.576   2.553 -1.6585  4.3212 -1.6008
  393MOL0     H54226   8.414   6.484   2.632  1.7360 -1.3835  0.0362
  393MOL0     H54227   8.410   6.640   2.566 -2.6633 -0.1823  0.7274
  393MOL0     H54228   8.352   6.520   2.329  0.5592  0.4343  0.4595
  393MOL0     H54229   8.222   6.575   2.437 -0.4379 -0.0497 -3.4497
  393MOL0     H54230   8.183   6.157   2.453 -1.1214  0.7432  2.4939
  393MOL0     H54231   8.621   6.142   2.319  0.2996  0.4370 -0.4223
  393MOL0     H54232   8.583   5.922   2.288  0.4813  0.9057 -0.8640
  393MOL0     H54233   8.703   5.879   2.154 -0.7475  0.9280 -0.1878
  393MOL0     H54234   8.705   5.802   2.313  0.5586  0.6831  3.1658
  394MOL0     O54235   8.743   0.572   7.020  0.0375 -0.1015 -0.1341
  394MOL0     C54236   8.824   0.659   7.002  0.4958  0.0288  0.0684
  394MOL0     O54237   8.954   0.638   7.010 -0.3082 -0.4948 -0.0663
  394MOL0     C54238   9.010   0.516   7.033  0.1468  0.2900 -0.4618
  394MOL0     C54239   9.143   0.512   7.080 -0.5681 -0.1407 -0.5013
  394MOL0     C54240   9.218   0.395   7.091 -0.6030 -0.6259  0.1696
  394MOL0     C54241   9.170   0.274   7.039  1.0192 -0.2865  0.6138
  394MOL0     O54242   9.229   0.151   7.041 -0.4142  0.5543  0.1379
  394MOL0     C54243   9.371   0.146   7.061  0.5081 -0.5716 -0.0264
  394MOL0     C54244   9.407   0.016   6.990  0.1030  0.1417  0.2564
  394MOL0     C54245   9.561   0.014   6.957 -0.4880  0.4601  0.4671
  394MOL0     C54246   9.630  -0.014   7.093  0.6039 -0.1530  0.3211
  394MOL0     C54247   9.781  -0.039   7.079  0.6064  0.1722  0.2276
  394MOL0     C54248   9.848  -0.059   7.213  0.5014  0.5167 -0.1420
  394MOL0     C54249   9.992  -0.121   7.209 -0.0529  0.2670 -0.3099
  394MOL0     C54250  10.080  -0.017   7.153 -0.9503 -0.1526 -0.4581
  394MOL0     N54251  10.218  -0.076   7.139  1.2101  0.8477  0.2370
  394MOL0     C54252  10.290  -0.059   7.029 -0.8417 -0.7117 -0.2205
  394MOL0     C54253  10.398  -0.137   7.042 -0.7481 -0.4549  0.1801
  394MOL0     C54254  10.513  -0.145   6.944  0.0983 -0.4645 -0.1720
  394MOL0     C54255  10.598  -0.280   6.953  0.7632 -0.4146 -0.0009
  394MOL0     C54256  10.516  -0.386   6.885  0.1734  0.7420 -0.2572
  394MOL0     C54257  10.593  -0.518   6.865 -0.8721  0.3494  0.0225
  394MOL0     O54258  10.685  -0.508   6.760  0.1275  0.1050 -0.0500
  394MOL0     C54259  10.796  -0.587   6.742  0.1725  0.1800  0.0132
  394MOL0     C54260  10.835  -0.692   6.823 -0.7295  0.5357 -0.1678
  394MOL0     C54261  10.953  -0.759   6.801 -0.3521 -0.1359  0.2196
  394MOL0     C54262  10.990  -0.858   6.908  0.2214  0.4619 -0.2056
  394MOL0     C54263  11.041  -0.720   6.696  0.0948  0.4354  0.9024
  394MOL0     C54264  11.172  -0.786   6.660 -0.2965  0.4764 -0.4319
  394MOL0     O54265  11.228  -0.772   6.531  0.2301  0.3478 -0.7470
  394MOL0     C54266  11.363  -0.782   6.508 -0.7711  0.3554  0.0697
  394MOL0     C54267  11.396  -0.795   6.373  0.1875 -0.1158  0.3820
  394MOL0     C54268  11.529  -0.813   6.339  0.2845 -0.2380  0.5810
  394MOL0     C54269  11.632  -0.819   6.437  0.5835 -0.7984 -0.6866
  394MOL0     O54270  11.762  -0.825   6.396  0.1941 -0.3167 -0.6524
  394MOL0     C54271  11.840  -0.930   6.449 -0.3015 -0.5860 -0.3275
  394MOL0     C54272  11.959  -0.953   6.363 -0.5095  0.3662  0.1780
  394MOL0     C54273  12.069  -0.857   6.421  0.1002  0.4291 -0.6609
  394MOL0     C54274  12.183  -0.848   6.318  0.8082 -0.7929  0.5494
  394MOL0     C54275  12.302  -0.752   6.348 -0.3809  0.0925  0.1911
  394MOL0     C54276  12.398  -0.740   6.225 -0.7295  0.4288 -0.2249
  394MOL0     C54277  12.535  -0.665   6.247 -0.6123 -0.6505  0.3252
  394MOL0     C54278  12.515  -0.540   6.326 -0.1315 -0.8947  0.4775
  394MOL0    Cl54279  12.659  -0.432   6.310  0.0041  0.7255  0.3679
  394MOL0     C54280  11.592  -0.801   6.572 -0.3650  0.4064  0.0112
  394MOL0     C54281  11.460  -0.782   6.602 -0.0261  0.5643 -0.4520
  394MOL0     O54282  11.231  -0.832   6.761  0.4899  0.1236  0.1080
  394MOL0     C54283  10.985  -0.626   6.605 -0.0634  0.8373  0.3383
  394MOL0     C54284  10.867  -0.556   6.623 -0.4205 -0.4416  0.3516
  394MOL0     N54285  10.394  -0.186   7.167 -0.2749  0.1995  0.3501
  394MOL0     N54286  10.281  -0.156   7.224 -0.0748 -0.2575  0.9483
  394MOL0     C54287   9.046   0.283   6.975 -0.6776 -0.5499  0.0001
  394MOL0     C54288   8.971   0.400   6.973  0.0167 -0.7079  0.4615
  394MOL0     C54289   8.767   0.796   6.985  0.3982 -0.2561 -0.5719
  394MOL0     C54290   8.839   0.904   7.036  0.5408  0.1571  0.1367
  394MOL0     C54291   8.775   1.030   7.035  1.0107  0.4726 -0.7827
  394MOL0     C54292   8.644   1.048   6.993  0.2686 -0.4342 -0.3111
  394MOL0     O54293   8.597   1.175   6.997  0.1396 -0.6698 -0.7957
  394MOL0     C54294   8.457   1.213   7.001  0.2722 -0.1252  0.2983
  394MOL0     C54295   8.455   1.362   7.045 -0.0453 -0.0791 -0.5049
  394MOL0     C54296   8.517   1.373   7.188  0.0912  0.2002 -0.3693
  394MOL0     C54297   8.442   1.297   7.298  0.4907 -0.4727  0.8356
  394MOL0     C54298   8.507   1.345   7.420  0.5428  0.5781 -0.3625
  394MOL0     C54299   8.556   1.369   7.525  0.0609 -0.4680 -0.2812
  394MOL0     C54300   8.581   0.938   6.930  0.0687 -0.1247  0.1754
  394MOL0     C54301   8.638   0.813   6.928 -0.0268 -0.0747 -0.1102
  394MOL0     C54302   8.550   0.714   6.856  0.4795 -0.0364 -0.0156
  394MOL0     H54303   9.181   0.606   7.118  0.6089 -1.0220  0.5663
  394MOL0     H54304   9.311   0.395   7.147 -1.1616 -1.0270  1.1221
  394MOL0     H54305   9.392   0.139   7.168  1.9729 -1.3309 -0.3376
  394MOL0     H54306   9.418   0.236   7.018 -0.3572 -0.1831 -0.1789
  394MOL0     H54307   9.375  -0.075   7.041 -2.9854  2.1134  2.1681
  394MOL0     H54308   9.356   0.017   6.893  0.8442  1.2995 -0.1322
  394MOL0     H54309   9.580  -0.058   6.877 -3.5027  0.3563 -0.2564
  394MOL0     H54310   9.590   0.111   6.916 -2.8737  1.5584  1.1876
  394MOL0     H54311   9.622   0.070   7.163  1.4477 -1.0494  1.5078
  394MOL0     H54312   9.576  -0.098   7.137 -0.9655 -1.2325 -3.2687
  394MOL0     H54313   9.827   0.048   7.031 -1.4483  1.2404  0.0766
  394MOL0     H54314   9.786  -0.122   7.008  1.4155 -1.2486  1.8937
  394MOL0     H54315   9.851   0.041   7.257 -0.5680  0.5897 -0.2157
  394MOL0     H54316   9.788  -0.125   7.277 -1.6499  2.6420  0.1736
  394MOL0     H54317   9.984  -0.209   7.144 -2.0613  1.1364 -1.3264
  394MOL0     H54318  10.018  -0.147   7.312  0.7743  2.1301 -0.0016
  394MOL0     H54319  10.038   0.008   7.056 -1.3808 -0.0960 -0.2580
  394MOL0     H54320  10.095   0.069   7.219  2.7836 -1.4757  0.7076
  394MOL0     H54321  10.263   0.005   6.946 -0.5392  0.7270  0.7466
  394MOL0     H54322  10.580  -0.060   6.957 -1.1917  0.6817 -0.8004
  394MOL0     H54323  10.476  -0.140   6.841  1.8241 -0.4952 -0.8173
  394MOL0     H54324  10.688  -0.268   6.892  0.9031  0.5073  0.3599
  394MOL0     H54325  10.632  -0.308   7.053  0.4264  1.9333  0.8304
  394MOL0     H54326  10.428  -0.407   6.947  0.0676 -0.3652 -0.7504
  394MOL0     H54327  10.478  -0.356   6.787 -1.0013  0.2210  0.0179
  394MOL0     H54328  10.643  -0.552   6.956 -4.7295  0.0694  2.2527
  394MOL0     H54329  10.524  -0.600   6.843 -3.9007  2.9578 -1.0966
  394MOL0     H54330  10.798  -0.713   6.922  0.4847 -0.7074  0.0481
  394MOL0     H54331  11.062  -0.812   6.975 -0.8508  0.8511  0.6989
  394MOL0     H54332  11.035  -0.952   6.871  1.1881  1.2153 -1.0166
  394MOL0     H54333  10.905  -0.882   6.972 -0.0913 -3.7473 -1.8509
  394MOL0     H54334  11.317  -0.786   6.299 -0.8782  0.2637  1.5157
  394MOL0     H54335  11.569  -0.836   6.241 -0.4237  1.8072 -0.2519
  394MOL0     H54336  11.878  -0.902   6.547 -1.4882  0.1158 -0.0373
  394MOL0     H54337  11.774  -1.016   6.461 -0.6552 -0.3808 -0.7575
  394MOL0     H54338  11.984  -1.059   6.365 -3.2151 -0.3356  0.2575
  394MOL0     H54339  11.938  -0.919   6.261  1.7193 -1.1525 -0.8944
  394MOL0     H54340  12.096  -0.900   6.518 -1.4645  2.5787  0.8206
  394MOL0     H54341  12.030  -0.760   6.451 -1.7240  0.0454 -1.6734
  394MOL0     H54342  12.132  -0.808   6.230  2.0278  0.1346  0.2312
  394MOL0     H54343  12.220  -0.949   6.299 -0.6076 -1.0483 -1.0838
  394MOL0     H54344  12.270  -0.655   6.385  0.8589  0.3404  0.6667
  394MOL0     H54345  12.355  -0.797   6.432 -4.6086 -2.3385  1.8641
  394MOL0     H54346  12.346  -0.697   6.139 -1.4095  0.2377  0.0862
  394MOL0     H54347  12.430  -0.842   6.201  2.6401  0.6968  2.3598
  394MOL0     H54348  12.575  -0.642   6.148 -2.1493  0.0137 -0.1691
  394MOL0     H54349  12.605  -0.725   6.306  0.6453 -0.2472 -0.6906
  394MOL0     H54350  12.505  -0.562   6.433 -0.9823  0.4162  0.6940
  394MOL0     H54351  12.431  -0.481   6.288  1.6092  0.4400 -1.4576
  394MOL0     H54352  11.669  -0.783   6.647 -0.0930 -2.9864  0.6908
  394MOL0     H54353  11.434  -0.761   6.705  1.7644  1.0582 -0.0625
  394MOL0     H54354  11.045  -0.609   6.516  1.3169  1.4893  1.3436
  394MOL0     H54355  10.836  -0.477   6.556  0.3474 -0.9028 -0.5812
  394MOL0     H54356   9.013   0.190   6.928  0.4612 -0.3003 -1.3759
  394MOL0     H54357   8.870   0.387   6.935 -0.1338  3.1758 -0.8395
  394MOL0     H54358   8.937   0.892   7.083  0.0011  1.2440  1.6381
  394MOL0     H54359   8.833   1.114   7.073  1.9805 -0.6375  0.2658
  394MOL0     H54360   8.416   1.203   6.901  0.9717 -0.9433  0.0900
  394MOL0     H54361   8.401   1.153   7.073 -1.4877  1.4534  0.3219
  394MOL0     H54362   8.357   1.410   7.045  0.1224  0.2878 -1.6916
  394MOL0     H54363   8.520   1.422   6.980  2.6479  0.4685  2.4259
  394MOL0     H54364   8.621   1.339   7.192  1.1790  3.2952 -0.1519
  394MOL0     H54365   8.516   1.480   7.209  1.0642 -0.2961  2.5885
  394MOL0     H54366   8.454   1.189   7.288  0.2654 -0.4505  0.2832
  394MOL0     H54367   8.335   1.319   7.290  0.4589 -1.2399 -3.3432
  394MOL0     H54368   8.596   1.384   7.623  2.5570 -2.1940 -0.9520
  394MOL0     H54369   8.480   0.953   6.894 -0.9080 -0.5152  2.5416
  394MOL0     H54370   8.528   0.747   6.755  1.3236  0.0732 -0.1704
  394MOL0     H54371   8.603   0.619   6.842  1.3002 -0.1477  2.9868
  394MOL0     H54372   8.463   0.707   6.921  0.4261  1.0751  0.0415
  395MOL0     O54373  10.246   3.300  10.127  0.4785  0.6040  0.0157
  395MOL0     C54374  10.212   3.418  10.127  0.5119  0.1443 -0.3005
  395MOL0     O54375  10.254   3.503  10.228 -0.1411 -0.0266  0.7588
  395MOL0     C54376  10.322   3.448  10.330  0.3029 -0.1563 -0.2665
  395MOL0     C54377  10.260   3.374  10.428  0.2004  0.5143  0.0169
  395MOL0     C54378  10.336   3.329  10.538  0.5286  0.6092 -0.0015
  395MOL0     C54379  10.466   3.362  10.555 -0.8491  0.4303  0.3000
  395MOL0     O54380  10.528   3.330  10.678  0.2181  0.7342 -0.0313
  395MOL0     C54381  10.648   3.394  10.708 -0.3264 -0.1942  0.0977
  395MOL0     C54382  10.685   3.376  10.848 -0.3295  0.7564 -0.2289
  395MOL0     C54383  10.693   3.222  10.884  0.3754 -1.0380  0.9754
  395MOL0     C54384  10.694   3.188  11.030 -0.6697 -0.4895 -0.9465
  395MOL0     C54385  10.720   3.044  11.054 -0.5161 -0.2024 -1.2633
  395MOL0     C54386  10.742   3.030  11.206  0.3515 -0.0623 -0.4511
  395MOL0     C54387  10.741   2.881  11.241  0.2771 -0.7103 -0.5426
  395MOL0     C54388  10.628   2.864  11.346 -0.2119 -0.6631 -0.1761
  395MOL0     N54389  10.618   2.724  11.372 -0.0696  0.0169 -0.1308
  395MOL0     C54390  10.685   2.662  11.472 -0.1593  0.5292 -0.2510
  395MOL0     C54391  10.673   2.523  11.455 -0.1294 -0.6490  0.3081
  395MOL0     C54392  10.730   2.418  11.538 -0.6435 -0.1651 -0.0569
  395MOL0     C54393  10.818   2.327  11.442  0.3807 -0.1025 -0.1916
  395MOL0     C54394  10.878   2.211  11.516  0.6836 -0.3845  0.5622
  395MOL0     C54395  10.964   2.111  11.430 -0.5361 -0.2354  0.0547
  395MOL0     O54396  11.089   2.180  11.395  0.1247  0.0418 -0.5733
  395MOL0     C54397  11.177   2.127  11.306  0.6439 -0.0712  0.3357
  395MOL0     C54398  11.164   1.994  11.256 -0.6876  0.9094  0.1714
  395MOL0     C54399  11.261   1.949  11.172 -0.1056 -0.3198 -0.1220
  395MOL0     C54400  11.237   1.819  11.094  0.3112 -0.0029 -0.3602
  395MOL0     C54401  11.380   2.023  11.138  0.4525  0.0163 -0.1803
  395MOL0     C54402  11.490   1.970  11.061  0.1000  0.1436  0.8660
  395MOL0     O54403  11.543   1.840  11.071  1.1512 -0.2433 -0.5908
  395MOL0     C54404  11.657   1.796  11.001 -0.0640 -0.2958  0.3200
  395MOL0     C54405  11.657   1.666  10.941 -0.8252  0.1082 -0.2582
  395MOL0     C54406  11.776   1.613  10.879 -0.3636 -0.0172 -0.0698
  395MOL0     C54407  11.896   1.684  10.898  0.3520  0.0586  0.0677
  395MOL0     O54408  12.008   1.641  10.838 -0.0919 -0.9293  0.1349
  395MOL0     C54409  12.128   1.672  10.914  0.7432  0.4800 -0.6752
  395MOL0     C54410  12.250   1.572  10.906 -0.7264 -0.7663 -1.1231
  395MOL0     C54411  12.358   1.595  11.016 -0.3351  0.0745  0.3667
  395MOL0     C54412  12.440   1.468  11.051 -0.7968  0.1105 -0.2856
  395MOL0     C54413  12.586   1.460  10.994  0.3067 -0.1520 -0.5673
  395MOL0     C54414  12.583   1.442  10.849  0.5743 -0.0871 -0.3130
  395MOL0     C54415  12.713   1.408  10.781 -0.0795  0.5092 -0.8644
  395MOL0     C54416  12.804   1.528  10.797 -0.3040 -0.6254  1.0868
  395MOL0    Cl54417  12.956   1.512  10.715  0.3782 -0.0085  0.2292
  395MOL0     C54418  11.888   1.811  10.966 -1.1617 -0.5853 -0.5736
  395MOL0     C54419  11.772   1.858  11.018  0.4580 -0.3145 -0.9358
  395MOL0     O54420  11.536   2.050  10.982 -1.3327  0.2478  0.4152
  395MOL0     C54421  11.393   2.158  11.190 -0.2450  0.4754 -0.1495
  395MOL0     C54422  11.294   2.207  11.278  0.2887  0.4483 -0.2502
  395MOL0     N54423  10.601   2.509  11.338  0.4733 -0.4356  0.3250
  395MOL0     N54424  10.569   2.626  11.283 -0.0133  0.6616  0.3978
  395MOL0     C54425  10.529   3.429  10.448  0.1544 -0.2278  0.2949
  395MOL0     C54426  10.456   3.479  10.340  1.1564 -0.1358  0.4881
  395MOL0     C54427  10.099   3.462  10.035  0.0037 -0.2733  0.1297
  395MOL0     C54428  10.093   3.601  10.024  0.4532 -0.5445  0.3312
  395MOL0     C54429   9.988   3.661   9.960 -0.3521 -0.1277  1.0451
  395MOL0     C54430   9.894   3.582   9.896  0.1143 -1.1760  1.1971
  395MOL0     O54431   9.786   3.634   9.824  0.0620  0.0413  0.6760
  395MOL0     C54432   9.797   3.749   9.749 -0.1190 -1.1018  0.8212
  395MOL0     C54433   9.712   3.742   9.617  0.5632 -0.1883 -0.3583
  395MOL0     C54434   9.559   3.764   9.650  0.0894 -0.8482  1.7273
  395MOL0     C54435   9.484   3.644   9.692 -0.4766  0.3068  0.0615
  395MOL0     C54436   9.344   3.640   9.737  0.6301  0.5709 -0.8430
  395MOL0     C54437   9.233   3.618   9.789 -0.3394  0.1481  0.2790
  395MOL0     C54438   9.904   3.437   9.894 -0.6778  0.2408 -0.0498
  395MOL0     C54439  10.004   3.380   9.977 -0.0695 -0.3117 -0.1267
  395MOL0     C54440   9.998   3.232   9.983 -0.0614 -0.0235 -0.0176
  395MOL0     H54441  10.152   3.366  10.418  0.2917 -0.5144 -0.2742
  395MOL0     H54442  10.278   3.295  10.623  0.3920  1.3116  0.1830
  395MOL0     H54443  10.619   3.499  10.697 -1.9782 -0.7312 -0.9952
  395MOL0     H54444  10.724   3.375  10.633  0.3137 -1.5394  1.0471
  395MOL0     H54445  10.786   3.414  10.865  0.0378  0.4879 -1.6831
  395MOL0     H54446  10.614   3.436  10.907  0.3523  0.6892  0.6811
  395MOL0     H54447  10.604   3.167  10.854 -1.2647  2.4887 -1.2608
  395MOL0     H54448  10.785   3.187  10.835  1.1640  1.8919  0.1132
  395MOL0     H54449  10.763   3.253  11.084 -4.1325  1.8158  1.0361
  395MOL0     H54450  10.601   3.218  11.080 -2.0838 -2.1459 -2.4392
  395MOL0     H54451  10.801   2.993  11.002  1.2501 -0.0405  1.1566
  395MOL0     H54452  10.619   3.004  11.036 -1.9277  2.8503 -0.8184
  395MOL0     H54453  10.841   3.067  11.235  1.1616 -2.9551  0.8294
  395MOL0     H54454  10.669   3.088  11.263 -1.9901  0.2644 -3.4922
  395MOL0     H54455  10.837   2.855  11.285  2.2548  2.9813 -2.1983
  395MOL0     H54456  10.713   2.815  11.158 -2.5687 -0.6208  0.2198
  395MOL0     H54457  10.637   2.927  11.435 -2.2538 -3.0369  1.8692
  395MOL0     H54458  10.535   2.903  11.304  0.3614  0.4863 -0.4177
  395MOL0     H54459  10.736   2.705  11.557 -1.3338  2.2841 -0.3942
  395MOL0     H54460  10.648   2.362  11.585 -0.1969  0.6950  1.8539
  395MOL0     H54461  10.789   2.446  11.626 -3.9129  1.3779  1.8336
  395MOL0     H54462  10.756   2.301  11.357  1.6899 -0.3103 -1.1140
  395MOL0     H54463  10.902   2.377  11.393  0.1744  0.4096 -0.0324
  395MOL0     H54464  10.929   2.247  11.606 -0.2677 -0.7252  1.2547
  395MOL0     H54465  10.784   2.164  11.548  1.1086 -0.7665  1.2694
  395MOL0     H54466  10.979   2.021  11.490 -1.4694  1.3151  2.7762
  395MOL0     H54467  10.922   2.090  11.331 -0.8932 -0.7251  0.3055
  395MOL0     H54468  11.070   1.940  11.266 -2.7001  4.3747  1.8460
  395MOL0     H54469  11.245   1.830  10.985 -0.0736  2.1308 -0.2191
  395MOL0     H54470  11.135   1.790  11.119  1.7066 -2.4881  3.3362
  395MOL0     H54471  11.303   1.740  11.131  0.2291 -0.3567 -0.9601
  395MOL0     H54472  11.558   1.623  10.930  0.2061 -1.9313 -2.3162
  395MOL0     H54473  11.773   1.520  10.823 -1.5470 -1.0837  1.6683
  395MOL0     H54474  12.160   1.772  10.885  2.5130  0.4969  1.0893
  395MOL0     H54475  12.105   1.680  11.020 -0.3560 -0.8840 -0.7863
  395MOL0     H54476  12.200   1.476  10.921  0.1112 -1.1723 -0.8505
  395MOL0     H54477  12.296   1.590  10.808 -4.2317  1.4184 -2.5096
  395MOL0     H54478  12.317   1.632  11.110 -1.8668 -3.0519  1.0304
  395MOL0     H54479  12.431   1.669  10.982  0.2627 -0.6486  0.0445
  395MOL0     H54480  12.386   1.380  11.013 -1.7785  0.1459  0.9502
  395MOL0     H54481  12.441   1.464  11.160 -0.0307 -0.8900 -0.3180
  395MOL0     H54482  12.642   1.549  11.025 -0.9053  1.1942 -2.0672
  395MOL0     H54483  12.653   1.384  11.037  1.3428  0.8235 -0.3840
  395MOL0     H54484  12.543   1.536  10.808  0.9230  1.9476  3.5799
  395MOL0     H54485  12.520   1.362  10.808  0.1069  1.3792 -2.6718
  395MOL0     H54486  12.691   1.386  10.676  1.3448 -2.3888 -0.6641
  395MOL0     H54487  12.761   1.319  10.823  0.0829  0.4941 -1.0790
  395MOL0     H54488  12.816   1.551  10.903 -0.8476  0.0285  1.0160
  395MOL0     H54489  12.739   1.605  10.754  0.5321 -1.2674 -1.5620
  395MOL0     H54490  11.976   1.873  10.979 -2.3404  0.6240  2.5180
  395MOL0     H54491  11.765   1.955  11.067 -0.2527 -0.1082 -1.4269
  395MOL0     H54492  11.488   2.208  11.178  0.6240 -1.3067 -1.0780
  395MOL0     H54493  11.303   2.304  11.327  0.9234  0.4455 -0.3620
  395MOL0     H54494  10.634   3.457  10.436 -0.7732  2.3647 -4.1337
  395MOL0     H54495  10.496   3.533  10.255  0.9939 -1.0438 -0.1795
  395MOL0     H54496  10.162   3.658  10.086 -3.1518  0.5453  3.7618
  395MOL0     H54497   9.973   3.769   9.954 -1.7823 -0.3533 -0.0130
  395MOL0     H54498   9.770   3.835   9.811 -3.5866 -0.8229 -0.7973
  395MOL0     H54499   9.902   3.758   9.720 -0.7514  0.7534 -1.1733
  395MOL0     H54500   9.733   3.642   9.577 -1.2872 -0.8878  0.3327
  395MOL0     H54501   9.745   3.826   9.556 -3.9909  2.5269  0.4942
  395MOL0     H54502   9.548   3.840   9.728  0.8982  2.9215 -1.5210
  395MOL0     H54503   9.503   3.806   9.566  2.0831  2.4256  1.8521
  395MOL0     H54504   9.532   3.594   9.777 -1.5107  0.4241  0.7296
  395MOL0     H54505   9.490   3.584   9.601 -2.4571  2.2950 -1.4857
  395MOL0     H54506   9.134   3.613   9.829 -0.3866  2.2104  0.5117
  395MOL0     H54507   9.833   3.377   9.840 -0.6135  0.3158 -0.2164
  395MOL0     H54508  10.080   3.190   9.925  0.3626 -0.5153  0.9155
  395MOL0     H54509  10.017   3.208  10.088 -4.9165 -0.6353  0.9535
  395MOL0     H54510   9.900   3.193   9.954  0.6765 -0.2138 -2.4555
  396MOL0     O54511  11.192  10.678   2.261 -0.1294 -0.3795  0.2744
  396MOL0     C54512  11.214  10.713   2.150 -0.2827 -0.4230 -0.5746
  396MOL0     O54513  11.295  10.650   2.058  0.3599  0.1025  0.3579
  396MOL0     C54514  11.385  10.546   2.099  0.3267 -0.2692 -0.2281
  396MOL0     C54515  11.342  10.449   2.182 -0.1347 -0.6012 -0.8199
  396MOL0     C54516  11.443  10.349   2.210  0.7763  0.5033  0.7777
  396MOL0     C54517  11.571  10.352   2.146 -0.3506 -0.7250 -0.0835
  396MOL0     O54518  11.673  10.262   2.177 -0.1311  0.0644  0.5557
  396MOL0     C54519  11.636  10.123   2.171  0.6709 -0.1412  0.6038
  396MOL0     C54520  11.678  10.067   2.037  0.1358 -0.3761  0.7326
  396MOL0     C54521  11.828  10.068   2.051 -0.1498  0.0436  0.0574
  396MOL0     C54522  11.898  10.036   1.919  0.5709 -0.7986 -0.4780
  396MOL0     C54523  12.036   9.977   1.940 -0.1263 -0.2997  0.9030
  396MOL0     C54524  12.026   9.832   2.001 -0.2229  0.4082 -0.0077
  396MOL0     C54525  12.172   9.769   1.998  0.0189  0.4099  0.7190
  396MOL0     C54526  12.257   9.822   2.119  0.4755  0.3554 -0.0752
  396MOL0     N54527  12.402   9.804   2.101  0.1284 -0.3028  0.5356
  396MOL0     C54528  12.460   9.702   2.030  0.4498 -0.4675 -0.8585
  396MOL0     C54529  12.594   9.711   2.053 -0.0453 -0.5627 -0.4914
  396MOL0     C54530  12.697   9.618   2.002  0.1050  0.1327  0.2163
  396MOL0     C54531  12.814   9.688   1.928  0.7966  0.5898  0.1364
  396MOL0     C54532  12.919   9.585   1.889 -0.3765 -0.3011 -0.5787
  396MOL0     C54533  13.039   9.650   1.833 -0.4749 -0.4005  0.1443
  396MOL0     O54534  13.079   9.757   1.923 -0.7994  0.3661  0.1920
  396MOL0     C54535  13.161   9.855   1.870 -0.6785 -0.5807  0.3723
  396MOL0     C54536  13.109   9.954   1.789 -0.0800  0.1569  1.3567
  396MOL0     C54537  13.185  10.053   1.727  0.1644 -0.2339  0.2707
  396MOL0     C54538  13.109  10.138   1.626 -0.2350 -0.2274 -0.2740
  396MOL0     C54539  13.325  10.062   1.753  0.2005  0.2085  0.3025
  396MOL0     C54540  13.416  10.171   1.700 -0.8474  0.5938  0.7999
  396MOL0     O54541  13.549  10.135   1.698  0.0722 -0.1746 -0.8212
  396MOL0     C54542  13.638  10.237   1.686 -0.6753  0.3755  0.0856
  396MOL0     C54543  13.721  10.232   1.566  0.1509  0.9099  0.6714
  396MOL0     C54544  13.811  10.335   1.543 -0.9848 -0.3436 -0.5108
  396MOL0     C54545  13.819  10.445   1.630  0.1139  0.9742  0.4464
  396MOL0     O54546  13.904  10.549   1.611  0.7856  0.0037 -0.8617
  396MOL0     C54547  14.035  10.529   1.566  0.5635 -0.2042  0.1292
  396MOL0     C54548  14.122  10.646   1.608 -0.1535  0.1904  0.0487
  396MOL0     C54549  14.078  10.787   1.564 -0.1898 -0.3297 -0.2746
  396MOL0     C54550  14.166  10.883   1.638 -0.2520 -1.0184  0.2741
  396MOL0     C54551  14.165  11.022   1.573 -0.3190 -0.0673  0.8411
  396MOL0     C54552  14.209  11.112   1.688 -0.6053 -0.6058  0.7706
  396MOL0     C54553  14.260  11.237   1.617  0.8605 -0.5741 -0.0486
  396MOL0     C54554  14.318  11.333   1.717  0.3301 -0.3733 -0.1668
  396MOL0    Cl54555  14.191  11.393   1.823 -0.4240 -0.1837 -0.1163
  396MOL0     C54556  13.755  10.439   1.752 -0.6150 -1.0285 -1.3876
  396MOL0     C54557  13.663  10.335   1.781 -1.0908  0.8613  0.1592
  396MOL0     O54558  13.367  10.272   1.639 -0.4909 -0.4714  0.0234
  396MOL0     C54559  13.379   9.954   1.824  0.4549  0.2225  0.4662
  396MOL0     C54560  13.304   9.850   1.880 -0.1394  0.3717  0.4791
  396MOL0     N54561  12.610   9.821   2.135 -0.3275 -0.9093  0.2189
  396MOL0     N54562  12.500   9.873   2.162  0.0109  0.2319 -0.5720
  396MOL0     C54563  11.605  10.453   2.049  0.4355  0.0989  0.8545
  396MOL0     C54564  11.507  10.551   2.030 -0.4236 -0.4430  0.4566
  396MOL0     C54565  11.147  10.833   2.097  0.2694  0.4585  0.3531
  396MOL0     C54566  11.011  10.848   2.127 -0.8468 -0.2492  0.2136
  396MOL0     C54567  10.944  10.967   2.091  0.4144 -0.4277 -0.7747
  396MOL0     C54568  11.003  11.065   2.022 -0.3681 -0.8307  0.9689
  396MOL0     O54569  10.927  11.177   1.972  0.4498  0.0125  0.6186
  396MOL0     C54570  10.802  11.201   2.034  0.0666  0.7503 -0.6335
  396MOL0     C54571  10.749  11.342   2.004  0.0992  0.0763 -0.5120
  396MOL0     C54572  10.830  11.449   2.082  0.6297 -0.1451  1.0886
  396MOL0     C54573  10.771  11.590   2.076  0.4121 -0.6011  0.3412
  396MOL0     C54574  10.714  11.618   1.940  0.8921 -0.2503 -0.4896
  396MOL0     C54575  10.680  11.655   1.820 -0.3712  0.0341  0.3973
  396MOL0     C54576  11.136  11.051   1.976 -0.8760  0.0218  0.3572
  396MOL0     C54577  11.205  10.928   2.004  0.5552 -0.1132  1.0413
  396MOL0     C54578  11.343  10.916   1.953  0.0800 -0.0768 -0.0014
  396MOL0     H54579  11.245  10.446   2.231  1.1166 -1.6339  1.7946
  396MOL0     H54580  11.423  10.272   2.284 -1.2247  1.0893  0.9025
  396MOL0     H54581  11.529  10.097   2.169  0.3014  1.2893 -1.2094
  396MOL0     H54582  11.687  10.068   2.251  1.0000 -0.4042  0.2172
  396MOL0     H54583  11.629   9.971   2.018 -1.6699  0.8821 -1.5802
  396MOL0     H54584  11.640  10.126   1.953 -0.0404 -1.2686  0.1748
  396MOL0     H54585  11.871  10.165   2.078 -0.8870  2.1334 -5.0949
  396MOL0     H54586  11.867   9.993   2.120 -1.4482 -1.9228 -1.2571
  396MOL0     H54587  11.838   9.962   1.866  2.4022 -2.4076 -0.4372
  396MOL0     H54588  11.905  10.129   1.862 -0.4865 -0.7990 -0.6169
  396MOL0     H54589  12.095  10.051   1.994  1.8593 -0.4120 -0.9872
  396MOL0     H54590  12.082   9.982   1.841 -0.0630  0.5969  0.9658
  396MOL0     H54591  11.992   9.830   2.105  0.1358  0.8107  0.1220
  396MOL0     H54592  11.955   9.775   1.941 -1.5482  2.5728 -0.6272
  396MOL0     H54593  12.216   9.772   1.897  0.4511 -1.5262  0.8171
  396MOL0     H54594  12.157   9.665   2.027  1.1012  0.4874  1.6420
  396MOL0     H54595  12.243   9.931   2.121  1.9784  0.5905  2.8499
  396MOL0     H54596  12.223   9.786   2.216  1.0328 -0.2771 -0.1043
  396MOL0     H54597  12.408   9.628   1.972 -0.8973  0.6519 -1.1211
  396MOL0     H54598  12.639   9.543   1.948  0.5547  0.5271 -0.8412
  396MOL0     H54599  12.746   9.581   2.093 -0.5262  1.5088  1.1464
  396MOL0     H54600  12.786   9.749   1.842  1.4617 -1.0576 -1.2992
  396MOL0     H54601  12.853   9.755   2.005  1.3342  2.1355 -1.4279
  396MOL0     H54602  12.949   9.539   1.984 -0.4923  1.4269  0.3417
  396MOL0     H54603  12.873   9.516   1.818 -1.7108  1.7413 -1.8153
  396MOL0     H54604  13.116   9.572   1.828 -2.9703 -3.1246  1.2642
  396MOL0     H54605  13.014   9.689   1.734  1.6432  0.7024 -0.0136
  396MOL0     H54606  13.001   9.944   1.783 -0.3086  1.5217  2.5149
  396MOL0     H54607  13.173  10.147   1.538 -2.1866  1.1733 -1.6485
  396MOL0     H54608  13.084  10.232   1.677  0.3876 -0.5870  0.7256
  396MOL0     H54609  13.023  10.086   1.583  1.6836 -1.7522 -2.4836
  396MOL0     H54610  13.700  10.159   1.489  2.7667  0.6113  0.1510
  396MOL0     H54611  13.874  10.338   1.455 -2.6042 -1.9850 -1.8001
  396MOL0     H54612  14.064  10.437   1.618  1.2740  0.6206  1.2168
  396MOL0     H54613  14.033  10.512   1.458  0.8942 -1.9858  0.3581
  396MOL0     H54614  14.124  10.639   1.717  2.1444 -0.3962  0.0127
  396MOL0     H54615  14.226  10.631   1.579  0.3298 -0.3573  1.9575
  396MOL0     H54616  13.971  10.799   1.585 -0.4567 -2.2387 -0.3640
  396MOL0     H54617  14.089  10.799   1.456 -2.8087  0.5777 -0.5167
  396MOL0     H54618  14.270  10.849   1.641  0.3882  0.8714  1.1594
  396MOL0     H54619  14.134  10.888   1.743 -2.9713  0.2712 -0.5285
  396MOL0     H54620  14.226  11.024   1.482 -1.7099  2.1513 -0.0997
  396MOL0     H54621  14.066  11.052   1.539  0.2336  0.7481 -0.1093
  396MOL0     H54622  14.291  11.073   1.750  1.2663 -1.3155 -2.0022
  396MOL0     H54623  14.124  11.140   1.752 -1.8486 -0.5791 -0.8428
  396MOL0     H54624  14.170  11.278   1.570  1.6399  1.3445  0.0607
  396MOL0     H54625  14.336  11.219   1.541  1.2716 -1.4255  0.5446
  396MOL0     H54626  14.356  11.422   1.665 -1.0260 -0.6339 -1.6690
  396MOL0     H54627  14.400  11.277   1.763  1.1851  0.0281 -1.1489
  396MOL0     H54628  13.783  10.516   1.824  1.0620 -1.7067 -1.2938
  396MOL0     H54629  13.617  10.330   1.879 -0.6289 -0.9701  0.3321
  396MOL0     H54630  13.484   9.939   1.846  1.4532  1.7043 -2.6535
  396MOL0     H54631  13.349   9.766   1.933 -1.7458 -2.2212 -1.9711
  396MOL0     H54632  11.700  10.451   1.998 -0.6455  0.3121 -1.2605
  396MOL0     H54633  11.541  10.627   1.961 -0.2505  0.6825  1.7542
  396MOL0     H54634  10.971  10.776   2.198  3.5004 -2.3563  0.8184
  396MOL0     H54635  10.837  10.965   2.110  0.1525 -1.0632 -2.1929
  396MOL0     H54636  10.727  11.131   1.995 -1.0504  0.2334  2.2164
  396MOL0     H54637  10.813  11.190   2.142  1.8998  2.9696 -0.5194
  396MOL0     H54638  10.652  11.351   2.052  1.2737 -1.6783  2.4708
  396MOL0     H54639  10.743  11.364   1.897 -4.8738 -1.7632 -0.8901
  396MOL0     H54640  10.844  11.421   2.187  0.1472  0.9491  1.4580
  396MOL0     H54641  10.927  11.466   2.034 -0.2109 -0.6548 -0.9197
  396MOL0     H54642  10.847  11.666   2.098  0.2736  0.1087 -1.4340
  396MOL0     H54643  10.681  11.594   2.139 -0.9227 -0.0098 -1.4984
  396MOL0     H54644  10.658  11.690   1.721  2.4634  2.3001  0.4427
  396MOL0     H54645  11.184  11.117   1.905  0.8122 -0.6033  0.8767
  396MOL0     H54646  11.393  11.010   1.926  0.4267  1.2424  4.4172
  396MOL0     H54647  11.412  10.856   2.013  0.0502  0.8329  0.9884
  396MOL0     H54648  11.330  10.855   1.863 -1.4981  0.1352  0.0460
  397MOL0     O54649   3.047   6.832   6.413 -0.0532  0.4411  0.4709
  397MOL0     C54650   3.025   6.738   6.338  0.4137 -0.2845 -0.3622
  397MOL0     O54651   3.109   6.638   6.298  0.0844  0.7273 -0.6212
  397MOL0     C54652   3.235   6.636   6.356 -0.5787 -0.2771  0.0904
  397MOL0     C54653   3.247   6.628   6.497  0.7773 -0.6645  0.1373
  397MOL0     C54654   3.371   6.632   6.550 -0.1369 -0.1166 -0.0781
  397MOL0     C54655   3.489   6.614   6.474 -0.4664 -0.2983 -0.5990
  397MOL0     O54656   3.618   6.616   6.538  0.1315  0.0147 -0.2919
  397MOL0     C54657   3.727   6.589   6.443  0.1961  1.3147 -0.3160
  397MOL0     C54658   3.851   6.550   6.531  0.7785  0.9008  0.0377
  397MOL0     C54659   3.967   6.508   6.444 -0.8049  0.3156 -0.0929
  397MOL0     C54660   4.096   6.511   6.522 -0.8694  0.2017  0.2207
  397MOL0     C54661   4.199   6.410   6.469  0.3292  0.8172  0.3349
  397MOL0     C54662   4.347   6.465   6.500  0.8989 -0.3878 -1.0271
  397MOL0     C54663   4.452   6.356   6.485 -0.1864 -0.1554 -0.5299
  397MOL0     C54664   4.481   6.279   6.611  0.1741 -0.9102 -0.0123
  397MOL0     N54665   4.607   6.212   6.590  0.4757  0.4068 -0.5175
  397MOL0     C54666   4.727   6.278   6.555 -0.5747 -1.4390 -0.5085
  397MOL0     C54667   4.816   6.174   6.538  0.8253 -0.5551  0.4577
  397MOL0     C54668   4.955   6.187   6.470  0.2648 -0.9492 -0.1404
  397MOL0     C54669   5.052   6.212   6.580 -0.0448  1.5331 -0.6018
  397MOL0     C54670   5.083   6.091   6.662  0.1381 -0.0218  0.0903
  397MOL0     C54671   5.179   6.125   6.786  0.1286 -0.8442 -0.0405
  397MOL0     O54672   5.302   6.180   6.733 -0.2776  0.2754 -0.2387
  397MOL0     C54673   5.407   6.196   6.821 -0.7839  0.1584  0.1598
  397MOL0     C54674   5.409   6.168   6.958  0.3890  0.4171  0.4481
  397MOL0     C54675   5.510   6.201   7.044  0.7048  0.3534 -0.6062
  397MOL0     C54676   5.484   6.147   7.181  0.7068 -0.0083 -0.0669
  397MOL0     C54677   5.628   6.261   6.997  0.4067 -0.0408 -0.1869
  397MOL0     C54678   5.750   6.307   7.079 -0.5933  1.1952  0.0072
  397MOL0     O54679   5.864   6.335   7.007  0.3562 -0.1345  0.6696
  397MOL0     C54680   5.986   6.371   7.049 -0.1468  0.4969 -0.3309
  397MOL0     C54681   6.016   6.445   7.173  0.6214 -0.1278 -0.1421
  397MOL0     C54682   6.149   6.485   7.205  0.2505  0.8816 -0.3729
  397MOL0     C54683   6.250   6.456   7.122 -0.0894 -0.6084  0.2846
  397MOL0     O54684   6.379   6.475   7.156 -0.5695 -0.5259 -0.5965
  397MOL0     C54685   6.486   6.391   7.114  0.6750  0.3737 -0.5081
  397MOL0     C54686   6.616   6.421   7.191  0.3538  0.3948 -0.0740
  397MOL0     C54687   6.650   6.573   7.176 -0.9115 -0.4353  0.3241
  397MOL0     C54688   6.792   6.608   7.227 -0.1564 -0.7673  0.5505
  397MOL0     C54689   6.829   6.747   7.199  0.5051 -0.1634 -0.1653
  397MOL0     C54690   6.975   6.769   7.223 -0.8045  1.3451  0.4471
  397MOL0     C54691   7.028   6.899   7.184  1.0222 -0.2470  0.1819
  397MOL0     C54692   7.173   6.900   7.194 -0.3799  0.1089 -0.1675
  397MOL0    Cl54693   7.246   7.055   7.220  0.3842 -0.3616 -0.4297
  397MOL0     C54694   6.227   6.377   7.005 -0.7612  0.7347  0.2526
  397MOL0     C54695   6.091   6.352   6.966 -0.0136  0.8370 -0.6228
  397MOL0     O54696   5.742   6.313   7.197 -0.7010 -0.0967 -1.2520
  397MOL0     C54697   5.628   6.295   6.863 -0.4594 -0.1608 -0.2151
  397MOL0     C54698   5.524   6.271   6.782 -0.1039 -0.6064  0.4923
  397MOL0     N54699   4.745   6.059   6.566  0.2554 -0.0810 -0.0507
  397MOL0     N54700   4.621   6.081   6.601 -1.0242  0.2530  0.1131
  397MOL0     C54701   3.473   6.608   6.330 -0.4986 -0.2783 -0.6603
  397MOL0     C54702   3.343   6.624   6.275 -0.5707  0.3634 -0.0567
  397MOL0     C54703   2.889   6.733   6.287 -0.2519  1.0810 -0.1522
  397MOL0     C54704   2.830   6.853   6.265 -0.0323  0.5474 -0.1136
  397MOL0     C54705   2.703   6.866   6.202 -0.5549 -0.7624 -0.5955
  397MOL0     C54706   2.639   6.759   6.165 -0.5235  0.0243 -0.1643
  397MOL0     O54707   2.522   6.782   6.094  0.2200 -0.4653 -0.0056
  397MOL0     C54708   2.438   6.676   6.053  0.5569 -0.1720  0.1141
  397MOL0     C54709   2.309   6.741   6.010  0.6450  0.0283 -0.2528
  397MOL0     C54710   2.228   6.795   6.132 -0.5685  0.7550 -0.2623
  397MOL0     C54711   2.112   6.869   6.074 -0.3176  1.3079  0.8629
  397MOL0     C54712   2.019   6.898   6.186  0.3887 -0.3942 -0.1084
  397MOL0     C54713   1.918   6.922   6.254  0.0555 -1.0644  0.4639
  397MOL0     C54714   2.695   6.635   6.202  0.2153 -0.2789 -0.7867
  397MOL0     C54715   2.824   6.616   6.249 -0.0829 -0.7507 -1.0639
  397MOL0     C54716   2.866   6.473   6.275  0.2605  0.2066  0.5482
  397MOL0     H54717   3.153   6.631   6.551 -0.5680 -1.5352 -2.0354
  397MOL0     H54718   3.379   6.649   6.657  3.6939 -0.2357 -0.2199
  397MOL0     H54719   3.749   6.659   6.362 -2.4898  2.0995 -0.4801
  397MOL0     H54720   3.699   6.493   6.399 -2.7718  1.6843  0.5508
  397MOL0     H54721   3.882   6.631   6.598 -0.8131  1.9996 -0.4906
  397MOL0     H54722   3.815   6.469   6.595 -0.9055  0.9852 -0.7569
  397MOL0     H54723   3.954   6.407   6.405  2.3453  0.1754 -1.1381
  397MOL0     H54724   3.975   6.575   6.357 -2.6274 -0.6728 -1.0783
  397MOL0     H54725   4.130   6.615   6.511 -1.2263  0.3317  0.3457
  397MOL0     H54726   4.072   6.480   6.624  0.7275  1.1691  0.9338
  397MOL0     H54727   4.179   6.391   6.363  1.8018 -1.1158  0.3553
  397MOL0     H54728   4.186   6.320   6.529 -0.8909  1.8956  1.7895
  397MOL0     H54729   4.369   6.556   6.443  0.7457 -0.7116 -1.6092
  397MOL0     H54730   4.339   6.502   6.602  1.6689 -1.7785 -0.4405
  397MOL0     H54731   4.536   6.417   6.452  0.8978  0.6854  3.2682
  397MOL0     H54732   4.432   6.273   6.416 -1.7913  1.1636 -1.7310
  397MOL0     H54733   4.485   6.341   6.700  2.3290 -1.1492  0.1049
  397MOL0     H54734   4.397   6.208   6.609  0.8344 -1.7351 -2.6964
  397MOL0     H54735   4.744   6.385   6.549 -1.2783 -1.2557  0.5231
  397MOL0     H54736   4.963   6.270   6.400 -0.6012  0.2674  1.1417
  397MOL0     H54737   4.980   6.092   6.422 -0.5204 -0.3902 -1.7130
  397MOL0     H54738   5.146   6.244   6.534 -0.4166 -0.0777 -2.5673
  397MOL0     H54739   5.026   6.286   6.657 -0.1965  0.1021  0.7677
  397MOL0     H54740   4.987   6.053   6.699  0.1098  1.0971  1.2276
  397MOL0     H54741   5.141   6.016   6.607  0.0621  2.0825 -3.1040
  397MOL0     H54742   5.130   6.203   6.845 -0.6999 -1.1243 -0.3418
  397MOL0     H54743   5.182   6.034   6.847 -0.2230 -0.7831  0.0677
  397MOL0     H54744   5.322   6.116   6.996  0.0094 -1.7066 -2.9049
  397MOL0     H54745   5.438   6.048   7.182  3.3538 -1.3604 -1.4274
  397MOL0     H54746   5.413   6.215   7.228 -0.9427  0.2094 -2.6404
  397MOL0     H54747   5.576   6.138   7.240  0.2906  0.0731  0.6068
  397MOL0     H54748   5.938   6.486   7.236 -2.1467  1.0653 -3.9823
  397MOL0     H54749   6.163   6.542   7.296 -0.3569 -2.1604  1.7952
  397MOL0     H54750   6.453   6.290   7.138 -0.2411  1.0770  1.4169
  397MOL0     H54751   6.508   6.404   7.008  2.0834 -0.8294 -0.3790
  397MOL0     H54752   6.617   6.390   7.295 -1.0427 -1.7671 -0.6407
  397MOL0     H54753   6.684   6.355   7.136 -1.0240 -3.5273  2.5442
  397MOL0     H54754   6.577   6.631   7.233 -0.8242  0.4376 -0.4157
  397MOL0     H54755   6.651   6.605   7.071  4.2141 -0.1631  0.1809
  397MOL0     H54756   6.857   6.538   7.174  0.5226  0.6114 -0.4866
  397MOL0     H54757   6.798   6.593   7.335  0.4579 -0.9071  0.5006
  397MOL0     H54758   6.807   6.766   7.094  0.2171 -1.1518 -0.2966
  397MOL0     H54759   6.768   6.811   7.263 -0.4779  1.0908 -2.2518
  397MOL0     H54760   7.033   6.696   7.167 -2.3335  0.1985  0.2932
  397MOL0     H54761   6.986   6.754   7.331 -2.9761  1.0368  0.6798
  397MOL0     H54762   6.993   6.976   7.254  3.9186  0.8403  0.5652
  397MOL0     H54763   6.994   6.933   7.086 -1.7657  2.5890  1.9172
  397MOL0     H54764   7.222   6.867   7.102 -2.2735 -1.7678 -0.5862
  397MOL0     H54765   7.213   6.840   7.276  1.1014  1.6904  0.3248
  397MOL0     H54766   6.307   6.347   6.938 -1.5595  1.4943 -1.0960
  397MOL0     H54767   6.074   6.294   6.876 -1.4058 -2.2094  1.4259
  397MOL0     H54768   5.716   6.344   6.824 -0.7197  1.7150  1.4202
  397MOL0     H54769   5.533   6.276   6.673  0.7746 -0.2839  0.5740
  397MOL0     H54770   3.548   6.591   6.253  1.2176 -0.0549  0.9173
  397MOL0     H54771   3.327   6.626   6.168 -0.7044  2.6644 -0.0394
  397MOL0     H54772   2.874   6.947   6.298  0.3309  1.7801 -3.7272
  397MOL0     H54773   2.653   6.960   6.181 -1.6769 -1.6123 -1.8486
  397MOL0     H54774   2.481   6.623   5.967  1.1138  1.0107 -0.3603
  397MOL0     H54775   2.419   6.605   6.135 -2.3129 -0.1253 -0.4241
  397MOL0     H54776   2.247   6.661   5.970 -1.9946  2.1929 -0.7755
  397MOL0     H54777   2.305   6.819   5.933 -1.9657  0.5870  0.3576
  397MOL0     H54778   2.197   6.711   6.195 -3.5714  2.2164  0.3803
  397MOL0     H54779   2.289   6.865   6.191  2.4515 -4.1378  3.0974
  397MOL0     H54780   2.058   6.811   5.998 -0.0132 -1.3231  2.5208
  397MOL0     H54781   2.141   6.966   6.032 -0.2676  0.0364 -2.2930
  397MOL0     H54782   1.836   6.931   6.323  0.0250 -0.4584  0.3521
  397MOL0     H54783   2.635   6.549   6.174 -2.1688  1.3830 -1.0478
  397MOL0     H54784   2.973   6.451   6.287  0.2624  0.4081  0.9319
  397MOL0     H54785   2.815   6.437   6.365  2.2799  0.2119  1.7720
  397MOL0     H54786   2.835   6.406   6.195 -0.2811 -0.9350  1.6736
  398MOL0     O54787   8.391   2.003   0.596  0.3680 -0.2430  1.6586
  398MOL0     C54788   8.347   2.049   0.700 -0.4137  0.0326  1.3914
  398MOL0     O54789   8.401   2.034   0.822 -0.1535 -0.7125  0.8922
  398MOL0     C54790   8.529   2.002   0.832  0.1520 -0.6287 -0.4991
  398MOL0     C54791   8.587   1.878   0.779  0.1672  0.0231 -0.7212
  398MOL0     C54792   8.719   1.842   0.785 -0.8853  0.2714 -0.5939
  398MOL0     C54793   8.807   1.924   0.859  0.1524  0.1373  1.2097
  398MOL0     O54794   8.943   1.886   0.857  0.2867  0.0556 -0.1348
  398MOL0     C54795   9.025   1.969   0.939  0.5797  0.5121  0.6409
  398MOL0     C54796   9.168   1.920   0.943  0.3204 -0.1500  0.0375
  398MOL0     C54797   9.242   1.969   0.813 -0.2654  0.7570  0.7907
  398MOL0     C54798   9.381   1.909   0.807  0.8000 -0.0588  0.2499
  398MOL0     C54799   9.443   1.945   0.665 -0.7551  0.4869  0.4906
  398MOL0     C54800   9.513   2.076   0.658 -0.3981 -0.6805 -0.5141
  398MOL0     C54801   9.668   2.054   0.689 -0.3537 -0.1555 -0.1585
  398MOL0     C54802   9.701   2.029   0.837  0.8003  0.4859 -0.2681
  398MOL0     N54803   9.836   2.068   0.882  0.0028  0.1500 -0.9660
  398MOL0     C54804   9.951   1.988   0.860  0.4076 -0.8121  0.0884
  398MOL0     C54805  10.052   2.057   0.917  0.0442  0.2850  0.1484
  398MOL0     C54806  10.192   2.017   0.913  0.3522 -0.2893  1.3293
  398MOL0     C54807  10.225   1.965   1.050 -0.2989  0.1623  0.0233
  398MOL0     C54808  10.374   1.934   1.069  0.3144 -0.7122 -0.0905
  398MOL0     C54809  10.404   1.890   1.210 -0.0631 -0.0192 -0.0050
  398MOL0     O54810  10.535   1.838   1.223 -0.3619  0.3248  0.2416
  398MOL0     C54811  10.581   1.816   1.357 -0.8450  0.6608  0.9994
  398MOL0     C54812  10.505   1.795   1.473  0.2526 -0.4783  0.4827
  398MOL0     C54813  10.562   1.796   1.599  0.4100 -0.3740 -0.5160
  398MOL0     C54814  10.460   1.786   1.717  0.1394 -0.4097  0.1183
  398MOL0     C54815  10.702   1.820   1.618  0.3156 -0.2996  0.3187
  398MOL0     C54816  10.768   1.825   1.753 -0.3330  0.6048 -0.0107
  398MOL0     O54817  10.885   1.900   1.754 -0.0838 -0.3335 -0.1009
  398MOL0     C54818  10.956   1.909   1.876  0.5359  0.2819  0.3291
  398MOL0     C54819  11.052   1.811   1.905  0.1126  0.0317 -0.0198
  398MOL0     C54820  11.127   1.814   2.029  0.8500 -0.2985 -0.7578
  398MOL0     C54821  11.114   1.924   2.114  0.5681 -0.3641  0.4138
  398MOL0     O54822  11.188   1.943   2.229 -0.8736  0.0426  1.0788
  398MOL0     C54823  11.311   1.855   2.243  0.8183 -0.0743  0.0728
  398MOL0     C54824  11.425   1.924   2.314  0.4077  0.0460 -0.7514
  398MOL0     C54825  11.475   2.048   2.229  0.0668 -0.0932  0.0983
  398MOL0     C54826  11.584   2.138   2.295  0.1433 -0.5027 -0.6125
  398MOL0     C54827  11.729   2.100   2.268  0.6174 -0.1379  0.1666
  398MOL0     C54828  11.833   2.170   2.352  1.0016 -0.2861 -0.4795
  398MOL0     C54829  11.836   2.326   2.335 -0.2952  0.4322  0.1283
  398MOL0     C54830  11.973   2.389   2.317 -1.1733  0.2914  0.1357
  398MOL0    Cl54831  12.085   2.356   2.443 -0.4247  0.2406 -0.3862
  398MOL0     C54832  11.016   2.022   2.085  1.1650 -0.6721  0.1745
  398MOL0     C54833  10.941   2.022   1.961  1.1749  0.6895 -0.0540
  398MOL0     O54834  10.725   1.758   1.843  0.1401  0.1781 -0.5192
  398MOL0     C54835  10.776   1.847   1.499  0.8408 -0.5851  0.3691
  398MOL0     C54836  10.719   1.842   1.368  0.4441 -0.3838 -1.1395
  398MOL0     N54837  10.001   2.171   0.973  0.1821 -0.2932  0.0715
  398MOL0     N54838   9.873   2.180   0.952 -0.2612  0.3224  0.2947
  398MOL0     C54839   8.753   2.036   0.923 -0.1901  0.2964 -0.3967
  398MOL0     C54840   8.614   2.078   0.910 -0.4220  0.5206  0.3096
  398MOL0     C54841   8.208   2.110   0.690  0.6987  0.3862 -0.4468
  398MOL0     C54842   8.119   2.108   0.798 -0.4743  0.5244  0.7129
  398MOL0     C54843   8.009   2.194   0.798  0.7081  0.3967  0.0750
  398MOL0     C54844   7.971   2.264   0.686  0.4318  0.7528  0.2683
  398MOL0     O54845   7.859   2.342   0.684 -0.1507 -0.3403  0.0554
  398MOL0     C54846   7.808   2.405   0.563  0.1503 -0.0809 -0.4960
  398MOL0     C54847   7.671   2.475   0.582  0.6932 -0.9902  0.1742
  398MOL0     C54848   7.638   2.557   0.455 -0.0471 -0.1972  0.2924
  398MOL0     C54849   7.519   2.646   0.472  0.0062 -0.2394 -0.3424
  398MOL0     C54850   7.392   2.588   0.516  0.4448  1.1603 -0.3052
  398MOL0     C54851   7.285   2.529   0.547 -0.7693 -0.0643 -0.3143
  398MOL0     C54852   8.042   2.254   0.573 -0.9301 -0.6703  0.0259
  398MOL0     C54853   8.168   2.179   0.569  0.8979  0.4661 -1.0241
  398MOL0     C54854   8.247   2.189   0.449 -0.4640 -0.6198  0.1190
  398MOL0     H54855   8.517   1.814   0.726 -2.5400  2.0028  0.2415
  398MOL0     H54856   8.757   1.754   0.734  1.3794  0.0647  1.2802
  398MOL0     H54857   8.997   1.956   1.044 -0.3537 -0.3130  0.3124
  398MOL0     H54858   9.022   2.075   0.916  0.1874  0.1549 -1.1330
  398MOL0     H54859   9.219   1.963   1.031  2.0768 -0.6935 -0.6625
  398MOL0     H54860   9.175   1.811   0.947  0.6474 -0.2728 -2.2956
  398MOL0     H54861   9.200   1.931   0.719  2.4948  0.3158 -0.3591
  398MOL0     H54862   9.242   2.078   0.810  0.3622  0.7522  0.0283
  398MOL0     H54863   9.436   1.955   0.890  2.9973  0.6304 -1.4864
  398MOL0     H54864   9.374   1.800   0.813  0.0787 -0.2094 -2.2779
  398MOL0     H54865   9.362   1.959   0.592 -1.4710 -1.3877  0.8570
  398MOL0     H54866   9.513   1.869   0.629  1.7198  3.2774 -1.0437
  398MOL0     H54867   9.496   2.116   0.557 -1.4139  1.2992  0.3948
  398MOL0     H54868   9.462   2.143   0.727 -1.8136  0.4058 -2.5313
  398MOL0     H54869   9.715   2.150   0.667  1.5354 -0.6484  1.4330
  398MOL0     H54870   9.709   1.980   0.620 -1.2803 -1.2355  0.4328
  398MOL0     H54871   9.630   2.081   0.902  0.4436 -0.0280 -0.2439
  398MOL0     H54872   9.676   1.925   0.862 -4.6136  1.8757  1.4338
  398MOL0     H54873   9.960   1.893   0.809  2.0505  1.5804 -4.6455
  398MOL0     H54874  10.252   2.105   0.888  0.5902 -0.5658  0.9121
  398MOL0     H54875  10.212   1.948   0.831  0.0125  2.3363 -1.1101
  398MOL0     H54876  10.187   2.032   1.128 -3.4442  0.7548 -1.8257
  398MOL0     H54877  10.173   1.872   1.071  2.4565 -1.2275  1.2029
  398MOL0     H54878  10.388   1.848   1.003 -1.4344 -0.9320 -0.2085
  398MOL0     H54879  10.438   2.020   1.046 -2.8792  1.9721  0.3113
  398MOL0     H54880  10.394   1.980   1.271 -0.0133 -0.5601  0.8272
  398MOL0     H54881  10.327   1.826   1.255 -0.1452  1.5454  2.2261
  398MOL0     H54882  10.397   1.793   1.457  0.3795  1.1235 -0.8335
  398MOL0     H54883  10.355   1.770   1.690 -2.0709  1.4959  5.9407
  398MOL0     H54884  10.463   1.874   1.781  2.2819  0.6975 -1.3677
  398MOL0     H54885  10.494   1.697   1.771  3.5728  0.7196  0.0792
  398MOL0     H54886  11.070   1.723   1.845 -1.7689 -1.3000  1.2471
  398MOL0     H54887  11.194   1.732   2.052  0.5441 -1.2922 -3.0795
  398MOL0     H54888  11.295   1.758   2.289  1.5706  1.1958  3.3068
  398MOL0     H54889  11.345   1.830   2.142 -0.9978 -1.0723 -0.3242
  398MOL0     H54890  11.385   1.957   2.410 -0.1250 -1.4404 -0.4497
  398MOL0     H54891  11.509   1.856   2.327  0.8966  0.4895 -1.4790
  398MOL0     H54892  11.390   2.110   2.197 -3.0839 -2.1348  3.7311
  398MOL0     H54893  11.501   1.999   2.134  0.6692 -0.0337  0.2293
  398MOL0     H54894  11.556   2.146   2.401  0.9973 -1.0906 -0.3322
  398MOL0     H54895  11.575   2.241   2.262  3.0064 -0.7620 -2.5155
  398MOL0     H54896  11.740   1.993   2.289  2.2303  0.2744  1.6527
  398MOL0     H54897  11.744   2.118   2.161 -0.1981  3.1799  0.4988
  398MOL0     H54898  11.932   2.128   2.332  2.1444  1.8782  0.3240
  398MOL0     H54899  11.798   2.137   2.450 -2.8705  1.1182 -1.1858
  398MOL0     H54900  11.773   2.376   2.409 -1.6597 -0.2245 -0.5582
  398MOL0     H54901  11.789   2.343   2.237 -1.7718 -2.0904  0.3114
  398MOL0     H54902  11.959   2.497   2.309  0.0218  0.3701 -1.3590
  398MOL0     H54903  12.027   2.358   2.227 -0.3083  2.7748 -0.2629
  398MOL0     H54904  10.992   2.103   2.153 -2.1043 -0.1959 -1.3498
  398MOL0     H54905  10.873   2.103   1.940  2.1161  1.6767  0.6297
  398MOL0     H54906  10.876   1.888   1.509 -0.5836  3.4333 -0.0098
  398MOL0     H54907  10.782   1.854   1.280  1.0314 -0.4565 -0.7306
  398MOL0     H54908   8.810   2.083   1.002 -0.1800  0.2928 -0.4021
  398MOL0     H54909   8.566   2.152   0.973 -0.8465  1.2323 -0.8087
  398MOL0     H54910   8.150   2.053   0.887  1.3980 -1.4747 -1.0659
  398MOL0     H54911   7.940   2.205   0.881  0.3439  1.5304 -0.3677
  398MOL0     H54912   7.873   2.491   0.545 -2.5286  2.4148  0.8748
  398MOL0     H54913   7.815   2.341   0.475 -0.4806  0.1877 -0.7483
  398MOL0     H54914   7.681   2.540   0.668 -0.2223 -0.0821 -0.3926
  398MOL0     H54915   7.599   2.397   0.606  2.4820 -2.3553  1.4155
  398MOL0     H54916   7.726   2.620   0.438  1.3681 -2.1477  0.0132
  398MOL0     H54917   7.622   2.486   0.373  2.0271 -0.4438  0.0474
  398MOL0     H54918   7.515   2.711   0.384 -1.5262  0.5322  0.2690
  398MOL0     H54919   7.556   2.704   0.557  1.9908  0.7652 -1.8066
  398MOL0     H54920   7.191   2.479   0.562 -1.5201  1.2259 -0.4862
  398MOL0     H54921   8.018   2.295   0.476 -0.7475 -1.5600 -0.4008
  398MOL0     H54922   8.352   2.209   0.474 -0.5085  0.6549 -0.6605
  398MOL0     H54923   8.242   2.096   0.392  0.8946 -0.0895 -0.9218
  398MOL0     H54924   8.208   2.261   0.377  0.4243 -0.8538 -0.6111
  399MOL0     O54925   0.648   4.578   8.413  0.3397  0.0406  0.6825
  399MOL0     C54926   0.633   4.536   8.296 -0.6773 -0.6751 -1.4709
  399MOL0     O54927   0.704   4.576   8.182  0.1046 -0.2179 -0.1010
  399MOL0     C54928   0.812   4.665   8.185  0.2278  0.5555 -0.0876
  399MOL0     C54929   0.909   4.652   8.287  0.2469 -0.2843  0.3735
  399MOL0     C54930   1.026   4.715   8.284  0.4295 -0.1884 -0.3495
  399MOL0     C54931   1.060   4.785   8.171  0.1056  0.5419  0.1314
  399MOL0     O54932   1.181   4.849   8.172  0.5377  0.4510  0.5138
  399MOL0     C54933   1.278   4.778   8.099 -0.2245 -0.3187 -0.8092
  399MOL0     C54934   1.420   4.820   8.170  0.8157  0.0077  0.0705
  399MOL0     C54935   1.428   4.748   8.311 -0.3143  0.1959  0.0791
  399MOL0     C54936   1.538   4.829   8.394 -0.4081 -0.0864  0.1008
  399MOL0     C54937   1.582   4.737   8.512 -0.5789 -0.1416  0.0139
  399MOL0     C54938   1.666   4.812   8.619  0.2583 -0.0881 -0.2980
  399MOL0     C54939   1.715   4.703   8.718 -0.3157  0.9110 -0.5696
  399MOL0     C54940   1.754   4.777   8.858  0.2684  0.1380 -0.0337
  399MOL0     N54941   1.845   4.696   8.933 -0.8779 -0.7780 -0.4235
  399MOL0     C54942   1.982   4.668   8.909  0.1850  0.0594  0.6941
  399MOL0     C54943   2.023   4.589   9.003 -0.5888 -0.2301  0.1181
  399MOL0     C54944   2.171   4.558   9.028  0.8288 -0.4240 -0.1497
  399MOL0     C54945   2.193   4.409   9.045  0.3858 -0.9196 -0.6671
  399MOL0     C54946   2.343   4.382   9.091  0.9749 -0.0815 -0.8498
  399MOL0     C54947   2.374   4.232   9.126  0.0098 -0.4604 -0.1986
  399MOL0     O54948   2.500   4.229   9.188 -0.4705 -0.7334  0.0677
  399MOL0     C54949   2.594   4.157   9.127  0.0276 -0.4633  0.9001
  399MOL0     C54950   2.580   4.021   9.085 -0.0014 -0.0130  0.7125
  399MOL0     C54951   2.670   3.952   9.009 -0.1233  0.5584 -0.0050
  399MOL0     C54952   2.630   3.808   8.975  0.4715 -0.8178 -0.6534
  399MOL0     C54953   2.791   4.019   8.959 -0.5413 -0.5212 -0.4545
  399MOL0     C54954   2.892   3.963   8.870  0.1138 -0.6821  0.2454
  399MOL0     O54955   2.968   4.059   8.809  0.3403 -0.5991  0.8602
  399MOL0     C54956   3.072   4.017   8.728  0.5922  0.0150  0.8837
  399MOL0     C54957   3.064   4.044   8.585 -0.4897  0.1714  0.2712
  399MOL0     C54958   3.168   4.028   8.498 -0.7914  0.2548  0.0793
  399MOL0     C54959   3.283   3.959   8.549  0.0619 -0.2564  0.4224
  399MOL0     O54960   3.402   3.940   8.488  0.1787 -0.1136  0.7356
  399MOL0     C54961   3.422   4.008   8.364 -0.6444  0.0399  0.8094
  399MOL0     C54962   3.552   3.966   8.295 -0.2546 -0.7952 -1.2985
  399MOL0     C54963   3.661   4.050   8.357  0.2453  0.3700 -0.0194
  399MOL0     C54964   3.796   3.995   8.311  0.0135 -0.0334 -0.0359
  399MOL0     C54965   3.911   4.074   8.374 -0.4412 -0.9771  0.0513
  399MOL0     C54966   4.042   3.995   8.382  0.1568  0.0417 -1.0911
  399MOL0     C54967   4.164   4.090   8.399 -0.6743  0.3976 -0.2786
  399MOL0     C54968   4.262   4.051   8.515 -0.1158  0.5121 -0.1394
  399MOL0    Cl54969   4.197   4.072   8.684 -0.0221  0.0503  0.1370
  399MOL0     C54970   3.286   3.921   8.679  0.5964  0.3545 -0.5747
  399MOL0     C54971   3.185   3.954   8.774 -0.4515 -0.1713  0.2174
  399MOL0     O54972   2.902   3.844   8.850  0.3899 -0.2913 -0.4920
  399MOL0     C54973   2.819   4.147   9.017  0.2556 -0.4368 -0.4189
  399MOL0     C54974   2.722   4.213   9.101  0.2545 -0.0171  0.4145
  399MOL0     N54975   1.919   4.562   9.087 -0.5659  0.7742 -0.1144
  399MOL0     N54976   1.813   4.623   9.043 -0.6354 -0.1886 -1.0074
  399MOL0     C54977   0.969   4.797   8.063  0.0165  0.6272  0.2026
  399MOL0     C54978   0.847   4.736   8.069  0.4407 -0.4190  0.2934
  399MOL0     C54979   0.531   4.430   8.270  0.3345  0.1876  0.8469
  399MOL0     C54980   0.554   4.344   8.163  0.8755  0.0426  0.9095
  399MOL0     C54981   0.471   4.236   8.122  0.0821 -0.8100  0.3317
  399MOL0     C54982   0.347   4.222   8.193  0.3794 -0.5734 -0.0083
  399MOL0     O54983   0.265   4.119   8.149 -0.6533 -0.2460 -0.0274
  399MOL0     C54984   0.148   4.094   8.227 -0.2845  0.1359  0.2744
  399MOL0     C54985   0.177   4.011   8.355  0.3307 -0.1161 -0.0275
  399MOL0     C54986   0.233   3.869   8.339  0.4584 -0.4143  0.0784
  399MOL0     C54987   0.263   3.800   8.477 -0.6149  0.1210  0.7253
  399MOL0     C54988   0.145   3.773   8.562  0.0983  0.5274  0.5042
  399MOL0     C54989   0.044   3.750   8.626  0.6305  0.2309 -0.0159
  399MOL0     C54990   0.326   4.296   8.307  0.7378  0.5106 -0.5291
  399MOL0     C54991   0.411   4.402   8.350  0.1577 -0.0335  0.1788
  399MOL0     C54992   0.382   4.469   8.484  0.0302 -0.2754  0.2679
  399MOL0     H54993   0.896   4.585   8.371  2.9147 -1.8303 -0.3009
  399MOL0     H54994   1.096   4.700   8.365  0.1669 -2.5908 -0.5010
  399MOL0     H54995   1.278   4.834   8.004  0.5308  1.0644 -0.0194
  399MOL0     H54996   1.256   4.671   8.098  3.1264 -1.2023  1.8496
  399MOL0     H54997   1.509   4.792   8.112  3.3147  1.0690  3.0795
  399MOL0     H54998   1.424   4.929   8.177 -1.9007  0.4261 -2.5971
  399MOL0     H54999   1.334   4.747   8.366 -1.5779  1.7136 -1.9213
  399MOL0     H55000   1.449   4.641   8.304 -1.4817 -0.1219  1.0770
  399MOL0     H55001   1.624   4.863   8.335 -0.2005  1.5748  1.2817
  399MOL0     H55002   1.495   4.925   8.425 -1.1108 -0.3543 -0.0314
  399MOL0     H55003   1.645   4.661   8.465 -1.6072  1.0923 -3.6619
  399MOL0     H55004   1.489   4.699   8.556 -1.5799 -0.1153 -1.9695
  399MOL0     H55005   1.756   4.859   8.579  1.3162 -1.3970  0.4816
  399MOL0     H55006   1.599   4.889   8.659 -0.0502 -1.0771  1.1477
  399MOL0     H55007   1.801   4.650   8.677  0.6315  0.3464  1.9597
  399MOL0     H55008   1.641   4.626   8.739 -0.2168  0.8962 -0.2807
  399MOL0     H55009   1.799   4.875   8.840 -2.1835  1.0742 -1.5884
  399MOL0     H55010   1.663   4.801   8.914 -0.7255 -2.2521 -0.4962
  399MOL0     H55011   2.050   4.720   8.843 -0.4534  0.1889  0.1212
  399MOL0     H55012   2.192   4.611   9.121 -1.1347 -3.5285  2.2976
  399MOL0     H55013   2.237   4.608   8.957  1.2417  0.6526  0.9626
  399MOL0     H55014   2.126   4.357   9.114  0.7803 -2.9962 -1.7485
  399MOL0     H55015   2.183   4.366   8.944  0.8720 -1.3657 -0.5305
  399MOL0     H55016   2.415   4.417   9.016  0.4042  1.0982 -0.8619
  399MOL0     H55017   2.358   4.443   9.181  0.2357 -1.2729  0.0979
  399MOL0     H55018   2.298   4.190   9.192 -2.7510  3.4267 -0.5925
  399MOL0     H55019   2.362   4.176   9.033 -0.1056  1.2761 -1.2586
  399MOL0     H55020   2.487   3.974   9.117  0.6707 -0.9123  1.4007
  399MOL0     H55021   2.712   3.739   8.993 -1.7528 -3.0955  1.4435
  399MOL0     H55022   2.597   3.808   8.870 -1.4031  0.3233 -0.1107
  399MOL0     H55023   2.540   3.765   9.021  1.4178 -4.4588 -1.8612
  399MOL0     H55024   2.973   4.095   8.557  0.3701  2.4022  1.3163
  399MOL0     H55025   3.153   4.075   8.401 -0.2162  1.9739  0.7777
  399MOL0     H55026   3.343   3.981   8.294 -1.0707  0.0183  1.2910
  399MOL0     H55027   3.432   4.117   8.373 -0.0971 -0.0195  0.9487
  399MOL0     H55028   3.589   3.866   8.323  0.1957 -0.2910 -0.0026
  399MOL0     H55029   3.554   3.988   8.188  0.4489  0.1900 -1.0924
  399MOL0     H55030   3.655   4.050   8.466  0.9650  1.3399  0.0329
  399MOL0     H55031   3.641   4.153   8.327  0.4833  0.3782 -0.1561
  399MOL0     H55032   3.804   4.002   8.202  0.3002 -2.5067 -0.2202
  399MOL0     H55033   3.808   3.897   8.357  1.8043 -0.3063 -0.9740
  399MOL0     H55034   3.927   4.164   8.314  0.1999 -1.2813 -0.2477
  399MOL0     H55035   3.875   4.114   8.469  4.1718  4.0850  0.1669
  399MOL0     H55036   4.066   3.925   8.301 -0.9995 -2.2221  0.4260
  399MOL0     H55037   4.027   3.936   8.473 -0.6380  2.5183  0.4707
  399MOL0     H55038   4.141   4.196   8.411  0.5755  0.4728  1.9805
  399MOL0     H55039   4.228   4.075   8.311 -2.4064 -2.4323 -1.1870
  399MOL0     H55040   4.352   4.113   8.514  2.3597 -2.7314  1.5252
  399MOL0     H55041   4.298   3.949   8.497  1.1129  1.0059 -0.6012
  399MOL0     H55042   3.373   3.876   8.724 -0.2525 -0.2874  0.4672
  399MOL0     H55043   3.194   3.944   8.882  2.4586  1.8431  0.2800
  399MOL0     H55044   2.914   4.198   9.021 -0.0304  0.0720  3.4479
  399MOL0     H55045   2.758   4.302   9.151  1.6317 -0.7215  0.7335
  399MOL0     H55046   0.988   4.855   7.973  1.5307 -0.3132 -0.1194
  399MOL0     H55047   0.789   4.747   7.978  1.5617  0.7062 -0.3165
  399MOL0     H55048   0.644   4.354   8.102 -0.0883  0.0914 -0.5529
  399MOL0     H55049   0.494   4.165   8.044 -1.6178 -1.2725  0.2203
  399MOL0     H55050   0.097   4.188   8.251 -0.8954  1.1368 -4.1136
  399MOL0     H55051   0.084   4.039   8.158  1.2322  1.8943 -2.7534
  399MOL0     H55052   0.086   4.016   8.416  0.9658  0.0135  0.9269
  399MOL0     H55053   0.256   4.057   8.414  1.1209 -2.8526  1.2071
  399MOL0     H55054   0.174   3.813   8.266  2.9019  0.5943 -2.8853
  399MOL0     H55055   0.329   3.885   8.288 -0.7199 -0.4910 -2.3245
  399MOL0     H55056   0.339   3.857   8.532  1.2215  0.6669 -2.1774
  399MOL0     H55057   0.315   3.707   8.453  2.3274  1.4292  1.5302
  399MOL0     H55058  -0.051   3.725   8.669  1.0983 -0.2617  0.7589
  399MOL0     H55059   0.235   4.275   8.363  2.0774 -4.3030  0.2898
  399MOL0     H55060   0.443   4.420   8.560 -1.5941  0.5697  2.2112
  399MOL0     H55061   0.387   4.578   8.480 -1.3422 -0.2120 -0.8555
  399MOL0     H55062   0.277   4.445   8.506 -0.6836  0.8077 -1.7150
  400MOL0     O55063   8.462   8.203   5.199  0.0253 -0.5663 -0.3148
  400MOL0     C55064   8.438   8.305   5.267  0.4554 -0.1620 -0.6381
  400MOL0     O55065   8.497   8.429   5.251  0.3067  0.2195 -0.0399
  400MOL0     C55066   8.588   8.442   5.156  0.4172 -0.5240  0.2005
  400MOL0     C55067   8.566   8.457   5.016 -0.6345  0.1131  0.1959
  400MOL0     C55068   8.670   8.490   4.938 -1.0342 -0.0599  0.1573
  400MOL0     C55069   8.798   8.520   4.997 -0.0067 -0.6384  0.2128
  400MOL0     O55070   8.893   8.553   4.908 -0.4449  0.3811 -0.3955
  400MOL0     C55071   9.023   8.579   4.962 -0.3187  0.1886  0.1283
  400MOL0     C55072   9.099   8.649   4.853 -0.8534 -0.8482  0.0688
  400MOL0     C55073   9.207   8.730   4.927 -0.3121 -0.4004  0.7706
  400MOL0     C55074   9.279   8.819   4.828 -0.6310  0.6203 -0.5428
  400MOL0     C55075   9.381   8.910   4.907 -0.8973 -0.1762  0.2399
  400MOL0     C55076   9.440   9.018   4.815 -0.5152  0.8380  0.1044
  400MOL0     C55077   9.527   8.961   4.702 -0.7613  0.4350 -1.0543
  400MOL0     C55078   9.653   8.902   4.750 -0.8019  0.2324 -0.1681
  400MOL0     N55079   9.721   8.842   4.634 -0.4024  0.0137  0.5320
  400MOL0     C55080   9.789   8.919   4.541  0.5571 -0.8160 -0.1415
  400MOL0     C55081   9.832   8.837   4.441 -0.5993 -0.1304 -0.3695
  400MOL0     C55082   9.875   8.867   4.300  0.3741  0.6215 -0.8067
  400MOL0     C55083  10.015   8.935   4.283  0.0097 -0.3947 -0.0463
  400MOL0     C55084  10.136   8.866   4.348  0.7648 -0.4761 -0.2853
  400MOL0     C55085  10.270   8.909   4.299 -0.0403  0.1557 -0.6817
  400MOL0     O55086  10.273   8.890   4.160 -0.0453 -0.2243  0.0491
  400MOL0     C55087  10.388   8.853   4.092 -0.0579 -0.3887  0.2706
  400MOL0     C55088  10.522   8.856   4.145  0.8216 -0.4888  0.0845
  400MOL0     C55089  10.625   8.837   4.063  0.6061  0.6122  0.2647
  400MOL0     C55090  10.763   8.826   4.118  0.6150 -0.1931  0.3686
  400MOL0     C55091  10.602   8.806   3.922  0.5879 -1.2111 -0.7355
  400MOL0     C55092  10.706   8.761   3.821 -0.3526  0.7778 -0.3564
  400MOL0     O55093  10.656   8.715   3.702  0.0547  0.5941  0.3942
  400MOL0     C55094  10.743   8.667   3.614 -0.0992  0.6553  0.1423
  400MOL0     C55095  10.729   8.540   3.562 -0.1925 -0.0039  0.1118
  400MOL0     C55096  10.827   8.485   3.472 -0.6340 -0.2615 -0.0271
  400MOL0     C55097  10.940   8.558   3.439 -0.8773 -0.3670  1.1074
  400MOL0     O55098  11.044   8.490   3.373  0.0560  1.0360  0.4804
  400MOL0     C55099  11.171   8.560   3.338  0.7815 -0.5286 -0.6946
  400MOL0     C55100  11.275   8.464   3.272 -0.0543  0.4169 -0.0017
  400MOL0     C55101  11.303   8.347   3.365  0.3625 -0.4732 -0.0809
  400MOL0     C55102  11.427   8.277   3.308  0.2919 -0.7524 -0.0163
  400MOL0     C55103  11.454   8.165   3.405  0.0851 -0.6793  0.2240
  400MOL0     C55104  11.590   8.094   3.387 -0.0586  1.1158  0.3438
  400MOL0     C55105  11.606   7.985   3.496 -0.3862  1.1088  0.2485
  400MOL0     C55106  11.729   7.891   3.480 -0.5123  0.2087 -0.2336
  400MOL0    Cl55107  11.737   7.789   3.335 -0.3955 -0.3984  0.1482
  400MOL0     C55108  10.947   8.697   3.486 -1.3002  0.4968 -0.0611
  400MOL0     C55109  10.850   8.740   3.576 -0.1616 -0.1515 -0.5818
  400MOL0     O55110  10.824   8.773   3.851  0.3156  0.7565 -0.4170
  400MOL0     C55111  10.466   8.803   3.868 -0.1254 -0.4444 -0.0745
  400MOL0     C55112  10.358   8.824   3.957 -1.0469 -0.7235 -0.3112
  400MOL0     N55113   9.791   8.711   4.477 -0.1513 -0.1380  0.0418
  400MOL0     N55114   9.722   8.711   4.592 -0.1975  0.0867  0.2015
  400MOL0     C55115   8.816   8.506   5.132  0.0285 -0.1737  0.6801
  400MOL0     C55116   8.711   8.463   5.209 -0.0632  0.5860  0.5256
  400MOL0     C55117   8.336   8.295   5.372 -0.0763  0.5820 -0.8406
  400MOL0     C55118   8.372   8.355   5.496 -0.0188  0.0447  0.1319
  400MOL0     C55119   8.283   8.347   5.602 -0.6352  0.2230 -0.3330
  400MOL0     C55120   8.163   8.275   5.602  0.4543 -0.4562 -0.0278
  400MOL0     O55121   8.092   8.279   5.719  0.0218  0.5382 -0.1830
  400MOL0     C55122   7.974   8.197   5.717  0.2701  0.0250 -0.4636
  400MOL0     C55123   7.915   8.211   5.866  0.4317 -0.0031  0.6717
  400MOL0     C55124   7.767   8.167   5.878 -0.7569  0.6882 -0.1882
  400MOL0     C55125   7.670   8.267   5.816  0.0016  0.2520  0.0358
  400MOL0     C55126   7.538   8.253   5.865  0.0366 -0.1711 -0.7336
  400MOL0     C55127   7.426   8.241   5.925  0.1251 -0.3955 -1.0959
  400MOL0     C55128   8.127   8.220   5.478  0.2065  0.0843  0.0345
  400MOL0     C55129   8.212   8.222   5.369 -0.5628  0.4203 -0.2476
  400MOL0     C55130   8.163   8.145   5.248  0.1495 -0.3878 -0.1954
  400MOL0     H55131   8.474   8.423   4.969  0.6814 -1.1301 -1.6115
  400MOL0     H55132   8.659   8.509   4.831 -3.0526 -0.6597  0.2169
  400MOL0     H55133   9.065   8.487   5.003 -3.2896 -2.0917 -1.4415
  400MOL0     H55134   8.998   8.642   5.047 -1.8166 -2.7534  2.0404
  400MOL0     H55135   9.138   8.579   4.778 -1.0976 -0.1602 -0.7293
  400MOL0     H55136   9.027   8.715   4.804 -1.3805  0.1133  2.0380
  400MOL0     H55137   9.164   8.794   5.005  1.7645 -0.5158  2.0780
  400MOL0     H55138   9.275   8.657   4.972  1.5568  1.7143  1.5994
  400MOL0     H55139   9.334   8.753   4.760 -0.0361  0.5635 -0.0225
  400MOL0     H55140   9.213   8.886   4.772 -2.8294 -0.2275  0.9355
  400MOL0     H55141   9.460   8.846   4.947  1.1777  1.5376 -0.8692
  400MOL0     H55142   9.332   8.961   4.990  1.0128 -2.3252  2.8751
  400MOL0     H55143   9.354   9.069   4.771 -3.5693 -1.3778  3.0121
  400MOL0     H55144   9.500   9.082   4.881  0.3257 -1.4939  1.7517
  400MOL0     H55145   9.554   9.043   4.634 -1.6479 -0.1904 -2.1918
  400MOL0     H55146   9.472   8.888   4.642 -1.2954  0.3449 -0.4670
  400MOL0     H55147   9.719   8.975   4.799  0.5915  0.4111 -2.2076
  400MOL0     H55148   9.628   8.825   4.823 -0.3994  0.5718  0.3353
  400MOL0     H55149   9.799   9.026   4.554 -2.4335 -0.4806  0.2321
  400MOL0     H55150   9.792   8.927   4.259 -2.1444 -1.0906  1.4526
  400MOL0     H55151   9.873   8.770   4.249 -0.1260 -0.4398  1.1567
  400MOL0     H55152  10.030   8.942   4.175 -2.9631  0.1615 -0.5190
  400MOL0     H55153  10.003   9.033   4.330 -2.1823  0.3111 -1.9152
  400MOL0     H55154  10.125   8.881   4.456 -1.0835  0.1766 -0.5381
  400MOL0     H55155  10.127   8.760   4.326  1.9846 -0.4503 -1.0363
  400MOL0     H55156  10.293   9.014   4.322 -2.7328  0.7118 -0.0812
  400MOL0     H55157  10.341   8.839   4.344 -0.5000  0.3740  0.4331
  400MOL0     H55158  10.536   8.878   4.251 -1.3107 -0.7137  0.4533
  400MOL0     H55159  10.811   8.733   4.087  0.7313 -0.5716  1.6477
  400MOL0     H55160  10.767   8.824   4.227 -0.9288  0.8953  0.4871
  400MOL0     H55161  10.822   8.912   4.087  0.0129  0.5375  1.1929
  400MOL0     H55162  10.644   8.480   3.592  0.5295 -0.5495  1.1285
  400MOL0     H55163  10.812   8.382   3.442  1.0402 -1.3454  2.4210
  400MOL0     H55164  11.152   8.653   3.284 -0.6216  0.8884  2.0342
  400MOL0     H55165  11.227   8.595   3.425  0.5057  2.9045 -1.7755
  400MOL0     H55166  11.235   8.431   3.175 -0.1505  0.8361 -0.1079
  400MOL0     H55167  11.368   8.513   3.244  1.0538  0.8404  3.8411
  400MOL0     H55168  11.219   8.277   3.364  0.8164 -1.0404  0.4558
  400MOL0     H55169  11.330   8.388   3.463  0.3534  2.1932 -1.0949
  400MOL0     H55170  11.509   8.349   3.298 -1.1494  1.0306  0.6734
  400MOL0     H55171  11.412   8.242   3.205  1.2844  0.7328 -0.7036
  400MOL0     H55172  11.443   8.201   3.508  0.3564 -0.7235  0.2691
  400MOL0     H55173  11.383   8.082   3.390 -0.0009 -0.2181 -2.3696
  400MOL0     H55174  11.680   8.155   3.401  0.7526  0.0202 -0.0047
  400MOL0     H55175  11.592   8.047   3.288  1.3683 -0.6247  1.1556
  400MOL0     H55176  11.524   7.914   3.502  0.7700 -0.3762 -0.7851
  400MOL0     H55177  11.611   8.041   3.590 -2.6577  1.6976  0.0824
  400MOL0     H55178  11.737   7.832   3.571  0.8092  0.1438 -0.3617
  400MOL0     H55179  11.821   7.950   3.484  0.0395 -0.6905  1.3596
  400MOL0     H55180  11.027   8.755   3.442 -0.8945 -0.0265 -0.0216
  400MOL0     H55181  10.857   8.845   3.602  2.5135  0.8635 -4.5142
  400MOL0     H55182  10.446   8.789   3.763  2.3964  2.6825 -1.1199
  400MOL0     H55183  10.259   8.813   3.913 -1.9922  1.1927  1.1978
  400MOL0     H55184   8.911   8.515   5.184 -0.6944  1.5198  1.7953
  400MOL0     H55185   8.707   8.453   5.317  0.0245  2.3946  0.7257
  400MOL0     H55186   8.462   8.411   5.521 -1.0947  1.7912  0.3302
  400MOL0     H55187   8.308   8.409   5.688 -0.2139  2.8598 -2.2275
  400MOL0     H55188   7.892   8.227   5.652 -0.3896  1.8020  1.0852
  400MOL0     H55189   7.999   8.091   5.702 -0.4249 -0.2814  0.4123
  400MOL0     H55190   7.941   8.309   5.907  0.2163 -0.1414  1.1377
  400MOL0     H55191   7.974   8.145   5.930  0.4751  1.7380  2.4911
  400MOL0     H55192   7.759   8.070   5.828 -1.0726 -1.9493  4.4398
  400MOL0     H55193   7.735   8.141   5.979 -1.2277  0.9006 -0.2790
  400MOL0     H55194   7.673   8.265   5.707 -2.5495 -0.4197 -0.1024
  400MOL0     H55195   7.706   8.364   5.852  2.8571 -1.4810  2.2304
  400MOL0     H55196   7.336   8.226   5.980 -0.6917  1.3238 -1.8880
  400MOL0     H55197   8.037   8.161   5.488 -0.6807  1.2816 -0.6101
  400MOL0     H55198   8.210   8.047   5.240 -0.3476 -0.6670  0.2484
  400MOL0     H55199   8.056   8.127   5.257  0.1133  0.2928  1.1126
  400MOL0     H55200   8.166   8.203   5.155 -1.6316 -1.3057 -0.8682
  401MOL0     O55201   7.625   9.614   2.511  0.3663  0.5280  0.1821
  401MOL0     C55202   7.520   9.614   2.447 -0.1658  1.2052  0.5975
  401MOL0     O55203   7.506   9.673   2.322 -0.5285 -0.4908  0.2144
  401MOL0     C55204   7.616   9.710   2.250 -0.5157  0.3759  0.8271
  401MOL0     C55205   7.724   9.780   2.305  0.5909 -0.0334 -0.5481
  401MOL0     C55206   7.831   9.814   2.216 -0.1042  0.1371 -0.0398
  401MOL0     C55207   7.832   9.770   2.080  0.4151  0.2015 -0.0794
  401MOL0     O55208   7.931   9.806   1.990 -0.5647 -0.7161 -0.5124
  401MOL0     C55209   8.003   9.933   2.001 -0.2268 -0.4256 -0.3340
  401MOL0     C55210   8.125   9.941   1.911 -0.0003  0.4956 -0.9533
  401MOL0     C55211   8.198  10.073   1.946 -0.7581  0.4887  0.5284
  401MOL0     C55212   8.336  10.081   1.872  0.3056  0.6014 -0.1542
  401MOL0     C55213   8.404  10.217   1.890 -0.0106  0.7478  0.0053
  401MOL0     C55214   8.526  10.236   1.788 -0.0337 -0.1682  0.7714
  401MOL0     C55215   8.624  10.336   1.847 -0.1062 -0.5752  0.1082
  401MOL0     C55216   8.748  10.345   1.764 -0.5421  0.2014  1.0431
  401MOL0     N55217   8.836  10.454   1.829  0.2442 -0.2302  0.7133
  401MOL0     C55218   8.946  10.432   1.912 -0.0009  0.3958 -0.0779
  401MOL0     C55219   8.983  10.549   1.953 -0.2800 -0.0690  0.2356
  401MOL0     C55220   9.084  10.583   2.063  0.3159  0.2649  0.2526
  401MOL0     C55221   9.141  10.727   2.051  0.2753 -0.4158  0.7729
  401MOL0     C55222   9.244  10.769   2.151 -0.6607  0.7681 -0.6473
  401MOL0     C55223   9.367  10.679   2.176 -0.3518  0.6875 -0.0543
  401MOL0     O55224   9.454  10.714   2.062 -0.8258  0.0823 -0.1307
  401MOL0     C55225   9.579  10.667   2.058 -0.3082  0.4169 -0.3307
  401MOL0     C55226   9.590  10.538   2.012 -0.0140  0.2154 -0.7234
  401MOL0     C55227   9.709  10.463   2.028  0.1702  0.3375  0.1147
  401MOL0     C55228   9.711  10.319   1.987  0.0233 -0.1585 -0.4785
  401MOL0     C55229   9.824  10.539   2.061 -0.7069 -0.9525  0.3447
  401MOL0     C55230   9.958  10.483   2.041  0.2111 -0.4629 -0.9383
  401MOL0     O55231  10.064  10.535   2.122  0.2149 -0.3244 -0.2702
  401MOL0     C55232  10.193  10.511   2.079 -0.2535  0.8349 -0.3949
  401MOL0     C55233  10.245  10.560   1.957  0.4809 -0.5192 -0.5936
  401MOL0     C55234  10.386  10.554   1.936 -0.1062  0.3091 -0.4777
  401MOL0     C55235  10.471  10.487   2.036  1.2182 -0.4959  0.1104
  401MOL0     O55236  10.609  10.462   2.031  0.5811 -0.5085 -0.6595
  401MOL0     C55237  10.682  10.540   1.929  0.0826 -0.5168  0.9273
  401MOL0     C55238  10.835  10.533   1.942 -0.4432 -0.6209 -0.5771
  401MOL0     C55239  10.883  10.385   1.959 -0.0318 -0.4138  0.5832
  401MOL0     C55240  11.020  10.390   1.999 -1.0830  0.2095  1.2580
  401MOL0     C55241  11.107  10.261   1.976 -0.3839 -0.0890 -0.0586
  401MOL0     C55242  11.086  10.164   2.093  0.4633  0.2654 -0.2453
  401MOL0     C55243  11.187  10.044   2.070  0.4522 -0.4261 -1.1248
  401MOL0     C55244  11.223   9.978   2.198 -0.0354  0.5426 -0.4915
  401MOL0    Cl55245  11.350   9.856   2.168 -0.0137 -0.1171  0.0845
  401MOL0     C55246  10.412  10.425   2.149  0.5386  0.2126 -0.0642
  401MOL0     C55247  10.279  10.443   2.166  0.4067 -1.0620  0.2946
  401MOL0     O55248   9.974  10.406   1.950  0.0915 -0.0562  0.1611
  401MOL0     C55249   9.818  10.678   2.078  0.7222  0.3625  0.6685
  401MOL0     C55250   9.696  10.742   2.072  0.2310 -0.4207 -0.0462
  401MOL0     N55251   8.907  10.649   1.886  0.8668  0.2663  0.7221
  401MOL0     N55252   8.811  10.591   1.825 -0.0533  0.5864 -0.2019
  401MOL0     C55253   7.718   9.714   2.029  0.7154  0.8197 -0.4403
  401MOL0     C55254   7.614   9.684   2.115 -0.1980 -0.7566  0.3062
  401MOL0     C55255   7.404   9.539   2.504  0.3714 -0.2068 -0.1046
  401MOL0     C55256   7.401   9.525   2.646 -0.6344  0.6315  0.6372
  401MOL0     C55257   7.305   9.444   2.707  1.0166  0.3320  0.3157
  401MOL0     C55258   7.209   9.376   2.637 -1.0464  0.4880 -0.4156
  401MOL0     O55259   7.112   9.310   2.704  0.0777  0.0127 -0.2705
  401MOL0     C55260   7.014   9.220   2.655 -0.4183 -1.2060 -0.0058
  401MOL0     C55261   6.934   9.168   2.781 -0.2363 -0.0563  0.8379
  401MOL0     C55262   6.983   9.026   2.819  0.4534 -0.0404  0.3382
  401MOL0     C55263   7.135   9.015   2.852  0.1700  0.4586 -0.1275
  401MOL0     C55264   7.161   9.062   2.983 -0.0533 -0.2904  0.0032
  401MOL0     C55265   7.183   9.107   3.098  0.3339 -0.4994  0.6388
  401MOL0     C55266   7.212   9.382   2.497 -0.0573 -0.7486 -0.0980
  401MOL0     C55267   7.301   9.469   2.434  0.1461 -0.3860 -0.0175
  401MOL0     C55268   7.297   9.475   2.282 -0.0292 -0.7166  0.2801
  401MOL0     H55269   7.738   9.807   2.409  0.1129  2.8048 -1.1518
  401MOL0     H55270   7.925   9.846   2.261  0.6100 -0.7987 -0.8288
  401MOL0     H55271   8.036   9.951   2.104  1.2902 -0.7163 -0.7464
  401MOL0     H55272   7.931  10.012   1.981 -1.0695  0.2386  4.1526
  401MOL0     H55273   8.197   9.864   1.941  0.0076 -0.5845 -3.5267
  401MOL0     H55274   8.105   9.931   1.804  1.0016 -0.8599 -1.0440
  401MOL0     H55275   8.141  10.157   1.908  0.6013  1.1937 -0.0072
  401MOL0     H55276   8.216  10.079   2.054  0.6794 -0.0072  0.3441
  401MOL0     H55277   8.397   9.996   1.907 -0.0218  1.2363  2.1078
  401MOL0     H55278   8.309  10.070   1.766  2.0942  2.2213 -0.8325
  401MOL0     H55279   8.415  10.241   1.996 -0.5699 -1.9221  0.7357
  401MOL0     H55280   8.327  10.292   1.866 -2.3879 -0.9224  1.9449
  401MOL0     H55281   8.582  10.142   1.784  0.6136  0.1824  1.5005
  401MOL0     H55282   8.483  10.268   1.693  2.2944 -1.7904 -0.9253
  401MOL0     H55283   8.655  10.309   1.949 -1.7319  1.5519  1.2641
  401MOL0     H55284   8.588  10.439   1.856  1.9995  0.0532  2.6707
  401MOL0     H55285   8.805  10.251   1.764 -1.3353 -0.3276 -0.6994
  401MOL0     H55286   8.720  10.362   1.660 -1.4741 -0.2931  1.2046
  401MOL0     H55287   8.982  10.332   1.935 -1.0395 -0.7668 -3.0310
  401MOL0     H55288   9.167  10.515   2.042 -0.2292  0.1967 -1.9451
  401MOL0     H55289   9.040  10.556   2.159 -0.9512  0.6900 -0.1861
  401MOL0     H55290   9.173  10.744   1.948  1.7580 -1.2672  1.0745
  401MOL0     H55291   9.060  10.798   2.072  0.7436  0.3408  0.0548
  401MOL0     H55292   9.271  10.874   2.140  1.4233  0.4635  0.7918
  401MOL0     H55293   9.189  10.773   2.245 -0.4605  0.5251 -0.5169
  401MOL0     H55294   9.418  10.700   2.270 -0.9606 -0.0646  0.4498
  401MOL0     H55295   9.338  10.574   2.185  2.5489 -0.1992  0.1761
  401MOL0     H55296   9.503  10.488   1.973 -0.4469  1.3826 -1.3150
  401MOL0     H55297   9.620  10.274   2.028  0.1551  1.3525  1.6086
  401MOL0     H55298   9.790  10.255   2.026  1.2434  0.7359 -1.4055
  401MOL0     H55299   9.706  10.314   1.878  0.5789  1.7785 -0.6152
  401MOL0     H55300  10.175  10.615   1.895 -1.4056 -0.8596  1.1160
  401MOL0     H55301  10.428  10.595   1.844 -1.0861  0.9960 -0.6350
  401MOL0     H55302  10.650  10.506   1.830  3.2208  0.9575 -0.7538
  401MOL0     H55303  10.665  10.648   1.925 -1.0759 -0.7159  0.0786
  401MOL0     H55304  10.873  10.592   1.857 -0.9566  0.9831  0.2801
  401MOL0     H55305  10.868  10.579   2.035  2.1264 -0.8681 -1.2867
  401MOL0     H55306  10.864  10.315   1.877 -2.3870 -0.2705  0.9344
  401MOL0     H55307  10.832  10.343   2.047  0.2675 -3.6103 -0.6140
  401MOL0     H55308  11.015  10.428   2.101 -3.1367  3.0284  0.2475
  401MOL0     H55309  11.075  10.472   1.950  1.9094 -0.0972  3.7719
  401MOL0     H55310  11.066  10.207   1.890 -2.1606 -1.1203  1.3468
  401MOL0     H55311  11.208  10.289   1.946  0.3023 -2.1966  0.0881
  401MOL0     H55312  10.985  10.123   2.096  2.4004 -5.6477 -1.6324
  401MOL0     H55313  11.106  10.203   2.194  2.0615 -1.8156  0.3302
  401MOL0     H55314  11.279  10.080   2.023  0.9195 -0.5023 -0.2979
  401MOL0     H55315  11.145   9.966   2.005 -1.0257 -0.0751 -0.6411
  401MOL0     H55316  11.131   9.930   2.233  0.1859 -0.7022 -1.5356
  401MOL0     H55317  11.259  10.045   2.276 -1.5275  0.6915  0.0947
  401MOL0     H55318  10.465  10.355   2.213 -0.5810 -0.7477 -0.1503
  401MOL0     H55319  10.225  10.403   2.252 -0.0641  0.4524  0.7400
  401MOL0     H55320   9.914  10.730   2.080  0.5313  0.7128  2.4124
  401MOL0     H55321   9.696  10.850   2.081 -0.3600 -0.3969 -0.3034
  401MOL0     H55322   7.701   9.696   1.924  2.7894  2.0768 -1.0472
  401MOL0     H55323   7.527   9.639   2.068  1.4310 -2.8722 -0.8703
  401MOL0     H55324   7.487   9.565   2.699 -0.7810  1.6973  0.1124
  401MOL0     H55325   7.312   9.426   2.813  2.7213  2.9730  0.7470
  401MOL0     H55326   6.939   9.270   2.593  1.2566  1.7704  0.1815
  401MOL0     H55327   7.049   9.138   2.590 -0.2268 -1.8830  0.9326
  401MOL0     H55328   6.827   9.166   2.759 -0.1163 -2.6551  0.1314
  401MOL0     H55329   6.948   9.238   2.864  0.5591  2.6319 -1.4092
  401MOL0     H55330   6.926   8.997   2.908 -1.1814  3.0700  0.4332
  401MOL0     H55331   6.963   8.953   2.740  1.2236  1.5230 -1.3704
  401MOL0     H55332   7.198   9.067   2.780  3.8453 -2.4361  0.6765
  401MOL0     H55333   7.163   8.909   2.842  1.9713  1.0037 -1.3784
  401MOL0     H55334   7.192   9.121   3.204  0.0956  1.7153  0.4226
  401MOL0     H55335   7.139   9.343   2.426  3.3089 -0.0556 -4.3919
  401MOL0     H55336   7.396   9.458   2.236 -0.8118  0.2099 -1.8977
  401MOL0     H55337   7.235   9.391   2.249  0.7285 -1.4536  0.6793
  401MOL0     H55338   7.257   9.568   2.241 -1.0311 -1.1494  0.2442
  402MOL0     O55339   8.728   3.530   2.525  0.4061  0.2373 -0.5283
  402MOL0     C55340   8.716   3.654   2.514  0.3831 -0.0140 -0.6371
  402MOL0     O55341   8.793   3.737   2.597 -0.7154 -0.2275  0.2850
  402MOL0     C55342   8.864   3.677   2.706  1.0811  0.0577  0.1193
  402MOL0     C55343   8.999   3.645   2.696 -0.2052  0.8496 -0.9827
  402MOL0     C55344   9.071   3.608   2.814  0.5168  0.4984  0.6598
  402MOL0     C55345   9.011   3.590   2.930  0.3855 -0.2071  0.1061
  402MOL0     O55346   9.083   3.554   3.042 -0.3648  0.5973 -0.1552
  402MOL0     C55347   9.024   3.472   3.141  0.4292 -0.0904  0.1924
  402MOL0     C55348   9.116   3.417   3.241  0.1174 -0.8334  0.3619
  402MOL0     C55349   9.240   3.497   3.276  0.6540 -0.7984 -0.0136
  402MOL0     C55350   9.368   3.445   3.231  0.1415 -0.2721 -0.0552
  402MOL0     C55351   9.392   3.438   3.081  0.0484  0.4209 -0.1376
  402MOL0     C55352   9.527   3.365   3.061  0.4188  0.2768  0.6163
  402MOL0     C55353   9.547   3.357   2.910  0.0437 -0.3375 -0.7038
  402MOL0     C55354   9.656   3.257   2.867 -0.3214 -0.4712  0.3597
  402MOL0     N55355   9.786   3.316   2.904 -0.3872 -0.4132  0.6776
  402MOL0     C55356   9.841   3.316   3.028 -0.3606  0.3599 -0.0823
  402MOL0     C55357   9.953   3.400   3.013 -0.4175  0.0843 -0.4449
  402MOL0     C55358  10.055   3.440   3.119  0.2081 -0.0594 -0.1798
  402MOL0     C55359  10.158   3.339   3.156 -0.2966  0.1753 -0.5596
  402MOL0     C55360  10.257   3.405   3.255 -0.1395  0.1503 -0.3257
  402MOL0     C55361  10.361   3.292   3.311 -0.0478  0.3619  0.0659
  402MOL0     O55362  10.445   3.353   3.406 -0.7160 -0.2583 -0.0726
  402MOL0     C55363  10.553   3.282   3.460 -0.2923 -0.3902 -0.6591
  402MOL0     C55364  10.588   3.153   3.422  0.9695 -0.2513 -0.0398
  402MOL0     C55365  10.669   3.067   3.497 -0.0260 -0.4847 -0.1378
  402MOL0     C55366  10.664   2.919   3.470  0.1942  0.3110  0.1600
  402MOL0     C55367  10.733   3.128   3.611  0.1869  0.9796 -0.4144
  402MOL0     C55368  10.830   3.049   3.688 -0.0562 -0.2997 -0.6821
  402MOL0     O55369  10.921   3.115   3.764 -0.1315 -0.1430 -0.5815
  402MOL0     C55370  10.994   3.029   3.848 -0.0245 -0.4303  0.3682
  402MOL0     C55371  11.117   2.973   3.806 -1.8088 -0.1795 -0.4401
  402MOL0     C55372  11.185   2.866   3.876 -0.4825  0.0490 -0.0762
  402MOL0     C55373  11.126   2.815   3.992  0.3467  0.2507  0.2621
  402MOL0     O55374  11.182   2.723   4.074  0.1507  0.3995  0.1967
  402MOL0     C55375  11.306   2.660   4.034  0.4957  0.3608  0.6553
  402MOL0     C55376  11.340   2.531   4.115 -0.3325 -0.3579  1.1709
  402MOL0     C55377  11.228   2.425   4.076  0.2892 -0.3301  0.4199
  402MOL0     C55378  11.274   2.281   4.109 -0.8737  1.9736 -0.3376
  402MOL0     C55379  11.169   2.175   4.068  0.9952  0.8879  0.8453
  402MOL0     C55380  11.195   2.037   4.118 -0.4518 -1.4403 -0.0119
  402MOL0     C55381  11.271   1.943   4.027  0.9901  0.1464  0.1925
  402MOL0     C55382  11.232   1.802   4.056  0.3042  0.4411  1.0288
  402MOL0    Cl55383  11.280   1.745   4.216 -0.0798 -0.4136 -0.1798
  402MOL0     C55384  11.000   2.866   4.033 -0.5063 -0.3791 -0.1526
  402MOL0     C55385  10.941   2.971   3.967  0.4596 -0.1041 -0.1155
  402MOL0     O55386  10.815   2.927   3.693 -0.0947 -0.3493 -0.5181
  402MOL0     C55387  10.699   3.256   3.647 -0.0678  0.0166 -0.6051
  402MOL0     C55388  10.606   3.329   3.577 -0.1983 -0.1652  0.1568
  402MOL0     N55389   9.967   3.434   2.881 -0.6668 -0.5482  0.0133
  402MOL0     N55390   9.865   3.387   2.813  0.1667 -1.1016  0.3324
  402MOL0     C55391   8.870   3.608   2.943 -0.6324 -0.0088  0.1207
  402MOL0     C55392   8.794   3.657   2.830  0.2831 -0.1108 -0.5264
  402MOL0     C55393   8.625   3.716   2.426 -0.1181  0.0957  0.2260
  402MOL0     C55394   8.607   3.853   2.424 -0.1666 -0.6222  0.7255
  402MOL0     C55395   8.516   3.918   2.347 -0.4741  0.3099  0.0103
  402MOL0     C55396   8.437   3.841   2.254 -0.4367  0.5660 -0.5947
  402MOL0     O55397   8.346   3.888   2.164 -0.1283 -0.1661 -0.1959
  402MOL0     C55398   8.362   4.010   2.095 -0.0415  0.6689 -0.4126
  402MOL0     C55399   8.233   4.038   2.013 -0.8833  0.7773 -0.3513
  402MOL0     C55400   8.239   4.162   1.921 -0.0626  0.3598  0.5013
  402MOL0     C55401   8.127   4.152   1.819  0.0983  0.8427  0.4467
  402MOL0     C55402   8.131   4.263   1.723 -0.8352 -0.1399 -0.4717
  402MOL0     C55403   8.153   4.349   1.641  0.6705 -0.0463  1.0492
  402MOL0     C55404   8.458   3.705   2.253 -0.3117  1.2591  1.4940
  402MOL0     C55405   8.550   3.641   2.333  0.1759  0.7770 -0.0307
  402MOL0     C55406   8.560   3.490   2.311  1.1845 -0.7996 -0.6064
  402MOL0     H55407   9.051   3.655   2.601 -0.9151 -0.9339 -1.6042
  402MOL0     H55408   9.177   3.595   2.792 -0.1646  1.2954 -4.4331
  402MOL0     H55409   8.974   3.388   3.094 -1.3419  0.8068  0.3976
  402MOL0     H55410   8.954   3.538   3.193 -0.0474  1.0649 -1.8126
  402MOL0     H55411   9.053   3.391   3.326 -2.9438  0.4257 -1.3532
  402MOL0     H55412   9.143   3.319   3.200 -1.5369 -1.8367  1.5645
  402MOL0     H55413   9.232   3.600   3.241  1.5443 -0.9629 -0.7596
  402MOL0     H55414   9.260   3.505   3.383 -1.5955  1.1105  0.3432
  402MOL0     H55415   9.449   3.513   3.260 -0.7786  1.0358 -0.4387
  402MOL0     H55416   9.383   3.346   3.275 -0.6101 -1.5211 -2.4322
  402MOL0     H55417   9.396   3.539   3.038 -1.2458 -0.7834 -3.4718
  402MOL0     H55418   9.319   3.372   3.033  2.7826 -3.9002  1.0767
  402MOL0     H55419   9.609   3.409   3.119 -0.5899  0.0373  2.3062
  402MOL0     H55420   9.511   3.267   3.106  2.6739  0.7452  2.6737
  402MOL0     H55421   9.564   3.455   2.866  1.2352 -0.4134 -0.4640
  402MOL0     H55422   9.452   3.331   2.863 -0.7566  0.2176  0.5576
  402MOL0     H55423   9.652   3.160   2.917 -2.4114 -0.6061  0.0056
  402MOL0     H55424   9.649   3.253   2.758 -0.3986  4.5617 -0.0896
  402MOL0     H55425   9.801   3.284   3.123  0.3493 -0.4548 -0.0428
  402MOL0     H55426   9.993   3.473   3.203 -1.5504  0.2859 -1.5418
  402MOL0     H55427  10.107   3.527   3.078  1.2111 -0.2284  0.7068
  402MOL0     H55428  10.111   3.250   3.198  1.8171 -0.3796  0.8059
  402MOL0     H55429  10.204   3.307   3.061  0.3470  0.9506 -0.5218
  402MOL0     H55430  10.315   3.483   3.205  1.3124 -0.3873  0.4468
  402MOL0     H55431  10.212   3.447   3.345  0.7286 -1.1504  0.7611
  402MOL0     H55432  10.311   3.204   3.352 -1.3342 -0.1263 -2.3416
  402MOL0     H55433  10.421   3.261   3.225 -1.9158  1.9018 -1.9333
  402MOL0     H55434  10.521   3.115   3.346  1.1713 -0.5318 -0.0754
  402MOL0     H55435  10.623   2.908   3.369  2.5111  0.8487 -0.9041
  402MOL0     H55436  10.605   2.861   3.542  1.7626 -2.4667 -0.6223
  402MOL0     H55437  10.757   2.862   3.466  0.5412  0.6458  2.4417
  402MOL0     H55438  11.162   3.008   3.714 -1.3083 -0.5422 -0.3357
  402MOL0     H55439  11.286   2.837   3.849 -0.5717  1.3010 -1.9600
  402MOL0     H55440  11.304   2.648   3.925 -1.2455  2.3279  0.3928
  402MOL0     H55441  11.388   2.731   4.049  1.1171 -0.5325  1.6144
  402MOL0     H55442  11.437   2.493   4.082  0.2033 -0.7565  3.0987
  402MOL0     H55443  11.341   2.551   4.222  1.6159  3.5671  0.5906
  402MOL0     H55444  11.211   2.437   3.968 -1.7818  1.7928  0.8871
  402MOL0     H55445  11.135   2.453   4.126  0.4663  1.3610 -0.1145
  402MOL0     H55446  11.292   2.275   4.216 -2.0053  1.4097 -0.1637
  402MOL0     H55447  11.370   2.257   4.062 -1.7749 -0.7842 -0.9619
  402MOL0     H55448  11.071   2.211   4.102  0.2988  0.8889 -1.0164
  402MOL0     H55449  11.172   2.172   3.958  1.9339 -0.0051  0.8786
  402MOL0     H55450  11.101   1.982   4.131 -0.5289 -1.1278  0.7890
  402MOL0     H55451  11.250   2.056   4.211 -2.0288  0.6811  0.5848
  402MOL0     H55452  11.378   1.965   4.035  0.4821  2.9882  0.3182
  402MOL0     H55453  11.240   1.977   3.928  0.6677  1.9176  0.8733
  402MOL0     H55454  11.294   1.752   3.982 -0.2062  1.1090  0.1357
  402MOL0     H55455  11.126   1.783   4.034 -0.2463  1.6279  2.4950
  402MOL0     H55456  10.960   2.819   4.122  1.0384 -0.4038  0.5592
  402MOL0     H55457  10.841   3.005   3.993  1.0213  0.1164  1.9585
  402MOL0     H55458  10.740   3.294   3.740  1.0239 -2.2728 -0.1078
  402MOL0     H55459  10.572   3.427   3.610 -1.8539 -0.1569 -1.3990
  402MOL0     H55460   8.827   3.599   3.042  3.1265 -0.3567  1.9054
  402MOL0     H55461   8.686   3.671   2.837  0.0735 -2.2867  4.0971
  402MOL0     H55462   8.668   3.917   2.486 -1.1964 -0.4631  1.6108
  402MOL0     H55463   8.513   4.026   2.352 -3.3151  0.3126  0.0449
  402MOL0     H55464   8.380   4.107   2.143 -2.2971  0.0697  1.8785
  402MOL0     H55465   8.434   4.002   2.013 -0.1616  1.8251 -0.6549
  402MOL0     H55466   8.143   4.052   2.074 -0.1043 -0.2395  1.0856
  402MOL0     H55467   8.213   3.947   1.956  0.0605 -0.5918  1.4390
  402MOL0     H55468   8.234   4.253   1.982  0.6778  1.0468 -0.4487
  402MOL0     H55469   8.335   4.162   1.868  0.3599  0.4617  1.2460
  402MOL0     H55470   8.031   4.155   1.871 -1.2886 -2.3767 -1.6609
  402MOL0     H55471   8.117   4.057   1.766 -2.3003  1.0859  0.3387
  402MOL0     H55472   8.144   4.418   1.561 -0.3475 -2.6081 -1.2059
  402MOL0     H55473   8.391   3.650   2.187 -0.8950  2.3618  1.1436
  402MOL0     H55474   8.502   3.466   2.222 -0.2577  1.2053 -0.2911
  402MOL0     H55475   8.664   3.466   2.286  0.5205 -2.6953 -1.6923
  402MOL0     H55476   8.520   3.425   2.389  2.0961 -2.6424 -1.6276
  403MOL0     O55477   6.230   4.999  10.117  0.2651  0.3508  0.4715
  403MOL0     C55478   6.222   4.876  10.102  0.3410 -0.7809  0.2930
  403MOL0     O55479   6.127   4.795  10.154  0.1001  0.1975  0.6172
  403MOL0     C55480   6.016   4.856  10.203 -0.1018  0.9186 -0.2366
  403MOL0     C55481   5.907   4.864  10.123  0.0216  0.5068  0.3701
  403MOL0     C55482   5.788   4.927  10.166  0.1340  0.4229  0.7026
  403MOL0     C55483   5.778   4.993  10.282 -0.5222 -0.2543 -0.2222
  403MOL0     O55484   5.662   5.061  10.307  0.8706  0.2317  0.8026
  403MOL0     C55485   5.636   5.118  10.438 -0.1828 -0.2333 -0.3165
  403MOL0     C55486   5.489   5.166  10.439  0.0996 -0.1424  0.0653
  403MOL0     C55487   5.453   5.199  10.587  0.7138  0.3613  0.2243
  403MOL0     C55488   5.304   5.255  10.586  0.0956  0.1202  0.4987
  403MOL0     C55489   5.261   5.297  10.729 -0.7220 -0.0513  0.0813
  403MOL0     C55490   5.115   5.321  10.747  0.4654 -0.0984  0.4374
  403MOL0     C55491   5.069   5.472  10.726 -0.2864  0.4788 -0.2461
  403MOL0     C55492   4.922   5.495  10.777  0.8268 -0.0269  0.2686
  403MOL0     N55493   4.915   5.467  10.921  0.8069  0.3553 -0.1226
  403MOL0     C55494   4.853   5.369  10.986 -0.5272  0.7459 -0.6103
  403MOL0     C55495   4.876   5.397  11.121  0.0098 -0.4551 -0.3213
  403MOL0     C55496   4.823   5.313  11.238 -0.1765 -0.5736 -0.1386
  403MOL0     C55497   4.915   5.204  11.283  0.4732  0.3516 -0.4560
  403MOL0     C55498   5.055   5.255  11.320  0.5316 -0.5112  0.4874
  403MOL0     C55499   5.157   5.143  11.338 -0.0364  0.2883 -0.3793
  403MOL0     O55500   5.176   5.052  11.226 -0.5071 -0.2113  0.0791
  403MOL0     C55501   5.304   4.997  11.214 -0.0238  0.8792 -0.5968
  403MOL0     C55502   5.385   5.036  11.109 -0.6586 -0.8210 -0.5054
  403MOL0     C55503   5.527   4.993  11.100 -0.5776 -0.3161 -0.3813
  403MOL0     C55504   5.626   5.042  10.995  0.1630 -0.7682  1.1473
  403MOL0     C55505   5.557   4.880  11.181  0.1973  0.2017 -0.2830
  403MOL0     C55506   5.687   4.807  11.174  0.8829  0.5386  0.5368
  403MOL0     O55507   5.679   4.670  11.150  0.1775 -0.3464 -0.5444
  403MOL0     C55508   5.795   4.604  11.158 -0.2484  1.0097  0.1848
  403MOL0     C55509   5.894   4.602  11.257 -0.8937 -0.4648  0.3514
  403MOL0     C55510   6.006   4.517  11.241  0.6112 -0.4393 -0.7630
  403MOL0     C55511   6.020   4.432  11.131  0.0086  0.2948 -0.8606
  403MOL0     O55512   6.129   4.353  11.112  0.1174  0.9116  0.4749
  403MOL0     C55513   6.243   4.347  11.202 -0.0019 -0.1918 -0.0912
  403MOL0     C55514   6.345   4.252  11.138 -0.0124  0.1812  0.4217
  403MOL0     C55515   6.457   4.207  11.234  0.3247 -0.1198  0.0170
  403MOL0     C55516   6.545   4.319  11.293  0.0248 -0.7718  0.3032
  403MOL0     C55517   6.664   4.250  11.360 -1.1319  0.0113 -0.5341
  403MOL0     C55518   6.770   4.357  11.390 -0.5943 -0.0981 -0.1073
  403MOL0     C55519   6.894   4.294  11.466  0.1981 -0.1769  0.1504
  403MOL0     C55520   6.990   4.233  11.367 -0.5066  0.8419  0.3321
  403MOL0    Cl55521   7.120   4.184  11.457 -0.2166  0.2877  0.0402
  403MOL0     C55522   5.918   4.430  11.032  0.2860  0.7958 -0.4293
  403MOL0     C55523   5.813   4.521  11.039 -0.2483 -0.9293 -0.6492
  403MOL0     O55524   5.786   4.873  11.189 -0.2806 -0.2490 -0.9616
  403MOL0     C55525   5.464   4.830  11.275  0.4043 -0.4469  1.1087
  403MOL0     C55526   5.345   4.897  11.302  0.5552  0.0632  0.4266
  403MOL0     N55527   4.938   5.523  11.134  0.0940 -0.4005 -0.2316
  403MOL0     N55528   4.966   5.555  11.011  0.1198 -0.3439 -0.2722
  403MOL0     C55529   5.896   4.992  10.369 -0.1745  0.3593  0.2031
  403MOL0     C55530   6.013   4.923  10.325  0.8578 -0.3231 -0.1699
  403MOL0     C55531   6.331   4.805  10.037 -0.4574  0.1916  0.6980
  403MOL0     C55532   6.451   4.869  10.018  1.1275 -0.2276  0.8717
  403MOL0     C55533   6.553   4.805   9.951 -0.3363  0.4102 -0.3532
  403MOL0     C55534   6.540   4.671   9.902 -0.0822  0.5629 -0.0644
  403MOL0     O55535   6.654   4.610   9.845  0.6775 -0.1204 -1.2564
  403MOL0     C55536   6.656   4.474   9.809  0.1255  0.3139 -0.1480
  403MOL0     C55537   6.796   4.443   9.747  0.2815 -0.7070 -0.6074
  403MOL0     C55538   6.814   4.294   9.733 -0.5257  0.2513  1.0003
  403MOL0     C55539   6.941   4.244   9.651  0.5888 -0.2093  0.3828
  403MOL0     C55540   6.899   4.115   9.592 -1.1717 -0.1046  0.5883
  403MOL0     C55541   6.865   4.011   9.546 -0.1304  0.2007  0.0636
  403MOL0     C55542   6.418   4.604   9.920 -1.0906 -0.1903 -0.2616
  403MOL0     C55543   6.316   4.675   9.976  0.6082  0.8522 -0.2401
  403MOL0     C55544   6.184   4.602   9.961 -0.0927 -0.5987  0.3279
  403MOL0     H55545   5.924   4.829  10.022 -2.5726 -0.1391  0.1061
  403MOL0     H55546   5.697   4.938  10.107  0.1241  0.1706  0.6681
  403MOL0     H55547   5.706   5.198  10.466  0.9324 -2.1100  2.6995
  403MOL0     H55548   5.645   5.044  10.518 -1.5167  2.3590  2.4288
  403MOL0     H55549   5.486   5.252  10.372  0.7786  1.3909  1.9099
  403MOL0     H55550   5.421   5.091  10.397 -2.5513  2.1841 -0.1239
  403MOL0     H55551   5.453   5.111  10.651 -0.5107 -1.3497 -1.9823
  403MOL0     H55552   5.528   5.271  10.620 -0.7660  1.5960  1.0249
  403MOL0     H55553   5.293   5.338  10.516  0.9137 -1.2095 -1.2748
  403MOL0     H55554   5.250   5.167  10.550  1.4076 -0.9613  1.0520
  403MOL0     H55555   5.314   5.389  10.756  2.6775 -1.7949 -0.0646
  403MOL0     H55556   5.291   5.218  10.799 -1.2631  1.7147  2.4133
  403MOL0     H55557   5.051   5.254  10.689  2.4618 -1.2390 -0.5631
  403MOL0     H55558   5.092   5.306  10.853 -0.1367  3.3314  0.9161
  403MOL0     H55559   5.072   5.498  10.620 -2.5357 -0.4261 -0.5866
  403MOL0     H55560   5.141   5.542  10.770 -0.7526  0.9839 -0.2860
  403MOL0     H55561   4.892   5.599  10.764 -0.7275 -0.0158  3.2343
  403MOL0     H55562   4.856   5.421  10.729  2.1414  0.8469 -3.2294
  403MOL0     H55563   4.798   5.285  10.945  0.6438  0.9731 -2.7918
  403MOL0     H55564   4.735   5.270  11.188  0.0211 -0.5387 -0.5159
  403MOL0     H55565   4.797   5.368  11.329 -0.4906 -3.8056  1.8767
  403MOL0     H55566   4.868   5.148  11.364 -2.6455  2.1786 -0.8307
  403MOL0     H55567   4.924   5.128  11.204  4.3464 -0.8507  0.9275
  403MOL0     H55568   5.085   5.323  11.241 -1.8710 -1.0427 -0.9905
  403MOL0     H55569   5.036   5.321  11.405  0.5548  3.3826 -2.3091
  403MOL0     H55570   5.253   5.174  11.379  0.5052  0.2992 -1.5973
  403MOL0     H55571   5.116   5.086  11.422 -1.5498  0.3243 -1.0475
  403MOL0     H55572   5.344   5.112  11.044  0.2157 -0.9301 -1.2049
  403MOL0     H55573   5.713   5.082  11.048 -0.5225  1.5390  0.6516
  403MOL0     H55574   5.579   5.118  10.932  4.6465  0.8850 -0.6111
  403MOL0     H55575   5.663   4.967  10.925 -2.6212 -1.0027 -0.2237
  403MOL0     H55576   5.884   4.663  11.346  1.9918  0.0543  0.4050
  403MOL0     H55577   6.088   4.540  11.309  0.2823  1.5962 -0.9907
  403MOL0     H55578   6.289   4.445  11.219  1.8884 -0.5560 -2.5308
  403MOL0     H55579   6.202   4.317  11.298 -1.0700  1.2563 -0.0654
  403MOL0     H55580   6.290   4.163  11.108 -2.0603  1.1559  1.1371
  403MOL0     H55581   6.386   4.302  11.049 -3.3530 -0.2442 -1.5252
  403MOL0     H55582   6.518   4.134  11.181  0.1525 -3.3932  3.8995
  403MOL0     H55583   6.409   4.153  11.316  0.5403  0.7889  0.7629
  403MOL0     H55584   6.482   4.377  11.361 -0.8090  0.0655 -1.1371
  403MOL0     H55585   6.575   4.393  11.218  1.6662  0.4557  2.0725
  403MOL0     H55586   6.628   4.199  11.450  1.5669  0.0356  0.6511
  403MOL0     H55587   6.704   4.179  11.288 -1.5799  2.1149 -2.9846
  403MOL0     H55588   6.729   4.430  11.461  1.6703  0.3479  0.8207
  403MOL0     H55589   6.787   4.408  11.294  0.8517  0.1583  0.2741
  403MOL0     H55590   6.867   4.210  11.530 -0.0187 -1.6000 -1.7009
  403MOL0     H55591   6.940   4.381  11.514 -0.3521  2.1024 -3.1091
  403MOL0     H55592   7.034   4.310  11.302 -1.2744  1.8414  0.9636
  403MOL0     H55593   6.941   4.164  11.297 -0.3344  1.8067 -0.7734
  403MOL0     H55594   5.939   4.362  10.950 -0.1732  0.7402 -0.5030
  403MOL0     H55595   5.735   4.508  10.965  0.1255  0.1664 -1.2534
  403MOL0     H55596   5.487   4.752  11.347  0.5492  1.3708  3.1369
  403MOL0     H55597   5.277   4.867  11.381 -0.0754  0.4876  0.0599
  403MOL0     H55598   5.900   5.051  10.460  0.1085  1.7300 -0.6544
  403MOL0     H55599   6.100   4.899  10.385  1.8994 -0.3325 -1.6294
  403MOL0     H55600   6.457   4.973  10.049 -1.2118 -0.9205  4.2745
  403MOL0     H55601   6.646   4.853   9.924 -0.6714  0.8695 -0.7353
  403MOL0     H55602   6.644   4.411   9.898 -2.5204 -3.8979 -3.0691
  403MOL0     H55603   6.573   4.455   9.740 -1.2110  3.4525  0.4479
  403MOL0     H55604   6.875   4.479   9.813  0.2146 -0.9013 -0.4210
  403MOL0     H55605   6.806   4.498   9.653  1.3215  2.1217  1.0333
  403MOL0     H55606   6.807   4.255   9.835  1.7361 -0.8435  0.8044
  403MOL0     H55607   6.723   4.255   9.688  1.3715 -0.2835 -2.7296
  403MOL0     H55608   7.025   4.229   9.719  0.9063 -0.3277 -0.0316
  403MOL0     H55609   6.951   4.312   9.566 -4.5847 -0.4329 -0.7326
  403MOL0     H55610   6.838   3.923   9.491  2.3621 -0.0138 -0.9849
  403MOL0     H55611   6.402   4.500   9.892 -0.9352  0.1854 -1.8410
  403MOL0     H55612   6.191   4.553   9.863  0.2170 -0.3186  0.2090
  403MOL0     H55613   6.163   4.533  10.043  1.3567 -0.3637  0.9412
  403MOL0     H55614   6.095   4.666   9.959  0.2456 -0.1335 -0.9568
  404MOL0     O55615   3.215   1.851   1.848  0.3615 -0.7425 -0.1215
  404MOL0     C55616   3.206   1.940   1.931 -1.2604 -1.0145 -0.4892
  404MOL0     O55617   3.209   2.077   1.906 -0.9833  0.2642  0.2234
  404MOL0     C55618   3.223   2.105   1.774  0.4575  0.4379  0.1217
  404MOL0     C55619   3.114   2.111   1.688 -1.0980  0.7888 -0.8615
  404MOL0     C55620   3.133   2.143   1.553 -0.6853  1.0585  0.0948
  404MOL0     C55621   3.267   2.167   1.506  0.5751  0.2099 -0.4077
  404MOL0     O55622   3.277   2.218   1.382  0.4407  0.4633 -0.1401
  404MOL0     C55623   3.403   2.209   1.315  0.0014 -0.8233  0.0273
  404MOL0     C55624   3.484   2.335   1.341 -0.5918  0.1688 -0.4603
  404MOL0     C55625   3.617   2.349   1.262  0.3772 -0.5745 -0.1827
  404MOL0     C55626   3.715   2.445   1.341  0.7251 -0.8756  0.6132
  404MOL0     C55627   3.856   2.447   1.274 -0.0064 -0.1469 -0.5116
  404MOL0     C55628   3.938   2.576   1.293  0.2072 -0.0475  0.5162
  404MOL0     C55629   4.085   2.576   1.241  0.0908 -0.0796 -0.6226
  404MOL0     C55630   4.105   2.555   1.089  0.4548  0.1402  0.2614
  404MOL0     N55631   4.244   2.569   1.037  1.0766 -0.0515  0.7076
  404MOL0     C55632   4.324   2.680   1.041 -0.0146  0.5637  0.2880
  404MOL0     C55633   4.451   2.642   1.005 -0.1016  0.3996  0.0117
  404MOL0     C55634   4.564   2.732   1.012  0.0605  0.4844 -0.9094
  404MOL0     C55635   4.702   2.700   0.941  0.6196 -0.0213 -0.2567
  404MOL0     C55636   4.809   2.793   0.992 -0.1723  0.4133 -0.7116
  404MOL0     C55637   4.943   2.782   0.911  0.3398 -0.1061  0.0748
  404MOL0     O55638   5.054   2.794   0.994 -0.3100 -0.1188 -0.7408
  404MOL0     C55639   5.174   2.801   0.927 -0.1150 -0.3008 -0.5273
  404MOL0     C55640   5.292   2.834   1.005 -0.6680 -0.1193  0.4416
  404MOL0     C55641   5.421   2.851   0.952 -0.5405  0.2815  0.1529
  404MOL0     C55642   5.532   2.880   1.050 -0.8409  0.0074  0.2506
  404MOL0     C55643   5.440   2.833   0.810  0.6937 -0.0408 -0.5955
  404MOL0     C55644   5.568   2.852   0.741 -0.2232  0.8042  0.0252
  404MOL0     O55645   5.667   2.929   0.799 -0.2220  1.1015 -0.3273
  404MOL0     C55646   5.794   2.898   0.761  0.0051 -0.9673  0.1790
  404MOL0     C55647   5.883   2.860   0.856 -0.0214 -0.8026 -0.3477
  404MOL0     C55648   6.017   2.836   0.830 -0.5901 -0.4394  0.4947
  404MOL0     C55649   6.072   2.873   0.705  0.1348 -0.4485 -0.9873
  404MOL0     O55650   6.204   2.852   0.661  1.0553 -0.2143 -0.4129
  404MOL0     C55651   6.286   2.796   0.760  0.7771  0.1202 -0.3119
  404MOL0     C55652   6.424   2.776   0.691  0.3736  0.9163  0.3866
  404MOL0     C55653   6.486   2.910   0.648  0.8477 -0.0008  0.5703
  404MOL0     C55654   6.628   2.881   0.592  0.1333 -0.1446 -0.7411
  404MOL0     C55655   6.707   3.011   0.569  0.4817  0.0545  0.8842
  404MOL0     C55656   6.654   3.079   0.441 -0.0659  0.1615 -0.9090
  404MOL0     C55657   6.688   3.224   0.419 -0.1509  0.5725 -0.0838
  404MOL0     C55658   6.616   3.310   0.527  0.4773 -0.5840 -0.0516
  404MOL0    Cl55659   6.427   3.327   0.501  0.1931 -0.1192 -0.1780
  404MOL0     C55660   5.988   2.938   0.614 -0.3485 -0.3662  0.1495
  404MOL0     C55661   5.852   2.946   0.637 -0.0782  0.6303  0.8109
  404MOL0     O55662   5.581   2.783   0.638 -0.0473 -0.2792 -0.5215
  404MOL0     C55663   5.327   2.788   0.735 -0.2505 -0.1807  0.3062
  404MOL0     C55664   5.196   2.772   0.787 -0.0301 -0.2900 -0.1662
  404MOL0     N55665   4.448   2.505   0.994 -0.5289 -0.0267 -0.3381
  404MOL0     N55666   4.325   2.466   1.003 -0.0172  0.7773 -0.0815
  404MOL0     C55667   3.376   2.140   1.588  0.1973 -0.0332 -0.8217
  404MOL0     C55668   3.351   2.112   1.726  0.3893  0.2147 -0.1175
  404MOL0     C55669   3.190   1.912   2.080 -0.6438 -0.2538 -0.2927
  404MOL0     C55670   3.192   2.020   2.174  0.2765  0.0241 -0.4255
  404MOL0     C55671   3.162   2.012   2.311  0.7941  0.1646 -0.2987
  404MOL0     C55672   3.138   1.890   2.366  0.8489 -0.2093 -0.7399
  404MOL0     O55673   3.114   1.875   2.506 -0.7869  0.7198  0.7196
  404MOL0     C55674   3.082   1.982   2.591 -0.5255  0.1951  0.5283
  404MOL0     C55675   3.043   1.929   2.729  1.2121 -0.0706 -0.1104
  404MOL0     C55676   2.932   1.820   2.721 -0.0096  0.6925  0.0781
  404MOL0     C55677   2.944   1.729   2.840  0.0314  0.4338  1.0966
  404MOL0     C55678   3.055   1.629   2.829 -0.8831  0.6340  0.5774
  404MOL0     C55679   3.146   1.554   2.828 -0.4360 -0.2000 -0.7216
  404MOL0     C55680   3.134   1.776   2.286 -0.4912  0.1679  1.1224
  404MOL0     C55681   3.154   1.786   2.141 -0.0530 -0.1213 -0.7613
  404MOL0     C55682   3.149   1.653   2.071  0.2105 -1.0040 -0.1200
  404MOL0     H55683   3.023   2.083   1.739 -0.0163 -1.3274  0.0516
  404MOL0     H55684   3.039   2.155   1.501 -0.3554 -0.2617 -0.8621
  404MOL0     H55685   3.389   2.206   1.206  1.5860 -4.3082 -0.2063
  404MOL0     H55686   3.454   2.115   1.340 -0.2123 -0.5861  1.4483
  404MOL0     H55687   3.425   2.425   1.324  1.6030  1.9021  0.5469
  404MOL0     H55688   3.501   2.336   1.450  0.8415 -1.0615 -0.6400
  404MOL0     H55689   3.665   2.251   1.248 -1.9007 -1.6340 -0.9910
  404MOL0     H55690   3.597   2.393   1.164 -0.3334 -2.6392 -1.0010
  404MOL0     H55691   3.661   2.540   1.345  0.6923 -0.9183  4.0262
  404MOL0     H55692   3.726   2.421   1.447  2.3745  2.0787  1.2411
  404MOL0     H55693   3.840   2.419   1.170 -0.3888 -1.2173 -0.1779
  404MOL0     H55694   3.907   2.360   1.317  0.5813  1.0127  1.2568
  404MOL0     H55695   3.886   2.655   1.238  0.5369  0.8867  1.5049
  404MOL0     H55696   3.932   2.606   1.398 -2.4910 -0.1045  0.4358
  404MOL0     H55697   4.153   2.509   1.296  1.3682 -1.1111 -3.3065
  404MOL0     H55698   4.133   2.671   1.266 -0.2699  0.0394 -0.3738
  404MOL0     H55699   4.057   2.460   1.063 -0.7689  1.3394 -2.1976
  404MOL0     H55700   4.048   2.637   1.046  1.2560  1.9187  2.4471
  404MOL0     H55701   4.296   2.783   1.057  0.8284  0.5042  2.3971
  404MOL0     H55702   4.608   2.747   1.111  2.5714 -1.1939 -1.6514
  404MOL0     H55703   4.525   2.829   0.981 -0.8220  0.3528 -0.2254
  404MOL0     H55704   4.728   2.596   0.961 -3.6973 -1.1181  0.7186
  404MOL0     H55705   4.686   2.713   0.833  0.1847  0.1263 -0.1759
  404MOL0     H55706   4.770   2.893   0.970  0.9062  0.9290 -0.3569
  404MOL0     H55707   4.828   2.781   1.099 -0.8552 -2.6298 -0.8588
  404MOL0     H55708   4.948   2.685   0.861 -0.2689  1.0702 -2.4404
  404MOL0     H55709   4.945   2.868   0.843 -1.1640 -0.2024 -0.1220
  404MOL0     H55710   5.280   2.860   1.110 -0.5592  0.0658  0.4068
  404MOL0     H55711   5.586   2.971   1.023  1.4813 -0.3567  3.1822
  404MOL0     H55712   5.611   2.807   1.030 -0.1467  0.5989  0.8159
  404MOL0     H55713   5.508   2.885   1.156  2.2345  1.3096  0.9682
  404MOL0     H55714   5.856   2.828   0.957 -0.4932  3.1513  0.9480
  404MOL0     H55715   6.078   2.802   0.913  0.5085 -0.0145 -0.1058
  404MOL0     H55716   6.294   2.872   0.838 -1.3308  1.3300 -1.1985
  404MOL0     H55717   6.255   2.698   0.797  0.9392  1.2538  3.1897
  404MOL0     H55718   6.480   2.712   0.760  0.0551 -0.7401 -0.8225
  404MOL0     H55719   6.418   2.712   0.602  2.2182  1.4781 -0.2009
  404MOL0     H55720   6.505   2.971   0.737  0.5681 -2.8440  2.6758
  404MOL0     H55721   6.425   2.965   0.575  0.2751  0.0242  1.0666
  404MOL0     H55722   6.625   2.831   0.494 -1.5669  1.1043 -1.3723
  404MOL0     H55723   6.690   2.836   0.669  0.6423  1.8041  0.0534
  404MOL0     H55724   6.710   3.073   0.659  0.1538 -1.6062  2.0728
  404MOL0     H55725   6.807   2.976   0.542 -0.4323 -0.8046 -1.7468
  404MOL0     H55726   6.545   3.074   0.442 -0.0644 -0.8858  1.6464
  404MOL0     H55727   6.681   3.032   0.346 -0.8316  1.1613 -1.6403
  404MOL0     H55728   6.660   3.255   0.318  1.4157  1.5448 -0.2573
  404MOL0     H55729   6.795   3.239   0.431 -0.4253  2.0781  0.7609
  404MOL0     H55730   6.645   3.415   0.537  0.7539 -0.5362 -1.2366
  404MOL0     H55731   6.645   3.275   0.627 -2.9393  1.5869  1.9256
  404MOL0     H55732   6.025   2.964   0.515 -0.7477 -2.4364 -0.5998
  404MOL0     H55733   5.792   3.003   0.567  0.5944  1.5379  0.9669
  404MOL0     H55734   5.344   2.759   0.632 -3.4096  1.1781 -0.7456
  404MOL0     H55735   5.115   2.740   0.723 -0.0981  1.0221 -0.7685
  404MOL0     H55736   3.479   2.139   1.554  0.3676  2.2933 -0.5474
  404MOL0     H55737   3.439   2.104   1.788  0.9574 -0.5605 -1.0046
  404MOL0     H55738   3.198   2.125   2.147 -2.7871  1.0597  2.1873
  404MOL0     H55739   3.143   2.105   2.364 -0.0390  0.3035 -0.8160
  404MOL0     H55740   3.168   2.048   2.607 -0.5574 -0.0717  1.9410
  404MOL0     H55741   2.989   2.015   2.544  0.6867  0.0376 -2.1785
  404MOL0     H55742   3.023   2.007   2.803  2.9598 -0.6995  1.1087
  404MOL0     H55743   3.132   1.874   2.763  1.1174 -0.2559 -0.1624
  404MOL0     H55744   2.830   1.858   2.715 -0.9657 -1.6606  0.4686
  404MOL0     H55745   2.947   1.762   2.630  0.4932 -1.1162  1.2651
  404MOL0     H55746   2.850   1.673   2.849  0.7081 -0.5625  2.2981
  404MOL0     H55747   2.946   1.787   2.933 -3.5773  2.6800 -0.0324
  404MOL0     H55748   3.207   1.466   2.835  0.1322  0.2851  0.7295
  404MOL0     H55749   3.099   1.682   2.328 -0.4418 -0.9878 -1.2590
  404MOL0     H55750   3.248   1.645   2.025 -0.7692 -1.8240 -2.2192
  404MOL0     H55751   3.138   1.567   2.138  1.0276 -1.8063 -0.9951
  404MOL0     H55752   3.064   1.649   2.002 -1.4243 -2.1189  1.8389
  405MOL0     O55753   2.528   8.272   9.455 -1.0418 -0.0220  0.5314
  405MOL0     C55754   2.422   8.257   9.516  0.1882 -0.1665  0.0260
  405MOL0     O55755   2.416   8.218   9.644 -0.8349 -0.6276 -0.2991
  405MOL0     C55756   2.529   8.181   9.712  0.9325 -0.5820  0.6709
  405MOL0     C55757   2.515   8.183   9.851  0.6062 -0.4981  0.3616
  405MOL0     C55758   2.622   8.177   9.934  0.2061  0.0943 -0.6055
  405MOL0     C55759   2.745   8.130   9.883 -0.1507  0.2005 -0.3732
  405MOL0     O55760   2.849   8.110   9.970 -0.0435 -0.1390  0.0753
  405MOL0     C55761   2.880   8.225  10.045 -0.4993 -1.1154  0.6627
  405MOL0     C55762   3.033   8.238  10.066 -0.1123  0.2116 -0.5070
  405MOL0     C55763   3.084   8.126  10.158  0.1876  0.7050  0.5673
  405MOL0     C55764   3.235   8.089  10.148  0.4459  0.1525 -0.5059
  405MOL0     C55765   3.267   7.962  10.233 -0.0679 -0.3548  0.4128
  405MOL0     C55766   3.224   7.831  10.164 -0.7175  0.0059  0.0731
  405MOL0     C55767   3.209   7.710  10.253 -0.2671  0.9429 -0.5763
  405MOL0     C55768   3.092   7.614  10.206  0.0525 -0.7163 -0.0410
  405MOL0     N55769   3.074   7.510  10.293  0.9746 -0.7403 -0.1792
  405MOL0     C55770   3.111   7.384  10.257  0.2194  0.0765 -0.2258
  405MOL0     C55771   3.134   7.323  10.376  0.4709  0.8367  1.0472
  405MOL0     C55772   3.178   7.177  10.403 -0.2005 -1.1118  0.1980
  405MOL0     C55773   3.326   7.163  10.390 -0.0480  0.1946 -0.3814
  405MOL0     C55774   3.385   7.182  10.250 -0.5624 -0.0148  0.8232
  405MOL0     C55775   3.529   7.133  10.255 -0.0670  1.1965  0.5403
  405MOL0     O55776   3.599   7.214  10.347  0.8538 -0.8757 -0.7597
  405MOL0     C55777   3.732   7.200  10.372 -0.9333  0.2435  0.0051
  405MOL0     C55778   3.820   7.098  10.326 -0.1474  0.2530  0.6468
  405MOL0     C55779   3.960   7.097  10.355 -0.8933 -0.0150 -0.4206
  405MOL0     C55780   4.036   6.973  10.319  0.1362 -0.6611  0.1571
  405MOL0     C55781   4.019   7.202  10.430 -1.1820 -0.0677 -0.5287
  405MOL0     C55782   4.160   7.206  10.480  0.0901 -0.3585 -0.4420
  405MOL0     O55783   4.194   7.315  10.560 -0.6962 -0.1650  1.4481
  405MOL0     C55784   4.316   7.323  10.626 -0.0797 -0.7258  0.2778
  405MOL0     C55785   4.314   7.384  10.749  0.5306  0.9167  0.1729
  405MOL0     C55786   4.431   7.427  10.812 -0.1277 -0.7655 -0.0146
  405MOL0     C55787   4.551   7.384  10.766 -0.6359 -0.8894  0.5654
  405MOL0     O55788   4.671   7.391  10.829 -0.5443 -1.2865 -0.2081
  405MOL0     C55789   4.686   7.494  10.934 -0.0268  0.0190  0.3224
  405MOL0     C55790   4.835   7.503  10.970  0.2779 -0.9800 -1.0215
  405MOL0     C55791   4.858   7.618  11.070  0.1612  0.3683 -0.1069
  405MOL0     C55792   5.007   7.664  11.074  0.8581 -0.0549 -0.3270
  405MOL0     C55793   5.029   7.777  11.179  0.0613 -0.1018  0.4801
  405MOL0     C55794   5.183   7.819  11.192  0.1553  0.3008 -0.4967
  405MOL0     C55795   5.208   7.933  11.291 -0.2339 -0.3038  0.7398
  405MOL0     C55796   5.349   7.988  11.269  0.2749  0.3718 -0.1796
  405MOL0    Cl55797   5.372   8.139  11.360  0.4783 -0.7492 -0.3514
  405MOL0     C55798   4.559   7.301  10.650  0.7881 -0.1174 -0.0904
  405MOL0     C55799   4.441   7.292  10.563  1.0202 -0.6776 -0.4209
  405MOL0     O55800   4.234   7.104  10.467  0.1392  0.2672  0.2056
  405MOL0     C55801   3.930   7.301  10.482 -0.1780 -0.1451  0.2007
  405MOL0     C55802   3.791   7.302  10.450 -0.5490 -0.4144  0.0230
  405MOL0     N55803   3.099   7.403  10.480 -0.4048 -0.5877  0.5006
  405MOL0     N55804   3.059   7.516  10.429 -0.4752 -0.6046 -0.0495
  405MOL0     C55805   2.759   8.093   9.752 -0.1989 -0.3209 -0.3649
  405MOL0     C55806   2.652   8.126   9.663 -0.5216  0.1493 -0.2111
  405MOL0     C55807   2.300   8.274   9.442 -0.2852 -0.3863 -0.1817
  405MOL0     C55808   2.300   8.262   9.303  0.1019  0.5778 -0.1409
  405MOL0     C55809   2.187   8.279   9.231  0.0641  0.3081 -0.6896
  405MOL0     C55810   2.066   8.300   9.290  0.4476  0.3982  0.5704
  405MOL0     O55811   1.953   8.306   9.210 -0.0171 -0.3677  0.6285
  405MOL0     C55812   1.826   8.308   9.267  0.5586 -0.2573 -0.1440
  405MOL0     C55813   1.717   8.304   9.157 -0.0695  0.8297  0.3272
  405MOL0     C55814   1.575   8.295   9.213  0.0207  0.0487 -0.2988
  405MOL0     C55815   1.464   8.332   9.115  0.8825  0.2169 -0.6423
  405MOL0     C55816   1.333   8.311   9.172  0.2399 -0.0244 -0.0293
  405MOL0     C55817   1.225   8.291   9.220  0.5874 -0.7459  0.3007
  405MOL0     C55818   2.070   8.330   9.428 -0.0883  0.6025  0.1820
  405MOL0     C55819   2.184   8.314   9.509  0.3417 -0.0669  0.4046
  405MOL0     C55820   2.159   8.340   9.652 -0.0363 -0.1585 -0.9050
  405MOL0     H55821   2.414   8.207   9.882 -1.3129 -2.7858 -3.3571
  405MOL0     H55822   2.604   8.191  10.040  0.5953 -3.8335  0.1279
  405MOL0     H55823   2.816   8.231  10.134 -0.7192 -1.9952  0.5697
  405MOL0     H55824   2.857   8.316   9.990 -0.0343  0.8532  3.4982
  405MOL0     H55825   3.077   8.233   9.966 -1.7161 -0.2482 -1.2111
  405MOL0     H55826   3.047   8.338  10.107  0.5989  0.5997 -1.6573
  405MOL0     H55827   3.058   8.139  10.263 -1.5852  0.5308  0.1737
  405MOL0     H55828   3.021   8.039  10.139 -2.3919  3.0532 -2.7277
  405MOL0     H55829   3.258   8.067  10.044  2.1100  0.0997 -0.1510
  405MOL0     H55830   3.293   8.174  10.185 -2.9149  2.9226 -1.0501
  405MOL0     H55831   3.224   7.973  10.333  0.3532 -1.1566  0.6935
  405MOL0     H55832   3.375   7.971  10.245 -0.1163 -1.0896  1.5472
  405MOL0     H55833   3.125   7.833  10.118 -0.1365  1.7068 -1.2186
  405MOL0     H55834   3.287   7.807  10.078 -2.8664 -0.9350 -1.3394
  405MOL0     H55835   3.191   7.750  10.353 -1.4555 -0.2668 -0.2751
  405MOL0     H55836   3.305   7.659  10.257 -0.3039  0.8929 -0.3374
  405MOL0     H55837   3.005   7.680  10.199  1.1477  0.7514 -0.3578
  405MOL0     H55838   3.121   7.573  10.109  0.3296  2.2259 -1.3241
  405MOL0     H55839   3.120   7.354  10.153 -0.9710 -0.7313 -0.1084
  405MOL0     H55840   3.132   7.106  10.334 -0.5065 -1.4419  0.7348
  405MOL0     H55841   3.146   7.137  10.499 -1.6509 -6.1319 -2.0221
  405MOL0     H55842   3.368   7.230  10.465  0.5677 -0.3426 -0.2356
  405MOL0     H55843   3.346   7.059  10.419  2.8391  0.9897  0.8373
  405MOL0     H55844   3.318   7.125  10.185 -0.6362 -2.2896  2.7413
  405MOL0     H55845   3.387   7.287  10.219  2.2008 -0.0619  0.6264
  405MOL0     H55846   3.523   7.026  10.277  3.0372  0.8485  0.1771
  405MOL0     H55847   3.574   7.149  10.157 -1.6195  1.2193 -0.2033
  405MOL0     H55848   3.783   7.013  10.269  0.1263  0.7386 -0.2742
  405MOL0     H55849   3.973   6.917  10.249 -0.2847  0.7998 -0.6673
  405MOL0     H55850   4.053   6.919  10.413  1.5185 -1.5537 -0.5759
  405MOL0     H55851   4.133   6.994  10.274 -0.1990  2.7578  0.7481
  405MOL0     H55852   4.223   7.420  10.796  0.8712  1.1677  0.6479
  405MOL0     H55853   4.410   7.499  10.890 -1.4074 -0.5466 -0.5447
  405MOL0     H55854   4.670   7.594  10.891  1.6432  0.3525  0.4255
  405MOL0     H55855   4.629   7.474  11.026  0.5014  4.0534  1.7418
  405MOL0     H55856   4.876   7.411  11.015  0.5421  0.2737  1.4793
  405MOL0     H55857   4.884   7.529  10.876  0.7852 -3.1425 -1.4236
  405MOL0     H55858   4.831   7.583  11.169  0.6444 -0.1764 -0.1635
  405MOL0     H55859   4.799   7.706  11.041 -0.2018  0.1048 -0.1774
  405MOL0     H55860   5.047   7.698  10.979  0.1757 -0.1914 -0.6741
  405MOL0     H55861   5.071   7.578  11.093  3.0460  1.7191  0.7819
  405MOL0     H55862   4.963   7.860  11.152  1.2858  0.7878  0.1680
  405MOL0     H55863   4.992   7.742  11.276  0.7848 -1.5821  0.2430
  405MOL0     H55864   5.229   7.860  11.101  2.5875 -0.0046  0.5144
  405MOL0     H55865   5.246   7.738  11.227  0.4430 -0.1523 -2.0091
  405MOL0     H55866   5.201   7.903  11.396  0.9161 -0.8002  0.6838
  405MOL0     H55867   5.131   8.011  11.288 -0.3429 -0.4406 -0.7780
  405MOL0     H55868   5.365   8.005  11.162 -1.3746  0.2361 -0.4695
  405MOL0     H55869   5.422   7.914  11.305 -1.7398 -1.6206 -0.0126
  405MOL0     H55870   4.653   7.266  10.609  0.7260  0.6890 -0.9797
  405MOL0     H55871   4.447   7.240  10.468  2.2543 -1.0813 -0.1418
  405MOL0     H55872   3.967   7.378  10.550 -0.8348  0.8398 -0.5342
  405MOL0     H55873   3.733   7.384  10.491  0.1756  1.1872 -1.9973
  405MOL0     H55874   2.851   8.047   9.717  0.6282  0.0020  1.3122
  405MOL0     H55875   2.673   8.107   9.559  0.9484  0.9567 -0.0906
  405MOL0     H55876   2.394   8.243   9.253 -0.5367  2.4577 -2.2256
  405MOL0     H55877   2.202   8.268   9.124 -2.2953 -0.1765 -1.0114
  405MOL0     H55878   1.818   8.227   9.339 -1.7188 -0.5780 -0.6953
  405MOL0     H55879   1.797   8.400   9.318  0.4060 -0.0377 -0.6201
  405MOL0     H55880   1.733   8.226   9.082 -0.7085  1.1071 -0.1108
  405MOL0     H55881   1.724   8.394   9.096 -0.6054 -0.2070 -1.3479
  405MOL0     H55882   1.556   8.192   9.244  1.6831 -0.6759 -1.5366
  405MOL0     H55883   1.580   8.362   9.299  3.9251  0.9455 -1.0100
  405MOL0     H55884   1.483   8.265   9.030  2.6584 -2.1647  1.4646
  405MOL0     H55885   1.474   8.437   9.087  1.3104 -0.1172 -1.8175
  405MOL0     H55886   1.129   8.279   9.266 -0.3223  0.1486 -1.2905
  405MOL0     H55887   1.976   8.363   9.472  0.5951  1.9555  0.6996
  405MOL0     H55888   2.255   8.364   9.700 -0.4284 -1.6320  0.7011
  405MOL0     H55889   2.088   8.422   9.666  2.1208  1.7930 -0.7558
  405MOL0     H55890   2.123   8.250   9.703  0.3118 -0.6318 -1.4826
  406MOL0     O55891   8.259   7.783   2.768 -0.6286  0.6667 -0.1239
  406MOL0     C55892   8.289   7.725   2.665 -0.7822 -0.3832  0.1579
  406MOL0     O55893   8.193   7.665   2.578  0.8640 -0.7391 -0.2902
  406MOL0     C55894   8.064   7.684   2.607  0.6633 -0.2769 -0.8141
  406MOL0     C55895   8.014   7.619   2.723  0.3026 -0.3646  0.1628
  406MOL0     C55896   7.877   7.609   2.743  0.3932  0.2466  0.4823
  406MOL0     C55897   7.786   7.662   2.651 -0.6931 -0.8961 -0.0946
  406MOL0     O55898   7.651   7.654   2.667  0.0904 -0.2685 -0.1451
  406MOL0     C55899   7.594   7.580   2.769 -0.1987  0.0610 -0.6446
  406MOL0     C55900   7.442   7.612   2.768 -0.4846 -0.0545 -0.7374
  406MOL0     C55901   7.429   7.745   2.844  0.6762 -0.1802  0.8245
  406MOL0     C55902   7.294   7.812   2.807  0.2324 -0.6724 -0.2869
  406MOL0     C55903   7.256   7.941   2.881  0.2081 -0.4110 -0.1032
  406MOL0     C55904   7.373   8.038   2.918 -0.8855  0.1529 -0.3181
  406MOL0     C55905   7.329   8.150   3.015  1.1434 -0.1044 -0.0294
  406MOL0     C55906   7.448   8.227   3.072  0.0792  0.7784  0.5035
  406MOL0     N55907   7.462   8.362   3.012  0.7874  0.2364  0.4454
  406MOL0     C55908   7.382   8.473   3.044 -0.2828 -0.1859  0.0097
  406MOL0     C55909   7.451   8.580   2.985  0.4474 -1.1463 -0.7838
  406MOL0     C55910   7.402   8.719   2.987  0.5089 -0.5422  0.4444
  406MOL0     C55911   7.439   8.785   3.122  0.6557  0.7618  0.4200
  406MOL0     C55912   7.587   8.815   3.128 -0.1030 -0.8829 -0.3222
  406MOL0     C55913   7.638   8.918   3.022  0.5107  0.5826 -0.9441
  406MOL0     O55914   7.770   8.958   3.028 -0.5898 -0.5972  0.0164
  406MOL0     C55915   7.874   8.872   2.975 -0.0661  0.0945  1.0425
  406MOL0     C55916   7.850   8.751   2.902 -0.4004 -0.6049 -0.0910
  406MOL0     C55917   7.956   8.672   2.857  0.8672  0.2177  0.1898
  406MOL0     C55918   7.904   8.543   2.789 -0.4345  0.2894 -0.2627
  406MOL0     C55919   8.091   8.716   2.873  0.6429  0.2896 -0.4284
  406MOL0     C55920   8.214   8.637   2.835 -0.4122  0.5773 -0.1862
  406MOL0     O55921   8.339   8.695   2.824 -0.0272 -0.6840 -0.3010
  406MOL0     C55922   8.454   8.630   2.777  0.8842  0.0470  0.8376
  406MOL0     C55923   8.498   8.504   2.819  0.0934  0.5457  1.0888
  406MOL0     C55924   8.617   8.456   2.763  0.2212  0.7589 -0.0322
  406MOL0     C55925   8.701   8.525   2.682 -0.2033 -0.1027  0.0144
  406MOL0     O55926   8.819   8.469   2.639 -0.3634  0.4356  0.0024
  406MOL0     C55927   8.877   8.536   2.524  0.4973  0.2579  0.1654
  406MOL0     C55928   8.954   8.426   2.461  0.3375 -1.3340  0.8639
  406MOL0     C55929   9.020   8.482   2.329  0.3317  0.5953 -0.3574
  406MOL0     C55930   9.066   8.361   2.232 -0.0363 -0.4135 -0.4489
  406MOL0     C55931   9.103   8.417   2.089  0.1233 -0.2551 -0.5876
  406MOL0     C55932   9.109   8.301   1.990  0.1134 -0.3085  0.1142
  406MOL0     C55933   8.969   8.241   1.951  0.0840 -0.4229 -0.6767
  406MOL0     C55934   8.979   8.117   1.872  0.6881 -0.8632  0.4767
  406MOL0    Cl55935   9.072   8.151   1.726  0.2325 -0.1920  0.1868
  406MOL0     C55936   8.663   8.658   2.655 -0.2389  0.1684  0.6022
  406MOL0     C55937   8.539   8.711   2.698  0.2273  0.0432  0.5816
  406MOL0     O55938   8.199   8.515   2.843  0.3592 -0.4691  0.0674
  406MOL0     C55939   8.116   8.832   2.948 -0.2835  0.3054  0.5240
  406MOL0     C55940   8.007   8.908   3.001 -0.4688 -0.1703 -1.1067
  406MOL0     N55941   7.568   8.535   2.940 -0.5597 -0.5848 -0.0377
  406MOL0     N55942   7.580   8.407   2.957  0.4983  1.1302 -0.1096
  406MOL0     C55943   7.840   7.732   2.546  0.1213 -0.1809 -0.5514
  406MOL0     C55944   7.977   7.747   2.519  0.0923  0.4778 -0.5440
  406MOL0     C55945   8.433   7.719   2.628 -1.6619  0.1867  0.4608
  406MOL0     C55946   8.470   7.665   2.503  1.2907 -0.5795  0.3669
  406MOL0     C55947   8.602   7.636   2.464 -0.0034  0.0794  0.2009
  406MOL0     C55948   8.713   7.679   2.546  0.0135  0.4212  0.2999
  406MOL0     O55949   8.844   7.674   2.501 -0.1018 -0.2607  0.3298
  406MOL0     C55950   8.957   7.672   2.598 -0.1672  1.0167  0.2847
  406MOL0     C55951   8.954   7.544   2.678 -0.0427  0.4328  0.0236
  406MOL0     C55952   8.929   7.421   2.590 -0.4228  0.1381  0.0124
  406MOL0     C55953   8.976   7.294   2.661 -0.3263 -0.3666  0.2835
  406MOL0     C55954   9.124   7.288   2.663 -1.2702 -0.5020  0.1520
  406MOL0     C55955   9.242   7.272   2.671 -0.2920  0.3157 -0.6902
  406MOL0     C55956   8.677   7.742   2.662 -0.2148 -1.1815 -0.0043
  406MOL0     C55957   8.548   7.766   2.709  0.6833 -0.1508  0.9230
  406MOL0     C55958   8.531   7.804   2.855 -0.1575 -0.0175  0.8172
  406MOL0     H55959   8.090   7.581   2.791 -0.8638 -0.2039  1.6256
  406MOL0     H55960   7.845   7.551   2.829  1.1344 -2.0364 -0.6690
  406MOL0     H55961   7.648   7.598   2.862 -0.7267 -3.6139  0.5124
  406MOL0     H55962   7.593   7.474   2.745  2.2236 -0.3426  0.7690
  406MOL0     H55963   7.422   7.615   2.660 -0.3476  0.6334 -0.7496
  406MOL0     H55964   7.376   7.529   2.796  2.6608 -2.7915 -0.8154
  406MOL0     H55965   7.445   7.724   2.951  0.2634  1.8868  1.3427
  406MOL0     H55966   7.512   7.814   2.824  0.7732 -0.2786  0.8876
  406MOL0     H55967   7.282   7.822   2.699 -1.4948  0.0624 -0.0609
  406MOL0     H55968   7.214   7.742   2.832  0.3743 -0.6246  0.3203
  406MOL0     H55969   7.217   7.898   2.974 -3.2347 -0.7351 -1.5563
  406MOL0     H55970   7.175   7.994   2.831  0.0888 -1.2550 -0.8257
  406MOL0     H55971   7.448   7.977   2.970 -1.7499  0.0231  0.8260
  406MOL0     H55972   7.405   8.085   2.825 -0.4588  1.3893  0.4292
  406MOL0     H55973   7.265   8.117   3.097 -1.5257  0.7187 -1.6679
  406MOL0     H55974   7.264   8.217   2.957 -1.8421 -3.0488 -0.4106
  406MOL0     H55975   7.429   8.239   3.179  1.4261 -0.3039  0.8905
  406MOL0     H55976   7.537   8.164   3.067 -2.1787 -2.7708  1.2427
  406MOL0     H55977   7.284   8.477   3.090 -0.8321  0.6891 -1.1666
  406MOL0     H55978   7.293   8.724   2.977  0.7080  1.3748 -1.4731
  406MOL0     H55979   7.446   8.775   2.904 -1.2053  0.3331  0.0946
  406MOL0     H55980   7.379   8.872   3.151  0.8735  1.1991 -0.3967
  406MOL0     H55981   7.412   8.708   3.194  1.6962 -0.3035 -0.2967
  406MOL0     H55982   7.595   8.855   3.229  0.3712  0.2752 -0.8023
  406MOL0     H55983   7.635   8.717   3.119 -1.0937 -1.6346  1.8553
  406MOL0     H55984   7.606   8.886   2.922 -1.6052 -1.1766  0.2101
  406MOL0     H55985   7.571   9.003   3.033 -1.6653 -1.0911 -0.6612
  406MOL0     H55986   7.749   8.719   2.878 -0.3337  1.0181 -2.9533
  406MOL0     H55987   7.807   8.550   2.739 -2.0157  2.2985  2.7457
  406MOL0     H55988   7.882   8.468   2.866 -0.0903  0.0647 -0.3792
  406MOL0     H55989   7.979   8.503   2.720 -0.1539  3.5662 -2.0220
  406MOL0     H55990   8.454   8.441   2.895  1.7355 -1.3043  0.5824
  406MOL0     H55991   8.655   8.359   2.796 -0.0055  1.2921  1.9229
  406MOL0     H55992   8.803   8.568   2.451 -0.8560 -0.4160  1.1927
  406MOL0     H55993   8.950   8.612   2.555  2.2245 -1.3426  0.1807
  406MOL0     H55994   9.032   8.397   2.531  0.0007  1.1008  2.3747
  406MOL0     H55995   8.886   8.347   2.428 -0.3516 -0.5608  0.3729
  406MOL0     H55996   9.102   8.545   2.363  0.7481  0.1837 -0.5965
  406MOL0     H55997   8.951   8.544   2.270 -0.2199  0.1278 -0.2161
  406MOL0     H55998   8.975   8.301   2.221  0.4612 -1.1750 -0.5143
  406MOL0     H55999   9.145   8.295   2.271 -0.5419 -0.4278  0.6061
  406MOL0     H56000   9.021   8.478   2.049 -1.4327 -3.1651 -2.1774
  406MOL0     H56001   9.201   8.465   2.090  0.3934 -0.7998 -0.3882
  406MOL0     H56002   9.168   8.220   2.034  3.6310  2.4407  0.9373
  406MOL0     H56003   9.150   8.330   1.893  1.2615 -0.7153  0.4604
  406MOL0     H56004   8.909   8.314   1.897 -1.3252 -0.6533  0.4975
  406MOL0     H56005   8.909   8.217   2.040 -1.3673  0.7895 -1.2879
  406MOL0     H56006   8.881   8.074   1.849  0.3099  0.1470  0.1471
  406MOL0     H56007   9.031   8.037   1.925  1.0632 -1.5334 -0.8484
  406MOL0     H56008   8.729   8.714   2.589  1.4799  1.2999  3.1497
  406MOL0     H56009   8.506   8.812   2.674  1.8609  1.3197  3.1754
  406MOL0     H56010   8.214   8.872   2.970  0.0742  1.2199 -2.2969
  406MOL0     H56011   8.047   8.992   3.057  1.7524 -0.1598 -2.5667
  406MOL0     H56012   7.771   7.779   2.477  1.4582  0.5070 -1.4711
  406MOL0     H56013   8.009   7.804   2.432 -2.5612  2.6341 -0.2479
  406MOL0     H56014   8.390   7.642   2.433  1.3177 -2.5184  0.9132
  406MOL0     H56015   8.614   7.595   2.364  0.1671  1.5247 -0.4012
  406MOL0     H56016   9.055   7.670   2.550 -0.2532 -4.2565 -0.2697
  406MOL0     H56017   8.945   7.752   2.671 -1.0262  0.4168  0.8182
  406MOL0     H56018   8.874   7.560   2.751  0.8370  3.5846  0.4364
  406MOL0     H56019   9.046   7.540   2.737  0.9264  1.4425 -1.3637
  406MOL0     H56020   8.823   7.422   2.565  0.1465  1.0185 -2.6747
  406MOL0     H56021   8.979   7.427   2.493  1.6410  0.2715  1.0227
  406MOL0     H56022   8.939   7.203   2.612 -1.7407  0.8980 -1.0898
  406MOL0     H56023   8.941   7.301   2.765  0.5738 -0.6381  0.6128
  406MOL0     H56024   9.349   7.274   2.665 -0.2027  3.0986  0.3141
  406MOL0     H56025   8.754   7.776   2.731 -2.3533 -0.6838  2.2816
  406MOL0     H56026   8.479   7.899   2.869 -0.4597 -0.2300  1.1712
  406MOL0     H56027   8.474   7.726   2.907  0.4433 -1.0715 -0.0551
  406MOL0     H56028   8.629   7.816   2.903  0.2914  2.9531 -0.6030
  407MOL0     O56029   4.804   9.465   0.229  0.1556  0.8058 -0.4890
  407MOL0     C56030   4.840   9.351   0.258 -0.8191 -0.4001 -0.1558
  407MOL0     O56031   4.957   9.301   0.227 -0.0305  1.2568 -0.0570
  407MOL0     C56032   5.072   9.380   0.219 -0.1594 -0.1498 -0.1902
  407MOL0     C56033   5.086   9.510   0.266  0.1866 -0.6328  0.0019
  407MOL0     C56034   5.214   9.572   0.271  0.4358  0.3417  0.5710
  407MOL0     C56035   5.330   9.505   0.228  0.2514 -0.0147  0.3139
  407MOL0     O56036   5.462   9.543   0.244  0.9693  0.1605 -0.2984
  407MOL0     C56037   5.484   9.676   0.290  0.2001  0.2856 -0.0895
  407MOL0     C56038   5.485   9.683   0.440  0.4569  0.0694 -1.4166
  407MOL0     C56039   5.630   9.670   0.501 -0.0052  0.2999 -0.8505
  407MOL0     C56040   5.637   9.616   0.641  0.2363 -0.2148 -0.0090
  407MOL0     C56041   5.622   9.461   0.656 -0.7472 -0.0909 -0.4575
  407MOL0     C56042   5.735   9.372   0.593 -0.7851 -0.0444  0.2852
  407MOL0     C56043   5.731   9.227   0.645  0.3689  0.3777  0.8912
  407MOL0     C56044   5.613   9.141   0.591  0.3242  0.2319  0.2492
  407MOL0     N56045   5.630   9.098   0.449 -0.6541  0.4787 -0.3598
  407MOL0     C56046   5.597   9.177   0.335  0.0006 -0.1001 -0.0353
  407MOL0     C56047   5.650   9.117   0.231 -0.3847  0.4055 -0.7476
  407MOL0     C56048   5.625   9.152   0.090  1.0735 -0.4104  0.4630
  407MOL0     C56049   5.654   9.294   0.079 -0.9623  0.2467  0.1258
  407MOL0     C56050   5.621   9.340  -0.065  0.5517 -0.1341 -0.2799
  407MOL0     C56051   5.619   9.493  -0.098  0.4514  0.4123  0.2424
  407MOL0     O56052   5.589   9.519  -0.235  0.5309 -0.3183 -0.0303
  407MOL0     C56053   5.453   9.519  -0.262  0.3037 -0.5078 -0.5568
  407MOL0     C56054   5.357   9.556  -0.171  0.1691 -0.0324  0.2902
  407MOL0     C56055   5.220   9.557  -0.209  0.2134 -0.9418  0.4532
  407MOL0     C56056   5.117   9.595  -0.100  0.1596 -0.0029 -0.1364
  407MOL0     C56057   5.180   9.548  -0.348 -0.2498 -0.4851 -0.2179
  407MOL0     C56058   5.048   9.587  -0.401  0.2354 -0.3721  0.4157
  407MOL0     O56059   5.049   9.628  -0.528 -0.8495 -0.6421 -0.7526
  407MOL0     C56060   4.931   9.672  -0.576 -0.1785  0.1940  0.5933
  407MOL0     C56061   4.913   9.810  -0.595  0.2415  0.6851  0.3139
  407MOL0     C56062   4.788   9.857  -0.632  0.6572  0.6087  0.1349
  407MOL0     C56063   4.692   9.769  -0.668 -0.1728  0.2106  0.5724
  407MOL0     O56064   4.568   9.817  -0.718 -0.5231 -0.2014 -0.1809
  407MOL0     C56065   4.465   9.733  -0.779  0.7308  0.3287 -0.1455
  407MOL0     C56066   4.476   9.701  -0.931 -0.8290 -0.3261  0.2951
  407MOL0     C56067   4.350   9.618  -0.968 -0.2053  0.2530 -0.1252
  407MOL0     C56068   4.330   9.579  -1.119 -0.0582 -0.7585 -1.1715
  407MOL0     C56069   4.186   9.534  -1.141  0.5182  0.9188  0.1994
  407MOL0     C56070   4.146   9.525  -1.296  0.5850  0.4373  0.0815
  407MOL0     C56071   4.002   9.477  -1.316 -0.1637  0.2682 -0.7678
  407MOL0     C56072   3.966   9.431  -1.455 -0.3177  0.1063 -0.0092
  407MOL0    Cl56073   3.979   9.253  -1.485 -0.5692  0.0686  0.0576
  407MOL0     C56074   4.711   9.634  -0.666 -0.1537  0.8621 -0.1198
  407MOL0     C56075   4.835   9.585  -0.607 -0.6361  0.0704  0.0896
  407MOL0     O56076   4.942   9.564  -0.330 -0.9120  0.8249  0.8572
  407MOL0     C56077   5.284   9.518  -0.437 -0.8578 -0.3719 -0.5930
  407MOL0     C56078   5.414   9.494  -0.390 -0.1287 -0.2768  0.1795
  407MOL0     N56079   5.695   8.994   0.278 -0.2118 -0.5043  0.2223
  407MOL0     N56080   5.689   8.976   0.408 -0.4071  0.4933  0.1264
  407MOL0     C56081   5.305   9.386   0.160 -0.7446 -0.1391  0.6876
  407MOL0     C56082   5.186   9.317   0.163  0.4135 -0.8606  0.2185
  407MOL0     C56083   4.747   9.256   0.336 -0.0890  0.5136  0.4229
  407MOL0     C56084   4.791   9.131   0.380 -1.0074  0.7803 -0.0837
  407MOL0     C56085   4.719   9.047   0.466 -0.4170  0.1656 -0.3224
  407MOL0     C56086   4.590   9.066   0.494 -0.1390 -0.6938  0.0056
  407MOL0     O56087   4.533   8.976   0.568  1.3340 -0.4011 -0.2433
  407MOL0     C56088   4.393   8.988   0.591 -0.4134  0.0772  0.1782
  407MOL0     C56089   4.347   8.866   0.669 -0.6938 -0.6825  0.5079
  407MOL0     C56090   4.436   8.844   0.793  0.1725 -0.1647  0.2404
  407MOL0     C56091   4.378   8.749   0.904 -0.0032 -0.0707 -0.6219
  407MOL0     C56092   4.374   8.611   0.856 -0.4437 -0.1735  0.2322
  407MOL0     C56093   4.369   8.501   0.802  0.1929 -0.5279  0.4655
  407MOL0     C56094   4.537   9.184   0.439 -0.1345  0.1058  1.0328
  407MOL0     C56095   4.609   9.275   0.363  0.2015 -0.2499 -0.1323
  407MOL0     C56096   4.544   9.395   0.298 -0.0141 -0.2676  0.5678
  407MOL0     H56097   4.997   9.561   0.300  1.2205  0.4493  1.1701
  407MOL0     H56098   5.218   9.673   0.310  0.5390  0.5539  0.0165
  407MOL0     H56099   5.411   9.750   0.255 -1.8356 -1.2750  0.6903
  407MOL0     H56100   5.577   9.719   0.251  0.8587  2.0676  3.0933
  407MOL0     H56101   5.437   9.775   0.473  0.1727 -0.0538 -1.4877
  407MOL0     H56102   5.425   9.596   0.468 -0.0604  0.2657 -1.9050
  407MOL0     H56103   5.681   9.600   0.433  0.0721 -0.3378 -0.1438
  407MOL0     H56104   5.669   9.772   0.504 -2.2779  1.2731 -1.9726
  407MOL0     H56105   5.736   9.634   0.682  0.6936 -3.8383  0.8138
  407MOL0     H56106   5.561   9.673   0.696  1.7047  1.1099  0.7294
  407MOL0     H56107   5.524   9.434   0.615 -1.7485  0.9722  1.1280
  407MOL0     H56108   5.618   9.441   0.764  1.0988 -0.3570 -0.4115
  407MOL0     H56109   5.728   9.363   0.484 -0.6836 -1.3718  0.3685
  407MOL0     H56110   5.824   9.428   0.623 -2.4408  2.2878  1.1341
  407MOL0     H56111   5.715   9.227   0.753 -2.8187 -1.3237  0.5526
  407MOL0     H56112   5.827   9.183   0.617 -0.5975 -1.4002  0.1697
  407MOL0     H56113   5.606   9.055   0.659 -1.6648  1.4200  1.6646
  407MOL0     H56114   5.518   9.195   0.595  0.8630  2.0156 -4.8934
  407MOL0     H56115   5.542   9.270   0.353 -0.3845 -0.7777  2.8580
  407MOL0     H56116   5.527   9.122   0.051  0.0862  2.0398  0.8251
  407MOL0     H56117   5.693   9.099   0.023 -0.0624 -0.4298 -0.7059
  407MOL0     H56118   5.598   9.360   0.147 -1.2901  0.3767 -0.2619
  407MOL0     H56119   5.761   9.308   0.095 -0.6897 -0.6423 -0.8252
  407MOL0     H56120   5.692   9.293  -0.134  0.3660 -1.6998  0.5606
  407MOL0     H56121   5.523   9.297  -0.089  1.7803 -1.4225 -3.5456
  407MOL0     H56122   5.559   9.545  -0.022 -1.2159 -0.0113 -0.7237
  407MOL0     H56123   5.722   9.526  -0.080 -0.1693  2.2128  0.7706
  407MOL0     H56124   5.368   9.592  -0.069 -1.9723 -1.4504  1.1198
  407MOL0     H56125   5.055   9.680  -0.129  2.4643  1.2568 -1.6863
  407MOL0     H56126   5.171   9.631  -0.011  0.4023  1.7495 -0.9362
  407MOL0     H56127   5.060   9.509  -0.065  0.6704 -0.5303 -0.5913
  407MOL0     H56128   4.999   9.871  -0.569  2.2836 -2.2106  0.9431
  407MOL0     H56129   4.773   9.964  -0.643  0.7235  0.4010 -3.3877
  407MOL0     H56130   4.459   9.644  -0.717 -0.4091 -0.9538 -1.9877
  407MOL0     H56131   4.368   9.782  -0.765 -0.0627 -2.0638  4.8528
  407MOL0     H56132   4.489   9.790  -0.993  5.6027 -0.7630  0.2943
  407MOL0     H56133   4.563   9.637  -0.952 -2.6695 -2.7898 -0.3328
  407MOL0     H56134   4.267   9.684  -0.946  0.2321  0.0648  2.3046
  407MOL0     H56135   4.339   9.532  -0.902 -0.3511  0.1755 -0.2525
  407MOL0     H56136   4.404   9.502  -1.145  2.6724  0.5803  1.9033
  407MOL0     H56137   4.345   9.669  -1.180  1.9603 -0.2077  0.0375
  407MOL0     H56138   4.167   9.429  -1.118 -5.0146  2.0708  2.4235
  407MOL0     H56139   4.128   9.594  -1.070  1.2913  0.1333  1.5408
  407MOL0     H56140   4.221   9.457  -1.337  2.3744  1.7725  0.9627
  407MOL0     H56141   4.155   9.626  -1.337  1.0390  0.2658 -0.2561
  407MOL0     H56142   3.936   9.560  -1.291  2.0458  1.9249 -0.1482
  407MOL0     H56143   3.988   9.397  -1.242  2.9917 -0.8296 -1.2370
  407MOL0     H56144   4.041   9.478  -1.520  0.8288 -2.0572 -0.3412
  407MOL0     H56145   3.864   9.461  -1.480 -0.2383 -0.6386 -1.3754
  407MOL0     H56146   4.645   9.551  -0.689  1.1672 -0.0696 -0.6193
  407MOL0     H56147   4.848   9.480  -0.583  0.5758  0.2483  0.2541
  407MOL0     H56148   5.262   9.517  -0.544  1.1607  2.9074 -1.1498
  407MOL0     H56149   5.492   9.459  -0.458 -2.0494 -2.3621 -1.0743
  407MOL0     H56150   5.385   9.328   0.116 -0.1585  0.9014  0.3591
  407MOL0     H56151   5.179   9.213   0.130 -0.5062 -0.1536 -1.9733
  407MOL0     H56152   4.896   9.114   0.358  0.0235  3.2512  2.3760
  407MOL0     H56153   4.770   8.954   0.494  0.8701 -0.0676 -3.1319
  407MOL0     H56154   4.369   9.077   0.651 -0.7376 -0.6164  1.0991
  407MOL0     H56155   4.342   8.990   0.494  0.4039  0.8027 -0.2477
  407MOL0     H56156   4.361   8.787   0.594 -1.7162 -1.2278  0.8724
  407MOL0     H56157   4.245   8.888   0.701 -0.4895  1.0751  0.0430
  407MOL0     H56158   4.533   8.809   0.758 -0.7473 -1.5245 -1.0374
  407MOL0     H56159   4.450   8.941   0.843 -0.7864  0.6374 -0.9734
  407MOL0     H56160   4.278   8.782   0.932  1.0226  0.0965  3.3520
  407MOL0     H56161   4.440   8.755   0.994 -1.3816  4.4849  0.2614
  407MOL0     H56162   4.353   8.403   0.760  2.2468 -1.1080  0.9257
  407MOL0     H56163   4.435   9.216   0.455  0.1402  0.5890  1.8137
  407MOL0     H56164   4.552   9.394   0.189  2.5855  0.6986  0.6869
  407MOL0     H56165   4.436   9.389   0.319 -0.2621 -0.0215 -0.5469
  407MOL0     H56166   4.578   9.492   0.337 -1.3765 -0.7067  3.0419
  408MOL0     O56167   6.905   9.470   4.034  0.1440 -0.4341 -0.4598
  408MOL0     C56168   6.844   9.499   3.928  0.6159  0.7191 -0.6273
  408MOL0     O56169   6.898   9.583   3.833 -0.1718 -0.4357 -0.3076
  408MOL0     C56170   7.035   9.595   3.829  0.4524 -0.2296  0.5190
  408MOL0     C56171   7.106   9.499   3.758  0.6983  0.7732 -1.1991
  408MOL0     C56172   7.240   9.502   3.770 -0.1299 -0.3028  0.2971
  408MOL0     C56173   7.315   9.592   3.844  0.1334 -0.7375 -0.0366
  408MOL0     O56174   7.459   9.576   3.833 -0.0958  0.8532 -0.1360
  408MOL0     C56175   7.543   9.673   3.883 -0.6787  0.0203  0.2819
  408MOL0     C56176   7.686   9.640   3.843 -0.4189 -0.3496 -0.0947
  408MOL0     C56177   7.731   9.667   3.704 -0.4455 -0.0085  0.4164
  408MOL0     C56178   7.861   9.587   3.675 -0.1524  0.2292 -0.4768
  408MOL0     C56179   7.920   9.629   3.539  0.1634  1.1846 -0.8787
  408MOL0     C56180   8.013   9.521   3.478  0.1528  0.0269  0.0543
  408MOL0     C56181   8.071   9.571   3.343 -0.1307  1.2225 -0.6880
  408MOL0     C56182   8.175   9.462   3.284  0.1115 -0.9543  0.5079
  408MOL0     N56183   8.245   9.526   3.170 -0.0313  0.6997 -0.3391
  408MOL0     C56184   8.241   9.485   3.044 -0.4545 -0.2066  0.3727
  408MOL0     C56185   8.337   9.545   2.972  0.4399 -1.1615 -0.1486
  408MOL0     C56186   8.365   9.551   2.826 -0.9277  0.7751  0.7042
  408MOL0     C56187   8.304   9.680   2.765 -0.2961 -0.0313 -0.2945
  408MOL0     C56188   8.152   9.652   2.720  0.4973 -0.1438  0.7820
  408MOL0     C56189   8.094   9.775   2.639 -0.2496  0.0462 -0.1660
  408MOL0     O56190   8.170   9.812   2.519  0.6650  1.1577 -0.6871
  408MOL0     C56191   8.162   9.728   2.403  0.4927  0.5773 -0.3928
  408MOL0     C56192   8.058   9.633   2.379  0.0063 -0.2561  0.1272
  408MOL0     C56193   8.053   9.566   2.260  0.1958  1.0123  0.2100
  408MOL0     C56194   7.936   9.469   2.259  0.1756  0.1242 -0.1238
  408MOL0     C56195   8.146   9.595   2.155  0.5860  0.2214 -0.5229
  408MOL0     C56196   8.142   9.533   2.019 -0.2660  0.1446  0.2623
  408MOL0     O56197   8.225   9.585   1.925 -0.4113  0.5848  0.2558
  408MOL0     C56198   8.243   9.542   1.793 -0.4372 -0.0084 -0.4068
  408MOL0     C56199   8.261   9.633   1.691 -0.8990  0.3869 -0.3817
  408MOL0     C56200   8.299   9.600   1.561  0.2465  1.0042  0.3446
  408MOL0     C56201   8.304   9.459   1.523  0.4099 -0.0203  0.8119
  408MOL0     O56202   8.343   9.418   1.392  0.1426 -0.9733  0.5491
  408MOL0     C56203   8.344   9.519   1.285  1.3771  0.6237 -0.6787
  408MOL0     C56204   8.360   9.438   1.156 -0.4125 -0.1503 -0.2425
  408MOL0     C56205   8.378   9.540   1.037 -0.1550  0.5129 -0.4394
  408MOL0     C56206   8.251   9.624   1.004  0.1149 -0.3986  0.5723
  408MOL0     C56207   8.271   9.725   0.887  0.0978 -0.6754  0.7548
  408MOL0     C56208   8.148   9.820   0.876  0.1234 -0.2972  0.1453
  408MOL0     C56209   8.034   9.752   0.799  0.5352  0.4013  0.7745
  408MOL0     C56210   8.062   9.741   0.650  0.3226  0.0446  0.6979
  408MOL0    Cl56211   7.913   9.695   0.552 -0.1362  0.2028 -0.3086
  408MOL0     C56212   8.272   9.368   1.628 -0.1013  0.6458  0.1802
  408MOL0     C56213   8.255   9.406   1.762  0.3130 -1.0721 -0.4534
  408MOL0     O56214   8.063   9.440   1.995  0.6082  0.1634 -0.6574
  408MOL0     C56215   8.251   9.684   2.185  0.9528 -0.5854  0.2983
  408MOL0     C56216   8.265   9.748   2.312  0.2261  0.7749  0.4189
  408MOL0     N56217   8.406   9.630   3.069  0.1591 -0.1274  0.2293
  408MOL0     N56218   8.351   9.611   3.187  0.2952  0.1107 -0.6702
  408MOL0     C56219   7.241   9.693   3.901 -0.4414 -0.4001 -0.1576
  408MOL0     C56220   7.104   9.686   3.908  0.0077  0.9295  0.5889
  408MOL0     C56221   6.701   9.446   3.909 -0.3504  0.2526 -0.1016
  408MOL0     C56222   6.639   9.410   4.025 -0.4388 -0.1882  0.1625
  408MOL0     C56223   6.507   9.367   4.021 -0.0568  0.3129 -1.2720
  408MOL0     C56224   6.432   9.361   3.902 -0.6511  0.7850 -0.4087
  408MOL0     O56225   6.303   9.320   3.915 -0.3387  0.3287 -0.1995
  408MOL0     C56226   6.209   9.335   3.813  0.0620  0.1607  0.1104
  408MOL0     C56227   6.157   9.476   3.799 -0.6118 -1.2003 -0.0941
  408MOL0     C56228   6.093   9.543   3.919  0.1653 -0.1864  0.0444
  408MOL0     C56229   6.002   9.448   3.994 -0.0820  0.2940 -0.5563
  408MOL0     C56230   5.889   9.394   3.914  0.6401  0.1585  0.4068
  408MOL0     C56231   5.797   9.334   3.857  0.1015 -0.0706  0.1412
  408MOL0     C56232   6.495   9.404   3.784 -0.0831 -0.3280 -0.0528
  408MOL0     C56233   6.632   9.437   3.782 -0.0553 -0.6217  0.0764
  408MOL0     C56234   6.698   9.463   3.649 -0.0707  0.0034  0.2860
  408MOL0     H56235   7.049   9.427   3.699 -0.8456  0.4789  0.5626
  408MOL0     H56236   7.300   9.430   3.715 -1.2995 -0.9468 -0.1673
  408MOL0     H56237   7.530   9.673   3.991  1.2201 -4.2221  0.6955
  408MOL0     H56238   7.511   9.774   3.855  2.9299  1.1076 -0.3898
  408MOL0     H56239   7.746   9.707   3.906 -1.2385  1.9619 -1.6284
  408MOL0     H56240   7.704   9.535   3.868  2.1800 -0.8081 -3.2739
  408MOL0     H56241   7.656   9.647   3.626  0.6781  0.8834 -0.9437
  408MOL0     H56242   7.754   9.774   3.695 -0.5802 -0.1502 -2.8255
  408MOL0     H56243   7.930   9.592   3.759 -2.9839  0.9992  1.9435
  408MOL0     H56244   7.825   9.484   3.677 -0.7481  0.4538  0.7659
  408MOL0     H56245   7.971   9.725   3.549  2.0407  0.1059  0.6222
  408MOL0     H56246   7.837   9.640   3.469  0.2813  1.9766 -0.9006
  408MOL0     H56247   8.098   9.515   3.545  0.4840  0.5364 -0.3162
  408MOL0     H56248   7.971   9.420   3.470  1.0674 -0.4658  1.2078
  408MOL0     H56249   8.137   9.656   3.360 -1.6358  2.6569 -1.6615
  408MOL0     H56250   7.993   9.588   3.268  1.3701 -1.9517 -3.2239
  408MOL0     H56251   8.247   9.429   3.359  3.0704 -1.7061 -2.4361
  408MOL0     H56252   8.117   9.378   3.242  0.0193  0.3074 -2.0990
  408MOL0     H56253   8.185   9.404   2.999  1.8326 -0.7927 -1.6301
  408MOL0     H56254   8.325   9.464   2.773  0.1071 -0.4004  1.8034
  408MOL0     H56255   8.474   9.563   2.824 -0.6228 -1.5035 -1.6102
  408MOL0     H56256   8.305   9.759   2.840  1.8518  0.5038 -0.8269
  408MOL0     H56257   8.360   9.713   2.677 -1.5725 -1.9593 -1.9312
  408MOL0     H56258   8.146   9.568   2.650  2.0332  1.4122 -1.3272
  408MOL0     H56259   8.080   9.633   2.801 -2.2902 -0.9999 -1.7320
  408MOL0     H56260   7.986   9.761   2.628 -0.0784 -0.1073 -2.1200
  408MOL0     H56261   8.103   9.858   2.710 -3.5574  0.3134  0.0722
  408MOL0     H56262   7.981   9.627   2.456  0.1731  0.5293  0.3622
  408MOL0     H56263   7.849   9.522   2.220 -1.7631 -2.8805 -0.1668
  408MOL0     H56264   7.922   9.425   2.359  0.1578  1.6542  0.5778
  408MOL0     H56265   7.961   9.379   2.203  2.5188  0.6330 -0.0084
  408MOL0     H56266   8.255   9.736   1.723  0.7187  0.2106  0.6022
  408MOL0     H56267   8.328   9.685   1.500  0.1188  0.5944 -0.2965
  408MOL0     H56268   8.254   9.578   1.270  2.5114  2.3573 -1.0037
  408MOL0     H56269   8.430   9.583   1.308  2.9417 -2.2868  2.5516
  408MOL0     H56270   8.448   9.373   1.165  1.0408  1.8916  1.7695
  408MOL0     H56271   8.270   9.379   1.139 -1.4144  1.6590 -1.5670
  408MOL0     H56272   8.410   9.484   0.948  0.3539  1.2680 -0.7429
  408MOL0     H56273   8.453   9.617   1.059  2.3628 -1.6412 -0.9219
  408MOL0     H56274   8.246   9.687   1.093 -0.0180 -1.0759  1.0511
  408MOL0     H56275   8.167   9.557   0.987 -0.3840  0.8257 -2.3579
  408MOL0     H56276   8.371   9.769   0.894  1.6613 -3.4770 -1.5584
  408MOL0     H56277   8.262   9.663   0.798  3.6766 -2.1330  1.2500
  408MOL0     H56278   8.175   9.909   0.820 -2.5319  0.0305 -0.7621
  408MOL0     H56279   8.116   9.851   0.975  1.6802  2.6568 -0.1696
  408MOL0     H56280   7.943   9.810   0.810  0.0853 -0.5327  2.2567
  408MOL0     H56281   8.000   9.659   0.846 -2.6029  1.7021  1.3180
  408MOL0     H56282   8.151   9.683   0.623 -0.6911 -0.8890 -0.8006
  408MOL0     H56283   8.082   9.841   0.610  1.0192 -0.5712 -0.5746
  408MOL0     H56284   8.280   9.261   1.611  2.7193  0.5786  1.4182
  408MOL0     H56285   8.230   9.339   1.843  1.5354  0.7064  1.4817
  408MOL0     H56286   8.327   9.712   2.113  2.5455 -1.6354  1.5000
  408MOL0     H56287   8.344   9.816   2.343  1.1512  0.1574 -0.5023
  408MOL0     H56288   7.292   9.775   3.950 -1.1592 -1.2386  2.0715
  408MOL0     H56289   7.046   9.759   3.965 -1.6517  0.5286 -0.5109
  408MOL0     H56290   6.688   9.408   4.123 -1.4279 -0.4464  0.6639
  408MOL0     H56291   6.455   9.331   4.109 -1.5642 -0.0378 -2.2611
  408MOL0     H56292   6.261   9.308   3.721  3.0761  0.9476  1.4693
  408MOL0     H56293   6.132   9.260   3.834 -1.4015  1.2452 -1.1830
  408MOL0     H56294   6.078   9.480   3.724 -0.2344  0.0331 -0.4587
  408MOL0     H56295   6.229   9.553   3.769 -2.8389  0.5076 -1.3650
  408MOL0     H56296   6.161   9.601   3.981  0.9701  1.8388 -2.5594
  408MOL0     H56297   6.025   9.624   3.891 -1.2490 -1.0752  0.7768
  408MOL0     H56298   5.964   9.491   4.087 -0.9724 -2.9243  0.7043
  408MOL0     H56299   6.053   9.358   4.029  0.7515  0.1342 -2.0632
  408MOL0     H56300   5.706   9.314   3.804 -1.0255 -2.1085  2.6164
  408MOL0     H56301   6.430   9.405   3.697 -1.7721 -0.8505  1.1658
  408MOL0     H56302   6.804   9.439   3.655 -0.3153 -1.9949 -1.7105
  408MOL0     H56303   6.651   9.405   3.568  0.0593 -0.0941  0.2790
  408MOL0     H56304   6.688   9.568   3.619 -0.4120 -0.5324 -1.6783
  409MOL0     O56305   9.425  10.629   9.621  1.0152  0.2849  0.2233
  409MOL0     C56306   9.404  10.510   9.625 -0.2223 -0.2878  0.2298
  409MOL0     O56307   9.491  10.413   9.579  0.1562  0.0145 -0.1209
  409MOL0     C56308   9.596  10.443   9.501  0.1390  0.3146 -0.4148
  409MOL0     C56309   9.720  10.448   9.567  0.1224  0.4062 -0.0693
  409MOL0     C56310   9.836  10.482   9.490  0.0156  0.6310  0.2550
  409MOL0     C56311   9.823  10.514   9.358 -0.1729  0.7013  0.4568
  409MOL0     O56312   9.939  10.545   9.287 -0.0207  0.0200 -0.4551
  409MOL0     C56313   9.929  10.571   9.147 -0.2568  0.2498 -0.5045
  409MOL0     C56314  10.069  10.602   9.100 -0.4918 -0.3827 -0.1522
  409MOL0     C56315  10.177  10.497   9.123  0.2010 -0.6025 -0.0375
  409MOL0     C56316  10.146  10.360   9.055 -0.3277 -1.5484 -0.2150
  409MOL0     C56317  10.262  10.256   9.058 -0.2119 -0.4685 -0.3316
  409MOL0     C56318  10.401  10.322   9.005  0.1946  0.8941 -0.0763
  409MOL0     C56319  10.514  10.220   8.981 -0.5808 -0.0511 -1.0752
  409MOL0     C56320  10.477  10.085   8.917 -0.1170 -0.1201  0.4748
  409MOL0     N56321  10.592  10.003   8.897 -0.7491 -0.9110 -0.2766
  409MOL0     C56322  10.632   9.915   8.999 -0.0527  0.4408  0.6240
  409MOL0     C56323  10.731   9.845   8.939  0.5936 -0.5434 -0.2449
  409MOL0     C56324  10.804   9.727   9.003 -0.4136  0.8167  0.4573
  409MOL0     C56325  10.902   9.762   9.113  0.8137  0.2466  0.3859
  409MOL0     C56326  11.049   9.778   9.073  0.1563  0.3384 -0.2458
  409MOL0     C56327  11.134   9.836   9.188  0.5055  0.2048 -0.0753
  409MOL0     O56328  11.137   9.747   9.300  0.6373 -0.1000  0.1797
  409MOL0     C56329  11.258   9.726   9.355 -0.2382  0.0356  0.4687
  409MOL0     C56330  11.289   9.595   9.397  0.5398  0.5389  0.6220
  409MOL0     C56331  11.405   9.565   9.457 -0.9228  0.3071 -0.4103
  409MOL0     C56332  11.431   9.417   9.480 -0.8216  0.0516 -0.1579
  409MOL0     C56333  11.496   9.669   9.489 -1.0357 -0.3106  0.4847
  409MOL0     C56334  11.626   9.646   9.549  0.1933  0.0445 -0.2340
  409MOL0     O56335  11.676   9.746   9.624 -0.4551  0.5578  0.6240
  409MOL0     C56336  11.793   9.725   9.696  0.5921 -0.2202  0.2369
  409MOL0     C56337  11.909   9.751   9.633  0.0683  0.7325  0.1529
  409MOL0     C56338  12.031   9.724   9.697 -0.4918 -0.5349  0.2129
  409MOL0     C56339  12.036   9.675   9.828  0.4306 -0.0045  0.2982
  409MOL0     O56340  12.150   9.671   9.907  0.2030 -0.7611 -0.5806
  409MOL0     C56341  12.273   9.699   9.836 -0.2418  0.0303 -0.4132
  409MOL0     C56342  12.386   9.730   9.940  0.5723 -0.4892 -0.0270
  409MOL0     C56343  12.518   9.658   9.913 -0.3763 -1.1838  0.1811
  409MOL0     C56344  12.570   9.689   9.766 -0.5299  0.8095  0.1148
  409MOL0     C56345  12.721   9.656   9.743 -0.2220  0.0728 -0.2298
  409MOL0     C56346  12.821   9.734   9.826 -0.2513  0.0562  0.1464
  409MOL0     C56347  12.962   9.689   9.813 -0.3913 -0.3037  0.7019
  409MOL0     C56348  13.048   9.756   9.926 -0.1362 -0.3938 -0.5615
  409MOL0    Cl56349  13.026   9.940   9.932 -0.0710 -0.0159 -0.0437
  409MOL0     C56350  11.911   9.647   9.886 -0.6663  0.3515 -0.3433
  409MOL0     C56351  11.790   9.665   9.821  0.5388  0.6074 -0.2733
  409MOL0     O56352  11.686   9.540   9.529 -0.5382  0.2792  0.3539
  409MOL0     C56353  11.458   9.803   9.461  0.6540 -0.0261  0.2914
  409MOL0     C56354  11.349   9.831   9.382 -0.8016  0.0110 -0.3451
  409MOL0     N56355  10.737   9.879   8.803  0.1469 -0.1223 -0.2227
  409MOL0     N56356  10.659   9.975   8.779  0.4465  0.2365 -0.3671
  409MOL0     C56357   9.696  10.512   9.297  0.0607 -0.1370 -0.5506
  409MOL0     C56358   9.591  10.474   9.368  0.4119  0.5033 -0.2671
  409MOL0     C56359   9.287  10.466   9.707  0.8479  0.2834 -0.1369
  409MOL0     C56360   9.172  10.537   9.683  0.3839  0.1845 -0.8468
  409MOL0     C56361   9.054  10.495   9.748 -0.4737  0.9194  0.7645
  409MOL0     C56362   9.042  10.376   9.829 -0.7181 -0.8961  0.6326
  409MOL0     O56363   8.926  10.332   9.872  0.2793 -0.6360 -0.3786
  409MOL0     C56364   8.928  10.205   9.940 -0.5510 -0.5145  0.0302
  409MOL0     C56365   8.780  10.168   9.974  0.3332  0.3548  1.1738
  409MOL0     C56366   8.678  10.166   9.858 -0.5984  0.6566  0.0446
  409MOL0     C56367   8.529  10.142   9.902 -0.5730 -0.2920 -0.7537
  409MOL0     C56368   8.441  10.102   9.790  0.4926  0.8511 -1.9147
  409MOL0     C56369   8.375  10.063   9.698 -0.2412  0.1756 -0.0455
  409MOL0     C56370   9.166  10.310   9.843 -0.1256  0.0851 -0.8005
  409MOL0     C56371   9.282  10.356   9.791 -1.0582 -0.1105  1.0695
  409MOL0     C56372   9.411  10.264   9.811  0.3108  0.1073 -0.4919
  409MOL0     H56373   9.725  10.432   9.674  2.4037  2.2861  0.1898
  409MOL0     H56374   9.933  10.480   9.540  0.3146 -2.2478 -0.2217
  409MOL0     H56375   9.854  10.649   9.131  0.3811  1.2273  0.9992
  409MOL0     H56376   9.905  10.475   9.102  2.4904 -0.1141 -1.3257
  409MOL0     H56377  10.071  10.626   8.993 -0.4475 -0.0540 -0.0767
  409MOL0     H56378  10.106  10.691   9.151 -1.4169 -0.2889  0.3792
  409MOL0     H56379  10.267  10.549   9.089 -0.1398 -0.0640 -0.1313
  409MOL0     H56380  10.179  10.477   9.230 -2.0474 -2.7290 -0.3188
  409MOL0     H56381  10.062  10.318   9.110 -0.8409  1.1919  1.3148
  409MOL0     H56382  10.109  10.388   8.956  0.2479  1.4371  0.3095
  409MOL0     H56383  10.234  10.173   8.993  1.8400 -2.3944  1.1110
  409MOL0     H56384  10.288  10.228   9.160  2.5460  2.4786 -0.0692
  409MOL0     H56385  10.381  10.381   8.915 -1.9947  1.5156  0.7642
  409MOL0     H56386  10.435  10.393   9.080 -2.1731 -0.3264  2.3100
  409MOL0     H56387  10.562  10.209   9.079  0.1492 -1.8633 -1.5944
  409MOL0     H56388  10.586  10.272   8.918  0.2884  1.2129  0.8379
  409MOL0     H56389  10.410  10.019   8.973  2.2777 -2.8763  0.3501
  409MOL0     H56390  10.420  10.108   8.826 -0.7396  1.1694  1.1521
  409MOL0     H56391  10.592   9.892   9.098  1.0611 -2.6497  0.4701
  409MOL0     H56392  10.852   9.668   8.924 -0.6781  1.7732 -0.4326
  409MOL0     H56393  10.733   9.652   9.038  1.9846 -2.2218 -0.7207
  409MOL0     H56394  10.876   9.861   9.153 -0.0615  0.1365  0.1027
  409MOL0     H56395  10.888   9.680   9.184 -2.6282  0.5404  0.2371
  409MOL0     H56396  11.084   9.682   9.035  0.8356 -0.5625  2.4421
  409MOL0     H56397  11.056   9.852   8.993  2.6161  0.7386  0.2485
  409MOL0     H56398  11.235   9.843   9.148  0.1416 -3.3207 -2.1000
  409MOL0     H56399  11.104   9.939   9.206 -2.2820 -0.7524  1.4040
  409MOL0     H56400  11.210   9.528   9.365 -1.8250  1.1861  4.4975
  409MOL0     H56401  11.450   9.400   9.586 -0.3729  1.8779  0.0801
  409MOL0     H56402  11.517   9.372   9.429 -0.7105 -0.1497  0.2064
  409MOL0     H56403  11.346   9.358   9.445 -0.2639 -0.7576 -0.1726
  409MOL0     H56404  11.902   9.790   9.532 -1.9283  0.6340  0.2176
  409MOL0     H56405  12.114   9.765   9.640 -1.1398  1.0745  0.3773
  409MOL0     H56406  12.296   9.608   9.781  3.3843 -0.2743  1.3596
  409MOL0     H56407  12.276   9.791   9.777  4.4618  0.1927 -0.2391
  409MOL0     H56408  12.404   9.838   9.935 -1.8092 -0.1000 -1.3413
  409MOL0     H56409  12.340   9.696  10.033 -1.5655  0.6687 -0.5948
  409MOL0     H56410  12.504   9.551   9.929 -0.8282 -0.8017  2.8512
  409MOL0     H56411  12.596   9.697   9.980 -0.9434 -0.1918  0.2740
  409MOL0     H56412  12.544   9.794   9.748  0.4724  0.4946 -4.4665
  409MOL0     H56413  12.520   9.630   9.688  2.2693 -2.4341  0.5327
  409MOL0     H56414  12.740   9.550   9.763 -1.4129  0.1126  1.3009
  409MOL0     H56415  12.751   9.669   9.639  2.0044 -0.0265  0.3628
  409MOL0     H56416  12.797   9.732   9.933 -2.4725 -0.5868 -0.3026
  409MOL0     H56417  12.816   9.835   9.785  0.0732 -0.0599 -0.1852
  409MOL0     H56418  13.007   9.728   9.721  0.8740 -0.6106  1.1657
  409MOL0     H56419  12.959   9.579   9.814  0.0001 -0.3362 -0.2586
  409MOL0     H56420  13.152   9.734   9.902 -1.0826 -2.3370 -3.5036
  409MOL0     H56421  13.017   9.725  10.026 -1.5447  0.4641 -0.6950
  409MOL0     H56422  11.920   9.613   9.989  2.4685  1.8241  0.0051
  409MOL0     H56423  11.701   9.644   9.879  2.3066 -0.5083  2.2179
  409MOL0     H56424  11.531   9.881   9.477  4.2350 -2.0747 -3.8025
  409MOL0     H56425  11.337   9.936   9.360  0.5252  0.7333  1.9911
  409MOL0     H56426   9.675  10.559   9.201 -0.9388  1.1983  0.2833
  409MOL0     H56427   9.496  10.471   9.315  2.0302 -0.1041 -3.3610
  409MOL0     H56428   9.148  10.621   9.619 -3.6772  0.7129  1.0154
  409MOL0     H56429   8.974  10.566   9.729 -0.9413 -0.4497 -3.5638
  409MOL0     H56430   8.974  10.122   9.885  3.7659  1.4410  0.3068
  409MOL0     H56431   8.978  10.199  10.037 -0.6391  1.0261  0.1966
  409MOL0     H56432   8.754  10.238  10.053 -1.1847 -0.3284  1.3088
  409MOL0     H56433   8.765  10.070  10.021 -3.8704 -0.8786 -2.1021
  409MOL0     H56434   8.685  10.262   9.805  1.7550  1.1675  1.1159
  409MOL0     H56435   8.710  10.086   9.791  0.3932  0.5829  0.5886
  409MOL0     H56436   8.504  10.241   9.942  2.9687  0.5787 -0.3350
  409MOL0     H56437   8.525  10.073   9.987  3.0137  3.0692  2.5420
  409MOL0     H56438   8.322  10.030   9.612 -1.5947 -0.2049  0.9088
  409MOL0     H56439   9.175  10.225   9.909  1.3944  1.7393  1.3029
  409MOL0     H56440   9.499  10.316   9.849 -0.6874  1.8799 -0.4756
  409MOL0     H56441   9.392  10.184   9.884  0.1123  2.0062  1.6675
  409MOL0     H56442   9.423  10.215   9.714  1.2814 -1.4072  0.3470
  410MOL0     O56443   9.332   1.519   5.465  0.8628  0.1200  0.2267
  410MOL0     C56444   9.333   1.473   5.574  0.3934  0.2371 -0.1892
  410MOL0     O56445   9.436   1.411   5.636  0.2931  0.1415  0.1109
  410MOL0     C56446   9.561   1.433   5.598  0.4818 -0.0443 -0.4344
  410MOL0     C56447   9.640   1.517   5.680 -0.6545 -0.1859 -0.0604
  410MOL0     C56448   9.773   1.519   5.657 -0.6609  0.2247  0.2344
  410MOL0     C56449   9.830   1.439   5.554  0.9091  0.5394 -0.7011
  410MOL0     O56450   9.956   1.439   5.504  0.6835  0.0737 -0.3736
  410MOL0     C56451  10.063   1.486   5.596  0.5444  0.1590 -0.0196
  410MOL0     C56452  10.201   1.444   5.565 -0.0238  0.2536 -0.8736
  410MOL0     C56453  10.254   1.318   5.633 -0.0647 -0.0556  0.4170
  410MOL0     C56454  10.407   1.320   5.624  0.4018  0.4333  0.2479
  410MOL0     C56455  10.462   1.194   5.685  0.6893 -0.3659 -0.0483
  410MOL0     C56456  10.616   1.190   5.682 -0.0941  0.0046 -0.1704
  410MOL0     C56457  10.677   1.320   5.744 -0.1524  0.0427 -0.0460
  410MOL0     C56458  10.827   1.313   5.757 -0.1530  0.4745 -0.0899
  410MOL0     N56459  10.869   1.207   5.846 -0.7765 -0.8212 -0.1242
  410MOL0     C56460  10.977   1.123   5.824 -0.1183  0.5827  0.7105
  410MOL0     C56461  10.990   1.066   5.948  0.1006 -0.6148 -0.5208
  410MOL0     C56462  11.091   0.964   5.977 -0.5963  0.4720 -0.0248
  410MOL0     C56463  11.128   0.968   6.125 -0.2293 -0.7784  0.1753
  410MOL0     C56464  11.230   0.861   6.163 -0.6099 -0.1044 -0.3203
  410MOL0     C56465  11.267   0.872   6.310 -0.4879 -0.3420 -0.0158
  410MOL0     O56466  11.341   0.751   6.339 -0.2307 -0.0247 -0.1338
  410MOL0     C56467  11.446   0.744   6.427 -1.0268 -0.1042  0.9345
  410MOL0     C56468  11.524   0.630   6.434  0.1194  0.0415 -0.1804
  410MOL0     C56469  11.633   0.623   6.531 -0.2832  0.0231  0.3664
  410MOL0     C56470  11.692   0.485   6.539  0.6379  0.1839  0.2371
  410MOL0     C56471  11.658   0.731   6.617  0.4403  0.4764 -0.3646
  410MOL0     C56472  11.768   0.728   6.711 -0.0134 -0.2586  1.1513
  410MOL0     O56473  11.763   0.827   6.801 -0.8199  0.4977  0.4500
  410MOL0     C56474  11.856   0.839   6.900 -0.5549  0.4810  0.3723
  410MOL0     C56475  11.878   0.730   6.996 -0.0539 -0.5585 -0.0161
  410MOL0     C56476  11.973   0.753   7.099  0.8029  0.7478 -0.3100
  410MOL0     C56477  12.052   0.874   7.090 -0.5031  0.3637 -0.5268
  410MOL0     O56478  12.146   0.892   7.188  0.4042 -0.3426  0.4863
  410MOL0     C56479  12.202   1.036   7.191  0.1275  0.2183  0.0147
  410MOL0     C56480  12.281   1.061   7.318 -0.3501 -0.1660  0.0268
  410MOL0     C56481  12.407   0.967   7.329  0.1090 -0.6550  0.2016
  410MOL0     C56482  12.488   1.001   7.450  0.0302 -0.2792 -0.2651
  410MOL0     C56483  12.619   0.915   7.466  0.0841 -0.6054 -0.2527
  410MOL0     C56484  12.699   0.975   7.583 -0.3658 -0.0126  1.4733
  410MOL0     C56485  12.819   0.904   7.609 -0.1608  0.3239 -1.0291
  410MOL0     C56486  12.894   0.978   7.724  0.6761  0.2666 -0.3176
  410MOL0    Cl56487  13.046   0.888   7.774 -0.0129 -0.5934 -0.3260
  410MOL0     C56488  12.027   0.973   6.991  0.1854 -0.1217  1.0078
  410MOL0     C56489  11.926   0.951   6.897  0.0406 -0.4595  0.0133
  410MOL0     O56490  11.864   0.648   6.706 -0.6965 -0.0586 -0.0316
  410MOL0     C56491  11.579   0.841   6.604  0.7666  0.7610 -0.2726
  410MOL0     C56492  11.482   0.857   6.508 -0.2395  0.2197 -0.3828
  410MOL0     N56493  10.912   1.130   6.040  1.1540  0.1621 -0.0558
  410MOL0     N56494  10.832   1.204   5.979 -0.4724 -0.2092  0.0423
  410MOL0     C56495   9.752   1.362   5.471 -0.2720  0.1864  0.2565
  410MOL0     C56496   9.620   1.358   5.495  0.0001 -0.0307 -0.1016
  410MOL0     C56497   9.200   1.475   5.644  0.5553  0.2263 -0.3682
  410MOL0     C56498   9.200   1.428   5.783 -0.2261  0.0198 -0.4148
  410MOL0     C56499   9.085   1.427   5.861  0.1919 -0.6065 -0.2428
  410MOL0     C56500   8.962   1.472   5.820 -0.5733  0.1108 -0.0401
  410MOL0     O56501   8.857   1.467   5.909  0.4218 -0.0640  0.4983
  410MOL0     C56502   8.718   1.483   5.882  0.9015 -0.4284 -0.2063
  410MOL0     C56503   8.619   1.445   5.997 -0.7738 -0.4925 -0.7019
  410MOL0     C56504   8.468   1.486   5.966 -0.1245  0.2670 -0.0165
  410MOL0     C56505   8.372   1.465   6.080 -0.1168 -0.2665 -0.2712
  410MOL0     C56506   8.336   1.326   6.099  0.2356  0.0265 -0.4247
  410MOL0     C56507   8.296   1.211   6.117  0.8676  0.1944 -0.0432
  410MOL0     C56508   8.956   1.519   5.691  0.2136 -0.2737  0.1699
  410MOL0     C56509   9.074   1.516   5.599 -0.1380 -0.5878  0.2062
  410MOL0     C56510   9.048   1.550   5.461 -0.2577  0.3060  0.5168
  410MOL0     H56511   9.595   1.567   5.765  0.3522 -0.0054  0.3827
  410MOL0     H56512   9.838   1.586   5.713 -0.7090 -0.0374  0.6041
  410MOL0     H56513  10.033   1.450   5.695 -2.1994 -0.4210 -0.9774
  410MOL0     H56514  10.048   1.594   5.583  4.4477  0.9368  0.6974
  410MOL0     H56515  10.217   1.439   5.457  1.0370  1.7052 -0.8097
  410MOL0     H56516  10.249   1.535   5.604 -0.3842 -0.1925  0.6997
  410MOL0     H56517  10.211   1.312   5.734 -4.0482  1.5444 -0.9672
  410MOL0     H56518  10.206   1.239   5.576 -3.0518  1.7237  0.2748
  410MOL0     H56519  10.432   1.320   5.517 -1.4868  1.0010 -0.2422
  410MOL0     H56520  10.442   1.408   5.677 -0.1719  1.4278 -0.9627
  410MOL0     H56521  10.423   1.111   5.625  2.9731 -0.3766 -1.6477
  410MOL0     H56522  10.430   1.189   5.790 -1.6979  2.8695 -0.4596
  410MOL0     H56523  10.645   1.102   5.740 -0.1845 -0.4734 -0.8418
  410MOL0     H56524  10.651   1.176   5.579 -0.7149 -0.0726 -0.3741
  410MOL0     H56525  10.622   1.339   5.837  1.7422 -0.5434  1.2393
  410MOL0     H56526  10.668   1.394   5.665 -0.0913 -1.1819 -1.2330
  410MOL0     H56527  10.864   1.293   5.657 -3.4254  0.0220 -1.3267
  410MOL0     H56528  10.866   1.407   5.798 -1.0502  0.9349 -0.2769
  410MOL0     H56529  11.027   1.098   5.732 -0.5142 -1.0056  0.9010
  410MOL0     H56530  11.176   0.970   5.908 -0.7688 -0.5371 -0.3404
  410MOL0     H56531  11.053   0.864   5.957 -2.0320  0.4282  2.5628
  410MOL0     H56532  11.152   1.069   6.160  2.0535 -1.7410  1.6755
  410MOL0     H56533  11.038   0.945   6.183 -0.6682  0.7829  0.1546
  410MOL0     H56534  11.185   0.764   6.143 -0.5241  0.1515 -1.8954
  410MOL0     H56535  11.323   0.879   6.108 -0.8317  2.8617  0.0736
  410MOL0     H56536  11.335   0.957   6.325  0.2615 -1.2489  2.1813
  410MOL0     H56537  11.174   0.880   6.367  0.2143 -1.9311  1.4305
  410MOL0     H56538  11.493   0.549   6.369 -0.9153  1.6494 -1.7870
  410MOL0     H56539  11.690   0.451   6.643  2.0497  1.7529  0.8312
  410MOL0     H56540  11.798   0.496   6.511  0.1498 -0.8170 -2.1705
  410MOL0     H56541  11.640   0.424   6.465  1.2365 -0.2527  0.1694
  410MOL0     H56542  11.812   0.644   6.990  0.0116 -0.7601  1.7649
  410MOL0     H56543  12.002   0.679   7.173  2.4501 -0.3415 -1.9520
  410MOL0     H56544  12.260   1.043   7.098 -1.3975  2.4621 -0.8457
  410MOL0     H56545  12.117   1.104   7.197 -0.1985  0.0421 -2.0018
  410MOL0     H56546  12.310   1.167   7.314  1.2603 -0.5966 -0.4859
  410MOL0     H56547  12.230   1.045   7.413  5.7790 -0.1921  3.8506
  410MOL0     H56548  12.461   0.983   7.235 -1.4849 -1.9607 -1.0096
  410MOL0     H56549  12.384   0.860   7.328  0.0581 -0.6532 -1.3737
  410MOL0     H56550  12.428   0.981   7.539  1.1762  0.0644  0.5936
  410MOL0     H56551  12.508   1.109   7.448 -1.1261 -0.0061  1.2118
  410MOL0     H56552  12.598   0.809   7.487 -1.2556  0.0499  2.1039
  410MOL0     H56553  12.680   0.915   7.375  1.9006  0.0992  0.9183
  410MOL0     H56554  12.635   0.974   7.672 -0.7434 -3.1842  1.2900
  410MOL0     H56555  12.728   1.076   7.552  2.6324 -1.0306  0.6082
  410MOL0     H56556  12.887   0.886   7.525 -1.1851 -1.5902 -1.5151
  410MOL0     H56557  12.789   0.805   7.646 -0.4631  0.1324 -1.7683
  410MOL0     H56558  12.831   0.982   7.814  1.7281 -1.1339  0.5324
  410MOL0     H56559  12.927   1.076   7.689  0.8959  0.2710 -0.0986
  410MOL0     H56560  12.075   1.068   6.975 -0.9800  0.0251 -2.7568
  410MOL0     H56561  11.908   1.031   6.826 -2.8456 -1.1164 -0.1041
  410MOL0     H56562  11.618   0.931   6.650  3.2768 -0.6709  0.6521
  410MOL0     H56563  11.434   0.954   6.505 -2.1497 -0.6845 -0.2579
  410MOL0     H56564   9.789   1.302   5.388  1.2865  0.0353  1.0228
  410MOL0     H56565   9.556   1.290   5.439  0.2813  0.0736 -0.5471
  410MOL0     H56566   9.283   1.391   5.842  1.1162  2.0464 -0.9338
  410MOL0     H56567   9.099   1.374   5.955 -0.5641 -0.2061  0.1023
  410MOL0     H56568   8.696   1.585   5.850 -1.1681 -0.8004 -0.0903
  410MOL0     H56569   8.683   1.421   5.798  0.5118  0.6447 -0.8705
  410MOL0     H56570   8.647   1.488   6.094 -3.8497 -0.7011  0.4007
  410MOL0     H56571   8.625   1.338   6.017  0.3931 -0.7457 -2.2350
  410MOL0     H56572   8.463   1.592   5.937 -1.6928  0.9486  2.4216
  410MOL0     H56573   8.434   1.430   5.879  0.8350 -0.2870 -0.0454
  410MOL0     H56574   8.280   1.519   6.053 -3.9016 -4.9213  1.9713
  410MOL0     H56575   8.418   1.501   6.172  0.7235  2.7759 -1.7407
  410MOL0     H56576   8.246   1.120   6.143 -2.3507  0.7847 -3.3803
  410MOL0     H56577   8.863   1.548   5.644  0.3114 -1.6491 -0.9334
  410MOL0     H56578   8.943   1.530   5.440 -0.4171  0.3780  1.2229
  410MOL0     H56579   9.063   1.654   5.429 -2.3862  0.3226 -0.5435
  410MOL0     H56580   9.111   1.489   5.396  1.2504  1.7216  0.5559
  411MOL0     O56581   9.307   6.300   0.749 -0.1442 -0.0313 -0.1927
  411MOL0     C56582   9.209   6.332   0.809  0.2165  0.7670  0.6289
  411MOL0     O56583   9.210   6.421   0.910  0.3768 -0.2827 -0.0254
  411MOL0     C56584   9.335   6.430   0.966  0.2467  0.9898  0.2561
  411MOL0     C56585   9.379   6.331   1.057 -0.3822 -0.2505 -0.1872
  411MOL0     C56586   9.515   6.334   1.103  0.2309 -0.3944  0.0520
  411MOL0     C56587   9.605   6.432   1.051 -0.6222  0.0874 -0.3802
  411MOL0     O56588   9.742   6.429   1.078  0.2200 -0.2891 -0.1887
  411MOL0     C56589   9.814   6.324   1.152 -0.2288  0.0861  0.4817
  411MOL0     C56590   9.952   6.382   1.177  0.1679 -0.1568 -0.1848
  411MOL0     C56591  10.039   6.389   1.055  0.4824  0.2085 -0.6122
  411MOL0     C56592  10.092   6.247   1.018  0.0672  0.0574 -1.5086
  411MOL0     C56593  10.186   6.253   0.892  0.3897 -0.2539 -0.4960
  411MOL0     C56594  10.229   6.113   0.845 -0.5479  0.7238  0.5345
  411MOL0     C56595  10.328   6.108   0.725 -0.8036  0.8883  0.0804
  411MOL0     C56596  10.459   6.185   0.758  0.1156 -0.9074  0.2027
  411MOL0     N56597  10.530   6.149   0.881  0.2330 -0.8530  0.1455
  411MOL0     C56598  10.517   6.211   1.006 -0.0896  0.3159 -0.4271
  411MOL0     C56599  10.625   6.158   1.076 -0.1321  0.1221 -0.0713
  411MOL0     C56600  10.666   6.198   1.221  0.7762 -0.3363 -0.1668
  411MOL0     C56601  10.787   6.294   1.195 -0.5815  0.6514 -0.2983
  411MOL0     C56602  10.916   6.244   1.259  0.0942 -0.7444 -1.0880
  411MOL0     C56603  11.006   6.352   1.299 -0.0708  0.6044 -0.8501
  411MOL0     O56604  10.953   6.398   1.426  0.0789 -0.2867  0.1620
  411MOL0     C56605  11.037   6.470   1.509 -1.3250  0.9963  0.1599
  411MOL0     C56606  11.008   6.471   1.645 -0.1484 -0.4464 -0.1933
  411MOL0     C56607  11.098   6.531   1.739  0.1062 -0.2242  0.6551
  411MOL0     C56608  11.053   6.527   1.885 -0.5112 -0.4030 -0.9514
  411MOL0     C56609  11.221   6.596   1.702  0.3701  0.1782  0.1780
  411MOL0     C56610  11.311   6.661   1.805  0.4162  0.3529  0.2232
  411MOL0     O56611  11.346   6.578   1.908 -0.0121 -0.4523  0.1788
  411MOL0     C56612  11.443   6.617   1.987 -0.6263  1.0303  0.4891
  411MOL0     C56613  11.567   6.566   1.966 -0.6411  0.5033  0.7585
  411MOL0     C56614  11.666   6.583   2.067 -0.8717 -0.6506  0.7447
  411MOL0     C56615  11.639   6.662   2.179 -0.5804  0.7185 -0.5658
  411MOL0     O56616  11.748   6.659   2.260  0.2144  0.0221  0.2135
  411MOL0     C56617  11.753   6.764   2.353 -0.5273  1.3370  0.4332
  411MOL0     C56618  11.717   6.706   2.493 -0.6463  0.8189 -0.2705
  411MOL0     C56619  11.783   6.782   2.615  0.5724  0.4427  0.7239
  411MOL0     C56620  11.777   6.709   2.746  0.9380  0.2734 -0.6078
  411MOL0     C56621  11.628   6.677   2.797 -0.2532 -0.5330 -0.3752
  411MOL0     C56622  11.641   6.606   2.933  0.2078 -0.1695 -1.0555
  411MOL0     C56623  11.513   6.605   3.008 -0.8371  0.2921  0.7425
  411MOL0     C56624  11.404   6.503   2.956  0.1321  0.5746  0.2113
  411MOL0    Cl56625  11.464   6.332   2.983 -0.2789  0.2218 -0.0939
  411MOL0     C56626  11.514   6.718   2.196 -0.1819  0.2424 -0.1705
  411MOL0     C56627  11.421   6.703   2.097 -0.0736  0.1096 -0.6452
  411MOL0     O56628  11.353   6.778   1.781  1.2685  0.4065 -0.1855
  411MOL0     C56629  11.245   6.594   1.551 -0.4671 -0.3463 -0.3159
  411MOL0     C56630  11.158   6.525   1.462  0.0545  0.6221  0.1590
  411MOL0     N56631  10.702   6.083   0.992 -0.1513  0.1442 -0.3658
  411MOL0     N56632  10.641   6.067   0.884  0.5284  0.1406 -0.4138
  411MOL0     C56633   9.558   6.531   0.965 -0.7252  0.4032 -0.0845
  411MOL0     C56634   9.423   6.535   0.923 -0.0554 -0.0572 -0.0942
  411MOL0     C56635   9.080   6.277   0.776 -0.2741 -0.4917  0.1017
  411MOL0     C56636   8.968   6.297   0.867  0.1163  0.6400  0.1535
  411MOL0     C56637   8.844   6.236   0.840  0.0886 -0.5544 -0.4916
  411MOL0     C56638   8.826   6.149   0.733 -0.3340 -0.0566  0.0393
  411MOL0     O56639   8.707   6.076   0.727  0.0199  0.1597 -0.1039
  411MOL0     C56640   8.693   5.977   0.617  0.7330 -0.1930 -0.5073
  411MOL0     C56641   8.555   5.908   0.626  0.0544  0.3175  0.5315
  411MOL0     C56642   8.501   5.855   0.498 -0.4716 -0.3285  0.3934
  411MOL0     C56643   8.362   5.790   0.496  1.1495 -0.2122  0.1265
  411MOL0     C56644   8.267   5.902   0.521  0.8999 -0.5083  0.2897
  411MOL0     C56645   8.199   6.011   0.524 -0.8657  0.4335  0.6462
  411MOL0     C56646   8.930   6.145   0.644 -0.1912  0.4888 -0.0831
  411MOL0     C56647   9.054   6.207   0.654  0.1792  0.1095  0.3757
  411MOL0     C56648   9.142   6.169   0.541  0.0810  0.2271 -0.3987
  411MOL0     H56649   9.304   6.260   1.091 -0.8161 -0.1411 -0.9124
  411MOL0     H56650   9.551   6.254   1.168 -1.4253 -1.9198 -0.8221
  411MOL0     H56651   9.809   6.224   1.107 -0.5391  0.0765  0.5338
  411MOL0     H56652   9.769   6.311   1.251  0.4014  0.9398  0.8918
  411MOL0     H56653   9.932   6.479   1.224 -2.3853 -1.8920  2.6791
  411MOL0     H56654  10.009   6.317   1.245  2.3764 -2.1799 -3.6532
  411MOL0     H56655   9.982   6.435   0.974 -0.8320  0.2311  0.2946
  411MOL0     H56656  10.127   6.451   1.072  2.6112 -2.6568 -0.2631
  411MOL0     H56657  10.141   6.203   1.105  1.8469  2.3083 -1.2827
  411MOL0     H56658  10.004   6.185   0.998  0.3945 -0.1089 -2.4898
  411MOL0     H56659  10.269   6.323   0.907  1.8829 -1.9875 -0.3966
  411MOL0     H56660  10.139   6.305   0.808  1.9279  4.2861  1.1656
  411MOL0     H56661  10.273   6.057   0.928  0.3915  0.4046 -0.1680
  411MOL0     H56662  10.137   6.066   0.810  0.1327  0.5231 -1.0900
  411MOL0     H56663  10.287   6.136   0.628 -0.8556  1.8624  0.3680
  411MOL0     H56664  10.358   6.003   0.719  2.8247  1.6233  2.1369
  411MOL0     H56665  10.525   6.165   0.672 -2.1705 -0.9229 -1.6512
  411MOL0     H56666  10.441   6.293   0.759  3.5330 -0.1916  2.2101
  411MOL0     H56667  10.449   6.291   1.036  0.3891  1.0033 -1.1499
  411MOL0     H56668  10.689   6.113   1.286  0.2168  1.1302  2.0628
  411MOL0     H56669  10.585   6.253   1.269  0.9958 -0.7825  0.7529
  411MOL0     H56670  10.796   6.319   1.089  3.5789 -1.0614 -0.5254
  411MOL0     H56671  10.757   6.388   1.243 -3.0965  0.4101 -1.2043
  411MOL0     H56672  10.893   6.190   1.351  2.1086  2.0313  1.2057
  411MOL0     H56673  10.978   6.182   1.193 -1.5365 -3.4093 -0.3129
  411MOL0     H56674  11.108   6.315   1.313 -0.6988 -0.5308  1.1991
  411MOL0     H56675  11.006   6.439   1.233  0.8796  0.5116 -0.9803
  411MOL0     H56676  10.921   6.420   1.687  0.1933 -0.1126  0.9653
  411MOL0     H56677  10.944   6.516   1.891 -0.4914 -0.6267 -0.9868
  411MOL0     H56678  11.087   6.615   1.941 -2.0208  0.9305 -2.0060
  411MOL0     H56679  11.098   6.442   1.936  2.7761  2.2692  1.0543
  411MOL0     H56680  11.581   6.505   1.878  2.4183  4.5041 -1.8435
  411MOL0     H56681  11.768   6.544   2.059  0.5189  2.2484  2.6257
  411MOL0     H56682  11.856   6.800   2.350  0.1359 -0.5395 -0.7513
  411MOL0     H56683  11.700   6.856   2.327 -1.9222  0.2255 -0.8205
  411MOL0     H56684  11.609   6.697   2.505 -0.6458  0.6988 -0.3568
  411MOL0     H56685  11.742   6.601   2.510 -4.1640 -0.0083  0.4948
  411MOL0     H56686  11.730   6.877   2.629  0.6433  0.2493  2.5636
  411MOL0     H56687  11.885   6.815   2.594  0.8475 -1.3314 -1.1236
  411MOL0     H56688  11.819   6.776   2.823 -2.1165 -0.6349  2.0917
  411MOL0     H56689  11.832   6.615   2.740  4.5832  1.9370  2.4545
  411MOL0     H56690  11.581   6.774   2.819 -0.0683 -0.1370 -1.6653
  411MOL0     H56691  11.575   6.613   2.726  1.1166 -1.5906 -0.4758
  411MOL0     H56692  11.708   6.656   3.002 -1.3556  2.8431 -1.5412
  411MOL0     H56693  11.669   6.503   2.911  0.5406 -0.4640  0.6674
  411MOL0     H56694  11.467   6.704   3.015  0.7351  1.1307 -0.3644
  411MOL0     H56695  11.535   6.578   3.112  1.1322 -1.1715  0.0017
  411MOL0     H56696  11.382   6.519   2.850 -1.5131  0.2722  0.4812
  411MOL0     H56697  11.316   6.531   3.014  0.0792  1.1869 -0.1608
  411MOL0     H56698  11.479   6.775   2.281 -2.9302  0.2192 -1.1756
  411MOL0     H56699  11.321   6.747   2.097 -0.7471 -1.3386 -1.3957
  411MOL0     H56700  11.339   6.633   1.515 -0.6369  0.3851  0.0173
  411MOL0     H56701  11.187   6.535   1.358  1.3688  1.5232  0.5888
  411MOL0     H56702   9.639   6.596   0.932  1.8546 -2.5070  0.0045
  411MOL0     H56703   9.390   6.606   0.848 -0.4211 -2.1333 -2.0070
  411MOL0     H56704   8.973   6.349   0.962 -0.8530 -1.7216  1.5766
  411MOL0     H56705   8.760   6.259   0.905 -1.0683 -3.0406 -0.9983
  411MOL0     H56706   8.696   6.035   0.524  1.3036  1.0188  0.2428
  411MOL0     H56707   8.778   5.908   0.621  3.1462  2.6209  3.2520
  411MOL0     H56708   8.492   5.984   0.673 -0.9279  0.1903 -0.5527
  411MOL0     H56709   8.557   5.821   0.693 -2.8624 -1.3458 -1.3225
  411MOL0     H56710   8.490   5.940   0.431 -0.1094 -0.4865  0.1324
  411MOL0     H56711   8.574   5.784   0.459 -1.4826 -2.8625  2.7768
  411MOL0     H56712   8.350   5.713   0.573 -2.8917 -2.2194 -2.1803
  411MOL0     H56713   8.353   5.745   0.397  1.2159 -0.9364  0.4431
  411MOL0     H56714   8.154   6.108   0.530 -1.4447  0.1765  0.5618
  411MOL0     H56715   8.925   6.087   0.552  1.1041  0.2946 -0.0427
  411MOL0     H56716   9.250   6.186   0.544 -0.2545  2.8066 -0.9021
  411MOL0     H56717   9.135   6.061   0.529  0.2930  0.3229 -1.5045
  411MOL0     H56718   9.102   6.211   0.448 -1.8066 -1.4332 -0.3874
  412MOL0     O56719   6.508   2.659   8.457 -0.8373 -0.2753 -0.1730
  412MOL0     C56720   6.496   2.619   8.569  0.3708 -1.0327 -0.6719
  412MOL0     O56721   6.577   2.531   8.636  0.7925 -0.0682  0.3397
  412MOL0     C56722   6.692   2.490   8.571 -0.0454  0.5705  0.7969
  412MOL0     C56723   6.815   2.517   8.630 -0.1696 -0.5492  0.3910
  412MOL0     C56724   6.934   2.494   8.567 -0.2765  0.0702  0.4198
  412MOL0     C56725   6.948   2.432   8.447  0.3408 -0.0770  0.3767
  412MOL0     O56726   7.069   2.401   8.393  0.0470  0.3757 -0.2415
  412MOL0     C56727   7.074   2.349   8.261 -0.7355  0.0003  0.8112
  412MOL0     C56728   7.216   2.366   8.199  0.2769 -0.5497  0.2966
  412MOL0     C56729   7.312   2.268   8.274  0.4783 -0.1895  0.2098
  412MOL0     C56730   7.458   2.311   8.247 -0.0738  0.7687 -0.2023
  412MOL0     C56731   7.545   2.195   8.293  0.1281  0.1243  0.1913
  412MOL0     C56732   7.551   2.185   8.445  0.1272 -0.4793  0.4880
  412MOL0     C56733   7.654   2.087   8.493  0.1394 -0.4820  0.2549
  412MOL0     C56734   7.659   2.085   8.647 -0.5554  0.1782  0.4895
  412MOL0     N56735   7.781   2.018   8.698  0.0209  0.5122  0.1699
  412MOL0     C56736   7.915   2.063   8.670 -0.0906  0.2392 -1.0404
  412MOL0     C56737   7.987   1.969   8.740 -0.9295  0.7655 -0.4147
  412MOL0     C56738   8.142   1.974   8.739  0.7740 -0.4950  0.0470
  412MOL0     C56739   8.203   1.877   8.639  0.1916  0.2250  0.2268
  412MOL0     C56740   8.346   1.829   8.684 -0.2309  0.2863  0.2251
  412MOL0     C56741   8.421   1.759   8.579 -1.0514  0.0242 -0.2344
  412MOL0     O56742   8.535   1.670   8.622  0.3844 -0.3739 -0.2870
  412MOL0     C56743   8.658   1.725   8.660  0.0528  0.1881 -0.1940
  412MOL0     C56744   8.755   1.782   8.577  0.7040  0.5332  0.1621
  412MOL0     C56745   8.874   1.831   8.624 -0.8134  0.6281  0.7880
  412MOL0     C56746   8.965   1.881   8.513 -0.2962  0.0608 -0.3364
  412MOL0     C56747   8.905   1.815   8.763  0.7214  1.2651 -0.2687
  412MOL0     C56748   9.030   1.854   8.831 -0.3726 -0.5620 -0.1291
  412MOL0     O56749   9.143   1.818   8.767 -0.3969 -0.4747  0.0898
  412MOL0     C56750   9.260   1.849   8.809 -0.7230  0.5869  0.4761
  412MOL0     C56751   9.318   1.823   8.939 -0.8702  0.6486  0.4963
  412MOL0     C56752   9.456   1.870   8.967  1.0444  0.6439 -0.3438
  412MOL0     C56753   9.534   1.931   8.873  0.1951 -0.2410  0.2373
  412MOL0     O56754   9.660   1.974   8.893  0.2819  0.3461  0.1116
  412MOL0     C56755   9.683   2.043   9.013 -0.4958  0.4285 -0.4205
  412MOL0     C56756   9.793   2.151   8.977  0.1514  0.3011  0.1792
  412MOL0     C56757   9.928   2.109   8.928 -0.0603  1.0865 -0.8505
  412MOL0     C56758  10.015   2.043   9.035  0.3222  0.4631 -0.2393
  412MOL0     C56759  10.142   1.970   8.985 -0.2079  0.4958  0.0741
  412MOL0     C56760  10.254   2.011   9.080 -0.8840 -0.8456  0.5073
  412MOL0     C56761  10.384   1.935   9.047 -0.0839  0.3092 -0.3886
  412MOL0     C56762  10.488   1.965   9.152 -0.2848  0.4482 -0.1818
  412MOL0    Cl56763  10.554   2.129   9.139 -0.1135 -0.0753 -0.3521
  412MOL0     C56764   9.490   1.930   8.744  0.2616  0.5247 -0.9677
  412MOL0     C56765   9.354   1.899   8.715 -0.0964  0.0799  0.2226
  412MOL0     O56766   9.027   1.909   8.942  0.0758 -0.3691  0.5434
  412MOL0     C56767   8.813   1.754   8.851  0.4752  0.1570  0.5467
  412MOL0     C56768   8.686   1.705   8.799  0.4801 -0.4197  0.0214
  412MOL0     N56769   7.902   1.869   8.797  0.7952  0.5257 -0.0298
  412MOL0     N56770   7.779   1.907   8.773 -0.6395 -0.6302 -0.0098
  412MOL0     C56771   6.824   2.392   8.394 -1.1981 -0.3314  0.5598
  412MOL0     C56772   6.695   2.417   8.448 -0.6512  0.5590 -0.4481
  412MOL0     C56773   6.383   2.685   8.647 -0.9006  1.2229  0.2111
  412MOL0     C56774   6.356   2.814   8.624  0.5635 -0.6077  0.0861
  412MOL0     C56775   6.241   2.872   8.678 -0.2106  0.6829  0.0833
  412MOL0     C56776   6.163   2.810   8.773  0.0353 -0.0287 -0.1431
  412MOL0     O56777   6.053   2.862   8.835  0.3713  0.1338 -0.0482
  412MOL0     C56778   5.985   2.802   8.943 -0.1263 -0.0877 -0.5089
  412MOL0     C56779   5.892   2.687   8.902 -0.2180 -0.0840 -0.0562
  412MOL0     C56780   5.794   2.653   9.016 -0.0856  0.5377  0.3856
  412MOL0     C56781   5.687   2.558   8.962 -0.4541 -0.2617  0.0379
  412MOL0     C56782   5.599   2.504   9.063 -0.0493 -0.4858  0.4451
  412MOL0     C56783   5.506   2.460   9.133  0.2607 -0.0227  1.1063
  412MOL0     C56784   6.197   2.676   8.800  0.3119  0.7358 -0.2826
  412MOL0     C56785   6.295   2.610   8.729 -0.8281  0.1686 -0.5531
  412MOL0     C56786   6.318   2.456   8.751  0.6054 -0.5628  0.4106
  412MOL0     H56787   6.821   2.566   8.727 -1.0902  1.0485 -0.3148
  412MOL0     H56788   7.022   2.519   8.626 -0.1926 -0.8238  0.6899
  412MOL0     H56789   7.002   2.401   8.197 -2.3095 -2.1902  0.6910
  412MOL0     H56790   7.042   2.245   8.275 -1.2112  0.1426  0.7900
  412MOL0     H56791   7.211   2.344   8.092  0.8071  0.4046  0.0736
  412MOL0     H56792   7.251   2.468   8.216 -0.0113  0.2508 -3.2386
  412MOL0     H56793   7.285   2.250   8.378 -2.2065  1.2074 -0.1746
  412MOL0     H56794   7.294   2.180   8.212 -0.0835  0.1637 -0.1439
  412MOL0     H56795   7.465   2.325   8.139 -2.0003  1.4814 -0.2777
  412MOL0     H56796   7.484   2.404   8.299  1.1180  0.6189 -0.5158
  412MOL0     H56797   7.649   2.209   8.260 -0.6530 -0.1511 -2.6569
  412MOL0     H56798   7.515   2.097   8.256  0.8110 -0.9561  2.3214
  412MOL0     H56799   7.587   2.281   8.482  0.9542 -0.6997  0.2814
  412MOL0     H56800   7.458   2.154   8.494  1.3204 -2.1928  1.8089
  412MOL0     H56801   7.755   2.111   8.459  0.4485 -0.6630  1.0476
  412MOL0     H56802   7.627   1.988   8.453 -0.3482 -0.9369  1.6589
  412MOL0     H56803   7.646   2.183   8.693 -2.8428 -0.6781  1.8418
  412MOL0     H56804   7.572   2.028   8.681 -1.3255  1.6112  0.9946
  412MOL0     H56805   7.945   2.155   8.621  0.1352  1.6230  1.5265
  412MOL0     H56806   8.172   1.953   8.841 -1.7483  0.2850  1.0323
  412MOL0     H56807   8.179   2.073   8.712  0.7003  0.4490  3.0491
  412MOL0     H56808   8.139   1.789   8.627  0.7748  0.1542 -5.2824
  412MOL0     H56809   8.205   1.919   8.537 -1.1761 -0.3570 -0.0583
  412MOL0     H56810   8.399   1.921   8.710  0.4293 -0.1805  0.5612
  412MOL0     H56811   8.358   1.767   8.773  4.2854 -2.0124 -1.6567
  412MOL0     H56812   8.349   1.705   8.517 -0.2208 -2.0653  0.5036
  412MOL0     H56813   8.471   1.833   8.516 -0.0742 -0.5990 -0.2111
  412MOL0     H56814   8.739   1.785   8.470 -2.0741  2.5546  0.5312
  412MOL0     H56815   8.932   1.981   8.483 -0.0053  0.1953 -0.2102
  412MOL0     H56816   8.963   1.817   8.425  0.1181  0.1375 -0.4031
  412MOL0     H56817   9.070   1.889   8.543 -0.2407  0.7972 -0.7175
  412MOL0     H56818   9.266   1.790   9.029 -2.2320  1.9647  0.2358
  412MOL0     H56819   9.506   1.859   9.063 -0.2220  0.6999  0.3368
  412MOL0     H56820   9.594   2.102   9.039 -0.2124  1.4345 -1.6597
  412MOL0     H56821   9.722   1.978   9.092 -0.9128  1.3698  0.6061
  412MOL0     H56822   9.762   2.222   8.899  0.9496  2.3342  1.6184
  412MOL0     H56823   9.810   2.207   9.069  0.3018 -1.6236  1.3806
  412MOL0     H56824   9.972   2.197   8.881 -1.5169  1.3319 -1.8354
  412MOL0     H56825   9.908   2.034   8.850 -4.8200  1.1701 -0.0428
  412MOL0     H56826   9.957   1.974   9.097  1.1408  0.3138  0.3691
  412MOL0     H56827  10.035   2.119   9.111 -5.4525  0.2339  1.9965
  412MOL0     H56828  10.133   1.861   8.988 -2.7679  0.5955  3.5787
  412MOL0     H56829  10.177   2.003   8.887  1.7781 -0.3298  0.4472
  412MOL0     H56830  10.222   1.984   9.181  1.6773 -3.2206  0.7941
  412MOL0     H56831  10.267   2.120   9.071 -2.3766 -0.7114 -0.3043
  412MOL0     H56832  10.410   1.957   8.943 -2.0148  1.1160 -0.7487
  412MOL0     H56833  10.361   1.828   9.057  1.4609 -0.1345 -1.2841
  412MOL0     H56834  10.568   1.890   9.146 -2.7159 -2.5348  1.6346
  412MOL0     H56835  10.450   1.952   9.254  1.5870  1.0729  0.6514
  412MOL0     H56836   9.556   1.954   8.660 -1.2789 -0.5186 -2.5382
  412MOL0     H56837   9.329   1.908   8.610 -0.5684 -0.1008  0.3171
  412MOL0     H56838   8.831   1.750   8.958 -0.6817  2.1555  0.8608
  412MOL0     H56839   8.613   1.641   8.848 -0.7822  1.5975  0.9089
  412MOL0     H56840   6.824   2.329   8.306  2.3392  0.5024 -0.1765
  412MOL0     H56841   6.607   2.398   8.388 -0.7441  2.2353 -0.8872
  412MOL0     H56842   6.411   2.862   8.544 -0.7414  0.0392 -0.4553
  412MOL0     H56843   6.210   2.973   8.654 -3.8639 -0.2991  0.0445
  412MOL0     H56844   6.061   2.768   9.014  1.3268 -2.6237 -3.1062
  412MOL0     H56845   5.922   2.875   8.996 -1.9963 -1.7718 -0.2858
  412MOL0     H56846   5.949   2.604   8.860  0.4616  0.9943 -1.3629
  412MOL0     H56847   5.828   2.702   8.814  0.2342 -1.6640 -0.6845
  412MOL0     H56848   5.846   2.610   9.102  0.1685 -0.8876 -0.4527
  412MOL0     H56849   5.745   2.741   9.058 -2.7445 -1.4321  1.7796
  412MOL0     H56850   5.736   2.469   8.922 -0.8532 -0.8311  0.7962
  412MOL0     H56851   5.628   2.602   8.881 -2.7070 -0.7267  1.3547
  412MOL0     H56852   5.417   2.427   9.183  0.3836 -4.1388 -0.9395
  412MOL0     H56853   6.150   2.615   8.876  3.3766  1.6777  2.6126
  412MOL0     H56854   6.238   2.416   8.813  0.1934 -0.5141 -0.0797
  412MOL0     H56855   6.303   2.412   8.652 -1.0648 -1.6608  1.0998
  412MOL0     H56856   6.417   2.438   8.792  1.2480  2.5660  0.5167
  413MOL0     O56857   0.566   4.806   2.680 -0.2967  0.5403  0.7758
  413MOL0     C56858   0.496   4.865   2.760 -0.2562  0.3219  0.2872
  413MOL0     O56859   0.542   4.950   2.853  0.2491  0.0030  0.1652
  413MOL0     C56860   0.668   4.950   2.897 -0.4440  0.0791  0.3063
  413MOL0     C56861   0.726   4.838   2.950  0.2780  0.4346  0.2396
  413MOL0     C56862   0.857   4.844   2.995 -0.4091  0.1034  1.1233
  413MOL0     C56863   0.937   4.955   2.985  1.2756  0.3464  0.3370
  413MOL0     O56864   1.062   4.943   3.038  0.1680 -0.0128 -0.4512
  413MOL0     C56865   1.142   5.055   3.045 -0.1074 -0.6240  0.5594
  413MOL0     C56866   1.278   5.013   3.111  0.2258 -0.4687  0.4364
  413MOL0     C56867   1.346   5.135   3.159 -1.2056 -0.8521  0.5289
  413MOL0     C56868   1.488   5.117   3.226  0.3107 -0.1082  0.0995
  413MOL0     C56869   1.545   5.264   3.244 -0.4943  0.6491 -0.4853
  413MOL0     C56870   1.642   5.305   3.132 -0.8071 -0.1618 -0.9697
  413MOL0     C56871   1.691   5.445   3.145  0.0081 -0.3589 -0.1313
  413MOL0     C56872   1.592   5.558   3.093  0.1808  0.3243  0.8474
  413MOL0     N56873   1.644   5.691   3.126 -0.2072 -0.1752 -0.5860
  413MOL0     C56874   1.592   5.766   3.229  0.3395 -0.4771 -0.1063
  413MOL0     C56875   1.639   5.884   3.217 -0.8517  0.4792  0.2386
  413MOL0     C56876   1.600   5.994   3.297 -0.5349 -1.0031 -0.8315
  413MOL0     C56877   1.700   6.006   3.413  0.4259 -0.3559  0.1048
  413MOL0     C56878   1.657   6.111   3.517  0.1308  0.1904  0.3352
  413MOL0     C56879   1.772   6.140   3.613  0.8313 -0.1412 -0.2847
  413MOL0     O56880   1.872   6.213   3.535  0.4351 -0.1819 -0.5672
  413MOL0     C56881   1.975   6.251   3.611 -0.2149 -0.0315  0.2936
  413MOL0     C56882   2.054   6.358   3.567 -0.3913 -0.6379  1.1061
  413MOL0     C56883   2.160   6.411   3.628 -0.3647  0.6968 -0.0468
  413MOL0     C56884   2.228   6.530   3.569  0.8163  0.6074 -0.3740
  413MOL0     C56885   2.211   6.340   3.740  0.1742 -0.1808  0.2977
  413MOL0     C56886   2.329   6.378   3.816 -0.7048 -0.0758 -0.2826
  413MOL0     O56887   2.389   6.280   3.896  0.9263  0.5896  0.4330
  413MOL0     C56888   2.505   6.313   3.957  0.5204 -0.0703 -0.1228
  413MOL0     C56889   2.628   6.304   3.890 -0.7712 -0.0990  0.8008
  413MOL0     C56890   2.742   6.348   3.957  0.3307 -0.9441  0.3456
  413MOL0     C56891   2.746   6.392   4.089  0.1569 -0.1473 -0.0913
  413MOL0     O56892   2.851   6.452   4.152  0.3021  0.1719  0.3468
  413MOL0     C56893   2.979   6.484   4.089 -0.7113  0.3825 -0.4610
  413MOL0     C56894   3.048   6.593   4.171  0.1567  0.0095  0.5573
  413MOL0     C56895   3.193   6.596   4.149 -0.2154  0.8150  0.5251
  413MOL0     C56896   3.268   6.724   4.183  0.9844  0.9953  0.5023
  413MOL0     C56897   3.231   6.782   4.315 -0.0765 -0.9187 -0.6700
  413MOL0     C56898   3.282   6.933   4.321  0.0270 -0.6651 -0.8091
  413MOL0     C56899   3.251   6.984   4.463 -0.1865 -0.0911 -0.1409
  413MOL0     C56900   3.292   7.130   4.482  0.1270  0.1050 -0.1829
  413MOL0    Cl56901   3.227   7.201   4.629 -0.2867  0.5629  0.1407
  413MOL0     C56902   2.626   6.384   4.160 -0.3613 -0.3543  0.7008
  413MOL0     C56903   2.507   6.352   4.094 -0.7842 -0.0784 -0.7689
  413MOL0     O56904   2.361   6.501   3.823 -0.8049  0.4513  1.0308
  413MOL0     C56905   2.142   6.224   3.781 -0.2571  0.2672  0.5382
  413MOL0     C56906   2.019   6.185   3.727 -0.6407  0.3726 -1.0126
  413MOL0     N56907   1.720   5.881   3.107  0.1074  0.1040  0.2954
  413MOL0     N56908   1.732   5.767   3.058 -0.4612 -0.0263  0.7653
  413MOL0     C56909   0.880   5.073   2.926 -0.5835  0.6627 -0.9205
  413MOL0     C56910   0.739   5.066   2.891 -0.8478  0.4453  0.2093
  413MOL0     C56911   0.344   4.837   2.770 -0.2174 -0.2169  0.2764
  413MOL0     C56912   0.294   4.780   2.652  0.9036  0.0576 -0.0232
  413MOL0     C56913   0.158   4.738   2.647 -0.5798  0.0336 -0.4971
  413MOL0     C56914   0.069   4.756   2.753  0.1975 -0.5713  1.0276
  413MOL0     O56915  -0.058   4.707   2.732 -0.4055 -0.7210  0.3602
  413MOL0     C56916  -0.159   4.779   2.817 -0.1167 -0.2315 -0.1001
  413MOL0     C56917  -0.308   4.720   2.800  0.1103  0.5739 -0.1346
  413MOL0     C56918  -0.357   4.745   2.650  0.0311  0.2121  0.2526
  413MOL0     C56919  -0.470   4.649   2.626  0.1367  0.5967  0.1522
  413MOL0     C56920  -0.549   4.693   2.507 -0.2195  0.0044 -0.5422
  413MOL0     C56921  -0.625   4.754   2.435  0.4631 -0.2430  1.0082
  413MOL0     C56922   0.118   4.809   2.870  0.2220 -1.2687  0.0400
  413MOL0     C56923   0.255   4.855   2.876  0.6429  0.2447 -0.1195
  413MOL0     C56924   0.297   4.910   3.012 -0.3167 -0.7229 -0.5262
  413MOL0     H56925   0.671   4.744   2.944  3.0653 -1.2822 -0.2945
  413MOL0     H56926   0.909   4.761   3.040  1.3688  0.5044 -0.1006
  413MOL0     H56927   1.100   5.136   3.106  0.0671 -1.3279  1.6474
  413MOL0     H56928   1.161   5.082   2.941  0.9789 -2.3213  0.2835
  413MOL0     H56929   1.249   4.950   3.195 -2.0867  0.8245  0.6956
  413MOL0     H56930   1.344   4.961   3.041  1.0743  2.6715 -1.3178
  413MOL0     H56931   1.347   5.204   3.074 -3.2964  0.7568  1.7017
  413MOL0     H56932   1.278   5.184   3.229 -0.1871 -1.2190  1.8056
  413MOL0     H56933   1.474   5.074   3.325  0.8358 -0.0394  0.2018
  413MOL0     H56934   1.552   5.056   3.161 -1.8520 -2.6149  0.1439
  413MOL0     H56935   1.605   5.264   3.336 -3.0294 -0.8394  1.2790
  413MOL0     H56936   1.474   5.347   3.248  0.0747  1.3516 -3.1683
  413MOL0     H56937   1.721   5.230   3.146 -1.4151 -0.6131  0.1652
  413MOL0     H56938   1.593   5.283   3.037  0.1295 -1.6851 -1.1451
  413MOL0     H56939   1.784   5.440   3.087 -0.7684 -0.5014 -1.4024
  413MOL0     H56940   1.709   5.472   3.250 -0.8442  0.9982 -0.3078
  413MOL0     H56941   1.566   5.552   2.987 -0.2234 -0.6956  0.9870
  413MOL0     H56942   1.491   5.543   3.133 -0.4250 -1.2691 -1.0934
  413MOL0     H56943   1.535   5.734   3.316  2.2127 -2.0775  0.6273
  413MOL0     H56944   1.498   5.988   3.337  0.3213  0.9088  2.0129
  413MOL0     H56945   1.596   6.092   3.247 -2.6849 -0.1160  0.9185
  413MOL0     H56946   1.703   5.907   3.458 -1.1442  0.5607  2.4321
  413MOL0     H56947   1.796   6.031   3.368  0.7346  1.0688  1.4570
  413MOL0     H56948   1.632   6.201   3.459 -0.0384 -1.2783 -2.0211
  413MOL0     H56949   1.565   6.079   3.566  1.5315 -4.5753  0.3918
  413MOL0     H56950   1.738   6.210   3.690  0.3897  1.4993 -1.8978
  413MOL0     H56951   1.814   6.050   3.659 -1.6754 -1.2075  0.0902
  413MOL0     H56952   2.026   6.398   3.470 -0.4748  0.3446  1.5211
  413MOL0     H56953   2.206   6.614   3.635  0.9188 -1.6809  2.8280
  413MOL0     H56954   2.182   6.555   3.474 -0.4207  0.9896  0.3039
  413MOL0     H56955   2.336   6.512   3.562  0.4486 -1.2980 -1.9173
  413MOL0     H56956   2.628   6.260   3.791  1.2994 -1.8663  1.4903
  413MOL0     H56957   2.834   6.362   3.900 -0.7487  0.8029 -1.0810
  413MOL0     H56958   3.037   6.393   4.075 -0.6422 -0.3097  3.2972
  413MOL0     H56959   2.966   6.523   3.987  0.3166 -0.0939 -0.7839
  413MOL0     H56960   2.995   6.688   4.158  0.0377 -0.2844 -1.4109
  413MOL0     H56961   3.046   6.565   4.277 -3.3809 -1.1953  0.3231
  413MOL0     H56962   3.211   6.560   4.048  1.9409  1.8935  0.4626
  413MOL0     H56963   3.236   6.513   4.207 -3.1806  0.3109  2.1836
  413MOL0     H56964   3.243   6.791   4.100  0.4768  0.4652  0.2173
  413MOL0     H56965   3.376   6.706   4.184  1.0825  1.5676  0.3470
  413MOL0     H56966   3.122   6.787   4.329 -0.0252 -0.9342 -0.2562
  413MOL0     H56967   3.276   6.712   4.386 -0.0275 -1.9230 -1.6543
  413MOL0     H56968   3.231   7.002   4.253  2.4376  2.2492  0.0679
  413MOL0     H56969   3.387   6.948   4.291 -0.8636  0.2680 -3.8469
  413MOL0     H56970   3.287   6.923   4.547  1.5303 -0.5792 -1.1770
  413MOL0     H56971   3.143   6.973   4.470 -0.1777 -0.0271  0.1141
  413MOL0     H56972   3.245   7.187   4.401 -2.1274 -0.3920  0.7164
  413MOL0     H56973   3.401   7.141   4.483  0.3063 -1.3486 -0.9187
  413MOL0     H56974   2.643   6.419   4.261  0.3478  0.5345  0.2928
  413MOL0     H56975   2.413   6.356   4.149 -0.5911  0.2182 -0.4633
  413MOL0     H56976   2.164   6.160   3.866 -1.2948 -1.3347 -0.3357
  413MOL0     H56977   1.973   6.107   3.786  0.6129  0.9329  0.8089
  413MOL0     H56978   0.929   5.170   2.926 -0.2752  0.5184 -0.0495
  413MOL0     H56979   0.684   5.157   2.866 -0.2150  0.1570 -2.6200
  413MOL0     H56980   0.357   4.742   2.571 -0.3681 -3.4108  0.4627
  413MOL0     H56981   0.116   4.703   2.554  0.8829  0.7289 -1.4721
  413MOL0     H56982  -0.127   4.769   2.921  1.0426 -2.7932 -0.6252
  413MOL0     H56983  -0.157   4.883   2.783 -1.1233 -0.9206 -2.4651
  413MOL0     H56984  -0.366   4.777   2.873  3.9124  1.2540  2.6174
  413MOL0     H56985  -0.317   4.614   2.827  1.7117  0.5740  0.5159
  413MOL0     H56986  -0.391   4.848   2.661  1.9070  0.7475  1.5184
  413MOL0     H56987  -0.272   4.731   2.582  0.2675  1.0499  0.3616
  413MOL0     H56988  -0.534   4.632   2.713 -1.4032 -5.4513 -1.6751
  413MOL0     H56989  -0.436   4.547   2.605 -1.1753  0.3704 -0.9608
  413MOL0     H56990  -0.685   4.807   2.364  0.8498  0.5552  1.2685
  413MOL0     H56991   0.075   4.812   2.969  1.5924 -2.5155  0.7087
  413MOL0     H56992   0.225   4.893   3.092 -0.3487 -2.6477 -0.9096
  413MOL0     H56993   0.393   4.872   3.047  1.5344  2.4956 -1.6739
  413MOL0     H56994   0.309   5.018   3.004 -1.2501 -0.5888 -0.2095
  414MOL0     O56995   2.032  10.274   8.942  0.4948  0.2639  0.0330
  414MOL0     C56996   1.981  10.217   8.848  0.2545 -0.2261 -0.0213
  414MOL0     O56997   2.029  10.114   8.785  0.5017 -0.2139 -0.0246
  414MOL0     C56998   2.130  10.036   8.844 -0.1036  0.1718 -1.2791
  414MOL0     C56999   2.194  10.047   8.973 -1.2993 -0.2724  0.0204
  414MOL0     C57000   2.288   9.946   9.009 -0.1078 -0.3339 -0.6400
  414MOL0     C57001   2.323   9.845   8.923 -0.3064 -0.6523  0.4070
  414MOL0     O57002   2.391   9.731   8.957  0.0485  0.0571  0.0207
  414MOL0     C57003   2.516   9.752   9.023  0.1688 -0.0468  0.0249
  414MOL0     C57004   2.625   9.791   8.924 -0.1982  0.3797  0.1172
  414MOL0     C57005   2.743   9.832   9.008  0.3149 -0.5454 -0.8443
  414MOL0     C57006   2.871   9.847   8.927 -0.4992 -0.6902 -1.0709
  414MOL0     C57007   2.985   9.886   9.013  0.3744 -1.0502 -0.3648
  414MOL0     C57008   3.025   9.763   9.101 -0.1471 -0.8621 -0.5544
  414MOL0     C57009   3.158   9.782   9.165 -0.4525  0.3154 -0.0003
  414MOL0     C57010   3.268   9.716   9.080 -0.4095  1.1770  0.1893
  414MOL0     N57011   3.401   9.763   9.116  0.1632  0.0249 -0.0882
  414MOL0     C57012   3.446   9.807   9.240  0.9263  0.2940  0.1589
  414MOL0     C57013   3.546   9.889   9.216 -0.1920  0.5159  0.1850
  414MOL0     C57014   3.635   9.957   9.314 -0.2817 -0.6686 -0.3112
  414MOL0     C57015   3.754   9.872   9.345  0.5077 -0.1243  0.6581
  414MOL0     C57016   3.875   9.955   9.380 -0.0197  0.4892  0.1415
  414MOL0     C57017   3.946  10.005   9.248 -0.0122  1.0685  0.1159
  414MOL0     O57018   4.036   9.893   9.203 -0.4790  0.4840 -0.0291
  414MOL0     C57019   4.150   9.874   9.275  1.0510  0.2837  0.0236
  414MOL0     C57020   4.194   9.946   9.389 -0.1061  0.5761 -0.5877
  414MOL0     C57021   4.317   9.917   9.456  0.8431  0.1284  0.2597
  414MOL0     C57022   4.342   9.993   9.582  0.0184  0.2472  0.1820
  414MOL0     C57023   4.409   9.823   9.392  0.9207 -0.6818 -0.0806
  414MOL0     C57024   4.546   9.804   9.451  0.6815 -0.1384 -0.2030
  414MOL0     O57025   4.598   9.888   9.548  0.7129  0.1438  0.0591
  414MOL0     C57026   4.730   9.898   9.591 -0.5441  0.2101  0.0489
  414MOL0     C57027   4.834   9.823   9.535 -0.5284  0.1366 -0.2739
  414MOL0     C57028   4.970   9.843   9.580  0.4122 -0.4501  0.3386
  414MOL0     C57029   5.004   9.930   9.687  0.8883  0.0512 -0.6005
  414MOL0     O57030   5.125   9.937   9.743 -0.0176  0.1140  0.2563
  414MOL0     C57031   5.202   9.814   9.742  1.3744 -0.7774  0.8881
  414MOL0     C57032   5.327   9.822   9.824  0.6220  0.5782 -0.2612
  414MOL0     C57033   5.324   9.885   9.961 -0.3686  0.0765 -0.0915
  414MOL0     C57034   5.454   9.899  10.024 -1.0571 -0.3956  0.4312
  414MOL0     C57035   5.439   9.974  10.152 -0.4733  0.0062  0.0352
  414MOL0     C57036   5.578  10.004  10.227 -0.0206  1.1690 -0.1314
  414MOL0     C57037   5.555  10.069  10.363 -0.0539 -0.4096  0.0929
  414MOL0     C57038   5.684  10.091  10.438  0.1696 -0.8438 -0.1399
  414MOL0    Cl57039   5.655  10.119  10.618  0.3108  0.2566 -0.3338
  414MOL0     C57040   4.889   9.990   9.744 -0.9489  0.6230  0.2645
  414MOL0     C57041   4.764   9.982   9.696 -0.0005 -0.4223 -1.0287
  414MOL0     O57042   4.601   9.705   9.394  1.1402 -0.6728 -0.7977
  414MOL0     C57043   4.365   9.757   9.276  0.5103  1.0239  0.2914
  414MOL0     C57044   4.234   9.775   9.220  0.2103 -0.2285  0.4287
  414MOL0     N57045   3.575   9.887   9.082  0.2709  0.6089  0.5390
  414MOL0     N57046   3.481   9.817   9.024 -0.5529 -0.7013  1.1337
  414MOL0     C57047   2.270   9.842   8.800 -0.8107  0.1860  0.0631
  414MOL0     C57048   2.171   9.929   8.756 -0.5118 -0.2118 -0.2457
  414MOL0     C57049   1.860  10.270   8.787  0.6653  0.2589 -0.4036
  414MOL0     C57050   1.857  10.273   8.643  0.6329 -0.2227 -0.1980
  414MOL0     C57051   1.751  10.318   8.570  0.9093  1.1449  1.0470
  414MOL0     C57052   1.641  10.364   8.645  0.5953 -0.5191 -0.7954
  414MOL0     O57053   1.535  10.423   8.573 -0.4293  0.0414  0.0597
  414MOL0     C57054   1.405  10.392   8.627 -0.1690 -0.5559  0.8710
  414MOL0     C57055   1.300  10.400   8.523 -0.4611  0.5706 -0.2085
  414MOL0     C57056   1.326  10.311   8.402  0.6062 -0.4957  0.4941
  414MOL0     C57057   1.210  10.330   8.296 -0.6091 -0.5431  0.0022
  414MOL0     C57058   1.194  10.467   8.256  0.6137  0.0743  0.4384
  414MOL0     C57059   1.188  10.581   8.215 -0.6571 -0.7234 -0.3754
  414MOL0     C57060   1.640  10.371   8.788 -0.3322  0.5162  0.1621
  414MOL0     C57061   1.756  10.329   8.857  0.1151 -0.7443 -0.2586
  414MOL0     C57062   1.759  10.338   9.010  0.5220  0.0148 -0.0253
  414MOL0     H57063   2.178  10.125   9.046  1.2854  0.6199 -0.2699
  414MOL0     H57064   2.322   9.939   9.112  0.0485 -2.2807 -0.7958
  414MOL0     H57065   2.534   9.658   9.075  0.7533 -0.4335 -0.8492
  414MOL0     H57066   2.509   9.831   9.098  2.8838  0.6508 -0.3778
  414MOL0     H57067   2.655   9.709   8.858  1.7966  1.3387 -0.2334
  414MOL0     H57068   2.592   9.871   8.858 -0.5943 -0.2785 -0.5031
  414MOL0     H57069   2.725   9.928   9.056  1.7846  0.9940 -3.1842
  414MOL0     H57070   2.762   9.759   9.087 -1.2446 -0.2148 -0.1204
  414MOL0     H57071   2.879   9.752   8.873 -0.2780 -1.0928 -0.3488
  414MOL0     H57072   2.860   9.927   8.853 -1.9602  2.3525  2.1383
  414MOL0     H57073   2.966   9.981   9.064  2.0085  0.6456 -2.6971
  414MOL0     H57074   3.074   9.892   8.949  1.9253 -1.7209  1.6426
  414MOL0     H57075   2.949   9.741   9.176 -2.8315 -0.0559 -2.8793
  414MOL0     H57076   3.041   9.675   9.037  3.8282  0.4027 -1.5818
  414MOL0     H57077   3.170   9.759   9.271  1.5938  2.5981  0.3561
  414MOL0     H57078   3.175   9.890   9.177 -0.2124  0.0523  2.7098
  414MOL0     H57079   3.257   9.611   9.109  0.6854  1.6059  2.3792
  414MOL0     H57080   3.246   9.740   8.976  0.3913  1.7549  0.1458
  414MOL0     H57081   3.416   9.788   9.343  0.2318  0.9105  0.0814
  414MOL0     H57082   3.576   9.970   9.405 -1.0093 -0.7225 -0.7651
  414MOL0     H57083   3.667  10.053   9.272  1.6420 -0.4622  1.5047
  414MOL0     H57084   3.729   9.816   9.436  0.7893 -0.9922  0.2104
  414MOL0     H57085   3.796   9.806   9.270  1.5054  0.1845  0.9177
  414MOL0     H57086   3.848  10.046   9.434  1.3104  1.3516 -0.5978
  414MOL0     H57087   3.946   9.887   9.428  0.6056  0.6655 -0.5200
  414MOL0     H57088   3.881  10.016   9.160  1.3831 -1.3616 -1.3429
  414MOL0     H57089   3.991  10.103   9.266 -1.0754  1.6360 -0.1924
  414MOL0     H57090   4.123  10.015   9.435  0.0799  1.6000 -1.7711
  414MOL0     H57091   4.365   9.913   9.653 -1.2951  0.5831  1.0300
  414MOL0     H57092   4.261  10.061   9.612  0.4044  1.4639 -1.4320
  414MOL0     H57093   4.430  10.056   9.562 -0.1755 -0.1395 -2.1762
  414MOL0     H57094   4.822   9.756   9.451  0.8670  1.1199 -1.2987
  414MOL0     H57095   5.047   9.789   9.526 -0.9156 -0.5384 -1.5535
  414MOL0     H57096   5.148   9.725   9.775  1.6462 -2.6321 -3.0257
  414MOL0     H57097   5.235   9.800   9.639  1.6745 -0.3792  0.9298
  414MOL0     H57098   5.357   9.719   9.842 -4.1658 -0.9055  0.6104
  414MOL0     H57099   5.406   9.871   9.766  2.1840 -0.7476  0.6755
  414MOL0     H57100   5.257   9.829  10.027  2.4395 -2.6791  0.6751
  414MOL0     H57101   5.286   9.987   9.950  0.0688  0.3324  0.6885
  414MOL0     H57102   5.517   9.961   9.960  1.3564 -0.9586  2.1434
  414MOL0     H57103   5.493   9.800  10.047 -0.5985 -1.0623 -2.6866
  414MOL0     H57104   5.381  10.064  10.132 -1.2457 -1.0468 -2.9625
  414MOL0     H57105   5.383   9.914  10.223  1.0234 -0.3519  0.9707
  414MOL0     H57106   5.635  10.073  10.164  2.4507  0.2811  1.0026
  414MOL0     H57107   5.631   9.910  10.242 -2.1658 -0.0036  0.5384
  414MOL0     H57108   5.495  10.000  10.423  0.2732 -0.4200  0.4116
  414MOL0     H57109   5.501  10.163  10.348  0.6304  0.3578  2.1663
  414MOL0     H57110   5.732  10.182  10.399  1.3650 -0.3343  2.3050
  414MOL0     H57111   5.751  10.006  10.423  1.4609  0.5325 -2.8968
  414MOL0     H57112   4.902  10.042   9.839  0.2208 -1.4246  1.3042
  414MOL0     H57113   4.686  10.025   9.758  3.1953 -0.7561  3.7326
  414MOL0     H57114   4.436   9.698   9.219  1.0650 -0.0471  2.0003
  414MOL0     H57115   4.210   9.721   9.130  1.1494 -0.0196  0.0334
  414MOL0     H57116   2.296   9.758   8.735  0.0646 -1.4125  2.3435
  414MOL0     H57117   2.138   9.928   8.653 -1.1995 -0.9308 -0.0330
  414MOL0     H57118   1.943  10.248   8.581  1.3090  0.9230  0.2419
  414MOL0     H57119   1.747  10.312   8.462  1.3554  1.5695  1.0031
  414MOL0     H57120   1.405  10.290   8.667 -1.1253 -0.2397  1.7372
  414MOL0     H57121   1.381  10.466   8.704 -0.8284  0.8993 -0.6751
  414MOL0     H57122   1.294  10.504   8.491  2.5842  1.2675  1.0685
  414MOL0     H57123   1.207  10.375   8.574 -0.6309  2.1160  0.2785
  414MOL0     H57124   1.422  10.322   8.351  0.1957 -0.1427 -0.2183
  414MOL0     H57125   1.320  10.209   8.440  2.3171 -0.7361  0.2030
  414MOL0     H57126   1.115  10.300   8.340 -1.0101  0.3401 -0.2484
  414MOL0     H57127   1.221  10.270   8.205 -2.0014  1.4940 -1.5830
  414MOL0     H57128   1.201  10.678   8.172  1.7830 -1.5141 -1.5988
  414MOL0     H57129   1.554  10.405   8.845 -1.8134  1.5702 -2.5256
  414MOL0     H57130   1.659  10.356   9.050 -0.4939 -1.8225 -1.5755
  414MOL0     H57131   1.781  10.236   9.042  0.6134 -0.1172 -0.5049
  414MOL0     H57132   1.825  10.424   9.026 -1.6385  2.4354 -2.9728
  415MOL0     O57133   8.621   8.014   8.816 -0.0966 -0.0896 -0.3831
  415MOL0     C57134   8.542   8.049   8.729  0.5604 -0.5244  0.3590
  415MOL0     O57135   8.575   8.115   8.616 -1.1401  0.9398  0.0738
  415MOL0     C57136   8.711   8.144   8.600  0.3267 -0.0698 -0.2369
  415MOL0     C57137   8.787   8.056   8.525  0.4184 -0.0134 -0.5236
  415MOL0     C57138   8.920   8.084   8.517 -0.2712  0.0669  1.0226
  415MOL0     C57139   8.992   8.179   8.587 -0.0173  0.9288  0.0893
  415MOL0     O57140   9.129   8.198   8.558  0.2065  0.2259  0.6596
  415MOL0     C57141   9.210   8.078   8.562 -0.1747  0.6928 -0.3237
  415MOL0     C57142   9.349   8.112   8.601 -0.7845  1.0077  0.3453
  415MOL0     C57143   9.448   7.997   8.576 -0.0845 -0.2754 -0.1297
  415MOL0     C57144   9.591   8.057   8.571 -0.4729 -0.0794  0.1646
  415MOL0     C57145   9.716   7.968   8.545  0.2104  0.1476  0.0595
  415MOL0     C57146   9.846   8.043   8.557  0.0506 -0.5255  0.1381
  415MOL0     C57147   9.867   8.121   8.689 -0.2690 -0.1192 -0.1767
  415MOL0     C57148   9.860   8.019   8.810  0.4265 -0.3480 -1.1779
  415MOL0     N57149   9.909   8.081   8.934 -0.2802  0.4795  0.3087
  415MOL0     C57150   9.929   8.013   9.057  1.1792  0.6622  0.5428
  415MOL0     C57151   9.943   8.114   9.154  0.0170  0.1018 -0.2007
  415MOL0     C57152   9.955   8.081   9.303  0.1738 -0.3649  0.3438
  415MOL0     C57153  10.050   7.964   9.320  0.6717  0.3968  0.5852
  415MOL0     C57154  10.057   7.912   9.462 -0.7506 -0.2109 -0.9708
  415MOL0     C57155  10.196   7.865   9.505 -0.0799  0.0195 -0.3054
  415MOL0     O57156  10.243   7.780   9.404 -0.0142 -0.4812 -0.2744
  415MOL0     C57157  10.363   7.720   9.421  0.1435 -0.6346  0.4503
  415MOL0     C57158  10.395   7.610   9.345  0.4092 -0.7918 -0.2506
  415MOL0     C57159  10.510   7.532   9.369  0.3018 -0.3609 -1.1420
  415MOL0     C57160  10.535   7.410   9.279 -0.0549  0.4331 -0.4538
  415MOL0     C57161  10.601   7.576   9.472  0.1272 -0.0563 -0.4720
  415MOL0     C57162  10.722   7.506   9.512  0.3929  0.4751 -0.9920
  415MOL0     O57163  10.766   7.533   9.643  0.2317 -0.0366 -1.0297
  415MOL0     C57164  10.888   7.507   9.698  0.1059 -0.9387 -0.1917
  415MOL0     C57165  10.997   7.440   9.644  0.1789 -0.7825  0.1891
  415MOL0     C57166  11.117   7.415   9.712  0.6104  0.3529  0.0266
  415MOL0     C57167  11.120   7.465   9.843 -0.0964  0.3382 -0.0910
  415MOL0     O57168  11.224   7.463   9.932 -0.1647 -0.7023 -0.3154
  415MOL0     C57169  11.342   7.383   9.913  0.0755  0.6836  0.0186
  415MOL0     C57170  11.428   7.439   9.803  0.4724 -0.5476  0.4784
  415MOL0     C57171  11.534   7.331   9.761 -0.0891 -0.3984 -0.4813
  415MOL0     C57172  11.615   7.391   9.641 -0.7153 -0.4323  0.3447
  415MOL0     C57173  11.743   7.312   9.611  0.4625 -0.3123  0.2205
  415MOL0     C57174  11.815   7.354   9.486 -0.2784  0.4187  0.7216
  415MOL0     C57175  11.845   7.503   9.470  0.4398 -1.5441 -0.1272
  415MOL0     C57176  11.922   7.530   9.335 -0.1632  0.7519  0.4337
  415MOL0    Cl57177  11.960   7.706   9.307  0.0353  0.1729  0.2181
  415MOL0     C57178  11.005   7.521   9.907 -0.1159  0.2756  0.0631
  415MOL0     C57179  10.889   7.533   9.837  0.4126  0.8008  0.1919
  415MOL0     O57180  10.788   7.452   9.426 -0.8112  0.6769 -1.1986
  415MOL0     C57181  10.573   7.692   9.550 -0.4982  0.3893 -0.8450
  415MOL0     C57182  10.455   7.761   9.519 -0.1022  0.2831  0.0950
  415MOL0     N57183   9.938   8.238   9.077  0.8604 -0.5599  0.5492
  415MOL0     N57184   9.918   8.209   8.951 -0.0621  0.0733 -0.3618
  415MOL0     C57185   8.918   8.260   8.670  0.2606 -0.6745 -0.4852
  415MOL0     C57186   8.771   8.249   8.674 -0.5571  0.7956  0.7164
  415MOL0     C57187   8.400   8.024   8.745 -0.6492  0.9345  0.3158
  415MOL0     C57188   8.317   8.012   8.632 -0.3432  0.4323  0.6003
  415MOL0     C57189   8.181   7.984   8.646  0.4589 -0.2021  0.1100
  415MOL0     C57190   8.119   7.979   8.768 -0.3124 -0.0438 -0.2918
  415MOL0     O57191   7.987   7.950   8.776 -0.0520  0.1614 -0.5436
  415MOL0     C57192   7.931   7.877   8.882 -0.3550 -0.7040 -0.0748
  415MOL0     C57193   7.774   7.872   8.874  0.2543  0.0615  0.2925
  415MOL0     C57194   7.721   7.779   8.766  0.1984  0.0874 -0.0306
  415MOL0     C57195   7.573   7.754   8.767 -0.5554 -0.0277 -0.5356
  415MOL0     C57196   7.527   7.699   8.900 -0.5447 -0.3628  0.5209
  415MOL0     C57197   7.507   7.646   9.011 -0.2337 -0.1291  0.6775
  415MOL0     C57198   8.197   8.003   8.884 -0.4421  0.3964 -0.5433
  415MOL0     C57199   8.338   8.008   8.873 -0.4402 -0.0633 -0.2467
  415MOL0     C57200   8.418   8.023   9.005  1.1008 -0.2061  0.7322
  415MOL0     H57201   8.734   7.981   8.468 -0.8495  0.3626  0.1270
  415MOL0     H57202   8.972   8.036   8.434  0.9773 -1.0227  2.3839
  415MOL0     H57203   9.217   8.022   8.468  2.3698 -0.9530  0.7651
  415MOL0     H57204   9.160   8.010   8.631  0.0904  0.5401 -0.2843
  415MOL0     H57205   9.377   8.199   8.541 -1.3800  0.6209 -0.5182
  415MOL0     H57206   9.361   8.153   8.701 -2.4755  0.6966  0.7071
  415MOL0     H57207   9.435   7.927   8.659  2.5695  0.1890  0.7781
  415MOL0     H57208   9.419   7.947   8.484  0.7743 -0.9235 -0.0555
  415MOL0     H57209   9.594   8.135   8.494 -0.1542  0.9639  1.2009
  415MOL0     H57210   9.605   8.111   8.666  1.0305  1.5044 -0.8949
  415MOL0     H57211   9.716   7.918   8.448 -0.9004 -1.7557  0.9709
  415MOL0     H57212   9.712   7.890   8.621  0.9049 -0.3461 -0.3964
  415MOL0     H57213   9.936   7.984   8.539 -0.5862 -1.5972  0.3850
  415MOL0     H57214   9.842   8.122   8.481  3.2869  0.6850  1.0253
  415MOL0     H57215   9.789   8.196   8.700 -1.6974 -1.6995  1.0807
  415MOL0     H57216   9.963   8.174   8.689 -0.6377  0.5521 -0.4078
  415MOL0     H57217   9.757   7.984   8.822  1.4195 -2.9076  1.0428
  415MOL0     H57218   9.922   7.931   8.786  2.1428  0.8157 -1.2059
  415MOL0     H57219   9.910   7.911   9.088 -1.4644  0.7407 -0.6054
  415MOL0     H57220   9.857   8.045   9.336  0.1095 -0.7028 -0.2100
  415MOL0     H57221   9.983   8.163   9.369 -2.6802  0.3671  0.7654
  415MOL0     H57222  10.035   7.880   9.251 -3.8106  1.1050  0.3899
  415MOL0     H57223  10.145   8.017   9.310  0.4032  1.6418  3.4795
  415MOL0     H57224  10.028   7.984   9.539 -0.6025 -3.7939  2.7905
  415MOL0     H57225   9.985   7.829   9.472  0.2076 -1.2277 -2.1540
  415MOL0     H57226  10.250   7.960   9.513 -0.4002  0.1670  0.1567
  415MOL0     H57227  10.186   7.804   9.595  2.1664 -1.5772 -1.0613
  415MOL0     H57228  10.322   7.577   9.272 -0.1029 -0.7056  0.2095
  415MOL0     H57229  10.437   7.384   9.237 -0.8305  0.3839  1.2906
  415MOL0     H57230  10.581   7.331   9.340  0.0051  0.4621 -0.4623
  415MOL0     H57231  10.602   7.435   9.197  0.9821  1.0397  0.5579
  415MOL0     H57232  10.994   7.412   9.539  0.4375  2.1438 -0.6941
  415MOL0     H57233  11.191   7.362   9.654  0.8319 -1.6628  2.0282
  415MOL0     H57234  11.403   7.379  10.005  1.8186  2.3225 -0.9963
  415MOL0     H57235  11.314   7.279   9.891 -0.7279  0.2048  2.8004
  415MOL0     H57236  11.380   7.453   9.706  3.1280  2.1025 -0.6257
  415MOL0     H57237  11.473   7.534   9.834  1.8195  0.2666 -3.3239
  415MOL0     H57238  11.491   7.242   9.714 -0.5037 -0.5430  0.1679
  415MOL0     H57239  11.592   7.297   9.847  0.5933 -0.1439 -0.8310
  415MOL0     H57240  11.642   7.490   9.679 -1.5840 -0.7785  1.9692
  415MOL0     H57241  11.548   7.398   9.555 -3.6885 -0.0815  2.5436
  415MOL0     H57242  11.811   7.331   9.694  1.5384 -0.5740 -0.5886
  415MOL0     H57243  11.729   7.204   9.603  1.9393 -0.4622 -0.6232
  415MOL0     H57244  11.759   7.321   9.397  0.6598 -2.3147  1.0480
  415MOL0     H57245  11.912   7.305   9.473  0.4313  2.0034 -0.3199
  415MOL0     H57246  11.912   7.536   9.549  0.5823 -0.8153 -0.5432
  415MOL0     H57247  11.751   7.559   9.459 -0.0031 -2.5725 -2.0935
  415MOL0     H57248  11.878   7.485   9.246 -0.0431 -0.0609  0.7741
  415MOL0     H57249  12.019   7.480   9.347 -1.3839 -1.4340  2.1746
  415MOL0     H57250  11.007   7.535  10.014  2.8180  0.9774  0.0013
  415MOL0     H57251  10.802   7.575   9.888  1.6490 -1.4021  4.6317
  415MOL0     H57252  10.642   7.728   9.626  0.6705  2.7929 -2.8927
  415MOL0     H57253  10.433   7.847   9.581  1.5422  1.7221 -1.2212
  415MOL0     H57254   8.979   8.338   8.715 -0.5440 -0.2553 -0.0827
  415MOL0     H57255   8.708   8.304   8.744 -2.9072 -1.4736  0.5059
  415MOL0     H57256   8.362   8.013   8.533 -0.4854  0.3590  0.5342
  415MOL0     H57257   8.111   7.963   8.565 -2.4602 -1.2509  2.6730
  415MOL0     H57258   7.982   7.781   8.897 -0.2335 -0.2897  2.6519
  415MOL0     H57259   7.948   7.933   8.974 -0.2024 -0.0662 -0.4855
  415MOL0     H57260   7.754   7.974   8.841  3.3816  0.4918 -0.5374
  415MOL0     H57261   7.722   7.850   8.968 -1.3352 -0.0019 -0.5626
  415MOL0     H57262   7.747   7.820   8.668  1.6598 -0.4271  0.1168
  415MOL0     H57263   7.774   7.683   8.772  0.3382  0.2620  2.0224
  415MOL0     H57264   7.544   7.689   8.685  1.0260 -1.7990  0.2268
  415MOL0     H57265   7.530   7.854   8.756  2.6982  1.8502  1.9348
  415MOL0     H57266   7.482   7.589   9.098 -3.1243  0.4259  0.2904
  415MOL0     H57267   8.145   8.003   8.979  0.0220 -1.0542 -0.2605
  415MOL0     H57268   8.485   8.108   8.992  0.2331  0.2533 -1.0793
  415MOL0     H57269   8.355   8.022   9.095  0.8821 -1.2163  0.5773
  415MOL0     H57270   8.485   7.938   9.020  0.4831 -0.6898  0.8199
  416MOL0     O57271   1.049   6.574   7.305  0.6970 -0.3974 -0.2004
  416MOL0     C57272   1.025   6.552   7.423  0.8053  0.1227 -0.4822
  416MOL0     O57273   1.054   6.631   7.528 -0.2852 -0.2140  1.1640
  416MOL0     C57274   1.097   6.767   7.521  0.0307 -0.0702 -0.4983
  416MOL0     C57275   1.039   6.878   7.455 -0.2028  1.0628 -0.1014
  416MOL0     C57276   1.089   7.003   7.469  0.0724  0.1167  0.7030
  416MOL0     C57277   1.202   7.033   7.542 -0.7084 -0.7049  1.1478
  416MOL0     O57278   1.255   7.158   7.551  0.0929 -0.7112  0.5319
  416MOL0     C57279   1.213   7.254   7.451  0.2928  0.3472 -0.4512
  416MOL0     C57280   1.302   7.376   7.470 -0.3179 -0.2613 -0.5155
  416MOL0     C57281   1.260   7.491   7.382  0.3110  0.3425  0.3536
  416MOL0     C57282   1.228   7.617   7.474  0.7449 -0.1618  0.8176
  416MOL0     C57283   1.182   7.734   7.392 -0.8140  0.4718 -0.3094
  416MOL0     C57284   1.127   7.852   7.478 -0.1616  0.1178  0.6506
  416MOL0     C57285   1.120   7.982   7.394  0.0759 -0.2709 -0.7552
  416MOL0     C57286   1.078   8.106   7.473 -0.1083  0.4738  0.2184
  416MOL0     N57287   1.019   8.215   7.387  0.9048 -0.2861 -0.5219
  416MOL0     C57288   1.099   8.293   7.304  0.2347  0.5899  0.1085
  416MOL0     C57289   1.004   8.365   7.224 -0.9025 -0.5353 -0.4129
  416MOL0     C57290   1.045   8.462   7.113  0.3354 -0.5653 -0.5230
  416MOL0     C57291   1.108   8.595   7.156  0.1439  0.0914 -0.3432
  416MOL0     C57292   1.143   8.678   7.036 -0.7195  0.1982  0.1194
  416MOL0     C57293   1.159   8.827   7.081  0.8830  0.5105 -0.1414
  416MOL0     O57294   1.237   8.834   7.202  0.7588 -0.6549 -0.1057
  416MOL0     C57295   1.373   8.831   7.198  0.2943 -0.6271  0.1032
  416MOL0     C57296   1.437   8.858   7.315 -0.5917 -0.8239  0.0181
  416MOL0     C57297   1.573   8.872   7.333 -0.0582  0.1293  0.8572
  416MOL0     C57298   1.617   8.915   7.475  0.4254 -0.1456 -0.0692
  416MOL0     C57299   1.657   8.828   7.223 -0.3916  0.6289  0.8315
  416MOL0     C57300   1.809   8.821   7.218  0.6098 -0.0081  0.7400
  416MOL0     O57301   1.864   8.802   7.094 -0.1272 -0.3011 -0.3639
  416MOL0     C57302   1.995   8.853   7.067 -0.3495 -0.2402  0.2729
  416MOL0     C57303   2.114   8.818   7.130  0.7716 -0.2424 -0.6365
  416MOL0     C57304   2.237   8.857   7.072  0.7900  0.3094 -0.4805
  416MOL0     C57305   2.238   8.952   6.961  1.1793  0.3178 -0.0867
  416MOL0     O57306   2.350   8.998   6.904  0.7292 -0.0195 -0.5339
  416MOL0     C57307   2.468   8.982   6.988  0.2675 -0.1671 -0.1182
  416MOL0     C57308   2.581   9.050   6.912  0.2495  0.0998  0.1897
  416MOL0     C57309   2.706   9.060   7.004 -0.9132 -0.4193 -0.5166
  416MOL0     C57310   2.831   9.104   6.922 -0.0112 -0.7741  0.1537
  416MOL0     C57311   2.943   9.162   7.006  0.2480 -0.3162  0.5449
  416MOL0     C57312   3.088   9.134   6.967  0.8316  0.6081  1.5506
  416MOL0     C57313   3.182   9.152   7.084 -0.6830  0.0750  0.3303
  416MOL0     C57314   3.202   9.306   7.132  1.0194  0.5726  0.3393
  416MOL0    Cl57315   3.225   9.416   6.993 -0.1518 -0.5275  0.4012
  416MOL0     C57316   2.116   8.991   6.900 -0.7762  0.2517 -0.1690
  416MOL0     C57317   2.000   8.936   6.952  0.8038  0.2248  0.4041
  416MOL0     O57318   1.868   8.856   7.318  0.4058  0.0998 -0.2136
  416MOL0     C57319   1.591   8.795   7.103 -0.5104 -0.8597  0.7793
  416MOL0     C57320   1.455   8.804   7.094  0.1614  1.0307  0.0123
  416MOL0     N57321   0.878   8.329   7.267  0.2496 -0.6516 -0.7051
  416MOL0     N57322   0.889   8.238   7.366 -0.5534  0.2809  0.8624
  416MOL0     C57323   1.263   6.926   7.604  0.0350 -0.7274  0.7801
  416MOL0     C57324   1.211   6.794   7.599  1.1178  0.6575 -0.0856
  416MOL0     C57325   0.960   6.416   7.449  0.2359 -0.0645  0.1753
  416MOL0     C57326   0.941   6.384   7.583 -0.7716  0.4496  0.1167
  416MOL0     C57327   0.867   6.270   7.618  0.1824 -0.0278 -0.6751
  416MOL0     C57328   0.816   6.176   7.528  0.0375  0.5141  0.3563
  416MOL0     O57329   0.748   6.056   7.552  0.2079  0.3829  0.5981
  416MOL0     C57330   0.742   6.017   7.693 -0.0240 -0.1362  0.0140
  416MOL0     C57331   0.688   5.879   7.724 -0.0454  0.4750 -0.0587
  416MOL0     C57332   0.782   5.772   7.664 -0.3469 -0.9179  0.0506
  416MOL0     C57333   0.714   5.633   7.657 -0.7262 -0.1264  0.6050
  416MOL0     C57334   0.672   5.582   7.786 -0.1362 -1.0891 -0.4053
  416MOL0     C57335   0.629   5.550   7.895 -0.1045  0.6803  0.0188
  416MOL0     C57336   0.848   6.203   7.396 -0.1392 -0.2274 -0.0928
  416MOL0     C57337   0.909   6.319   7.356  0.5901 -0.3599 -0.1018
  416MOL0     C57338   0.929   6.339   7.209  0.6043 -1.2520  0.2844
  416MOL0     H57339   0.964   6.868   7.377  0.1810 -0.8013 -0.2876
  416MOL0     H57340   1.021   7.080   7.432 -3.0801 -1.7194  2.3016
  416MOL0     H57341   1.109   7.280   7.474  0.4010 -0.3556  0.9495
  416MOL0     H57342   1.222   7.212   7.350  0.1914  0.7113 -0.6144
  416MOL0     H57343   1.317   7.398   7.576  2.0497 -2.1720 -0.3337
  416MOL0     H57344   1.399   7.332   7.445 -0.7633 -2.5992  1.4395
  416MOL0     H57345   1.344   7.512   7.315 -0.6068 -0.6088 -1.1596
  416MOL0     H57346   1.175   7.458   7.322  0.4413  2.4289 -1.0647
  416MOL0     H57347   1.146   7.589   7.541  0.5649 -2.2761 -0.2019
  416MOL0     H57348   1.319   7.645   7.529  1.1835 -0.5893  0.3135
  416MOL0     H57349   1.107   7.699   7.321  0.4898 -1.3600 -0.8707
  416MOL0     H57350   1.274   7.763   7.339 -1.7503  3.5164 -0.4529
  416MOL0     H57351   1.032   7.818   7.521  0.0014  2.7339  3.4218
  416MOL0     H57352   1.189   7.874   7.566  2.9078 -0.3898 -1.2501
  416MOL0     H57353   1.051   7.956   7.313  1.8329  0.1508 -2.4640
  416MOL0     H57354   1.216   8.001   7.346  0.9385 -0.3922  0.8590
  416MOL0     H57355   0.997   8.087   7.544 -0.2536  0.5975  0.0888
  416MOL0     H57356   1.164   8.149   7.524  0.2089 -1.2352  1.1847
  416MOL0     H57357   1.204   8.273   7.284 -0.6002 -0.4375 -4.4689
  416MOL0     H57358   0.956   8.489   7.054  2.0945  1.7365 -2.3429
  416MOL0     H57359   1.121   8.418   7.048  2.0134  1.8407 -0.2983
  416MOL0     H57360   1.031   8.648   7.213  0.2913  1.0013 -0.9872
  416MOL0     H57361   1.194   8.565   7.217  0.6939 -1.0150 -1.6067
  416MOL0     H57362   1.238   8.631   7.006 -0.7350 -0.4348  1.0212
  416MOL0     H57363   1.067   8.670   6.959 -2.1278 -0.9754  1.5605
  416MOL0     H57364   1.198   8.898   7.007  0.6437  1.2089  0.3894
  416MOL0     H57365   1.060   8.871   7.096  1.3244  1.4139  0.2514
  416MOL0     H57366   1.377   8.898   7.396  1.7351  0.5121  1.1857
  416MOL0     H57367   1.628   8.832   7.545  1.9349 -1.0756 -1.3433
  416MOL0     H57368   1.549   8.988   7.519  0.6208 -0.0644  0.0952
  416MOL0     H57369   1.718   8.958   7.468  1.1254 -1.9352 -1.9699
  416MOL0     H57370   2.097   8.762   7.221  0.3484  0.9439  0.0353
  416MOL0     H57371   2.320   8.828   7.135 -1.1115  2.1237  3.2251
  416MOL0     H57372   2.455   9.029   7.086 -1.0225  2.0573 -1.2552
  416MOL0     H57373   2.490   8.875   6.996  2.5149  0.0525 -2.1627
  416MOL0     H57374   2.602   9.003   6.816  0.7846 -0.7444  0.7132
  416MOL0     H57375   2.546   9.152   6.891 -2.1583 -0.8508 -0.8051
  416MOL0     H57376   2.732   8.969   7.059  1.5376  0.7960  0.5106
  416MOL0     H57377   2.679   9.136   7.079 -1.5824 -1.2689  0.1200
  416MOL0     H57378   2.807   9.176   6.843 -0.8811  0.7754  1.7351
  416MOL0     H57379   2.856   9.016   6.862  1.1501  0.6940 -1.6385
  416MOL0     H57380   2.926   9.270   7.012 -2.5249 -0.4870 -2.3147
  416MOL0     H57381   2.934   9.125   7.109  3.1389 -2.7391  0.0918
  416MOL0     H57382   3.113   9.190   6.876 -0.5665 -0.8119  0.2426
  416MOL0     H57383   3.098   9.030   6.936  0.7675  0.2825  2.5906
  416MOL0     H57384   3.280   9.111   7.058 -0.8673 -0.7748  0.9445
  416MOL0     H57385   3.140   9.096   7.168 -1.5899 -1.4642 -1.0901
  416MOL0     H57386   3.284   9.310   7.204 -0.6263 -2.2056  2.6016
  416MOL0     H57387   3.112   9.327   7.190  1.3584  0.6545  0.8411
  416MOL0     H57388   2.108   9.062   6.818 -0.7335  1.4392  0.8312
  416MOL0     H57389   1.907   8.958   6.902  0.5377  1.9057  1.5373
  416MOL0     H57390   1.638   8.772   7.008 -0.7880  0.8714  0.1709
  416MOL0     H57391   1.411   8.778   6.998  3.1962 -5.3042 -0.1735
  416MOL0     H57392   1.352   6.938   7.665  0.4433 -0.1958  0.0851
  416MOL0     H57393   1.260   6.714   7.654 -0.7438 -0.9597 -0.6633
  416MOL0     H57394   0.987   6.444   7.661  0.8675 -0.0532 -0.4184
  416MOL0     H57395   0.862   6.248   7.724  1.1703 -0.4574 -0.7047
  416MOL0     H57396   0.842   6.026   7.736 -0.8878  2.2506  1.7809
  416MOL0     H57397   0.697   6.099   7.749 -0.1546 -0.5033  0.4531
  416MOL0     H57398   0.595   5.880   7.666 -0.5123 -0.8921  0.6045
  416MOL0     H57399   0.662   5.860   7.829 -0.1641 -0.8052 -0.2949
  416MOL0     H57400   0.819   5.811   7.569  1.9076 -0.4281  1.0737
  416MOL0     H57401   0.871   5.772   7.727  0.1048  2.9256 -0.3480
  416MOL0     H57402   0.790   5.560   7.628 -1.9252 -1.3934  0.5717
  416MOL0     H57403   0.632   5.632   7.585  1.0059  3.4071 -1.7003
  416MOL0     H57404   0.603   5.532   7.998 -1.5798 -0.9147 -0.5905
  416MOL0     H57405   0.804   6.131   7.327 -0.1310 -1.9900  1.6512
  416MOL0     H57406   0.884   6.262   7.146 -1.6716 -0.2597  0.6003
  416MOL0     H57407   0.872   6.429   7.186  0.5078 -1.0849  1.1294
  416MOL0     H57408   1.036   6.350   7.188  0.2967 -1.3108 -1.3812
  417MOL0     O57409   8.128   2.925   1.950  0.4054 -0.0850 -0.4057
  417MOL0     C57410   8.090   2.858   1.854  0.6823  0.0617 -0.8033
  417MOL0     O57411   8.165   2.760   1.787  0.1068  0.9049 -0.5145
  417MOL0     C57412   8.280   2.726   1.847 -0.9079 -0.0702  0.8256
  417MOL0     C57413   8.410   2.763   1.790  0.5237  0.0672 -0.1342
  417MOL0     C57414   8.527   2.705   1.851  0.4845  0.2334  0.1723
  417MOL0     C57415   8.522   2.626   1.960 -0.7644  0.2207  0.1952
  417MOL0     O57416   8.642   2.585   2.015 -0.0887  0.4677  0.0511
  417MOL0     C57417   8.647   2.482   2.109 -0.4790 -0.1968 -0.5378
  417MOL0     C57418   8.658   2.344   2.038 -0.0739  0.5537 -0.7962
  417MOL0     C57419   8.788   2.330   1.966 -0.5636  0.6325 -0.7521
  417MOL0     C57420   8.905   2.287   2.068 -0.1261  0.1487  0.4190
  417MOL0     C57421   9.037   2.296   1.987  0.4385 -0.1597  0.1752
  417MOL0     C57422   9.156   2.233   2.058  0.7205 -0.1816 -0.6107
  417MOL0     C57423   9.292   2.235   1.991  0.0281 -0.3005  0.3149
  417MOL0     C57424   9.394   2.162   2.071  0.2059 -0.0848 -0.0093
  417MOL0     N57425   9.529   2.183   2.025 -0.8632 -0.4872  0.2126
  417MOL0     C57426   9.578   2.165   1.894  0.2413  0.9375 -0.2832
  417MOL0     C57427   9.707   2.207   1.908  0.0685  1.0555  0.2867
  417MOL0     C57428   9.817   2.202   1.803 -0.2304  0.7481  0.6575
  417MOL0     C57429   9.956   2.254   1.849  0.6372 -1.1210  0.1838
  417MOL0     C57430  10.073   2.237   1.741 -0.2634  0.8971 -0.4899
  417MOL0     C57431  10.206   2.300   1.796  0.0518  0.5415 -0.4477
  417MOL0     O57432  10.296   2.215   1.882  0.4331 -0.6483 -0.2214
  417MOL0     C57433  10.409   2.275   1.925 -0.3215  0.7072 -0.5255
  417MOL0     C57434  10.452   2.400   1.879  1.2221 -0.1139 -0.1850
  417MOL0     C57435  10.570   2.464   1.929  0.4729 -1.1619 -0.5152
  417MOL0     C57436  10.602   2.603   1.896 -0.2722  0.0354  0.1996
  417MOL0     C57437  10.657   2.395   2.017  0.0445  0.2290 -0.9402
  417MOL0     C57438  10.790   2.453   2.057  0.4382  0.9902 -0.7769
  417MOL0     O57439  10.867   2.357   2.093 -0.3636  0.0339 -0.4725
  417MOL0     C57440  10.982   2.381   2.167  0.5259 -0.5393  0.3269
  417MOL0     C57441  10.987   2.401   2.300 -0.4757  0.5233 -1.3248
  417MOL0     C57442  11.102   2.435   2.375  0.1790  0.3788  0.3870
  417MOL0     C57443  11.224   2.431   2.303 -0.1007 -0.8440 -0.9669
  417MOL0     O57444  11.351   2.450   2.345 -0.2872 -0.0212  0.0003
  417MOL0     C57445  11.374   2.477   2.485  0.6677 -0.3394  0.6854
  417MOL0     C57446  11.519   2.501   2.523 -0.3313  0.1562  0.6313
  417MOL0     C57447  11.554   2.549   2.661 -1.3531  0.0375  0.2720
  417MOL0     C57448  11.700   2.587   2.662  0.7146 -0.0333 -0.0789
  417MOL0     C57449  11.751   2.616   2.795 -0.3064  0.1771  0.3952
  417MOL0     C57450  11.898   2.653   2.774 -0.1125 -0.1366  0.5324
  417MOL0     C57451  11.966   2.671   2.910 -0.8179  0.3317  0.7885
  417MOL0     C57452  12.116   2.669   2.879  0.3544  0.2513  0.1923
  417MOL0    Cl57453  12.164   2.821   2.821  0.4831 -0.3482 -0.1115
  417MOL0     C57454  11.220   2.420   2.165 -0.1617  0.0684 -0.5529
  417MOL0     C57455  11.099   2.396   2.099  0.6248 -0.5090 -0.2805
  417MOL0     O57456  10.806   2.576   2.070  0.4863 -0.7297  0.0393
  417MOL0     C57457  10.606   2.269   2.066  0.1208 -0.2636 -0.7799
  417MOL0     C57458  10.491   2.212   2.017 -0.2335  0.5148  0.4321
  417MOL0     N57459   9.725   2.236   2.040  0.2997 -0.5810 -0.3451
  417MOL0     N57460   9.626   2.220   2.121  0.2783  0.2220  0.4392
  417MOL0     C57461   8.394   2.590   2.008  0.3124 -0.0158 -0.4061
  417MOL0     C57462   8.281   2.636   1.948  0.2980 -0.4397 -0.1430
  417MOL0     C57463   7.950   2.872   1.807 -0.1656  0.0979  0.3922
  417MOL0     C57464   7.897   2.792   1.702  0.4639  0.5410 -0.4962
  417MOL0     C57465   7.762   2.803   1.661  0.1263 -0.4975 -0.2993
  417MOL0     C57466   7.666   2.890   1.702  0.4117 -0.2986 -0.4717
  417MOL0     O57467   7.535   2.874   1.664 -0.1172  0.8642  0.5809
  417MOL0     C57468   7.446   2.940   1.761  0.4625  0.0960  0.1859
  417MOL0     C57469   7.326   2.852   1.758 -0.9574  0.3396 -0.1838
  417MOL0     C57470   7.222   2.898   1.655 -0.1797  0.6962  0.1694
  417MOL0     C57471   7.109   2.987   1.693 -0.5950  0.3366  0.2939
  417MOL0     C57472   7.010   2.913   1.775  0.0645 -0.7733 -0.1804
  417MOL0     C57473   6.930   2.854   1.841  0.8237  0.1654 -0.9922
  417MOL0     C57474   7.719   2.975   1.804 -0.3035 -0.8481 -0.3234
  417MOL0     C57475   7.852   2.962   1.854  0.1801 -0.3276  0.5374
  417MOL0     C57476   7.886   3.062   1.962 -0.0663  0.2422 -0.1447
  417MOL0     H57477   8.399   2.826   1.702  0.6624 -0.4878 -0.5474
  417MOL0     H57478   8.627   2.721   1.811  0.9523 -1.6011  0.5044
  417MOL0     H57479   8.567   2.500   2.181  1.1695  1.8639  0.8938
  417MOL0     H57480   8.742   2.492   2.163 -0.3025  1.7574 -1.1319
  417MOL0     H57481   8.640   2.282   2.126  1.8243  1.2489  0.1356
  417MOL0     H57482   8.579   2.333   1.963  0.1143 -1.0053 -0.8002
  417MOL0     H57483   8.788   2.259   1.884  3.5757 -0.9644  0.3556
  417MOL0     H57484   8.821   2.429   1.934  0.6281  0.8443  0.9790
  417MOL0     H57485   8.910   2.341   2.163 -0.0047  1.8578 -0.5222
  417MOL0     H57486   8.890   2.181   2.091 -0.3314  0.6753  2.9942
  417MOL0     H57487   9.066   2.398   1.959 -0.6347 -0.4267 -2.1635
  417MOL0     H57488   9.006   2.252   1.891 -0.7993 -1.3537  1.0909
  417MOL0     H57489   9.160   2.286   2.153 -1.6721  1.2971 -1.2447
  417MOL0     H57490   9.142   2.126   2.077  0.6525 -0.4460 -1.9934
  417MOL0     H57491   9.324   2.336   1.965 -2.1152 -0.1586 -2.1954
  417MOL0     H57492   9.284   2.195   1.890 -1.9748  3.4927 -1.2173
  417MOL0     H57493   9.402   2.184   2.177  0.5893  1.8786 -0.4075
  417MOL0     H57494   9.371   2.055   2.063  0.6931 -0.2278  0.5061
  417MOL0     H57495   9.510   2.122   1.821 -1.7521  0.4889  1.7482
  417MOL0     H57496   9.784   2.262   1.718  0.2919 -0.1269 -0.1849
  417MOL0     H57497   9.822   2.097   1.773 -0.5938  1.2524 -1.2810
  417MOL0     H57498   9.937   2.358   1.877 -2.0690 -1.9795  1.9320
  417MOL0     H57499   9.993   2.201   1.937  1.8642  0.9121  0.9616
  417MOL0     H57500  10.085   2.133   1.707 -2.1989  0.9455 -1.4688
  417MOL0     H57501  10.051   2.282   1.644 -2.2899  0.5087 -0.2594
  417MOL0     H57502  10.265   2.335   1.711  0.0636  1.6660 -0.0012
  417MOL0     H57503  10.177   2.386   1.858 -0.0183  1.1773 -1.3425
  417MOL0     H57504  10.397   2.456   1.804  1.4492 -0.6249 -0.7406
  417MOL0     H57505  10.705   2.593   1.861 -0.4149 -1.6073  0.2027
  417MOL0     H57506  10.592   2.672   1.981  2.0839 -0.8475  1.2667
  417MOL0     H57507  10.540   2.638   1.813  1.5501 -0.3389 -1.3711
  417MOL0     H57508  10.900   2.377   2.361  0.8332 -2.0057 -0.3134
  417MOL0     H57509  11.087   2.455   2.480  3.2250 -1.4554  1.3024
  417MOL0     H57510  11.306   2.559   2.508  1.2763  1.0283 -2.0297
  417MOL0     H57511  11.351   2.387   2.543  1.8120 -0.8043  0.4530
  417MOL0     H57512  11.578   2.409   2.523  3.2176  2.2411  2.0103
  417MOL0     H57513  11.557   2.568   2.445 -0.2721 -0.7616 -0.1406
  417MOL0     H57514  11.532   2.476   2.740 -1.4978  0.5364  0.6999
  417MOL0     H57515  11.498   2.642   2.678 -0.8646  0.3629  0.1222
  417MOL0     H57516  11.712   2.670   2.592 -0.0321  0.7200  0.6694
  417MOL0     H57517  11.762   2.515   2.608  1.7789  1.4097 -0.8355
  417MOL0     H57518  11.697   2.697   2.844  3.0610  2.0492  1.3224
  417MOL0     H57519  11.746   2.524   2.853  0.3108 -0.8178 -1.0668
  417MOL0     H57520  11.906   2.747   2.719  1.1465 -0.3599  0.3183
  417MOL0     H57521  11.952   2.575   2.720  2.3969  3.0586 -1.9632
  417MOL0     H57522  11.939   2.576   2.957 -0.5800 -0.3320 -0.3677
  417MOL0     H57523  11.939   2.760   2.968  0.3219  0.3456  1.3226
  417MOL0     H57524  12.146   2.595   2.804  0.5646  0.7135 -0.1815
  417MOL0     H57525  12.168   2.652   2.974 -0.0209 -1.3162  0.1383
  417MOL0     H57526  11.307   2.429   2.101 -0.7713 -1.4485 -1.6498
  417MOL0     H57527  11.097   2.398   1.991  0.6692  3.3304 -0.3264
  417MOL0     H57528  10.661   2.198   2.127 -1.1813  0.4947  1.3952
  417MOL0     H57529  10.478   2.108   2.047  2.3944 -0.5447 -1.6728
  417MOL0     H57530   8.381   2.527   2.096  0.8769  1.0929  0.4934
  417MOL0     H57531   8.187   2.595   1.985 -0.1174  1.6102  1.2293
  417MOL0     H57532   7.955   2.716   1.651  0.1942  0.3085 -0.4561
  417MOL0     H57533   7.719   2.732   1.591  0.4379  0.7336 -1.7893
  417MOL0     H57534   7.489   2.961   1.859  2.0469  0.5454 -0.5818
  417MOL0     H57535   7.419   3.042   1.735  0.3631 -0.3945 -1.8186
  417MOL0     H57536   7.288   2.834   1.858 -0.5351  0.7990  0.0685
  417MOL0     H57537   7.359   2.753   1.725  5.2655  1.5983  0.9591
  417MOL0     H57538   7.277   2.956   1.580  1.8037  0.0102  1.0344
  417MOL0     H57539   7.175   2.803   1.625 -0.1757  0.1059  1.9370
  417MOL0     H57540   7.066   3.020   1.598  0.3519 -1.2241 -0.7118
  417MOL0     H57541   7.143   3.072   1.753  1.0659 -0.9042  1.2080
  417MOL0     H57542   6.865   2.810   1.915  2.3415  0.7560  0.7584
  417MOL0     H57543   7.658   3.055   1.845  0.4845 -0.7721  0.7825
  417MOL0     H57544   7.916   3.007   2.052 -0.5614 -1.2618 -0.8640
  417MOL0     H57545   7.965   3.130   1.931 -0.1413 -0.4569 -1.9761
  417MOL0     H57546   7.808   3.136   1.983  2.3454  2.3766  2.1146
  418MOL0     O57547   4.312   0.792   6.209 -0.3002 -0.1073  0.0023
  418MOL0     C57548   4.259   0.846   6.114  0.3754  0.4736  0.1550
  418MOL0     O57549   4.321   0.950   6.044 -0.3183  0.1946  0.2534
  418MOL0     C57550   4.443   1.020   6.065  0.2794 -0.1159 -0.2174
  418MOL0     C57551   4.551   0.973   6.151  0.3697 -0.3148  0.3372
  418MOL0     C57552   4.676   1.037   6.145  0.2137 -0.4196 -0.0365
  418MOL0     C57553   4.680   1.162   6.081  0.6583 -0.6198  0.5817
  418MOL0     O57554   4.796   1.230   6.096  0.6826 -0.3837  1.0028
  418MOL0     C57555   4.802   1.348   6.179 -0.2753 -0.0878 -0.9104
  418MOL0     C57556   4.849   1.469   6.106 -0.1712 -0.5958  0.1512
  418MOL0     C57557   5.002   1.488   6.080 -0.0533 -0.0574  0.2549
  418MOL0     C57558   5.038   1.632   6.027 -0.1162  0.7849 -0.3916
  418MOL0     C57559   5.187   1.674   6.024  1.0266  0.0706 -0.0699
  418MOL0     C57560   5.249   1.584   5.920  0.3717 -0.3871 -0.6746
  418MOL0     C57561   5.403   1.618   5.899  0.4039  0.7488 -0.3196
  418MOL0     C57562   5.470   1.518   5.791  0.3869  0.0070  0.1668
  418MOL0     N57563   5.614   1.537   5.774 -0.3954  0.7352 -0.5497
  418MOL0     C57564   5.681   1.503   5.657 -0.2015  0.1210 -0.5621
  418MOL0     C57565   5.808   1.536   5.669 -0.3367  0.1603 -0.8722
  418MOL0     C57566   5.919   1.531   5.570  0.1480 -0.2977 -0.1358
  418MOL0     C57567   6.010   1.654   5.589  0.1720 -0.4697  0.0951
  418MOL0     C57568   6.148   1.661   5.513  0.1192  0.4383 -0.1295
  418MOL0     C57569   6.153   1.663   5.361 -0.2591  0.2489  0.4253
  418MOL0     O57570   6.294   1.646   5.325 -0.2687  0.4526 -0.1302
  418MOL0     C57571   6.340   1.699   5.206 -0.4046 -0.1534  0.0246
  418MOL0     C57572   6.256   1.739   5.102  0.3671 -0.8129 -1.2033
  418MOL0     C57573   6.314   1.791   4.990  0.8212  0.0879  0.5145
  418MOL0     C57574   6.221   1.831   4.875  0.2959 -0.3264 -0.2752
  418MOL0     C57575   6.457   1.817   4.980 -0.6657 -0.3608 -0.1117
  418MOL0     C57576   6.533   1.870   4.858 -0.1200  0.0987  0.8499
  418MOL0     O57577   6.663   1.814   4.842 -0.1862 -0.8068 -0.4139
  418MOL0     C57578   6.749   1.856   4.745 -0.0960 -0.2627 -0.2406
  418MOL0     C57579   6.759   1.984   4.692 -1.2882  1.0089  0.1583
  418MOL0     C57580   6.844   2.012   4.584 -0.3228  0.1214 -0.5112
  418MOL0     C57581   6.930   1.916   4.528 -0.0990 -0.0011 -0.0144
  418MOL0     O57582   7.018   1.949   4.427 -0.0759 -0.6459 -0.4389
  418MOL0     C57583   7.158   1.907   4.453  0.3206 -0.8348 -0.1540
  418MOL0     C57584   7.228   1.958   4.326  0.5185 -0.3203 -0.0830
  418MOL0     C57585   7.377   1.904   4.321 -1.0335 -0.7874  0.9688
  418MOL0     C57586   7.436   1.917   4.177  0.1144  0.7923  0.0481
  418MOL0     C57587   7.590   1.903   4.197 -0.1458 -0.9695  0.2880
  418MOL0     C57588   7.650   2.049   4.226  0.1352 -0.2102  0.0002
  418MOL0     C57589   7.793   2.030   4.257 -0.3418  0.4655  0.2805
  418MOL0     C57590   7.882   2.135   4.196  0.0723 -0.2851 -0.6361
  418MOL0    Cl57591   7.833   2.299   4.213  0.1105 -0.0607  0.0231
  418MOL0     C57592   6.922   1.784   4.580  0.1224 -0.2174 -0.4423
  418MOL0     C57593   6.833   1.753   4.685 -0.7189 -0.2364 -0.8349
  418MOL0     O57594   6.482   1.944   4.779  0.2402  0.1925 -0.1863
  418MOL0     C57595   6.529   1.775   5.088  0.2803 -0.1389  0.0583
  418MOL0     C57596   6.475   1.713   5.205  0.2574  0.4297  0.7414
  418MOL0     N57597   5.821   1.585   5.803  0.3186  0.2913 -0.2600
  418MOL0     N57598   5.709   1.593   5.859 -0.5339  0.7996 -0.5081
  418MOL0     C57599   4.576   1.217   6.009 -0.1017  0.3772 -0.2036
  418MOL0     C57600   4.460   1.144   6.004 -0.3549 -0.2525 -0.5027
  418MOL0     C57601   4.142   0.780   6.055  0.1029  1.1150 -0.3855
  418MOL0     C57602   4.125   0.792   5.916  0.2696  1.0808 -0.4282
  418MOL0     C57603   4.030   0.727   5.847  0.7603 -0.4855  0.4693
  418MOL0     C57604   3.936   0.659   5.915  0.7436  0.0850 -0.4980
  418MOL0     O57605   3.837   0.611   5.838 -0.4294 -0.2485 -0.1740
  418MOL0     C57606   3.701   0.633   5.883 -0.1596 -0.0200  0.8811
  418MOL0     C57607   3.658   0.506   5.949 -0.1716  0.6069 -0.5874
  418MOL0     C57608   3.533   0.441   5.903 -0.0774  0.5476  0.7224
  418MOL0     C57609   3.410   0.526   5.942 -0.1731  0.7011  0.3069
  418MOL0     C57610   3.275   0.482   5.914  0.0835 -0.3266  0.2751
  418MOL0     C57611   3.163   0.427   5.907 -0.0090 -0.6548 -0.1604
  418MOL0     C57612   3.939   0.664   6.061 -0.3288  0.6694 -0.5577
  418MOL0     C57613   4.043   0.726   6.129  0.2107  0.1077 -0.8079
  418MOL0     C57614   4.046   0.715   6.278  0.1254 -0.6231  1.1305
  418MOL0     H57615   4.545   0.882   6.210 -1.0766  1.3082  2.8842
  418MOL0     H57616   4.764   0.992   6.190  0.9476  2.4199  1.6198
  418MOL0     H57617   4.873   1.345   6.262 -1.7304 -0.0156  0.3803
  418MOL0     H57618   4.702   1.367   6.219 -0.3044  1.0041 -1.4427
  418MOL0     H57619   4.801   1.471   6.007 -0.5024 -1.3406  0.2918
  418MOL0     H57620   4.818   1.559   6.160  0.0277  0.3311 -1.2280
  418MOL0     H57621   5.055   1.467   6.174 -0.3681 -0.7425  0.2832
  418MOL0     H57622   5.037   1.413   6.009 -0.3805 -1.7161  1.7702
  418MOL0     H57623   4.983   1.631   5.933 -2.1820 -0.7909  0.7731
  418MOL0     H57624   4.981   1.706   6.083 -2.7877 -1.2146 -0.3111
  418MOL0     H57625   5.240   1.676   6.120  2.5995  1.5803 -0.9064
  418MOL0     H57626   5.196   1.775   5.982  1.8701 -0.3226 -0.8833
  418MOL0     H57627   5.229   1.480   5.949 -0.4512 -0.3923 -1.2258
  418MOL0     H57628   5.199   1.608   5.826 -1.5346  1.8297  0.7861
  418MOL0     H57629   5.452   1.596   5.994  1.9374 -2.4939 -1.7059
  418MOL0     H57630   5.417   1.722   5.867  3.4694 -0.0039 -1.7877
  418MOL0     H57631   5.461   1.410   5.804  2.0640 -0.6933 -3.1955
  418MOL0     H57632   5.425   1.527   5.691  0.9479  2.0315  0.0598
  418MOL0     H57633   5.626   1.447   5.582 -1.1713  0.4341 -0.0979
  418MOL0     H57634   5.876   1.537   5.469 -1.3853  1.0029  0.5396
  418MOL0     H57635   5.977   1.438   5.565  1.2818  0.4629 -2.1495
  418MOL0     H57636   5.952   1.740   5.555  1.0646 -0.0306 -0.3490
  418MOL0     H57637   6.035   1.657   5.696 -1.3329 -1.2155  0.4952
  418MOL0     H57638   6.200   1.749   5.552 -0.5485  0.2687  1.1800
  418MOL0     H57639   6.193   1.567   5.546 -0.6296  0.4764  1.0642
  418MOL0     H57640   6.091   1.586   5.313  0.9211  0.3476 -1.3321
  418MOL0     H57641   6.119   1.764   5.336  0.4348  0.3785  0.0038
  418MOL0     H57642   6.148   1.735   5.110  0.4212 -0.4450 -0.0884
  418MOL0     H57643   6.241   1.773   4.784  1.3995  2.0427 -1.6378
  418MOL0     H57644   6.251   1.933   4.848  1.0176 -0.7216 -1.0192
  418MOL0     H57645   6.115   1.830   4.902  0.1561 -0.6066 -0.8252
  418MOL0     H57646   6.708   2.069   4.737 -3.0815  0.3258 -0.5171
  418MOL0     H57647   6.854   2.116   4.555  0.8660 -0.2339 -1.4936
  418MOL0     H57648   7.203   1.959   4.538  2.2232 -2.0993 -0.3077
  418MOL0     H57649   7.160   1.798   4.462  2.5734 -0.8678 -0.4995
  418MOL0     H57650   7.170   1.931   4.237 -0.6602 -0.6958  0.7724
  418MOL0     H57651   7.233   2.067   4.325 -1.2116 -0.2099 -0.3926
  418MOL0     H57652   7.380   1.800   4.357 -0.4606 -0.3663  2.2163
  418MOL0     H57653   7.440   1.968   4.383  0.6347  0.6422 -1.9790
  418MOL0     H57654   7.405   2.009   4.126 -1.4785  0.8859  1.0896
  418MOL0     H57655   7.387   1.837   4.122 -0.6308  1.5793 -0.4696
  418MOL0     H57656   7.608   1.836   4.281  0.1603  1.1079  1.9487
  418MOL0     H57657   7.635   1.865   4.105 -0.6814 -1.3733  0.1851
  418MOL0     H57658   7.597   2.096   4.310 -1.4236 -2.8928  0.6416
  418MOL0     H57659   7.643   2.111   4.136  0.0552 -0.4679 -0.1701
  418MOL0     H57660   7.827   1.931   4.222 -0.0997  1.2362 -1.8087
  418MOL0     H57661   7.809   2.023   4.365 -2.6759 -1.5581  0.5855
  418MOL0     H57662   7.902   2.129   4.088 -0.4336 -0.9170 -0.6984
  418MOL0     H57663   7.984   2.126   4.234  0.7767 -0.8824 -2.5528
  418MOL0     H57664   6.982   1.703   4.541 -0.4655 -1.2671  0.7719
  418MOL0     H57665   6.821   1.653   4.727  1.3899 -0.3522 -0.3950
  418MOL0     H57666   6.637   1.789   5.086  0.2216  0.2883 -0.3207
  418MOL0     H57667   6.527   1.695   5.298 -0.9915 -0.4433  1.3021
  418MOL0     H57668   4.601   1.308   5.956  1.3739 -0.0432 -0.2654
  418MOL0     H57669   4.386   1.183   5.935 -1.8283  1.5564  1.9232
  418MOL0     H57670   4.206   0.841   5.862  0.3748  0.8650 -0.4684
  418MOL0     H57671   4.025   0.708   5.740 -1.2716 -0.1018  0.4603
  418MOL0     H57672   3.691   0.714   5.955  2.0278  0.7473  0.4141
  418MOL0     H57673   3.641   0.655   5.794 -0.0548 -2.6834  0.0473
  418MOL0     H57674   3.637   0.516   6.056 -2.2374  0.7400 -0.9668
  418MOL0     H57675   3.731   0.426   5.933 -0.5787  0.1958 -0.4324
  418MOL0     H57676   3.539   0.432   5.794  1.1387 -0.3870  0.8438
  418MOL0     H57677   3.530   0.340   5.944  2.5175 -0.2848 -0.8548
  418MOL0     H57678   3.422   0.626   5.898  0.7512 -0.2917 -1.8795
  418MOL0     H57679   3.416   0.551   6.048  0.1738 -3.4388  1.4327
  418MOL0     H57680   3.068   0.379   5.896 -0.3488 -0.4502  1.6401
  418MOL0     H57681   3.867   0.605   6.115  1.6317  0.9248  2.5666
  418MOL0     H57682   3.946   0.685   6.309 -0.8798 -0.6514 -1.8202
  418MOL0     H57683   4.117   0.641   6.318 -2.1756 -2.5918  1.8001
  418MOL0     H57684   4.057   0.810   6.330 -0.9886 -0.0988  0.4276
  419MOL0     O57685   8.380   9.144   6.709  0.4180  0.8957 -0.2736
  419MOL0     C57686   8.303   9.045   6.720 -0.5810  0.6692 -0.0263
  419MOL0     O57687   8.349   8.918   6.708 -0.0569  0.1113 -0.2193
  419MOL0     C57688   8.467   8.884   6.649 -0.0649 -1.6491 -0.3072
  419MOL0     C57689   8.460   8.769   6.572 -0.6508  0.1786  0.0957
  419MOL0     C57690   8.574   8.714   6.500 -0.2774 -0.1077 -0.1385
  419MOL0     C57691   8.692   8.785   6.508  0.4065  0.9618  0.9866
  419MOL0     O57692   8.797   8.740   6.426  0.1702  0.1372 -0.3145
  419MOL0     C57693   8.846   8.833   6.336 -0.5266  0.0324 -0.0390
  419MOL0     C57694   8.904   8.757   6.218 -0.5193 -0.7153 -0.2170
  419MOL0     C57695   9.019   8.666   6.243 -1.0119 -0.5315  0.4772
  419MOL0     C57696   9.100   8.632   6.119  0.0797  0.3995  0.8156
  419MOL0     C57697   9.016   8.594   6.006  0.0487  0.9599  0.8944
  419MOL0     C57698   9.097   8.544   5.886 -0.4760 -0.6239 -0.4511
  419MOL0     C57699   9.188   8.424   5.918 -0.7664 -0.0833 -0.4743
  419MOL0     C57700   9.106   8.302   5.978  0.1084  0.1283  0.6423
  419MOL0     N57701   9.191   8.195   6.032  0.1565 -0.7074 -0.0436
  419MOL0     C57702   9.217   8.081   5.965  0.9996  0.6644 -0.0788
  419MOL0     C57703   9.285   8.014   6.056  0.2290 -1.1484 -0.1356
  419MOL0     C57704   9.338   7.867   6.040 -0.8423 -0.4810 -0.2223
  419MOL0     C57705   9.243   7.751   6.081 -0.2311  0.0537 -0.0545
  419MOL0     C57706   9.283   7.614   6.045  0.5103 -0.4120 -0.2238
  419MOL0     C57707   9.417   7.564   6.098  0.2997 -0.0713  0.7704
  419MOL0     O57708   9.426   7.573   6.241  0.8187  0.1528  0.0392
  419MOL0     C57709   9.551   7.575   6.298  0.3211 -0.5356 -0.1256
  419MOL0     C57710   9.572   7.662   6.407  0.6037  0.3507 -0.2574
  419MOL0     C57711   9.688   7.665   6.482  1.0106  0.7474 -0.1688
  419MOL0     C57712   9.708   7.763   6.601  0.7854 -0.3498  0.9286
  419MOL0     C57713   9.792   7.573   6.441 -0.3305  0.2285  0.2714
  419MOL0     C57714   9.923   7.563   6.515 -1.1370 -0.3352 -0.7600
  419MOL0     O57715  10.001   7.467   6.460 -0.2753  0.4981 -0.1536
  419MOL0     C57716  10.134   7.444   6.511  0.2214  0.5879 -0.4819
  419MOL0     C57717  10.170   7.457   6.643 -0.6901  0.5539 -0.8789
  419MOL0     C57718  10.299   7.423   6.698  1.2802  0.2867 -0.3346
  419MOL0     C57719  10.395   7.367   6.608  0.1341 -0.8528 -0.4348
  419MOL0     O57720  10.527   7.348   6.642 -0.2299 -0.2029 -0.2185
  419MOL0     C57721  10.593   7.395   6.764 -0.7401  0.0859 -0.5010
  419MOL0     C57722  10.746   7.369   6.752  0.5188  0.2512 -0.1039
  419MOL0     C57723  10.817   7.396   6.882  0.5464  0.5150  0.4378
  419MOL0     C57724  10.978   7.360   6.872 -0.0382 -0.2622  0.3435
  419MOL0     C57725  11.047   7.362   7.007 -0.5167  0.0533  0.2100
  419MOL0     C57726  11.193   7.329   6.980  0.2307 -0.5623  0.5742
  419MOL0     C57727  11.266   7.320   7.111  0.1731  0.3160  0.6369
  419MOL0     C57728  11.413   7.358   7.094  0.0490  0.2063 -0.4928
  419MOL0    Cl57729  11.420   7.543   7.068  0.3432 -0.0118 -0.1429
  419MOL0     C57730  10.358   7.343   6.470  0.5766 -0.2736 -0.0179
  419MOL0     C57731  10.231   7.388   6.437 -0.9757 -0.3450  0.1979
  419MOL0     O57732   9.953   7.641   6.606 -0.0174 -0.1478 -0.2160
  419MOL0     C57733   9.772   7.489   6.327  0.2783  0.1536 -0.1029
  419MOL0     C57734   9.649   7.486   6.255 -0.5352 -0.0592  0.2283
  419MOL0     N57735   9.312   8.079   6.172  0.9470 -0.1332  0.7597
  419MOL0     N57736   9.251   8.191   6.158 -0.3594 -0.5316 -0.1527
  419MOL0     C57737   8.710   8.894   6.600 -0.0414 -0.4654  0.6200
  419MOL0     C57738   8.595   8.940   6.665 -0.0318 -0.0218 -0.3830
  419MOL0     C57739   8.160   9.058   6.736  0.1509 -0.2385  0.5752
  419MOL0     C57740   8.111   9.191   6.723 -0.0165 -0.3971  0.4623
  419MOL0     C57741   7.979   9.218   6.751  0.0426 -0.2527 -0.1934
  419MOL0     C57742   7.875   9.120   6.767 -0.0498  0.0329 -0.0220
  419MOL0     O57743   7.738   9.151   6.770 -0.1115 -0.8104  0.3607
  419MOL0     C57744   7.690   9.284   6.741 -0.7730 -1.2192 -1.0995
  419MOL0     C57745   7.543   9.291   6.719 -0.0310  1.1139  0.0621
  419MOL0     C57746   7.489   9.430   6.709 -0.2489 -0.5414 -0.1144
  419MOL0     C57747   7.336   9.425   6.728 -0.5951  0.2124  0.6490
  419MOL0     C57748   7.280   9.541   6.794  0.0996  0.7743 -0.0313
  419MOL0     C57749   7.237   9.638   6.853  1.1583 -0.9368  0.4520
  419MOL0     C57750   7.926   8.987   6.771 -0.0643 -0.4172 -0.0758
  419MOL0     C57751   8.069   8.956   6.769  0.5096 -0.2499  1.3726
  419MOL0     C57752   8.109   8.810   6.790 -0.3674 -0.0914  0.6875
  419MOL0     H57753   8.361   8.724   6.566 -1.1106  0.9874  1.2056
  419MOL0     H57754   8.573   8.625   6.438 -2.2485  1.5128 -2.6083
  419MOL0     H57755   8.919   8.897   6.386 -0.0485  1.0488 -1.9730
  419MOL0     H57756   8.767   8.897   6.297  0.6951  1.6005 -0.0654
  419MOL0     H57757   8.826   8.706   6.160  0.2045  0.0665 -1.9200
  419MOL0     H57758   8.941   8.831   6.147  0.1421 -1.4390 -0.6429
  419MOL0     H57759   9.087   8.704   6.320 -2.7141 -0.1604  1.8631
  419MOL0     H57760   8.988   8.573   6.293  0.9363 -0.3615  2.1659
  419MOL0     H57761   9.161   8.718   6.090 -0.2045  0.0590 -0.8651
  419MOL0     H57762   9.167   8.552   6.151 -0.3904  0.3003  1.5876
  419MOL0     H57763   8.959   8.683   5.978 -2.3034  0.0297  2.3660
  419MOL0     H57764   8.939   8.521   6.034  2.0070 -1.4546  0.3274
  419MOL0     H57765   9.038   8.526   5.796 -1.4174  1.7524 -0.3750
  419MOL0     H57766   9.172   8.617   5.854  0.1483 -1.3560 -0.6804
  419MOL0     H57767   9.272   8.454   5.981  0.7306 -0.6192 -2.1431
  419MOL0     H57768   9.226   8.405   5.818 -3.1353  0.7515 -1.6056
  419MOL0     H57769   9.041   8.336   6.059  0.5412  2.4493  0.1132
  419MOL0     H57770   9.040   8.268   5.898  0.8869  2.6505 -1.2066
  419MOL0     H57771   9.175   8.044   5.872 -0.7297 -1.3850  1.4280
  419MOL0     H57772   9.433   7.854   6.094 -1.0748 -0.8441  0.1022
  419MOL0     H57773   9.371   7.850   5.937 -0.8714 -0.1921 -0.2791
  419MOL0     H57774   9.232   7.764   6.189 -1.0573 -2.1500  0.1694
  419MOL0     H57775   9.149   7.775   6.032 -1.0440  0.0821  1.4492
  419MOL0     H57776   9.206   7.539   6.064 -0.8600  0.6933 -1.1964
  419MOL0     H57777   9.286   7.618   5.935  1.2030 -1.9726 -0.2861
  419MOL0     H57778   9.429   7.461   6.063 -1.3217  0.8092 -2.8314
  419MOL0     H57779   9.495   7.620   6.046  2.0158 -1.5735  1.6047
  419MOL0     H57780   9.500   7.738   6.437  1.6873  1.8664 -1.2834
  419MOL0     H57781   9.707   7.707   6.695  2.0253 -1.1949  0.4515
  419MOL0     H57782   9.626   7.835   6.607 -0.5745 -1.7784  0.0998
  419MOL0     H57783   9.799   7.823   6.594  1.2459 -0.8963  1.9319
  419MOL0     H57784  10.104   7.476   6.728  0.0373  2.1801 -0.6331
  419MOL0     H57785  10.323   7.443   6.802  2.2047  2.7442 -0.9642
  419MOL0     H57786  10.570   7.500   6.787 -0.9215 -0.2831  1.1809
  419MOL0     H57787  10.545   7.340   6.846 -4.3326  2.9850 -0.3821
  419MOL0     H57788  10.754   7.264   6.722 -0.0090  0.8954 -2.7616
  419MOL0     H57789  10.794   7.423   6.670  1.3080 -0.9136 -0.4245
  419MOL0     H57790  10.790   7.330   6.966 -0.2399 -2.1743 -1.7754
  419MOL0     H57791  10.799   7.501   6.908  2.7930  1.1628 -0.3735
  419MOL0     H57792  11.021   7.436   6.806  0.7884 -2.8369 -2.2807
  419MOL0     H57793  11.005   7.269   6.817  0.0996  0.1843 -0.3437
  419MOL0     H57794  11.028   7.464   7.040 -4.4862 -0.2329 -0.6163
  419MOL0     H57795  11.003   7.295   7.081  0.5589 -0.5019  0.3616
  419MOL0     H57796  11.222   7.413   6.917  1.4471 -0.6921  0.9364
  419MOL0     H57797  11.215   7.240   6.920  0.6891 -0.7645  1.0325
  419MOL0     H57798  11.264   7.223   7.162  0.0936  1.1184  2.2477
  419MOL0     H57799  11.230   7.384   7.192  1.9654 -0.0566  1.7936
  419MOL0     H57800  11.444   7.294   7.011 -0.9827  0.8442 -1.3932
  419MOL0     H57801  11.462   7.334   7.189 -5.0836 -3.3718  1.7085
  419MOL0     H57802  10.433   7.309   6.400  0.1766  2.6400 -2.0711
  419MOL0     H57803  10.205   7.369   6.333 -2.6017  0.8868  0.3386
  419MOL0     H57804   9.854   7.422   6.304  2.2565  2.3233  0.2528
  419MOL0     H57805   9.618   7.414   6.179  0.5769  1.9709 -2.2995
  419MOL0     H57806   8.811   8.933   6.606  0.5825 -1.9064  0.0727
  419MOL0     H57807   8.603   9.030   6.725  1.0974  0.2021 -0.8527
  419MOL0     H57808   8.176   9.275   6.702 -2.4384  1.9199  1.6971
  419MOL0     H57809   7.961   9.322   6.730  2.1149  0.5628  1.6585
  419MOL0     H57810   7.717   9.352   6.822 -0.5149 -2.4317 -0.1243
  419MOL0     H57811   7.733   9.324   6.649  0.3894  1.4708  0.4943
  419MOL0     H57812   7.488   9.241   6.799 -0.3307  0.6146 -0.4500
  419MOL0     H57813   7.526   9.242   6.623  0.6296 -0.2546  0.6107
  419MOL0     H57814   7.542   9.494   6.780 -1.3071  1.4230 -1.0182
  419MOL0     H57815   7.509   9.473   6.611  0.1406 -2.8077 -1.0753
  419MOL0     H57816   7.312   9.337   6.788  3.7022 -1.2656  0.5225
  419MOL0     H57817   7.292   9.404   6.630 -0.4394  0.3357  0.5519
  419MOL0     H57818   7.214   9.728   6.907 -1.7195 -0.1372 -1.8693
  419MOL0     H57819   7.855   8.910   6.800 -1.3058 -0.7656 -3.4835
  419MOL0     H57820   8.023   8.757   6.832  0.0480 -0.0557  1.6061
  419MOL0     H57821   8.138   8.761   6.696 -0.5907  0.2475  0.4422
  419MOL0     H57822   8.188   8.797   6.864 -2.0261  0.4259  2.6256
  420MOL0     O57823   5.256   1.024   0.073 -0.5178 -0.1334  0.2453
  420MOL0     C57824   5.158   0.950   0.087 -0.5747 -0.7153  0.3198
  420MOL0     O57825   5.153   0.852   0.179 -0.1670  0.0842  0.4757
  420MOL0     C57826   5.264   0.807   0.246  0.6467 -0.3905 -0.3032
  420MOL0     C57827   5.247   0.784   0.382 -0.0402  0.2808 -0.1998
  420MOL0     C57828   5.351   0.748   0.464 -0.4736  0.1479  0.4926
  420MOL0     C57829   5.478   0.723   0.410 -0.2352  0.2512  0.6289
  420MOL0     O57830   5.585   0.694   0.486  0.2586 -0.5848 -0.0773
  420MOL0     C57831   5.592   0.768   0.612  0.4640 -0.7657 -0.3273
  420MOL0     C57832   5.735   0.761   0.657  0.2042  0.1010  0.7555
  420MOL0     C57833   5.780   0.630   0.714  0.0340  0.1149  0.3298
  420MOL0     C57834   5.920   0.643   0.763 -1.1551 -0.2091  0.1673
  420MOL0     C57835   5.977   0.527   0.849 -1.3870  0.3861  0.0003
  420MOL0     C57836   5.967   0.389   0.781 -0.3993 -0.5924  0.7562
  420MOL0     C57837   6.058   0.288   0.846 -0.0115  0.0192 -0.3154
  420MOL0     C57838   6.079   0.169   0.757  0.0203  0.3515 -0.5878
  420MOL0     N57839   6.138   0.052   0.827 -0.1995 -0.4224  0.4077
  420MOL0     C57840   6.267   0.007   0.826 -0.4674  0.3967  0.4030
  420MOL0     C57841   6.272  -0.109   0.898  1.8711  0.5453 -0.3027
  420MOL0     C57842   6.411  -0.161   0.937 -0.5523  0.1913 -0.2509
  420MOL0     C57843   6.406  -0.297   1.010  0.0666 -0.3968 -0.1908
  420MOL0     C57844   6.536  -0.336   1.089 -0.3662  0.2477 -0.4358
  420MOL0     C57845   6.667  -0.336   1.012  0.0750 -0.5520 -0.0514
  420MOL0     O57846   6.680  -0.430   0.908 -0.1383  0.6961  0.1027
  420MOL0     C57847   6.817  -0.425   0.854  0.6393 -0.0009  0.6083
  420MOL0     C57848   6.931  -0.385   0.927  0.2331  0.3547  0.3800
  420MOL0     C57849   7.060  -0.373   0.878  0.2261  0.1288  0.0798
  420MOL0     C57850   7.172  -0.338   0.971  0.1083 -0.4747  0.3762
  420MOL0     C57851   7.078  -0.414   0.741  0.3391  0.0710  0.1248
  420MOL0     C57852   7.209  -0.411   0.665 -0.2783  1.1119 -0.8168
  420MOL0     O57853   7.325  -0.437   0.730 -0.0583 -0.7758 -0.4529
  420MOL0     C57854   7.434  -0.458   0.663  0.3452 -0.2426  0.1960
  420MOL0     C57855   7.502  -0.341   0.624  0.7730  0.8053 -0.8106
  420MOL0     C57856   7.625  -0.346   0.570 -0.9220  0.6235 -0.0584
  420MOL0     C57857   7.676  -0.473   0.529  0.2966  0.3523  0.2825
  420MOL0     O57858   7.789  -0.485   0.453  0.0406  0.3641  0.4440
  420MOL0     C57859   7.903  -0.414   0.495 -0.1814  0.0769 -0.3667
  420MOL0     C57860   8.023  -0.466   0.413 -0.1299  0.1729 -0.2216
  420MOL0     C57861   8.156  -0.387   0.436  1.3958 -0.6909  0.2055
  420MOL0     C57862   8.276  -0.437   0.363  1.2591  0.1525 -0.3129
  420MOL0     C57863   8.394  -0.361   0.401  0.4865  0.5339 -1.1011
  420MOL0     C57864   8.504  -0.411   0.314  0.2002 -0.1941  1.0071
  420MOL0     C57865   8.642  -0.353   0.363 -0.5215  0.1388 -0.1083
  420MOL0     C57866   8.754  -0.439   0.301  0.2772  0.5679  0.3296
  420MOL0    Cl57867   8.754  -0.416   0.122 -0.3483  0.2104 -0.7877
  420MOL0     C57868   7.607  -0.588   0.553  0.8070 -0.1343 -0.0219
  420MOL0     C57869   7.492  -0.580   0.630  0.0930  0.2468  0.1047
  420MOL0     O57870   7.204  -0.414   0.546  0.8088 -0.2693 -0.0053
  420MOL0     C57871   6.963  -0.454   0.661 -0.2379  0.9897 -0.6126
  420MOL0     C57872   6.836  -0.459   0.718  0.3871  0.5463  0.5129
  420MOL0     N57873   6.140  -0.131   0.945 -0.1376 -0.1058 -0.3590
  420MOL0     N57874   6.063  -0.039   0.891  0.3189 -0.4457  0.7552
  420MOL0     C57875   5.501   0.741   0.268 -0.4779 -0.2131 -0.5117
  420MOL0     C57876   5.392   0.789   0.190  0.3931  0.7008  0.0664
  420MOL0     C57877   5.036   0.978   0.008  0.9512 -1.0135  0.2483
  420MOL0     C57878   5.045   1.088  -0.083  0.7313  0.3107 -0.0199
  420MOL0     C57879   4.930   1.128  -0.157 -0.7212  0.5018  0.8224
  420MOL0     C57880   4.811   1.054  -0.143 -0.3362  0.1259  0.0510
  420MOL0     O57881   4.706   1.088  -0.221  0.1876  0.1951  0.9220
  420MOL0     C57882   4.602   0.995  -0.245  0.2252  0.9040  0.3149
  420MOL0     C57883   4.492   1.012  -0.132 -0.0144  0.2285 -0.2438
  420MOL0     C57884   4.404   0.889  -0.137  0.9649  0.4131  0.9302
  420MOL0     C57885   4.291   0.895  -0.037  0.4795  0.3097  0.0180
  420MOL0     C57886   4.212   1.012  -0.062  0.5409 -0.0123 -0.9830
  420MOL0     C57887   4.135   1.108  -0.082 -0.3664  0.1219  0.7620
  420MOL0     C57888   4.807   0.947  -0.056  0.0613  0.6479  0.8896
  420MOL0     C57889   4.917   0.910   0.027  0.3849  0.6999 -0.4601
  420MOL0     C57890   4.894   0.791   0.127 -0.0759 -0.7257 -0.0716
  420MOL0     H57891   5.147   0.800   0.423 -0.3600 -3.5801  0.9070
  420MOL0     H57892   5.323   0.769   0.567 -1.7154 -0.3001  0.2694
  420MOL0     H57893   5.529   0.722   0.688  1.4139 -3.1410 -0.8775
  420MOL0     H57894   5.565   0.871   0.585 -0.7823 -1.0439 -0.1882
  420MOL0     H57895   5.786   0.788   0.564 -1.2056 -0.0720 -0.0955
  420MOL0     H57896   5.761   0.843   0.724 -1.5486 -0.6725  2.5003
  420MOL0     H57897   5.715   0.599   0.796 -0.7123 -0.0892 -0.3272
  420MOL0     H57898   5.782   0.544   0.647  0.8896 -0.0408  0.5371
  420MOL0     H57899   5.982   0.663   0.676 -0.7588 -1.0003  0.2568
  420MOL0     H57900   5.917   0.729   0.831 -0.1710 -1.2079  1.5243
  420MOL0     H57901   5.925   0.527   0.945  1.8808  3.5467  2.0292
  420MOL0     H57902   6.080   0.547   0.877 -1.2967  2.1913 -1.4260
  420MOL0     H57903   5.865   0.354   0.800 -0.0630 -1.0386  1.8552
  420MOL0     H57904   5.978   0.393   0.672 -1.9697 -0.4391  0.5896
  420MOL0     H57905   6.003   0.277   0.939 -1.2198  0.4093 -0.9646
  420MOL0     H57906   6.158   0.328   0.863  0.2472 -0.3777 -0.8413
  420MOL0     H57907   5.982   0.136   0.719 -1.1198  2.0401  0.7205
  420MOL0     H57908   6.139   0.209   0.674  0.4492  1.8021  0.3832
  420MOL0     H57909   6.353   0.056   0.782 -0.5740 -1.5404 -2.2740
  420MOL0     H57910   6.463  -0.084   0.995 -0.3221 -0.3066  0.2163
  420MOL0     H57911   6.472  -0.166   0.847  0.0661 -1.6118  0.2141
  420MOL0     H57912   6.322  -0.301   1.080  0.8298  1.2474  0.8792
  420MOL0     H57913   6.384  -0.372   0.934 -0.3083 -0.7791  0.2912
  420MOL0     H57914   6.554  -0.262   1.168 -1.5565 -0.0024  0.1017
  420MOL0     H57915   6.521  -0.436   1.130  1.2929 -0.0489 -0.4746
  420MOL0     H57916   6.695  -0.236   0.978  1.9052 -0.1951  2.2782
  420MOL0     H57917   6.742  -0.372   1.083  0.6122  0.5112 -0.0666
  420MOL0     H57918   6.929  -0.334   1.022  2.3736  0.0412  0.6424
  420MOL0     H57919   7.165  -0.385   1.069  0.0773 -0.9808  0.1360
  420MOL0     H57920   7.166  -0.233   1.000  0.5469 -1.1059  2.9621
  420MOL0     H57921   7.274  -0.359   0.939 -0.4176 -1.5031 -0.7066
  420MOL0     H57922   7.471  -0.239   0.644 -2.8064 -0.4437  0.9139
  420MOL0     H57923   7.669  -0.252   0.538 -2.3263  1.9224  1.6393
  420MOL0     H57924   7.900  -0.305   0.485 -1.5137  0.2734  1.5311
  420MOL0     H57925   7.914  -0.443   0.600 -2.3901 -0.7060 -0.3029
  420MOL0     H57926   8.038  -0.567   0.451 -1.6067  0.0515  0.1002
  420MOL0     H57927   8.000  -0.473   0.307 -1.9860 -3.9047  0.2642
  420MOL0     H57928   8.192  -0.394   0.539  0.0147 -0.2883  0.7457
  420MOL0     H57929   8.143  -0.278   0.425 -0.2943 -0.6402  2.1453
  420MOL0     H57930   8.264  -0.422   0.255  0.2224  1.7784  0.0007
  420MOL0     H57931   8.283  -0.545   0.381 -0.7120  0.0182 -0.0933
  420MOL0     H57932   8.381  -0.253   0.388 -1.4008  0.4682 -0.0655
  420MOL0     H57933   8.433  -0.385   0.500 -0.7744 -0.4074 -0.8060
  420MOL0     H57934   8.495  -0.379   0.210  0.2118  1.5790  1.5292
  420MOL0     H57935   8.512  -0.520   0.305 -1.5740 -0.1650 -2.9289
  420MOL0     H57936   8.647  -0.354   0.472 -0.3360 -4.8345  0.0684
  420MOL0     H57937   8.656  -0.250   0.329  0.9672 -0.1276 -0.3353
  420MOL0     H57938   8.744  -0.543   0.332  1.0378 -0.3827 -2.3779
  420MOL0     H57939   8.852  -0.409   0.338 -0.9957  1.8872  2.9530
  420MOL0     H57940   7.636  -0.686   0.518  1.6282  0.5549 -1.3427
  420MOL0     H57941   7.436  -0.670   0.653 -0.7506  0.2677 -1.6529
  420MOL0     H57942   6.979  -0.482   0.557  0.3805  0.7284 -0.4563
  420MOL0     H57943   6.744  -0.490   0.670 -0.5630 -0.3521  2.7656
  420MOL0     H57944   5.598   0.715   0.227 -0.5859 -1.3814 -0.0444
  420MOL0     H57945   5.413   0.810   0.086  0.1172 -1.6361 -0.5196
  420MOL0     H57946   5.136   1.146  -0.094  0.2739  0.9545 -0.4873
  420MOL0     H57947   4.928   1.219  -0.215  3.8281  0.2544 -0.0816
  420MOL0     H57948   4.565   1.022  -0.345 -1.8455  0.6505  0.9595
  420MOL0     H57949   4.636   0.891  -0.250 -1.6655  0.1717  1.5140
  420MOL0     H57950   4.442   1.104  -0.165 -2.2412 -1.6194 -2.5171
  420MOL0     H57951   4.532   1.009  -0.031 -0.1145  1.9126 -0.1370
  420MOL0     H57952   4.364   0.886  -0.239  1.8227  1.8654  0.5209
  420MOL0     H57953   4.450   0.793  -0.112 -0.8308 -0.4378  1.1339
  420MOL0     H57954   4.335   0.890   0.063 -2.2920 -0.3137  1.3216
  420MOL0     H57955   4.222   0.811  -0.049 -0.0123  0.3859  1.9827
  420MOL0     H57956   4.070   1.192  -0.072  2.3017  2.2697  1.2765
  420MOL0     H57957   4.712   0.895  -0.052  0.4643 -0.2356 -0.3741
  420MOL0     H57958   4.795   0.748   0.143  0.7472 -2.8145 -0.2885
  420MOL0     H57959   4.958   0.708   0.098  0.6694 -0.4165  0.6531
  420MOL0     H57960   4.937   0.819   0.224  0.5316 -2.3422  0.1443
  421MOL0     O57961   7.682   4.849   7.795 -0.4760 -0.0122 -0.4766
  421MOL0     C57962   7.596   4.837   7.706 -0.8722  0.0524 -0.8396
  421MOL0     O57963   7.619   4.854   7.575  0.1851  0.2546  0.5369
  421MOL0     C57964   7.743   4.892   7.530  0.2122 -0.5458 -0.0415
  421MOL0     C57965   7.829   4.788   7.500  1.0198  0.0139  0.2669
  421MOL0     C57966   7.955   4.822   7.445  0.1133  0.4225 -0.5356
  421MOL0     C57967   7.985   4.954   7.413  0.7873 -0.6373 -0.0175
  421MOL0     O57968   8.103   4.974   7.354 -0.4609  0.1240  0.1033
  421MOL0     C57969   8.146   5.109   7.349  0.0594 -0.4512 -0.2807
  421MOL0     C57970   8.294   5.111   7.319  0.2960 -0.5450 -0.2556
  421MOL0     C57971   8.339   5.254   7.335  0.5905 -0.3178  0.3934
  421MOL0     C57972   8.487   5.294   7.301 -0.1099  0.1997 -1.4997
  421MOL0     C57973   8.585   5.271   7.424  0.0309  0.7069  0.1536
  421MOL0     C57974   8.732   5.265   7.370 -0.3928  0.0825  0.6744
  421MOL0     C57975   8.833   5.259   7.481  0.1953 -0.0367  0.0146
  421MOL0     C57976   8.841   5.129   7.546 -1.1424 -0.2262 -0.6404
  421MOL0     N57977   8.908   5.026   7.466 -0.7675 -0.3320  0.1580
  421MOL0     C57978   9.038   5.024   7.431 -0.7261 -0.5302  1.0816
  421MOL0     C57979   9.057   4.904   7.367 -0.2536 -0.6528 -0.8951
  421MOL0     C57980   9.203   4.860   7.338  0.3512  0.8815 -0.4923
  421MOL0     C57981   9.222   4.723   7.415 -0.3229  0.2121 -0.2525
  421MOL0     C57982   9.363   4.676   7.405 -0.9020 -0.1096 -0.0162
  421MOL0     C57983   9.393   4.546   7.490  0.9829 -0.3563 -0.4380
  421MOL0     O57984   9.531   4.505   7.484  0.1899 -0.2935  0.3128
  421MOL0     C57985   9.571   4.393   7.551  0.0039  0.3156 -0.3137
  421MOL0     C57986   9.508   4.330   7.661  0.0900  0.5623  0.0124
  421MOL0     C57987   9.576   4.228   7.734 -0.2922  0.3156 -0.3161
  421MOL0     C57988   9.518   4.186   7.863 -0.0851  1.1047 -0.0676
  421MOL0     C57989   9.700   4.175   7.685  0.0482 -0.7006  1.1563
  421MOL0     C57990   9.782   4.067   7.746  0.1608  0.6853  0.2293
  421MOL0     O57991   9.776   4.049   7.876 -0.0768  0.1265 -0.4136
  421MOL0     C57992   9.856   3.949   7.936  0.6316  0.2514  0.3799
  421MOL0     C57993   9.975   4.003   7.990 -0.2237 -0.2272  0.7210
  421MOL0     C57994  10.068   3.914   8.046  1.2089  0.4692 -0.1584
  421MOL0     C57995  10.039   3.777   8.052  0.3612 -0.5969  1.2525
  421MOL0     O57996  10.126   3.690   8.103 -0.4068 -0.2641  0.3550
  421MOL0     C57997  10.097   3.663   8.239  0.7485  0.0626  0.5080
  421MOL0     C57998  10.219   3.684   8.322 -0.4094 -0.4191 -0.1494
  421MOL0     C57999  10.337   3.592   8.302  0.4081  0.0239 -0.6823
  421MOL0     C58000  10.459   3.644   8.381  0.0582  0.4150  0.0701
  421MOL0     C58001  10.576   3.546   8.370 -0.4519 -0.1801  0.1273
  421MOL0     C58002  10.711   3.614   8.416 -0.2853  0.1414 -0.4455
  421MOL0     C58003  10.833   3.514   8.406 -0.8251 -0.8214 -0.0998
  421MOL0     C58004  10.954   3.586   8.470  0.4068 -0.2444  0.6923
  421MOL0    Cl58005  11.025   3.702   8.351  0.2096  0.1443  0.5949
  421MOL0     C58006   9.909   3.742   8.004 -1.2138  0.3675 -0.0618
  421MOL0     C58007   9.817   3.823   7.946  0.3801  0.1512 -0.2530
  421MOL0     O58008   9.845   3.992   7.672  0.5095 -0.0537 -0.0510
  421MOL0     C58009   9.755   4.233   7.561 -0.7532 -0.6310 -0.7159
  421MOL0     C58010   9.684   4.337   7.495 -0.7034 -0.1051 -0.4052
  421MOL0     N58011   8.935   4.828   7.366 -0.2573  0.2880  0.6007
  421MOL0     N58012   8.850   4.912   7.424 -0.4290 -0.2131 -0.7233
  421MOL0     C58013   7.891   5.061   7.444 -0.2250  0.8485 -0.3524
  421MOL0     C58014   7.769   5.028   7.506  0.0571  1.2275 -0.0024
  421MOL0     C58015   7.462   4.793   7.748 -0.7186  0.6465 -0.3603
  421MOL0     C58016   7.453   4.683   7.842  0.5171 -0.2396 -0.6191
  421MOL0     C58017   7.328   4.661   7.902  0.3893  0.3477  0.2267
  421MOL0     C58018   7.213   4.746   7.876 -0.6005  0.4048  0.2503
  421MOL0     O58019   7.106   4.727   7.962 -0.1921 -0.9428  0.3142
  421MOL0     C58020   7.051   4.850   8.023  0.5278 -0.2472 -0.5118
  421MOL0     C58021   6.935   4.807   8.108 -0.3600 -0.6663  0.2206
  421MOL0     C58022   6.975   4.702   8.217  0.1727 -0.5288 -0.6925
  421MOL0     C58023   6.868   4.601   8.250 -0.1262 -0.5394  0.5958
  421MOL0     C58024   6.834   4.541   8.119  0.6453  0.4938 -0.0315
  421MOL0     C58025   6.814   4.481   8.012 -0.0119 -0.7721 -0.0563
  421MOL0     C58026   7.228   4.843   7.776 -0.3457  0.0611  0.5120
  421MOL0     C58027   7.349   4.864   7.711 -0.0191 -0.2831  0.0244
  421MOL0     C58028   7.353   4.965   7.595 -0.3896 -0.1888  0.1206
  421MOL0     H58029   7.797   4.685   7.513  0.7618  0.1320  0.5763
  421MOL0     H58030   8.029   4.751   7.410  0.2692 -0.5523  1.6085
  421MOL0     H58031   8.130   5.158   7.446  0.1553  1.0581 -1.0078
  421MOL0     H58032   8.093   5.159   7.268  3.2121  2.2842 -0.8479
  421MOL0     H58033   8.351   5.049   7.390  1.4412  0.4106 -0.3083
  421MOL0     H58034   8.308   5.066   7.220 -1.1805 -1.1886 -0.1880
  421MOL0     H58035   8.273   5.313   7.270  0.4475 -1.1100 -0.1937
  421MOL0     H58036   8.326   5.283   7.440  2.4124 -0.0445  0.5777
  421MOL0     H58037   8.523   5.242   7.212  0.7041 -2.5710  0.3107
  421MOL0     H58038   8.492   5.401   7.280 -4.2970  1.2367  1.4627
  421MOL0     H58039   8.566   5.179   7.480  0.9137  0.3107 -0.1812
  421MOL0     H58040   8.578   5.345   7.504  1.2642 -0.6096  1.5250
  421MOL0     H58041   8.749   5.189   7.293 -1.7830 -1.8925  2.2359
  421MOL0     H58042   8.743   5.363   7.321  4.1096 -0.6991 -0.3986
  421MOL0     H58043   8.811   5.336   7.556  1.0589  0.8400 -0.5994
  421MOL0     H58044   8.934   5.280   7.444  1.2180 -2.5647  1.1781
  421MOL0     H58045   8.895   5.140   7.641 -1.5774 -1.6696 -0.2000
  421MOL0     H58046   8.739   5.094   7.563 -1.0052 -1.4036 -2.0426
  421MOL0     H58047   9.107   5.106   7.445  0.0898 -1.1377  0.7061
  421MOL0     H58048   9.271   4.927   7.392  1.7943 -0.6742 -0.2751
  421MOL0     H58049   9.227   4.851   7.231 -2.8084  1.7832 -1.3877
  421MOL0     H58050   9.213   4.735   7.523  0.7972 -2.2474  0.1888
  421MOL0     H58051   9.161   4.639   7.383 -0.1611  0.6116 -1.6898
  421MOL0     H58052   9.389   4.645   7.304 -2.0010  2.5170 -1.2221
  421MOL0     H58053   9.422   4.765   7.431 -3.0507  1.5643 -0.5380
  421MOL0     H58054   9.364   4.567   7.594 -1.9682 -2.5930 -0.6594
  421MOL0     H58055   9.321   4.464   7.480  1.0249 -0.7630  1.9878
  421MOL0     H58056   9.427   4.385   7.707  1.3433  2.3863  0.1350
  421MOL0     H58057   9.431   4.250   7.879 -0.9786  0.4424 -1.9812
  421MOL0     H58058   9.589   4.206   7.944  0.3666 -3.4635  0.9680
  421MOL0     H58059   9.498   4.079   7.856  0.9807  0.9650 -1.3680
  421MOL0     H58060   9.995   4.108   7.972 -0.3096 -0.4890 -1.0887
  421MOL0     H58061  10.161   3.960   8.077  2.5710 -1.9686 -0.4250
  421MOL0     H58062  10.019   3.728   8.279 -0.9648 -0.2072 -2.1922
  421MOL0     H58063  10.055   3.562   8.251  1.1635 -0.0630  0.9517
  421MOL0     H58064  10.241   3.789   8.297  0.8726 -0.7506 -0.4851
  421MOL0     H58065  10.189   3.664   8.425 -1.3954  0.5375 -0.2229
  421MOL0     H58066  10.359   3.583   8.195 -2.2214  0.5319 -1.3376
  421MOL0     H58067  10.311   3.495   8.345 -0.2547  0.8559  0.8528
  421MOL0     H58068  10.434   3.655   8.487 -0.1677  0.0005  0.0649
  421MOL0     H58069  10.487   3.740   8.337 -3.4537  1.3315 -0.4802
  421MOL0     H58070  10.558   3.457   8.430  0.4863 -0.0334  0.6512
  421MOL0     H58071  10.584   3.510   8.267  0.0995 -2.6933  0.9887
  421MOL0     H58072  10.708   3.655   8.518  1.1950  0.0558 -0.3509
  421MOL0     H58073  10.734   3.702   8.356  0.6206  1.2209  1.3962
  421MOL0     H58074  10.864   3.493   8.304 -1.1880 -2.7585  0.1579
  421MOL0     H58075  10.810   3.421   8.459 -0.5623 -0.7875  0.0766
  421MOL0     H58076  11.022   3.502   8.486 -2.8167 -3.6185 -1.6201
  421MOL0     H58077  10.942   3.626   8.571  3.4204 -3.3745  2.4940
  421MOL0     H58078   9.886   3.638   8.026 -1.9082  0.5498  0.0937
  421MOL0     H58079   9.722   3.781   7.912  1.4098 -1.1116 -1.7321
  421MOL0     H58080   9.849   4.204   7.515 -1.4753 -1.9307 -1.4486
  421MOL0     H58081   9.725   4.389   7.409  1.7066  2.3648  2.0119
  421MOL0     H58082   7.898   5.165   7.414 -1.7277  1.5312  1.4426
  421MOL0     H58083   7.697   5.109   7.519 -0.9874  0.4777 -0.9900
  421MOL0     H58084   7.536   4.616   7.861  0.9045 -0.1818 -2.0159
  421MOL0     H58085   7.302   4.576   7.965  0.6690  0.3805  0.3890
  421MOL0     H58086   7.128   4.895   8.086  1.9531 -0.1429 -2.2396
  421MOL0     H58087   7.013   4.924   7.953 -3.4979 -0.1589  1.4774
  421MOL0     H58088   6.862   4.768   8.037  1.7841 -5.0325  0.0513
  421MOL0     H58089   6.898   4.900   8.151  0.6190 -1.1411  2.2432
  421MOL0     H58090   7.059   4.640   8.186 -0.9672 -1.7560 -1.4503
  421MOL0     H58091   7.005   4.747   8.312  0.1936 -1.6799 -0.1382
  421MOL0     H58092   6.788   4.653   8.303  0.4653  1.1982 -0.1641
  421MOL0     H58093   6.911   4.526   8.318  2.8445  1.9733  1.6947
  421MOL0     H58094   6.784   4.427   7.923  0.8637 -0.2401 -0.6840
  421MOL0     H58095   7.143   4.904   7.749 -1.5699 -0.4726  2.8335
  421MOL0     H58096   7.269   5.034   7.603  0.3960  0.7615  0.3402
  421MOL0     H58097   7.438   5.034   7.588 -1.4092  1.0851 -0.1418
  421MOL0     H58098   7.345   4.901   7.506  2.2649 -1.9529  1.0225
  422MOL0     O58099   4.907   1.329   5.078 -0.0955 -0.6487 -0.2227
  422MOL0     C58100   4.936   1.316   4.961  0.2374 -0.2796  0.0479
  422MOL0     O58101   4.859   1.253   4.865 -0.3195 -0.1648 -0.8478
  422MOL0     C58102   4.730   1.217   4.894 -1.0885 -0.2702 -0.9412
  422MOL0     C58103   4.676   1.105   4.831  0.2434  0.3607 -0.2945
  422MOL0     C58104   4.547   1.051   4.857 -0.8190 -0.2261 -0.3417
  422MOL0     C58105   4.468   1.123   4.942 -0.4550  0.1798 -0.3535
  422MOL0     O58106   4.352   1.061   4.978 -0.3075 -0.0171 -0.3017
  422MOL0     C58107   4.244   1.130   5.047 -0.9405 -0.6507  0.1342
  422MOL0     C58108   4.118   1.064   5.030  0.7585  0.6019  0.3413
  422MOL0     C58109   4.009   1.129   5.113  0.9061 -0.0146 -0.5761
  422MOL0     C58110   3.865   1.063   5.114 -0.4162 -0.4226  0.4805
  422MOL0     C58111   3.771   1.128   5.204 -0.2695 -0.0820 -0.5277
  422MOL0     C58112   3.635   1.058   5.234 -0.5468 -0.6023 -0.1928
  422MOL0     C58113   3.522   1.063   5.132 -0.7342  0.2400 -0.3086
  422MOL0     C58114   3.461   1.200   5.113  0.6116 -0.2890  0.3868
  422MOL0     N58115   3.354   1.201   5.019  0.6120  1.0553  1.0622
  422MOL0     C58116   3.360   1.246   4.888 -0.2356 -0.2790  0.3817
  422MOL0     C58117   3.237   1.254   4.849 -0.1084 -0.2088  0.6484
  422MOL0     C58118   3.193   1.309   4.702 -0.0630  0.0526  0.0219
  422MOL0     C58119   3.285   1.404   4.635  0.1681 -0.8987 -0.4670
  422MOL0     C58120   3.212   1.444   4.504  0.0860  0.0419 -0.4142
  422MOL0     C58121   3.308   1.522   4.414  0.0871  0.4739 -0.1252
  422MOL0     O58122   3.402   1.431   4.358  0.8545 -0.0918 -0.4106
  422MOL0     C58123   3.489   1.487   4.266  0.4573  0.4704  0.2539
  422MOL0     C58124   3.445   1.479   4.130 -0.1870  0.0787  0.5458
  422MOL0     C58125   3.533   1.519   4.025  0.4830 -0.7056 -0.9393
  422MOL0     C58126   3.484   1.524   3.882 -0.3869  0.4989 -0.8776
  422MOL0     C58127   3.664   1.573   4.059  0.3216  0.3254  0.1148
  422MOL0     C58128   3.767   1.628   3.960  0.5076 -0.0862 -0.0970
  422MOL0     O58129   3.790   1.557   3.843 -0.5636 -0.4094 -0.1052
  422MOL0     C58130   3.909   1.583   3.780  0.0761  1.1732  0.9794
  422MOL0     C58131   3.907   1.676   3.673  0.0117  0.1976  0.0327
  422MOL0     C58132   4.030   1.697   3.613 -1.0008  0.1465 -0.8147
  422MOL0     C58133   4.160   1.652   3.662 -0.4953  0.7174  1.0508
  422MOL0     O58134   4.287   1.685   3.614  0.2106 -0.1374  0.1784
  422MOL0     C58135   4.294   1.788   3.515  0.1081 -1.0302  1.1062
  422MOL0     C58136   4.438   1.806   3.474  0.3927 -0.8801 -0.2416
  422MOL0     C58137   4.468   1.946   3.421  0.4952 -0.7001  0.3457
  422MOL0     C58138   4.611   1.941   3.344 -0.2309  0.4091 -0.1104
  422MOL0     C58139   4.676   2.079   3.355  0.1172  0.4837  0.1569
  422MOL0     C58140   4.811   2.087   3.280  0.2823  0.1492 -0.2577
  422MOL0     C58141   4.893   2.213   3.297  0.1509 -1.0333 -0.1751
  422MOL0     C58142   5.040   2.194   3.274 -0.4423 -0.3424 -1.6057
  422MOL0    Cl58143   5.060   2.128   3.108  0.1927 -0.2728  0.1442
  422MOL0     C58144   4.152   1.569   3.774  0.1647  0.5905  0.0959
  422MOL0     C58145   4.028   1.526   3.830 -0.7454  0.3782 -0.7439
  422MOL0     O58146   3.811   1.737   3.993  0.3253  0.1367 -0.8590
  422MOL0     C58147   3.691   1.591   4.198 -0.7003  0.4443  0.4450
  422MOL0     C58148   3.617   1.539   4.301  0.4192  0.0310  0.6164
  422MOL0     N58149   3.149   1.200   4.937  0.1057  0.1842  0.4474
  422MOL0     N58150   3.218   1.162   5.046 -0.2079 -0.2854  0.3334
  422MOL0     C58151   4.506   1.251   4.981  0.4253  0.1562 -0.7678
  422MOL0     C58152   4.637   1.299   4.965 -0.3263  1.0979 -0.4603
  422MOL0     C58153   5.071   1.372   4.918 -0.5144  0.1529 -0.2973
  422MOL0     C58154   5.123   1.354   4.788  0.1362  0.0730 -0.1874
  422MOL0     C58155   5.243   1.398   4.741 -0.7811  0.1742  0.9394
  422MOL0     C58156   5.333   1.458   4.828  0.3029  0.4098  0.7122
  422MOL0     O58157   5.456   1.508   4.799  0.8112  0.0817  0.7991
  422MOL0     C58158   5.495   1.484   4.663 -0.0214 -0.8284  0.6446
  422MOL0     C58159   5.630   1.561   4.657 -0.0377  0.2134  0.4278
  422MOL0     C58160   5.744   1.498   4.734 -0.7552 -0.0070  0.6190
  422MOL0     C58161   5.827   1.624   4.779  0.3551  0.0665 -0.4931
  422MOL0     C58162   5.961   1.575   4.818 -0.3311 -0.4457 -0.3839
  422MOL0     C58163   6.071   1.534   4.854 -0.2635 -0.6381  1.1576
  422MOL0     C58164   5.295   1.486   4.959 -0.5417 -0.6185 -0.8814
  422MOL0     C58165   5.172   1.439   5.000  0.2922  0.1715  0.0792
  422MOL0     C58166   5.148   1.462   5.149 -0.1303 -0.2629  0.4036
  422MOL0     H58167   4.747   1.041   4.778  0.2245  1.5261 -1.8046
  422MOL0     H58168   4.525   0.950   4.824  0.4360 -0.3888 -0.7378
  422MOL0     H58169   4.241   1.230   5.002  1.3453  0.9180  3.0805
  422MOL0     H58170   4.271   1.165   5.147 -2.6863  1.7210 -0.1414
  422MOL0     H58171   4.093   1.070   4.924 -0.3426 -0.1081  0.5516
  422MOL0     H58172   4.119   0.956   5.049  2.0008 -0.3652 -4.1136
  422MOL0     H58173   4.041   1.136   5.218 -0.4950 -2.2864  0.0753
  422MOL0     H58174   4.003   1.230   5.073 -1.0643 -0.1510 -0.6937
  422MOL0     H58175   3.833   1.074   5.010 -0.2467 -0.8846  0.3750
  422MOL0     H58176   3.874   0.956   5.138  3.3618  0.0655  2.0102
  422MOL0     H58177   3.752   1.230   5.168 -0.0805  0.3733  0.6238
  422MOL0     H58178   3.820   1.144   5.301 -0.9875  0.3432 -0.2254
  422MOL0     H58179   3.646   0.953   5.263 -0.2230  0.3864  3.8086
  422MOL0     H58180   3.607   1.111   5.325  3.2917  2.7144 -0.6936
  422MOL0     H58181   3.443   0.993   5.161 -0.4412  0.3183  0.7379
  422MOL0     H58182   3.566   1.027   5.039 -0.2307 -1.3873  0.5200
  422MOL0     H58183   3.428   1.249   5.205 -1.2839 -0.8386  0.0490
  422MOL0     H58184   3.540   1.260   5.067  0.8585 -2.0556 -1.6552
  422MOL0     H58185   3.447   1.278   4.832 -1.6831  2.0356 -0.6725
  422MOL0     H58186   3.095   1.352   4.723  0.2564  1.2590 -0.8789
  422MOL0     H58187   3.180   1.222   4.636  0.6151 -1.9132  2.3368
  422MOL0     H58188   3.302   1.492   4.697  0.2638  0.7096 -2.6284
  422MOL0     H58189   3.379   1.351   4.618  1.3398  0.3260  1.7269
  422MOL0     H58190   3.182   1.348   4.462  1.6196 -1.5975  1.9266
  422MOL0     H58191   3.134   1.518   4.526 -0.4005 -0.8594  1.0537
  422MOL0     H58192   3.258   1.572   4.330 -0.0823  3.6453  1.7194
  422MOL0     H58193   3.353   1.604   4.469  0.1079  2.6574 -3.1574
  422MOL0     H58194   3.344   1.444   4.108 -0.8479  2.5581 -0.8006
  422MOL0     H58195   3.379   1.496   3.875 -0.7140 -0.0689  3.5677
  422MOL0     H58196   3.542   1.448   3.829  0.0064 -0.2106  0.5347
  422MOL0     H58197   3.513   1.622   3.841  2.9800  0.8325  1.8344
  422MOL0     H58198   3.816   1.730   3.646  0.6345  2.8204  2.6532
  422MOL0     H58199   4.027   1.764   3.528 -3.0245  1.1537 -0.0418
  422MOL0     H58200   4.235   1.765   3.427 -0.6551  1.8614  0.7494
  422MOL0     H58201   4.259   1.879   3.565  0.0151  0.0199 -0.7973
  422MOL0     H58202   4.506   1.791   3.559 -0.8855  0.3628  1.0632
  422MOL0     H58203   4.460   1.729   3.400  2.5516  1.0080 -1.7061
  422MOL0     H58204   4.472   2.026   3.496  0.2501 -0.8667  0.5367
  422MOL0     H58205   4.391   1.974   3.350  1.7976  0.2566 -0.7441
  422MOL0     H58206   4.594   1.914   3.239 -1.6089 -0.7068  0.3711
  422MOL0     H58207   4.671   1.863   3.392 -1.2691  0.8620  2.0465
  422MOL0     H58208   4.609   2.153   3.311 -2.0843 -2.2823 -1.4861
  422MOL0     H58209   4.696   2.110   3.458 -2.0418 -3.2502  1.9052
  422MOL0     H58210   4.793   2.066   3.174  1.6145  2.1402 -0.9256
  422MOL0     H58211   4.873   2.002   3.313  1.5520  1.0651 -0.2258
  422MOL0     H58212   4.888   2.240   3.403  2.0899  0.4465 -0.4118
  422MOL0     H58213   4.848   2.287   3.231  3.5751  2.4678  1.0399
  422MOL0     H58214   5.085   2.126   3.348  0.6052  2.3857  0.4563
  422MOL0     H58215   5.098   2.285   3.286 -2.2048  0.9071 -2.2009
  422MOL0     H58216   4.246   1.530   3.810  0.3677 -1.9815 -2.8664
  422MOL0     H58217   4.034   1.452   3.909  0.2207  2.5705  1.3752
  422MOL0     H58218   3.787   1.637   4.217  0.2304 -0.0851 -2.4545
  422MOL0     H58219   3.652   1.543   4.403 -1.0830  0.2842  1.1496
  422MOL0     H58220   4.452   1.316   5.049  1.1664  0.0696 -0.0761
  422MOL0     H58221   4.659   1.401   4.993  1.9420  0.2736  1.1213
  422MOL0     H58222   5.061   1.317   4.706  0.2711 -3.4388  1.1168
  422MOL0     H58223   5.252   1.380   4.634 -1.4412  1.6191  0.6105
  422MOL0     H58224   5.512   1.381   4.632  2.2970 -0.0201 -1.0382
  422MOL0     H58225   5.422   1.530   4.596  0.9534 -0.3452 -0.1156
  422MOL0     H58226   5.617   1.663   4.695  0.5773  0.0186  1.1944
  422MOL0     H58227   5.661   1.578   4.554 -0.6279 -0.0539  0.1987
  422MOL0     H58228   5.715   1.437   4.820  1.8054 -1.7156  0.3758
  422MOL0     H58229   5.800   1.430   4.670  2.3382 -0.1731  3.2666
  422MOL0     H58230   5.771   1.666   4.863  1.2729  1.4011 -0.5043
  422MOL0     H58231   5.827   1.699   4.699 -1.0148  1.3883  0.6812
  422MOL0     H58232   6.174   1.507   4.867 -0.1441  0.7633  3.7264
  422MOL0     H58233   5.369   1.540   5.017  0.6595  0.7892 -3.5312
  422MOL0     H58234   5.147   1.372   5.211 -0.4164  0.1016  0.9388
  422MOL0     H58235   5.233   1.517   5.192 -0.3304  2.3596 -2.2000
  422MOL0     H58236   5.056   1.519   5.167 -0.8929 -0.2601 -2.8132
  423MOL0     O58237   6.761  11.352   8.958  0.0183  0.1323  0.7709
  423MOL0     C58238   6.759  11.461   8.907 -0.2278 -0.4166 -0.8397
  423MOL0     O58239   6.862  11.538   8.888  0.5883 -0.4728 -0.2864
  423MOL0     C58240   6.993  11.497   8.905  0.2230  0.1482  0.5142
  423MOL0     C58241   7.046  11.367   8.902  0.5471  0.3565  0.1260
  423MOL0     C58242   7.179  11.340   8.941  0.0610  0.5277 -0.6158
  423MOL0     C58243   7.271  11.444   8.984  0.8795  0.4509  0.4208
  423MOL0     O58244   7.394  11.411   9.026 -0.2774  0.4010  0.8430
  423MOL0     C58245   7.498  11.510   9.052 -0.2245 -0.3716 -0.9540
  423MOL0     C58246   7.489  11.565   9.195 -0.1502 -0.0961 -0.0378
  423MOL0     C58247   7.434  11.471   9.301  0.0327  0.0889 -0.9080
  423MOL0     C58248   7.315  11.539   9.381  0.4369  0.2663 -0.5771
  423MOL0     C58249   7.346  11.617   9.507  0.1079  0.2023 -0.0375
  423MOL0     C58250   7.215  11.646   9.583  0.1650 -0.2336  0.2687
  423MOL0     C58251   7.246  11.692   9.721 -0.0860 -0.3726 -1.0128
  423MOL0     C58252   7.317  11.831   9.724 -0.7977  1.0075 -0.3643
  423MOL0     N58253   7.379  11.859   9.853 -0.1956  0.2774 -0.4397
  423MOL0     C58254   7.511  11.889   9.879 -0.0063 -0.4414  0.3335
  423MOL0     C58255   7.516  11.926  10.006 -0.0479  0.6827 -0.6775
  423MOL0     C58256   7.633  11.956  10.088 -0.0792  0.4278 -0.1176
  423MOL0     C58257   7.725  11.839  10.119  0.3303  0.2378  0.2288
  423MOL0     C58258   7.846  11.892  10.195 -0.3801 -0.2138 -0.0520
  423MOL0     C58259   7.940  11.986  10.122 -0.3388  0.0080 -0.3033
  423MOL0     O58260   8.053  12.002  10.209  0.4028  0.2116 -0.6173
  423MOL0     C58261   8.175  12.032  10.156  0.1908 -0.7912 -0.1194
  423MOL0     C58262   8.193  12.069  10.021  0.4628  0.0421  0.2275
  423MOL0     C58263   8.327  12.093   9.969  0.6210 -0.1218 -0.3941
  423MOL0     C58264   8.334  12.110   9.821  0.3295 -0.0199  1.0397
  423MOL0     C58265   8.435  12.102  10.053  0.1305  0.6010  0.4761
  423MOL0     C58266   8.571  12.156  10.018 -0.4255 -0.0618  0.2870
  423MOL0     O58267   8.662  12.134  10.107 -0.0922 -0.1255 -0.5005
  423MOL0     C58268   8.790  12.186  10.085 -0.3318  0.2145 -0.6206
  423MOL0     C58269   8.890  12.114  10.012  0.2334 -0.4920 -0.0374
  423MOL0     C58270   9.016  12.170   9.999 -0.3616 -0.5109 -0.2437
  423MOL0     C58271   9.042  12.303  10.034 -0.0003  0.0308  0.3384
  423MOL0     O58272   9.162  12.351  10.005 -0.2353 -0.0593  0.7371
  423MOL0     C58273   9.217  12.449  10.098 -0.0659 -1.1233  0.1171
  423MOL0     C58274   9.366  12.480  10.056 -0.1300 -0.0637  0.1142
  423MOL0     C58275   9.418  12.613  10.108  0.1723 -0.0467  0.6020
  423MOL0     C58276   9.562  12.657  10.059  0.1519 -0.1718 -0.2735
  423MOL0     C58277   9.597  12.803  10.091  1.5072  0.8400  0.2087
  423MOL0     C58278   9.625  12.822  10.239  0.1551 -0.5578  0.2279
  423MOL0     C58279   9.690  12.956  10.269 -0.4980  0.0439  0.2763
  423MOL0     C58280   9.845  12.956  10.253 -0.6079  0.0711 -0.0722
  423MOL0    Cl58281   9.919  12.866  10.382 -0.0559  0.1666 -0.1762
  423MOL0     C58282   8.942  12.371  10.101 -0.3847 -0.2996 -0.2942
  423MOL0     C58283   8.822  12.313  10.133 -0.3496 -0.9239  0.7319
  423MOL0     O58284   8.580  12.238   9.928  0.5594 -0.5307  0.3852
  423MOL0     C58285   8.416  12.057  10.194  0.2351  0.5813  0.6959
  423MOL0     C58286   8.288  12.031  10.243  0.5223  0.1762 -0.5997
  423MOL0     N58287   7.387  11.918  10.056  0.4626  0.3080  0.0162
  423MOL0     N58288   7.307  11.886   9.963  0.0247  0.1991 -0.0207
  423MOL0     C58289   7.211  11.571   8.989 -0.1235  0.4462  0.0676
  423MOL0     C58290   7.083  11.598   8.955 -0.4060  0.7977 -1.3204
  423MOL0     C58291   6.627  11.507   8.848  0.2619 -0.3346  0.0277
  423MOL0     C58292   6.632  11.599   8.744 -0.0424 -0.7465 -0.0455
  423MOL0     C58293   6.515  11.670   8.704 -0.7804  0.0245 -0.3317
  423MOL0     C58294   6.390  11.633   8.754  0.1732 -0.3860  0.4149
  423MOL0     O58295   6.276  11.712   8.712  0.0906 -0.2380  0.5419
  423MOL0     C58296   6.142  11.662   8.714 -0.5142  0.1626 -0.1735
  423MOL0     C58297   6.071  11.733   8.830 -0.0400 -1.1089  0.3397
  423MOL0     C58298   5.925  11.688   8.860 -0.7236  0.2892 -0.7066
  423MOL0     C58299   5.832  11.803   8.891  0.5938 -0.8612 -0.1512
  423MOL0     C58300   5.700  11.747   8.911 -0.7063  0.0938 -0.1415
  423MOL0     C58301   5.610  11.676   8.940 -0.0428 -0.6669 -0.2346
  423MOL0     C58302   6.389  11.540   8.861  0.2956  0.7123 -0.4210
  423MOL0     C58303   6.499  11.467   8.894  0.0478 -0.1690 -0.3358
  423MOL0     C58304   6.469  11.354   8.985  0.4066  0.0035  0.2754
  423MOL0     H58305   6.977  11.283   8.897  2.3542 -1.1471 -0.6714
  423MOL0     H58306   7.200  11.235   8.954 -0.0239  0.4377 -1.1788
  423MOL0     H58307   7.487  11.582   8.971  0.3788 -0.6510 -1.2901
  423MOL0     H58308   7.590  11.451   9.047 -0.3699 -0.5685 -1.2475
  423MOL0     H58309   7.587  11.596   9.233 -0.5145  0.0664  0.7916
  423MOL0     H58310   7.432  11.658   9.196 -0.9371 -0.5598 -0.6168
  423MOL0     H58311   7.395  11.379   9.259  1.9303 -2.0329  1.6114
  423MOL0     H58312   7.513  11.435   9.368  0.3553 -0.4899 -1.5866
  423MOL0     H58313   7.255  11.597   9.310 -3.4880 -1.9153  0.6441
  423MOL0     H58314   7.248  11.456   9.407 -1.7734  1.1993 -2.8900
  423MOL0     H58315   7.411  11.702   9.483  0.4992 -0.0493  0.1177
  423MOL0     H58316   7.402  11.554   9.577 -2.1691 -0.0454  1.6849
  423MOL0     H58317   7.143  11.707   9.529 -0.3502 -0.4291  0.7304
  423MOL0     H58318   7.177  11.544   9.600  2.7729 -1.5645 -1.1915
  423MOL0     H58319   7.307  11.620   9.776 -0.9122  0.6878  1.3977
  423MOL0     H58320   7.163  11.705   9.790  1.2658 -0.2819  0.6662
  423MOL0     H58321   7.406  11.814   9.663 -0.0703 -2.7471  1.4531
  423MOL0     H58322   7.252  11.914   9.695 -0.9833  1.2495  0.7000
  423MOL0     H58323   7.599  11.883   9.817  0.0209 -0.5991  0.3836
  423MOL0     H58324   7.607  11.994  10.187  0.8234  0.0369  0.2836
  423MOL0     H58325   7.677  12.042  10.035 -0.7777  2.2953  2.1487
  423MOL0     H58326   7.681  11.764  10.186  1.0049 -0.4928 -0.1231
  423MOL0     H58327   7.758  11.788  10.028 -0.6129 -1.0996  0.6083
  423MOL0     H58328   7.818  11.933  10.292  0.6459 -1.2360  0.6978
  423MOL0     H58329   7.912  11.806  10.212  0.2965  0.4871  0.9366
  423MOL0     H58330   7.968  11.955  10.021 -1.8445 -0.2705 -0.6591
  423MOL0     H58331   7.904  12.089  10.113 -0.7006  0.4864  4.2093
  423MOL0     H58332   8.113  12.074   9.948  0.5852  2.1492  0.1727
  423MOL0     H58333   8.308  12.213   9.797 -0.8884 -0.3963  0.6870
  423MOL0     H58334   8.260  12.045   9.774  0.4209  0.2756  0.4727
  423MOL0     H58335   8.425  12.083   9.766 -1.0426 -2.2131 -0.3295
  423MOL0     H58336   8.873  12.011   9.982 -1.2914 -1.1095  2.6574
  423MOL0     H58337   9.094  12.114   9.949  0.4332  1.8037 -1.7207
  423MOL0     H58338   9.152  12.537  10.103  1.0594  0.0802 -3.4375
  423MOL0     H58339   9.215  12.413  10.201  0.6860  1.4488  1.0935
  423MOL0     H58340   9.430  12.404  10.102  1.6916  1.2971 -0.0657
  423MOL0     H58341   9.369  12.470   9.947 -0.3440 -0.1486  0.1138
  423MOL0     H58342   9.426  12.593  10.215 -1.6851 -0.3954  0.7163
  423MOL0     H58343   9.342  12.692  10.106  1.2983  1.0616  0.6600
  423MOL0     H58344   9.568  12.620   9.957 -1.0334 -1.2441  0.0201
  423MOL0     H58345   9.633  12.592  10.111 -1.7507 -0.1599  2.5564
  423MOL0     H58346   9.684  12.817  10.026  1.6083 -0.1124  0.1311
  423MOL0     H58347   9.510  12.856  10.052 -0.3473 -1.9486  0.3125
  423MOL0     H58348   9.686  12.742  10.284  1.0058 -0.2894 -0.4234
  423MOL0     H58349   9.525  12.811  10.281  0.6526 -0.8409  1.3730
  423MOL0     H58350   9.659  12.975  10.372  2.1203 -0.5448  1.2468
  423MOL0     H58351   9.649  13.033  10.203 -0.4047 -1.6732 -1.9231
  423MOL0     H58352   9.886  13.057  10.259 -1.4441  0.5707 -2.0203
  423MOL0     H58353   9.873  12.918  10.155 -1.6826  4.3302 -2.2763
  423MOL0     H58354   8.946  12.472  10.140  0.5482  0.0993 -1.3498
  423MOL0     H58355   8.745  12.371  10.182  3.2858  1.3903  4.3352
  423MOL0     H58356   8.503  12.031  10.254 -0.1979 -2.6296  0.1429
  423MOL0     H58357   8.284  11.989  10.343  0.3760  3.4752  0.9303
  423MOL0     H58358   7.269  11.651   9.033 -1.6044  0.8320  1.4116
  423MOL0     H58359   7.046  11.697   8.978 -2.4135 -0.1461 -0.2621
  423MOL0     H58360   6.725  11.646   8.711  0.0450 -0.8135  0.1040
  423MOL0     H58361   6.517  11.748   8.628  2.1753 -1.0318 -1.5004
  423MOL0     H58362   6.099  11.695   8.619 -0.4651 -1.6842 -0.8909
  423MOL0     H58363   6.150  11.553   8.711 -2.5917 -0.0260 -2.9686
  423MOL0     H58364   6.073  11.836   8.792  1.8503 -2.1769 -2.8079
  423MOL0     H58365   6.131  11.733   8.922  0.0937  0.0735  0.2783
  423MOL0     H58366   5.886  11.631   8.776  0.1113 -1.0087 -0.2477
  423MOL0     H58367   5.922  11.620   8.945  0.1602  3.1489  1.8212
  423MOL0     H58368   5.817  11.875   8.810 -0.0051 -0.9273 -0.1024
  423MOL0     H58369   5.874  11.849   8.981 -0.4528 -0.3076  0.0755
  423MOL0     H58370   5.527  11.610   8.951 -1.4678  0.9613 -0.8227
  423MOL0     H58371   6.293  11.511   8.902  0.9061  0.0835  0.5995
  423MOL0     H58372   6.499  11.368   9.089 -3.2591 -0.2704  1.4893
  423MOL0     H58373   6.362  11.335   8.999  0.6996  0.2470  3.6063
  423MOL0     H58374   6.515  11.263   8.945 -0.9816 -0.6375  0.0987
  424MOL0     O58375   7.780   6.988   3.730  0.7919 -0.4936 -0.0594
  424MOL0     C58376   7.805   7.083   3.656  0.4210 -0.7530  0.1075
  424MOL0     O58377   7.731   7.200   3.635 -0.1838  0.3162 -0.0364
  424MOL0     C58378   7.624   7.210   3.720 -0.0224 -0.3203 -0.0099
  424MOL0     C58379   7.652   7.229   3.855  0.4756 -0.3340 -0.0159
  424MOL0     C58380   7.548   7.232   3.948  0.3602 -0.1131 -0.2567
  424MOL0     C58381   7.417   7.212   3.914  1.8693 -0.2722 -0.3294
  424MOL0     O58382   7.312   7.234   4.005  0.7549  0.3496  0.4267
  424MOL0     C58383   7.276   7.137   4.106 -0.4584  0.1164  0.5516
  424MOL0     C58384   7.208   7.017   4.043 -0.9043  0.0846 -0.6475
  424MOL0     C58385   7.070   7.053   3.979 -0.7479  0.4502 -0.2880
  424MOL0     C58386   6.986   6.935   3.964  0.4715 -0.3984  0.5908
  424MOL0     C58387   6.840   6.974   3.911 -0.2645 -0.7713  0.0403
  424MOL0     C58388   6.748   6.857   3.915  0.4468 -0.7326  1.2167
  424MOL0     C58389   6.630   6.877   3.818  0.9014 -0.3244  0.3740
  424MOL0     C58390   6.559   6.748   3.775 -0.5149 -0.2718 -0.6671
  424MOL0     N58391   6.642   6.652   3.699  0.3338 -0.5840 -0.0872
  424MOL0     C58392   6.691   6.668   3.575 -0.3677  0.0297  0.0199
  424MOL0     C58393   6.745   6.550   3.546 -0.0803  0.4778  0.1643
  424MOL0     C58394   6.819   6.523   3.417  0.3169 -0.5986 -0.7506
  424MOL0     C58395   6.814   6.374   3.370  0.4845  0.3314  0.0551
  424MOL0     C58396   6.947   6.310   3.412 -0.1688 -0.8259 -0.2596
  424MOL0     C58397   6.946   6.158   3.365  0.5442  0.4442  0.0086
  424MOL0     O58398   7.038   6.085   3.446  0.2282 -0.2774 -0.1115
  424MOL0     C58399   7.172   6.111   3.430  0.1521 -0.8949 -0.0221
  424MOL0     C58400   7.248   6.098   3.542  0.1712 -0.1216  0.5865
  424MOL0     C58401   7.387   6.091   3.535  0.3467  0.2052 -0.3421
  424MOL0     C58402   7.456   6.052   3.667  0.0520  0.1664 -0.0781
  424MOL0     C58403   7.452   6.090   3.410  0.1696  0.6908 -0.3555
  424MOL0     C58404   7.589   6.070   3.380  0.5545 -0.0018  0.3002
  424MOL0     O58405   7.612   6.000   3.265 -0.2258 -0.0275  0.2143
  424MOL0     C58406   7.721   5.922   3.252 -0.1443  1.0689 -0.2536
  424MOL0     C58407   7.771   5.852   3.358  0.1136  0.6556  0.5847
  424MOL0     C58408   7.875   5.764   3.345 -0.3717  0.5785 -1.0475
  424MOL0     C58409   7.920   5.736   3.220  0.0745 -0.0870  0.9380
  424MOL0     O58410   8.008   5.632   3.215 -0.0764  0.3765 -0.2677
  424MOL0     C58411   8.020   5.540   3.095  0.0619  0.5575 -0.1603
  424MOL0     C58412   8.126   5.424   3.127  1.0253  0.3248 -0.3446
  424MOL0     C58413   8.127   5.330   3.003  0.0555  0.3159 -0.1905
  424MOL0     C58414   8.256   5.249   2.993  0.1693  0.5556  0.0213
  424MOL0     C58415   8.246   5.138   3.098 -0.2995  0.1382  0.3741
  424MOL0     C58416   8.361   5.044   3.091 -0.7029  0.7026  0.1449
  424MOL0     C58417   8.484   5.102   3.174 -0.4062 -0.8407  1.5204
  424MOL0     C58418   8.576   4.981   3.207 -0.6173 -0.0863  0.1741
  424MOL0    Cl58419   8.710   5.046   3.310 -0.1307 -0.3831 -0.4074
  424MOL0     C58420   7.885   5.824   3.112  0.1772  0.4380  0.2262
  424MOL0     C58421   7.774   5.911   3.123  0.0762 -0.0368 -0.1147
  424MOL0     O58422   7.678   6.114   3.459  0.7251  0.3515  0.3167
  424MOL0     C58423   7.367   6.114   3.298 -0.6074  0.1899  0.2434
  424MOL0     C58424   7.226   6.128   3.307 -0.1474 -0.7123  0.6868
  424MOL0     N58425   6.745   6.473   3.663 -0.6968  0.5841 -0.2659
  424MOL0     N58426   6.679   6.530   3.755  0.2438 -0.0083  0.8635
  424MOL0     C58427   7.386   7.188   3.778 -0.2948  0.5114 -1.4183
  424MOL0     C58428   7.488   7.191   3.686 -0.4914  0.4587  0.3433
  424MOL0     C58429   7.903   7.060   3.558  0.4293 -0.3940 -0.0604
  424MOL0     C58430   8.036   7.024   3.594  0.2348  0.6191  0.2032
  424MOL0     C58431   8.139   7.014   3.502  0.0268  0.1768 -0.8304
  424MOL0     C58432   8.114   7.027   3.368 -0.5192 -0.1407 -0.7736
  424MOL0     O58433   8.221   6.989   3.288  0.8157  0.8017  0.5083
  424MOL0     C58434   8.227   7.034   3.152  0.7107 -0.1844 -0.8332
  424MOL0     C58435   8.361   6.996   3.085  0.2736 -0.5352 -0.2919
  424MOL0     C58436   8.469   7.093   3.138  0.2965 -0.1184  0.6159
  424MOL0     C58437   8.549   7.031   3.247  0.1961 -0.6629 -0.1622
  424MOL0     C58438   8.654   6.946   3.189  0.1689 -0.0633  0.7510
  424MOL0     C58439   8.744   6.884   3.145 -0.3149  0.3177  0.3251
  424MOL0     C58440   7.990   7.068   3.325  0.5309 -0.1405 -0.4755
  424MOL0     C58441   7.883   7.081   3.417 -0.3731 -0.8643 -0.6564
  424MOL0     C58442   7.747   7.115   3.357  0.5471 -0.9503  0.3737
  424MOL0     H58443   7.756   7.236   3.882  0.5010 -2.3168  0.5863
  424MOL0     H58444   7.569   7.263   4.050  1.0945 -1.2233 -0.0541
  424MOL0     H58445   7.216   7.183   4.184  2.1225  5.1242 -0.0236
  424MOL0     H58446   7.364   7.102   4.162  0.1625  0.0594 -0.4343
  424MOL0     H58447   7.278   6.968   3.975 -0.1775 -1.5767  1.1960
  424MOL0     H58448   7.184   6.943   4.120 -1.7408 -2.3577 -3.1014
  424MOL0     H58449   7.031   7.124   4.051  0.2752  0.6584  0.0840
  424MOL0     H58450   7.089   7.111   3.888  0.5820  1.0615  0.3518
  424MOL0     H58451   7.028   6.869   3.888 -0.6314 -0.8361  0.3364
  424MOL0     H58452   6.985   6.882   4.060  0.1396  1.4538  1.6666
  424MOL0     H58453   6.861   7.014   3.811  0.8521 -0.4116  0.3969
  424MOL0     H58454   6.795   7.059   3.964  2.8852  1.4513 -0.5181
  424MOL0     H58455   6.809   6.769   3.893  3.0335  0.6730  2.2637
  424MOL0     H58456   6.716   6.841   4.019 -1.3367 -2.2749  0.4734
  424MOL0     H58457   6.654   6.929   3.725  0.3448 -1.4888 -0.4431
  424MOL0     H58458   6.556   6.941   3.868  1.8748  0.4650  0.8372
  424MOL0     H58459   6.520   6.699   3.865  1.0432  0.4828  0.4789
  424MOL0     H58460   6.473   6.784   3.718 -0.6983  0.7328  0.2237
  424MOL0     H58461   6.680   6.757   3.514  0.8946  2.0236  2.5097
  424MOL0     H58462   6.919   6.557   3.442 -1.2690  3.3028  1.1198
  424MOL0     H58463   6.760   6.588   3.351 -0.0767 -1.4558 -1.2725
  424MOL0     H58464   6.729   6.326   3.420  0.4921  1.7434  1.4908
  424MOL0     H58465   6.797   6.367   3.262 -2.8625  1.5125  0.3791
  424MOL0     H58466   7.031   6.357   3.362 -0.7163  0.3335 -0.1255
  424MOL0     H58467   6.956   6.319   3.520  0.7307 -1.8085 -0.2354
  424MOL0     H58468   6.851   6.107   3.380  0.9640 -0.2879  0.2046
  424MOL0     H58469   6.967   6.157   3.258  0.0790  2.1742 -0.1307
  424MOL0     H58470   7.191   6.088   3.634  0.3146  1.7070  0.9127
  424MOL0     H58471   7.407   6.092   3.757 -1.4017 -1.6917  0.0138
  424MOL0     H58472   7.560   6.085   3.668  0.0985  0.3814 -2.9943
  424MOL0     H58473   7.448   5.943   3.664 -1.6124  0.2288 -3.7957
  424MOL0     H58474   7.729   5.857   3.459  1.7247 -0.5595  1.3549
  424MOL0     H58475   7.905   5.699   3.427  0.9772 -1.5768 -3.1172
  424MOL0     H58476   7.918   5.501   3.087  0.0600  0.7253 -0.9890
  424MOL0     H58477   8.043   5.601   3.006 -0.1517  2.7259  1.1822
  424MOL0     H58478   8.226   5.462   3.153  1.4425 -0.9147 -0.0454
  424MOL0     H58479   8.087   5.364   3.209 -3.7242 -1.3335 -3.4342
  424MOL0     H58480   8.115   5.393   2.915  2.2761  0.1813 -0.6406
  424MOL0     H58481   8.044   5.259   2.996 -2.4955  3.0120  0.7662
  424MOL0     H58482   8.338   5.320   3.008  0.8493 -0.4026  1.0346
  424MOL0     H58483   8.280   5.213   2.892  0.0831 -1.4009  0.6619
  424MOL0     H58484   8.231   5.172   3.201  2.2705  2.0098  0.2256
  424MOL0     H58485   8.162   5.077   3.064  1.4994 -1.3562 -1.6043
  424MOL0     H58486   8.387   5.017   2.988 -0.0457  1.0801  0.2074
  424MOL0     H58487   8.326   4.952   3.140 -1.8920  1.4141  0.6749
  424MOL0     H58488   8.459   5.156   3.266 -2.7794  1.1141 -0.1446
  424MOL0     H58489   8.531   5.170   3.103 -1.8262 -0.3457  1.0117
  424MOL0     H58490   8.623   4.938   3.117  0.5672  1.4611 -0.0030
  424MOL0     H58491   8.524   4.904   3.265  2.5340 -1.8587  0.8894
  424MOL0     H58492   7.936   5.812   3.017 -1.1114  1.5018 -0.6189
  424MOL0     H58493   7.723   5.948   3.034 -1.6012 -0.5768  0.5828
  424MOL0     H58494   7.403   6.120   3.195 -0.0215  1.5740  0.5086
  424MOL0     H58495   7.170   6.147   3.216  0.3970  1.2168  0.7073
  424MOL0     H58496   7.279   7.177   3.769 -0.9847  1.0563  3.2904
  424MOL0     H58497   7.449   7.190   3.584  2.5147  1.0731 -0.9283
  424MOL0     H58498   8.061   7.005   3.698 -2.9667  0.0530  0.9903
  424MOL0     H58499   8.239   6.985   3.530 -0.2815  0.1018  0.2569
  424MOL0     H58500   8.155   6.974   3.095  1.8527 -2.0822 -0.3271
  424MOL0     H58501   8.195   7.139   3.150  0.4998 -0.2342 -0.3377
  424MOL0     H58502   8.349   6.998   2.976  1.9019 -3.0848 -0.6063
  424MOL0     H58503   8.401   6.896   3.106  0.7048 -0.9600 -2.8301
  424MOL0     H58504   8.539   7.110   3.056 -1.3855 -0.7309 -1.0077
  424MOL0     H58505   8.435   7.191   3.174 -1.8222 -1.0943  1.4598
  424MOL0     H58506   8.480   6.980   3.314 -1.6281  2.6165  0.7051
  424MOL0     H58507   8.590   7.111   3.310  2.5868 -0.1961 -2.1616
  424MOL0     H58508   8.823   6.819   3.114 -0.2982 -0.3778  1.7890
  424MOL0     H58509   7.970   7.088   3.220  2.0071 -1.1822 -0.9849
  424MOL0     H58510   7.723   7.043   3.278 -1.1204  0.0771 -0.1031
  424MOL0     H58511   7.669   7.123   3.433 -0.7983  1.2808 -1.1137
  424MOL0     H58512   7.755   7.218   3.321  2.6946 -0.3709  2.2827
  425MOL0     O58513   1.710   9.747   0.999  0.0278  0.0209  0.2845
  425MOL0     C58514   1.711   9.722   1.122  0.3831  0.6613  0.2541
  425MOL0     O58515   1.794   9.637   1.171 -0.3923  0.5814  0.2153
  425MOL0     C58516   1.923   9.639   1.121  0.1210 -0.6200  0.0428
  425MOL0     C58517   1.985   9.518   1.086  0.0823  0.0242  0.2387
  425MOL0     C58518   2.117   9.528   1.023 -0.0685  0.5299  0.3718
  425MOL0     C58519   2.180   9.652   1.004  0.1543  0.7810  0.2551
  425MOL0     O58520   2.306   9.668   0.949  0.5348 -0.2019  0.5394
  425MOL0     C58521   2.372   9.567   0.874  0.1501  0.6542 -0.5424
  425MOL0     C58522   2.489   9.511   0.959  0.7415  0.1769  0.0512
  425MOL0     C58523   2.576   9.634   1.006 -0.4766  0.3653 -0.3208
  425MOL0     C58524   2.717   9.581   1.044 -0.0335 -1.0124  0.3194
  425MOL0     C58525   2.824   9.687   1.068 -0.8978 -0.4560 -0.2851
  425MOL0     C58526   2.940   9.636   1.154 -0.1002 -0.5273  0.1947
  425MOL0     C58527   3.032   9.530   1.087  0.5104  0.1256 -0.2464
  425MOL0     C58528   3.176   9.550   1.112 -0.6067 -0.2834  0.5324
  425MOL0     N58529   3.229   9.663   1.036  0.2008  0.2191  0.3659
  425MOL0     C58530   3.208   9.683   0.902  0.4246  0.2152 -0.0142
  425MOL0     C58531   3.200   9.807   0.879  0.1763 -0.5481 -0.1275
  425MOL0     C58532   3.182   9.875   0.750  0.3635 -1.1994 -0.6121
  425MOL0     C58533   3.299   9.835   0.658  0.0497  0.3138  0.2082
  425MOL0     C58534   3.435   9.878   0.711  0.4532  0.4975 -0.0509
  425MOL0     C58535   3.451  10.033   0.709  0.4284  0.3017 -0.2535
  425MOL0     O58536   3.583  10.068   0.743  0.3193 -0.6414 -0.2779
  425MOL0     C58537   3.612  10.077   0.878 -0.2457 -0.4373 -0.8629
  425MOL0     C58538   3.548  10.015   0.986 -0.1579 -0.1477 -0.7875
  425MOL0     C58539   3.601  10.001   1.117  0.5903 -0.6261  0.2215
  425MOL0     C58540   3.529   9.906   1.205 -0.0087 -0.9426 -0.4438
  425MOL0     C58541   3.710  10.090   1.155  0.2765  0.1481 -0.2017
  425MOL0     C58542   3.763  10.104   1.285 -0.8589  1.0913  0.4260
  425MOL0     O58543   3.828  10.220   1.310 -0.2866 -0.3115  0.4952
  425MOL0     C58544   3.890  10.241   1.430 -1.1215  0.8563  0.8099
  425MOL0     C58545   3.832  10.287   1.549 -0.1175  0.0922  0.1473
  425MOL0     C58546   3.907  10.314   1.668 -0.6034 -0.9301  0.2519
  425MOL0     C58547   4.045  10.307   1.671  1.1294  0.1165  0.4508
  425MOL0     O58548   4.104  10.312   1.792  0.1424 -0.1962 -0.0905
  425MOL0     C58549   4.249  10.296   1.796  0.1974 -0.6225  0.3351
  425MOL0     C58550   4.313  10.282   1.932 -0.5491  0.7679 -0.2404
  425MOL0     C58551   4.469  10.265   1.920 -0.2660  0.6538 -0.1092
  425MOL0     C58552   4.523  10.305   2.052  0.5125 -0.4099 -0.8992
  425MOL0     C58553   4.481  10.209   2.168 -0.1923 -0.2933  0.0505
  425MOL0     C58554   4.545  10.259   2.305  0.1560 -0.1338  1.2868
  425MOL0     C58555   4.697  10.244   2.323 -0.2583 -0.3257  0.4893
  425MOL0     C58556   4.745  10.261   2.471 -0.1617  0.1391  0.1679
  425MOL0    Cl58557   4.671  10.412   2.533 -0.0326  0.3024 -0.0953
  425MOL0     C58558   4.109  10.287   1.543  0.6746 -0.1624 -0.3968
  425MOL0     C58559   4.030  10.249   1.432 -0.5959  0.5697 -0.5357
  425MOL0     O58560   3.745  10.012   1.367  0.3837  0.1038  0.3297
  425MOL0     C58561   3.768  10.172   1.055 -0.0661 -0.5150  0.0708
  425MOL0     C58562   3.716  10.168   0.925  0.3181  0.2306  0.3759
  425MOL0     N58563   3.214   9.874   0.996 -0.7763  0.2310  0.1063
  425MOL0     N58564   3.232   9.787   1.088 -0.2615  0.4362  0.4004
  425MOL0     C58565   2.112   9.764   1.039  0.0737 -0.2309  0.1561
  425MOL0     C58566   1.985   9.760   1.101 -0.0768 -0.1238  0.7558
  425MOL0     C58567   1.603   9.773   1.195 -1.0361 -0.2708 -0.2554
  425MOL0     C58568   1.481   9.821   1.128  0.0768 -0.2853  0.0309
  425MOL0     C58569   1.373   9.870   1.206 -1.0465  0.6229  1.0590
  425MOL0     C58570   1.380   9.873   1.339 -0.2087  0.8615  0.2684
  425MOL0     O58571   1.276   9.924   1.406  0.0517  0.1338  0.3567
  425MOL0     C58572   1.241   9.897   1.541 -0.2224 -0.5635  0.3348
  425MOL0     C58573   1.169  10.016   1.592  0.3387  0.8191 -0.2133
  425MOL0     C58574   1.150  10.004   1.750  0.1779  0.1048 -0.5202
  425MOL0     C58575   1.083  10.133   1.810 -0.3149 -0.0996 -0.3709
  425MOL0     C58576   0.947  10.169   1.771 -0.9020 -0.4634  0.8145
  425MOL0     C58577   0.831  10.202   1.757  0.5991  1.0764 -0.4480
  425MOL0     C58578   1.497   9.831   1.406  0.3022 -0.1532 -0.0144
  425MOL0     C58579   1.604   9.781   1.342 -0.4094  0.4837  0.5725
  425MOL0     C58580   1.709   9.720   1.427  0.2907 -0.3191  0.1979
  425MOL0     H58581   1.938   9.420   1.096 -1.3632  0.8540  2.1805
  425MOL0     H58582   2.150   9.430   0.992  1.9973  0.6948  1.8162
  425MOL0     H58583   2.423   9.618   0.792 -0.5610  4.0591  0.9887
  425MOL0     H58584   2.307   9.491   0.831 -0.2965  0.5678  0.2743
  425MOL0     H58585   2.453   9.466   1.052 -1.2082  3.8517  1.2955
  425MOL0     H58586   2.543   9.439   0.898 -1.0530 -1.5781  0.4450
  425MOL0     H58587   2.582   9.707   0.925 -2.9070  2.6561  1.4169
  425MOL0     H58588   2.530   9.675   1.096  0.3619 -1.3749  0.9562
  425MOL0     H58589   2.717   9.517   1.133  1.5701 -1.5430 -0.0273
  425MOL0     H58590   2.752   9.503   0.975  0.0648 -1.2577  0.6384
  425MOL0     H58591   2.778   9.768   1.125 -1.4824 -3.4958  4.1231
  425MOL0     H58592   2.862   9.716   0.970 -2.2566 -1.1996 -1.0687
  425MOL0     H58593   2.987   9.732   1.177 -2.0137  0.0001  2.3268
  425MOL0     H58594   2.890   9.592   1.241 -1.8753  1.2926  0.1682
  425MOL0     H58595   3.014   9.530   0.979 -1.3627 -1.0996  0.0139
  425MOL0     H58596   2.998   9.432   1.122  1.3197  0.6421  2.2030
  425MOL0     H58597   3.195   9.550   1.220  2.8208 -0.6263  0.0289
  425MOL0     H58598   3.221   9.460   1.068 -1.3393  0.3974 -1.7227
  425MOL0     H58599   3.189   9.601   0.833  2.2399  0.6371 -1.0890
  425MOL0     H58600   3.175   9.984   0.758 -0.6728 -0.8421 -4.4101
  425MOL0     H58601   3.088   9.852   0.698 -0.0802 -0.3277 -0.2253
  425MOL0     H58602   3.303   9.729   0.630  3.8478  1.4269 -5.3395
  425MOL0     H58603   3.287   9.883   0.560  0.6729  0.8686  0.3962
  425MOL0     H58604   3.465   9.826   0.802  0.9888  1.6016  0.4129
  425MOL0     H58605   3.514   9.844   0.644 -0.0790 -2.0089  0.4660
  425MOL0     H58606   3.426  10.073   0.610  0.0514 -2.4873 -1.3756
  425MOL0     H58607   3.384  10.067   0.789  0.0686  0.5212 -0.6435
  425MOL0     H58608   3.454   9.964   0.969 -1.8289  2.0948  1.0826
  425MOL0     H58609   3.466   9.832   1.155 -2.5450 -0.2657  1.5392
  425MOL0     H58610   3.460   9.957   1.273 -1.5865  1.0226 -3.2805
  425MOL0     H58611   3.600   9.853   1.268  1.1465 -0.1079 -1.0028
  425MOL0     H58612   3.726  10.306   1.560  0.5771  4.7547  0.7866
  425MOL0     H58613   3.852  10.319   1.762 -1.0621 -1.3960  0.0126
  425MOL0     H58614   4.273  10.205   1.740 -3.5078 -1.0621 -0.7864
  425MOL0     H58615   4.289  10.391   1.759 -0.2937  0.5689  2.6586
  425MOL0     H58616   4.287  10.368   1.994  0.4572  3.3788 -3.1685
  425MOL0     H58617   4.273  10.193   1.982  2.2314  1.3587  3.4452
  425MOL0     H58618   4.502  10.330   1.838  0.4121 -1.2046 -1.3767
  425MOL0     H58619   4.501  10.164   1.894  0.5026  1.3422 -2.0322
  425MOL0     H58620   4.493  10.408   2.073  1.4503 -0.1474 -0.8015
  425MOL0     H58621   4.631  10.324   2.057  0.1805  1.9044 -1.4282
  425MOL0     H58622   4.373  10.197   2.185 -0.3094 -0.9369 -1.0328
  425MOL0     H58623   4.517  10.113   2.129  1.7550  0.6521 -0.5615
  425MOL0     H58624   4.500  10.198   2.384 -0.8671 -2.7527 -1.1056
  425MOL0     H58625   4.517  10.362   2.328 -0.4124 -0.1057  0.5290
  425MOL0     H58626   4.739  10.325   2.263 -2.0925  1.7789  1.8566
  425MOL0     H58627   4.730  10.149   2.280 -2.9498 -1.7225  1.2762
  425MOL0     H58628   4.855  10.264   2.473 -0.1528 -0.2921  1.0324
  425MOL0     H58629   4.715  10.171   2.526 -0.9283 -0.1479 -0.7059
  425MOL0     H58630   4.216  10.297   1.530  0.6937 -0.8589 -0.8587
  425MOL0     H58631   4.085  10.242   1.339 -0.5973  2.4712 -0.7280
  425MOL0     H58632   3.862  10.226   1.064  0.1988 -0.7713 -1.0195
  425MOL0     H58633   3.777  10.218   0.850  1.9556 -1.2161  0.6987
  425MOL0     H58634   2.175   9.853   1.038 -2.1441  1.5734 -3.3926
  425MOL0     H58635   1.935   9.853   1.127  0.7138  0.7786 -0.7686
  425MOL0     H58636   1.468   9.820   1.020 -1.1434  1.4478  0.1246
  425MOL0     H58637   1.283   9.904   1.156 -0.9816 -5.0808 -4.0061
  425MOL0     H58638   1.183   9.805   1.539  0.2226 -0.8365 -1.4520
  425MOL0     H58639   1.335   9.883   1.596 -0.0113  0.8638  0.3903
  425MOL0     H58640   1.071  10.020   1.542  0.6706 -1.3496 -1.1253
  425MOL0     H58641   1.224  10.109   1.573  1.3859  0.3953  0.6631
  425MOL0     H58642   1.076   9.931   1.782  0.8026  0.4357  1.8361
  425MOL0     H58643   1.250  10.000   1.795  1.0366  0.2430 -2.3342
  425MOL0     H58644   1.155  10.212   1.787 -0.1044  0.0883  0.8702
  425MOL0     H58645   1.087  10.115   1.918  1.4208  2.3824  0.0722
  425MOL0     H58646   0.727  10.229   1.755  0.9020  2.3286  0.1032
  425MOL0     H58647   1.510   9.836   1.514  2.0209 -3.0040  0.0443
  425MOL0     H58648   1.809   9.748   1.392  0.2574  0.6561  0.8423
  425MOL0     H58649   1.710   9.764   1.527 -5.5233 -0.3089  0.5845
  425MOL0     H58650   1.694   9.613   1.445  0.0927 -0.7737 -2.2749
  426MOL0     O58651   3.100   8.552   5.078 -0.9975  0.3016  0.7492
  426MOL0     C58652   3.215   8.589   5.050  0.0968  0.2995  1.0489
  426MOL0     O58653   3.292   8.529   4.949 -0.0362 -0.4041 -0.0962
  426MOL0     C58654   3.248   8.417   4.881  0.2885 -0.0967  0.4410
  426MOL0     C58655   3.181   8.435   4.762 -0.4421  0.8693  0.8003
  426MOL0     C58656   3.144   8.320   4.690  1.2852  0.3836 -0.4231
  426MOL0     C58657   3.164   8.191   4.748 -0.2053  0.6981 -0.2594
  426MOL0     O58658   3.126   8.073   4.692 -0.2901 -0.1486 -0.3971
  426MOL0     C58659   3.123   8.067   4.549  0.0386 -0.5048 -1.1431
  426MOL0     C58660   3.109   7.922   4.510 -0.1213 -0.2522  1.2757
  426MOL0     C58661   2.962   7.863   4.542 -0.2555  0.1033 -0.3720
  426MOL0     C58662   2.941   7.828   4.691 -0.3756  1.0439 -0.0293
  426MOL0     C58663   2.865   7.692   4.695 -0.1874  0.4085  0.8849
  426MOL0     C58664   2.798   7.674   4.841  0.6824 -0.4502 -0.4983
  426MOL0     C58665   2.700   7.548   4.844  0.1612 -0.5522 -0.2152
  426MOL0     C58666   2.659   7.517   4.990 -0.4261 -0.3682 -0.5072
  426MOL0     N58667   2.768   7.469   5.076 -0.5453 -0.0695 -1.5014
  426MOL0     C58668   2.813   7.543   5.184  0.0606  0.9269 -0.2286
  426MOL0     C58669   2.913   7.459   5.236 -0.8464 -0.2055  0.0296
  426MOL0     C58670   3.009   7.495   5.345  0.5692 -0.4076 -1.0576
  426MOL0     C58671   3.151   7.534   5.298 -0.1738  0.7197 -0.2501
  426MOL0     C58672   3.153   7.649   5.204  1.5085 -0.3014  0.0376
  426MOL0     C58673   3.286   7.712   5.171  1.1237 -0.3147  0.7556
  426MOL0     O58674   3.380   7.612   5.150  0.5364 -0.3954  0.4275
  426MOL0     C58675   3.508   7.641   5.136 -0.3262  0.0496  0.6806
  426MOL0     C58676   3.596   7.540   5.155  0.2547  0.0193  0.1385
  426MOL0     C58677   3.735   7.558   5.140  0.0366 -0.4893  0.2753
  426MOL0     C58678   3.829   7.436   5.165  0.5256  0.5851  0.3006
  426MOL0     C58679   3.787   7.694   5.113  0.1712  0.7017 -0.0180
  426MOL0     C58680   3.932   7.732   5.101 -1.0153 -0.1441 -0.3764
  426MOL0     O58681   4.017   7.624   5.110 -0.5905  0.1607 -0.0859
  426MOL0     C58682   4.145   7.643   5.159 -0.3648 -0.2430 -0.5625
  426MOL0     C58683   4.240   7.696   5.074  0.0465 -0.1350 -0.1463
  426MOL0     C58684   4.378   7.704   5.107 -0.8518 -0.3764 -0.8514
  426MOL0     C58685   4.417   7.668   5.236 -0.6409  0.1523  0.8685
  426MOL0     O58686   4.551   7.680   5.260  0.3646  0.2304 -0.0592
  426MOL0     C58687   4.600   7.677   5.394 -0.5254  0.1847  0.1917
  426MOL0     C58688   4.691   7.790   5.420 -0.0383  0.5843  0.3505
  426MOL0     C58689   4.773   7.788   5.559 -0.0357  0.0775  0.8200
  426MOL0     C58690   4.891   7.689   5.539  0.3323  0.1110  0.3756
  426MOL0     C58691   5.002   7.686   5.642 -0.5694  0.2243  0.6038
  426MOL0     C58692   5.125   7.769   5.599  0.4488 -0.2746  0.6218
  426MOL0     C58693   5.259   7.706   5.613  0.5532  0.8260 -0.6428
  426MOL0     C58694   5.313   7.690   5.757 -0.2635 -0.0470 -0.7325
  426MOL0    Cl58695   5.231   7.556   5.851 -0.0424 -0.0257 -0.0532
  426MOL0     C58696   4.325   7.598   5.325 -0.6613 -0.7170  0.4574
  426MOL0     C58697   4.188   7.593   5.282 -0.5367  0.6191 -0.0038
  426MOL0     O58698   3.961   7.851   5.067  0.5021 -0.0510 -0.3640
  426MOL0     C58699   3.690   7.798   5.100 -1.4990 -0.3782  0.0444
  426MOL0     C58700   3.556   7.767   5.099  0.1682 -0.0777 -0.2267
  426MOL0     N58701   2.928   7.354   5.146  0.1382 -0.3126 -0.2303
  426MOL0     N58702   2.842   7.358   5.057  0.4937 -0.2008 -0.4222
  426MOL0     C58703   3.219   8.183   4.879  0.0445  0.7751 -0.0286
  426MOL0     C58704   3.257   8.291   4.941 -0.1873  0.8917  0.1127
  426MOL0     C58705   3.266   8.705   5.121  0.3008 -0.0106  0.7244
  426MOL0     C58706   3.400   8.749   5.093  0.5498  0.0444  0.3078
  426MOL0     C58707   3.455   8.864   5.148  0.4110 -0.4342 -0.3718
  426MOL0     C58708   3.383   8.949   5.236 -0.0107  0.4233 -0.4951
  426MOL0     O58709   3.426   9.064   5.298 -0.0922  0.7263  0.0465
  426MOL0     C58710   3.562   9.109   5.286 -0.3552  0.0597  0.8595
  426MOL0     C58711   3.668   9.057   5.372  0.3666  0.6508 -0.2538
  426MOL0     C58712   3.814   9.106   5.341 -0.4140 -0.7610  0.1818
  426MOL0     C58713   3.833   9.244   5.414 -0.3213 -0.5148 -0.0893
  426MOL0     C58714   3.953   9.323   5.377  0.0956 -0.3048  0.2767
  426MOL0     C58715   4.043   9.396   5.346 -0.5741 -0.0678 -0.0640
  426MOL0     C58716   3.253   8.899   5.267 -0.0167 -0.5496 -0.9088
  426MOL0     C58717   3.198   8.781   5.218  0.9226  0.0354 -0.4192
  426MOL0     C58718   3.065   8.745   5.276  0.0759 -0.4257 -0.0292
  426MOL0     H58719   3.172   8.531   4.713 -1.4218  0.6127  0.4521
  426MOL0     H58720   3.087   8.342   4.601  0.9690 -0.2500 -0.3793
  426MOL0     H58721   3.221   8.102   4.516  0.9302 -1.8341 -0.0249
  426MOL0     H58722   3.056   8.132   4.492  2.2227  0.8685 -2.2789
  426MOL0     H58723   3.102   7.910   4.401  1.5690 -2.0763  1.3039
  426MOL0     H58724   3.188   7.858   4.550 -2.7920 -2.6439  3.0856
  426MOL0     H58725   2.880   7.934   4.527  0.2391  1.0675  1.2620
  426MOL0     H58726   2.945   7.771   4.486  2.5748 -2.2460  2.2896
  426MOL0     H58727   3.039   7.823   4.739 -0.5456  0.7543  0.2866
  426MOL0     H58728   2.875   7.901   4.740  2.3192  1.5144  3.3230
  426MOL0     H58729   2.922   7.602   4.671 -0.3178  0.4265  0.5027
  426MOL0     H58730   2.783   7.702   4.623  1.5732 -1.4588 -1.5406
  426MOL0     H58731   2.867   7.686   4.924 -0.6762  1.6373  0.4100
  426MOL0     H58732   2.736   7.764   4.853 -0.5246 -1.2166 -0.7295
  426MOL0     H58733   2.746   7.465   4.789  0.7041  0.8037 -1.9031
  426MOL0     H58734   2.611   7.577   4.788 -0.6664 -1.5118  0.5673
  426MOL0     H58735   2.606   7.604   5.030 -1.4521 -0.1993 -2.1245
  426MOL0     H58736   2.578   7.444   4.998 -1.2359  0.5517 -0.1154
  426MOL0     H58737   2.784   7.641   5.222  1.0272  1.8696 -1.8239
  426MOL0     H58738   3.013   7.413   5.416 -0.7153  0.7591  0.4355
  426MOL0     H58739   2.971   7.583   5.399 -0.4450 -1.0216 -0.7272
  426MOL0     H58740   3.214   7.548   5.386  1.2858 -1.8115 -0.7883
  426MOL0     H58741   3.202   7.448   5.254  1.3876 -0.6238  3.7557
  426MOL0     H58742   3.119   7.619   5.104  2.1886  1.5794 -0.8023
  426MOL0     H58743   3.085   7.728   5.237  2.7013  0.6116  0.3406
  426MOL0     H58744   3.273   7.772   5.080 -0.0860  0.4517  1.3951
  426MOL0     H58745   3.321   7.782   5.248 -0.5631  1.2094  0.2227
  426MOL0     H58746   3.558   7.441   5.178  1.7169 -0.9482 -1.3291
  426MOL0     H58747   3.776   7.341   5.162  0.2407  0.6639  2.0130
  426MOL0     H58748   3.887   7.438   5.258 -0.7818 -3.5437  1.3969
  426MOL0     H58749   3.908   7.430   5.089 -1.5062  1.4161 -1.9994
  426MOL0     H58750   4.205   7.751   4.987  2.4851  1.7365 -0.0636
  426MOL0     H58751   4.442   7.760   5.040 -0.0637 -0.4955 -0.2070
  426MOL0     H58752   4.518   7.673   5.467 -1.2002 -0.7538 -0.5811
  426MOL0     H58753   4.663   7.590   5.408  0.0299  0.4676 -0.4946
  426MOL0     H58754   4.756   7.825   5.340 -0.8070  4.4441  1.2227
  426MOL0     H58755   4.609   7.862   5.427 -1.0944 -0.6760  1.8013
  426MOL0     H58756   4.711   7.754   5.643  1.5914 -1.1911  1.5576
  426MOL0     H58757   4.813   7.890   5.565  2.1800 -0.7100  0.2359
  426MOL0     H58758   4.939   7.696   5.441  0.5502  0.6848  0.5220
  426MOL0     H58759   4.834   7.596   5.538 -0.1953  0.4282 -0.5869
  426MOL0     H58760   4.963   7.713   5.740 -0.5767 -5.0722  2.3303
  426MOL0     H58761   5.033   7.582   5.653 -1.3115 -0.0069  0.5351
  426MOL0     H58762   5.119   7.865   5.652 -0.8854  0.5985 -1.0185
  426MOL0     H58763   5.121   7.798   5.494  2.0218 -2.6038 -0.1471
  426MOL0     H58764   5.337   7.764   5.562  1.1777  0.6539  0.1052
  426MOL0     H58765   5.254   7.612   5.557  1.2250  0.8265 -0.7100
  426MOL0     H58766   5.304   7.790   5.803 -1.4205  0.1934 -1.4465
  426MOL0     H58767   5.417   7.655   5.761 -1.4242 -3.8002  0.3062
  426MOL0     H58768   4.366   7.552   5.414  1.5158  0.1585 -0.0323
  426MOL0     H58769   4.105   7.558   5.343 -0.5066  1.8649  0.7807
  426MOL0     H58770   3.721   7.901   5.087 -0.8218 -0.4325  1.0393
  426MOL0     H58771   3.489   7.853   5.101  1.4466  0.9922  2.7058
  426MOL0     H58772   3.237   8.086   4.924  1.6049  0.7309 -0.7014
  426MOL0     H58773   3.301   8.290   5.040  0.3818  1.2554 -0.1270
  426MOL0     H58774   3.467   8.697   5.025 -1.7611 -1.0842 -1.2032
  426MOL0     H58775   3.555   8.887   5.112  1.2574 -0.4236  1.8308
  426MOL0     H58776   3.591   9.084   5.183  0.3536 -1.0940  1.3195
  426MOL0     H58777   3.576   9.217   5.278  0.1115 -0.0727 -0.4447
  426MOL0     H58778   3.661   8.949   5.358  0.4978  0.8654 -2.2905
  426MOL0     H58779   3.646   9.084   5.476 -1.6921 -2.3034  0.2030
  426MOL0     H58780   3.873   9.031   5.393  0.4555  0.5863  1.1855
  426MOL0     H58781   3.841   9.112   5.235  0.5292  4.3137  0.4830
  426MOL0     H58782   3.846   9.217   5.519  2.3434 -0.5995 -0.3750
  426MOL0     H58783   3.740   9.298   5.392  0.4662  0.9015 -0.0289
  426MOL0     H58784   4.133   9.452   5.334 -1.0114  0.1361 -3.1296
  426MOL0     H58785   3.193   8.952   5.341 -0.9411 -0.4458 -1.7122
  426MOL0     H58786   2.985   8.747   5.201  1.4322 -2.4982 -1.6201
  426MOL0     H58787   3.065   8.641   5.310  0.5178 -0.2452  0.5284
  426MOL0     H58788   3.029   8.808   5.358  3.1347  0.3564  0.8456
  427MOL0     O58789   7.034   8.003  10.629 -0.2932  0.5896  0.1026
  427MOL0     C58790   6.932   8.058  10.584 -0.0684  0.9348  0.2359
  427MOL0     O58791   6.935   8.153  10.485 -0.3432 -0.2204 -0.9543
  427MOL0     C58792   7.047   8.194  10.418 -0.5920  0.2362  0.3003
  427MOL0     C58793   7.076   8.336  10.404  0.9335 -0.3495  0.4378
  427MOL0     C58794   7.194   8.385  10.356  0.4422 -0.5915  0.7101
  427MOL0     C58795   7.288   8.294  10.308 -0.2450  0.4795 -0.1088
  427MOL0     O58796   7.422   8.335  10.280 -0.1590  0.5776  0.7287
  427MOL0     C58797   7.522   8.300  10.380  0.2065  0.2347  0.9780
  427MOL0     C58798   7.634   8.396  10.383  0.3306  0.2379  0.8591
  427MOL0     C58799   7.730   8.367  10.278 -0.4784  0.0867 -0.1139
  427MOL0     C58800   7.863   8.447  10.304  0.1456  0.1239  0.5995
  427MOL0     C58801   7.854   8.598  10.280  0.2110  0.2106 -0.2988
  427MOL0     C58802   7.984   8.673  10.307  0.5030 -0.8290  0.6595
  427MOL0     C58803   7.953   8.825  10.297  0.0983 -0.5518 -0.1969
  427MOL0     C58804   8.076   8.913  10.330  0.3006  0.3155  0.0562
  427MOL0     N58805   8.159   8.903  10.214  0.1988 -0.6584  0.5680
  427MOL0     C58806   8.141   8.981  10.105 -0.2443 -0.9224  0.8211
  427MOL0     C58807   8.243   8.962  10.018  0.0112 -0.0406  0.4864
  427MOL0     C58808   8.243   9.030   9.881 -0.9007 -0.6947 -0.0916
  427MOL0     C58809   8.279   9.187   9.895 -0.3080 -0.4202 -0.6949
  427MOL0     C58810   8.298   9.239   9.751 -0.4165 -0.1387  0.6086
  427MOL0     C58811   8.347   9.387   9.742  0.7912 -0.8725 -0.3703
  427MOL0     O58812   8.449   9.424   9.836  0.3189  0.1635 -0.6530
  427MOL0     C58813   8.583   9.399   9.812 -0.0530  0.0638  0.2702
  427MOL0     C58814   8.671   9.451   9.910  0.5695 -0.0108  0.2410
  427MOL0     C58815   8.810   9.424   9.902 -0.3754 -0.7814  0.1182
  427MOL0     C58816   8.901   9.503   9.992 -0.6445 -0.3723  0.2656
  427MOL0     C58817   8.858   9.348   9.792 -0.1574  0.1805  0.0557
  427MOL0     C58818   8.997   9.302   9.772  0.2915 -0.1714 -0.5012
  427MOL0     O58819   9.030   9.282   9.643  0.1268 -0.3070  0.4969
  427MOL0     C58820   9.153   9.254   9.589 -0.6883  0.4869  0.3403
  427MOL0     C58821   9.275   9.297   9.645  0.4205 -0.1276 -0.0818
  427MOL0     C58822   9.381   9.263   9.567 -0.0375 -0.1691 -0.5199
  427MOL0     C58823   9.376   9.200   9.441 -0.8617 -0.7916 -0.4409
  427MOL0     O58824   9.483   9.184   9.358 -0.3752 -0.5073 -0.2292
  427MOL0     C58825   9.542   9.305   9.310 -0.2848 -0.1453 -0.0347
  427MOL0     C58826   9.670   9.257   9.226 -0.8183  0.1108  0.1965
  427MOL0     C58827   9.766   9.164   9.303  0.4170  1.0810 -0.0657
  427MOL0     C58828   9.886   9.131   9.228 -0.8615  0.0232  0.8264
  427MOL0     C58829  10.003   9.073   9.305 -0.3870 -0.1655  0.5389
  427MOL0     C58830  10.132   9.057   9.219  0.0241  0.2232  0.0984
  427MOL0     C58831  10.241   8.978   9.288 -0.0465 -1.0768 -0.2469
  427MOL0     C58832  10.322   9.057   9.393 -0.6298 -0.3117  0.5874
  427MOL0    Cl58833  10.450   8.956   9.469 -0.4968 -0.2162  0.0012
  427MOL0     C58834   9.246   9.161   9.397 -0.9631 -0.1645 -0.4979
  427MOL0     C58835   9.138   9.182   9.474 -0.3219  0.0320 -0.0110
  427MOL0     O58836   9.071   9.278   9.872 -0.0550 -0.5141 -0.0315
  427MOL0     C58837   8.767   9.298   9.700 -0.6603 -0.0285 -1.0819
  427MOL0     C58838   8.635   9.322   9.711 -0.2221 -0.5450 -0.3278
  427MOL0     N58839   8.327   8.872  10.081 -0.4524 -0.1691 -0.4222
  427MOL0     N58840   8.278   8.845  10.195 -0.5944  0.5226 -0.4521
  427MOL0     C58841   7.268   8.155  10.309  0.3987 -0.4883 -0.8731
  427MOL0     C58842   7.147   8.101  10.368 -0.5948  0.2119  0.5199
  427MOL0     C58843   6.794   8.024  10.632 -0.2717 -0.9599  0.7779
  427MOL0     C58844   6.689   8.099  10.574 -0.2107 -0.3081  0.5447
  427MOL0     C58845   6.558   8.085  10.619 -0.1172 -1.1575 -0.5957
  427MOL0     C58846   6.521   7.990  10.713  0.3301 -0.4952 -0.3633
  427MOL0     O58847   6.390   7.972  10.728  0.9415  0.2123 -0.3418
  427MOL0     C58848   6.344   7.931  10.855 -1.0718 -0.7469  0.0357
  427MOL0     C58849   6.195   7.962  10.871  0.1506 -0.5507  0.1339
  427MOL0     C58850   6.147   8.087  10.802 -0.2649  0.1852 -0.2871
  427MOL0     C58851   6.007   8.123  10.852  0.1378 -0.5899 -0.3331
  427MOL0     C58852   5.915   8.035  10.779  0.5059 -0.6644  0.0656
  427MOL0     C58853   5.833   7.962  10.729  0.0850 -0.7741 -0.9479
  427MOL0     C58854   6.629   7.922  10.777 -0.9988  0.4694 -0.6085
  427MOL0     C58855   6.766   7.942  10.742  0.1212  0.4796 -0.1495
  427MOL0     C58856   6.866   7.868  10.819  0.1801  0.5662  0.2580
  427MOL0     H58857   6.993   8.397  10.436 -0.0962 -1.9428  0.8880
  427MOL0     H58858   7.224   8.489  10.343  0.1209 -0.8741 -4.8442
  427MOL0     H58859   7.547   8.193  10.375 -1.9155 -0.3069  1.1361
  427MOL0     H58860   7.482   8.306  10.482  2.9200  1.7908  2.0649
  427MOL0     H58861   7.593   8.497  10.369 -1.5091 -0.7300 -1.4606
  427MOL0     H58862   7.680   8.398  10.482 -0.2694 -0.9309  1.1734
  427MOL0     H58863   7.762   8.263  10.267  0.3915 -0.0407  2.7850
  427MOL0     H58864   7.694   8.410  10.184 -1.9479  0.8150  0.7576
  427MOL0     H58865   7.890   8.433  10.409  0.5971 -1.0863  0.3417
  427MOL0     H58866   7.939   8.399  10.240  0.0773  1.0586 -0.2043
  427MOL0     H58867   7.772   8.649  10.332  1.0657  0.1886  1.1029
  427MOL0     H58868   7.828   8.616  10.175  3.1268 -1.3124 -1.4077
  427MOL0     H58869   8.010   8.639  10.408  1.3770 -0.3785  0.5998
  427MOL0     H58870   8.058   8.649  10.229  1.3689  2.6203  0.2717
  427MOL0     H58871   7.865   8.845  10.358  1.3479  0.7054  1.2852
  427MOL0     H58872   7.930   8.841  10.191 -0.4622 -1.9860 -0.3188
  427MOL0     H58873   8.038   9.015  10.341 -0.3333 -0.0331  1.2622
  427MOL0     H58874   8.124   8.872  10.419 -0.4854 -1.9053 -0.4775
  427MOL0     H58875   8.069   9.062  10.100 -1.0425 -1.7101 -1.1008
  427MOL0     H58876   8.145   9.015   9.835 -2.1447 -0.2154  2.2418
  427MOL0     H58877   8.318   8.976   9.822 -0.6221 -0.6034  0.1758
  427MOL0     H58878   8.198   9.241   9.945  0.0379 -0.6833  0.1618
  427MOL0     H58879   8.369   9.205   9.955 -0.2586  1.3573 -1.2240
  427MOL0     H58880   8.377   9.183   9.701  0.6650 -0.1808  2.2778
  427MOL0     H58881   8.200   9.232   9.703 -0.3798  0.2477  0.4782
  427MOL0     H58882   8.383   9.399   9.639  0.3690 -1.4814 -0.5949
  427MOL0     H58883   8.259   9.449   9.765  2.2786  1.5138 -0.7009
  427MOL0     H58884   8.620   9.510   9.985  1.6739 -0.6432  1.5422
  427MOL0     H58885   8.857   9.549  10.081  0.3752  1.1653  0.0225
  427MOL0     H58886   8.952   9.579   9.932 -3.0012  1.3285  0.2927
  427MOL0     H58887   8.969   9.435  10.044  0.7212  0.8332  0.1279
  427MOL0     H58888   9.288   9.344   9.742 -0.4093 -2.1903  1.0846
  427MOL0     H58889   9.481   9.296   9.593 -0.9165  2.4434 -0.1523
  427MOL0     H58890   9.484   9.350   9.229  1.6894 -0.7332 -1.9053
  427MOL0     H58891   9.573   9.375   9.388  2.1571 -0.8717 -0.2608
  427MOL0     H58892   9.639   9.209   9.133 -2.4934  0.3899  0.5840
  427MOL0     H58893   9.725   9.347   9.196 -0.6944 -0.3317 -0.9217
  427MOL0     H58894   9.709   9.072   9.324  0.4018  0.4508 -2.5564
  427MOL0     H58895   9.795   9.205   9.400 -0.0535 -0.3104  0.6977
  427MOL0     H58896   9.923   9.225   9.187 -1.2632 -0.1131  0.1404
  427MOL0     H58897   9.859   9.071   9.141  0.5023 -1.0756  1.1154
  427MOL0     H58898  10.020   9.137   9.393  1.1849 -1.4298  1.2029
  427MOL0     H58899   9.985   8.966   9.322 -2.0721 -0.4127 -2.2325
  427MOL0     H58900  10.162   9.154   9.179  0.2362 -0.2864 -1.0010
  427MOL0     H58901  10.105   8.996   9.133  3.5374 -0.3513 -0.7746
  427MOL0     H58902  10.316   8.947   9.215  1.0345 -0.0005  0.3761
  427MOL0     H58903  10.198   8.894   9.344  0.5815 -0.9278  0.4719
  427MOL0     H58904  10.254   9.076   9.476 -0.2160 -0.2831  0.9226
  427MOL0     H58905  10.361   9.142   9.337 -0.4664 -1.3125 -0.8812
  427MOL0     H58906   9.236   9.103   9.306 -0.5607 -1.4070  0.2390
  427MOL0     H58907   9.044   9.149   9.431 -0.3125  0.6552 -0.5199
  427MOL0     H58908   8.800   9.224   9.627 -0.6145  0.4279 -1.5271
  427MOL0     H58909   8.580   9.265   9.636  1.0263  0.7731 -2.3227
  427MOL0     H58910   7.346   8.085  10.281  1.2284  0.6137 -1.3875
  427MOL0     H58911   7.133   7.994  10.376 -0.6922  0.2677  1.1733
  427MOL0     H58912   6.713   8.176  10.501 -3.2602  0.0995 -0.1531
  427MOL0     H58913   6.486   8.152  10.573  2.5163  1.6569 -0.9719
  427MOL0     H58914   6.358   7.824  10.873 -2.4054 -0.9338  0.0535
  427MOL0     H58915   6.398   7.986  10.933  0.1698 -1.2149 -0.4593
  427MOL0     H58916   6.175   7.966  10.979 -0.2669  1.3141  0.0216
  427MOL0     H58917   6.141   7.874  10.834  0.3504 -0.8139  0.4600
  427MOL0     H58918   6.218   8.165  10.831  0.8187 -0.7753 -0.2945
  427MOL0     H58919   6.142   8.076  10.693 -0.5090 -1.7994 -0.1156
  427MOL0     H58920   5.983   8.226  10.825 -0.2495 -0.3383  0.9205
  427MOL0     H58921   6.014   8.111  10.961  1.6389  1.2011 -0.1787
  427MOL0     H58922   5.755   7.904  10.684  1.0889 -0.6493 -2.9813
  427MOL0     H58923   6.609   7.846  10.852  0.2060 -1.1834 -1.8963
  427MOL0     H58924   6.912   7.925  10.901 -3.8063  1.9449  1.7529
  427MOL0     H58925   6.822   7.796  10.889  1.9521  0.3871  1.2714
  427MOL0     H58926   6.932   7.810  10.754 -0.8369 -1.0059  0.5733
  428MOL0     O58927   8.057   4.381   0.850 -0.1567 -0.3885  0.2308
  428MOL0     C58928   7.942   4.382   0.888  0.0207 -0.3605 -0.0308
  428MOL0     O58929   7.903   4.387   1.029 -0.2415  0.2555  0.4677
  428MOL0     C58930   7.993   4.399   1.129  0.5149  1.1231 -0.6078
  428MOL0     C58931   8.107   4.313   1.139  0.9237 -0.3635 -0.2023
  428MOL0     C58932   8.209   4.346   1.219 -0.1243  1.2429  0.4920
  428MOL0     C58933   8.207   4.463   1.297  0.0142  0.2772 -0.7734
  428MOL0     O58934   8.319   4.505   1.369 -0.2079 -0.1033  0.2741
  428MOL0     C58935   8.420   4.404   1.374  0.6229  0.0351 -0.5393
  428MOL0     C58936   8.538   4.467   1.455 -0.2709  0.1513  0.3265
  428MOL0     C58937   8.643   4.360   1.476 -0.0507 -0.6482 -0.4813
  428MOL0     C58938   8.782   4.418   1.518  0.1196 -0.7836  0.9857
  428MOL0     C58939   8.881   4.305   1.546 -0.5505  0.1631 -0.5543
  428MOL0     C58940   8.873   4.248   1.692  0.3574 -0.2842  1.0510
  428MOL0     C58941   8.997   4.169   1.736  0.6695 -0.0870 -0.1294
  428MOL0     C58942   9.128   4.245   1.748 -0.6863 -0.5817 -0.1556
  428MOL0     N58943   9.240   4.162   1.779  0.2321  0.7181 -0.1555
  428MOL0     C58944   9.280   4.123   1.906  0.2729  0.1916 -0.5327
  428MOL0     C58945   9.396   4.046   1.885  0.0254  0.5452 -0.4499
  428MOL0     C58946   9.476   3.989   2.001  0.4720  0.5274  0.0808
  428MOL0     C58947   9.389   3.947   2.120  0.6147 -0.7450 -0.3305
  428MOL0     C58948   9.469   3.854   2.210  0.2351  0.0998 -0.0177
  428MOL0     C58949   9.586   3.932   2.290  0.3999  0.3914  0.0139
  428MOL0     O58950   9.613   3.850   2.404 -0.0832  0.3510  0.4345
  428MOL0     C58951   9.713   3.900   2.491  0.1905  0.4261  0.5976
  428MOL0     C58952   9.802   4.009   2.478  0.3490 -0.3316 -0.3934
  428MOL0     C58953   9.917   4.029   2.556 -0.3655  0.0271  0.8456
  428MOL0     C58954   9.989   4.160   2.536 -0.3011 -0.0744 -0.0410
  428MOL0     C58955   9.938   3.927   2.657 -0.5353 -0.5300  1.1578
  428MOL0     C58956  10.057   3.921   2.749 -0.4185  0.0913  0.7262
  428MOL0     O58957  10.057   3.830   2.861  0.1653 -0.3743 -0.2632
  428MOL0     C58958  10.172   3.781   2.915 -1.1455 -0.9559  0.3863
  428MOL0     C58959  10.259   3.703   2.841 -0.6272 -0.0973  0.1100
  428MOL0     C58960  10.374   3.658   2.900  0.3385  0.0047  0.9967
  428MOL0     C58961  10.424   3.714   3.019  0.5822 -0.0930 -0.0678
  428MOL0     O58962  10.558   3.684   3.052  0.5429 -0.4864 -0.8422
  428MOL0     C58963  10.587   3.674   3.193 -0.2790  0.0783  1.4667
  428MOL0     C58964  10.732   3.617   3.201  0.7288  0.2778 -0.0016
  428MOL0     C58965  10.769   3.546   3.335 -0.2450  0.4691  0.8305
  428MOL0     C58966  10.907   3.491   3.325  0.0919 -0.1260 -0.1999
  428MOL0     C58967  10.946   3.392   3.444 -0.5912 -0.1937  0.2811
  428MOL0     C58968  11.096   3.354   3.435  0.0756  0.0999  0.0422
  428MOL0     C58969  11.133   3.264   3.559 -0.2283  0.2094 -0.1830
  428MOL0     C58970  11.283   3.225   3.558  0.1062 -0.0463  0.1343
  428MOL0    Cl58971  11.395   3.371   3.573 -0.3623 -0.1715 -0.1189
  428MOL0     C58972  10.332   3.783   3.097  1.1516  0.4024  1.1957
  428MOL0     C58973  10.208   3.822   3.036  0.1903  0.2045 -0.6866
  428MOL0     O58974  10.153   3.989   2.725 -0.6448  0.2832  0.5742
  428MOL0     C58975   9.847   3.824   2.677  0.5987  0.4550 -0.0645
  428MOL0     C58976   9.742   3.814   2.590  0.5836  0.3018 -0.6911
  428MOL0     N58977   9.409   4.030   1.748  0.7573  0.0336  0.2574
  428MOL0     N58978   9.317   4.094   1.690 -1.0004 -0.4842 -0.8766
  428MOL0     C58979   8.090   4.536   1.301 -0.4837  0.2831 -0.4984
  428MOL0     C58980   7.986   4.509   1.216 -0.0272 -0.6768  0.0768
  428MOL0     C58981   7.832   4.373   0.783 -0.1317 -0.2588  0.7114
  428MOL0     C58982   7.701   4.426   0.815  0.2026 -0.9104  0.5160
  428MOL0     C58983   7.599   4.419   0.715 -0.2178 -0.0029  0.2993
  428MOL0     C58984   7.608   4.366   0.592 -0.1337 -1.3486 -0.4232
  428MOL0     O58985   7.488   4.376   0.517 -0.1865  0.6010  0.3060
  428MOL0     C58986   7.488   4.306   0.397  0.1619  0.2141  0.9631
  428MOL0     C58987   7.350   4.278   0.337  0.1527 -0.0211 -0.0146
  428MOL0     C58988   7.276   4.398   0.274 -0.0537 -0.3309  0.0682
  428MOL0     C58989   7.355   4.455   0.158 -0.1031 -0.2216  0.3966
  428MOL0     C58990   7.270   4.546   0.086 -0.3745 -0.3734 -0.5041
  428MOL0     C58991   7.182   4.607   0.027  0.5963  0.7971 -0.0835
  428MOL0     C58992   7.726   4.293   0.570 -0.4579  0.1846  0.3298
  428MOL0     C58993   7.841   4.296   0.659 -0.2826 -1.7909 -0.1929
  428MOL0     C58994   7.977   4.228   0.613  0.2676 -0.6128 -0.8456
  428MOL0     H58995   8.112   4.238   1.061 -0.5522 -1.2444  0.5159
  428MOL0     H58996   8.290   4.274   1.215 -1.7592 -0.6199 -2.1546
  428MOL0     H58997   8.460   4.388   1.273 -0.0656  0.4145 -0.8788
  428MOL0     H58998   8.381   4.311   1.416 -0.1131  0.9280  0.8265
  428MOL0     H58999   8.571   4.546   1.387  0.8492 -1.7550 -1.4886
  428MOL0     H59000   8.510   4.509   1.552  2.7206 -0.7153  1.6756
  428MOL0     H59001   8.606   4.293   1.554  2.5087 -0.9503  0.6075
  428MOL0     H59002   8.683   4.309   1.388  4.8654 -0.4350  1.2696
  428MOL0     H59003   8.826   4.481   1.441 -0.4963 -1.3486  0.1549
  428MOL0     H59004   8.781   4.490   1.600 -3.3017  0.5326 -0.0706
  428MOL0     H59005   8.980   4.340   1.517 -0.8148 -1.4046 -3.7577
  428MOL0     H59006   8.866   4.221   1.478  1.8637  0.0827 -1.0500
  428MOL0     H59007   8.857   4.330   1.763 -1.2198 -0.6044  1.1166
  428MOL0     H59008   8.789   4.179   1.704  0.3080 -0.8925 -1.9626
  428MOL0     H59009   9.026   4.086   1.670  1.6168  0.4831 -0.4583
  428MOL0     H59010   8.981   4.121   1.833  1.4740  0.1051  0.1125
  428MOL0     H59011   9.146   4.295   1.652 -1.5845 -1.5674 -0.8608
  428MOL0     H59012   9.112   4.326   1.820  0.3939  1.2004 -1.8038
  428MOL0     H59013   9.241   4.165   1.998  1.4055 -0.2277  0.1588
  428MOL0     H59014   9.541   4.073   2.027  0.7167  1.2656 -2.6395
  428MOL0     H59015   9.530   3.904   1.958  0.1117  0.1061  0.4508
  428MOL0     H59016   9.352   4.034   2.175  0.0336 -0.8553 -0.5377
  428MOL0     H59017   9.306   3.888   2.079  0.3054  0.4122 -1.4377
  428MOL0     H59018   9.399   3.819   2.286 -2.7850  0.5599 -2.4121
  428MOL0     H59019   9.508   3.770   2.151  0.0383 -0.4770  0.6622
  428MOL0     H59020   9.673   3.964   2.233  0.6623 -0.2777  0.0314
  428MOL0     H59021   9.546   4.028   2.325 -0.1542 -0.9078  3.3301
  428MOL0     H59022   9.787   4.084   2.401 -0.2335  0.8270  0.8247
  428MOL0     H59023  10.057   4.179   2.619 -0.1986  0.5147 -0.2600
  428MOL0     H59024   9.914   4.239   2.531 -2.9201 -2.4189 -0.5850
  428MOL0     H59025  10.046   4.158   2.443  0.1011  3.4483 -0.0004
  428MOL0     H59026  10.220   3.677   2.743 -0.2546 -1.3844  0.2858
  428MOL0     H59027  10.438   3.593   2.841 -2.0782 -1.5809  0.0044
  428MOL0     H59028  10.598   3.767   3.249  3.8591  0.1182  0.9025
  428MOL0     H59029  10.517   3.602   3.235 -0.4943 -0.2969  0.4991
  428MOL0     H59030  10.739   3.544   3.119  1.2569  1.8307 -1.4038
  428MOL0     H59031  10.796   3.703   3.179 -0.0885  1.3378  1.6123
  428MOL0     H59032  10.703   3.460   3.349  0.7982 -0.5859 -0.4869
  428MOL0     H59033  10.760   3.614   3.420  0.9715  2.4560 -0.5353
  428MOL0     H59034  10.972   3.578   3.338 -1.1468  0.8045 -0.1083
  428MOL0     H59035  10.912   3.434   3.232 -2.5349  0.1241 -0.5668
  428MOL0     H59036  10.928   3.459   3.528  0.6245  3.3206 -2.0123
  428MOL0     H59037  10.883   3.303   3.446 -0.5502 -0.4563 -3.4351
  428MOL0     H59038  11.158   3.444   3.433 -0.5301  0.5136 -1.2908
  428MOL0     H59039  11.132   3.299   3.347  2.7134 -1.3500  1.8883
  428MOL0     H59040  11.080   3.168   3.560  1.3010 -0.6937 -0.5933
  428MOL0     H59041  11.105   3.315   3.651 -1.4725  1.6738 -1.3279
  428MOL0     H59042  11.300   3.171   3.464  1.9639 -1.0696  1.0228
  428MOL0     H59043  11.309   3.163   3.643  2.5678  4.2648  2.9174
  428MOL0     H59044  10.338   3.818   3.199 -4.5452 -0.1784  2.0645
  428MOL0     H59045  10.158   3.891   3.102  1.9131  1.6471 -0.8253
  428MOL0     H59046   9.861   3.747   2.752  0.4287 -0.2580 -0.7478
  428MOL0     H59047   9.677   3.726   2.591 -0.7283  1.2224  0.9137
  428MOL0     H59048   8.090   4.620   1.370  0.1996  1.3344 -1.7327
  428MOL0     H59049   7.899   4.574   1.224 -0.9991 -2.0229  1.0495
  428MOL0     H59050   7.667   4.480   0.903 -2.2002  0.0557 -0.8998
  428MOL0     H59051   7.504   4.470   0.730 -1.0553 -0.1524 -3.3358
  428MOL0     H59052   7.560   4.355   0.330  0.4921  0.2698  1.3534
  428MOL0     H59053   7.526   4.206   0.421 -0.1598  0.3340  2.0404
  428MOL0     H59054   7.278   4.229   0.403 -1.3588 -1.3488 -2.4987
  428MOL0     H59055   7.369   4.199   0.264  1.5503 -2.3992  2.7053
  428MOL0     H59056   7.178   4.370   0.235 -0.9237  0.2578  1.7321
  428MOL0     H59057   7.268   4.484   0.341  1.7359  1.1894 -1.5428
  428MOL0     H59058   7.399   4.376   0.097  0.7029 -0.1846  0.9071
  428MOL0     H59059   7.438   4.510   0.203 -0.0541 -0.0445  0.0937
  428MOL0     H59060   7.108   4.660  -0.030 -1.7483  0.5602  2.5454
  428MOL0     H59061   7.740   4.238   0.478  1.8049 -0.9594  1.2874
  428MOL0     H59062   7.970   4.177   0.516 -0.2502 -0.6365 -0.7989
  428MOL0     H59063   8.048   4.310   0.600 -2.2311  2.0276  0.9421
  428MOL0     H59064   8.019   4.167   0.693  1.6180  0.5928 -0.6044
  429MOL0     O59065   4.586   6.339   9.376 -0.2615 -0.2189 -0.2805
  429MOL0     C59066   4.569   6.373   9.496  1.0792  0.2170 -0.0606
  429MOL0     O59067   4.663   6.399   9.586 -0.2013  0.5731  0.5495
  429MOL0     C59068   4.794   6.365   9.553  0.4321 -0.3575 -0.0711
  429MOL0     C59069   4.857   6.247   9.610 -0.3691  0.1462  0.1751
  429MOL0     C59070   4.993   6.227   9.585  0.5842 -0.2493 -0.4655
  429MOL0     C59071   5.065   6.311   9.500 -0.0368 -0.4972 -0.6630
  429MOL0     O59072   5.202   6.300   9.496 -0.2602  0.4138 -0.7572
  429MOL0     C59073   5.274   6.349   9.382  0.6558  0.4224 -1.0937
  429MOL0     C59074   5.379   6.240   9.338  0.1972 -0.2668 -0.0887
  429MOL0     C59075   5.491   6.290   9.245  0.1032  1.1658  0.1423
  429MOL0     C59076   5.459   6.302   9.099 -0.3420  0.4490  0.3665
  429MOL0     C59077   5.575   6.344   9.009  0.1625 -0.2716 -0.2205
  429MOL0     C59078   5.685   6.237   8.990 -0.5130 -0.4590 -0.3695
  429MOL0     C59079   5.809   6.301   8.928 -0.8327 -1.0978  0.5886
  429MOL0     C59080   5.892   6.369   9.038  0.5953 -0.5784 -0.5272
  429MOL0     N59081   6.026   6.408   8.984  0.4887  0.7521 -0.0354
  429MOL0     C59082   6.049   6.494   8.881 -0.0824 -0.0747  0.3201
  429MOL0     C59083   6.175   6.541   8.903 -0.2112  0.9840 -0.2306
  429MOL0     C59084   6.233   6.661   8.824 -0.4426 -0.3049 -0.3948
  429MOL0     C59085   6.383   6.643   8.784 -0.3941  0.9595  0.2087
  429MOL0     C59086   6.430   6.743   8.680 -0.1889  0.7195 -0.1920
  429MOL0     C59087   6.583   6.765   8.687 -0.3900 -0.2254 -0.6631
  429MOL0     O59088   6.614   6.832   8.568  1.3840 -0.2079 -0.4978
  429MOL0     C59089   6.651   6.961   8.560 -0.1286 -0.3002  0.4797
  429MOL0     C59090   6.690   7.001   8.436  0.9338 -0.3708 -0.1790
  429MOL0     C59091   6.737   7.130   8.411  0.5555 -0.3170  0.0691
  429MOL0     C59092   6.767   7.165   8.265 -0.0611  0.0875  0.4631
  429MOL0     C59093   6.734   7.228   8.517 -0.4857  1.3845 -0.3690
  429MOL0     C59094   6.792   7.353   8.475 -0.4876 -0.1530 -0.6845
  429MOL0     O59095   6.706   7.465   8.478 -0.2794 -0.2176 -0.5297
  429MOL0     C59096   6.739   7.590   8.424  0.1444  0.5144 -0.9055
  429MOL0     C59097   6.672   7.700   8.474  0.5718  0.3815 -0.1875
  429MOL0     C59098   6.681   7.824   8.406 -0.2211  0.8066 -0.2052
  429MOL0     C59099   6.778   7.841   8.302 -0.1204 -0.0628  1.0166
  429MOL0     O59100   6.813   7.961   8.248  0.8184  0.1855  0.1873
  429MOL0     C59101   6.702   8.045   8.200  0.8968  0.1040 -0.5190
  429MOL0     C59102   6.742   8.177   8.155  0.4412 -0.3388  0.5708
  429MOL0     C59103   6.632   8.283   8.139  0.8130  0.8023  0.8183
  429MOL0     C59104   6.541   8.251   8.018 -0.3045  0.3853  0.2987
  429MOL0     C59105   6.463   8.381   7.984 -0.4208 -0.1101 -0.3089
  429MOL0     C59106   6.372   8.340   7.871 -0.5365 -0.1055  0.5354
  429MOL0     C59107   6.298   8.464   7.825 -0.7350  0.1193  0.3435
  429MOL0     C59108   6.216   8.433   7.695 -0.8101  0.3055  0.1755
  429MOL0    Cl59109   6.063   8.360   7.724 -0.1541  0.3198 -0.4379
  429MOL0     C59110   6.844   7.724   8.247 -0.4878  0.5781  0.0473
  429MOL0     C59111   6.820   7.597   8.307 -0.4457 -0.0326 -0.3174
  429MOL0     O59112   6.915   7.357   8.459 -0.4139  0.4388  0.6642
  429MOL0     C59113   6.704   7.189   8.643  0.6705  0.0015  0.8034
  429MOL0     C59114   6.667   7.056   8.664 -0.2352  0.1000  0.4892
  429MOL0     N59115   6.225   6.481   9.020  0.0965 -0.1764 -0.1279
  429MOL0     N59116   6.138   6.400   9.064  0.1155  0.0166  0.4071
  429MOL0     C59117   5.002   6.425   9.447  0.0926  1.1329  0.2115
  429MOL0     C59118   4.866   6.447   9.471  0.5122 -0.0307 -0.4836
  429MOL0     C59119   4.432   6.403   9.543 -0.1207  0.1272  0.7229
  429MOL0     C59120   4.392   6.351   9.667  0.2686 -1.2472 -0.0251
  429MOL0     C59121   4.275   6.395   9.725  0.3584 -0.2313 -0.3427
  429MOL0     C59122   4.182   6.477   9.662 -0.4059 -0.3279  0.9362
  429MOL0     O59123   4.059   6.499   9.697  0.0480 -0.5397 -0.5423
  429MOL0     C59124   4.029   6.535   9.832  1.1810  1.0171 -0.3612
  429MOL0     C59125   3.892   6.581   9.843 -0.6012 -0.3919 -0.2479
  429MOL0     C59126   3.858   6.620   9.988  0.0861  0.6819  0.4454
  429MOL0     C59127   3.739   6.719  10.005  0.2625  0.8461 -0.2899
  429MOL0     C59128   3.710   6.728  10.149  0.2863 -0.7576  0.4553
  429MOL0     C59129   3.695   6.746  10.265  0.0050 -0.1918 -0.3860
  429MOL0     C59130   4.218   6.516   9.538 -0.0223  0.9020  0.0693
  429MOL0     C59131   4.337   6.487   9.477  0.1150  0.1758 -0.3219
  429MOL0     C59132   4.360   6.545   9.344  1.1926  0.0705 -0.2519
  429MOL0     H59133   4.793   6.187   9.674 -0.6158  0.3705  0.1411
  429MOL0     H59134   5.046   6.144   9.629  0.3904  0.8926  2.1087
  429MOL0     H59135   5.329   6.439   9.411 -1.2128  1.9257 -1.9869
  429MOL0     H59136   5.207   6.368   9.298  0.2063  2.1454 -0.3766
  429MOL0     H59137   5.416   6.195   9.431 -2.3114 -0.2850  0.9862
  429MOL0     H59138   5.343   6.154   9.281  2.1330 -1.1985  0.0007
  429MOL0     H59139   5.530   6.384   9.286  1.7203  0.2456  0.8316
  429MOL0     H59140   5.574   6.219   9.246 -1.2462 -0.4921  2.1540
  429MOL0     H59141   5.413   6.208   9.066 -1.8923  1.9174 -1.9922
  429MOL0     H59142   5.376   6.371   9.081  0.5463  1.2788 -0.7352
  429MOL0     H59143   5.606   6.440   9.053  0.5591 -1.4170  2.1706
  429MOL0     H59144   5.535   6.368   8.911  0.3606 -1.2888 -0.5627
  429MOL0     H59145   5.706   6.181   9.081 -4.1851 -0.7504  0.4348
  429MOL0     H59146   5.657   6.158   8.919 -0.5523 -0.7316 -0.0523
  429MOL0     H59147   5.776   6.373   8.852 -1.6174 -1.6678  0.3727
  429MOL0     H59148   5.857   6.216   8.881 -0.2684 -0.9973  0.9700
  429MOL0     H59149   5.844   6.464   9.063 -0.2372 -1.1508  0.1101
  429MOL0     H59150   5.898   6.304   9.126 -0.6201  2.1304  1.7206
  429MOL0     H59151   5.976   6.521   8.806  0.3610 -1.0616 -0.5025
  429MOL0     H59152   6.239   6.742   8.897  1.9140 -1.1167  0.4138
  429MOL0     H59153   6.162   6.679   8.743 -2.4148 -1.0590  1.0921
  429MOL0     H59154   6.439   6.647   8.878 -0.2971 -2.3220  0.4168
  429MOL0     H59155   6.398   6.541   8.746 -4.9630  0.8425 -1.8244
  429MOL0     H59156   6.406   6.709   8.578  3.3702  2.0482 -1.6586
  429MOL0     H59157   6.374   6.834   8.702 -0.5327  0.2396  0.9566
  429MOL0     H59158   6.616   6.810   8.781  0.0205 -0.6226 -0.6114
  429MOL0     H59159   6.626   6.664   8.689  0.5528  0.1703 -0.8033
  429MOL0     H59160   6.687   6.933   8.352  1.7244  1.8559 -2.1203
  429MOL0     H59161   6.723   7.254   8.220  0.3935 -0.9779 -2.3017
  429MOL0     H59162   6.739   7.077   8.206 -1.1018 -1.1826  2.6987
  429MOL0     H59163   6.874   7.187   8.256 -0.6481  2.3967 -5.5198
  429MOL0     H59164   6.617   7.696   8.567  0.0396 -0.2653 -0.5203
  429MOL0     H59165   6.629   7.912   8.443 -1.4637  1.1198 -2.5357
  429MOL0     H59166   6.657   8.006   8.108  0.3804 -1.4040  0.3434
  429MOL0     H59167   6.623   8.049   8.275 -0.5850  3.0868 -2.0610
  429MOL0     H59168   6.800   8.220   8.237 -0.9273  0.2007  1.2892
  429MOL0     H59169   6.805   8.161   8.067  1.5793 -1.4855  1.5450
  429MOL0     H59170   6.672   8.383   8.122 -3.7528  2.5666 -1.0947
  429MOL0     H59171   6.575   8.283   8.232  0.5739 -1.9210  0.7644
  429MOL0     H59172   6.468   8.172   8.038  1.9283 -2.5358 -2.0881
  429MOL0     H59173   6.604   8.219   7.934 -0.8201  2.3677 -0.8927
  429MOL0     H59174   6.415   8.425   8.072  0.8080 -1.9806  1.3846
  429MOL0     H59175   6.536   8.458   7.957 -1.1497  1.0807  0.9542
  429MOL0     H59176   6.303   8.257   7.886  0.0267 -0.8307 -0.6903
  429MOL0     H59177   6.436   8.305   7.789  0.5527 -0.3147  1.4538
  429MOL0     H59178   6.366   8.550   7.820 -2.9994  1.9328 -1.5900
  429MOL0     H59179   6.227   8.490   7.904  0.2156 -0.6401  1.4761
  429MOL0     H59180   6.276   8.362   7.636 -3.4799 -1.2683 -0.8028
  429MOL0     H59181   6.207   8.528   7.642 -0.0234  1.0189  1.2759
  429MOL0     H59182   6.901   7.744   8.157 -0.4215 -1.5858 -0.4359
  429MOL0     H59183   6.863   7.508   8.263  0.2566  0.8860 -1.5687
  429MOL0     H59184   6.706   7.258   8.727 -0.5735 -0.8769  1.5960
  429MOL0     H59185   6.645   7.029   8.767 -1.5365  1.5056  0.6133
  429MOL0     H59186   5.070   6.492   9.397  0.6197 -0.4445 -1.2700
  429MOL0     H59187   4.819   6.537   9.433 -1.3034 -0.7982 -0.1555
  429MOL0     H59188   4.452   6.280   9.722  0.1802 -1.4196 -0.1521
  429MOL0     H59189   4.242   6.354   9.820  0.8719 -0.9276 -0.4498
  429MOL0     H59190   4.032   6.443   9.890 -0.0214 -0.7386 -2.8835
  429MOL0     H59191   4.105   6.605   9.869  1.7849 -0.8446  2.1180
  429MOL0     H59192   3.811   6.515   9.810 -3.7226  2.7474  0.5453
  429MOL0     H59193   3.887   6.671   9.781 -0.2103 -0.6610 -0.6823
  429MOL0     H59194   3.842   6.529  10.046  0.6512  1.4327  1.8294
  429MOL0     H59195   3.944   6.664  10.040  0.2037  0.9936 -0.0035
  429MOL0     H59196   3.659   6.690   9.936  0.7905  0.9769 -0.9723
  429MOL0     H59197   3.768   6.822   9.979  0.2368  0.8443 -0.3235
  429MOL0     H59198   3.695   6.756  10.371  1.5686  0.4656 -0.4297
  429MOL0     H59199   4.136   6.567   9.489 -0.4978  0.7024  0.6419
  429MOL0     H59200   4.387   6.467   9.272  0.3257  0.9300 -1.5514
  429MOL0     H59201   4.257   6.570   9.319  0.2482  0.3324  3.3938
  429MOL0     H59202   4.433   6.626   9.340  0.9631  0.3014  0.1652
  430MOL0     O59203   2.331   7.089   3.637 -0.2279 -0.0683 -0.0471
  430MOL0     C59204   2.374   6.999   3.712 -1.1175  0.2777 -0.3513
  430MOL0     O59205   2.332   6.976   3.844  0.2926  0.1455 -0.3364
  430MOL0     C59206   2.215   7.035   3.885 -0.0759  0.0702 -0.0572
  430MOL0     C59207   2.094   6.968   3.884 -0.6261  0.6709 -0.1319
  430MOL0     C59208   1.991   7.031   3.948  0.2816 -0.7065  0.5313
  430MOL0     C59209   1.989   7.163   3.993  0.4766 -0.6515  0.0203
  430MOL0     O59210   1.873   7.216   4.042 -0.4808 -0.9366 -0.7845
  430MOL0     C59211   1.760   7.178   3.971  0.2331  0.1358  0.7464
  430MOL0     C59212   1.658   7.295   3.983 -0.7005  0.1308  0.2484
  430MOL0     C59213   1.584   7.308   4.116 -0.7422 -0.0302 -0.6357
  430MOL0     C59214   1.455   7.395   4.105 -0.6817  0.5673 -0.5750
  430MOL0     C59215   1.331   7.314   4.058 -0.9273 -0.4758  0.7672
  430MOL0     C59216   1.214   7.401   4.024  0.2991 -0.4547  0.4716
  430MOL0     C59217   1.093   7.306   4.024  0.6423  0.6625 -0.0930
  430MOL0     C59218   0.958   7.367   3.978 -0.6424  0.7228 -0.1882
  430MOL0     N59219   0.844   7.281   3.979  0.9593  0.0961  0.3892
  430MOL0     C59220   0.838   7.154   3.916 -0.0158 -0.3367  0.0566
  430MOL0     C59221   0.712   7.114   3.936 -1.1825 -0.3811 -0.2633
  430MOL0     C59222   0.665   6.976   3.884  0.5152  0.2306 -0.3987
  430MOL0     C59223   0.690   6.967   3.730 -0.1878 -0.2973 -0.0641
  430MOL0     C59224   0.735   6.835   3.682 -0.5916  0.2318  0.8175
  430MOL0     C59225   0.872   6.792   3.739  0.0945 -0.2814 -0.4515
  430MOL0     O59226   0.966   6.901   3.733 -0.2308  0.5445  0.2821
  430MOL0     C59227   1.103   6.883   3.738 -0.4084  0.4606 -0.2958
  430MOL0     C59228   1.181   6.981   3.692 -0.4857  0.0464  0.7182
  430MOL0     C59229   1.328   6.976   3.693  0.3656 -0.2590 -0.1725
  430MOL0     C59230   1.400   7.081   3.606 -0.6866 -0.3102 -0.0406
  430MOL0     C59231   1.387   6.863   3.756  0.4219 -0.2693  0.5382
  430MOL0     C59232   1.530   6.845   3.772  0.6829  0.4864 -0.7211
  430MOL0     O59233   1.572   6.714   3.799 -0.1509  0.7602  0.5806
  430MOL0     C59234   1.698   6.702   3.860  0.7497  0.6083  0.4362
  430MOL0     C59235   1.716   6.743   3.988 -0.2563 -0.0041 -0.0517
  430MOL0     C59236   1.844   6.727   4.055  0.1843 -0.6833  0.2874
  430MOL0     C59237   1.948   6.671   3.976 -0.3611  0.2114  0.1725
  430MOL0     O59238   2.084   6.664   4.008 -0.3568  0.8590 -0.7505
  430MOL0     C59239   2.122   6.702   4.140  0.9138  0.1537  0.3657
  430MOL0     C59240   2.271   6.684   4.163 -0.7634  0.0893  0.4571
  430MOL0     C59241   2.353   6.782   4.085 -0.5300 -1.0203  0.5108
  430MOL0     C59242   2.498   6.764   4.100  0.1626  0.2548 -0.3342
  430MOL0     C59243   2.580   6.886   4.043 -0.8384 -0.0500  0.1346
  430MOL0     C59244   2.730   6.852   4.045  0.6886  0.5922 -0.4308
  430MOL0     C59245   2.811   6.956   3.984 -0.6958 -0.1374 -0.3724
  430MOL0     C59246   2.948   6.962   4.049 -0.0382 -0.0261 -0.3580
  430MOL0    Cl59247   2.943   7.020   4.220  0.3938  0.3300 -0.7423
  430MOL0     C59248   1.923   6.632   3.842  0.5248  0.4298  0.5399
  430MOL0     C59249   1.793   6.635   3.788  0.0309  0.0638  0.0244
  430MOL0     O59250   1.602   6.943   3.760 -0.1042  0.2870 -0.1277
  430MOL0     C59251   1.296   6.763   3.808 -0.8414  0.5057 -0.7223
  430MOL0     C59252   1.158   6.768   3.803 -0.5305 -0.6946  0.6894
  430MOL0     N59253   0.652   7.203   4.019 -0.1517 -0.6557  0.2700
  430MOL0     N59254   0.722   7.313   4.037 -0.9641  0.9916 -0.5982
  430MOL0     C59255   2.115   7.239   3.989 -0.4081 -0.5523 -0.2543
  430MOL0     C59256   2.222   7.168   3.944  0.2453  0.2142  0.2801
  430MOL0     C59257   2.485   6.910   3.660  0.3332  0.1036 -0.6966
  430MOL0     C59258   2.483   6.772   3.707  0.5479 -0.4663  0.0799
  430MOL0     C59259   2.580   6.680   3.669 -0.3331 -0.0154 -0.1348
  430MOL0     C59260   2.682   6.717   3.582  0.8167 -0.7318  0.5034
  430MOL0     O59261   2.774   6.628   3.526 -0.0996 -0.1795 -0.3441
  430MOL0     C59262   2.764   6.491   3.567 -0.3675  0.0390 -0.2703
  430MOL0     C59263   2.861   6.404   3.488  0.0415 -0.2719  0.0676
  430MOL0     C59264   3.005   6.453   3.490  0.3417  0.0540  0.2764
  430MOL0     C59265   3.080   6.452   3.627  0.0528 -0.5160  0.3978
  430MOL0     C59266   3.060   6.573   3.707  0.1727 -0.0305 -0.3872
  430MOL0     C59267   3.029   6.675   3.769 -0.8672  0.1429 -0.2387
  430MOL0     C59268   2.692   6.854   3.552  0.5408 -0.9803 -0.1955
  430MOL0     C59269   2.597   6.949   3.586 -0.7131  0.0108  0.1603
  430MOL0     C59270   2.622   7.096   3.564 -0.4481  0.0217  0.1346
  430MOL0     H59271   2.072   6.867   3.850 -2.1121  0.9585 -0.0900
  430MOL0     H59272   1.905   6.964   3.950 -0.1937 -0.1571 -0.5990
  430MOL0     H59273   1.706   7.092   4.009 -0.9658 -1.0049 -3.0403
  430MOL0     H59274   1.788   7.156   3.867 -0.4326 -1.2267  0.8422
  430MOL0     H59275   1.699   7.394   3.964 -0.5996  0.0124 -0.1464
  430MOL0     H59276   1.587   7.274   3.902  0.1496  0.5019 -0.6111
  430MOL0     H59277   1.572   7.209   4.159  1.5976 -0.4751 -0.8500
  430MOL0     H59278   1.649   7.357   4.189 -1.3754 -0.6088  0.3290
  430MOL0     H59279   1.426   7.443   4.198 -1.6818 -0.7950 -0.1410
  430MOL0     H59280   1.480   7.474   4.034 -2.8238 -0.3532 -2.4818
  430MOL0     H59281   1.306   7.238   4.133 -2.2741  1.0289  1.9319
  430MOL0     H59282   1.350   7.266   3.962 -1.6780 -0.8976  0.8252
  430MOL0     H59283   1.201   7.485   4.093  2.7431  2.1897 -2.0149
  430MOL0     H59284   1.228   7.439   3.922 -0.3495  1.3117  0.9897
  430MOL0     H59285   1.080   7.270   4.126 -1.8676  1.5450 -0.0223
  430MOL0     H59286   1.124   7.224   3.958  0.9088 -1.3836  2.4393
  430MOL0     H59287   0.939   7.445   4.053  1.0907  0.8760  0.1246
  430MOL0     H59288   0.975   7.417   3.882  2.8313  0.9926  0.4484
  430MOL0     H59289   0.919   7.093   3.875 -0.3188 -0.1525 -0.8536
  430MOL0     H59290   0.558   6.963   3.904 -0.1633  2.8029 -1.9191
  430MOL0     H59291   0.723   6.905   3.944 -2.6313 -0.2782  2.3280
  430MOL0     H59292   0.596   6.994   3.681  1.0056  2.9921 -0.7509
  430MOL0     H59293   0.753   7.052   3.702 -2.4355  1.1770 -0.9956
  430MOL0     H59294   0.659   6.756   3.693 -1.2963  1.0098  1.7550
  430MOL0     H59295   0.749   6.852   3.575 -1.0345 -1.7978  0.3844
  430MOL0     H59296   0.875   6.763   3.844  0.9670  2.3476  0.3136
  430MOL0     H59297   0.913   6.708   3.682 -1.3545 -0.5434 -1.1792
  430MOL0     H59298   1.136   7.069   3.647  1.2493 -1.3786 -4.4455
  430MOL0     H59299   1.325   7.150   3.566  0.1708 -0.8772 -2.8849
  430MOL0     H59300   1.445   7.036   3.517 -4.0067  0.5878 -2.4042
  430MOL0     H59301   1.474   7.141   3.658  1.4345 -2.7593 -0.0547
  430MOL0     H59302   1.635   6.802   4.029 -3.1329 -2.3256 -1.9495
  430MOL0     H59303   1.861   6.785   4.145 -1.9153  1.7802 -0.7502
  430MOL0     H59304   2.087   6.805   4.149 -1.5996 -0.7335  1.8301
  430MOL0     H59305   2.069   6.647   4.219  0.6106 -0.4317 -0.2324
  430MOL0     H59306   2.291   6.666   4.269  1.4263 -1.0541 -0.0903
  430MOL0     H59307   2.306   6.586   4.129 -0.9031 -0.8488  2.7801
  430MOL0     H59308   2.334   6.882   4.126 -1.4613 -1.0249  0.1091
  430MOL0     H59309   2.335   6.774   3.978  1.4923 -0.1553  0.0597
  430MOL0     H59310   2.519   6.663   4.061 -0.7675  0.2231 -0.7864
  430MOL0     H59311   2.507   6.760   4.208 -2.3114 -1.4574 -0.0940
  430MOL0     H59312   2.557   6.896   3.936  1.5437 -1.3085 -0.5577
  430MOL0     H59313   2.565   6.979   4.097 -1.5080 -0.6811  1.0679
  430MOL0     H59314   2.750   6.756   3.998 -0.3130 -1.0114  2.2070
  430MOL0     H59315   2.761   6.850   4.150 -0.9669  1.3521  0.1100
  430MOL0     H59316   2.760   7.052   3.995 -1.3574 -0.5581  0.3352
  430MOL0     H59317   2.828   6.933   3.878 -2.2397 -1.4162 -0.3850
  430MOL0     H59318   3.013   7.029   3.992  0.3396  1.7098  1.9582
  430MOL0     H59319   3.000   6.866   4.045  1.4171  0.6223  1.3351
  430MOL0     H59320   2.000   6.609   3.770  0.0180 -0.6014  0.2988
  430MOL0     H59321   1.767   6.608   3.686 -1.9539  0.1338  0.4750
  430MOL0     H59322   1.345   6.677   3.853  2.4900  1.5629 -2.0332
  430MOL0     H59323   1.103   6.684   3.843  1.1230 -2.5390 -0.7044
  430MOL0     H59324   2.114   7.343   4.019  2.3344  0.3853 -2.9287
  430MOL0     H59325   2.315   7.223   3.935  0.1745  0.0975 -1.3887
  430MOL0     H59326   2.405   6.745   3.777  0.5735 -1.5980 -0.3051
  430MOL0     H59327   2.574   6.579   3.708 -2.6143 -0.7224 -2.0250
  430MOL0     H59328   2.791   6.502   3.672 -0.1395  1.0226 -0.4155
  430MOL0     H59329   2.662   6.455   3.547 -0.6731  0.8692 -0.2754
  430MOL0     H59330   2.825   6.388   3.386 -1.5594 -4.1967  1.0758
  430MOL0     H59331   2.860   6.304   3.532 -1.1904 -0.8358 -1.1747
  430MOL0     H59332   3.069   6.394   3.423  1.5028  0.1081  1.3053
  430MOL0     H59333   3.000   6.550   3.440  1.0559  0.1190  0.3225
  430MOL0     H59334   3.189   6.447   3.619  0.8187  2.9693  4.5564
  430MOL0     H59335   3.048   6.363   3.682 -3.7636  1.6840  2.1715
  430MOL0     H59336   2.992   6.765   3.813 -0.8302 -0.8719  1.9881
  430MOL0     H59337   2.782   6.892   3.504  0.2353  0.9434  0.6807
  430MOL0     H59338   2.535   7.144   3.516  0.0599 -0.7643 -1.6458
  430MOL0     H59339   2.624   7.133   3.667  0.1342 -0.2709  0.2293
  430MOL0     H59340   2.717   7.117   3.515 -1.4514  1.1047 -1.4398
  431MOL0     O59341   6.439   2.286   1.757  0.4479  0.4658 -0.2111
  431MOL0     C59342   6.464   2.164   1.782  0.0014  0.2377 -0.4314
  431MOL0     O59343   6.372   2.060   1.761  0.7769  0.2598 -0.0259
  431MOL0     C59344   6.238   2.089   1.730  0.6738 -0.9167 -0.6457
  431MOL0     C59345   6.138   2.080   1.829  0.1218  0.7479 -0.6354
  431MOL0     C59346   6.000   2.080   1.793  0.0497 -0.7804  0.5759
  431MOL0     C59347   5.957   2.111   1.665  0.5191 -0.2870  0.9056
  431MOL0     O59348   5.815   2.105   1.651  0.1425 -0.2312 -0.1761
  431MOL0     C59349   5.762   2.163   1.534 -0.2647 -0.3598  0.2117
  431MOL0     C59350   5.632   2.099   1.527  0.2441  0.2959  0.2161
  431MOL0     C59351   5.593   2.064   1.378 -0.3201 -0.2016  0.3186
  431MOL0     C59352   5.440   2.025   1.387 -0.0895 -0.0959  0.5722
  431MOL0     C59353   5.386   1.978   1.252 -0.2388  0.1804 -0.3034
  431MOL0     C59354   5.238   1.973   1.231 -0.5618 -0.5185 -0.7339
  431MOL0     C59355   5.163   1.882   1.344 -0.2653  0.0202  0.8134
  431MOL0     C59356   5.199   1.732   1.315  0.1280  0.7125  0.5080
  431MOL0     N59357   5.157   1.697   1.181 -0.6550 -0.1426 -0.6509
  431MOL0     C59358   5.244   1.671   1.076 -0.9866  0.6612 -0.8740
  431MOL0     C59359   5.167   1.645   0.972  0.1381 -0.1546 -0.4212
  431MOL0     C59360   5.237   1.591   0.855 -0.3408  0.5269  0.6431
  431MOL0     C59361   5.224   1.438   0.863 -0.0222  0.2159 -0.2381
  431MOL0     C59362   5.322   1.375   0.973 -0.0354 -0.3647  0.2034
  431MOL0     C59363   5.304   1.226   0.986  0.4091  1.0596  0.5267
  431MOL0     O59364   5.390   1.157   0.892  0.2641  0.1250  0.0624
  431MOL0     C59365   5.525   1.137   0.923 -0.0329  0.5951 -0.4607
  431MOL0     C59366   5.584   1.168   1.052  0.8936  0.0344 -0.4820
  431MOL0     C59367   5.720   1.168   1.084 -1.2008 -0.6233  0.6592
  431MOL0     C59368   5.750   1.212   1.228 -0.2078  0.7325 -0.5969
  431MOL0     C59369   5.813   1.122   0.979  0.7246 -0.6045  1.0076
  431MOL0     C59370   5.956   1.111   1.001 -0.4171  0.2307  0.0601
  431MOL0     O59371   6.027   1.040   0.902 -0.0983  0.0365  0.0328
  431MOL0     C59372   6.166   1.038   0.890  0.9785  0.0516 -0.3384
  431MOL0     C59373   6.250   1.151   0.905  0.2714  0.3565  0.1103
  431MOL0     C59374   6.395   1.136   0.881  0.4108 -1.1735 -0.4320
  431MOL0     C59375   6.444   1.018   0.825  0.8280  0.2965 -0.7913
  431MOL0     O59376   6.573   0.995   0.785 -0.7767 -0.1770  0.0081
  431MOL0     C59377   6.655   1.111   0.764  0.4349 -0.0112  0.3288
  431MOL0     C59378   6.762   1.118   0.874  0.5293  0.0550 -0.1654
  431MOL0     C59379   6.843   0.990   0.901 -0.1810  0.3667 -0.7869
  431MOL0     C59380   6.941   1.032   1.013 -0.2547 -0.1003  0.6616
  431MOL0     C59381   7.031   0.910   1.031 -0.9658  0.0247  0.7107
  431MOL0     C59382   7.125   0.930   1.148  0.2590  0.3706 -0.3917
  431MOL0     C59383   7.155   0.792   1.209  0.2695 -0.5611 -0.4813
  431MOL0     C59384   7.258   0.798   1.318  0.0403  0.4854  0.5038
  431MOL0    Cl59385   7.224   0.920   1.442  0.2353 -0.1849  0.1854
  431MOL0     C59386   6.354   0.904   0.822 -0.5669 -0.3175 -0.0940
  431MOL0     C59387   6.221   0.913   0.851  0.7935  0.3752  0.1613
  431MOL0     O59388   6.006   1.169   1.093 -0.2674  0.6898  0.1070
  431MOL0     C59389   5.752   1.082   0.856  0.0012 -0.3608  0.3763
  431MOL0     C59390   5.618   1.089   0.827  0.0785  0.4145  0.2519
  431MOL0     N59391   5.035   1.636   1.015  0.3137 -0.0639  0.5692
  431MOL0     N59392   5.031   1.677   1.134 -0.4232 -0.9305 -0.6326
  431MOL0     C59393   6.056   2.132   1.565  0.0351  0.2483  1.0899
  431MOL0     C59394   6.196   2.117   1.597  1.0901  0.4080 -0.0529
  431MOL0     C59395   6.595   2.125   1.839  0.2326  0.0465 -0.5489
  431MOL0     C59396   6.614   1.983   1.846 -0.2266  0.0347 -0.8019
  431MOL0     C59397   6.730   1.928   1.890  0.2804 -0.0474 -0.0408
  431MOL0     C59398   6.830   2.001   1.948 -0.0942  0.6819  0.1572
  431MOL0     O59399   6.941   1.936   1.990  0.2677 -0.0143 -0.5935
  431MOL0     C59400   7.012   1.991   2.101 -0.3130  0.1711 -0.6803
  431MOL0     C59401   7.085   1.895   2.190  0.3077 -0.1828  0.4930
  431MOL0     C59402   7.195   1.827   2.109  0.6368  0.3938  0.4809
  431MOL0     C59403   7.242   1.711   2.192 -0.8629 -0.0264 -0.1844
  431MOL0     C59404   7.356   1.639   2.127  0.5949 -0.0962 -0.4298
  431MOL0     C59405   7.463   1.602   2.071 -0.2051 -0.1926  0.1293
  431MOL0     C59406   6.819   2.139   1.942 -0.0441 -0.7890  0.6564
  431MOL0     C59407   6.702   2.203   1.887 -0.3276 -0.0094  0.1020
  431MOL0     C59408   6.686   2.354   1.891 -0.8522 -0.2028 -0.4091
  431MOL0     H59409   6.165   2.053   1.931  1.2073 -1.7513 -1.4928
  431MOL0     H59410   5.922   2.070   1.868 -0.1349 -1.6581  0.2775
  431MOL0     H59411   5.813   2.124   1.445 -0.3501 -1.1317  0.4972
  431MOL0     H59412   5.750   2.272   1.538 -0.7530 -0.3305 -1.3526
  431MOL0     H59413   5.624   2.009   1.588 -1.4161 -0.1576 -0.6190
  431MOL0     H59414   5.558   2.173   1.561  0.1389  0.1498  0.3062
  431MOL0     H59415   5.611   2.148   1.309 -0.1679 -0.3747  0.1460
  431MOL0     H59416   5.647   1.974   1.346 -0.9907 -0.4879 -0.0392
  431MOL0     H59417   5.425   1.951   1.466  2.1543  0.2661  1.4130
  431MOL0     H59418   5.385   2.118   1.408 -1.8293 -0.4130 -2.0338
  431MOL0     H59419   5.423   1.879   1.226 -0.0701 -0.1963  1.2784
  431MOL0     H59420   5.412   2.051   1.175  1.7299  0.2749  0.4076
  431MOL0     H59421   5.193   2.073   1.238 -1.2386 -0.8953  0.8468
  431MOL0     H59422   5.216   1.928   1.134  0.1893  1.0592 -1.6735
  431MOL0     H59423   5.054   1.887   1.338 -0.1924  0.4558 -0.3290
  431MOL0     H59424   5.200   1.922   1.439 -0.9119  2.9265 -0.0483
  431MOL0     H59425   5.305   1.716   1.335  0.1776  1.3511  0.7931
  431MOL0     H59426   5.149   1.666   1.386 -0.1539  0.2010 -0.1609
  431MOL0     H59427   5.352   1.674   1.068 -0.8701 -0.4270  0.0615
  431MOL0     H59428   5.341   1.626   0.851  1.1913 -3.6283 -0.5863
  431MOL0     H59429   5.188   1.634   0.767 -1.1649 -2.5310 -0.5008
  431MOL0     H59430   5.126   1.398   0.891 -1.1043  0.8067 -2.8964
  431MOL0     H59431   5.250   1.399   0.765  0.3736 -1.4325  0.4851
  431MOL0     H59432   5.423   1.405   0.943 -1.6260  1.4680 -4.4175
  431MOL0     H59433   5.309   1.413   1.075  1.5438 -0.7763  0.5870
  431MOL0     H59434   5.327   1.193   1.088  0.2794  0.9470  0.5207
  431MOL0     H59435   5.199   1.198   0.968  0.7229  0.0816  0.1195
  431MOL0     H59436   5.515   1.193   1.132  1.9147 -2.4889  1.3105
  431MOL0     H59437   5.820   1.146   1.279  0.3004  1.6500 -0.0868
  431MOL0     H59438   5.661   1.216   1.291 -0.6012  3.0616 -1.2277
  431MOL0     H59439   5.806   1.305   1.219  0.9241  0.2163  0.7262
  431MOL0     H59440   6.211   1.249   0.928  0.6428  0.9448 -1.5908
  431MOL0     H59441   6.477   1.203   0.903 -0.1798  0.3433 -2.5130
  431MOL0     H59442   6.688   1.107   0.660 -2.5865 -0.0268 -0.7444
  431MOL0     H59443   6.610   1.211   0.763  2.6961  1.0663  1.5062
  431MOL0     H59444   6.827   1.202   0.848  0.1827 -0.2540 -2.1867
  431MOL0     H59445   6.724   1.142   0.974  2.2975  2.1873  0.0852
  431MOL0     H59446   6.893   0.945   0.815 -1.5525  0.8513 -1.8890
  431MOL0     H59447   6.774   0.917   0.944 -1.1522  0.2162 -2.5082
  431MOL0     H59448   6.893   1.067   1.105 -0.0828  1.0250  0.3502
  431MOL0     H59449   7.005   1.112   0.975  1.3659 -2.9615 -3.2930
  431MOL0     H59450   6.960   0.830   1.056  0.2014 -1.3645 -0.2459
  431MOL0     H59451   7.088   0.875   0.945 -1.2525 -1.4575  1.0944
  431MOL0     H59452   7.079   0.989   1.228  1.2929 -0.1952  0.6479
  431MOL0     H59453   7.210   0.988   1.111  0.0063  1.5242  0.7805
  431MOL0     H59454   7.197   0.727   1.132  0.2409  2.2315 -3.0191
  431MOL0     H59455   7.070   0.751   1.265  1.8197  0.7429  3.1110
  431MOL0     H59456   7.353   0.828   1.272  0.8438 -2.3273  0.1267
  431MOL0     H59457   7.264   0.698   1.362  0.4546  0.5516  0.5984
  431MOL0     H59458   6.401   0.813   0.786 -0.3951  1.2787 -4.4278
  431MOL0     H59459   6.161   0.823   0.841  1.5452 -0.2653  1.2038
  431MOL0     H59460   5.818   1.058   0.774  1.4244 -0.5856  1.5548
  431MOL0     H59461   5.584   1.081   0.724 -0.1640  1.1447  0.2629
  431MOL0     H59462   6.015   2.156   1.467 -0.2875  0.3506  1.2483
  431MOL0     H59463   6.265   2.118   1.514  0.2742 -0.1237 -0.7499
  431MOL0     H59464   6.544   1.907   1.813  0.5450 -1.9533  1.7942
  431MOL0     H59465   6.732   1.823   1.918 -1.5505  0.5823  2.9236
  431MOL0     H59466   7.086   2.058   2.057  0.1031 -0.7431 -1.4167
  431MOL0     H59467   6.937   2.043   2.162 -0.5731  1.7139 -2.2491
  431MOL0     H59468   7.013   1.827   2.237  0.0529  1.1477  2.1219
  431MOL0     H59469   7.132   1.951   2.271 -2.1871  2.4749  0.2508
  431MOL0     H59470   7.146   1.792   2.017 -1.1835  0.3512  1.4190
  431MOL0     H59471   7.271   1.903   2.091 -0.6110  1.2311 -1.5662
  431MOL0     H59472   7.161   1.653   2.237  1.2100 -1.8324  1.4359
  431MOL0     H59473   7.278   1.762   2.282 -2.9433 -2.6465  2.3408
  431MOL0     H59474   7.565   1.584   2.045  0.1007  0.4713  0.8171
  431MOL0     H59475   6.896   2.202   1.985 -0.3881  1.1404 -1.3746
  431MOL0     H59476   6.598   2.377   1.953 -0.8543  1.8559 -1.0901
  431MOL0     H59477   6.783   2.390   1.926  0.8588 -3.5513 -1.2786
  431MOL0     H59478   6.674   2.400   1.793  1.2986  0.6209 -0.3381
  432MOL0     O59479   5.037   2.943   2.107  0.1646 -0.6163  0.0041
  432MOL0     C59480   4.987   3.050   2.106  0.2815  0.3210 -0.7502
  432MOL0     O59481   5.029   3.164   2.171  0.3897  1.2369  0.7777
  432MOL0     C59482   5.152   3.161   2.221 -0.4506  0.2577  0.2321
  432MOL0     C59483   5.250   3.248   2.166  0.4975  0.4933  0.7053
  432MOL0     C59484   5.382   3.252   2.210  0.3711  0.2539 -0.5268
  432MOL0     C59485   5.424   3.155   2.308 -0.0422 -0.4982 -0.7950
  432MOL0     O59486   5.561   3.162   2.334  0.5437  0.2758 -1.0243
  432MOL0     C59487   5.611   3.056   2.425 -0.3217  0.2845 -0.3028
  432MOL0     C59488   5.763   3.053   2.430  0.6147  0.2497 -0.1252
  432MOL0     C59489   5.817   2.966   2.324 -0.1985  0.2895 -0.6498
  432MOL0     C59490   5.966   2.978   2.304 -1.1361 -0.5828  0.3525
  432MOL0     C59491   6.006   2.888   2.188 -0.0894 -0.1587  0.5560
  432MOL0     C59492   6.002   2.733   2.213  0.0554  0.3036 -0.3180
  432MOL0     C59493   6.086   2.693   2.337 -0.5534  0.6263 -0.3925
  432MOL0     C59494   6.082   2.547   2.363  0.5353 -0.8054 -0.4888
  432MOL0     N59495   6.145   2.509   2.489 -0.2192  0.1453 -0.0950
  432MOL0     C59496   6.268   2.545   2.535  0.2230  0.2392 -0.3107
  432MOL0     C59497   6.286   2.475   2.653  0.0516  0.2345  0.1860
  432MOL0     C59498   6.398   2.499   2.742 -0.5764 -0.4935  0.3292
  432MOL0     C59499   6.354   2.514   2.892 -0.7310 -0.6341 -0.2169
  432MOL0     C59500   6.481   2.550   2.971  0.5805  0.0872 -0.6043
  432MOL0     C59501   6.459   2.566   3.129  0.5164 -0.6982  0.2586
  432MOL0     O59502   6.580   2.564   3.195  0.3997  0.1509  0.0958
  432MOL0     C59503   6.635   2.439   3.234  0.5919 -0.5008 -0.7037
  432MOL0     C59504   6.578   2.312   3.204 -0.2511  0.8720  0.3993
  432MOL0     C59505   6.636   2.186   3.238 -0.1450 -0.1117 -0.2102
  432MOL0     C59506   6.571   2.056   3.190  0.5362  0.1231  0.0117
  432MOL0     C59507   6.751   2.189   3.317 -0.8269  0.3499 -0.0450
  432MOL0     C59508   6.830   2.067   3.359  0.4214  0.3968  0.2699
  432MOL0     O59509   6.891   2.083   3.474  0.4976  0.1884  0.1592
  432MOL0     C59510   6.998   2.005   3.502  0.2410 -0.2534  0.9439
  432MOL0     C59511   7.128   2.056   3.493  0.1208 -0.1324 -0.6597
  432MOL0     C59512   7.235   1.984   3.546 -0.9746 -0.0906 -0.4972
  432MOL0     C59513   7.217   1.849   3.595 -0.1568  0.2366  0.6745
  432MOL0     O59514   7.317   1.767   3.647  0.0375  0.2467 -0.4519
  432MOL0     C59515   7.458   1.786   3.628  0.1639 -0.6547  0.4099
  432MOL0     C59516   7.542   1.747   3.747  0.1532 -1.1790 -0.1198
  432MOL0     C59517   7.696   1.750   3.716 -0.6742 -0.3959 -0.0169
  432MOL0     C59518   7.784   1.680   3.825  0.4111  1.3274  0.4283
  432MOL0     C59519   7.926   1.721   3.809 -0.0216 -0.4176  0.3569
  432MOL0     C59520   8.020   1.678   3.927  0.0853  0.2099  0.3669
  432MOL0     C59521   8.016   1.523   3.968  0.7348  0.7047  1.4256
  432MOL0     C59522   8.072   1.433   3.856  0.1062 -0.4956  0.1884
  432MOL0    Cl59523   8.244   1.474   3.834  0.1995  0.3574 -0.7339
  432MOL0     C59524   7.083   1.796   3.586 -0.5556 -1.1332  0.0926
  432MOL0     C59525   6.978   1.879   3.545 -0.4381  1.0887 -0.1268
  432MOL0     O59526   6.844   1.967   3.284  0.6214 -0.0112  0.6939
  432MOL0     C59527   6.800   2.315   3.358  0.3323 -0.1983 -0.1222
  432MOL0     C59528   6.746   2.434   3.313 -0.8294  0.1682 -0.0695
  432MOL0     N59529   6.171   2.389   2.672  0.1746  0.2660  0.9125
  432MOL0     N59530   6.091   2.413   2.569 -0.3611  1.5691 -0.7691
  432MOL0     C59531   5.326   3.075   2.377  0.5819 -0.1626 -0.2164
  432MOL0     C59532   5.192   3.092   2.334  0.4244  0.5172 -0.3632
  432MOL0     C59533   4.863   3.063   2.035 -0.1088 -0.6084 -1.0224
  432MOL0     C59534   4.774   3.169   2.077 -0.7083 -1.3412  0.1253
  432MOL0     C59535   4.645   3.185   2.028 -0.2315 -0.6307  0.1634
  432MOL0     C59536   4.603   3.108   1.916 -1.0387 -0.5483 -1.1941
  432MOL0     O59537   4.485   3.146   1.859 -0.5834  0.1941  0.8040
  432MOL0     C59538   4.482   3.137   1.713  0.9322 -0.1420  0.0993
  432MOL0     C59539   4.387   3.249   1.659 -0.4528 -0.1456  0.3204
  432MOL0     C59540   4.250   3.258   1.729  0.4827  0.2101  0.2970
  432MOL0     C59541   4.134   3.266   1.628  0.9588 -0.2641  0.4423
  432MOL0     C59542   4.004   3.308   1.689 -0.4450  0.3774  0.1428
  432MOL0     C59543   3.901   3.345   1.733  0.5304 -0.2703 -0.3092
  432MOL0     C59544   4.691   3.011   1.865 -0.4920 -0.9794  0.4555
  432MOL0     C59545   4.819   2.988   1.922 -0.0402  0.3527 -0.2276
  432MOL0     C59546   4.901   2.869   1.868  0.4731  0.0976  0.5104
  432MOL0     H59547   5.231   3.308   2.077  1.5476  1.1612  0.9132
  432MOL0     H59548   5.457   3.316   2.164 -1.1282  1.3262 -1.5874
  432MOL0     H59549   5.569   2.959   2.397  0.0299  0.3993 -1.2544
  432MOL0     H59550   5.583   3.061   2.531  0.2193 -2.7219  0.0712
  432MOL0     H59551   5.800   3.155   2.421  3.4831 -0.8455 -2.2035
  432MOL0     H59552   5.801   3.030   2.530 -0.3903 -0.6996  0.0641
  432MOL0     H59553   5.789   2.861   2.335  1.1603 -0.0461 -0.2245
  432MOL0     H59554   5.766   3.004   2.234 -0.9015 -2.0779 -1.3144
  432MOL0     H59555   5.996   3.076   2.266 -0.6923 -1.0071 -0.4137
  432MOL0     H59556   6.019   2.950   2.396  0.0372 -0.7044 -0.3381
  432MOL0     H59557   6.108   2.919   2.163 -0.0584  1.2048  2.1647
  432MOL0     H59558   5.935   2.909   2.107 -3.2490 -1.7345  2.6955
  432MOL0     H59559   5.900   2.695   2.224  0.9987 -2.1256  0.8313
  432MOL0     H59560   6.045   2.685   2.125  0.1910 -0.0043 -0.0862
  432MOL0     H59561   6.055   2.755   2.423 -0.7053 -0.3203  0.2486
  432MOL0     H59562   6.191   2.717   2.321 -1.5252  3.3584 -3.7663
  432MOL0     H59563   5.975   2.524   2.366  0.5165 -0.6454  0.3685
  432MOL0     H59564   6.130   2.495   2.280  1.8902  0.3610 -0.4803
  432MOL0     H59565   6.347   2.615   2.507 -1.8168  3.5997  1.5601
  432MOL0     H59566   6.435   2.597   2.711 -0.9038 -0.5126 -0.1417
  432MOL0     H59567   6.479   2.427   2.729 -3.1949 -3.5442 -0.4671
  432MOL0     H59568   6.275   2.588   2.883 -1.1386 -1.0565 -0.1538
  432MOL0     H59569   6.318   2.415   2.923  0.7251 -1.8274 -2.0763
  432MOL0     H59570   6.554   2.469   2.958  1.3413  0.2745  1.9900
  432MOL0     H59571   6.539   2.636   2.937  2.7468 -0.5633  1.1858
  432MOL0     H59572   6.414   2.664   3.144  1.0407 -0.4838  0.4620
  432MOL0     H59573   6.389   2.496   3.175  0.0623  0.6301  1.6667
  432MOL0     H59574   6.492   2.298   3.139  1.2381  0.2800 -1.5371
  432MOL0     H59575   6.624   2.012   3.105 -1.2736  1.2980 -1.8041
  432MOL0     H59576   6.469   2.078   3.156  0.0157  1.4579  2.2861
  432MOL0     H59577   6.544   1.981   3.265 -1.0265  0.2739 -0.3685
  432MOL0     H59578   7.142   2.155   3.451  0.5378  0.2846  0.4013
  432MOL0     H59579   7.332   2.029   3.530 -1.9179  2.7872  1.0955
  432MOL0     H59580   7.489   1.722   3.545 -1.6264 -0.9262 -0.0897
  432MOL0     H59581   7.488   1.891   3.617  1.0582 -0.8387  0.9685
  432MOL0     H59582   7.518   1.806   3.835 -0.2334 -2.6828  0.8201
  432MOL0     H59583   7.513   1.647   3.781  0.4119 -0.1904  3.3549
  432MOL0     H59584   7.724   1.856   3.714 -1.4269 -0.2019 -1.7306
  432MOL0     H59585   7.723   1.708   3.619  0.6156  0.1158  0.0867
  432MOL0     H59586   7.763   1.573   3.814  1.1898  1.0217  1.6985
  432MOL0     H59587   7.753   1.714   3.925 -1.3289 -1.0079  0.7650
  432MOL0     H59588   7.971   1.669   3.725  0.3135  0.6673 -0.1598
  432MOL0     H59589   7.930   1.830   3.799  1.8793 -0.4044  0.7983
  432MOL0     H59590   7.999   1.747   4.010 -2.7621 -0.4623  0.3377
  432MOL0     H59591   8.123   1.692   3.895 -0.5954 -0.5430 -2.4448
  432MOL0     H59592   7.915   1.499   4.003  0.7684 -1.4897  0.2055
  432MOL0     H59593   8.087   1.513   4.049  1.5072  0.4988  0.7366
  432MOL0     H59594   8.006   1.430   3.768  1.1149  1.3879 -0.6934
  432MOL0     H59595   8.078   1.330   3.893  0.7368 -0.7483 -0.5755
  432MOL0     H59596   7.058   1.692   3.605 -0.8915 -0.8129  1.4970
  432MOL0     H59597   6.878   1.839   3.559 -1.1888  2.5401 -1.0237
  432MOL0     H59598   6.889   2.319   3.419  0.5624 -1.7865 -0.3026
  432MOL0     H59599   6.801   2.523   3.342  2.5265 -2.1877  1.5559
  432MOL0     H59600   5.340   3.026   2.473 -1.7745 -1.3856 -0.4271
  432MOL0     H59601   5.112   3.039   2.384 -0.7320  0.4398 -2.1814
  432MOL0     H59602   4.809   3.233   2.158  1.7825 -0.0132 -1.8470
  432MOL0     H59603   4.579   3.260   2.070  1.7169  1.8344 -0.8958
  432MOL0     H59604   4.580   3.152   1.668  1.3079  1.9568  1.4942
  432MOL0     H59605   4.456   3.036   1.679 -0.9493  0.1085  0.6930
  432MOL0     H59606   4.363   3.229   1.554  2.6954  0.2468 -0.5877
  432MOL0     H59607   4.435   3.346   1.675  0.3547 -0.6288  0.9392
  432MOL0     H59608   4.228   3.166   1.783  1.1485 -0.0270  0.1724
  432MOL0     H59609   4.256   3.344   1.796 -2.0049  0.4491  0.3194
  432MOL0     H59610   4.132   3.172   1.573  2.4540  0.5520 -1.1058
  432MOL0     H59611   4.150   3.343   1.552 -1.1455  0.3246  0.5443
  432MOL0     H59612   3.807   3.382   1.768  1.1089  0.6141  0.3366
  432MOL0     H59613   4.661   2.950   1.781  3.2875  1.0820 -2.7598
  432MOL0     H59614   4.860   2.773   1.901 -1.2012 -0.5264 -2.9827
  432MOL0     H59615   4.888   2.880   1.760 -0.6337  0.3557  0.6617
  432MOL0     H59616   5.010   2.868   1.883  0.9127  3.2488 -1.5471
  433MOL0     O59617  10.450   3.718   1.457 -0.8373 -0.0858  0.7683
  433MOL0     C59618  10.444   3.621   1.528  0.3682 -0.3361 -0.6291
  433MOL0     O59619  10.551   3.570   1.603 -0.3083 -0.2630  0.6739
  433MOL0     C59620  10.674   3.626   1.587 -0.1301  1.1156  0.3652
  433MOL0     C59621  10.738   3.699   1.692  0.3949 -0.3283  0.3295
  433MOL0     C59622  10.867   3.742   1.685  0.3030 -0.8489  0.4664
  433MOL0     C59623  10.944   3.707   1.574  0.2070 -0.1804  0.9631
  433MOL0     O59624  11.072   3.757   1.566  0.5600 -0.3674 -0.2141
  433MOL0     C59625  11.123   3.811   1.441  0.5302 -0.6060  0.1574
  433MOL0     C59626  11.182   3.955   1.462  0.1465  0.4513 -0.0835
  433MOL0     C59627  11.327   3.951   1.519 -0.3709  0.0494  0.1522
  433MOL0     C59628  11.419   3.948   1.404 -0.2776  0.2694  0.3690
  433MOL0     C59629  11.557   3.911   1.459 -0.9627  0.2254 -0.2848
  433MOL0     C59630  11.668   3.984   1.376 -0.6988 -1.1715 -0.5053
  433MOL0     C59631  11.741   3.890   1.284 -0.3304  0.6251  0.4912
  433MOL0     C59632  11.845   3.955   1.196 -0.5638 -0.6222 -0.5249
  433MOL0     N59633  11.920   3.867   1.111  0.4404 -0.4626 -0.0035
  433MOL0     C59634  12.019   3.913   1.033  0.4691 -0.0766  0.0540
  433MOL0     C59635  12.043   3.815   0.951  0.4989  0.3779  0.6546
  433MOL0     C59636  12.154   3.794   0.853 -0.0583 -0.6320  0.0929
  433MOL0     C59637  12.258   3.904   0.848  0.1052 -1.1827 -0.5571
  433MOL0     C59638  12.216   4.030   0.771 -0.0163 -0.0715 -0.4763
  433MOL0     C59639  12.325   4.139   0.767 -1.3195 -0.0421  0.3308
  433MOL0     O59640  12.436   4.087   0.684 -0.2405  0.2729  0.1037
  433MOL0     C59641  12.557   4.147   0.674  0.7184 -0.0197 -0.0024
  433MOL0     C59642  12.647   4.078   0.600 -0.2463 -0.3835  0.1193
  433MOL0     C59643  12.772   4.132   0.567 -0.7979  1.7560 -0.5477
  433MOL0     C59644  12.865   4.034   0.502 -0.0137 -0.7230  0.0623
  433MOL0     C59645  12.806   4.260   0.608  0.4756 -0.4554 -0.6492
  433MOL0     C59646  12.929   4.342   0.577  0.2144  0.7164 -0.8621
  433MOL0     O59647  12.919   4.477   0.598 -0.4461  0.4455  0.0292
  433MOL0     C59648  13.030   4.557   0.565  0.5320  1.0967 -0.8908
  433MOL0     C59649  13.075   4.653   0.649  0.0613  0.8768 -0.9438
  433MOL0     C59650  13.170   4.747   0.613  0.6533 -0.2572 -0.3372
  433MOL0     C59651  13.226   4.742   0.486 -0.0016  0.5768 -0.0330
  433MOL0     O59652  13.325   4.824   0.442  0.6983  0.1526 -0.7737
  433MOL0     C59653  13.354   4.941   0.522  0.0074 -1.0185  0.4272
  433MOL0     C59654  13.450   5.029   0.443 -0.0336  0.2834  0.4659
  433MOL0     C59655  13.499   5.145   0.529  0.4161  0.0152 -0.3256
  433MOL0     C59656  13.601   5.227   0.452 -0.0594  0.7512 -0.6214
  433MOL0     C59657  13.650   5.357   0.512  0.1952 -0.4352 -0.4075
  433MOL0     C59658  13.723   5.440   0.406  0.0417 -0.1874 -0.8339
  433MOL0     C59659  13.636   5.506   0.309 -0.0926 -0.4345 -0.2854
  433MOL0     C59660  13.728   5.603   0.232 -0.6536  0.2221  0.3057
  433MOL0    Cl59661  13.624   5.703   0.140 -0.1692  0.3188 -0.1970
  433MOL0     C59662  13.180   4.646   0.399 -0.6437 -0.9592  0.2357
  433MOL0     C59663  13.090   4.555   0.434  0.2725 -0.3572 -0.3568
  433MOL0     O59664  13.030   4.284   0.546 -0.0026  0.1124  0.0083
  433MOL0     C59665  12.713   4.332   0.693  0.9975  0.4017  0.1504
  433MOL0     C59666  12.582   4.278   0.720 -0.9030  0.4730  0.0887
  433MOL0     N59667  11.970   3.704   0.985  1.0220  0.2763  0.5747
  433MOL0     N59668  11.892   3.740   1.075 -0.2840  0.0423 -0.9075
  433MOL0     C59669  10.888   3.633   1.471  0.1430 -0.3677  0.0200
  433MOL0     C59670  10.754   3.595   1.479  0.5037 -0.2358  0.3047
  433MOL0     C59671  10.310   3.569   1.547 -0.9050  0.8667  0.2421
  433MOL0     C59672  10.194   3.638   1.527 -0.0174 -0.0852 -0.4538
  433MOL0     C59673  10.064   3.588   1.553 -0.7158 -0.0028 -0.4313
  433MOL0     C59674  10.047   3.457   1.597 -0.9721 -0.1729 -0.0525
  433MOL0     O59675   9.918   3.421   1.629 -0.6105 -0.1223  0.1338
  433MOL0     C59676   9.886   3.290   1.646 -1.2183 -0.7268 -1.0769
  433MOL0     C59677   9.744   3.263   1.652 -0.1668 -0.2844  1.1998
  433MOL0     C59678   9.688   3.163   1.544 -0.3036  0.0865  0.0637
  433MOL0     C59679   9.558   3.097   1.603  0.0422 -0.1586 -0.2895
  433MOL0     C59680   9.515   2.996   1.513  0.2165  0.1639  0.1286
  433MOL0     C59681   9.483   2.895   1.448  0.1566 -0.4349 -0.7320
  433MOL0     C59682  10.159   3.380   1.602  0.1284  0.1444  0.4929
  433MOL0     C59683  10.291   3.426   1.577 -0.2114  0.0682 -0.6248
  433MOL0     C59684  10.401   3.324   1.568 -0.0057  0.5410 -0.2986
  433MOL0     H59685  10.686   3.703   1.788  2.0931 -3.8856  1.5998
  433MOL0     H59686  10.920   3.784   1.770 -1.5471 -2.9316  2.7630
  433MOL0     H59687  11.052   3.820   1.357 -0.7444  1.0356  1.3542
  433MOL0     H59688  11.204   3.749   1.402  0.8431  0.3464 -0.7547
  433MOL0     H59689  11.180   3.995   1.361 -2.9568 -0.6110 -0.5237
  433MOL0     H59690  11.123   4.021   1.527  1.7434  1.0394  0.8423
  433MOL0     H59691  11.355   4.024   1.595  2.1479  1.1000 -1.6263
  433MOL0     H59692  11.348   3.856   1.569 -2.8976 -0.5767  0.1448
  433MOL0     H59693  11.396   3.866   1.335  0.3565 -0.1416  0.6354
  433MOL0     H59694  11.419   4.044   1.351  0.7439  0.2534  0.3188
  433MOL0     H59695  11.574   3.804   1.444 -0.6221 -0.4360  3.7159
  433MOL0     H59696  11.564   3.933   1.566  3.1949  1.5386 -0.6583
  433MOL0     H59697  11.635   4.067   1.314 -2.3191 -1.0826  0.4220
  433MOL0     H59698  11.742   4.028   1.444 -1.5513  1.1971 -1.0291
  433MOL0     H59699  11.667   3.842   1.220 -0.5107  1.7326 -0.1609
  433MOL0     H59700  11.801   3.818   1.340 -0.9268 -1.9565 -2.0056
  433MOL0     H59701  11.791   4.028   1.135 -1.9106  1.3822  2.7892
  433MOL0     H59702  11.913   4.017   1.257 -2.7340  3.5630 -1.9438
  433MOL0     H59703  12.078   4.004   1.033  0.4896 -0.0890 -0.0963
  433MOL0     H59704  12.119   3.768   0.752  1.6283 -1.2063 -0.3758
  433MOL0     H59705  12.204   3.702   0.883  2.4609  0.3625 -0.7567
  433MOL0     H59706  12.288   3.933   0.949  1.6565  1.4456 -1.6744
  433MOL0     H59707  12.349   3.864   0.802  0.2576 -1.9378  0.3587
  433MOL0     H59708  12.194   3.997   0.669  1.3905  0.6463 -1.0419
  433MOL0     H59709  12.126   4.067   0.821  0.8201  1.1770  0.1500
  433MOL0     H59710  12.292   4.234   0.723 -0.1486  1.1789  1.9746
  433MOL0     H59711  12.351   4.162   0.870 -0.5653  0.3750  0.0543
  433MOL0     H59712  12.618   3.975   0.577 -0.5891 -0.0965 -0.7826
  433MOL0     H59713  12.949   4.018   0.569 -0.5021 -0.0257  0.8670
  433MOL0     H59714  12.896   4.090   0.414 -0.8770  1.9500  1.3235
  433MOL0     H59715  12.811   3.942   0.477  0.4097 -0.7626 -0.7380
  433MOL0     H59716  13.027   4.660   0.746 -0.7171  0.2391 -1.2651
  433MOL0     H59717  13.201   4.814   0.692  0.5284  1.2550 -1.5385
  433MOL0     H59718  13.259   4.995   0.535  2.3531  3.2280  1.9537
  433MOL0     H59719  13.404   4.926   0.618 -0.1012  3.4130  1.3989
  433MOL0     H59720  13.542   4.978   0.412 -0.0920  0.6901 -0.3942
  433MOL0     H59721  13.402   5.062   0.350  1.2379 -2.2683 -1.2151
  433MOL0     H59722  13.542   5.110   0.624 -0.7136  0.8265  0.5125
  433MOL0     H59723  13.417   5.211   0.558  1.1970  0.8806 -0.0065
  433MOL0     H59724  13.555   5.254   0.356 -0.2661  1.1411 -0.4189
  433MOL0     H59725  13.683   5.157   0.434  0.0332  0.2469  1.5517
  433MOL0     H59726  13.561   5.410   0.548 -0.0321 -2.4012  2.2191
  433MOL0     H59727  13.712   5.337   0.600 -2.9529 -2.0036  1.6626
  433MOL0     H59728  13.799   5.381   0.354  0.0779 -0.2332 -0.7298
  433MOL0     H59729  13.770   5.520   0.464  0.8565 -1.7393  0.7466
  433MOL0     H59730  13.558   5.557   0.366  1.2728 -0.7028  1.9641
  433MOL0     H59731  13.593   5.434   0.238 -1.7336 -0.6855  0.9149
  433MOL0     H59732  13.802   5.552   0.170  0.2304  0.6562  0.9919
  433MOL0     H59733  13.774   5.669   0.307 -1.8375 -1.5387  2.7204
  433MOL0     H59734  13.204   4.652   0.293 -0.1101 -0.8214  0.3616
  433MOL0     H59735  13.052   4.490   0.355 -2.8577  0.2134  0.5397
  433MOL0     H59736  12.729   4.429   0.738  0.1239  0.4317  0.4119
  433MOL0     H59737  12.510   4.335   0.778 -0.0802  0.4601  1.1640
  433MOL0     H59738  10.946   3.600   1.386  1.0732  2.1955 -0.4207
  433MOL0     H59739  10.711   3.531   1.403 -0.6552 -1.1444  1.6681
  433MOL0     H59740  10.210   3.742   1.501  2.8254 -0.7790 -1.8486
  433MOL0     H59741   9.979   3.650   1.527 -1.4302 -1.3158 -1.3128
  433MOL0     H59742   9.933   3.239   1.561  0.3904  2.1943 -2.0990
  433MOL0     H59743   9.943   3.243   1.727 -2.7805 -2.1189 -0.7329
  433MOL0     H59744   9.682   3.351   1.630  0.1536 -0.4883 -0.6389
  433MOL0     H59745   9.726   3.232   1.755 -0.5140  0.7781  1.4766
  433MOL0     H59746   9.661   3.224   1.458 -0.6369 -0.7813 -0.4574
  433MOL0     H59747   9.769   3.091   1.527  3.0805  3.5077  0.3237
  433MOL0     H59748   9.477   3.169   1.617 -0.8964 -1.3134  0.2984
  433MOL0     H59749   9.583   3.047   1.697 -2.4436 -3.9043 -1.3948
  433MOL0     H59750   9.448   2.806   1.399  2.6821 -3.4444  2.4298
  433MOL0     H59751  10.152   3.273   1.622  1.6896  0.0197  0.4508
  433MOL0     H59752  10.437   3.314   1.466  0.8890  1.7754 -0.1296
  433MOL0     H59753  10.486   3.340   1.636 -1.2451  1.5970  1.0834
  433MOL0     H59754  10.361   3.226   1.596  0.6116 -0.7529 -3.5077
  434MOL0     O59755   7.606   7.800  10.970  0.5821 -0.3711 -1.1740
  434MOL0     C59756   7.511   7.724  10.989  0.1709  0.5543  0.0319
  434MOL0     O59757   7.525   7.584  10.996 -0.2414  1.1261 -0.6402
  434MOL0     C59758   7.637   7.532  10.938 -0.2080  0.5216 -0.6062
  434MOL0     C59759   7.754   7.512  11.014  1.1613 -0.9982 -0.0450
  434MOL0     C59760   7.857   7.434  10.966  0.8208 -0.3415 -0.0875
  434MOL0     C59761   7.852   7.372  10.841  0.1436 -0.3413 -0.5440
  434MOL0     O59762   7.956   7.296  10.788 -0.4558  0.9197  0.1798
  434MOL0     C59763   8.072   7.255  10.869  0.4825 -0.2887  0.1675
  434MOL0     C59764   8.150   7.146  10.793 -0.6200 -0.4723  0.3449
  434MOL0     C59765   8.237   7.203  10.680  1.0226  0.1214 -0.0471
  434MOL0     C59766   8.388   7.193  10.711  0.0137 -0.2067  0.3870
  434MOL0     C59767   8.480   7.265  10.601 -0.2757 -0.6624 -0.8162
  434MOL0     C59768   8.470   7.199  10.468 -0.7780 -0.0700  0.5749
  434MOL0     C59769   8.572   7.248  10.358 -0.0236  0.4936  0.2003
  434MOL0     C59770   8.536   7.192  10.214  0.0798 -0.1803 -0.0144
  434MOL0     N59771   8.415   7.263  10.170 -0.2837  0.3325  0.0367
  434MOL0     C59772   8.291   7.210  10.163  0.2710 -0.7412 -0.4510
  434MOL0     C59773   8.214   7.315  10.112 -0.5043 -0.9585  0.2051
  434MOL0     C59774   8.060   7.324  10.106 -0.4712  0.8409 -0.9225
  434MOL0     C59775   7.989   7.223  10.202  0.3743 -0.7964  0.2652
  434MOL0     C59776   7.984   7.275  10.348  0.2496  0.4603  0.2343
  434MOL0     C59777   7.881   7.205  10.446  0.9388  0.2589  0.2296
  434MOL0     O59778   7.748   7.261  10.435 -0.2061  0.4627  0.0532
  434MOL0     C59779   7.635   7.181  10.448 -0.0932 -0.1488  0.1489
  434MOL0     C59780   7.619   7.049  10.403 -0.3129  0.0406 -0.0894
  434MOL0     C59781   7.496   6.981  10.411  0.6284  0.2989  0.1702
  434MOL0     C59782   7.488   6.843  10.356  0.0377  0.0088 -0.1489
  434MOL0     C59783   7.385   7.044  10.479 -0.3685  0.2891 -0.3795
  434MOL0     C59784   7.251   6.982  10.505 -0.0853  0.7522 -0.5796
  434MOL0     O59785   7.163   7.048  10.590  0.2489  0.2120  0.1413
  434MOL0     C59786   7.043   6.988  10.631 -0.8984  0.0153  0.6604
  434MOL0     C59787   6.925   7.034  10.576 -0.7964 -0.2180  0.1636
  434MOL0     C59788   6.811   6.967  10.604  1.0301  0.4460  1.3099
  434MOL0     C59789   6.808   6.848  10.683  0.9636 -0.5727  1.0168
  434MOL0     O59790   6.688   6.780  10.684  0.5287  0.0526 -0.1095
  434MOL0     C59791   6.684   6.643  10.722 -0.1822 -1.0976 -0.4933
  434MOL0     C59792   6.639   6.629  10.870 -0.1213  0.4120  0.3471
  434MOL0     C59793   6.489   6.628  10.891 -0.9119  0.0396  0.2911
  434MOL0     C59794   6.444   6.590  11.027 -0.0642 -0.2029  0.5227
  434MOL0     C59795   6.291   6.581  11.029 -0.4721 -0.4628  0.1591
  434MOL0     C59796   6.237   6.537  11.162  0.3112 -0.4971 -0.2568
  434MOL0     C59797   6.087   6.495  11.137 -0.5713  0.0378  0.1541
  434MOL0     C59798   6.025   6.409  11.251  0.0411 -0.1135  0.6054
  434MOL0    Cl59799   6.034   6.487  11.408  0.0954 -0.0008  0.2477
  434MOL0     C59800   6.924   6.816  10.753 -0.1914 -0.6543 -0.0796
  434MOL0     C59801   7.045   6.886  10.729  0.3925  0.4666  0.0809
  434MOL0     O59802   7.231   6.866  10.464 -0.4833 -0.0165  1.0599
  434MOL0     C59803   7.405   7.179  10.512  0.0510 -0.4711  0.1111
  434MOL0     C59804   7.527   7.241  10.509 -1.0587 -0.2940  0.3332
  434MOL0     N59805   8.294   7.420  10.074  0.1554  0.1583  0.0218
  434MOL0     N59806   8.412   7.389  10.107 -0.0933 -0.4186 -0.0934
  434MOL0     C59807   7.741   7.399  10.761 -1.2405  0.2170  0.3230
  434MOL0     C59808   7.634   7.482  10.807  0.0242  0.5773 -0.1451
  434MOL0     C59809   7.383   7.781  11.045  0.2553 -0.5413 -0.7721
  434MOL0     C59810   7.335   7.898  10.980 -0.1731 -0.2323  0.1782
  434MOL0     C59811   7.212   7.954  11.021 -0.2313  0.1615  0.3439
  434MOL0     C59812   7.130   7.890  11.121 -0.1148 -0.2014 -0.3198
  434MOL0     O59813   7.007   7.943  11.147 -0.2540  0.7377  0.6478
  434MOL0     C59814   6.911   7.856  11.224  0.0301 -0.3893  0.6473
  434MOL0     C59815   6.781   7.927  11.253  0.3223  1.4786  0.5002
  434MOL0     C59816   6.723   8.002  11.134 -0.3054 -0.4715 -0.7321
  434MOL0     C59817   6.586   8.072  11.172 -0.9944 -0.1354 -0.0474
  434MOL0     C59818   6.537   8.148  11.063 -0.4452 -0.5576  0.8727
  434MOL0     C59819   6.495   8.231  10.985  0.4405 -0.9496  0.1912
  434MOL0     C59820   7.175   7.772  11.177  0.3457  0.2615  0.0222
  434MOL0     C59821   7.296   7.714  11.139 -0.2996 -0.5400  1.1757
  434MOL0     C59822   7.335   7.588  11.220  0.3734  0.1261 -0.4163
  434MOL0     H59823   7.759   7.544  11.118  0.3873  1.9267 -0.8095
  434MOL0     H59824   7.943   7.414  11.029  2.8526  0.2851 -2.5096
  434MOL0     H59825   8.040   7.216  10.966  0.1947  1.4044  0.7852
  434MOL0     H59826   8.137   7.343  10.868  2.9356 -2.0102 -0.7343
  434MOL0     H59827   8.209   7.096  10.870  0.7193  0.5309  0.0051
  434MOL0     H59828   8.075   7.076  10.754 -0.1248  0.3296 -2.2433
  434MOL0     H59829   8.218   7.151  10.586  1.1785  0.0838 -0.0587
  434MOL0     H59830   8.207   7.306  10.659  0.1399 -0.0158  0.5241
  434MOL0     H59831   8.410   7.234  10.810 -4.7326  1.6562  0.9188
  434MOL0     H59832   8.412   7.086  10.711  1.2272  0.0114  2.4692
  434MOL0     H59833   8.584   7.262  10.634  0.2207 -1.1257 -2.3378
  434MOL0     H59834   8.447   7.369  10.594 -0.0715 -0.5845 -0.6015
  434MOL0     H59835   8.487   7.091  10.480  0.2214  0.1936  1.8034
  434MOL0     H59836   8.374   7.210  10.418 -0.4964  2.8328  0.5390
  434MOL0     H59837   8.672   7.207  10.375  0.3121  0.0958 -2.3772
  434MOL0     H59838   8.579   7.357  10.357  0.3484  0.4708 -1.0555
  434MOL0     H59839   8.615   7.226  10.146  1.9283 -1.9337  1.1535
  434MOL0     H59840   8.524   7.084  10.198 -0.8810  0.0275 -0.8215
  434MOL0     H59841   8.253   7.115  10.199 -2.4553 -0.1564 -1.5644
  434MOL0     H59842   8.028   7.309  10.002  0.4562  0.5091 -1.1657
  434MOL0     H59843   8.028   7.427  10.122 -0.0692  0.7241  0.8144
  434MOL0     H59844   7.890   7.213  10.157  1.0084 -1.2673 -1.0895
  434MOL0     H59845   8.027   7.121  10.198 -0.9620 -1.2953 -2.9206
  434MOL0     H59846   8.086   7.262  10.388 -0.8189  0.8713  3.3901
  434MOL0     H59847   7.958   7.381  10.357 -1.1835  0.1238  0.1736
  434MOL0     H59848   7.887   7.098  10.429 -0.1246  0.1498  0.4418
  434MOL0     H59849   7.927   7.223  10.543  1.9572 -1.5295  0.0987
  434MOL0     H59850   7.705   7.004  10.353 -0.6304 -1.1949  0.4380
  434MOL0     H59851   7.467   6.781  10.444 -4.4302 -0.0545 -1.0126
  434MOL0     H59852   7.583   6.815  10.309 -0.3731 -1.1312 -0.3169
  434MOL0     H59853   7.412   6.839  10.278  0.1491 -0.5863 -0.2265
  434MOL0     H59854   6.932   7.109  10.498 -0.2067 -0.1537  0.2749
  434MOL0     H59855   6.718   6.970  10.549  1.1203 -3.5316  0.5877
  434MOL0     H59856   6.616   6.591  10.654 -1.8318  0.0001  0.2503
  434MOL0     H59857   6.783   6.598  10.712  1.3446  1.3681  1.9513
  434MOL0     H59858   6.668   6.529  10.902 -2.1669 -0.3015  0.0508
  434MOL0     H59859   6.704   6.695  10.929  2.5162  0.3673 -2.2117
  434MOL0     H59860   6.449   6.562  10.814  1.3440  0.5284 -1.4028
  434MOL0     H59861   6.451   6.729  10.872 -2.8299 -0.6917  0.0547
  434MOL0     H59862   6.496   6.657  11.096  0.7634  0.1883 -0.4488
  434MOL0     H59863   6.482   6.491  11.055  0.5581 -1.2152 -3.3889
  434MOL0     H59864   6.244   6.661  10.971  0.0289  0.1436  0.5816
  434MOL0     H59865   6.272   6.497  10.960  0.2887  2.5293 -4.1133
  434MOL0     H59866   6.225   6.630  11.219 -0.1125  0.9824 -2.5927
  434MOL0     H59867   6.294   6.453  11.200  0.1343  0.0073  1.1890
  434MOL0     H59868   6.079   6.425  11.053 -0.2879 -2.6545  2.2228
  434MOL0     H59869   6.020   6.580  11.120 -0.2020  0.1393 -0.8799
  434MOL0     H59870   6.074   6.312  11.236 -1.3191 -0.7963  0.3909
  434MOL0     H59871   5.920   6.394  11.225 -0.3246  3.2346 -0.2776
  434MOL0     H59872   6.916   6.730  10.818  0.4462 -1.4431 -1.0082
  434MOL0     H59873   7.142   6.874  10.777  0.0281 -3.5993  0.1910
  434MOL0     H59874   7.319   7.242  10.531 -0.4111  0.0530 -3.1713
  434MOL0     H59875   7.532   7.345  10.540 -2.7827  0.5821 -2.0206
  434MOL0     H59876   7.715   7.362  10.663 -0.4133 -0.2864  0.2892
  434MOL0     H59877   7.553   7.503  10.738  0.9806  3.6733 -0.4606
  434MOL0     H59878   7.404   7.943  10.910  2.3091 -1.1311  1.8801
  434MOL0     H59879   7.182   8.048  10.976 -2.2307  0.4236  2.0591
  434MOL0     H59880   6.891   7.772  11.157 -4.3420  1.1820 -0.3668
  434MOL0     H59881   6.958   7.830  11.319 -0.5899  5.1258  2.8407
  434MOL0     H59882   6.808   8.001  11.329 -0.5939  2.0575  0.2764
  434MOL0     H59883   6.702   7.867  11.301  0.4559 -1.0316 -2.1157
  434MOL0     H59884   6.799   8.078  11.114  0.1909 -1.1966 -1.7352
  434MOL0     H59885   6.718   7.943  11.042  1.8386  0.1500 -1.3169
  434MOL0     H59886   6.596   8.139  11.258 -1.0073  0.5694 -0.5858
  434MOL0     H59887   6.517   7.992  11.204  1.9091 -2.5575  0.5817
  434MOL0     H59888   6.447   8.298  10.916 -0.0527 -0.3057  1.1301
  434MOL0     H59889   7.107   7.717  11.242 -2.0481  1.2768 -1.4908
  434MOL0     H59890   7.325   7.494  11.163  0.3831 -0.9574  1.3029
  434MOL0     H59891   7.442   7.600  11.236  0.0107  1.7179  1.1376
  434MOL0     H59892   7.281   7.589  11.315  1.0460 -1.7156  0.0301
  435MOL0     O59893   0.409   8.748   9.232 -1.0595 -0.1709  0.0943
  435MOL0     C59894   0.355   8.829   9.161  0.1668  0.3827  0.2727
  435MOL0     O59895   0.419   8.938   9.089  0.5974 -0.0889  0.4735
  435MOL0     C59896   0.539   8.989   9.134 -0.9750 -0.2040 -0.8636
  435MOL0     C59897   0.641   8.908   9.189 -0.5681 -0.8322 -0.5036
  435MOL0     C59898   0.770   8.967   9.217  0.1643 -0.2358  0.5111
  435MOL0     C59899   0.800   9.100   9.178  0.3761 -0.2471  0.4337
  435MOL0     O59900   0.916   9.166   9.211  0.4229 -0.4760  0.4382
  435MOL0     C59901   1.034   9.085   9.219  0.3276  0.1034  0.5584
  435MOL0     C59902   1.156   9.178   9.238  0.5737 -0.0318 -0.6429
  435MOL0     C59903   1.289   9.095   9.239 -0.5558  0.6392 -0.2413
  435MOL0     C59904   1.419   9.185   9.256  1.1615 -0.9764 -0.6151
  435MOL0     C59905   1.535   9.085   9.269 -0.0327  0.0018  0.6205
  435MOL0     C59906   1.657   9.163   9.316  0.1558 -0.1777  0.1115
  435MOL0     C59907   1.781   9.068   9.310  0.1114 -0.1973  0.3806
  435MOL0     C59908   1.913   9.145   9.301 -0.3816  0.0815  1.1944
  435MOL0     N59909   2.026   9.053   9.267  0.0232 -0.2714 -0.8117
  435MOL0     C59910   2.060   8.938   9.337  0.8175 -1.0427  0.4219
  435MOL0     C59911   2.162   8.882   9.278 -0.4460 -0.3072 -0.6315
  435MOL0     C59912   2.241   8.766   9.326  0.2879  0.3878 -0.1658
  435MOL0     C59913   2.384   8.752   9.282  0.6592  0.5522  0.4083
  435MOL0     C59914   2.463   8.637   9.352 -0.1933 -0.0815  0.0045
  435MOL0     C59915   2.583   8.599   9.267  0.3719 -0.3418  0.5557
  435MOL0     O59916   2.661   8.716   9.265  0.2624  0.7126 -0.6668
  435MOL0     C59917   2.796   8.693   9.242  0.0133 -0.5436 -1.9427
  435MOL0     C59918   2.851   8.594   9.165 -0.6782  0.0751  0.3403
  435MOL0     C59919   2.990   8.581   9.161 -0.4646 -0.1752  1.0456
  435MOL0     C59920   3.040   8.461   9.083  0.3187 -0.1109  0.6157
  435MOL0     C59921   3.078   8.661   9.242 -0.2622 -0.1462 -0.1539
  435MOL0     C59922   3.227   8.633   9.256 -0.2780  0.2401  0.4988
  435MOL0     O59923   3.266   8.507   9.245  0.2385 -0.3565 -0.5527
  435MOL0     C59924   3.406   8.473   9.249  0.7021  0.3470 -0.9456
  435MOL0     C59925   3.461   8.390   9.147 -0.0810 -0.1010 -0.6518
  435MOL0     C59926   3.599   8.352   9.164  0.1456  0.7591 -0.2394
  435MOL0     C59927   3.680   8.407   9.265 -0.6817  0.3191  0.1880
  435MOL0     O59928   3.814   8.378   9.284  0.2999 -0.3078  0.1894
  435MOL0     C59929   3.871   8.271   9.208  0.4567  0.3866  0.8209
  435MOL0     C59930   4.008   8.242   9.244 -0.8726 -0.1753 -0.1732
  435MOL0     C59931   4.006   8.135   9.355 -0.5669 -0.3213 -0.5101
  435MOL0     C59932   4.135   8.130   9.450 -0.3134 -0.5359 -0.3734
  435MOL0     C59933   4.174   8.267   9.516 -0.1885  0.6759  0.4001
  435MOL0     C59934   4.066   8.299   9.613 -0.1953  0.5472  0.3283
  435MOL0     C59935   4.098   8.423   9.710 -0.6539  0.7358 -0.2392
  435MOL0     C59936   4.000   8.458   9.821 -0.0375  0.6180 -0.0175
  435MOL0    Cl59937   3.976   8.318   9.926  0.0704  0.4626  0.5151
  435MOL0     C59938   3.624   8.490   9.358 -0.6795 -0.6209  0.0690
  435MOL0     C59939   3.492   8.519   9.350  0.2245  0.3005  0.1803
  435MOL0     O59940   3.299   8.728   9.280  0.7072  0.1634  0.3746
  435MOL0     C59941   3.021   8.776   9.300  0.7725 -0.3746  1.3974
  435MOL0     C59942   2.880   8.787   9.301  0.0495  1.2415  0.2689
  435MOL0     N59943   2.207   8.970   9.176 -0.0143 -0.0257 -0.6699
  435MOL0     N59944   2.116   9.064   9.173 -0.6014 -1.0331 -0.1820
  435MOL0     C59945   0.693   9.173   9.128  0.7237  0.6462  0.6399
  435MOL0     C59946   0.570   9.119   9.108  0.3957  0.3238  0.1969
  435MOL0     C59947   0.203   8.822   9.155 -0.4261  0.8543  0.3756
  435MOL0     C59948   0.147   8.689   9.153  0.2801  0.5319 -0.1744
  435MOL0     C59949   0.007   8.678   9.151 -0.2798 -0.4227  0.8550
  435MOL0     C59950  -0.080   8.784   9.151 -0.3289  0.8694 -0.1627
  435MOL0     O59951  -0.209   8.748   9.145  0.3443 -0.3479  0.5403
  435MOL0     C59952  -0.316   8.845   9.114  0.4008  1.2146  0.0575
  435MOL0     C59953  -0.416   8.785   9.013 -0.1909 -0.4546 -0.1678
  435MOL0     C59954  -0.522   8.892   8.972 -0.2336 -0.0164  0.5992
  435MOL0     C59955  -0.660   8.882   9.052  0.0289  0.5358 -0.2820
  435MOL0     C59956  -0.633   8.907   9.195  0.5716 -0.5728 -0.2848
  435MOL0     C59957  -0.615   8.932   9.315  1.5558  0.3837  0.5135
  435MOL0     C59958  -0.033   8.910   9.161 -0.1083 -0.1656  0.5516
  435MOL0     C59959   0.108   8.929   9.150  0.3694  0.1651  0.3988
  435MOL0     C59960   0.148   9.072   9.160 -0.6241 -0.7500 -0.5092
  435MOL0     H59961   0.630   8.802   9.205  1.4924 -1.1337 -0.7641
  435MOL0     H59962   0.849   8.902   9.253 -1.1517 -1.8981  0.4843
  435MOL0     H59963   1.057   9.033   9.126  0.5609 -0.8406  1.1327
  435MOL0     H59964   1.031   9.018   9.305 -0.9725  1.4482  1.6141
  435MOL0     H59965   1.160   9.241   9.148 -0.5640 -1.3201 -1.6232
  435MOL0     H59966   1.153   9.241   9.328  1.8524  2.5661 -2.2821
  435MOL0     H59967   1.305   9.025   9.321  1.8996 -1.8694 -2.6422
  435MOL0     H59968   1.310   9.045   9.144 -0.7165 -2.1265  1.0797
  435MOL0     H59969   1.416   9.254   9.171 -1.1342 -0.5458 -0.2469
  435MOL0     H59970   1.424   9.253   9.342 -1.3607 -0.3067 -0.9167
  435MOL0     H59971   1.563   9.040   9.173  1.6378  1.7719  0.2124
  435MOL0     H59972   1.512   9.007   9.342 -0.3390  1.4484  2.1302
  435MOL0     H59973   1.659   9.255   9.256 -0.3270  0.1378  0.5749
  435MOL0     H59974   1.638   9.188   9.420 -1.1430 -2.1626  0.4062
  435MOL0     H59975   1.777   9.005   9.221 -1.2791  0.0966  0.2177
  435MOL0     H59976   1.787   8.997   9.394  1.7310 -0.5430  0.0117
  435MOL0     H59977   1.914   9.226   9.228  1.2651 -0.5857  0.4208
  435MOL0     H59978   1.939   9.194   9.395 -0.4048  1.9782  0.2510
  435MOL0     H59979   2.001   8.897   9.418 -2.5132  1.6169 -0.4395
  435MOL0     H59980   2.193   8.677   9.286  1.7557 -1.1175  1.2920
  435MOL0     H59981   2.228   8.764   9.435 -2.8191  0.7757 -0.4529
  435MOL0     H59982   2.386   8.743   9.173 -0.9211  0.2135  0.3900
  435MOL0     H59983   2.433   8.846   9.307  0.4663  0.0359  2.9944
  435MOL0     H59984   2.486   8.671   9.454 -0.3087  3.1223 -0.9210
  435MOL0     H59985   2.403   8.546   9.350  0.6133 -0.6257 -2.2608
  435MOL0     H59986   2.634   8.516   9.317  0.6018 -0.4001  0.2263
  435MOL0     H59987   2.551   8.575   9.165  2.2523 -1.6159  0.2168
  435MOL0     H59988   2.793   8.543   9.089 -1.4444  3.5816 -1.6370
  435MOL0     H59989   3.131   8.483   9.028  1.4464 -2.0708  1.5634
  435MOL0     H59990   2.962   8.442   9.009  1.2338 -0.0842 -0.3688
  435MOL0     H59991   3.061   8.381   9.155  0.6695  0.3955  1.0881
  435MOL0     H59992   3.392   8.357   9.070 -0.9101  2.3822 -1.0530
  435MOL0     H59993   3.643   8.293   9.085  2.2604 -1.3591  2.3443
  435MOL0     H59994   3.813   8.178   9.210  0.8219 -0.0385 -2.3024
  435MOL0     H59995   3.868   8.294   9.101  1.7825  2.6291  1.2020
  435MOL0     H59996   4.065   8.213   9.155  1.6650  2.5386  0.3914
  435MOL0     H59997   4.058   8.329   9.287  0.0787 -0.9106  0.2627
  435MOL0     H59998   3.997   8.037   9.307 -1.3442 -1.7392  2.3124
  435MOL0     H59999   3.912   8.144   9.411 -0.7833  2.7125 -1.1928
  435MOL0     H60000   4.221   8.077   9.407  0.1832  0.2058 -0.3086
  435MOL0     H60001   4.102   8.070   9.536 -2.3877  3.6328  2.0320
  435MOL0     H60002   4.273   8.248   9.558  0.8214  2.4556 -0.9934
  435MOL0     H60003   4.181   8.348   9.443 -1.9278  1.2016  0.7545
  435MOL0     H60004   4.051   8.210   9.676 -0.2787 -0.4489 -1.0631
  435MOL0     H60005   3.974   8.329   9.564 -0.3734 -0.8874 -0.2797
  435MOL0     H60006   4.098   8.518   9.655  1.0267  1.3940  0.8283
  435MOL0     H60007   4.195   8.405   9.757 -1.6369 -1.2300  1.1463
  435MOL0     H60008   3.906   8.477   9.769  0.4495  0.0301 -1.1415
  435MOL0     H60009   4.042   8.543   9.876  1.5340  0.0409 -0.2732
  435MOL0     H60010   3.687   8.527   9.439  0.1171 -1.0857 -0.3252
  435MOL0     H60011   3.448   8.583   9.426 -0.6315  1.0123 -0.8979
  435MOL0     H60012   3.078   8.855   9.348 -0.0479  0.5547  0.8796
  435MOL0     H60013   2.833   8.859   9.367 -2.5867 -0.7820  0.7936
  435MOL0     H60014   0.711   9.277   9.106  2.5247  0.2574  0.1586
  435MOL0     H60015   0.489   9.176   9.063 -1.3088 -1.3215  1.0199
  435MOL0     H60016   0.216   8.605   9.157 -0.5529 -0.1207  2.7688
  435MOL0     H60017  -0.035   8.577   9.146 -0.1812 -0.4253 -2.6420
  435MOL0     H60018  -0.360   8.870   9.211  1.1287 -0.8503  0.9761
  435MOL0     H60019  -0.279   8.942   9.078  0.1034  1.0932 -0.5709
  435MOL0     H60020  -0.468   8.700   9.057  0.2950 -1.9140 -2.3137
  435MOL0     H60021  -0.356   8.743   8.932  2.7277 -2.6336  2.8555
  435MOL0     H60022  -0.478   8.993   8.969  1.7022 -0.6980  2.9149
  435MOL0     H60023  -0.558   8.876   8.870 -0.3977 -1.7610  0.9155
  435MOL0     H60024  -0.707   8.786   9.030  2.7209 -0.9166 -0.1518
  435MOL0     H60025  -0.737   8.952   9.018 -1.9829 -0.6334  1.6632
  435MOL0     H60026  -0.598   8.948   9.420  0.0418 -0.5569  0.9355
  435MOL0     H60027  -0.090   9.002   9.164  2.0321  1.1819  1.4916
  435MOL0     H60028   0.155   9.106   9.056  0.7006 -0.1047 -0.2381
  435MOL0     H60029   0.080   9.120   9.231 -0.1085 -0.9493  0.1341
  435MOL0     H60030   0.249   9.078   9.203 -0.4249  0.4152 -1.0851
  436MOL0     O60031   4.075   1.278   9.692  0.1350 -0.0269  0.1059
  436MOL0     C60032   4.049   1.289   9.576 -0.2707 -0.3280  0.8838
  436MOL0     O60033   4.136   1.270   9.471  0.4071 -0.4259 -0.8213
  436MOL0     C60034   4.260   1.226   9.490 -0.1110 -0.4129 -0.0345
  436MOL0     C60035   4.290   1.137   9.387 -0.5980 -0.4845 -0.3774
  436MOL0     C60036   4.422   1.095   9.380 -0.2082  0.3286 -0.4650
  436MOL0     C60037   4.507   1.112   9.493 -0.0157  1.0822  0.2409
  436MOL0     O60038   4.637   1.059   9.493 -0.4720 -0.3562  0.3958
  436MOL0     C60039   4.741   1.154   9.484 -0.1928 -0.1917  0.5200
  436MOL0     C60040   4.874   1.086   9.482 -0.6472 -0.0436  0.3262
  436MOL0     C60041   4.983   1.193   9.479  0.0710 -0.8199  0.6953
  436MOL0     C60042   5.113   1.122   9.452  0.2112  0.4795  0.0157
  436MOL0     C60043   5.228   1.212   9.399 -0.2876  0.0670  0.2516
  436MOL0     C60044   5.321   1.145   9.292  0.5749 -0.1195 -0.8954
  436MOL0     C60045   5.365   1.008   9.332 -0.8651 -0.1149  1.5053
  436MOL0     C60046   5.498   0.977   9.249  0.3761  0.0693  0.5853
  436MOL0     N60047   5.610   1.052   9.320  0.0105 -0.5691  0.5879
  436MOL0     C60048   5.707   1.125   9.247  0.2318 -0.2678  0.3480
  436MOL0     C60049   5.826   1.115   9.315  0.3113  0.2725 -0.6450
  436MOL0     C60050   5.955   1.180   9.279 -0.3490  0.0923 -0.6412
  436MOL0     C60051   5.999   1.290   9.374 -0.4951 -0.0349  0.5063
  436MOL0     C60052   6.146   1.336   9.366  0.5927  0.5234 -0.0771
  436MOL0     C60053   6.259   1.226   9.374 -0.0148  0.3084  0.6869
  436MOL0     O60054   6.283   1.156   9.253 -0.3798  0.6003 -0.1630
  436MOL0     C60055   6.403   1.097   9.235 -0.0593 -0.2912 -0.4444
  436MOL0     C60056   6.513   1.172   9.214  0.3682  0.3249 -0.0264
  436MOL0     C60057   6.633   1.110   9.194  0.0012 -0.0407 -0.3840
  436MOL0     C60058   6.747   1.208   9.188  0.0674 -0.8315  0.0214
  436MOL0     C60059   6.645   0.971   9.200  0.3826  0.2766  0.8431
  436MOL0     C60060   6.771   0.897   9.181  0.1809 -0.3330 -0.0132
  436MOL0     O60061   6.796   0.769   9.235  0.3065  0.0742 -0.0789
  436MOL0     C60062   6.915   0.706   9.200  0.2040 -0.0156 -0.3409
  436MOL0     C60063   6.939   0.662   9.071  0.2336  0.3644 -0.2395
  436MOL0     C60064   7.056   0.585   9.055  0.1166  0.0287  0.2438
  436MOL0     C60065   7.146   0.569   9.156  0.6627 -0.8407  0.4538
  436MOL0     O60066   7.263   0.496   9.147 -0.4387  0.4313 -0.4247
  436MOL0     C60067   7.366   0.569   9.075 -0.2053  0.2451  0.9781
  436MOL0     C60068   7.505   0.505   9.088 -0.5025  0.4665  0.9457
  436MOL0     C60069   7.622   0.589   9.044 -0.2595 -0.2100  0.3873
  436MOL0     C60070   7.646   0.715   9.122  0.2165 -0.1129 -0.2851
  436MOL0     C60071   7.782   0.777   9.089 -0.4481 -0.6237 -1.0094
  436MOL0     C60072   7.904   0.707   9.146  1.3891  0.8057 -0.0438
  436MOL0     C60073   8.022   0.784   9.109  0.7093 -0.0826  0.1698
  436MOL0     C60074   8.148   0.715   9.156 -0.2204 -0.2574 -0.6523
  436MOL0    Cl60075   8.170   0.712   9.329  0.3049 -0.5095 -0.5420
  436MOL0     C60076   7.132   0.625   9.278  0.1361  0.1864  1.0323
  436MOL0     C60077   7.010   0.691   9.297  0.0479  0.1820  0.5757
  436MOL0     O60078   6.849   0.952   9.102 -0.3114  0.1488  0.0119
  436MOL0     C60079   6.523   0.894   9.211 -0.4098  1.0113 -0.7865
  436MOL0     C60080   6.407   0.955   9.220  0.4873 -0.6291 -0.0313
  436MOL0     N60081   5.793   1.045   9.430 -0.1023 -0.2527 -0.3832
  436MOL0     N60082   5.675   1.014   9.435  0.8957 -0.8489 -0.1841
  436MOL0     C60083   4.467   1.197   9.591 -0.0824  0.6828  0.3984
  436MOL0     C60084   4.347   1.261   9.586  0.0786 -0.3296 -0.7740
  436MOL0     C60085   3.909   1.324   9.556 -0.2775 -0.0121  0.6185
  436MOL0     C60086   3.846   1.426   9.631  0.8513 -0.5620 -0.2646
  436MOL0     C60087   3.716   1.457   9.620 -0.0344 -0.1388 -0.3911
  436MOL0     C60088   3.643   1.391   9.524  0.7443  0.3576 -0.3813
  436MOL0     O60089   3.509   1.421   9.523 -0.7390  0.2322  0.0940
  436MOL0     C60090   3.409   1.322   9.482  1.2582 -0.8327 -0.1315
  436MOL0     C60091   3.290   1.371   9.560  0.1479  0.1983 -0.2122
  436MOL0     C60092   3.163   1.306   9.509 -0.9611 -0.8219 -0.1315
  436MOL0     C60093   3.043   1.368   9.569 -0.5894 -0.4409  0.3467
  436MOL0     C60094   2.927   1.325   9.494 -0.6787 -0.2405 -0.4889
  436MOL0     C60095   2.834   1.293   9.424 -0.0159 -0.8182  0.7944
  436MOL0     C60096   3.695   1.293   9.433 -0.1717 -0.7234  0.3776
  436MOL0     C60097   3.831   1.267   9.446 -0.1429 -0.5463 -0.4275
  436MOL0     C60098   3.890   1.181   9.341 -0.7400 -0.4071  0.4866
  436MOL0     H60099   4.222   1.130   9.303 -1.4432  1.0490  0.1380
  436MOL0     H60100   4.458   1.037   9.295  0.1359 -1.0051  0.5641
  436MOL0     H60101   4.740   1.223   9.569  0.8566  0.9252 -0.3408
  436MOL0     H60102   4.733   1.217   9.395  2.0610 -1.7291 -0.8763
  436MOL0     H60103   4.882   1.021   9.570 -1.6188 -2.0685 -1.0006
  436MOL0     H60104   4.880   1.028   9.389  1.8809 -3.2154  2.2604
  436MOL0     H60105   4.957   1.251   9.390  0.8044 -1.5541 -0.0054
  436MOL0     H60106   4.973   1.255   9.569  0.0863  2.3647 -1.3502
  436MOL0     H60107   5.148   1.088   9.550 -1.2187  2.8862  1.4833
  436MOL0     H60108   5.093   1.046   9.376 -1.5635 -0.1386  1.0487
  436MOL0     H60109   5.287   1.246   9.484  0.5934 -0.7547 -0.0082
  436MOL0     H60110   5.192   1.303   9.350 -2.0181 -1.2823 -1.1696
  436MOL0     H60111   5.253   1.128   9.208  0.2724  1.8063 -1.0911
  436MOL0     H60112   5.403   1.215   9.273  0.2576  0.9805  1.3921
  436MOL0     H60113   5.294   0.928   9.308  0.5810 -1.0985  0.3382
  436MOL0     H60114   5.398   0.997   9.435 -0.8338  2.5930  1.8526
  436MOL0     H60115   5.515   0.869   9.250 -2.0612 -0.4012 -0.8709
  436MOL0     H60116   5.481   1.005   9.145 -0.2209  0.2707  0.7349
  436MOL0     H60117   5.701   1.168   9.148 -1.4170 -0.3719  0.3741
  436MOL0     H60118   5.948   1.217   9.176 -1.1369  0.4958 -0.4452
  436MOL0     H60119   6.029   1.100   9.293 -1.8152 -1.3062 -0.5431
  436MOL0     H60120   5.941   1.382   9.367 -1.8311 -0.9515 -1.3686
  436MOL0     H60121   5.987   1.249   9.474  2.1345 -2.0492  0.1077
  436MOL0     H60122   6.159   1.386   9.270 -0.3872  0.6459 -0.1545
  436MOL0     H60123   6.160   1.406   9.449 -2.8303  0.5526  0.6317
  436MOL0     H60124   6.341   1.295   9.397 -1.2992  1.6377  1.4729
  436MOL0     H60125   6.243   1.172   9.468 -0.5659  3.3589  2.5036
  436MOL0     H60126   6.508   1.281   9.215  0.3016  0.3252  1.1483
  436MOL0     H60127   6.779   1.217   9.084 -1.1958  1.9885 -0.2091
  436MOL0     H60128   6.830   1.172   9.250  4.3533 -0.3447 -4.7229
  436MOL0     H60129   6.717   1.311   9.206  0.3447 -0.9589  1.2829
  436MOL0     H60130   6.876   0.691   8.987 -1.1703  0.7501  0.9129
  436MOL0     H60131   7.074   0.559   8.951 -2.4027  0.5474 -0.4024
  436MOL0     H60132   7.342   0.569   8.969 -0.0035  0.4779  0.9324
  436MOL0     H60133   7.359   0.675   9.102 -1.4169  0.1810  0.9509
  436MOL0     H60134   7.516   0.477   9.193  0.4303 -2.1129  0.2424
  436MOL0     H60135   7.510   0.411   9.032  0.0533 -1.1975  3.6175
  436MOL0     H60136   7.597   0.617   8.941 -2.8377 -2.4058  0.2836
  436MOL0     H60137   7.717   0.536   9.044  0.7141  1.3816 -1.9394
  436MOL0     H60138   7.654   0.691   9.228 -0.1996 -2.2544 -0.6991
  436MOL0     H60139   7.561   0.782   9.108 -0.5758 -1.2846 -1.2433
  436MOL0     H60140   7.792   0.797   8.981  1.5630  1.8407 -0.4588
  436MOL0     H60141   7.786   0.878   9.131  0.6746 -0.1726 -2.1251
  436MOL0     H60142   7.919   0.609   9.099  0.5274  0.4747  0.3568
  436MOL0     H60143   7.893   0.698   9.254 -0.2083 -1.7551 -0.3243
  436MOL0     H60144   8.020   0.885   9.150 -0.2566  0.4369 -1.0901
  436MOL0     H60145   8.029   0.808   9.002 -0.5518 -0.6495 -0.0573
  436MOL0     H60146   8.246   0.749   9.121 -0.1622  0.8117  0.4681
  436MOL0     H60147   8.125   0.621   9.106 -1.0198  0.1914 -1.1391
  436MOL0     H60148   7.214   0.629   9.349  0.3264 -0.1163  0.8293
  436MOL0     H60149   6.997   0.740   9.393  1.5233  2.9297 -0.5241
  436MOL0     H60150   6.534   0.786   9.209  2.4572  1.2402 -0.6726
  436MOL0     H60151   6.318   0.896   9.240  1.0638 -1.1825  0.9468
  436MOL0     H60152   4.526   1.214   9.680  0.3339 -0.4223  0.3495
  436MOL0     H60153   4.326   1.312   9.679  2.3659 -2.3424  0.9980
  436MOL0     H60154   3.892   1.482   9.711  1.4942 -0.4621 -0.6976
  436MOL0     H60155   3.658   1.530   9.675 -0.0795  3.4686 -4.6356
  436MOL0     H60156   3.404   1.329   9.373  4.2566 -1.1945 -0.3755
  436MOL0     H60157   3.425   1.217   9.508  1.1315 -0.7487  0.2929
  436MOL0     H60158   3.267   1.477   9.569 -1.8274 -0.0747 -1.3954
  436MOL0     H60159   3.300   1.331   9.662 -0.4089 -0.7751 -0.5206
  436MOL0     H60160   3.160   1.334   9.404  0.3609 -0.6404 -0.1412
  436MOL0     H60161   3.161   1.197   9.522 -2.0549 -0.7182  0.7707
  436MOL0     H60162   3.054   1.477   9.564  0.8587 -0.4154  2.4182
  436MOL0     H60163   3.026   1.342   9.674 -1.1732  0.7177  0.5527
  436MOL0     H60164   2.752   1.253   9.367 -0.3893  1.2974 -0.2372
  436MOL0     H60165   3.628   1.250   9.360  1.5105 -0.9336 -1.1082
  436MOL0     H60166   3.953   1.107   9.390 -0.2614  0.9278  1.9678
  436MOL0     H60167   3.808   1.141   9.280 -0.6866  1.8297 -1.1858
  436MOL0     H60168   3.949   1.244   9.274 -1.8866  0.9678  0.7117
  437MOL0     O60169   7.467  10.005   1.328 -0.3318 -0.4087 -0.4457
  437MOL0     C60170   7.504  10.113   1.274  0.1515  0.7705 -0.1941
  437MOL0     O60171   7.408  10.210   1.229 -0.4769 -1.5695 -0.3443
  437MOL0     C60172   7.272  10.179   1.208  0.1603  0.1615 -0.1272
  437MOL0     C60173   7.227  10.057   1.151 -0.2185  0.1606  0.8088
  437MOL0     C60174   7.086  10.037   1.123 -0.7443 -0.0694 -0.8938
  437MOL0     C60175   6.996  10.144   1.153 -0.4019 -1.2442  0.5117
  437MOL0     O60176   6.859  10.119   1.136 -0.0049 -0.2190  0.5743
  437MOL0     C60177   6.763  10.162   1.234  0.3026 -0.3029  0.4522
  437MOL0     C60178   6.645  10.061   1.241 -0.2956 -0.3682  0.4610
  437MOL0     C60179   6.547  10.091   1.357 -0.3667  0.2965 -0.9459
  437MOL0     C60180   6.403  10.022   1.341 -0.1884 -0.2081 -1.1585
  437MOL0     C60181   6.413   9.873   1.340 -0.5130 -0.2513  0.2054
  437MOL0     C60182   6.285   9.794   1.329 -0.0773 -0.6474 -1.3805
  437MOL0     C60183   6.305   9.643   1.324  0.6731 -0.4919 -0.4225
  437MOL0     C60184   6.168   9.570   1.346  0.7566 -0.3975  0.0145
  437MOL0     N60185   6.167   9.429   1.303 -0.0489  0.0013  1.2504
  437MOL0     C60186   6.262   9.370   1.225  0.0557 -0.0042 -0.3135
  437MOL0     C60187   6.209   9.248   1.197  0.0968  0.2221  0.2149
  437MOL0     C60188   6.273   9.134   1.119 -1.0640  0.0932 -0.1036
  437MOL0     C60189   6.394   9.076   1.202 -0.5826  0.0069 -1.1601
  437MOL0     C60190   6.356   9.034   1.350 -0.5022  0.2324 -0.3613
  437MOL0     C60191   6.465   8.946   1.415  0.8696  0.5298 -0.1952
  437MOL0     O60192   6.470   8.822   1.342  0.0252 -0.2871 -0.3492
  437MOL0     C60193   6.585   8.746   1.337 -0.0903 -0.5482  0.0085
  437MOL0     C60194   6.675   8.763   1.435  0.0477  0.5135  0.3848
  437MOL0     C60195   6.792   8.684   1.440 -0.1504 -0.1039 -0.2957
  437MOL0     C60196   6.890   8.699   1.560 -0.2655  0.0873  0.5245
  437MOL0     C60197   6.812   8.584   1.334 -0.4976 -0.3727  0.7012
  437MOL0     C60198   6.929   8.483   1.333 -0.2790 -0.2103 -0.0945
  437MOL0     O60199   6.916   8.396   1.229 -0.0683 -0.2866 -0.3921
  437MOL0     C60200   7.005   8.289   1.216  0.0914  0.2473 -0.0599
  437MOL0     C60201   7.039   8.268   1.085 -0.2057 -0.3678  0.8461
  437MOL0     C60202   7.137   8.180   1.051  0.5955  0.3631  0.6947
  437MOL0     C60203   7.191   8.089   1.146  0.7524 -0.1763 -0.2025
  437MOL0     O60204   7.289   8.000   1.114  0.0698 -0.0443 -0.3814
  437MOL0     C60205   7.308   7.973   0.978 -0.1173  0.9155  0.2340
  437MOL0     C60206   7.400   7.852   0.972 -0.4360 -0.8423  0.4506
  437MOL0     C60207   7.341   7.721   1.018 -0.0758 -0.3977  0.4763
  437MOL0     C60208   7.428   7.597   0.978 -0.7831 -0.0618  0.5819
  437MOL0     C60209   7.380   7.470   1.026  0.4417  0.0380  0.0263
  437MOL0     C60210   7.474   7.357   0.981  0.0486  0.1395  0.1071
  437MOL0     C60211   7.462   7.247   1.091 -0.8125 -1.0802 -0.4383
  437MOL0     C60212   7.559   7.137   1.063  0.4824  0.2550  0.4798
  437MOL0    Cl60213   7.499   6.985   1.124  0.2548 -0.5443  0.1473
  437MOL0     C60214   7.146   8.102   1.279  0.1431 -0.5168  0.4290
  437MOL0     C60215   7.062   8.208   1.319  0.4288 -1.0095  0.1058
  437MOL0     O60216   7.021   8.491   1.409 -0.6703 -0.0029  0.7240
  437MOL0     C60217   6.711   8.577   1.239  0.0758 -0.1339  0.0635
  437MOL0     C60218   6.595   8.662   1.231  0.1779 -0.0745  0.1214
  437MOL0     N60219   6.087   9.234   1.261  0.1562  0.6114 -0.8146
  437MOL0     N60220   6.060   9.343   1.330  0.7568  1.2269  0.3525
  437MOL0     C60221   7.041  10.264   1.206  0.2981 -0.1846  0.2047
  437MOL0     C60222   7.179  10.280   1.234 -0.1293 -0.2099  0.5434
  437MOL0     C60223   7.651  10.137   1.249  0.5028 -0.4207  1.0735
  437MOL0     C60224   7.734  10.031   1.240 -0.7939  0.4272 -0.2458
  437MOL0     C60225   7.873  10.049   1.213  0.2510  0.7340 -0.0140
  437MOL0     C60226   7.924  10.175   1.186 -0.0470 -0.1439  0.4420
  437MOL0     O60227   8.062  10.191   1.162  0.6272 -0.5974  0.3987
  437MOL0     C60228   8.110  10.310   1.103 -0.6311  0.1460 -0.1941
  437MOL0     C60229   8.232  10.280   1.028  0.4100  0.1312  0.1699
  437MOL0     C60230   8.281  10.406   0.960 -0.6619 -0.1820  0.5453
  437MOL0     C60231   8.403  10.379   0.853  0.1913 -0.3116  0.0534
  437MOL0     C60232   8.348  10.304   0.735 -0.0475 -0.2624  0.4204
  437MOL0     C60233   8.308  10.248   0.636 -0.1846 -0.0475 -0.0594
  437MOL0     C60234   7.842  10.280   1.205 -1.2481 -0.6415  0.8951
  437MOL0     C60235   7.707  10.267   1.241 -0.2234 -0.2736  0.4853
  437MOL0     C60236   7.636  10.398   1.251  0.4390  0.0479 -0.2236
  437MOL0     H60237   7.306   9.984   1.141  0.3461  0.6097  1.8811
  437MOL0     H60238   7.051   9.944   1.079 -1.5098 -0.4041  0.3682
  437MOL0     H60239   6.729  10.264   1.214  1.2959 -0.0011  0.2414
  437MOL0     H60240   6.809  10.175   1.333  0.7665 -0.6946  0.2901
  437MOL0     H60241   6.598  10.076   1.143 -0.2645  0.8340  0.6156
  437MOL0     H60242   6.687   9.962   1.262 -0.0104 -0.8549 -2.0598
  437MOL0     H60243   6.585  10.054   1.452  0.2168 -1.7762 -1.9284
  437MOL0     H60244   6.531  10.199   1.366 -0.7093  0.0756  1.9661
  437MOL0     H60245   6.338  10.053   1.424  2.2100 -1.1471  1.2270
  437MOL0     H60246   6.375  10.059   1.242  2.5231  2.8358 -0.9375
  437MOL0     H60247   6.461   9.831   1.428  0.8852 -0.5594 -0.6639
  437MOL0     H60248   6.478   9.839   1.258 -0.1425  1.5913 -0.3053
  437MOL0     H60249   6.229   9.815   1.421  1.9503 -1.2047  0.0472
  437MOL0     H60250   6.225   9.837   1.249 -1.1688  2.8307  1.0590
  437MOL0     H60251   6.378   9.614   1.400 -0.9118  0.9614  1.7506
  437MOL0     H60252   6.350   9.627   1.225 -0.4214  1.3049 -1.2697
  437MOL0     H60253   6.143   9.578   1.452 -0.5084 -0.6876 -0.2445
  437MOL0     H60254   6.095   9.633   1.296  0.7736 -0.1902  0.2501
  437MOL0     H60255   6.353   9.420   1.195  0.4170 -0.6144 -0.2551
  437MOL0     H60256   6.318   9.166   1.024 -2.4026 -1.9913 -1.5060
  437MOL0     H60257   6.197   9.061   1.093  0.0617 -1.1990  0.1056
  437MOL0     H60258   6.434   8.987   1.153 -1.1348  0.0434 -1.6813
  437MOL0     H60259   6.469   9.156   1.208  2.6227 -2.8755  0.0287
  437MOL0     H60260   6.334   9.119   1.415  1.4519 -0.2908  1.0814
  437MOL0     H60261   6.268   8.969   1.342 -0.6616  0.3813  0.1501
  437MOL0     H60262   6.554   9.009   1.405  1.1402  0.0226 -1.1186
  437MOL0     H60263   6.442   8.937   1.521 -1.6998  1.3093 -0.6026
  437MOL0     H60264   6.659   8.842   1.507 -1.9773 -0.0425  0.6239
  437MOL0     H60265   6.907   8.600   1.604  0.4472 -0.5421 -1.0709
  437MOL0     H60266   6.855   8.767   1.638 -1.8151 -0.6921  0.5476
  437MOL0     H60267   6.983   8.739   1.519 -1.7080  1.4959 -1.6045
  437MOL0     H60268   7.009   8.337   1.008  1.3650 -0.2091  0.3451
  437MOL0     H60269   7.174   8.187   0.949  2.2843 -1.4754  1.1132
  437MOL0     H60270   7.223   7.936   0.919  1.5873 -0.1013 -1.7247
  437MOL0     H60271   7.352   8.057   0.923  1.8010 -1.4349 -2.1134
  437MOL0     H60272   7.439   7.838   0.870 -0.0727 -0.1304  0.4879
  437MOL0     H60273   7.493   7.873   1.025  0.0809  1.0929 -1.1126
  437MOL0     H60274   7.243   7.705   0.973  0.3160 -0.2279 -0.4848
  437MOL0     H60275   7.339   7.733   1.126 -1.1863  2.3439  0.2332
  437MOL0     H60276   7.526   7.619   1.022 -0.1439 -1.1875 -0.2317
  437MOL0     H60277   7.433   7.592   0.869 -1.6357  0.7284  0.4966
  437MOL0     H60278   7.370   7.481   1.135  1.3125 -0.3203  0.1529
  437MOL0     H60279   7.280   7.460   0.983  0.3364  1.3675 -0.0732
  437MOL0     H60280   7.578   7.392   0.976 -0.0908  0.8344  1.6605
  437MOL0     H60281   7.442   7.326   0.880  1.6128 -3.1139  0.4701
  437MOL0     H60282   7.363   7.201   1.090 -0.6802 -1.4326 -2.4445
  437MOL0     H60283   7.481   7.292   1.189 -3.7653  0.3229 -0.4248
  437MOL0     H60284   7.650   7.152   1.122 -0.0938  3.8355  0.6716
  437MOL0     H60285   7.584   7.128   0.957  0.9148 -0.8865  0.6617
  437MOL0     H60286   7.192   8.036   1.353  0.1603 -0.7770  0.1875
  437MOL0     H60287   7.018   8.224   1.417 -0.8603  2.6820 -0.9291
  437MOL0     H60288   6.712   8.502   1.160  0.0676  2.8693 -2.9854
  437MOL0     H60289   6.518   8.668   1.154 -1.0108  0.8415  1.3194
  437MOL0     H60290   6.969  10.340   1.234 -0.1142 -0.4546 -0.1169
  437MOL0     H60291   7.223  10.375   1.261 -2.1342  1.5289 -1.7302
  437MOL0     H60292   7.699   9.929   1.256  1.7018 -0.4850 -0.2373
  437MOL0     H60293   7.932   9.957   1.210 -0.1205  0.4507  0.9695
  437MOL0     H60294   8.036  10.360   1.040 -1.5006  1.0541  1.4752
  437MOL0     H60295   8.140  10.389   1.174  1.1700  0.0155 -0.7589
  437MOL0     H60296   8.204  10.211   0.948  1.4959 -1.9376  1.5077
  437MOL0     H60297   8.306  10.229   1.090  0.7526 -0.3350 -0.6140
  437MOL0     H60298   8.196  10.449   0.906 -0.0379 -1.5922 -1.7065
  437MOL0     H60299   8.327  10.475   1.030  1.3435  1.3473 -2.0867
  437MOL0     H60300   8.479  10.313   0.895 -1.0359 -1.4146  0.6243
  437MOL0     H60301   8.439  10.475   0.816 -1.7966 -0.0450 -1.3952
  437MOL0     H60302   8.273  10.184   0.559 -0.0554  0.2903 -0.4031
  437MOL0     H60303   7.881  10.381   1.203  0.4570 -1.2596 -1.1730
  437MOL0     H60304   7.708  10.479   1.235  0.6783  0.2390  1.6093
  437MOL0     H60305   7.557  10.403   1.175  0.7195 -0.7743 -0.5737
  437MOL0     H60306   7.588  10.415   1.348  3.3300  2.7323  0.8763
  438MOL0     O60307   2.831   3.932   2.560 -0.2894 -0.4338  0.4893
  438MOL0     C60308   2.799   4.050   2.577  0.0661  0.4482 -0.8166
  438MOL0     O60309   2.880   4.161   2.561 -0.6378  0.8352 -0.4914
  438MOL0     C60310   3.004   4.155   2.498  0.8773  1.2613  0.4698
  438MOL0     C60311   3.041   4.244   2.395 -0.3006  0.0371  0.2180
  438MOL0     C60312   3.165   4.232   2.332  0.8193  0.3016 -0.4826
  438MOL0     C60313   3.258   4.136   2.384 -0.3534  0.2604  0.0568
  438MOL0     O60314   3.383   4.122   2.349  0.8747  0.0422 -0.0201
  438MOL0     C60315   3.456   4.221   2.266  0.2748  0.9753 -0.0702
  438MOL0     C60316   3.586   4.169   2.206  0.2533 -0.3766  0.0370
  438MOL0     C60317   3.682   4.176   2.328 -0.1096  0.4662 -0.9520
  438MOL0     C60318   3.819   4.124   2.292 -0.2627  0.7528 -0.0956
  438MOL0     C60319   3.907   4.097   2.407 -0.9179 -0.2706 -0.0514
  438MOL0     C60320   4.038   4.027   2.351  0.0490  0.0558  1.2225
  438MOL0     C60321   4.149   3.992   2.455 -0.1807  0.5137 -0.2570
  438MOL0     C60322   4.088   3.906   2.561  0.0529 -0.1908  0.9320
  438MOL0     N60323   4.186   3.838   2.642 -0.5830  0.1298 -1.1815
  438MOL0     C60324   4.249   3.880   2.761 -0.8288 -0.3120 -0.5435
  438MOL0     C60325   4.335   3.783   2.794  0.2847 -0.8215  0.6930
  438MOL0     C60326   4.417   3.799   2.917 -0.3681  0.3321 -1.3189
  438MOL0     C60327   4.558   3.821   2.884 -0.3532  0.2130  0.4310
  438MOL0     C60328   4.647   3.900   2.981  0.1867  0.5946 -0.5930
  438MOL0     C60329   4.784   3.916   2.930  0.2968  0.4380  0.0280
  438MOL0     O60330   4.843   3.992   3.036 -0.1212 -0.3288  0.4558
  438MOL0     C60331   4.976   4.017   3.038 -0.5811 -0.5604 -0.8187
  438MOL0     C60332   5.069   3.933   2.975 -0.8904  0.1091 -0.6338
  438MOL0     C60333   5.205   3.958   2.993 -0.3544  0.6228  0.2788
  438MOL0     C60334   5.295   3.848   2.935  0.3150 -0.3330 -0.0764
  438MOL0     C60335   5.250   4.064   3.073 -0.1426  0.4557 -0.5461
  438MOL0     C60336   5.387   4.102   3.090  0.1399  0.1220  0.7128
  438MOL0     O60337   5.403   4.231   3.132 -0.5650 -0.6480  0.4134
  438MOL0     C60338   5.535   4.284   3.155  0.4941  0.8031  0.2260
  438MOL0     C60339   5.633   4.224   3.228 -0.0532  0.1025 -0.3379
  438MOL0     C60340   5.765   4.281   3.255 -0.1799  0.2736 -0.0433
  438MOL0     C60341   5.799   4.405   3.189 -0.0305 -0.7196 -0.5035
  438MOL0     O60342   5.921   4.465   3.209 -0.4423 -0.1383  0.4740
  438MOL0     C60343   6.025   4.398   3.270 -1.2047 -0.7281 -0.2287
  438MOL0     C60344   6.145   4.489   3.272 -0.7987 -0.0879 -0.3503
  438MOL0     C60345   6.274   4.407   3.290  0.1758  0.0063 -0.1213
  438MOL0     C60346   6.387   4.507   3.328  0.2230  0.0918  0.8522
  438MOL0     C60347   6.520   4.438   3.295 -0.4876 -0.5063 -0.3568
  438MOL0     C60348   6.639   4.529   3.339  1.3476  0.7189  0.3509
  438MOL0     C60349   6.764   4.457   3.294  0.3408 -0.6303 -0.3287
  438MOL0     C60350   6.889   4.536   3.288 -0.0471 -0.8039 -1.0968
  438MOL0    Cl60351   6.873   4.667   3.167 -0.3049 -0.3591 -0.1362
  438MOL0     C60352   5.710   4.454   3.100  1.0051  0.2110  0.0226
  438MOL0     C60353   5.576   4.405   3.093  1.0822  0.4141  0.0869
  438MOL0     O60354   5.478   4.023   3.069  0.6381 -0.2972  0.8489
  438MOL0     C60355   5.158   4.142   3.140 -0.4005 -0.6417  0.0476
  438MOL0     C60356   5.023   4.122   3.114 -0.4203  0.1441  0.0822
  438MOL0     N60357   4.339   3.683   2.698 -0.1704 -0.2503 -0.1615
  438MOL0     N60358   4.238   3.714   2.614 -0.4133 -0.8647 -0.7451
  438MOL0     C60359   3.223   4.055   2.490  0.5042  0.3372 -0.0153
  438MOL0     C60360   3.094   4.060   2.544  0.3451 -0.5588  0.3415
  438MOL0     C60361   2.659   4.069   2.617  0.1869 -0.0645  0.1031
  438MOL0     C60362   2.594   3.967   2.690  0.4111 -0.0849 -0.3095
  438MOL0     C60363   2.473   3.977   2.741  0.0133 -0.3172 -0.3101
  438MOL0     C60364   2.390   4.087   2.699  0.5564 -0.0438 -0.1216
  438MOL0     O60365   2.257   4.095   2.713  0.7887  0.0148  0.2252
  438MOL0     C60366   2.195   3.970   2.742  0.3143  0.8285 -0.5884
  438MOL0     C60367   2.047   3.989   2.739 -0.6623  0.2029  0.4754
  438MOL0     C60368   1.975   3.862   2.777 -0.0435  0.4661 -0.2669
  438MOL0     C60369   1.824   3.887   2.803  0.0964 -0.3532  0.3208
  438MOL0     C60370   1.755   3.972   2.702  0.8583  0.2801  0.8277
  438MOL0     C60371   1.705   4.046   2.620 -0.2015  0.2434  0.0546
  438MOL0     C60372   2.454   4.194   2.631  0.0587  0.1845 -0.3233
  438MOL0     C60373   2.586   4.184   2.591 -0.6142 -1.0517 -0.6166
  438MOL0     C60374   2.639   4.300   2.504 -0.4308  0.1290  0.8693
  438MOL0     H60375   2.977   4.314   2.342  2.3801  0.4135 -2.7997
  438MOL0     H60376   3.179   4.301   2.250 -3.6596  3.7299  1.2043
  438MOL0     H60377   3.474   4.314   2.320 -1.9740  1.6650 -0.3792
  438MOL0     H60378   3.395   4.246   2.178  0.7684 -1.2048 -1.1024
  438MOL0     H60379   3.574   4.069   2.164 -0.7612 -0.3701  0.2960
  438MOL0     H60380   3.626   4.235   2.128  0.4146 -1.4624 -0.8250
  438MOL0     H60381   3.688   4.274   2.376 -0.7817  0.0469  0.0184
  438MOL0     H60382   3.644   4.107   2.404 -1.2416  1.7903 -0.2725
  438MOL0     H60383   3.801   4.030   2.240 -1.2922 -0.2282  1.9321
  438MOL0     H60384   3.869   4.183   2.214 -0.3419 -0.2002 -0.8813
  438MOL0     H60385   3.849   4.046   2.484  0.2503 -1.4371  0.0870
  438MOL0     H60386   3.930   4.197   2.444 -0.7014 -0.3165 -0.0615
  438MOL0     H60387   4.013   3.938   2.293  1.5622 -0.3098  1.0806
  438MOL0     H60388   4.097   4.088   2.282  3.4401 -2.2823  1.7950
  438MOL0     H60389   4.192   4.084   2.498  0.7349  0.1279 -0.3326
  438MOL0     H60390   4.225   3.935   2.401 -0.1260 -1.4600  1.7704
  438MOL0     H60391   4.032   3.977   2.623 -4.2119 -1.0447 -1.5139
  438MOL0     H60392   4.016   3.838   2.514 -0.7297  0.5565  1.0128
  438MOL0     H60393   4.232   3.967   2.824 -3.6204 -2.1129  1.4297
  438MOL0     H60394   4.410   3.704   2.972 -2.6226  0.4360 -1.3638
  438MOL0     H60395   4.378   3.875   2.985  0.1170 -1.2821  0.8993
  438MOL0     H60396   4.606   3.723   2.875 -1.6195 -0.7252  2.8565
  438MOL0     H60397   4.555   3.879   2.791  1.5684 -0.4436 -0.0844
  438MOL0     H60398   4.619   4.005   2.981  2.9254  1.4505 -2.3849
  438MOL0     H60399   4.645   3.847   3.077 -2.1884 -2.8501 -2.3033
  438MOL0     H60400   4.829   3.819   2.906 -0.8407 -0.1985  0.3758
  438MOL0     H60401   4.762   3.965   2.835 -2.0808 -2.9535 -1.3987
  438MOL0     H60402   5.021   3.855   2.917 -1.3936 -0.4852  0.5440
  438MOL0     H60403   5.229   3.781   2.880 -1.1804 -0.5948  1.9144
  438MOL0     H60404   5.328   3.794   3.024 -2.2566  1.0533  1.8656
  438MOL0     H60405   5.383   3.879   2.878 -0.1677  0.8102 -0.2340
  438MOL0     H60406   5.607   4.127   3.270  1.9536 -1.2496 -2.0376
  438MOL0     H60407   5.833   4.230   3.323  0.4825 -0.2933 -1.1018
  438MOL0     H60408   6.000   4.377   3.374  0.1454  2.2788  0.8222
  438MOL0     H60409   6.054   4.307   3.217  0.0992  0.1783 -1.1340
  438MOL0     H60410   6.139   4.551   3.182 -1.8515 -2.2678 -1.8519
  438MOL0     H60411   6.148   4.556   3.359  1.3676 -0.0007 -0.4370
  438MOL0     H60412   6.288   4.357   3.194 -0.2100 -1.3810  0.5149
  438MOL0     H60413   6.269   4.325   3.363  1.7769 -0.2201 -0.2385
  438MOL0     H60414   6.383   4.545   3.431  0.7409 -0.2810  1.0134
  438MOL0     H60415   6.371   4.598   3.270 -0.3566 -0.9629 -0.7022
  438MOL0     H60416   6.527   4.343   3.350  2.9963  0.1020  0.5105
  438MOL0     H60417   6.533   4.432   3.187 -1.0032  2.0784 -0.6150
  438MOL0     H60418   6.642   4.559   3.444  4.9384  0.3183  0.4964
  438MOL0     H60419   6.633   4.622   3.282 -1.0098  0.8706  0.7423
  438MOL0     H60420   6.759   4.415   3.194  0.3915 -2.0714  0.2495
  438MOL0     H60421   6.782   4.373   3.363 -0.6129 -1.1898 -0.7334
  438MOL0     H60422   6.985   4.484   3.282  2.5077  3.2991 -0.2437
  438MOL0     H60423   6.911   4.595   3.377  2.5931 -0.5003 -1.8706
  438MOL0     H60424   5.739   4.545   3.049  3.9124 -0.9148 -0.5446
  438MOL0     H60425   5.501   4.470   3.048 -0.2598 -0.7280  0.6070
  438MOL0     H60426   5.187   4.226   3.202  1.2058  1.8035 -3.6403
  438MOL0     H60427   4.951   4.195   3.150  0.7205  1.6424 -0.5575
  438MOL0     H60428   3.298   3.989   2.534 -0.3500 -1.2118 -0.8137
  438MOL0     H60429   3.082   3.994   2.630 -0.7613  1.4116  1.7712
  438MOL0     H60430   2.650   3.874   2.695 -0.0168 -0.3028  0.9953
  438MOL0     H60431   2.446   3.898   2.810  1.1481  0.3827  0.9844
  438MOL0     H60432   2.234   3.901   2.666 -1.6908  1.9731 -2.7900
  438MOL0     H60433   2.227   3.941   2.843  0.1389  3.1028  0.1766
  438MOL0     H60434   2.017   4.026   2.640  1.7109  1.8400  0.2660
  438MOL0     H60435   2.018   4.062   2.816  1.1116  2.4482 -0.8413
  438MOL0     H60436   1.983   3.774   2.712  0.4635 -0.9130  1.5869
  438MOL0     H60437   2.033   3.821   2.860 -1.2962 -2.0518 -0.5652
  438MOL0     H60438   1.819   3.939   2.900  3.9251 -0.4298  0.7036
  438MOL0     H60439   1.769   3.793   2.814 -3.0984  0.5992 -4.2731
  438MOL0     H60440   1.643   4.098   2.550 -3.6246 -1.1175  1.8404
  438MOL0     H60441   2.399   4.285   2.607 -2.2745 -1.3800 -1.2597
  438MOL0     H60442   2.719   4.344   2.564  0.4929 -1.2992  0.7496
  438MOL0     H60443   2.677   4.266   2.407  1.5158 -0.2231  1.7082
  438MOL0     H60444   2.561   4.375   2.492  0.6388  1.5009  2.1105
  439MOL0     O60445  11.212   8.262  10.762 -0.2302 -0.2515 -0.0288
  439MOL0     C60446  11.195   8.312  10.646 -0.1080 -0.1681 -0.9825
  439MOL0     O60447  11.079   8.312  10.578 -0.2534 -0.1578 -0.5686
  439MOL0     C60448  10.960   8.257  10.630 -0.5691  0.1251 -0.0628
  439MOL0     C60449  10.927   8.126  10.602  0.1479 -0.2341  0.8830
  439MOL0     C60450  10.803   8.074  10.641  0.1838  0.2357  0.1730
  439MOL0     C60451  10.710   8.159  10.713  0.4015 -0.1889  0.2106
  439MOL0     O60452  10.574   8.119  10.732  0.1858 -0.1282 -0.6301
  439MOL0     C60453  10.483   8.219  10.687 -0.0085  0.3732 -0.5141
  439MOL0     C60454  10.344   8.152  10.683  0.1686  0.4729 -0.0758
  439MOL0     C60455  10.219   8.245  10.660 -0.7065  0.2264  0.3261
  439MOL0     C60456  10.100   8.156  10.702 -0.5285 -0.2228 -0.9174
  439MOL0     C60457   9.975   8.227  10.657 -0.0815 -0.4056  1.5929
  439MOL0     C60458   9.843   8.140  10.662 -0.7307 -0.8537  0.1155
  439MOL0     C60459   9.746   8.172  10.553  0.6828 -0.1168 -0.2308
  439MOL0     C60460   9.638   8.076  10.550  0.2768  0.3528 -0.0524
  439MOL0     N60461   9.550   8.095  10.664  0.3590 -0.2687 -0.3466
  439MOL0     C60462   9.560   8.034  10.787  0.1714 -0.0760  0.9082
  439MOL0     C60463   9.452   8.066  10.866 -0.0819  0.1730  0.6311
  439MOL0     C60464   9.411   8.031  11.006  0.6062 -0.0942 -0.1735
  439MOL0     C60465   9.500   8.111  11.106  0.4252  1.2038  0.2054
  439MOL0     C60466   9.471   8.050  11.246 -0.5757  0.2314 -0.1114
  439MOL0     C60467   9.547   8.127  11.353 -0.6202  0.1804 -0.4724
  439MOL0     O60468   9.670   8.180  11.310 -0.3921 -0.2016 -0.5497
  439MOL0     C60469   9.786   8.107  11.319 -0.1153 -0.4357 -0.2472
  439MOL0     C60470   9.804   7.976  11.374  0.0224 -0.1821  0.7434
  439MOL0     C60471   9.936   7.922  11.374 -0.2038  0.1962 -0.9921
  439MOL0     C60472   9.938   7.775  11.414 -0.5423 -0.6712  0.2092
  439MOL0     C60473  10.045   7.991  11.318  0.0687 -0.0771 -0.2268
  439MOL0     C60474  10.176   7.930  11.299 -0.6738  0.5769 -0.1844
  439MOL0     O60475  10.258   7.983  11.202  0.5197 -0.4427 -0.2023
  439MOL0     C60476  10.387   7.928  11.186  0.4549  0.1428  0.3128
  439MOL0     C60477  10.452   7.813  11.225  0.3929 -0.4566  0.0187
  439MOL0     C60478  10.587   7.781  11.184  0.7315 -0.8812  0.2222
  439MOL0     C60479  10.661   7.874  11.109  0.1579  0.3544 -0.2622
  439MOL0     O60480  10.789   7.827  11.066  0.0522  0.0495  0.1825
  439MOL0     C60481  10.823   7.861  10.924 -0.2992 -0.0746  0.3177
  439MOL0     C60482  10.962   7.802  10.888  0.1583  0.1948 -0.0469
  439MOL0     C60483  11.083   7.897  10.891  0.1116 -0.2205 -0.0298
  439MOL0     C60484  11.225   7.830  10.893  0.2514 -0.0989  0.5738
  439MOL0     C60485  11.336   7.941  10.878  0.1734  0.9541  0.9431
  439MOL0     C60486  11.473   7.904  10.926 -0.4780  0.0307 -0.0479
  439MOL0     C60487  11.511   7.763  10.865 -1.2811  0.6455 -0.0393
  439MOL0     C60488  11.666   7.739  10.870  0.7907  1.1886  0.2528
  439MOL0    Cl60489  11.749   7.860  10.760 -0.2773  0.2858  0.2984
  439MOL0     C60490  10.591   7.988  11.067 -0.6543 -0.1265 -0.3092
  439MOL0     C60491  10.459   8.019  11.107 -0.9602 -0.1899 -0.2116
  439MOL0     O60492  10.210   7.842  11.374 -0.0874 -0.2224 -0.1492
  439MOL0     C60493  10.021   8.119  11.265  0.6664 -1.0313 -0.5890
  439MOL0     C60494   9.895   8.176  11.271 -0.6334  0.5994 -0.1523
  439MOL0     N60495   9.370   8.145  10.784  0.1052 -0.6062  1.0618
  439MOL0     N60496   9.437   8.169  10.671 -0.0767 -0.4371 -0.0213
  439MOL0     C60497  10.764   8.287  10.751  0.5459 -0.3133  0.4850
  439MOL0     C60498  10.890   8.332  10.718 -0.9694  0.5228 -0.9881
  439MOL0     C60499  11.304   8.387  10.581 -0.3035  0.1059 -1.0323
  439MOL0     C60500  11.309   8.534  10.579 -0.9339  0.2511  0.4443
  439MOL0     C60501  11.411   8.592  10.506 -0.3703 -0.4184  0.4527
  439MOL0     C60502  11.508   8.530  10.436 -0.5392 -0.7129 -0.7361
  439MOL0     O60503  11.602   8.620  10.385 -0.2827 -0.4075  0.4105
  439MOL0     C60504  11.710   8.555  10.319  0.7162  0.4828  0.0647
  439MOL0     C60505  11.796   8.661  10.252 -0.4701  0.1298  0.2764
  439MOL0     C60506  11.725   8.737  10.136  0.1007 -1.0406  0.4497
  439MOL0     C60507  11.829   8.828  10.059 -0.3218 -0.4086 -0.4193
  439MOL0     C60508  11.883   8.766   9.943  0.5545 -0.0057 -0.7270
  439MOL0     C60509  11.927   8.711   9.847 -0.5088 -0.8888 -0.1527
  439MOL0     C60510  11.507   8.391  10.440 -0.2702  0.1642 -0.9155
  439MOL0     C60511  11.417   8.315  10.522 -0.7563 -0.2292  0.6063
  439MOL0     C60512  11.418   8.166  10.518 -0.7662  0.5891  0.2093
  439MOL0     H60513  11.001   8.068  10.548 -1.1749 -0.6138 -0.5776
  439MOL0     H60514  10.774   7.971  10.624 -0.4063  0.8011 -2.7882
  439MOL0     H60515  10.496   8.278  10.596 -2.1015 -2.7960 -3.1218
  439MOL0     H60516  10.465   8.290  10.769  3.8292  0.3798  0.5217
  439MOL0     H60517  10.338   8.078  10.602  3.1195  0.7869 -0.6912
  439MOL0     H60518  10.333   8.097  10.777  3.0862 -0.9974 -0.5052
  439MOL0     H60519  10.225   8.337  10.719  1.3446 -0.3367  1.1206
  439MOL0     H60520  10.213   8.274  10.555  1.7786 -0.7905 -0.1840
  439MOL0     H60521  10.105   8.059  10.652  1.5406 -0.1912 -0.8586
  439MOL0     H60522  10.105   8.146  10.810 -0.0783 -0.0034 -0.9173
  439MOL0     H60523   9.993   8.249  10.551  3.0688 -2.7634  1.4856
  439MOL0     H60524   9.958   8.318  10.714  1.0722  0.5449  0.4742
  439MOL0     H60525   9.885   8.040  10.649  2.5686  0.4910 -0.5183
  439MOL0     H60526   9.808   8.139  10.765 -0.3428 -2.9404  0.2677
  439MOL0     H60527   9.793   8.151  10.457 -0.2589  0.1716 -0.7734
  439MOL0     H60528   9.703   8.272  10.558  0.0323 -0.3900 -0.1935
  439MOL0     H60529   9.579   8.103  10.461 -1.9462 -2.1617  0.5349
  439MOL0     H60530   9.679   7.975  10.540  1.7523  0.9341 -0.1824
  439MOL0     H60531   9.642   7.976  10.827  1.4449  1.1573  0.1664
  439MOL0     H60532   9.424   7.922  11.012  0.2091 -0.1513 -0.3002
  439MOL0     H60533   9.305   8.040  11.031  0.5351 -2.3358  0.6115
  439MOL0     H60534   9.604   8.099  11.073  0.5335  1.0025  0.6180
  439MOL0     H60535   9.456   8.211  11.099 -1.6852  0.2416 -1.2290
  439MOL0     H60536   9.365   8.039  11.270 -0.0218 -4.3319  1.1551
  439MOL0     H60537   9.513   7.950  11.259 -1.7881  0.0079  3.1446
  439MOL0     H60538   9.491   8.213  11.391  0.7866  0.6257  0.6920
  439MOL0     H60539   9.563   8.066  11.442 -3.9965  0.9892  0.8528
  439MOL0     H60540   9.721   7.913  11.404 -1.5905  0.5108 -1.8698
  439MOL0     H60541   9.972   7.725  11.323 -0.1519  0.1955 -0.1313
  439MOL0     H60542   9.839   7.735  11.437 -3.2024  4.0977 -1.5139
  439MOL0     H60543  10.010   7.746  11.490  0.4571 -5.0145 -2.0443
  439MOL0     H60544  10.403   7.741  11.289 -0.3602 -0.5625 -0.6629
  439MOL0     H60545  10.630   7.685  11.208  0.7741 -0.7526  0.6771
  439MOL0     H60546  10.743   7.825  10.860  0.9143 -1.1433 -0.6559
  439MOL0     H60547  10.836   7.969  10.918  0.2122 -0.0955  0.8430
  439MOL0     H60548  10.987   7.723  10.959  0.8539  1.7394  1.4829
  439MOL0     H60549  10.948   7.762  10.787  0.2712 -1.6037  0.6112
  439MOL0     H60550  11.071   7.968  10.973 -0.6308  1.5356 -1.5625
  439MOL0     H60551  11.076   7.965  10.805 -0.2803  0.6265  0.6541
  439MOL0     H60552  11.237   7.751  10.819 -0.1123 -0.4743  0.9072
  439MOL0     H60553  11.245   7.779  10.988  2.6767 -0.8958 -0.3017
  439MOL0     H60554  11.358   7.964  10.774  0.7237 -0.0441  0.8268
  439MOL0     H60555  11.312   8.038  10.922  4.4791  3.3400 -1.3062
  439MOL0     H60556  11.479   7.889  11.035  1.8545  0.2089 -0.1114
  439MOL0     H60557  11.538   7.988  10.901 -1.7683  1.1389  0.1894
  439MOL0     H60558  11.476   7.745  10.763 -2.8753 -1.2705  0.7842
  439MOL0     H60559  11.468   7.684  10.927 -1.3947  0.9229  0.2404
  439MOL0     H60560  11.688   7.638  10.833  1.4206  0.5921  2.1420
  439MOL0     H60561  11.697   7.750  10.975 -1.3311 -0.6638  1.1591
  439MOL0     H60562  10.623   8.049  10.983  0.5676 -2.9059 -1.9877
  439MOL0     H60563  10.401   8.098  11.061  0.4235  0.2548 -1.2418
  439MOL0     H60564  10.096   8.175  11.210  1.0574  0.0269  0.9725
  439MOL0     H60565   9.876   8.276  11.232 -1.1841  0.2796 -0.7216
  439MOL0     H60566  10.700   8.356  10.806  1.4797 -1.2948  2.9267
  439MOL0     H60567  10.925   8.431  10.746  0.3258 -0.8331  2.9838
  439MOL0     H60568  11.236   8.586  10.639 -1.2338  2.2136 -1.5177
  439MOL0     H60569  11.424   8.699  10.489  1.2166 -0.4753  1.1866
  439MOL0     H60570  11.775   8.489  10.378  1.7626  1.2975 -0.1459
  439MOL0     H60571  11.658   8.504  10.238 -1.5789  3.0480 -0.2238
  439MOL0     H60572  11.874   8.608  10.196 -1.2762  0.6417 -1.3903
  439MOL0     H60573  11.839   8.729  10.326  0.3903 -1.5837  1.4358
  439MOL0     H60574  11.689   8.663  10.064  1.9386 -1.4657 -0.0751
  439MOL0     H60575  11.636   8.792  10.169 -1.0225 -1.8329 -1.1138
  439MOL0     H60576  11.909   8.858  10.126  0.8513 -0.6258 -1.6665
  439MOL0     H60577  11.780   8.919  10.021 -0.6906  1.0099  3.1096
  439MOL0     H60578  11.971   8.672   9.757  1.4307 -1.9748  1.1970
  439MOL0     H60579  11.576   8.333  10.379  2.3911  2.2333 -0.0582
  439MOL0     H60580  11.342   8.130  10.448 -1.0907  1.9122 -0.1287
  439MOL0     H60581  11.514   8.131  10.477 -0.9850  1.4557 -1.0869
  439MOL0     H60582  11.410   8.128  10.620  0.5570  2.2551  0.9871
  440MOL0     O60583   1.883   0.376   4.729 -0.1314  1.1361 -0.1227
  440MOL0     C60584   1.852   0.425   4.626 -0.0076 -0.3579 -0.3256
  440MOL0     O60585   1.923   0.416   4.514 -0.2249  0.1197  0.3406
  440MOL0     C60586   2.053   0.377   4.526  0.1305 -0.5877 -0.1783
  440MOL0     C60587   2.106   0.268   4.461  0.7409 -0.2768 -0.5088
  440MOL0     C60588   2.232   0.222   4.492 -0.5499 -0.9065  0.3952
  440MOL0     C60589   2.317   0.298   4.571  0.2565 -0.2904 -0.9543
  440MOL0     O60590   2.437   0.254   4.605 -0.3902 -0.1490 -0.7827
  440MOL0     C60591   2.469   0.113   4.590  0.0578 -0.0209  0.3006
  440MOL0     C60592   2.617   0.092   4.627 -1.0879 -0.3284  0.3141
  440MOL0     C60593   2.721   0.160   4.526  0.4158 -0.1082  0.4857
  440MOL0     C60594   2.864   0.160   4.569  0.2651  0.4836  0.1228
  440MOL0     C60595   2.960   0.241   4.479 -0.9379  0.0509  0.5764
  440MOL0     C60596   2.944   0.213   4.330 -1.0043  0.1992  0.6054
  440MOL0     C60597   3.077   0.266   4.259 -0.4207 -0.4500  0.0670
  440MOL0     C60598   3.095   0.229   4.108 -0.4299 -0.3682 -0.5785
  440MOL0     N60599   3.228   0.289   4.064  0.4471 -0.0734  0.7237
  440MOL0     C60600   3.238   0.424   4.029  0.3360  0.2968  0.7606
  440MOL0     C60601   3.365   0.438   3.996  0.8231 -0.7070  0.0445
  440MOL0     C60602   3.426   0.559   3.935  0.3059  0.6332  0.0189
  440MOL0     C60603   3.577   0.577   3.985  0.5885  0.0980 -0.9945
  440MOL0     C60604   3.678   0.500   3.895  0.3830  0.7795 -0.7439
  440MOL0     C60605   3.827   0.525   3.907 -0.3552 -0.2543 -0.5601
  440MOL0     O60606   3.861   0.658   3.851 -0.3831 -0.0446  0.5649
  440MOL0     C60607   3.993   0.676   3.816 -0.6981  0.1317 -0.1468
  440MOL0     C60608   4.093   0.620   3.892 -0.8270  0.6618  0.3592
  440MOL0     C60609   4.226   0.651   3.863 -0.0520  0.7096  1.1453
  440MOL0     C60610   4.324   0.581   3.940 -0.1811  0.9795 -0.5097
  440MOL0     C60611   4.267   0.736   3.751  0.2142  0.5549  0.4245
  440MOL0     C60612   4.402   0.761   3.704 -0.0053 -0.2891 -0.3041
  440MOL0     O60613   4.429   0.828   3.588 -0.4111  1.1421  0.3766
  440MOL0     C60614   4.546   0.820   3.526  0.4369 -0.1315  1.0014
  440MOL0     C60615   4.622   0.703   3.516  0.2699 -0.0365 -0.7187
  440MOL0     C60616   4.755   0.715   3.465 -0.2747  0.0719  0.6710
  440MOL0     C60617   4.807   0.839   3.423 -0.2641 -0.7825 -0.2534
  440MOL0     O60618   4.939   0.864   3.372  0.2356 -0.2519 -0.0216
  440MOL0     C60619   5.008   0.756   3.308 -0.0761 -0.3839  0.6520
  440MOL0     C60620   5.136   0.813   3.252 -0.6887  0.2155  0.4152
  440MOL0     C60621   5.221   0.698   3.188 -0.4534 -0.3079 -0.7976
  440MOL0     C60622   5.366   0.744   3.164  0.3717  0.4228 -0.5051
  440MOL0     C60623   5.435   0.666   3.049  0.0515  0.5249  0.1646
  440MOL0     C60624   5.570   0.738   3.009 -0.6226  1.1574  0.1739
  440MOL0     C60625   5.645   0.661   2.901 -0.5159  0.1732 -0.2889
  440MOL0     C60626   5.761   0.732   2.829  0.1635 -0.5259  0.5819
  440MOL0    Cl60627   5.899   0.739   2.951  0.2156  0.0413  0.4152
  440MOL0     C60628   4.718   0.952   3.422 -0.0218 -0.1608  0.4100
  440MOL0     C60629   4.585   0.940   3.467  0.2931 -0.3629  0.7424
  440MOL0     O60630   4.492   0.721   3.777 -0.2615  0.6289 -0.0374
  440MOL0     C60631   4.157   0.793   3.676 -0.4564  0.7023 -0.5865
  440MOL0     C60632   4.029   0.769   3.713 -0.0775 -0.4287 -0.1873
  440MOL0     N60633   3.433   0.315   4.005  0.4280  0.3793  0.1791
  440MOL0     N60634   3.345   0.228   4.040 -0.5281 -0.5748  0.4769
  440MOL0     C60635   2.272   0.417   4.625  0.0988 -0.2388 -0.0812
  440MOL0     C60636   2.137   0.459   4.602 -0.0264  0.4389  0.1069
  440MOL0     C60637   1.728   0.502   4.628  0.1951 -1.0109 -0.5777
  440MOL0     C60638   1.655   0.507   4.754 -0.3180 -0.5552 -0.3799
  440MOL0     C60639   1.528   0.567   4.768  0.0887  0.3007  0.3322
  440MOL0     C60640   1.477   0.626   4.651  0.4107  0.6113  0.2489
  440MOL0     O60641   1.360   0.688   4.663  0.1248 -0.7929 -0.4850
  440MOL0     C60642   1.382   0.803   4.747  0.1174  0.3816 -0.6727
  440MOL0     C60643   1.300   0.921   4.691  0.2801 -0.3643 -0.4867
  440MOL0     C60644   1.354   0.995   4.570 -0.1944  0.4476  0.4515
  440MOL0     C60645   1.280   1.121   4.537  0.4539  0.3564 -0.8063
  440MOL0     C60646   1.141   1.107   4.508  1.0379  0.0814  0.1937
  440MOL0     C60647   1.024   1.101   4.480 -0.4668  0.4262  1.3339
  440MOL0     C60648   1.557   0.626   4.527 -0.1415  0.2117 -0.1213
  440MOL0     C60649   1.672   0.559   4.509 -0.2954 -0.0992 -0.2225
  440MOL0     C60650   1.738   0.559   4.374  0.6952 -0.0385 -0.9047
  440MOL0     H60651   2.035   0.210   4.403  2.1655 -0.5241 -2.0759
  440MOL0     H60652   2.260   0.125   4.453  1.2723  0.0773 -0.8833
  440MOL0     H60653   2.442   0.071   4.493 -0.0786  0.4441  0.1295
  440MOL0     H60654   2.407   0.066   4.667  0.0966  0.3531  0.5647
  440MOL0     H60655   2.630   0.126   4.730  2.2775 -0.0186 -0.0951
  440MOL0     H60656   2.645  -0.014   4.633 -1.3928 -0.3360  2.3223
  440MOL0     H60657   2.726   0.089   4.443  2.1041  1.3724 -0.7426
  440MOL0     H60658   2.707   0.262   4.489  0.6847 -0.5537 -0.9137
  440MOL0     H60659   2.865   0.192   4.674 -0.2605  1.7969 -0.2440
  440MOL0     H60660   2.897   0.057   4.580 -2.3572 -0.3403  0.9065
  440MOL0     H60661   3.056   0.204   4.517 -0.7883 -0.6249 -0.4217
  440MOL0     H60662   2.961   0.349   4.498  2.1160  0.4675 -1.2074
  440MOL0     H60663   2.935   0.105   4.315  3.0823 -0.5616  2.3699
  440MOL0     H60664   2.854   0.259   4.288  0.5451  3.0599  0.1508
  440MOL0     H60665   3.167   0.231   4.312 -0.3928  1.4954  1.4203
  440MOL0     H60666   3.078   0.374   4.274  2.0519 -0.5609  1.3725
  440MOL0     H60667   3.117   0.122   4.096 -0.2368 -0.4188  0.1904
  440MOL0     H60668   3.008   0.257   4.048  0.3126  0.3613 -1.3387
  440MOL0     H60669   3.168   0.506   4.044 -0.3581 -0.1432 -0.0008
  440MOL0     H60670   3.363   0.644   3.963 -2.3351 -1.3799  0.6041
  440MOL0     H60671   3.423   0.557   3.826 -1.0706 -1.2834  0.0298
  440MOL0     H60672   3.610   0.680   3.972  2.3120 -0.6733 -3.7004
  440MOL0     H60673   3.574   0.550   4.091  0.2802  1.8611 -0.5307
  440MOL0     H60674   3.670   0.393   3.917  0.2815  0.9420  0.0488
  440MOL0     H60675   3.650   0.535   3.795  1.1653 -1.6223 -1.8665
  440MOL0     H60676   3.857   0.513   4.011  0.1930 -1.2732 -0.8114
  440MOL0     H60677   3.878   0.441   3.859 -3.2237 -2.8901  0.6621
  440MOL0     H60678   4.072   0.549   3.971 -0.2970 -2.0208 -1.7730
  440MOL0     H60679   4.286   0.531   4.030  2.7094 -1.5064 -0.5145
  440MOL0     H60680   4.392   0.661   3.969 -1.8829  2.0517  0.6567
  440MOL0     H60681   4.384   0.508   3.884 -1.5667 -0.3776 -0.3152
  440MOL0     H60682   4.582   0.613   3.561  0.8942  1.1931  2.6418
  440MOL0     H60683   4.816   0.625   3.467 -0.9199 -0.3704  0.8447
  440MOL0     H60684   5.024   0.674   3.379 -3.2464 -0.3926  1.5097
  440MOL0     H60685   4.944   0.716   3.228 -0.2058 -0.5178  0.8221
  440MOL0     H60686   5.118   0.895   3.182 -2.7131  0.9494  1.6936
  440MOL0     H60687   5.197   0.859   3.330  1.1081  0.9123 -1.3218
  440MOL0     H60688   5.162   0.685   3.097 -0.6617  3.0302 -1.2601
  440MOL0     H60689   5.210   0.609   3.251 -1.4017  0.3871  0.0427
  440MOL0     H60690   5.428   0.744   3.254 -0.8810  1.9049  0.4162
  440MOL0     H60691   5.354   0.848   3.132 -3.1188 -0.3141 -2.1077
  440MOL0     H60692   5.451   0.564   3.083  0.0307 -0.2066 -1.9021
  440MOL0     H60693   5.366   0.667   2.964 -0.7980  3.0630  0.7846
  440MOL0     H60694   5.628   0.761   3.099 -1.5306  1.8159  0.6068
  440MOL0     H60695   5.548   0.833   2.960 -1.5629  1.2129  0.6746
  440MOL0     H60696   5.571   0.646   2.822  0.2419 -1.1580 -0.7850
  440MOL0     H60697   5.678   0.560   2.929  0.8333  0.1663 -1.7416
  440MOL0     H60698   5.726   0.830   2.795 -2.1020 -1.0116  1.3520
  440MOL0     H60699   5.793   0.680   2.737  4.7915  0.0442  1.5925
  440MOL0     H60700   4.754   1.048   3.388  0.2223 -0.4218 -0.0893
  440MOL0     H60701   4.519   1.027   3.466  0.6428 -0.0131 -2.3210
  440MOL0     H60702   4.169   0.856   3.589  1.1237  2.4152  0.7773
  440MOL0     H60703   3.949   0.826   3.667 -1.5391 -0.1596  2.4839
  440MOL0     H60704   2.341   0.478   4.684  1.9057 -1.8628 -0.4277
  440MOL0     H60705   2.101   0.551   4.647 -2.9054 -1.1970  1.4047
  440MOL0     H60706   1.692   0.461   4.845 -2.1233 -1.3942 -0.0182
  440MOL0     H60707   1.483   0.571   4.867 -1.0004  1.2217 -0.1818
  440MOL0     H60708   1.332   0.776   4.841  1.0885 -1.5903 -0.6659
  440MOL0     H60709   1.484   0.838   4.765  0.2521 -0.5314  0.4406
  440MOL0     H60710   1.297   0.987   4.778  5.4588 -1.2117  0.6361
  440MOL0     H60711   1.200   0.889   4.661  0.4442  0.6224 -2.1946
  440MOL0     H60712   1.456   1.027   4.593  0.0510  0.2571 -0.3200
  440MOL0     H60713   1.358   0.928   4.483 -4.0383  0.7126 -0.1316
  440MOL0     H60714   1.333   1.171   4.456  0.6663  2.1318  0.3515
  440MOL0     H60715   1.283   1.191   4.622  0.4707 -1.3574  0.6762
  440MOL0     H60716   0.921   1.110   4.454  0.3456  1.4451 -2.0021
  440MOL0     H60717   1.515   0.685   4.446  0.9790  0.3432 -0.6258
  440MOL0     H60718   1.832   0.615   4.381  1.5854 -1.5451 -0.3956
  440MOL0     H60719   1.749   0.455   4.342  1.9639 -0.4134  0.6265
  440MOL0     H60720   1.663   0.595   4.303 -2.0702 -1.3963  1.1235
  441MOL0     O60721   5.149   1.349   3.889  0.0309 -0.2078 -0.1683
  441MOL0     C60722   5.150   1.275   3.986  0.6415  0.3823  0.3589
  441MOL0     O60723   5.246   1.185   4.016 -0.3025  0.1506 -0.2634
  441MOL0     C60724   5.364   1.190   3.947 -0.0177  0.0662 -0.3403
  441MOL0     C60725   5.382   1.165   3.810 -0.8775 -0.1765  1.2361
  441MOL0     C60726   5.498   1.174   3.738  0.6260  0.4075 -0.8699
  441MOL0     C60727   5.612   1.175   3.814  0.1480 -0.0707 -0.1280
  441MOL0     O60728   5.738   1.187   3.756  0.4677  0.0114  1.3010
  441MOL0     C60729   5.754   1.095   3.647 -1.0270  0.0981  0.7466
  441MOL0     C60730   5.897   1.043   3.656  0.1598 -0.0363  1.1442
  441MOL0     C60731   6.002   1.151   3.653 -1.4093 -0.0729  0.1786
  441MOL0     C60732   6.150   1.094   3.648 -0.2475 -0.2729  0.2394
  441MOL0     C60733   6.183   1.050   3.791 -0.0739 -0.4776  0.4644
  441MOL0     C60734   6.333   1.003   3.802 -0.4292  0.6951 -0.4870
  441MOL0     C60735   6.421   1.137   3.801 -0.1674 -0.3561  0.5386
  441MOL0     C60736   6.564   1.101   3.771  0.0862  0.0697  0.7407
  441MOL0     N60737   6.658   1.211   3.774 -0.4482  0.0145  0.1532
  441MOL0     C60738   6.633   1.347   3.743 -0.0351 -0.0795 -0.4927
  441MOL0     C60739   6.748   1.418   3.779  0.0689  0.6288 -0.9237
  441MOL0     C60740   6.777   1.572   3.750 -0.3255 -0.1557  0.5693
  441MOL0     C60741   6.777   1.643   3.887  0.2994 -0.7103 -0.1917
  441MOL0     C60742   6.835   1.784   3.886  0.0555  0.6065 -1.2335
  441MOL0     C60743   6.990   1.779   3.892 -0.3740  0.1353 -0.9401
  441MOL0     O60744   7.024   1.800   4.032  0.8939 -0.3424  0.2927
  441MOL0     C60745   7.097   1.701   4.090 -0.7343 -0.8603 -0.4557
  441MOL0     C60746   7.196   1.623   4.033  0.1555 -0.4891 -0.2885
  441MOL0     C60747   7.272   1.532   4.107 -1.0051 -0.1554 -0.0392
  441MOL0     C60748   7.404   1.482   4.039  0.2670  0.2128 -0.3684
  441MOL0     C60749   7.237   1.496   4.237 -0.1160 -0.5475  0.1080
  441MOL0     C60750   7.320   1.403   4.327 -0.1330  0.2969  1.0251
  441MOL0     O60751   7.297   1.416   4.462 -0.2171  0.4466 -0.2118
  441MOL0     C60752   7.379   1.369   4.569  0.3948 -0.3136 -0.1719
  441MOL0     C60753   7.332   1.399   4.703 -0.4785  0.4886  0.3171
  441MOL0     C60754   7.404   1.362   4.816 -0.2799 -0.6181 -0.2364
  441MOL0     C60755   7.528   1.291   4.794  0.0733 -0.2257 -0.2145
  441MOL0     O60756   7.610   1.246   4.894 -0.7915 -0.9703 -0.4022
  441MOL0     C60757   7.558   1.213   5.027 -0.4704  0.3735  0.6013
  441MOL0     C60758   7.439   1.115   5.016  0.4134 -0.0472  0.0898
  441MOL0     C60759   7.480   0.973   4.979  0.2058  0.4001  0.1928
  441MOL0     C60760   7.379   0.866   5.009 -0.2330  0.2494 -1.1505
  441MOL0     C60761   7.252   0.873   4.920 -0.2703  0.0387  0.3333
  441MOL0     C60762   7.169   0.741   4.920 -0.4836 -0.3369 -1.3717
  441MOL0     C60763   7.075   0.732   4.795  0.0613  0.9643 -1.2952
  441MOL0     C60764   6.934   0.687   4.837 -0.5059 -0.3355  0.0968
  441MOL0    Cl60765   6.917   0.512   4.819 -0.5088  0.0317 -0.3863
  441MOL0     C60766   7.577   1.257   4.662 -0.1590  0.1352 -0.0870
  441MOL0     C60767   7.502   1.294   4.548 -0.5608  0.3970 -0.0735
  441MOL0     O60768   7.384   1.314   4.279 -0.1218 -0.0330 -0.4949
  441MOL0     C60769   7.130   1.576   4.298 -0.4017 -0.3981 -0.0981
  441MOL0     C60770   7.067   1.677   4.224  0.2482 -0.1482 -0.0575
  441MOL0     N60771   6.844   1.325   3.827 -0.5414 -0.2067 -0.0208
  441MOL0     N60772   6.792   1.207   3.827  0.3092 -0.0809  0.3983
  441MOL0     C60773   5.606   1.206   3.952 -0.5190 -0.1140 -0.7754
  441MOL0     C60774   5.480   1.209   4.012 -0.7886  0.3475 -0.0151
  441MOL0     C60775   5.021   1.286   4.066 -0.3240  0.2715  0.5715
  441MOL0     C60776   4.990   1.180   4.151  0.2936 -0.6395 -0.4338
  441MOL0     C60777   4.869   1.181   4.221  0.0658 -0.0877 -0.1330
  441MOL0     C60778   4.786   1.289   4.231  0.4026 -1.5918  0.6964
  441MOL0     O60779   4.666   1.294   4.301 -0.7887  0.4563  0.7153
  441MOL0     C60780   4.673   1.225   4.434 -0.3961 -0.2322 -0.9584
  441MOL0     C60781   4.531   1.244   4.489 -0.7156 -0.1009  0.6950
  441MOL0     C60782   4.421   1.155   4.431  0.0939 -0.0947 -0.6025
  441MOL0     C60783   4.314   1.144   4.537  0.4031  1.1820  0.4619
  441MOL0     C60784   4.186   1.092   4.489  0.1263 -0.2335  0.1585
  441MOL0     C60785   4.074   1.050   4.449 -0.6541 -0.5220  0.0349
  441MOL0     C60786   4.817   1.396   4.147 -0.5189  0.8258 -0.4764
  441MOL0     C60787   4.926   1.396   4.067 -0.5746 -0.8365  0.5056
  441MOL0     C60788   4.946   1.526   3.981  0.4564  0.7330  0.2833
  441MOL0     H60789   5.293   1.160   3.748  1.7433  3.3162 -3.4447
  441MOL0     H60790   5.497   1.171   3.629 -0.3858  0.2938 -0.8672
  441MOL0     H60791   5.739   1.150   3.554 -1.7385  1.1744  1.4792
  441MOL0     H60792   5.676   1.018   3.651 -1.7728  0.8098  0.3161
  441MOL0     H60793   5.899   0.994   3.754  1.2401  0.1091  1.2116
  441MOL0     H60794   5.906   0.974   3.572  0.2767 -1.5445  2.3501
  441MOL0     H60795   5.969   1.223   3.578 -0.7640 -0.3801 -0.4160
  441MOL0     H60796   5.998   1.208   3.746  2.4401 -0.7085  0.8996
  441MOL0     H60797   6.175   1.004   3.590  1.3331 -0.4615  1.1465
  441MOL0     H60798   6.221   1.173   3.622  0.8660 -0.4416  2.5065
  441MOL0     H60799   6.115   0.972   3.825 -1.8224  1.4616  1.6183
  441MOL0     H60800   6.169   1.132   3.861  2.3105  1.1066 -0.7780
  441MOL0     H60801   6.346   0.951   3.897  1.3357  0.3260 -0.8841
  441MOL0     H60802   6.355   0.941   3.715 -2.7017  3.1208 -2.9700
  441MOL0     H60803   6.420   1.174   3.904  0.6636 -0.4945  0.6040
  441MOL0     H60804   6.379   1.215   3.738  2.3506  0.9367  0.3120
  441MOL0     H60805   6.599   1.005   3.811  0.9423 -0.5149 -1.2538
  441MOL0     H60806   6.564   1.082   3.663 -0.5938  1.2874  0.5093
  441MOL0     H60807   6.539   1.393   3.714  0.0464  0.8121  0.6037
  441MOL0     H60808   6.699   1.614   3.685 -0.3267 -0.3319  0.4554
  441MOL0     H60809   6.878   1.576   3.709  1.1493  0.3101  3.9431
  441MOL0     H60810   6.676   1.661   3.927  1.0293  1.2249  0.9271
  441MOL0     H60811   6.835   1.586   3.960  2.1505  0.3682 -0.7462
  441MOL0     H60812   6.820   1.845   3.796  0.3744  2.6489  0.0378
  441MOL0     H60813   6.788   1.838   3.968 -1.0642 -2.1009  0.0306
  441MOL0     H60814   7.030   1.687   3.849  0.1184  0.4223 -1.1119
  441MOL0     H60815   7.034   1.858   3.830  0.8042 -0.2100 -0.5653
  441MOL0     H60816   7.225   1.649   3.931  1.6730  0.3558  0.3206
  441MOL0     H60817   7.408   1.373   4.052  1.8495  0.4372  1.5048
  441MOL0     H60818   7.492   1.533   4.079  0.5008  0.1921 -0.8634
  441MOL0     H60819   7.398   1.499   3.932  0.3757  1.9938 -0.1247
  441MOL0     H60820   7.242   1.458   4.717 -1.0553 -0.5866  1.2429
  441MOL0     H60821   7.373   1.391   4.916 -1.8401  1.2775 -1.1876
  441MOL0     H60822   7.632   1.157   5.084 -0.0939  0.0234 -0.2326
  441MOL0     H60823   7.535   1.303   5.087  1.1520  0.9334  0.4385
  441MOL0     H60824   7.388   1.118   5.113 -0.1867  2.8865 -0.2075
  441MOL0     H60825   7.365   1.143   4.941 -3.5703 -1.2532  3.1825
  441MOL0     H60826   7.574   0.944   5.027  0.9906 -2.9273 -2.8923
  441MOL0     H60827   7.496   0.965   4.871 -0.7311 -4.0075  0.1959
  441MOL0     H60828   7.340   0.879   5.111 -0.1862  0.8782 -1.2052
  441MOL0     H60829   7.431   0.773   4.986 -0.4067  0.5065 -2.6992
  441MOL0     H60830   7.196   0.952   4.971 -1.5148 -1.1383  0.8567
  441MOL0     H60831   7.282   0.901   4.819  0.3269 -0.0304  0.4844
  441MOL0     H60832   7.114   0.734   5.014  2.9324 -4.1867  0.6496
  441MOL0     H60833   7.232   0.652   4.927  0.1317  0.2627  2.7129
  441MOL0     H60834   7.113   0.659   4.722  0.0030 -0.0910 -0.3037
  441MOL0     H60835   7.064   0.829   4.747 -2.0309  0.1601 -2.6053
  441MOL0     H60836   6.867   0.730   4.761 -1.3352 -1.9495 -0.1315
  441MOL0     H60837   6.911   0.716   4.940  3.7202  0.7034  0.9384
  441MOL0     H60838   7.666   1.196   4.653 -0.1641  0.4306 -2.9204
  441MOL0     H60839   7.538   1.250   4.456  0.9012 -1.5137  1.3471
  441MOL0     H60840   7.103   1.568   4.403  2.1724 -0.6806  0.6254
  441MOL0     H60841   6.990   1.746   4.257 -1.9569 -2.3531 -0.2955
  441MOL0     H60842   5.696   1.221   4.011 -2.3492 -0.6611  2.3639
  441MOL0     H60843   5.472   1.233   4.117 -0.0671 -1.6698  0.5388
  441MOL0     H60844   5.044   1.089   4.174  1.7600  0.6417  1.5207
  441MOL0     H60845   4.853   1.087   4.272 -1.2093 -0.3152 -0.9050
  441MOL0     H60846   4.700   1.119   4.436 -0.6730 -0.3003 -0.3318
  441MOL0     H60847   4.748   1.276   4.496 -2.1019  2.2371 -0.7870
  441MOL0     H60848   4.505   1.350   4.482 -1.3885 -0.3391 -0.7582
  441MOL0     H60849   4.529   1.222   4.596 -4.9680  0.5132  0.8969
  441MOL0     H60850   4.369   1.204   4.349 -0.9610 -2.4545 -1.4401
  441MOL0     H60851   4.457   1.055   4.402  0.7477 -0.7370  2.1674
  441MOL0     H60852   4.289   1.238   4.586 -0.3430  1.2067  0.0463
  441MOL0     H60853   4.347   1.068   4.609  1.3922  0.6484 -0.5226
  441MOL0     H60854   3.982   1.014   4.407 -0.3744 -2.6307  1.1052
  441MOL0     H60855   4.755   1.483   4.164 -1.0885  1.1383 -3.6101
  441MOL0     H60856   4.942   1.496   3.875  2.4309  0.7664  0.1688
  441MOL0     H60857   4.876   1.610   3.996 -0.5995  0.3924 -2.1448
  441MOL0     H60858   5.047   1.565   3.999  0.2672  1.4770 -0.1830
  442MOL0     O60859   8.321   7.369   3.922 -0.8200  0.3539  0.7551
  442MOL0     C60860   8.223   7.346   3.849  0.1762  0.1704  0.2195
  442MOL0     O60861   8.211   7.235   3.764  0.7179  0.0838 -0.1279
  442MOL0     C60862   8.326   7.156   3.754  0.0826 -0.3053  0.1414
  442MOL0     C60863   8.329   7.034   3.822 -0.1443  0.5148  0.1672
  442MOL0     C60864   8.440   6.951   3.804  0.1099  0.0451  0.1334
  442MOL0     C60865   8.553   6.995   3.724  0.6941  0.0205 -0.1236
  442MOL0     O60866   8.641   6.898   3.709 -0.5451 -0.4738 -0.0955
  442MOL0     C60867   8.718   6.899   3.600  0.6715 -0.0434  0.7477
  442MOL0     C60868   8.814   6.773   3.602 -0.2088 -0.1838  0.4072
  442MOL0     C60869   8.940   6.803   3.684  0.0379 -0.0149  0.1005
  442MOL0     C60870   9.058   6.713   3.643  0.4736  0.4848  0.4027
  442MOL0     C60871   9.190   6.756   3.702 -0.1055  1.2082 -0.3397
  442MOL0     C60872   9.301   6.664   3.661  0.0291 -0.5638  0.3874
  442MOL0     C60873   9.441   6.684   3.736 -0.4215 -0.3572  0.6954
  442MOL0     C60874   9.548   6.591   3.693  0.7087  0.2288  0.1858
  442MOL0     N60875   9.509   6.449   3.725  0.0727 -0.0613 -0.2399
  442MOL0     C60876   9.545   6.389   3.840 -0.7125 -0.4900  0.3736
  442MOL0     C60877   9.507   6.264   3.825 -0.3700  0.2702 -0.5091
  442MOL0     C60878   9.534   6.142   3.913  0.5989 -0.7030  1.0129
  442MOL0     C60879   9.683   6.100   3.907 -0.4598  1.0617 -0.3494
  442MOL0     C60880   9.726   6.065   4.044 -0.4136  0.0266 -0.1346
  442MOL0     C60881   9.875   6.030   4.043  0.0061  1.1061 -0.8213
  442MOL0     O60882   9.927   5.986   4.170 -0.5170  0.1790  0.3002
  442MOL0     C60883  10.059   6.012   4.195  0.6221 -0.2496  0.2495
  442MOL0     C60884  10.096   6.036   4.331 -0.0072 -0.1340  0.0515
  442MOL0     C60885  10.231   6.049   4.370  0.0913  0.1321  0.0175
  442MOL0     C60886  10.267   6.089   4.512  0.4836  0.0075 -0.1424
  442MOL0     C60887  10.332   6.032   4.267  0.4477  0.3901  0.1952
  442MOL0     C60888  10.477   6.015   4.302  0.3052 -0.5674 -0.6026
  442MOL0     O60889  10.557   6.006   4.192 -0.3105 -0.3805 -0.3254
  442MOL0     C60890  10.682   5.949   4.196  0.1402  0.0227  0.3600
  442MOL0     C60891  10.766   5.990   4.088  0.1186 -0.2314 -0.4088
  442MOL0     C60892  10.887   5.924   4.063  0.9132 -1.0201 -0.8343
  442MOL0     C60893  10.926   5.822   4.145  0.4722  0.0655 -0.7528
  442MOL0     O60894  11.040   5.749   4.140 -0.1000  0.2214  0.0294
  442MOL0     C60895  11.138   5.780   4.038  0.0985  0.8453 -1.1283
  442MOL0     C60896  11.257   5.680   4.040 -0.2993  0.9288 -0.4136
  442MOL0     C60897  11.343   5.684   4.170 -0.4830  0.5483  0.0183
  442MOL0     C60898  11.469   5.596   4.156 -0.6659  0.8277 -0.4006
  442MOL0     C60899  11.431   5.450   4.151 -0.0383 -0.5489  0.6998
  442MOL0     C60900  11.555   5.357   4.142 -0.6616  0.2059 -0.4737
  442MOL0     C60901  11.529   5.216   4.150 -0.6323  0.8132 -0.0241
  442MOL0     C60902  11.482   5.173   4.013 -0.6441  0.3491  0.6954
  442MOL0    Cl60903  11.481   4.991   4.011 -0.0203 -0.0416 -0.4021
  442MOL0     C60904  10.840   5.787   4.253 -0.5220 -0.3138 -1.3421
  442MOL0     C60905  10.719   5.846   4.282 -0.6789  0.4902 -0.2052
  442MOL0     O60906  10.515   5.990   4.416  0.4786  0.1893 -0.0094
  442MOL0     C60907  10.291   6.023   4.134 -0.3316  0.4143  0.0935
  442MOL0     C60908  10.161   5.999   4.102  0.2220 -1.3146  0.1378
  442MOL0     N60909   9.451   6.250   3.698  0.3898  0.4004  0.4612
  442MOL0     N60910   9.444   6.365   3.642 -0.5116  1.0627  0.5413
  442MOL0     C60911   8.551   7.125   3.666  0.5882  0.1803  0.0219
  442MOL0     C60912   8.437   7.202   3.673 -0.4607 -0.3843  0.8183
  442MOL0     C60913   8.110   7.440   3.853  0.4665 -0.0124 -0.1464
  442MOL0     C60914   8.006   7.419   3.757  0.4045  0.5281 -0.9925
  442MOL0     C60915   7.887   7.490   3.763 -0.7121  0.0510  0.0019
  442MOL0     C60916   7.870   7.605   3.845  0.1932  0.8994  0.1382
  442MOL0     O60917   7.750   7.678   3.857 -0.4901 -0.2311  0.1135
  442MOL0     C60918   7.637   7.671   3.769  0.6400  1.1964  0.6153
  442MOL0     C60919   7.536   7.576   3.814 -0.6276  0.4757  0.1130
  442MOL0     C60920   7.453   7.615   3.940  0.1834 -0.0559  0.2152
  442MOL0     C60921   7.301   7.581   3.917  0.1817 -0.0829 -0.3230
  442MOL0     C60922   7.225   7.657   4.017 -1.2146 -0.1895  0.7899
  442MOL0     C60923   7.153   7.713   4.098  0.1292  0.0205  0.8371
  442MOL0     C60924   7.981   7.632   3.923  0.3534 -0.2546  0.0978
  442MOL0     C60925   8.093   7.547   3.938 -0.7321 -0.4550 -0.0769
  442MOL0     C60926   8.187   7.579   4.056 -0.1224  0.1922 -0.0489
  442MOL0     H60927   8.248   6.999   3.886  0.9336  0.0057  1.3037
  442MOL0     H60928   8.433   6.852   3.847  1.4901 -0.0558  0.1799
  442MOL0     H60929   8.788   6.984   3.598  2.0850 -1.1197  2.3067
  442MOL0     H60930   8.653   6.886   3.513 -0.3562 -1.9595  1.7547
  442MOL0     H60931   8.772   6.675   3.626  0.7728 -1.0602 -1.2728
  442MOL0     H60932   8.847   6.761   3.498 -0.1897  0.0775  0.3835
  442MOL0     H60933   8.979   6.905   3.678  1.3885 -0.4624  0.7390
  442MOL0     H60934   8.929   6.781   3.791  1.0601 -0.1883  0.1799
  442MOL0     H60935   9.039   6.611   3.678  0.7750  0.3539  0.1862
  442MOL0     H60936   9.075   6.704   3.536  2.6167  1.4713  0.6116
  442MOL0     H60937   9.191   6.754   3.812 -0.3187  0.6331 -0.3488
  442MOL0     H60938   9.218   6.856   3.667  1.1025  1.1848  0.5109
  442MOL0     H60939   9.268   6.561   3.679  0.3190 -0.3150  2.6439
  442MOL0     H60940   9.320   6.684   3.555  1.8881 -0.8869  0.6300
  442MOL0     H60941   9.425   6.691   3.844 -0.2035  3.3854  0.6275
  442MOL0     H60942   9.485   6.781   3.712  1.5516 -1.1882  0.7403
  442MOL0     H60943   9.567   6.603   3.586  2.7422 -0.3937  0.4225
  442MOL0     H60944   9.645   6.611   3.741  1.8068 -2.8631 -0.4747
  442MOL0     H60945   9.594   6.442   3.921 -1.5932  3.3876 -1.4029
  442MOL0     H60946   9.473   6.057   3.882  1.3711 -0.9149  0.0279
  442MOL0     H60947   9.510   6.174   4.015 -1.7024  0.5489  0.1416
  442MOL0     H60948   9.693   6.008   3.848 -1.1550  0.0019  1.1142
  442MOL0     H60949   9.748   6.175   3.861  1.1266 -0.3341 -0.4820
  442MOL0     H60950   9.718   6.158   4.101  0.2778  1.5173 -2.3486
  442MOL0     H60951   9.679   5.983   4.100  1.2418 -0.9055 -0.0645
  442MOL0     H60952   9.900   5.952   3.971  2.2470 -0.0300  1.0569
  442MOL0     H60953   9.927   6.122   4.015  1.8420 -0.0098 -1.1975
  442MOL0     H60954  10.024   6.051   4.411  1.5304 -0.4964  1.5728
  442MOL0     H60955  10.293   6.001   4.571  0.0291 -1.9240 -2.6632
  442MOL0     H60956  10.184   6.134   4.567 -0.8175 -1.7815 -0.5458
  442MOL0     H60957  10.349   6.162   4.512 -0.8277  1.5349  0.5101
  442MOL0     H60958  10.731   6.062   4.014  1.0898  2.7550  1.8412
  442MOL0     H60959  10.953   5.954   3.983  1.3586  1.9458  0.5033
  442MOL0     H60960  11.093   5.748   3.944  0.6719 -2.6372 -0.3399
  442MOL0     H60961  11.173   5.884   4.043  0.2591  0.7480  1.1880
  442MOL0     H60962  11.228   5.576   4.025  0.3967  0.7100 -0.3172
  442MOL0     H60963  11.321   5.713   3.956  0.5486  1.1696  0.3087
  442MOL0     H60964  11.282   5.647   4.252 -0.9181 -1.0981 -1.0165
  442MOL0     H60965  11.360   5.789   4.196 -2.4976  1.0568 -0.5003
  442MOL0     H60966  11.536   5.614   4.241  2.1670 -2.7463 -1.6126
  442MOL0     H60967  11.528   5.619   4.067  0.6627  0.0096  0.2349
  442MOL0     H60968  11.366   5.427   4.237  0.6180 -0.6870  1.1687
  442MOL0     H60969  11.381   5.431   4.056  0.7819 -1.9474  0.5207
  442MOL0     H60970  11.626   5.375   4.223 -0.9866 -0.4530 -0.0339
  442MOL0     H60971  11.604   5.377   4.046 -1.9304  0.4332 -1.0961
  442MOL0     H60972  11.464   5.189   4.233  0.8541  2.2238  1.6732
  442MOL0     H60973  11.618   5.158   4.175 -0.2540  0.9943 -0.8960
  442MOL0     H60974  11.550   5.202   3.932  0.3311 -1.7745  0.6628
  442MOL0     H60975  11.382   5.213   3.995 -0.4175  1.7176  2.3042
  442MOL0     H60976  10.864   5.704   4.318  1.1167  1.8958  1.1159
  442MOL0     H60977  10.664   5.798   4.362  0.5889 -0.4424  0.1381
  442MOL0     H60978  10.358   6.004   4.050 -3.0718 -0.1595 -2.1197
  442MOL0     H60979  10.132   5.978   4.000 -1.0407 -0.6136  0.3350
  442MOL0     H60980   8.641   7.161   3.615  0.7850 -1.2448 -0.6943
  442MOL0     H60981   8.430   7.295   3.619  1.2451 -0.5299  0.2674
  442MOL0     H60982   8.016   7.343   3.681  0.9652  0.0818 -0.4747
  442MOL0     H60983   7.799   7.463   3.705  0.0752 -0.2705 -1.0891
  442MOL0     H60984   7.588   7.769   3.767 -1.9134 -0.0215 -0.7013
  442MOL0     H60985   7.662   7.639   3.668 -4.3429 -2.1046  0.1284
  442MOL0     H60986   7.586   7.480   3.835  2.3220  1.4695 -1.7349
  442MOL0     H60987   7.470   7.555   3.730  0.7272  1.5091 -1.2452
  442MOL0     H60988   7.500   7.560   4.023  1.4776 -0.3424 -0.6834
  442MOL0     H60989   7.457   7.723   3.954 -3.2502  0.6726 -2.9818
  442MOL0     H60990   7.286   7.473   3.922 -0.8194 -0.3717 -5.0910
  442MOL0     H60991   7.266   7.613   3.818 -1.4454  2.3024  0.9071
  442MOL0     H60992   7.087   7.770   4.160  2.5324  3.8231  0.2124
  442MOL0     H60993   7.957   7.716   3.987  1.5141 -0.6723  1.1328
  442MOL0     H60994   8.156   7.660   4.122  0.2900  1.3337 -1.2260
  442MOL0     H60995   8.204   7.492   4.120 -0.3460  0.3533  0.2324
  442MOL0     H60996   8.280   7.615   4.011  1.1399  0.6259  2.7070
  443MOL0     O60997   7.462  10.581  10.273 -0.0185 -0.6698 -0.0342
  443MOL0     C60998   7.441  10.543  10.387 -0.0321  0.4839 -0.0412
  443MOL0     O60999   7.537  10.507  10.473  0.2617 -0.0766 -0.5699
  443MOL0     C61000   7.664  10.497  10.421  0.5307 -0.5328 -1.1817
  443MOL0     C61001   7.726  10.374  10.411 -0.0699 -0.0763 -0.1733
  443MOL0     C61002   7.854  10.363  10.347 -0.4780 -0.4768  0.0380
  443MOL0     C61003   7.925  10.476  10.315  0.1326  0.0394 -0.0222
  443MOL0     O61004   8.056  10.452  10.270 -0.4326  0.4225  1.2837
  443MOL0     C61005   8.092  10.537  10.153 -0.1184 -0.6725  0.1620
  443MOL0     C61006   8.218  10.490  10.074  0.1954 -0.0573 -0.4057
  443MOL0     C61007   8.256  10.589   9.952 -0.9224  0.4530 -0.7006
  443MOL0     C61008   8.395  10.558   9.899 -1.0070  0.2090 -0.1802
  443MOL0     C61009   8.510  10.575  10.002  0.5496 -0.0717 -0.1151
  443MOL0     C61010   8.647  10.595   9.924 -0.0740 -0.0148 -1.1829
  443MOL0     C61011   8.768  10.614  10.017 -0.0234  0.1924  0.3763
  443MOL0     C61012   8.808  10.765  10.011 -0.0942  0.9512 -0.3307
  443MOL0     N61013   8.944  10.791  10.053  0.0829 -0.1709  0.2061
  443MOL0     C61014   9.058  10.723  10.011 -0.4428 -0.0043  0.4960
  443MOL0     C61015   9.161  10.785  10.069 -0.1550 -0.7408  0.2167
  443MOL0     C61016   9.303  10.729  10.075 -0.4858 -0.7548 -0.2126
  443MOL0     C61017   9.378  10.736   9.947  0.1888  0.3514 -0.4374
  443MOL0     C61018   9.523  10.691   9.951  0.4618  0.2663 -0.1023
  443MOL0     C61019   9.622  10.761  10.042  0.0312 -0.3692  0.2301
  443MOL0     O61020   9.608  10.709  10.173 -0.0691  0.1351  0.5013
  443MOL0     C61021   9.716  10.710  10.259  0.4604  0.1475  0.5701
  443MOL0     C61022   9.838  10.763  10.223  0.2110 -0.9716  0.5939
  443MOL0     C61023   9.952  10.740  10.293 -0.2196  1.3253  0.3085
  443MOL0     C61024  10.085  10.785  10.232  0.3855  0.5154  0.6037
  443MOL0     C61025   9.941  10.678  10.419 -1.1201 -0.5113  0.5752
  443MOL0     C61026  10.057  10.648  10.513  0.2430  0.2855  0.3850
  443MOL0     O61027  10.181  10.669  10.462 -0.3584 -0.2694  0.1374
  443MOL0     C61028  10.289  10.623  10.525  0.4069 -0.4455  0.4497
  443MOL0     C61029  10.333  10.696  10.635  0.2621  0.3090  0.1712
  443MOL0     C61030  10.459  10.660  10.690  0.6211  1.6894  0.3738
  443MOL0     C61031  10.538  10.554  10.633  0.4801  0.3119 -0.1898
  443MOL0     O61032  10.665  10.526  10.677  0.5816 -0.0743 -0.0829
  443MOL0     C61033  10.714  10.592  10.800  0.6290  0.0450  0.5624
  443MOL0     C61034  10.853  10.523  10.836  0.4504  0.1308  1.2770
  443MOL0     C61035  10.903  10.574  10.971 -0.2876 -0.5198  0.2892
  443MOL0     C61036  11.059  10.541  10.969  0.3005  0.2550  0.6584
  443MOL0     C61037  11.108  10.564  11.110  0.4946  0.4220  0.1795
  443MOL0     C61038  11.256  10.583  11.124 -0.5801  0.4948  0.8575
  443MOL0     C61039  11.333  10.472  11.063  0.1874 -0.2639  0.1486
  443MOL0     C61040  11.480  10.493  11.103  0.3004 -0.8132  0.1412
  443MOL0    Cl61041  11.574  10.369  11.028 -0.2474 -0.3824 -0.1124
  443MOL0     C61042  10.486  10.476  10.527 -0.4916 -0.2223  0.2477
  443MOL0     C61043  10.363  10.519  10.469  0.0693  0.2235 -0.8127
  443MOL0     O61044  10.030  10.612  10.627 -0.1118 -0.3447 -0.2937
  443MOL0     C61045   9.814  10.631  10.457 -0.6925  0.4616  0.2711
  443MOL0     C61046   9.699  10.649  10.381  1.1396  0.4268  0.3768
  443MOL0     N61047   9.117  10.885  10.152  0.5046 -0.1018  0.8029
  443MOL0     N61048   8.986  10.883  10.146 -0.3834 -0.1453  0.1584
  443MOL0     C61049   7.868  10.603  10.334 -0.7687  0.2147 -0.0637
  443MOL0     C61050   7.735  10.616  10.382  0.2671 -0.7207  0.8042
  443MOL0     C61051   7.306  10.540  10.461 -0.7349 -1.0218  0.5444
  443MOL0     C61052   7.285  10.489  10.587  0.2472  0.6498 -0.3791
  443MOL0     C61053   7.158  10.498  10.656  0.4731  0.2773  0.2424
  443MOL0     C61054   7.048  10.548  10.590 -1.5126 -0.0256 -0.7812
  443MOL0     O61055   6.925  10.559  10.645 -0.6890 -0.0217  0.1682
  443MOL0     C61056   6.903  10.514  10.784  0.0474  0.5010  0.0579
  443MOL0     C61057   6.776  10.570  10.837 -0.0142  0.1505 -0.6734
  443MOL0     C61058   6.652  10.530  10.748 -0.2299 -0.2201  0.1758
  443MOL0     C61059   6.517  10.599  10.763 -0.7553 -1.4886 -0.4518
  443MOL0     C61060   6.420  10.537  10.671  0.5195  0.8654  0.1889
  443MOL0     C61061   6.347  10.481  10.595  0.4788  1.0739 -0.4090
  443MOL0     C61062   7.065  10.597  10.457 -0.0181 -0.0780 -0.3526
  443MOL0     C61063   7.195  10.603  10.400 -0.1357 -0.3398 -0.0445
  443MOL0     C61064   7.199  10.678  10.271 -0.4761 -0.0036 -0.2842
  443MOL0     H61065   7.691  10.275  10.442 -0.1331  0.0280  0.0920
  443MOL0     H61066   7.909  10.271  10.337  3.2698  1.5971 -0.1012
  443MOL0     H61067   8.117  10.637  10.189  2.0392 -0.6945 -1.1144
  443MOL0     H61068   8.006  10.553  10.088 -1.0381 -1.3386  1.1697
  443MOL0     H61069   8.293  10.507  10.151 -0.2672  4.2510 -0.6918
  443MOL0     H61070   8.205  10.387  10.040  0.5724 -0.3021  0.1757
  443MOL0     H61071   8.186  10.578   9.869  0.3758 -1.9578 -1.5451
  443MOL0     H61072   8.249  10.692   9.988  0.2387  0.2115  0.3033
  443MOL0     H61073   8.409  10.459   9.856  0.3510  0.3754 -0.1695
  443MOL0     H61074   8.413  10.637   9.825 -0.2203  0.2343  0.0342
  443MOL0     H61075   8.511  10.488  10.069  0.4086  0.9918  1.3204
  443MOL0     H61076   8.483  10.668  10.054 -4.5039 -0.3677 -1.6433
  443MOL0     H61077   8.665  10.507   9.861 -0.2972 -1.4351  0.6188
  443MOL0     H61078   8.640  10.677   9.852  0.0087  1.4892  0.4484
  443MOL0     H61079   8.846  10.550   9.975  1.6221  3.7118 -2.4267
  443MOL0     H61080   8.744  10.578  10.118 -1.6996 -0.3040 -0.1550
  443MOL0     H61081   8.810  10.801   9.908  1.8788  0.6811 -0.4285
  443MOL0     H61082   8.730  10.816  10.068  1.3353 -0.8999  3.6282
  443MOL0     H61083   9.053  10.643   9.937 -0.9752 -0.7585  1.3144
  443MOL0     H61084   9.299  10.622  10.099  0.9542 -1.1296 -1.4770
  443MOL0     H61085   9.348  10.781  10.159 -2.5032 -1.2906  1.2800
  443MOL0     H61086   9.323  10.671   9.878 -1.4478  0.8680  0.3252
  443MOL0     H61087   9.363  10.840   9.916  2.2942  0.7393 -0.3360
  443MOL0     H61088   9.526  10.586   9.978  0.2963  0.2505 -0.1440
  443MOL0     H61089   9.549  10.706   9.846 -2.4504  0.7270 -0.8393
  443MOL0     H61090   9.722  10.751   9.998 -0.6438  0.9069 -1.7488
  443MOL0     H61091   9.601  10.868  10.052 -1.1748 -0.7030  1.4751
  443MOL0     H61092   9.849  10.829  10.137  1.1673 -1.1288  0.5773
  443MOL0     H61093  10.067  10.834  10.137  0.1755  1.3891  1.0861
  443MOL0     H61094  10.156  10.703  10.218 -0.1601  0.1660 -0.1727
  443MOL0     H61095  10.124  10.856  10.306  0.5024  1.3903 -0.2814
  443MOL0     H61096  10.281  10.782  10.677 -0.3384 -1.4284  3.3193
  443MOL0     H61097  10.489  10.712  10.780  0.2577  0.3644  1.2942
  443MOL0     H61098  10.728  10.699  10.783 -0.3609  0.0755 -0.1872
  443MOL0     H61099  10.644  10.592  10.884  1.2374 -0.6103  1.0715
  443MOL0     H61100  10.836  10.415  10.837 -2.7590  0.4614 -0.9567
  443MOL0     H61101  10.923  10.539  10.752 -0.8983  1.8074  0.3914
  443MOL0     H61102  10.853  10.520  11.052  2.0929 -2.2166  0.7251
  443MOL0     H61103  10.905  10.682  10.990 -0.4631  0.1099 -2.8144
  443MOL0     H61104  11.101  10.608  10.894 -3.0025  1.7887  0.0297
  443MOL0     H61105  11.071  10.437  10.936  2.1585  0.0368  1.8451
  443MOL0     H61106  11.060  10.657  11.140  1.6454  1.4490 -1.0247
  443MOL0     H61107  11.067  10.479  11.165 -5.4376  1.1830 -2.3043
  443MOL0     H61108  11.288  10.579  11.228  0.4420 -0.3239  0.5225
  443MOL0     H61109  11.294  10.675  11.079 -0.7690  1.2166  2.1290
  443MOL0     H61110  11.327  10.472  10.954  1.0936  4.6142 -0.1199
  443MOL0     H61111  11.296  10.376  11.101  2.0939 -0.9891  0.3277
  443MOL0     H61112  11.508  10.497  11.208 -2.0768  1.5074  0.7872
  443MOL0     H61113  11.510  10.591  11.065  0.0246  0.4504  2.9417
  443MOL0     H61114  10.535  10.388  10.488  0.8095  0.5309  0.1167
  443MOL0     H61115  10.318  10.458  10.391 -2.1146  0.4385  0.2075
  443MOL0     H61116   9.798  10.580  10.551 -0.4545 -1.5220 -0.7048
  443MOL0     H61117   9.607  10.596  10.404 -0.4035  2.7869  0.0236
  443MOL0     H61118   7.920  10.697  10.316  0.3801 -0.1689  1.0985
  443MOL0     H61119   7.701  10.719  10.384  3.1490  0.3048  1.6464
  443MOL0     H61120   7.377  10.448  10.628 -0.3448 -1.0072 -0.6442
  443MOL0     H61121   7.164  10.462  10.758 -0.1743 -3.2586 -0.8032
  443MOL0     H61122   6.890  10.406  10.800  0.8555  0.5374  0.9992
  443MOL0     H61123   6.977  10.555  10.853 -0.2967  1.9636 -0.4071
  443MOL0     H61124   6.783  10.679  10.849 -6.4845  0.7757  0.9871
  443MOL0     H61125   6.747  10.538  10.938 -2.8590  4.3025  0.0948
  443MOL0     H61126   6.680  10.545  10.644  0.3205  1.3554  0.5140
  443MOL0     H61127   6.637  10.422  10.750 -1.0735 -0.1487 -1.2657
  443MOL0     H61128   6.527  10.703  10.731  0.6271 -1.3238  0.4142
  443MOL0     H61129   6.483  10.598  10.867  1.1089  1.4127  0.3147
  443MOL0     H61130   6.303  10.427  10.514 -0.4839  1.5691 -0.2320
  443MOL0     H61131   6.976  10.638  10.410 -1.2006  0.0653  1.9005
  443MOL0     H61132   7.208  10.610  10.186 -0.0232 -0.2393 -0.0466
  443MOL0     H61133   7.112  10.744  10.275 -0.1630  0.3822  0.5317
  443MOL0     H61134   7.287  10.744  10.272  0.4786 -1.2363 -0.7735
  444MOL0     O61135   7.595   7.844   6.684 -0.2262 -0.1913 -0.3628
  444MOL0     C61136   7.561   7.730   6.674  0.5370  0.3994 -1.2731
  444MOL0     O61137   7.642   7.622   6.663  0.0212 -0.4266 -0.2509
  444MOL0     C61138   7.771   7.657   6.628  0.5600  0.5968  1.0330
  444MOL0     C61139   7.882   7.634   6.718  0.8254 -0.1383  0.0675
  444MOL0     C61140   8.007   7.655   6.676 -0.1006 -0.4540  0.3309
  444MOL0     C61141   8.028   7.733   6.556 -0.3033  0.4985 -0.3111
  444MOL0     O61142   8.155   7.751   6.506 -0.3209 -0.1491 -0.3828
  444MOL0     C61143   8.249   7.812   6.603  0.3047 -0.1187 -0.6450
  444MOL0     C61144   8.233   7.962   6.603 -0.0368 -0.0889  0.2903
  444MOL0     C61145   8.329   8.020   6.700 -0.1212 -0.9643  0.4453
  444MOL0     C61146   8.307   8.179   6.701 -0.4157 -0.5376 -0.3882
  444MOL0     C61147   8.422   8.232   6.778 -0.2287 -0.5874 -0.9713
  444MOL0     C61148   8.417   8.390   6.782 -0.3795  0.9063  0.3408
  444MOL0     C61149   8.315   8.452   6.880 -0.2070 -0.3780 -0.0381
  444MOL0     C61150   8.371   8.567   6.964 -0.2670 -0.2354  0.0126
  444MOL0     N61151   8.466   8.513   7.065 -0.4958 -0.1210 -0.0283
  444MOL0     C61152   8.601   8.487   7.052  0.3786 -0.1061  0.0228
  444MOL0     C61153   8.634   8.429   7.177 -0.0319 -0.0874  0.4059
  444MOL0     C61154   8.770   8.392   7.233  0.9886 -0.1243 -0.5525
  444MOL0     C61155   8.858   8.515   7.262 -1.0309 -0.1358  0.3014
  444MOL0     C61156   8.993   8.471   7.334 -0.4545 -0.2282 -0.3821
  444MOL0     C61157   9.097   8.580   7.365  0.3101 -0.8946 -0.4523
  444MOL0     O61158   9.209   8.517   7.431 -0.1473  0.3363  0.9092
  444MOL0     C61159   9.319   8.468   7.355  0.0338  0.2177 -0.0348
  444MOL0     C61160   9.327   8.456   7.221  0.3273  1.1352 -0.7529
  444MOL0     C61161   9.449   8.404   7.164  0.8795 -0.2328 -0.1953
  444MOL0     C61162   9.446   8.410   7.020  1.2044 -0.2307  0.0246
  444MOL0     C61163   9.558   8.365   7.243 -0.2805  0.1758 -0.5567
  444MOL0     C61164   9.691   8.331   7.191 -0.5044  1.2132  0.0432
  444MOL0     O61165   9.802   8.357   7.269 -0.1019  0.9600  0.0143
  444MOL0     C61166   9.888   8.247   7.293 -0.7425 -0.1866  0.0528
  444MOL0     C61167  10.020   8.283   7.328 -1.1185 -0.6719 -0.4413
  444MOL0     C61168  10.117   8.190   7.362  0.3282  0.1641  0.3624
  444MOL0     C61169  10.079   8.055   7.359 -1.0043 -0.4152  0.3859
  444MOL0     O61170  10.175   7.970   7.404 -0.1328  0.7244  0.1904
  444MOL0     C61171  10.153   7.828   7.372 -0.3615 -0.1703  1.0399
  444MOL0     C61172  10.255   7.746   7.456 -0.3961 -0.0969  0.4778
  444MOL0     C61173  10.397   7.744   7.398 -0.2981  0.6050 -0.0398
  444MOL0     C61174  10.500   7.698   7.506  0.6645  0.3789 -0.0744
  444MOL0     C61175  10.636   7.697   7.463 -0.3197 -0.8422 -0.1399
  444MOL0     C61176  10.740   7.697   7.575 -0.1942 -0.4353  0.1269
  444MOL0     C61177  10.875   7.665   7.524 -0.2763  0.3486  0.3020
  444MOL0     C61178  10.904   7.673   7.376 -0.2787 -0.8424 -0.5375
  444MOL0    Cl61179  11.072   7.628   7.359 -0.0351  0.0618 -0.0432
  444MOL0     C61180   9.949   8.018   7.317 -0.2790  0.2705 -0.4476
  444MOL0     C61181   9.855   8.116   7.287  0.8057  0.4368 -0.3138
  444MOL0     O61182   9.696   8.277   7.077 -0.0172 -0.1947 -0.3153
  444MOL0     C61183   9.551   8.389   7.381 -0.5718  0.1312  0.5241
  444MOL0     C61184   9.431   8.442   7.440 -0.0275  0.8790  0.1565
  444MOL0     N61185   8.517   8.443   7.260 -0.4359 -0.7393 -0.4780
  444MOL0     N61186   8.419   8.495   7.189  0.3689 -0.2169 -0.3708
  444MOL0     C61187   7.926   7.767   6.468  0.0123 -0.2452  0.1268
  444MOL0     C61188   7.801   7.725   6.507 -0.1309 -0.3424  0.0577
  444MOL0     C61189   7.409   7.703   6.670 -0.3966 -0.0800  0.2839
  444MOL0     C61190   7.361   7.571   6.638  0.1008  0.5838  0.7499
  444MOL0     C61191   7.230   7.540   6.622  0.2689  0.1862  0.3412
  444MOL0     C61192   7.133   7.638   6.637 -0.4206 -0.9128  0.2495
  444MOL0     O61193   7.011   7.594   6.604  0.0458  0.2504 -0.6008
  444MOL0     C61194   6.906   7.642   6.693  1.3971  0.8696 -0.1607
  444MOL0     C61195   6.783   7.550   6.687 -0.0092  0.3678 -0.4937
  444MOL0     C61196   6.824   7.419   6.750 -0.5151 -0.1662 -0.4913
  444MOL0     C61197   6.704   7.349   6.813 -0.1544 -0.1921  0.1728
  444MOL0     C61198   6.661   7.413   6.936 -0.2308  0.5182  0.1808
  444MOL0     C61199   6.628   7.432   7.053 -0.6315  0.6721  0.1196
  444MOL0     C61200   7.178   7.765   6.678  0.8064  0.0984 -0.3115
  444MOL0     C61201   7.307   7.803   6.690 -0.2676 -0.8604 -0.7305
  444MOL0     C61202   7.336   7.940   6.746  0.1480 -0.0427  0.6484
  444MOL0     H61203   7.869   7.585   6.814  2.2006 -0.4583  0.1160
  444MOL0     H61204   8.097   7.626   6.729 -0.2565  0.6218  1.2035
  444MOL0     H61205   8.344   7.799   6.550  0.2846  2.8155 -1.5665
  444MOL0     H61206   8.253   7.780   6.708 -1.4061  2.3333  0.2491
  444MOL0     H61207   8.254   8.000   6.502 -0.0029 -3.2017 -1.0009
  444MOL0     H61208   8.131   7.994   6.627 -0.1883 -1.0069  0.9058
  444MOL0     H61209   8.322   7.964   6.794  1.1780  0.9014  1.7145
  444MOL0     H61210   8.431   8.004   6.665 -0.3337  1.0580 -1.2615
  444MOL0     H61211   8.308   8.218   6.599 -0.6099  4.2768  1.2174
  444MOL0     H61212   8.213   8.210   6.749 -0.8242 -2.1223 -0.1064
  444MOL0     H61213   8.510   8.197   6.724 -0.7868  1.0121 -3.0598
  444MOL0     H61214   8.420   8.195   6.880  2.5560  1.0612 -0.2185
  444MOL0     H61215   8.520   8.427   6.796 -0.4790  0.4980  2.4814
  444MOL0     H61216   8.393   8.415   6.678  1.0284 -1.6957 -0.6863
  444MOL0     H61217   8.284   8.368   6.943  0.3719  0.5818  1.6057
  444MOL0     H61218   8.229   8.491   6.825 -0.1764  0.3655  0.4266
  444MOL0     H61219   8.422   8.631   6.891  1.6712 -1.7550 -0.0695
  444MOL0     H61220   8.295   8.617   7.024 -0.0929  1.0936 -0.8371
  444MOL0     H61221   8.671   8.506   6.971 -1.6608  4.8192 -0.9698
  444MOL0     H61222   8.825   8.324   7.166  2.7228  0.3158  0.3776
  444MOL0     H61223   8.760   8.329   7.322  0.7228 -2.1269 -1.9196
  444MOL0     H61224   8.885   8.559   7.166 -1.2057  1.4221  0.9426
  444MOL0     H61225   8.806   8.582   7.330 -2.5997 -0.7306 -0.2654
  444MOL0     H61226   8.974   8.430   7.434  2.9882 -0.3576  0.3595
  444MOL0     H61227   9.050   8.409   7.265 -0.5810 -0.8148  0.0345
  444MOL0     H61228   9.127   8.642   7.280 -1.4737 -1.5565 -1.6415
  444MOL0     H61229   9.041   8.642   7.437  2.7509 -0.7153  1.3984
  444MOL0     H61230   9.245   8.490   7.158  1.1401  1.4968 -1.6429
  444MOL0     H61231   9.522   8.469   6.968  1.5674 -2.2700 -1.9107
  444MOL0     H61232   9.347   8.433   6.978  1.0843 -1.4091 -0.3822
  444MOL0     H61233   9.474   8.313   6.978  1.8542  0.7643 -1.9349
  444MOL0     H61234  10.030   8.391   7.329 -3.0375 -0.4289  1.7119
  444MOL0     H61235  10.217   8.221   7.391  1.0507 -1.2132 -0.5673
  444MOL0     H61236  10.052   7.794   7.397 -1.7389  0.4446 -3.0673
  444MOL0     H61237  10.176   7.805   7.268  2.0680  2.4772  0.8857
  444MOL0     H61238  10.248   7.800   7.551 -1.7452 -1.6746  1.3395
  444MOL0     H61239  10.220   7.644   7.473  0.7384 -0.5390  0.1864
  444MOL0     H61240  10.411   7.848   7.368 -2.6351  1.2477  0.9032
  444MOL0     H61241  10.409   7.680   7.310 -0.4937  0.5147 -0.0004
  444MOL0     H61242  10.477   7.598   7.545  1.0200  0.3597  0.0864
  444MOL0     H61243  10.484   7.774   7.583 -1.9767  0.0990 -0.2515
  444MOL0     H61244  10.662   7.616   7.395  3.9856 -2.3557  2.9174
  444MOL0     H61245  10.658   7.790   7.409 -0.6954 -0.3948  0.4548
  444MOL0     H61246  10.721   7.627   7.657 -1.3176  0.9446  1.0930
  444MOL0     H61247  10.739   7.797   7.621 -1.4311 -0.6234  0.5422
  444MOL0     H61248  10.921   7.573   7.562  0.3275  0.6675  0.3608
  444MOL0     H61249  10.936   7.745   7.568  1.2489 -0.2431 -0.6522
  444MOL0     H61250  10.888   7.775   7.341 -1.0833 -1.4417 -2.0151
  444MOL0     H61251  10.841   7.610   7.312 -0.1713 -2.6782  1.0798
  444MOL0     H61252   9.914   7.915   7.310  0.0155  0.1163  0.2677
  444MOL0     H61253   9.757   8.084   7.254  1.3583  0.1764 -1.7686
  444MOL0     H61254   9.642   8.363   7.434 -1.6477 -0.1637  2.2945
  444MOL0     H61255   9.422   8.443   7.549  0.3197 -2.0028  0.2988
  444MOL0     H61256   7.940   7.807   6.368 -0.6812 -0.9831 -0.2731
  444MOL0     H61257   7.711   7.735   6.446  0.2133  0.3729 -0.3553
  444MOL0     H61258   7.434   7.492   6.620  1.2254  1.9231 -0.7937
  444MOL0     H61259   7.195   7.440   6.598  0.5150  0.2600 -0.3482
  444MOL0     H61260   6.948   7.634   6.794 -0.7079 -1.9817  0.6148
  444MOL0     H61261   6.872   7.745   6.675 -3.3293 -0.1125  1.6279
  444MOL0     H61262   6.759   7.534   6.581  2.0240  0.3121 -0.9889
  444MOL0     H61263   6.704   7.605   6.738 -0.8179 -1.4021  0.2352
  444MOL0     H61264   6.868   7.356   6.672 -2.5034  0.5660 -2.3094
  444MOL0     H61265   6.895   7.439   6.830 -0.9247  0.2534 -0.2294
  444MOL0     H61266   6.746   7.250   6.836  1.4146  0.3300 -0.3182
  444MOL0     H61267   6.630   7.331   6.735  3.3090 -1.7315 -3.0942
  444MOL0     H61268   6.595   7.448   7.154 -3.3699  2.3862 -0.9074
  444MOL0     H61269   7.102   7.837   6.706  0.9092 -0.3046  1.0959
  444MOL0     H61270   7.242   7.988   6.774 -0.1548  1.2231 -2.2390
  444MOL0     H61271   7.411   7.931   6.826  2.4026 -1.9998 -1.5232
  444MOL0     H61272   7.391   8.012   6.684  1.1373 -1.4732 -0.2110
  445MOL0     O61273   8.925   4.516   0.379  0.2518 -0.6821  0.1022
  445MOL0     C61274   8.908   4.629   0.430  0.2801 -0.3252 -0.5751
  445MOL0     O61275   8.999   4.704   0.498 -0.8901  0.6764  0.4417
  445MOL0     C61276   9.111   4.648   0.527  1.2562  0.2923 -0.5864
  445MOL0     C61277   9.226   4.726   0.507 -1.0550  0.2993 -0.0858
  445MOL0     C61278   9.355   4.677   0.544  0.1806  0.1269  0.3981
  445MOL0     C61279   9.364   4.552   0.607 -0.2985 -0.3858 -0.5813
  445MOL0     O61280   9.482   4.491   0.644  0.5216 -0.1055  0.0232
  445MOL0     C61281   9.596   4.570   0.631 -0.0772 -0.0051  0.2191
  445MOL0     C61282   9.708   4.487   0.693  0.3173 -0.8467  0.0088
  445MOL0     C61283   9.727   4.363   0.605 -0.4239  0.0419  0.6145
  445MOL0     C61284   9.836   4.269   0.660 -0.4834 -0.9205 -0.2694
  445MOL0     C61285   9.898   4.185   0.548  0.3776 -0.1533 -0.4825
  445MOL0     C61286  10.027   4.118   0.590  0.3438  0.2979 -0.6897
  445MOL0     C61287  10.131   4.183   0.494  0.2678  0.5414  0.2886
  445MOL0     C61288  10.264   4.153   0.552 -0.7750 -0.7786 -0.2052
  445MOL0     N61289  10.377   4.218   0.475 -0.1135 -0.6536 -0.0178
  445MOL0     C61290  10.431   4.342   0.491  0.1132  0.3459  0.3109
  445MOL0     C61291  10.540   4.338   0.409  1.0020 -0.3484 -0.6195
  445MOL0     C61292  10.632   4.463   0.398  0.1660  0.5873  0.4073
  445MOL0     C61293  10.749   4.467   0.495  0.2289  0.3159  0.0105
  445MOL0     C61294  10.820   4.337   0.512 -0.5189 -0.3288  0.6153
  445MOL0     C61295  10.884   4.282   0.385 -0.3573 -0.5665 -1.3424
  445MOL0     O61296  10.981   4.190   0.443 -0.3114  0.9752 -0.2783
  445MOL0     C61297  11.102   4.200   0.383  0.2634  0.2366  0.5836
  445MOL0     C61298  11.123   4.093   0.294  0.3895 -0.5030 -0.0354
  445MOL0     C61299  11.242   4.084   0.220 -0.4153  0.6296  0.6665
  445MOL0     C61300  11.257   3.965   0.121  0.0184 -0.2102 -1.1922
  445MOL0     C61301  11.337   4.185   0.237 -0.5082 -0.0240  0.5668
  445MOL0     C61302  11.462   4.196   0.162 -0.2602  0.3683  0.6114
  445MOL0     O61303  11.489   4.319   0.111  0.1524 -0.2646 -0.6771
  445MOL0     C61304  11.599   4.337   0.031 -0.8496  0.0396  0.2441
  445MOL0     C61305  11.574   4.405  -0.078  0.7310  0.7583  1.5128
  445MOL0     C61306  11.675   4.438  -0.173  0.4332  0.4496  0.3450
  445MOL0     C61307  11.812   4.417  -0.141 -0.8262  0.2732  0.4604
  445MOL0     O61308  11.906   4.443  -0.241  0.2232 -0.5834 -0.9546
  445MOL0     C61309  12.027   4.371  -0.238 -0.7366  0.6731 -0.5902
  445MOL0     C61310  12.110   4.406  -0.359 -0.3420  0.8180 -0.4036
  445MOL0     C61311  12.037   4.376  -0.490  0.4061 -0.1995  0.8519
  445MOL0     C61312  12.119   4.409  -0.614 -0.1406  0.4140  1.2117
  445MOL0     C61313  12.253   4.349  -0.618 -0.0152  0.1642 -0.0445
  445MOL0     C61314  12.258   4.193  -0.599  0.1383  0.2852  0.2050
  445MOL0     C61315  12.166   4.109  -0.683 -0.3815  0.3923 -0.2488
  445MOL0     C61316  12.161   3.970  -0.640  0.5300 -0.1307 -0.2562
  445MOL0    Cl61317  12.024   3.878  -0.705 -0.1103  0.5640  0.2019
  445MOL0     C61318  11.834   4.358  -0.015 -0.6986  0.1147  0.9208
  445MOL0     C61319  11.734   4.310   0.067  0.5784  0.1538  0.1752
  445MOL0     O61320  11.524   4.091   0.133 -0.2997 -0.5759  0.3306
  445MOL0     C61321  11.319   4.288   0.330  0.4372  0.3174 -0.2486
  445MOL0     C61322  11.200   4.296   0.401  0.6101 -0.8400 -0.1752
  445MOL0     N61323  10.544   4.218   0.350 -0.0965 -0.1282 -0.1172
  445MOL0     N61324  10.447   4.144   0.390  0.4332 -0.5216 -0.0787
  445MOL0     C61325   9.255   4.476   0.625 -0.2286  0.2444  0.0057
  445MOL0     C61326   9.122   4.517   0.584 -0.2130 -0.1041  0.2335
  445MOL0     C61327   8.770   4.685   0.427 -0.3810  0.0300  1.5177
  445MOL0     C61328   8.738   4.788   0.517  0.9857  0.0129 -0.0884
  445MOL0     C61329   8.625   4.864   0.504  0.2060  0.0039  0.2480
  445MOL0     C61330   8.536   4.839   0.400  0.4756  0.1436 -0.3708
  445MOL0     O61331   8.423   4.911   0.388  0.2726  0.1036  0.4020
  445MOL0     C61332   8.320   4.898   0.283 -0.8389 -0.0533  0.1059
  445MOL0     C61333   8.201   4.980   0.321  0.2953 -0.4144 -0.9093
  445MOL0     C61334   8.105   4.965   0.203  0.0070  0.5718 -0.9004
  445MOL0     C61335   8.042   5.101   0.168  0.3847  0.0455 -0.5070
  445MOL0     C61336   7.899   5.082   0.122 -0.4369  0.2886 -0.7942
  445MOL0     C61337   7.787   5.055   0.079  0.1323 -0.0668 -0.6602
  445MOL0     C61338   8.577   4.751   0.300 -0.2708  0.2725 -0.3585
  445MOL0     C61339   8.685   4.666   0.310  0.2582  0.5891 -0.2475
  445MOL0     C61340   8.723   4.586   0.194  0.0797  0.6249  0.0847
  445MOL0     H61341   9.219   4.829   0.473 -0.4591 -0.0611 -1.3747
  445MOL0     H61342   9.440   4.742   0.525 -0.6335  0.6226 -1.8946
  445MOL0     H61343   9.585   4.671   0.673  1.9696  1.4147 -2.4128
  445MOL0     H61344   9.615   4.583   0.524  0.1483 -0.7713  0.1624
  445MOL0     H61345   9.799   4.547   0.700 -0.2569 -0.1730  2.7133
  445MOL0     H61346   9.691   4.457   0.797  2.6752 -1.3467  0.2993
  445MOL0     H61347   9.641   4.296   0.604  1.5478 -3.1590  5.8852
  445MOL0     H61348   9.755   4.393   0.503  2.0658  0.3380  1.3155
  445MOL0     H61349   9.914   4.340   0.690  1.4650 -1.6706 -3.1462
  445MOL0     H61350   9.796   4.213   0.744 -0.2116  0.4210  0.7974
  445MOL0     H61351   9.916   4.224   0.447  3.1683  0.1166  0.0351
  445MOL0     H61352   9.822   4.108   0.533 -2.1091  1.3288  3.0532
  445MOL0     H61353  10.048   4.135   0.696 -3.0751  0.4373  0.0938
  445MOL0     H61354  10.028   4.010   0.576  0.6089  0.0691  0.8693
  445MOL0     H61355  10.133   4.292   0.484  2.3193  0.3988 -1.8003
  445MOL0     H61356  10.123   4.143   0.393  0.6255  0.0830  0.4346
  445MOL0     H61357  10.265   4.183   0.657  1.2981  0.3947 -0.5149
  445MOL0     H61358  10.294   4.048   0.543  2.1167 -0.0749  0.2413
  445MOL0     H61359  10.390   4.418   0.557  1.5904  3.2134 -1.8525
  445MOL0     H61360  10.576   4.554   0.420  1.9160  1.9984 -0.7093
  445MOL0     H61361  10.657   4.477   0.292 -2.7171  1.6849 -0.2203
  445MOL0     H61362  10.822   4.535   0.451 -1.6891  0.8011 -2.6077
  445MOL0     H61363  10.728   4.508   0.594 -0.7990  1.1898 -0.5590
  445MOL0     H61364  10.901   4.365   0.580 -0.4417  1.7507 -0.2324
  445MOL0     H61365  10.758   4.266   0.567  0.1875  0.2119  2.1821
  445MOL0     H61366  10.807   4.239   0.319 -3.8320  0.6944  1.5625
  445MOL0     H61367  10.941   4.363   0.338  0.8375 -0.5645  0.0524
  445MOL0     H61368  11.047   4.019   0.270  2.9444 -3.8506  1.3086
  445MOL0     H61369  11.321   3.884   0.157 -1.2453 -0.3790  0.8474
  445MOL0     H61370  11.285   4.002   0.022 -2.6418  0.8575 -1.6508
  445MOL0     H61371  11.156   3.921   0.119 -0.4531  0.1691  3.2400
  445MOL0     H61372  11.471   4.429  -0.101  0.5871 -1.0287 -0.0501
  445MOL0     H61373  11.660   4.473  -0.275  2.8996  0.0239 -0.2410
  445MOL0     H61374  12.086   4.412  -0.155 -0.2291  0.6936 -0.9575
  445MOL0     H61375  12.017   4.265  -0.213 -0.1656  0.7406 -0.0355
  445MOL0     H61376  12.119   4.513  -0.342  1.5172  0.5541  0.5401
  445MOL0     H61377  12.207   4.355  -0.353 -0.8129 -0.0892 -0.2416
  445MOL0     H61378  11.950   4.443  -0.493  0.3656 -0.2367  1.1985
  445MOL0     H61379  11.996   4.275  -0.484 -1.6929  0.4661 -0.8440
  445MOL0     H61380  12.133   4.517  -0.623 -0.3246  0.4848  1.7234
  445MOL0     H61381  12.057   4.389  -0.702  1.7761  0.1940 -0.1552
  445MOL0     H61382  12.302   4.381  -0.711 -1.4108  3.2059  0.1219
  445MOL0     H61383  12.315   4.395  -0.541  0.6449  1.6596 -1.4032
  445MOL0     H61384  12.230   4.168  -0.496  0.5059  0.0106  0.2437
  445MOL0     H61385  12.364   4.165  -0.604 -0.2380 -1.3086  0.7334
  445MOL0     H61386  12.213   4.115  -0.781  1.0077  0.4495  0.3999
  445MOL0     H61387  12.073   4.167  -0.689 -0.5340 -0.0259 -3.2675
  445MOL0     H61388  12.157   3.973  -0.530 -3.3394 -0.4754 -0.2435
  445MOL0     H61389  12.255   3.929  -0.677 -0.2513 -0.2120 -2.2649
  445MOL0     H61390  11.938   4.333   0.009  0.8904  0.3766 -4.4947
  445MOL0     H61391  11.758   4.265   0.162  1.4373  0.2694  0.0211
  445MOL0     H61392  11.389   4.366   0.357  0.2655  0.2845  0.2994
  445MOL0     H61393  11.176   4.382   0.463 -2.8081 -0.4746 -1.7681
  445MOL0     H61394   9.273   4.378   0.669  1.4294  0.2770 -0.5616
  445MOL0     H61395   9.042   4.443   0.592  0.7726 -1.2426 -0.1311
  445MOL0     H61396   8.811   4.826   0.588  1.4287 -0.3435 -0.3466
  445MOL0     H61397   8.604   4.938   0.580 -0.6312 -1.2014  1.2283
  445MOL0     H61398   8.361   4.922   0.185  1.3896  0.0733  1.0169
  445MOL0     H61399   8.289   4.793   0.280 -2.6643  0.4407  0.4495
  445MOL0     H61400   8.235   5.082   0.339 -0.3714 -0.3079 -0.2194
  445MOL0     H61401   8.148   4.944   0.410 -0.2802 -2.6966 -2.0824
  445MOL0     H61402   8.157   4.925   0.116  0.3533 -1.6039  0.2416
  445MOL0     H61403   8.037   4.887   0.239 -1.1133  2.0619  0.3535
  445MOL0     H61404   8.103   5.142   0.088  1.2266 -1.4473 -0.6683
  445MOL0     H61405   8.028   5.176   0.246 -4.0403 -0.5483 -0.4524
  445MOL0     H61406   7.693   5.051   0.029  1.0263 -1.0593 -2.3435
  445MOL0     H61407   8.506   4.734   0.220 -1.1785 -2.8568  0.9468
  445MOL0     H61408   8.706   4.479   0.212 -2.6655  1.0529  0.4530
  445MOL0     H61409   8.673   4.620   0.103 -0.6018 -1.1296 -0.2456
  445MOL0     H61410   8.828   4.606   0.170  0.3495 -0.1181  0.6351
  446MOL0     O61411   2.917   9.213   7.368  0.1623 -0.1438 -0.3359
  446MOL0     C61412   2.833   9.294   7.384 -0.4043 -0.6137  0.6118
  446MOL0     O61413   2.865   9.423   7.404 -0.3385  0.0479 -0.7114
  446MOL0     C61414   2.994   9.465   7.378  0.3964 -1.5241 -0.2366
  446MOL0     C61415   3.092   9.427   7.468 -0.5594  0.8448 -0.1185
  446MOL0     C61416   3.215   9.487   7.472  0.1913 -0.5022 -0.0929
  446MOL0     C61417   3.243   9.597   7.393 -0.1287 -1.1000  0.1418
  446MOL0     O61418   3.372   9.638   7.398  0.4334  0.3177 -0.3043
  446MOL0     C61419   3.433   9.716   7.292 -0.0323  0.4893 -0.4122
  446MOL0     C61420   3.580   9.733   7.338 -0.1987  0.2482 -0.2320
  446MOL0     C61421   3.582   9.849   7.447  0.5082  0.1592  0.1555
  446MOL0     C61422   3.715   9.843   7.525 -0.1632  0.2804 -0.3511
  446MOL0     C61423   3.830   9.907   7.445  0.5231  0.2712 -0.3876
  446MOL0     C61424   3.959   9.882   7.524  0.1527 -0.6159  0.1968
  446MOL0     C61425   4.077   9.930   7.442 -0.1122 -1.0370 -0.0900
  446MOL0     C61426   4.116   9.829   7.345  1.0429  0.3318  0.2303
  446MOL0     N61427   4.253   9.787   7.394 -0.4091  0.3226  0.2689
  446MOL0     C61428   4.371   9.809   7.332  0.2236 -0.8598  0.0764
  446MOL0     C61429   4.462   9.745   7.409 -0.5516  0.1188  0.5625
  446MOL0     C61430   4.612   9.746   7.391  0.3333  0.3464 -0.5434
  446MOL0     C61431   4.661   9.624   7.313 -0.7212 -0.2224 -0.0290
  446MOL0     C61432   4.812   9.613   7.278 -0.0704 -0.1925  0.4272
  446MOL0     C61433   4.908   9.644   7.391 -0.6624 -0.3952 -0.2219
  446MOL0     O61434   4.910   9.555   7.500  0.1782  0.6081  0.3894
  446MOL0     C61435   5.028   9.549   7.563 -0.4161  0.0373  0.0729
  446MOL0     C61436   5.088   9.658   7.620  0.0049  0.2246  0.4298
  446MOL0     C61437   5.213   9.658   7.680  0.5167  0.9221  0.0298
  446MOL0     C61438   5.257   9.793   7.723  1.3033 -0.1051  0.6221
  446MOL0     C61439   5.282   9.537   7.694  0.6149 -0.5133  0.9972
  446MOL0     C61440   5.408   9.517   7.760  0.4329  0.5339 -0.4776
  446MOL0     O61441   5.468   9.392   7.747  0.4616 -1.0125  0.0624
  446MOL0     C61442   5.592   9.378   7.803 -0.1733 -0.1321 -0.2077
  446MOL0     C61443   5.701   9.446   7.754  0.0830 -0.3619  0.2511
  446MOL0     C61444   5.831   9.420   7.810 -0.3227  0.8551 -0.4090
  446MOL0     C61445   5.855   9.321   7.909 -0.2223 -0.0888  0.7275
  446MOL0     O61446   5.974   9.279   7.967  0.2010 -0.0019 -0.1951
  446MOL0     C61447   6.097   9.351   7.947  0.1962 -0.3341  0.5607
  446MOL0     C61448   6.222   9.268   7.991  0.0599  0.2363 -0.2683
  446MOL0     C61449   6.351   9.330   7.947  0.1443 -0.7027  0.4492
  446MOL0     C61450   6.469   9.253   7.996 -0.0502 -0.0164  0.3647
  446MOL0     C61451   6.590   9.332   7.945  0.3876 -0.0840  0.8839
  446MOL0     C61452   6.629   9.442   8.037  0.2939 -0.6086 -0.0750
  446MOL0     C61453   6.781   9.480   8.030  0.1504 -0.1885  0.4062
  446MOL0     C61454   6.812   9.568   7.920 -0.4230  0.4311  0.1974
  446MOL0    Cl61455   6.983   9.569   7.891 -0.2366  0.2433 -0.4458
  446MOL0     C61456   5.739   9.244   7.946 -0.9968  0.7797 -0.5077
  446MOL0     C61457   5.615   9.267   7.890  0.1443 -0.0412 -0.2074
  446MOL0     O61458   5.447   9.606   7.835 -0.5242  0.0950 -0.1960
  446MOL0     C61459   5.222   9.417   7.640  0.3562 -0.0564  0.2039
  446MOL0     C61460   5.096   9.434   7.578  0.1825 -0.6155  0.3892
  446MOL0     N61461   4.398   9.681   7.516  0.4050 -0.4234 -0.0767
  446MOL0     N61462   4.278   9.723   7.511 -0.0735  0.3863 -0.0588
  446MOL0     C61463   3.144   9.634   7.292  0.3203 -0.3223 -0.4923
  446MOL0     C61464   3.026   9.568   7.285  0.3960 -0.0235  0.1516
  446MOL0     C61465   2.691   9.245   7.376  0.3419 -0.0394 -0.2818
  446MOL0     C61466   2.669   9.106   7.403  0.0724 -0.0815  0.2730
  446MOL0     C61467   2.541   9.052   7.401 -0.6279 -0.0841  0.7996
  446MOL0     C61468   2.429   9.137   7.398  0.6306 -0.0986  0.2786
  446MOL0     O61469   2.296   9.095   7.405 -0.2016 -0.2650  0.4774
  446MOL0     C61470   2.285   8.953   7.413 -0.2433  0.0287 -0.5497
  446MOL0     C61471   2.290   8.901   7.567  0.3427 -0.2329 -0.2740
  446MOL0     C61472   2.208   8.982   7.675 -0.8201  0.3668 -0.0269
  446MOL0     C61473   2.058   8.950   7.663  0.6647 -1.3664  0.1283
  446MOL0     C61474   1.984   9.018   7.769  0.5258  0.2720  0.1762
  446MOL0     C61475   1.933   9.069   7.865 -0.2910 -0.3848 -0.4525
  446MOL0     C61476   2.445   9.266   7.373 -0.0493 -0.1293 -0.1907
  446MOL0     C61477   2.573   9.322   7.355  0.0793 -0.3576  0.3732
  446MOL0     C61478   2.585   9.467   7.323  0.2876 -0.1728  0.3946
  446MOL0     H61479   3.066   9.361   7.551  0.6070  1.7869  1.0362
  446MOL0     H61480   3.293   9.452   7.539 -0.3598 -0.4048  0.6164
  446MOL0     H61481   3.391   9.814   7.268  1.3105  1.2973  0.3916
  446MOL0     H61482   3.436   9.655   7.201  2.3746  0.7911 -0.5974
  446MOL0     H61483   3.628   9.642   7.376  0.1105  0.2368 -0.6478
  446MOL0     H61484   3.635   9.759   7.248  2.3574 -0.6902  0.9635
  446MOL0     H61485   3.565   9.947   7.401  0.9605  0.9922  1.7032
  446MOL0     H61486   3.498   9.836   7.515  1.9835 -0.3341  1.9439
  446MOL0     H61487   3.696   9.898   7.618 -4.3877 -0.0847 -0.7893
  446MOL0     H61488   3.727   9.738   7.554  1.3566  0.3736 -0.5852
  446MOL0     H61489   3.810  10.013   7.428  2.6613  0.4428 -2.2266
  446MOL0     H61490   3.830   9.856   7.348 -0.3091 -1.9845  0.7306
  446MOL0     H61491   3.948   9.931   7.622 -1.3053 -0.5368  0.0084
  446MOL0     H61492   3.962   9.776   7.551 -1.0091 -0.6134  0.3859
  446MOL0     H61493   4.164   9.954   7.504 -0.3198 -1.1624  0.2501
  446MOL0     H61494   4.045  10.022   7.393 -2.0047 -0.4374  2.0983
  446MOL0     H61495   4.048   9.744   7.350 -0.7996  1.7908  0.9819
  446MOL0     H61496   4.112   9.870   7.244 -0.6236  0.6024  0.3829
  446MOL0     H61497   4.376   9.864   7.238 -1.0972 -0.9376 -0.0594
  446MOL0     H61498   4.654   9.757   7.491 -0.1386  2.6865 -0.5410
  446MOL0     H61499   4.635   9.838   7.337  0.4966  0.8859  0.4264
  446MOL0     H61500   4.639   9.537   7.376 -2.2225 -0.7722 -1.2389
  446MOL0     H61501   4.606   9.617   7.218 -1.0777  1.0828  0.0624
  446MOL0     H61502   4.834   9.510   7.252  3.9761  0.4394  0.6690
  446MOL0     H61503   4.827   9.678   7.190  1.6883  0.6923  1.3229
  446MOL0     H61504   5.000   9.631   7.332 -1.8150 -0.1466 -2.1476
  446MOL0     H61505   4.893   9.748   7.422  1.6285  0.2030 -0.9102
  446MOL0     H61506   5.026   9.747   7.612 -1.2023 -0.5843  0.3511
  446MOL0     H61507   5.298   9.805   7.824  1.0929  0.1457  0.6800
  446MOL0     H61508   5.168   9.856   7.733 -2.7113 -5.2514  1.1343
  446MOL0     H61509   5.325   9.842   7.653 -2.8054 -1.1216 -4.6630
  446MOL0     H61510   5.690   9.526   7.681 -1.1902 -0.8867 -0.1768
  446MOL0     H61511   5.927   9.469   7.793  0.2882 -0.1588  0.0074
  446MOL0     H61512   6.123   9.382   7.846 -0.7578  0.6867  0.6254
  446MOL0     H61513   6.092   9.447   7.998 -2.0277 -0.2711  0.3205
  446MOL0     H61514   6.215   9.245   8.098 -2.6051  0.1548 -0.4045
  446MOL0     H61515   6.209   9.178   7.930  2.2089  0.8327 -1.7406
  446MOL0     H61516   6.352   9.426   7.998  0.2088 -1.1746  1.3670
  446MOL0     H61517   6.348   9.361   7.842  1.0759  0.4175  0.7424
  446MOL0     H61518   6.464   9.152   7.955 -1.6061 -0.0988  0.6975
  446MOL0     H61519   6.483   9.249   8.105  2.4004  0.9781  0.1555
  446MOL0     H61520   6.681   9.271   7.947  0.1719 -0.5893  5.1018
  446MOL0     H61521   6.573   9.360   7.841  1.8206  2.6569  1.3112
  446MOL0     H61522   6.622   9.399   8.137 -1.1697  0.8243  0.4874
  446MOL0     H61523   6.560   9.526   8.024  0.7945 -0.2895 -0.7514
  446MOL0     H61524   6.835   9.386   8.020 -0.1576 -0.4609  1.1982
  446MOL0     H61525   6.811   9.530   8.123 -0.7272  1.2691 -0.0428
  446MOL0     H61526   6.766   9.666   7.938  0.4417  1.0444 -0.8020
  446MOL0     H61527   6.766   9.532   7.827  0.9333  0.3418 -0.4656
  446MOL0     H61528   5.757   9.159   8.012  3.5749  0.5641 -1.6983
  446MOL0     H61529   5.528   9.207   7.915  1.4084 -2.9115 -2.1277
  446MOL0     H61530   5.270   9.320   7.630  1.1871  0.3314  0.4396
  446MOL0     H61531   5.049   9.345   7.537  1.7000 -1.7638  1.0526
  446MOL0     H61532   3.152   9.708   7.213  0.7511 -1.2811 -1.3785
  446MOL0     H61533   2.946   9.604   7.220 -0.3619  3.7745  2.8432
  446MOL0     H61534   2.750   9.034   7.412  2.0959  1.9050 -0.7363
  446MOL0     H61535   2.539   8.947   7.429 -0.2488 -0.3014  0.0566
  446MOL0     H61536   2.187   8.937   7.366  0.5945  0.2572 -2.4465
  446MOL0     H61537   2.359   8.905   7.349  0.1234 -0.4279  0.2035
  446MOL0     H61538   2.396   8.904   7.595  0.8760  1.0925 -2.2217
  446MOL0     H61539   2.252   8.798   7.563  0.9516 -0.5096  0.6729
  446MOL0     H61540   2.254   8.961   7.773 -1.2478 -2.2921 -0.3063
  446MOL0     H61541   2.211   9.088   7.651 -3.9317  0.2883 -1.1841
  446MOL0     H61542   2.046   8.841   7.661 -0.6952 -1.2816  1.5460
  446MOL0     H61543   2.013   8.978   7.567  0.2897  1.7118  1.1143
  446MOL0     H61544   1.895   9.121   7.951  2.4781  0.3937  0.4046
  446MOL0     H61545   2.360   9.334   7.366 -0.2866 -0.3591  0.4044
  446MOL0     H61546   2.596   9.526   7.414  2.2543 -0.1396  0.1730
  446MOL0     H61547   2.664   9.504   7.256 -0.9982  1.7788 -0.1202
  446MOL0     H61548   2.493   9.506   7.278  1.4746  3.0871  0.5414
  447MOL0     O61549   7.064   2.867   8.020 -1.1106  0.9145  0.2025
  447MOL0     C61550   7.088   2.832   8.135 -0.1719  0.8774 -0.0262
  447MOL0     O61551   7.024   2.729   8.192  0.4693 -0.6396 -0.0195
  447MOL0     C61552   6.945   2.648   8.110 -0.7498 -0.5548 -0.2184
  447MOL0     C61553   7.004   2.589   8.007 -0.2973  0.1915 -0.0540
  447MOL0     C61554   6.928   2.501   7.930 -0.0234  0.1809 -0.8197
  447MOL0     C61555   6.792   2.475   7.954  0.0420 -0.2921 -0.4095
  447MOL0     O61556   6.722   2.399   7.863  0.2258  0.5225  0.5092
  447MOL0     C61557   6.587   2.355   7.883 -0.5233  0.6417  0.0760
  447MOL0     C61558   6.526   2.291   7.746  0.5645  0.6944  0.3872
  447MOL0     C61559   6.583   2.150   7.704  1.0999 -0.3846  0.0016
  447MOL0     C61560   6.528   2.044   7.792 -0.1671 -0.2836  0.0268
  447MOL0     C61561   6.626   1.923   7.804  0.6906 -0.1234 -0.3716
  447MOL0     C61562   6.570   1.825   7.897  0.0362  0.7067  1.0231
  447MOL0     C61563   6.663   1.715   7.938  0.5149 -0.2190  0.3368
  447MOL0     C61564   6.617   1.624   8.049 -0.1827  0.3036  0.3064
  447MOL0     N61565   6.721   1.530   8.084  0.0784  0.1233 -0.1447
  447MOL0     C61566   6.733   1.416   7.999 -1.4593  0.4526  0.6877
  447MOL0     C61567   6.849   1.366   8.043 -0.9809  0.2972 -0.0407
  447MOL0     C61568   6.888   1.232   7.987 -0.0112  0.5700 -0.0506
  447MOL0     C61569   7.039   1.204   7.990  0.4238  0.5995  0.3163
  447MOL0     C61570   7.085   1.064   7.930  0.5628 -0.1376 -0.7122
  447MOL0     C61571   7.226   1.029   7.965 -0.4060 -0.7993 -0.1592
  447MOL0     O61572   7.316   1.103   7.887 -0.0321  0.6122  0.3304
  447MOL0     C61573   7.445   1.069   7.897  0.0133  0.1174  0.3350
  447MOL0     C61574   7.520   1.081   7.782  0.6972 -0.5795  0.8318
  447MOL0     C61575   7.651   1.046   7.766 -0.0595  0.3166  0.3298
  447MOL0     C61576   7.707   1.065   7.628  0.0859 -0.6665 -0.0630
  447MOL0     C61577   7.711   0.973   7.874 -0.1051 -0.3343 -0.2732
  447MOL0     C61578   7.848   0.918   7.869  0.0943 -0.0293  0.2526
  447MOL0     O61579   7.902   0.890   7.987 -0.5098  0.1616  0.3233
  447MOL0     C61580   8.039   0.878   7.994 -0.3266  0.3509 -0.0030
  447MOL0     C61581   8.095   0.755   8.038  0.5221 -0.1196 -0.9342
  447MOL0     C61582   8.237   0.735   8.035  0.1798  0.1929  0.4251
  447MOL0     C61583   8.322   0.849   8.016  0.5626  0.1971 -0.7098
  447MOL0     O61584   8.459   0.849   8.020  0.5575 -0.0086  0.6858
  447MOL0     C61585   8.542   0.740   8.070  1.0922 -0.2140 -0.0134
  447MOL0     C61586   8.683   0.759   8.024 -1.1971  0.0852  0.0092
  447MOL0     C61587   8.782   0.667   8.088  0.4670  0.9904 -0.3923
  447MOL0     C61588   8.908   0.737   8.120 -0.2577 -0.0879 -0.2526
  447MOL0     C61589   9.016   0.637   8.163 -0.1583  0.0287  0.3392
  447MOL0     C61590   9.146   0.701   8.151 -0.6256 -1.1360 -0.6062
  447MOL0     C61591   9.250   0.606   8.184 -0.0108  1.0439 -0.7218
  447MOL0     C61592   9.374   0.684   8.240  0.2251  0.6716  0.2040
  447MOL0    Cl61593   9.448   0.771   8.108  0.1744 -0.4613  0.3229
  447MOL0     C61594   8.257   0.972   7.981  0.0130  0.3532 -0.7506
  447MOL0     C61595   8.122   0.987   7.962 -0.3617 -0.6367 -0.2287
  447MOL0     O61596   7.898   0.883   7.761  0.0131  0.3678 -0.0311
  447MOL0     C61597   7.632   0.956   7.993 -0.2023  0.0474  0.3817
  447MOL0     C61598   7.507   1.014   8.007  0.7544  0.7653 -0.1912
  447MOL0     N61599   6.901   1.453   8.145 -0.6177  0.4110 -0.7873
  447MOL0     N61600   6.820   1.551   8.168 -0.5933 -0.3829  0.1790
  447MOL0     C61601   6.734   2.548   8.061 -0.5826 -0.2186  0.1166
  447MOL0     C61602   6.813   2.623   8.147 -0.1925 -0.6915  0.5545
  447MOL0     C61603   7.204   2.901   8.211 -0.1631 -0.0692 -0.0399
  447MOL0     C61604   7.274   2.998   8.140  1.1421 -0.0872  0.9839
  447MOL0     C61605   7.390   3.066   8.186 -1.0409 -0.0494 -0.5716
  447MOL0     C61606   7.441   3.029   8.308 -0.2415  0.2447  0.1850
  447MOL0     O61607   7.549   3.089   8.369 -0.5731 -0.1678 -0.0583
  447MOL0     C61608   7.605   3.201   8.304  0.4997 -0.1530  0.4121
  447MOL0     C61609   7.712   3.180   8.208  0.0866 -0.0496  0.6636
  447MOL0     C61610   7.807   3.065   8.236 -0.3128  0.5341  0.1881
  447MOL0     C61611   7.870   3.072   8.381 -0.0862  0.1503  0.2050
  447MOL0     C61612   7.974   3.178   8.394  0.0173 -0.1840  0.7222
  447MOL0     C61613   8.066   3.260   8.409 -0.3213  0.0035 -0.0174
  447MOL0     C61614   7.375   2.931   8.379  0.3553  0.0469 -0.2934
  447MOL0     C61615   7.257   2.867   8.339  0.2581  0.6538  0.3830
  447MOL0     C61616   7.197   2.767   8.439 -0.1714 -1.0400 -0.1095
  447MOL0     H61617   7.109   2.612   7.997 -0.5565  1.0123 -0.9679
  447MOL0     H61618   6.966   2.442   7.847 -0.2663 -2.0155  0.5526
  447MOL0     H61619   6.530   2.439   7.924 -1.9933 -0.6967  0.8943
  447MOL0     H61620   6.581   2.278   7.961 -2.7274 -1.6841 -2.1704
  447MOL0     H61621   6.419   2.275   7.764 -0.0785  2.4945 -1.4600
  447MOL0     H61622   6.534   2.358   7.660  2.0091 -0.5799 -0.5292
  447MOL0     H61623   6.532   2.122   7.611  0.0583 -1.2877  0.8207
  447MOL0     H61624   6.692   2.144   7.695  1.3561  1.1455  1.5021
  447MOL0     H61625   6.529   2.079   7.895 -1.0419 -0.4824  0.1098
  447MOL0     H61626   6.425   2.021   7.764 -0.1208  1.8510 -2.2151
  447MOL0     H61627   6.714   1.974   7.844  1.2219 -2.0904  1.1328
  447MOL0     H61628   6.658   1.879   7.709 -3.2294 -2.8530 -0.6724
  447MOL0     H61629   6.541   1.868   7.993  1.5800 -2.2095  2.9644
  447MOL0     H61630   6.490   1.766   7.851  0.3028  0.3919  0.9612
  447MOL0     H61631   6.763   1.746   7.966  0.2515 -2.4351  4.4105
  447MOL0     H61632   6.669   1.667   7.840 -0.4259  2.0565 -0.9209
  447MOL0     H61633   6.604   1.689   8.135  2.0625  0.9718  0.2025
  447MOL0     H61634   6.522   1.575   8.026 -0.3499  0.7641 -0.0133
  447MOL0     H61635   6.670   1.385   7.916  3.7309 -0.2060 -3.5334
  447MOL0     H61636   6.850   1.227   7.885  1.9940  1.3847 -0.8784
  447MOL0     H61637   6.846   1.158   8.056 -1.9041 -0.2152 -1.9562
  447MOL0     H61638   7.106   1.280   7.948  1.2091  0.8665  1.9413
  447MOL0     H61639   7.059   1.210   8.098 -0.5794  0.8024  0.5037
  447MOL0     H61640   7.006   0.994   7.960  0.2884  1.0370  1.5262
  447MOL0     H61641   7.084   1.056   7.821 -0.6478  1.4688 -0.8527
  447MOL0     H61642   7.248   1.062   8.066 -1.1715 -2.0381  0.4324
  447MOL0     H61643   7.246   0.922   7.954  1.8268 -0.4827  0.5301
  447MOL0     H61644   7.470   1.123   7.696 -0.9766 -0.9472  1.5867
  447MOL0     H61645   7.632   1.081   7.550 -0.4065  0.7087  0.6724
  447MOL0     H61646   7.779   0.987   7.602  0.6732 -1.4740  3.4727
  447MOL0     H61647   7.767   1.156   7.641  0.1333 -0.8469  1.0192
  447MOL0     H61648   8.036   0.666   8.058  0.9054 -0.1254  0.2263
  447MOL0     H61649   8.285   0.640   8.052  2.1665  1.0904  0.1236
  447MOL0     H61650   8.527   0.736   8.178 -0.8051 -1.3235 -0.2789
  447MOL0     H61651   8.504   0.646   8.031 -1.0712  1.2446 -1.6683
  447MOL0     H61652   8.682   0.743   7.915 -0.7380 -1.0131  0.1474
  447MOL0     H61653   8.722   0.858   8.047  1.5692 -0.7138 -0.8647
  447MOL0     H61654   8.793   0.578   8.026  1.8310 -1.3586  2.9630
  447MOL0     H61655   8.739   0.635   8.183  2.3118 -1.1528 -0.2029
  447MOL0     H61656   8.882   0.806   8.200 -0.3051  0.9849 -1.1761
  447MOL0     H61657   8.932   0.784   8.025 -2.9327 -1.0837 -1.5385
  447MOL0     H61658   8.991   0.598   8.263 -3.2005 -1.2224 -0.7931
  447MOL0     H61659   9.016   0.550   8.097  1.4998 -1.1214  1.7263
  447MOL0     H61660   9.154   0.795   8.207  3.5107 -0.4356 -1.9735
  447MOL0     H61661   9.153   0.729   8.046 -0.3507  0.9246 -0.0893
  447MOL0     H61662   9.282   0.556   8.092 -0.9284 -1.4140  0.2160
  447MOL0     H61663   9.216   0.532   8.256 -0.5627  2.6636  0.7641
  447MOL0     H61664   9.450   0.616   8.279 -0.3083  0.3853  0.7576
  447MOL0     H61665   9.353   0.759   8.317  0.3323  0.6676  0.2381
  447MOL0     H61666   8.320   1.058   7.961  0.2323  0.5583  0.6556
  447MOL0     H61667   8.089   1.086   7.932 -2.0977 -0.7606  1.1016
  447MOL0     H61668   7.673   0.899   8.075  2.5513  0.3783 -0.6721
  447MOL0     H61669   7.463   0.995   8.104 -1.2710  0.6080 -1.0834
  447MOL0     H61670   6.629   2.561   8.083 -0.3855  0.7744  0.5286
  447MOL0     H61671   6.765   2.660   8.237 -0.9764  1.4151 -0.6552
  447MOL0     H61672   7.229   3.024   8.045  2.4052 -0.4544  0.2620
  447MOL0     H61673   7.436   3.144   8.127 -0.1987 -1.2963 -1.6185
  447MOL0     H61674   7.535   3.270   8.257 -0.0696 -1.2392 -0.3896
  447MOL0     H61675   7.642   3.257   8.390  0.0865  2.1519 -0.8283
  447MOL0     H61676   7.775   3.269   8.202  0.2083 -0.1911 -0.4838
  447MOL0     H61677   7.664   3.153   8.113  1.0717 -0.6120  0.3085
  447MOL0     H61678   7.750   2.973   8.225  0.9365 -0.6368  2.5512
  447MOL0     H61679   7.883   3.064   8.157  0.0675 -1.7349  0.5086
  447MOL0     H61680   7.913   2.979   8.420  0.7817 -0.4771 -2.0708
  447MOL0     H61681   7.802   3.106   8.459 -0.3898  0.7261 -0.3016
  447MOL0     H61682   8.150   3.326   8.409  3.0871 -3.8824  0.6284
  447MOL0     H61683   7.415   2.897   8.474 -1.2270 -1.3910 -0.0889
  447MOL0     H61684   7.224   2.664   8.416 -0.8316 -1.2029 -0.1764
  447MOL0     H61685   7.214   2.795   8.543 -1.1060 -2.0037  0.3191
  447MOL0     H61686   7.088   2.765   8.432 -0.1383 -0.6211 -0.9231
  448MOL0     O61687   1.823   7.032   2.613 -0.1508 -0.3139  0.4970
  448MOL0     C61688   1.722   7.058   2.539 -0.0473  0.9825 -0.3429
  448MOL0     O61689   1.723   7.104   2.410  0.2609 -0.1019  0.3232
  448MOL0     C61690   1.843   7.154   2.361  0.0967 -0.3331  0.6395
  448MOL0     C61691   1.854   7.293   2.351 -1.4059 -0.6747  0.1207
  448MOL0     C61692   1.968   7.349   2.289 -0.3310  0.1036 -0.7449
  448MOL0     C61693   2.061   7.266   2.227  0.6205  0.6901 -0.2148
  448MOL0     O61694   2.177   7.311   2.167 -0.2123  0.2831  0.5368
  448MOL0     C61695   2.218   7.442   2.206  0.2521 -0.4558  0.0041
  448MOL0     C61696   2.367   7.456   2.176 -0.6229  0.5710 -0.4909
  448MOL0     C61697   2.449   7.418   2.304 -0.2016 -0.1987  0.5831
  448MOL0     C61698   2.594   7.436   2.298  0.6665 -0.4515  0.3101
  448MOL0     C61699   2.667   7.346   2.208 -0.1282 -0.2389  0.6526
  448MOL0     C61700   2.712   7.214   2.285 -0.0114  0.1981 -0.3868
  448MOL0     C61701   2.601   7.113   2.302 -0.0027 -0.0588  0.7090
  448MOL0     C61702   2.648   6.966   2.309  0.2513  0.8826 -1.2926
  448MOL0     N61703   2.537   6.878   2.332  0.3941 -0.6726 -0.0796
  448MOL0     C61704   2.496   6.812   2.446 -0.8132 -0.8527 -0.7998
  448MOL0     C61705   2.393   6.734   2.410  0.3428 -0.0732 -0.2241
  448MOL0     C61706   2.334   6.621   2.494 -0.1420  0.0931  0.1790
  448MOL0     C61707   2.192   6.647   2.538  0.5163 -0.8442  0.5103
  448MOL0     C61708   2.195   6.786   2.620  0.1014 -0.6654 -0.1698
  448MOL0     C61709   2.050   6.823   2.649 -0.0621 -0.3575 -0.3204
  448MOL0     O61710   1.969   6.713   2.686 -0.1173  0.2660 -0.5893
  448MOL0     C61711   1.881   6.638   2.608  0.6681 -0.4080 -0.0935
  448MOL0     C61712   1.860   6.667   2.474  0.3937  0.4866 -0.2987
  448MOL0     C61713   1.779   6.599   2.388 -0.2024 -0.1468  0.1776
  448MOL0     C61714   1.775   6.648   2.240 -0.3423 -0.2957 -0.2944
  448MOL0     C61715   1.697   6.495   2.437  0.1629  0.3336 -0.0237
  448MOL0     C61716   1.591   6.424   2.363 -0.0067  0.8860 -0.4180
  448MOL0     O61717   1.557   6.294   2.415 -1.2092  0.4444 -0.3962
  448MOL0     C61718   1.451   6.230   2.363 -0.6472  1.3599 -0.3747
  448MOL0     C61719   1.337   6.208   2.443 -0.0737  0.2263 -0.5428
  448MOL0     C61720   1.220   6.159   2.392 -0.0767 -0.1348 -0.3549
  448MOL0     C61721   1.216   6.101   2.263  0.0017 -0.0976 -0.5361
  448MOL0     O61722   1.109   6.031   2.212 -0.2356  0.7100  0.4432
  448MOL0     C61723   1.142   5.908   2.141  0.9685 -0.0271 -0.2692
  448MOL0     C61724   1.016   5.832   2.091  0.4725  0.6316 -1.1555
  448MOL0     C61725   0.920   5.914   2.017 -0.4042  0.2959  0.8854
  448MOL0     C61726   0.808   5.811   1.971  0.3908 -0.2422 -0.0185
  448MOL0     C61727   0.700   5.878   1.892  0.5214 -0.4336 -0.3952
  448MOL0     C61728   0.604   5.782   1.834  0.3069  0.4892 -0.2186
  448MOL0     C61729   0.505   5.846   1.737  0.0599 -0.2658 -1.3515
  448MOL0     C61730   0.445   5.741   1.644  0.2837  0.3892 -0.7480
  448MOL0    Cl61731   0.365   5.608   1.725  0.1391 -0.5975 -0.5201
  448MOL0     C61732   1.328   6.125   2.184  0.1659 -0.9428  0.6287
  448MOL0     C61733   1.442   6.191   2.235  0.6682  0.0690 -0.1893
  448MOL0     O61734   1.529   6.483   2.272  0.0932 -0.7937 -0.2999
  448MOL0     C61735   1.720   6.466   2.567  0.2742 -0.0926  0.2955
  448MOL0     C61736   1.805   6.534   2.659 -0.0463 -0.2863  0.5912
  448MOL0     N61737   2.370   6.756   2.276  0.0227  0.0413  0.2124
  448MOL0     N61738   2.456   6.837   2.233 -0.4404 -0.2924 -0.0946
  448MOL0     C61739   2.048   7.130   2.234 -0.4756  0.3656 -0.2367
  448MOL0     C61740   1.939   7.074   2.297 -0.0690  0.8484  0.4388
  448MOL0     C61741   1.591   7.036   2.596  0.6762  0.3105  0.4472
  448MOL0     C61742   1.568   7.106   2.718  0.1301 -0.1499  0.2253
  448MOL0     C61743   1.443   7.099   2.784 -0.1988 -0.4753  0.0054
  448MOL0     C61744   1.338   7.031   2.724  0.1716  0.5737  0.1087
  448MOL0     O61745   1.216   7.028   2.785  0.0569  0.1115 -0.5313
  448MOL0     C61746   1.204   6.946   2.901 -0.3047 -0.1897  0.0669
  448MOL0     C61747   1.054   6.902   2.923 -0.1596  0.4048  0.3198
  448MOL0     C61748   1.005   6.822   2.805  0.6944  1.1726  0.5366
  448MOL0     C61749   0.854   6.804   2.814 -0.5103 -0.4975 -0.4487
  448MOL0     C61750   0.806   6.748   2.697  0.3147  0.3992 -0.4226
  448MOL0     C61751   0.737   6.700   2.603  0.0347 -0.0498 -0.2318
  448MOL0     C61752   1.363   6.961   2.605  0.2706  0.1323  0.1507
  448MOL0     C61753   1.484   6.963   2.536  0.0334 -0.6102 -0.0807
  448MOL0     C61754   1.497   6.881   2.413  0.5130  0.1112  0.6116
  448MOL0     H61755   1.784   7.364   2.394  0.0787  1.0725 -0.2518
  448MOL0     H61756   1.986   7.456   2.288 -2.4434  0.4988 -0.5809
  448MOL0     H61757   2.210   7.466   2.313 -1.2656  1.4416 -0.4680
  448MOL0     H61758   2.168   7.519   2.146  0.2170  0.7747  1.5366
  448MOL0     H61759   2.394   7.392   2.092 -0.3540  0.5532 -0.3926
  448MOL0     H61760   2.384   7.562   2.154 -0.7376  0.3494 -1.7494
  448MOL0     H61761   2.413   7.484   2.383  0.8226  2.5604 -1.1132
  448MOL0     H61762   2.421   7.314   2.322 -1.0077 -0.2990 -1.0794
  448MOL0     H61763   2.614   7.534   2.253 -1.8939 -0.2384 -0.5216
  448MOL0     H61764   2.639   7.420   2.396  1.2176 -1.8578 -0.1569
  448MOL0     H61765   2.758   7.396   2.172  0.1849 -0.0331  1.6825
  448MOL0     H61766   2.610   7.326   2.117  1.4294 -0.4635 -0.3282
  448MOL0     H61767   2.793   7.165   2.231  0.5014 -0.3316  0.8252
  448MOL0     H61768   2.746   7.240   2.386 -1.9868  0.0640  0.3773
  448MOL0     H61769   2.551   7.120   2.206  0.6721  0.5886  0.3929
  448MOL0     H61770   2.540   7.138   2.389  0.8114  2.2827  0.6967
  448MOL0     H61771   2.696   6.926   2.219 -2.5607 -1.6342 -1.8639
  448MOL0     H61772   2.718   6.957   2.392  0.2511  0.7965 -1.3021
  448MOL0     H61773   2.552   6.805   2.538  0.2971 -1.8132 -1.5230
  448MOL0     H61774   2.384   6.599   2.589 -1.1914  0.0941  0.7554
  448MOL0     H61775   2.340   6.529   2.436  0.3323 -0.1880  0.6632
  448MOL0     H61776   2.132   6.646   2.446 -0.0974 -0.0992  0.8864
  448MOL0     H61777   2.165   6.563   2.602 -0.3797  0.2342  1.6108
  448MOL0     H61778   2.249   6.775   2.714 -2.4040 -1.3953  1.2950
  448MOL0     H61779   2.230   6.867   2.556 -1.2237  0.8717  0.9733
  448MOL0     H61780   2.040   6.903   2.724 -2.2382 -2.1285  1.3968
  448MOL0     H61781   2.009   6.860   2.554 -0.7749 -2.0807 -0.7203
  448MOL0     H61782   1.909   6.747   2.419  0.3061 -0.8389 -2.4304
  448MOL0     H61783   1.873   6.681   2.206  1.9665 -1.8009  4.0695
  448MOL0     H61784   1.696   6.723   2.231  3.1351  3.4097 -4.0014
  448MOL0     H61785   1.743   6.563   2.179 -0.4326  0.7843 -1.8081
  448MOL0     H61786   1.339   6.239   2.547 -1.0736  1.0304 -0.7504
  448MOL0     H61787   1.128   6.154   2.449 -1.7603  0.5744 -2.7983
  448MOL0     H61788   1.211   5.933   2.060  1.0164  0.0604 -0.2023
  448MOL0     H61789   1.202   5.850   2.213 -0.5888 -1.1753  0.1466
  448MOL0     H61790   1.051   5.749   2.028 -0.7174 -1.2874  0.5814
  448MOL0     H61791   0.961   5.788   2.175  0.2362  1.5237 -0.8401
  448MOL0     H61792   0.969   5.948   1.925 -1.9094  1.8638  0.6075
  448MOL0     H61793   0.882   6.001   2.073 -0.1036  0.2925  1.1007
  448MOL0     H61794   0.766   5.780   2.067  2.2625  0.4483  1.1023
  448MOL0     H61795   0.853   5.730   1.913 -0.4045 -0.4133 -0.4022
  448MOL0     H61796   0.648   5.950   1.956 -1.2908 -0.4168 -1.7783
  448MOL0     H61797   0.751   5.930   1.810  1.4697 -1.2994 -0.3664
  448MOL0     H61798   0.547   5.734   1.913  1.0288  0.7311  0.4596
  448MOL0     H61799   0.667   5.710   1.782  0.4509 -0.0786  0.7220
  448MOL0     H61800   0.557   5.920   1.674  2.7980  0.1838  1.2076
  448MOL0     H61801   0.425   5.898   1.791  1.1590 -0.8557  0.9689
  448MOL0     H61802   0.522   5.697   1.580 -0.6338 -0.5808 -1.2115
  448MOL0     H61803   0.381   5.790   1.570  0.5366 -0.1430 -1.3266
  448MOL0     H61804   1.339   6.102   2.079  3.3339 -0.6759  0.7875
  448MOL0     H61805   1.520   6.205   2.161  0.2834 -1.5975 -0.9605
  448MOL0     H61806   1.673   6.386   2.623  0.9257 -0.9806 -0.4047
  448MOL0     H61807   1.821   6.512   2.764  1.6558 -0.5038  0.3255
  448MOL0     H61808   2.124   7.066   2.190 -1.1846  0.5722 -1.8421
  448MOL0     H61809   1.923   6.967   2.301 -0.9853  1.0017  2.2976
  448MOL0     H61810   1.656   7.150   2.765  0.8288  1.3216 -2.2525
  448MOL0     H61811   1.430   7.153   2.877 -4.1129 -1.0405 -0.0526
  448MOL0     H61812   1.264   6.857   2.883  0.4742  0.4177 -0.3823
  448MOL0     H61813   1.243   7.000   2.987  2.4305 -1.2623 -0.4232
  448MOL0     H61814   0.990   6.990   2.930 -0.9782  0.4015 -4.1912
  448MOL0     H61815   1.050   6.848   3.018 -0.3468 -0.8687 -0.4012
  448MOL0     H61816   1.025   6.868   2.708  2.8268  0.7504  0.7217
  448MOL0     H61817   1.054   6.724   2.807  0.1483  0.9016  0.8752
  448MOL0     H61818   0.802   6.898   2.834 -0.4029 -0.9081  1.9777
  448MOL0     H61819   0.838   6.736   2.897 -0.6327 -0.6506 -0.5964
  448MOL0     H61820   0.678   6.663   2.522  1.6297 -0.8956 -1.0528
  448MOL0     H61821   1.291   6.906   2.545 -0.8573  2.3553 -0.6223
  448MOL0     H61822   1.504   6.774   2.436 -2.6288 -0.2488  0.4017
  448MOL0     H61823   1.403   6.886   2.357  1.5979 -0.7199 -1.3607
  448MOL0     H61824   1.582   6.915   2.353  1.5461 -2.4560  0.4933
  449MOL0     O61825   2.903   2.528   3.013  0.4282 -0.1333  0.2256
  449MOL0     C61826   2.931   2.522   3.137 -0.1910  0.1346  1.1621
  449MOL0     O61827   3.016   2.597   3.207 -0.1852 -0.0538 -0.7657
  449MOL0     C61828   3.126   2.658   3.141  0.9839  0.4975  0.0660
  449MOL0     C61829   3.157   2.789   3.174 -0.6356 -0.0837 -0.8103
  449MOL0     C61830   3.257   2.863   3.106  0.4160  0.7602  0.1555
  449MOL0     C61831   3.333   2.802   3.010 -0.5651  0.3183  0.8476
  449MOL0     O61832   3.431   2.889   2.968  0.1970 -0.1066 -0.3476
  449MOL0     C61833   3.503   2.846   2.856  0.1276 -0.0335  0.2880
  449MOL0     C61834   3.604   2.962   2.826  0.9646 -0.3725 -0.1125
  449MOL0     C61835   3.740   2.929   2.890  0.7941  0.2475  0.2925
  449MOL0     C61836   3.731   2.983   3.033 -0.1436  0.7013  0.3968
  449MOL0     C61837   3.874   2.963   3.096  0.1032 -1.0098  0.6105
  449MOL0     C61838   3.997   3.008   3.012 -0.4093 -0.4178 -0.4522
  449MOL0     C61839   4.123   3.014   3.097 -0.0636  0.9510  0.5746
  449MOL0     C61840   4.172   2.876   3.142  0.2612 -0.0903 -0.6087
  449MOL0     N61841   4.232   2.793   3.035  0.4340  0.6516  0.5047
  449MOL0     C61842   4.327   2.843   2.940  0.1429  0.2052  0.1121
  449MOL0     C61843   4.344   2.744   2.850  0.9772  0.2790 -0.4003
  449MOL0     C61844   4.395   2.759   2.707  0.9260 -0.3398  0.1522
  449MOL0     C61845   4.537   2.828   2.699 -0.0317 -0.2663 -0.5849
  449MOL0     C61846   4.542   2.908   2.574 -0.3446 -0.2745 -0.5485
  449MOL0     C61847   4.681   2.966   2.546  0.1928  0.3428 -0.1509
  449MOL0     O61848   4.742   3.032   2.665  0.1374  0.5929  0.3735
  449MOL0     C61849   4.875   3.020   2.687 -0.0928  0.0628 -0.0099
  449MOL0     C61850   4.932   3.132   2.759  0.2607 -0.4140  0.7023
  449MOL0     C61851   5.061   3.124   2.799  0.0597  1.1310  0.1038
  449MOL0     C61852   5.105   3.235   2.893 -0.5168 -0.0843 -1.3430
  449MOL0     C61853   5.144   3.017   2.763 -0.1669  0.2897 -0.2107
  449MOL0     C61854   5.296   3.021   2.785  0.1831  0.3080 -0.9273
  449MOL0     O61855   5.359   3.111   2.867  0.0570 -0.2025 -0.9379
  449MOL0     C61856   5.495   3.123   2.848  0.0819 -0.7354  0.7296
  449MOL0     C61857   5.545   3.195   2.737  0.4277 -0.2396  0.4100
  449MOL0     C61858   5.685   3.206   2.726 -0.1866 -0.7765 -0.1286
  449MOL0     C61859   5.775   3.155   2.823  0.3622  0.0032 -0.7150
  449MOL0     O61860   5.909   3.166   2.829 -0.4016  0.1280  0.4971
  449MOL0     C61861   5.972   3.246   2.726  0.4971  0.4738  0.7106
  449MOL0     C61862   6.108   3.289   2.766  0.2519  0.2683  0.8690
  449MOL0     C61863   6.181   3.338   2.641 -0.0880  0.2901 -1.3950
  449MOL0     C61864   6.284   3.433   2.682  0.1690 -0.4708 -0.1451
  449MOL0     C61865   6.398   3.429   2.591 -0.2674  0.3591 -0.1394
  449MOL0     C61866   6.507   3.525   2.644 -0.2873  0.3449  0.3778
  449MOL0     C61867   6.632   3.522   2.560 -0.4005  0.4188  0.4676
  449MOL0     C61868   6.748   3.587   2.620 -0.3910  0.2895 -0.3515
  449MOL0    Cl61869   6.887   3.588   2.499 -0.0850  0.4081 -0.1132
  449MOL0     C61870   5.718   3.086   2.932 -0.2009  0.7937  0.4135
  449MOL0     C61871   5.578   3.072   2.944  0.2604 -0.3856  0.5870
  449MOL0     O61872   5.356   2.931   2.729  0.1004 -0.5003  0.4729
  449MOL0     C61873   5.095   2.912   2.684  0.3739 -0.6700  0.2599
  449MOL0     C61874   4.959   2.910   2.652 -0.3132  0.2522 -0.4534
  449MOL0     N61875   4.268   2.635   2.900 -0.4839 -0.5743 -0.6352
  449MOL0     N61876   4.200   2.667   3.007 -0.2740  0.1672  0.0029
  449MOL0     C61877   3.300   2.667   2.971  0.5373  0.1450  0.6480
  449MOL0     C61878   3.201   2.595   3.038  0.4440  0.6152  0.5617
  449MOL0     C61879   2.848   2.432   3.219 -0.7325  0.2764 -0.0300
  449MOL0     C61880   2.711   2.439   3.203  0.4092 -0.5958 -0.2374
  449MOL0     C61881   2.630   2.366   3.286  0.4463  0.6139 -0.8613
  449MOL0     C61882   2.683   2.293   3.395 -0.0218 -0.3229  1.0948
  449MOL0     O61883   2.584   2.228   3.469  0.0647 -0.3178  0.6253
  449MOL0     C61884   2.636   2.148   3.575 -0.4832 -0.0210 -0.2130
  449MOL0     C61885   2.514   2.115   3.671  0.1665 -0.8379  0.4258
  449MOL0     C61886   2.567   2.038   3.795 -0.4468  0.6027  0.2899
  449MOL0     C61887   2.441   1.981   3.868  0.6393  0.3928  0.0162
  449MOL0     C61888   2.472   1.874   3.968 -0.0575 -0.5832  0.0080
  449MOL0     C61889   2.484   1.776   4.038  0.0977 -0.0453 -0.1255
  449MOL0     C61890   2.818   2.300   3.421 -0.9107 -0.3215 -0.4452
  449MOL0     C61891   2.907   2.359   3.324 -0.5681 -0.4457  0.6825
  449MOL0     C61892   3.055   2.336   3.340  0.6210 -0.3455 -0.5857
  449MOL0     H61893   3.086   2.834   3.243  1.9743 -1.6768  3.3504
  449MOL0     H61894   3.272   2.965   3.141  0.5760  1.2221 -1.1738
  449MOL0     H61895   3.431   2.827   2.776 -0.7320 -2.0528  1.4723
  449MOL0     H61896   3.556   2.751   2.869 -1.2429 -0.7213  1.0641
  449MOL0     H61897   3.611   2.967   2.717  0.8926  0.4412 -0.0892
  449MOL0     H61898   3.560   3.060   2.849  0.4149 -0.5371 -0.4459
  449MOL0     H61899   3.753   2.820   2.881 -2.5282 -0.1728 -0.7868
  449MOL0     H61900   3.821   2.975   2.833  1.9686 -2.7806 -0.7071
  449MOL0     H61901   3.705   3.089   3.034 -2.0053  0.2786  2.6087
  449MOL0     H61902   3.656   2.940   3.099  1.8277 -0.9977  1.6397
  449MOL0     H61903   3.891   2.858   3.123  3.6512  0.0085  3.1085
  449MOL0     H61904   3.868   3.021   3.189  2.1511 -0.1093  0.2364
  449MOL0     H61905   4.023   2.950   2.923  1.9153  2.4932 -1.8557
  449MOL0     H61906   3.986   3.108   2.968 -0.0193  0.3316  1.0774
  449MOL0     H61907   4.094   3.075   3.182  0.4613 -1.1379  2.3301
  449MOL0     H61908   4.206   3.067   3.049  1.0639  0.3080  1.7462
  449MOL0     H61909   4.255   2.891   3.212  0.1428  1.3972 -0.7597
  449MOL0     H61910   4.095   2.821   3.197  2.2621 -0.9506  1.5224
  449MOL0     H61911   4.367   2.943   2.926  1.1086 -0.2579 -0.5714
  449MOL0     H61912   4.316   2.816   2.657  0.6491  0.6833  1.7023
  449MOL0     H61913   4.396   2.662   2.656  0.8027  0.6835 -1.9461
  449MOL0     H61914   4.539   2.893   2.787  2.6101  0.2903 -0.9958
  449MOL0     H61915   4.621   2.758   2.705  2.0437  2.1871  0.6931
  449MOL0     H61916   4.509   2.850   2.487 -0.8745 -0.5682 -0.1642
  449MOL0     H61917   4.467   2.988   2.571 -2.1682 -1.8705 -0.3211
  449MOL0     H61918   4.747   2.885   2.514 -1.3295 -1.7240  1.6563
  449MOL0     H61919   4.666   3.041   2.468 -0.4623  0.4984  0.1144
  449MOL0     H61920   4.883   3.222   2.794  3.9403  2.3468 -0.6538
  449MOL0     H61921   5.029   3.307   2.924  0.7424  0.0609  1.8066
  449MOL0     H61922   5.187   3.296   2.854 -0.2082 -0.0909 -0.7246
  449MOL0     H61923   5.152   3.194   2.983  0.1456 -0.8162 -2.0030
  449MOL0     H61924   5.472   3.236   2.669 -0.1748  0.6803  1.5715
  449MOL0     H61925   5.729   3.256   2.640 -0.7419 -1.0864 -0.6003
  449MOL0     H61926   5.970   3.188   2.633 -3.0335 -1.0810  1.5962
  449MOL0     H61927   5.914   3.337   2.707  2.1987  1.3302 -0.7318
  449MOL0     H61928   6.101   3.359   2.850 -6.0280  1.6085 -0.2972
  449MOL0     H61929   6.169   3.202   2.791  0.0667 -0.2207 -0.3279
  449MOL0     H61930   6.118   3.392   2.570 -0.8131 -0.7961 -1.6010
  449MOL0     H61931   6.226   3.253   2.590 -0.9376 -0.3207 -1.1481
  449MOL0     H61932   6.305   3.419   2.788 -2.2554 -1.3045  0.2872
  449MOL0     H61933   6.239   3.533   2.683 -0.3271 -0.6828 -0.5150
  449MOL0     H61934   6.437   3.327   2.580 -2.1505 -0.4281  0.0535
  449MOL0     H61935   6.368   3.454   2.489 -0.7354 -1.5125 -0.5163
  449MOL0     H61936   6.544   3.492   2.741 -0.3583 -0.7253  0.0530
  449MOL0     H61937   6.469   3.627   2.654 -1.0016  0.2225 -0.8291
  449MOL0     H61938   6.612   3.569   2.464  0.6977  2.1783  1.0494
  449MOL0     H61939   6.661   3.419   2.536  1.7672  1.0006  0.4220
  449MOL0     H61940   6.785   3.534   2.708 -0.3307 -0.7852 -1.0043
  449MOL0     H61941   6.728   3.692   2.642 -1.0938  0.7054 -2.6657
  449MOL0     H61942   5.789   3.050   3.006  1.5281 -1.8765 -2.2936
  449MOL0     H61943   5.533   3.033   3.035 -0.6910  0.6957  0.6035
  449MOL0     H61944   5.148   2.822   2.654 -1.8418 -1.8861 -0.2343
  449MOL0     H61945   4.930   2.816   2.607  0.9981 -1.1482  1.4247
  449MOL0     H61946   3.353   2.625   2.887  0.1416  2.3777 -0.8352
  449MOL0     H61947   3.172   2.492   3.021 -2.8008  1.0070  2.9086
  449MOL0     H61948   2.667   2.503   3.127 -0.7598 -0.1472  0.7881
  449MOL0     H61949   2.529   2.342   3.253 -0.0712  0.3194  0.7915
  449MOL0     H61950   2.678   2.055   3.536 -2.6496 -0.9046 -0.5791
  449MOL0     H61951   2.712   2.208   3.626  0.7530 -0.4070 -1.5390
  449MOL0     H61952   2.440   2.056   3.616 -0.5653 -1.2860  1.8631
  449MOL0     H61953   2.472   2.211   3.702  1.0332 -0.2437 -0.1728
  449MOL0     H61954   2.638   1.965   3.756  0.3418  1.3079  0.3641
  449MOL0     H61955   2.617   2.110   3.861 -1.1819 -1.4955  3.3287
  449MOL0     H61956   2.376   1.926   3.799  0.3534 -0.1258  0.6860
  449MOL0     H61957   2.391   2.068   3.911 -1.2109 -0.3948 -0.4604
  449MOL0     H61958   2.500   1.685   4.094  0.0416  0.9150  1.5024
  449MOL0     H61959   2.866   2.263   3.511  1.9067  0.7821 -1.3960
  449MOL0     H61960   3.114   2.364   3.252  0.0151 -0.1714 -0.9372
  449MOL0     H61961   3.091   2.396   3.425  2.2648  2.7076 -3.2235
  449MOL0     H61962   3.085   2.236   3.373 -1.2609  0.2964  3.7568
  450MOL0     O61963   3.715   5.325   7.910 -0.8620 -0.3204  0.0688
  450MOL0     C61964   3.780   5.231   7.961 -0.4152 -0.4253  0.0065
  450MOL0     O61965   3.742   5.154   8.072 -0.3666 -0.4361 -0.3992
  450MOL0     C61966   3.626   5.192   8.136 -0.6052  0.4759 -0.3759
  450MOL0     C61967   3.511   5.103   8.138  0.6546 -0.8442  0.5085
  450MOL0     C61968   3.403   5.133   8.216  0.5557 -1.1969  1.0057
  450MOL0     C61969   3.411   5.243   8.311  0.3878 -0.7444 -0.2101
  450MOL0     O61970   3.310   5.276   8.398 -0.0684 -0.3522  0.2135
  450MOL0     C61971   3.179   5.229   8.384  0.0744  0.5540 -0.0084
  450MOL0     C61972   3.107   5.303   8.504  0.1673  0.2301  0.5969
  450MOL0     C61973   2.965   5.274   8.519  0.0829  0.6512 -0.7146
  450MOL0     C61974   2.887   5.391   8.593  0.2217  0.6759  0.1922
  450MOL0     C61975   2.739   5.361   8.594  0.5880  0.5966 -0.8563
  450MOL0     C61976   2.663   5.456   8.679  0.3056  0.7992 -0.3624
  450MOL0     C61977   2.514   5.445   8.655 -1.0799 -0.1733 -0.6991
  450MOL0     C61978   2.455   5.302   8.683  0.8500 -0.4851  0.3677
  450MOL0     N61979   2.478   5.265   8.819 -0.7725 -0.4762 -0.9554
  450MOL0     C61980   2.391   5.295   8.921  0.1964 -0.0533  0.4669
  450MOL0     C61981   2.455   5.260   9.033  0.7256  0.7591 -1.0903
  450MOL0     C61982   2.408   5.307   9.170 -0.3230 -0.1628 -0.0542
  450MOL0     C61983   2.444   5.203   9.275  0.2955 -0.4505 -0.8412
  450MOL0     C61984   2.465   5.271   9.421 -0.0381  0.7574  0.3665
  450MOL0     C61985   2.487   5.169   9.529 -0.3506  1.0600  0.8135
  450MOL0     O61986   2.604   5.092   9.498  0.7408 -0.4307  0.0455
  450MOL0     C61987   2.645   4.984   9.568  0.2398 -0.8302 -0.0224
  450MOL0     C61988   2.564   4.915   9.657 -0.4231 -0.2998 -0.0153
  450MOL0     C61989   2.604   4.794   9.723  0.1183 -0.1957  0.2218
  450MOL0     C61990   2.491   4.717   9.792  0.4997  0.2735 -0.1718
  450MOL0     C61991   2.735   4.743   9.700  0.5740  0.2284 -0.5192
  450MOL0     C61992   2.786   4.612   9.742  0.8511 -0.6308 -0.3636
  450MOL0     O61993   2.926   4.604   9.720  0.4323 -0.1063  0.8093
  450MOL0     C61994   3.000   4.494   9.729  0.7075 -0.2430  0.3724
  450MOL0     C61995   2.990   4.402   9.834 -0.1069  0.2782  0.6197
  450MOL0     C61996   3.084   4.301   9.839 -0.7803 -0.1981 -0.5105
  450MOL0     C61997   3.199   4.294   9.757  0.5712  0.0039 -0.3925
  450MOL0     O61998   3.307   4.212   9.750  0.3880  0.1267  0.7452
  450MOL0     C61999   3.321   4.095   9.844 -0.5349  0.2980  0.0545
  450MOL0     C62000   3.420   4.001   9.770 -0.6646 -0.4476  0.5133
  450MOL0     C62001   3.441   3.864   9.841 -0.4981  0.2063 -0.1855
  450MOL0     C62002   3.532   3.766   9.760 -0.1163 -0.3297  0.1794
  450MOL0     C62003   3.589   3.655   9.854 -0.0539 -0.4244 -0.2903
  450MOL0     C62004   3.648   3.542   9.770  0.2967 -0.0194  0.6672
  450MOL0     C62005   3.798   3.568   9.739  0.3379  1.1279 -0.2388
  450MOL0     C62006   3.855   3.482   9.635 -0.2432  0.6861 -0.0751
  450MOL0    Cl62007   3.836   3.316   9.677 -0.1279 -0.3270 -0.0833
  450MOL0     C62008   3.205   4.390   9.668 -1.2199  0.2754 -0.8653
  450MOL0     C62009   3.111   4.487   9.649  1.3595 -1.1929  0.0783
  450MOL0     O62010   2.719   4.520   9.784 -0.0052 -0.2418  0.5813
  450MOL0     C62011   2.812   4.826   9.614  0.6723 -0.4735  0.4475
  450MOL0     C62012   2.775   4.947   9.551 -0.0311 -0.0019  0.1497
  450MOL0     N62013   2.576   5.193   9.001  0.2007  0.2072 -0.4970
  450MOL0     N62014   2.585   5.197   8.871 -0.4215  0.0267 -0.6434
  450MOL0     C62015   3.527   5.321   8.318  0.5747  0.2792 -0.5534
  450MOL0     C62016   3.632   5.292   8.228 -0.0102 -0.5310  0.3778
  450MOL0     C62017   3.911   5.206   7.893 -0.3757  0.1621 -1.4339
  450MOL0     C62018   3.973   5.313   7.831 -0.2994 -0.8111  0.8161
  450MOL0     C62019   4.097   5.299   7.769  0.6550 -0.2278  0.3361
  450MOL0     C62020   4.158   5.169   7.760  1.2339 -0.0992  0.3267
  450MOL0     O62021   4.267   5.148   7.678  0.5812 -0.7030  0.0074
  450MOL0     C62022   4.383   5.235   7.695  0.4619  0.1531  0.2475
  450MOL0     C62023   4.413   5.302   7.832 -0.4686  0.5071  0.0793
  450MOL0     C62024   4.544   5.381   7.839  0.1578 -1.0106  0.4048
  450MOL0     C62025   4.666   5.291   7.803  0.0366  0.3248 -0.2958
  450MOL0     C62026   4.796   5.353   7.831  0.5010 -0.4367 -0.0156
  450MOL0     C62027   4.895   5.405   7.868  0.2623 -0.2519 -0.6561
  450MOL0     C62028   4.103   5.070   7.833  0.2105  0.0979 -0.1503
  450MOL0     C62029   3.980   5.085   7.904 -0.1677  0.9500 -0.0791
  450MOL0     C62030   3.919   4.965   7.965 -0.3948  0.0026  0.8853
  450MOL0     H62031   3.519   5.015   8.074  0.5393  0.4305 -1.3238
  450MOL0     H62032   3.323   5.061   8.230  3.0854 -4.2111  1.1095
  450MOL0     H62033   3.177   5.123   8.411 -2.6450  1.0902  2.3825
  450MOL0     H62034   3.146   5.247   8.282  0.0756 -2.0686 -0.5560
  450MOL0     H62035   3.156   5.283   8.599  2.6518  1.3245 -0.3659
  450MOL0     H62036   3.122   5.407   8.475  0.4564  0.2249  0.7292
  450MOL0     H62037   2.914   5.285   8.422  0.4385  2.0442 -0.7573
  450MOL0     H62038   2.945   5.180   8.572  0.7860  1.2656  0.6917
  450MOL0     H62039   2.925   5.390   8.695 -0.4159  1.4277  0.4433
  450MOL0     H62040   2.910   5.488   8.547  1.4314  0.1738 -0.3300
  450MOL0     H62041   2.730   5.258   8.632  5.2825 -0.0538 -0.9824
  450MOL0     H62042   2.710   5.379   8.490  0.6291  2.7514 -0.5345
  450MOL0     H62043   2.678   5.419   8.781  1.5456 -3.4541 -1.9145
  450MOL0     H62044   2.686   5.563   8.671 -0.8250  1.3924  2.8752
  450MOL0     H62045   2.503   5.471   8.549 -1.0638  1.9290 -0.2163
  450MOL0     H62046   2.461   5.526   8.705  1.9812  0.8729  1.0810
  450MOL0     H62047   2.347   5.312   8.671  0.8953  1.5688  1.2133
  450MOL0     H62048   2.491   5.221   8.618 -2.4783  1.1417 -4.0540
  450MOL0     H62049   2.300   5.353   8.913 -0.5385 -0.8161  2.6078
  450MOL0     H62050   2.299   5.308   9.175 -0.4082 -1.9593 -0.7962
  450MOL0     H62051   2.446   5.403   9.204  0.7262 -0.4675 -0.3051
  450MOL0     H62052   2.363   5.129   9.281 -1.1542  1.1169  3.8756
  450MOL0     H62053   2.537   5.158   9.239 -1.1247 -2.1822 -2.5413
  450MOL0     H62054   2.547   5.344   9.423 -0.9223  1.7629  2.6732
  450MOL0     H62055   2.372   5.320   9.451 -1.4891 -1.0156 -0.9952
  450MOL0     H62056   2.494   5.221   9.625 -0.6401 -0.6124  1.7893
  450MOL0     H62057   2.401   5.103   9.545  1.5591 -1.2240  2.3851
  450MOL0     H62058   2.460   4.942   9.670 -0.5833 -0.5213 -0.7646
  450MOL0     H62059   2.512   4.714   9.900 -2.6805 -2.5589  0.5438
  450MOL0     H62060   2.489   4.612   9.761  0.5696  0.3772 -0.5324
  450MOL0     H62061   2.390   4.752   9.769 -0.0016 -0.8495  0.2538
  450MOL0     H62062   2.918   4.410   9.914 -0.9845  0.9931 -0.2122
  450MOL0     H62063   3.098   4.240   9.928 -2.4944  1.9998  1.4229
  450MOL0     H62064   3.366   4.124   9.939 -0.1485  0.4490 -0.1703
  450MOL0     H62065   3.226   4.042   9.854  0.4083 -1.9243 -2.0158
  450MOL0     H62066   3.386   3.968   9.671  1.8633  0.4145 -0.7133
  450MOL0     H62067   3.519   4.045   9.760  0.0864 -1.7568  1.7027
  450MOL0     H62068   3.343   3.822   9.863 -0.3338  0.3440  0.8768
  450MOL0     H62069   3.478   3.893   9.940 -0.0996  0.4493 -0.4020
  450MOL0     H62070   3.621   3.819   9.723 -0.7632 -1.3305 -3.1074
  450MOL0     H62071   3.479   3.728   9.672  1.3382 -0.2058 -0.7985
  450MOL0     H62072   3.664   3.696   9.922 -0.1880  0.2002 -0.5194
  450MOL0     H62073   3.509   3.608   9.911  2.1323 -2.1125  1.6126
  450MOL0     H62074   3.591   3.542   9.677  2.4317 -1.4337 -0.7240
  450MOL0     H62075   3.632   3.450   9.826 -0.1083  0.0704  0.6981
  450MOL0     H62076   3.860   3.561   9.829 -0.0147 -0.3423 -0.0822
  450MOL0     H62077   3.797   3.670   9.701  1.1504  1.5371  0.8022
  450MOL0     H62078   3.956   3.522   9.631 -0.4669  1.3549  0.5860
  450MOL0     H62079   3.810   3.503   9.538  1.3750  3.2819 -0.3783
  450MOL0     H62080   3.294   4.393   9.605 -0.9503 -0.3931 -0.5157
  450MOL0     H62081   3.134   4.563   9.575 -1.7131 -0.9964 -0.8100
  450MOL0     H62082   2.913   4.796   9.586  0.7691 -0.1080  0.3971
  450MOL0     H62083   2.836   5.003   9.481  1.2103 -1.7024 -0.1783
  450MOL0     H62084   3.539   5.413   8.376  1.6551 -0.4319  0.4104
  450MOL0     H62085   3.731   5.334   8.242  0.2980 -0.9559 -0.4674
  450MOL0     H62086   3.922   5.408   7.829 -1.0581 -1.2184 -0.9718
  450MOL0     H62087   4.129   5.381   7.706  1.2713 -0.0541  0.8689
  450MOL0     H62088   4.469   5.174   7.664  1.5628  2.0431 -0.6098
  450MOL0     H62089   4.376   5.312   7.618 -1.6692 -0.4899 -0.2495
  450MOL0     H62090   4.420   5.217   7.901  0.1653  1.6958  1.5316
  450MOL0     H62091   4.332   5.374   7.849 -0.0736  1.0623 -0.3561
  450MOL0     H62092   4.533   5.455   7.759  0.1902 -0.1595  1.1696
  450MOL0     H62093   4.555   5.440   7.930 -1.9206 -1.0394  0.7359
  450MOL0     H62094   4.661   5.273   7.696 -1.0768  2.1670 -0.5868
  450MOL0     H62095   4.658   5.197   7.860  1.7499  1.0813  1.2882
  450MOL0     H62096   4.977   5.455   7.916 -1.5724  2.8875 -0.4838
  450MOL0     H62097   4.141   4.968   7.827  2.0133  0.7869 -2.6968
  450MOL0     H62098   3.816   4.958   7.928 -0.3410  0.0432  0.7273
  450MOL0     H62099   3.975   4.873   7.945 -1.0203 -0.2021 -0.0314
  450MOL0     H62100   3.910   4.967   8.074  0.4051 -0.5094  0.9706
  451MOL0     O62101   0.909   1.817   0.170 -0.4723  0.3570  0.0196
  451MOL0     C62102   0.973   1.745   0.246  0.2954  0.0379  0.3762
  451MOL0     O62103   1.092   1.676   0.230 -0.4567 -0.5514  0.3465
  451MOL0     C62104   1.168   1.698   0.122 -0.5711  0.3884 -0.4286
  451MOL0     C62105   1.128   1.735  -0.007  0.4191 -0.0971 -0.7249
  451MOL0     C62106   1.226   1.743  -0.106  0.0001 -0.7628  0.2888
  451MOL0     C62107   1.360   1.729  -0.087  0.3190  0.1043 -0.5374
  451MOL0     O62108   1.439   1.759  -0.197 -1.1418 -0.5646 -0.4624
  451MOL0     C62109   1.585   1.750  -0.184 -0.5657  1.1482  0.3914
  451MOL0     C62110   1.632   1.803  -0.321  0.5922  1.1032 -1.0587
  451MOL0     C62111   1.781   1.818  -0.325  0.0873 -1.4795 -0.2951
  451MOL0     C62112   1.827   1.899  -0.449 -0.2864 -0.4979 -0.1811
  451MOL0     C62113   1.971   1.945  -0.434 -0.3472  0.5214  0.1091
  451MOL0     C62114   1.977   2.047  -0.321  0.7811  0.7536  0.5421
  451MOL0     C62115   2.114   2.112  -0.316  0.0332 -0.1005 -0.3334
  451MOL0     C62116   2.155   2.204  -0.432  0.0610  0.8233 -0.3580
  451MOL0     N62117   2.284   2.267  -0.417 -0.5067  0.5786 -0.0605
  451MOL0     C62118   2.332   2.329  -0.309 -0.1200 -0.4106 -1.3702
  451MOL0     C62119   2.465   2.357  -0.334  0.3391 -0.4610  0.0040
  451MOL0     C62120   2.544   2.442  -0.233 -0.6805  0.6655 -0.4727
  451MOL0     C62121   2.699   2.421  -0.245  0.4665 -1.3040 -0.0530
  451MOL0     C62122   2.766   2.485  -0.373 -0.2363 -1.2458  0.8054
  451MOL0     C62123   2.765   2.637  -0.374 -0.2553 -1.6451  0.2388
  451MOL0     O62124   2.762   2.677  -0.516  0.5293 -0.1168  0.3986
  451MOL0     C62125   2.644   2.739  -0.561 -1.4316 -0.5181 -0.1110
  451MOL0     C62126   2.518   2.683  -0.534 -0.1441  0.2180  0.2741
  451MOL0     C62127   2.404   2.724  -0.606 -0.8532 -0.0806  0.3201
  451MOL0     C62128   2.281   2.651  -0.589 -0.9350 -0.3601  0.2661
  451MOL0     C62129   2.419   2.839  -0.690  0.3524  0.1664 -0.3978
  451MOL0     C62130   2.317   2.921  -0.748  0.9849  0.3239  0.4250
  451MOL0     O62131   2.318   2.944  -0.877 -0.8743  0.0507  0.0914
  451MOL0     C62132   2.217   3.028  -0.924  0.2240  0.1790  0.2252
  451MOL0     C62133   2.087   2.982  -0.954  0.5498 -0.2988 -0.0675
  451MOL0     C62134   1.993   3.077  -1.001  0.9594 -0.1504  1.0235
  451MOL0     C62135   2.021   3.212  -1.007 -0.5993  0.2048 -0.2046
  451MOL0     O62136   1.919   3.297  -1.047  0.7882  0.3574  0.3717
  451MOL0     C62137   1.948   3.440  -1.054 -1.1056 -1.5495 -0.2266
  451MOL0     C62138   1.818   3.506  -1.088 -0.2736  0.2937 -0.1079
  451MOL0     C62139   1.746   3.458  -1.212 -0.0356 -0.4437  0.2803
  451MOL0     C62140   1.761   3.558  -1.327  0.3849 -0.0723  0.2996
  451MOL0     C62141   1.699   3.503  -1.463 -0.8511 -0.4443 -0.1093
  451MOL0     C62142   1.715   3.614  -1.569 -0.3836 -0.2532 -0.2705
  451MOL0     C62143   1.683   3.565  -1.715  0.4676  0.6686  0.5354
  451MOL0     C62144   1.527   3.558  -1.729  0.4101  0.3134  0.7459
  451MOL0    Cl62145   1.475   3.687  -1.849  0.2492  0.0415  0.0314
  451MOL0     C62146   2.148   3.259  -0.955 -0.1024  0.3304 -0.0559
  451MOL0     C62147   2.239   3.170  -0.911  0.3548 -0.6139 -0.2064
  451MOL0     O62148   2.222   2.958  -0.670 -0.2148  0.0496  0.7026
  451MOL0     C62149   2.548   2.902  -0.708 -0.3633  0.2669 -0.0849
  451MOL0     C62150   2.657   2.841  -0.652  0.1881 -0.2367 -0.2769
  451MOL0     N62151   2.485   2.330  -0.470  0.2958 -0.2911  0.7460
  451MOL0     N62152   2.374   2.283  -0.517  0.2047 -0.1544  0.3176
  451MOL0     C62153   1.396   1.671   0.029 -0.6096 -0.2539 -0.1898
  451MOL0     C62154   1.305   1.663   0.138 -0.1644 -0.5787 -0.8170
  451MOL0     C62155   0.913   1.699   0.381  0.0038  0.4227  0.3579
  451MOL0     C62156   1.004   1.638   0.471 -0.5147 -0.1040  0.0901
  451MOL0     C62157   0.959   1.579   0.594  0.7377 -0.6943 -0.1358
  451MOL0     C62158   0.822   1.563   0.627 -0.3506 -0.5552 -0.4657
  451MOL0     O62159   0.780   1.504   0.748 -0.3865 -0.5118  1.0846
  451MOL0     C62160   0.880   1.446   0.828 -0.1474 -0.1620  0.2710
  451MOL0     C62161   0.816   1.390   0.955 -0.1971  0.1824  0.1182
  451MOL0     C62162   0.763   1.506   1.043 -0.1864 -0.6821  0.0907
  451MOL0     C62163   0.730   1.462   1.187  0.0392 -0.4637 -0.6772
  451MOL0     C62164   0.657   1.576   1.244 -0.0035 -0.2497  0.7112
  451MOL0     C62165   0.599   1.666   1.296 -0.2300  0.0628 -0.2361
  451MOL0     C62166   0.731   1.626   0.541 -0.5945 -0.1963  0.2850
  451MOL0     C62167   0.771   1.689   0.415 -0.3976 -0.1400 -0.3257
  451MOL0     C62168   0.662   1.725   0.322  0.9454  0.2529 -0.3475
  451MOL0     H62169   1.021   1.744  -0.020  0.0812  1.2460  2.1675
  451MOL0     H62170   1.203   1.775  -0.208  0.1628  1.5296  0.9026
  451MOL0     H62171   1.614   1.645  -0.188  0.5317  1.3906  1.3394
  451MOL0     H62172   1.621   1.804  -0.096  1.5576  1.7843 -0.8112
  451MOL0     H62173   1.608   1.733  -0.402 -2.7718 -0.3408  0.9811
  451MOL0     H62174   1.585   1.902  -0.328  1.2929  1.8878  2.9541
  451MOL0     H62175   1.803   1.865  -0.229 -2.2719 -0.3388 -0.2520
  451MOL0     H62176   1.837   1.725  -0.336  1.6681 -0.3461 -2.8709
  451MOL0     H62177   1.814   1.848  -0.544  0.3962 -1.7979  0.4019
  451MOL0     H62178   1.765   1.989  -0.456 -0.6315 -0.8251 -1.4586
  451MOL0     H62179   1.997   2.000  -0.525 -1.8994 -0.3992 -0.9418
  451MOL0     H62180   2.039   1.860  -0.420  1.6604  1.9776 -0.3252
  451MOL0     H62181   1.902   2.126  -0.326 -0.1637 -0.1763 -1.8412
  451MOL0     H62182   1.963   1.996  -0.225  1.0255 -1.2561 -0.4228
  451MOL0     H62183   2.195   2.040  -0.303  0.6427  1.0735  3.9275
  451MOL0     H62184   2.110   2.167  -0.221 -0.4990 -1.0886  0.2369
  451MOL0     H62185   2.151   2.151  -0.528 -0.9881 -1.9125  1.0750
  451MOL0     H62186   2.082   2.284  -0.440 -2.2556 -1.0022  1.0947
  451MOL0     H62187   2.278   2.350  -0.217  1.9880 -0.7985  0.0087
  451MOL0     H62188   2.525   2.391  -0.138  3.6753 -1.2150 -0.3921
  451MOL0     H62189   2.515   2.546  -0.215 -1.0388  0.4858 -0.0006
  451MOL0     H62190   2.749   2.459  -0.156 -1.2668  2.1794 -0.3969
  451MOL0     H62191   2.719   2.315  -0.228 -1.3707 -1.7924 -0.7057
  451MOL0     H62192   2.869   2.448  -0.381 -0.3083 -1.4486  0.7896
  451MOL0     H62193   2.709   2.443  -0.457  1.2188 -2.8427  0.5457
  451MOL0     H62194   2.683   2.669  -0.309  0.0471 -1.5341  0.5751
  451MOL0     H62195   2.861   2.667  -0.331 -0.2786 -4.1494  2.2976
  451MOL0     H62196   2.509   2.598  -0.467 -0.2116 -0.2209 -0.2896
  451MOL0     H62197   2.299   2.549  -0.624  1.5635 -0.2196  0.9442
  451MOL0     H62198   2.197   2.697  -0.642 -0.6589 -0.7141 -0.4929
  451MOL0     H62199   2.256   2.660  -0.483 -2.7795  0.3594 -0.1898
  451MOL0     H62200   2.060   2.878  -0.944 -0.9775  0.0613 -0.2390
  451MOL0     H62201   1.891   3.054  -1.030  1.7824 -0.3171 -2.0308
  451MOL0     H62202   1.985   3.480  -0.959 -0.9613  1.6999 -1.5006
  451MOL0     H62203   2.015   3.469  -1.136 -1.2650 -2.3533 -0.6507
  451MOL0     H62204   1.755   3.490  -1.001 -0.7380  0.6364 -0.3791
  451MOL0     H62205   1.840   3.612  -1.100 -0.0781  0.3602  0.8091
  451MOL0     H62206   1.643   3.438  -1.182  0.0296 -1.7817 -0.3199
  451MOL0     H62207   1.770   3.356  -1.242 -1.2228 -0.4484 -0.7469
  451MOL0     H62208   1.868   3.580  -1.332  0.5886 -0.7834  1.3316
  451MOL0     H62209   1.708   3.646  -1.290  0.2023 -0.6068  1.3535
  451MOL0     H62210   1.752   3.413  -1.495 -0.6545 -1.0514  1.8001
  451MOL0     H62211   1.593   3.480  -1.447 -1.3126  1.6826  0.2202
  451MOL0     H62212   1.821   3.641  -1.563 -0.6054  0.6011  0.0378
  451MOL0     H62213   1.658   3.706  -1.553  0.4396  0.5070 -1.5128
  451MOL0     H62214   1.713   3.461  -1.730 -1.4966  0.2904 -1.3044
  451MOL0     H62215   1.723   3.620  -1.801 -0.1075 -0.4170 -0.4635
  451MOL0     H62216   1.480   3.579  -1.633 -1.7400  1.1887 -0.4307
  451MOL0     H62217   1.504   3.460  -1.771 -0.2604  2.1846 -3.8302
  451MOL0     H62218   2.196   3.356  -0.948  3.2041 -1.2402  2.1602
  451MOL0     H62219   2.340   3.208  -0.895  0.7337 -1.0231 -1.5009
  451MOL0     H62220   2.552   2.994  -0.764  1.8703  0.1538 -0.1890
  451MOL0     H62221   2.755   2.882  -0.677  0.5027 -1.5312 -1.2462
  451MOL0     H62222   1.500   1.644   0.039 -0.9407 -0.7546  3.1420
  451MOL0     H62223   1.342   1.617   0.229  1.3414 -0.2819 -1.2481
  451MOL0     H62224   1.109   1.636   0.444 -0.2854 -1.1909  0.9526
  451MOL0     H62225   1.040   1.536   0.652  1.1586 -0.2679 -0.4021
  451MOL0     H62226   0.928   1.360   0.781 -1.6043 -0.4693 -0.7046
  451MOL0     H62227   0.964   1.512   0.851  0.9928 -1.4976  0.0468
  451MOL0     H62228   0.890   1.347   1.022  1.3617  2.1879 -0.1937
  451MOL0     H62229   0.743   1.313   0.930 -0.1444 -0.6278  2.2734
  451MOL0     H62230   0.843   1.580   1.052  0.5824 -1.5885  0.8203
  451MOL0     H62231   0.688   1.566   0.989 -0.1101 -0.4703  0.2184
  451MOL0     H62232   0.824   1.444   1.240 -0.9615  2.9266  2.7647
  451MOL0     H62233   0.666   1.374   1.188 -0.2381 -0.3143  2.0655
  451MOL0     H62234   0.550   1.751   1.338  1.8174  0.6044  1.1887
  451MOL0     H62235   0.625   1.623   0.564 -0.7718  0.1822 -0.4589
  451MOL0     H62236   0.669   1.825   0.277 -2.4439 -0.0275 -1.8179
  451MOL0     H62237   0.659   1.651   0.242 -0.7707 -0.2339  0.1126
  451MOL0     H62238   0.566   1.731   0.374  1.0714  1.4042 -0.2133
  452MOL0     O62239   3.383   2.579   8.552 -0.3972  0.2395  0.9881
  452MOL0     C62240   3.358   2.689   8.510  0.3043 -0.1730  0.1131
  452MOL0     O62241   3.444   2.775   8.449  0.3451 -0.2857  0.6100
  452MOL0     C62242   3.575   2.770   8.503  0.4812 -0.1214 -0.2176
  452MOL0     C62243   3.601   2.837   8.624  0.8747 -0.5256  0.1207
  452MOL0     C62244   3.729   2.823   8.680  0.0713 -0.0350 -0.4658
  452MOL0     C62245   3.844   2.772   8.603 -0.1458  0.0978  0.3039
  452MOL0     O62246   3.973   2.752   8.644  0.0051  0.1993  0.2124
  452MOL0     C62247   4.016   2.849   8.741 -0.3085  0.7506  0.3329
  452MOL0     C62248   4.165   2.829   8.782 -0.5358  0.1202  0.5447
  452MOL0     C62249   4.196   2.920   8.896 -0.6423 -0.7485  0.3972
  452MOL0     C62250   4.349   2.902   8.951 -0.4153  0.3557  0.9394
  452MOL0     C62251   4.360   2.932   9.102 -0.1801  0.2882 -0.1089
  452MOL0     C62252   4.342   3.080   9.133  0.5290  0.0660  1.3831
  452MOL0     C62253   4.313   3.127   9.276 -0.8241 -0.3985 -0.1348
  452MOL0     C62254   4.287   3.274   9.267  0.1365  0.0763  0.4304
  452MOL0     N62255   4.306   3.332   9.409  0.1933 -0.9512  0.4112
  452MOL0     C62256   4.203   3.358   9.494  0.7539  0.1625 -0.4367
  452MOL0     C62257   4.267   3.422   9.600  0.1176 -0.0136  0.2602
  452MOL0     C62258   4.217   3.474   9.731 -0.3388  0.2868  0.1310
  452MOL0     C62259   4.306   3.445   9.854 -0.1238  0.4119 -0.2132
  452MOL0     C62260   4.246   3.494   9.984 -0.1751  0.0290 -0.4418
  452MOL0     C62261   4.372   3.496  10.083 -0.5331 -0.2755 -0.1151
  452MOL0     O62262   4.474   3.597  10.057  0.0870  0.1499 -0.3138
  452MOL0     C62263   4.586   3.610  10.133 -0.4839  0.6947  0.3197
  452MOL0     C62264   4.594   3.552  10.261 -0.4846 -0.7346 -0.6577
  452MOL0     C62265   4.700   3.574  10.344  0.1205  0.3848 -0.0647
  452MOL0     C62266   4.703   3.501  10.478 -0.1048 -0.3941 -0.7972
  452MOL0     C62267   4.805   3.661  10.304 -0.5728  0.5716 -0.1754
  452MOL0     C62268   4.929   3.698  10.376 -0.1279 -0.4885 -0.0650
  452MOL0     O62269   5.035   3.764  10.307  0.6840  0.1869 -0.1657
  452MOL0     C62270   5.143   3.803  10.367  0.3816 -0.8450 -0.6523
  452MOL0     C62271   5.185   3.933  10.348 -0.0823  0.0632  0.0409
  452MOL0     C62272   5.308   3.976  10.400 -0.1733 -0.4428  0.0277
  452MOL0     C62273   5.400   3.881  10.456 -0.2887  0.6551  0.0838
  452MOL0     O62274   5.525   3.923  10.507 -1.0683 -0.0200  0.0045
  452MOL0     C62275   5.566   3.877  10.640  0.2203  0.2097 -0.2290
  452MOL0     C62276   5.688   3.955  10.690 -0.4455  0.0257 -0.2701
  452MOL0     C62277   5.678   3.931  10.845 -0.6979 -0.5859 -0.8866
  452MOL0     C62278   5.815   3.948  10.923  0.0630  0.4098 -0.0747
  452MOL0     C62279   5.787   3.891  11.061 -0.4594 -0.6465 -1.3174
  452MOL0     C62280   5.895   3.924  11.158 -0.1845  1.0889 -0.4953
  452MOL0     C62281   5.863   3.894  11.307 -0.4397  0.1005  0.3621
  452MOL0     C62282   5.991   3.909  11.395 -0.4158 -0.2595 -0.2798
  452MOL0    Cl62283   6.079   3.748  11.395 -0.0068 -0.1087  0.1336
  452MOL0     C62284   5.356   3.750  10.478  0.0763  0.7191  0.4139
  452MOL0     C62285   5.224   3.716  10.432 -0.3183  0.3103  0.1647
  452MOL0     O62286   4.922   3.688  10.495  0.0111 -0.2899  0.1379
  452MOL0     C62287   4.789   3.727  10.170  0.1568  0.1694 -0.3988
  452MOL0     C62288   4.688   3.687  10.090 -0.4870 -0.7865 -0.4973
  452MOL0     N62289   4.405   3.440   9.564  0.5023 -0.1229  0.7229
  452MOL0     N62290   4.427   3.380   9.450  0.5201 -0.4580  0.2492
  452MOL0     C62291   3.813   2.708   8.482 -0.2047  0.4513 -0.7679
  452MOL0     C62292   3.679   2.710   8.431  0.0904  0.2647 -0.1747
  452MOL0     C62293   3.215   2.710   8.496  0.1444  0.1144 -0.0217
  452MOL0     C62294   3.165   2.747   8.370 -0.5055  0.5436  0.6321
  452MOL0     C62295   3.030   2.774   8.358 -0.5789 -0.0409  0.7232
  452MOL0     C62296   2.937   2.772   8.462  0.2425  0.0270 -0.3847
  452MOL0     O62297   2.809   2.809   8.426 -0.5306  0.5737 -0.2086
  452MOL0     C62298   2.713   2.813   8.535  0.4086 -0.2459  0.9521
  452MOL0     C62299   2.664   2.672   8.605 -0.4920 -0.1581 -0.1419
  452MOL0     C62300   2.601   2.577   8.513  0.3021  0.7412  0.1689
  452MOL0     C62301   2.477   2.628   8.428 -0.5886 -0.5171  0.2787
  452MOL0     C62302   2.368   2.684   8.512  0.3757 -0.8305 -0.1664
  452MOL0     C62303   2.269   2.718   8.570  0.4466 -0.2269  0.3205
  452MOL0     C62304   2.987   2.740   8.590  0.4344 -0.4719  0.1674
  452MOL0     C62305   3.128   2.712   8.604  0.6243 -0.1717  0.3828
  452MOL0     C62306   3.192   2.681   8.740  0.1093  0.6900 -0.5707
  452MOL0     H62307   3.516   2.877   8.679 -0.3223 -3.7789  0.8763
  452MOL0     H62308   3.737   2.872   8.776 -1.3175 -2.6122  1.0595
  452MOL0     H62309   3.958   2.839   8.834  0.5124  0.5347  0.8281
  452MOL0     H62310   4.006   2.952   8.706  0.0877  1.0261  1.0141
  452MOL0     H62311   4.176   2.724   8.811 -2.1533 -1.0495 -2.5811
  452MOL0     H62312   4.231   2.842   8.696  1.6841 -0.1906  2.1012
  452MOL0     H62313   4.193   3.022   8.856  1.1847 -0.9125 -0.2621
  452MOL0     H62314   4.115   2.902   8.967 -1.3024  0.3913 -0.0427
  452MOL0     H62315   4.369   2.794   8.948 -0.5343  0.2676  2.4730
  452MOL0     H62316   4.421   2.962   8.894 -0.0430  0.4988  1.5500
  452MOL0     H62317   4.460   2.909   9.140 -1.8122 -2.4156  3.0543
  452MOL0     H62318   4.292   2.865   9.155  0.6510  0.3950  1.1261
  452MOL0     H62319   4.434   3.117   9.086  0.6663 -2.9005 -0.9964
  452MOL0     H62320   4.258   3.124   9.077 -0.7849 -0.5984  2.7732
  452MOL0     H62321   4.396   3.092   9.338 -1.0754 -0.5310  0.1277
  452MOL0     H62322   4.225   3.082   9.323  0.1797 -1.0180  1.2433
  452MOL0     H62323   4.356   3.316   9.194 -0.1956  0.8247  0.5389
  452MOL0     H62324   4.189   3.308   9.231  0.6294  2.5276  1.2187
  452MOL0     H62325   4.098   3.333   9.492  0.7238  0.2027  0.3669
  452MOL0     H62326   4.118   3.428   9.742 -0.0174 -0.2371  0.9229
  452MOL0     H62327   4.200   3.581   9.722  2.0163  0.6367 -0.8922
  452MOL0     H62328   4.322   3.339   9.875 -1.3459  0.8755  4.0013
  452MOL0     H62329   4.402   3.497   9.842 -0.8183  1.4937 -1.3129
  452MOL0     H62330   4.219   3.600   9.981  2.7565  0.9674  1.3242
  452MOL0     H62331   4.174   3.430  10.035  0.6404 -0.6642 -0.1320
  452MOL0     H62332   4.328   3.522  10.180  0.1820  1.5609 -0.2470
  452MOL0     H62333   4.413   3.395  10.092  1.4674  0.6729  3.6391
  452MOL0     H62334   4.514   3.490  10.302  0.5931 -0.6498  1.7584
  452MOL0     H62335   4.704   3.576  10.558  0.9624 -1.1741 -0.0375
  452MOL0     H62336   4.797   3.449  10.501  1.1182  1.8673 -0.4274
  452MOL0     H62337   4.618   3.433  10.490  1.2121 -2.2203 -1.3669
  452MOL0     H62338   5.133   4.006  10.287  1.0625  0.6066 -0.3151
  452MOL0     H62339   5.342   4.078  10.383  0.8953 -0.5613  1.2569
  452MOL0     H62340   5.486   3.896  10.712  0.1854 -1.9126  0.3786
  452MOL0     H62341   5.595   3.771  10.645  0.5812  0.2409 -1.3965
  452MOL0     H62342   5.779   3.905  10.653  1.2166  1.3088  1.8461
  452MOL0     H62343   5.687   4.060  10.660  1.0064 -0.4214 -2.1080
  452MOL0     H62344   5.633   3.832  10.857 -3.3820  0.7534  0.8482
  452MOL0     H62345   5.606   3.999  10.890 -0.5409  1.1057 -3.0590
  452MOL0     H62346   5.835   4.055  10.929  4.8443 -0.3579  1.9906
  452MOL0     H62347   5.901   3.907  10.870 -1.3494  0.4315 -2.5716
  452MOL0     H62348   5.696   3.941  11.094 -0.3189 -1.8107  1.0459
  452MOL0     H62349   5.768   3.783  11.063 -0.2898 -0.6749  0.1978
  452MOL0     H62350   5.920   4.030  11.150  1.4505  1.0708  2.5971
  452MOL0     H62351   5.978   3.861  11.124 -1.4784 -3.1785  3.1658
  452MOL0     H62352   5.822   3.793  11.314 -1.5866  0.4124 -1.2641
  452MOL0     H62353   5.781   3.950  11.352 -1.6510 -1.2133 -0.1089
  452MOL0     H62354   5.959   3.941  11.494  1.2268 -1.5205  0.7080
  452MOL0     H62355   6.069   3.979  11.363 -1.1093  0.4789 -0.3888
  452MOL0     H62356   5.420   3.676  10.524  0.3118  0.1526 -0.7806
  452MOL0     H62357   5.175   3.621  10.450 -0.7926 -1.1962 -6.3280
  452MOL0     H62358   4.860   3.802  10.137  2.2569 -1.1070  0.9706
  452MOL0     H62359   4.692   3.730   9.990 -1.5591  0.3171 -0.0827
  452MOL0     H62360   3.880   2.656   8.415 -1.9024 -0.9441 -1.4435
  452MOL0     H62361   3.660   2.656   8.339  0.9713  1.0782 -0.8519
  452MOL0     H62362   3.228   2.764   8.284  2.4607 -1.1150  2.3202
  452MOL0     H62363   2.994   2.799   8.259  0.9443  3.6316  0.9364
  452MOL0     H62364   2.757   2.868   8.619 -2.1431 -0.4834  2.5673
  452MOL0     H62365   2.622   2.859   8.496  0.6453 -0.4317  0.1624
  452MOL0     H62366   2.591   2.698   8.682  0.7824 -0.2061  1.1242
  452MOL0     H62367   2.753   2.626   8.648  0.7403  1.4773 -0.8404
  452MOL0     H62368   2.678   2.542   8.443  1.1410 -5.4693  3.4326
  452MOL0     H62369   2.565   2.480   8.552  4.8288 -1.6877 -0.9707
  452MOL0     H62370   2.427   2.559   8.360 -1.5702  0.1361  0.3073
  452MOL0     H62371   2.508   2.713   8.366  0.0183 -1.6164 -0.9837
  452MOL0     H62372   2.182   2.763   8.614  0.4959 -2.3547  2.8657
  452MOL0     H62373   2.916   2.732   8.672  1.6228  0.9736  1.3904
  452MOL0     H62374   3.242   2.584   8.748 -2.3937 -0.9044 -2.6540
  452MOL0     H62375   3.261   2.760   8.772 -0.0482  0.5884  0.0333
  452MOL0     H62376   3.104   2.671   8.804  0.4541 -2.9761 -0.4424
  453MOL0     O62377   8.532   8.976   8.757 -0.3528  0.3402 -0.0440
  453MOL0     C62378   8.458   8.973   8.660 -1.1902  0.5577 -0.4355
  453MOL0     O62379   8.499   8.992   8.528 -0.2725  0.2077 -0.3792
  453MOL0     C62380   8.635   9.015   8.508  1.0555  0.2066  1.0987
  453MOL0     C62381   8.702   9.113   8.571 -0.4188 -0.4024  0.3195
  453MOL0     C62382   8.829   9.155   8.532  0.3801 -0.4716  0.0850
  453MOL0     C62383   8.898   9.082   8.431  0.8651 -0.3144 -0.5380
  453MOL0     O62384   9.014   9.133   8.398  0.0750 -0.7432  0.4151
  453MOL0     C62385   9.119   9.042   8.354  0.3299  0.6531  0.3037
  453MOL0     C62386   9.210   8.996   8.475 -0.0832  0.3233 -0.4393
  453MOL0     C62387   9.318   9.100   8.522 -0.7381 -0.0938  0.3030
  453MOL0     C62388   9.422   9.127   8.411 -0.7012  0.0939 -0.7365
  453MOL0     C62389   9.562   9.136   8.492 -0.3842  0.5306 -0.4540
  453MOL0     C62390   9.622   8.998   8.489 -1.0108  0.1223  0.5042
  453MOL0     C62391   9.732   8.987   8.383  0.2915  0.5235 -0.2074
  453MOL0     C62392   9.769   8.841   8.362 -0.6263 -0.1136  0.9072
  453MOL0     N62393   9.898   8.811   8.435  1.0784 -0.3076 -0.3170
  453MOL0     C62394   9.923   8.755   8.557  0.3944 -0.3220  0.4826
  453MOL0     C62395  10.056   8.760   8.571  0.3139  0.3468 -0.1549
  453MOL0     C62396  10.133   8.723   8.681  0.6157 -0.8337 -0.1898
  453MOL0     C62397  10.055   8.699   8.817  0.5909 -0.6421  0.8369
  453MOL0     C62398  10.141   8.633   8.926  0.2826  0.3292  0.3668
  453MOL0     C62399  10.261   8.724   8.975  0.0253  0.4806  0.2951
  453MOL0     O62400  10.313   8.659   9.093 -0.1360  0.0686  0.2796
  453MOL0     C62401  10.420   8.577   9.092 -0.3469 -0.5017 -0.0063
  453MOL0     C62402  10.485   8.563   9.212 -0.1388  0.1216  0.7446
  453MOL0     C62403  10.596   8.483   9.231 -0.1867 -0.0163 -0.3409
  453MOL0     C62404  10.641   8.479   9.372 -0.1307  0.9956  0.0897
  453MOL0     C62405  10.659   8.423   9.128  0.1159 -0.3785  0.3330
  453MOL0     C62406  10.784   8.337   9.135  0.0067  0.5810 -0.2852
  453MOL0     O62407  10.855   8.325   9.017  0.0144 -0.0160  0.2328
  453MOL0     C62408  10.960   8.237   9.017 -0.1906 -0.8803  0.2952
  453MOL0     C62409  11.064   8.256   9.109 -0.1924  0.3902  0.3942
  453MOL0     C62410  11.176   8.173   9.099  0.6160  0.5534  0.6211
  453MOL0     C62411  11.181   8.077   8.997  0.7597  0.0721 -1.1616
  453MOL0     O62412  11.285   7.990   8.998  0.2735  0.3501 -0.0013
  453MOL0     C62413  11.386   8.036   8.909 -0.8478  0.1650 -0.2296
  453MOL0     C62414  11.491   7.925   8.883 -0.5267 -0.2443  0.8949
  453MOL0     C62415  11.563   7.861   9.013 -0.4419 -0.4446  0.0564
  453MOL0     C62416  11.678   7.775   8.969  0.0201 -0.6425 -1.0330
  453MOL0     C62417  11.809   7.835   8.912  0.5491  0.0091 -0.4971
  453MOL0     C62418  11.891   7.723   8.853  0.8106 -0.2472  0.0893
  453MOL0     C62419  12.017   7.778   8.783 -0.2577 -0.1333  0.6653
  453MOL0     C62420  12.141   7.692   8.823 -0.4975  0.4312  0.2137
  453MOL0    Cl62421  12.270   7.806   8.790  0.1202  0.6208 -0.1849
  453MOL0     C62422  11.071   8.051   8.915  0.5106 -0.7803  0.4684
  453MOL0     C62423  10.963   8.139   8.922 -0.9310  0.2395 -0.3355
  453MOL0     O62424  10.808   8.274   9.242 -0.1474 -0.1605 -0.0026
  453MOL0     C62425  10.599   8.445   8.998 -0.1689 -0.3181  0.1647
  453MOL0     C62426  10.481   8.518   8.987  0.3716  0.1843  0.8130
  453MOL0     N62427  10.109   8.823   8.464  0.3095 -1.0351  0.1902
  453MOL0     N62428  10.014   8.846   8.379 -0.8141  0.1340 -0.6291
  453MOL0     C62429   8.826   8.978   8.369 -0.0015  0.3042  0.5411
  453MOL0     C62430   8.692   8.945   8.407 -0.3211 -0.0152  0.2087
  453MOL0     C62431   8.314   8.945   8.676  0.2470  0.5983  0.9362
  453MOL0     C62432   8.241   8.878   8.573  0.1861  0.2773  0.6515
  453MOL0     C62433   8.100   8.868   8.579  0.1055  0.0174 -0.1035
  453MOL0     C62434   8.024   8.917   8.691 -0.1481  0.6996  0.2152
  453MOL0     O62435   7.891   8.951   8.693 -0.2485  0.4558  0.4055
  453MOL0     C62436   7.796   8.877   8.612  0.7584  0.2037  0.0057
  453MOL0     C62437   7.706   8.807   8.708 -0.1583  0.0746  0.6324
  453MOL0     C62438   7.660   8.894   8.830 -0.7307  0.1195  0.1112
  453MOL0     C62439   7.529   8.841   8.903  1.0545  0.3781 -0.4323
  453MOL0     C62440   7.555   8.796   9.037 -0.8263  0.2744 -0.3833
  453MOL0     C62441   7.581   8.774   9.154  0.3083 -0.1305  0.7566
  453MOL0     C62442   8.096   8.973   8.796 -0.0430 -0.3274 -0.8602
  453MOL0     C62443   8.235   9.000   8.783 -1.0665 -0.8845  0.1228
  453MOL0     C62444   8.296   9.078   8.892 -0.7321  0.6728  0.4331
  453MOL0     H62445   8.651   9.165   8.651 -1.0332 -0.4782 -0.0142
  453MOL0     H62446   8.884   9.237   8.578  1.8356  0.9206 -3.6958
  453MOL0     H62447   9.194   9.090   8.291  0.5447  1.3035  1.0241
  453MOL0     H62448   9.075   8.961   8.297  1.8869 -0.2416  0.3281
  453MOL0     H62449   9.138   8.983   8.556 -0.0410  0.3849 -0.3921
  453MOL0     H62450   9.264   8.905   8.444  0.6978  0.6533 -0.0662
  453MOL0     H62451   9.270   9.193   8.554  0.7531  0.6814  0.3876
  453MOL0     H62452   9.359   9.057   8.614 -2.3683  1.8944  2.0526
  453MOL0     H62453   9.427   9.047   8.337  1.5599  0.9713 -1.6265
  453MOL0     H62454   9.399   9.222   8.362 -0.4537  1.6437  1.9379
  453MOL0     H62455   9.553   9.173   8.595  1.2560  0.6735 -0.3330
  453MOL0     H62456   9.631   9.204   8.440 -1.2063  1.1976 -0.6966
  453MOL0     H62457   9.663   8.975   8.588  1.7533  0.8458 -0.3771
  453MOL0     H62458   9.548   8.922   8.462  2.2258 -2.8952 -0.6814
  453MOL0     H62459   9.816   9.051   8.413  0.1691  0.1365  1.0229
  453MOL0     H62460   9.700   9.030   8.287  2.2791 -0.6258 -1.4527
  453MOL0     H62461   9.694   8.764   8.385  0.3663 -1.8016 -1.1016
  453MOL0     H62462   9.800   8.839   8.257 -0.0174  1.1971  1.0484
  453MOL0     H62463   9.856   8.718   8.634 -0.2824  2.5074  1.3627
  453MOL0     H62464  10.204   8.804   8.701 -1.0609  0.1179  2.4042
  453MOL0     H62465  10.192   8.635   8.657  2.2306 -0.8154  3.1026
  453MOL0     H62466  10.017   8.798   8.847 -0.8817 -1.1953  0.8795
  453MOL0     H62467   9.972   8.634   8.788  0.8132 -0.0027 -1.4302
  453MOL0     H62468  10.080   8.605   9.013  2.1740 -3.1302  0.7663
  453MOL0     H62469  10.193   8.543   8.893  1.8909  0.9682  1.0617
  453MOL0     H62470  10.337   8.741   8.898 -0.2188  1.7497  0.3090
  453MOL0     H62471  10.225   8.820   9.012 -1.5139 -0.0822  0.3302
  453MOL0     H62472  10.436   8.620   9.290 -0.8806 -0.7567  0.9369
  453MOL0     H62473  10.624   8.385   9.425 -1.7538  1.2569  0.0724
  453MOL0     H62474  10.580   8.552   9.425 -0.5772 -0.6729  1.9819
  453MOL0     H62475  10.744   8.516   9.383 -0.4309  2.0137 -0.3772
  453MOL0     H62476  11.059   8.333   9.185 -4.0049  0.3450  0.3978
  453MOL0     H62477  11.259   8.183   9.168  1.8029  3.2117 -1.0448
  453MOL0     H62478  11.339   8.061   8.814 -1.9151 -0.5748  0.0808
  453MOL0     H62479  11.428   8.132   8.939  0.5263 -0.0921 -1.2216
  453MOL0     H62480  11.448   7.845   8.822 -1.0985  0.5049  0.2905
  453MOL0     H62481  11.569   7.976   8.824 -1.0287  0.6001  0.9433
  453MOL0     H62482  11.482   7.833   9.081 -1.2803 -0.7399 -1.0450
  453MOL0     H62483  11.601   7.952   9.060 -2.0723 -0.2346  1.0566
  453MOL0     H62484  11.632   7.702   8.901 -1.1642  0.0298 -0.9718
  453MOL0     H62485  11.712   7.718   9.057 -2.5180  0.1656  0.5779
  453MOL0     H62486  11.790   7.908   8.832 -1.2806 -0.0210 -0.1273
  453MOL0     H62487  11.860   7.882   8.997 -0.6991  0.2664  0.1386
  453MOL0     H62488  11.826   7.678   8.777  0.1520  1.8201 -0.6621
  453MOL0     H62489  11.919   7.655   8.933 -1.6653 -2.2559 -0.6020
  453MOL0     H62490  12.031   7.883   8.810  0.9112 -0.8281  3.0901
  453MOL0     H62491  11.999   7.774   8.675 -2.0336  2.4957  0.7892
  453MOL0     H62492  12.157   7.599   8.769  1.8719 -0.5802  2.4608
  453MOL0     H62493  12.149   7.675   8.931 -0.4613 -0.0304  0.1385
  453MOL0     H62494  11.072   7.971   8.841  1.4965  0.7964 -1.3262
  453MOL0     H62495  10.889   8.121   8.845 -0.9972 -0.6926 -0.0545
  453MOL0     H62496  10.647   8.405   8.909  1.1325  2.1095 -0.3034
  453MOL0     H62497  10.430   8.539   8.894  0.8216 -2.4184 -0.0974
  453MOL0     H62498   8.868   8.914   8.292  1.4617 -1.3142  2.5875
  453MOL0     H62499   8.639   8.862   8.360 -0.3745  1.0503 -1.7120
  453MOL0     H62500   8.296   8.840   8.488 -0.2455 -1.0367  0.9412
  453MOL0     H62501   8.050   8.838   8.487  0.5549 -1.3883  0.0878
  453MOL0     H62502   7.738   8.941   8.544  0.1773 -0.6907 -0.3603
  453MOL0     H62503   7.848   8.798   8.558  3.0147  1.3430  0.3754
  453MOL0     H62504   7.750   8.716   8.750 -2.4357 -0.8655  1.1274
  453MOL0     H62505   7.621   8.767   8.653  0.7125  0.5049 -1.0963
  453MOL0     H62506   7.742   8.905   8.901  0.3648 -0.2846 -1.0714
  453MOL0     H62507   7.628   8.992   8.793 -1.8132  0.2536  1.3142
  453MOL0     H62508   7.495   8.754   8.847  2.8027  0.1727 -1.2332
  453MOL0     H62509   7.448   8.915   8.898 -0.5110 -1.1991  0.6026
  453MOL0     H62510   7.602   8.762   9.259 -1.6060  0.2522  1.2237
  453MOL0     H62511   8.033   9.008   8.877  0.1957 -0.6421 -0.5359
  453MOL0     H62512   8.369   9.007   8.932 -1.6517 -2.4534 -2.9331
  453MOL0     H62513   8.346   9.173   8.874 -0.1960  0.4587  0.7790
  453MOL0     H62514   8.215   9.102   8.962 -1.0328  0.7163  0.0701
  454MOL0     O62515   7.302   8.950  10.096 -0.0167 -0.2320 -0.3797
  454MOL0     C62516   7.188   8.991  10.119 -0.1842  0.0007  0.1467
  454MOL0     O62517   7.128   9.094  10.057  0.0528 -0.4212  0.0498
  454MOL0     C62518   7.168   9.146   9.931 -1.1678  0.7446  0.3554
  454MOL0     C62519   7.081   9.209   9.851 -0.2885 -0.2488 -0.7781
  454MOL0     C62520   7.121   9.278   9.737 -0.7616  0.2907  0.2405
  454MOL0     C62521   7.258   9.299   9.706 -0.1956  0.4269 -0.3833
  454MOL0     O62522   7.312   9.350   9.588 -0.5376  0.2083 -0.1306
  454MOL0     C62523   7.224   9.377   9.477  0.9984  0.3023  0.7357
  454MOL0     C62524   7.290   9.379   9.340 -0.6825  0.5981  1.4069
  454MOL0     C62525   7.372   9.511   9.327 -0.1308 -0.2577  0.4622
  454MOL0     C62526   7.294   9.649   9.328  0.0988  0.1678  0.3525
  454MOL0     C62527   7.200   9.649   9.209  0.3483  0.4438 -0.9396
  454MOL0     C62528   7.172   9.793   9.163  0.4739  0.8260  0.3065
  454MOL0     C62529   7.096   9.803   9.031  0.0903 -0.1004 -0.3402
  454MOL0     C62530   6.945   9.782   9.040  0.4998  0.1144 -0.0735
  454MOL0     N62531   6.887   9.756   8.905 -0.7877  0.2857  0.0877
  454MOL0     C62532   6.904   9.649   8.815  0.3828  0.5663 -0.0087
  454MOL0     C62533   6.835   9.675   8.707 -0.2225 -0.3382  0.4370
  454MOL0     C62534   6.806   9.594   8.591  0.4386  0.0498 -0.5131
  454MOL0     C62535   6.655   9.549   8.596  0.9343  0.1834 -0.1137
  454MOL0     C62536   6.618   9.473   8.466 -0.4623  0.3571 -0.8187
  454MOL0     C62537   6.478   9.422   8.467  0.5348  0.0325 -0.4825
  454MOL0     O62538   6.383   9.493   8.379 -0.1891  0.2746  0.1401
  454MOL0     C62539   6.256   9.431   8.359  0.1280  0.1124 -0.5035
  454MOL0     C62540   6.148   9.497   8.289 -0.0309  0.8164 -1.2741
  454MOL0     C62541   6.018   9.444   8.272  0.4703  0.3537 -1.5042
  454MOL0     C62542   5.921   9.526   8.195 -0.4354 -0.0595  0.2740
  454MOL0     C62543   5.992   9.312   8.327  0.1502 -0.3670  0.5644
  454MOL0     C62544   5.858   9.249   8.332  1.0989 -0.8688  0.6756
  454MOL0     O62545   5.749   9.312   8.273 -0.0934  1.0748  0.5911
  454MOL0     C62546   5.613   9.276   8.287 -0.5244 -0.6915 -0.0156
  454MOL0     C62547   5.521   9.339   8.197 -0.0556 -0.3071 -0.3303
  454MOL0     C62548   5.385   9.316   8.205 -0.6356 -0.0927  0.1251
  454MOL0     C62549   5.328   9.235   8.299 -0.3586  0.5587 -0.4990
  454MOL0     O62550   5.194   9.216   8.314  0.5830  0.4521 -0.5805
  454MOL0     C62551   5.127   9.242   8.192  0.2155  0.4996 -0.5606
  454MOL0     C62552   4.991   9.172   8.199  0.6595  0.0381  0.2826
  454MOL0     C62553   4.912   9.192   8.071 -0.1842  0.4665  0.5110
  454MOL0     C62554   4.792   9.092   8.071 -0.1858  0.3269  0.5787
  454MOL0     C62555   4.730   9.078   7.925  0.4411  0.8230  0.1489
  454MOL0     C62556   4.709   9.216   7.852  0.4271 -0.5072 -0.4467
  454MOL0     C62557   4.643   9.182   7.712 -0.2087 -0.5337  0.0832
  454MOL0     C62558   4.637   9.306   7.628 -0.0504 -0.2935  0.3046
  454MOL0    Cl62559   4.539   9.284   7.473  0.2334  0.2516  0.3419
  454MOL0     C62560   5.412   9.174   8.389 -0.3315  0.0735 -0.5270
  454MOL0     C62561   5.554   9.189   8.382 -0.1830  0.6951  0.4479
  454MOL0     O62562   5.852   9.143   8.395 -0.8643 -0.1944  0.4736
  454MOL0     C62563   6.101   9.244   8.383 -0.7919  1.1162  0.6894
  454MOL0     C62564   6.226   9.296   8.403 -0.2484 -0.8477  0.0691
  454MOL0     N62565   6.794   9.800   8.724 -0.6335 -0.8237  0.1199
  454MOL0     N62566   6.834   9.853   8.831  0.4709  0.1025  0.3622
  454MOL0     C62567   7.344   9.240   9.795 -0.8218  0.7613 -0.1530
  454MOL0     C62568   7.307   9.161   9.901  0.2080 -0.6003 -0.4255
  454MOL0     C62569   7.108   8.928  10.223 -0.5907 -0.5534 -0.0495
  454MOL0     C62570   6.972   8.974  10.231 -0.1084  0.1439 -0.0943
  454MOL0     C62571   6.886   8.915  10.321 -0.0115  1.0515 -0.3671
  454MOL0     C62572   6.933   8.823  10.419 -0.1697 -0.7131  0.9017
  454MOL0     O62573   6.861   8.762  10.521 -0.3142  0.2405  0.4370
  454MOL0     C62574   6.715   8.771  10.513  0.2709 -0.0328  0.3992
  454MOL0     C62575   6.652   8.693  10.632 -0.1313  0.1161  0.0818
  454MOL0     C62576   6.730   8.564  10.651  0.6569  0.1943 -0.1328
  454MOL0     C62577   6.661   8.469  10.742 -0.4720 -0.0828 -0.7566
  454MOL0     C62578   6.750   8.375  10.808 -0.3148 -0.6451  0.4980
  454MOL0     C62579   6.811   8.286  10.864 -0.2798 -0.4245  0.2764
  454MOL0     C62580   7.068   8.789  10.418  0.4115 -0.4166  0.2439
  454MOL0     C62581   7.155   8.839  10.321  0.2283 -0.9898  0.6463
  454MOL0     C62582   7.298   8.792  10.333 -0.3723 -1.1621  0.2107
  454MOL0     H62583   6.976   9.226   9.872  0.2304  4.1784 -0.9876
  454MOL0     H62584   7.056   9.315   9.658 -0.5506  2.5081  1.0166
  454MOL0     H62585   7.186   9.478   9.495  1.8301  1.1306 -1.7137
  454MOL0     H62586   7.138   9.311   9.463  0.3591  1.1754  0.5232
  454MOL0     H62587   7.350   9.288   9.329 -2.0640 -0.0787 -1.3920
  454MOL0     H62588   7.222   9.370   9.255  1.9486 -0.3579 -0.7769
  454MOL0     H62589   7.445   9.512   9.409  0.1893 -0.7536  0.1930
  454MOL0     H62590   7.426   9.503   9.232  0.8377  1.2544  0.8512
  454MOL0     H62591   7.227   9.642   9.415 -1.1471  0.0689 -0.5870
  454MOL0     H62592   7.355   9.740   9.326 -1.3250  1.1632  0.7081
  454MOL0     H62593   7.113   9.589   9.238  0.4864 -1.3042 -3.8465
  454MOL0     H62594   7.249   9.599   9.125 -1.4782  0.5239 -2.0940
  454MOL0     H62595   7.126   9.841   9.250  0.0254 -0.6647  0.9062
  454MOL0     H62596   7.268   9.843   9.149  1.1465 -0.9392 -2.0819
  454MOL0     H62597   7.134   9.716   8.977 -0.1330 -1.5742  1.7340
  454MOL0     H62598   7.119   9.894   8.975  0.0457 -0.9370 -1.7785
  454MOL0     H62599   6.921   9.694   9.100 -0.7205 -0.5235 -1.4428
  454MOL0     H62600   6.906   9.872   9.088  3.9488  1.8286 -0.1937
  454MOL0     H62601   6.951   9.555   8.843 -0.8972  0.1050  0.6893
  454MOL0     H62602   6.879   9.512   8.594 -0.8508 -1.1276  2.0996
  454MOL0     H62603   6.825   9.659   8.506  0.3020  0.3352 -0.3258
  454MOL0     H62604   6.643   9.484   8.682 -1.9102  1.1269  0.2908
  454MOL0     H62605   6.585   9.633   8.607 -0.4423 -0.4886 -2.7836
  454MOL0     H62606   6.630   9.536   8.377  0.5506 -0.0942 -1.0108
  454MOL0     H62607   6.692   9.394   8.454 -1.9025 -0.9819 -1.1861
  454MOL0     H62608   6.497   9.325   8.421  1.6089  0.0695 -0.1276
  454MOL0     H62609   6.436   9.396   8.565  0.3551 -1.8242 -1.0093
  454MOL0     H62610   6.175   9.598   8.261  2.4507  0.8711  0.9499
  454MOL0     H62611   5.976   9.617   8.167 -0.3416 -0.2532 -0.1793
  454MOL0     H62612   5.835   9.556   8.255 -1.5864 -0.9925 -0.8730
  454MOL0     H62613   5.876   9.483   8.106  0.1833  0.2892 -0.2126
  454MOL0     H62614   5.560   9.414   8.129  1.0110  0.0634  0.6559
  454MOL0     H62615   5.334   9.383   8.136 -2.2943 -2.2652 -0.8696
  454MOL0     H62616   5.114   9.350   8.183  0.1835  0.5212 -0.2494
  454MOL0     H62617   5.178   9.204   8.103  0.9847 -1.1479  0.5412
  454MOL0     H62618   5.006   9.068   8.230  0.3439 -0.4408 -1.1034
  454MOL0     H62619   4.936   9.220   8.281 -0.3092  1.1758 -0.9879
  454MOL0     H62620   4.971   9.156   7.986 -1.6475 -0.7215 -0.0431
  454MOL0     H62621   4.887   9.298   8.063 -0.0799  0.5502  1.2309
  454MOL0     H62622   4.718   9.120   8.147  0.8737 -0.6762  2.0492
  454MOL0     H62623   4.828   8.991   8.098 -1.5957 -0.5805 -0.7906
  454MOL0     H62624   4.800   9.021   7.863 -0.8336 -0.3452 -0.2527
  454MOL0     H62625   4.632   9.031   7.936  1.8784 -1.9681  2.4850
  454MOL0     H62626   4.802   9.271   7.840 -0.5854  1.4226  0.1719
  454MOL0     H62627   4.639   9.281   7.906  2.1233  2.8237 -1.9955
  454MOL0     H62628   4.545   9.134   7.716  0.4979 -2.0149  0.3187
  454MOL0     H62629   4.705   9.109   7.659 -2.1625 -4.0551  2.2558
  454MOL0     H62630   4.739   9.337   7.604  0.6123 -1.6168  1.2712
  454MOL0     H62631   4.579   9.384   7.678 -0.8552 -1.3221  1.0118
  454MOL0     H62632   5.360   9.118   8.466  1.0656 -2.4881 -1.3236
  454MOL0     H62633   5.623   9.134   8.446 -0.3621 -0.8092 -0.5988
  454MOL0     H62634   6.092   9.137   8.398  2.3303  0.6754  0.1697
  454MOL0     H62635   6.301   9.236   8.456  1.3728 -1.1246 -2.3702
  454MOL0     H62636   7.450   9.241   9.771 -0.1313  0.2771  2.5591
  454MOL0     H62637   7.387   9.118   9.960  1.4830  3.1838  0.8894
  454MOL0     H62638   6.925   9.037  10.157  1.2934  0.8180 -0.4439
  454MOL0     H62639   6.782   8.923  10.292  0.4709 -0.5108 -2.8003
  454MOL0     H62640   6.687   8.876  10.520  3.0589  0.7251  1.8363
  454MOL0     H62641   6.675   8.731  10.419 -1.6734 -1.4586  1.7503
  454MOL0     H62642   6.547   8.668  10.611  0.2709 -0.4185 -1.4023
  454MOL0     H62643   6.651   8.746  10.728  1.0745  0.9441 -0.3460
  454MOL0     H62644   6.745   8.523  10.551  0.7860  0.4072 -0.2013
  454MOL0     H62645   6.829   8.579  10.696  0.0434 -1.0005  1.7463
  454MOL0     H62646   6.575   8.414  10.701  0.8646 -2.0056 -1.1109
  454MOL0     H62647   6.624   8.533  10.822  2.1515  0.1642  0.3460
  454MOL0     H62648   6.873   8.217  10.917  1.6952  0.4752 -0.7733
  454MOL0     H62649   7.100   8.728  10.502 -1.6087 -1.4599  0.3418
  454MOL0     H62650   7.327   8.730  10.248  1.0187  1.4944 -1.3865
  454MOL0     H62651   7.359   8.883  10.336 -1.5998 -0.3024  0.0195
  454MOL0     H62652   7.328   8.750  10.430  0.5657  1.8180  1.3228
  455MOL0     O62653   3.958   0.758   5.433  0.1876 -0.3372 -0.5123
  455MOL0     C62654   3.853   0.804   5.483  0.1266  0.5723 -1.3457
  455MOL0     O62655   3.850   0.912   5.563  0.1812  1.3165  0.9116
  455MOL0     C62656   3.972   0.981   5.580  0.5894 -1.1475 -0.2214
  455MOL0     C62657   4.012   1.013   5.709  0.8409 -0.0476  0.7927
  455MOL0     C62658   4.108   1.110   5.734 -0.2153  0.1769  0.3644
  455MOL0     C62659   4.183   1.158   5.630 -0.1709  0.1119  0.0610
  455MOL0     O62660   4.275   1.259   5.651  0.0206  1.0034  0.0281
  455MOL0     C62661   4.397   1.244   5.574  0.0003  0.2061  0.1134
  455MOL0     C62662   4.504   1.324   5.650  0.2659  0.4181  0.0544
  455MOL0     C62663   4.643   1.294   5.600  0.6556 -0.5464  0.2519
  455MOL0     C62664   4.747   1.398   5.649  0.0080  0.2879  0.5446
  455MOL0     C62665   4.894   1.387   5.583  0.1270 -0.1818 -1.4298
  455MOL0     C62666   4.968   1.252   5.608 -0.2191  1.1590 -0.4144
  455MOL0     C62667   5.098   1.250   5.521  0.2261  0.3348 -0.2484
  455MOL0     C62668   5.213   1.334   5.588 -0.2638 -0.2396 -0.1138
  455MOL0     N62669   5.331   1.320   5.507 -0.3668  0.0983  0.6208
  455MOL0     C62670   5.369   1.212   5.437  0.0620  0.4621 -0.1752
  455MOL0     C62671   5.483   1.246   5.364  0.0492  0.1819  0.2600
  455MOL0     C62672   5.569   1.161   5.278  0.0516 -0.2574  0.2020
  455MOL0     C62673   5.681   1.100   5.363  0.1897 -0.3875  0.2481
  455MOL0     C62674   5.752   0.983   5.284 -0.2125  0.2565 -0.1819
  455MOL0     C62675   5.890   0.964   5.340 -0.2389 -0.7010  0.0172
  455MOL0     O62676   5.883   0.922   5.476 -0.3697  0.4572  0.0021
  455MOL0     C62677   6.004   0.893   5.533  0.1636 -0.1467  0.2271
  455MOL0     C62678   6.134   0.877   5.466  0.0742 -0.3080 -0.4111
  455MOL0     C62679   6.254   0.861   5.538 -0.9355  0.9590 -0.5052
  455MOL0     C62680   6.383   0.877   5.460  0.3923 -0.2110  0.2041
  455MOL0     C62681   6.250   0.854   5.682 -0.3140 -0.2357  0.1415
  455MOL0     C62682   6.372   0.848   5.772  0.2026  0.2595 -0.5193
  455MOL0     O62683   6.348   0.891   5.905 -0.9806 -0.4580  0.1831
  455MOL0     C62684   6.465   0.913   5.983  0.3902  0.5576  0.7873
  455MOL0     C62685   6.570   0.990   5.935 -0.5913  0.2363  0.0347
  455MOL0     C62686   6.677   1.002   6.022 -0.4254 -1.0038  0.7890
  455MOL0     C62687   6.682   0.946   6.146 -0.2788 -0.2405  0.2809
  455MOL0     O62688   6.801   0.971   6.217  0.4086  0.1010  0.2780
  455MOL0     C62689   6.822   0.917   6.346  0.6719  0.2466  0.0960
  455MOL0     C62690   6.959   0.962   6.400 -0.5089  0.5176  0.0668
  455MOL0     C62691   7.064   0.957   6.298 -1.0170 -0.7703  0.1567
  455MOL0     C62692   7.202   0.984   6.357  0.6965  0.3603  0.2794
  455MOL0     C62693   7.316   0.933   6.276  0.2668 -0.0795  0.4773
  455MOL0     C62694   7.447   1.002   6.315 -0.5035 -0.5292  0.1509
  455MOL0     C62695   7.536   0.914   6.405  0.0108  0.3265  0.0442
  455MOL0     C62696   7.651   0.982   6.465 -0.2499 -0.3561 -0.1161
  455MOL0    Cl62697   7.670   0.947   6.650  0.2270 -0.1199  0.3075
  455MOL0     C62698   6.574   0.877   6.198 -0.5496 -0.3082 -0.0310
  455MOL0     C62699   6.469   0.851   6.109 -0.4286  0.0235 -0.4733
  455MOL0     O62700   6.472   0.788   5.738 -0.6041 -0.3810  0.0152
  455MOL0     C62701   6.121   0.858   5.745  0.5062  0.1125  0.1933
  455MOL0     C62702   6.002   0.878   5.670  0.4159 -0.0454  0.8616
  455MOL0     N62703   5.486   1.386   5.365 -0.6982 -0.2663  0.2229
  455MOL0     N62704   5.390   1.423   5.442  0.3645 -0.4724 -0.3229
  455MOL0     C62705   4.144   1.132   5.502  0.0302  0.4605  0.1377
  455MOL0     C62706   4.038   1.043   5.479 -0.2562 -0.2549 -0.0202
  455MOL0     C62707   3.721   0.733   5.463  1.4930  0.5449 -0.3740
  455MOL0     C62708   3.615   0.768   5.550  0.4422 -0.4016 -0.3512
  455MOL0     C62709   3.493   0.699   5.555 -0.8948  1.1581  0.1257
  455MOL0     C62710   3.470   0.598   5.465 -0.1277  0.9807  0.5583
  455MOL0     O62711   3.350   0.533   5.441 -0.0400  0.5631  0.2446
  455MOL0     C62712   3.238   0.572   5.518  0.0448 -0.3530 -0.2992
  455MOL0     C62713   3.120   0.475   5.491 -1.0729  0.3920  0.4482
  455MOL0     C62714   2.996   0.543   5.531  0.7252  0.6446  0.0879
  455MOL0     C62715   2.873   0.457   5.506 -0.1337 -0.4515  0.4929
  455MOL0     C62716   2.846   0.442   5.361  0.4755 -0.1072  1.0690
  455MOL0     C62717   2.843   0.447   5.239 -0.1743 -0.0962 -0.1145
  455MOL0     C62718   3.577   0.555   5.376  0.2273 -0.4032 -0.6522
  455MOL0     C62719   3.691   0.621   5.371 -0.3092  0.0669 -0.1895
  455MOL0     C62720   3.790   0.583   5.259  0.0807  0.5466 -0.0142
  455MOL0     H62721   3.962   0.964   5.792 -0.1496 -0.6979 -0.1601
  455MOL0     H62722   4.139   1.150   5.830 -0.4389 -1.0799  0.9907
  455MOL0     H62723   4.381   1.298   5.481 -4.0411 -0.7002  0.0850
  455MOL0     H62724   4.423   1.138   5.564  0.3291  0.0879  1.8136
  455MOL0     H62725   4.484   1.431   5.642  1.4316  0.6553  0.0478
  455MOL0     H62726   4.509   1.306   5.758  0.1565 -0.2858 -0.0556
  455MOL0     H62727   4.668   1.195   5.641  1.4487 -0.8764 -0.9945
  455MOL0     H62728   4.639   1.293   5.491  0.7538  1.4687  0.2022
  455MOL0     H62729   4.709   1.500   5.638  1.7145  1.2352  2.6917
  455MOL0     H62730   4.746   1.388   5.758  2.5570  2.8552  0.9457
  455MOL0     H62731   4.961   1.466   5.618 -1.5879  0.4510  0.6412
  455MOL0     H62732   4.881   1.390   5.474  1.5109  0.5233 -1.5971
  455MOL0     H62733   4.982   1.233   5.714 -1.2635 -0.3251 -0.4986
  455MOL0     H62734   4.900   1.174   5.570 -1.3237  3.9476 -4.8940
  455MOL0     H62735   5.086   1.280   5.417  1.3957  1.2236 -0.1469
  455MOL0     H62736   5.116   1.142   5.526 -2.5665 -0.2061 -0.1898
  455MOL0     H62737   5.185   1.440   5.587 -2.0202 -0.6635  0.0801
  455MOL0     H62738   5.238   1.290   5.685  2.3107  1.1879 -0.0295
  455MOL0     H62739   5.331   1.111   5.444 -0.0324  0.5093  0.0105
  455MOL0     H62740   5.606   1.224   5.196 -0.6734  1.3493  1.0557
  455MOL0     H62741   5.512   1.072   5.251 -3.5320  1.8950  0.1127
  455MOL0     H62742   5.749   1.180   5.395 -0.6810  0.7302 -0.6208
  455MOL0     H62743   5.628   1.050   5.444 -2.4775  1.2506 -0.3426
  455MOL0     H62744   5.696   0.889   5.287  1.7077 -0.9749 -0.9406
  455MOL0     H62745   5.767   1.016   5.180 -0.5956 -0.6782 -0.5478
  455MOL0     H62746   5.930   0.887   5.274 -1.6889 -1.2595 -0.2519
  455MOL0     H62747   5.947   1.057   5.336 -1.5216  0.1252  0.4975
  455MOL0     H62748   6.141   0.909   5.363 -3.5244 -0.2964 -0.7903
  455MOL0     H62749   6.446   0.788   5.471  0.5970 -0.1035 -0.0855
  455MOL0     H62750   6.430   0.971   5.490 -1.4324  1.8044 -2.7617
  455MOL0     H62751   6.354   0.872   5.355 -1.5253  0.0465  0.6791
  455MOL0     H62752   6.567   1.042   5.840  3.1194  0.7018  0.0497
  455MOL0     H62753   6.763   1.063   5.996 -2.0889  2.7004  3.1595
  455MOL0     H62754   6.750   0.955   6.419  0.8983  2.9748 -1.0033
  455MOL0     H62755   6.826   0.808   6.350 -1.4766  0.1687  2.6126
  455MOL0     H62756   6.955   1.066   6.434  5.1215  0.0999  3.2973
  455MOL0     H62757   6.994   0.901   6.484 -0.4552  0.2584 -0.1399
  455MOL0     H62758   7.040   1.020   6.212 -1.4169 -0.2409  0.6549
  455MOL0     H62759   7.073   0.858   6.251 -1.6274 -0.0517 -1.5528
  455MOL0     H62760   7.210   0.935   6.454 -2.6387 -0.5356  0.2141
  455MOL0     H62761   7.200   1.092   6.374  0.8322  0.0611  2.4978
  455MOL0     H62762   7.319   0.824   6.264  0.4939 -0.1315  0.9697
  455MOL0     H62763   7.287   0.969   6.178  0.5133 -2.6038 -0.5944
  455MOL0     H62764   7.432   1.103   6.354  0.3088 -0.4708  0.3194
  455MOL0     H62765   7.506   1.016   6.223 -0.6352 -3.1967 -0.4274
  455MOL0     H62766   7.579   0.832   6.348 -1.6286  0.4772 -1.5094
  455MOL0     H62767   7.468   0.865   6.475  0.5115 -0.5137 -0.0537
  455MOL0     H62768   7.628   1.088   6.453 -1.1198 -0.7442 -2.3871
  455MOL0     H62769   7.738   0.949   6.407 -1.5312  0.0646 -2.4310
  455MOL0     H62770   6.576   0.824   6.292  0.3113 -1.5580 -0.7112
  455MOL0     H62771   6.388   0.788   6.144 -0.0076 -0.1581  0.2025
  455MOL0     H62772   6.126   0.847   5.853 -0.2212  1.0740  0.3417
  455MOL0     H62773   5.920   0.876   5.741 -0.9228 -2.9488 -0.5958
  455MOL0     H62774   4.196   1.175   5.417  1.4706  2.7945  2.0805
  455MOL0     H62775   4.001   1.012   5.381 -1.3305 -2.1260  0.9159
  455MOL0     H62776   3.623   0.849   5.623 -2.6617 -0.3076  0.0099
  455MOL0     H62777   3.415   0.722   5.627 -0.2104  3.6707  0.1621
  455MOL0     H62778   3.258   0.556   5.625 -3.6356  0.8366  0.7404
  455MOL0     H62779   3.219   0.678   5.498  1.6071 -0.2299 -1.2715
  455MOL0     H62780   3.129   0.384   5.551 -1.9023 -0.5876 -0.8392
  455MOL0     H62781   3.121   0.449   5.385 -2.3975  0.2362  0.4540
  455MOL0     H62782   2.993   0.554   5.639 -2.9941  2.2012 -0.0249
  455MOL0     H62783   2.975   0.641   5.486 -0.7150  0.8325  1.0923
  455MOL0     H62784   2.788   0.496   5.562 -1.5206 -3.3206  0.5187
  455MOL0     H62785   2.892   0.356   5.542  4.3972  0.2641  0.7639
  455MOL0     H62786   2.828   0.449   5.133 -1.5358  0.5690  0.0758
  455MOL0     H62787   3.558   0.484   5.296  0.1338  0.6285 -1.5852
  455MOL0     H62788   3.865   0.516   5.303 -0.0317  2.1111  2.8365
  455MOL0     H62789   3.737   0.536   5.176 -0.3120  0.8737  0.0523
  455MOL0     H62790   3.838   0.669   5.211  0.6498 -1.7617 -4.0863
  456MOL0     O62791   9.903   9.039   2.399  0.2170  0.9926  0.1846
  456MOL0     C62792  10.018   9.002   2.367  0.8686  0.7836 -0.1430
  456MOL0     O62793  10.074   8.883   2.408  0.0788 -0.0296  0.3452
  456MOL0     C62794  10.009   8.774   2.450  1.3038 -0.5456 -0.6379
  456MOL0     C62795   9.873   8.747   2.421 -0.3519 -0.2263 -0.1243
  456MOL0     C62796   9.809   8.648   2.497 -0.2402 -0.0559 -0.0601
  456MOL0     C62797   9.886   8.553   2.569  0.2427 -0.5048  0.1483
  456MOL0     O62798   9.813   8.457   2.635  0.1417 -0.2261 -0.5495
  456MOL0     C62799   9.836   8.447   2.778 -1.4139 -0.3541  0.3647
  456MOL0     C62800   9.731   8.535   2.853  0.2271 -0.3984  0.1944
  456MOL0     C62801   9.731   8.531   3.003  0.1001 -0.0234 -0.0160
  456MOL0     C62802   9.628   8.629   3.061 -0.5755 -0.2065  0.1300
  456MOL0     C62803   9.640   8.637   3.211 -0.5978  0.3489  1.2150
  456MOL0     C62804   9.548   8.748   3.263  0.3090  0.0411  0.2585
  456MOL0     C62805   9.575   8.779   3.406 -0.1563 -0.8491  0.3634
  456MOL0     C62806   9.481   8.896   3.443  1.0706 -0.0992 -0.7792
  456MOL0     N62807   9.540   9.033   3.425 -0.5183 -0.4513  0.1187
  456MOL0     C62808   9.669   9.082   3.460 -0.9029 -0.1513  0.3749
  456MOL0     C62809   9.664   9.213   3.481  0.0077  0.2103  0.6057
  456MOL0     C62810   9.780   9.292   3.535  0.5815  0.0520  0.6340
  456MOL0     C62811   9.894   9.271   3.437 -0.1745  0.1716  0.5375
  456MOL0     C62812  10.018   9.359   3.476 -0.4614  0.7542  0.1844
  456MOL0     C62813  10.107   9.309   3.588  0.2690  0.3451 -0.1775
  456MOL0     O62814  10.215   9.406   3.622  0.0358  0.8257 -0.2181
  456MOL0     C62815  10.331   9.350   3.674 -0.0145 -0.1796  0.5043
  456MOL0     C62816  10.443   9.394   3.597  0.2964 -0.3956  0.2868
  456MOL0     C62817  10.564   9.365   3.654 -0.4828  0.0021 -0.2979
  456MOL0     C62818  10.685   9.428   3.590  0.8301  0.4261  0.2266
  456MOL0     C62819  10.577   9.296   3.782  0.5876 -0.6989 -0.5249
  456MOL0     C62820  10.704   9.276   3.858  0.5401  0.0819  0.4039
  456MOL0     O62821  10.824   9.292   3.787  0.7863 -0.1470 -0.3095
  456MOL0     C62822  10.941   9.260   3.853 -0.0418  0.1819  0.2945
  456MOL0     C62823  10.974   9.139   3.909 -0.3025  0.2769  0.4276
  456MOL0     C62824  11.098   9.111   3.966  0.2545 -0.0935 -0.1952
  456MOL0     C62825  11.196   9.211   3.974  0.2059 -0.3328 -0.0847
  456MOL0     O62826  11.322   9.201   4.030  0.2942 -0.1759  0.0888
  456MOL0     C62827  11.361   9.080   4.096  0.6282 -0.7559 -0.2284
  456MOL0     C62828  11.277   9.069   4.229 -0.2200  0.4911  0.2810
  456MOL0     C62829  11.330   8.963   4.320 -0.3430  0.5795  0.0541
  456MOL0     C62830  11.293   8.816   4.284 -0.5239 -0.3724 -0.1508
  456MOL0     C62831  11.142   8.785   4.266  0.4439 -0.7975 -0.9691
  456MOL0     C62832  11.107   8.637   4.277  1.1131  0.1016  0.0402
  456MOL0     C62833  11.049   8.574   4.400  0.3722 -0.3852 -0.2626
  456MOL0     C62834  11.108   8.437   4.435 -0.3199 -0.2695  0.2799
  456MOL0    Cl62835  11.017   8.345   4.568 -0.0201  0.0195 -0.1327
  456MOL0     C62836  11.162   9.337   3.914  0.1855  0.6277 -0.2192
  456MOL0     C62837  11.038   9.363   3.854 -0.6158  0.4413 -0.4830
  456MOL0     O62838  10.693   9.230   3.971  0.0288  0.6288  0.9893
  456MOL0     C62839  10.455   9.251   3.844  0.8428 -0.1137  0.8475
  456MOL0     C62840  10.333   9.282   3.792  0.6998 -0.1800  0.1199
  456MOL0     N62841   9.533   9.252   3.442  0.0804  0.1245  0.4379
  456MOL0     N62842   9.467   9.143   3.413  0.6152  0.0627 -0.3352
  456MOL0     C62843  10.022   8.568   2.582  0.4963  0.4208 -0.4097
  456MOL0     C62844  10.086   8.680   2.529  0.6448 -0.5545 -0.1774
  456MOL0     C62845  10.102   9.092   2.281  0.3462 -0.4011 -1.3748
  456MOL0     C62846  10.239   9.061   2.265 -0.1888 -0.4386  0.3571
  456MOL0     C62847  10.322   9.147   2.187 -0.2669  0.0945  0.2845
  456MOL0     C62848  10.269   9.260   2.123  0.2482  0.7054 -0.3183
  456MOL0     O62849  10.343   9.345   2.043  0.3108  0.2659  0.1717
  456MOL0     C62850  10.489   9.350   2.047  0.9030 -0.1991 -0.8564
  456MOL0     C62851  10.543   9.433   2.167 -0.0326 -0.2772  0.9034
  456MOL0     C62852  10.471   9.575   2.161  0.0379  0.0697  1.3791
  456MOL0     C62853  10.533   9.669   2.058 -1.0437  0.5011 -0.0615
  456MOL0     C62854  10.661   9.719   2.105 -0.6195 -0.6922  0.1203
  456MOL0     C62855  10.777   9.753   2.132 -0.1541 -0.3611 -0.4596
  456MOL0     C62856  10.140   9.290   2.138  0.4537 -0.4959  0.2541
  456MOL0     C62857  10.055   9.215   2.221  0.1709  0.0264 -0.4976
  456MOL0     C62858   9.908   9.250   2.221 -0.4816  0.6995  0.2023
  456MOL0     H62859   9.823   8.818   2.356  1.9387  1.4138 -0.2206
  456MOL0     H62860   9.701   8.640   2.484 -1.0024  5.2405  0.6730
  456MOL0     H62861   9.935   8.485   2.807  0.9069 -3.9910 -1.8639
  456MOL0     H62862   9.824   8.341   2.803 -0.1920  0.0229  2.8995
  456MOL0     H62863   9.750   8.638   2.822  1.4773 -0.7736 -0.3365
  456MOL0     H62864   9.627   8.509   2.831  0.2276 -0.0809 -0.1910
  456MOL0     H62865   9.707   8.432   3.043  1.0792  1.2647  4.2081
  456MOL0     H62866   9.834   8.556   3.027 -0.2283 -0.2018  1.7403
  456MOL0     H62867   9.647   8.726   3.013 -3.4152  0.3060 -0.0931
  456MOL0     H62868   9.526   8.595   3.042 -1.1415  1.0037  0.8381
  456MOL0     H62869   9.746   8.640   3.236  0.3712  0.3690 -2.3653
  456MOL0     H62870   9.607   8.539   3.247 -0.1726 -0.5174 -0.6515
  456MOL0     H62871   9.554   8.839   3.202 -1.1184  0.8372  1.2453
  456MOL0     H62872   9.444   8.714   3.261  0.8523 -1.7581  0.2981
  456MOL0     H62873   9.681   8.798   3.426 -0.0163 -1.4442  0.2284
  456MOL0     H62874   9.550   8.694   3.471 -1.5889 -0.1092  0.8145
  456MOL0     H62875   9.388   8.875   3.390 -0.8378 -1.7567  2.8780
  456MOL0     H62876   9.455   8.880   3.548 -0.2513  1.0082 -0.9071
  456MOL0     H62877   9.758   9.022   3.478 -1.1435 -0.2351  1.3444
  456MOL0     H62878   9.824   9.255   3.628  0.8198 -1.5784 -0.0987
  456MOL0     H62879   9.749   9.396   3.552 -1.0780  0.2769 -2.8987
  456MOL0     H62880   9.930   9.168   3.434  2.4439  0.8577  3.3149
  456MOL0     H62881   9.863   9.282   3.333  0.9270 -0.9709  0.0567
  456MOL0     H62882  10.088   9.372   3.394  0.3402 -0.7917  0.5752
  456MOL0     H62883   9.973   9.457   3.493  0.0169  1.0662 -0.3395
  456MOL0     H62884  10.045   9.286   3.675 -0.5195  0.0860 -0.7994
  456MOL0     H62885  10.142   9.211   3.553 -1.1281  0.1902 -1.2260
  456MOL0     H62886  10.430   9.455   3.509  0.0681  1.3683  1.4918
  456MOL0     H62887  10.729   9.486   3.672 -0.1447  1.3069  0.1466
  456MOL0     H62888  10.673   9.493   3.503  2.2379  1.9171  1.0862
  456MOL0     H62889  10.762   9.364   3.546  1.0449  1.5932 -1.1929
  456MOL0     H62890  10.916   9.047   3.906  2.9074 -1.9484  1.6046
  456MOL0     H62891  11.112   9.010   4.003  1.1326  0.5880  1.4722
  456MOL0     H62892  11.338   8.999   4.026  2.8673  0.8866 -3.1186
  456MOL0     H62893  11.469   9.074   4.113  0.7496 -0.4765 -0.8756
  456MOL0     H62894  11.294   9.163   4.281  2.0087  0.4558 -0.2700
  456MOL0     H62895  11.169   9.052   4.225  0.2893 -3.9230  0.3464
  456MOL0     H62896  11.280   8.986   4.414  1.6380 -1.0796  1.6092
  456MOL0     H62897  11.439   8.965   4.330 -0.2654 -1.3982 -0.0018
  456MOL0     H62898  11.325   8.758   4.371  1.5215 -0.2563 -0.7760
  456MOL0     H62899  11.343   8.780   4.193 -1.5178 -1.7793 -0.1807
  456MOL0     H62900  11.086   8.849   4.336 -1.4108 -2.3921 -0.9161
  456MOL0     H62901  11.118   8.822   4.166  1.5204 -1.1429 -1.3684
  456MOL0     H62902  11.197   8.577   4.259 -0.9911 -2.7645 -1.7365
  456MOL0     H62903  11.033   8.618   4.199 -0.0738 -1.3410  1.4651
  456MOL0     H62904  10.941   8.561   4.386 -0.1969  1.3657  2.0055
  456MOL0     H62905  11.054   8.646   4.482 -2.6229 -0.9495  0.5486
  456MOL0     H62906  11.213   8.455   4.458  0.4657 -3.5563 -0.2579
  456MOL0     H62907  11.100   8.379   4.343  0.2920  0.1780 -0.0613
  456MOL0     H62908  11.238   9.415   3.918  1.9055 -0.9850 -0.0340
  456MOL0     H62909  11.016   9.466   3.827 -2.3850 -0.2856 -2.0137
  456MOL0     H62910  10.451   9.206   3.942 -0.8853 -0.7084  0.5409
  456MOL0     H62911  10.240   9.257   3.843  0.0026  1.4764 -0.3002
  456MOL0     H62912  10.080   8.491   2.632  1.2608  0.7868 -0.7146
  456MOL0     H62913  10.192   8.697   2.538  0.4147  1.2873 -0.5355
  456MOL0     H62914  10.291   8.980   2.315  1.8885  0.9502  0.5287
  456MOL0     H62915  10.428   9.128   2.178 -0.1942  0.4921  0.2973
  456MOL0     H62916  10.524   9.247   2.057 -2.3419 -1.4104 -0.8918
  456MOL0     H62917  10.535   9.377   1.952  0.8540 -1.7481 -1.3479
  456MOL0     H62918  10.651   9.438   2.157 -0.1621  0.0669 -0.6089
  456MOL0     H62919  10.520   9.381   2.261 -1.6683  1.9550  1.8453
  456MOL0     H62920  10.364   9.564   2.138  0.1066  3.2539 -1.1928
  456MOL0     H62921  10.476   9.625   2.258 -0.8869  0.7441  1.0930
  456MOL0     H62922  10.467   9.755   2.044 -0.0049  1.2147 -0.7171
  456MOL0     H62923  10.537   9.617   1.962 -1.0807  2.7589 -1.3602
  456MOL0     H62924  10.863   9.807   2.166 -1.5765 -0.1895  3.3632
  456MOL0     H62925  10.104   9.378   2.086  3.2632  0.3511 -0.4091
  456MOL0     H62926   9.858   9.182   2.152  0.1004  1.8469 -1.4251
  456MOL0     H62927   9.858   9.245   2.318 -0.3650 -1.7742  0.1954
  456MOL0     H62928   9.905   9.354   2.187  1.5355  0.9530  0.6999
  457MOL0     O62929   5.368   1.217   6.001 -0.5772  0.4955  0.5199
  457MOL0     C62930   5.369   1.129   5.912 -0.4612 -1.3628  0.0717
  457MOL0     O62931   5.474   1.091   5.837 -0.1900  0.2985  0.0214
  457MOL0     C62932   5.604   1.123   5.859 -0.7030  0.6857  0.1863
  457MOL0     C62933   5.683   1.151   5.745 -0.5279  0.5830 -0.2617
  457MOL0     C62934   5.817   1.200   5.760  0.0327  0.1524  0.0474
  457MOL0     C62935   5.875   1.198   5.889 -0.6098  0.0716  0.4558
  457MOL0     O62936   6.007   1.227   5.920 -1.0637 -0.8698  0.3006
  457MOL0     C62937   6.051   1.361   5.889 -0.0060  0.0463  0.2727
  457MOL0     C62938   6.195   1.376   5.934  0.5335 -0.4119 -0.5137
  457MOL0     C62939   6.309   1.320   5.844  0.2522 -0.3118  0.0967
  457MOL0     C62940   6.449   1.351   5.912 -0.3234  0.0157  0.6020
  457MOL0     C62941   6.541   1.404   5.806  0.3136  0.6956  0.3615
  457MOL0     C62942   6.686   1.446   5.847 -0.2354 -0.6661  0.0130
  457MOL0     C62943   6.768   1.496   5.722 -0.6492 -0.1148 -0.8275
  457MOL0     C62944   6.750   1.425   5.586 -0.6270  0.6705  0.0347
  457MOL0     N62945   6.831   1.492   5.484  0.0501 -0.2317 -0.6803
  457MOL0     C62946   6.970   1.505   5.489 -0.3511  0.8138 -0.1024
  457MOL0     C62947   7.007   1.613   5.414  0.1631  0.4562 -0.0439
  457MOL0     C62948   7.149   1.653   5.396 -0.5435 -0.0034 -0.2525
  457MOL0     C62949   7.213   1.591   5.273  0.0970 -0.3356 -0.4302
  457MOL0     C62950   7.366   1.595   5.271  0.6816  0.3892 -0.0728
  457MOL0     C62951   7.399   1.737   5.235 -0.9188  0.1657  0.8277
  457MOL0     O62952   7.549   1.754   5.259  0.1507 -0.5219 -0.7244
  457MOL0     C62953   7.640   1.696   5.177  0.8137 -0.1362  0.7808
  457MOL0     C62954   7.768   1.688   5.220  1.1556 -0.3830  0.0781
  457MOL0     C62955   7.863   1.624   5.154  0.1954  0.6010 -0.3944
  457MOL0     C62956   7.985   1.584   5.238 -0.1311  0.3244  0.7783
  457MOL0     C62957   7.841   1.570   5.027 -0.7135 -0.9717  0.3672
  457MOL0     C62958   7.950   1.506   4.942  0.0126 -0.0184 -1.4917
  457MOL0     O62959   7.909   1.421   4.843 -0.2137  0.0283 -0.7838
  457MOL0     C62960   7.994   1.388   4.742  0.1295 -0.2730  0.8566
  457MOL0     C62961   7.981   1.255   4.708  0.4457 -0.0196 -0.0830
  457MOL0     C62962   8.045   1.203   4.592 -0.0188  0.7014  0.3274
  457MOL0     C62963   8.138   1.280   4.513  0.3463 -0.5523 -0.5374
  457MOL0     O62964   8.217   1.225   4.425 -0.2709 -0.9941 -1.0220
  457MOL0     C62965   8.278   1.304   4.326  0.4902  0.7394 -0.3357
  457MOL0     C62966   8.332   1.202   4.224  0.1685  0.7989  0.1602
  457MOL0     C62967   8.237   1.106   4.141  0.4071 -0.5603  1.2868
  457MOL0     C62968   8.161   0.997   4.218 -0.1379  0.0756 -0.2682
  457MOL0     C62969   8.256   0.909   4.303 -0.3304 -1.3702  0.6007
  457MOL0     C62970   8.171   0.800   4.357  0.4838  0.4366 -0.2809
  457MOL0     C62971   8.258   0.708   4.438  0.2897  0.1718 -0.3974
  457MOL0     C62972   8.169   0.612   4.507  0.6761  0.3133  1.0449
  457MOL0    Cl62973   8.270   0.501   4.613 -0.2112 -0.0867  0.1705
  457MOL0     C62974   8.149   1.414   4.552 -0.5276 -0.6386 -0.2805
  457MOL0     C62975   8.070   1.472   4.659  0.1058  0.1924 -0.4312
  457MOL0     O62976   8.061   1.547   4.961  0.2885  0.7551 -0.3218
  457MOL0     C62977   7.712   1.577   4.969  0.1766  0.2857  0.4576
  457MOL0     C62978   7.611   1.640   5.048  0.1237 -1.0023  0.0306
  457MOL0     N62979   6.890   1.675   5.377 -0.1928  0.4594 -0.1522
  457MOL0     N62980   6.782   1.608   5.430  0.2972 -0.4457 -0.5469
  457MOL0     C62981   5.799   1.156   5.993  0.5418 -0.2094 -0.2362
  457MOL0     C62982   5.669   1.123   5.985  0.2497 -0.8211  0.0812
  457MOL0     C62983   5.243   1.047   5.894 -0.0719 -0.7801  0.0424
  457MOL0     C62984   5.235   0.973   5.776  0.0875 -0.7432  0.3319
  457MOL0     C62985   5.115   0.921   5.739  0.1301  0.6823  0.2833
  457MOL0     C62986   4.998   0.925   5.814 -1.3018  0.0514 -0.3708
  457MOL0     O62987   4.890   0.847   5.771 -0.7735 -0.1624 -0.3648
  457MOL0     C62988   4.757   0.844   5.845 -0.2644 -0.7555  0.3358
  457MOL0     C62989   4.647   0.800   5.757 -0.0271 -0.5051  0.3404
  457MOL0     C62990   4.625   0.901   5.654  0.4746 -1.0359  1.0581
  457MOL0     C62991   4.536   0.867   5.533  0.2586  0.7730 -0.0124
  457MOL0     C62992   4.394   0.826   5.555 -0.1062  0.6327 -0.2745
  457MOL0     C62993   4.283   0.787   5.573 -0.2386 -0.0054 -0.1236
  457MOL0     C62994   5.011   0.990   5.931 -0.0780 -0.5818 -1.1697
  457MOL0     C62995   5.129   1.055   5.974  0.0392  0.6171 -0.1802
  457MOL0     C62996   5.122   1.118   6.106 -0.6954 -0.5957  0.1189
  457MOL0     H62997   5.635   1.149   5.648  1.1510 -0.5511 -1.1070
  457MOL0     H62998   5.884   1.218   5.677 -0.2504 -0.9853 -0.4409
  457MOL0     H62999   5.999   1.439   5.945 -1.3865 -1.1103  0.6657
  457MOL0     H63000   6.041   1.387   5.784  1.5611  1.3614  0.4188
  457MOL0     H63001   6.219   1.483   5.941 -1.4798  0.0031  0.5689
  457MOL0     H63002   6.195   1.327   6.031 -1.5508 -0.3777 -0.4717
  457MOL0     H63003   6.293   1.213   5.824  0.0926 -0.0705 -1.1217
  457MOL0     H63004   6.289   1.362   5.745  1.4008 -1.5009 -0.6788
  457MOL0     H63005   6.432   1.418   5.997  1.5648  0.5637  0.5798
  457MOL0     H63006   6.480   1.255   5.953  2.1939  0.5036 -0.0286
  457MOL0     H63007   6.483   1.488   5.765 -1.5634 -0.8397 -0.2977
  457MOL0     H63008   6.544   1.319   5.738  2.0041 -1.8185  3.3758
  457MOL0     H63009   6.681   1.530   5.916 -0.6496 -0.3880 -0.3529
  457MOL0     H63010   6.731   1.358   5.895  0.8585  0.5432  1.2776
  457MOL0     H63011   6.872   1.491   5.756 -1.1483 -1.2728  0.6347
  457MOL0     H63012   6.738   1.600   5.707 -2.1176 -0.2420  0.8913
  457MOL0     H63013   6.779   1.320   5.593  0.2593  0.9788  1.4544
  457MOL0     H63014   6.645   1.437   5.558 -0.2466  1.9699 -0.9631
  457MOL0     H63015   7.045   1.440   5.532 -0.1693  1.8808  1.2862
  457MOL0     H63016   7.203   1.628   5.488 -1.8666 -1.4194  0.1727
  457MOL0     H63017   7.141   1.762   5.384 -0.6919  0.5692  3.7593
  457MOL0     H63018   7.182   1.488   5.293  1.0743 -0.3132  1.4584
  457MOL0     H63019   7.167   1.628   5.181 -0.2147 -1.3568 -0.6928
  457MOL0     H63020   7.405   1.571   5.370 -0.4105  0.2281  0.3384
  457MOL0     H63021   7.407   1.529   5.195 -3.3910 -0.4519 -1.7756
  457MOL0     H63022   7.379   1.761   5.131  0.9032 -0.6179  0.2455
  457MOL0     H63023   7.348   1.817   5.288 -0.4251  0.3744  1.0016
  457MOL0     H63024   7.785   1.721   5.322 -0.6942  3.5403 -0.6982
  457MOL0     H63025   7.984   1.618   5.342  1.5576 -0.8541  1.2358
  457MOL0     H63026   8.079   1.628   5.203  0.7153 -0.4334  2.0101
  457MOL0     H63027   7.991   1.475   5.245  1.6030  0.2897 -0.6459
  457MOL0     H63028   7.918   1.193   4.770 -0.1950  0.4004 -0.3032
  457MOL0     H63029   8.034   1.100   4.560  1.1022  0.7465 -0.2541
  457MOL0     H63030   8.204   1.363   4.272  0.5249  0.8327 -0.2802
  457MOL0     H63031   8.361   1.367   4.361 -0.0009  1.8872 -1.1857
  457MOL0     H63032   8.384   1.258   4.146 -0.1477 -0.5666 -1.0730
  457MOL0     H63033   8.413   1.142   4.265  0.9626  0.0615 -2.3462
  457MOL0     H63034   8.299   1.049   4.071 -2.4530 -1.5824 -0.5890
  457MOL0     H63035   8.162   1.167   4.090  1.4574 -0.8496 -0.7103
  457MOL0     H63036   8.109   0.936   4.144  0.6755  1.5219 -2.1415
  457MOL0     H63037   8.092   1.043   4.289 -1.1899 -1.7952 -0.0227
  457MOL0     H63038   8.341   0.880   4.240  0.3212  0.4893  0.5520
  457MOL0     H63039   8.294   0.976   4.381 -2.5789  0.6870  0.0751
  457MOL0     H63040   8.119   0.745   4.278 -0.8700 -0.0772  0.9109
  457MOL0     H63041   8.087   0.843   4.413  0.5051  2.4334 -1.6860
  457MOL0     H63042   8.305   0.761   4.520  0.2985 -0.9280  0.3277
  457MOL0     H63043   8.325   0.656   4.369  0.7642  1.2242 -0.7504
  457MOL0     H63044   8.123   0.548   4.430  0.7199  1.3714  0.1145
  457MOL0     H63045   8.090   0.662   4.563 -0.6250  2.6545 -2.5233
  457MOL0     H63046   8.218   1.488   4.512 -4.3148  3.9056  0.8039
  457MOL0     H63047   8.079   1.577   4.686 -2.1384  1.0507 -2.6362
  457MOL0     H63048   7.696   1.547   4.866  1.5668 -1.7706  0.7987
  457MOL0     H63049   7.516   1.660   5.001 -1.1206  0.7480  3.0373
  457MOL0     H63050   5.850   1.153   6.089  0.9247  0.6039 -0.4003
  457MOL0     H63051   5.604   1.120   6.072 -1.4219  3.8386 -0.7339
  457MOL0     H63052   5.320   0.965   5.709 -2.0236 -1.9989 -2.3700
  457MOL0     H63053   5.112   0.873   5.642 -1.1961  0.4390  0.4213
  457MOL0     H63054   4.770   0.771   5.925  3.3749 -0.7736 -0.0685
  457MOL0     H63055   4.737   0.944   5.885 -1.6809 -0.2212 -1.5604
  457MOL0     H63056   4.553   0.801   5.813 -0.1279  2.0275  0.2595
  457MOL0     H63057   4.669   0.705   5.709  0.0573  0.3629 -1.4290
  457MOL0     H63058   4.587   0.991   5.702 -1.8203 -2.2143  1.5637
  457MOL0     H63059   4.722   0.925   5.609 -0.3056  0.6588  0.1871
  457MOL0     H63060   4.586   0.782   5.485 -0.4511  0.5999 -0.4543
  457MOL0     H63061   4.536   0.954   5.466 -0.2683  3.0646  2.7876
  457MOL0     H63062   4.189   0.736   5.564 -1.1559  1.6232 -0.1822
  457MOL0     H63063   4.931   1.000   6.002  2.9684  1.4598  2.3488
  457MOL0     H63064   5.134   1.227   6.105 -3.4201 -0.2348  0.5683
  457MOL0     H63065   5.027   1.099   6.157 -0.6987  1.4258  0.9547
  457MOL0     H63066   5.194   1.074   6.177 -1.6657 -3.1128 -0.3443
  458MOL0     O63067   1.128  11.247   9.330  0.3367 -0.0153 -1.0154
  458MOL0     C63068   1.123  11.273   9.210 -0.4403 -0.0683 -0.0807
  458MOL0     O63069   1.209  11.218   9.117  0.2189 -0.0022 -0.1283
  458MOL0     C63070   1.309  11.141   9.170 -0.6585 -0.3780  0.0611
  458MOL0     C63071   1.405  11.220   9.243  0.0165 -0.0304  0.3379
  458MOL0     C63072   1.520  11.158   9.293  0.4696  0.7649  0.3402
  458MOL0     C63073   1.544  11.021   9.270  0.8338  0.5588 -1.0382
  458MOL0     O63074   1.648  10.939   9.318 -0.0567 -0.5638 -0.2321
  458MOL0     C63075   1.745  11.012   9.402 -0.4742  0.4130  0.3597
  458MOL0     C63076   1.682  11.015   9.542  0.1034 -0.5753 -0.0965
  458MOL0     C63077   1.784  11.062   9.656 -0.1425  0.0631 -0.0725
  458MOL0     C63078   1.828  10.947   9.749 -0.3973  0.4406 -0.0877
  458MOL0     C63079   1.908  10.838   9.682  0.3535  0.8839 -0.3360
  458MOL0     C63080   2.038  10.894   9.634  0.6712 -0.5192  0.3088
  458MOL0     C63081   2.091  10.791   9.531 -1.2018  0.1496 -0.7351
  458MOL0     C63082   2.198  10.855   9.445 -0.1422 -0.0519  0.2422
  458MOL0     N63083   2.325  10.856   9.525 -1.0233  0.4055  0.1360
  458MOL0     C63084   2.381  10.960   9.600 -0.2417 -0.2966  0.4874
  458MOL0     C63085   2.499  10.901   9.635  0.1495 -0.5313  0.3877
  458MOL0     C63086   2.594  10.956   9.732 -0.8145  0.2314 -0.3382
  458MOL0     C63087   2.701  11.050   9.659  0.3152 -0.1199 -0.5713
  458MOL0     C63088   2.823  10.978   9.614  0.0253 -0.1628 -0.1909
  458MOL0     C63089   2.933  11.063   9.548  0.4380  0.6275  0.4332
  458MOL0     O63090   3.055  10.979   9.519  0.1009 -0.9233 -0.0308
  458MOL0     C63091   3.160  11.040   9.591 -0.1945  0.9960 -0.3979
  458MOL0     C63092   3.189  11.174   9.594 -0.0770  0.9372  0.5261
  458MOL0     C63093   3.300  11.227   9.660  0.9769  0.2046  0.5219
  458MOL0     C63094   3.320  11.373   9.642 -0.3603  0.0759  0.0033
  458MOL0     C63095   3.379  11.143   9.733  0.3697 -0.5848  0.8977
  458MOL0     C63096   3.503  11.193   9.798 -0.3583 -0.9283  0.7531
  458MOL0     O63097   3.588  11.285   9.744 -0.6602 -1.0604  0.1258
  458MOL0     C63098   3.708  11.313   9.805  0.2389 -0.2312  0.7085
  458MOL0     C63099   3.752  11.446   9.787 -0.1773 -0.2933 -0.3389
  458MOL0     C63100   3.871  11.483   9.846 -0.0025  1.2504  0.1039
  458MOL0     C63101   3.947  11.398   9.921 -0.6360  0.4985 -0.5315
  458MOL0     O63102   4.066  11.446   9.978  0.0150 -0.0860 -0.2940
  458MOL0     C63103   4.183  11.386   9.929 -0.0291  0.3432 -0.4882
  458MOL0     C63104   4.306  11.476   9.961  0.0639 -0.2141  0.4536
  458MOL0     C63105   4.438  11.394   9.959  0.2308 -0.0390  0.5772
  458MOL0     C63106   4.442  11.297  10.081  0.3230  1.2428  0.1256
  458MOL0     C63107   4.582  11.256  10.139  0.7022  0.2568  0.2305
  458MOL0     C63108   4.671  11.207  10.030  0.1993  0.5462 -0.1305
  458MOL0     C63109   4.798  11.143  10.073 -0.4324 -0.4650 -0.2374
  458MOL0     C63110   4.888  11.223  10.170 -0.4925 -0.0282  0.3720
  458MOL0    Cl63111   4.946  11.393  10.127  0.4591 -0.3959  0.0762
  458MOL0     C63112   3.898  11.270   9.944 -0.5773 -0.5292  0.0910
  458MOL0     C63113   3.781  11.229   9.883 -1.4744  1.0538 -0.2990
  458MOL0     O63114   3.521  11.139   9.904  0.3364 -0.2039 -0.3894
  458MOL0     C63115   3.351  11.002   9.733 -0.5411 -1.1443 -0.3329
  458MOL0     C63116   3.245  10.956   9.663 -0.3516  0.2491 -0.0465
  458MOL0     N63117   2.516  10.774   9.580  0.2765  0.8849  0.9005
  458MOL0     N63118   2.410  10.756   9.504 -0.5528 -0.0586 -0.5594
  458MOL0     C63119   1.450  10.954   9.189  0.8003 -0.5855  0.2918
  458MOL0     C63120   1.333  11.006   9.135 -0.1771  0.4289 -0.5133
  458MOL0     C63121   1.030  11.377   9.158 -0.2765 -0.3271  0.2231
  458MOL0     C63122   0.921  11.411   9.237  0.0586 -0.1627  0.4343
  458MOL0     C63123   0.833  11.515   9.196  1.1027 -0.0199  0.4761
  458MOL0     C63124   0.832  11.564   9.065  0.4560 -0.0533 -0.3463
  458MOL0     O63125   0.757  11.667   9.011 -0.7569 -0.6240  0.5774
  458MOL0     C63126   0.700  11.765   9.105  0.1810  0.6875 -0.2011
  458MOL0     C63127   0.641  11.887   9.034 -0.0253 -0.1765 -0.3657
  458MOL0     C63128   0.728  11.953   8.915 -0.2128  0.2529 -0.0225
  458MOL0     C63129   0.669  12.076   8.849  0.4163  0.4486  0.1957
  458MOL0     C63130   0.694  12.187   8.931  0.5660 -0.5237  0.0289
  458MOL0     C63131   0.700  12.292   8.982 -0.4817 -0.1963 -0.6440
  458MOL0     C63132   0.936  11.521   8.988 -0.4893 -0.4913 -0.7162
  458MOL0     C63133   1.039  11.435   9.029 -0.2311 -0.3161 -0.2674
  458MOL0     C63134   1.140  11.407   8.924  0.5785 -0.6035 -0.5349
  458MOL0     H63135   1.400  11.324   9.272  2.8604  0.1121  0.5510
  458MOL0     H63136   1.578  11.221   9.360  0.8393  0.7048  0.0793
  458MOL0     H63137   1.754  11.110   9.355  2.3406 -1.5004 -3.7605
  458MOL0     H63138   1.847  10.971   9.403  2.1940  5.9992 -0.8387
  458MOL0     H63139   1.605  11.092   9.548  1.8778  1.4965 -1.9703
  458MOL0     H63140   1.640  10.919   9.573 -2.4960 -0.2679 -2.2952
  458MOL0     H63141   1.870  11.116   9.617 -0.2397 -1.1327 -2.1325
  458MOL0     H63142   1.736  11.131   9.726  1.0085  0.5661  0.2328
  458MOL0     H63143   1.901  10.988   9.820 -0.0120  2.0808 -1.3792
  458MOL0     H63144   1.744  10.914   9.810 -0.9670  0.4887 -0.8418
  458MOL0     H63145   1.856  10.778   9.606  0.5526  0.9684 -0.5371
  458MOL0     H63146   1.943  10.762   9.753  3.5424  0.4046 -2.2086
  458MOL0     H63147   2.024  10.990   9.584  1.4253 -0.0653  0.9449
  458MOL0     H63148   2.110  10.907   9.716 -0.3295  3.2373  0.8015
  458MOL0     H63149   2.014  10.743   9.469 -1.1780  0.5642 -1.0921
  458MOL0     H63150   2.145  10.708   9.577 -0.5545  0.0317 -1.6736
  458MOL0     H63151   2.220  10.795   9.357  1.4836  1.7195 -0.6446
  458MOL0     H63152   2.163  10.947   9.398  1.7088  0.2083 -0.7481
  458MOL0     H63153   2.339  11.057   9.625  1.1702  0.6382 -0.6351
  458MOL0     H63154   2.647  10.878   9.787 -3.0134 -0.7667  0.4637
  458MOL0     H63155   2.538  11.003   9.813 -1.3975 -0.6150 -0.2240
  458MOL0     H63156   2.659  11.113   9.580  0.5792  0.6082 -0.1419
  458MOL0     H63157   2.714  11.124   9.739 -0.6403  1.1585 -1.5733
  458MOL0     H63158   2.882  10.932   9.694  0.8369 -0.8153 -1.1390
  458MOL0     H63159   2.801  10.908   9.533 -0.7761 -0.8952  0.6460
  458MOL0     H63160   2.905  11.102   9.450  1.1222 -0.8783 -0.4049
  458MOL0     H63161   2.942  11.149   9.614  0.4094  2.9187 -2.3529
  458MOL0     H63162   3.120  11.241   9.544 -3.2512 -1.3810  1.4649
  458MOL0     H63163   3.373  11.405   9.552  1.6494  0.4736  1.2584
  458MOL0     H63164   3.380  11.400   9.730 -0.6706 -1.4071  0.7029
  458MOL0     H63165   3.224  11.422   9.662 -0.6029 -1.7559  4.5776
  458MOL0     H63166   3.698  11.517   9.725  0.0125 -1.0755 -1.4360
  458MOL0     H63167   3.903  11.584   9.823 -4.3562  3.3284  1.9355
  458MOL0     H63168   4.196  11.292   9.984 -0.8712  2.1945  3.2267
  458MOL0     H63169   4.164  11.365   9.824 -2.6062  0.6213 -0.1259
  458MOL0     H63170   4.308  11.555   9.885  2.0874 -0.3215  0.3473
  458MOL0     H63171   4.294  11.527  10.057  0.7102  1.7404 -0.4588
  458MOL0     H63172   4.527  11.457   9.968 -0.1862  0.5047  0.9670
  458MOL0     H63173   4.455  11.347   9.862  1.9391  0.6933  0.4850
  458MOL0     H63174   4.379  11.212  10.054 -0.9085  1.7790  1.1713
  458MOL0     H63175   4.383  11.340  10.163 -1.1726 -0.2019 -0.1386
  458MOL0     H63176   4.632  11.344  10.181  1.9112  1.5298 -3.4631
  458MOL0     H63177   4.574  11.175  10.212 -0.0200  0.6961  0.6533
  458MOL0     H63178   4.682  11.289   9.959  1.9676  0.1037 -0.4010
  458MOL0     H63179   4.616  11.132   9.972 -1.2100  1.6701 -0.3233
  458MOL0     H63180   4.846  11.126   9.976  2.1566  2.3680  0.3902
  458MOL0     H63181   4.775  11.050  10.126 -1.2361 -0.0627  0.1340
  458MOL0     H63182   4.978  11.161  10.180 -0.7681 -0.4261  0.4010
  458MOL0     H63183   4.842  11.227  10.269 -0.6018 -1.0228  0.3661
  458MOL0     H63184   3.962  11.204  10.002  0.6911 -1.2670 -2.0257
  458MOL0     H63185   3.757  11.128   9.913  1.9006  1.1513  3.4630
  458MOL0     H63186   3.419  10.936   9.787  1.9499 -0.2611 -2.1736
  458MOL0     H63187   3.213  10.853   9.648 -1.7091  1.0850 -4.4203
  458MOL0     H63188   1.472  10.848   9.179 -3.5090 -1.6040 -0.0750
  458MOL0     H63189   1.274  10.951   9.063 -2.4474  1.3929  0.5054
  458MOL0     H63190   0.888  11.368   9.331 -2.9956 -0.4168 -0.6350
  458MOL0     H63191   0.745  11.536   9.257  2.1332 -0.9942  2.3708
  458MOL0     H63192   0.627  11.723   9.175  3.3359 -0.5258  2.6614
  458MOL0     H63193   0.779  11.795   9.175 -0.8910 -4.1511  3.6173
  458MOL0     H63194   0.609  11.962   9.107 -1.2915 -0.5747 -0.4796
  458MOL0     H63195   0.547  11.859   8.984  1.2727 -0.8707 -2.5721
  458MOL0     H63196   0.829  11.979   8.948 -0.0668 -1.3355  0.8878
  458MOL0     H63197   0.751  11.884   8.833 -0.5142  1.8705 -1.5452
  458MOL0     H63198   0.563  12.066   8.827 -0.2509  2.4260  2.1737
  458MOL0     H63199   0.727  12.085   8.756 -1.3008  0.6281 -0.9020
  458MOL0     H63200   0.710  12.390   9.025  0.2282 -0.5712  0.0782
  458MOL0     H63201   0.936  11.557   8.885  1.4643 -1.1745 -0.9979
  458MOL0     H63202   1.161  11.488   8.854 -0.2780 -0.0042 -0.1099
  458MOL0     H63203   1.237  11.380   8.967  1.1733 -1.3265 -2.2611
  458MOL0     H63204   1.131  11.317   8.863  4.9790 -1.2546 -0.5422
  459MOL0     O63205   4.309   7.068   3.347  0.3513 -0.5673 -1.1352
  459MOL0     C63206   4.303   7.176   3.296  0.1443  1.2496  0.2663
  459MOL0     O63207   4.414   7.247   3.270 -0.5888 -0.8030  1.1862
  459MOL0     C63208   4.541   7.200   3.307  0.3364  0.0991  0.8388
  459MOL0     C63209   4.586   7.226   3.435 -0.0850 -1.0341 -0.0527
  459MOL0     C63210   4.723   7.203   3.471 -0.2891  0.1228 -0.0133
  459MOL0     C63211   4.814   7.153   3.373  0.5111  0.3606 -0.2048
  459MOL0     O63212   4.947   7.123   3.409  0.2914 -1.3069 -0.3073
  459MOL0     C63213   5.041   7.209   3.352 -0.4704  0.0234  0.3254
  459MOL0     C63214   5.176   7.159   3.417 -0.0382  0.5019 -0.0602
  459MOL0     C63215   5.296   7.230   3.347  0.2325 -1.0788  0.7060
  459MOL0     C63216   5.424   7.205   3.424  0.6879  0.1825  0.2330
  459MOL0     C63217   5.544   7.275   3.368  0.2465 -0.3760  0.9061
  459MOL0     C63218   5.674   7.250   3.440 -0.6432 -0.0376  0.2521
  459MOL0     C63219   5.808   7.310   3.372  0.2878  0.6668  0.0745
  459MOL0     C63220   5.818   7.459   3.384 -0.1353 -0.0291  0.3875
  459MOL0     N63221   5.957   7.515   3.373 -0.4158  0.0585  0.2674
  459MOL0     C63222   6.056   7.506   3.277  0.1616  0.3835  0.2239
  459MOL0     C63223   6.171   7.552   3.338 -0.4041  0.3605  0.4901
  459MOL0     C63224   6.309   7.593   3.283  0.1478  0.3511  0.5087
  459MOL0     C63225   6.372   7.708   3.355  0.3331  0.0418  0.1553
  459MOL0     C63226   6.489   7.769   3.275  0.3864 -0.7040  0.5190
  459MOL0     C63227   6.599   7.674   3.239 -0.1444 -0.4028  0.2136
  459MOL0     O63228   6.727   7.732   3.209 -0.0348 -0.7520 -0.4182
  459MOL0     C63229   6.739   7.801   3.088 -0.1496  0.7277  0.6526
  459MOL0     C63230   6.670   7.771   2.969  0.5143 -1.1255 -0.3949
  459MOL0     C63231   6.691   7.850   2.856 -0.3172 -1.0478 -0.3685
  459MOL0     C63232   6.597   7.832   2.742  0.1171 -0.3097  0.0675
  459MOL0     C63233   6.794   7.951   2.852 -0.5202  1.1682 -0.4460
  459MOL0     C63234   6.827   8.041   2.730 -0.0393 -0.5276 -0.8026
  459MOL0     O63235   6.722   8.090   2.653  1.0423 -0.6588 -0.4568
  459MOL0     C63236   6.739   8.177   2.555 -0.6281  0.2254  0.5820
  459MOL0     C63237   6.746   8.135   2.426 -1.0558 -0.4359 -0.0043
  459MOL0     C63238   6.756   8.233   2.326  0.1246  0.2027 -0.3279
  459MOL0     C63239   6.779   8.369   2.351 -0.1099 -0.5842  0.0236
  459MOL0     O63240   6.788   8.469   2.251  0.5479  0.5306 -0.0329
  459MOL0     C63241   6.860   8.422   2.140  0.2734 -0.3118  0.9413
  459MOL0     C63242   6.961   8.527   2.100 -0.3892 -0.3410  0.4820
  459MOL0     C63243   7.047   8.482   1.971 -0.0248  0.5594  0.1151
  459MOL0     C63244   7.078   8.607   1.891 -0.5985  0.0976  0.3413
  459MOL0     C63245   7.167   8.584   1.769 -0.2134  0.2327  0.6549
  459MOL0     C63246   7.298   8.500   1.796  0.5079  0.3978  0.2258
  459MOL0     C63247   7.369   8.498   1.658 -1.0028  0.1042 -0.2464
  459MOL0     C63248   7.462   8.360   1.643 -0.0600  0.1923  0.3457
  459MOL0    Cl63249   7.340   8.246   1.574  0.2293 -0.0975  0.0789
  459MOL0     C63250   6.773   8.407   2.484 -0.7334 -0.3956 -0.0423
  459MOL0     C63251   6.747   8.313   2.584 -0.0727 -0.6703 -0.6002
  459MOL0     O63252   6.946   8.069   2.706  1.2045  0.5833 -0.8551
  459MOL0     C63253   6.869   7.973   2.971  0.4954 -0.4786 -0.1184
  459MOL0     C63254   6.836   7.900   3.089  0.4924  0.1714  0.5413
  459MOL0     N63255   6.135   7.571   3.468 -0.2429  0.0879  1.0268
  459MOL0     N63256   6.020   7.549   3.493  0.6909 -0.7819 -0.6146
  459MOL0     C63257   4.765   7.125   3.243  0.3880  0.6364 -0.0278
  459MOL0     C63258   4.630   7.146   3.213 -0.2699  0.5994  0.5228
  459MOL0     C63259   4.175   7.213   3.235 -0.4873  0.4507  0.2838
  459MOL0     C63260   4.153   7.354   3.235 -0.2336 -0.3938 -0.1027
  459MOL0     C63261   4.035   7.405   3.194  0.8708  0.0404 -0.1955
  459MOL0     C63262   3.933   7.316   3.153 -0.7072 -0.3452  0.1839
  459MOL0     O63263   3.812   7.362   3.110  0.3557  0.5020 -0.0402
  459MOL0     C63264   3.777   7.503   3.118  0.7718 -0.5625  0.3727
  459MOL0     C63265   3.629   7.531   3.095 -1.0150 -0.1206  0.0157
  459MOL0     C63266   3.584   7.517   2.948 -0.2451  0.4268  0.1981
  459MOL0     C63267   3.438   7.470   2.917  0.2658 -0.5108 -0.0875
  459MOL0     C63268   3.426   7.431   2.771  0.3961  0.1622 -0.8099
  459MOL0     C63269   3.428   7.404   2.652  0.0380 -0.1947 -0.1856
  459MOL0     C63270   3.950   7.178   3.158  0.7476  0.8341 -0.0779
  459MOL0     C63271   4.074   7.125   3.195 -0.6240  0.4839  0.5763
  459MOL0     C63272   4.078   6.970   3.204 -0.1631 -0.3352  0.1947
  459MOL0     H63273   4.517   7.266   3.508 -0.7446 -0.1690 -1.1276
  459MOL0     H63274   4.747   7.211   3.577  0.2791 -2.8854  0.1807
  459MOL0     H63275   5.023   7.316   3.364  1.2750  0.6065 -1.5048
  459MOL0     H63276   5.054   7.194   3.244 -3.2653  3.7245 -0.7374
  459MOL0     H63277   5.181   7.181   3.524 -1.3492  0.1212  0.0987
  459MOL0     H63278   5.185   7.051   3.399  1.3051  0.5379  0.3240
  459MOL0     H63279   5.300   7.189   3.246  1.6994  0.3839  0.1223
  459MOL0     H63280   5.280   7.338   3.335  3.8105 -0.3095  1.4815
  459MOL0     H63281   5.406   7.227   3.529  0.0666  2.9508 -0.3650
  459MOL0     H63282   5.447   7.098   3.428 -0.9741 -0.2518 -0.7152
  459MOL0     H63283   5.524   7.381   3.381 -1.4366 -0.5088 -0.2252
  459MOL0     H63284   5.561   7.254   3.262  2.7859  2.4946  0.6100
  459MOL0     H63285   5.669   7.283   3.544  1.7436  3.9741 -0.6653
  459MOL0     H63286   5.699   7.144   3.446  0.9229 -0.0200 -3.1215
  459MOL0     H63287   5.809   7.290   3.264  0.3056 -2.3517  0.5549
  459MOL0     H63288   5.899   7.265   3.412  0.3735 -1.1328 -1.9554
  459MOL0     H63289   5.759   7.497   3.300  1.9300  0.8334 -0.7360
  459MOL0     H63290   5.762   7.498   3.469 -1.7711  1.0704 -1.1237
  459MOL0     H63291   6.030   7.486   3.173  2.6675  2.7320 -0.9710
  459MOL0     H63292   6.291   7.619   3.179  0.3960  1.4483  0.7351
  459MOL0     H63293   6.372   7.504   3.289 -0.9503 -0.6889 -2.0175
  459MOL0     H63294   6.297   7.783   3.379 -1.1890 -0.9082 -1.4505
  459MOL0     H63295   6.409   7.674   3.452  0.6393 -0.9374 -0.2865
  459MOL0     H63296   6.443   7.815   3.187 -0.9742 -2.4243  0.2683
  459MOL0     H63297   6.533   7.848   3.337 -0.6516 -0.4739  0.9951
  459MOL0     H63298   6.614   7.607   3.324 -1.5242 -1.7677 -0.5761
  459MOL0     H63299   6.558   7.614   3.158 -0.3785 -4.3571  2.9783
  459MOL0     H63300   6.594   7.694   2.967  1.4389 -2.0559 -1.9555
  459MOL0     H63301   6.649   7.816   2.646  1.7141  0.9370  0.6818
  459MOL0     H63302   6.531   7.918   2.736 -3.3027 -2.8099 -1.9416
  459MOL0     H63303   6.543   7.737   2.752  1.2173 -1.0896 -1.0950
  459MOL0     H63304   6.731   8.029   2.407  0.9241 -0.8065  0.2916
  459MOL0     H63305   6.727   8.205   2.225 -2.4046  1.5733 -0.0648
  459MOL0     H63306   6.911   8.326   2.155 -0.8394 -1.4901 -2.0761
  459MOL0     H63307   6.803   8.408   2.048  1.8132  2.0552 -0.4605
  459MOL0     H63308   6.899   8.614   2.077  1.8749  0.9609 -0.9508
  459MOL0     H63309   7.021   8.553   2.188  0.6734  1.3037 -0.6887
  459MOL0     H63310   6.991   8.415   1.906  1.2181  0.7525 -1.2121
  459MOL0     H63311   7.143   8.441   2.002 -0.7962 -0.8039  0.8020
  459MOL0     H63312   7.135   8.682   1.947  1.1132  0.4638 -1.7470
  459MOL0     H63313   6.988   8.642   1.838 -2.5125 -2.5071  1.6242
  459MOL0     H63314   7.111   8.532   1.692 -0.0896  0.5482  0.3462
  459MOL0     H63315   7.208   8.675   1.724  1.1738 -0.2586  0.8749
  459MOL0     H63316   7.270   8.403   1.838  1.9659  0.6249  1.8219
  459MOL0     H63317   7.355   8.553   1.873  2.0585  1.8718 -1.8181
  459MOL0     H63318   7.434   8.585   1.647 -2.1931  1.3065  1.7334
  459MOL0     H63319   7.297   8.513   1.576 -0.8591  1.0894 -0.2024
  459MOL0     H63320   7.501   8.316   1.736  0.3916  1.4055  0.7540
  459MOL0     H63321   7.551   8.375   1.582  0.6509 -0.7943  1.0991
  459MOL0     H63322   6.799   8.511   2.504  3.2488 -0.9665 -1.3346
  459MOL0     H63323   6.744   8.343   2.688 -0.7726 -1.3259 -0.4215
  459MOL0     H63324   6.940   8.054   2.981  0.1075  0.0084 -1.1823
  459MOL0     H63325   6.908   7.909   3.170  1.7493  0.9407 -0.6118
  459MOL0     H63326   4.840   7.099   3.169  0.0473  2.2720 -1.0060
  459MOL0     H63327   4.586   7.139   3.115 -2.1073 -1.7893  1.4221
  459MOL0     H63328   4.225   7.421   3.282 -0.3258  0.0153 -0.5417
  459MOL0     H63329   4.014   7.511   3.180  0.7918  0.3227  1.8241
  459MOL0     H63330   3.793   7.541   3.219 -0.1099  2.8749 -0.6222
  459MOL0     H63331   3.830   7.560   3.041  0.0155 -0.2346  0.0752
  459MOL0     H63332   3.593   7.629   3.129 -0.0808  1.1168 -2.3188
  459MOL0     H63333   3.577   7.459   3.158  1.0001  0.2219  2.2134
  459MOL0     H63334   3.602   7.617   2.907  0.1581 -0.9011 -3.2116
  459MOL0     H63335   3.651   7.442   2.904 -1.5971 -1.7737  1.6842
  459MOL0     H63336   3.367   7.546   2.949 -2.0327 -2.4589 -0.2574
  459MOL0     H63337   3.407   7.383   2.977 -2.3995  0.7280  0.4921
  459MOL0     H63338   3.447   7.364   2.554 -0.1833 -1.1174  0.1320
  459MOL0     H63339   3.875   7.107   3.126 -0.7005  2.1525  0.2817
  459MOL0     H63340   4.004   6.920   3.141  1.4581 -1.8139 -0.6085
  459MOL0     H63341   4.175   6.935   3.167  0.6073  0.8803  0.9859
  459MOL0     H63342   4.064   6.943   3.309 -2.6124  1.1108  0.3099
  460MOL0     O63343   6.175   9.960   6.321  0.0465 -0.5568 -0.2929
  460MOL0     C63344   6.132   9.987   6.435 -0.1936 -0.4764  0.4075
  460MOL0     O63345   6.222  10.015   6.537  0.1586  0.3438 -0.5301
  460MOL0     C63346   6.358   9.997   6.505  0.4289 -0.5921  0.3359
  460MOL0     C63347   6.410   9.872   6.474  0.6293  0.0250 -0.1880
  460MOL0     C63348   6.551   9.856   6.451  0.1640  0.2722  0.1175
  460MOL0     C63349   6.637   9.962   6.452  0.1417 -0.1093 -0.1306
  460MOL0     O63350   6.771   9.929   6.433 -0.4409  0.1212  0.1148
  460MOL0     C63351   6.865  10.032   6.407  0.8389  0.0578 -1.0459
  460MOL0     C63352   7.006   9.970   6.384 -0.6609  0.2557  0.5363
  460MOL0     C63353   7.091  10.067   6.296  0.4362  0.1352 -0.0495
  460MOL0     C63354   7.229  10.002   6.283  0.6196 -0.5195  0.4292
  460MOL0     C63355   7.328  10.093   6.218  0.7263 -0.5637 -0.5391
  460MOL0     C63356   7.442  10.006   6.168 -0.5783  0.3263  0.3331
  460MOL0     C63357   7.555  10.088   6.112 -0.0700 -0.5612  0.0942
  460MOL0     C63358   7.666   9.992   6.057 -0.0472  0.0683 -0.4111
  460MOL0     N63359   7.779  10.072   6.006 -0.1686  0.9240  0.2686
  460MOL0     C63360   7.889  10.025   5.938 -0.2680  0.6466 -0.8618
  460MOL0     C63361   7.958  10.132   5.899 -0.1107  0.3631 -0.5772
  460MOL0     C63362   8.105  10.126   5.858  0.3225 -0.0729  0.7056
  460MOL0     C63363   8.210  10.097   5.972 -0.7698  0.6351 -0.0003
  460MOL0     C63364   8.345  10.150   5.938  0.0968 -0.0036  0.1991
  460MOL0     C63365   8.455  10.125   6.042  0.6791 -0.6798  0.4402
  460MOL0     O63366   8.462   9.986   6.083 -0.3531 -0.3017 -0.7038
  460MOL0     C63367   8.579   9.943   6.146 -0.7263  0.2022 -0.2407
  460MOL0     C63368   8.585   9.805   6.167  0.0670  0.2433  0.0608
  460MOL0     C63369   8.686   9.740   6.236  0.2822  0.1036  0.1204
  460MOL0     C63370   8.674   9.597   6.266 -0.1146  1.0062 -0.3960
  460MOL0     C63371   8.797   9.819   6.274  0.9316  0.0508 -0.2159
  460MOL0     C63372   8.924   9.774   6.338 -0.1354  1.1891 -0.6387
  460MOL0     O63373   9.011   9.859   6.403 -0.3087  0.1203 -0.0822
  460MOL0     C63374   9.136   9.812   6.438 -0.1200 -1.1387 -0.9203
  460MOL0     C63375   9.155   9.721   6.551 -0.5434  0.6414 -0.3017
  460MOL0     C63376   9.285   9.690   6.580 -0.0639  0.0836 -0.7348
  460MOL0     C63377   9.390   9.742   6.505  0.1589  0.7041 -0.1571
  460MOL0     O63378   9.522   9.717   6.544 -0.3263  0.0682  0.1776
  460MOL0     C63379   9.616   9.714   6.430 -0.3605 -0.0439 -0.2225
  460MOL0     C63380   9.743   9.654   6.481 -0.2077 -0.0282  0.1006
  460MOL0     C63381   9.830   9.754   6.564 -0.4727 -0.2731 -0.0227
  460MOL0     C63382   9.936   9.684   6.644 -0.7035  0.1852  0.0575
  460MOL0     C63383  10.044   9.630   6.553  0.2589  0.3119 -0.2832
  460MOL0     C63384  10.145   9.545   6.632  0.2499  0.3017  0.5465
  460MOL0     C63385  10.228   9.622   6.739 -0.4710 -0.2137 -0.3189
  460MOL0     C63386  10.349   9.548   6.789  0.1482  0.4630 -0.6259
  460MOL0    Cl63387  10.452   9.532   6.664  0.0036  0.2782 -0.1356
  460MOL0     C63388   9.355   9.821   6.393 -0.0614 -0.7815 -0.6960
  460MOL0     C63389   9.232   9.853   6.354  0.0437 -0.4211  0.1867
  460MOL0     O63390   8.945   9.655   6.314  0.0475  0.0117  0.0549
  460MOL0     C63391   8.799   9.956   6.236  0.0252 -0.1713 -0.3765
  460MOL0     C63392   8.691  10.018   6.181 -0.9853  0.6270  0.2359
  460MOL0     N63393   7.871  10.239   5.925 -0.5728 -0.0786  0.8588
  460MOL0     N63394   7.762  10.204   5.979  0.4952  0.7038 -0.0442
  460MOL0     C63395   6.581  10.090   6.466 -0.7789  0.4059  0.2262
  460MOL0     C63396   6.447  10.105   6.488  0.5761  0.1933  0.0134
  460MOL0     C63397   5.987   9.982   6.461 -0.7183 -0.3579  0.2305
  460MOL0     C63398   5.949   9.992   6.596  0.3237  0.3867 -0.1506
  460MOL0     C63399   5.817   9.983   6.628 -0.4019 -0.3602 -0.6247
  460MOL0     C63400   5.715   9.975   6.543  0.2277 -0.5905 -0.5729
  460MOL0     O63401   5.587   9.972   6.585 -0.4447  0.0483  0.1031
  460MOL0     C63402   5.508  10.090   6.540 -0.1575 -0.0348  0.5340
  460MOL0     C63403   5.424  10.136   6.652 -0.5627 -0.3949  0.6040
  460MOL0     C63404   5.518  10.180   6.769  0.1179  0.2094  0.3892
  460MOL0     C63405   5.454  10.264   6.887  0.4707  0.6210 -0.6428
  460MOL0     C63406   5.343  10.191   6.940  1.3656  0.1560 -0.3080
  460MOL0     C63407   5.239  10.145   6.981  0.5592 -0.2174 -0.4422
  460MOL0     C63408   5.750   9.989   6.406 -0.2995 -0.2379  1.0352
  460MOL0     C63409   5.888   9.999   6.362 -0.5617  0.9009  0.3383
  460MOL0     C63410   5.913   9.989   6.217 -0.8302 -0.1243  0.9895
  460MOL0     H63411   6.344   9.786   6.469  1.7666 -0.9655  0.9169
  460MOL0     H63412   6.585   9.761   6.410  2.6839  0.7593  0.9200
  460MOL0     H63413   6.873  10.098   6.493 -1.0883 -0.5515 -0.3469
  460MOL0     H63414   6.834  10.092   6.321 -2.8250  3.1197  2.0451
  460MOL0     H63415   7.047   9.950   6.484 -2.3894 -0.9686  1.0367
  460MOL0     H63416   6.990   9.878   6.328 -1.9619  1.3901 -1.0384
  460MOL0     H63417   7.058  10.053   6.193  1.0272  2.2765 -0.5808
  460MOL0     H63418   7.084  10.171   6.329  0.2369 -0.0151  0.3898
  460MOL0     H63419   7.274   9.990   6.382 -1.5031  1.0153  1.6861
  460MOL0     H63420   7.213   9.910   6.227  1.7837 -1.2223  1.2159
  460MOL0     H63421   7.355  10.167   6.294 -0.1518 -0.6539 -0.1287
  460MOL0     H63422   7.284  10.142   6.131 -0.5395  2.1295  1.4685
  460MOL0     H63423   7.479   9.941   6.247 -1.2939 -2.0606 -1.1954
  460MOL0     H63424   7.410   9.939   6.088  3.2297 -1.3688  0.0227
  460MOL0     H63425   7.600  10.152   6.188 -0.6638 -0.0568  0.0255
  460MOL0     H63426   7.519  10.151   6.030 -0.4956  0.2947  0.9224
  460MOL0     H63427   7.707   9.934   6.141  0.2182  1.6745  0.6308
  460MOL0     H63428   7.635   9.928   5.974 -0.1425  0.0168 -0.3362
  460MOL0     H63429   7.909   9.920   5.919 -0.4631  0.5310 -0.4413
  460MOL0     H63430   8.138  10.216   5.806  2.5682 -0.8351  0.7194
  460MOL0     H63431   8.117  10.049   5.781 -1.6393  0.2914 -0.0086
  460MOL0     H63432   8.192  10.144   6.068  1.6573  2.5193 -0.3738
  460MOL0     H63433   8.228   9.989   5.983  0.3464  0.9096  1.0894
  460MOL0     H63434   8.381  10.100   5.848  0.9122 -0.7595  0.9314
  460MOL0     H63435   8.352  10.257   5.916 -0.1606 -0.4704 -2.6410
  460MOL0     H63436   8.552  10.152   5.999  0.7744 -1.4653  0.1478
  460MOL0     H63437   8.434  10.191   6.127 -1.1826  1.0988 -1.2895
  460MOL0     H63438   8.505   9.743   6.128  1.7587 -0.9122 -1.8212
  460MOL0     H63439   8.737   9.554   6.188  0.2790  3.3239 -1.4200
  460MOL0     H63440   8.572   9.558   6.262 -0.5771  1.7835  2.0480
  460MOL0     H63441   8.716   9.581   6.366 -2.0558 -1.2912  0.1784
  460MOL0     H63442   9.076   9.683   6.615 -1.0937 -2.2208 -2.4345
  460MOL0     H63443   9.311   9.618   6.657  0.9880  0.7268 -0.4664
  460MOL0     H63444   9.587   9.666   6.336  1.5436  0.3846 -1.0733
  460MOL0     H63445   9.633   9.819   6.407  0.1189 -0.1240 -0.2297
  460MOL0     H63446   9.713   9.568   6.540  0.8033 -0.7685 -0.4273
  460MOL0     H63447   9.803   9.617   6.397  0.7401 -3.8026  2.1944
  460MOL0     H63448   9.766   9.812   6.631  1.3642 -1.1406  2.6422
  460MOL0     H63449   9.877   9.820   6.491 -0.1787 -1.5909 -1.0768
  460MOL0     H63450   9.884   9.611   6.707 -2.0321  1.2214  0.2159
  460MOL0     H63451   9.983   9.752   6.716  2.9234 -0.2650 -1.6769
  460MOL0     H63452  10.011   9.577   6.463  2.5931  0.5180 -1.3338
  460MOL0     H63453  10.094   9.718   6.511  0.9777  0.0170 -0.0412
  460MOL0     H63454  10.218   9.515   6.557  1.1877  2.9571  0.2671
  460MOL0     H63455  10.102   9.457   6.680 -0.2539 -0.0391 -0.4953
  460MOL0     H63456  10.165   9.638   6.827 -3.4021  0.5720 -2.3889
  460MOL0     H63457  10.260   9.721   6.705  0.2514 -0.4435 -0.3297
  460MOL0     H63458  10.329   9.449   6.831 -0.5402  0.3876 -1.1186
  460MOL0     H63459  10.398   9.608   6.866 -1.0384  1.7032 -0.7949
  460MOL0     H63460   9.446   9.857   6.345  1.2529 -1.4423  1.1938
  460MOL0     H63461   9.205   9.921   6.274 -0.6005 -0.1051  0.6675
  460MOL0     H63462   8.890  10.013   6.250 -0.1681 -0.5218  3.3115
  460MOL0     H63463   8.690  10.126   6.167 -1.4017  0.7217  0.9291
  460MOL0     H63464   6.646  10.176   6.451 -0.6941  0.1206 -1.2802
  460MOL0     H63465   6.405  10.205   6.489 -0.1666 -0.1150  0.3209
  460MOL0     H63466   6.012  10.001   6.684  1.4538 -0.4918 -0.8347
  460MOL0     H63467   5.784  10.000   6.730  0.3633 -0.5690 -0.3386
  460MOL0     H63468   5.574  10.169   6.503  2.0312 -1.5491  1.0016
  460MOL0     H63469   5.435  10.061   6.464 -0.4552 -0.7979  1.0946
  460MOL0     H63470   5.350  10.061   6.680  0.3573 -0.9432  1.6660
  460MOL0     H63471   5.370  10.225   6.617  1.1135 -0.7903 -3.6211
  460MOL0     H63472   5.570  10.093   6.811 -0.1094 -0.1702 -0.1057
  460MOL0     H63473   5.589  10.253   6.729 -2.3115  3.1446  1.0535
  460MOL0     H63474   5.419  10.360   6.848 -1.5408 -0.2316 -1.0737
  460MOL0     H63475   5.522  10.290   6.969  2.7299  1.1855 -2.5819
  460MOL0     H63476   5.142  10.121   7.020  1.0972  3.0838  3.6280
  460MOL0     H63477   5.669   9.981   6.335  0.8365  1.8635 -0.6050
  460MOL0     H63478   5.939   9.889   6.181 -1.8604  0.0051 -0.1903
  460MOL0     H63479   5.820  10.010   6.164 -0.2794 -0.3907 -0.1182
  460MOL0     H63480   5.981  10.067   6.182 -1.9180 -0.3905 -1.9924
  461MOL0     O63481  10.170   1.821   5.759 -0.2172 -0.5022 -0.0920
  461MOL0     C63482  10.079   1.868   5.699  0.0263 -0.2128  0.5429
  461MOL0     O63483  10.079   1.877   5.565  0.1964 -0.1806  0.7455
  461MOL0     C63484  10.176   1.810   5.484  0.6634 -0.2611 -1.0350
  461MOL0     C63485  10.135   1.763   5.364  0.3194  0.7752  0.2186
  461MOL0     C63486  10.221   1.697   5.270  0.7109 -0.0387  0.2462
  461MOL0     C63487  10.348   1.674   5.301 -0.3562  0.3863  0.7896
  461MOL0     O63488  10.427   1.629   5.201 -0.0811  0.2219  0.2019
  461MOL0     C63489  10.552   1.571   5.244  0.4257  0.4238 -0.0720
  461MOL0     C63490  10.623   1.493   5.127  0.9637 -1.3439  0.3942
  461MOL0     C63491  10.758   1.428   5.167 -0.3928 -1.0296 -0.6647
  461MOL0     C63492  10.731   1.313   5.265  0.0360  1.0877 -0.3347
  461MOL0     C63493  10.858   1.232   5.294  0.0938 -0.5780  0.5892
  461MOL0     C63494  10.935   1.164   5.175 -0.1016  1.0253 -0.4580
  461MOL0     C63495  10.839   1.068   5.104  0.0942  0.6106  0.1075
  461MOL0     C63496  10.892   1.015   4.963 -0.4073  0.0558  0.6391
  461MOL0     N63497  11.003   0.917   4.968 -0.0897  0.0000 -0.0289
  461MOL0     C63498  11.051   0.847   4.861  0.7750 -0.5070 -0.5552
  461MOL0     C63499  11.154   0.781   4.907 -0.2158  0.6207 -0.5269
  461MOL0     C63500  11.230   0.674   4.833 -0.3039 -0.4881  0.4807
  461MOL0     C63501  11.172   0.534   4.873  0.5727 -0.1679 -0.2930
  461MOL0     C63502  11.258   0.483   4.988  0.7700  0.0176  0.0263
  461MOL0     C63503  11.408   0.448   4.942  0.3358  0.6099 -0.1932
  461MOL0     O63504  11.410   0.349   4.837 -0.5140  0.1693  0.4120
  461MOL0     C63505  11.528   0.329   4.763 -0.5551  0.2498 -0.9959
  461MOL0     C63506  11.659   0.388   4.785 -0.1747  0.6217 -0.9014
  461MOL0     C63507  11.760   0.375   4.681  0.3609  0.5538 -0.1018
  461MOL0     C63508  11.881   0.455   4.704  0.1427 -0.9114 -0.3606
  461MOL0     C63509  11.734   0.307   4.559  0.7482  0.2686 -0.1487
  461MOL0     C63510  11.835   0.305   4.444  0.2305  0.4265 -1.4651
  461MOL0     O63511  11.793   0.378   4.338  0.6889 -0.1923 -0.1158
  461MOL0     C63512  11.868   0.380   4.216 -0.4793 -0.3258  0.8650
  461MOL0     C63513  11.933   0.496   4.171  0.2582 -0.6069  0.4239
  461MOL0     C63514  12.014   0.493   4.055 -0.1690 -0.3147 -0.3324
  461MOL0     C63515  12.035   0.376   3.988  0.1765  0.5708 -0.0134
  461MOL0     O63516  12.107   0.383   3.876  0.4762 -0.7863 -0.0700
  461MOL0     C63517  12.188   0.264   3.852  0.8874 -0.2902 -0.0536
  461MOL0     C63518  12.300   0.299   3.762  0.6112  0.0289  0.2307
  461MOL0     C63519  12.392   0.400   3.823 -0.1404 -0.1260 -0.5741
  461MOL0     C63520  12.499   0.459   3.733 -0.4979 -0.7129  0.6372
  461MOL0     C63521  12.603   0.525   3.814  0.4775 -0.0044 -0.1168
  461MOL0     C63522  12.721   0.590   3.736  0.2001  0.4941  0.4458
  461MOL0     C63523  12.679   0.721   3.656 -0.5333  0.3644  0.2774
  461MOL0     C63524  12.822   0.788   3.617 -1.0925  0.5549  0.0135
  461MOL0    Cl63525  12.881   0.848   3.777 -0.0007  0.2297  0.3805
  461MOL0     C63526  11.970   0.262   4.036 -1.1186  0.2835 -0.3027
  461MOL0     C63527  11.888   0.262   4.145  0.1302 -0.6857  0.7044
  461MOL0     O63528  11.951   0.263   4.469  0.3189 -0.1480  0.9883
  461MOL0     C63529  11.614   0.234   4.549 -0.9562  0.0752  0.7912
  461MOL0     C63530  11.509   0.256   4.648 -0.0186  0.1372  0.5900
  461MOL0     N63531  11.182   0.814   5.041  0.0706 -0.5923  0.1433
  461MOL0     N63532  11.086   0.899   5.074  0.2325  0.6449  0.8649
  461MOL0     C63533  10.397   1.729   5.420 -0.2388  0.5655 -0.0318
  461MOL0     C63534  10.310   1.802   5.512 -0.5414  0.5761  0.1830
  461MOL0     C63535   9.970   1.937   5.776  0.2078  0.5250 -0.3879
  461MOL0     C63536   9.998   2.006   5.897  0.1987 -0.1707  1.1732
  461MOL0     C63537   9.911   2.106   5.945  0.4760  0.1140  0.5555
  461MOL0     C63538   9.778   2.107   5.896 -1.5066 -0.9216  0.2561
  461MOL0     O63539   9.679   2.183   5.960 -0.1407 -0.2884  0.3876
  461MOL0     C63540   9.694   2.202   6.099  0.6968  0.1059  0.1590
  461MOL0     C63541   9.559   2.254   6.154  0.1986 -1.1547 -0.3715
  461MOL0     C63542   9.417   2.201   6.117  0.4888 -0.9818  0.9586
  461MOL0     C63543   9.311   2.279   6.190  0.0133  0.0425  0.5958
  461MOL0     C63544   9.177   2.240   6.148  0.2192 -0.3534 -0.3475
  461MOL0     C63545   9.068   2.232   6.100 -0.9838 -0.1955  0.1090
  461MOL0     C63546   9.746   2.035   5.788 -0.0944 -1.0084  0.1391
  461MOL0     C63547   9.845   1.955   5.725 -0.1880 -0.0811  0.0760
  461MOL0     C63548   9.791   1.897   5.592  0.5571  0.6050 -0.8090
  461MOL0     H63549  10.029   1.780   5.351  0.0288  0.0987  1.5726
  461MOL0     H63550  10.191   1.667   5.170  3.1166  0.1676 -0.5986
  461MOL0     H63551  10.535   1.500   5.325 -1.4602 -0.6913 -1.3900
  461MOL0     H63552  10.616   1.658   5.261 -0.3198  0.9234  0.2266
  461MOL0     H63553  10.560   1.415   5.084 -0.8235 -0.0277  0.5421
  461MOL0     H63554  10.643   1.558   5.042  3.3525 -3.3869 -0.7425
  461MOL0     H63555  10.816   1.397   5.080 -3.0326 -0.9799 -2.5540
  461MOL0     H63556  10.819   1.503   5.219 -0.0248 -2.4851  1.1554
  461MOL0     H63557  10.697   1.351   5.362 -3.0586  0.4209 -1.0688
  461MOL0     H63558  10.656   1.246   5.223  0.4629 -0.1320  0.7871
  461MOL0     H63559  10.835   1.153   5.366  1.1699 -1.4741 -0.0230
  461MOL0     H63560  10.936   1.296   5.336 -1.3233  3.2291 -2.0716
  461MOL0     H63561  10.961   1.246   5.107  2.8283  0.4150 -0.1999
  461MOL0     H63562  11.028   1.117   5.209 -0.4560  0.9790  0.4815
  461MOL0     H63563  10.743   1.105   5.067  0.2645 -1.3168 -2.5292
  461MOL0     H63564  10.814   0.987   5.174 -1.4227  1.0860  0.1466
  461MOL0     H63565  10.804   0.965   4.921 -2.8148  1.5121  3.5133
  461MOL0     H63566  10.914   1.103   4.902 -1.1378  1.2495  2.0389
  461MOL0     H63567  11.005   0.831   4.764  0.4337 -1.5752 -0.2261
  461MOL0     H63568  11.334   0.689   4.862 -0.4302  1.1841  0.1421
  461MOL0     H63569  11.219   0.690   4.726 -2.7324 -2.7474  0.2643
  461MOL0     H63570  11.067   0.551   4.901 -0.2474 -1.9621 -2.0798
  461MOL0     H63571  11.174   0.455   4.797 -1.2339 -1.5197  0.9558
  461MOL0     H63572  11.268   0.565   5.061 -1.8532 -0.1245  0.6442
  461MOL0     H63573  11.201   0.404   5.037 -0.2434  0.6190 -0.1567
  461MOL0     H63574  11.448   0.544   4.911 -1.6411  0.5833 -3.2917
  461MOL0     H63575  11.464   0.410   5.028 -1.6033 -0.8492  0.5278
  461MOL0     H63576  11.689   0.431   4.880  3.7054 -2.3657 -0.5210
  461MOL0     H63577  11.881   0.542   4.638 -3.4439  1.5443  2.5176
  461MOL0     H63578  11.981   0.410   4.705  0.6947  0.2645 -0.5464
  461MOL0     H63579  11.874   0.496   4.805 -0.2451  0.5183 -0.9415
  461MOL0     H63580  11.930   0.596   4.213 -1.3603 -0.4805  0.0765
  461MOL0     H63581  12.064   0.584   4.023 -1.2569  0.3422 -0.2355
  461MOL0     H63582  12.235   0.218   3.939 -0.4831 -0.7975  0.4532
  461MOL0     H63583  12.118   0.189   3.813 -0.9363  0.5834  1.3756
  461MOL0     H63584  12.357   0.208   3.741 -0.6020 -0.4526 -1.0916
  461MOL0     H63585  12.262   0.339   3.668  3.6510  1.7395 -0.4064
  461MOL0     H63586  12.441   0.360   3.912 -0.5957 -0.6976 -0.5795
  461MOL0     H63587  12.335   0.489   3.852 -2.4405 -1.5497 -0.5173
  461MOL0     H63588  12.456   0.528   3.660  3.5983 -1.6280 -3.1514
  461MOL0     H63589  12.547   0.379   3.675 -2.2610 -2.0732  0.9952
  461MOL0     H63590  12.556   0.606   3.870  2.1750  0.6442  0.4460
  461MOL0     H63591  12.653   0.452   3.877  1.5850  1.3572  0.6532
  461MOL0     H63592  12.760   0.511   3.671 -1.7344  0.8532 -1.2659
  461MOL0     H63593  12.802   0.615   3.805  1.0559  1.0366 -0.7229
  461MOL0     H63594  12.619   0.790   3.715 -0.8513  1.6545 -1.4677
  461MOL0     H63595  12.623   0.685   3.569  0.5014 -1.8790  0.4658
  461MOL0     H63596  12.814   0.870   3.545  1.1252  0.5159 -0.3676
  461MOL0     H63597  12.890   0.715   3.573 -0.7004  0.0605  1.3634
  461MOL0     H63598  11.973   0.168   3.982 -2.3374 -0.1827  0.4265
  461MOL0     H63599  11.849   0.166   4.177  0.3447 -0.3975  1.8432
  461MOL0     H63600  11.583   0.175   4.463 -1.2339  2.3057 -0.7190
  461MOL0     H63601  11.412   0.211   4.628 -0.0454  0.0392  0.9390
  461MOL0     H63602  10.497   1.720   5.459  0.4868  4.5587 -0.5439
  461MOL0     H63603  10.354   1.836   5.605  1.7937 -2.2795  0.2920
  461MOL0     H63604  10.090   1.985   5.951  2.2056  1.4263 -1.3699
  461MOL0     H63605   9.945   2.163   6.031  2.5705 -0.2302  0.0013
  461MOL0     H63606   9.723   2.106   6.141  1.0903 -1.1564 -2.7063
  461MOL0     H63607   9.774   2.272   6.122  0.9267 -0.3599  0.7842
  461MOL0     H63608   9.574   2.360   6.134 -1.3154 -0.9201 -0.3997
  461MOL0     H63609   9.566   2.236   6.262  2.6249  0.0217 -0.2623
  461MOL0     H63610   9.394   2.217   6.011  0.6042 -1.2968  0.8851
  461MOL0     H63611   9.404   2.094   6.137  1.6456 -1.6971 -1.6743
  461MOL0     H63612   9.325   2.386   6.171 -1.8136 -0.0342 -1.6421
  461MOL0     H63613   9.323   2.267   6.298  2.0416 -3.1954  0.1388
  461MOL0     H63614   8.969   2.223   6.060  0.3851 -0.4608 -3.5423
  461MOL0     H63615   9.649   2.037   5.740  1.7744 -2.8818 -4.2385
  461MOL0     H63616   9.790   1.980   5.520  1.8432  0.8813 -0.5480
  461MOL0     H63617   9.859   1.823   5.550 -1.9290 -2.2868 -0.0698
  461MOL0     H63618   9.705   1.835   5.619  0.1051  1.8452  0.7471
  462MOL0     O63619   9.211   6.052   5.078 -0.1222 -0.5484  0.5516
  462MOL0     C63620   9.157   6.148   5.131 -0.4675  0.0672  0.1274
  462MOL0     O63621   9.222   6.234   5.222  0.1334  0.5374  0.0173
  462MOL0     C63622   9.345   6.201   5.278 -1.0475 -0.3414 -0.2404
  462MOL0     C63623   9.407   6.074   5.282  0.0835  0.6900 -0.3625
  462MOL0     C63624   9.534   6.054   5.325 -0.4765  0.9631 -0.3557
  462MOL0     C63625   9.613   6.159   5.372  0.4286  0.5786 -0.4498
  462MOL0     O63626   9.748   6.148   5.396 -1.3523 -0.1559 -0.1110
  462MOL0     C63627   9.812   6.019   5.408 -0.1871  0.0871 -0.8668
  462MOL0     C63628   9.964   6.030   5.455  0.8313 -0.6844 -0.0857
  462MOL0     C63629   9.969   6.084   5.599 -0.3516  0.3613 -0.3528
  462MOL0     C63630  10.103   6.133   5.643 -1.2902 -1.2917 -0.6455
  462MOL0     C63631  10.103   6.228   5.765 -0.8730 -0.1105  0.3831
  462MOL0     C63632  10.252   6.265   5.796  0.1753 -0.6429 -0.9688
  462MOL0     C63633  10.250   6.367   5.913 -0.3609 -0.2601  0.6724
  462MOL0     C63634  10.232   6.520   5.877 -0.4594 -0.3233 -0.8634
  462MOL0     N63635  10.329   6.568   5.780 -0.3794 -0.3345  0.2695
  462MOL0     C63636  10.464   6.578   5.809 -0.0805  0.5821  0.1429
  462MOL0     C63637  10.524   6.638   5.706  0.0231 -1.1689  0.4748
  462MOL0     C63638  10.663   6.688   5.682 -0.9407 -0.8895  0.5020
  462MOL0     C63639  10.747   6.701   5.807 -0.4723  0.3911  0.5174
  462MOL0     C63640  10.883   6.760   5.779 -0.2376 -0.3131 -0.6102
  462MOL0     C63641  10.976   6.664   5.705 -0.2142  0.1077 -0.0230
  462MOL0     O63642  11.105   6.715   5.679  0.0456  0.3897  0.1823
  462MOL0     C63643  11.166   6.650   5.569  0.2483  0.1225  0.1875
  462MOL0     C63644  11.138   6.518   5.525 -0.0998  0.2196 -0.8389
  462MOL0     C63645  11.211   6.462   5.411  0.3243  0.0012  0.0748
  462MOL0     C63646  11.181   6.318   5.371 -0.6736  0.5718 -0.4435
  462MOL0     C63647  11.307   6.540   5.351  0.0818 -0.1043 -0.0161
  462MOL0     C63648  11.396   6.490   5.246  0.3828  0.0640 -0.4365
  462MOL0     O63649  11.526   6.527   5.253 -0.4064 -0.2772 -0.5769
  462MOL0     C63650  11.622   6.495   5.156  0.7651  0.2080  0.2014
  462MOL0     C63651  11.607   6.530   5.023 -0.0163  0.2016 -0.1200
  462MOL0     C63652  11.694   6.498   4.920 -0.5676 -0.5022  0.6165
  462MOL0     C63653  11.812   6.438   4.952 -0.0601  0.1379  0.0149
  462MOL0     O63654  11.910   6.442   4.852 -0.2881 -0.3090 -0.2564
  462MOL0     C63655  12.044   6.422   4.894  0.5965 -0.0310  0.1293
  462MOL0     C63656  12.092   6.280   4.891 -0.0937  0.9060  0.6257
  462MOL0     C63657  12.225   6.277   4.970 -1.1771  0.5071 -0.4931
  462MOL0     C63658  12.347   6.334   4.903  0.5481 -1.1851  0.2144
  462MOL0     C63659  12.472   6.305   4.993  0.2563 -0.8357  0.0697
  462MOL0     C63660  12.606   6.369   4.942  0.5985  0.1286  0.2249
  462MOL0     C63661  12.650   6.330   4.802 -0.9685  0.6957  0.1968
  462MOL0     C63662  12.798   6.360   4.794 -0.8630  0.4356 -0.7782
  462MOL0    Cl63663  12.889   6.237   4.898  0.3339  0.1532  0.0582
  462MOL0     C63664  11.840   6.402   5.088 -0.1438  0.1819  1.0334
  462MOL0     C63665  11.743   6.432   5.188  0.3830  0.1568 -0.5911
  462MOL0     O63666  11.346   6.416   5.164 -0.0860  0.4557 -0.3226
  462MOL0     C63667  11.338   6.670   5.397 -1.2448  0.6872 -0.2902
  462MOL0     C63668  11.270   6.722   5.507  0.6761 -0.0543 -0.3236
  462MOL0     N63669  10.416   6.680   5.622  0.3841 -0.2875 -0.0890
  462MOL0     N63670  10.300   6.634   5.668  0.0301  0.0097  0.8307
  462MOL0     C63671   9.549   6.282   5.373  0.2295 -0.0606 -0.3008
  462MOL0     C63672   9.423   6.307   5.321  0.2180 -0.5604 -0.4064
  462MOL0     C63673   9.042   6.191   5.059 -0.2258 -0.3634 -0.0285
  462MOL0     C63674   9.008   6.321   5.076 -0.5434 -0.2890  0.1608
  462MOL0     C63675   8.912   6.375   4.987 -0.3107 -0.3522 -0.3236
  462MOL0     C63676   8.835   6.291   4.901 -0.3464  0.2961  0.9796
  462MOL0     O63677   8.738   6.326   4.816  0.5276 -0.6813 -0.1985
  462MOL0     C63678   8.780   6.406   4.707 -0.0089  0.0548  0.9196
  462MOL0     C63679   8.657   6.423   4.615 -0.3265 -0.3143 -0.5268
  462MOL0     C63680   8.612   6.292   4.550 -0.2449  0.7726 -0.6269
  462MOL0     C63681   8.487   6.311   4.469 -0.0183  0.0028 -0.4432
  462MOL0     C63682   8.508   6.385   4.343  1.0600  0.5516  0.0310
  462MOL0     C63683   8.550   6.437   4.242  0.1708 -0.3290  0.0865
  462MOL0     C63684   8.854   6.159   4.899 -0.4737  0.4775 -0.3223
  462MOL0     C63685   8.958   6.108   4.981 -0.0301 -0.9295 -0.8224
  462MOL0     C63686   8.972   5.958   4.964  0.3050 -0.9677 -0.4177
  462MOL0     H63687   9.356   5.982   5.255  0.1632  0.6649 -0.4270
  462MOL0     H63688   9.582   5.958   5.310  1.4261  1.3863  2.2359
  462MOL0     H63689   9.826   5.970   5.311  0.8219 -1.5912  0.0875
  462MOL0     H63690   9.760   5.967   5.489  0.1142  1.7992  0.4864
  462MOL0     H63691  10.004   5.928   5.454  0.1809 -0.9713  1.3957
  462MOL0     H63692  10.026   6.096   5.392  0.0740  1.7172  1.5609
  462MOL0     H63693   9.901   6.168   5.615  1.5470  1.7174  0.9730
  462MOL0     H63694   9.945   6.003   5.668  2.0353  0.7321  1.0214
  462MOL0     H63695  10.166   6.044   5.656 -0.1788 -0.3734  0.4999
  462MOL0     H63696  10.144   6.187   5.557 -0.3811 -1.6847 -0.4766
  462MOL0     H63697  10.056   6.166   5.842 -2.3597  0.1369 -0.3013
  462MOL0     H63698  10.044   6.317   5.743  1.5856  1.4050 -0.4343
  462MOL0     H63699  10.319   6.184   5.826  1.4447  1.6800  3.3633
  462MOL0     H63700  10.303   6.315   5.713  2.4098 -0.8949  0.1898
  462MOL0     H63701  10.343   6.356   5.971  0.0717  0.0539  0.0476
  462MOL0     H63702  10.170   6.340   5.982 -1.1838  0.1015 -0.1299
  462MOL0     H63703  10.131   6.551   5.848 -0.8672 -0.6446  0.1671
  462MOL0     H63704  10.251   6.580   5.966 -1.7976 -1.7983  0.4958
  462MOL0     H63705  10.530   6.538   5.885 -1.0214  0.3950  0.8806
  462MOL0     H63706  10.672   6.787   5.638  0.6132 -1.0908  0.3195
  462MOL0     H63707  10.708   6.616   5.613  1.1659  0.6433  0.1956
  462MOL0     H63708  10.701   6.758   5.888  0.2436 -0.7789  1.7955
  462MOL0     H63709  10.761   6.601   5.848 -0.2047  1.0185  2.0405
  462MOL0     H63710  10.874   6.860   5.736  0.6367  0.1093  0.1576
  462MOL0     H63711  10.930   6.772   5.877 -1.0601 -0.3800 -0.2035
  462MOL0     H63712  10.994   6.579   5.771  1.3512  0.8370  0.5368
  462MOL0     H63713  10.928   6.634   5.611  0.1912  2.7016 -1.1382
  462MOL0     H63714  11.065   6.458   5.577  1.2106 -0.1919  0.6508
  462MOL0     H63715  11.272   6.262   5.395 -1.3406  0.5936  2.5063
  462MOL0     H63716  11.156   6.316   5.265 -0.3424 -0.8832 -0.5202
  462MOL0     H63717  11.100   6.276   5.432  0.0571 -0.1558  0.0458
  462MOL0     H63718  11.519   6.584   4.988 -2.3221 -1.5358  2.5842
  462MOL0     H63719  11.671   6.525   4.817 -0.7427  0.6272  0.9382
  462MOL0     H63720  12.108   6.473   4.821  1.7703  0.0985  1.2111
  462MOL0     H63721  12.078   6.467   4.989  2.2717  0.3726 -0.6211
  462MOL0     H63722  12.025   6.201   4.925  3.2645 -3.3021 -1.5625
  462MOL0     H63723  12.122   6.246   4.792 -0.8792  2.7340 -0.2779
  462MOL0     H63724  12.255   6.176   4.999  0.0778  1.2049  0.7876
  462MOL0     H63725  12.217   6.336   5.062 -0.8077  0.2508 -0.2933
  462MOL0     H63726  12.335   6.443   4.909  1.0650 -1.1038 -0.2061
  462MOL0     H63727  12.350   6.309   4.797 -3.4999  0.2094 -0.4281
  462MOL0     H63728  12.452   6.342   5.094 -1.4994 -0.1734 -0.4804
  462MOL0     H63729  12.489   6.199   5.016 -0.0193 -0.8776  0.0849
  462MOL0     H63730  12.682   6.339   5.016  0.9669  2.2887  0.7765
  462MOL0     H63731  12.595   6.477   4.952 -0.7859  0.3148 -2.4906
  462MOL0     H63732  12.593   6.385   4.726  0.6176 -0.3118 -1.8379
  462MOL0     H63733  12.646   6.224   4.776  0.8851  0.8014 -0.7209
  462MOL0     H63734  12.814   6.453   4.849 -2.3240 -0.4358  1.2542
  462MOL0     H63735  12.844   6.355   4.695 -1.8845  0.1997 -1.2479
  462MOL0     H63736  11.937   6.359   5.112 -0.2529 -0.0970  0.9814
  462MOL0     H63737  11.768   6.414   5.292 -0.7912 -0.4856 -0.3974
  462MOL0     H63738  11.418   6.727   5.351 -0.8802 -0.1424 -0.7058
  462MOL0     H63739  11.287   6.822   5.546 -1.8193  0.1205  0.4722
  462MOL0     H63740   9.610   6.368   5.400 -0.4084 -0.0742  1.3012
  462MOL0     H63741   9.391   6.409   5.303 -0.5076 -1.0895 -2.3186
  462MOL0     H63742   9.051   6.393   5.143 -1.9005 -0.0309  0.7853
  462MOL0     H63743   8.895   6.482   4.989 -0.4415 -0.3724  1.2530
  462MOL0     H63744   8.812   6.506   4.738  0.3303 -0.1577  1.2567
  462MOL0     H63745   8.863   6.366   4.648 -0.8283  1.6085 -1.4674
  462MOL0     H63746   8.686   6.505   4.547  2.0581  0.9110  1.7873
  462MOL0     H63747   8.579   6.475   4.672 -0.2766 -0.5327 -0.2610
  462MOL0     H63748   8.686   6.242   4.487 -1.9907  0.2850 -2.4082
  462MOL0     H63749   8.590   6.217   4.626  1.8456 -0.4336 -1.1389
  462MOL0     H63750   8.404   6.342   4.533  0.9212 -1.0881  1.4113
  462MOL0     H63751   8.458   6.208   4.446  2.9480 -1.0803  0.1946
  462MOL0     H63752   8.592   6.501   4.167 -1.7664 -0.7689 -1.4668
  462MOL0     H63753   8.802   6.096   4.828 -0.9250 -1.5666  1.7167
  462MOL0     H63754   9.050   5.923   4.896  1.2655 -0.4826  0.4017
  462MOL0     H63755   8.991   5.919   5.065  2.9497  3.8077  1.2334
  462MOL0     H63756   8.873   5.922   4.935 -0.7336  1.6407 -0.4301
  463MOL0     O63757   0.209   4.837  10.790  0.5731  0.8789  0.2467
  463MOL0     C63758   0.189   4.925  10.875  0.7681 -0.4455 -0.6876
  463MOL0     O63759   0.291   4.985  10.948 -0.1867  0.3342  0.5175
  463MOL0     C63760   0.420   4.956  10.922  0.2376  1.7990  0.2086
  463MOL0     C63761   0.522   5.057  10.901 -0.3860  0.3645 -0.0430
  463MOL0     C63762   0.661   5.020  10.879  0.9994  0.8620 -0.7693
  463MOL0     C63763   0.700   4.883  10.890  0.1895  0.8716  0.2681
  463MOL0     O63764   0.833   4.839  10.890  0.4005  0.7007  0.0238
  463MOL0     C63765   0.921   4.929  10.949  0.3525  0.0394 -0.3289
  463MOL0     C63766   1.040   4.859  11.005  0.1051 -0.3090 -0.4052
  463MOL0     C63767   1.155   4.947  11.074  0.2020  0.3301 -0.2336
  463MOL0     C63768   1.296   4.918  11.018 -0.8441 -0.0384  0.7862
  463MOL0     C63769   1.417   5.011  11.059  0.2835 -0.6255 -0.3586
  463MOL0     C63770   1.414   5.036  11.207  0.0007  0.3696  0.4185
  463MOL0     C63771   1.527   5.134  11.259 -0.4924  0.0249  0.2875
  463MOL0     C63772   1.525   5.167  11.408 -1.1239 -0.0180  0.3298
  463MOL0     N63773   1.404   5.235  11.452  0.0295 -0.2203  0.1834
  463MOL0     C63774   1.400   5.366  11.477 -0.3612  0.3918 -0.9662
  463MOL0     C63775   1.293   5.384  11.558 -0.5104 -0.4440  0.0805
  463MOL0     C63776   1.254   5.517  11.626 -0.7778  0.0690 -0.1281
  463MOL0     C63777   1.385   5.578  11.682  0.2510  0.0080 -0.3497
  463MOL0     C63778   1.340   5.695  11.782  0.5563 -0.2264  0.2150
  463MOL0     C63779   1.460   5.761  11.857  0.2872  0.1873 -0.3841
  463MOL0     O63780   1.569   5.752  11.771 -0.0032 -0.9218 -0.6152
  463MOL0     C63781   1.682   5.828  11.795 -0.5172 -0.1348 -0.4281
  463MOL0     C63782   1.780   5.847  11.693 -0.5548 -0.0861 -0.3739
  463MOL0     C63783   1.901   5.925  11.708  0.5303 -0.8159  0.3469
  463MOL0     C63784   1.991   5.941  11.596  0.2363  1.0455 -0.4359
  463MOL0     C63785   1.935   5.984  11.837  0.2714 -0.0655  0.7568
  463MOL0     C63786   2.054   6.051  11.875  0.2284  0.3524  0.3430
  463MOL0     O63787   2.095   6.044  12.005 -0.1947 -0.3827 -0.2553
  463MOL0     C63788   2.212   6.111  12.045  0.8052 -0.4714 -0.4084
  463MOL0     C63789   2.207   6.191  12.160  0.5861  0.0523  0.6777
  463MOL0     C63790   2.320   6.241  12.223 -0.2344 -0.1086  0.1796
  463MOL0     C63791   2.441   6.217  12.165 -0.3839  0.4610 -0.7670
  463MOL0     O63792   2.555   6.258  12.232 -0.3974  0.1667  0.6926
  463MOL0     C63793   2.649   6.334  12.157  1.0014 -0.4851 -0.7982
  463MOL0     C63794   2.787   6.315  12.217 -0.2135  1.0289 -0.5996
  463MOL0     C63795   2.896   6.387  12.140  0.2614  0.0624  0.7297
  463MOL0     C63796   3.022   6.407  12.222 -0.2870 -0.7827  0.3306
  463MOL0     C63797   3.134   6.480  12.145 -0.3051 -0.8621  0.2483
  463MOL0     C63798   3.260   6.496  12.235 -0.5978  0.2904 -0.0603
  463MOL0     C63799   3.372   6.559  12.159 -0.3284  0.3847 -0.1679
  463MOL0     C63800   3.495   6.583  12.246  0.2488  0.1835  0.0521
  463MOL0    Cl63801   3.606   6.696  12.150  0.1475 -0.2279  0.4911
  463MOL0     C63802   2.443   6.144  12.047 -0.7294 -0.0281  0.0084
  463MOL0     C63803   2.335   6.090  11.995 -0.1909 -0.2928 -0.0003
  463MOL0     O63804   2.104   6.115  11.784  0.0439 -0.0410 -0.1555
  463MOL0     C63805   1.832   5.966  11.939  0.7580  0.2012 -0.1686
  463MOL0     C63806   1.714   5.889  11.918 -0.2482  0.4098 -0.1337
  463MOL0     N63807   1.225   5.268  11.567  0.2997  0.4858  0.6589
  463MOL0     N63808   1.292   5.175  11.505  0.2275  0.6115  0.4477
  463MOL0     C63809   0.597   4.780  10.904 -0.6388 -0.1184  0.9018
  463MOL0     C63810   0.462   4.819  10.914  0.5880  0.0127  0.3195
  463MOL0     C63811   0.049   4.950  10.925 -0.8892  0.7974  0.5015
  463MOL0     C63812   0.024   4.994  11.053 -0.0812 -0.3727  0.7080
  463MOL0     C63813  -0.110   4.994  11.101 -0.0966 -0.1674 -0.2255
  463MOL0     C63814  -0.220   4.986  11.011  0.6332 -0.8366 -1.1146
  463MOL0     O63815  -0.346   5.024  11.042 -0.3648 -0.9375  0.9651
  463MOL0     C63816  -0.380   5.044  11.183 -1.1338  0.3322  0.1336
  463MOL0     C63817  -0.525   5.076  11.198  0.1497 -0.0853  0.7409
  463MOL0     C63818  -0.560   5.075  11.341 -0.0878 -0.9106  0.1944
  463MOL0     C63819  -0.707   5.136  11.356 -0.9315 -0.1840 -0.6762
  463MOL0     C63820  -0.747   5.160  11.489  0.4178  0.2864  0.7355
  463MOL0     C63821  -0.790   5.198  11.593 -0.8425 -0.2146 -0.4515
  463MOL0     C63822  -0.202   4.958  10.880  0.0618  0.5091  0.0176
  463MOL0     C63823  -0.070   4.928  10.844  0.5297 -0.2755  0.8585
  463MOL0     C63824  -0.052   4.890  10.699 -0.1279  0.3032 -0.0185
  463MOL0     H63825   0.499   5.164  10.901 -1.3135  0.1995 -1.3648
  463MOL0     H63826   0.738   5.096  10.866  1.5621  0.2905 -0.8168
  463MOL0     H63827   0.868   4.985  11.026  0.7420  0.6031 -0.4644
  463MOL0     H63828   0.962   4.994  10.871 -0.2582  0.7874 -0.0383
  463MOL0     H63829   1.003   4.793  11.084  1.4092  0.2670  0.7373
  463MOL0     H63830   1.093   4.802  10.928 -1.6879  0.4534 -2.2669
  463MOL0     H63831   1.130   5.053  11.061  2.4704  0.9024 -0.4323
  463MOL0     H63832   1.160   4.915  11.178  5.8037 -0.9045 -0.5503
  463MOL0     H63833   1.315   4.814  11.049 -1.5777 -0.9237 -1.4877
  463MOL0     H63834   1.284   4.919  10.909 -2.6353 -1.4154  0.9105
  463MOL0     H63835   1.401   5.103  11.003 -1.1053 -0.5487  0.1119
  463MOL0     H63836   1.514   4.972  11.028 -0.0619 -0.5211 -1.6360
  463MOL0     H63837   1.313   5.071  11.232 -0.8080 -1.0077 -0.7060
  463MOL0     H63838   1.428   4.939  11.256 -0.5230 -0.3677 -0.8346
  463MOL0     H63839   1.510   5.227  11.203  1.6773 -1.0909 -2.4334
  463MOL0     H63840   1.625   5.099  11.228  0.2649  1.7527  0.5928
  463MOL0     H63841   1.532   5.079  11.472 -3.0641  1.4363  2.7313
  463MOL0     H63842   1.609   5.236  11.423 -0.3550 -0.8002 -0.2755
  463MOL0     H63843   1.473   5.443  11.451 -0.0672  0.8934  1.1103
  463MOL0     H63844   1.192   5.509  11.716  1.4093 -0.0921  1.4468
  463MOL0     H63845   1.213   5.586  11.552 -0.9332  1.4468  1.1808
  463MOL0     H63846   1.446   5.502  11.730  0.8582 -0.7437 -2.2184
  463MOL0     H63847   1.447   5.617  11.600 -0.4811  0.8276 -0.5342
  463MOL0     H63848   1.285   5.762  11.717 -1.0178  0.3743  2.0815
  463MOL0     H63849   1.265   5.670  11.857  2.2147  2.2319  2.9165
  463MOL0     H63850   1.426   5.861  11.885  1.5047  0.2861  0.8457
  463MOL0     H63851   1.472   5.706  11.950  0.7652  3.6517  1.8130
  463MOL0     H63852   1.766   5.796  11.598  0.8731 -0.5005 -0.3728
  463MOL0     H63853   1.966   5.872  11.515 -1.3067  1.4468 -0.3417
  463MOL0     H63854   2.095   5.924  11.624  0.0624  0.0752 -0.3772
  463MOL0     H63855   1.981   6.043  11.557 -0.0368  0.1188 -2.9731
  463MOL0     H63856   2.109   6.200  12.207 -1.2799 -1.9684 -2.4480
  463MOL0     H63857   2.309   6.298  12.315  1.6970 -2.0814  1.7506
  463MOL0     H63858   2.654   6.307  12.051  1.4906  2.7326 -1.7052
  463MOL0     H63859   2.626   6.441  12.162  0.8115 -0.5890  0.9771
  463MOL0     H63860   2.793   6.354  12.319  0.0941  1.0224 -0.6165
  463MOL0     H63861   2.825   6.213  12.233  1.0237  1.6902  0.9977
  463MOL0     H63862   2.870   6.488  12.107  1.5893 -0.2113 -1.3456
  463MOL0     H63863   2.914   6.345  12.041  1.3195  1.3196  0.3638
  463MOL0     H63864   3.070   6.313  12.250  1.5997 -0.3840 -1.3522
  463MOL0     H63865   3.008   6.459  12.317  1.1025  1.3493 -0.5682
  463MOL0     H63866   3.161   6.428  12.053  0.9228 -0.3194  0.2914
  463MOL0     H63867   3.105   6.584  12.129  1.5985 -0.1759  1.0386
  463MOL0     H63868   3.289   6.400  12.279 -0.5981  0.7015  0.8422
  463MOL0     H63869   3.245   6.574  12.310 -1.1477  2.7504 -2.5792
  463MOL0     H63870   3.325   6.653  12.128 -0.0801  0.4664 -0.3032
  463MOL0     H63871   3.399   6.507  12.067 -1.6090  2.7664 -2.0032
  463MOL0     H63872   3.539   6.490  12.283 -0.0395 -0.6482 -1.5615
  463MOL0     H63873   3.465   6.635  12.337  0.3582 -1.3943  1.0261
  463MOL0     H63874   2.537   6.130  11.995  0.1607 -1.2958  1.8606
  463MOL0     H63875   2.343   6.023  11.910 -3.3782 -2.7262  1.3959
  463MOL0     H63876   1.844   6.018  12.034 -1.1271  2.2089 -0.9506
  463MOL0     H63877   1.648   5.889  12.004  0.9749  1.3062  0.8406
  463MOL0     H63878   0.620   4.676  10.881 -2.8172 -0.3056 -0.7978
  463MOL0     H63879   0.394   4.736  10.926  0.3473  0.2924  0.9528
  463MOL0     H63880   0.099   5.022  11.126 -0.7629  0.1797  1.2071
  463MOL0     H63881  -0.119   5.009  11.209 -3.4477  0.1999 -0.4767
  463MOL0     H63882  -0.348   4.955  11.237 -2.2651  0.9074  1.8094
  463MOL0     H63883  -0.323   5.133  11.212 -0.6012  0.7039 -1.8902
  463MOL0     H63884  -0.581   5.001  11.142  0.0472  1.9197 -2.0332
  463MOL0     H63885  -0.540   5.171  11.147  4.0786  0.5206  0.3643
  463MOL0     H63886  -0.566   4.969  11.366 -1.6317 -1.0549 -0.6126
  463MOL0     H63887  -0.484   5.126  11.401  0.6658 -0.5835 -1.0065
  463MOL0     H63888  -0.778   5.069  11.307 -0.8396 -0.7438 -0.0580
  463MOL0     H63889  -0.716   5.238  11.317 -3.0175 -0.6752 -1.6149
  463MOL0     H63890  -0.830   5.233  11.686 -0.5600 -2.5704  0.6458
  463MOL0     H63891  -0.279   4.945  10.805  2.0469  2.7677 -2.6260
  463MOL0     H63892  -0.150   4.873  10.652 -0.5056  0.0744  0.8267
  463MOL0     H63893   0.002   4.962  10.637 -2.2869 -0.1895 -2.6662
  463MOL0     H63894  -0.011   4.789  10.696 -0.1992  0.2264  1.2614
  464MOL0     O63895   7.335   2.073   1.363 -0.2795 -0.7341 -0.3229
  464MOL0     C63896   7.242   2.053   1.448 -0.4376  0.1093  0.0374
  464MOL0     O63897   7.227   1.944   1.531  0.1888  0.5121  0.8758
  464MOL0     C63898   7.308   1.842   1.540  0.6599  0.1914 -0.4938
  464MOL0     C63899   7.371   1.792   1.424  0.3988 -0.5269 -0.5610
  464MOL0     C63900   7.462   1.686   1.430  0.6456  0.2781 -0.0608
  464MOL0     C63901   7.492   1.638   1.556  0.4841  0.7857 -0.1574
  464MOL0     O63902   7.588   1.540   1.564  0.3124  0.1428  0.4699
  464MOL0     C63903   7.684   1.552   1.665  0.4611 -0.0766 -0.9967
  464MOL0     C63904   7.777   1.441   1.640  0.4612  0.5161 -0.0468
  464MOL0     C63905   7.896   1.429   1.739  0.2537  0.3134  0.1143
  464MOL0     C63906   7.991   1.308   1.696 -0.0811 -0.3060 -0.4101
  464MOL0     C63907   8.078   1.260   1.812 -0.2241 -0.6818  0.4506
  464MOL0     C63908   8.176   1.157   1.764  0.9025  0.2165  0.1037
  464MOL0     C63909   8.313   1.190   1.824 -0.7128 -0.2930  1.0692
  464MOL0     C63910   8.418   1.075   1.792  0.8538  0.2160 -0.5373
  464MOL0     N63911   8.529   1.099   1.885  0.0542 -0.4143 -0.5951
  464MOL0     C63912   8.655   1.153   1.855  0.1249 -0.3075  0.3370
  464MOL0     C63913   8.699   1.198   1.969  1.4518  0.1713  0.1424
  464MOL0     C63914   8.815   1.284   2.001 -0.6325 -0.3806 -0.2440
  464MOL0     C63915   8.924   1.194   2.047  0.0318  0.3688 -0.3343
  464MOL0     C63916   9.057   1.271   2.052  0.0146  0.6228  0.2785
  464MOL0     C63917   9.077   1.364   2.173  1.3390  0.2441  0.3066
  464MOL0     O63918   9.197   1.443   2.155 -0.1141 -0.5315  0.4173
  464MOL0     C63919   9.325   1.386   2.142  0.4980 -0.3876 -0.6514
  464MOL0     C63920   9.415   1.420   2.049  0.4175  0.6155 -0.2350
  464MOL0     C63921   9.552   1.369   2.048 -0.4685  0.1862 -0.0978
  464MOL0     C63922   9.642   1.443   1.944  0.4588  0.1824  0.3641
  464MOL0     C63923   9.592   1.276   2.142  0.0891  0.2657  0.0520
  464MOL0     C63924   9.734   1.239   2.160 -0.6745 -0.5772 -0.3360
  464MOL0     O63925   9.829   1.290   2.081  0.0389 -0.5825  0.2582
  464MOL0     C63926   9.954   1.248   2.104  0.0069 -0.0472  0.4957
  464MOL0     C63927  10.045   1.335   2.167  0.3089 -0.1899  0.2783
  464MOL0     C63928  10.179   1.293   2.173 -0.4159 -0.3449 -0.0242
  464MOL0     C63929  10.227   1.175   2.126 -0.2907 -0.7409 -0.2471
  464MOL0     O63930  10.357   1.144   2.121  0.0356 -0.4170  0.2669
  464MOL0     C63931  10.454   1.237   2.173 -0.8004  0.3739  0.0954
  464MOL0     C63932  10.588   1.162   2.168  0.5029  0.3998 -0.1440
  464MOL0     C63933  10.612   1.055   2.274  1.0505 -0.7320 -0.3778
  464MOL0     C63934  10.749   0.997   2.259 -0.4775 -0.0175 -0.8721
  464MOL0     C63935  10.863   1.106   2.271 -0.0905 -0.2452 -1.4109
  464MOL0     C63936  11.005   1.041   2.263  0.5444  0.2592  0.2335
  464MOL0     C63937  11.044   0.940   2.360  0.5616  0.3867 -0.3610
  464MOL0     C63938  11.038   1.004   2.502 -0.5468 -0.7824  0.3285
  464MOL0    Cl63939  11.136   0.899   2.611 -0.1625  0.1736  0.1504
  464MOL0     C63940  10.141   1.081   2.079 -0.0707 -0.3359  0.0293
  464MOL0     C63941  10.004   1.124   2.069 -1.1648 -0.4823 -1.1485
  464MOL0     O63942   9.755   1.152   2.246 -1.3769  0.0803 -0.1899
  464MOL0     C63943   9.491   1.236   2.243 -0.0691 -0.9086  0.0137
  464MOL0     C63944   9.356   1.286   2.230 -0.6216  0.1587  0.6488
  464MOL0     N63945   8.610   1.162   2.069  0.2144 -0.7548  0.4167
  464MOL0     N63946   8.516   1.093   2.020  0.0383  0.0715 -0.2096
  464MOL0     C63947   7.425   1.683   1.669  0.4436  0.0850 -0.5946
  464MOL0     C63948   7.333   1.786   1.661 -0.2995  0.5958 -0.0690
  464MOL0     C63949   7.153   2.164   1.465 -0.1330  0.6704  1.2581
  464MOL0     C63950   7.106   2.222   1.351 -0.8000 -0.3984  0.3622
  464MOL0     C63951   7.017   2.325   1.358  0.5625 -0.0732 -0.3677
  464MOL0     C63952   6.958   2.366   1.482  0.2908  0.0734  0.2128
  464MOL0     O63953   6.862   2.461   1.484  0.4312 -0.0955 -0.5656
  464MOL0     C63954   6.901   2.588   1.546 -0.6127  0.5250  0.5484
  464MOL0     C63955   6.861   2.701   1.453  0.8996  0.0404  0.2853
  464MOL0     C63956   6.707   2.728   1.467 -0.7385 -0.1224 -0.1376
  464MOL0     C63957   6.672   2.849   1.380  0.4179 -0.2754 -0.7658
  464MOL0     C63958   6.746   2.969   1.421 -0.7434  0.1447  0.0300
  464MOL0     C63959   6.800   3.071   1.453 -0.3913 -0.0042 -0.5037
  464MOL0     C63960   7.010   2.315   1.597 -0.8688 -0.1273 -0.1682
  464MOL0     C63961   7.101   2.209   1.594 -0.2589 -0.1576  0.2739
  464MOL0     C63962   7.141   2.153   1.724  0.2636  0.2306 -0.4352
  464MOL0     H63963   7.347   1.832   1.326 -1.9096 -2.7243 -0.9916
  464MOL0     H63964   7.513   1.652   1.340 -0.8230  0.9753 -1.1919
  464MOL0     H63965   7.633   1.539   1.761 -3.3778  4.0271 -2.1451
  464MOL0     H63966   7.740   1.645   1.662 -0.5120  0.5422 -0.4789
  464MOL0     H63967   7.716   1.350   1.649  2.6682 -0.9101  1.6204
  464MOL0     H63968   7.817   1.443   1.538  1.0603 -1.1161  0.1150
  464MOL0     H63969   7.951   1.524   1.749  2.1621 -0.6590 -0.6105
  464MOL0     H63970   7.854   1.407   1.838 -2.9767 -0.1526 -1.2603
  464MOL0     H63971   7.925   1.223   1.679 -0.5621 -0.1440  0.5669
  464MOL0     H63972   8.056   1.333   1.612  2.9972 -4.0262  0.5962
  464MOL0     H63973   8.011   1.224   1.890 -1.1765 -0.2693 -0.1405
  464MOL0     H63974   8.131   1.350   1.845  2.1320 -1.0281 -2.0129
  464MOL0     H63975   8.147   1.056   1.796  0.2343  0.7071  1.1025
  464MOL0     H63976   8.198   1.168   1.657  1.7355 -0.8714  0.1426
  464MOL0     H63977   8.305   1.204   1.932 -0.1017  1.2599  0.9410
  464MOL0     H63978   8.341   1.291   1.794 -0.7045  0.1367  2.4462
  464MOL0     H63979   8.370   0.982   1.824  0.2417  0.5027 -0.6008
  464MOL0     H63980   8.448   1.069   1.687  1.8439 -0.8725 -0.2123
  464MOL0     H63981   8.699   1.172   1.758 -0.1386  0.2381  0.3181
  464MOL0     H63982   8.788   1.353   2.081 -2.7564 -0.3051 -0.9672
  464MOL0     H63983   8.840   1.357   1.923 -3.0407  1.6248  0.7301
  464MOL0     H63984   8.908   1.149   2.145  0.2589  1.1880  0.0891
  464MOL0     H63985   8.942   1.113   1.975 -0.3372  1.5127 -1.7678
  464MOL0     H63986   9.140   1.199   2.052 -0.2238  0.2720 -1.8888
  464MOL0     H63987   9.076   1.321   1.957  0.8980  1.0401  0.6596
  464MOL0     H63988   8.991   1.430   2.183  1.3438  0.1152  1.3618
  464MOL0     H63989   9.077   1.311   2.269  2.6798  1.3285  0.9544
  464MOL0     H63990   9.389   1.497   1.976  1.6520 -1.3556 -2.9379
  464MOL0     H63991   9.589   1.507   1.872  1.0391 -0.0221 -0.2602
  464MOL0     H63992   9.692   1.377   1.872 -2.3830 -0.4876 -1.1618
  464MOL0     H63993   9.728   1.499   1.980  1.3314 -0.8539 -0.0407
  464MOL0     H63994  10.002   1.432   2.192 -0.3882  0.0609 -1.6878
  464MOL0     H63995  10.244   1.366   2.219  0.5258 -1.1598 -0.0330
  464MOL0     H63996  10.453   1.328   2.112 -1.2557  0.6922  0.5622
  464MOL0     H63997  10.424   1.258   2.276 -2.7671  2.0874 -0.7500
  464MOL0     H63998  10.604   1.124   2.066  1.8056 -0.7048  0.4420
  464MOL0     H63999  10.661   1.241   2.190  1.2207  0.1971 -1.6374
  464MOL0     H64000  10.545   0.968   2.279 -1.8096  1.4065  1.6637
  464MOL0     H64001  10.609   1.100   2.374 -2.1136  1.0029 -1.1322
  464MOL0     H64002  10.759   0.949   2.161  2.7322  0.1893 -0.7541
  464MOL0     H64003  10.768   0.914   2.328 -1.8917 -0.6673 -1.2195
  464MOL0     H64004  10.847   1.180   2.192 -2.2998  0.0941 -0.7094
  464MOL0     H64005  10.854   1.154   2.368  0.7992  1.8762 -2.3119
  464MOL0     H64006  11.084   1.117   2.269  2.3508 -1.4354 -0.8725
  464MOL0     H64007  11.012   0.996   2.163 -0.7430 -0.8024  0.6013
  464MOL0     H64008  11.140   0.889   2.348  0.8150 -0.5734  4.0083
  464MOL0     H64009  10.969   0.861   2.350 -0.8935  1.5314  0.9324
  464MOL0     H64010  10.935   0.985   2.534 -1.6336  0.4865 -2.0727
  464MOL0     H64011  11.068   1.109   2.496 -1.5776 -0.5156 -0.6657
  464MOL0     H64012  10.187   0.985   2.057 -1.1999 -0.7199 -0.7733
  464MOL0     H64013   9.942   1.050   2.020 -0.2056 -1.1204 -1.4461
  464MOL0     H64014   9.530   1.184   2.329 -0.9552  1.8804  2.2767
  464MOL0     H64015   9.284   1.241   2.298 -0.7882 -0.9704 -0.2457
  464MOL0     H64016   7.445   1.642   1.768 -0.7371 -0.1373 -0.4352
  464MOL0     H64017   7.297   1.826   1.755  3.4876 -0.2777  1.9855
  464MOL0     H64018   7.148   2.197   1.254 -2.1900  0.2731 -0.4477
  464MOL0     H64019   6.978   2.383   1.275  0.0244  0.6819  0.3881
  464MOL0     H64020   6.852   2.598   1.643  0.8207  1.6741  1.1909
  464MOL0     H64021   7.006   2.590   1.577 -1.3023 -1.2390  3.2399
  464MOL0     H64022   6.886   2.679   1.349 -4.0228 -0.6256 -0.9765
  464MOL0     H64023   6.914   2.789   1.492  0.8057 -0.0694  0.6626
  464MOL0     H64024   6.647   2.644   1.430  0.2585  0.0570 -2.2723
  464MOL0     H64025   6.694   2.758   1.572  0.2050  1.3282 -0.4101
  464MOL0     H64026   6.568   2.877   1.398  0.4745  0.1823 -1.1421
  464MOL0     H64027   6.689   2.819   1.276  0.8805 -0.8167 -0.5403
  464MOL0     H64028   6.840   3.169   1.469  0.1413 -0.3067  0.0768
  464MOL0     H64029   6.983   2.362   1.691  3.0590  1.4177  0.4042
  464MOL0     H64030   7.115   2.047   1.721  0.7574  0.1043 -0.3060
  464MOL0     H64031   7.249   2.170   1.735  1.1700 -2.3648 -3.7251
  464MOL0     H64032   7.088   2.190   1.812  1.8478  0.3335  0.5173
  465MOL0     O64033  10.592   0.968   7.436 -0.1743  0.5026  0.0611
  465MOL0     C64034  10.603   1.035   7.327 -0.1331 -0.0141 -0.1495
  465MOL0     O64035  10.713   1.047   7.248 -0.1928 -0.1955 -0.0285
  465MOL0     C64036  10.842   1.006   7.278  1.1351  0.2205  0.0072
  465MOL0     C64037  10.879   0.932   7.396 -0.2607 -0.8368  0.5044
  465MOL0     C64038  11.007   0.878   7.420 -0.0064 -0.7723 -0.3505
  465MOL0     C64039  11.105   0.902   7.327  0.7903 -0.0810  0.3393
  465MOL0     O64040  11.232   0.857   7.339 -0.5176  0.5326  0.2269
  465MOL0     C64041  11.303   0.942   7.434  0.4638  0.3029 -0.3193
  465MOL0     C64042  11.433   0.868   7.471  0.0331 -0.4684 -0.4084
  465MOL0     C64043  11.420   0.726   7.519 -0.8386 -0.5158 -0.5908
  465MOL0     C64044  11.563   0.662   7.530 -0.3464  0.3744 -0.2920
  465MOL0     C64045  11.546   0.522   7.575  0.2002 -0.3680  0.3471
  465MOL0     C64046  11.667   0.439   7.612 -0.8515 -0.2226  0.0063
  465MOL0     C64047  11.646   0.303   7.644  0.0684  1.9248  0.1237
  465MOL0     C64048  11.768   0.206   7.640  0.3748 -0.2456  0.2449
  465MOL0     N64049  11.886   0.254   7.716 -0.6985  0.0984  1.1556
  465MOL0     C64050  11.888   0.274   7.851 -0.2877 -0.1022 -0.5769
  465MOL0     C64051  12.004   0.335   7.885  0.6392 -0.6085 -0.0025
  465MOL0     C64052  12.028   0.380   8.025  0.4239 -0.4144  0.5475
  465MOL0     C64053  12.174   0.401   8.051  0.0320 -0.1517  0.4284
  465MOL0     C64054  12.204   0.432   8.198  0.3789 -0.0247 -0.0469
  465MOL0     C64055  12.340   0.491   8.207  0.5817 -0.0835  0.2235
  465MOL0     O64056  12.433   0.396   8.167 -0.2727  0.2229  0.6216
  465MOL0     C64057  12.560   0.421   8.202 -0.0349  1.2025 -0.2284
  465MOL0     C64058  12.631   0.530   8.156  0.4115 -0.0816 -0.3504
  465MOL0     C64059  12.766   0.550   8.188 -1.0284 -0.0932 -0.5983
  465MOL0     C64060  12.831   0.681   8.148 -0.5360  0.3430  0.0832
  465MOL0     C64061  12.838   0.446   8.262 -0.4421  0.4667  0.4738
  465MOL0     C64062  12.980   0.451   8.308 -0.4362  0.2674  1.0673
  465MOL0     O64063  13.032   0.339   8.370  0.6066  0.9219 -0.2254
  465MOL0     C64064  13.166   0.331   8.401 -0.0365  1.5683 -1.4052
  465MOL0     C64065  13.199   0.282   8.537 -0.5098 -0.0096  0.3669
  465MOL0     C64066  13.335   0.265   8.574  0.9298  0.4609  0.3841
  465MOL0     C64067  13.440   0.294   8.489 -0.6190 -0.5545  0.2176
  465MOL0     O64068  13.567   0.274   8.532 -0.0751  0.5838  0.4952
  465MOL0     C64069  13.676   0.363   8.493 -0.5000  0.3017 -0.0551
  465MOL0     C64070  13.809   0.314   8.559  0.3655  0.2179 -0.1517
  465MOL0     C64071  13.932   0.403   8.523  0.0982 -0.4897 -0.6832
  465MOL0     C64072  13.911   0.547   8.564 -0.9352  0.5262  0.0716
  465MOL0     C64073  14.043   0.627   8.562  1.1962  0.0309 -0.3353
  465MOL0     C64074  14.031   0.763   8.634  0.3896 -0.5444 -0.7387
  465MOL0     C64075  14.159   0.843   8.646 -0.0600 -0.1487 -0.4230
  465MOL0     C64076  14.146   0.969   8.733  0.0049 -0.4531 -0.7271
  465MOL0    Cl64077  14.060   1.109   8.656 -0.3173  0.3131  0.1592
  465MOL0     C64078  13.409   0.361   8.368 -0.0752  0.2160 -0.7484
  465MOL0     C64079  13.275   0.368   8.325 -0.5248 -0.3624  0.0320
  465MOL0     O64080  13.047   0.549   8.279  0.6373 -0.7551  0.9892
  465MOL0     C64081  12.766   0.339   8.302  0.2695  0.6093 -0.0021
  465MOL0     C64082  12.627   0.322   8.276 -0.4917 -0.5590 -0.4281
  465MOL0     N64083  12.071   0.362   7.767  0.1059  0.0909  0.8235
  465MOL0     N64084  11.998   0.314   7.669  0.7141 -0.5529 -0.5737
  465MOL0     C64085  11.080   0.975   7.208  0.9930  1.1251  0.4809
  465MOL0     C64086  10.945   1.026   7.185 -0.7254  0.4467 -0.1385
  465MOL0     C64087  10.478   1.109   7.279  0.1711  0.0633  0.1782
  465MOL0     C64088  10.501   1.188   7.166  0.0286  0.6662 -0.1021
  465MOL0     C64089  10.385   1.244   7.101 -0.5387  0.3989  0.5162
  465MOL0     C64090  10.257   1.235   7.154  0.4474 -0.5837 -0.0136
  465MOL0     O64091  10.152   1.279   7.091  0.9357 -0.3019 -0.7378
  465MOL0     C64092  10.172   1.382   6.997 -0.2247  0.2309 -0.0151
  465MOL0     C64093  10.046   1.468   6.989 -0.1540  0.0280  0.4961
  465MOL0     C64094  10.053   1.594   6.899 -0.5334  1.1475 -0.2362
  465MOL0     C64095   9.928   1.663   6.861  0.4954 -0.2116 -0.5314
  465MOL0     C64096   9.864   1.735   6.982 -0.5593 -0.0298  1.3684
  465MOL0     C64097   9.809   1.785   7.075  0.6797 -0.2532 -0.4843
  465MOL0     C64098  10.245   1.163   7.269 -0.2656  0.1053 -0.4958
  465MOL0     C64099  10.353   1.100   7.341  0.4943 -1.4312  0.0942
  465MOL0     C64100  10.314   1.007   7.455 -0.3671 -0.0648  0.7496
  465MOL0     H64101  10.807   0.902   7.471  3.1077 -2.7069  3.3358
  465MOL0     H64102  11.024   0.838   7.519  3.2005  0.2895 -0.3574
  465MOL0     H64103  11.241   0.945   7.525 -2.0412 -1.7088 -1.8328
  465MOL0     H64104  11.313   1.042   7.390  1.6695  0.0859 -0.5616
  465MOL0     H64105  11.493   0.869   7.380  1.7097  1.7836  0.6460
  465MOL0     H64106  11.480   0.934   7.544  0.4369  0.5213 -1.5425
  465MOL0     H64107  11.378   0.723   7.620 -0.2476 -0.9403 -0.3480
  465MOL0     H64108  11.356   0.663   7.457  0.6236 -3.4914  0.7186
  465MOL0     H64109  11.586   0.659   7.423 -2.1504 -0.4870 -0.6975
  465MOL0     H64110  11.632   0.714   7.596 -0.4286 -2.1297  1.9472
  465MOL0     H64111  11.495   0.471   7.493  0.7025  1.3777 -1.1179
  465MOL0     H64112  11.478   0.523   7.660  0.9316 -0.1330  0.9360
  465MOL0     H64113  11.736   0.433   7.527  2.7335  0.9058  2.5657
  465MOL0     H64114  11.707   0.496   7.696 -4.5665  4.3927 -0.9569
  465MOL0     H64115  11.578   0.263   7.568  2.1495 -1.2317 -0.3112
  465MOL0     H64116  11.597   0.294   7.741 -0.3208  0.6073 -0.1757
  465MOL0     H64117  11.741   0.108   7.680 -2.2978  0.0820 -0.5643
  465MOL0     H64118  11.800   0.214   7.536  2.4938  3.0612  1.0032
  465MOL0     H64119  11.818   0.226   7.920  1.9423 -1.4179  0.8994
  465MOL0     H64120  11.983   0.314   8.100 -0.8158 -0.4730 -0.2199
  465MOL0     H64121  11.989   0.481   8.037  1.0480  0.4844 -3.5727
  465MOL0     H64122  12.232   0.321   8.003 -0.0087 -0.1702  0.4104
  465MOL0     H64123  12.202   0.486   7.988 -0.9365 -0.1779 -0.0560
  465MOL0     H64124  12.128   0.506   8.225 -1.6005 -0.6769 -3.2495
  465MOL0     H64125  12.187   0.341   8.257 -2.0066 -0.4132 -1.2121
  465MOL0     H64126  12.345   0.584   8.151 -0.1550 -0.1438  0.0461
  465MOL0     H64127  12.364   0.520   8.310  2.8516 -0.0137 -0.2745
  465MOL0     H64128  12.583   0.606   8.097  1.8515  1.3169  0.2057
  465MOL0     H64129  12.929   0.656   8.105 -0.3040  0.5898  0.4640
  465MOL0     H64130  12.849   0.739   8.239 -2.6967 -1.1472  1.5489
  465MOL0     H64131  12.771   0.735   8.074  0.3412 -0.1355 -1.0229
  465MOL0     H64132  13.106   0.250   8.585 -1.0695 -0.2666 -0.8349
  465MOL0     H64133  13.369   0.217   8.665 -0.2303  0.0950  0.6308
  465MOL0     H64134  13.681   0.363   8.384  1.6111 -3.2109 -0.1171
  465MOL0     H64135  13.656   0.458   8.542 -0.2024  0.2015  0.2667
  465MOL0     H64136  13.794   0.306   8.667 -3.3188  2.2502 -0.3453
  465MOL0     H64137  13.823   0.215   8.516  0.1901 -0.7234  1.8277
  465MOL0     H64138  13.953   0.388   8.416  0.2163 -1.1428 -0.5714
  465MOL0     H64139  14.014   0.365   8.584 -0.0639  3.7752  2.6181
  465MOL0     H64140  13.858   0.559   8.660 -1.1768  3.9032 -0.3321
  465MOL0     H64141  13.844   0.596   8.492  0.2699  0.0185 -1.4234
  465MOL0     H64142  14.121   0.571   8.616  0.6845  1.1347  1.6421
  465MOL0     H64143  14.069   0.633   8.456 -0.1408 -2.2462 -0.8777
  465MOL0     H64144  13.983   0.758   8.732 -1.7656 -1.0166 -1.7598
  465MOL0     H64145  13.957   0.814   8.572  0.3425 -1.8864 -1.8456
  465MOL0     H64146  14.193   0.875   8.547  0.2157 -1.2249 -0.6934
  465MOL0     H64147  14.234   0.782   8.698  0.1088 -0.7502 -1.3611
  465MOL0     H64148  14.250   0.998   8.752  0.2823 -1.1146 -1.2163
  465MOL0     H64149  14.092   0.952   8.826 -1.1462  0.1075 -1.2735
  465MOL0     H64150  13.477   0.396   8.291  1.4406 -1.1602 -0.0828
  465MOL0     H64151  13.265   0.410   8.226  2.2255  2.4182  0.7573
  465MOL0     H64152  12.803   0.256   8.362 -3.1891 -0.7943  0.4804
  465MOL0     H64153  12.580   0.234   8.319  2.5299 -2.1455 -0.0527
  465MOL0     H64154  11.159   0.984   7.134 -0.0195  0.9717 -0.6418
  465MOL0     H64155  10.911   1.047   7.084 -0.4938 -3.3862 -1.1768
  465MOL0     H64156  10.598   1.196   7.118 -0.3505  5.5105 -0.5671
  465MOL0     H64157  10.416   1.290   7.007  1.4688  0.8296  1.3315
  465MOL0     H64158  10.247   1.456   7.027 -1.7948  1.7682  0.2935
  465MOL0     H64159  10.187   1.346   6.896 -0.4466  1.2814 -0.4396
  465MOL0     H64160  10.006   1.489   7.089 -3.6010  0.9040 -0.9146
  465MOL0     H64161   9.973   1.401   6.941  1.4525 -0.9320 -0.7066
  465MOL0     H64162  10.105   1.669   6.959 -1.3114  0.7212  1.0021
  465MOL0     H64163  10.113   1.570   6.811  1.8648  1.0516  1.3379
  465MOL0     H64164   9.855   1.586   6.837 -2.3830  1.3861  2.3229
  465MOL0     H64165   9.938   1.741   6.785 -1.5395 -1.5050 -2.2218
  465MOL0     H64166   9.763   1.839   7.155 -0.5650  0.0126 -1.3577
  465MOL0     H64167  10.146   1.148   7.312  0.6429  1.1679  2.1501
  465MOL0     H64168  10.369   1.035   7.545  0.3903 -0.6986  0.4940
  465MOL0     H64169  10.212   1.021   7.491  0.0404  0.7790  1.6112
  465MOL0     H64170  10.327   0.902   7.427 -2.3606 -0.9678  2.9005
  466MOL0     O64171   6.858   1.007   0.428 -0.4570  0.7592 -0.7021
  466MOL0     C64172   6.938   0.924   0.472  0.4672  0.4483  0.1824
  466MOL0     O64173   6.918   0.792   0.479 -0.5179 -0.1949  0.0330
  466MOL0     C64174   6.790   0.742   0.462 -0.9748 -0.3503 -0.8872
  466MOL0     C64175   6.678   0.791   0.530 -0.3200  0.5557  0.1861
  466MOL0     C64176   6.551   0.731   0.517 -0.3048 -0.0672 -0.4451
  466MOL0     C64177   6.536   0.614   0.432  0.1132  0.2221  1.7821
  466MOL0     O64178   6.417   0.553   0.428  1.1176  0.2651 -0.4028
  466MOL0     C64179   6.411   0.417   0.486 -0.2644  0.3325 -1.0530
  466MOL0     C64180   6.391   0.413   0.643 -0.1717 -0.5969  0.2773
  466MOL0     C64181   6.527   0.418   0.716 -0.0670 -0.5533 -0.3011
  466MOL0     C64182   6.600   0.285   0.720  0.3904  0.1433  0.1604
  466MOL0     C64183   6.729   0.293   0.802  0.3598 -0.4739 -0.3508
  466MOL0     C64184   6.790   0.154   0.821  0.2284  0.9234 -0.0728
  466MOL0     C64185   6.906   0.169   0.919  0.4136  0.1048  1.3259
  466MOL0     C64186   6.979   0.031   0.935 -0.0219 -0.2302 -0.2379
  466MOL0     N64187   7.082   0.002   0.829 -0.6330 -0.4509 -0.5832
  466MOL0     C64188   7.070  -0.023   0.693  1.4368  0.0419 -0.4528
  466MOL0     C64189   7.193  -0.025   0.635 -0.0044  0.0341  0.2070
  466MOL0     C64190   7.234  -0.034   0.491 -0.1132  0.2211  0.7594
  466MOL0     C64191   7.114   0.006   0.390  0.0357  0.0389  0.1444
  466MOL0     C64192   7.150  -0.003   0.238 -0.3232 -0.1795  0.4226
  466MOL0     C64193   7.295   0.032   0.204 -0.2900  0.5934  0.2509
  466MOL0     O64194   7.320   0.168   0.250  0.2267  0.5038  0.1107
  466MOL0     C64195   7.452   0.211   0.246 -0.5944  0.1546  0.7567
  466MOL0     C64196   7.551   0.157   0.172 -0.6092  0.3452 -0.4166
  466MOL0     C64197   7.682   0.200   0.181  0.1099  0.4910  0.5381
  466MOL0     C64198   7.785   0.125   0.096  0.8670  0.1058  0.0931
  466MOL0     C64199   7.713   0.315   0.258  0.5831 -0.1064 -0.5678
  466MOL0     C64200   7.840   0.380   0.253 -0.4308 -0.2377  0.6855
  466MOL0     O64201   7.871   0.447   0.367  0.0973  0.4360 -0.3315
  466MOL0     C64202   7.978   0.533   0.378  0.0334  0.0756 -0.3512
  466MOL0     C64203   7.967   0.676   0.357  0.1291  0.1002  0.8311
  466MOL0     C64204   8.071   0.759   0.371  0.1417 -0.4601 -0.3497
  466MOL0     C64205   8.191   0.706   0.415 -0.4193 -0.7053  0.3528
  466MOL0     O64206   8.300   0.783   0.452 -0.2275  0.5708 -0.5093
  466MOL0     C64207   8.283   0.921   0.441 -0.1126 -0.3771  0.1516
  466MOL0     C64208   8.416   0.987   0.477  0.5519 -1.0535 -0.1294
  466MOL0     C64209   8.537   0.913   0.428  0.0018 -0.5358 -0.1452
  466MOL0     C64210   8.655   0.997   0.400 -0.3443  0.1663  0.3280
  466MOL0     C64211   8.786   0.916   0.365 -0.2955  0.1549 -0.4086
  466MOL0     C64212   8.896   1.017   0.319 -0.4127  0.0947  0.2528
  466MOL0     C64213   9.009   0.938   0.243  0.4259  0.0701 -0.4975
  466MOL0     C64214   9.118   1.027   0.186  0.9301 -0.3667 -0.8697
  466MOL0    Cl64215   9.173   1.137   0.314  0.6422 -0.0729  0.0085
  466MOL0     C64216   8.210   0.574   0.433 -1.2941  0.3655  0.3031
  466MOL0     C64217   8.102   0.481   0.414  0.2861 -0.1530 -0.2901
  466MOL0     O64218   7.886   0.396   0.138 -0.0788  0.1535  0.2087
  466MOL0     C64219   7.615   0.356   0.352 -0.1934 -1.4023 -0.5722
  466MOL0     C64220   7.484   0.308   0.343 -0.9442  1.2342  0.8671
  466MOL0     N64221   7.281   0.010   0.739 -0.3230 -0.3378  0.0401
  466MOL0     N64222   7.212   0.031   0.847 -0.4800  0.3575  0.2406
  466MOL0     C64223   6.650   0.574   0.361  0.5993 -0.4920  0.1931
  466MOL0     C64224   6.771   0.640   0.378  0.4833 -0.4833  0.0467
  466MOL0     C64225   7.061   0.976   0.528  0.0563 -0.7449 -0.0217
  466MOL0     C64226   7.051   1.080   0.620 -0.1440 -0.0204 -0.2518
  466MOL0     C64227   7.151   1.133   0.698 -0.4143 -0.2764  0.1668
  466MOL0     C64228   7.278   1.079   0.689  0.3510 -0.7194 -0.3480
  466MOL0     O64229   7.381   1.122   0.768  0.7175 -0.1518  0.2044
  466MOL0     C64230   7.515   1.079   0.744  0.1246 -0.4988  0.1123
  466MOL0     C64231   7.545   0.937   0.785  0.5977  0.1907  0.1015
  466MOL0     C64232   7.678   0.884   0.741 -1.0993 -0.0539 -0.0871
  466MOL0     C64233   7.690   0.847   0.589 -0.2563 -0.1121 -0.2821
  466MOL0     C64234   7.594   0.753   0.539 -0.2877 -0.6028  0.4634
  466MOL0     C64235   7.525   0.678   0.478  0.2197  0.3403  0.6363
  466MOL0     C64236   7.291   0.982   0.585  0.0436  0.2351 -1.0229
  466MOL0     C64237   7.188   0.929   0.512 -0.3297 -0.9724 -0.5713
  466MOL0     C64238   7.220   0.854   0.384  0.6019  0.8322  0.8965
  466MOL0     H64239   6.683   0.880   0.592  0.8693  0.7737 -0.1849
  466MOL0     H64240   6.459   0.758   0.567 -0.8944 -2.6368  0.0188
  466MOL0     H64241   6.496   0.353   0.460 -0.6565 -0.5606 -0.1829
  466MOL0     H64242   6.319   0.370   0.450 -0.2490  1.4157 -2.5899
  466MOL0     H64243   6.318   0.491   0.663 -1.8291 -1.6424 -1.3665
  466MOL0     H64244   6.334   0.324   0.673 -0.5040  0.6216  3.8045
  466MOL0     H64245   6.589   0.495   0.669  0.1974  0.8002  2.1106
  466MOL0     H64246   6.508   0.440   0.822  1.0576  4.6134 -0.8924
  466MOL0     H64247   6.524   0.222   0.768  0.2909 -1.5451 -2.0709
  466MOL0     H64248   6.621   0.240   0.623 -0.7115 -2.8603  1.1910
  466MOL0     H64249   6.708   0.350   0.893  2.0589 -0.0172 -0.1981
  466MOL0     H64250   6.812   0.347   0.755  1.2529 -0.1675  1.4774
  466MOL0     H64251   6.713   0.101   0.877 -0.5240  1.4376 -0.5915
  466MOL0     H64252   6.810   0.100   0.728  2.9363  1.3879  0.1629
  466MOL0     H64253   6.866   0.198   1.016 -0.8870 -1.3965  1.2788
  466MOL0     H64254   6.975   0.242   0.875 -0.1500  0.5636  1.1931
  466MOL0     H64255   7.022   0.033   1.035  2.3795  3.0116 -1.1798
  466MOL0     H64256   6.907  -0.051   0.920 -1.2867  1.0819 -1.6868
  466MOL0     H64257   6.973  -0.033   0.646  0.7950  4.4955 -0.4885
  466MOL0     H64258   7.281  -0.132   0.476  3.0810  1.8665 -0.8728
  466MOL0     H64259   7.322   0.026   0.465 -1.5195  1.9561 -0.2489
  466MOL0     H64260   7.023  -0.049   0.417 -0.1223 -0.2649 -0.9690
  466MOL0     H64261   7.085   0.110   0.402  1.8046  0.6515 -0.6274
  466MOL0     H64262   7.146  -0.109   0.214 -0.6465 -0.0046 -0.3076
  466MOL0     H64263   7.085   0.048   0.167  3.5426  3.0685 -1.1976
  466MOL0     H64264   7.367  -0.036   0.250  0.1785 -0.5405 -1.9908
  466MOL0     H64265   7.314   0.048   0.097 -0.7896  3.4621  0.5269
  466MOL0     H64266   7.536   0.070   0.109  2.6935 -1.9651  1.6390
  466MOL0     H64267   7.870   0.113   0.163 -0.1362  0.0119  1.3905
  466MOL0     H64268   7.823   0.174   0.006  3.2198 -4.0051 -1.4357
  466MOL0     H64269   7.751   0.022   0.080  1.2590 -0.3668  2.0521
  466MOL0     H64270   7.867   0.715   0.337 -0.6091  0.0644  4.0138
  466MOL0     H64271   8.047   0.862   0.347 -2.5332 -0.5609  1.4567
  466MOL0     H64272   8.249   0.933   0.337 -3.7233 -2.1674  0.9751
  466MOL0     H64273   8.195   0.949   0.499 -0.5116 -0.2149 -0.5142
  466MOL0     H64274   8.423   1.087   0.432 -0.4823 -0.3043  1.2981
  466MOL0     H64275   8.416   0.998   0.586 -0.7864 -0.0982 -0.1975
  466MOL0     H64276   8.513   0.856   0.337  3.3941  2.1110 -2.9693
  466MOL0     H64277   8.573   0.850   0.511  2.2033  1.9848  0.9526
  466MOL0     H64278   8.685   1.058   0.486 -0.1090  0.7490 -0.1577
  466MOL0     H64279   8.630   1.061   0.315  2.1008  2.4259  1.1344
  466MOL0     H64280   8.833   0.865   0.449  0.5814  3.1129  1.0361
  466MOL0     H64281   8.768   0.850   0.280  2.3447 -1.4613  0.1754
  466MOL0     H64282   8.931   1.082   0.400 -0.2653  0.1113  0.1769
  466MOL0     H64283   8.850   1.077   0.240 -2.3095 -1.1571  0.3636
  466MOL0     H64284   8.980   0.865   0.167  1.7469 -1.8032  0.6929
  466MOL0     H64285   9.062   0.869   0.310 -0.9601 -0.1909  0.3600
  466MOL0     H64286   9.095   1.083   0.095  1.3363  0.6823 -0.3348
  466MOL0     H64287   9.200   0.966   0.147  0.2299  0.0707 -3.1985
  466MOL0     H64288   8.307   0.541   0.467 -0.0540  3.1144 -0.2815
  466MOL0     H64289   8.122   0.377   0.437 -3.3167 -0.3941  2.6455
  466MOL0     H64290   7.635   0.428   0.431  1.0788 -2.9567  0.5917
  466MOL0     H64291   7.402   0.323   0.412 -2.0971 -0.7156 -0.0217
  466MOL0     H64292   6.649   0.483   0.302  0.8785 -0.2491 -0.1931
  466MOL0     H64293   6.856   0.589   0.333  0.5663  0.2982 -0.7230
  466MOL0     H64294   6.955   1.119   0.652 -0.0681 -0.0377  0.0008
  466MOL0     H64295   7.115   1.209   0.767 -2.3053  0.1892 -1.2387
  466MOL0     H64296   7.539   1.091   0.638  1.2698  0.3010  0.4395
  466MOL0     H64297   7.584   1.147   0.795 -2.3036  1.9876  0.2712
  466MOL0     H64298   7.472   0.870   0.738 -1.2406  1.0062  1.6736
  466MOL0     H64299   7.511   0.936   0.889  0.5907 -2.1281  0.1348
  466MOL0     H64300   7.738   0.974   0.756 -0.3210  0.1614 -3.5860
  466MOL0     H64301   7.709   0.803   0.808 -1.7636  0.2710  0.6159
  466MOL0     H64302   7.787   0.796   0.584  0.9208  1.8002  1.3158
  466MOL0     H64303   7.685   0.946   0.542 -3.1365  1.4967  2.9034
  466MOL0     H64304   7.470   0.623   0.404  1.3487  1.3346 -1.0149
  466MOL0     H64305   7.387   0.942   0.554 -0.3669 -1.2554 -0.4651
  466MOL0     H64306   7.213   0.746   0.405  0.3134  0.6943  0.1155
  466MOL0     H64307   7.158   0.879   0.298  1.3081 -1.8852 -0.5232
  466MOL0     H64308   7.320   0.882   0.347  1.8225 -1.8543  1.8885
  467MOL0     O64309   8.431   2.241   5.844  0.1914 -0.2055 -0.6252
  467MOL0     C64310   8.468   2.306   5.940 -0.5702 -0.0369 -0.5535
  467MOL0     O64311   8.570   2.268   6.020 -0.2478 -0.2655 -0.0914
  467MOL0     C64312   8.651   2.175   5.963  0.4220  0.4241 -0.3933
  467MOL0     C64313   8.762   2.229   5.900  0.1691  0.4992 -0.0536
  467MOL0     C64314   8.830   2.146   5.811 -0.5904  0.5181 -0.8765
  467MOL0     C64315   8.803   2.004   5.812  0.1406 -0.2110 -0.7799
  467MOL0     O64316   8.875   1.905   5.747  0.3130 -0.9817  0.4712
  467MOL0     C64317   9.017   1.918   5.717  0.5233 -0.1766  0.6872
  467MOL0     C64318   9.107   1.907   5.840 -0.1952 -0.7038  0.7530
  467MOL0     C64319   9.258   1.864   5.801  0.2244 -0.6608 -0.2212
  467MOL0     C64320   9.337   1.838   5.937  0.1754 -0.8158  0.1021
  467MOL0     C64321   9.488   1.825   5.919  0.1736  0.0993  0.7053
  467MOL0     C64322   9.540   1.781   6.053 -0.2495  0.0960  0.1404
  467MOL0     C64323   9.695   1.767   6.031  0.0096 -0.3137  0.4475
  467MOL0     C64324   9.772   1.705   6.144 -0.3924 -0.2211  0.2374
  467MOL0     N64325   9.912   1.690   6.133 -0.1556  0.2560 -0.0823
  467MOL0     C64326   9.974   1.585   6.067 -0.1505  0.9496 -1.2143
  467MOL0     C64327  10.098   1.583   6.111  0.7783  0.1478  0.4624
  467MOL0     C64328  10.189   1.481   6.051  0.8834  0.5997 -0.2830
  467MOL0     C64329  10.312   1.450   6.138 -0.4079 -1.6621 -0.1441
  467MOL0     C64330  10.396   1.358   6.053 -0.3139 -0.1294  0.0113
  467MOL0     C64331  10.529   1.305   6.112 -0.4627 -0.0922 -0.5654
  467MOL0     O64332  10.610   1.422   6.144 -0.7142 -0.0690  0.4602
  467MOL0     C64333  10.713   1.419   6.235  0.0847 -0.2053 -0.0590
  467MOL0     C64334  10.782   1.535   6.270  0.7229 -0.2462  0.9994
  467MOL0     C64335  10.891   1.529   6.360  0.0656 -0.5859 -0.1454
  467MOL0     C64336  10.941   1.664   6.405  0.2958  0.1340  0.4555
  467MOL0     C64337  10.939   1.406   6.418  0.1396  0.0493  0.0419
  467MOL0     C64338  11.056   1.391   6.501 -0.2440 -0.2325 -0.4746
  467MOL0     O64339  11.051   1.291   6.605 -0.1384  0.1537  0.7607
  467MOL0     C64340  11.166   1.261   6.668  1.0269 -0.3077  0.0557
  467MOL0     C64341  11.150   1.267   6.805  0.4070  0.9230 -0.5231
  467MOL0     C64342  11.254   1.253   6.889 -0.7592  0.5362 -0.6299
  467MOL0     C64343  11.381   1.214   6.842 -0.4153 -0.4970  0.4684
  467MOL0     O64344  11.491   1.194   6.922  0.4186 -0.5959 -0.0147
  467MOL0     C64345  11.477   1.161   7.062  0.4702 -0.5760 -0.2671
  467MOL0     C64346  11.605   1.144   7.143 -0.2391 -0.2625  0.4168
  467MOL0     C64347  11.687   1.274   7.145  0.5972 -0.4833 -0.6669
  467MOL0     C64348  11.822   1.257   7.204  0.2595  0.5160  0.4276
  467MOL0     C64349  11.828   1.283   7.353 -0.1696 -0.8216 -0.4583
  467MOL0     C64350  11.947   1.220   7.412  0.0781 -0.0697 -0.4634
  467MOL0     C64351  11.979   1.255   7.560 -0.2297  0.2460  0.2029
  467MOL0     C64352  12.104   1.188   7.623 -0.0367  0.6364 -0.1129
  467MOL0    Cl64353  12.241   1.292   7.585 -0.1061  0.0249  0.1267
  467MOL0     C64354  11.394   1.192   6.705  0.2373  0.6373 -0.1349
  467MOL0     C64355  11.290   1.226   6.614  0.9892  0.3767  0.0592
  467MOL0     O64356  11.152   1.463   6.482  0.3975 -0.3410  0.4667
  467MOL0     C64357  10.877   1.295   6.361 -0.2807 -0.0495 -0.8542
  467MOL0     C64358  10.774   1.298   6.274  0.6018 -0.9697  0.0159
  467MOL0     N64359  10.118   1.685   6.204  0.5712  0.4241 -0.3548
  467MOL0     N64360  10.007   1.762   6.198 -0.7957  0.4488  0.2671
  467MOL0     C64361   8.698   1.954   5.886  0.1624 -0.4812 -0.7862
  467MOL0     C64362   8.627   2.039   5.979  0.1493 -0.3662 -0.1489
  467MOL0     C64363   8.389   2.427   5.965  0.0898 -0.0879  0.0100
  467MOL0     C64364   8.252   2.433   5.922 -0.4866  0.2060  0.0103
  467MOL0     C64365   8.172   2.538   5.966  0.4419  0.4325 -0.2513
  467MOL0     C64366   8.218   2.648   6.030  0.2214  0.8407 -0.4058
  467MOL0     O64367   8.122   2.725   6.077  0.0008  0.0645  0.6374
  467MOL0     C64368   8.150   2.855   6.116 -0.9031 -0.4374  0.5784
  467MOL0     C64369   8.152   2.939   5.989 -0.4226  0.2023 -0.4433
  467MOL0     C64370   8.146   3.093   5.996 -0.2956  0.2755 -0.0951
  467MOL0     C64371   8.220   3.159   5.880 -0.4426  0.0081  0.2840
  467MOL0     C64372   8.201   3.090   5.755 -0.3253  0.5802  0.5949
  467MOL0     C64373   8.163   3.042   5.653  0.3583 -0.2977  0.2351
  467MOL0     C64374   8.352   2.648   6.070 -0.5857 -0.0467  0.6026
  467MOL0     C64375   8.439   2.543   6.041 -0.3602 -0.8429  0.1459
  467MOL0     C64376   8.579   2.558   6.091 -0.3940 -0.0535  0.4661
  467MOL0     H64377   8.788   2.335   5.898  2.8806 -0.0744  0.3821
  467MOL0     H64378   8.913   2.189   5.757  2.1347 -1.8597  1.0734
  467MOL0     H64379   9.042   2.008   5.660  1.2970 -0.2242  0.9376
  467MOL0     H64380   9.031   1.834   5.649 -1.8784 -0.9752  1.0695
  467MOL0     H64381   9.117   2.001   5.896  2.2439 -0.5648  0.1943
  467MOL0     H64382   9.066   1.833   5.910  0.0008 -0.4966  1.0919
  467MOL0     H64383   9.253   1.775   5.738 -4.6979  0.3078 -1.6281
  467MOL0     H64384   9.303   1.944   5.741 -0.7746 -0.9294 -1.3443
  467MOL0     H64385   9.312   1.916   6.010  1.6193 -0.8853  0.7007
  467MOL0     H64386   9.304   1.744   5.982 -0.0463 -1.2320 -0.9160
  467MOL0     H64387   9.516   1.926   5.887 -1.3008  0.5579  0.8126
  467MOL0     H64388   9.514   1.752   5.841  1.1675  2.7908 -1.6502
  467MOL0     H64389   9.515   1.859   6.126  1.3427 -1.1781  2.1304
  467MOL0     H64390   9.487   1.691   6.086 -1.5958  0.5961 -0.5608
  467MOL0     H64391   9.730   1.870   6.019 -1.0831  0.1501  1.1221
  467MOL0     H64392   9.715   1.710   5.940  2.2611 -2.0389  1.9051
  467MOL0     H64393   9.771   1.779   6.224  1.4689  1.6762 -1.3689
  467MOL0     H64394   9.734   1.611   6.186  1.2258 -1.6644 -1.3381
  467MOL0     H64395   9.921   1.513   6.004 -0.3728  0.4483 -0.4682
  467MOL0     H64396  10.215   1.512   5.950  2.2610 -1.0137 -0.4668
  467MOL0     H64397  10.134   1.390   6.026  0.7967  0.6796 -0.3871
  467MOL0     H64398  10.371   1.542   6.147  0.1857 -2.1725  1.4296
  467MOL0     H64399  10.289   1.404   6.235 -1.5825  0.5266  0.6728
  467MOL0     H64400  10.338   1.269   6.026  0.6906 -0.4376 -1.2416
  467MOL0     H64401  10.436   1.413   5.967  0.9274 -0.6670  0.2166
  467MOL0     H64402  10.505   1.255   6.206 -3.4728  3.5542  0.8908
  467MOL0     H64403  10.578   1.229   6.049 -4.5195 -1.8929 -1.8704
  467MOL0     H64404  10.756   1.634   6.232  1.1727 -0.1042  1.0509
  467MOL0     H64405  10.865   1.741   6.388 -0.1740  0.2960  2.9774
  467MOL0     H64406  11.037   1.687   6.358  0.6688 -0.1557  1.0638
  467MOL0     H64407  10.959   1.668   6.513  1.1816  1.4915  0.2821
  467MOL0     H64408  11.058   1.299   6.852  1.3919  2.1538  0.6039
  467MOL0     H64409  11.231   1.256   6.995  4.2978 -0.3559  0.7261
  467MOL0     H64410  11.415   1.244   7.098 -0.3223 -0.8880 -0.8679
  467MOL0     H64411  11.427   1.065   7.075 -1.0847 -0.1155 -2.2003
  467MOL0     H64412  11.580   1.097   7.238 -1.5651 -0.1455  0.1443
  467MOL0     H64413  11.659   1.060   7.097 -1.9472 -1.6656  0.8867
  467MOL0     H64414  11.631   1.346   7.205 -0.5942  0.0631 -2.3480
  467MOL0     H64415  11.688   1.312   7.042  0.1407 -1.7869 -1.1856
  467MOL0     H64416  11.883   1.336   7.159  0.9268 -0.4962 -0.4991
  467MOL0     H64417  11.870   1.163   7.175  1.8191  0.8146  1.8601
  467MOL0     H64418  11.817   1.389   7.377 -1.2013 -0.4810 -2.2774
  467MOL0     H64419  11.739   1.239   7.400  0.3574 -0.1361  1.2568
  467MOL0     H64420  12.026   1.267   7.353  1.6567 -2.1235 -0.0814
  467MOL0     H64421  11.935   1.112   7.405 -0.6665  0.0299 -0.8157
  467MOL0     H64422  11.900   1.214   7.622 -0.2030 -1.3208 -0.7463
  467MOL0     H64423  11.985   1.363   7.579  1.9498  0.3823 -0.8746
  467MOL0     H64424  12.120   1.085   7.592 -0.4420 -0.4641  2.9676
  467MOL0     H64425  12.087   1.192   7.731 -0.5214  3.4948 -0.2205
  467MOL0     H64426  11.486   1.156   6.660  1.3081  2.2373  0.6830
  467MOL0     H64427  11.291   1.206   6.507  0.4764 -2.1324  0.4573
  467MOL0     H64428  10.921   1.199   6.388  2.2011  0.3835 -2.9461
  467MOL0     H64429  10.732   1.206   6.236  1.2808 -2.6584  3.0271
  467MOL0     H64430   8.678   1.848   5.873  1.4360 -0.7638 -0.5322
  467MOL0     H64431   8.548   2.002   6.044 -0.5441  0.3518 -0.5677
  467MOL0     H64432   8.207   2.346   5.876  0.2603  0.1266 -0.5919
  467MOL0     H64433   8.067   2.514   5.955  0.8107 -2.0346  0.9531
  467MOL0     H64434   8.073   2.890   6.186  1.8722  0.8586  3.2565
  467MOL0     H64435   8.242   2.869   6.174 -0.1392  2.3821 -1.1019
  467MOL0     H64436   8.071   2.903   5.924 -0.7411  1.9013 -1.0403
  467MOL0     H64437   8.248   2.913   5.943 -0.0318  0.5301  0.1751
  467MOL0     H64438   8.044   3.133   6.002 -0.0016  0.8983  1.6129
  467MOL0     H64439   8.188   3.128   6.091  0.3011  0.5012 -0.4337
  467MOL0     H64440   8.321   3.201   5.889 -1.0957  2.2417 -1.5196
  467MOL0     H64441   8.158   3.248   5.866 -0.8619 -0.3183  0.0545
  467MOL0     H64442   8.122   2.998   5.564  2.4940  0.2663 -1.1030
  467MOL0     H64443   8.397   2.726   6.131  1.2933 -0.5864 -0.0507
  467MOL0     H64444   8.651   2.503   6.030  2.2373  5.0123 -1.6531
  467MOL0     H64445   8.619   2.660   6.090 -0.2509 -0.1079  0.6072
  467MOL0     H64446   8.587   2.530   6.196 -1.0793  1.7470  1.0375
  468MOL0     O64447   9.581   7.948   7.388  0.2025 -0.1305  0.0276
  468MOL0     C64448   9.482   7.875   7.376  0.6276  0.5248  0.0614
  468MOL0     O64449   9.478   7.747   7.414 -0.0871  0.5209  0.1808
  468MOL0     C64450   9.590   7.672   7.434  0.2599 -0.6716  0.1136
  468MOL0     C64451   9.701   7.684   7.347 -0.2107 -0.1464  0.2218
  468MOL0     C64452   9.814   7.606   7.372  0.0781  0.1426  0.5181
  468MOL0     C64453   9.818   7.515   7.477 -0.4725  0.1195  1.0911
  468MOL0     O64454   9.932   7.436   7.480  0.3434  0.1939  0.3913
  468MOL0     C64455   9.953   7.367   7.609 -0.2909  1.6519  0.2360
  468MOL0     C64456  10.095   7.303   7.609 -0.0210 -0.1411 -0.1584
  468MOL0     C64457  10.118   7.231   7.739 -0.0648 -0.2632 -0.1243
  468MOL0     C64458  10.271   7.224   7.773  0.3629  0.2872  0.5367
  468MOL0     C64459  10.277   7.133   7.894  0.7354  0.5707 -0.4791
  468MOL0     C64460  10.425   7.109   7.927 -0.1955 -0.2825 -0.1145
  468MOL0     C64461  10.434   7.004   8.034  0.3956 -0.1332 -0.3222
  468MOL0     C64462  10.574   6.948   8.037  0.3069  0.4827  0.0385
  468MOL0     N64463  10.680   7.037   8.086 -0.5090  0.1064  0.6272
  468MOL0     C64464  10.691   7.093   8.214  0.2604 -0.1694  0.3598
  468MOL0     C64465  10.816   7.159   8.211 -0.6028 -0.0876  0.7622
  468MOL0     C64466  10.863   7.240   8.327  0.3179  0.1750 -0.2127
  468MOL0     C64467  11.009   7.284   8.306  0.1015 -0.4645 -0.4041
  468MOL0     C64468  11.033   7.396   8.403 -0.5042 -0.2171  0.4310
  468MOL0     C64469  11.179   7.444   8.439 -0.2388 -0.2324 -0.1003
  468MOL0     O64470  11.257   7.457   8.319 -0.3337  0.2398  0.1620
  468MOL0     C64471  11.397   7.466   8.337 -0.3399 -0.1117  0.1050
  468MOL0     C64472  11.481   7.354   8.370  0.0251 -0.3348  0.1469
  468MOL0     C64473  11.618   7.365   8.385  0.6519 -0.2211  0.2918
  468MOL0     C64474  11.690   7.237   8.427  0.6329 -0.0468  0.5848
  468MOL0     C64475  11.684   7.494   8.369  0.3358  0.0747 -0.3391
  468MOL0     C64476  11.829   7.517   8.379 -0.6794  0.3703  0.9492
  468MOL0     O64477  11.907   7.407   8.412  0.3233  0.0712  0.1283
  468MOL0     C64478  12.042   7.433   8.424 -0.8409  0.0147 -0.2747
  468MOL0     C64479  12.127   7.326   8.402 -0.3581  0.6308 -0.3935
  468MOL0     C64480  12.263   7.330   8.432  0.1939 -0.4085 -0.0501
  468MOL0     C64481  12.316   7.445   8.477 -0.0111 -0.5331 -1.2338
  468MOL0     O64482  12.452   7.449   8.502  0.5632  0.6689  0.2639
  468MOL0     C64483  12.489   7.479   8.646  0.7270  0.5454  0.1660
  468MOL0     C64484  12.637   7.462   8.662 -0.1495 -0.0973 -0.5995
  468MOL0     C64485  12.666   7.462   8.817 -0.4305 -0.4800 -0.2266
  468MOL0     C64486  12.810   7.516   8.857  0.3619 -0.2702  0.5929
  468MOL0     C64487  12.927   7.419   8.808  0.6667  0.2505 -0.9283
  468MOL0     C64488  13.048   7.449   8.889 -0.7161  0.3138 -0.1118
  468MOL0     C64489  13.178   7.370   8.861  0.1484  0.6244  1.0380
  468MOL0     C64490  13.298   7.399   8.939 -0.6502  0.0350 -0.0284
  468MOL0    Cl64491  13.422   7.276   8.905  0.1407  0.2767 -0.3989
  468MOL0     C64492  12.239   7.561   8.491 -0.0463 -0.7475  0.2443
  468MOL0     C64493  12.106   7.548   8.478 -0.8353  0.1355 -0.0859
  468MOL0     O64494  11.878   7.622   8.338  0.5211 -0.0612  0.0227
  468MOL0     C64495  11.592   7.602   8.338  0.4764 -0.4774  0.4694
  468MOL0     C64496  11.454   7.597   8.333  0.6201  0.6427  0.4948
  468MOL0     N64497  10.871   7.150   8.084  1.0286  0.3118 -0.1667
  468MOL0     N64498  10.791   7.073   8.019  0.0810 -0.4744  0.5645
  468MOL0     C64499   9.709   7.501   7.566  0.7223 -0.1546 -0.4944
  468MOL0     C64500   9.597   7.586   7.545 -1.0466 -0.4836  0.1521
  468MOL0     C64501   9.357   7.934   7.316  0.6703 -0.4348 -0.1248
  468MOL0     C64502   9.372   8.058   7.235 -0.2643  0.4475 -0.2548
  468MOL0     C64503   9.263   8.114   7.171  1.0845  0.9448  0.2504
  468MOL0     C64504   9.133   8.060   7.193  0.3510 -0.3879  0.3513
  468MOL0     O64505   9.022   8.104   7.124  0.0295 -0.1285  0.1753
  468MOL0     C64506   9.038   8.163   6.998  0.4401  0.0271 -0.3420
  468MOL0     C64507   8.913   8.139   6.920  0.2096  0.1288  0.6500
  468MOL0     C64508   8.908   8.222   6.794 -0.0820 -0.2400 -0.2946
  468MOL0     C64509   8.777   8.232   6.709  0.3990  0.0122 -0.8735
  468MOL0     C64510   8.805   8.320   6.593 -0.0234 -0.6610 -0.5028
  468MOL0     C64511   8.822   8.393   6.502 -0.3286  0.0978  0.0738
  468MOL0     C64512   9.117   7.950   7.273 -0.3412 -0.8910 -0.7564
  468MOL0     C64513   9.223   7.884   7.337 -0.3052  0.1163  0.1211
  468MOL0     C64514   9.191   7.766   7.425  0.2635  0.0132 -0.8369
  468MOL0     H64515   9.713   7.751   7.263  0.6621  1.7508  1.7836
  468MOL0     H64516   9.906   7.617   7.316 -2.0299 -1.7232 -3.7710
  468MOL0     H64517   9.890   7.279   7.623  1.6191 -0.3685 -2.5621
  468MOL0     H64518   9.938   7.442   7.687 -1.9258 -1.1613  2.8149
  468MOL0     H64519  10.098   7.222   7.536  0.1198  0.7831 -1.2019
  468MOL0     H64520  10.169   7.381   7.590 -0.2867 -0.2352 -1.6947
  468MOL0     H64521  10.065   7.283   7.819  0.1216 -0.1865 -0.0489
  468MOL0     H64522  10.084   7.127   7.744  0.9061 -0.5476  1.3383
  468MOL0     H64523  10.333   7.198   7.688 -0.7628 -0.1102 -0.1826
  468MOL0     H64524  10.306   7.325   7.796  0.4523  0.1620  0.9717
  468MOL0     H64525  10.224   7.038   7.877  1.1420  0.5652 -1.8009
  468MOL0     H64526  10.231   7.179   7.981 -1.0850  0.2339 -1.2135
  468MOL0     H64527  10.467   7.075   7.832 -0.2213 -0.9339  0.1022
  468MOL0     H64528  10.476   7.201   7.958 -1.3627  1.5094 -2.9892
  468MOL0     H64529  10.356   6.931   8.011 -1.7124  2.0472 -0.5362
  468MOL0     H64530  10.403   7.047   8.130  0.9929  0.9005 -0.5752
  468MOL0     H64531  10.575   6.857   8.098  2.2184  2.0702  2.6128
  468MOL0     H64532  10.611   6.910   7.942  1.0071 -1.1329  0.9127
  468MOL0     H64533  10.615   7.082   8.291  1.6927  0.4245  1.9171
  468MOL0     H64534  10.852   7.179   8.418  1.4297 -2.3231 -1.6779
  468MOL0     H64535  10.790   7.322   8.335 -1.3060 -1.1501 -0.8059
  468MOL0     H64536  11.073   7.197   8.318 -0.0989 -0.5873 -0.2271
  468MOL0     H64537  11.018   7.310   8.200  0.3384 -3.4710 -1.2132
  468MOL0     H64538  10.992   7.485   8.356  3.5336  0.5135 -2.2331
  468MOL0     H64539  10.988   7.381   8.501  1.0913  0.2944  1.2835
  468MOL0     H64540  11.173   7.539   8.492 -0.1674 -0.9186  1.1855
  468MOL0     H64541  11.212   7.371   8.514  1.2411 -0.9663 -1.4080
  468MOL0     H64542  11.428   7.260   8.372 -2.7366  1.0784  3.2040
  468MOL0     H64543  11.774   7.244   8.358  1.6796  0.0241  1.8221
  468MOL0     H64544  11.640   7.143   8.405  1.6815 -0.8048  1.3305
  468MOL0     H64545  11.705   7.252   8.535  0.3025  1.3226  0.4653
  468MOL0     H64546  12.079   7.232   8.376 -0.3097 -0.4990  3.1142
  468MOL0     H64547  12.315   7.235   8.426  0.0056 -0.4748 -0.8755
  468MOL0     H64548  12.452   7.578   8.673  0.5753  0.9060 -1.2770
  468MOL0     H64549  12.434   7.405   8.705 -1.5285  0.6211 -1.6901
  468MOL0     H64550  12.670   7.364   8.626  2.8523  0.2725  0.8527
  468MOL0     H64551  12.696   7.539   8.612 -0.8470 -0.2838 -1.7507
  468MOL0     H64552  12.649   7.360   8.852 -1.4836 -1.1705 -2.5500
  468MOL0     H64553  12.593   7.526   8.867  1.2879 -0.7829  2.9906
  468MOL0     H64554  12.820   7.517   8.966 -0.3940 -1.2712  0.6879
  468MOL0     H64555  12.831   7.612   8.809  1.7409  0.3491  2.3212
  468MOL0     H64556  12.907   7.313   8.824  2.6187  0.0186  0.3020
  468MOL0     H64557  12.937   7.424   8.699  0.8607 -0.4692 -0.9443
  468MOL0     H64558  13.020   7.438   8.994  0.0232 -0.5663  0.0050
  468MOL0     H64559  13.080   7.552   8.869  2.5916 -0.5714  0.0507
  468MOL0     H64560  13.196   7.398   8.757 -1.0322  0.4495  0.7711
  468MOL0     H64561  13.147   7.265   8.862 -1.3170  1.0059 -0.0732
  468MOL0     H64562  13.279   7.406   9.046 -3.4857 -2.0330 -0.2750
  468MOL0     H64563  13.342   7.496   8.914  0.8048 -0.7685 -0.7867
  468MOL0     H64564  12.286   7.656   8.513  0.7839 -1.0935 -0.0064
  468MOL0     H64565  12.048   7.631   8.517 -1.2143 -0.6394  1.0584
  468MOL0     H64566  11.634   7.700   8.316 -2.0466  0.4351 -0.6722
  468MOL0     H64567  11.383   7.674   8.307  0.8276 -0.7239 -5.3286
  468MOL0     H64568   9.715   7.434   7.651  2.4334  3.5031  2.5621
  468MOL0     H64569   9.505   7.576   7.601 -1.8572  4.2154  0.0998
  468MOL0     H64570   9.471   8.102   7.235  0.5689 -1.2160 -2.9670
  468MOL0     H64571   9.281   8.200   7.107  0.2421 -0.7484 -2.4478
  468MOL0     H64572   9.053   8.271   7.011  0.2306  0.0387 -0.1983
  468MOL0     H64573   9.123   8.121   6.943 -1.1762  0.2003 -3.1589
  468MOL0     H64574   8.826   8.171   6.979  0.4374 -1.7748  2.1194
  468MOL0     H64575   8.907   8.034   6.890  0.0460  0.6961 -1.4877
  468MOL0     H64576   8.942   8.324   6.809 -1.5394 -0.0190  1.8203
  468MOL0     H64577   8.987   8.188   6.726  1.3323  0.9937  0.6839
  468MOL0     H64578   8.694   8.274   6.768  0.6577 -1.2814  0.4800
  468MOL0     H64579   8.744   8.135   6.671 -2.9019  0.7621 -0.2318
  468MOL0     H64580   8.847   8.464   6.426  1.1598  0.8259  1.1925
  468MOL0     H64581   9.025   7.895   7.289  0.0862 -0.8847  2.0739
  468MOL0     H64582   9.216   7.797   7.527 -0.6489 -0.3996 -0.4848
  468MOL0     H64583   9.086   7.738   7.421 -0.1050  1.0380  0.9134
  468MOL0     H64584   9.248   7.674   7.404  3.4111  1.9106 -1.2527
  469MOL0     O64585   5.349   0.448  10.085 -0.3112  0.2161  0.1412
  469MOL0     C64586   5.337   0.431   9.964  0.3804  0.0339  0.8096
  469MOL0     O64587   5.434   0.473   9.872 -0.1233 -0.3813  0.0379
  469MOL0     C64588   5.545   0.542   9.911 -0.1022  0.0573  0.0002
  469MOL0     C64589   5.625   0.498  10.016 -0.4786 -0.3936 -0.9909
  469MOL0     C64590   5.736   0.578  10.048 -0.8883  0.2572 -0.5559
  469MOL0     C64591   5.771   0.695   9.980  0.8541  0.9804  0.2472
  469MOL0     O64592   5.889   0.757  10.010 -0.2724 -0.9285 -0.3383
  469MOL0     C64593   5.939   0.763  10.145  1.0036  0.2730 -0.1818
  469MOL0     C64594   6.054   0.659  10.147  0.8537 -0.6526 -0.6635
  469MOL0     C64595   6.138   0.689  10.279 -0.5222  0.3486 -0.5466
  469MOL0     C64596   6.259   0.597  10.300  0.4886  0.4134  0.2426
  469MOL0     C64597   6.345   0.634  10.430  0.1860  0.0488  0.9598
  469MOL0     C64598   6.412   0.766  10.431 -0.6569 -0.3097  0.2143
  469MOL0     C64599   6.453   0.804  10.576 -0.2007  0.4738 -0.4924
  469MOL0     C64600   6.548   0.699  10.654  0.6618  0.3384 -0.8032
  469MOL0     N64601   6.688   0.706  10.616 -0.0947  0.7488 -0.3739
  469MOL0     C64602   6.732   0.678  10.483 -0.0024  0.4200 -0.3263
  469MOL0     C64603   6.862   0.727  10.490 -0.7857 -0.5928  0.5968
  469MOL0     C64604   6.964   0.734  10.383 -0.3779  0.0356 -0.1212
  469MOL0     C64605   7.103   0.667  10.444  0.1853 -0.2023 -0.5408
  469MOL0     C64606   7.202   0.778  10.491 -0.0366  0.4232  0.1423
  469MOL0     C64607   7.296   0.840  10.389  0.7890  0.8477 -0.4956
  469MOL0     O64608   7.389   0.930  10.443  0.7338  0.0988  0.2943
  469MOL0     C64609   7.509   0.876  10.486  0.6356  0.0423  0.4748
  469MOL0     C64610   7.532   0.831  10.617 -0.3644  0.8602 -0.0910
  469MOL0     C64611   7.656   0.796  10.660  0.0344 -0.8357 -0.1804
  469MOL0     C64612   7.678   0.786  10.805 -1.0706  0.6147  0.1015
  469MOL0     C64613   7.768   0.793  10.568 -0.0421 -0.0301 -0.4053
  469MOL0     C64614   7.912   0.773  10.609  0.8240 -0.2276 -0.0455
  469MOL0     O64615   7.943   0.684  10.693  0.1301  0.4688 -0.3058
  469MOL0     C64616   8.072   0.659  10.722  1.0976 -0.2707 -0.0334
  469MOL0     C64617   8.116   0.695  10.842  0.5638 -0.0996 -0.4749
  469MOL0     C64618   8.248   0.677  10.869  0.2576  0.1111  0.6150
  469MOL0     C64619   8.335   0.614  10.771  0.2174 -0.6284 -0.7539
  469MOL0     O64620   8.468   0.609  10.813 -0.1548 -0.3286  0.8924
  469MOL0     C64621   8.548   0.525  10.730  0.1136  0.7075 -0.0892
  469MOL0     C64622   8.696   0.554  10.768  0.2299  0.7655 -0.6522
  469MOL0     C64623   8.802   0.464  10.691 -0.6716  0.2645 -0.3777
  469MOL0     C64624   8.941   0.461  10.761  0.0316  0.3032  0.5673
  469MOL0     C64625   9.038   0.381  10.661  0.3670 -0.7764  1.0341
  469MOL0     C64626   9.185   0.396  10.703  0.2742  0.1649 -0.2590
  469MOL0     C64627   9.292   0.403  10.594  0.2701  0.0675  0.1124
  469MOL0     C64628   9.424   0.425  10.665  0.0961 -0.1422  0.2656
  469MOL0    Cl64629   9.445   0.602  10.699  0.1302  0.2783  0.2664
  469MOL0     C64630   8.284   0.571  10.650 -0.6599 -1.0106  0.4588
  469MOL0     C64631   8.154   0.598  10.627 -0.7928 -0.2172 -0.0582
  469MOL0     O64632   7.996   0.848  10.565  0.1979  0.3833 -0.2917
  469MOL0     C64633   7.743   0.831  10.431 -0.2082 -0.2878  0.4903
  469MOL0     C64634   7.616   0.879  10.399  0.3515  0.4995  0.4189
  469MOL0     N64635   6.896   0.769  10.616 -0.1386  0.0785 -0.2062
  469MOL0     N64636   6.793   0.755  10.693  0.3728  0.9979 -0.5817
  469MOL0     C64637   5.698   0.726   9.871 -0.4798 -0.1739  0.2485
  469MOL0     C64638   5.587   0.650   9.835  0.3728  0.2389 -0.2703
  469MOL0     C64639   5.211   0.392   9.898 -0.2183 -0.1812 -0.7157
  469MOL0     C64640   5.191   0.415   9.764 -0.3152 -0.0037 -0.8464
  469MOL0     C64641   5.081   0.379   9.695  0.1715 -0.0362 -0.0521
  469MOL0     C64642   4.975   0.305   9.754  0.0654  0.3404  1.2446
  469MOL0     O64643   4.868   0.259   9.673 -0.0646 -0.4519  0.2090
  469MOL0     C64644   4.757   0.209   9.749  0.4783  0.2596 -0.7154
  469MOL0     C64645   4.630   0.190   9.661 -0.7297  0.0745 -0.1011
  469MOL0     C64646   4.585   0.331   9.601 -0.0752  0.2237  0.6068
  469MOL0     C64647   4.466   0.319   9.510  0.8348 -0.0830  0.3155
  469MOL0     C64648   4.339   0.289   9.581  0.2971 -0.3481  0.0388
  469MOL0     C64649   4.234   0.250   9.627  0.0577  0.5511 -0.0730
  469MOL0     C64650   4.995   0.288   9.893  0.7326 -0.3558  0.2451
  469MOL0     C64651   5.103   0.337   9.970 -1.0628  0.3645  0.9249
  469MOL0     C64652   5.088   0.327  10.119 -0.3235 -0.6646 -0.1071
  469MOL0     H64653   5.592   0.405  10.061 -0.6882  1.0840  2.1553
  469MOL0     H64654   5.802   0.541  10.126 -1.3678  1.6323  0.5458
  469MOL0     H64655   5.857   0.750  10.216 -2.8881  1.3547 -4.0333
  469MOL0     H64656   5.974   0.864  10.170 -0.1200  0.6237  0.0283
  469MOL0     H64657   6.016   0.557  10.143 -0.4340 -0.2369  0.3050
  469MOL0     H64658   6.119   0.683  10.062  1.5009  2.0972  0.4915
  469MOL0     H64659   6.174   0.792  10.277 -1.1488  0.5832 -0.0872
  469MOL0     H64660   6.070   0.670  10.363 -0.7644 -2.1829 -1.2279
  469MOL0     H64661   6.233   0.491  10.307 -0.1681  0.4616 -1.1952
  469MOL0     H64662   6.323   0.610  10.213 -0.7127 -1.9295 -1.1012
  469MOL0     H64663   6.424   0.560  10.447 -1.0648 -0.9885  2.5087
  469MOL0     H64664   6.276   0.617  10.513  0.5820  1.2357  1.5586
  469MOL0     H64665   6.489   0.762  10.355 -0.2851  2.3020  0.3784
  469MOL0     H64666   6.352   0.848  10.391  1.1970  0.5997 -0.8172
  469MOL0     H64667   6.357   0.809  10.629 -0.9590 -0.8014 -1.6866
  469MOL0     H64668   6.490   0.906  10.586 -0.2539  0.3205  1.9708
  469MOL0     H64669   6.541   0.729  10.759  0.9706  0.2026 -0.7428
  469MOL0     H64670   6.509   0.596  10.649  0.5220  0.4280 -1.6287
  469MOL0     H64671   6.698   0.636  10.388 -1.4986 -0.5968  0.6124
  469MOL0     H64672   6.985   0.839  10.362 -1.5669 -0.0431 -1.9409
  469MOL0     H64673   6.933   0.689  10.289  0.9959 -0.1664 -0.5093
  469MOL0     H64674   7.085   0.604  10.531  0.3584  0.3117 -0.1243
  469MOL0     H64675   7.164   0.621  10.366  1.0286  5.1073 -3.5528
  469MOL0     H64676   7.146   0.862  10.532  0.8095 -0.5055  3.5262
  469MOL0     H64677   7.255   0.721  10.569 -0.4116  0.4446  0.4181
  469MOL0     H64678   7.345   0.753  10.344  1.8067  2.2532 -2.2511
  469MOL0     H64679   7.248   0.892  10.305 -1.1608  1.2348  0.7978
  469MOL0     H64680   7.453   0.851  10.688  0.0339 -0.2408  0.6867
  469MOL0     H64681   7.589   0.776  10.868 -0.9570  1.1203  0.3475
  469MOL0     H64682   7.713   0.883  10.842  2.5358 -0.4780 -0.0742
  469MOL0     H64683   7.745   0.703  10.828 -1.9114 -0.4085 -0.9879
  469MOL0     H64684   8.045   0.726  10.918 -1.9515 -0.0366 -2.7221
  469MOL0     H64685   8.287   0.712  10.964  1.1983  1.6671 -0.3087
  469MOL0     H64686   8.515   0.424  10.753 -0.1449  0.8396  0.1247
  469MOL0     H64687   8.544   0.541  10.622 -0.1142  0.2522 -0.1468
  469MOL0     H64688   8.715   0.660  10.748 -4.8037  1.4530 -3.2871
  469MOL0     H64689   8.714   0.536  10.874  0.4681  1.0281 -0.6436
  469MOL0     H64690   8.819   0.509  10.593  3.4059  0.2753  0.1884
  469MOL0     H64691   8.773   0.360  10.677  1.5619 -0.5656  0.6947
  469MOL0     H64692   8.950   0.397  10.849  2.4307 -1.7215 -1.0179
  469MOL0     H64693   8.966   0.566  10.779  0.6788  1.1089 -3.8757
  469MOL0     H64694   9.013   0.274  10.660  0.3023 -0.8862 -3.0628
  469MOL0     H64695   9.036   0.429  10.563  2.1223  0.0663  1.3803
  469MOL0     H64696   9.195   0.313  10.773  1.7750  2.8692  3.0059
  469MOL0     H64697   9.195   0.487  10.763  3.2159 -0.0301 -0.3521
  469MOL0     H64698   9.275   0.485  10.523  1.4085 -1.1791 -1.6759
  469MOL0     H64699   9.300   0.311  10.536 -0.5985  0.6517 -0.9797
  469MOL0     H64700   9.505   0.377  10.610  0.6598  0.8212  0.2256
  469MOL0     H64701   9.419   0.367  10.757 -0.8000 -3.4784 -1.7232
  469MOL0     H64702   8.348   0.534  10.571  1.5312  0.3861  1.4708
  469MOL0     H64703   8.115   0.563  10.532 -0.1313 -1.6444  0.1621
  469MOL0     H64704   7.811   0.830  10.346  0.0317 -0.3011  0.6804
  469MOL0     H64705   7.612   0.911  10.295 -0.7796  1.4970  0.7528
  469MOL0     H64706   5.726   0.820   9.824  2.3150 -1.4428 -0.8362
  469MOL0     H64707   5.525   0.683   9.752 -1.0411 -3.2259 -0.7326
  469MOL0     H64708   5.269   0.461   9.705 -0.9504  1.9171 -0.2629
  469MOL0     H64709   5.067   0.402   9.590  1.2197  1.0589  0.0364
  469MOL0     H64710   4.775   0.113   9.799  1.4812  0.1921 -1.1792
  469MOL0     H64711   4.727   0.280   9.827  1.4934  3.3164 -2.9183
  469MOL0     H64712   4.563   0.135   9.728  0.5215 -0.2879  0.8939
  469MOL0     H64713   4.643   0.130   9.571 -0.2668 -0.0518  0.0464
  469MOL0     H64714   4.562   0.396   9.686  0.4221  0.6176  0.4433
  469MOL0     H64715   4.663   0.386   9.548 -1.1441  0.5770 -0.6332
  469MOL0     H64716   4.485   0.246   9.431 -1.7734  0.1295 -0.6201
  469MOL0     H64717   4.455   0.421   9.470  1.5848  1.4949  3.7211
  469MOL0     H64718   4.141   0.213   9.665 -0.8397  2.0743 -0.6817
  469MOL0     H64719   4.917   0.223   9.933  1.6159 -0.2661  2.2539
  469MOL0     H64720   4.986   0.315  10.156 -0.1486 -1.4231  0.1429
  469MOL0     H64721   5.147   0.246  10.162  2.1240  0.7227 -0.6373
  469MOL0     H64722   5.133   0.411  10.173 -2.1034  0.6459 -0.5568
  470MOL0     O64723   4.246   9.252   3.845  0.5747  0.0855  0.9991
  470MOL0     C64724   4.324   9.162   3.881 -0.6516 -0.3539 -0.3751
  470MOL0     O64725   4.454   9.167   3.859 -0.1907  0.3785  0.1473
  470MOL0     C64726   4.515   9.288   3.833  0.0133 -0.0470 -0.0672
  470MOL0     C64727   4.502   9.401   3.916  0.4730 -0.1658 -0.1575
  470MOL0     C64728   4.572   9.515   3.873  0.2656  0.5893  0.2893
  470MOL0     C64729   4.669   9.510   3.764  0.1745 -0.3545  0.6930
  470MOL0     O64730   4.713   9.635   3.711  0.0392  0.3745  0.7589
  470MOL0     C64731   4.726   9.662   3.574 -0.6454  0.0342  0.3646
  470MOL0     C64732   4.768   9.807   3.557 -0.1015  0.3545  0.2371
  470MOL0     C64733   4.802   9.832   3.414  0.1437 -1.3995  0.1396
  470MOL0     C64734   4.862   9.978   3.391 -0.6605 -0.6952  0.2835
  470MOL0     C64735   4.988   9.973   3.300  0.3747 -0.3438 -0.3326
  470MOL0     C64736   5.048  10.106   3.283  0.1788 -0.2168  0.3393
  470MOL0     C64737   5.178  10.110   3.197 -0.0509  0.1490 -0.5985
  470MOL0     C64738   5.218  10.255   3.189 -1.3369 -0.3033 -0.2924
  470MOL0     N64739   5.334  10.260   3.103  0.0042 -0.4602 -0.2322
  470MOL0     C64740   5.458  10.210   3.134 -0.6651 -0.2115  0.1980
  470MOL0     C64741   5.527  10.220   3.018 -0.2352  0.3200 -0.2655
  470MOL0     C64742   5.667  10.176   2.998 -0.1828  0.1013 -0.0585
  470MOL0     C64743   5.673  10.031   2.977  1.0091 -0.0181 -0.2231
  470MOL0     C64744   5.814   9.972   2.999  0.7273  0.5956 -0.4287
  470MOL0     C64745   5.814   9.819   2.965 -0.3508  0.0495  1.4212
  470MOL0     O64746   5.837   9.804   2.823  0.2664 -0.3013  0.5191
  470MOL0     C64747   5.964   9.849   2.774 -0.5088  0.4051 -0.7950
  470MOL0     C64748   5.970   9.903   2.645 -0.2894  0.2281 -0.4125
  470MOL0     C64749   6.085   9.954   2.596 -0.2228 -0.0116 -0.9838
  470MOL0     C64750   6.072  10.041   2.479 -0.8416 -0.1496 -0.4794
  470MOL0     C64751   6.209   9.941   2.680  1.1103  1.1864 -0.0694
  470MOL0     C64752   6.343   9.996   2.632 -0.2093 -0.2027 -0.1662
  470MOL0     O64753   6.416  10.075   2.718 -0.0107 -0.6502 -0.2127
  470MOL0     C64754   6.542  10.116   2.683 -1.1783  0.0197  0.3997
  470MOL0     C64755   6.643  10.099   2.783 -0.3612 -0.1634 -0.1336
  470MOL0     C64756   6.776  10.136   2.747 -0.8194  0.6108 -0.1686
  470MOL0     C64757   6.810  10.182   2.623 -0.4958  0.4690  0.0606
  470MOL0     O64758   6.938  10.207   2.604 -0.2163  0.1451 -0.3498
  470MOL0     C64759   6.987  10.286   2.498 -0.7509  0.5722  0.3022
  470MOL0     C64760   7.137  10.316   2.517  0.6121  1.2591  0.4078
  470MOL0     C64761   7.172  10.371   2.658  0.4317  0.7692 -0.2702
  470MOL0     C64762   7.317  10.425   2.662  0.0169  0.1481 -0.2251
  470MOL0     C64763   7.415  10.312   2.656 -0.4684  0.7800 -0.0491
  470MOL0     C64764   7.553  10.356   2.707  0.7771 -0.2174  0.1747
  470MOL0     C64765   7.620  10.430   2.593 -0.0211  0.5375  0.3293
  470MOL0     C64766   7.742  10.501   2.649  0.3628 -0.8140 -1.2195
  470MOL0    Cl64767   7.687  10.644   2.753  0.4682  0.4034  0.1632
  470MOL0     C64768   6.706  10.200   2.531 -0.7683 -0.6049  0.0405
  470MOL0     C64769   6.576  10.167   2.562  0.2177 -0.5004  0.1535
  470MOL0     O64770   6.375   9.955   2.520  0.1832  0.2158 -0.2044
  470MOL0     C64771   6.211   9.886   2.808  0.2466  0.3360 -0.3887
  470MOL0     C64772   6.091   9.842   2.860  0.7560 -1.1582  0.5821
  470MOL0     N64773   5.457  10.303   2.938  0.1564  0.1111  0.7406
  470MOL0     N64774   5.342  10.336   2.993  0.8568  0.2325  0.0165
  470MOL0     C64775   4.681   9.397   3.696  0.1458 -0.2453  0.6448
  470MOL0     C64776   4.605   9.285   3.732 -0.1757 -1.2335  1.3919
  470MOL0     C64777   4.257   9.040   3.936  0.0576 -0.0385 -0.0003
  470MOL0     C64778   4.294   8.919   3.876 -0.0591  0.6334  0.8850
  470MOL0     C64779   4.248   8.797   3.920  0.4043  0.4671  0.5341
  470MOL0     C64780   4.156   8.793   4.021 -0.8394 -0.0892  0.4058
  470MOL0     O64781   4.110   8.669   4.053  0.0258 -0.0061 -0.0894
  470MOL0     C64782   4.049   8.657   4.184 -0.5524 -1.1021  0.6570
  470MOL0     C64783   4.017   8.513   4.199 -0.4548 -0.0857 -0.3000
  470MOL0     C64784   4.142   8.437   4.211  0.8478  0.8763 -0.5901
  470MOL0     C64785   4.199   8.431   4.357 -0.1258 -0.3929  0.7145
  470MOL0     C64786   4.103   8.378   4.458  0.1675  0.1382  0.1793
  470MOL0     C64787   4.017   8.344   4.529  0.2665 -0.2405 -0.0892
  470MOL0     C64788   4.124   8.915   4.086  0.4882  0.7172 -0.4654
  470MOL0     C64789   4.163   9.040   4.040  0.0070 -0.0163 -0.0589
  470MOL0     C64790   4.134   9.164   4.115  0.1237 -0.3270  0.3661
  470MOL0     H64791   4.427   9.405   3.994 -0.2836 -0.3832 -0.8517
  470MOL0     H64792   4.580   9.608   3.928 -1.0183  1.3549 -0.7516
  470MOL0     H64793   4.624   9.643   3.538 -0.4878 -0.1766  0.0223
  470MOL0     H64794   4.802   9.597   3.530 -0.2742  2.1212 -2.3848
  470MOL0     H64795   4.695   9.872   3.606 -0.6214 -0.0517  0.0235
  470MOL0     H64796   4.855   9.830   3.619  1.7439 -3.8526 -0.4136
  470MOL0     H64797   4.884   9.764   3.386  1.1426  0.2158 -1.0842
  470MOL0     H64798   4.712   9.822   3.353  0.0470  0.2488 -0.0292
  470MOL0     H64799   4.786  10.044   3.351 -0.8724  0.0350  1.8197
  470MOL0     H64800   4.895  10.022   3.486  2.3275  1.5589 -1.6082
  470MOL0     H64801   4.960   9.925   3.206 -1.4753  0.9231 -0.4945
  470MOL0     H64802   5.057   9.906   3.352 -1.2462 -0.6508  1.5626
  470MOL0     H64803   4.972  10.168   3.234 -1.1229 -1.5573  0.6140
  470MOL0     H64804   5.074  10.145   3.382  1.5861  0.9086 -0.4275
  470MOL0     H64805   5.153  10.082   3.094 -0.1039 -3.0473  0.1519
  470MOL0     H64806   5.260  10.050   3.236 -0.6911 -0.1120  0.3922
  470MOL0     H64807   5.140  10.314   3.140 -3.7031 -1.9538  1.2625
  470MOL0     H64808   5.248  10.293   3.287  2.3102 -0.8933 -1.0369
  470MOL0     H64809   5.480  10.149   3.221  4.0989  1.2484  0.3125
  470MOL0     H64810   5.720  10.195   3.092  0.5003 -0.2334 -0.3697
  470MOL0     H64811   5.721  10.222   2.915  1.1301 -1.0647  0.1146
  470MOL0     H64812   5.599   9.982   3.041  0.2474  1.2650 -0.0859
  470MOL0     H64813   5.641  10.024   2.872 -0.5944  1.6619  0.1091
  470MOL0     H64814   5.882  10.025   2.931 -0.7215 -0.8959 -3.2132
  470MOL0     H64815   5.840   9.998   3.102 -2.2476  1.1625  0.2642
  470MOL0     H64816   5.888   9.760   3.021  1.0937 -0.5261 -0.9301
  470MOL0     H64817   5.717   9.773   2.985 -1.5808  1.4295 -0.9958
  470MOL0     H64818   5.875   9.901   2.592 -1.9091  1.2469  2.2624
  470MOL0     H64819   5.983  10.105   2.480  0.2973  1.5292  1.2302
  470MOL0     H64820   6.068   9.985   2.385  2.2550  1.2602 -1.5899
  470MOL0     H64821   6.160  10.105   2.464  0.8705 -2.2761 -0.0133
  470MOL0     H64822   6.601  10.058   2.875 -0.5898  2.2600  0.9293
  470MOL0     H64823   6.858  10.135   2.819 -1.0445  2.0792  0.1528
  470MOL0     H64824   6.969  10.246   2.397  0.4341 -0.4094  0.4547
  470MOL0     H64825   6.932  10.381   2.500 -2.5354 -0.3983 -0.0826
  470MOL0     H64826   7.185  10.222   2.491  1.5591  1.5021  1.2021
  470MOL0     H64827   7.171  10.396   2.450  1.2568  2.5483  2.2026
  470MOL0     H64828   7.168  10.290   2.731  2.6901  0.9262  0.1156
  470MOL0     H64829   7.099  10.449   2.681  0.7253  0.3595  2.3565
  470MOL0     H64830   7.321  10.468   2.762 -0.8395 -1.9913  0.7795
  470MOL0     H64831   7.340  10.502   2.587  2.5207  1.2458  1.5355
  470MOL0     H64832   7.375  10.229   2.714 -1.2542  1.7813  0.8811
  470MOL0     H64833   7.432  10.262   2.560  0.7497  1.1659 -0.0515
  470MOL0     H64834   7.606  10.268   2.744  0.2900 -0.3582  0.5589
  470MOL0     H64835   7.553  10.425   2.792  1.1531 -0.9700  0.8042
  470MOL0     H64836   7.548  10.495   2.544 -0.6048  0.9679  1.7263
  470MOL0     H64837   7.659  10.358   2.520  1.9701 -0.0880  1.9149
  470MOL0     H64838   7.811  10.543   2.575  0.4841 -2.8111 -2.2970
  470MOL0     H64839   7.805  10.431   2.704  0.2729 -1.8520 -2.4164
  470MOL0     H64840   6.728  10.263   2.445  0.3513  1.1692  1.5507
  470MOL0     H64841   6.495  10.178   2.491  1.4048  1.0264 -1.0404
  470MOL0     H64842   6.307   9.877   2.858  0.7299  3.5294 -0.5048
  470MOL0     H64843   6.096   9.787   2.954  3.1469 -2.1707 -0.0534
  470MOL0     H64844   4.743   9.389   3.608 -0.6656  0.9128 -0.0678
  470MOL0     H64845   4.604   9.187   3.685 -0.7515  1.1148 -4.1929
  470MOL0     H64846   4.358   8.916   3.788 -1.7823 -0.7915 -0.3800
  470MOL0     H64847   4.290   8.703   3.885  1.0579  0.0096  2.3878
  470MOL0     H64848   4.111   8.684   4.270  0.3313 -0.2014 -0.2252
  470MOL0     H64849   3.955   8.713   4.190  1.0827  1.9253  0.0608
  470MOL0     H64850   3.956   8.463   4.123 -0.0328 -1.9942  0.5690
  470MOL0     H64851   3.956   8.498   4.289  0.4964  2.0391  0.7582
  470MOL0     H64852   4.131   8.334   4.174  2.2911  0.4567  0.0734
  470MOL0     H64853   4.226   8.478   4.155  2.6658 -1.0186  0.5978
  470MOL0     H64854   4.221   8.532   4.393 -0.8063 -0.3047  0.8927
  470MOL0     H64855   4.291   8.373   4.363  2.7198  3.4677 -1.1848
  470MOL0     H64856   3.940   8.313   4.597  1.3780 -1.2147  0.7782
  470MOL0     H64857   4.076   8.907   4.183  2.9532  0.2510  0.8178
  470MOL0     H64858   4.208   9.193   4.191 -1.6253  1.5060  1.4690
  470MOL0     H64859   4.126   9.250   4.047 -0.7652 -0.2156  0.5993
  470MOL0     H64860   4.037   9.150   4.162 -1.1037 -1.0750 -2.2171
  471MOL0     O64861  10.719   6.758  10.513  0.1492 -0.0410  0.6483
  471MOL0     C64862  10.708   6.866  10.572  0.1533 -0.1936 -0.3696
  471MOL0     O64863  10.804   6.939  10.620  0.6123 -0.0578 -0.2523
  471MOL0     C64864  10.944   6.898  10.611 -0.3906 -0.2563  0.0258
  471MOL0     C64865  11.007   6.835  10.502  0.0333  0.0585 -0.1394
  471MOL0     C64866  11.139   6.792  10.515  0.0245  0.7668  0.4920
  471MOL0     C64867  11.218   6.816  10.628 -0.0774 -0.0578 -0.5419
  471MOL0     O64868  11.363   6.809  10.642  0.8079  0.0495  0.4689
  471MOL0     C64869  11.429   6.763  10.527  0.6537  0.7491  0.4788
  471MOL0     C64870  11.571   6.806  10.541  0.6978 -0.0931  0.5706
  471MOL0     C64871  11.672   6.748  10.432 -0.1434 -0.0401 -0.5836
  471MOL0     C64872  11.803   6.834  10.422  0.9201 -0.7429  0.3376
  471MOL0     C64873  11.906   6.787  10.305  0.5034  0.0775 -1.5501
  471MOL0     C64874  12.054   6.832  10.337  0.5083  0.6333 -0.5705
  471MOL0     C64875  12.121   6.782  10.470 -0.2434 -0.3402 -0.3296
  471MOL0     C64876  12.083   6.635  10.495  0.1570 -0.4615  0.3767
  471MOL0     N64877  12.168   6.583  10.598 -0.4967  0.0728 -0.7202
  471MOL0     C64878  12.127   6.571  10.726  0.4052  0.4598 -0.0519
  471MOL0     C64879  12.225   6.511  10.796 -0.4219  0.2732  0.4903
  471MOL0     C64880  12.228   6.446  10.933 -0.3146 -0.7405 -0.8234
  471MOL0     C64881  12.269   6.545  11.040 -0.5730  0.1179  1.1993
  471MOL0     C64882  12.283   6.486  11.177 -0.1541 -0.0256 -0.6855
  471MOL0     C64883  12.428   6.422  11.205 -0.2275 -0.1877 -0.0703
  471MOL0     O64884  12.493   6.361  11.088 -0.3195  0.2619 -0.2690
  471MOL0     C64885  12.631   6.354  11.075  0.1791  0.1165  0.3282
  471MOL0     C64886  12.721   6.369  11.177 -0.2808  0.0560  0.3169
  471MOL0     C64887  12.861   6.351  11.168  0.7240 -0.9693  0.0858
  471MOL0     C64888  12.942   6.395  11.291  1.0117 -0.8762 -0.3140
  471MOL0     C64889  12.911   6.328  11.042 -0.4054  0.6874  1.1848
  471MOL0     C64890  13.057   6.328  11.002 -1.1120 -0.5952  0.1560
  471MOL0     O64891  13.095   6.316  10.869 -0.2875 -0.1462 -0.1244
  471MOL0     C64892  13.233   6.294  10.845  0.2345 -0.7810 -0.8555
  471MOL0     C64893  13.332   6.384  10.854  0.7665 -0.5522  0.8470
  471MOL0     C64894  13.459   6.353  10.808 -0.7469 -0.1824 -0.7971
  471MOL0     C64895  13.494   6.237  10.741  0.4275  0.3990 -0.1774
  471MOL0     O64896  13.619   6.223  10.693  0.4117  0.4010 -0.0139
  471MOL0     C64897  13.699   6.103  10.733  0.2975 -0.2687 -0.0743
  471MOL0     C64898  13.844   6.121  10.706 -1.0147  0.7283 -0.4897
  471MOL0     C64899  13.869   6.127  10.559 -1.3491 -0.3068  0.2745
  471MOL0     C64900  14.013   6.169  10.537 -0.5243 -0.0738 -0.3763
  471MOL0     C64901  14.063   6.134  10.397  0.1216  0.0223 -0.7223
  471MOL0     C64902  14.201   6.199  10.382 -0.2517  1.1794  0.1224
  471MOL0     C64903  14.296   6.110  10.307  0.1316 -0.5860  0.3965
  471MOL0     C64904  14.391   6.193  10.218  0.4606 -0.0536  0.1645
  471MOL0    Cl64905  14.472   6.308  10.328  0.1408 -0.1956  0.3138
  471MOL0     C64906  13.390   6.147  10.720  0.3909 -0.2902  0.7891
  471MOL0     C64907  13.260   6.174  10.775 -0.6570  1.2622  0.0433
  471MOL0     O64908  13.138   6.347  11.090 -0.2038 -0.2194 -0.2484
  471MOL0     C64909  12.822   6.304  10.932  0.2656 -0.8763  0.4559
  471MOL0     C64910  12.685   6.326  10.951  0.2754  0.4702  0.3169
  471MOL0     N64911  12.320   6.476  10.707 -1.4958 -0.3590 -0.0096
  471MOL0     N64912  12.291   6.518  10.592  0.1653  0.3585  0.1267
  471MOL0     C64913  11.153   6.873  10.736 -1.9868 -0.1484  1.0188
  471MOL0     C64914  11.021   6.909  10.727 -0.0276 -0.9386 -0.4669
  471MOL0     C64915  10.571   6.912  10.589  0.4078 -0.4903 -0.5228
  471MOL0     C64916  10.550   7.010  10.690 -1.0151  0.4460 -0.1843
  471MOL0     C64917  10.432   7.069  10.728 -0.4168  1.2181 -0.3241
  471MOL0     C64918  10.318   7.030  10.652  0.5459  1.0161 -0.7126
  471MOL0     O64919  10.186   7.060  10.691  0.5765  0.6188  0.3516
  471MOL0     C64920  10.167   7.196  10.723  0.1258  0.0728 -0.7220
  471MOL0     C64921  10.045   7.257  10.656  0.5470 -0.3226  0.5989
  471MOL0     C64922  10.026   7.403  10.687  0.1142  0.8510  0.5407
  471MOL0     C64923   9.906   7.453  10.606  0.2117  0.7049  0.6279
  471MOL0     C64924   9.910   7.596  10.579  0.0838 -0.4245  0.1725
  471MOL0     C64925   9.921   7.714  10.572 -0.3044  0.1886 -0.1741
  471MOL0     C64926  10.326   6.935  10.550 -0.1138 -0.9300 -0.5095
  471MOL0     C64927  10.453   6.874  10.515  0.1245 -0.5064 -0.1111
  471MOL0     C64928  10.463   6.781  10.397  1.1873  0.2217 -0.9950
  471MOL0     H64929  10.966   6.824  10.402 -2.0265  2.3805  0.3322
  471MOL0     H64930  11.177   6.740  10.427 -0.7132 -0.5846  0.9512
  471MOL0     H64931  11.388   6.806  10.435  0.6150 -0.9330 -0.3289
  471MOL0     H64932  11.416   6.655  10.538 -1.5739  1.0572  1.4950
  471MOL0     H64933  11.585   6.914  10.535  4.8743 -0.5149 -0.2321
  471MOL0     H64934  11.604   6.792  10.644  1.9675  1.9395  0.4884
  471MOL0     H64935  11.699   6.646  10.461 -3.8690 -1.3591 -1.1860
  471MOL0     H64936  11.622   6.744  10.335 -1.3140  0.3484 -0.0161
  471MOL0     H64937  11.767   6.935  10.400 -0.0213 -1.2179 -0.4269
  471MOL0     H64938  11.858   6.842  10.516  2.8898 -1.5060 -0.7018
  471MOL0     H64939  11.879   6.830  10.208 -1.3823 -0.1585 -1.1694
  471MOL0     H64940  11.901   6.678  10.303 -0.6740 -0.0588  1.9637
  471MOL0     H64941  12.116   6.807  10.250  2.0562  1.6082  0.1984
  471MOL0     H64942  12.043   6.940  10.347 -4.2640  0.2664  0.3333
  471MOL0     H64943  12.099   6.833  10.565  0.0220 -1.2887  0.2542
  471MOL0     H64944  12.227   6.793  10.448  0.1921 -3.2472  0.0067
  471MOL0     H64945  11.977   6.622  10.520  0.3906 -3.0664  0.3010
  471MOL0     H64946  12.108   6.589  10.399 -1.0173  2.1985 -1.3037
  471MOL0     H64947  12.027   6.595  10.762 -1.1574  0.8787 -4.1029
  471MOL0     H64948  12.313   6.377  10.926  0.6392 -0.0567  2.4197
  471MOL0     H64949  12.136   6.396  10.963 -2.2714  2.6920 -0.6174
  471MOL0     H64950  12.362   6.588  11.001 -0.2446 -0.4654  1.3373
  471MOL0     H64951  12.203   6.632  11.049  1.2631  1.5596  1.3802
  471MOL0     H64952  12.252   6.565  11.246  1.3857 -1.0157  1.2345
  471MOL0     H64953  12.215   6.401  11.183  1.0211 -0.8506  2.4564
  471MOL0     H64954  12.489   6.498  11.253 -2.3462  1.2464  0.4530
  471MOL0     H64955  12.422   6.351  11.288  1.6200 -0.3476 -0.0409
  471MOL0     H64956  12.677   6.393  11.273  0.2584 -4.0294  1.7896
  471MOL0     H64957  12.962   6.503  11.289 -3.0315  0.2961  3.8681
  471MOL0     H64958  13.030   6.331  11.301  0.0371 -2.1515  0.2563
  471MOL0     H64959  12.882   6.367  11.378  0.5399 -0.9961 -0.6721
  471MOL0     H64960  13.310   6.482  10.897 -0.6645 -1.1475  1.5323
  471MOL0     H64961  13.530   6.436  10.812 -0.0513 -0.8069  0.7564
  471MOL0     H64962  13.701   6.093  10.842 -0.4205  0.5387  0.0200
  471MOL0     H64963  13.653   6.012  10.692  1.2204 -2.0336  2.5470
  471MOL0     H64964  13.884   6.205  10.762  0.3552 -0.6817  0.7637
  471MOL0     H64965  13.902   6.035  10.741 -0.1041  1.0647 -1.1384
  471MOL0     H64966  13.803   6.192  10.501 -0.9395 -1.5129 -1.6378
  471MOL0     H64967  13.861   6.022  10.529  1.3834 -0.1187 -1.4362
  471MOL0     H64968  14.060   6.111  10.617 -1.6179  0.4636  0.7044
  471MOL0     H64969  14.024   6.271  10.577 -1.1778 -1.4574  3.9240
  471MOL0     H64970  14.061   6.025  10.386  0.8148 -0.4169  2.4375
  471MOL0     H64971  13.993   6.181  10.327 -1.0240  1.7494  1.4428
  471MOL0     H64972  14.236   6.219  10.483 -0.2231  0.8965  0.1676
  471MOL0     H64973  14.195   6.290  10.320 -0.1578 -0.0142 -1.7376
  471MOL0     H64974  14.232   6.049  10.243 -0.6431  0.3256  0.2805
  471MOL0     H64975  14.357   6.036  10.358  0.0224 -2.7430 -2.3406
  471MOL0     H64976  14.342   6.245  10.134 -0.5167 -0.1511  0.6551
  471MOL0     H64977  14.466   6.126  10.175 -2.1087 -2.6773 -0.6180
  471MOL0     H64978  13.400   6.060  10.656  0.4886  0.6214 -0.4832
  471MOL0     H64979  13.178   6.106  10.754 -1.1291  1.1919  1.9150
  471MOL0     H64980  12.855   6.276  10.832 -0.4394 -2.5870  0.6632
  471MOL0     H64981  12.613   6.315  10.870 -1.4084  0.6254  1.7281
  471MOL0     H64982  11.210   6.899  10.825  0.5515 -0.5931 -0.3886
  471MOL0     H64983  10.981   6.958  10.815 -0.9095  1.4336 -2.0729
  471MOL0     H64984  10.632   7.021  10.760 -1.3905  0.9524  0.1835
  471MOL0     H64985  10.411   7.139  10.809 -0.3976  1.3165 -0.4024
  471MOL0     H64986  10.165   7.215  10.830 -1.3175  0.4602 -0.8035
  471MOL0     H64987  10.252   7.259  10.693  1.3010 -0.3527  1.5260
  471MOL0     H64988   9.951   7.204  10.674  1.4824 -2.7809 -1.1498
  471MOL0     H64989  10.056   7.250  10.547  1.6949 -0.2249  0.6914
  471MOL0     H64990  10.020   7.419  10.795 -0.1720  4.0599  0.1598
  471MOL0     H64991  10.117   7.460  10.665  1.1921 -0.4608  1.4633
  471MOL0     H64992   9.814   7.411  10.649  0.2898 -1.9861 -1.5546
  471MOL0     H64993   9.914   7.419  10.502  2.3194  1.8162  0.3871
  471MOL0     H64994   9.951   7.817  10.569  1.0166 -0.0955  1.5825
  471MOL0     H64995  10.247   6.921  10.476  1.5452  0.8499 -2.7474
  471MOL0     H64996  10.364   6.751  10.360  0.0800 -2.1838  3.2638
  471MOL0     H64997  10.528   6.822  10.319  0.8566  1.5496 -0.5983
  471MOL0     H64998  10.510   6.692  10.438  1.2722  1.5053  1.9534
  472MOL0     O64999   7.281  10.259   7.819 -0.2940  0.0772  0.1974
  472MOL0     C65000   7.190  10.279   7.901  0.3861 -0.3813  0.0601
  472MOL0     O65001   7.220  10.313   8.028  0.2603 -0.3499 -0.0655
  472MOL0     C65002   7.323  10.254   8.089 -0.0128 -0.3797  0.3468
  472MOL0     C65003   7.400  10.332   8.174 -0.4602  0.0400  0.0889
  472MOL0     C65004   7.522  10.288   8.242 -0.3146 -0.8442 -0.0537
  472MOL0     C65005   7.573  10.160   8.213 -0.0545  0.0890  0.1871
  472MOL0     O65006   7.678  10.102   8.265 -0.3769 -0.4382 -0.9542
  472MOL0     C65007   7.732  10.152   8.394  1.1969  0.5024  0.8511
  472MOL0     C65008   7.842  10.061   8.445 -0.2884  0.7444 -0.7774
  472MOL0     C65009   7.966  10.039   8.359  0.6103  0.2197 -0.1157
  472MOL0     C65010   8.037  10.178   8.331 -0.7196  1.0797 -0.0975
  472MOL0     C65011   8.179  10.161   8.320 -0.4032  0.3575  0.6159
  472MOL0     C65012   8.214  10.117   8.178  0.2054  0.1911  0.2463
  472MOL0     C65013   8.370  10.118   8.172 -0.6277  0.8051  0.3325
  472MOL0     C65014   8.427  10.014   8.266  0.0143 -0.1321 -1.1087
  472MOL0     N65015   8.563   9.978   8.233 -0.3024 -0.3010 -0.0952
  472MOL0     C65016   8.668  10.063   8.211  0.7682 -0.0007 -0.9989
  472MOL0     C65017   8.767   9.993   8.164  0.2846  0.4406 -0.7188
  472MOL0     C65018   8.902  10.060   8.116  0.1208  0.6125 -0.5152
  472MOL0     C65019   8.996   9.956   8.052  0.2837 -0.3447  1.2460
  472MOL0     C65020   9.115  10.026   7.987  0.9338  0.0637  0.6891
  472MOL0     C65021   9.211  10.063   8.096  0.1580  0.4512  0.7968
  472MOL0     O65022   9.318  10.152   8.059  0.4237 -0.6037  0.1305
  472MOL0     C65023   9.444  10.098   8.011  0.1090  0.0138 -0.3281
  472MOL0     C65024   9.538  10.189   7.987  0.0056 -0.5168 -0.0541
  472MOL0     C65025   9.673  10.150   7.955 -0.8656 -0.4295 -0.3706
  472MOL0     C65026   9.776  10.259   7.950  0.1718 -0.2175  0.2149
  472MOL0     C65027   9.701  10.016   7.934  0.2093  0.2941  0.2472
  472MOL0     C65028   9.836   9.957   7.895  0.6894  0.2896  0.4143
  472MOL0     O65029   9.822   9.834   7.843  0.5865  0.1524 -0.8726
  472MOL0     C65030   9.931   9.761   7.817 -0.0616 -0.2102  1.6473
  472MOL0     C65031   9.967   9.654   7.892 -0.4811  0.2225 -0.4851
  472MOL0     C65032  10.079   9.573   7.863 -1.2053 -0.8880 -0.2493
  472MOL0     C65033  10.151   9.608   7.740  0.8065  0.8930  0.6439
  472MOL0     O65034  10.266   9.536   7.720 -0.9164 -0.5259  0.3648
  472MOL0     C65035  10.340   9.555   7.598  0.6984  0.3848 -0.2446
  472MOL0     C65036  10.479   9.473   7.598  0.5525  0.1780 -0.5105
  472MOL0     C65037  10.429   9.329   7.624 -0.2617  0.1376  0.4555
  472MOL0     C65038  10.544   9.234   7.621 -0.4300 -0.7265  0.1601
  472MOL0     C65039  10.483   9.089   7.603 -0.3195 -0.0957 -0.0809
  472MOL0     C65040  10.592   8.982   7.569 -0.1390  0.0702 -0.5459
  472MOL0     C65041  10.701   8.970   7.682 -0.5948 -0.0401 -0.0925
  472MOL0     C65042  10.840   8.995   7.626  0.3066  0.4190  0.5024
  472MOL0    Cl65043  10.957   8.957   7.762 -0.0099  0.2920  0.1228
  472MOL0     C65044  10.106   9.710   7.657 -0.0928 -0.7476  0.0759
  472MOL0     C65045   9.993   9.787   7.692 -0.2778 -0.3836  0.7453
  472MOL0     O65046   9.942  10.021   7.897 -0.3221 -0.5226 -0.6321
  472MOL0     C65047   9.602   9.917   7.948  1.0183 -0.0986 -0.2244
  472MOL0     C65048   9.474   9.958   8.002 -0.6487  0.1281 -0.8791
  472MOL0     N65049   8.718   9.859   8.137 -0.5448  0.0425 -0.3427
  472MOL0     N65050   8.594   9.856   8.186 -0.3193 -0.2905 -0.1933
  472MOL0     C65051   7.504  10.083   8.113  0.5643  0.1210  0.0018
  472MOL0     C65052   7.371  10.118   8.064 -0.1047 -0.2595  0.3001
  472MOL0     C65053   7.047  10.291   7.856 -0.2854  0.3900  0.4024
  472MOL0     C65054   7.016  10.316   7.714 -0.1878 -0.6368  0.0050
  472MOL0     C65055   6.886  10.322   7.664  0.6022  0.1953  0.0951
  472MOL0     C65056   6.773  10.301   7.749 -0.7552  0.6933 -0.1247
  472MOL0     O65057   6.641  10.297   7.702 -0.3914  0.1221 -0.3525
  472MOL0     C65058   6.526  10.267   7.784 -0.2197  0.0684 -0.0760
  472MOL0     C65059   6.509  10.114   7.810 -0.2547 -0.7209 -0.3979
  472MOL0     C65060   6.542  10.017   7.691  0.3376 -0.9589 -0.5749
  472MOL0     C65061   6.645   9.917   7.731 -0.5698  0.5065  0.2379
  472MOL0     C65062   6.679   9.811   7.631  0.3013  0.0142 -0.0011
  472MOL0     C65063   6.703   9.710   7.567 -0.2823 -0.1882  0.7540
  472MOL0     C65064   6.807  10.269   7.889  0.6816 -0.9138  0.2067
  472MOL0     C65065   6.937  10.270   7.941  0.5574 -0.4533  0.4260
  472MOL0     C65066   6.965  10.254   8.087  0.7712 -0.4702  0.0967
  472MOL0     H65067   7.373  10.436   8.187 -2.7356 -0.5355  0.3056
  472MOL0     H65068   7.575  10.359   8.305 -0.1735 -0.7129 -0.3139
  472MOL0     H65069   7.655  10.160   8.471  0.1070 -0.9136 -0.0562
  472MOL0     H65070   7.776  10.252   8.387  1.5354  0.6673  3.8105
  472MOL0     H65071   7.879  10.094   8.542 -0.8398 -1.5717  0.2797
  472MOL0     H65072   7.805   9.962   8.474 -3.8490  1.9850 -0.6479
  472MOL0     H65073   8.034   9.975   8.417  0.2390  0.0125  0.0943
  472MOL0     H65074   7.935   9.991   8.266  0.1990  1.1791 -0.4848
  472MOL0     H65075   7.989  10.225   8.244 -0.4995 -0.9524 -1.3803
  472MOL0     H65076   8.028  10.244   8.419 -4.5920  0.0884  0.4380
  472MOL0     H65077   8.215  10.097   8.401 -0.2241  2.1824  2.0574
  472MOL0     H65078   8.232  10.257   8.329 -0.0052  0.2948 -0.8319
  472MOL0     H65079   8.186  10.014   8.155  3.4926 -0.2688 -2.5464
  472MOL0     H65080   8.170  10.178   8.099 -2.0247  0.1215  1.3413
  472MOL0     H65081   8.412  10.216   8.196  0.4745  0.5700 -0.5507
  472MOL0     H65082   8.390  10.100   8.066 -3.4434  2.0061 -0.4970
  472MOL0     H65083   8.452  10.058   8.363 -0.0759 -3.9690  0.8445
  472MOL0     H65084   8.368   9.924   8.286 -0.9401  0.5977 -0.5783
  472MOL0     H65085   8.678  10.171   8.207  0.0251  0.1707  0.9106
  472MOL0     H65086   8.960  10.083   8.206 -0.9666 -2.3464  1.0977
  472MOL0     H65087   8.882  10.147   8.053 -2.3763 -0.3145 -1.1327
  472MOL0     H65088   9.040   9.891   8.128  3.3377  1.1166  0.8748
  472MOL0     H65089   8.940   9.902   7.974 -0.7874  0.6659  1.2798
  472MOL0     H65090   9.155   9.960   7.909 -3.1583 -3.3530  1.0835
  472MOL0     H65091   9.088  10.124   7.949  1.7659  0.5292  1.2683
  472MOL0     H65092   9.157  10.125   8.168 -2.2487 -0.3960 -0.1577
  472MOL0     H65093   9.248   9.969   8.138  0.3376  0.4645  0.6665
  472MOL0     H65094   9.512  10.293   8.007 -0.9653 -0.4027 -1.7198
  472MOL0     H65095   9.839  10.261   7.860 -0.2378  2.1075 -0.0661
  472MOL0     H65096   9.840  10.252   8.039  0.5376  4.1543  0.4875
  472MOL0     H65097   9.730  10.358   7.952 -0.9643 -0.7229 -0.0318
  472MOL0     H65098   9.919   9.633   7.987  1.4497  0.5842  0.6370
  472MOL0     H65099  10.119   9.495   7.928 -0.2173  0.6221  1.0355
  472MOL0     H65100  10.284   9.536   7.507 -0.7513  1.4067  0.3934
  472MOL0     H65101  10.376   9.658   7.585 -2.7955  1.6868 -0.7000
  472MOL0     H65102  10.536   9.484   7.505 -0.3397 -3.1385 -1.6044
  472MOL0     H65103  10.538   9.493   7.687 -0.7116  0.4608  0.2829
  472MOL0     H65104  10.361   9.294   7.545  1.6507 -0.7227 -0.8777
  472MOL0     H65105  10.369   9.324   7.716 -0.5257  0.5575  0.3084
  472MOL0     H65106  10.601   9.239   7.714  0.9314 -0.6695 -0.6487
  472MOL0     H65107  10.613   9.261   7.541 -1.9998  1.3485 -0.5869
  472MOL0     H65108  10.431   9.063   7.696 -0.3368  1.0719  0.2587
  472MOL0     H65109  10.423   9.090   7.512  0.2587  0.2035 -0.4666
  472MOL0     H65110  10.634   9.024   7.477 -1.0659  0.2111 -0.9121
  472MOL0     H65111  10.534   8.893   7.549 -3.0009  0.5578  4.0573
  472MOL0     H65112  10.687   8.869   7.722 -1.8758  0.8515  1.8764
  472MOL0     H65113  10.688   9.041   7.764  1.0492  1.0760 -0.7480
  472MOL0     H65114  10.850   9.102   7.605 -3.9217  0.7436 -0.7270
  472MOL0     H65115  10.854   8.940   7.533  0.8700  2.5531 -0.7390
  472MOL0     H65116  10.166   9.745   7.573 -1.4791  1.2425 -0.1511
  472MOL0     H65117   9.953   9.859   7.622 -2.1872 -0.4901  1.6690
  472MOL0     H65118   9.604   9.811   7.927  1.8142 -0.4811  1.6151
  472MOL0     H65119   9.406   9.879   8.033  2.4975 -2.8810 -1.0702
  472MOL0     H65120   7.545   9.985   8.088  1.8881  0.2967  1.3385
  472MOL0     H65121   7.326  10.050   7.992  0.2979 -0.3672  0.1458
  472MOL0     H65122   7.096  10.324   7.641  2.6962  0.7856  3.0615
  472MOL0     H65123   6.863  10.329   7.558 -0.8545  1.0750  0.4461
  472MOL0     H65124   6.508  10.332   7.870  0.1227  2.2919 -1.5951
  472MOL0     H65125   6.442  10.300   7.721  0.5200  0.6520 -0.7808
  472MOL0     H65126   6.404  10.104   7.840  0.1196  1.4020  1.9645
  472MOL0     H65127   6.571  10.089   7.896  0.1685  0.2035 -0.4263
  472MOL0     H65128   6.451   9.967   7.655 -0.7576  0.8215 -0.4221
  472MOL0     H65129   6.583  10.072   7.607  2.5197 -1.6021  0.0111
  472MOL0     H65130   6.613   9.870   7.825 -0.9050 -2.2859 -1.1691
  472MOL0     H65131   6.741   9.967   7.748  1.1365 -2.7973  1.4348
  472MOL0     H65132   6.726   9.619   7.516 -0.5859  1.7017 -3.0999
  472MOL0     H65133   6.724  10.257   7.958  2.5882 -1.8187  2.4778
  472MOL0     H65134   6.988  10.356   8.119 -0.1473 -0.5356  1.0178
  472MOL0     H65135   6.871  10.228   8.138  0.3165 -0.7749 -0.8493
  472MOL0     H65136   7.044  10.182   8.111  0.3820 -0.8540  0.2522
  473MOL0     O65137   9.626   1.374   9.380 -0.2317  0.0517 -0.1686
  473MOL0     C65138   9.564   1.481   9.371  0.1760  0.8045 -1.3604
  473MOL0     O65139   9.618   1.605   9.354 -0.6021 -0.1793 -0.1696
  473MOL0     C65140   9.747   1.613   9.348 -0.2649 -0.1912 -0.0679
  473MOL0     C65141   9.812   1.674   9.234 -0.5198 -0.6694 -0.1474
  473MOL0     C65142   9.950   1.701   9.238 -0.6643 -0.6214 -1.3881
  473MOL0     C65143  10.032   1.673   9.355  0.5697  0.2626  1.1193
  473MOL0     O65144  10.166   1.711   9.349 -0.2711  0.2821 -0.3661
  473MOL0     C65145  10.253   1.664   9.457  0.6858  0.4680  0.0846
  473MOL0     C65146  10.393   1.661   9.397  0.0868  0.0112 -0.4013
  473MOL0     C65147  10.492   1.582   9.481  0.1697  0.8391 -0.3541
  473MOL0     C65148  10.514   1.655   9.613 -0.4281 -0.9733 -0.5339
  473MOL0     C65149  10.600   1.560   9.701  0.5317 -0.8404 -0.1142
  473MOL0     C65150  10.630   1.603   9.849  0.8867  0.1356  0.9421
  473MOL0     C65151  10.693   1.492   9.934 -0.2577 -0.2634  1.2118
  473MOL0     C65152  10.821   1.449   9.893  0.5329  0.0002 -0.2184
  473MOL0     N65153  10.933   1.547   9.914  0.6197  0.2635  0.6121
  473MOL0     C65154  10.970   1.605  10.032 -0.0853  0.5727 -1.0537
  473MOL0     C65155  11.063   1.703  10.006 -0.1846 -0.2757 -0.0866
  473MOL0     C65156  11.145   1.780  10.104 -0.0633 -0.0033  0.2072
  473MOL0     C65157  11.294   1.780  10.066 -0.1543  0.2608  0.0636
  473MOL0     C65158  11.362   1.866  10.171 -0.6229  0.5276  0.3797
  473MOL0     C65159  11.516   1.869  10.154  0.0505  0.8007  0.1454
  473MOL0     O65160  11.578   1.738  10.141  0.0981  0.5774  0.0739
  473MOL0     C65161  11.712   1.735  10.105 -0.2406  0.0026  0.0842
  473MOL0     C65162  11.773   1.613  10.114  0.4789  0.1699 -0.8886
  473MOL0     C65163  11.910   1.608  10.102  0.0884 -0.2368 -0.2117
  473MOL0     C65164  11.954   1.468  10.149 -1.2259 -0.1624 -0.3394
  473MOL0     C65165  11.991   1.717  10.050 -0.2262 -0.1645 -0.3642
  473MOL0     C65166  12.138   1.707  10.049  0.2653  0.0493  0.8557
  473MOL0     O65167  12.200   1.584  10.057  0.4043  0.6749 -0.4931
  473MOL0     C65168  12.338   1.590  10.046  0.2405 -0.7658 -0.4682
  473MOL0     C65169  12.417   1.539  10.149 -0.3488 -0.4442 -0.2952
  473MOL0     C65170  12.558   1.546  10.136 -0.6548  0.2256  0.1047
  473MOL0     C65171  12.621   1.595  10.022  0.3459 -0.7681  0.6424
  473MOL0     O65172  12.755   1.577   9.988 -0.5070 -0.1500 -0.0350
  473MOL0     C65173  12.828   1.683   9.917  0.2104  0.5389 -0.4515
  473MOL0     C65174  12.920   1.613   9.812  0.0134  0.6019  0.2586
  473MOL0     C65175  13.051   1.570   9.887 -0.5322  0.5976 -0.2032
  473MOL0     C65176  13.161   1.515   9.791 -1.2560 -0.4691 -0.2164
  473MOL0     C65177  13.284   1.491   9.873 -0.9696  0.4866 -0.5514
  473MOL0     C65178  13.409   1.462   9.792 -0.1944 -0.4308 -0.1027
  473MOL0     C65179  13.531   1.484   9.876  0.4769 -0.6468 -0.9371
  473MOL0     C65180  13.664   1.426   9.827 -0.3241  0.2469 -0.2722
  473MOL0    Cl65181  13.655   1.241   9.842  0.4051 -0.3823 -0.6072
  473MOL0     C65182  12.537   1.631   9.915  0.8084  0.3398  0.0140
  473MOL0     C65183  12.397   1.640   9.926 -0.0898 -0.2087 -0.2055
  473MOL0     O65184  12.195   1.818  10.044  0.2546 -0.0312  0.3310
  473MOL0     C65185  11.922   1.830  10.013  0.4122 -0.7212 -0.2334
  473MOL0     C65186  11.786   1.849  10.048 -0.0404  0.1010  0.0577
  473MOL0     N65187  11.073   1.707   9.861  0.1946  0.6037  0.4099
  473MOL0     N65188  11.000   1.610   9.809 -0.4215  0.6006  0.3133
  473MOL0     C65189   9.965   1.620   9.459  0.7328  0.3526  0.6129
  473MOL0     C65190   9.829   1.598   9.459 -0.6907  0.2053 -0.2698
  473MOL0     C65191   9.421   1.477   9.326 -0.5674 -0.3925 -0.0577
  473MOL0     C65192   9.361   1.607   9.306 -0.2768  0.9096 -0.3400
  473MOL0     C65193   9.227   1.625   9.269 -0.6864  0.7921 -0.1141
  473MOL0     C65194   9.151   1.510   9.244  0.8978  0.9049  0.6662
  473MOL0     O65195   9.018   1.531   9.213 -0.2943 -0.1649  0.2503
  473MOL0     C65196   8.988   1.491   9.080  0.3290  0.1935  0.0975
  473MOL0     C65197   8.838   1.479   9.072  0.1110  0.3334 -0.7002
  473MOL0     C65198   8.784   1.369   9.161 -0.2137  0.8506 -0.2693
  473MOL0     C65199   8.643   1.376   9.199  0.0507  0.0045 -0.5061
  473MOL0     C65200   8.610   1.506   9.258  1.3227 -0.0098 -0.9376
  473MOL0     C65201   8.584   1.612   9.307 -0.1904  0.1188  0.0877
  473MOL0     C65202   9.201   1.383   9.271 -0.0250  0.0067 -0.1018
  473MOL0     C65203   9.333   1.363   9.321  0.2480 -0.0664  0.8414
  473MOL0     C65204   9.363   1.225   9.375  0.8760 -0.0545  0.9841
  473MOL0     H65205   9.757   1.709   9.148  1.3287 -0.1110 -1.1497
  473MOL0     H65206  10.000   1.740   9.150  0.6172  1.2568  0.0857
  473MOL0     H65207  10.224   1.562   9.483 -0.2163  0.6688 -0.0701
  473MOL0     H65208  10.262   1.731   9.543  1.8224  0.0119  0.3355
  473MOL0     H65209  10.393   1.609   9.301  1.9033  0.6250 -0.7814
  473MOL0     H65210  10.429   1.763   9.386 -0.4963  0.6129  2.4166
  473MOL0     H65211  10.456   1.482   9.505  1.7517  0.3222  0.0218
  473MOL0     H65212  10.590   1.582   9.430 -0.1370  0.5583 -0.9633
  473MOL0     H65213  10.545   1.759   9.598 -3.6228  0.6743  2.6153
  473MOL0     H65214  10.421   1.670   9.668  1.2302  3.8576  1.4847
  473MOL0     H65215  10.692   1.545   9.645  1.8601 -1.7031  2.1609
  473MOL0     H65216  10.544   1.466   9.704 -2.7084  0.9100 -0.7699
  473MOL0     H65217  10.693   1.692   9.839 -1.1708  1.5923  0.4438
  473MOL0     H65218  10.539   1.633   9.902 -0.8078  1.4767 -2.4411
  473MOL0     H65219  10.620   1.411   9.937 -0.3298 -0.2341  0.4685
  473MOL0     H65220  10.701   1.521  10.039  1.3935  0.5998  0.8944
  473MOL0     H65221  10.846   1.366   9.960  0.2189 -0.1236 -0.2501
  473MOL0     H65222  10.812   1.421   9.788 -1.7222  1.5378 -0.4967
  473MOL0     H65223  10.923   1.557  10.117  1.4361 -1.6180 -1.3690
  473MOL0     H65224  11.131   1.734  10.202  0.8864 -2.8130 -0.8498
  473MOL0     H65225  11.094   1.877  10.106 -3.1085 -1.4836  1.0165
  473MOL0     H65226  11.324   1.675  10.075 -0.2869  0.1597 -0.6058
  473MOL0     H65227  11.311   1.825   9.967 -0.7741 -3.4297 -1.8945
  473MOL0     H65228  11.327   1.969  10.167 -0.1411  0.6688 -2.2516
  473MOL0     H65229  11.362   1.827  10.273  4.6377  1.3516  0.9896
  473MOL0     H65230  11.536   1.926  10.063  3.0922 -1.2115 -0.5833
  473MOL0     H65231  11.556   1.928  10.237  1.8097  0.8183 -0.6640
  473MOL0     H65232  11.721   1.521  10.138  0.9994  0.0838 -0.0264
  473MOL0     H65233  12.020   1.478  10.236 -1.3138  1.7982 -0.4491
  473MOL0     H65234  12.004   1.422  10.063 -1.9707 -1.2064 -0.2417
  473MOL0     H65235  11.870   1.400  10.169 -1.3377 -0.0368 -0.3815
  473MOL0     H65236  12.369   1.503  10.239  0.7271  0.6832  0.7860
  473MOL0     H65237  12.627   1.501  10.207  0.1955  2.4340  0.7520
  473MOL0     H65238  12.762   1.745   9.856 -1.6073 -0.8470  0.0332
  473MOL0     H65239  12.887   1.732   9.996  1.0758 -3.2202  1.5147
  473MOL0     H65240  12.871   1.526   9.768  2.8368 -1.4589  0.8976
  473MOL0     H65241  12.951   1.682   9.733 -0.2365  0.9527  0.4677
  473MOL0     H65242  13.026   1.497   9.964  0.6566 -1.2192 -1.4528
  473MOL0     H65243  13.086   1.664   9.931 -1.0576  0.4747  0.4927
  473MOL0     H65244  13.196   1.592   9.723  4.7842 -1.5558  1.0742
  473MOL0     H65245  13.128   1.427   9.735  1.1212 -1.0751 -0.7598
  473MOL0     H65246  13.304   1.585   9.925  3.1305 -0.5439  0.1038
  473MOL0     H65247  13.263   1.409   9.943 -2.7736  0.4836 -1.0482
  473MOL0     H65248  13.410   1.526   9.703 -1.1520  1.6696  1.3111
  473MOL0     H65249  13.401   1.361   9.752  2.5297  0.1329 -2.3100
  473MOL0     H65250  13.500   1.446   9.974 -1.5156  2.7158 -0.1037
  473MOL0     H65251  13.549   1.590   9.893  2.2179 -1.3089  1.9280
  473MOL0     H65252  13.748   1.465   9.886 -0.7234 -0.1683  0.5837
  473MOL0     H65253  13.687   1.465   9.727  2.1529  1.2311  0.6016
  473MOL0     H65254  12.577   1.671   9.822  1.9435  0.7158  0.6470
  473MOL0     H65255  12.348   1.683   9.839 -0.6640 -2.2708 -0.9636
  473MOL0     H65256  11.982   1.911   9.974  4.3409 -3.3196 -0.1503
  473MOL0     H65257  11.735   1.938  10.014  0.0925 -1.0869 -3.7485
  473MOL0     H65258  10.004   1.586   9.554 -1.4442 -0.1386  1.3905
  473MOL0     H65259   9.789   1.559   9.552 -1.4777 -0.3687 -0.8349
  473MOL0     H65260   9.417   1.699   9.316  1.0800  0.2026 -1.1420
  473MOL0     H65261   9.186   1.724   9.253 -1.7798  0.2948 -0.4548
  473MOL0     H65262   9.031   1.567   9.015  2.7901 -0.4568  0.8526
  473MOL0     H65263   9.035   1.393   9.067  1.0261 -0.3838  4.9277
  473MOL0     H65264   8.808   1.457   8.970 -1.2390  0.8696 -0.4423
  473MOL0     H65265   8.806   1.579   9.103  2.6950  1.9116 -2.7421
  473MOL0     H65266   8.808   1.272   9.118  0.1690  1.7781 -2.2840
  473MOL0     H65267   8.846   1.370   9.251 -0.2422 -0.2034 -0.2293
  473MOL0     H65268   8.623   1.301   9.277 -0.2274 -1.5090 -1.9838
  473MOL0     H65269   8.569   1.356   9.121 -1.4093  0.9966  0.5689
  473MOL0     H65270   8.552   1.701   9.356 -0.2968 -1.5193  3.2241
  473MOL0     H65271   9.132   1.301   9.253  0.1953 -0.1311 -0.3134
  473MOL0     H65272   9.388   1.228   9.481  1.2288  1.4067  0.8873
  473MOL0     H65273   9.279   1.156   9.366  1.2757 -0.3423 -1.0895
  473MOL0     H65274   9.443   1.178   9.317 -0.8108 -0.4374 -1.1299
  474MOL0     O65275   2.141   7.835   0.318 -0.5417  0.7167  0.3022
  474MOL0     C65276   2.047   7.762   0.335  0.7987 -0.3237 -0.1566
  474MOL0     O65277   2.063   7.629   0.340 -0.9099  0.6220 -0.6133
  474MOL0     C65278   2.147   7.567   0.248  1.2574 -0.2312  0.0122
  474MOL0     C65279   2.144   7.611   0.110 -0.2317  0.3462 -0.7542
  474MOL0     C65280   2.226   7.550   0.009 -0.3478  0.6532  0.4606
  474MOL0     C65281   2.295   7.431   0.042 -0.0600 -0.1844  0.2921
  474MOL0     O65282   2.371   7.378  -0.060 -0.3965 -0.5228 -0.4674
  474MOL0     C65283   2.492   7.456  -0.071  0.8830  0.4094 -0.1499
  474MOL0     C65284   2.586   7.380  -0.152  0.5516  0.0100 -0.0634
  474MOL0     C65285   2.700   7.460  -0.205  0.0175  0.1256 -0.3341
  474MOL0     C65286   2.773   7.389  -0.314 -0.3314  0.2889  0.1304
  474MOL0     C65287   2.871   7.489  -0.383 -0.0305  0.1360 -0.8242
  474MOL0     C65288   2.943   7.439  -0.502  0.2064  0.5725  0.7369
  474MOL0     C65289   3.076   7.519  -0.525 -0.4364  0.1872 -0.2061
  474MOL0     C65290   3.047   7.666  -0.562 -0.1531  0.0155  0.8294
  474MOL0     N65291   3.173   7.738  -0.575  0.4511 -0.3822  0.6044
  474MOL0     C65292   3.253   7.762  -0.686  0.4149 -0.3668  0.3954
  474MOL0     C65293   3.358   7.839  -0.642 -0.2335  0.2754 -0.2174
  474MOL0     C65294   3.436   7.895  -0.749 -0.2268 -0.3538  0.5165
  474MOL0     C65295   3.373   8.030  -0.775 -0.9445 -0.5954 -0.6962
  474MOL0     C65296   3.419   8.144  -0.685  0.4951  0.1833 -0.2670
  474MOL0     C65297   3.555   8.209  -0.709  0.8846  0.3044  0.8437
  474MOL0     O65298   3.589   8.289  -0.597 -0.3945 -0.1052 -0.2356
  474MOL0     C65299   3.716   8.292  -0.544 -0.4328  0.9252  0.3084
  474MOL0     C65300   3.833   8.263  -0.617 -0.6093 -0.7410 -0.4849
  474MOL0     C65301   3.964   8.250  -0.556  0.5759 -0.4831  0.1886
  474MOL0     C65302   4.077   8.241  -0.648  0.1698 -0.2068  0.6418
  474MOL0     C65303   3.977   8.260  -0.417 -0.4378 -0.8615 -0.4498
  474MOL0     C65304   4.109   8.262  -0.341  0.3351  0.0079 -0.4684
  474MOL0     O65305   4.101   8.298  -0.210 -0.5313 -0.2300 -0.0968
  474MOL0     C65306   4.207   8.299  -0.121  0.9806  0.4935  0.2168
  474MOL0     C65307   4.332   8.319  -0.158 -0.4175 -0.0183 -0.3232
  474MOL0     C65308   4.436   8.321  -0.065  0.4308 -0.2709 -0.3243
  474MOL0     C65309   4.408   8.287   0.071 -0.1078 -0.9190  0.3883
  474MOL0     O65310   4.490   8.297   0.180 -0.6433  0.5255 -0.0740
  474MOL0     C65311   4.633   8.298   0.155  0.2907 -0.5020  1.1918
  474MOL0     C65312   4.697   8.328   0.285 -0.1261 -0.1359  0.0270
  474MOL0     C65313   4.633   8.436   0.376  0.3833 -0.1265 -0.0345
  474MOL0     C65314   4.726   8.468   0.495 -0.0134 -0.8632 -0.8095
  474MOL0     C65315   4.679   8.596   0.569 -0.3878  0.0229  0.3720
  474MOL0     C65316   4.749   8.606   0.710  0.1832  0.9974 -0.0134
  474MOL0     C65317   4.897   8.573   0.706  0.2939 -0.8494  0.6256
  474MOL0     C65318   4.988   8.670   0.619  0.3920 -0.1299 -0.2225
  474MOL0    Cl65319   4.952   8.828   0.693  0.2794 -0.3359  0.6403
  474MOL0     C65320   4.277   8.264   0.108 -0.1749  1.0095  0.0300
  474MOL0     C65321   4.183   8.269   0.009  0.6747  0.1619  0.1767
  474MOL0     O65322   4.206   8.215  -0.395 -0.3715 -0.2347  1.0309
  474MOL0     C65323   3.852   8.298  -0.346 -0.1685  0.4459  0.5909
  474MOL0     C65324   3.726   8.314  -0.404  0.4380  0.2905  0.2929
  474MOL0     N65325   3.347   7.861  -0.504  0.4269  0.3504 -0.3535
  474MOL0     N65326   3.241   7.795  -0.466  0.3730  0.0144 -0.3502
  474MOL0     C65327   2.281   7.381   0.172 -1.2695  0.1669 -0.2527
  474MOL0     C65328   2.206   7.443   0.271 -0.0122  0.7288  0.3207
  474MOL0     C65329   1.912   7.815   0.374 -0.4640 -0.2274 -0.1389
  474MOL0     C65330   1.815   7.725   0.402 -0.0897  0.7112  0.3515
  474MOL0     C65331   1.681   7.767   0.442  0.0661 -0.6744  0.7264
  474MOL0     C65332   1.659   7.900   0.479 -0.1025  0.0027  0.0588
  474MOL0     O65333   1.536   7.913   0.543 -0.0570 -0.0052  0.2709
  474MOL0     C65334   1.516   8.030   0.622  0.4394  0.2869  0.3332
  474MOL0     C65335   1.380   8.014   0.692  0.6244 -1.1637  0.3371
  474MOL0     C65336   1.357   8.135   0.784 -0.2165 -0.4531 -0.0416
  474MOL0     C65337   1.201   8.130   0.828 -0.5238 -1.1008  0.2798
  474MOL0     C65338   1.102   8.171   0.725 -0.5259  0.2178 -0.5445
  474MOL0     C65339   1.026   8.221   0.642 -0.6496  0.0907  0.2682
  474MOL0     C65340   1.766   7.992   0.465 -0.1350 -0.9572 -0.0735
  474MOL0     C65341   1.889   7.955   0.408  0.8949 -0.6812  0.4476
  474MOL0     C65342   1.991   8.068   0.374 -0.0979 -0.7860 -0.3738
  474MOL0     H65343   2.087   7.697   0.076  1.8208  2.8663  1.6870
  474MOL0     H65344   2.232   7.590  -0.092 -0.0660 -0.9863 -0.2095
  474MOL0     H65345   2.534   7.481   0.026 -0.8145  0.6968  0.5597
  474MOL0     H65346   2.473   7.546  -0.130  1.0257 -0.0675 -0.9423
  474MOL0     H65347   2.620   7.290  -0.100 -0.5072  1.0212  2.5930
  474MOL0     H65348   2.530   7.345  -0.239 -0.4548 -0.6833  0.8424
  474MOL0     H65349   2.663   7.553  -0.250  1.7532  0.9693 -0.0760
  474MOL0     H65350   2.765   7.491  -0.123 -0.6297  0.3191  0.1128
  474MOL0     H65351   2.827   7.298  -0.288  0.6059  1.1095  1.1886
  474MOL0     H65352   2.694   7.351  -0.379  1.3607 -0.7589 -1.4078
  474MOL0     H65353   2.941   7.525  -0.308 -0.1795  1.3681 -1.2416
  474MOL0     H65354   2.815   7.578  -0.415  0.2035 -0.2845 -2.5023
  474MOL0     H65355   2.967   7.334  -0.484 -0.8374  0.3984  1.1483
  474MOL0     H65356   2.871   7.430  -0.584  0.9526  2.5596 -0.2190
  474MOL0     H65357   3.120   7.469  -0.612 -1.4119 -2.2041  0.5852
  474MOL0     H65358   3.146   7.508  -0.442  1.7562 -1.1675 -2.0944
  474MOL0     H65359   2.993   7.657  -0.657  1.7843 -0.9583 -0.2518
  474MOL0     H65360   2.990   7.706  -0.478 -1.1871 -1.3127  0.7994
  474MOL0     H65361   3.229   7.753  -0.792 -0.5740 -1.1497  0.6698
  474MOL0     H65362   3.422   7.833  -0.837 -0.2741 -0.1176  0.3572
  474MOL0     H65363   3.543   7.904  -0.725 -0.1902  0.0904  0.2020
  474MOL0     H65364   3.405   8.053  -0.877 -2.0452  0.7354 -0.7788
  474MOL0     H65365   3.263   8.033  -0.769 -0.8622  0.2268  3.0542
  474MOL0     H65366   3.339   8.218  -0.674  0.4736 -0.0439  1.3351
  474MOL0     H65367   3.438   8.099  -0.587  1.6105 -0.5389 -0.7911
  474MOL0     H65368   3.627   8.127  -0.723  0.4527  0.2755 -1.6786
  474MOL0     H65369   3.555   8.274  -0.797 -0.8047  0.5790  1.0186
  474MOL0     H65370   3.825   8.240  -0.722 -2.0579 -2.2973 -0.0614
  474MOL0     H65371   4.172   8.283  -0.614 -0.2502  0.1196  1.4486
  474MOL0     H65372   4.050   8.292  -0.741 -0.4567 -0.9925  0.3823
  474MOL0     H65373   4.086   8.133  -0.665 -4.7866 -0.5887 -0.9322
  474MOL0     H65374   4.351   8.336  -0.263 -3.0049 -0.2473 -0.9035
  474MOL0     H65375   4.533   8.350  -0.103  0.5902 -0.2941  0.0676
  474MOL0     H65376   4.673   8.210   0.103 -0.4493  0.6211 -1.4084
  474MOL0     H65377   4.657   8.380   0.087  1.0156 -2.1255 -0.6097
  474MOL0     H65378   4.704   8.239   0.348 -1.0296 -1.9628 -2.3074
  474MOL0     H65379   4.795   8.371   0.260  0.3223 -0.3314  1.3868
  474MOL0     H65380   4.539   8.393   0.411  0.3443 -1.0331 -1.2194
  474MOL0     H65381   4.630   8.525   0.313 -1.0238 -2.4994 -3.6232
  474MOL0     H65382   4.830   8.479   0.463  1.1490 -1.7961  2.2798
  474MOL0     H65383   4.733   8.391   0.572 -1.1754 -0.4924 -0.3192
  474MOL0     H65384   4.705   8.682   0.507 -2.3566  1.3186  1.2390
  474MOL0     H65385   4.570   8.587   0.572 -0.5611  0.7979 -1.8106
  474MOL0     H65386   4.700   8.536   0.778  1.3605  2.4821  2.4888
  474MOL0     H65387   4.722   8.704   0.750 -2.3164  1.2633 -2.0932
  474MOL0     H65388   4.913   8.468   0.678  0.1590 -0.3444 -1.5186
  474MOL0     H65389   4.919   8.578   0.813  0.7307  1.1641  0.4665
  474MOL0     H65390   4.949   8.663   0.517 -1.1336 -2.9765  0.4672
  474MOL0     H65391   5.096   8.654   0.623  0.3057 -1.2218 -1.6007
  474MOL0     H65392   4.259   8.242   0.213 -1.3611 -0.5356 -0.4479
  474MOL0     H65393   4.080   8.237   0.023  1.0231 -1.3019 -0.4877
  474MOL0     H65394   3.848   8.330  -0.242 -3.7184  4.0736 -0.4147
  474MOL0     H65395   3.641   8.339  -0.342  0.3608  4.2286 -1.0833
  474MOL0     H65396   2.337   7.288   0.179  0.2941  1.0881  0.0968
  474MOL0     H65397   2.212   7.402   0.371 -0.0049  2.4470  1.0673
  474MOL0     H65398   1.825   7.617   0.406 -1.8721  0.5187  3.2947
  474MOL0     H65399   1.597   7.699   0.447 -0.2621 -0.3372 -0.0640
  474MOL0     H65400   1.597   8.028   0.696 -1.0507 -3.0914  2.0890
  474MOL0     H65401   1.523   8.120   0.561 -1.5926  0.2307 -0.0524
  474MOL0     H65402   1.385   7.925   0.755  0.1283 -2.7716 -1.7988
  474MOL0     H65403   1.290   8.006   0.631 -1.0603  1.3600  2.2678
  474MOL0     H65404   1.423   8.134   0.871  0.5210  0.3467 -0.5782
  474MOL0     H65405   1.373   8.230   0.732 -1.4798 -0.7465 -1.0242
  474MOL0     H65406   1.181   8.200   0.910 -0.3040 -0.1556 -0.4524
  474MOL0     H65407   1.176   8.029   0.863  0.8306 -1.0120  1.6342
  474MOL0     H65408   0.970   8.263   0.561 -1.4383 -2.0660 -0.4048
  474MOL0     H65409   1.758   8.098   0.486  0.8355 -0.7539 -0.6987
  474MOL0     H65410   2.068   8.074   0.452  0.4138  0.0316 -0.9329
  474MOL0     H65411   2.046   8.043   0.283  1.4763 -0.2403  0.3838
  474MOL0     H65412   1.941   8.164   0.361  1.6645 -0.1570 -3.2556
  475MOL0     O65413   7.297   4.257   7.575 -0.0083 -0.6644 -0.8888
  475MOL0     C65414   7.288   4.315   7.469  0.7821 -0.3409  0.4257
  475MOL0     O65415   7.333   4.270   7.352 -0.7329  0.1309 -0.0249
  475MOL0     C65416   7.358   4.132   7.338  0.3419 -0.5039 -0.4698
  475MOL0     C65417   7.486   4.074   7.363 -0.2007  0.9702  0.1843
  475MOL0     C65418   7.505   3.938   7.350  1.3018  0.5679  0.3374
  475MOL0     C65419   7.404   3.850   7.319  0.6438  0.9429 -0.9036
  475MOL0     O65420   7.441   3.717   7.302 -0.4415 -0.0956  0.0842
  475MOL0     C65421   7.332   3.624   7.322  0.6025  0.1141 -0.4650
  475MOL0     C65422   7.393   3.479   7.333 -0.0999 -0.0197 -0.0125
  475MOL0     C65423   7.293   3.361   7.327  0.2068 -1.3379 -0.2247
  475MOL0     C65424   7.207   3.350   7.447 -0.0054  0.1876 -0.9755
  475MOL0     C65425   7.097   3.248   7.437 -1.0040 -0.1561 -0.1242
  475MOL0     C65426   6.993   3.265   7.547 -0.2089  0.4524 -0.0807
  475MOL0     C65427   7.051   3.218   7.684  0.0409  0.2397  0.8105
  475MOL0     C65428   6.976   3.272   7.808 -0.6151  0.1728  0.0469
  475MOL0     N65429   6.996   3.412   7.840  0.2670  0.2898  0.0806
  475MOL0     C65430   7.110   3.486   7.826 -0.8430 -0.3087  0.6181
  475MOL0     C65431   7.064   3.609   7.861 -0.0778  1.1147  0.0184
  475MOL0     C65432   7.135   3.744   7.845 -0.1003  0.4380  0.8600
  475MOL0     C65433   7.257   3.735   7.748  0.9552 -0.1888  0.2630
  475MOL0     C65434   7.309   3.865   7.728  0.5796 -0.3851 -0.0797
  475MOL0     C65435   7.444   3.855   7.666 -0.2031 -0.8015  0.4636
  475MOL0     O65436   7.537   3.812   7.760  0.3724 -0.0162  0.3285
  475MOL0     C65437   7.656   3.778   7.712 -1.0342 -0.3253  0.3431
  475MOL0     C65438   7.680   3.724   7.580 -1.3449 -0.1220  0.7077
  475MOL0     C65439   7.812   3.719   7.526  0.1368  0.0161 -0.2081
  475MOL0     C65440   7.840   3.673   7.374 -0.1334 -0.1352 -0.1377
  475MOL0     C65441   7.913   3.770   7.606 -0.0260  0.4910 -0.2084
  475MOL0     C65442   8.050   3.758   7.555 -0.5368  0.7243 -0.6283
  475MOL0     O65443   8.088   3.637   7.513  0.8113  0.6978 -0.6657
  475MOL0     C65444   8.204   3.617   7.443  0.0183 -0.2599 -0.2082
  475MOL0     C65445   8.276   3.704   7.361  0.5522 -0.5971  0.5773
  475MOL0     C65446   8.390   3.651   7.298 -0.3980 -0.0840 -1.3138
  475MOL0     C65447   8.419   3.515   7.301  0.3840  0.1811 -0.6151
  475MOL0     O65448   8.518   3.462   7.225 -0.5886  0.0539  0.6203
  475MOL0     C65449   8.642   3.541   7.230 -0.1327  0.8022  0.4830
  475MOL0     C65450   8.754   3.427   7.263 -0.4664  0.4830 -0.4159
  475MOL0     C65451   8.877   3.495   7.325 -0.8342 -0.7550  0.6219
  475MOL0     C65452   8.952   3.584   7.216  0.0772  0.7168  0.0522
  475MOL0     C65453   9.068   3.663   7.260 -0.2779 -0.8850  0.5492
  475MOL0     C65454   9.195   3.581   7.290  0.2593 -0.0002 -0.5460
  475MOL0     C65455   9.310   3.682   7.312 -0.5136 -0.8924  0.2564
  475MOL0     C65456   9.437   3.603   7.346 -0.7934 -0.1441  0.4653
  475MOL0    Cl65457   9.442   3.549   7.523 -0.4111 -0.1283 -0.1669
  475MOL0     C65458   8.350   3.424   7.383 -0.2602  0.5804  0.0087
  475MOL0     C65459   8.241   3.478   7.453  0.1959 -0.5620 -0.0049
  475MOL0     O65460   8.120   3.853   7.563  0.8832  0.2832  0.1336
  475MOL0     C65461   7.894   3.818   7.742  0.0259  0.4255  0.0873
  475MOL0     C65462   7.760   3.811   7.798  0.9753  0.0309  0.2343
  475MOL0     N65463   6.933   3.609   7.908 -0.3960 -0.4545 -0.2676
  475MOL0     N65464   6.897   3.485   7.902 -0.0294 -0.2772 -0.1657
  475MOL0     C65465   7.268   3.903   7.305 -0.0896 -0.7087 -0.4776
  475MOL0     C65466   7.241   4.045   7.322  0.5460 -0.5619 -0.5966
  475MOL0     C65467   7.216   4.446   7.465 -1.1743  0.2049  0.2246
  475MOL0     C65468   7.222   4.516   7.344 -0.2291 -0.8296  0.1720
  475MOL0     C65469   7.152   4.634   7.325 -0.3168 -1.3156 -0.1043
  475MOL0     C65470   7.081   4.688   7.436  0.3144 -0.7125  0.0878
  475MOL0     O65471   7.012   4.811   7.424  0.4895 -0.1269  0.4601
  475MOL0     C65472   6.891   4.829   7.504  0.0035  0.4450  0.4949
  475MOL0     C65473   6.794   4.943   7.452  0.3755  0.2449 -1.0711
  475MOL0     C65474   6.829   5.087   7.490  0.3617  0.1292 -0.4161
  475MOL0     C65475   6.739   5.188   7.414 -1.0253 -0.8645 -0.2027
  475MOL0     C65476   6.726   5.323   7.472 -0.1223  0.2077 -0.7482
  475MOL0     C65477   6.731   5.434   7.519 -0.8783  0.4020 -0.0076
  475MOL0     C65478   7.087   4.623   7.558  0.7577  0.7670  0.2725
  475MOL0     C65479   7.160   4.503   7.576  0.1204  0.0440  0.4766
  475MOL0     C65480   7.150   4.440   7.720  0.7704 -0.7327  0.4584
  475MOL0     H65481   7.572   4.135   7.390  1.9684 -1.3333 -1.0574
  475MOL0     H65482   7.602   3.894   7.367  2.3308  1.2251 -3.0667
  475MOL0     H65483   7.274   3.622   7.229  0.1674 -1.0102 -0.1952
  475MOL0     H65484   7.264   3.650   7.404 -0.9083 -0.9537 -1.3250
  475MOL0     H65485   7.454   3.474   7.242 -0.6716 -1.4639 -0.3414
  475MOL0     H65486   7.453   3.476   7.424  1.4874 -1.3358 -1.0440
  475MOL0     H65487   7.248   3.371   7.228  2.8645  0.2038 -1.3782
  475MOL0     H65488   7.357   3.273   7.317 -0.0778 -1.2772 -3.4015
  475MOL0     H65489   7.272   3.347   7.535 -1.4226  0.4443  0.0915
  475MOL0     H65490   7.155   3.446   7.451  1.3903  1.0067 -1.5969
  475MOL0     H65491   7.150   3.152   7.439  2.0300  1.3892 -1.1221
  475MOL0     H65492   7.061   3.247   7.334  0.7503 -3.7137 -0.8473
  475MOL0     H65493   6.950   3.365   7.556 -1.3186 -0.0939  1.0145
  475MOL0     H65494   6.906   3.203   7.523  1.2014 -1.3463 -0.7767
  475MOL0     H65495   7.158   3.240   7.686  0.0465  2.0176 -4.2779
  475MOL0     H65496   7.043   3.108   7.688  2.7872  0.0270  3.0626
  475MOL0     H65497   6.868   3.257   7.797 -0.9010  0.7100  1.8198
  475MOL0     H65498   7.008   3.214   7.895  1.4572  1.0456 -0.0734
  475MOL0     H65499   7.204   3.461   7.777 -1.5115  0.9870 -1.4433
  475MOL0     H65500   7.158   3.779   7.946 -1.0135 -1.5697  1.8230
  475MOL0     H65501   7.060   3.812   7.804  0.6553  0.5493 -0.4060
  475MOL0     H65502   7.332   3.673   7.799 -0.3127 -2.2625 -0.2606
  475MOL0     H65503   7.226   3.690   7.653  0.1377  0.5857  0.1527
  475MOL0     H65504   7.247   3.934   7.670 -1.0292 -0.2695  1.7024
  475MOL0     H65505   7.321   3.918   7.823  3.4795 -1.9468  0.5540
  475MOL0     H65506   7.430   3.789   7.580  1.3822 -1.4033  0.6303
  475MOL0     H65507   7.474   3.954   7.630 -0.8504 -1.2161 -1.3162
  475MOL0     H65508   7.596   3.687   7.522 -1.5059 -0.7510  1.3325
  475MOL0     H65509   7.747   3.684   7.318  0.1957  1.9360 -0.3385
  475MOL0     H65510   7.847   3.563   7.378 -3.0263 -0.3921 -0.0024
  475MOL0     H65511   7.912   3.728   7.313 -0.4935  1.3427  0.7286
  475MOL0     H65512   8.238   3.806   7.352  2.0258 -0.1179 -0.6544
  475MOL0     H65513   8.449   3.704   7.223  2.5971 -0.2054  0.7900
  475MOL0     H65514   8.661   3.590   7.134  0.5207  1.8939  1.1540
  475MOL0     H65515   8.636   3.615   7.310  0.8838 -0.7684  2.0847
  475MOL0     H65516   8.715   3.351   7.331  1.1779 -0.4341 -0.4539
  475MOL0     H65517   8.788   3.374   7.174  1.3822  0.9331 -0.0110
  475MOL0     H65518   8.919   3.412   7.383 -1.9167 -1.0970  0.9467
  475MOL0     H65519   8.852   3.575   7.396  0.4819  0.3155 -0.0740
  475MOL0     H65520   8.885   3.666   7.188 -0.8250  0.5106  1.5191
  475MOL0     H65521   8.972   3.518   7.131 -0.0124 -0.2922  0.7988
  475MOL0     H65522   9.093   3.738   7.185 -4.4365  0.1754 -0.0331
  475MOL0     H65523   9.038   3.724   7.346  0.1477 -1.5305  1.1707
  475MOL0     H65524   9.214   3.518   7.203  3.6820  2.0081 -1.4268
  475MOL0     H65525   9.177   3.519   7.378  1.8862  0.6219  0.2666
  475MOL0     H65526   9.278   3.765   7.375 -2.0742 -0.3920 -1.1271
  475MOL0     H65527   9.336   3.735   7.220  1.4678  2.6913  2.6217
  475MOL0     H65528   9.525   3.662   7.318 -2.6096  1.7719 -1.6842
  475MOL0     H65529   9.451   3.513   7.286 -3.6466 -0.8259  0.6752
  475MOL0     H65530   8.378   3.319   7.380  1.1541  0.9598 -0.9523
  475MOL0     H65531   8.170   3.420   7.512 -1.0483  1.2228  0.3537
  475MOL0     H65532   7.979   3.846   7.803  0.1262 -1.0368  0.6682
  475MOL0     H65533   7.740   3.842   7.900  1.7656  3.5539 -0.5213
  475MOL0     H65534   7.188   3.831   7.294 -0.9384  0.0054  0.8750
  475MOL0     H65535   7.140   4.083   7.314  0.4591 -0.2958  1.3151
  475MOL0     H65536   7.278   4.474   7.261 -0.8984  0.9561 -1.2487
  475MOL0     H65537   7.174   4.698   7.240 -2.6207  2.0607  1.5714
  475MOL0     H65538   6.820   4.746   7.501 -2.0840  2.1601 -1.5088
  475MOL0     H65539   6.919   4.840   7.609 -2.2587 -1.6229  1.4081
  475MOL0     H65540   6.698   4.922   7.500  1.5165 -2.8498  0.1428
  475MOL0     H65541   6.788   4.942   7.343 -1.4100 -0.7869 -0.9997
  475MOL0     H65542   6.818   5.099   7.598  1.3177  2.1287 -0.4851
  475MOL0     H65543   6.934   5.108   7.468  0.2279  0.3326 -0.8917
  475MOL0     H65544   6.640   5.144   7.402 -1.0598 -0.5411 -1.2498
  475MOL0     H65545   6.784   5.189   7.314  1.5497  1.5078  0.8444
  475MOL0     H65546   6.745   5.533   7.558  1.2870  0.3870 -0.6234
  475MOL0     H65547   7.046   4.669   7.647  0.4750 -0.4097  0.7669
  475MOL0     H65548   7.247   4.457   7.768  0.1230  3.4958  0.6516
  475MOL0     H65549   7.075   4.495   7.777  2.7361 -0.0580  2.5277
  475MOL0     H65550   7.129   4.334   7.737 -1.5496  0.0852  3.6441
  476MOL0     O65551   9.521   7.319   9.049  0.6097  0.2289  0.2688
  476MOL0     C65552   9.414   7.315   9.108  0.2975 -0.7058 -0.3028
  476MOL0     O65553   9.378   7.214   9.202  0.3582 -0.3432 -0.7955
  476MOL0     C65554   9.467   7.104   9.218  0.3100 -0.0935 -0.3782
  476MOL0     C65555   9.602   7.111   9.246 -1.1886  0.6333  0.5129
  476MOL0     C65556   9.677   6.992   9.265 -0.5886 -0.2968 -0.3646
  476MOL0     C65557   9.614   6.867   9.244 -0.7633  0.3124 -1.1576
  476MOL0     O65558   9.696   6.755   9.254  0.2411 -0.5699  0.7404
  476MOL0     C65559   9.761   6.732   9.380  0.2982  0.5702  0.3551
  476MOL0     C65560   9.839   6.603   9.361 -0.1630 -0.4747 -0.8143
  476MOL0     C65561   9.838   6.510   9.488 -0.1375 -0.2425  0.4546
  476MOL0     C65562   9.876   6.364   9.446  0.2114  0.4970  0.1632
  476MOL0     C65563   9.962   6.304   9.561  0.6245  1.5037 -0.9180
  476MOL0     C65564   9.973   6.148   9.544 -0.3351 -0.3324 -0.2635
  476MOL0     C65565  10.072   6.080   9.640 -0.4379  0.0053  0.0020
  476MOL0     C65566  10.034   6.097   9.791 -0.0917  0.4666  0.1830
  476MOL0     N65567  10.074   6.225   9.845  0.5132  0.6598  0.6678
  476MOL0     C65568  10.202   6.272   9.837 -0.4372  0.2634 -0.0976
  476MOL0     C65569  10.189   6.394   9.897 -0.7591  0.5268  0.7461
  476MOL0     C65570  10.311   6.487   9.915 -0.8921  0.2276  0.2583
  476MOL0     C65571  10.294   6.619   9.832  0.3583 -0.3828  0.0815
  476MOL0     C65572  10.384   6.613   9.698 -0.1360 -0.0544 -0.3713
  476MOL0     C65573  10.521   6.677   9.711  0.4361  0.7941  0.0560
  476MOL0     O65574  10.589   6.602   9.810 -0.6808 -0.0146  0.9794
  476MOL0     C65575  10.730   6.588   9.786  0.1620 -0.4716 -0.7069
  476MOL0     C65576  10.794   6.479   9.845  0.3732 -0.2972  0.0558
  476MOL0     C65577  10.926   6.442   9.829  0.0040  0.2088  0.3330
  476MOL0     C65578  10.970   6.314   9.899 -0.0534 -0.1586  0.0890
  476MOL0     C65579  11.013   6.534   9.767  0.5183 -0.9797 -0.0822
  476MOL0     C65580  11.160   6.538   9.775  0.3392  0.2773 -0.2280
  476MOL0     O65581  11.213   6.659   9.761 -0.4491 -0.0077 -0.6681
  476MOL0     C65582  11.351   6.668   9.758  0.3834  0.3492 -0.1975
  476MOL0     C65583  11.426   6.717   9.652 -0.1367 -0.2216 -0.0189
  476MOL0     C65584  11.562   6.740   9.656 -0.1071  0.4642  0.6432
  476MOL0     C65585  11.641   6.703   9.767 -0.3125  0.0683 -0.0951
  476MOL0     O65586  11.782   6.711   9.760  0.4811  0.3856  0.2884
  476MOL0     C65587  11.832   6.846   9.746  0.5291 -0.0698 -0.0404
  476MOL0     C65588  11.983   6.829   9.748  0.4210 -0.0803 -0.2786
  476MOL0     C65589  12.043   6.725   9.650 -0.1727  0.4395 -0.2369
  476MOL0     C65590  12.011   6.784   9.508  0.0352 -0.2138 -0.2771
  476MOL0     C65591  12.021   6.673   9.397  0.1797 -0.0106 -0.0174
  476MOL0     C65592  12.152   6.607   9.397 -0.5076 -0.7908  0.1211
  476MOL0     C65593  12.269   6.716   9.369 -0.6517  0.5494  0.3937
  476MOL0     C65594  12.414   6.654   9.355  0.6574 -0.2348 -0.3270
  476MOL0    Cl65595  12.514   6.768   9.262  0.1405  0.1923  0.5298
  476MOL0     C65596  11.578   6.650   9.876  0.0776  0.3117 -0.8173
  476MOL0     C65597  11.435   6.628   9.867 -1.0702  0.3688  0.4203
  476MOL0     O65598  11.224   6.431   9.785 -0.8132  0.0186 -0.0024
  476MOL0     C65599  10.953   6.640   9.700  0.0885 -1.0523  0.4674
  476MOL0     C65600  10.814   6.675   9.704 -0.0458 -0.2202 -0.5599
  476MOL0     N65601  10.059   6.422   9.922 -0.2680 -0.2183  0.8372
  476MOL0     N65602   9.989   6.317   9.894  0.1527  0.7471 -0.5971
  476MOL0     C65603   9.479   6.857   9.217 -0.3527 -0.6402  0.1340
  476MOL0     C65604   9.405   6.977   9.213  0.8215  1.3562  0.0932
  476MOL0     C65605   9.317   7.426   9.060 -0.4161  0.5174  0.4928
  476MOL0     C65606   9.361   7.525   8.976  0.0771 -0.3981  0.2196
  476MOL0     C65607   9.278   7.621   8.911 -0.0284 -0.4155 -0.4659
  476MOL0     C65608   9.146   7.628   8.949 -1.3633 -0.2251 -0.5876
  476MOL0     O65609   9.076   7.736   8.913  0.2385 -0.2804 -0.1037
  476MOL0     C65610   8.957   7.783   8.988  0.5872  0.1762 -0.3888
  476MOL0     C65611   8.934   7.933   8.985  0.1287  0.4444  0.1583
  476MOL0     C65612   9.049   8.016   9.049 -0.9437  1.2466 -0.5907
  476MOL0     C65613   9.017   8.166   9.024  0.4903  0.2475 -0.0236
  476MOL0     C65614   9.121   8.258   9.067  0.0705 -0.3946  0.0242
  476MOL0     C65615   9.213   8.323   9.107 -0.9567 -0.3456 -0.0814
  476MOL0     C65616   9.100   7.529   9.041  0.5017 -0.8262  0.7846
  476MOL0     C65617   9.180   7.425   9.091 -0.7570  0.1277 -0.2353
  476MOL0     C65618   9.116   7.333   9.190 -0.2493 -0.2475  0.9645
  476MOL0     H65619   9.657   7.205   9.254 -2.0279  1.8129 -4.4020
  476MOL0     H65620   9.784   6.990   9.282 -0.6021 -0.4082 -0.2943
  476MOL0     H65621   9.683   6.712   9.455 -0.0635  3.1843  0.7520
  476MOL0     H65622   9.821   6.815   9.417 -2.0238  1.7847  1.6342
  476MOL0     H65623   9.803   6.544   9.276  0.5346  0.3406 -1.7014
  476MOL0     H65624   9.943   6.613   9.329  0.6526 -1.5365  1.3670
  476MOL0     H65625   9.921   6.539   9.553 -0.3603 -4.5235  3.0468
  476MOL0     H65626   9.747   6.513   9.549  0.4336  0.8339  1.2976
  476MOL0     H65627   9.795   6.291   9.435  2.1726 -1.6189 -1.4761
  476MOL0     H65628   9.944   6.371   9.360  0.2915  1.0752  0.2728
  476MOL0     H65629   9.906   6.313   9.655  2.4069 -3.8461  1.0203
  476MOL0     H65630  10.061   6.347   9.572  2.0839 -2.0167  1.1990
  476MOL0     H65631   9.873   6.104   9.556  0.3714 -1.4917  1.8931
  476MOL0     H65632  10.005   6.129   9.441 -0.0086  1.0028 -0.4292
  476MOL0     H65633  10.172   6.118   9.617 -1.3554  3.1217  0.6198
  476MOL0     H65634  10.071   5.972   9.622  0.4564 -0.4265  2.2018
  476MOL0     H65635   9.926   6.095   9.809 -0.4751  2.4489 -1.5047
  476MOL0     H65636  10.078   6.011   9.842  1.2380  0.0722 -1.5394
  476MOL0     H65637  10.292   6.215   9.819 -0.9599 -0.4866 -0.3822
  476MOL0     H65638  10.394   6.435   9.867  0.2033  1.5061  0.7329
  476MOL0     H65639  10.329   6.498  10.022 -2.0916 -0.9428  0.6161
  476MOL0     H65640  10.191   6.633   9.799  0.4706 -1.2077 -0.6608
  476MOL0     H65641  10.320   6.707   9.893 -2.7673  0.9160 -0.2891
  476MOL0     H65642  10.386   6.514   9.652 -0.0856 -0.0842 -0.3061
  476MOL0     H65643  10.319   6.662   9.625  0.1386  0.8743 -0.0155
  476MOL0     H65644  10.562   6.655   9.612 -0.7058 -1.3139 -0.0096
  476MOL0     H65645  10.523   6.786   9.723 -0.0441  0.6553  1.4673
  476MOL0     H65646  10.734   6.413   9.908  2.0202 -0.6493  1.3401
  476MOL0     H65647  11.028   6.249   9.833  1.6824 -0.4760  1.8456
  476MOL0     H65648  10.887   6.260   9.946  0.2896 -0.5455  0.2456
  476MOL0     H65649  11.041   6.350   9.973 -1.3166  2.0567  0.3071
  476MOL0     H65650  11.380   6.751   9.560  1.1869 -0.7563 -0.9181
  476MOL0     H65651  11.601   6.770   9.559  0.3468 -1.9469  0.0068
  476MOL0     H65652  11.807   6.894   9.651  4.6053  1.9743 -0.3245
  476MOL0     H65653  11.798   6.910   9.829  1.1155  1.3393 -0.8572
  476MOL0     H65654  12.028   6.927   9.729  1.0252  0.2700  2.4334
  476MOL0     H65655  12.011   6.794   9.848  1.9320  2.7071  0.3777
  476MOL0     H65656  12.005   6.623   9.668 -0.3264  0.1711 -1.9268
  476MOL0     H65657  12.151   6.730   9.665 -0.0166 -4.3599  2.2267
  476MOL0     H65658  12.087   6.860   9.488  0.7588 -0.8102  0.1496
  476MOL0     H65659  11.918   6.841   9.500  1.0415  1.3833 -1.0399
  476MOL0     H65660  11.935   6.605   9.407 -0.4950  0.5406 -1.7563
  476MOL0     H65661  11.992   6.724   9.305 -1.4430  0.2288  0.5900
  476MOL0     H65662  12.158   6.526   9.323 -1.3076 -0.8075  0.0671
  476MOL0     H65663  12.167   6.558   9.494 -2.2240 -0.3478  0.6384
  476MOL0     H65664  12.272   6.781   9.457 -1.6164  0.4417  0.5222
  476MOL0     H65665  12.236   6.768   9.279 -0.9168 -0.9232 -0.3867
  476MOL0     H65666  12.412   6.566   9.290  2.4190 -0.4534 -0.1295
  476MOL0     H65667  12.459   6.625   9.451  3.1023  1.7728 -0.7711
  476MOL0     H65668  11.622   6.619   9.971  0.2209 -0.2900 -1.0771
  476MOL0     H65669  11.387   6.586   9.955 -1.2412 -0.3414  0.0018
  476MOL0     H65670  11.019   6.704   9.643  0.6909 -2.3673 -0.3625
  476MOL0     H65671  10.773   6.768   9.664 -1.4270 -0.6792 -0.2569
  476MOL0     H65672   9.434   6.759   9.204 -2.3798  0.0513  1.4056
  476MOL0     H65673   9.301   6.956   9.191  1.5583 -3.6733  0.3245
  476MOL0     H65674   9.468   7.541   8.964 -0.3549  1.1921 -2.5223
  476MOL0     H65675   9.308   7.700   8.843 -2.1385  0.4763 -0.4455
  476MOL0     H65676   8.868   7.739   8.941  0.7473 -0.6187  0.0335
  476MOL0     H65677   8.952   7.753   9.093  0.5667  0.3754 -0.3316
  476MOL0     H65678   8.842   7.963   9.035 -0.8265  0.0015 -1.2749
  476MOL0     H65679   8.924   7.962   8.880  0.6547  4.1179  0.9998
  476MOL0     H65680   9.056   8.005   9.157 -2.3482  0.0954 -0.5889
  476MOL0     H65681   9.146   7.987   9.007 -1.4755 -1.8513  0.1067
  476MOL0     H65682   8.920   8.185   9.071 -0.0274 -3.0373  0.5085
  476MOL0     H65683   9.008   8.190   8.918  4.2387  1.1515 -0.2875
  476MOL0     H65684   9.295   8.379   9.147 -1.4442 -1.3140  2.4188
  476MOL0     H65685   8.999   7.540   9.079 -1.0499  0.9798 -3.2855
  476MOL0     H65686   9.169   7.359   9.282  0.7062 -2.7784  1.2093
  476MOL0     H65687   9.011   7.362   9.183  0.0386  0.3813 -2.4163
  476MOL0     H65688   9.124   7.226   9.169  0.3415 -0.2046  0.9516
  477MOL0     O65689  10.423   9.591   3.062  0.2340 -0.5172 -0.1164
  477MOL0     C65690  10.436   9.481   3.112 -0.4674  0.4084 -0.1523
  477MOL0     O65691  10.558   9.431   3.169  0.3366 -0.2603 -0.5543
  477MOL0     C65692  10.684   9.486   3.160  0.1469 -0.0340 -0.2014
  477MOL0     C65693  10.712   9.598   3.085  0.4360 -0.0016 -0.0627
  477MOL0     C65694  10.845   9.651   3.081  0.8912  1.0152 -0.1939
  477MOL0     C65695  10.947   9.589   3.160 -0.1114 -0.0608 -1.1600
  477MOL0     O65696  11.072   9.634   3.167 -0.0725  0.3008 -0.3679
  477MOL0     C65697  11.109   9.766   3.124 -0.1426 -0.1852 -0.1316
  477MOL0     C65698  11.268   9.782   3.137  0.9626  0.1539 -0.3375
  477MOL0     C65699  11.343   9.687   3.044 -0.2745  0.1051 -0.2039
  477MOL0     C65700  11.489   9.737   3.043  0.5448  0.9463 -0.2341
  477MOL0     C65701  11.575   9.626   2.971 -0.9682 -0.1149 -0.3216
  477MOL0     C65702  11.729   9.649   2.985  0.3856 -0.2048 -0.1539
  477MOL0     C65703  11.807   9.563   2.891  0.0248 -0.4162 -0.0132
  477MOL0     C65704  11.959   9.578   2.918  0.3452 -0.3796 -0.5109
  477MOL0     N65705  12.021   9.562   3.048 -0.1783  1.0350 -0.4529
  477MOL0     C65706  11.998   9.463   3.138  0.1997  0.0831 -0.4119
  477MOL0     C65707  12.101   9.472   3.227 -0.5142  0.3752  0.2629
  477MOL0     C65708  12.126   9.389   3.353  0.4662 -0.5730  0.0812
  477MOL0     C65709  11.983   9.362   3.411 -0.1220  0.0042  0.4088
  477MOL0     C65710  11.979   9.323   3.560 -0.3306  0.0996  1.0359
  477MOL0     C65711  12.058   9.198   3.599 -0.4308  0.0434 -0.0922
  477MOL0     O65712  12.040   9.089   3.506  0.3765 -0.7474  0.0723
  477MOL0     C65713  12.104   8.980   3.546  0.2884 -0.1287 -0.3853
  477MOL0     C65714  12.241   8.969   3.536 -0.2775  0.5794  0.2732
  477MOL0     C65715  12.306   8.863   3.587 -0.3361  0.4146 -0.2035
  477MOL0     C65716  12.457   8.852   3.560  0.1331  0.3899  0.0772
  477MOL0     C65717  12.234   8.754   3.640 -0.4629 -0.2088  0.4666
  477MOL0     C65718  12.301   8.634   3.691 -0.0465  0.1092  0.2142
  477MOL0     O65719  12.250   8.512   3.666  0.2444  0.1863  0.6581
  477MOL0     C65720  12.325   8.398   3.696  0.0614  0.3846  0.3550
  477MOL0     C65721  12.366   8.360   3.828  0.0760 -1.1060  0.4216
  477MOL0     C65722  12.436   8.241   3.859 -0.1282  0.0729  0.8536
  477MOL0     C65723  12.475   8.152   3.752 -0.3700 -0.3405 -1.2232
  477MOL0     O65724  12.548   8.045   3.786 -0.1699 -0.7393  0.6525
  477MOL0     C65725  12.481   7.927   3.781 -0.3766  0.2608  0.2235
  477MOL0     C65726  12.582   7.815   3.811  0.0496 -0.0017 -0.8637
  477MOL0     C65727  12.723   7.825   3.736  0.3213 -0.0604  0.6907
  477MOL0     C65728  12.802   7.693   3.763  0.2373  0.2626 -0.4231
  477MOL0     C65729  12.920   7.680   3.672  0.6479 -0.1322  0.1928
  477MOL0     C65730  12.994   7.556   3.709 -1.2033  0.4976 -0.4732
  477MOL0     C65731  13.120   7.538   3.619 -0.7900 -0.5717 -0.3916
  477MOL0     C65732  13.178   7.396   3.628 -0.0024 -0.2755 -0.6957
  477MOL0    Cl65733  13.249   7.367   3.464 -0.0422 -0.1133 -0.2542
  477MOL0     C65734  12.443   8.194   3.620 -0.0785  0.7341 -0.8779
  477MOL0     C65735  12.364   8.307   3.595  0.1148  0.4264  0.0570
  477MOL0     O65736  12.401   8.650   3.761  0.6304  0.2875  1.1210
  477MOL0     C65737  12.099   8.761   3.639  0.1728  0.4049 -0.4480
  477MOL0     C65738  12.031   8.874   3.593  0.2351 -0.0210  0.3428
  477MOL0     N65739  12.184   9.575   3.184  0.9113 -0.0478 -0.2528
  477MOL0     N65740  12.134   9.629   3.082 -0.0663 -1.0131  0.3845
  477MOL0     C65741  10.911   9.484   3.247 -0.4075  0.1319  0.2820
  477MOL0     C65742  10.784   9.428   3.244 -0.2022  1.1103  0.4573
  477MOL0     C65743  10.319   9.390   3.099  0.1840  0.7884 -1.0927
  477MOL0     C65744  10.193   9.446   3.085 -0.6874 -0.0314  0.1448
  477MOL0     C65745  10.083   9.363   3.097 -0.3391 -0.3275  0.7785
  477MOL0     C65746  10.078   9.228   3.100 -1.4780 -0.8664 -1.3979
  477MOL0     O65747   9.960   9.174   3.077  0.5685  0.0218 -0.0306
  477MOL0     C65748   9.937   9.032   3.074 -0.6078 -0.4057  0.3838
  477MOL0     C65749   9.795   8.994   3.095  0.1540  0.5252  0.3589
  477MOL0     C65750   9.691   9.052   2.998 -0.2690 -1.0628  1.0647
  477MOL0     C65751   9.728   9.066   2.849 -0.1182  0.3766 -0.1798
  477MOL0     C65752   9.608   9.043   2.767 -0.7451  0.1310 -0.1765
  477MOL0     C65753   9.499   9.034   2.719 -0.1416 -0.7700 -0.0428
  477MOL0     C65754  10.205   9.163   3.105 -0.6203  0.2093  0.0921
  477MOL0     C65755  10.323   9.244   3.119  0.0122 -0.0314 -0.2754
  477MOL0     C65756  10.456   9.169   3.128 -0.1406  0.1534  0.4708
  477MOL0     H65757  10.632   9.644   3.028  0.1275  0.9194  1.0687
  477MOL0     H65758  10.850   9.743   3.024 -2.7031  2.4999  1.5336
  477MOL0     H65759  11.054   9.842   3.181 -1.0960  1.4115 -2.9493
  477MOL0     H65760  11.094   9.786   3.017  1.1191  1.8951  0.0245
  477MOL0     H65761  11.295   9.884   3.108  1.0180 -0.0098 -0.8512
  477MOL0     H65762  11.288   9.765   3.244 -0.9988 -1.0832 -0.1212
  477MOL0     H65763  11.352   9.584   3.080 -1.4269 -1.1128 -3.0700
  477MOL0     H65764  11.310   9.692   2.940  1.1357  1.7848 -0.6035
  477MOL0     H65765  11.505   9.837   3.001  0.6410  1.7297  1.6024
  477MOL0     H65766  11.512   9.728   3.149 -0.1244  0.9069 -0.0892
  477MOL0     H65767  11.549   9.629   2.865  1.9603  0.7685 -1.1138
  477MOL0     H65768  11.540   9.532   3.015 -1.6035  0.5706  0.6905
  477MOL0     H65769  11.747   9.751   2.952 -1.6936 -0.0524 -0.9862
  477MOL0     H65770  11.764   9.635   3.087  2.3000 -1.5229 -0.9372
  477MOL0     H65771  11.784   9.592   2.788  0.5514 -3.2684 -1.0535
  477MOL0     H65772  11.767   9.462   2.907 -1.0242 -0.0379 -0.1802
  477MOL0     H65773  12.010   9.505   2.855 -1.0207  0.7331 -3.0563
  477MOL0     H65774  11.975   9.681   2.884 -0.9948  0.1962  0.4996
  477MOL0     H65775  11.914   9.395   3.141 -0.3407  0.7570  0.0966
  477MOL0     H65776  12.181   9.449   3.426 -1.3325  0.1535  0.8978
  477MOL0     H65777  12.172   9.295   3.322  3.2569 -0.0116  2.1747
  477MOL0     H65778  11.919   9.448   3.390  3.3673  1.9648 -3.4963
  477MOL0     H65779  11.942   9.276   3.356 -0.7161 -0.1570  1.0780
  477MOL0     H65780  12.029   9.413   3.597  0.7786 -0.1946  0.2816
  477MOL0     H65781  11.878   9.321   3.603 -1.1562 -2.5620 -0.8101
  477MOL0     H65782  12.163   9.228   3.608 -0.5762  0.7106 -0.5373
  477MOL0     H65783  12.019   9.175   3.698 -2.5099  0.3794 -0.7865
  477MOL0     H65784  12.297   9.036   3.471 -0.2249  1.1713  0.9163
  477MOL0     H65785  12.511   8.851   3.656  0.0554 -1.9224  0.1488
  477MOL0     H65786  12.486   8.929   3.489 -1.9803 -0.5298 -1.9075
  477MOL0     H65787  12.480   8.763   3.501 -0.3313  0.5302 -0.3185
  477MOL0     H65788  12.354   8.434   3.906 -2.3370 -1.6367  0.6265
  477MOL0     H65789  12.454   8.221   3.964  1.0485 -3.1588  0.1281
  477MOL0     H65790  12.397   7.915   3.849  2.0227 -1.1967  3.1525
  477MOL0     H65791  12.454   7.912   3.676 -4.2434 -0.5963  1.1672
  477MOL0     H65792  12.612   7.819   3.916  0.3559  2.1523 -0.9919
  477MOL0     H65793  12.528   7.721   3.793 -0.2084 -0.3467  1.4394
  477MOL0     H65794  12.782   7.905   3.782  0.6441  1.1533 -1.7130
  477MOL0     H65795  12.711   7.844   3.629  1.4822  1.0246  0.7175
  477MOL0     H65796  12.737   7.608   3.739 -0.1953  1.1771 -2.7717
  477MOL0     H65797  12.836   7.688   3.867 -0.7400  0.4469 -0.0782
  477MOL0     H65798  12.886   7.675   3.568  1.0994  0.6830 -0.0053
  477MOL0     H65799  12.978   7.773   3.669 -0.3585  0.4948 -0.8108
  477MOL0     H65800  12.935   7.465   3.722  0.9829 -0.6245  2.9153
  477MOL0     H65801  13.037   7.571   3.809 -0.3021 -0.0991 -0.7552
  477MOL0     H65802  13.205   7.604   3.640 -1.0992 -0.6972  1.3853
  477MOL0     H65803  13.093   7.551   3.514 -1.5184  1.8763  0.0419
  477MOL0     H65804  13.098   7.327   3.656  1.0765 -0.4501  2.4540
  477MOL0     H65805  13.257   7.379   3.703  0.3976 -0.3717 -1.1378
  477MOL0     H65806  12.477   8.130   3.539 -2.5221  0.3705 -1.6803
  477MOL0     H65807  12.339   8.318   3.490 -0.1636 -0.0032  0.0753
  477MOL0     H65808  12.043   8.684   3.689  1.1068 -0.3611 -0.5534
  477MOL0     H65809  11.924   8.862   3.602  0.2383 -2.6264 -1.6642
  477MOL0     H65810  10.985   9.446   3.317  1.1721  1.8756 -0.3554
  477MOL0     H65811  10.762   9.347   3.313 -0.6969  2.8404  2.4703
  477MOL0     H65812  10.188   9.553   3.069 -0.2352  0.3499  2.1399
  477MOL0     H65813   9.983   9.407   3.090 -0.0730  0.2224  0.3276
  477MOL0     H65814   9.980   9.012   2.975  0.6886 -1.8186  1.1897
  477MOL0     H65815   9.994   8.977   3.150  0.9129 -0.1481 -0.5327
  477MOL0     H65816   9.771   9.045   3.188  0.9156 -0.7031  1.2511
  477MOL0     H65817   9.783   8.885   3.104 -2.5382  0.8656  2.0676
  477MOL0     H65818   9.596   8.999   3.013 -1.4460  0.3953 -0.7770
  477MOL0     H65819   9.666   9.152   3.034 -0.1319 -0.7216  0.2265
  477MOL0     H65820   9.811   8.997   2.832 -1.6578 -1.6843  0.3462
  477MOL0     H65821   9.759   9.170   2.833 -1.7871  1.1226  1.1389
  477MOL0     H65822   9.399   9.045   2.683  0.3220 -1.4651 -1.6169
  477MOL0     H65823  10.206   9.054   3.107  1.0789  0.1924  0.7611
  477MOL0     H65824  10.534   9.207   3.062  3.0651  0.4476  4.0581
  477MOL0     H65825  10.499   9.179   3.229  0.0809 -2.2112  0.6808
  477MOL0     H65826  10.438   9.064   3.103 -1.1718  1.0130 -2.7969
  478MOL0     O65827  10.051   6.030   3.732 -0.3702  0.0741  0.1644
  478MOL0     C65828  10.113   6.108   3.657 -0.9047  0.5377  0.2907
  478MOL0     O65829  10.241   6.075   3.619  0.0651  0.0008 -0.1427
  478MOL0     C65830  10.316   5.964   3.663 -0.4968  0.4945 -0.1260
  478MOL0     C65831  10.270   5.838   3.707 -0.3261 -0.2130 -0.6676
  478MOL0     C65832  10.368   5.744   3.758  1.2696 -0.0434 -0.0349
  478MOL0     C65833  10.503   5.773   3.749  0.7215  0.5347 -0.4247
  478MOL0     O65834  10.593   5.687   3.797  0.2493 -0.0038 -0.3273
  478MOL0     C65835  10.634   5.720   3.935  0.3513 -0.3771 -0.5056
  478MOL0     C65836  10.578   5.617   4.033 -0.6612 -0.8464  0.8089
  478MOL0     C65837  10.627   5.474   3.991  0.2796 -0.3566 -0.0920
  478MOL0     C65838  10.776   5.453   4.041  0.1661  0.1441 -0.3062
  478MOL0     C65839  10.813   5.305   4.044  0.3954 -0.1411  0.0727
  478MOL0     C65840  10.952   5.279   4.093 -0.2212 -0.6171  0.4886
  478MOL0     C65841  10.993   5.133   4.089  0.6271  0.1534 -0.5969
  478MOL0     C65842  10.917   5.047   4.189 -0.4043 -0.4043 -0.2738
  478MOL0     N65843  10.969   4.909   4.192  0.8920 -0.2626 -0.8155
  478MOL0     C65844  11.102   4.868   4.181  0.0012 -0.4784  0.2724
  478MOL0     C65845  11.087   4.739   4.224  0.7511  0.4101  0.2250
  478MOL0     C65846  11.205   4.642   4.206  0.0448  0.4228  0.1596
  478MOL0     C65847  11.295   4.652   4.331 -0.6250 -0.0648 -0.2423
  478MOL0     C65848  11.409   4.551   4.337 -0.2233  0.5740 -0.3118
  478MOL0     C65849  11.532   4.601   4.256  0.9218  0.1489 -0.0281
  478MOL0     O65850  11.584   4.716   4.328 -0.9766  0.0405 -0.2609
  478MOL0     C65851  11.706   4.767   4.289  0.1531  0.7743 -0.3840
  478MOL0     C65852  11.758   4.875   4.367 -0.5889  0.2928 -0.5017
  478MOL0     C65853  11.877   4.939   4.332 -0.6933 -0.8549 -0.5745
  478MOL0     C65854  11.915   5.058   4.415 -1.0811  0.4804 -0.2643
  478MOL0     C65855  11.950   4.887   4.223 -0.0128 -0.8670  0.4834
  478MOL0     C65856  12.090   4.924   4.193  1.0006  0.2622  0.1411
  478MOL0     O65857  12.148   5.040   4.235  0.0982  0.3523  0.3591
  478MOL0     C65858  12.275   5.074   4.191  0.1180 -0.9417  0.7825
  478MOL0     C65859  12.389   5.073   4.274  0.0289 -0.1260 -0.3722
  478MOL0     C65860  12.515   5.116   4.226 -0.1893  0.3886 -0.6066
  478MOL0     C65861  12.537   5.159   4.098  1.0034 -0.2850  0.5977
  478MOL0     O65862  12.657   5.196   4.041  0.7811  0.4010 -0.7311
  478MOL0     C65863  12.754   5.273   4.118  0.1813  0.6483 -0.4125
  478MOL0     C65864  12.861   5.164   4.176  0.5744  0.1057 -0.7180
  478MOL0     C65865  12.906   5.073   4.068 -0.4040 -0.4110 -0.3969
  478MOL0     C65866  13.006   5.157   3.976 -0.0964 -0.4595  0.5464
  478MOL0     C65867  13.154   5.158   4.029 -0.1069 -0.4872  0.1637
  478MOL0     C65868  13.253   5.192   3.915  0.3737  0.6591  0.0231
  478MOL0     C65869  13.404   5.194   3.959 -0.2990  0.0084  0.0446
  478MOL0     C65870  13.498   5.116   3.874  0.1604  0.4659 -0.0061
  478MOL0    Cl65871  13.473   4.936   3.895  0.3312  0.4157 -0.0574
  478MOL0     C65872  12.421   5.167   4.013  0.7119  0.4877  0.8960
  478MOL0     C65873  12.294   5.127   4.061  0.7347  0.8163 -0.7891
  478MOL0     O65874  12.149   4.839   4.127 -0.3928 -0.3317 -0.4981
  478MOL0     C65875  11.895   4.785   4.142  0.0225 -0.5474  0.6347
  478MOL0     C65876  11.774   4.727   4.179 -1.4216  0.2052  1.0242
  478MOL0     N65877  10.962   4.704   4.261  0.0500 -0.6610 -0.8038
  478MOL0     N65878  10.896   4.807   4.237  0.4068 -0.3714  0.2213
  478MOL0     C65879  10.549   5.890   3.687 -0.3353 -0.8885  0.5187
  478MOL0     C65880  10.454   5.979   3.638  0.4170  0.6130 -0.4301
  478MOL0     C65881  10.043   6.225   3.596 -0.2666 -0.2054 -0.2384
  478MOL0     C65882   9.902   6.237   3.607 -0.4707  0.5215  0.4649
  478MOL0     C65883   9.828   6.342   3.557  0.5440 -0.5527 -0.4545
  478MOL0     C65884   9.892   6.444   3.485 -0.5781  0.4744 -0.5890
  478MOL0     O65885   9.811   6.534   3.422  0.5119 -0.1476  0.3265
  478MOL0     C65886   9.867   6.641   3.347  0.3586 -0.7622 -0.9626
  478MOL0     C65887   9.753   6.704   3.269 -0.5629 -0.3719 -0.2661
  478MOL0     C65888   9.794   6.807   3.170 -0.3984  0.0453 -0.2189
  478MOL0     C65889   9.887   6.762   3.058  0.4943 -0.4633 -0.5783
  478MOL0     C65890   9.820   6.649   2.994 -0.6351 -0.1301 -0.1004
  478MOL0     C65891   9.765   6.564   2.927 -0.0024  0.1087 -0.0912
  478MOL0     C65892  10.037   6.427   3.461  0.3947 -0.1617  0.0847
  478MOL0     C65893  10.107   6.323   3.519  0.9019 -0.0273  0.1688
  478MOL0     C65894  10.258   6.330   3.506  0.5068  0.2627 -0.2539
  478MOL0     H65895  10.165   5.812   3.715  0.0908 -1.7658  0.1170
  478MOL0     H65896  10.339   5.645   3.793  0.2065  0.4209  0.4119
  478MOL0     H65897  10.598   5.821   3.957  0.9522  0.2528 -2.2506
  478MOL0     H65898  10.741   5.717   3.958  1.2479  0.0796 -4.0667
  478MOL0     H65899  10.611   5.646   4.133  2.5735 -2.5813  0.3989
  478MOL0     H65900  10.469   5.623   4.024 -0.7650  5.0850  2.1704
  478MOL0     H65901  10.563   5.399   4.039 -0.4730 -0.2589 -0.9155
  478MOL0     H65902  10.614   5.452   3.884 -2.2302  0.2337  0.0162
  478MOL0     H65903  10.848   5.504   3.976 -0.7138 -0.4092 -1.7838
  478MOL0     H65904  10.788   5.494   4.141  0.3975 -1.0873  0.1852
  478MOL0     H65905  10.799   5.274   3.940 -3.3259  0.8202  0.1607
  478MOL0     H65906  10.750   5.241   4.106  0.0255  0.9739  0.8605
  478MOL0     H65907  11.034   5.332   4.043 -0.3096 -2.5146 -1.8696
  478MOL0     H65908  10.957   5.298   4.200 -2.8839  2.6379  0.1865
  478MOL0     H65909  11.100   5.124   4.106  0.5727 -1.2953 -0.9512
  478MOL0     H65910  10.962   5.093   3.992 -1.5375  1.9043 -0.7190
  478MOL0     H65911  10.911   5.089   4.290 -1.7014  2.6430 -1.4787
  478MOL0     H65912  10.813   5.038   4.154  0.3341  0.7579 -3.0147
  478MOL0     H65913  11.184   4.913   4.127 -0.7947  1.3433  0.4917
  478MOL0     H65914  11.257   4.659   4.112 -0.1201 -1.4001 -0.2984
  478MOL0     H65915  11.158   4.543   4.205 -0.8484  0.8459 -0.6671
  478MOL0     H65916  11.328   4.756   4.341 -1.3336  0.4406 -2.5765
  478MOL0     H65917  11.226   4.623   4.411  0.5732  0.0484  0.8708
  478MOL0     H65918  11.438   4.545   4.442  1.6349 -2.4950 -0.8418
  478MOL0     H65919  11.380   4.448   4.312  1.0880  0.1869 -0.3656
  478MOL0     H65920  11.607   4.523   4.238 -0.9479 -1.7330 -0.0110
  478MOL0     H65921  11.491   4.637   4.162 -1.2994  0.2917  0.9359
  478MOL0     H65922  11.705   4.901   4.458 -3.9327  0.3835 -2.3197
  478MOL0     H65923  11.997   5.038   4.484 -0.2692  1.1692 -0.9989
  478MOL0     H65924  11.837   5.107   4.473  0.2475  2.4296 -0.0156
  478MOL0     H65925  11.958   5.142   4.359  0.4872 -0.4481 -0.5393
  478MOL0     H65926  12.386   5.049   4.380 -3.3838  0.7369 -0.1582
  478MOL0     H65927  12.600   5.128   4.292 -2.0422  0.3904  1.9553
  478MOL0     H65928  12.796   5.355   4.059  2.3603 -0.1856 -0.0910
  478MOL0     H65929  12.709   5.314   4.209 -1.2656 -1.3579 -0.1654
  478MOL0     H65930  12.940   5.212   4.234 -1.3835 -1.5763  3.7926
  478MOL0     H65931  12.813   5.109   4.257  0.5167  2.1953  0.7330
  478MOL0     H65932  12.825   5.038   4.003 -1.7902  1.3519  0.2939
  478MOL0     H65933  12.957   4.998   4.130  2.1672 -0.4781 -2.4300
  478MOL0     H65934  12.979   5.259   3.949  1.0885  0.2538  1.9304
  478MOL0     H65935  13.020   5.111   3.877  0.7135  1.3928 -0.2401
  478MOL0     H65936  13.179   5.234   4.104  0.4196  1.0216 -1.4775
  478MOL0     H65937  13.192   5.065   4.071  4.4923  1.5439  1.1542
  478MOL0     H65938  13.217   5.284   3.868 -0.3797  0.8210  0.8885
  478MOL0     H65939  13.242   5.108   3.846  0.5385 -0.3736  1.2132
  478MOL0     H65940  13.415   5.152   4.060  2.7481 -0.7053 -0.4890
  478MOL0     H65941  13.433   5.299   3.955  1.3505 -0.3926  0.7878
  478MOL0     H65942  13.598   5.140   3.909  1.7340 -3.3039 -1.4150
  478MOL0     H65943  13.488   5.144   3.768  1.8902  0.5055 -0.1887
  478MOL0     H65944  12.423   5.200   3.909 -0.1112  0.8749  0.9876
  478MOL0     H65945  12.213   5.128   3.988 -0.8060 -0.3720  0.8461
  478MOL0     H65946  11.937   4.774   4.042  2.9535  0.9777  1.5744
  478MOL0     H65947  11.717   4.672   4.105  0.8762  1.6104 -2.0059
  478MOL0     H65948  10.656   5.905   3.695 -0.2989 -1.3379  0.8557
  478MOL0     H65949  10.495   6.062   3.580 -0.5474 -1.4786 -4.4804
  478MOL0     H65950   9.848   6.160   3.662  0.5142 -0.7771 -0.3121
  478MOL0     H65951   9.720   6.342   3.568  0.5392 -2.5161 -0.0915
  478MOL0     H65952   9.917   6.699   3.425 -0.4113 -0.7030 -0.4991
  478MOL0     H65953   9.945   6.611   3.277  1.4677 -0.3802  0.0796
  478MOL0     H65954   9.689   6.755   3.342  2.1665  2.8705  0.1219
  478MOL0     H65955   9.696   6.628   3.215  2.2817 -0.5143 -3.3869
  478MOL0     H65956   9.709   6.835   3.107 -0.1050 -1.1800 -1.1976
  478MOL0     H65957   9.843   6.892   3.219  1.0668  0.5125 -2.3299
  478MOL0     H65958   9.980   6.714   3.090 -0.0794 -1.3833 -0.2358
  478MOL0     H65959   9.910   6.842   2.988 -2.4625  0.7877 -0.2767
  478MOL0     H65960   9.713   6.487   2.874  0.5218 -0.5470  0.3255
  478MOL0     H65961  10.087   6.490   3.388  0.2779  0.4518  0.5228
  478MOL0     H65962  10.303   6.235   3.475 -1.0345 -0.5183 -0.1587
  478MOL0     H65963  10.280   6.406   3.431  3.5800  0.7598  0.9873
  478MOL0     H65964  10.301   6.360   3.602  0.3972  0.0461 -0.1352
  479MOL0     O65965   9.804   5.909   4.889 -0.9009  0.5250 -0.4475
  479MOL0     C65966   9.802   6.018   4.831  0.5704  0.1757  0.3756
  479MOL0     O65967   9.891   6.119   4.852  0.5592 -0.4122  0.4849
  479MOL0     C65968  10.003   6.097   4.927 -0.7367 -0.0392 -0.7053
  479MOL0     C65969  10.022   6.138   5.059 -0.2651 -0.3675  0.4502
  479MOL0     C65970  10.137   6.100   5.132 -0.1359  0.1774  0.2906
  479MOL0     C65971  10.226   6.016   5.073  0.6107  0.7463 -0.7260
  479MOL0     O65972  10.333   5.984   5.153 -0.3519  0.0093  0.1958
  479MOL0     C65973  10.385   5.857   5.155 -0.5603  0.8585 -0.3521
  479MOL0     C65974  10.506   5.848   5.249  0.0793  0.1509  0.3435
  479MOL0     C65975  10.617   5.937   5.208  0.7232 -0.1711  0.3898
  479MOL0     C65976  10.741   5.924   5.301 -0.1404 -0.7024  0.6182
  479MOL0     C65977  10.844   6.029   5.294  0.1061 -0.1047  0.8626
  479MOL0     C65978  10.910   6.019   5.155 -0.2350 -0.4043 -0.1293
  479MOL0     C65979  11.012   6.138   5.150 -0.4540  0.3101 -0.7500
  479MOL0     C65980  11.055   6.182   5.012  0.1407  0.8663  0.4364
  479MOL0     N65981  11.112   6.068   4.930  0.0130  0.0068  0.0584
  479MOL0     C65982  11.071   6.038   4.800 -0.0815  0.2143 -0.1565
  479MOL0     C65983  11.118   5.910   4.783 -0.5486  0.3842  0.1482
  479MOL0     C65984  11.103   5.821   4.665 -0.3465  0.9324 -0.2025
  479MOL0     C65985  11.129   5.871   4.527  0.4005 -0.4537 -0.6264
  479MOL0     C65986  11.254   5.949   4.508 -0.4152  0.5036 -0.4320
  479MOL0     C65987  11.378   5.870   4.553  0.8074  0.1101 -0.6935
  479MOL0     O65988  11.384   5.738   4.498 -0.2334 -0.4259  0.0237
  479MOL0     C65989  11.505   5.677   4.508  0.1527  0.3138  0.7377
  479MOL0     C65990  11.515   5.556   4.568 -0.2850  0.8841  0.0215
  479MOL0     C65991  11.630   5.477   4.564  0.2809  1.3937  0.1852
  479MOL0     C65992  11.609   5.327   4.614  0.6836  0.3816  0.5896
  479MOL0     C65993  11.749   5.527   4.499 -0.1239  0.0756 -0.5434
  479MOL0     C65994  11.873   5.444   4.471 -0.7468 -0.3015 -0.0104
  479MOL0     O65995  11.973   5.508   4.399  0.1509  0.5738 -0.3036
  479MOL0     C65996  12.102   5.470   4.427  0.6753 -0.1303  0.7570
  479MOL0     C65997  12.163   5.476   4.556  0.7929 -0.1956  0.3089
  479MOL0     C65998  12.302   5.442   4.571 -0.1977 -1.3317 -0.4469
  479MOL0     C65999  12.377   5.424   4.457 -0.1523  0.7624  0.6202
  479MOL0     O66000  12.510   5.391   4.459  0.5692 -0.6746  0.7136
  479MOL0     C66001  12.592   5.425   4.577 -0.4323  0.7756  0.4445
  479MOL0     C66002  12.737   5.426   4.526  0.0340  0.6131  0.4515
  479MOL0     C66003  12.802   5.288   4.496  0.7473  0.3249  0.6300
  479MOL0     C66004  12.806   5.199   4.624  0.1171  1.1287  0.9545
  479MOL0     C66005  12.939   5.108   4.633 -0.3822 -0.1712  0.0090
  479MOL0     C66006  12.946   5.006   4.519  0.1051 -0.9116  0.6636
  479MOL0     C66007  13.054   4.910   4.531 -1.1874  0.2335 -1.0338
  479MOL0     C66008  13.192   4.971   4.521 -0.4975 -0.0755  0.6852
  479MOL0    Cl66009  13.228   5.019   4.352 -0.0334 -0.0658 -0.2555
  479MOL0     C66010  12.314   5.414   4.332  0.2010 -0.7377  0.8256
  479MOL0     C66011  12.179   5.439   4.319 -0.1271  0.1997  0.7080
  479MOL0     O66012  11.877   5.329   4.511 -0.5567  0.2298 -0.3503
  479MOL0     C66013  11.742   5.651   4.446  0.0301  1.0227 -0.9076
  479MOL0     C66014  11.623   5.734   4.454 -0.3908  0.0614 -1.0730
  479MOL0     N66015  11.185   5.866   4.900 -0.2616 -0.2897 -0.1949
  479MOL0     N66016  11.172   5.960   4.985 -0.3968 -0.2451  0.3299
  479MOL0     C66017  10.218   5.971   4.945 -0.3934 -0.4915 -1.0127
  479MOL0     C66018  10.100   6.002   4.879 -0.5695 -0.8339  0.5306
  479MOL0     C66019   9.698   6.037   4.728 -0.1451 -0.1785  0.2253
  479MOL0     C66020   9.728   6.105   4.606 -0.1453  0.2497  0.1388
  479MOL0     C66021   9.637   6.117   4.503 -0.2326 -0.1745  0.0304
  479MOL0     C66022   9.513   6.053   4.511 -0.5478  0.1376 -0.4566
  479MOL0     O66023   9.429   6.051   4.401  0.2145  0.3375 -0.8291
  479MOL0     C66024   9.428   6.144   4.294 -0.0268 -0.6941  0.1825
  479MOL0     C66025   9.353   6.278   4.308 -0.6687 -0.6169 -0.0021
  479MOL0     C66026   9.371   6.365   4.184  0.4495  0.4634  0.2423
  479MOL0     C66027   9.313   6.503   4.198 -0.2782 -0.2519 -0.4136
  479MOL0     C66028   9.171   6.518   4.199 -0.5571 -0.2532  0.7338
  479MOL0     C66029   9.056   6.522   4.201  0.2266 -0.0755  0.1154
  479MOL0     C66030   9.483   5.988   4.628 -0.0287 -0.3064  0.0098
  479MOL0     C66031   9.567   5.989   4.744  0.2640  0.0875  0.3744
  479MOL0     C66032   9.509   5.934   4.881  0.5695  0.0731  0.7141
  479MOL0     H66033   9.958   6.201   5.121 -1.4843 -1.9766  0.9091
  479MOL0     H66034  10.142   6.142   5.232 -0.7610  1.8863 -0.3652
  479MOL0     H66035  10.428   5.824   5.060 -0.6506  0.4823 -0.2656
  479MOL0     H66036  10.307   5.790   5.190 -0.5173 -0.0506 -1.8886
  479MOL0     H66037  10.464   5.864   5.349  0.7941  0.5814  0.5823
  479MOL0     H66038  10.535   5.742   5.254 -0.1747  0.1368  2.2358
  479MOL0     H66039  10.646   5.905   5.107 -1.1164 -1.0926  0.1123
  479MOL0     H66040  10.578   6.039   5.207  0.1775 -0.3762  0.3301
  479MOL0     H66041  10.701   5.933   5.403 -2.9627  0.8665 -0.4903
  479MOL0     H66042  10.788   5.827   5.283  1.0515 -0.2000  0.9526
  479MOL0     H66043  10.921   6.022   5.371  2.5940 -0.2609 -1.4970
  479MOL0     H66044  10.800   6.129   5.297  1.5333  0.6689 -1.6010
  479MOL0     H66045  10.945   5.917   5.137 -0.2469 -0.4855  0.2789
  479MOL0     H66046  10.839   6.053   5.079  0.5380  2.5508  0.3815
  479MOL0     H66047  11.107   6.123   5.203  0.0970  2.0562 -1.1508
  479MOL0     H66048  10.975   6.230   5.197 -0.1839 -0.2558  0.6058
  479MOL0     H66049  10.975   6.237   4.962  0.1003  0.2468 -0.1931
  479MOL0     H66050  11.143   6.246   5.011  1.3458 -0.6873 -1.7474
  479MOL0     H66051  11.026   6.088   4.715  1.3426  4.4254  1.3430
  479MOL0     H66052  11.000   5.783   4.665  0.7136 -2.2929 -0.0695
  479MOL0     H66053  11.163   5.731   4.679 -3.1664 -1.0146  0.2125
  479MOL0     H66054  11.122   5.802   4.442 -0.1922 -1.7360  0.4356
  479MOL0     H66055  11.056   5.947   4.496  0.6917  1.4741  2.9504
  479MOL0     H66056  11.256   5.970   4.400 -0.8904 -0.5926 -0.6600
  479MOL0     H66057  11.246   6.045   4.561 -4.6086 -0.1954  0.5533
  479MOL0     H66058  11.468   5.926   4.528  2.9536 -2.6734  0.2861
  479MOL0     H66059  11.385   5.870   4.662 -0.7695 -2.4715 -0.5215
  479MOL0     H66060  11.425   5.522   4.617  0.4380 -1.9172 -0.4392
  479MOL0     H66061  11.694   5.302   4.679  0.0202  0.4200  1.4893
  479MOL0     H66062  11.605   5.260   4.528 -1.0066  1.5647 -0.3109
  479MOL0     H66063  11.521   5.309   4.676 -0.0646  0.3050 -0.4776
  479MOL0     H66064  12.098   5.511   4.636 -0.7738 -0.8594 -0.6257
  479MOL0     H66065  12.342   5.449   4.672 -0.7898  1.5299 -0.3249
  479MOL0     H66066  12.567   5.524   4.614  0.0636  1.4454 -0.9157
  479MOL0     H66067  12.584   5.350   4.656 -0.5886 -1.1108 -1.2792
  479MOL0     H66068  12.744   5.483   4.433 -1.4586 -0.4412 -0.3295
  479MOL0     H66069  12.797   5.491   4.591  0.2621  2.8317 -1.8205
  479MOL0     H66070  12.904   5.303   4.458  1.0358 -1.8973  0.3857
  479MOL0     H66071  12.743   5.239   4.418  1.1790 -0.9251  1.0566
  479MOL0     H66072  12.721   5.131   4.611  1.0437  0.0845  0.1082
  479MOL0     H66073  12.789   5.256   4.716  0.9961  0.8395  1.3138
  479MOL0     H66074  13.026   5.174   4.639 -0.6560  0.2717 -0.7673
  479MOL0     H66075  12.935   5.059   4.731 -1.4009  1.0444  0.6164
  479MOL0     H66076  12.976   5.048   4.423 -3.4495 -0.9668 -0.6200
  479MOL0     H66077  12.847   4.965   4.495 -1.1570  0.9238  2.3595
  479MOL0     H66078  13.043   4.824   4.464 -1.4714  0.4407 -1.2548
  479MOL0     H66079  13.055   4.853   4.625 -0.7370 -3.2478 -2.9822
  479MOL0     H66080  13.271   4.899   4.542 -1.4167 -1.1008  0.7199
  479MOL0     H66081  13.202   5.058   4.587  0.7645  2.6410 -2.7611
  479MOL0     H66082  12.376   5.401   4.244  1.1051  0.7643  1.1925
  479MOL0     H66083  12.131   5.441   4.222  1.8426 -2.9857 -0.5193
  479MOL0     H66084  11.835   5.682   4.399  0.0354  0.5071 -1.2523
  479MOL0     H66085  11.619   5.836   4.416 -1.8191  0.5489  0.2657
  479MOL0     H66086  10.290   5.906   4.895  1.4027  2.4635 -2.5548
  479MOL0     H66087  10.084   5.965   4.778  1.6224  0.3897 -0.3349
  479MOL0     H66088   9.817   6.165   4.593 -0.7001  1.7176  2.4459
  479MOL0     H66089   9.668   6.176   4.417 -1.3589  0.4158  0.0227
  479MOL0     H66090   9.528   6.170   4.260  0.4919  0.4944  2.4155
  479MOL0     H66091   9.384   6.093   4.208 -0.6836 -0.2370  0.2434
  479MOL0     H66092   9.397   6.326   4.396 -4.1276  5.3092 -0.9068
  479MOL0     H66093   9.245   6.274   4.325 -0.5666 -1.3917  0.4958
  479MOL0     H66094   9.477   6.381   4.162  1.0810 -2.4626  0.7333
  479MOL0     H66095   9.325   6.324   4.093  0.7313  3.8572 -1.5981
  479MOL0     H66096   9.354   6.580   4.131  1.7831  0.7310  1.8030
  479MOL0     H66097   9.344   6.541   4.296  1.7147 -0.9449 -0.7282
  479MOL0     H66098   8.950   6.531   4.207 -0.2283 -2.0983 -2.8408
  479MOL0     H66099   9.385   5.943   4.638  0.9527 -2.1081  2.9123
  479MOL0     H66100   9.514   5.998   4.970  1.9698 -2.0041  2.2491
  479MOL0     H66101   9.408   5.905   4.851  0.4578 -0.1768  1.3101
  479MOL0     H66102   9.561   5.839   4.897 -0.3678 -0.7052 -0.7155
  480MOL0     O66103   3.353   6.904   0.660 -0.5993 -0.3362 -0.6563
  480MOL0     C66104   3.422   7.007   0.643  1.1570 -0.3188 -0.2102
  480MOL0     O66105   3.433   7.098   0.734  1.0193 -0.5867 -0.4568
  480MOL0     C66106   3.402   7.063   0.862  1.0478 -0.3774  0.4826
  480MOL0     C66107   3.303   7.139   0.920  0.2793 -0.8656 -0.6473
  480MOL0     C66108   3.264   7.118   1.049  0.6704  0.0109  0.8383
  480MOL0     C66109   3.338   7.033   1.131 -0.0069  0.2156 -0.0436
  480MOL0     O66110   3.306   7.018   1.265 -0.4893 -0.6688 -0.2417
  480MOL0     C66111   3.196   7.084   1.329  0.3731  0.3790 -0.3585
  480MOL0     C66112   3.210   7.042   1.473 -0.5949 -0.2397 -0.0175
  480MOL0     C66113   3.341   7.099   1.553  0.6386 -0.0671 -0.4012
  480MOL0     C66114   3.302   7.094   1.703  0.3575  0.0669  0.0011
  480MOL0     C66115   3.405   7.179   1.789  0.2523 -0.9098  0.2229
  480MOL0     C66116   3.510   7.086   1.831  0.2278  0.1357 -0.8603
  480MOL0     C66117   3.621   7.153   1.915 -0.0850  0.1804 -0.0879
  480MOL0     C66118   3.706   7.037   1.978 -0.1434 -0.3099 -0.0599
  480MOL0     N66119   3.833   7.092   2.029  0.5560  0.8988 -0.4301
  480MOL0     C66120   3.886   7.031   2.137  0.2310  0.4526  0.0232
  480MOL0     C66121   4.010   7.066   2.143 -0.3428 -0.7023  0.2010
  480MOL0     C66122   4.098   7.042   2.262  1.4536 -0.2453 -0.2216
  480MOL0     C66123   4.243   7.098   2.260  0.5387 -0.2666  0.2175
  480MOL0     C66124   4.355   6.984   2.251 -0.3450 -0.4544  0.0482
  480MOL0     C66125   4.484   7.030   2.310  0.0152 -0.9096 -0.0956
  480MOL0     O66126   4.558   7.093   2.202 -0.2587  0.3283  0.2454
  480MOL0     C66127   4.697   7.107   2.224  0.4121 -0.6134  0.3144
  480MOL0     C66128   4.781   7.139   2.122  0.4086 -0.6564  0.2636
  480MOL0     C66129   4.922   7.156   2.131 -0.1483 -0.2220 -0.2501
  480MOL0     C66130   5.003   7.185   2.004  0.7544  0.3636 -0.0435
  480MOL0     C66131   4.979   7.146   2.257  0.0677 -0.6857 -1.0046
  480MOL0     C66132   5.120   7.177   2.295  0.0455  0.1424 -0.2485
  480MOL0     O66133   5.175   7.114   2.401 -0.5379  0.1889 -0.0465
  480MOL0     C66134   5.308   7.141   2.434  0.6584 -0.1755  0.6938
  480MOL0     C66135   5.331   7.209   2.550 -0.2841 -0.0720  0.1729
  480MOL0     C66136   5.459   7.228   2.595  0.1545  0.7541 -0.7481
  480MOL0     C66137   5.570   7.183   2.523  0.6680 -0.7939 -0.0434
  480MOL0     O66138   5.688   7.227   2.569 -0.2358 -0.0378 -0.0729
  480MOL0     C66139   5.803   7.187   2.499  0.8190 -1.3185  0.5565
  480MOL0     C66140   5.922   7.204   2.584  0.1627  0.4576  0.0048
  480MOL0     C66141   5.946   7.069   2.660 -0.3848 -0.1896 -0.5759
  480MOL0     C66142   6.047   7.099   2.764  0.1634 -0.0782 -0.7736
  480MOL0     C66143   6.097   6.980   2.851  1.6293  0.4497 -0.0985
  480MOL0     C66144   6.189   7.032   2.958 -0.7238 -1.2801  1.0824
  480MOL0     C66145   6.322   7.096   2.903 -0.2567  0.0500  0.6369
  480MOL0     C66146   6.414   7.144   3.013 -0.5024 -0.5637 -0.4278
  480MOL0    Cl66147   6.349   7.300   3.084  0.2001 -0.4170 -0.5294
  480MOL0     C66148   5.547   7.114   2.402  0.0615 -0.2017  0.3984
  480MOL0     C66149   5.417   7.082   2.359  0.3008 -0.3076  0.1027
  480MOL0     O66150   5.166   7.267   2.226 -0.6750  0.1269  0.3555
  480MOL0     C66151   4.896   7.118   2.367  0.3182 -0.0184  0.0325
  480MOL0     C66152   4.760   7.101   2.350  0.8213  0.3059 -0.5495
  480MOL0     N66153   4.024   7.153   2.041 -0.0725 -0.2357  0.4358
  480MOL0     N66154   3.930   7.155   1.960  0.2022  0.0241 -0.1839
  480MOL0     C66155   3.440   6.955   1.078  0.0147  0.5192  0.3562
  480MOL0     C66156   3.477   6.975   0.948  0.4802 -0.5034  0.2395
  480MOL0     C66157   3.481   7.019   0.501  0.0798 -1.1383 -0.0791
  480MOL0     C66158   3.415   6.967   0.392 -0.6157 -0.0747  0.1450
  480MOL0     C66159   3.466   6.987   0.260 -0.8932  0.1341  0.3583
  480MOL0     C66160   3.591   7.057   0.242 -0.2903 -0.8768 -0.3010
  480MOL0     O66161   3.653   7.066   0.118  1.0226  0.7755  1.0249
  480MOL0     C66162   3.678   7.203   0.074 -0.1460 -0.3147  0.8533
  480MOL0     C66163   3.710   7.226  -0.074  0.0009 -0.3617  0.1927
  480MOL0     C66164   3.617   7.340  -0.115 -0.4264 -0.3427  0.4462
  480MOL0     C66165   3.466   7.310  -0.142 -0.2750 -1.0147  0.3742
  480MOL0     C66166   3.412   7.424  -0.206  0.1508 -0.6826 -0.5604
  480MOL0     C66167   3.366   7.527  -0.250  0.3498 -0.1456 -0.1878
  480MOL0     C66168   3.652   7.110   0.360  0.9965 -0.9761  0.0105
  480MOL0     C66169   3.602   7.093   0.486 -0.7285 -0.3210 -0.1840
  480MOL0     C66170   3.674   7.163   0.603 -0.1362  0.3894  0.4795
  480MOL0     H66171   3.245   7.209   0.860 -0.2703 -0.9572 -0.2273
  480MOL0     H66172   3.183   7.177   1.091 -1.8468 -2.1663 -0.6874
  480MOL0     H66173   3.096   7.052   1.298  0.3025 -1.1280  1.2953
  480MOL0     H66174   3.203   7.194   1.327 -0.7107  0.4549 -0.6635
  480MOL0     H66175   3.118   7.080   1.519 -0.6707  0.7514 -0.9608
  480MOL0     H66176   3.209   6.933   1.483 -0.8047 -0.1449  1.2807
  480MOL0     H66177   3.426   7.034   1.531 -0.0357 -1.5691  1.1827
  480MOL0     H66178   3.359   7.201   1.520 -1.6819  0.0133 -1.6300
  480MOL0     H66179   3.203   7.139   1.716  0.1855  0.0047 -0.9807
  480MOL0     H66180   3.306   6.987   1.725  0.8061 -0.3353 -1.8068
  480MOL0     H66181   3.348   7.221   1.872  0.5831 -2.2950  1.1825
  480MOL0     H66182   3.437   7.264   1.727  0.8476 -1.4547 -0.2281
  480MOL0     H66183   3.469   6.996   1.878 -3.3560  1.7343 -0.6453
  480MOL0     H66184   3.550   7.051   1.735  0.1579  1.0865 -1.2475
  480MOL0     H66185   3.569   7.215   1.989 -2.5263  0.9828 -2.3267
  480MOL0     H66186   3.686   7.214   1.851  1.2507 -1.0517  0.0363
  480MOL0     H66187   3.655   6.987   2.061 -0.7761 -0.6359 -0.6420
  480MOL0     H66188   3.730   6.957   1.908  0.4453 -1.0973  1.0196
  480MOL0     H66189   3.846   6.963   2.212  2.6403 -1.0618  0.0394
  480MOL0     H66190   4.099   6.934   2.274  1.9419 -0.1946  0.2527
  480MOL0     H66191   4.044   7.086   2.346 -2.3173  4.6483 -4.4995
  480MOL0     H66192   4.269   7.163   2.175  1.2967 -1.7166 -0.7038
  480MOL0     H66193   4.254   7.152   2.354  0.2455  1.4683 -0.6875
  480MOL0     H66194   4.324   6.897   2.310 -1.8408  0.0688  0.1027
  480MOL0     H66195   4.369   6.957   2.146  1.6020  0.7478 -0.0466
  480MOL0     H66196   4.473   7.107   2.386 -1.4930 -0.3768 -0.8277
  480MOL0     H66197   4.531   6.940   2.351  1.8412  1.5670  3.7415
  480MOL0     H66198   4.731   7.158   2.028 -2.3403  0.0524  1.7754
  480MOL0     H66199   5.040   7.288   2.011 -0.2389  0.9252 -2.2289
  480MOL0     H66200   4.950   7.164   1.910 -3.3634  2.7111  1.4941
  480MOL0     H66201   5.089   7.118   2.012  0.1305 -0.5423 -0.7951
  480MOL0     H66202   5.250   7.250   2.609  1.8422  3.0895  1.1476
  480MOL0     H66203   5.481   7.270   2.693  0.0270  1.3283 -0.9608
  480MOL0     H66204   5.809   7.082   2.469 -0.6803 -1.4679  0.7382
  480MOL0     H66205   5.811   7.237   2.402 -0.5733 -2.7472 -0.3410
  480MOL0     H66206   6.009   7.224   2.520  0.5212  0.8259  0.6039
  480MOL0     H66207   5.904   7.293   2.645  4.1188  1.7600 -0.4065
  480MOL0     H66208   5.983   6.990   2.595 -1.3137 -1.5774  0.5106
  480MOL0     H66209   5.860   7.026   2.714  1.1949  0.1080  2.4213
  480MOL0     H66210   5.997   7.166   2.835  1.1455  0.1271 -0.2478
  480MOL0     H66211   6.140   7.144   2.729  2.4519 -0.2367  4.1514
  480MOL0     H66212   6.014   6.921   2.892  0.0622 -0.9555 -4.6351
  480MOL0     H66213   6.140   6.897   2.794 -3.3309 -2.1175 -0.7222
  480MOL0     H66214   6.214   6.946   3.021  0.9696 -0.3352  1.7822
  480MOL0     H66215   6.127   7.100   3.018 -2.4663 -1.0779 -0.8230
  480MOL0     H66216   6.312   7.183   2.838 -1.1439  1.6365  2.7902
  480MOL0     H66217   6.376   7.022   2.843  0.3684  0.2364  0.9677
  480MOL0     H66218   6.499   7.188   2.960 -0.9926 -0.1634 -0.9000
  480MOL0     H66219   6.441   7.062   3.080 -3.0325 -2.5639 -1.6745
  480MOL0     H66220   5.627   7.078   2.338  0.5312  1.0903  0.2295
  480MOL0     H66221   5.389   7.015   2.278 -0.0064  0.1432 -0.1688
  480MOL0     H66222   4.924   7.116   2.472 -2.2561  1.5095  0.8401
  480MOL0     H66223   4.695   7.091   2.436  1.8476 -0.4873  0.1602
  480MOL0     H66224   3.488   6.876   1.135 -0.4272 -0.5936 -0.7583
  480MOL0     H66225   3.552   6.921   0.892  1.0392  1.4648 -1.0147
  480MOL0     H66226   3.326   6.906   0.406 -1.4144  1.2531  1.1355
  480MOL0     H66227   3.422   6.949   0.168  0.9249 -2.2786  0.3917
  480MOL0     H66228   3.596   7.264   0.112 -1.7531 -3.1624  2.2602
  480MOL0     H66229   3.765   7.245   0.127 -0.6053  0.5315  0.9647
  480MOL0     H66230   3.699   7.143  -0.145  3.7473 -0.6054 -0.3267
  480MOL0     H66231   3.816   7.251  -0.087  0.3441 -1.7086  0.2813
  480MOL0     H66232   3.621   7.418  -0.039  2.2995  0.6499 -0.5807
  480MOL0     H66233   3.667   7.376  -0.206  0.8900 -1.9750  0.4873
  480MOL0     H66234   3.419   7.291  -0.045  0.0360  1.8773  1.1884
  480MOL0     H66235   3.454   7.220  -0.204 -1.8482 -0.5728  0.0142
  480MOL0     H66236   3.331   7.610  -0.308 -0.4745  0.0451  0.5710
  480MOL0     H66237   3.753   7.149   0.347  0.8769 -0.7227 -0.1583
  480MOL0     H66238   3.685   7.090   0.684  3.1417 -1.5761 -1.5039
  480MOL0     H66239   3.774   7.185   0.566 -0.6714 -1.5103 -2.4648
  480MOL0     H66240   3.631   7.259   0.633 -1.7177 -0.3317  0.6289
  481MOL0     O66241   4.288   8.251   0.502  0.8096  0.2197 -0.4993
  481MOL0     C66242   4.234   8.146   0.519 -0.4052  0.2473  0.1633
  481MOL0     O66243   4.265   8.063   0.624  0.1122 -0.3698 -0.5516
  481MOL0     C66244   4.371   8.095   0.710  0.6700  0.7465 -0.3304
  481MOL0     C66245   4.354   8.060   0.844 -0.2263  0.1867  0.2978
  481MOL0     C66246   4.448   8.083   0.939 -0.0187  0.0333 -0.0831
  481MOL0     C66247   4.570   8.150   0.910  0.3467  1.4539  0.6981
  481MOL0     O66248   4.651   8.168   1.012 -0.2992  0.0288  0.4083
  481MOL0     C66249   4.789   8.195   0.982 -0.0030  1.0522 -0.0604
  481MOL0     C66250   4.818   8.347   0.990 -0.3545 -0.2135  0.6885
  481MOL0     C66251   4.840   8.406   1.124 -0.9496  0.0033 -0.9509
  481MOL0     C66252   4.898   8.553   1.121 -0.6682 -1.0582 -0.0076
  481MOL0     C66253   4.788   8.654   1.102  0.5426  0.4348 -0.8175
  481MOL0     C66254   4.830   8.802   1.067 -0.3970  0.6351 -0.4428
  481MOL0     C66255   4.703   8.897   1.045 -0.2622  0.4012 -0.1206
  481MOL0     C66256   4.738   9.034   0.990 -0.2665 -0.1198  0.9405
  481MOL0     N66257   4.826   9.114   1.081  0.6631 -0.3655 -0.1867
  481MOL0     C66258   4.792   9.143   1.215 -0.4577 -0.8602 -0.1654
  481MOL0     C66259   4.884   9.239   1.253  1.0277 -0.0735  0.5520
  481MOL0     C66260   4.889   9.305   1.385 -0.1906  0.3219  0.3059
  481MOL0     C66261   5.015   9.366   1.439 -1.1289 -0.3316 -0.3078
  481MOL0     C66262   5.066   9.483   1.353 -0.0857  0.1469 -0.3208
  481MOL0     C66263   5.180   9.569   1.413  0.2553 -0.1352 -0.3796
  481MOL0     O66264   5.132   9.635   1.536  0.2776  0.2318 -0.0536
  481MOL0     C66265   5.234   9.688   1.618  0.0180 -0.3517 -0.6834
  481MOL0     C66266   5.343   9.767   1.571 -0.0506 -0.4700  0.7172
  481MOL0     C66267   5.427   9.835   1.663  0.5546 -0.3622  0.6518
  481MOL0     C66268   5.538   9.917   1.608  0.6527  0.1201  0.2127
  481MOL0     C66269   5.398   9.826   1.809  0.1253 -0.2837  0.8551
  481MOL0     C66270   5.489   9.887   1.916  0.6278  0.2509  0.6764
  481MOL0     O66271   5.426   9.913   2.028  0.3970 -0.0876 -0.6697
  481MOL0     C66272   5.487   9.957   2.143  0.2779 -0.5288 -0.2155
  481MOL0     C66273   5.627   9.931   2.166  0.4156  0.4991 -0.6117
  481MOL0     C66274   5.692   9.983   2.280  0.1439  0.3069  0.3654
  481MOL0     C66275   5.621  10.068   2.359  0.1198  0.4094 -0.1868
  481MOL0     O66276   5.689  10.119   2.459  0.0689  0.6564 -0.5602
  481MOL0     C66277   5.671  10.259   2.479 -1.2235 -0.1584 -0.8030
  481MOL0     C66278   5.747  10.297   2.592  1.2104  0.1108 -0.1865
  481MOL0     C66279   5.696  10.426   2.658 -0.3128 -0.2156  0.2068
  481MOL0     C66280   5.670  10.552   2.571 -0.8237  0.6908 -0.7266
  481MOL0     C66281   5.629  10.665   2.667 -0.0742 -0.6471  0.3939
  481MOL0     C66282   5.619  10.798   2.593 -0.3413 -0.1388 -0.4222
  481MOL0     C66283   5.539  10.895   2.678 -0.1184 -0.2455 -0.9727
  481MOL0     C66284   5.530  11.035   2.625  0.7302 -0.1470 -0.5070
  481MOL0    Cl66285   5.432  11.037   2.474  0.0406 -0.0004 -0.1133
  481MOL0     C66286   5.493  10.107   2.330  0.4751 -0.8301  0.2416
  481MOL0     C66287   5.428  10.066   2.218 -0.4211  0.5946  0.5614
  481MOL0     O66288   5.602   9.921   1.895 -0.4946 -0.1800 -0.8759
  481MOL0     C66289   5.292   9.747   1.848  0.3207 -0.2381 -0.7717
  481MOL0     C66290   5.214   9.682   1.760 -0.4295 -0.2510 -0.2239
  481MOL0     N66291   4.967   9.261   1.139 -0.6357  0.5251 -0.4188
  481MOL0     N66292   4.939   9.184   1.041  0.1723  0.8129  0.2442
  481MOL0     C66293   4.591   8.190   0.773  0.4762  0.1772 -0.4975
  481MOL0     C66294   4.493   8.157   0.680 -0.4890  0.1519 -1.1059
  481MOL0     C66295   4.137   8.101   0.422  0.7133 -0.4486  0.0654
  481MOL0     C66296   4.136   7.969   0.375 -0.5090  0.4038 -0.3849
  481MOL0     C66297   4.048   7.921   0.279 -0.1766 -0.6853 -0.4664
  481MOL0     C66298   3.952   8.007   0.228 -0.2940 -0.9268 -0.5875
  481MOL0     O66299   3.860   7.963   0.133  0.1246  0.1607 -0.6088
  481MOL0     C66300   3.779   8.042   0.054  0.1497  0.7969  0.2342
  481MOL0     C66301   3.674   7.958  -0.013 -0.2195 -0.0095  0.0042
  481MOL0     C66302   3.590   8.043  -0.123  0.1434  0.7730 -1.0927
  481MOL0     C66303   3.536   7.954  -0.233  0.1935  0.2187 -0.6848
  481MOL0     C66304   3.632   7.933  -0.342  0.4094 -0.6112 -0.5754
  481MOL0     C66305   3.718   7.955  -0.424  0.0102  0.1466  0.0938
  481MOL0     C66306   3.944   8.139   0.287 -0.6428 -0.5240  0.6004
  481MOL0     C66307   4.034   8.188   0.376 -0.6177 -0.3618  0.2597
  481MOL0     C66308   4.024   8.345   0.402 -0.0322  0.3827 -0.6684
  481MOL0     H66309   4.257   8.025   0.877 -0.2474  0.4333  0.4959
  481MOL0     H66310   4.429   8.050   1.040  0.4058 -2.0440 -0.6303
  481MOL0     H66311   4.821   8.148   0.889  1.7034 -0.9358  1.4450
  481MOL0     H66312   4.840   8.141   1.062  1.2856  0.9813 -0.9050
  481MOL0     H66313   4.911   8.364   0.935  0.0101  2.2395  1.9224
  481MOL0     H66314   4.738   8.399   0.936  0.7467  2.0491  1.1370
  481MOL0     H66315   4.756   8.405   1.194  1.1754  0.8189  1.7520
  481MOL0     H66316   4.916   8.352   1.180 -1.6573  0.2401  0.2645
  481MOL0     H66317   4.953   8.576   1.213  0.9017  0.5192 -1.2568
  481MOL0     H66318   4.978   8.563   1.047  0.5394  0.6209  1.4205
  481MOL0     H66319   4.729   8.659   1.194 -0.0025 -1.7424 -0.9817
  481MOL0     H66320   4.727   8.611   1.022 -0.4724 -0.0561  0.1767
  481MOL0     H66321   4.893   8.852   1.142  0.9421 -0.6264 -0.6853
  481MOL0     H66322   4.885   8.794   0.973 -3.0631  3.4207 -2.4419
  481MOL0     H66323   4.642   8.916   1.134 -0.9810  0.6945 -0.6595
  481MOL0     H66324   4.642   8.837   0.976  1.8196 -1.2758 -0.6006
  481MOL0     H66325   4.790   9.022   0.895 -1.0111  1.9445  0.2207
  481MOL0     H66326   4.652   9.096   0.965  2.6077  3.6937 -0.5627
  481MOL0     H66327   4.700   9.124   1.269 -0.5600  2.5248  1.1010
  481MOL0     H66328   4.857   9.231   1.459 -0.2765  0.0012 -0.0431
  481MOL0     H66329   4.809   9.380   1.382 -1.3726 -0.8010  2.1456
  481MOL0     H66330   5.007   9.410   1.539  1.7286 -0.2248 -0.0285
  481MOL0     H66331   5.097   9.293   1.441  0.6098  1.5032 -0.9891
  481MOL0     H66332   5.112   9.441   1.263 -0.9525 -1.4154 -0.0823
  481MOL0     H66333   4.976   9.538   1.326  0.5343  0.6038 -1.5440
  481MOL0     H66334   5.271   9.510   1.430  1.9648  2.4486 -0.0812
  481MOL0     H66335   5.206   9.647   1.342  1.6017 -0.6481 -0.4853
  481MOL0     H66336   5.348   9.777   1.463 -0.8280 -1.4556  0.5723
  481MOL0     H66337   5.534  10.020   1.645  1.2767  0.5942 -0.9486
  481MOL0     H66338   5.530   9.915   1.499 -0.3179  0.1970  0.2719
  481MOL0     H66339   5.632   9.867   1.634  2.0330  0.0974 -3.9768
  481MOL0     H66340   5.689   9.863   2.108  0.1862  1.6411 -2.2403
  481MOL0     H66341   5.797   9.964   2.297 -0.2964 -3.3016 -0.2109
  481MOL0     H66342   5.701  10.323   2.395 -0.6347 -0.1185 -0.5619
  481MOL0     H66343   5.564  10.280   2.492 -1.3463  0.6679 -2.7888
  481MOL0     H66344   5.729  10.213   2.659 -1.0095 -0.1839 -1.0505
  481MOL0     H66345   5.852  10.301   2.563  1.9940 -1.3518  2.1943
  481MOL0     H66346   5.762  10.446   2.743 -1.5042 -1.6805  1.5415
  481MOL0     H66347   5.600  10.408   2.709 -0.6070 -0.5346 -0.4482
  481MOL0     H66348   5.583  10.534   2.508 -2.1875  0.4633  1.1412
  481MOL0     H66349   5.757  10.570   2.507 -1.0262  1.5643 -0.7641
  481MOL0     H66350   5.535  10.631   2.710 -1.6356  1.1978 -1.3701
  481MOL0     H66351   5.699  10.680   2.750  0.2081 -0.7760  0.1807
  481MOL0     H66352   5.572  10.785   2.495  0.7467  0.1859 -1.0077
  481MOL0     H66353   5.718  10.838   2.570 -0.0718 -0.1312  0.7145
  481MOL0     H66354   5.589  10.895   2.775 -2.5137  1.6618  0.3919
  481MOL0     H66355   5.439  10.856   2.700  0.7007 -1.3278  1.1234
  481MOL0     H66356   5.627  11.079   2.596  0.0512  2.1424  0.4422
  481MOL0     H66357   5.478  11.093   2.701 -0.3641  1.0329 -2.0909
  481MOL0     H66358   5.441  10.178   2.393  0.6007  1.6465 -2.2666
  481MOL0     H66359   5.325  10.090   2.195 -0.3016 -0.3242 -1.0378
  481MOL0     H66360   5.269   9.723   1.951 -0.9720  0.9811 -0.7382
  481MOL0     H66361   5.142   9.613   1.804  1.3114 -0.1083  3.1816
  481MOL0     H66362   4.678   8.248   0.744 -0.6338  1.1760 -1.9969
  481MOL0     H66363   4.518   8.191   0.580  0.9940  4.0110  0.3926
  481MOL0     H66364   4.204   7.892   0.409 -2.1612 -1.2709 -0.6830
  481MOL0     H66365   4.058   7.818   0.246 -0.9834 -0.8501 -0.2213
  481MOL0     H66366   3.723   8.117   0.110  0.4428 -1.0857  3.2898
  481MOL0     H66367   3.847   8.094  -0.013  0.1707  0.4285 -0.0369
  481MOL0     H66368   3.605   7.925   0.065 -0.3785 -0.3156 -0.2672
  481MOL0     H66369   3.717   7.868  -0.057 -1.2294 -1.2505  1.4680
  481MOL0     H66370   3.503   8.079  -0.066 -0.2721 -0.6416 -0.8054
  481MOL0     H66371   3.643   8.128  -0.168  1.6251 -0.1669 -1.1938
  481MOL0     H66372   3.442   7.990  -0.276 -0.0749 -2.2762 -2.3714
  481MOL0     H66373   3.503   7.861  -0.185  1.1673  1.0468  1.7633
  481MOL0     H66374   3.775   7.986  -0.509 -0.9016 -1.1796 -1.0519
  481MOL0     H66375   3.874   8.206   0.237  3.1137  1.5141 -2.4046
  481MOL0     H66376   3.920   8.378   0.401 -0.6897 -1.3730  1.0977
  481MOL0     H66377   4.068   8.375   0.498  2.6337  0.0076 -1.7078
  481MOL0     H66378   4.093   8.396   0.335  0.7943  1.6470  1.0555
  482MOL0     O66379   4.629  11.373   1.225 -0.5137 -0.5962  0.0578
  482MOL0     C66380   4.655  11.364   1.103  0.3902 -0.6492  0.1103
  482MOL0     O66381   4.786  11.353   1.050 -0.6193 -0.0602 -0.0402
  482MOL0     C66382   4.885  11.344   1.150  0.3817 -0.5179 -0.5174
  482MOL0     C66383   4.873  11.232   1.238 -0.7761 -0.7814  0.8918
  482MOL0     C66384   4.974  11.200   1.325 -1.0124  0.2689 -0.4225
  482MOL0     C66385   5.091  11.282   1.330 -0.6178  0.2250  1.3240
  482MOL0     O66386   5.182  11.248   1.422  0.4659  0.4928 -0.5491
  482MOL0     C66387   5.307  11.316   1.406  0.0492 -0.4504 -0.8214
  482MOL0     C66388   5.406  11.242   1.500 -0.2725  0.4225 -0.3672
  482MOL0     C66389   5.437  11.097   1.445 -1.2683  0.2796  0.1036
  482MOL0     C66390   5.531  11.026   1.543  0.0739 -0.2549  0.1587
  482MOL0     C66391   5.564  10.888   1.501  0.0191  0.4561 -0.1890
  482MOL0     C66392   5.667  10.823   1.596  0.1677  0.2722 -0.1246
  482MOL0     C66393   5.672  10.669   1.588 -0.4850 -0.0277 -1.1123
  482MOL0     C66394   5.805  10.615   1.648 -0.5565 -0.1800  0.0625
  482MOL0     N66395   5.807  10.469   1.619 -0.1159 -0.0186 -0.0301
  482MOL0     C66396   5.808  10.373   1.721 -0.0904 -0.0002 -0.5124
  482MOL0     C66397   5.813  10.256   1.653  0.4319  0.2891 -0.0260
  482MOL0     C66398   5.812  10.118   1.716  0.4287 -0.2001  0.6494
  482MOL0     C66399   5.946  10.070   1.751  0.5209 -0.6605 -0.9259
  482MOL0     C66400   5.931   9.928   1.827  0.6166  0.4990 -0.4649
  482MOL0     C66401   6.067   9.863   1.863 -0.3272 -0.2470 -0.2990
  482MOL0     O66402   6.157   9.907   1.763 -0.1648  0.6478  0.8231
  482MOL0     C66403   6.293   9.873   1.770  0.0269  0.2817  0.3922
  482MOL0     C66404   6.381   9.982   1.777  0.2443 -0.1871  0.3413
  482MOL0     C66405   6.521   9.962   1.777 -0.4667 -0.5237 -0.4914
  482MOL0     C66406   6.612  10.083   1.755  0.0006 -0.1938 -0.1429
  482MOL0     C66407   6.577   9.834   1.791  0.1144  0.2489  0.1411
  482MOL0     C66408   6.723   9.801   1.828  0.1367 -0.3216 -0.2046
  482MOL0     O66409   6.777   9.673   1.802 -0.1238 -0.8998 -0.1128
  482MOL0     C66410   6.905   9.634   1.848  0.5108 -1.3491  1.4070
  482MOL0     C66411   6.922   9.496   1.860  0.3512  1.0399  0.0739
  482MOL0     C66412   7.049   9.436   1.900 -0.1510  0.3946  0.2343
  482MOL0     C66413   7.162   9.520   1.929 -0.0720 -1.4296  0.4374
  482MOL0     O66414   7.273   9.464   1.974  0.2276 -1.1722  0.1703
  482MOL0     C66415   7.361   9.466   1.861 -0.1510  0.2527  0.6147
  482MOL0     C66416   7.491   9.385   1.890  0.0576 -0.1188 -0.0506
  482MOL0     C66417   7.593   9.416   1.786 -0.2485  0.3424 -0.0778
  482MOL0     C66418   7.720   9.335   1.810  0.0626  0.3996 -0.0430
  482MOL0     C66419   7.834   9.363   1.706 -0.0294  0.0752 -0.0308
  482MOL0     C66420   7.956   9.268   1.731 -0.2129 -0.2025  0.1491
  482MOL0     C66421   7.933   9.113   1.695  1.1547  0.4935  0.4741
  482MOL0     C66422   8.068   9.044   1.679 -0.3132 -0.0333  0.3704
  482MOL0    Cl66423   8.137   9.035   1.846  0.0747  0.2764 -0.4963
  482MOL0     C66424   7.145   9.664   1.929  0.4207 -0.1227  0.4955
  482MOL0     C66425   7.018   9.710   1.883 -0.0502 -1.2492  0.4063
  482MOL0     O66426   6.780   9.896   1.886 -1.1360  0.0820 -0.4584
  482MOL0     C66427   6.489   9.719   1.795  1.1268  0.3944 -0.5456
  482MOL0     C66428   6.346   9.742   1.775  0.0101 -0.2430 -0.1135
  482MOL0     N66429   5.829  10.283   1.521 -1.0637  0.7574  0.0293
  482MOL0     N66430   5.821  10.408   1.495 -0.1275 -0.1759 -0.6452
  482MOL0     C66431   5.092  11.403   1.263 -0.2637  0.2589 -0.1836
  482MOL0     C66432   4.999  11.432   1.165 -0.0327  0.8422 -0.3183
  482MOL0     C66433   4.544  11.354   1.013  0.2395 -0.2868 -0.4137
  482MOL0     C66434   4.545  11.241   0.926  0.1346 -0.8622  0.2538
  482MOL0     C66435   4.432  11.200   0.852 -0.5651  0.4226 -0.0994
  482MOL0     C66436   4.314  11.281   0.867 -0.6600 -0.6334  0.3558
  482MOL0     O66437   4.206  11.257   0.780  0.2758 -0.0091 -0.2744
  482MOL0     C66438   4.127  11.148   0.816 -0.4913  0.6707 -0.0668
  482MOL0     C66439   3.995  11.159   0.733  0.1132  0.5550  0.0004
  482MOL0     C66440   3.912  11.028   0.722  0.0583  0.5788 -0.3097
  482MOL0     C66441   3.850  10.996   0.859  0.6435  1.3698 -0.3094
  482MOL0     C66442   3.938  10.918   0.950  0.8476  0.0284  0.1771
  482MOL0     C66443   4.017  10.871   1.028 -0.6192 -0.2762 -0.7853
  482MOL0     C66444   4.315  11.400   0.953  0.0359  0.5828  0.4233
  482MOL0     C66445   4.431  11.436   1.021  0.3635 -0.3301  0.6587
  482MOL0     C66446   4.430  11.560   1.115  0.6943  0.3968  0.6005
  482MOL0     H66447   4.790  11.163   1.226  0.1259 -1.4056 -3.9191
  482MOL0     H66448   4.986  11.107   1.380  0.9426  0.6362 -0.1530
  482MOL0     H66449   5.297  11.419   1.441 -0.7959 -1.7653  3.4856
  482MOL0     H66450   5.345  11.321   1.304 -0.6335  1.5293 -1.0191
  482MOL0     H66451   5.498  11.301   1.504  1.0475 -1.5637  0.1093
  482MOL0     H66452   5.369  11.223   1.601  0.0465 -3.9644 -0.8881
  482MOL0     H66453   5.345  11.039   1.438 -2.1970  1.4692  1.8033
  482MOL0     H66454   5.482  11.110   1.346  1.2252  1.9107  1.3376
  482MOL0     H66455   5.620  11.089   1.547  0.3504 -0.7028  1.6492
  482MOL0     H66456   5.472  11.027   1.635  0.9034  1.1764  0.7119
  482MOL0     H66457   5.603  10.886   1.398  0.3020 -1.6855 -0.0929
  482MOL0     H66458   5.473  10.829   1.504  0.9387 -0.9835  1.0849
  482MOL0     H66459   5.761  10.871   1.570  1.6988 -1.8287  1.2392
  482MOL0     H66460   5.647  10.851   1.700  2.2844  2.9101 -0.3462
  482MOL0     H66461   5.667  10.640   1.482 -0.7836  0.2472 -1.1773
  482MOL0     H66462   5.590  10.624   1.644  0.2119 -1.3971 -1.1615
  482MOL0     H66463   5.895  10.662   1.606 -1.4825  1.4410 -0.1852
  482MOL0     H66464   5.797  10.638   1.754 -0.5322  0.3801 -0.0522
  482MOL0     H66465   5.800  10.388   1.828 -0.4686 -3.8346  0.1609
  482MOL0     H66466   5.775  10.051   1.638 -2.0625 -0.4976  2.0147
  482MOL0     H66467   5.737  10.111   1.795  0.2025  0.6551  0.5219
  482MOL0     H66468   6.012  10.074   1.664  1.0671  1.5434 -0.4740
  482MOL0     H66469   5.994  10.134   1.826  2.8760 -1.6548 -1.4896
  482MOL0     H66470   5.881   9.935   1.925  0.3876 -0.3140 -0.5126
  482MOL0     H66471   5.879   9.855   1.764  0.4656  1.2128 -1.1800
  482MOL0     H66472   6.113   9.899   1.955 -0.5110  0.9128 -0.6413
  482MOL0     H66473   6.057   9.755   1.880  1.4955 -0.5424 -0.9101
  482MOL0     H66474   6.341  10.082   1.763  0.7026  0.2271  1.7661
  482MOL0     H66475   6.652  10.125   1.848  0.7502 -0.1636 -0.4731
  482MOL0     H66476   6.548  10.159   1.709  2.6715  1.1840 -1.8654
  482MOL0     H66477   6.700  10.071   1.691  1.3543 -3.7427  2.0957
  482MOL0     H66478   6.835   9.432   1.851  1.4897 -1.1929  3.1949
  482MOL0     H66479   7.060   9.328   1.895  1.6829  0.6200 -1.5701
  482MOL0     H66480   7.330   9.404   1.777  1.6737 -0.8038  0.6809
  482MOL0     H66481   7.391   9.562   1.817 -1.4419  0.6182  0.4927
  482MOL0     H66482   7.531   9.410   1.989 -0.8288 -1.7715  0.7725
  482MOL0     H66483   7.466   9.279   1.897 -0.2690 -0.0750 -0.5478
  482MOL0     H66484   7.626   9.520   1.792 -1.7879  0.8854 -0.4822
  482MOL0     H66485   7.555   9.398   1.686 -3.5726  1.2230  0.8803
  482MOL0     H66486   7.704   9.227   1.815  4.8769 -0.6237 -1.4973
  482MOL0     H66487   7.767   9.360   1.905  1.1062 -1.9742  0.1297
  482MOL0     H66488   7.795   9.347   1.605  1.5156  0.7472 -0.7765
  482MOL0     H66489   7.865   9.468   1.709  0.3545  0.1891 -3.5380
  482MOL0     H66490   7.994   9.269   1.833  3.1754 -4.7794 -0.7200
  482MOL0     H66491   8.034   9.307   1.665  0.1278  0.3729  0.8757
  482MOL0     H66492   7.875   9.105   1.603  1.5850  0.1543  0.2316
  482MOL0     H66493   7.877   9.058   1.772  2.4372 -2.4441 -0.5499
  482MOL0     H66494   8.133   9.098   1.610  3.0280 -1.7924  1.9205
  482MOL0     H66495   8.061   8.944   1.636 -0.0870  0.1355 -0.0615
  482MOL0     H66496   7.217   9.739   1.959 -3.0104  3.3883  0.6736
  482MOL0     H66497   7.010   9.817   1.902  1.4809 -1.3651  1.9144
  482MOL0     H66498   6.528   9.618   1.796 -0.9283 -0.4556 -0.5749
  482MOL0     H66499   6.283   9.654   1.771 -0.0646 -0.1804 -0.3539
  482MOL0     H66500   5.177  11.468   1.280  1.1452 -1.5453  0.1131
  482MOL0     H66501   5.007  11.522   1.105  1.3282 -0.2801 -1.9205
  482MOL0     H66502   4.638  11.186   0.930  0.6213 -0.0096  2.8937
  482MOL0     H66503   4.430  11.103   0.803 -1.6733 -1.7652  3.8550
  482MOL0     H66504   4.180  11.054   0.796 -3.0598 -1.1235  1.0140
  482MOL0     H66505   4.098  11.149   0.922 -0.5690  1.0871 -0.0928
  482MOL0     H66506   4.017  11.191   0.630 -6.3386  0.4687 -1.8828
  482MOL0     H66507   3.936  11.247   0.762 -0.0341  1.3827 -2.5602
  482MOL0     H66508   3.835  11.049   0.648  0.1593  1.6040 -0.1494
  482MOL0     H66509   3.970  10.945   0.681 -0.0751  0.7108 -0.7730
  482MOL0     H66510   3.758  10.939   0.845  1.3485 -0.1948  1.1539
  482MOL0     H66511   3.806  11.087   0.900 -0.9367  1.1310 -1.3531
  482MOL0     H66512   4.086  10.816   1.088  0.6967  0.4311 -1.6071
  482MOL0     H66513   4.231  11.467   0.967 -1.7726 -1.5660  0.5402
  482MOL0     H66514   4.528  11.608   1.123 -0.3388  2.3251  3.0543
  482MOL0     H66515   4.357  11.633   1.080 -1.9506 -2.0394  0.7370
  482MOL0     H66516   4.409  11.535   1.220  1.5403 -0.2816  0.6154
  483MOL0     O66517   4.789   8.002  11.376  0.6440 -0.5150 -0.2819
  483MOL0     C66518   4.712   7.938  11.454 -1.1115 -0.1635 -0.1045
  483MOL0     O66519   4.754   7.879  11.569 -0.0150 -0.2928 -0.4050
  483MOL0     C66520   4.861   7.939  11.636  0.3002 -0.6350 -0.0033
  483MOL0     C66521   4.838   8.000  11.762  0.1645 -0.4659  0.1043
  483MOL0     C66522   4.941   8.064  11.830 -0.5039  0.1071  0.4402
  483MOL0     C66523   5.071   8.061  11.781 -0.1799  0.0555  0.2229
  483MOL0     O66524   5.162   8.123  11.849  0.1560 -1.3195 -0.5575
  483MOL0     C66525   5.241   8.215  11.773 -0.0730 -1.2619  0.5751
  483MOL0     C66526   5.293   8.311  11.884 -0.1551  0.4895  0.3338
  483MOL0     C66527   5.354   8.439  11.829  0.0142 -0.5680 -0.2385
  483MOL0     C66528   5.385   8.545  11.943  0.6365  0.7441  0.3910
  483MOL0     C66529   5.358   8.691  11.892 -0.8457 -0.5381  0.0774
  483MOL0     C66530   5.411   8.793  12.004  0.7581  0.0608 -0.3796
  483MOL0     C66531   5.325   8.924  12.022 -0.2679  0.6411 -0.2912
  483MOL0     C66532   5.276   9.000  11.891  0.2886  0.9211  0.6614
  483MOL0     N66533   5.217   9.124  11.921  0.7873 -0.4409 -0.6403
  483MOL0     C66534   5.099   9.145  11.989  0.6633  1.4618  0.6336
  483MOL0     C66535   5.101   9.269  12.030  0.0531  0.5231 -0.6058
  483MOL0     C66536   5.004   9.354  12.113 -0.3154  0.7393  0.7548
  483MOL0     C66537   4.863   9.326  12.072  0.4808 -0.0452 -0.4814
  483MOL0     C66538   4.755   9.397  12.154  0.7991  0.1414  0.2684
  483MOL0     C66539   4.795   9.545  12.194 -0.4557  0.5591 -0.0429
  483MOL0     O66540   4.857   9.619  12.087 -0.2220 -0.1969 -0.9362
  483MOL0     C66541   4.967   9.705  12.109  0.0465 -0.7375 -0.9830
  483MOL0     C66542   5.018   9.724  12.235 -0.1936  0.0420 -0.2512
  483MOL0     C66543   5.132   9.806  12.250 -0.0786  0.8382  0.4952
  483MOL0     C66544   5.156   9.848  12.399 -0.8463  0.3914  1.2848
  483MOL0     C66545   5.205   9.857  12.143  0.3069  0.0720  0.8662
  483MOL0     C66546   5.334   9.926  12.142 -0.0008 -0.0163 -0.3004
  483MOL0     O66547   5.347  10.034  12.065  0.7924  0.1053 -0.5628
  483MOL0     C66548   5.477  10.071  12.031 -0.1503 -0.8005  0.8145
  483MOL0     C66549   5.502  10.098  11.895 -0.4197  0.3183  0.7389
  483MOL0     C66550   5.631  10.144  11.848 -0.3675  0.6173  0.2705
  483MOL0     C66551   5.739  10.152  11.944 -0.5440  0.3257  0.0614
  483MOL0     O66552   5.860  10.190  11.898 -0.8359 -0.2304 -0.5790
  483MOL0     C66553   5.972  10.233  11.982  0.0097 -0.2288  0.6213
  483MOL0     C66554   6.087  10.294  11.896 -0.4385 -0.5795  0.0738
  483MOL0     C66555   6.218  10.317  11.974 -0.7543  0.7529 -0.0095
  483MOL0     C66556   6.305  10.423  11.908 -0.0293  0.0993 -0.2397
  483MOL0     C66557   6.449  10.386  11.892 -0.2606  0.2620 -0.1769
  483MOL0     C66558   6.515  10.381  12.031  0.3399  0.4756 -0.2443
  483MOL0     C66559   6.660  10.329  12.007 -0.2030 -1.0832  0.7269
  483MOL0     C66560   6.727  10.308  12.135 -0.3247  0.1040 -0.1833
  483MOL0    Cl66561   6.724  10.446  12.242 -0.0858  0.1353 -0.3422
  483MOL0     C66562   5.706  10.135  12.081  0.2321 -0.1917  0.2971
  483MOL0     C66563   5.580  10.090  12.125 -0.1171  0.8085  0.0507
  483MOL0     O66564   5.416   9.881  12.211 -0.3265 -0.2018 -0.1592
  483MOL0     C66565   5.145   9.847  12.018  1.0439  0.4239 -0.2409
  483MOL0     C66566   5.026   9.774  12.002  0.4936 -0.0040 -0.0251
  483MOL0     N66567   5.222   9.331  11.990 -0.0890  0.7118  0.1286
  483MOL0     N66568   5.276   9.248  11.911 -0.1962  1.1252 -0.1621
  483MOL0     C66569   5.094   7.997  11.662 -1.0791 -0.9974 -0.4256
  483MOL0     C66570   4.990   7.938  11.588  0.8395 -0.6583  0.9195
  483MOL0     C66571   4.581   7.902  11.401 -0.6879 -0.1690 -0.5312
  483MOL0     C66572   4.563   7.866  11.268  0.1775 -0.4886 -0.4751
  483MOL0     C66573   4.440   7.813  11.223 -0.2882  0.7738  0.4274
  483MOL0     C66574   4.335   7.799  11.307  0.0643  0.6340  0.3352
  483MOL0     O66575   4.212   7.756  11.250  0.0146  0.1273 -0.0272
  483MOL0     C66576   4.098   7.850  11.271  0.0745 -0.1073  0.1628
  483MOL0     C66577   4.009   7.850  11.156 -0.2683 -0.1302  0.1792
  483MOL0     C66578   3.974   7.702  11.099  0.5904  0.1152 -0.1887
  483MOL0     C66579   3.855   7.655  11.183 -0.4052  0.2217 -0.6382
  483MOL0     C66580   3.891   7.560  11.286 -0.1304  0.8086  0.1263
  483MOL0     C66581   3.941   7.490  11.376  0.3991  0.6978  0.6614
  483MOL0     C66582   4.351   7.833  11.444 -0.6678 -0.8315  0.6352
  483MOL0     C66583   4.473   7.886  11.493  1.3655  0.6834 -0.8209
  483MOL0     C66584   4.475   7.936  11.641  0.3274  0.0346  0.3667
  483MOL0     H66585   4.738   7.997  11.804  0.0015 -2.4977 -0.3219
  483MOL0     H66586   4.912   8.123  11.917 -2.9417 -1.6514  0.8949
  483MOL0     H66587   5.176   8.270  11.704 -1.1581 -2.3531  0.6931
  483MOL0     H66588   5.323   8.166  11.721 -0.5475  0.8011 -2.3207
  483MOL0     H66589   5.207   8.341  11.945 -0.5100  0.9013 -0.3623
  483MOL0     H66590   5.369   8.279  11.956 -0.5321  0.3956  0.6906
  483MOL0     H66591   5.436   8.414  11.762 -0.0812  1.2087 -1.0571
  483MOL0     H66592   5.274   8.483  11.768 -0.8485  0.2621  1.4343
  483MOL0     H66593   5.324   8.528  12.032  1.3984  0.7764  0.9306
  483MOL0     H66594   5.487   8.525  11.976  0.9073 -1.9112 -1.6956
  483MOL0     H66595   5.252   8.710  11.871 -0.9386  0.0914  1.0576
  483MOL0     H66596   5.410   8.713  11.798 -3.1900  1.9709 -0.7670
  483MOL0     H66597   5.419   8.739  12.098  0.4362  1.4712  0.4842
  483MOL0     H66598   5.510   8.831  11.976  0.5122 -0.8717 -2.8154
  483MOL0     H66599   5.371   8.995  12.091  1.4143  0.1372 -0.8517
  483MOL0     H66600   5.237   8.885  12.073 -1.0241  3.3285  0.5973
  483MOL0     H66601   5.357   9.018  11.820 -0.6331  3.5733  0.1485
  483MOL0     H66602   5.213   8.927  11.840  0.4014  1.3788 -0.1454
  483MOL0     H66603   5.021   9.072  12.010  0.0623  1.7510 -0.5011
  483MOL0     H66604   5.039   9.453  12.081  0.7026 -0.6352 -2.8440
  483MOL0     H66605   5.022   9.341  12.220  1.7283 -0.5369  0.3049
  483MOL0     H66606   4.847   9.344  11.966 -1.1124  1.2747 -0.0589
  483MOL0     H66607   4.857   9.218  12.088  1.8394 -0.0565  0.0534
  483MOL0     H66608   4.665   9.412  12.094  1.5118  2.3724 -0.3386
  483MOL0     H66609   4.733   9.324  12.232  1.1514 -1.7537 -1.3327
  483MOL0     H66610   4.702   9.589  12.231 -0.7709 -0.5748  0.5698
  483MOL0     H66611   4.854   9.521  12.284 -3.4005  0.2640  1.9600
  483MOL0     H66612   4.972   9.700  12.330  0.9453 -1.7879 -0.1164
  483MOL0     H66613   5.158   9.956  12.413  1.4067  0.5037  0.4670
  483MOL0     H66614   5.246   9.797  12.435 -0.6801  0.6461  1.2340
  483MOL0     H66615   5.082   9.805  12.468 -0.3709 -0.1909  1.4377
  483MOL0     H66616   5.427  10.082  11.819  1.9246  2.0641 -2.1362
  483MOL0     H66617   5.649  10.155  11.742  1.2953  0.5736  0.5174
  483MOL0     H66618   5.944  10.314  12.051  0.2570  2.2668 -2.0005
  483MOL0     H66619   6.003  10.151  12.046 -1.6676 -2.3316 -1.0985
  483MOL0     H66620   6.122  10.231  11.814  0.7239  0.3795 -0.1979
  483MOL0     H66621   6.044  10.390  11.868 -3.1642 -1.5466  0.6418
  483MOL0     H66622   6.271  10.222  11.968 -1.7507  0.2200 -0.7352
  483MOL0     H66623   6.193  10.343  12.077 -0.4178 -0.7195  0.4563
  483MOL0     H66624   6.282  10.522  11.948  1.2528  0.5897 -0.6553
  483MOL0     H66625   6.281  10.425  11.801 -1.8793  0.1049  0.1456
  483MOL0     H66626   6.461  10.285  11.851 -1.7770 -0.6673  1.5054
  483MOL0     H66627   6.504  10.457  11.830  0.4350  0.2738  0.4331
  483MOL0     H66628   6.467  10.303  12.091  3.0347 -0.7953  0.4519
  483MOL0     H66629   6.501  10.474  12.086 -0.6513  0.9118 -1.1971
  483MOL0     H66630   6.703  10.409  11.946  0.0780 -0.7732  1.3271
  483MOL0     H66631   6.663  10.229  11.963  1.5052 -0.2248 -1.3062
  483MOL0     H66632   6.833  10.285  12.125  0.5956  4.3241 -2.4729
  483MOL0     H66633   6.686  10.225  12.193  5.2717 -3.3062 -0.3936
  483MOL0     H66634   5.788  10.147  12.151 -1.3319  1.0134  2.0154
  483MOL0     H66635   5.560  10.071  12.230 -0.7135  0.7499 -0.0703
  483MOL0     H66636   5.196   9.862  11.924 -2.5279  0.1283 -2.4367
  483MOL0     H66637   4.990   9.750  11.902  3.8298 -0.6798 -1.2026
  483MOL0     H66638   5.191   7.994  11.615 -1.4648  0.6595 -1.4262
  483MOL0     H66639   5.007   7.876  11.501  0.6085 -2.2840  1.9780
  483MOL0     H66640   4.646   7.877  11.199  0.0018 -0.5450 -0.6955
  483MOL0     H66641   4.432   7.790  11.117  0.6514  3.2599 -0.2578
  483MOL0     H66642   4.044   7.816  11.360  1.5333  0.7165  1.3966
  483MOL0     H66643   4.128   7.954  11.282  0.3883 -0.0751 -0.8894
  483MOL0     H66644   4.071   7.884  11.072 -2.1768  1.0055 -0.8606
  483MOL0     H66645   3.923   7.918  11.161 -0.7573 -0.5445 -1.8390
  483MOL0     H66646   3.935   7.716  10.998  0.3654 -0.0894 -0.1328
  483MOL0     H66647   4.058   7.631  11.102 -1.1189 -2.1573 -2.0476
  483MOL0     H66648   3.783   7.605  11.118  2.5158 -2.0532 -2.3754
  483MOL0     H66649   3.805   7.736  11.237  1.3936  1.7230 -1.1126
  483MOL0     H66650   3.983   7.422  11.447  2.2789 -1.2608 -2.1105
  483MOL0     H66651   4.275   7.813  11.518  0.7044 -2.2056  1.7467
  483MOL0     H66652   4.387   7.940  11.705  0.7059  0.6886  0.8630
  483MOL0     H66653   4.528   7.866  11.706  0.2313 -0.4191 -0.0369
  483MOL0     H66654   4.524   8.032  11.657  2.1579 -0.8541  0.3459
  484MOL0     O66655   1.177   3.763   7.422 -0.5763 -0.4671 -1.3106
  484MOL0     C66656   1.099   3.711   7.341 -0.1789 -0.5397  0.2004
  484MOL0     O66657   1.132   3.606   7.256 -0.3945 -0.0803  0.2834
  484MOL0     C66658   1.256   3.557   7.262  0.4241  0.1024  0.2129
  484MOL0     C66659   1.359   3.620   7.204  0.1129  0.3425 -0.2528
  484MOL0     C66660   1.490   3.585   7.230  0.2946  0.1039  0.1940
  484MOL0     C66661   1.519   3.478   7.307  0.3790  0.1353 -0.0190
  484MOL0     O66662   1.653   3.457   7.314  0.4280 -0.5199 -0.2949
  484MOL0     C66663   1.706   3.427   7.443  0.7352 -0.7372  0.1330
  484MOL0     C66664   1.847   3.471   7.460 -0.7964  0.3437  0.1901
  484MOL0     C66665   1.937   3.424   7.347 -0.1978  0.6076 -0.1901
  484MOL0     C66666   2.086   3.422   7.394  0.0269 -0.1843  0.4342
  484MOL0     C66667   2.184   3.376   7.289 -0.3321  0.7731  0.2350
  484MOL0     C66668   2.312   3.338   7.361 -0.4143  0.0704  0.2317
  484MOL0     C66669   2.429   3.297   7.272 -0.2790 -0.5435 -0.3849
  484MOL0     C66670   2.550   3.232   7.339  0.3804  0.4011  1.1075
  484MOL0     N66671   2.602   3.310   7.453  0.4710 -0.1113  0.4607
  484MOL0     C66672   2.731   3.359   7.455 -0.4259 -0.5729  0.4343
  484MOL0     C66673   2.750   3.410   7.579  0.4463 -0.4276 -0.0981
  484MOL0     C66674   2.875   3.475   7.633 -0.2634 -0.2822  0.0366
  484MOL0     C66675   3.004   3.446   7.543  0.7518 -0.4747 -0.5046
  484MOL0     C66676   3.118   3.541   7.600 -0.0629 -0.4311  0.7007
  484MOL0     C66677   3.241   3.520   7.508  0.5195  0.2955 -0.0033
  484MOL0     O66678   3.312   3.641   7.493  0.8620  0.0896  0.3668
  484MOL0     C66679   3.429   3.656   7.560 -0.2162 -0.2581  0.0230
  484MOL0     C66680   3.515   3.753   7.506 -0.4181 -0.3099  0.1591
  484MOL0     C66681   3.648   3.761   7.550 -0.7953  1.0821  0.3306
  484MOL0     C66682   3.738   3.861   7.477 -0.0829 -0.8061 -0.0675
  484MOL0     C66683   3.689   3.684   7.664  0.8774  1.3602 -0.0785
  484MOL0     C66684   3.826   3.689   7.722  1.0781  0.4287 -1.0675
  484MOL0     O66685   3.875   3.808   7.761  0.1433  0.0482 -0.2313
  484MOL0     C66686   4.002   3.828   7.801 -0.5379 -0.6033 -0.9830
  484MOL0     C66687   4.120   3.756   7.769 -0.5820 -0.7482  0.4021
  484MOL0     C66688   4.254   3.790   7.806  0.1491 -0.2144 -0.9721
  484MOL0     C66689   4.279   3.913   7.861  1.1639 -1.4767  0.0410
  484MOL0     O66690   4.399   3.963   7.897  0.1369  0.5721  0.2080
  484MOL0     C66691   4.507   3.874   7.927 -0.6182 -0.3819  0.3535
  484MOL0     C66692   4.597   3.942   8.026 -0.9273 -0.1171  0.2914
  484MOL0     C66693   4.651   4.078   7.973 -0.4228  0.8851  0.0578
  484MOL0     C66694   4.730   4.055   7.846 -0.3373  0.7782 -0.4298
  484MOL0     C66695   4.835   4.162   7.838 -0.5119 -0.5966 -0.4410
  484MOL0     C66696   4.931   4.148   7.722  0.3628  0.2838  0.5682
  484MOL0     C66697   4.867   4.168   7.591  0.2728  0.7038 -0.1918
  484MOL0     C66698   4.969   4.162   7.478  0.3927  0.6812 -0.5367
  484MOL0    Cl66699   4.898   4.151   7.315 -0.5863  0.0581 -0.4333
  484MOL0     C66700   4.165   3.999   7.888  0.1485  0.0983  0.2092
  484MOL0     C66701   4.033   3.956   7.856 -1.2386 -0.4014 -0.8966
  484MOL0     O66702   3.889   3.581   7.728 -0.6819  0.2202 -0.1085
  484MOL0     C66703   3.596   3.600   7.722  0.0969  0.3215  0.7073
  484MOL0     C66704   3.465   3.589   7.673 -0.2492  1.1295 -0.1016
  484MOL0     N66705   2.631   3.386   7.651  0.0097  0.0204 -0.4493
  484MOL0     N66706   2.547   3.323   7.578 -0.2587 -0.4040 -0.1525
  484MOL0     C66707   1.418   3.408   7.371  0.7352  0.1143  0.4296
  484MOL0     C66708   1.286   3.444   7.341 -0.0767  0.4585 -0.1154
  484MOL0     C66709   0.959   3.761   7.328 -0.1036 -0.1081 -0.0248
  484MOL0     C66710   0.867   3.698   7.232  0.1743  0.4722  0.5975
  484MOL0     C66711   0.735   3.736   7.220  0.7386 -0.1492  0.9796
  484MOL0     C66712   0.675   3.826   7.301 -0.0857 -0.6189 -0.5619
  484MOL0     O66713   0.542   3.825   7.296 -0.0173  0.2150 -0.8488
  484MOL0     C66714   0.468   3.840   7.423 -1.1229 -1.2904  0.1840
  484MOL0     C66715   0.318   3.806   7.397  0.5945  1.0993  0.5516
  484MOL0     C66716   0.297   3.664   7.339  0.4268 -0.2414  0.3800
  484MOL0     C66717   0.348   3.559   7.440 -0.2332 -0.4889  0.9171
  484MOL0     C66718   0.266   3.442   7.435 -0.1704 -0.2632 -0.0651
  484MOL0     C66719   0.176   3.352   7.440 -0.0150 -0.8137  0.2953
  484MOL0     C66720   0.757   3.895   7.395 -0.6559  0.1379 -0.6637
  484MOL0     C66721   0.900   3.862   7.409 -0.7304  0.0343  0.8244
  484MOL0     C66722   0.969   3.957   7.502 -0.0954  0.1983 -0.0121
  484MOL0     H66723   1.335   3.696   7.131  1.3504 -1.0669 -2.1956
  484MOL0     H66724   1.566   3.646   7.183  0.1221  0.4815  0.4008
  484MOL0     H66725   1.693   3.319   7.452  0.7022 -0.7531 -0.0964
  484MOL0     H66726   1.651   3.475   7.525  0.7631 -2.2389  1.0511
  484MOL0     H66727   1.857   3.579   7.444 -2.6602  0.2485 -2.4784
  484MOL0     H66728   1.897   3.448   7.554  0.2872  0.3851 -0.3563
  484MOL0     H66729   1.901   3.327   7.312  1.6782  0.0903 -0.8169
  484MOL0     H66730   1.934   3.486   7.257  1.7373 -0.4568 -1.0420
  484MOL0     H66731   2.122   3.520   7.426  1.9075 -0.0276 -1.9280
  484MOL0     H66732   2.083   3.363   7.487 -3.9339  2.1994  2.0837
  484MOL0     H66733   2.195   3.455   7.214  0.2003  0.1080 -0.4000
  484MOL0     H66734   2.144   3.283   7.246 -0.9165 -0.5525  3.4097
  484MOL0     H66735   2.345   3.425   7.419  0.1512 -1.6114  2.5530
  484MOL0     H66736   2.297   3.253   7.428  0.8682 -1.4115 -1.2528
  484MOL0     H66737   2.460   3.372   7.198  1.0064 -1.6312 -0.9960
  484MOL0     H66738   2.390   3.217   7.208 -0.3262 -1.8033  1.1601
  484MOL0     H66739   2.529   3.128   7.367 -2.5147  0.3525 -0.8593
  484MOL0     H66740   2.628   3.228   7.262 -1.1034 -0.5320 -0.4064
  484MOL0     H66741   2.809   3.361   7.379 -1.3158  1.1998 -0.4910
  484MOL0     H66742   2.896   3.436   7.733 -2.1213  0.0467  0.5879
  484MOL0     H66743   2.859   3.582   7.652  3.3365  0.1582  1.3490
  484MOL0     H66744   3.031   3.340   7.552  1.0925 -0.4668 -1.3964
  484MOL0     H66745   2.987   3.465   7.437 -0.4906 -1.1951 -0.4529
  484MOL0     H66746   3.079   3.642   7.584  3.8191  1.1860  0.1077
  484MOL0     H66747   3.152   3.519   7.702  3.8852  0.7207 -0.1643
  484MOL0     H66748   3.302   3.435   7.540  2.3752  0.5707 -2.4929
  484MOL0     H66749   3.207   3.510   7.405  0.5673 -1.5531  0.1397
  484MOL0     H66750   3.478   3.811   7.422 -3.3636 -1.1595  0.7585
  484MOL0     H66751   3.738   3.955   7.534 -3.2196 -0.2787 -0.7537
  484MOL0     H66752   3.695   3.890   7.381  0.6139  0.0195 -0.1385
  484MOL0     H66753   3.840   3.822   7.470 -0.8251 -3.3483  1.7222
  484MOL0     H66754   4.103   3.666   7.711  0.7632 -0.4019 -0.5580
  484MOL0     H66755   4.342   3.730   7.785 -0.1640 -2.2323  2.6632
  484MOL0     H66756   4.478   3.780   7.975 -0.7537  0.0726  1.1877
  484MOL0     H66757   4.552   3.831   7.838  2.5295  0.2950  1.4821
  484MOL0     H66758   4.544   3.954   8.121 -0.3277 -0.4584  0.6744
  484MOL0     H66759   4.678   3.877   8.058 -2.6118 -1.4139  2.1662
  484MOL0     H66760   4.724   4.108   8.049  2.1854 -2.6434 -0.8035
  484MOL0     H66761   4.570   4.152   7.966 -2.3079 -1.1560 -1.0428
  484MOL0     H66762   4.661   4.054   7.760  0.5823 -2.9605 -1.3284
  484MOL0     H66763   4.774   3.955   7.842 -0.4534  0.7055  0.0386
  484MOL0     H66764   4.785   4.260   7.831  1.9428  0.7227 -0.8286
  484MOL0     H66765   4.898   4.166   7.927  3.4245 -2.3353 -2.8610
  484MOL0     H66766   4.976   4.048   7.723 -1.1664 -0.4472 -0.5425
  484MOL0     H66767   5.010   4.222   7.734 -0.4983  1.0197  2.0597
  484MOL0     H66768   4.809   4.261   7.597 -2.1407 -0.6764 -0.5122
  484MOL0     H66769   4.790   4.091   7.580  0.4797  0.5033 -0.2389
  484MOL0     H66770   5.028   4.071   7.490 -1.0025 -0.4462 -1.9331
  484MOL0     H66771   5.034   4.251   7.482  1.7600 -0.2786 -0.7526
  484MOL0     H66772   4.189   4.094   7.936  1.9760 -1.6322  2.9899
  484MOL0     H66773   3.949   4.022   7.875 -0.1663  1.6507 -2.7538
  484MOL0     H66774   3.629   3.526   7.793 -0.1382 -2.2040 -1.6467
  484MOL0     H66775   3.394   3.522   7.721 -3.1495  2.4752 -2.2194
  484MOL0     H66776   1.431   3.327   7.441  1.0753  0.3753  0.6709
  484MOL0     H66777   1.197   3.403   7.387 -0.6754  0.5860 -1.1024
  484MOL0     H66778   0.899   3.612   7.173 -1.2377  0.5090 -0.2558
  484MOL0     H66779   0.670   3.692   7.146  1.9093  1.5176 -1.1370
  484MOL0     H66780   0.519   3.784   7.503 -1.0027  1.5073  2.1994
  484MOL0     H66781   0.472   3.945   7.452  1.8061 -1.1036 -0.5579
  484MOL0     H66782   0.272   3.878   7.327  0.6482 -1.6877 -2.6149
  484MOL0     H66783   0.256   3.823   7.486  0.0688 -2.7591  1.0793
  484MOL0     H66784   0.189   3.648   7.325  0.1630  0.6220  1.3348
  484MOL0     H66785   0.345   3.648   7.242  0.2896  1.8749 -0.0854
  484MOL0     H66786   0.339   3.581   7.547  1.2365 -2.5364  1.5182
  484MOL0     H66787   0.453   3.532   7.430  1.1894  3.6955  2.4895
  484MOL0     H66788   0.105   3.272   7.434 -1.7770  0.8291 -3.1779
  484MOL0     H66789   0.722   3.972   7.463 -0.5196  0.0395 -0.4831
  484MOL0     H66790   0.941   3.917   7.600 -0.2928 -1.5544 -0.7452
  484MOL0     H66791   1.077   3.968   7.484 -0.8377  3.0129 -4.2440
  484MOL0     H66792   0.920   4.054   7.507  1.1055  0.7807  1.1487
  485MOL0     O66793   5.517   9.399   5.315  0.3578 -0.1642 -0.2233
  485MOL0     C66794   5.448   9.398   5.412  0.0978  0.0529 -0.7930
  485MOL0     O66795   5.431   9.301   5.504 -0.1677  0.2852 -0.2514
  485MOL0     C66796   5.520   9.189   5.515 -0.1700 -0.5391  0.2062
  485MOL0     C66797   5.644   9.177   5.451 -0.6538  0.0015 -0.6731
  485MOL0     C66798   5.707   9.050   5.448  0.3404 -0.4191  0.1295
  485MOL0     C66799   5.654   8.937   5.515  0.2754 -0.1930  0.1810
  485MOL0     O66800   5.712   8.813   5.489 -0.5633  1.0684  0.0383
  485MOL0     C66801   5.740   8.729   5.605  0.2071  0.6079  0.2704
  485MOL0     C66802   5.831   8.608   5.569 -0.2209 -0.1544  0.4870
  485MOL0     C66803   5.968   8.664   5.535 -0.7060  0.6561 -0.0862
  485MOL0     C66804   6.069   8.554   5.509 -0.1877  0.1680  0.1353
  485MOL0     C66805   6.217   8.589   5.528 -0.2057  0.4690 -0.5024
  485MOL0     C66806   6.272   8.668   5.417  0.7239  0.4836  0.4959
  485MOL0     C66807   6.428   8.674   5.430 -1.0729 -0.8779 -0.9763
  485MOL0     C66808   6.486   8.757   5.315 -0.1475  0.1874 -0.2303
  485MOL0     N66809   6.627   8.781   5.317 -0.7800  0.1659 -0.3278
  485MOL0     C66810   6.720   8.675   5.315 -0.8012 -0.2035 -0.4198
  485MOL0     C66811   6.840   8.747   5.327  0.0699  0.5248 -0.5022
  485MOL0     C66812   6.974   8.679   5.327 -0.1230  0.7753  0.7952
  485MOL0     C66813   7.011   8.639   5.176 -0.2274  0.5340  0.0670
  485MOL0     C66814   7.166   8.622   5.160  0.8327 -0.1743 -0.4308
  485MOL0     C66815   7.228   8.697   5.037 -0.7352  0.3633  0.5162
  485MOL0     O66816   7.368   8.662   5.030 -0.1651  0.3879 -0.9573
  485MOL0     C66817   7.435   8.682   4.919  0.8643 -1.0815 -0.0761
  485MOL0     C66818   7.388   8.719   4.790 -0.5310 -0.0894  0.7485
  485MOL0     C66819   7.475   8.723   4.675  0.5177 -0.9565 -0.7720
  485MOL0     C66820   7.415   8.755   4.547  0.1174 -0.3576  0.1466
  485MOL0     C66821   7.613   8.715   4.691 -0.6075 -0.0059 -1.1331
  485MOL0     C66822   7.714   8.748   4.588 -1.1727 -0.4952  0.4114
  485MOL0     O66823   7.843   8.696   4.609  0.6744  0.3420 -0.1444
  485MOL0     C66824   7.927   8.696   4.502 -0.0634  0.7333 -0.4524
  485MOL0     C66825   8.042   8.773   4.519 -0.1767  0.4280  0.0317
  485MOL0     C66826   8.139   8.768   4.422  0.4142 -0.1765  0.2757
  485MOL0     C66827   8.123   8.692   4.312 -0.8694  0.4470  0.2250
  485MOL0     O66828   8.229   8.701   4.221 -0.6469 -0.2142 -0.6467
  485MOL0     C66829   8.273   8.575   4.155  0.2253  0.1872 -0.1533
  485MOL0     C66830   8.400   8.599   4.060 -0.6329 -0.5536  0.3759
  485MOL0     C66831   8.521   8.667   4.118 -0.9467  0.4427  0.4255
  485MOL0     C66832   8.557   8.615   4.262  0.5980  0.0269 -0.4125
  485MOL0     C66833   8.692   8.674   4.296  0.0778 -0.4303 -0.3365
  485MOL0     C66834   8.726   8.658   4.447  0.2909 -0.0474 -0.4394
  485MOL0     C66835   8.876   8.676   4.471  0.9142 -0.1410 -0.1997
  485MOL0     C66836   8.910   8.821   4.505 -0.0513  0.5067 -0.0506
  485MOL0    Cl66837   8.893   8.928   4.369  0.1269  0.4066 -0.2701
  485MOL0     C66838   8.014   8.609   4.296  0.7195  0.1714  0.4185
  485MOL0     C66839   7.910   8.610   4.388 -0.3867 -0.0371  0.0105
  485MOL0     O66840   7.688   8.819   4.490 -0.4211 -0.4937 -0.1886
  485MOL0     C66841   7.652   8.675   4.817  0.6272 -0.5942 -0.2518
  485MOL0     C66842   7.569   8.661   4.926  0.6043  0.4523  0.3248
  485MOL0     N66843   6.810   8.884   5.333 -1.0519 -0.4791  0.4282
  485MOL0     N66844   6.684   8.903   5.327 -0.0436  0.3294 -0.3782
  485MOL0     C66845   5.526   8.960   5.573  0.1385 -0.3078 -0.3797
  485MOL0     C66846   5.456   9.080   5.566  0.1200  0.3077  0.6340
  485MOL0     C66847   5.370   9.525   5.448 -0.4570  0.8971  0.8186
  485MOL0     C66848   5.415   9.645   5.397 -0.3875  0.1805  0.2092
  485MOL0     C66849   5.350   9.765   5.421 -0.0821  0.2646  0.1823
  485MOL0     C66850   5.236   9.765   5.497 -0.0721 -0.1777 -0.5080
  485MOL0     O66851   5.186   9.890   5.514  0.6178  0.6566  1.0458
  485MOL0     C66852   5.067   9.912   5.579  0.6592 -0.5193 -0.4763
  485MOL0     C66853   5.039  10.067   5.588  0.0014  0.2483 -0.2160
  485MOL0     C66854   4.899  10.081   5.641 -0.5229  0.5093  0.1756
  485MOL0     C66855   4.866  10.229   5.671  0.1951 -0.2985 -0.4409
  485MOL0     C66856   4.738  10.239   5.731  0.2241 -0.7477 -0.3671
  485MOL0     C66857   4.630  10.245   5.786  0.2186  0.4741  0.4873
  485MOL0     C66858   5.191   9.650   5.549  0.1106  0.3344  0.0978
  485MOL0     C66859   5.249   9.528   5.527 -0.5368 -0.5862 -0.4068
  485MOL0     C66860   5.173   9.411   5.583 -1.0531  0.2581  0.0384
  485MOL0     H66861   5.700   9.261   5.410 -1.6361  1.1699  0.3101
  485MOL0     H66862   5.805   9.053   5.402 -0.2376  2.3567 -1.1615
  485MOL0     H66863   5.639   8.695   5.630 -0.0038  1.2432  0.2964
  485MOL0     H66864   5.778   8.802   5.677 -2.4027  2.2933  0.0693
  485MOL0     H66865   5.839   8.548   5.661  1.1201 -2.4073 -1.0073
  485MOL0     H66866   5.794   8.546   5.487 -2.1543  0.7167  0.6413
  485MOL0     H66867   5.969   8.734   5.451  1.0722 -0.1628 -0.7973
  485MOL0     H66868   6.012   8.718   5.620 -1.1097 -0.3491  0.7786
  485MOL0     H66869   6.047   8.470   5.575  0.5994 -0.1574 -0.0096
  485MOL0     H66870   6.056   8.530   5.403 -2.6518  2.0115 -0.0668
  485MOL0     H66871   6.268   8.494   5.544 -0.1929  0.6846  0.8849
  485MOL0     H66872   6.236   8.638   5.624 -0.3234 -0.2255 -0.1191
  485MOL0     H66873   6.241   8.632   5.318 -2.7415  2.8562  0.5753
  485MOL0     H66874   6.221   8.765   5.413  1.3770  0.8300  0.3679
  485MOL0     H66875   6.470   8.573   5.431  0.1671 -0.3867 -0.2967
  485MOL0     H66876   6.453   8.712   5.530 -1.0867  0.2786 -1.3945
  485MOL0     H66877   6.474   8.698   5.223  0.8775 -0.8438  0.2730
  485MOL0     H66878   6.427   8.849   5.310  1.6730  1.4299  0.2160
  485MOL0     H66879   6.686   8.572   5.314 -1.9286  0.0520  2.6581
  485MOL0     H66880   6.975   8.589   5.389 -1.0504 -0.5844 -1.0358
  485MOL0     H66881   7.053   8.740   5.373  0.6373  1.6552 -1.5021
  485MOL0     H66882   6.962   8.544   5.149 -4.2683  1.7476  2.3263
  485MOL0     H66883   6.978   8.721   5.113 -0.2764  1.0024  0.6958
  485MOL0     H66884   7.212   8.673   5.245  1.9086  1.6989 -2.0585
  485MOL0     H66885   7.189   8.517   5.178  1.3423  0.4563  3.8662
  485MOL0     H66886   7.175   8.658   4.950 -0.3690 -0.2529  0.5591
  485MOL0     H66887   7.219   8.806   5.034 -0.5285  0.3950  0.9048
  485MOL0     H66888   7.284   8.739   4.770 -0.1595  1.2186 -0.0313
  485MOL0     H66889   7.308   8.738   4.558 -0.0984  1.0206  0.3393
  485MOL0     H66890   7.456   8.684   4.475  0.0425 -0.0776 -0.1711
  485MOL0     H66891   7.436   8.858   4.519 -0.1230  0.3153  2.2521
  485MOL0     H66892   8.046   8.836   4.607  0.3542 -0.5136  0.6943
  485MOL0     H66893   8.222   8.837   4.437 -1.3758  2.2306 -0.3211
  485MOL0     H66894   8.315   8.513   4.235  0.2962  3.1097  2.2562
  485MOL0     H66895   8.191   8.526   4.101  1.5386 -0.7240 -1.4083
  485MOL0     H66896   8.430   8.502   4.020  0.3568  0.3650 -1.2137
  485MOL0     H66897   8.364   8.660   3.976  0.7526  0.4129  0.4497
  485MOL0     H66898   8.498   8.773   4.123 -2.1978  0.1280  2.5531
  485MOL0     H66899   8.612   8.649   4.059  1.3540  1.6687  3.3620
  485MOL0     H66900   8.561   8.506   4.261  1.3665  0.0312  0.6274
  485MOL0     H66901   8.469   8.653   4.315 -0.1230 -0.7125 -1.0450
  485MOL0     H66902   8.765   8.634   4.225  0.4372  1.0396 -0.8402
  485MOL0     H66903   8.708   8.780   4.275  3.2764 -1.2546 -2.9594
  485MOL0     H66904   8.701   8.561   4.491  3.2038 -1.1256 -0.8957
  485MOL0     H66905   8.665   8.732   4.498 -1.4144  1.0903 -3.8104
  485MOL0     H66906   8.938   8.642   4.388  0.4731  0.8643 -0.9659
  485MOL0     H66907   8.893   8.617   4.562 -1.6070 -0.4870  0.1310
  485MOL0     H66908   9.016   8.831   4.530  0.7668 -2.9128 -1.5717
  485MOL0     H66909   8.848   8.855   4.589 -1.4803 -1.4158 -0.2379
  485MOL0     H66910   8.013   8.543   4.210 -0.6609 -0.7806  1.1321
  485MOL0     H66911   7.822   8.548   4.373  1.4560 -2.3031 -2.3277
  485MOL0     H66912   7.759   8.684   4.830  0.3048  3.0174  1.1238
  485MOL0     H66913   7.611   8.631   5.022 -1.1621  0.3160  1.0856
  485MOL0     H66914   5.467   8.874   5.603 -0.3994 -1.2385 -3.7346
  485MOL0     H66915   5.354   9.106   5.593 -0.2409  1.6570 -1.7379
  485MOL0     H66916   5.511   9.649   5.346 -0.0710  1.4898  0.8618
  485MOL0     H66917   5.397   9.857   5.387  0.5581  0.7595  2.2599
  485MOL0     H66918   4.983   9.883   5.515  1.6357 -1.8163 -1.2124
  485MOL0     H66919   5.077   9.877   5.682  1.5943 -0.1909 -0.4507
  485MOL0     H66920   5.061  10.112   5.491  0.1432 -0.4678 -0.5262
  485MOL0     H66921   5.112  10.110   5.656 -2.6978  1.9691  1.7820
  485MOL0     H66922   4.822  10.038   5.576  0.0652 -0.9133  0.3969
  485MOL0     H66923   4.885  10.030   5.736 -1.9229 -1.1486 -0.8679
  485MOL0     H66924   4.859  10.287   5.578 -1.0773  0.1432 -0.0844
  485MOL0     H66925   4.937  10.273   5.741 -1.3329  2.5000 -0.4942
  485MOL0     H66926   4.539  10.266   5.838 -0.0830  0.1978  0.0745
  485MOL0     H66927   5.096   9.645   5.600  1.2118 -1.3046  2.1263
  485MOL0     H66928   5.076   9.434   5.628 -1.8806 -2.1813 -0.3387
  485MOL0     H66929   5.153   9.347   5.497  2.1789 -2.7929  1.2959
  485MOL0     H66930   5.228   9.359   5.662 -3.0387  0.2450  1.4996
  486MOL0     O66931   3.749   3.231   8.433 -0.2569 -0.9330 -0.4339
  486MOL0     C66932   3.707   3.135   8.365 -0.2778 -0.7494  0.1851
  486MOL0     O66933   3.783   3.048   8.301 -0.6478 -0.9825  0.1201
  486MOL0     C66934   3.912   3.074   8.292  0.1510  0.8283 -0.0423
  486MOL0     C66935   3.992   3.042   8.405  0.0359 -0.6828 -0.4044
  486MOL0     C66936   4.130   3.070   8.404  0.1034  0.3619 -0.1961
  486MOL0     C66937   4.184   3.115   8.283 -0.3080 -0.6866 -0.5147
  486MOL0     O66938   4.322   3.113   8.288 -0.0532  0.0052  0.1763
  486MOL0     C66939   4.378   2.981   8.278  0.0628 -0.5722 -0.3044
  486MOL0     C66940   4.527   2.996   8.278  0.2124 -0.0178  0.6385
  486MOL0     C66941   4.602   2.862   8.253  0.5523  0.1456  0.2613
  486MOL0     C66942   4.751   2.881   8.224  0.5120  0.9106 -0.2104
  486MOL0     C66943   4.823   2.745   8.247 -0.2636  0.3768 -0.0049
  486MOL0     C66944   4.977   2.762   8.225  0.1415  0.3933 -0.4554
  486MOL0     C66945   5.061   2.644   8.263 -0.0217  1.1724  0.1354
  486MOL0     C66946   5.030   2.569   8.388  0.3349  0.3528  0.8609
  486MOL0     N66947   5.137   2.476   8.437  0.2846 -0.1636  0.3702
  486MOL0     C66948   5.131   2.380   8.539 -0.5607  0.1277 -0.4197
  486MOL0     C66949   5.244   2.303   8.535 -0.2750 -0.6130 -0.3439
  486MOL0     C66950   5.282   2.183   8.617  0.5233  0.6449 -0.0369
  486MOL0     C66951   5.160   2.097   8.645 -0.1077 -0.4933 -0.1585
  486MOL0     C66952   5.206   1.956   8.701 -0.4246 -0.6398 -0.9249
  486MOL0     C66953   5.093   1.852   8.728  0.3009  0.4621  0.7024
  486MOL0     O66954   4.994   1.901   8.824 -0.0949  0.9166  0.5015
  486MOL0     C66955   4.880   1.823   8.854 -0.0889 -0.1898  0.5188
  486MOL0     C66956   4.860   1.692   8.804  0.3123 -0.5873  0.1504
  486MOL0     C66957   4.743   1.619   8.829 -0.6872  0.2349  0.2784
  486MOL0     C66958   4.734   1.483   8.759 -0.5422  0.3968  0.4214
  486MOL0     C66959   4.642   1.672   8.917  0.2781 -0.2910 -0.1376
  486MOL0     C66960   4.509   1.596   8.931 -0.3594 -0.2250  0.6165
  486MOL0     O66961   4.459   1.577   9.052 -0.4999 -0.0890  0.1000
  486MOL0     C66962   4.326   1.538   9.050 -0.5031  0.5553 -0.0530
  486MOL0     C66963   4.292   1.400   9.087  0.7773 -0.4167 -0.4981
  486MOL0     C66964   4.157   1.366   9.084  0.0069  0.0298  0.0647
  486MOL0     C66965   4.052   1.466   9.058 -0.4307  0.3734 -0.1781
  486MOL0     O66966   3.924   1.415   9.075  0.3685  0.3840 -0.2504
  486MOL0     C66967   3.812   1.493   9.045  0.6102 -0.0650 -0.5155
  486MOL0     C66968   3.689   1.418   9.095 -0.0042  0.3076  0.5740
  486MOL0     C66969   3.560   1.491   9.083  0.1053  0.0007  0.0925
  486MOL0     C66970   3.541   1.622   9.160  1.2115  0.5754 -0.1042
  486MOL0     C66971   3.399   1.672   9.174 -0.3913  0.3071 -0.8611
  486MOL0     C66972   3.334   1.610   9.303  0.4932  0.2991  0.3419
  486MOL0     C66973   3.190   1.669   9.313  0.2494  0.1911 -1.0883
  486MOL0     C66974   3.107   1.598   9.209  0.3112 -0.1394  0.2397
  486MOL0    Cl66975   2.942   1.670   9.238  0.3144 -0.0010  0.0668
  486MOL0     C66976   4.095   1.592   9.035  0.2138 -0.1740 -0.4040
  486MOL0     C66977   4.222   1.627   9.030  0.2129 -0.3699 -0.1100
  486MOL0     O66978   4.460   1.555   8.826  0.0079 -0.0435 -0.0377
  486MOL0     C66979   4.665   1.798   8.973  0.0390  0.5397 -0.2825
  486MOL0     C66980   4.782   1.871   8.942  0.6320  0.1040  0.7373
  486MOL0     N66981   5.318   2.355   8.434 -0.6076 -0.7131 -0.5489
  486MOL0     N66982   5.261   2.462   8.386 -0.0801 -0.5514  0.6201
  486MOL0     C66983   4.109   3.144   8.168  0.2751  0.6246 -0.0464
  486MOL0     C66984   3.968   3.126   8.171 -0.1232 -0.0292 -0.4269
  486MOL0     C66985   3.557   3.133   8.336  0.2452  0.1108  0.2208
  486MOL0     C66986   3.513   3.044   8.239  0.0209 -0.5915  1.3789
  486MOL0     C66987   3.381   3.026   8.207  0.0149  0.0744  0.8859
  486MOL0     C66988   3.283   3.105   8.259 -0.2369 -0.3700 -0.4040
  486MOL0     O66989   3.152   3.095   8.223  0.0661  0.0956  0.1585
  486MOL0     C66990   3.048   3.177   8.281 -0.1307 -0.0388  0.1418
  486MOL0     C66991   2.911   3.139   8.222 -0.2788  0.0022 -0.5742
  486MOL0     C66992   2.798   3.242   8.276 -1.2323  0.3327  0.2383
  486MOL0     C66993   2.773   3.219   8.426  0.4997 -0.3793 -0.0943
  486MOL0     C66994   2.634   3.180   8.450  0.1220 -0.6170 -0.2449
  486MOL0     C66995   2.519   3.146   8.458 -0.6699  0.6293  0.2396
  486MOL0     C66996   3.323   3.194   8.360 -0.2505  0.9945  0.1721
  486MOL0     C66997   3.455   3.205   8.408  0.0001  0.4693  0.0205
  486MOL0     C66998   3.482   3.274   8.542  1.0598  0.2250  0.4703
  486MOL0     H66999   3.957   2.987   8.492 -1.2662 -0.7126 -0.9160
  486MOL0     H67000   4.195   3.054   8.489  2.6052  2.4890 -1.5496
  486MOL0     H67001   4.344   2.936   8.184 -0.7789 -1.7306  0.5290
  486MOL0     H67002   4.340   2.917   8.358 -2.0110 -0.1223 -0.8898
  486MOL0     H67003   4.571   3.067   8.208  2.3040  0.0759  1.9705
  486MOL0     H67004   4.558   3.022   8.379  1.9554 -2.5049  0.8284
  486MOL0     H67005   4.585   2.800   8.342  0.7331 -0.6429 -0.2416
  486MOL0     H67006   4.556   2.816   8.165 -1.5984  4.9119 -1.4222
  486MOL0     H67007   4.777   2.923   8.127  0.5998 -0.7048 -0.9337
  486MOL0     H67008   4.793   2.950   8.297  1.1695 -1.8298  2.1941
  486MOL0     H67009   4.787   2.667   8.180  0.1490  1.6741 -1.8035
  486MOL0     H67010   4.806   2.708   8.349 -2.3720 -2.1014 -1.1580
  486MOL0     H67011   4.996   2.784   8.119  4.5349  0.1212  0.1249
  486MOL0     H67012   5.013   2.851   8.276 -1.6821  0.8521  0.1070
  486MOL0     H67013   5.164   2.682   8.266 -0.4354  2.4089 -0.5809
  486MOL0     H67014   5.069   2.569   8.184  2.2259 -0.0413  1.3875
  486MOL0     H67015   5.012   2.647   8.462 -0.7323  2.6080 -1.6241
  486MOL0     H67016   4.937   2.512   8.372  1.0344 -0.9405  1.2332
  486MOL0     H67017   5.049   2.353   8.604  0.4112  1.0677  1.2606
  486MOL0     H67018   5.346   2.213   8.701  2.1834  2.5264 -1.8633
  486MOL0     H67019   5.346   2.123   8.551 -1.3768 -0.0218 -1.3439
  486MOL0     H67020   5.100   2.155   8.716 -0.5461 -2.0182  0.7553
  486MOL0     H67021   5.109   2.089   8.548  1.2184 -0.0499 -0.9284
  486MOL0     H67022   5.276   1.911   8.630 -0.7257 -1.7408 -0.5501
  486MOL0     H67023   5.245   1.966   8.803 -1.9199  1.9781 -0.5199
  486MOL0     H67024   5.044   1.842   8.631  1.3264 -0.7003  0.2727
  486MOL0     H67025   5.134   1.754   8.754 -0.8959 -0.0924  0.5674
  486MOL0     H67026   4.936   1.641   8.746  1.3630 -1.0587  1.8697
  486MOL0     H67027   4.825   1.455   8.704 -1.4809  3.4166 -3.0589
  486MOL0     H67028   4.657   1.478   8.681  0.8307 -1.9494 -0.9132
  486MOL0     H67029   4.707   1.399   8.823  0.5283 -1.1683 -1.0970
  486MOL0     H67030   4.367   1.328   9.120 -0.6853 -0.8531  2.0979
  486MOL0     H67031   4.135   1.261   9.103  5.8012 -2.2387 -3.2748
  486MOL0     H67032   3.823   1.594   9.085  0.0616 -0.6870  1.3258
  486MOL0     H67033   3.804   1.499   8.936  0.0266 -0.0952 -0.4772
  486MOL0     H67034   3.676   1.323   9.044 -0.4844  0.8064 -0.2499
  486MOL0     H67035   3.696   1.398   9.203 -0.2258  0.9426  0.7114
  486MOL0     H67036   3.487   1.418   9.119 -0.3739  1.7570  2.9941
  486MOL0     H67037   3.547   1.520   8.979  1.2142 -2.5678 -0.8507
  486MOL0     H67038   3.592   1.701   9.104  0.6485 -0.4534 -2.1620
  486MOL0     H67039   3.583   1.608   9.260  0.9552  1.2322  0.1024
  486MOL0     H67040   3.392   1.781   9.180 -1.5707  0.1938  0.2412
  486MOL0     H67041   3.347   1.637   9.083  0.5869 -1.0030 -0.9466
  486MOL0     H67042   3.392   1.634   9.392  0.5794 -3.4693  1.4632
  486MOL0     H67043   3.324   1.502   9.291  1.5546 -0.1101  2.6006
  486MOL0     H67044   3.185   1.777   9.292 -0.6445 -0.2706 -3.5141
  486MOL0     H67045   3.138   1.648   9.407  0.6196  4.0039  0.1458
  486MOL0     H67046   3.097   1.491   9.225 -1.8062  0.1952  1.4774
  486MOL0     H67047   3.138   1.624   9.106 -0.4901  1.0463  0.2762
  486MOL0     H67048   4.016   1.666   9.022  0.3163 -0.0980 -0.6011
  486MOL0     H67049   4.251   1.731   9.016  0.3345 -0.5699 -1.3904
  486MOL0     H67050   4.594   1.844   9.041 -0.1267  0.1545 -0.1899
  486MOL0     H67051   4.796   1.970   8.984 -2.1863  0.8661  0.0881
  486MOL0     H67052   4.148   3.162   8.068 -0.6424 -0.1592 -0.5587
  486MOL0     H67053   3.905   3.144   8.085 -0.5028 -0.4154 -0.2362
  486MOL0     H67054   3.589   2.983   8.193  0.1738  0.0417  0.7861
  486MOL0     H67055   3.357   2.942   8.142  1.2510  0.8391 -0.6171
  486MOL0     H67056   3.037   3.162   8.389  1.2398  0.8787  0.4363
  486MOL0     H67057   3.084   3.280   8.269  0.7364 -0.5269 -1.8037
  486MOL0     H67058   2.878   3.040   8.254  2.2270 -0.4630  0.8195
  486MOL0     H67059   2.925   3.149   8.114 -1.0868  2.1395 -0.5423
  486MOL0     H67060   2.824   3.346   8.253 -2.3006  0.7238  0.7681
  486MOL0     H67061   2.708   3.218   8.219  0.9194 -2.1199 -2.4548
  486MOL0     H67062   2.792   3.310   8.483  0.6041  0.0994 -0.8807
  486MOL0     H67063   2.838   3.140   8.465 -0.3460 -0.4698  1.2029
  486MOL0     H67064   2.419   3.109   8.465 -0.5001  0.1237 -0.0070
  486MOL0     H67065   3.251   3.259   8.409  0.2903  1.1612  0.7567
  486MOL0     H67066   3.451   3.378   8.539  2.7503  0.8144  1.7625
  486MOL0     H67067   3.425   3.231   8.625 -0.1846  1.9173  0.5282
  486MOL0     H67068   3.586   3.264   8.575  1.4737 -1.0110 -1.0608
  487MOL0     O67069  11.193   5.927   0.133 -0.1726 -0.3833 -0.6616
  487MOL0     C67070  11.154   6.040   0.098  0.0389 -0.0548  0.1915
  487MOL0     O67071  11.222   6.158   0.104 -0.5496 -1.3770  0.5641
  487MOL0     C67072  11.358   6.145   0.093 -0.2341  0.1276  0.4983
  487MOL0     C67073  11.429   6.120  -0.029  0.3542  0.2841 -0.8612
  487MOL0     C67074  11.567   6.112  -0.019 -0.1697  0.7852 -0.0662
  487MOL0     C67075  11.633   6.125   0.102 -0.3960  0.0602 -0.2083
  487MOL0     O67076  11.773   6.114   0.136 -0.4420  0.2463  0.2264
  487MOL0     C67077  11.875   6.080   0.026  0.0967 -0.6066  0.2856
  487MOL0     C67078  12.000   6.037   0.102  0.2513 -0.5336 -0.5164
  487MOL0     C67079  12.079   6.151   0.178  1.1862  0.1343 -0.3497
  487MOL0     C67080  12.233   6.114   0.174  0.1896  0.4324 -0.1034
  487MOL0     C67081  12.328   6.223   0.234  0.1452  0.1077  0.3210
  487MOL0     C67082  12.335   6.357   0.163 -0.3084 -0.6405 -0.5182
  487MOL0     C67083  12.357   6.485   0.258 -0.6669  0.2680 -0.3307
  487MOL0     C67084  12.342   6.605   0.173 -0.6163  0.5768 -0.3820
  487MOL0     N67085  12.332   6.723   0.266  0.7667 -1.2612 -0.5673
  487MOL0     C67086  12.252   6.730   0.369 -0.2106  0.2879 -0.1992
  487MOL0     C67087  12.253   6.864   0.410  0.1844 -0.9486  0.0326
  487MOL0     C67088  12.185   6.926   0.532  0.1477 -0.0137  0.0367
  487MOL0     C67089  12.280   6.985   0.640  0.2678 -0.0562 -0.7967
  487MOL0     C67090  12.214   7.069   0.750  0.5995 -0.2561 -0.9708
  487MOL0     C67091  12.078   7.023   0.790  0.0790  0.1469  0.1248
  487MOL0     O67092  11.975   7.076   0.705 -0.1251  0.3617  0.4606
  487MOL0     C67093  11.851   7.055   0.770 -0.5706 -0.0785  0.5084
  487MOL0     C67094  11.771   7.168   0.773 -0.8416 -0.6468 -0.0859
  487MOL0     C67095  11.652   7.178   0.840  1.1321  0.0962  0.1280
  487MOL0     C67096  11.579   7.307   0.836 -1.0650 -1.1195  0.0790
  487MOL0     C67097  11.604   7.062   0.907  0.0908  0.0371 -0.5416
  487MOL0     C67098  11.480   7.056   0.973  0.1070 -0.0697 -0.1727
  487MOL0     O67099  11.477   6.967   1.076  0.0791  0.1527  0.3357
  487MOL0     C67100  11.377   6.981   1.172 -0.2662  0.4024  0.7167
  487MOL0     C67101  11.390   7.081   1.270 -0.3521  0.8635  0.1167
  487MOL0     C67102  11.287   7.093   1.368  0.2476 -0.0624  0.7053
  487MOL0     C67103  11.179   7.005   1.363 -0.1039 -0.9018 -0.0998
  487MOL0     O67104  11.080   7.042   1.457  0.0743  0.0340  0.2467
  487MOL0     C67105  10.954   6.976   1.466 -0.4541 -0.0205 -0.8872
  487MOL0     C67106  10.981   6.856   1.557  0.7129  0.7506  0.7505
  487MOL0     C67107  10.873   6.810   1.658 -0.2536 -0.3914  0.2326
  487MOL0     C67108  10.737   6.792   1.602  1.0414 -0.0855  0.3496
  487MOL0     C67109  10.716   6.672   1.499  0.1070  0.6154  0.2098
  487MOL0     C67110  10.561   6.660   1.478 -0.8451  0.5401  0.5860
  487MOL0     C67111  10.533   6.536   1.382 -0.8502  0.3358  0.4105
  487MOL0     C67112  10.382   6.507   1.376 -0.0456 -0.0109 -0.1547
  487MOL0    Cl67113  10.344   6.365   1.283 -0.3673 -0.4468 -0.0271
  487MOL0     C67114  11.172   6.909   1.271 -0.9716  0.5332  0.0734
  487MOL0     C67115  11.274   6.892   1.179  0.3438  0.1987 -0.1112
  487MOL0     O67116  11.385   7.115   0.922  0.6493 -0.3227 -0.3430
  487MOL0     C67117  11.688   6.945   0.901  0.5660 -0.2446  0.3293
  487MOL0     C67118  11.809   6.951   0.837 -0.5631  0.1965  0.5465
  487MOL0     N67119  12.316   6.934   0.311 -0.0125  0.1202 -0.0453
  487MOL0     N67120  12.366   6.849   0.228  1.0605 -0.8044 -0.2043
  487MOL0     C67121  11.562   6.137   0.222  0.8659  0.6684  0.3617
  487MOL0     C67122  11.421   6.131   0.219 -0.1214 -0.0082 -0.1821
  487MOL0     C67123  11.008   6.052   0.068  0.3731 -0.6117  0.3547
  487MOL0     C67124  10.969   6.153  -0.014  0.8050 -0.6980 -0.5343
  487MOL0     C67125  10.829   6.176  -0.047 -1.1204 -0.3376  0.7520
  487MOL0     C67126  10.733   6.091  -0.001  0.6864  0.4921  0.3518
  487MOL0     O67127  10.596   6.115  -0.012 -0.8368  0.3423  0.3131
  487MOL0     C67128  10.538   6.201  -0.112  0.9983  1.0352 -0.9000
  487MOL0     C67129  10.567   6.166  -0.255 -0.3198  0.4999  0.2283
  487MOL0     C67130  10.555   6.011  -0.283 -0.0075 -0.3226 -0.1030
  487MOL0     C67131  10.412   5.956  -0.280  0.3942  0.1821  0.3658
  487MOL0     C67132  10.422   5.813  -0.254 -0.2229  1.0857 -0.0528
  487MOL0     C67133  10.430   5.692  -0.232 -0.3790 -0.5499 -0.1638
  487MOL0     C67134  10.776   5.991   0.076 -0.5595  0.4297  0.6058
  487MOL0     C67135  10.910   5.963   0.114  0.7786 -0.6780 -0.7698
  487MOL0     C67136  10.922   5.843   0.212 -0.3909 -0.5337  0.5590
  487MOL0     H67137  11.383   6.116  -0.127 -2.9533  1.8023  0.4753
  487MOL0     H67138  11.627   6.077  -0.103 -1.0068 -1.7283  0.2875
  487MOL0     H67139  11.896   6.168  -0.036  0.2657 -1.1007 -0.3785
  487MOL0     H67140  11.828   6.006  -0.040 -2.8691  1.3359  0.0523
  487MOL0     H67141  11.976   5.972   0.187  1.7646 -0.4424  0.0165
  487MOL0     H67142  12.062   5.986   0.028 -0.1863  0.8313 -1.8759
  487MOL0     H67143  12.074   6.244   0.120  0.8639  1.4148  1.6279
  487MOL0     H67144  12.048   6.180   0.279  1.6023 -3.1412  0.8539
  487MOL0     H67145  12.237   6.018   0.226  0.8931  0.2002 -0.5649
  487MOL0     H67146  12.261   6.090   0.071 -0.7008 -3.2106  0.3554
  487MOL0     H67147  12.432   6.189   0.235  0.0527 -0.1715  0.6711
  487MOL0     H67148  12.296   6.227   0.339 -1.6060 -1.9757 -0.0569
  487MOL0     H67149  12.421   6.354   0.095  0.8717  0.5237  0.8481
  487MOL0     H67150  12.241   6.376   0.110  2.2711  2.1130 -4.7622
  487MOL0     H67151  12.456   6.481   0.303 -0.2254 -1.9248 -1.3630
  487MOL0     H67152  12.283   6.475   0.338  2.0170 -0.2430  2.2392
  487MOL0     H67153  12.438   6.607   0.120 -0.5822 -0.9032 -0.4147
  487MOL0     H67154  12.259   6.605   0.102  0.8108  0.3826 -2.1291
  487MOL0     H67155  12.203   6.649   0.421  0.7645  0.1763  0.5889
  487MOL0     H67156  12.120   6.851   0.577 -0.7240  0.1749 -0.8834
  487MOL0     H67157  12.114   7.002   0.498 -0.4865 -0.2484  0.8068
  487MOL0     H67158  12.332   6.909   0.699 -0.4859 -0.2821 -0.4264
  487MOL0     H67159  12.356   7.052   0.598  1.2498 -1.1052 -0.7600
  487MOL0     H67160  12.278   7.083   0.839  0.7828  1.0295 -1.2890
  487MOL0     H67161  12.197   7.171   0.714 -0.0714  0.7027  1.7824
  487MOL0     H67162  12.065   6.915   0.808 -1.8829  0.2778 -0.3149
  487MOL0     H67163  12.061   7.068   0.888  0.9063 -0.3947  0.5316
  487MOL0     H67164  11.806   7.251   0.713 -0.9224 -1.4532 -1.2838
  487MOL0     H67165  11.627   7.378   0.767  0.8433 -0.2571  2.1739
  487MOL0     H67166  11.579   7.357   0.933  0.0592 -0.0183 -0.4611
  487MOL0     H67167  11.478   7.298   0.795 -1.3032  0.7315  0.1631
  487MOL0     H67168  11.472   7.152   1.269 -0.5321  1.1004  0.9900
  487MOL0     H67169  11.288   7.175   1.439 -1.4362  2.6240 -2.1219
  487MOL0     H67170  10.876   7.038   1.511 -0.8377 -0.6182 -0.7080
  487MOL0     H67171  10.922   6.940   1.367 -0.6724 -0.9393 -0.4950
  487MOL0     H67172  10.997   6.772   1.490 -1.9479  1.9339 -1.5776
  487MOL0     H67173  11.076   6.867   1.611  0.3967  0.4956  1.3705
  487MOL0     H67174  10.881   6.877   1.745  3.2430  0.7017 -0.7579
  487MOL0     H67175  10.908   6.714   1.696 -0.0612 -0.6641 -0.6130
  487MOL0     H67176  10.697   6.884   1.559 -0.5382 -1.2059 -0.6979
  487MOL0     H67177  10.671   6.782   1.688  0.5121  0.6094  0.0359
  487MOL0     H67178  10.764   6.696   1.404 -0.3679  0.6704 -0.0168
  487MOL0     H67179  10.750   6.572   1.526 -5.8187 -2.3762 -1.7074
  487MOL0     H67180  10.535   6.751   1.424 -1.5566 -0.7991 -1.4035
  487MOL0     H67181  10.497   6.670   1.567 -1.8877  2.3602 -0.3076
  487MOL0     H67182  10.582   6.444   1.417  3.3448  0.8037 -3.3195
  487MOL0     H67183  10.557   6.558   1.278 -5.0003  2.2246 -0.3463
  487MOL0     H67184  10.336   6.593   1.325  0.9580 -0.2308 -1.5145
  487MOL0     H67185  10.342   6.502   1.477 -0.5460  0.0602 -0.3472
  487MOL0     H67186  11.091   6.837   1.262 -0.0887 -0.4099 -0.5512
  487MOL0     H67187  11.255   6.805   1.117 -1.3246 -1.5025  2.5433
  487MOL0     H67188  11.647   6.857   0.951 -1.4415  0.7581  0.5314
  487MOL0     H67189  11.859   6.854   0.832  0.8216  0.8415  1.3600
  487MOL0     H67190  11.609   6.147   0.319 -1.2348 -0.6408  1.6042
  487MOL0     H67191  11.362   6.130   0.310  0.1500 -0.0595 -0.0064
  487MOL0     H67192  11.033   6.221  -0.071 -0.7101  1.6946  0.4314
  487MOL0     H67193  10.814   6.262  -0.112 -1.6904 -1.7201 -1.0243
  487MOL0     H67194  10.429   6.205  -0.099  0.8678  0.9404 -1.9439
  487MOL0     H67195  10.567   6.306  -0.097  0.2980  0.9406  1.7338
  487MOL0     H67196  10.672   6.194  -0.270 -0.4984  2.2587  1.9330
  487MOL0     H67197  10.521   6.220  -0.339  3.8204 -0.3513 -2.9363
  487MOL0     H67198  10.589   5.989  -0.384  0.0535  0.0943 -0.1758
  487MOL0     H67199  10.624   5.958  -0.215  0.3421  0.8511  0.4926
  487MOL0     H67200  10.360   5.969  -0.375 -0.4018 -2.1714  0.4017
  487MOL0     H67201  10.344   6.004  -0.209  0.4694  0.6952  0.0963
  487MOL0     H67202  10.437   5.588  -0.211  0.8363 -0.2642  1.0080
  487MOL0     H67203  10.699   5.922   0.111 -2.5325  1.6558 -1.0609
  487MOL0     H67204  10.933   5.758   0.143 -1.0893  0.5691 -0.9833
  487MOL0     H67205  11.004   5.868   0.280 -1.3861 -0.3076  1.7185
  487MOL0     H67206  10.828   5.834   0.268 -1.4710 -0.8895 -1.2246
  488MOL0     O67207   5.694   0.435   1.894  0.9384  0.3853  0.2912
  488MOL0     C67208   5.627   0.490   1.810 -0.3683 -0.0705  0.8402
  488MOL0     O67209   5.647   0.481   1.674  0.2690 -0.4385 -0.1996
  488MOL0     C67210   5.718   0.372   1.618 -0.5954 -0.4382  0.1979
  488MOL0     C67211   5.726   0.237   1.658  0.0468 -0.4255 -0.7172
  488MOL0     C67212   5.787   0.131   1.585  0.8624 -0.7345 -0.4707
  488MOL0     C67213   5.842   0.164   1.462  0.1169 -1.2088 -0.0359
  488MOL0     O67214   5.908   0.078   1.381  0.0897 -0.0657 -0.4336
  488MOL0     C67215   5.975  -0.031   1.442 -1.3505 -0.6530  0.2818
  488MOL0     C67216   6.058  -0.118   1.337  0.6351 -0.2420 -0.2660
  488MOL0     C67217   6.171  -0.033   1.279 -0.5685  0.4588  0.8785
  488MOL0     C67218   6.296  -0.047   1.372  0.2418 -0.3113 -0.2066
  488MOL0     C67219   6.411   0.041   1.339 -0.3582 -0.6356 -0.2308
  488MOL0     C67220   6.543   0.010   1.406  0.3539  0.3936  0.5150
  488MOL0     C67221   6.537   0.009   1.558 -0.6152  0.1424 -0.0208
  488MOL0     C67222   6.677  -0.013   1.603  0.9008  0.9677 -0.2430
  488MOL0     N67223   6.670  -0.034   1.747  0.4174  0.3058  0.0876
  488MOL0     C67224   6.678   0.057   1.851 -0.3983 -0.2498  1.1106
  488MOL0     C67225   6.662  -0.010   1.968  0.7798 -0.0836  1.0746
  488MOL0     C67226   6.651   0.059   2.105  0.3327 -0.5634  0.9013
  488MOL0     C67227   6.793   0.105   2.160 -0.1378 -0.3202 -0.8190
  488MOL0     C67228   6.786   0.212   2.279  0.6961  1.0211 -0.4588
  488MOL0     C67229   6.927   0.264   2.308 -0.2748  0.1246 -0.3871
  488MOL0     O67230   7.014   0.151   2.345  0.4173 -0.2857 -0.1331
  488MOL0     C67231   7.146   0.183   2.367  0.2177  0.7020 -0.8825
  488MOL0     C67232   7.198   0.309   2.383  0.0940 -0.2470  0.5263
  488MOL0     C67233   7.335   0.334   2.424  0.3899 -0.2241 -0.1359
  488MOL0     C67234   7.383   0.483   2.425  0.7921 -0.1334 -0.0243
  488MOL0     C67235   7.422   0.218   2.439 -0.1325  0.0837 -0.1347
  488MOL0     C67236   7.561   0.217   2.489  0.4011 -0.6134  0.7414
  488MOL0     O67237   7.615   0.096   2.518  0.5629  0.0907  0.3282
  488MOL0     C67238   7.738   0.100   2.557 -0.0852 -0.2020 -0.9468
  488MOL0     C67239   7.766   0.109   2.690 -0.7553 -0.6807  0.1022
  488MOL0     C67240   7.900   0.123   2.729  0.0431  0.5658 -0.0988
  488MOL0     C67241   8.005   0.112   2.635 -0.1872 -0.1967 -0.3065
  488MOL0     O67242   8.136   0.116   2.682 -0.8639  0.9478  0.2109
  488MOL0     C67243   8.249   0.120   2.591 -0.1579 -0.8353  0.0540
  488MOL0     C67244   8.380   0.124   2.673 -0.3317 -0.0795 -0.8454
  488MOL0     C67245   8.512   0.129   2.601 -0.0228 -0.7825  0.2273
  488MOL0     C67246   8.623   0.137   2.708 -0.7660 -0.2227  0.0470
  488MOL0     C67247   8.758   0.171   2.648  0.0603 -0.3091  0.3271
  488MOL0     C67248   8.851   0.204   2.765  1.3363 -0.8339 -0.5064
  488MOL0     C67249   8.994   0.218   2.712 -0.2100  0.3834  0.8907
  488MOL0     C67250   9.092   0.290   2.797  0.1002 -0.0262 -0.3754
  488MOL0    Cl67251   9.255   0.228   2.762  0.1421 -0.2115  0.3101
  488MOL0     C67252   7.974   0.097   2.503  0.1733  0.1841  0.7254
  488MOL0     C67253   7.843   0.079   2.471 -0.0039 -0.2471 -0.2851
  488MOL0     O67254   7.620   0.328   2.512 -0.0755  0.1426  0.2157
  488MOL0     C67255   7.362   0.098   2.415 -0.2425  0.5256 -0.3932
  488MOL0     C67256   7.231   0.076   2.387 -0.4362  0.1020 -0.1809
  488MOL0     N67257   6.654  -0.144   1.931  0.1253  0.2187 -0.3627
  488MOL0     N67258   6.635  -0.152   1.803 -0.2731  0.5061  0.2992
  488MOL0     C67259   5.819   0.288   1.403  0.4246 -0.4646  0.1228
  488MOL0     C67260   5.769   0.396   1.489  0.2716  0.4275 -0.2676
  488MOL0     C67261   5.519   0.577   1.869  0.0014 -0.0162  0.8440
  488MOL0     C67262   5.475   0.544   1.996 -1.1962 -0.8685  0.1951
  488MOL0     C67263   5.370   0.618   2.055  0.3026 -0.7095 -0.0358
  488MOL0     C67264   5.318   0.732   1.991 -0.9782 -0.6999 -0.3389
  488MOL0     O67265   5.214   0.804   2.049  0.2114  0.2877  0.1027
  488MOL0     C67266   5.159   0.914   1.975 -1.4902 -0.4837  0.1234
  488MOL0     C67267   5.034   0.970   2.028 -1.0550 -0.8249  0.4492
  488MOL0     C67268   4.983   1.080   1.927 -0.2086  0.3547  0.0712
  488MOL0     C67269   4.859   1.143   1.993 -0.3693 -0.3908 -0.5286
  488MOL0     C67270   4.853   1.286   1.964  0.6253 -0.4767  0.3153
  488MOL0     C67271   4.842   1.402   1.933  0.6278 -0.5640 -0.4936
  488MOL0     C67272   5.377   0.760   1.865  0.1920 -0.2120  0.1835
  488MOL0     C67273   5.471   0.692   1.796  0.3191 -0.7967 -0.5964
  488MOL0     C67274   5.529   0.740   1.668 -0.8655  1.1601 -0.8545
  488MOL0     H67275   5.691   0.228   1.760 -0.4528  0.5810 -0.7838
  488MOL0     H67276   5.790   0.032   1.628 -5.3944 -0.9469  0.4561
  488MOL0     H67277   5.901  -0.103   1.480  0.4818 -1.8668  1.7810
  488MOL0     H67278   6.028   0.003   1.532 -2.5871  0.6304  0.5445
  488MOL0     H67279   6.107  -0.203   1.385 -2.2712 -2.2832 -0.6830
  488MOL0     H67280   5.987  -0.147   1.259  1.3773  1.5619 -1.6877
  488MOL0     H67281   6.203  -0.068   1.180  0.2451  3.0818  0.1429
  488MOL0     H67282   6.139   0.069   1.258  0.5578  0.2736 -2.3794
  488MOL0     H67283   6.258  -0.017   1.469  2.7447  1.5781  0.2879
  488MOL0     H67284   6.329  -0.151   1.366  0.7444 -0.1371 -0.5519
  488MOL0     H67285   6.381   0.142   1.370  2.5751 -0.0536  1.0234
  488MOL0     H67286   6.429   0.044   1.231  1.3666  1.0500  0.0473
  488MOL0     H67287   6.584  -0.086   1.374  0.0122  0.5634 -0.4530
  488MOL0     H67288   6.614   0.083   1.366 -2.3518  2.3333 -1.0738
  488MOL0     H67289   6.461  -0.060   1.599 -1.2718  1.2734  0.7293
  488MOL0     H67290   6.507   0.110   1.587  1.4540  0.8855 -0.3537
  488MOL0     H67291   6.718  -0.109   1.568 -0.6211 -0.4192  1.5538
  488MOL0     H67292   6.747   0.067   1.578  0.3817  0.9568 -1.8873
  488MOL0     H67293   6.683   0.165   1.841 -1.1635 -0.3182 -0.3690
  488MOL0     H67294   6.591   0.004   2.178 -0.6443  1.9970  2.1596
  488MOL0     H67295   6.589   0.149   2.098 -0.6333 -1.1292  1.9737
  488MOL0     H67296   6.846   0.013   2.187  0.9715  1.2422  2.9897
  488MOL0     H67297   6.848   0.141   2.072  2.7011 -0.4100  0.7755
  488MOL0     H67298   6.722   0.298   2.256 -1.9562 -0.8084 -0.3923
  488MOL0     H67299   6.753   0.164   2.371  2.3076 -0.2705 -0.5110
  488MOL0     H67300   6.976   0.311   2.222  0.8160  0.0750  0.2053
  488MOL0     H67301   6.921   0.337   2.389  3.7522 -1.6352  1.7587
  488MOL0     H67302   7.142   0.400   2.364 -0.3415 -0.5669  0.2608
  488MOL0     H67303   7.370   0.537   2.520 -3.0629  0.5204 -0.7276
  488MOL0     H67304   7.312   0.540   2.364  1.3148 -1.0268 -1.5040
  488MOL0     H67305   7.488   0.495   2.396  1.3275  1.2499  2.2144
  488MOL0     H67306   7.684   0.115   2.761  1.4680  0.5620  2.7026
  488MOL0     H67307   7.923   0.129   2.835  1.7723 -2.1819 -0.2115
  488MOL0     H67308   8.252   0.036   2.521 -1.5847  2.1751 -4.0813
  488MOL0     H67309   8.240   0.207   2.525  1.7930  0.1314  0.9711
  488MOL0     H67310   8.374   0.213   2.736 -1.4356 -1.8109  1.6445
  488MOL0     H67311   8.386   0.037   2.738  1.7955 -0.9327 -2.0743
  488MOL0     H67312   8.530   0.208   2.527  2.8247 -1.2954  0.2366
  488MOL0     H67313   8.538   0.037   2.549  3.4674  0.0275  0.2226
  488MOL0     H67314   8.637   0.042   2.760 -0.5482  0.8531  2.0587
  488MOL0     H67315   8.604   0.218   2.779 -0.7427  1.8463 -2.1627
  488MOL0     H67316   8.802   0.092   2.585  0.6629  1.3824 -1.4755
  488MOL0     H67317   8.735   0.263   2.594 -0.8941 -0.2620  0.8049
  488MOL0     H67318   8.842   0.124   2.839  2.2273 -3.1408 -2.7438
  488MOL0     H67319   8.819   0.300   2.807 -0.4700 -2.5956  2.4637
  488MOL0     H67320   9.002   0.267   2.614  0.0245 -0.2169  0.6033
  488MOL0     H67321   9.028   0.116   2.692  0.7773  1.1710 -2.0828
  488MOL0     H67322   9.073   0.260   2.900  0.7735 -2.8369 -0.9762
  488MOL0     H67323   9.095   0.399   2.787  2.5449  0.1606  1.3926
  488MOL0     H67324   8.049   0.092   2.425 -0.6430  1.6404 -0.2031
  488MOL0     H67325   7.818   0.051   2.369  0.2131  2.0437 -1.0256
  488MOL0     H67326   7.422   0.008   2.421  3.1761  2.6727  0.1473
  488MOL0     H67327   7.195  -0.024   2.365  0.6028  0.2678 -3.0825
  488MOL0     H67328   5.854   0.305   1.302  2.0328 -0.5003  0.6406
  488MOL0     H67329   5.769   0.492   1.439  1.0766 -0.6905 -2.5228
  488MOL0     H67330   5.514   0.468   2.062 -0.4794 -0.3775  0.3444
  488MOL0     H67331   5.315   0.588   2.143  1.2702 -0.0911  0.7939
  488MOL0     H67332   5.233   0.994   1.973 -0.1924 -1.6772 -1.3055
  488MOL0     H67333   5.138   0.881   1.873  4.7946  1.0302 -2.0613
  488MOL0     H67334   5.062   1.021   2.121 -1.0333  3.0094 -1.4627
  488MOL0     H67335   4.959   0.894   2.050 -3.9012  1.4364 -0.6949
  488MOL0     H67336   5.057   1.160   1.915 -0.6275  0.5901 -1.0289
  488MOL0     H67337   4.963   1.033   1.831 -1.3662  1.4224 -0.2404
  488MOL0     H67338   4.857   1.124   2.101  0.0999 -1.0790 -0.6311
  488MOL0     H67339   4.768   1.094   1.958 -0.1765  0.2072 -1.9231
  488MOL0     H67340   4.830   1.507   1.915 -2.0100 -0.9055 -1.0069
  488MOL0     H67341   5.349   0.850   1.811  0.7125  0.6632  1.3169
  488MOL0     H67342   5.479   0.830   1.632  2.2525  3.3281 -0.0625
  488MOL0     H67343   5.633   0.766   1.689  0.1893 -2.1567 -1.3299
  488MOL0     H67344   5.527   0.666   1.587 -2.4019  0.0102  0.1583
  489MOL0     O67345  11.394   7.586   6.475 -0.8246 -0.4419 -0.4256
  489MOL0     C67346  11.305   7.668   6.487 -0.3048 -0.3323 -0.6911
  489MOL0     O67347  11.324   7.801   6.540  0.2660 -0.1464 -0.0929
  489MOL0     C67348  11.433   7.843   6.616 -0.6863  0.9662  0.0424
  489MOL0     C67349  11.483   7.771   6.723 -0.1371 -0.1237 -0.8711
  489MOL0     C67350  11.590   7.822   6.803  0.3567  0.0135  0.6965
  489MOL0     C67351  11.651   7.943   6.765  0.6435  0.1847  0.1026
  489MOL0     O67352  11.753   8.007   6.832  0.4466  0.2274 -0.4547
  489MOL0     C67353  11.722   8.042   6.970 -1.0855  0.4763 -0.1876
  489MOL0     C67354  11.783   7.945   7.078  0.4084  0.5822 -0.1905
  489MOL0     C67355  11.934   7.904   7.048  0.2248  0.6433 -0.8019
  489MOL0     C67356  12.005   7.815   7.156  0.0147  0.3587 -0.4283
  489MOL0     C67357  12.164   7.824   7.140  0.2927  0.6318  0.4001
  489MOL0     C67358  12.227   7.797   7.004 -0.3421 -0.7062  0.2819
  489MOL0     C67359  12.380   7.784   7.028  0.1608 -0.3249 -1.0441
  489MOL0     C67360  12.458   7.826   6.914 -0.1785 -0.5593 -0.6960
  489MOL0     N67361  12.592   7.836   6.965  0.2433 -0.0917 -0.1232
  489MOL0     C67362  12.673   7.730   6.978 -0.0970  0.2276 -0.5022
  489MOL0     C67363  12.786   7.768   7.040  0.4846 -0.9508  0.2149
  489MOL0     C67364  12.888   7.679   7.109  0.5393 -0.2599 -0.0279
  489MOL0     C67365  13.032   7.676   7.050 -0.3846  0.2128 -0.7388
  489MOL0     C67366  13.114   7.559   7.117 -0.4808 -0.0098  0.8503
  489MOL0     C67367  13.270   7.578   7.091  1.2633  0.4681 -0.3323
  489MOL0     O67368  13.308   7.692   7.166 -0.1932 -0.8391 -0.4586
  489MOL0     C67369  13.420   7.765   7.142  0.2196  0.5626 -0.3911
  489MOL0     C67370  13.520   7.741   7.048  0.0672  0.1879  0.2273
  489MOL0     C67371  13.638   7.824   7.035 -0.1253  0.0619  0.0387
  489MOL0     C67372  13.739   7.797   6.924 -0.2868 -0.1891  0.4512
  489MOL0     C67373  13.651   7.934   7.123 -0.3975  1.3503 -0.5659
  489MOL0     C67374  13.779   8.024   7.122  0.3337  0.3177 -0.2350
  489MOL0     O67375  13.903   7.965   7.075  0.1958 -0.5128 -0.0722
  489MOL0     C67376  14.025   8.030   7.073  0.4741 -0.2471 -0.7647
  489MOL0     C67377  14.060   8.131   7.157  0.6963 -0.2508  0.0455
  489MOL0     C67378  14.187   8.194   7.156 -0.3302  0.3736 -0.0307
  489MOL0     C67379  14.279   8.157   7.068  0.5554 -0.4887  0.9548
  489MOL0     O67380  14.395   8.228   7.050  0.2397  0.0229 -0.7667
  489MOL0     C67381  14.473   8.263   7.165  0.3818 -0.1229  0.0931
  489MOL0     C67382  14.619   8.228   7.123  0.4692 -1.2959  0.4079
  489MOL0     C67383  14.683   8.349   7.050 -0.4341  0.4594 -0.2163
  489MOL0     C67384  14.805   8.296   6.982 -0.1914 -0.1209 -0.1700
  489MOL0     C67385  14.893   8.410   6.939  0.1610  0.4762  0.8050
  489MOL0     C67386  14.969   8.468   7.058 -0.2501  0.4714  0.5709
  489MOL0     C67387  15.061   8.575   7.008  0.5674 -1.0083 -1.0709
  489MOL0     C67388  15.107   8.676   7.122 -0.8958  0.4359  0.6228
  489MOL0    Cl67389  15.256   8.765   7.080 -0.0029 -0.0810  0.1849
  489MOL0     C67390  14.245   8.062   6.974  0.7370 -0.1698  1.1039
  489MOL0     C67391  14.119   7.998   6.974 -0.0091  0.2000  0.2208
  489MOL0     O67392  13.769   8.137   7.174 -0.2896  0.6941  0.2149
  489MOL0     C67393  13.544   7.969   7.214 -0.0087  0.1201  0.8611
  489MOL0     C67394  13.441   7.877   7.226 -0.1563  0.4362  0.0456
  489MOL0     N67395  12.776   7.908   7.061  0.0049  0.0192 -0.2560
  489MOL0     N67396  12.657   7.951   7.023  0.1370  0.9903 -0.0464
  489MOL0     C67397  11.597   8.015   6.652  0.6358 -0.4982 -0.8228
  489MOL0     C67398  11.490   7.963   6.581  0.2376  0.0159 -0.1350
  489MOL0     C67399  11.173   7.623   6.440  0.6851  0.3894 -0.5466
  489MOL0     C67400  11.102   7.719   6.369 -0.2158  0.0223 -0.2532
  489MOL0     C67401  10.977   7.691   6.320 -0.1113  0.5246  0.7804
  489MOL0     C67402  10.911   7.565   6.345  0.1894  0.1010 -0.4325
  489MOL0     O67403  10.779   7.548   6.306  0.2819  0.0940 -0.5089
  489MOL0     C67404  10.729   7.595   6.190  0.7100 -0.0163 -0.4496
  489MOL0     C67405  10.611   7.511   6.140  0.6320  0.0036  0.1933
  489MOL0     C67406  10.484   7.549   6.204  0.1444  0.3659 -0.0198
  489MOL0     C67407  10.433   7.675   6.144  0.2035 -0.0677 -0.3987
  489MOL0     C67408  10.296   7.702   6.183 -0.8082 -0.4307  1.3523
  489MOL0     C67409  10.184   7.722   6.217  1.1730 -0.7213  0.1788
  489MOL0     C67410  10.985   7.472   6.419  0.2109 -0.1667  0.4322
  489MOL0     C67411  11.118   7.498   6.460  0.8727 -0.1468  0.6488
  489MOL0     C67412  11.174   7.393   6.546 -0.3435 -0.7664  0.6444
  489MOL0     H67413  11.432   7.679   6.751 -1.0106  0.4217 -0.6503
  489MOL0     H67414  11.640   7.762   6.877 -0.3023  0.0769  1.1992
  489MOL0     H67415  11.615   8.054   6.988 -1.2677 -3.8395  3.0945
  489MOL0     H67416  11.759   8.144   6.982 -2.5240  0.9147  0.8049
  489MOL0     H67417  11.778   8.003   7.171 -1.8233  1.4202 -0.7828
  489MOL0     H67418  11.722   7.857   7.098  1.2531 -0.1763 -0.8975
  489MOL0     H67419  11.928   7.842   6.958 -1.8661 -0.9652  0.3597
  489MOL0     H67420  11.983   8.001   7.033  0.8863  0.4918  0.2930
  489MOL0     H67421  11.989   7.855   7.256  1.2820 -1.9778  0.7792
  489MOL0     H67422  11.971   7.711   7.159  2.1460 -0.3892  2.0822
  489MOL0     H67423  12.219   7.755   7.204  1.5776  0.5604 -0.7349
  489MOL0     H67424  12.185   7.927   7.168  1.9890  0.4027  0.0546
  489MOL0     H67425  12.196   7.702   6.959  0.7883 -0.4915 -1.0392
  489MOL0     H67426  12.211   7.870   6.923  0.5910 -2.6728 -1.7824
  489MOL0     H67427  12.407   7.686   7.066 -0.8389 -0.1200  0.2568
  489MOL0     H67428  12.412   7.852   7.108  2.9644  1.0581 -3.1250
  489MOL0     H67429  12.456   7.752   6.834 -0.3760  0.1324 -1.3463
  489MOL0     H67430  12.425   7.923   6.874 -2.0599 -1.5976 -1.8125
  489MOL0     H67431  12.643   7.630   6.948 -1.7080  0.3041  0.7076
  489MOL0     H67432  12.852   7.576   7.123  0.6201 -0.4363 -1.0805
  489MOL0     H67433  12.901   7.706   7.214  0.4044  0.1302 -0.1111
  489MOL0     H67434  13.027   7.651   6.944 -0.5082  1.0122 -0.9265
  489MOL0     H67435  13.081   7.772   7.066  1.8064 -1.0688  0.7575
  489MOL0     H67436  13.094   7.570   7.224  2.0498  0.2631  1.3557
  489MOL0     H67437  13.086   7.461   7.079  0.0583  0.5072 -0.9883
  489MOL0     H67438  13.316   7.486   7.128  0.3098  0.9151  2.1581
  489MOL0     H67439  13.302   7.594   6.987  1.4834 -1.9832 -0.6848
  489MOL0     H67440  13.522   7.649   6.990  2.8568 -1.5890  2.8123
  489MOL0     H67441  13.695   7.717   6.865  1.7767  1.3475 -3.4901
  489MOL0     H67442  13.835   7.758   6.957  1.7008  1.5971 -2.8047
  489MOL0     H67443  13.750   7.880   6.854 -0.2010  1.5722  2.4370
  489MOL0     H67444  13.990   8.157   7.235  2.8673  2.0129  1.3692
  489MOL0     H67445  14.211   8.270   7.230 -1.0536 -1.9265  2.7441
  489MOL0     H67446  14.475   8.370   7.187  0.7213 -0.2710  0.8016
  489MOL0     H67447  14.456   8.217   7.262  0.8736  0.7036  0.5818
  489MOL0     H67448  14.675   8.204   7.214  2.5247  0.2394 -0.3722
  489MOL0     H67449  14.603   8.149   7.050  2.9067 -0.9691 -0.5596
  489MOL0     H67450  14.702   8.437   7.113  0.9869  1.0091 -1.3593
  489MOL0     H67451  14.611   8.393   6.981 -1.3260  1.7223  1.4270
  489MOL0     H67452  14.782   8.238   6.892 -0.1492  3.8077 -2.9790
  489MOL0     H67453  14.857   8.227   7.049 -0.3578  0.3467  0.4481
  489MOL0     H67454  14.966   8.373   6.866  0.9430  2.0241  0.7767
  489MOL0     H67455  14.828   8.485   6.894  1.1437  2.0816  1.9607
  489MOL0     H67456  15.023   8.388   7.109 -1.0569  0.0811  0.8371
  489MOL0     H67457  14.895   8.509   7.127 -0.2665 -0.0257  0.8521
  489MOL0     H67458  15.022   8.636   6.926  0.5166 -0.1366 -0.4095
  489MOL0     H67459  15.151   8.531   6.964  0.8108 -0.0797 -1.5270
  489MOL0     H67460  15.125   8.623   7.216  1.7620  0.2584  0.0823
  489MOL0     H67461  15.027   8.747   7.148 -0.4847 -0.0949  3.8492
  489MOL0     H67462  14.311   8.036   6.892 -1.9925 -0.0223 -1.3173
  489MOL0     H67463  14.100   7.924   6.897 -0.4622 -0.9074  1.3565
  489MOL0     H67464  13.565   8.057   7.275  1.1721 -0.2398  1.0098
  489MOL0     H67465  13.374   7.896   7.309  2.3767  0.0813  2.2757
  489MOL0     H67466  11.660   8.098   6.623 -0.7412  1.3779  1.2452
  489MOL0     H67467  11.449   8.013   6.493 -0.5834 -1.0631 -0.3875
  489MOL0     H67468  11.141   7.820   6.362  1.4538 -0.4979  1.0280
  489MOL0     H67469  10.924   7.768   6.266 -0.7003  1.2941  2.3770
  489MOL0     H67470  10.696   7.697   6.211  0.9367 -0.0687  0.1849
  489MOL0     H67471  10.802   7.588   6.109  0.0398 -3.1995 -0.9316
  489MOL0     H67472  10.620   7.406   6.168 -0.8471  0.0305  0.8740
  489MOL0     H67473  10.592   7.522   6.033 -2.1996 -0.6044  0.5366
  489MOL0     H67474  10.412   7.469   6.187  1.4301 -0.8910  0.3086
  489MOL0     H67475  10.492   7.560   6.313  1.7159  2.4537 -0.2787
  489MOL0     H67476  10.453   7.679   6.036  2.4671 -2.1310 -0.1328
  489MOL0     H67477  10.496   7.759   6.178  1.3097 -1.1917  0.4140
  489MOL0     H67478  10.085   7.755   6.242  1.0576 -0.8558 -0.1011
  489MOL0     H67479  10.934   7.378   6.439 -2.6298  1.0646 -0.5196
  489MOL0     H67480  11.217   7.438   6.636  0.3686  1.7052 -0.8359
  489MOL0     H67481  11.107   7.315   6.583  2.8223 -4.7377 -1.1346
  489MOL0     H67482  11.256   7.349   6.487  1.8346  1.3292  1.9264
  490MOL0     O67483  11.204   4.884   3.146 -0.1419  0.4241  0.1101
  490MOL0     C67484  11.127   4.818   3.221 -0.7566 -0.1368  0.1550
  490MOL0     O67485  11.164   4.693   3.267  0.4860 -0.0742 -0.4871
  490MOL0     C67486  11.290   4.657   3.243  0.7647  1.1789 -0.5394
  490MOL0     C67487  11.321   4.595   3.124  0.2517  0.1874  0.8965
  490MOL0     C67488  11.458   4.570   3.084 -0.0229  0.0608 -0.4997
  490MOL0     C67489  11.558   4.612   3.172 -0.2959  0.3079 -1.3568
  490MOL0     O67490  11.689   4.591   3.157 -1.0431 -0.1073  0.4183
  490MOL0     C67491  11.746   4.557   3.029  0.8672  0.3875 -0.8839
  490MOL0     C67492  11.893   4.592   3.040 -0.2355  0.2960 -0.0126
  490MOL0     C67493  11.971   4.481   3.114 -0.9556  0.2779  0.4114
  490MOL0     C67494  12.120   4.502   3.095 -0.3130 -0.3133  0.6467
  490MOL0     C67495  12.201   4.385   3.138 -0.5042 -0.2908  0.2337
  490MOL0     C67496  12.352   4.419   3.127 -0.0652  0.3791 -0.5871
  490MOL0     C67497  12.444   4.298   3.149 -0.3754  0.4351  0.0803
  490MOL0     C67498  12.425   4.200   3.028 -1.3247 -0.0329 -0.2091
  490MOL0     N67499  12.521   4.089   3.044  0.5636 -0.2654 -0.1780
  490MOL0     C67500  12.651   4.092   3.003 -0.3869  0.3324 -0.6242
  490MOL0     C67501  12.714   3.978   3.056 -0.8956 -1.0616 -0.2683
  490MOL0     C67502  12.849   3.935   3.037  0.0142  0.1588 -0.5162
  490MOL0     C67503  12.914   3.897   3.174  0.4999  0.4248  0.0150
  490MOL0     C67504  13.065   3.867   3.190  0.5565 -0.6501 -0.0585
  490MOL0     C67505  13.151   3.990   3.178  0.0979 -0.2178 -0.4971
  490MOL0     O67506  13.287   3.952   3.149 -0.3826 -0.9211  0.6733
  490MOL0     C67507  13.370   4.057   3.113  0.2373  1.3450  0.3492
  490MOL0     C67508  13.353   4.197   3.117  0.1319 -0.0740 -0.4456
  490MOL0     C67509  13.468   4.280   3.082 -0.6204  0.4559  0.4196
  490MOL0     C67510  13.449   4.425   3.084 -0.0825 -0.0452 -0.2343
  490MOL0     C67511  13.600   4.230   3.052  0.1701  0.4234 -0.1668
  490MOL0     C67512  13.712   4.307   2.994  0.2951 -0.3518 -0.2643
  490MOL0     O67513  13.841   4.288   3.041  0.4481 -0.1789  0.0890
  490MOL0     C67514  13.939   4.338   2.963 -0.2607 -0.5189 -0.1468
  490MOL0     C67515  14.045   4.247   2.933 -0.3912 -0.0928 -0.9045
  490MOL0     C67516  14.165   4.279   2.872 -0.0309 -0.0481 -0.1184
  490MOL0     C67517  14.179   4.414   2.840  0.6623  1.2737 -0.3052
  490MOL0     O67518  14.293   4.442   2.772  0.6693 -0.0045 -0.6787
  490MOL0     C67519  14.285   4.541   2.676  0.8267 -0.2791 -0.3478
  490MOL0     C67520  14.418   4.533   2.603  0.2841  0.5824 -0.9418
  490MOL0     C67521  14.528   4.623   2.664 -0.4304 -0.0824 -0.5729
  490MOL0     C67522  14.654   4.624   2.576 -0.4788 -0.3449 -0.2492
  490MOL0     C67523  14.746   4.728   2.632  0.3147 -0.0643  0.3371
  490MOL0     C67524  14.888   4.729   2.574  0.1076  0.6429 -0.3322
  490MOL0     C67525  14.972   4.842   2.657  0.6479  0.2822  0.4627
  490MOL0     C67526  15.103   4.874   2.590  0.4268 -0.2578  0.8025
  490MOL0    Cl67527  15.225   4.739   2.601 -0.2634 -0.0167  0.0278
  490MOL0     C67528  14.089   4.511   2.883  0.2949  0.2140 -0.5422
  490MOL0     C67529  13.968   4.476   2.941 -0.7240  0.1846  0.0442
  490MOL0     O67530  13.671   4.397   2.925 -0.3582 -0.4172 -0.5739
  490MOL0     C67531  13.606   4.092   3.055  0.4907  0.8680  0.7263
  490MOL0     C67532  13.495   4.006   3.093 -0.9698 -0.0541 -0.1807
  490MOL0     N67533  12.614   3.904   3.116 -0.6022  0.4271  0.1934
  490MOL0     N67534  12.505   3.967   3.112 -0.2670 -0.4039 -0.0026
  490MOL0     C67535  11.521   4.656   3.309  0.5116  0.4360  0.2762
  490MOL0     C67536  11.387   4.679   3.336  0.0652 -0.7496 -0.6412
  490MOL0     C67537  10.993   4.863   3.252 -0.2174 -0.5797 -0.0472
  490MOL0     C67538  10.961   5.002   3.241 -0.4981  0.6983 -0.2734
  490MOL0     C67539  10.840   5.048   3.274  0.8537 -0.0973  0.2114
  490MOL0     C67540  10.737   4.964   3.315  0.2265 -0.3257  1.1066
  490MOL0     O67541  10.617   5.032   3.337 -0.0685 -0.6592 -0.2613
  490MOL0     C67542  10.490   4.973   3.356  0.5582 -0.5235 -0.7660
  490MOL0     C67543  10.409   4.964   3.225  0.6948 -0.2330  0.0922
  490MOL0     C67544  10.401   5.111   3.176  0.1846 -0.2605 -0.5317
  490MOL0     C67545  10.338   5.136   3.034 -0.8127  0.3824  0.6707
  490MOL0     C67546  10.427   5.091   2.930 -0.5402 -0.0373 -0.1800
  490MOL0     C67547  10.507   5.044   2.857 -1.0426  0.2402 -0.4037
  490MOL0     C67548  10.756   4.823   3.316  0.5408 -0.2910  0.5830
  490MOL0     C67549  10.883   4.776   3.286 -0.0539 -0.3538 -0.5236
  490MOL0     C67550  10.894   4.629   3.279  0.0406  0.1749  0.4403
  490MOL0     H67551  11.245   4.576   3.050 -0.6195 -0.4603  1.9264
  490MOL0     H67552  11.479   4.550   2.979 -1.6018  0.4228 -0.9177
  490MOL0     H67553  11.697   4.620   2.955  2.9793 -0.3139 -3.0054
  490MOL0     H67554  11.725   4.454   2.999 -3.3486  0.5129  0.9366
  490MOL0     H67555  11.927   4.596   2.936 -0.9066  2.4635 -0.2053
  490MOL0     H67556  11.912   4.687   3.093 -1.1626 -1.1912  3.2565
  490MOL0     H67557  11.956   4.483   3.223  0.4122 -0.5539  0.6380
  490MOL0     H67558  11.934   4.388   3.069  1.5582  0.6410 -2.7655
  490MOL0     H67559  12.146   4.535   2.994 -0.8403 -1.6671  0.0298
  490MOL0     H67560  12.146   4.579   3.168  1.2454 -2.4403  2.4581
  490MOL0     H67561  12.170   4.309   3.065 -1.5571 -0.7208  1.0916
  490MOL0     H67562  12.170   4.355   3.239  1.7442  2.6126  1.9673
  490MOL0     H67563  12.372   4.474   3.034 -0.8109  0.7578 -0.5311
  490MOL0     H67564  12.382   4.485   3.209 -0.6541 -0.0826  0.0076
  490MOL0     H67565  12.428   4.250   3.245 -0.3466  2.1568  0.9929
  490MOL0     H67566  12.551   4.324   3.149 -0.6030  1.4241  0.2119
  490MOL0     H67567  12.328   4.150   3.035 -1.5323  0.0904 -1.7818
  490MOL0     H67568  12.438   4.238   2.926 -3.7809  2.3834  0.2602
  490MOL0     H67569  12.705   4.174   2.955  0.2833 -0.1582 -0.7252
  490MOL0     H67570  12.904   4.012   2.983  0.0823 -0.7705 -1.8173
  490MOL0     H67571  12.841   3.848   2.972 -1.9312  0.8553 -1.3108
  490MOL0     H67572  12.893   3.987   3.232 -0.3357 -0.8059  1.6963
  490MOL0     H67573  12.874   3.803   3.214  0.6002 -0.3015 -1.5037
  490MOL0     H67574  13.102   3.826   3.284 -1.8196 -1.2657  0.6613
  490MOL0     H67575  13.100   3.796   3.114 -0.3842 -0.5523 -0.5973
  490MOL0     H67576  13.119   4.062   3.103 -0.6152  1.1464  1.0390
  490MOL0     H67577  13.148   4.047   3.272 -2.0034  0.4877 -0.9417
  490MOL0     H67578  13.264   4.249   3.150 -0.7768 -0.5670 -1.9917
  490MOL0     H67579  13.364   4.456   3.145  2.0480  2.0225  1.9765
  490MOL0     H67580  13.440   4.479   2.989  0.5426 -1.1429 -0.9437
  490MOL0     H67581  13.531   4.464   3.146 -2.2156  1.8225  1.6001
  490MOL0     H67582  14.032   4.141   2.951  4.4947 -0.6909  0.5062
  490MOL0     H67583  14.245   4.208   2.853 -1.0976 -1.9550  2.1125
  490MOL0     H67584  14.205   4.526   2.604  0.1544 -0.7302  0.4737
  490MOL0     H67585  14.270   4.641   2.719  1.8163  0.8913 -2.5420
  490MOL0     H67586  14.451   4.429   2.604 -0.7621  0.2412 -0.9765
  490MOL0     H67587  14.399   4.557   2.498  0.0802 -1.0878 -1.3057
  490MOL0     H67588  14.540   4.587   2.767 -0.1228 -0.9650 -0.9117
  490MOL0     H67589  14.495   4.727   2.663 -0.7890 -0.1497 -3.1368
  490MOL0     H67590  14.620   4.649   2.476  0.8304 -2.4754 -1.3022
  490MOL0     H67591  14.702   4.525   2.575 -3.1405 -1.7280  0.0593
  490MOL0     H67592  14.699   4.826   2.624 -0.7304 -0.7032 -2.5196
  490MOL0     H67593  14.752   4.702   2.738  2.1428  1.5104  0.6757
  490MOL0     H67594  14.883   4.761   2.469 -0.2821  2.1542  0.1346
  490MOL0     H67595  14.948   4.638   2.570  0.4589  0.8982 -0.9872
  490MOL0     H67596  14.988   4.811   2.761 -0.8254  1.2075  0.9918
  490MOL0     H67597  14.920   4.938   2.656 -0.7006 -0.3057 -3.5454
  490MOL0     H67598  15.139   4.949   2.661 -0.9969 -1.5498  2.9969
  490MOL0     H67599  15.099   4.916   2.489 -0.1607 -0.3918  0.7663
  490MOL0     H67600  14.109   4.618   2.878  1.5723 -0.0479 -2.0190
  490MOL0     H67601  13.902   4.554   2.978  0.1870  0.7049  0.6124
  490MOL0     H67602  13.702   4.045   3.035  0.2702  0.3732  0.8497
  490MOL0     H67603  13.500   3.901   3.069 -2.4845  0.1754 -1.6597
  490MOL0     H67604  11.606   4.674   3.375  1.5308  1.3934 -1.2323
  490MOL0     H67605  11.361   4.711   3.437  2.8603 -1.4488  0.3949
  490MOL0     H67606  11.045   5.059   3.202  2.2886 -3.0462 -0.3180
  490MOL0     H67607  10.821   5.154   3.266  2.6086  0.3828  1.7303
  490MOL0     H67608  10.483   4.868   3.388 -4.6644 -0.1181  0.3292
  490MOL0     H67609  10.436   5.037   3.427 -0.2813 -1.4065 -0.5794
  490MOL0     H67610  10.310   4.926   3.252  0.5510 -0.6757 -1.0153
  490MOL0     H67611  10.453   4.892   3.156 -3.3595 -2.6159 -0.3392
  490MOL0     H67612  10.331   5.158   3.246 -2.6847 -4.6952 -0.0029
  490MOL0     H67613  10.500   5.157   3.183  0.6364 -1.3963  1.3363
  490MOL0     H67614  10.318   5.239   3.002  2.1541  0.7081 -0.4534
  490MOL0     H67615  10.242   5.084   3.033 -1.0453  0.7797 -1.1573
  490MOL0     H67616  10.577   5.000   2.789 -0.2732  2.9977 -1.5245
  490MOL0     H67617  10.668   4.761   3.321  0.3206 -0.1288 -0.7342
  490MOL0     H67618  10.933   4.597   3.181 -2.9705 -0.4036 -0.6700
  490MOL0     H67619  10.950   4.593   3.365 -2.5155 -0.5866  1.8872
  490MOL0     H67620  10.795   4.584   3.289 -0.0759  0.5220  0.8671
  491MOL0     O67621   0.777   9.396   3.856 -0.0694  0.0814  0.2499
  491MOL0     C67622   0.785   9.412   3.972 -0.9390 -0.4440 -0.8103
  491MOL0     O67623   0.722   9.338   4.062  0.1280  0.6563 -0.9731
  491MOL0     C67624   0.656   9.226   4.025 -0.5027 -0.0934 -0.3959
  491MOL0     C67625   0.521   9.204   4.055 -0.5629 -0.6022 -0.4239
  491MOL0     C67626   0.456   9.096   4.008 -0.4380  0.7011 -0.0423
  491MOL0     C67627   0.528   8.992   3.946  1.0765  0.7083 -0.8281
  491MOL0     O67628   0.469   8.874   3.894 -0.6352  0.3023  0.3664
  491MOL0     C67629   0.325   8.870   3.897 -0.8568  0.2179 -0.2467
  491MOL0     C67630   0.274   8.729   3.853  0.3465 -1.4941  0.4931
  491MOL0     C67631   0.127   8.743   3.794  1.3495  0.0351 -0.5608
  491MOL0     C67632   0.070   8.604   3.798  0.1615  0.0332  0.2858
  491MOL0     C67633  -0.075   8.610   3.765  0.1448 -0.2514 -0.0952
  491MOL0     C67634  -0.143   8.471   3.755  0.2145  0.1670  0.0074
  491MOL0     C67635  -0.297   8.486   3.739  0.1917  0.1595  0.0577
  491MOL0     C67636  -0.374   8.510   3.873  1.0568  0.4356  0.8695
  491MOL0     N67637  -0.369   8.392   3.955  0.3094  0.1372 -0.2133
  491MOL0     C67638  -0.478   8.309   3.957  0.2393  0.2115 -0.0911
  491MOL0     C67639  -0.449   8.217   4.048  0.6905 -0.1824 -0.4245
  491MOL0     C67640  -0.530   8.095   4.100  0.9296  0.5185 -0.5482
  491MOL0     C67641  -0.531   7.991   3.993 -0.0518  0.9564 -0.0363
  491MOL0     C67642  -0.601   7.867   4.050 -0.5479  1.1294  0.2396
  491MOL0     C67643  -0.609   7.759   3.941 -0.2533  0.5687 -0.3328
  491MOL0     O67644  -0.472   7.729   3.910  0.7771 -0.5637 -0.1602
  491MOL0     C67645  -0.448   7.620   3.836  0.3958  0.4384 -0.4852
  491MOL0     C67646  -0.539   7.564   3.744  0.2519  0.2973 -0.5134
  491MOL0     C67647  -0.501   7.466   3.653 -0.9530  0.2013  0.1387
  491MOL0     C67648  -0.595   7.438   3.533  0.3122 -0.3498 -0.3033
  491MOL0     C67649  -0.367   7.412   3.665  0.3511 -0.2836 -0.6194
  491MOL0     C67650  -0.307   7.298   3.582 -0.2885 -0.4257  0.7658
  491MOL0     O67651  -0.174   7.282   3.601 -0.1023 -0.0659 -0.1297
  491MOL0     C67652  -0.102   7.208   3.512 -0.1356  0.6602 -0.1155
  491MOL0     C67653  -0.003   7.260   3.413 -0.2421 -1.0624 -0.3117
  491MOL0     C67654   0.073   7.175   3.343 -0.4941 -0.3446 -0.4789
  491MOL0     C67655   0.058   7.039   3.345  0.6095  0.2743  0.7520
  491MOL0     O67656   0.133   6.954   3.270 -0.5349  0.1864 -0.3466
  491MOL0     C67657   0.128   6.978   3.126 -0.6507  0.1700  0.0993
  491MOL0     C67658   0.273   6.996   3.077 -0.4421 -0.3680  0.8214
  491MOL0     C67659   0.288   7.067   2.937  0.2242  0.2767 -0.5620
  491MOL0     C67660   0.427   7.098   2.899 -0.3898  0.1103 -0.1385
  491MOL0     C67661   0.428   7.193   2.780 -0.3594  0.4800  0.4438
  491MOL0     C67662   0.563   7.264   2.752  0.0767  0.3976 -0.2671
  491MOL0     C67663   0.676   7.158   2.744  0.9610 -0.1897 -1.1923
  491MOL0     C67664   0.799   7.221   2.681 -0.0984  0.0094 -0.5790
  491MOL0    Cl67665   0.849   7.390   2.741  0.0104 -0.4296  0.0278
  491MOL0     C67666  -0.036   6.981   3.441 -0.5373 -0.0617 -0.2511
  491MOL0     C67667  -0.109   7.065   3.523 -0.5562 -0.1667 -0.7398
  491MOL0     O67668  -0.380   7.236   3.502  0.7372  0.0410  0.0059
  491MOL0     C67669  -0.293   7.467   3.762  0.1359  1.0367 -0.5980
  491MOL0     C67670  -0.328   7.567   3.842  0.4532 -1.7519  0.3928
  491MOL0     N67671  -0.325   8.241   4.098 -0.6945 -0.1202 -0.1933
  491MOL0     N67672  -0.272   8.348   4.040  0.6907  1.0546 -0.6936
  491MOL0     C67673   0.662   9.011   3.915  0.3061 -0.3119  0.2537
  491MOL0     C67674   0.730   9.124   3.954 -0.5201 -0.1717 -0.6295
  491MOL0     C67675   0.883   9.505   4.023 -0.3947 -0.9538  0.2862
  491MOL0     C67676   0.978   9.458   4.117  0.0115 -0.9384  0.9600
  491MOL0     C67677   1.076   9.539   4.171  0.7881 -0.5592 -0.2907
  491MOL0     C67678   1.104   9.662   4.125 -0.0265 -0.5195 -0.8908
  491MOL0     O67679   1.213   9.737   4.165 -0.2993  0.3361 -0.5100
  491MOL0     C67680   1.266   9.717   4.298 -0.0296 -0.0741 -0.0374
  491MOL0     C67681   1.352   9.823   4.352 -0.5506 -0.3068 -0.1430
  491MOL0     C67682   1.498   9.807   4.314 -0.2300 -0.1079 -0.0553
  491MOL0     C67683   1.515   9.819   4.161 -0.6294  0.2331 -0.1521
  491MOL0     C67684   1.653   9.790   4.118  0.6309 -0.0976 -0.6270
  491MOL0     C67685   1.765   9.797   4.075 -0.8056 -0.5886 -1.0265
  491MOL0     C67686   1.021   9.713   4.023 -0.4796  0.0521  0.0781
  491MOL0     C67687   0.910   9.637   3.970  0.9574 -0.4418 -0.7101
  491MOL0     C67688   0.808   9.707   3.872  0.1323 -0.8181 -0.6468
  491MOL0     H67689   0.465   9.280   4.108  0.1487 -1.6822  2.0124
  491MOL0     H67690   0.349   9.099   4.031 -0.2067 -1.4063  1.7045
  491MOL0     H67691   0.286   8.942   3.824  1.9681  2.3236  0.1705
  491MOL0     H67692   0.280   8.883   3.996 -0.2260  3.2585 -0.2571
  491MOL0     H67693   0.349   8.681   3.789 -0.1770 -1.7848  0.0955
  491MOL0     H67694   0.268   8.664   3.941  0.6557 -0.1914  1.5127
  491MOL0     H67695   0.063   8.803   3.860  0.5640  0.0504 -1.3229
  491MOL0     H67696   0.127   8.785   3.693  0.6406 -1.5076 -1.2343
  491MOL0     H67697   0.116   8.542   3.720  1.0479 -1.7177  2.0808
  491MOL0     H67698   0.085   8.554   3.894 -2.0185  1.7237  1.5762
  491MOL0     H67699  -0.084   8.660   3.668  2.3733  2.2064  0.8329
  491MOL0     H67700  -0.122   8.667   3.845 -1.3409 -1.4022 -0.1065
  491MOL0     H67701  -0.115   8.426   3.660 -0.4804  0.4270 -0.3283
  491MOL0     H67702  -0.122   8.410   3.843  0.0736 -2.4828 -1.7030
  491MOL0     H67703  -0.335   8.394   3.692  0.8869 -0.7131  1.1355
  491MOL0     H67704  -0.318   8.567   3.669  1.6515 -1.1109 -1.9857
  491MOL0     H67705  -0.314   8.590   3.918  1.4641  1.9635 -2.1296
  491MOL0     H67706  -0.474   8.537   3.838  0.4819 -2.2594  0.2547
  491MOL0     H67707  -0.572   8.327   3.906  0.2819  0.6846 -0.0155
  491MOL0     H67708  -0.634   8.127   4.116 -0.0204  0.3447 -4.9814
  491MOL0     H67709  -0.480   8.053   4.188  1.3677 -1.8476 -1.8402
  491MOL0     H67710  -0.586   8.023   3.904 -0.8141  0.8456  0.3901
  491MOL0     H67711  -0.427   7.966   3.967 -0.2618  1.5872 -1.5493
  491MOL0     H67712  -0.548   7.830   4.138 -1.5139 -0.1827  0.2999
  491MOL0     H67713  -0.704   7.881   4.083 -0.3947  1.5280  0.5477
  491MOL0     H67714  -0.665   7.674   3.981 -1.6583  1.7326  0.2570
  491MOL0     H67715  -0.666   7.786   3.851  0.5704 -1.1824 -1.4540
  491MOL0     H67716  -0.638   7.610   3.741 -0.2100 -0.3238  2.0187
  491MOL0     H67717  -0.534   7.473   3.449  2.1766 -0.9970  0.7156
  491MOL0     H67718  -0.692   7.488   3.529  0.5584  0.0664 -3.0079
  491MOL0     H67719  -0.624   7.333   3.519 -2.9166 -0.1651  3.4067
  491MOL0     H67720   0.035   7.362   3.412  3.6106 -2.3274  0.1038
  491MOL0     H67721   0.145   7.221   3.275 -0.7098  2.4929  1.0635
  491MOL0     H67722   0.076   6.896   3.075 -2.1635  0.6538  0.8133
  491MOL0     H67723   0.081   7.073   3.101  4.5325  2.9439 -0.5453
  491MOL0     H67724   0.335   7.059   3.141  0.3271  1.6780 -1.7779
  491MOL0     H67725   0.317   6.896   3.070  1.4589  0.4828  0.0527
  491MOL0     H67726   0.234   7.162   2.945  0.7886  1.0384 -4.0280
  491MOL0     H67727   0.243   7.006   2.858  1.6168  0.7171 -1.7282
  491MOL0     H67728   0.483   7.008   2.875  0.6941  1.3471 -2.6088
  491MOL0     H67729   0.480   7.150   2.980  1.7687 -1.3991 -0.4860
  491MOL0     H67730   0.407   7.129   2.694  0.6482  0.0994  0.4630
  491MOL0     H67731   0.349   7.268   2.783 -3.3488 -2.4209  0.0927
  491MOL0     H67732   0.575   7.325   2.842  1.4436 -0.7881  0.3832
  491MOL0     H67733   0.575   7.323   2.661  2.4668  1.8900  0.8980
  491MOL0     H67734   0.647   7.071   2.684 -2.3362  0.0673 -0.1692
  491MOL0     H67735   0.695   7.120   2.845 -1.2561 -2.7586 -1.6232
  491MOL0     H67736   0.783   7.224   2.573 -1.0043  0.6191 -0.4373
  491MOL0     H67737   0.886   7.156   2.693 -0.0800 -0.1502 -1.5177
  491MOL0     H67738  -0.048   6.874   3.454  2.6996 -0.4298  0.4955
  491MOL0     H67739  -0.180   7.020   3.591  0.6196  3.1428  3.1022
  491MOL0     H67740  -0.196   7.425   3.787 -2.0957 -3.1429  2.2116
  491MOL0     H67741  -0.255   7.613   3.908 -0.0454  0.8331 -0.7312
  491MOL0     H67742   0.713   8.932   3.861 -1.1485  1.2150 -3.6987
  491MOL0     H67743   0.837   9.134   3.937 -0.2861 -0.9778  0.2793
  491MOL0     H67744   0.978   9.360   4.164 -1.9980 -1.4820 -0.0613
  491MOL0     H67745   1.145   9.497   4.243  0.7846 -2.4298 -1.3116
  491MOL0     H67746   1.181   9.720   4.368  0.4876 -0.6806  0.6216
  491MOL0     H67747   1.310   9.617   4.290 -0.1138 -0.1672  0.6091
  491MOL0     H67748   1.340   9.827   4.461 -1.6491 -2.5368 -0.1255
  491MOL0     H67749   1.316   9.922   4.320 -0.6617 -0.3546 -0.1657
  491MOL0     H67750   1.539   9.896   4.363 -1.9645  2.7544 -3.3730
  491MOL0     H67751   1.541   9.710   4.340 -1.4463 -0.6678 -0.0874
  491MOL0     H67752   1.484   9.919   4.130 -1.1216  0.8142  2.0876
  491MOL0     H67753   1.445   9.747   4.116 -0.9749 -1.0158  2.2118
  491MOL0     H67754   1.863   9.805   4.034 -1.4855  0.2614 -2.5709
  491MOL0     H67755   1.025   9.819   4.000 -0.9188  0.5055  1.9529
  491MOL0     H67756   0.868   9.785   3.824  3.1674 -1.8689  1.1125
  491MOL0     H67757   0.763   9.643   3.796 -1.2594 -0.8878  0.2094
  491MOL0     H67758   0.719   9.743   3.924 -1.0464 -2.0169 -1.7625
  492MOL0     O67759   3.070   1.017  10.768  0.4261 -0.3188  0.1639
  492MOL0     C67760   2.953   0.992  10.756  0.3558  0.6731  0.3798
  492MOL0     O67761   2.890   0.870  10.773 -0.5129  1.1643  0.0455
  492MOL0     C67762   2.976   0.767  10.813  0.6867 -1.6655  0.3503
  492MOL0     C67763   3.068   0.707  10.724  1.0957  0.1334 -0.0302
  492MOL0     C67764   3.139   0.587  10.765  0.7195  0.0331 -0.7715
  492MOL0     C67765   3.127   0.540  10.900  0.7125 -0.2294  0.9770
  492MOL0     O67766   3.209   0.443  10.951 -0.6457 -0.5658  0.9327
  492MOL0     C67767   3.310   0.400  10.852  0.0035  0.2320  0.0124
  492MOL0     C67768   3.401   0.291  10.929  0.6257 -0.1610  0.7574
  492MOL0     C67769   3.508   0.353  11.027  0.0518  0.5907  0.3800
  492MOL0     C67770   3.632   0.270  11.042 -0.7119 -0.0243 -0.3716
  492MOL0     C67771   3.749   0.340  11.115  0.1157 -0.6013  0.3709
  492MOL0     C67772   3.876   0.260  11.095  0.4907  0.0415  0.5657
  492MOL0     C67773   3.994   0.297  11.175  1.1805  0.0409 -0.1727
  492MOL0     C67774   4.060   0.425  11.121 -0.0081 -0.0457  1.0872
  492MOL0     N67775   4.197   0.441  11.182  0.0787  0.2913  0.4580
  492MOL0     C67776   4.305   0.366  11.147 -0.2204 -1.3566 -0.2568
  492MOL0     C67777   4.411   0.416  11.210 -0.0877 -0.1470 -0.2347
  492MOL0     C67778   4.552   0.359  11.205  0.0202  0.2533  1.0862
  492MOL0     C67779   4.649   0.460  11.145  0.7506  0.6644 -0.1450
  492MOL0     C67780   4.791   0.425  11.181 -0.1799  0.7363 -0.2884
  492MOL0     C67781   4.826   0.483  11.320 -0.0211 -0.2189 -0.0488
  492MOL0     O67782   4.969   0.478  11.336 -0.3835  0.6899  0.5822
  492MOL0     C67783   5.022   0.446  11.456 -0.5108 -0.3326  0.3687
  492MOL0     C67784   5.165   0.445  11.458 -0.0882  0.4719  0.7654
  492MOL0     C67785   5.240   0.417  11.571 -0.1233 -0.0165  0.3377
  492MOL0     C67786   5.386   0.423  11.554  0.2056  0.8188  0.8670
  492MOL0     C67787   5.174   0.386  11.693  0.4935 -0.4403 -0.3469
  492MOL0     C67788   5.245   0.354  11.818 -0.3004 -0.4451  0.6648
  492MOL0     O67789   5.379   0.347  11.810  0.8319  0.4837 -0.2674
  492MOL0     C67790   5.446   0.294  11.921  0.0200  0.7156 -0.1143
  492MOL0     C67791   5.476   0.156  11.929 -0.1074  0.8680 -0.9744
  492MOL0     C67792   5.552   0.105  12.034  0.6828 -0.2842 -0.0293
  492MOL0     C67793   5.585   0.202  12.141  0.8061  0.5978  0.0496
  492MOL0     O67794   5.674   0.171  12.243  0.3689  0.3785 -0.2441
  492MOL0     C67795   5.697   0.031  12.247 -0.0930  0.3740  0.2804
  492MOL0     C67796   5.759   0.001  12.393 -0.4776 -0.1836 -0.6038
  492MOL0     C67797   5.677   0.057  12.504 -0.0226 -0.5489  0.0156
  492MOL0     C67798   5.559  -0.024  12.551 -0.4184 -1.1079 -0.4521
  492MOL0     C67799   5.441  -0.051  12.455  0.0379 -0.1066  0.0895
  492MOL0     C67800   5.372   0.081  12.401 -0.8059  0.1485  0.4128
  492MOL0     C67801   5.256   0.045  12.308 -0.8753  0.2558 -0.0474
  492MOL0     C67802   5.198   0.160  12.234 -0.7974 -0.7027 -0.4058
  492MOL0    Cl67803   5.161   0.300  12.334  0.2737 -0.0468 -0.5913
  492MOL0     C67804   5.540   0.337  12.134 -0.5700  0.6817 -0.7367
  492MOL0     C67805   5.478   0.387  12.021  0.8415 -0.5988 -0.8625
  492MOL0     O67806   5.182   0.347  11.920  0.0754 -0.8531 -0.7726
  492MOL0     C67807   5.036   0.386  11.687 -0.0815  0.2416  0.2256
  492MOL0     C67808   4.958   0.411  11.571 -0.4441  0.7088 -0.0520
  492MOL0     N67809   4.368   0.531  11.275  0.6199  0.2053  0.7053
  492MOL0     N67810   4.239   0.551  11.252 -0.4690  0.8407  0.3727
  492MOL0     C67811   3.029   0.596  10.979 -0.3005  0.1856  0.6055
  492MOL0     C67812   2.962   0.709  10.930 -0.0202  0.2275 -0.2953
  492MOL0     C67813   2.862   1.106  10.711  0.5750  0.8156 -0.0495
  492MOL0     C67814   2.749   1.071  10.629  0.0869 -0.6217 -0.0315
  492MOL0     C67815   2.658   1.170  10.588 -0.1617  0.6343 -0.3786
  492MOL0     C67816   2.676   1.305  10.617  0.0761 -0.7845 -0.3940
  492MOL0     O67817   2.589   1.398  10.570 -0.4095 -0.4937  0.7944
  492MOL0     C67818   2.452   1.404  10.616 -0.1308 -0.8963 -0.0131
  492MOL0     C67819   2.427   1.553  10.660 -0.3393 -0.0886  0.5613
  492MOL0     C67820   2.505   1.572  10.793 -0.2830  0.5740 -0.1708
  492MOL0     C67821   2.459   1.688  10.887 -0.0767 -0.0514  0.1350
  492MOL0     C67822   2.328   1.667  10.958  0.0540  0.8600  0.3717
  492MOL0     C67823   2.225   1.638  11.005  0.5696  0.0625  0.6682
  492MOL0     C67824   2.792   1.340  10.694 -0.6997 -0.1820  0.0642
  492MOL0     C67825   2.875   1.246  10.747  0.7429 -0.4155 -0.0869
  492MOL0     C67826   2.978   1.301  10.842  0.4149 -0.0999  0.7078
  492MOL0     H67827   3.085   0.752  10.626  0.9978  1.2525  0.4457
  492MOL0     H67828   3.201   0.542  10.689 -0.3411 -2.7841 -0.1028
  492MOL0     H67829   3.368   0.486  10.816  1.5866 -1.0281 -0.5755
  492MOL0     H67830   3.259   0.348  10.771  0.4376 -0.9977  0.5091
  492MOL0     H67831   3.324   0.237  10.985  0.5553  0.1038  0.9198
  492MOL0     H67832   3.446   0.221  10.858 -0.8363  0.0167 -0.4082
  492MOL0     H67833   3.534   0.455  10.997  3.8859 -0.5229 -0.6326
  492MOL0     H67834   3.453   0.357  11.122 -2.5165  1.3636 -1.0460
  492MOL0     H67835   3.605   0.175  11.087 -0.4515  0.6404  1.2461
  492MOL0     H67836   3.681   0.241  10.949  0.0777 -3.1279  0.9070
  492MOL0     H67837   3.725   0.363  11.219  1.1646 -0.0176  0.5026
  492MOL0     H67838   3.777   0.436  11.070  0.4553  0.9339  3.5548
  492MOL0     H67839   3.857   0.154  11.113 -0.8118  0.3456  1.0685
  492MOL0     H67840   3.894   0.269  10.987 -1.8247  2.5502  0.3019
  492MOL0     H67841   4.073   0.222  11.179 -0.1676 -1.3832  2.3522
  492MOL0     H67842   3.968   0.298  11.281  3.3826 -0.9652  0.4382
  492MOL0     H67843   4.071   0.402  11.014  0.8915 -0.3606  1.2351
  492MOL0     H67844   3.993   0.508  11.144  0.4351  0.9054 -0.8047
  492MOL0     H67845   4.310   0.286  11.074 -1.3490  0.8181 -2.8644
  492MOL0     H67846   4.554   0.264  11.151 -0.3510 -1.9978  4.7535
  492MOL0     H67847   4.594   0.334  11.302  1.2709  1.4115  0.8843
  492MOL0     H67848   4.617   0.472  11.041 -1.3788  1.4049  0.5408
  492MOL0     H67849   4.630   0.561  11.184  1.1040  0.1460  1.4331
  492MOL0     H67850   4.816   0.320  11.166 -2.7351 -0.3726  2.3502
  492MOL0     H67851   4.853   0.483  11.111 -1.3057 -0.8838 -2.7664
  492MOL0     H67852   4.791   0.586  11.319  0.4794 -0.0219 -2.2930
  492MOL0     H67853   4.770   0.427  11.395  2.8375 -2.0518  0.8929
  492MOL0     H67854   5.209   0.447  11.358 -0.1113  0.4170  0.7538
  492MOL0     H67855   5.423   0.494  11.629 -0.0653  0.8902  0.9357
  492MOL0     H67856   5.411   0.469  11.458  0.0955  0.2734  0.5751
  492MOL0     H67857   5.431   0.325  11.574  0.6527  0.5746 -1.1616
  492MOL0     H67858   5.461   0.085  11.848  0.2469 -2.7790  1.9234
  492MOL0     H67859   5.563  -0.003  12.035 -0.9198 -0.4814  1.0147
  492MOL0     H67860   5.606  -0.029  12.233  0.8834 -0.7183 -1.9099
  492MOL0     H67861   5.765  -0.005  12.168  2.2532 -1.1116  2.7866
  492MOL0     H67862   5.772  -0.107  12.410  0.1516  0.2284  2.0360
  492MOL0     H67863   5.850   0.062  12.400 -0.6913  0.7975 -4.3399
  492MOL0     H67864   5.635   0.155  12.480  1.4154 -0.1617 -1.0777
  492MOL0     H67865   5.741   0.078  12.591 -1.8010  0.3898  1.1410
  492MOL0     H67866   5.515   0.019  12.641 -2.6810 -2.8629 -0.6049
  492MOL0     H67867   5.602  -0.122  12.575  1.4615 -0.4299 -0.8691
  492MOL0     H67868   5.458  -0.109  12.364 -2.4688 -0.8367 -0.0051
  492MOL0     H67869   5.375  -0.119  12.510  0.6005 -0.9566 -0.2667
  492MOL0     H67870   5.439   0.147  12.345 -3.3887  1.7665 -0.9401
  492MOL0     H67871   5.329   0.138  12.484 -0.3584  1.5291 -0.2792
  492MOL0     H67872   5.170  -0.000  12.360 -1.2361  2.6807  1.6535
  492MOL0     H67873   5.295  -0.011  12.223  0.0550  1.8733 -0.7235
  492MOL0     H67874   5.104   0.134  12.184 -0.2614 -1.1699 -1.1837
  492MOL0     H67875   5.264   0.188  12.152  0.4259 -2.5685 -0.1117
  492MOL0     H67876   5.554   0.394  12.225 -0.0141 -1.1695  0.4055
  492MOL0     H67877   5.440   0.488  12.006 -1.8070 -1.4560 -0.3997
  492MOL0     H67878   4.981   0.354  11.775  1.8794 -1.9091  0.7594
  492MOL0     H67879   4.852   0.390  11.577 -0.4703  0.8054 -0.1569
  492MOL0     H67880   3.008   0.561  11.080  0.8492  1.6391  1.4024
  492MOL0     H67881   2.889   0.750  10.999  1.7495  1.1282  1.1480
  492MOL0     H67882   2.739   0.966  10.602 -1.3388 -0.8632  1.3521
  492MOL0     H67883   2.571   1.139  10.531 -1.1939  1.7859  0.5018
  492MOL0     H67884   2.388   1.369  10.534 -0.4215  1.2109 -0.7377
  492MOL0     H67885   2.420   1.336  10.696  0.6804  0.7299  1.7442
  492MOL0     H67886   2.321   1.569  10.679 -0.4761 -0.2058 -0.1092
  492MOL0     H67887   2.468   1.627  10.591 -0.6167  1.6466  2.1634
  492MOL0     H67888   2.483   1.483  10.853  3.4217  2.4948  4.8115
  492MOL0     H67889   2.613   1.553  10.787 -0.1244  0.1946  2.5495
  492MOL0     H67890   2.467   1.779  10.827  0.9050 -0.5374 -0.4944
  492MOL0     H67891   2.532   1.689  10.968  1.0051 -0.3342 -0.8050
  492MOL0     H67892   2.130   1.606  11.043 -0.2267  1.6738  0.1355
  492MOL0     H67893   2.809   1.447  10.701  0.6510 -0.1493 -2.6288
  492MOL0     H67894   2.934   1.368  10.916  0.4727 -0.3304  0.9531
  492MOL0     H67895   3.043   1.229  10.892  1.6692  2.2596  2.7149
  492MOL0     H67896   3.054   1.362  10.792 -0.7456 -0.1642 -1.2444
  493MOL0     O67897   0.284   7.116   2.484  0.3291  0.6894 -0.0997
  493MOL0     C67898   0.235   7.223   2.462  0.9764 -0.2345 -0.2184
  493MOL0     O67899   0.302   7.331   2.406 -0.3207  0.2722 -0.2555
  493MOL0     C67900   0.426   7.323   2.344  0.9531  0.2193  0.3508
  493MOL0     C67901   0.458   7.423   2.256  0.4173  0.3497  1.0780
  493MOL0     C67902   0.580   7.421   2.188  0.3406  0.5612  0.0170
  493MOL0     C67903   0.671   7.313   2.208  0.7245  0.2866  0.0357
  493MOL0     O67904   0.786   7.294   2.138 -0.0205 -0.0789  0.5714
  493MOL0     C67905   0.826   7.382   2.037 -0.0448 -0.2652  0.0929
  493MOL0     C67906   0.935   7.318   1.949  0.2730  0.2207  0.4863
  493MOL0     C67907   0.872   7.212   1.844  0.7949 -0.1183  0.1315
  493MOL0     C67908   0.986   7.126   1.771 -0.5255 -0.6431  0.4066
  493MOL0     C67909   1.113   7.201   1.728  1.1087 -0.4368  0.2188
  493MOL0     C67910   1.206   7.103   1.655  0.6299  0.0230  0.3618
  493MOL0     C67911   1.350   7.159   1.643 -0.7230 -1.2920 -0.6709
  493MOL0     C67912   1.359   7.221   1.504 -0.9723 -0.1205  0.2968
  493MOL0     N67913   1.492   7.289   1.498 -0.6936  0.1849 -0.2874
  493MOL0     C67914   1.610   7.225   1.457  0.6517  0.8844 -1.1183
  493MOL0     C67915   1.705   7.319   1.497 -0.1750 -0.3234 -0.0922
  493MOL0     C67916   1.848   7.310   1.489 -0.1014  1.2743  0.5252
  493MOL0     C67917   1.917   7.431   1.442 -0.2022 -1.1343  0.4710
  493MOL0     C67918   1.876   7.470   1.300 -0.0032 -0.4900  0.3327
  493MOL0     C67919   1.967   7.580   1.251  0.0097 -0.1367 -0.7851
  493MOL0     O67920   2.098   7.531   1.220 -0.3140  0.6754 -0.0652
  493MOL0     C67921   2.198   7.615   1.173  0.5369  0.5312  0.7379
  493MOL0     C67922   2.310   7.539   1.136  0.8476 -0.2176  0.7923
  493MOL0     C67923   2.427   7.592   1.081  0.3372 -0.7027 -0.6408
  493MOL0     C67924   2.527   7.495   1.025  0.7503  0.8144 -0.1276
  493MOL0     C67925   2.435   7.733   1.064  0.0721 -0.0823  0.4383
  493MOL0     C67926   2.555   7.804   1.005 -0.0496 -0.2757  0.5757
  493MOL0     O67927   2.542   7.936   0.985  0.8798  0.0199  0.4161
  493MOL0     C67928   2.647   8.025   0.962 -0.2052 -0.0268 -0.5107
  493MOL0     C67929   2.782   8.017   1.012 -0.4218 -0.4390  0.5218
  493MOL0     C67930   2.868   8.125   0.997 -0.2089 -0.6137 -0.2248
  493MOL0     C67931   2.826   8.238   0.929  0.2050  0.3811 -0.3116
  493MOL0     O67932   2.914   8.326   0.883  0.4091 -0.1892 -0.1831
  493MOL0     C67933   3.050   8.290   0.870 -0.0926  0.7855  0.0115
  493MOL0     C67934   3.127   8.404   0.810  0.1093  0.1306  0.0337
  493MOL0     C67935   3.089   8.430   0.660  0.0662 -0.0263 -0.1948
  493MOL0     C67936   2.952   8.490   0.634  0.2986 -0.2286 -0.6938
  493MOL0     C67937   2.923   8.529   0.490  0.0706  0.6393 -0.0189
  493MOL0     C67938   2.882   8.414   0.388  0.2575 -0.2746 -0.2666
  493MOL0     C67939   2.953   8.281   0.394 -0.4948 -0.4046 -0.4402
  493MOL0     C67940   2.907   8.188   0.288 -0.0382  0.4743 -0.5486
  493MOL0    Cl67941   2.938   8.246   0.127 -0.3777  0.2538 -0.3358
  493MOL0     C67942   2.702   8.251   0.879  0.2093  1.0217  0.4105
  493MOL0     C67943   2.609   8.151   0.893 -0.3763  0.6478  1.1524
  493MOL0     O67944   2.653   7.746   0.971 -0.5550  0.2474  0.5339
  493MOL0     C67945   2.321   7.809   1.098  0.2149 -0.0826 -0.6928
  493MOL0     C67946   2.203   7.754   1.148 -0.0992  0.5390 -0.0397
  493MOL0     N67947   1.641   7.430   1.540 -0.3131 -0.2372 -0.1509
  493MOL0     N67948   1.513   7.410   1.550  0.3634 -0.3744 -0.2485
  493MOL0     C67949   0.637   7.213   2.294 -0.7424 -0.3985  0.6738
  493MOL0     C67950   0.515   7.215   2.359  0.4011 -0.0119  0.2407
  493MOL0     C67951   0.102   7.252   2.531 -0.1245  0.3387  0.6928
  493MOL0     C67952   0.074   7.387   2.557  0.3384  0.3477 -0.4240
  493MOL0     C67953  -0.044   7.416   2.628  0.1922  0.1683  0.6422
  493MOL0     C67954  -0.142   7.313   2.657 -0.2326  0.2187 -0.3430
  493MOL0     O67955  -0.262   7.354   2.724  0.3225  0.2720 -0.0385
  493MOL0     C67956  -0.312   7.292   2.841 -0.1292  0.5405  0.0449
  493MOL0     C67957  -0.212   7.301   2.953  0.6850 -0.1741  0.4804
  493MOL0     C67958  -0.266   7.269   3.092  0.6347 -0.4901  0.0806
  493MOL0     C67959  -0.213   7.132   3.130 -0.8419  0.2484  0.8348
  493MOL0     C67960  -0.238   7.026   3.035  0.8692  0.5016 -0.4137
  493MOL0     C67961  -0.269   6.939   2.953 -0.1008 -0.6365 -0.7147
  493MOL0     C67962  -0.105   7.179   2.621  1.3199  0.7602 -0.4659
  493MOL0     C67963   0.010   7.145   2.557  0.6916  0.3604  0.5037
  493MOL0     C67964   0.046   6.998   2.541 -0.5299  0.5283  0.4212
  493MOL0     H67965   0.392   7.508   2.239  2.6453  2.4459  2.4031
  493MOL0     H67966   0.603   7.486   2.104  0.5931 -1.1881 -1.3290
  493MOL0     H67967   0.851   7.481   2.075  1.1979  0.6193 -2.7497
  493MOL0     H67968   0.749   7.400   1.962  1.8847 -1.2089 -2.2428
  493MOL0     H67969   0.983   7.403   1.900  0.7801 -0.7483 -0.7740
  493MOL0     H67970   1.023   7.280   2.003  0.1351  1.7835  1.8930
  493MOL0     H67971   0.811   7.139   1.898  0.2247  1.2552  1.4037
  493MOL0     H67972   0.805   7.265   1.776  0.5512  1.4155  1.4951
  493MOL0     H67973   1.019   7.039   1.829  0.3076 -1.0478 -0.6476
  493MOL0     H67974   0.943   7.087   1.678  0.8448 -2.2575  0.3937
  493MOL0     H67975   1.166   7.237   1.816 -1.3547 -0.2021  1.6969
  493MOL0     H67976   1.081   7.293   1.678 -0.0756 -0.0181  1.6940
  493MOL0     H67977   1.204   7.009   1.711  0.4947 -1.1993 -1.6120
  493MOL0     H67978   1.177   7.073   1.554 -4.6539 -1.1315  1.9312
  493MOL0     H67979   1.426   7.081   1.653  0.3838  0.0167  2.6538
  493MOL0     H67980   1.355   7.235   1.721 -0.8169 -1.9495 -0.0135
  493MOL0     H67981   1.359   7.150   1.421 -3.6716 -0.0176  0.1052
  493MOL0     H67982   1.292   7.308   1.506  1.6265  1.9979  1.2006
  493MOL0     H67983   1.627   7.125   1.420  0.1774  0.4354 -0.1442
  493MOL0     H67984   1.862   7.224   1.423  0.0370 -1.5595  4.0192
  493MOL0     H67985   1.878   7.291   1.592  0.2532  0.6938  0.3165
  493MOL0     H67986   1.881   7.510   1.509 -0.0762 -2.5669  2.3266
  493MOL0     H67987   2.024   7.413   1.454  0.5592  2.1194 -0.4075
  493MOL0     H67988   1.883   7.386   1.230  1.1515  0.6631 -0.9956
  493MOL0     H67989   1.774   7.510   1.301  1.2348  3.0512 -0.8785
  493MOL0     H67990   1.922   7.628   1.164  0.2637  4.0582  1.1397
  493MOL0     H67991   1.976   7.660   1.324  0.7636 -1.2518  0.3799
  493MOL0     H67992   2.296   7.431   1.141 -0.6742 -0.0501  0.4132
  493MOL0     H67993   2.628   7.529   1.047  1.9939 -2.8180  0.2884
  493MOL0     H67994   2.518   7.484   0.916 -1.3750  1.3695 -0.0565
  493MOL0     H67995   2.522   7.400   1.077  1.1373  0.8495 -0.0251
  493MOL0     H67996   2.828   7.933   1.064 -3.1498 -1.3917  1.6011
  493MOL0     H67997   2.970   8.115   1.034 -0.6099  0.8799  1.4715
  493MOL0     H67998   3.095   8.270   0.968  0.7497  2.3546 -0.0145
  493MOL0     H67999   3.062   8.201   0.808 -2.4786  2.0047 -2.3951
  493MOL0     H68000   3.088   8.488   0.868  2.7097  1.2295  0.3225
  493MOL0     H68001   3.234   8.413   0.829  0.3298 -0.9087 -0.6318
  493MOL0     H68002   3.097   8.338   0.601 -1.0470 -0.8912  0.9647
  493MOL0     H68003   3.157   8.505   0.618  3.2646 -2.8484 -0.5529
  493MOL0     H68004   2.943   8.578   0.699  2.8087 -0.6846  0.4007
  493MOL0     H68005   2.877   8.416   0.661 -1.5464  1.2340 -1.5608
  493MOL0     H68006   2.845   8.606   0.499  1.6454  2.1328  1.4844
  493MOL0     H68007   3.015   8.573   0.451  0.3700 -0.4384 -0.5616
  493MOL0     H68008   2.883   8.449   0.284 -0.2161  0.8482  0.0905
  493MOL0     H68009   2.777   8.390   0.410  0.4888 -1.7152 -0.5987
  493MOL0     H68010   2.952   8.240   0.496  1.8987  0.3678 -0.0354
  493MOL0     H68011   3.055   8.304   0.360 -1.4326  3.6635 -0.9997
  493MOL0     H68012   2.800   8.168   0.296 -0.0642 -0.0184 -1.9095
  493MOL0     H68013   2.963   8.094   0.296 -2.7921 -1.5074 -2.6228
  493MOL0     H68014   2.674   8.339   0.821 -0.0177 -0.2571 -1.5116
  493MOL0     H68015   2.509   8.146   0.851 -0.6104  1.9973  1.4855
  493MOL0     H68016   2.321   7.917   1.094  0.8249  0.2816  3.8036
  493MOL0     H68017   2.116   7.813   1.175 -0.8628 -0.4588 -0.2550
  493MOL0     H68018   0.713   7.140   2.319  0.2734 -0.1142 -1.3910
  493MOL0     H68019   0.502   7.131   2.427  2.9341 -0.1212  0.6819
  493MOL0     H68020   0.136   7.467   2.519 -0.1627  0.6262 -0.6686
  493MOL0     H68021  -0.065   7.522   2.642  2.3040  0.4715  1.8228
  493MOL0     H68022  -0.398   7.354   2.869 -0.5291  0.7291 -1.4692
  493MOL0     H68023  -0.343   7.193   2.806  0.3020  0.3192  0.2764
  493MOL0     H68024  -0.179   7.405   2.962  1.9374 -0.2303 -2.3595
  493MOL0     H68025  -0.121   7.244   2.930 -0.2285 -1.6500  0.4135
  493MOL0     H68026  -0.223   7.337   3.166  0.5042 -1.4150  1.0253
  493MOL0     H68027  -0.372   7.284   3.115  1.0053  0.0203  1.5349
  493MOL0     H68028  -0.240   7.099   3.231  2.6631 -0.1851  1.7402
  493MOL0     H68029  -0.105   7.132   3.146 -0.3417 -2.1687 -1.7951
  493MOL0     H68030  -0.303   6.876   2.873  0.6032 -2.7162  0.5341
  493MOL0     H68031  -0.184   7.105   2.634  1.3205  1.1043  2.0494
  493MOL0     H68032   0.130   6.969   2.605 -0.7898 -0.3835  0.3730
  493MOL0     H68033  -0.031   6.925   2.568 -0.9089  0.5864 -0.4664
  493MOL0     H68034   0.079   6.975   2.439  2.1671 -0.1503  1.3579
  494MOL0     O68035   7.503   3.149   5.071 -0.5237 -0.0160 -0.2935
  494MOL0     C68036   7.447   3.171   5.182  0.0430 -0.4614  0.8315
  494MOL0     O68037   7.505   3.151   5.304 -0.2978  0.3081  0.3001
  494MOL0     C68038   7.629   3.087   5.297  0.7978 -0.3943 -0.2397
  494MOL0     C68039   7.648   2.959   5.359  0.2027 -0.0883 -0.2271
  494MOL0     C68040   7.780   2.905   5.370  0.2106 -0.3449  0.2804
  494MOL0     C68041   7.897   2.980   5.339  0.0729 -0.5038  0.1450
  494MOL0     O68042   8.020   2.914   5.349  0.2749  0.0989 -0.2383
  494MOL0     C68043   8.120   2.951   5.261 -0.5234  0.5670  0.3762
  494MOL0     C68044   8.212   2.833   5.225 -0.6182  0.1462 -0.6447
  494MOL0     C68045   8.313   2.784   5.332 -0.0931  0.2701 -0.2923
  494MOL0     C68046   8.405   2.894   5.371 -0.0291  0.2274 -0.2652
  494MOL0     C68047   8.522   2.829   5.442 -0.2438 -0.5960 -0.1422
  494MOL0     C68048   8.635   2.925   5.481 -0.0946  0.2055  0.0999
  494MOL0     C68049   8.760   2.845   5.535 -0.6430  0.1403 -0.9239
  494MOL0     C68050   8.855   2.938   5.611  0.2358 -0.3371  0.6104
  494MOL0     N68051   8.990   2.879   5.625  0.3395 -0.6221  0.1655
  494MOL0     C68052   9.091   2.897   5.530  0.0845  1.2769  0.0568
  494MOL0     C68053   9.190   2.831   5.587 -0.7357 -1.1293  0.5695
  494MOL0     C68054   9.316   2.807   5.514 -0.1392 -0.0944  0.8261
  494MOL0     C68055   9.422   2.903   5.564 -0.3845 -0.2977  0.4716
  494MOL0     C68056   9.548   2.845   5.498  0.0899 -0.0674  0.3803
  494MOL0     C68057   9.671   2.924   5.541  0.0105  0.2182  0.0042
  494MOL0     O68058   9.736   2.849   5.645 -1.0303 -0.0940 -0.1294
  494MOL0     C68059   9.868   2.869   5.675 -0.1031  0.1483  1.2492
  494MOL0     C68060   9.947   2.968   5.611 -0.0195  0.2759  0.5635
  494MOL0     C68061  10.083   2.981   5.639  0.6679  0.3465  0.1587
  494MOL0     C68062  10.158   3.075   5.555 -0.7518 -0.2617  0.4936
  494MOL0     C68063  10.137   2.903   5.745 -1.0366  0.4334 -1.0470
  494MOL0     C68064  10.283   2.906   5.782 -0.1915 -0.0056 -0.0075
  494MOL0     O68065  10.314   2.835   5.891  1.1116  0.2676  0.6065
  494MOL0     C68066  10.423   2.766   5.876 -0.6440  0.0936  0.0711
  494MOL0     C68067  10.409   2.629   5.875 -0.2037 -0.0568 -0.4270
  494MOL0     C68068  10.523   2.550   5.863 -0.9491 -0.8779  0.2031
  494MOL0     C68069  10.660   2.600   5.866  0.6423  0.1004 -0.7320
  494MOL0     O68070  10.765   2.511   5.886  0.5479  0.4425 -0.2908
  494MOL0     C68071  10.812   2.472   5.761  0.9344  0.0082 -0.3726
  494MOL0     C68072  10.930   2.383   5.789  0.0757  0.3541  0.0138
  494MOL0     C68073  10.987   2.336   5.653 -0.6060  0.1158  0.5149
  494MOL0     C68074  11.098   2.436   5.600 -0.1553  0.1912  0.3263
  494MOL0     C68075  11.198   2.380   5.494  0.5324 -0.2956 -0.0125
  494MOL0     C68076  11.297   2.489   5.449  0.4789 -0.0702 -0.2034
  494MOL0     C68077  11.397   2.417   5.353  0.5857  0.5815 -0.4573
  494MOL0     C68078  11.488   2.515   5.289 -0.3914 -0.1344  0.7499
  494MOL0    Cl68079  11.408   2.630   5.178  0.2341 -0.2447 -0.2703
  494MOL0     C68080  10.669   2.741   5.874 -0.5149 -0.5963 -0.6193
  494MOL0     C68081  10.555   2.822   5.888  0.7166 -0.4260 -0.0803
  494MOL0     O68082  10.371   2.960   5.702  0.4578  0.5745 -0.2547
  494MOL0     C68083  10.053   2.813   5.811  0.9945 -0.4435  0.0101
  494MOL0     C68084   9.917   2.794   5.777  0.3443 -0.4833 -0.6092
  494MOL0     N68085   9.172   2.791   5.712 -0.3079 -0.5797  0.6644
  494MOL0     N68086   9.044   2.816   5.738  0.1482  0.4523  0.4328
  494MOL0     C68087   7.875   3.103   5.294 -0.3886 -0.8143 -0.6294
  494MOL0     C68088   7.741   3.157   5.264 -0.2225  0.8247 -0.0322
  494MOL0     C68089   7.305   3.229   5.179 -0.2079  0.0401 -0.1366
  494MOL0     C68090   7.269   3.285   5.053  0.1233  1.1191  1.1228
  494MOL0     C68091   7.137   3.322   5.040 -0.0988  0.4293  0.0646
  494MOL0     C68092   7.044   3.324   5.142 -0.8175 -0.4984 -0.2623
  494MOL0     O68093   6.919   3.378   5.116  0.0205  0.5986  0.5219
  494MOL0     C68094   6.810   3.356   5.198  0.2956 -0.0564  0.3908
  494MOL0     C68095   6.749   3.222   5.194 -0.0388 -0.1973  1.0321
  494MOL0     C68096   6.702   3.177   5.054 -0.7057 -1.2459 -0.1965
  494MOL0     C68097   6.589   3.275   5.008 -0.1839  0.2281 -0.0567
  494MOL0     C68098   6.518   3.237   4.888 -0.5807 -0.0371 -0.4950
  494MOL0     C68099   6.451   3.196   4.793 -0.8122  0.2705 -0.2003
  494MOL0     C68100   7.088   3.275   5.267 -0.0724 -0.3958  0.3166
  494MOL0     C68101   7.220   3.221   5.292 -0.5522  0.0508  0.4873
  494MOL0     C68102   7.255   3.144   5.421 -0.4143 -0.4001  0.1848
  494MOL0     H68103   7.568   2.903   5.407  0.5247 -0.4043 -0.0500
  494MOL0     H68104   7.797   2.803   5.400 -1.0339 -1.0667 -1.3075
  494MOL0     H68105   8.179   3.033   5.304  0.1942 -0.9186  2.3543
  494MOL0     H68106   8.080   2.984   5.165  1.9892  3.9082  0.2745
  494MOL0     H68107   8.153   2.748   5.189  1.5879 -1.8002  0.0965
  494MOL0     H68108   8.269   2.879   5.143  1.6111 -0.8225  0.3008
  494MOL0     H68109   8.274   2.739   5.424 -0.7020 -0.8577 -1.0737
  494MOL0     H68110   8.370   2.702   5.286  0.6422 -0.2980  1.5623
  494MOL0     H68111   8.442   2.946   5.281 -4.0442  0.4960 -1.9471
  494MOL0     H68112   8.351   2.965   5.434  0.1023 -0.4690  0.6551
  494MOL0     H68113   8.562   2.752   5.376  0.2933 -0.6245  0.2079
  494MOL0     H68114   8.498   2.784   5.539 -1.9874  2.7369  1.1620
  494MOL0     H68115   8.664   2.991   5.398  1.9642 -0.5606  0.1451
  494MOL0     H68116   8.604   2.981   5.570 -1.6302 -3.4611  2.0773
  494MOL0     H68117   8.815   2.799   5.452 -2.3687 -1.4481 -1.2409
  494MOL0     H68118   8.734   2.770   5.610 -1.9351  1.5616  0.1072
  494MOL0     H68119   8.875   3.030   5.555  0.2263 -1.4684 -1.3026
  494MOL0     H68120   8.819   2.972   5.709  2.1435  3.0702  0.2873
  494MOL0     H68121   9.074   2.936   5.430 -0.1248 -0.1976 -0.5035
  494MOL0     H68122   9.300   2.828   5.407  0.2505 -0.5705  0.6704
  494MOL0     H68123   9.335   2.700   5.528 -2.5618 -0.4803  1.7420
  494MOL0     H68124   9.408   3.002   5.519 -1.4272  0.1745  1.7767
  494MOL0     H68125   9.419   2.907   5.673  2.1319  1.5748  0.5594
  494MOL0     H68126   9.560   2.738   5.520 -0.3115  0.3192  2.8050
  494MOL0     H68127   9.533   2.856   5.391 -1.1698 -0.4392  0.4973
  494MOL0     H68128   9.734   2.938   5.453  2.3979  1.3537  1.7989
  494MOL0     H68129   9.646   3.022   5.583 -2.4627 -0.3141 -0.0361
  494MOL0     H68130   9.906   3.036   5.536 -0.9881 -0.7960  0.0934
  494MOL0     H68131  10.093   3.102   5.470  0.1167 -0.4546 -0.2488
  494MOL0     H68132  10.246   3.025   5.514 -1.6484 -1.3582 -0.1309
  494MOL0     H68133  10.200   3.162   5.607 -1.6343  1.4228 -1.4251
  494MOL0     H68134  10.310   2.587   5.888  0.1073 -0.2059  1.7089
  494MOL0     H68135  10.514   2.442   5.873 -1.9602 -0.8334 -0.0436
  494MOL0     H68136  10.736   2.417   5.705  2.0639  0.3828 -2.3565
  494MOL0     H68137  10.842   2.557   5.698  1.9954  0.3519  0.5615
  494MOL0     H68138  11.007   2.435   5.846  0.6473 -0.9660  0.4793
  494MOL0     H68139  10.901   2.289   5.836  2.0547 -0.8464 -1.0478
  494MOL0     H68140  10.923   2.325   5.566  1.5564  0.0329 -1.1460
  494MOL0     H68141  11.032   2.239   5.677 -2.1736 -0.2645  2.2292
  494MOL0     H68142  11.159   2.457   5.688  1.3874  1.0235 -0.8828
  494MOL0     H68143  11.066   2.535   5.566  2.2096  0.3498 -1.7883
  494MOL0     H68144  11.249   2.289   5.526  1.3490 -0.6497 -2.1065
  494MOL0     H68145  11.138   2.352   5.406 -0.5538  1.6218  0.0773
  494MOL0     H68146  11.347   2.539   5.532 -4.0030  1.8160  1.7246
  494MOL0     H68147  11.236   2.564   5.397  1.3245  0.8651  0.1378
  494MOL0     H68148  11.337   2.367   5.277 -2.2638 -0.8086  2.4606
  494MOL0     H68149  11.454   2.336   5.400  0.1879 -0.3074 -1.4650
  494MOL0     H68150  11.558   2.455   5.230  0.9562 -0.4646  2.6034
  494MOL0     H68151  11.559   2.555   5.362  1.1285 -2.8546  0.9298
  494MOL0     H68152  10.764   2.792   5.888 -0.1322 -1.2663 -0.7421
  494MOL0     H68153  10.565   2.930   5.895  0.3618 -0.4051  0.1375
  494MOL0     H68154  10.077   2.743   5.890 -1.3368  0.4973  1.6950
  494MOL0     H68155   9.851   2.724   5.828  1.9384 -1.3012  0.4236
  494MOL0     H68156   7.960   3.162   5.260  0.7464 -1.5227  0.8299
  494MOL0     H68157   7.733   3.255   5.218 -2.2799  0.7109  0.0005
  494MOL0     H68158   7.332   3.283   4.965  0.8183 -0.5840  1.6263
  494MOL0     H68159   7.101   3.344   4.940 -0.0410 -0.0466 -0.0653
  494MOL0     H68160   6.825   3.378   5.304  0.0635 -0.1224  0.4392
  494MOL0     H68161   6.731   3.426   5.168  0.1537  0.0641  1.0170
  494MOL0     H68162   6.664   3.214   5.262  0.0907 -0.7509  1.1299
  494MOL0     H68163   6.826   3.151   5.226 -0.7661 -0.7754  1.5264
  494MOL0     H68164   6.788   3.176   4.986  0.7430 -2.4277  1.5717
  494MOL0     H68165   6.665   3.074   5.056 -2.1679 -0.8084 -1.8353
  494MOL0     H68166   6.633   3.374   4.998 -1.3289  0.7410 -0.2158
  494MOL0     H68167   6.517   3.274   5.091  2.1086  2.0949  2.0678
  494MOL0     H68168   6.391   3.146   4.719 -2.4660 -2.4529  2.7525
  494MOL0     H68169   7.024   3.274   5.354 -0.4089  0.3959  0.0907
  494MOL0     H68170   7.326   3.205   5.477  1.3089 -3.4260  1.5843
  494MOL0     H68171   7.160   3.119   5.469 -0.4534 -3.0587 -1.0733
  494MOL0     H68172   7.308   3.051   5.400  2.4746  0.2677  3.5097
  495MOL0     O68173   7.979   2.275   7.378 -0.6529 -0.4107 -0.2861
  495MOL0     C68174   7.943   2.383   7.420  0.4602 -0.5084  0.6867
  495MOL0     O68175   8.025   2.496   7.437  0.5085  0.9531  0.0601
  495MOL0     C68176   8.162   2.492   7.410  0.8413 -0.6702  0.1611
  495MOL0     C68177   8.226   2.452   7.292  0.2066 -0.8977  0.5179
  495MOL0     C68178   8.367   2.437   7.286  0.2493 -0.0935  0.1526
  495MOL0     C68179   8.440   2.468   7.402  0.4239 -0.5973  0.4875
  495MOL0     O68180   8.577   2.444   7.417  0.2544  0.1206 -0.2948
  495MOL0     C68181   8.627   2.342   7.336 -0.2328 -0.4785  0.6014
  495MOL0     C68182   8.724   2.266   7.428  0.5572  0.2083 -0.4805
  495MOL0     C68183   8.803   2.163   7.350  0.1534 -0.2997  0.4921
  495MOL0     C68184   8.917   2.093   7.432 -0.2166  0.1606  0.4598
  495MOL0     C68185   8.970   1.971   7.347 -0.5970 -0.2061  0.4074
  495MOL0     C68186   9.094   1.914   7.410  0.3961  0.1885  0.8318
  495MOL0     C68187   9.164   1.808   7.321  1.1882 -0.0979 -0.2624
  495MOL0     C68188   9.239   1.860   7.202  0.7562  0.1994 -0.0953
  495MOL0     N68189   9.307   1.752   7.126 -0.9811 -0.0239 -0.0137
  495MOL0     C68190   9.422   1.694   7.166  0.6570 -0.4486  0.0111
  495MOL0     C68191   9.435   1.596   7.071  0.0519 -0.2554 -0.7493
  495MOL0     C68192   9.569   1.516   7.051 -0.1510  1.4063 -0.2429
  495MOL0     C68193   9.538   1.359   7.041 -0.4711  0.1190 -0.2975
  495MOL0     C68194   9.647   1.285   6.966 -0.4232 -0.0406  0.4214
  495MOL0     C68195   9.623   1.133   6.957  0.3354  0.8572  0.4187
  495MOL0     O68196   9.649   1.066   7.085  0.4579  0.2166 -0.5399
  495MOL0     C68197   9.772   1.008   7.103 -0.6829  0.0837 -0.2057
  495MOL0     C68198   9.793   0.942   7.213  0.3307  0.3285 -1.2893
  495MOL0     C68199   9.903   0.857   7.235  0.5829 -0.3546  0.0379
  495MOL0     C68200   9.896   0.781   7.365 -0.2327  0.1545 -0.2959
  495MOL0     C68201  10.013   0.862   7.150 -0.4608 -0.7969  0.0847
  495MOL0     C68202  10.138   0.788   7.173  0.2628  0.2444 -0.1355
  495MOL0     O68203  10.243   0.810   7.078  0.0816 -0.1427  0.4298
  495MOL0     C68204  10.371   0.758   7.083  0.5671 -0.3258  0.8735
  495MOL0     C68205  10.421   0.744   6.959  0.3768 -0.5494 -0.4895
  495MOL0     C68206  10.546   0.686   6.947  0.1028  0.2498  0.3042
  495MOL0     C68207  10.623   0.651   7.058 -0.4328 -0.9418 -0.8258
  495MOL0     O68208  10.748   0.603   7.047  0.4289  0.1175 -0.0731
  495MOL0     C68209  10.860   0.693   7.087  1.0596 -0.1980 -0.6996
  495MOL0     C68210  10.988   0.633   7.086 -0.7484  0.1258  0.3079
  495MOL0     C68211  10.996   0.516   7.183  0.3206  0.2659  0.2640
  495MOL0     C68212  11.133   0.495   7.243 -0.4171 -0.1165  0.2514
  495MOL0     C68213  11.142   0.410   7.362  0.7386  1.1332  0.0238
  495MOL0     C68214  11.060   0.462   7.487 -0.3898  0.3816 -0.4074
  495MOL0     C68215  11.106   0.393   7.622 -0.2286  0.2193  0.1836
  495MOL0     C68216  11.063   0.486   7.737 -0.1857  0.3615 -0.8093
  495MOL0    Cl68217  11.146   0.649   7.748 -0.2136 -0.4892  0.3998
  495MOL0     C68218  10.573   0.678   7.186  0.6090  0.1029 -0.8588
  495MOL0     C68219  10.442   0.728   7.195  1.0660  0.4327 -0.3768
  495MOL0     O68220  10.153   0.721   7.275  0.1693 -0.3173 -0.2004
  495MOL0     C68221   9.998   0.950   7.037  0.4623 -0.0965 -0.2728
  495MOL0     C68222   9.879   1.028   7.023  0.1101  0.2745  0.9490
  495MOL0     N68223   9.318   1.580   7.002  0.5388 -0.1228 -0.0862
  495MOL0     N68224   9.239   1.678   7.040  0.0508 -0.8262 -0.3501
  495MOL0     C68225   8.376   2.526   7.510  0.2813 -0.9443  0.2510
  495MOL0     C68226   8.238   2.548   7.513  0.6011 -0.6417 -0.8436
  495MOL0     C68227   7.798   2.406   7.442  0.0001 -0.1090 -0.4770
  495MOL0     C68228   7.714   2.292   7.423 -0.6273  0.6509  0.2834
  495MOL0     C68229   7.575   2.304   7.439 -0.8527  0.7496  0.4739
  495MOL0     C68230   7.508   2.418   7.489  0.8768  0.6796 -0.4824
  495MOL0     O68231   7.371   2.431   7.505  0.2937  0.5011 -0.3948
  495MOL0     C68232   7.277   2.315   7.491 -0.2053 -0.5297 -0.1953
  495MOL0     C68233   7.137   2.365   7.541  0.0696  0.1932 -0.5954
  495MOL0     C68234   7.043   2.248   7.521 -0.0889  0.3402  0.1106
  495MOL0     C68235   6.897   2.277   7.542  0.5682  0.6355  0.0503
  495MOL0     C68236   6.857   2.364   7.425  0.2837 -0.0976 -1.3799
  495MOL0     C68237   6.821   2.443   7.342 -0.2784 -0.5151 -0.9454
  495MOL0     C68238   7.599   2.525   7.531  0.5252  0.7718 -0.0325
  495MOL0     C68239   7.732   2.527   7.506  0.0151  0.4169  0.2031
  495MOL0     C68240   7.807   2.652   7.547  0.1004 -0.6417  0.3897
  495MOL0     H68241   8.164   2.421   7.209 -0.0670  0.4787  0.1787
  495MOL0     H68242   8.419   2.410   7.195  1.1373  0.2150  0.5605
  495MOL0     H68243   8.684   2.387   7.253  1.9550 -1.7915  1.3136
  495MOL0     H68244   8.553   2.273   7.295  1.4490 -1.9291 -0.1191
  495MOL0     H68245   8.797   2.332   7.476  4.1339  0.5829 -5.5812
  495MOL0     H68246   8.674   2.216   7.511  0.3806  1.4427  0.1783
  495MOL0     H68247   8.728   2.085   7.333  1.7865 -1.8154 -0.0750
  495MOL0     H68248   8.839   2.192   7.251 -0.9822  0.5174  0.2933
  495MOL0     H68249   8.999   2.163   7.450  0.6781 -0.1974 -1.9085
  495MOL0     H68250   8.882   2.045   7.524 -2.3378 -1.5355 -1.1412
  495MOL0     H68251   9.003   2.004   7.248  1.5700 -2.4501  0.2827
  495MOL0     H68252   8.889   1.899   7.332  0.2325 -1.0026 -0.3716
  495MOL0     H68253   9.169   1.990   7.436  1.0688 -0.1954  0.0867
  495MOL0     H68254   9.072   1.865   7.505 -1.2466  1.5886  1.2136
  495MOL0     H68255   9.087   1.735   7.292  1.2195  0.4990 -1.9838
  495MOL0     H68256   9.243   1.758   7.377 -1.4305 -3.2344  0.9414
  495MOL0     H68257   9.174   1.911   7.131  0.1969  2.6438  2.0062
  495MOL0     H68258   9.316   1.932   7.232  1.1878 -0.3830  0.2126
  495MOL0     H68259   9.492   1.723   7.244 -2.1561 -2.1286  3.4516
  495MOL0     H68260   9.633   1.526   7.140  2.1765 -4.2066 -0.8531
  495MOL0     H68261   9.625   1.547   6.963 -1.3948  1.1434 -1.1551
  495MOL0     H68262   9.533   1.326   7.145  0.3683  1.4828  0.2126
  495MOL0     H68263   9.445   1.333   6.991 -0.7873 -1.3716  0.9899
  495MOL0     H68264   9.648   1.320   6.862 -1.9444  1.0928  0.7542
  495MOL0     H68265   9.738   1.311   7.020 -2.1210  1.6388  2.6658
  495MOL0     H68266   9.521   1.106   6.927  0.7067  0.8658 -0.9056
  495MOL0     H68267   9.685   1.084   6.882  2.4553 -0.1566  2.6953
  495MOL0     H68268   9.710   0.937   7.282  1.2984 -1.1976 -0.1575
  495MOL0     H68269   9.959   0.831   7.440  1.1842  0.6997 -1.7845
  495MOL0     H68270   9.923   0.678   7.340 -1.5051 -0.0708 -0.8236
  495MOL0     H68271   9.795   0.778   7.406  0.7200  0.6955  2.3567
  495MOL0     H68272  10.364   0.770   6.871  0.7077  0.1684 -0.4944
  495MOL0     H68273  10.583   0.671   6.846  0.4699 -3.5384  0.8663
  495MOL0     H68274  10.868   0.777   7.017  3.1589 -0.8029 -1.2639
  495MOL0     H68275  10.841   0.731   7.188 -0.0828  0.1038 -1.0052
  495MOL0     H68276  11.000   0.604   6.981 -0.4721  0.1249  0.3391
  495MOL0     H68277  11.060   0.711   7.108 -2.0962  1.5811 -0.2537
  495MOL0     H68278  10.962   0.427   7.130 -0.3644  0.6017  0.1304
  495MOL0     H68279  10.934   0.537   7.271 -2.0672 -0.8842 -1.0447
  495MOL0     H68280  11.188   0.588   7.256  4.0310 -2.0809 -2.0693
  495MOL0     H68281  11.193   0.456   7.159  0.3618 -0.3350  0.8960
  495MOL0     H68282  11.113   0.309   7.331 -1.1510  1.8261 -0.5955
  495MOL0     H68283  11.247   0.389   7.385  0.5942 -2.0750 -1.6249
  495MOL0     H68284  10.954   0.435   7.481 -0.3850 -0.1445  1.3427
  495MOL0     H68285  11.056   0.571   7.493 -3.5890  0.2740  1.5963
  495MOL0     H68286  11.214   0.383   7.614  0.2036  3.3762  0.6940
  495MOL0     H68287  11.064   0.292   7.628 -0.1200  0.0213 -1.9057
  495MOL0     H68288  11.075   0.425   7.827  0.3339  0.6575 -0.6719
  495MOL0     H68289  10.959   0.517   7.726 -0.2723 -0.2946 -1.9941
  495MOL0     H68290  10.631   0.659   7.276  0.3622  0.7250 -0.5666
  495MOL0     H68291  10.396   0.729   7.293 -0.7575  0.5315 -1.1945
  495MOL0     H68292  10.080   0.961   6.967  0.1622  0.5153 -0.5364
  495MOL0     H68293   9.872   1.103   6.945  2.4015  0.8950  1.2555
  495MOL0     H68294   8.432   2.540   7.602 -2.2939  0.2697  1.7525
  495MOL0     H68295   8.171   2.589   7.588 -1.3674 -1.9819 -1.7642
  495MOL0     H68296   7.759   2.203   7.382  2.7412  2.4573 -0.3338
  495MOL0     H68297   7.516   2.214   7.423  0.5189  0.3890 -3.5040
  495MOL0     H68298   7.271   2.280   7.387 -0.0951  0.1471 -0.4387
  495MOL0     H68299   7.322   2.241   7.558  0.1714  0.9583  1.2695
  495MOL0     H68300   7.097   2.445   7.478  2.0888 -0.0133 -2.2370
  495MOL0     H68301   7.149   2.394   7.646  1.4435  1.4938 -1.0803
  495MOL0     H68302   7.056   2.214   7.418  1.7197  1.6858 -0.1519
  495MOL0     H68303   7.077   2.167   7.585  1.5693  3.0078  2.8863
  495MOL0     H68304   6.876   2.328   7.636  3.5696 -2.1267  2.4347
  495MOL0     H68305   6.843   2.183   7.526 -2.3968  2.4623 -1.5359
  495MOL0     H68306   6.783   2.518   7.276  2.0220  1.3053 -0.3514
  495MOL0     H68307   7.543   2.614   7.558  1.9376  1.2837  1.4399
  495MOL0     H68308   7.887   2.629   7.619  1.3037 -1.7537 -1.2110
  495MOL0     H68309   7.858   2.704   7.466  1.6745  0.4658  1.9991
  495MOL0     H68310   7.740   2.725   7.592  2.6993  1.8376  0.5255
  496MOL0     O68311   3.474   0.830   6.615 -0.8192 -0.1077 -0.1921
  496MOL0     C68312   3.419   0.854   6.723 -0.3166  0.4712  0.2468
  496MOL0     O68313   3.478   0.911   6.831 -0.9163  0.6995 -0.4385
  496MOL0     C68314   3.605   0.950   6.819 -0.6959 -0.3726  0.1435
  496MOL0     C68315   3.701   0.912   6.913 -0.8270 -0.2365  1.4861
  496MOL0     C68316   3.834   0.955   6.903  0.5112  0.3570 -0.8283
  496MOL0     C68317   3.879   1.034   6.804  0.3147 -0.3014  0.3861
  496MOL0     O68318   4.003   1.085   6.805 -0.2940 -0.2602 -0.0242
  496MOL0     C68319   4.116   0.995   6.840  0.8350 -0.0480  0.2044
  496MOL0     C68320   4.235   1.064   6.893  0.3704 -0.4293  0.6192
  496MOL0     C68321   4.248   1.214   6.855  0.0707  0.3402 -0.7086
  496MOL0     C68322   4.330   1.297   6.963  0.5275 -0.2573  0.6288
  496MOL0     C68323   4.375   1.436   6.919  0.1475 -0.0356 -0.2879
  496MOL0     C68324   4.498   1.430   6.819 -0.1379 -0.0848 -0.4762
  496MOL0     C68325   4.531   1.566   6.752 -0.4018 -0.0680 -0.6408
  496MOL0     C68326   4.437   1.613   6.639  0.5306 -0.3930  0.6943
  496MOL0     N68327   4.428   1.507   6.544 -0.0740 -0.1045  0.2425
  496MOL0     C68328   4.310   1.436   6.508 -0.2670 -0.5467 -1.5647
  496MOL0     C68329   4.352   1.352   6.410 -0.1954 -0.0031  0.0188
  496MOL0     C68330   4.261   1.252   6.334  0.7573  1.0441 -0.5044
  496MOL0     C68331   4.229   1.132   6.431  0.1233 -0.0439  0.4161
  496MOL0     C68332   4.078   1.122   6.469 -0.1193  1.4873  0.0597
  496MOL0     C68333   4.002   1.093   6.338  0.7756 -0.1038  0.1239
  496MOL0     O68334   3.879   1.037   6.375  1.0417 -0.0698 -0.1457
  496MOL0     C68335   3.783   1.006   6.286 -0.0927 -0.5716 -0.3077
  496MOL0     C68336   3.807   1.021   6.144 -0.5524 -0.5627  0.6783
  496MOL0     C68337   3.712   1.009   6.054  0.0175  0.2339  0.0320
  496MOL0     C68338   3.751   1.033   5.903 -0.5062  0.1171 -0.6531
  496MOL0     C68339   3.585   0.953   6.095  0.3103 -0.1556  0.2228
  496MOL0     C68340   3.467   0.905   6.013 -0.0202  0.4963  0.1523
  496MOL0     O68341   3.349   0.871   6.082 -0.2745  0.6725  0.3901
  496MOL0     C68342   3.236   0.852   6.010  0.3058  0.0536 -0.2598
  496MOL0     C68343   3.194   0.925   5.895  0.4418  0.0589  0.4105
  496MOL0     C68344   3.066   0.909   5.833  0.5860 -1.1330 -0.2814
  496MOL0     C68345   2.978   0.815   5.887 -0.5253  0.5111 -0.6782
  496MOL0     O68346   2.853   0.800   5.827 -0.2812 -0.6145  0.3440
  496MOL0     C68347   2.756   0.730   5.900  0.0443  0.0777  0.8083
  496MOL0     C68348   2.771   0.584   5.859  0.9580 -0.7982  0.2532
  496MOL0     C68349   2.657   0.485   5.888 -0.8696 -0.8090  0.1069
  496MOL0     C68350   2.553   0.483   5.786  0.8244  0.1028  0.7585
  496MOL0     C68351   2.467   0.361   5.805  0.1168  0.0948 -0.0481
  496MOL0     C68352   2.365   0.361   5.693  0.4688  0.3966 -0.5640
  496MOL0     C68353   2.298   0.228   5.677  0.7797  0.5563 -0.3733
  496MOL0     C68354   2.251   0.202   5.544  0.0777  0.3425  0.6151
  496MOL0    Cl68355   2.384   0.179   5.410  0.0441  0.2923  0.0846
  496MOL0     C68356   3.021   0.730   5.992  0.1733  0.1938 -0.4523
  496MOL0     C68357   3.146   0.749   6.047 -0.0465  0.2729  0.0109
  496MOL0     O68358   3.487   0.886   5.893  0.6979  0.4577  0.3054
  496MOL0     C68359   3.564   0.926   6.233  0.2747  0.0939  0.2551
  496MOL0     C68360   3.660   0.963   6.331  0.2257 -0.4214  0.0490
  496MOL0     N68361   4.486   1.375   6.384  0.1547  0.2983  0.2346
  496MOL0     N68362   4.529   1.474   6.459  0.2698 -0.6322  0.1561
  496MOL0     C68363   3.788   1.078   6.704  0.0353 -0.2787 -0.2521
  496MOL0     C68364   3.652   1.041   6.718  0.7081  0.2508  0.1690
  496MOL0     C68365   3.293   0.783   6.737 -0.1733 -0.1516 -1.0808
  496MOL0     C68366   3.264   0.717   6.858  0.0684 -0.4555 -0.6520
  496MOL0     C68367   3.139   0.645   6.878 -0.0793 -0.2487 -0.1495
  496MOL0     C68368   3.049   0.637   6.773 -0.4973 -0.3322 -0.4045
  496MOL0     O68369   2.944   0.552   6.792 -0.0457 -0.0150 -0.0567
  496MOL0     C68370   2.883   0.480   6.682 -1.0416 -0.2190  0.1448
  496MOL0     C68371   2.790   0.373   6.744  0.2604 -0.5039 -0.4211
  496MOL0     C68372   2.741   0.252   6.661 -0.7176  0.5308  0.7116
  496MOL0     C68373   2.610   0.298   6.593 -0.3531  0.5928  0.3704
  496MOL0     C68374   2.573   0.184   6.503  0.9958  0.4771 -0.1098
  496MOL0     C68375   2.538   0.089   6.435 -0.6017 -1.0091  0.5104
  496MOL0     C68376   3.079   0.699   6.652  0.2315  0.9514  0.5155
  496MOL0     C68377   3.191   0.779   6.638 -1.0249 -0.0328  0.4304
  496MOL0     C68378   3.210   0.854   6.504 -0.0843 -0.4920 -0.3445
  496MOL0     H68379   3.674   0.844   6.993 -1.8791 -0.4734  0.9527
  496MOL0     H68380   3.898   0.925   6.986  1.1362 -3.0368 -2.3691
  496MOL0     H68381   4.142   0.939   6.749  1.0489  1.8628 -0.9662
  496MOL0     H68382   4.079   0.925   6.916 -1.5665 -0.4406 -1.2251
  496MOL0     H68383   4.222   1.064   7.002  4.0977  0.3922  1.1796
  496MOL0     H68384   4.320   0.998   6.876  0.4213 -0.3434  0.5381
  496MOL0     H68385   4.271   1.237   6.750  1.6122  0.1585 -0.4393
  496MOL0     H68386   4.150   1.261   6.871  1.4140  2.3841  2.6136
  496MOL0     H68387   4.278   1.296   7.059 -1.3944 -0.1632 -0.3575
  496MOL0     H68388   4.422   1.239   6.973  0.7941  0.1628  0.6247
  496MOL0     H68389   4.407   1.474   7.017 -0.9701 -2.6390  1.1786
  496MOL0     H68390   4.286   1.489   6.885 -3.3353 -2.3101  4.2102
  496MOL0     H68391   4.585   1.422   6.885  1.3490  2.3673 -1.9980
  496MOL0     H68392   4.495   1.348   6.747 -1.2962 -0.7792  0.3213
  496MOL0     H68393   4.629   1.560   6.704  0.7537 -0.5256  1.6682
  496MOL0     H68394   4.543   1.639   6.833  1.6866 -0.0677 -0.9132
  496MOL0     H68395   4.334   1.631   6.672  0.0093 -1.6793 -0.1323
  496MOL0     H68396   4.483   1.702   6.595 -0.7749  0.0509  0.1794
  496MOL0     H68397   4.211   1.441   6.551  0.0571  2.1367 -0.9516
  496MOL0     H68398   4.306   1.228   6.238 -1.5476  2.6971 -2.1136
  496MOL0     H68399   4.166   1.300   6.310 -0.6322 -0.8343  0.9793
  496MOL0     H68400   4.263   1.036   6.392 -0.9122 -0.6820  1.0214
  496MOL0     H68401   4.294   1.137   6.519  0.4768  1.4081  0.1024
  496MOL0     H68402   4.061   1.035   6.533 -1.1970  0.2703 -1.7647
  496MOL0     H68403   4.045   1.216   6.512  0.0582  1.3817  0.4312
  496MOL0     H68404   3.990   1.188   6.284 -1.9877 -0.2489  0.3485
  496MOL0     H68405   4.055   1.021   6.275  1.5245  0.6895 -0.1743
  496MOL0     H68406   3.903   1.054   6.105 -1.3545  1.2506  0.1346
  496MOL0     H68407   3.770   0.944   5.842  0.8539  0.8811 -1.4146
  496MOL0     H68408   3.846   1.088   5.897  0.9874 -2.2340 -0.0167
  496MOL0     H68409   3.665   1.079   5.854 -1.2984 -0.2815  0.3543
  496MOL0     H68410   3.259   0.997   5.845 -3.5837  3.5926 -0.3786
  496MOL0     H68411   3.034   0.958   5.741  0.8752 -0.4235 -0.0104
  496MOL0     H68412   2.758   0.740   6.009  1.9689 -2.7147  1.1130
  496MOL0     H68413   2.654   0.762   5.876  0.1101 -0.8141 -0.8006
  496MOL0     H68414   2.790   0.591   5.751 -2.4353  0.1001 -0.3880
  496MOL0     H68415   2.862   0.536   5.897  2.2021  1.0243 -0.2997
  496MOL0     H68416   2.620   0.502   5.990 -0.5026 -0.9554  0.2657
  496MOL0     H68417   2.695   0.383   5.886  1.6475  0.0716 -0.1697
  496MOL0     H68418   2.589   0.480   5.682 -2.1136 -4.2611 -0.4137
  496MOL0     H68419   2.492   0.572   5.800 -2.6846 -2.2481  1.7171
  496MOL0     H68420   2.521   0.266   5.809 -0.3290 -0.1224  1.1817
  496MOL0     H68421   2.409   0.381   5.895 -0.5457 -0.7973 -0.2656
  496MOL0     H68422   2.407   0.373   5.593 -1.4668 -3.8900 -2.1410
  496MOL0     H68423   2.287   0.437   5.703  0.0033  0.1857 -2.2955
  496MOL0     H68424   2.213   0.221   5.746 -0.4823 -0.5044 -1.9747
  496MOL0     H68425   2.367   0.148   5.709 -0.4052 -0.5298 -0.4657
  496MOL0     H68426   2.177   0.274   5.507 -1.2163 -2.4764 -3.0018
  496MOL0     H68427   2.201   0.105   5.558 -0.3508  0.7013  1.5746
  496MOL0     H68428   2.968   0.649   6.041  4.4220 -1.7921  1.3305
  496MOL0     H68429   3.167   0.678   6.126  4.6767  1.8733  0.4931
  496MOL0     H68430   3.474   0.886   6.277  0.1049 -0.5813 -0.6827
  496MOL0     H68431   3.662   0.966   6.440  0.9593  1.2880  0.0167
  496MOL0     H68432   3.823   1.132   6.616 -1.3110 -0.6747 -1.0639
  496MOL0     H68433   3.573   1.085   6.657  0.8175  3.2626  1.9711
  496MOL0     H68434   3.338   0.731   6.936  0.4823 -0.5983 -1.0167
  496MOL0     H68435   3.116   0.583   6.964  0.1360 -1.5832 -1.0296
  496MOL0     H68436   2.827   0.556   6.627 -0.6392  2.1716  2.7649
  496MOL0     H68437   2.962   0.442   6.617  1.1684  0.6660  2.1583
  496MOL0     H68438   2.712   0.415   6.808  0.0489  2.4176 -2.4072
  496MOL0     H68439   2.854   0.317   6.813  2.1405 -0.7144 -2.2306
  496MOL0     H68440   2.826   0.243   6.592 -0.1492  1.8287  1.2103
  496MOL0     H68441   2.713   0.162   6.716 -3.3051  0.4243 -0.6123
  496MOL0     H68442   2.640   0.388   6.538  0.5007 -1.2546 -2.4240
  496MOL0     H68443   2.530   0.311   6.666 -2.6236 -0.7097 -1.7019
  496MOL0     H68444   2.504   0.008   6.374 -0.9967 -1.4299  1.2756
  496MOL0     H68445   3.006   0.693   6.572  2.3114 -0.7979 -1.3692
  496MOL0     H68446   3.110   0.876   6.465 -1.9247 -1.4561  3.2932
  496MOL0     H68447   3.271   0.943   6.523  2.5567 -2.7576  3.0686
  496MOL0     H68448   3.264   0.789   6.434 -0.7675  0.3817 -1.7202
  497MOL0     O68449   6.289  10.749  10.991  0.2177  0.1868  0.4219
  497MOL0     C68450   6.362  10.848  10.967  0.2594  0.3995  0.5884
  497MOL0     O68451   6.324  10.949  10.890 -0.7450  0.1105 -0.0386
  497MOL0     C68452   6.213  10.954  10.808  0.5879  0.0755 -0.8648
  497MOL0     C68453   6.135  11.068  10.827  0.2136  0.4461 -0.0339
  497MOL0     C68454   6.013  11.074  10.766  0.1305  0.0607 -0.1378
  497MOL0     C68455   5.971  10.979  10.671 -0.2180 -0.0033 -0.2391
  497MOL0     O68456   5.860  10.987  10.592 -0.4215  0.2634 -0.4715
  497MOL0     C68457   5.751  10.938  10.669 -0.3571  0.0017 -0.2217
  497MOL0     C68458   5.634  10.898  10.583  0.3012  1.0029 -0.2758
  497MOL0     C68459   5.572  11.021  10.516  0.0523 -0.2523  0.4052
  497MOL0     C68460   5.454  10.982  10.429  0.8842  0.6168  0.2554
  497MOL0     C68461   5.369  11.090  10.354 -0.2557  0.1848  0.6280
  497MOL0     C68462   5.346  11.215  10.438  0.2523 -0.0497 -0.2753
  497MOL0     C68463   5.271  11.327  10.352  0.4215  0.7947 -0.7760
  497MOL0     C68464   5.237  11.454  10.434  0.8094 -0.5449 -0.3007
  497MOL0     N68465   5.344  11.535  10.483  0.0811 -0.7238  0.3333
  497MOL0     C68466   5.409  11.624  10.402 -0.1494  0.3085  0.1284
  497MOL0     C68467   5.510  11.668  10.474  0.2546 -0.0588 -1.1446
  497MOL0     C68468   5.618  11.749  10.416 -0.4028 -0.0157 -0.2022
  497MOL0     C68469   5.745  11.663  10.407  0.4077  0.7186  0.1228
  497MOL0     C68470   5.866  11.729  10.348 -0.3453 -0.2128  0.2584
  497MOL0     C68471   5.979  11.739  10.455  0.3924 -0.4760  0.1833
  497MOL0     O68472   5.943  11.833  10.563 -0.2508 -0.1433 -0.2832
  497MOL0     C68473   6.035  11.852  10.661  0.9159  0.0474  0.0250
  497MOL0     C68474   6.009  11.951  10.757  0.4508  0.4573  0.4963
  497MOL0     C68475   6.094  11.981  10.870 -0.4553 -0.4359  0.5383
  497MOL0     C68476   6.052  12.087  10.966  0.4443  0.4596  0.0654
  497MOL0     C68477   6.228  11.920  10.865 -0.4706  0.6432 -0.1900
  497MOL0     C68478   6.345  11.955  10.954  0.0078  0.1876  0.0047
  497MOL0     O68479   6.457  11.884  10.937  0.4880  0.4281  0.4232
  497MOL0     C68480   6.567  11.917  11.021 -0.3762 -0.7647  0.1537
  497MOL0     C68481   6.696  11.953  10.973 -0.7759  0.5281  0.9259
  497MOL0     C68482   6.800  11.968  11.057  0.2049  0.3870 -0.3531
  497MOL0     C68483   6.788  11.945  11.192  0.1220 -0.4352 -0.2796
  497MOL0     O68484   6.901  11.966  11.268  0.3680 -0.1642 -0.3313
  497MOL0     C68485   6.974  12.090  11.257  0.3304 -0.2001  0.2379
  497MOL0     C68486   7.109  12.061  11.184 -0.7319 -0.4456 -0.6700
  497MOL0     C68487   7.161  12.201  11.151 -0.0577  0.6110 -1.0968
  497MOL0     C68488   7.314  12.227  11.127  0.2161  0.7078  0.1434
  497MOL0     C68489   7.345  12.364  11.170 -0.0868 -0.0066  0.0283
  497MOL0     C68490   7.481  12.434  11.109  0.1485  1.0239  0.3509
  497MOL0     C68491   7.604  12.364  11.182  0.6227  0.2867  0.6527
  497MOL0     C68492   7.732  12.422  11.131 -0.1109 -0.3430  0.0821
  497MOL0    Cl68493   7.858  12.301  11.090 -0.1828 -0.2766 -0.1469
  497MOL0     C68494   6.675  11.899  11.245  0.3595 -0.3482 -0.5444
  497MOL0     C68495   6.562  11.894  11.164 -0.0950  0.8303 -0.6635
  497MOL0     O68496   6.327  12.038  11.046 -0.1175  0.2329 -0.2844
  497MOL0     C68497   6.244  11.810  10.776 -0.2138 -0.4160  0.1798
  497MOL0     C68498   6.159  11.786  10.670  0.5914  0.0724 -0.6839
  497MOL0     N68499   5.508  11.590  10.597 -1.1387 -0.0746  0.6147
  497MOL0     N68500   5.407  11.514  10.596 -0.4684 -0.4834 -0.8182
  497MOL0     C68501   6.044  10.866  10.652  0.8399 -0.0875 -0.6266
  497MOL0     C68502   6.161  10.851  10.728  0.5175 -0.0392 -0.0387
  497MOL0     C68503   6.505  10.850  11.015  0.7593  0.7693 -0.0004
  497MOL0     C68504   6.606  10.898  10.936 -0.3541  0.2316  0.3300
  497MOL0     C68505   6.742  10.880  10.974 -0.2505 -0.0904 -0.5257
  497MOL0     C68506   6.775  10.806  11.086 -0.1287  0.1428  0.1405
  497MOL0     O68507   6.910  10.779  11.109 -0.7963  0.0469  1.0676
  497MOL0     C68508   6.948  10.708  11.223 -0.7577 -0.4519  0.1550
  497MOL0     C68509   6.924  10.558  11.217  0.8012 -0.0826  0.5962
  497MOL0     C68510   6.958  10.483  11.343  0.0468 -0.0763  0.4994
  497MOL0     C68511   7.105  10.498  11.388 -1.0483  0.1210  0.2734
  497MOL0     C68512   7.195  10.446  11.283 -0.3954  0.6771  0.6670
  497MOL0     C68513   7.277  10.404  11.200  0.3830  0.0625  0.1847
  497MOL0     C68514   6.674  10.774  11.175  0.1927  0.4500 -0.3423
  497MOL0     C68515   6.533  10.784  11.138 -1.2298 -0.3355 -0.1816
  497MOL0     C68516   6.438  10.730  11.241 -0.7012  0.1440  0.0210
  497MOL0     H68517   6.159  11.150  10.894  0.5307 -0.6584  1.2626
  497MOL0     H68518   5.957  11.166  10.776  0.9303  0.5276  0.2082
  497MOL0     H68519   5.722  11.023  10.731  0.2930 -0.1980  0.3669
  497MOL0     H68520   5.770  10.855  10.739  0.6574 -1.0256 -1.6763
  497MOL0     H68521   5.683  10.834  10.510 -0.6628  1.3305 -1.2491
  497MOL0     H68522   5.557  10.852  10.645  2.3743 -0.9885  0.9632
  497MOL0     H68523   5.533  11.087  10.594 -1.1883  1.2269 -1.3978
  497MOL0     H68524   5.645  11.085  10.466 -0.0468 -0.7906 -0.4551
  497MOL0     H68525   5.499  10.911  10.359  0.6619  0.7367 -0.0101
  497MOL0     H68526   5.388  10.924  10.495  0.3314  2.4041  1.3386
  497MOL0     H68527   5.269  11.050  10.338 -0.7162  0.6510  2.1509
  497MOL0     H68528   5.420  11.118  10.262 -0.7456  0.6404  0.4913
  497MOL0     H68529   5.272  11.191  10.515 -0.6552  2.2214 -0.3706
  497MOL0     H68530   5.438  11.262  10.474 -1.0164  2.2653  0.0779
  497MOL0     H68531   5.172  11.289  10.324  0.6294 -0.8095  0.5157
  497MOL0     H68532   5.330  11.349  10.263  1.2409  0.7963 -0.2440
  497MOL0     H68533   5.182  11.522  10.368  1.6660  0.5685  0.0991
  497MOL0     H68534   5.171  11.434  10.519  0.3877  2.0165  0.0644
  497MOL0     H68535   5.388  11.652  10.299  0.0978  1.5445  0.4087
  497MOL0     H68536   5.654  11.831  10.479  2.4632 -0.0160 -1.6496
  497MOL0     H68537   5.588  11.779  10.315  1.1417  2.5902  0.0139
  497MOL0     H68538   5.764  11.626  10.508  2.9993  1.0639 -0.1784
  497MOL0     H68539   5.718  11.577  10.344 -2.1853  1.5778 -0.0620
  497MOL0     H68540   5.907  11.671  10.265 -1.1079 -1.5183  0.7712
  497MOL0     H68541   5.840  11.832  10.322  0.1927  0.0686  0.8060
  497MOL0     H68542   5.988  11.638  10.498 -1.9057 -1.7678 -2.0574
  497MOL0     H68543   6.069  11.772  10.402  1.3837 -1.3979  1.2369
  497MOL0     H68544   5.908  11.991  10.748 -0.3440 -1.4344  0.5803
  497MOL0     H68545   5.956  12.126  10.929 -0.9325 -0.6359  2.2430
  497MOL0     H68546   6.133  12.159  10.975  0.4349  0.2221  3.7965
  497MOL0     H68547   6.034  12.041  11.064 -1.6103 -0.3382 -0.6275
  497MOL0     H68548   6.712  11.971  10.867 -1.5951  1.1173  0.8891
  497MOL0     H68549   6.891  12.008  11.012  0.7571  0.9908  1.2510
  497MOL0     H68550   6.909  12.165  11.210  2.2412  2.0050  0.8847
  497MOL0     H68551   6.983  12.127  11.360 -1.7209  2.7265 -0.4876
  497MOL0     H68552   7.186  12.008  11.242  0.3615  2.2852  0.5542
  497MOL0     H68553   7.089  12.009  11.090 -1.6115  1.7070 -1.7220
  497MOL0     H68554   7.137  12.267  11.235  0.2601  1.4706 -1.6722
  497MOL0     H68555   7.112  12.236  11.060  2.0689  0.8427 -2.2102
  497MOL0     H68556   7.343  12.201  11.025  0.6967  1.2326  0.1437
  497MOL0     H68557   7.365  12.157  11.194 -1.4083 -0.0752  0.6176
  497MOL0     H68558   7.267  12.435  11.143 -1.0928 -1.3382 -0.6658
  497MOL0     H68559   7.347  12.360  11.279  1.1943  2.3086  0.1634
  497MOL0     H68560   7.487  12.543  11.111 -1.2871  1.3162 -3.3480
  497MOL0     H68561   7.482  12.405  11.004 -0.9018 -1.3238  0.9295
  497MOL0     H68562   7.597  12.256  11.167 -0.0748  0.2678  1.1279
  497MOL0     H68563   7.596  12.370  11.291  0.4585  0.3156  0.6398
  497MOL0     H68564   7.774  12.492  11.204 -1.8108 -0.0828  0.8563
  497MOL0     H68565   7.715  12.488  11.045 -0.4150  0.6119  0.8583
  497MOL0     H68566   6.678  11.884  11.352 -2.3538  4.1809  0.4325
  497MOL0     H68567   6.467  11.868  11.208  0.2983 -1.2288 -0.9153
  497MOL0     H68568   6.324  11.737  10.782 -0.7427 -1.6982 -4.3259
  497MOL0     H68569   6.181  11.711  10.595 -1.6608 -0.6495 -0.6942
  497MOL0     H68570   6.005  10.797  10.578 -0.1329  1.4652 -1.5930
  497MOL0     H68571   6.212  10.755  10.717  0.3259 -0.2586  0.8529
  497MOL0     H68572   6.580  10.956  10.848  2.0268  0.9014  0.0038
  497MOL0     H68573   6.813  10.921  10.902 -1.2698  0.4165 -1.2543
  497MOL0     H68574   7.051  10.729  11.254 -0.7169 -0.7452  0.2198
  497MOL0     H68575   6.889  10.738  11.311  1.4890 -1.1663  2.0271
  497MOL0     H68576   6.990  10.513  11.143 -0.9368 -3.0843  0.6851
  497MOL0     H68577   6.820  10.530  11.195  1.0155 -0.0248 -0.5573
  497MOL0     H68578   6.897  10.513  11.428 -0.9260  0.0778 -0.2443
  497MOL0     H68579   6.938  10.377  11.323  1.3569  0.1093 -2.4152
  497MOL0     H68580   7.124  10.442  11.479  2.0878 -0.4503 -0.5981
  497MOL0     H68581   7.136  10.603  11.398 -0.9148 -0.0383  1.7582
  497MOL0     H68582   7.324  10.354  11.119  0.7873  0.4566  0.1717
  497MOL0     H68583   6.696  10.732  11.272  1.1666 -4.0083 -2.2386
  497MOL0     H68584   6.416  10.625  11.223 -2.3834 -0.0838  2.7550
  497MOL0     H68585   6.478  10.734  11.343  0.2972 -0.2700 -0.3436
  497MOL0     H68586   6.344  10.787  11.237 -0.9175 -0.2885 -1.2221
  498MOL0     O68587   3.482   5.223   3.263 -0.4110  0.0555  0.2441
  498MOL0     C68588   3.468   5.190   3.380  0.1253  0.2576  0.4599
  498MOL0     O68589   3.571   5.182   3.470 -0.8468 -0.7871  0.1851
  498MOL0     C68590   3.703   5.223   3.448  0.7782  0.1866  0.0957
  498MOL0     C68591   3.798   5.189   3.547 -0.0657  0.9019 -0.0790
  498MOL0     C68592   3.935   5.223   3.535 -0.3456  0.1034  0.0221
  498MOL0     C68593   3.991   5.300   3.440  0.1387  0.3971 -0.8754
  498MOL0     O68594   4.119   5.329   3.417  0.1566  0.0505 -0.2166
  498MOL0     C68595   4.215   5.355   3.522 -0.3900 -0.4047  0.2466
  498MOL0     C68596   4.357   5.380   3.466 -0.1286  0.4236  0.8834
  498MOL0     C68597   4.456   5.364   3.577 -0.3025 -0.6574 -1.4087
  498MOL0     C68598   4.606   5.389   3.535  0.6268  0.0023 -0.3874
  498MOL0     C68599   4.712   5.386   3.647  0.8526 -0.3403  0.6054
  498MOL0     C68600   4.849   5.411   3.592  0.5960  0.9271 -0.3778
  498MOL0     C68601   4.957   5.394   3.697 -0.1051  0.6443  0.5803
  498MOL0     C68602   4.986   5.506   3.796 -0.0411  0.0295 -0.1627
  498MOL0     N68603   5.086   5.472   3.896 -0.0486  0.3207  0.0097
  498MOL0     C68604   5.224   5.494   3.888  0.1646 -0.5993  0.6327
  498MOL0     C68605   5.258   5.474   4.021  0.5366 -0.6370  0.9466
  498MOL0     C68606   5.389   5.506   4.079  0.2132 -0.8992  0.6543
  498MOL0     C68607   5.421   5.659   4.052 -0.0452  0.6663  0.0044
  498MOL0     C68608   5.528   5.689   3.935 -0.2323  0.4603 -0.2083
  498MOL0     C68609   5.662   5.624   3.942 -0.5848  0.2355 -0.1314
  498MOL0     O68610   5.737   5.669   4.057 -0.4950  0.0550 -0.5691
  498MOL0     C68611   5.783   5.800   4.062 -0.5535  0.4418  0.5309
  498MOL0     C68612   5.837   5.837   4.181  0.3350 -0.0307 -0.5554
  498MOL0     C68613   5.893   5.963   4.204 -0.2583 -0.3030  0.1882
  498MOL0     C68614   5.976   5.996   4.324  0.0591 -0.4047 -1.3987
  498MOL0     C68615   5.888   6.056   4.094  0.8148  0.3061  0.3347
  498MOL0     C68616   5.965   6.188   4.097  0.5268  0.0363 -0.8725
  498MOL0     O68617   5.914   6.260   4.197 -0.4454  0.0515  0.0329
  498MOL0     C68618   5.960   6.391   4.186 -0.2031 -0.7673  0.4743
  498MOL0     C68619   5.892   6.489   4.105  0.2253  0.7921 -0.2450
  498MOL0     C68620   5.934   6.622   4.111  0.5415  0.0650 -0.1317
  498MOL0     C68621   6.054   6.655   4.186  0.1058  1.2781  0.7470
  498MOL0     O68622   6.097   6.779   4.175 -0.2646  0.3841 -0.4899
  498MOL0     C68623   6.223   6.807   4.121 -0.0582  0.2290  0.5017
  498MOL0     C68624   6.309   6.908   4.198  0.4665 -0.1092 -0.2437
  498MOL0     C68625   6.358   6.848   4.336  0.0512  0.5240  0.1474
  498MOL0     C68626   6.479   6.748   4.323  0.7549  0.3334 -0.0428
  498MOL0     C68627   6.522   6.698   4.459 -0.3107 -0.0897 -0.6875
  498MOL0     C68628   6.659   6.619   4.449 -0.6189 -0.6850 -0.0832
  498MOL0     C68629   6.695   6.572   4.593 -0.3286 -0.2291 -0.4376
  498MOL0     C68630   6.845   6.535   4.589 -0.0862  0.2535  0.0963
  498MOL0    Cl68631   6.906   6.472   4.754 -0.3061  0.1309  0.6117
  498MOL0     C68632   6.124   6.553   4.251 -0.4270  0.2368 -0.2466
  498MOL0     C68633   6.074   6.425   4.264  0.4984  0.0663 -1.0445
  498MOL0     O68634   6.058   6.214   4.023  0.1589  0.1054 -0.3836
  498MOL0     C68635   5.853   6.015   3.969  0.6274 -0.4710  0.6606
  498MOL0     C68636   5.799   5.893   3.952 -0.1495  0.6708  0.6254
  498MOL0     N68637   5.156   5.433   4.100  0.0122  0.4303  1.0088
  498MOL0     N68638   5.049   5.448   4.025 -0.0145 -0.2489 -1.3682
  498MOL0     C68639   3.895   5.335   3.338 -0.5337  0.6909 -0.2209
  498MOL0     C68640   3.759   5.303   3.343  0.2626  0.7112  0.0262
  498MOL0     C68641   3.331   5.162   3.423  0.0645  0.7240 -0.7012
  498MOL0     C68642   3.315   5.165   3.564  0.0675  0.0291  0.5284
  498MOL0     C68643   3.197   5.128   3.628  0.4054 -0.0790 -0.8209
  498MOL0     C68644   3.089   5.090   3.554  0.5187 -0.1291  0.3332
  498MOL0     O68645   2.969   5.049   3.606  0.5602  0.3749  0.8375
  498MOL0     C68646   2.984   4.951   3.714  0.1977 -1.0161  0.2681
  498MOL0     C68647   2.851   4.919   3.778 -0.2631  0.8850  0.0020
  498MOL0     C68648   2.789   4.807   3.687  0.4911 -0.7419 -0.1830
  498MOL0     C68649   2.660   4.747   3.747 -0.6006 -0.7046  0.3872
  498MOL0     C68650   2.546   4.843   3.750  0.1320 -0.4583  0.6869
  498MOL0     C68651   2.459   4.927   3.748  0.2601  1.1897  0.8049
  498MOL0     C68652   3.102   5.090   3.415  1.3156  0.7322 -0.4961
  498MOL0     C68653   3.217   5.122   3.344 -0.0115 -0.2435 -0.1450
  498MOL0     C68654   3.198   5.119   3.192 -0.2951 -0.6737 -0.2656
  498MOL0     H68655   3.771   5.124   3.629  0.0596 -0.3804 -1.0322
  498MOL0     H68656   3.996   5.183   3.615 -0.2183 -0.8387 -0.5190
  498MOL0     H68657   4.213   5.273   3.594  0.5762  1.8743  3.0875
  498MOL0     H68658   4.192   5.440   3.587  2.6658  1.1658 -0.5548
  498MOL0     H68659   4.373   5.305   3.388 -0.4723  1.2748 -0.0275
  498MOL0     H68660   4.365   5.483   3.430  3.1651 -0.3770 -1.1728
  498MOL0     H68661   4.421   5.427   3.659  2.9438  1.7297 -1.6735
  498MOL0     H68662   4.446   5.260   3.611  0.0168 -0.8946 -2.0394
  498MOL0     H68663   4.637   5.320   3.456 -1.0997 -0.1972 -0.9340
  498MOL0     H68664   4.607   5.490   3.491 -0.0180 -0.1745 -0.8234
  498MOL0     H68665   4.710   5.287   3.692  0.3301  0.4488  2.4076
  498MOL0     H68666   4.692   5.467   3.718  2.2239  0.5786 -0.0073
  498MOL0     H68667   4.869   5.327   3.524 -0.6070 -0.7949  1.2818
  498MOL0     H68668   4.876   5.506   3.545 -0.1434  1.2020 -0.2450
  498MOL0     H68669   5.050   5.389   3.638  0.4613  1.1029  1.4098
  498MOL0     H68670   4.950   5.297   3.748  0.2747 -0.2549 -1.0038
  498MOL0     H68671   5.025   5.588   3.735  0.9932 -1.6290 -1.8375
  498MOL0     H68672   4.897   5.536   3.851  1.2840  0.3051  1.9195
  498MOL0     H68673   5.279   5.514   3.796 -0.7793  1.7073  0.5154
  498MOL0     H68674   5.472   5.441   4.049  1.9884  0.9014  1.4158
  498MOL0     H68675   5.366   5.499   4.185  2.7739 -0.4291  1.3150
  498MOL0     H68676   5.326   5.712   4.037 -0.4622  0.9889  3.1633
  498MOL0     H68677   5.458   5.699   4.147 -1.6985  0.3454  0.8260
  498MOL0     H68678   5.471   5.656   3.847  0.4955  0.2453 -0.6103
  498MOL0     H68679   5.534   5.798   3.935 -2.2879  0.6225 -0.1397
  498MOL0     H68680   5.664   5.515   3.941  1.8542  0.2358  0.1691
  498MOL0     H68681   5.718   5.636   3.849  0.2423  2.4614  0.5806
  498MOL0     H68682   5.834   5.764   4.261  1.2769 -1.5735 -1.8697
  498MOL0     H68683   5.970   5.924   4.405  1.9010  1.7554  0.8071
  498MOL0     H68684   5.952   6.095   4.363 -0.2746 -1.0395  0.0641
  498MOL0     H68685   6.082   5.997   4.296  0.4618  1.0590  0.0099
  498MOL0     H68686   5.804   6.462   4.048 -0.2058 -0.5236  0.9935
  498MOL0     H68687   5.875   6.705   4.073  0.0564  0.1964  0.9008
  498MOL0     H68688   6.275   6.716   4.089 -1.1003 -0.7915  1.6451
  498MOL0     H68689   6.199   6.852   4.024  0.3281 -2.9989 -1.2547
  498MOL0     H68690   6.401   6.925   4.140  2.0003 -3.5842  0.8838
  498MOL0     H68691   6.259   7.003   4.214  1.6123  0.4375  0.2111
  498MOL0     H68692   6.281   6.803   4.399 -1.1471  2.4684  0.1248
  498MOL0     H68693   6.395   6.927   4.402 -0.7437  1.3389 -0.3632
  498MOL0     H68694   6.564   6.794   4.271  0.5461  0.4833 -0.2554
  498MOL0     H68695   6.447   6.662   4.264  0.4475  0.7337 -0.4678
  498MOL0     H68696   6.524   6.777   4.535  1.5976 -0.1432 -0.6273
  498MOL0     H68697   6.455   6.628   4.510 -0.0352 -1.8377 -2.5926
  498MOL0     H68698   6.734   6.685   4.405 -1.5694  0.1074 -0.5811
  498MOL0     H68699   6.645   6.525   4.395 -0.6306 -1.1285  0.6821
  498MOL0     H68700   6.634   6.485   4.622 -2.8152  1.1630 -1.1690
  498MOL0     H68701   6.669   6.656   4.658 -1.4758 -0.8297 -0.0885
  498MOL0     H68702   6.901   6.627   4.570 -0.7783  0.7281  0.3374
  498MOL0     H68703   6.858   6.461   4.509 -0.6196 -1.2822  1.3707
  498MOL0     H68704   6.222   6.575   4.293 -1.0625  1.6273  0.5574
  498MOL0     H68705   6.117   6.344   4.322  1.5950  0.0221 -1.8914
  498MOL0     H68706   5.863   6.074   3.879  1.4343 -4.7737 -2.3593
  498MOL0     H68707   5.765   5.868   3.852  2.1522 -0.9203  0.1508
  498MOL0     H68708   3.940   5.394   3.259 -1.0399  0.2014 -0.8902
  498MOL0     H68709   3.696   5.344   3.265 -0.4440  1.6729  1.0636
  498MOL0     H68710   3.397   5.204   3.623 -0.4713 -1.9738  2.7271
  498MOL0     H68711   3.189   5.146   3.734  1.8261  3.3457 -1.1619
  498MOL0     H68712   3.025   4.852   3.692 -1.9158 -2.2248  1.3614
  498MOL0     H68713   3.048   4.995   3.791  0.3453 -2.2594  0.8839
  498MOL0     H68714   2.787   5.007   3.785 -2.9678 -1.0225  0.8994
  498MOL0     H68715   2.863   4.878   3.879 -2.8216  1.4253  0.5849
  498MOL0     H68716   2.766   4.853   3.591 -1.5171  0.6176  0.8603
  498MOL0     H68717   2.861   4.727   3.670  4.5584  3.0099 -2.6232
  498MOL0     H68718   2.678   4.701   3.845 -2.6158  0.1705  1.2280
  498MOL0     H68719   2.628   4.662   3.686  0.9444  1.6521 -4.1881
  498MOL0     H68720   2.383   5.002   3.748 -0.2666  0.6761  1.9262
  498MOL0     H68721   3.013   5.054   3.363  1.7991 -0.6050 -0.4345
  498MOL0     H68722   3.298   5.111   3.149  1.8545  0.8845  3.9051
  498MOL0     H68723   3.135   5.036   3.159 -1.8511 -0.6642  2.3423
  498MOL0     H68724   3.150   5.214   3.168 -1.3845 -0.4921  2.3219
  499MOL0     O68725   2.024   5.288   6.650  0.2999  0.2504  0.3400
  499MOL0     C68726   2.064   5.401   6.608  0.5329 -0.2860 -0.5199
  499MOL0     O68727   1.997   5.492   6.526  0.4932  0.6490 -0.7767
  499MOL0     C68728   1.863   5.479   6.530 -0.5669  0.5233 -0.3348
  499MOL0     C68729   1.786   5.406   6.443  0.2314 -0.0524  0.1295
  499MOL0     C68730   1.651   5.413   6.428  0.2716  0.0691  0.0000
  499MOL0     C68731   1.572   5.476   6.528 -0.0354  0.6223  0.3499
  499MOL0     O68732   1.433   5.482   6.516 -0.0190  0.1762 -0.3994
  499MOL0     C68733   1.362   5.452   6.639  0.0853  0.3795  0.6920
  499MOL0     C68734   1.211   5.454   6.620  0.1090 -0.3133  1.0182
  499MOL0     C68735   1.128   5.421   6.749  0.3010 -0.1653  0.6344
  499MOL0     C68736   0.986   5.382   6.698 -0.1282 -0.1361 -0.7969
  499MOL0     C68737   0.894   5.347   6.813  0.4910  0.3594  0.3117
  499MOL0     C68738   0.844   5.457   6.909 -0.5862 -0.0501 -0.9881
  499MOL0     C68739   0.748   5.543   6.832 -0.4846  0.4370 -0.2969
  499MOL0     C68740   0.747   5.692   6.885 -0.0686  0.0128  0.6000
  499MOL0     N68741   0.877   5.756   6.856  0.2870 -1.1545 -0.0016
  499MOL0     C68742   0.883   5.816   6.732  0.1819  0.8661 -0.4705
  499MOL0     C68743   0.993   5.892   6.733 -1.0287 -0.6911 -0.2295
  499MOL0     C68744   1.065   5.964   6.617 -0.3249 -0.4614  0.5299
  499MOL0     C68745   1.173   5.865   6.549  0.7229  0.3113 -0.2169
  499MOL0     C68746   1.255   5.934   6.433  0.8800  0.5414 -0.3793
  499MOL0     C68747   1.381   5.852   6.411  0.0604 -0.6737  0.1980
  499MOL0     O68748   1.449   5.920   6.303 -0.4369  0.3566 -0.4818
  499MOL0     C68749   1.565   5.858   6.255 -0.2239  0.3498  0.2841
  499MOL0     C68750   1.641   5.927   6.154  0.3448  0.4583  0.2119
  499MOL0     C68751   1.762   5.884   6.106 -0.1154  0.0137  0.9720
  499MOL0     C68752   1.818   5.953   5.979  0.0557 -0.3064  0.4979
  499MOL0     C68753   1.816   5.768   6.166 -0.1019 -0.9584 -0.4866
  499MOL0     C68754   1.962   5.730   6.158 -0.0043 -1.4985 -0.0251
  499MOL0     O68755   1.983   5.602   6.184  0.3101 -0.0971  0.4443
  499MOL0     C68756   2.100   5.560   6.236  1.1182  0.3525  0.6360
  499MOL0     C68757   2.142   5.434   6.206  0.7336 -0.1849  0.4066
  499MOL0     C68758   2.272   5.398   6.239  1.5664 -0.1081  0.3509
  499MOL0     C68759   2.357   5.490   6.299  0.3295  0.4526 -0.0461
  499MOL0     O68760   2.488   5.465   6.335  0.0717 -0.7251  0.1888
  499MOL0     C68761   2.555   5.346   6.276 -0.4869  0.0217 -0.3538
  499MOL0     C68762   2.690   5.313   6.331  0.1214 -0.5670  0.5197
  499MOL0     C68763   2.763   5.208   6.255  1.0426  0.0113  0.3521
  499MOL0     C68764   2.709   5.069   6.266 -0.2475  0.3377 -0.1016
  499MOL0     C68765   2.808   4.978   6.188  0.1954  0.1240 -0.2936
  499MOL0     C68766   2.771   4.835   6.187  0.3670 -0.0644 -0.4687
  499MOL0     C68767   2.705   4.788   6.057 -0.7584 -0.1812 -0.3318
  499MOL0     C68768   2.807   4.747   5.945 -0.1652  0.2707  0.4233
  499MOL0    Cl68769   2.909   4.876   5.873 -0.1805  0.3132 -0.2311
  499MOL0     C68770   2.318   5.613   6.328 -0.1060  0.5306  0.3316
  499MOL0     C68771   2.187   5.653   6.308 -0.0961  0.0604  0.0011
  499MOL0     O68772   2.046   5.814   6.126  0.3362 -0.1098 -0.0163
  499MOL0     C68773   1.734   5.698   6.259 -0.3553 -0.4100 -0.1988
  499MOL0     C68774   1.613   5.739   6.308 -0.4416  0.4795  1.1595
  499MOL0     N68775   1.037   5.892   6.864 -0.3007  0.8051  0.5930
  499MOL0     N68776   0.972   5.803   6.940 -0.6902  0.4417  0.1612
  499MOL0     C68777   1.639   5.548   6.632 -0.2251 -0.2298  0.0428
  499MOL0     C68778   1.786   5.546   6.632 -0.5429  0.1281  0.4877
  499MOL0     C68779   2.196   5.454   6.659 -0.4845 -0.1718  0.4975
  499MOL0     C68780   2.210   5.590   6.686  0.8569  0.3220  0.3448
  499MOL0     C68781   2.338   5.643   6.713 -0.0323  0.2603  0.3180
  499MOL0     C68782   2.449   5.568   6.721  0.6088  0.0341 -0.4817
  499MOL0     O68783   2.561   5.640   6.758 -0.4666 -0.1721  0.1208
  499MOL0     C68784   2.686   5.566   6.771 -0.4150  0.1879 -0.4986
  499MOL0     C68785   2.806   5.659   6.773  0.7028 -0.3501 -0.3312
  499MOL0     C68786   2.924   5.565   6.780  1.2330 -0.3474  1.4214
  499MOL0     C68787   3.058   5.640   6.793  0.3619 -0.0957  0.1708
  499MOL0     C68788   3.163   5.539   6.777  0.1495  0.5271 -0.4708
  499MOL0     C68789   3.250   5.461   6.768 -0.2944 -0.0169 -0.5539
  499MOL0     C68790   2.431   5.432   6.693 -0.7456  0.9572 -0.0971
  499MOL0     C68791   2.309   5.368   6.672 -1.0634 -0.7852  0.1943
  499MOL0     C68792   2.303   5.217   6.642  0.1706  0.7861  0.0158
  499MOL0     H68793   1.834   5.345   6.366 -0.3985  0.8960 -1.0572
  499MOL0     H68794   1.600   5.369   6.343  1.9588 -3.6616  0.6812
  499MOL0     H68795   1.379   5.541   6.700 -1.8355 -0.4052  2.5024
  499MOL0     H68796   1.393   5.357   6.684 -0.3508 -1.0191 -1.7953
  499MOL0     H68797   1.182   5.549   6.573  0.6516 -0.1246  1.0686
  499MOL0     H68798   1.197   5.372   6.548 -0.1663 -0.1725  0.9068
  499MOL0     H68799   1.180   5.353   6.817 -0.9375  0.7328  2.5675
  499MOL0     H68800   1.116   5.515   6.804  3.6250  0.2475  0.8191
  499MOL0     H68801   0.951   5.471   6.645 -0.0596  3.0691  3.9429
  499MOL0     H68802   0.994   5.300   6.625 -1.1386 -0.1694 -0.8832
  499MOL0     H68803   0.944   5.267   6.869  1.5143  1.1224  0.5232
  499MOL0     H68804   0.803   5.306   6.769  0.2953 -1.3444  2.1209
  499MOL0     H68805   0.785   5.422   6.994  0.1832 -0.0249 -0.4270
  499MOL0     H68806   0.927   5.518   6.946 -1.0350  0.2798 -0.5016
  499MOL0     H68807   0.645   5.513   6.848 -0.3933  0.5433  0.5799
  499MOL0     H68808   0.766   5.538   6.725  0.5890 -2.0863 -0.0582
  499MOL0     H68809   0.663   5.750   6.845  1.1970  2.0648  0.7942
  499MOL0     H68810   0.725   5.687   6.992  0.4594  0.2191  0.7209
  499MOL0     H68811   0.816   5.794   6.650  1.5151 -0.1650 -1.3275
  499MOL0     H68812   1.112   6.056   6.652 -0.4240  0.1710 -0.9410
  499MOL0     H68813   0.981   5.990   6.551 -1.8005 -0.5529  2.2773
  499MOL0     H68814   1.242   5.827   6.625 -1.1907  0.2363  1.5657
  499MOL0     H68815   1.115   5.779   6.516 -0.3348 -0.8051  3.9559
  499MOL0     H68816   1.193   5.939   6.343  1.7716  0.8838 -0.9949
  499MOL0     H68817   1.277   6.037   6.464 -1.2595  0.3520  2.0606
  499MOL0     H68818   1.439   5.857   6.503  0.0637  0.6303  0.1469
  499MOL0     H68819   1.354   5.747   6.395 -0.5431 -0.4589 -0.2227
  499MOL0     H68820   1.611   6.027   6.123 -2.0509  0.0257  0.9128
  499MOL0     H68821   1.742   5.975   5.903 -0.8042  0.1701  1.4619
  499MOL0     H68822   1.891   5.888   5.929  0.2272  0.9132 -0.9014
  499MOL0     H68823   1.873   6.043   6.008 -0.7776  0.1832  0.5948
  499MOL0     H68824   2.078   5.373   6.144  1.0609  0.6807 -0.8142
  499MOL0     H68825   2.309   5.299   6.214 -0.1373 -0.2615 -1.8454
  499MOL0     H68826   2.493   5.258   6.292 -1.2732  0.6773  0.3172
  499MOL0     H68827   2.567   5.364   6.169 -1.2181 -2.5497 -0.9385
  499MOL0     H68828   2.747   5.406   6.333 -1.6022  0.5231  1.8024
  499MOL0     H68829   2.691   5.280   6.435  2.5393 -1.1256  0.3699
  499MOL0     H68830   2.866   5.226   6.285  1.0462  1.5383 -0.4817
  499MOL0     H68831   2.766   5.231   6.148  0.8246 -0.4659  0.2409
  499MOL0     H68832   2.611   5.075   6.217 -0.4612  0.1889  0.3053
  499MOL0     H68833   2.705   5.049   6.373 -0.3968  0.9631  0.0114
  499MOL0     H68834   2.819   5.026   6.091  0.0780 -0.3968 -0.5667
  499MOL0     H68835   2.907   4.974   6.234  1.2602  1.3165 -2.3477
  499MOL0     H68836   2.701   4.818   6.269  0.7166 -1.7220 -0.4790
  499MOL0     H68837   2.854   4.768   6.212  0.2932  0.1138  0.2759
  499MOL0     H68838   2.645   4.872   6.023 -1.1184 -0.5918 -0.7299
  499MOL0     H68839   2.636   4.709   6.086 -1.4245  0.7855  0.7812
  499MOL0     H68840   2.750   4.699   5.864  1.5907 -1.0746 -0.0640
  499MOL0     H68841   2.870   4.668   5.986 -1.3768 -0.3483  1.1448
  499MOL0     H68842   2.390   5.686   6.364  0.1840  1.3024 -1.7099
  499MOL0     H68843   2.162   5.756   6.330  3.4669  0.5326  2.8120
  499MOL0     H68844   1.773   5.616   6.319 -0.8425 -0.6965 -0.2729
  499MOL0     H68845   1.564   5.682   6.386  0.0366 -0.2442  0.9456
  499MOL0     H68846   1.586   5.605   6.708 -0.6742  0.6240 -0.8907
  499MOL0     H68847   1.850   5.603   6.699  0.0608  0.9318 -0.7497
  499MOL0     H68848   2.128   5.660   6.677  0.8385  0.1359 -1.2029
  499MOL0     H68849   2.343   5.750   6.729 -1.6354  0.1573  1.7408
  499MOL0     H68850   2.684   5.503   6.860 -0.1583  2.1621  0.9690
  499MOL0     H68851   2.691   5.497   6.686  2.3794  0.7129 -0.8495
  499MOL0     H68852   2.795   5.724   6.860 -1.0479 -0.5947 -0.3389
  499MOL0     H68853   2.802   5.711   6.677  4.3944  1.7718  0.4686
  499MOL0     H68854   2.912   5.493   6.861 -1.0675  0.6670  2.0358
  499MOL0     H68855   2.916   5.512   6.684 -2.3421 -0.4470  1.6689
  499MOL0     H68856   3.062   5.686   6.892  0.7818 -1.6130  0.8844
  499MOL0     H68857   3.075   5.715   6.715 -0.9411  2.0348  1.8113
  499MOL0     H68858   3.337   5.407   6.736 -0.1476 -0.0843 -0.0470
  499MOL0     H68859   2.513   5.363   6.713  0.8863  3.4158  2.6081
  499MOL0     H68860   2.260   5.170   6.731  0.9287  0.7277  0.3574
  499MOL0     H68861   2.252   5.193   6.549 -1.1228  1.4496  0.5305
  499MOL0     H68862   2.405   5.182   6.625  0.3803  1.7981 -0.9866
  500MOL0     O68863   2.288   3.316   3.635 -0.0599 -0.0131  0.2848
  500MOL0     C68864   2.198   3.393   3.684 -0.4588  0.0903  0.7201
  500MOL0     O68865   2.220   3.484   3.789  0.0897 -0.8942 -0.8367
  500MOL0     C68866   2.343   3.534   3.825 -0.5502 -0.4091 -0.3810
  500MOL0     C68867   2.365   3.562   3.963  0.4030 -1.2559 -0.3048
  500MOL0     C68868   2.492   3.608   4.012 -0.1130 -0.2524  1.1681
  500MOL0     C68869   2.597   3.653   3.918 -0.9146 -0.0383 -0.2587
  500MOL0     O68870   2.723   3.691   3.961  0.8141  0.0209  0.9082
  500MOL0     C68871   2.771   3.809   3.901 -0.6696 -0.1397 -0.8328
  500MOL0     C68872   2.906   3.833   3.963 -0.9006 -0.1979 -0.4688
  500MOL0     C68873   2.996   3.939   3.889 -0.0039 -0.0342  0.2924
  500MOL0     C68874   3.019   3.907   3.740  0.2946 -0.9369  0.2939
  500MOL0     C68875   3.108   4.007   3.679 -0.4488 -0.4849  0.4898
  500MOL0     C68876   3.250   4.004   3.711  0.0970  0.1216 -0.3295
  500MOL0     C68877   3.346   4.082   3.614 -0.5767  0.6687  0.2559
  500MOL0     C68878   3.291   4.212   3.563  0.0245  0.9860 -0.1637
  500MOL0     N68879   3.395   4.271   3.478  0.6131  0.0012 -0.3108
  500MOL0     C68880   3.418   4.221   3.348  0.1865 -0.6476 -0.4280
  500MOL0     C68881   3.523   4.298   3.307  0.5259  0.4720 -0.1964
  500MOL0     C68882   3.583   4.307   3.170  0.1447 -0.3203  0.2567
  500MOL0     C68883   3.734   4.361   3.165 -0.1082 -0.6795 -0.1788
  500MOL0     C68884   3.733   4.501   3.124 -0.5783 -0.1072  0.1443
  500MOL0     C68885   3.878   4.567   3.153  0.5676  0.8286 -0.2354
  500MOL0     O68886   3.948   4.590   3.034 -0.5716  0.1226 -0.0962
  500MOL0     C68887   4.080   4.628   3.051 -0.0939 -0.2010 -0.7562
  500MOL0     C68888   4.173   4.627   2.951 -0.0531  0.1323 -0.6227
  500MOL0     C68889   4.300   4.688   2.956 -0.8086 -0.4639  0.5066
  500MOL0     C68890   4.387   4.684   2.838 -1.1480  0.3735 -0.4127
  500MOL0     C68891   4.341   4.761   3.072  1.1270  0.4692  1.0829
  500MOL0     C68892   4.474   4.830   3.077 -0.2331  0.0197  0.0021
  500MOL0     O68893   4.508   4.847   3.209  0.4739  0.7001 -0.6079
  500MOL0     C68894   4.626   4.905   3.232  0.0682  0.9296 -0.3252
  500MOL0     C68895   4.629   5.049   3.237 -0.0144 -0.3604 -0.3847
  500MOL0     C68896   4.752   5.115   3.217 -0.4135 -0.9916 -0.7119
  500MOL0     C68897   4.871   5.047   3.223  0.8599 -1.2545  0.2553
  500MOL0     O68898   4.975   5.131   3.209  0.0985  0.0316  0.0374
  500MOL0     C68899   5.094   5.100   3.290  0.8146 -0.3022 -0.6675
  500MOL0     C68900   5.207   5.174   3.244 -0.5202  0.1189  0.3189
  500MOL0     C68901   5.321   5.177   3.346  0.1398  0.9814  0.3798
  500MOL0     C68902   5.373   5.325   3.363  0.2762 -0.0206 -0.6125
  500MOL0     C68903   5.421   5.401   3.241  0.0422 -0.7699  0.9419
  500MOL0     C68904   5.519   5.326   3.145  0.1084 -0.0278  0.4606
  500MOL0     C68905   5.658   5.297   3.204  0.0809  0.5961  0.0978
  500MOL0     C68906   5.762   5.273   3.097  0.8399 -0.2682  0.1182
  500MOL0    Cl68907   5.917   5.221   3.172  0.0636 -0.0690 -0.0339
  500MOL0     C68908   4.873   4.910   3.237  0.1230  0.6116 -0.1629
  500MOL0     C68909   4.748   4.837   3.244  0.1933  0.5203  0.2661
  500MOL0     O68910   4.550   4.863   2.985  0.2810 -0.1223 -0.1125
  500MOL0     C68911   4.252   4.748   3.185 -0.2279  0.2632 -0.2718
  500MOL0     C68912   4.127   4.688   3.177  0.9290 -0.3813 -0.6603
  500MOL0     N68913   3.567   4.379   3.409  0.7112  0.4729  0.1164
  500MOL0     N68914   3.498   4.358   3.516 -0.3625 -0.0899  0.3260
  500MOL0     C68915   2.578   3.613   3.784  0.0213  0.4473 -0.5584
  500MOL0     C68916   2.453   3.561   3.737 -0.1492  0.7561 -0.6714
  500MOL0     C68917   2.060   3.358   3.665  0.1303 -1.1652 -0.4006
  500MOL0     C68918   1.969   3.347   3.770 -0.1162  0.0406 -0.5584
  500MOL0     C68919   1.838   3.317   3.750  0.3433 -0.1876 -1.2745
  500MOL0     C68920   1.788   3.281   3.628 -0.6158 -0.4750 -0.0375
  500MOL0     O68921   1.659   3.253   3.618  0.2856  0.2339  0.0246
  500MOL0     C68922   1.606   3.201   3.497 -0.2043  0.0889 -0.4624
  500MOL0     C68923   1.449   3.197   3.504  0.5385  0.2520  0.0102
  500MOL0     C68924   1.404   3.087   3.592 -0.1932 -0.1419  0.1471
  500MOL0     C68925   1.250   3.110   3.608 -0.1232  0.2173  0.5224
  500MOL0     C68926   1.191   2.992   3.672  0.0783 -0.1019 -0.0354
  500MOL0     C68927   1.137   2.905   3.735  0.1717  0.2158  0.4967
  500MOL0     C68928   1.879   3.280   3.513 -0.4114  0.8980 -0.4077
  500MOL0     C68929   2.012   3.323   3.535 -0.3290 -0.0564 -0.0166
  500MOL0     C68930   2.089   3.332   3.410 -0.4326 -0.0789  0.0774
  500MOL0     H68931   2.292   3.546   4.042  1.0004  0.6123  0.6765
  500MOL0     H68932   2.520   3.617   4.117 -1.0997  2.6950  1.2725
  500MOL0     H68933   2.707   3.893   3.927 -0.5289 -0.2315 -0.1865
  500MOL0     H68934   2.788   3.790   3.794  1.8707  0.4460 -0.5966
  500MOL0     H68935   2.896   3.867   4.066  2.5580 -2.1600  0.6728
  500MOL0     H68936   2.955   3.736   3.965 -3.1079 -1.3773  1.2289
  500MOL0     H68937   2.955   4.039   3.902  0.3752 -0.0572  1.8690
  500MOL0     H68938   3.093   3.937   3.939  1.8599 -0.7664 -3.0401
  500MOL0     H68939   3.046   3.803   3.723 -1.4431 -1.4912  0.7393
  500MOL0     H68940   2.921   3.917   3.693  0.2270 -3.3330 -0.1588
  500MOL0     H68941   3.063   4.101   3.715  2.3847  2.7489 -3.4603
  500MOL0     H68942   3.084   3.998   3.573  0.1689  0.7151  0.2378
  500MOL0     H68943   3.256   4.054   3.809 -0.5309  1.0892 -0.7666
  500MOL0     H68944   3.293   3.905   3.726 -0.9586 -0.0097  2.3406
  500MOL0     H68945   3.375   4.014   3.534 -0.6738  1.1397 -0.1867
  500MOL0     H68946   3.437   4.095   3.674 -1.8561 -1.7197  2.9191
  500MOL0     H68947   3.194   4.201   3.514  0.8535 -2.2513 -1.3484
  500MOL0     H68948   3.282   4.273   3.653  1.1830  0.1976  0.5208
  500MOL0     H68949   3.370   4.139   3.297  3.9302 -2.4028 -1.5031
  500MOL0     H68950   3.523   4.369   3.104 -0.8007 -1.3373  0.1219
  500MOL0     H68951   3.594   4.209   3.123  0.6334 -0.0247 -0.2574
  500MOL0     H68952   3.780   4.348   3.263  0.6579  1.3370 -0.2325
  500MOL0     H68953   3.788   4.291   3.100  1.2494 -2.7740  2.9746
  500MOL0     H68954   3.703   4.511   3.019 -0.4587 -1.5396 -0.0444
  500MOL0     H68955   3.666   4.566   3.181  0.0998  2.8978 -2.2338
  500MOL0     H68956   3.861   4.664   3.200 -0.5852  0.6329 -0.2156
  500MOL0     H68957   3.933   4.505   3.224 -1.4370  1.4052  1.9580
  500MOL0     H68958   4.129   4.600   2.856 -0.7395  2.2281 -0.9427
  500MOL0     H68959   4.340   4.631   2.754 -0.2924  1.2989 -1.5069
  500MOL0     H68960   4.474   4.623   2.865 -2.3469 -1.4685 -0.5392
  500MOL0     H68961   4.406   4.786   2.805 -1.1416  0.1410 -1.1524
  500MOL0     H68962   4.546   5.114   3.215 -0.0057 -1.4991 -4.8512
  500MOL0     H68963   4.744   5.222   3.199 -0.0332 -0.4762  1.8354
  500MOL0     H68964   5.072   5.137   3.391  0.8405  0.1362 -0.8226
  500MOL0     H68965   5.117   4.993   3.300  0.5868 -0.1623  2.3249
  500MOL0     H68966   5.248   5.121   3.158 -0.3463  0.1371  0.3906
  500MOL0     H68967   5.184   5.273   3.203  3.3187  0.0986 -2.4625
  500MOL0     H68968   5.403   5.108   3.322  0.2930  0.7670  1.4483
  500MOL0     H68969   5.288   5.147   3.446 -1.2413 -0.4795 -0.4836
  500MOL0     H68970   5.458   5.317   3.431 -0.8147 -1.3606  0.6485
  500MOL0     H68971   5.303   5.388   3.417  1.5796  0.1092  0.9782
  500MOL0     H68972   5.336   5.417   3.174  1.3270 -1.0182 -0.8105
  500MOL0     H68973   5.454   5.501   3.267 -0.4752  0.0670 -1.3651
  500MOL0     H68974   5.525   5.383   3.052 -2.1306  0.8612  0.7924
  500MOL0     H68975   5.461   5.237   3.120 -0.4175  0.6242 -0.6860
  500MOL0     H68976   5.648   5.201   3.256  2.1543 -0.0357 -0.5916
  500MOL0     H68977   5.685   5.367   3.284 -1.4936 -1.3272  2.4798
  500MOL0     H68978   5.777   5.365   3.040 -3.0421  1.0919  0.9918
  500MOL0     H68979   5.724   5.204   3.021 -1.5820  2.5663 -1.4753
  500MOL0     H68980   4.965   4.854   3.251 -0.9487 -1.4169 -0.8642
  500MOL0     H68981   4.753   4.729   3.256 -0.9513  0.8063  5.6814
  500MOL0     H68982   4.289   4.780   3.282 -0.7519 -1.8407  0.6670
  500MOL0     H68983   4.065   4.684   3.266  0.1098  0.2243 -1.1825
  500MOL0     H68984   2.656   3.617   3.709  0.3069 -0.5420 -0.3324
  500MOL0     H68985   2.456   3.529   3.633 -0.9128  0.3860 -0.5823
  500MOL0     H68986   2.002   3.373   3.870  2.7032 -1.6505 -0.9337
  500MOL0     H68987   1.785   3.321   3.845  1.5247  0.5127 -0.6169
  500MOL0     H68988   1.629   3.266   3.412  0.7743 -2.7223 -2.5094
  500MOL0     H68989   1.651   3.103   3.479  2.8329  1.0953  1.0540
  500MOL0     H68990   1.416   3.169   3.404  1.5904 -0.7500 -0.0751
  500MOL0     H68991   1.410   3.298   3.523  1.5646  0.9056 -1.2297
  500MOL0     H68992   1.433   2.995   3.541  1.8162  0.7708 -0.4679
  500MOL0     H68993   1.453   3.094   3.690  0.6141  2.0251 -0.3552
  500MOL0     H68994   1.201   3.126   3.512 -1.5958  2.4729  1.5671
  500MOL0     H68995   1.235   3.198   3.672  2.5028  1.1067  0.0574
  500MOL0     H68996   1.083   2.833   3.793  3.0680 -1.1654  1.6757
  500MOL0     H68997   1.842   3.265   3.412  1.9227 -1.1804 -1.0461
  500MOL0     H68998   2.164   3.410   3.428 -0.1402 -0.5106  0.8003
  500MOL0     H68999   2.146   3.240   3.395 -0.4875 -0.0230 -0.4750
  500MOL0     H69000   2.038   3.354   3.316  1.0701 -1.7777 -1.2110
  501MOL0     O69001   3.612  11.014   7.841  0.6281 -0.3829  0.1409
  501MOL0     C69002   3.571  10.934   7.756  0.0027  0.4080  0.7285
  501MOL0     O69003   3.643  10.897   7.639 -0.1511 -0.0073 -0.5627
  501MOL0     C69004   3.778  10.935   7.621 -0.5641 -0.6514  1.5378
  501MOL0     C69005   3.814  11.066   7.581  0.5118  0.1049 -0.1444
  501MOL0     C69006   3.955  11.095   7.565  0.5004  0.0655 -0.3486
  501MOL0     C69007   4.055  10.999   7.556  0.0478  0.5864 -0.1699
  501MOL0     O69008   4.184  11.006   7.514  0.5956  0.3112  0.7099
  501MOL0     C69009   4.226  11.119   7.442  0.6067 -0.6038  0.1939
  501MOL0     C69010   4.359  11.072   7.374 -0.5599 -0.7633  0.0378
  501MOL0     C69011   4.469  11.050   7.479  0.9171  0.0799 -0.5417
  501MOL0     C69012   4.597  11.018   7.412  0.3333  0.0184  0.4430
  501MOL0     C69013   4.708  10.999   7.523  0.5873 -1.3879 -0.2973
  501MOL0     C69014   4.840  10.942   7.461 -0.0022 -1.4064 -0.1424
  501MOL0     C69015   4.953  10.915   7.562 -0.8065  0.4298 -0.3774
  501MOL0     C69016   5.079  10.861   7.496  0.3802  0.6797 -0.6908
  501MOL0     N69017   5.181  10.828   7.601 -0.1056 -0.0092  0.4085
  501MOL0     C69018   5.175  10.767   7.720  0.7689  0.1599  0.2603
  501MOL0     C69019   5.297  10.770   7.773  0.1944  0.0414 -0.0856
  501MOL0     C69020   5.329  10.723   7.910  0.5785 -0.1735 -0.4627
  501MOL0     C69021   5.448  10.632   7.898  0.0134  0.2283 -0.2437
  501MOL0     C69022   5.576  10.715   7.932  1.7346  0.6896  0.0824
  501MOL0     C69023   5.711  10.641   7.904  0.5134 -0.7959 -0.0321
  501MOL0     O69024   5.721  10.538   8.004  0.4459 -0.2915  0.2395
  501MOL0     C69025   5.836  10.472   8.021 -0.0682  0.2078  0.6245
  501MOL0     C69026   5.926  10.466   7.913  0.7297 -0.5353 -0.2157
  501MOL0     C69027   6.042  10.388   7.919 -0.5973  0.7619 -0.8186
  501MOL0     C69028   6.121  10.372   7.786 -0.4651 -0.6455  0.0429
  501MOL0     C69029   6.074  10.314   8.038 -0.0270  0.3026 -0.2194
  501MOL0     C69030   6.197  10.231   8.055 -0.9350 -0.9927  0.3450
  501MOL0     O69031   6.183  10.119   8.130  0.3819 -0.1608 -0.8044
  501MOL0     C69032   6.290  10.061   8.189  0.1297  0.8470  0.2154
  501MOL0     C69033   6.310   9.927   8.160  0.4119 -0.3002  0.5579
  501MOL0     C69034   6.424   9.866   8.211  0.4720  0.5787 -0.1535
  501MOL0     C69035   6.525   9.937   8.281 -0.1264  0.7772  0.5205
  501MOL0     O69036   6.639   9.869   8.313  0.0326  0.2179 -0.0666
  501MOL0     C69037   6.759   9.928   8.365 -0.0215 -0.2068 -0.6685
  501MOL0     C69038   6.862   9.943   8.253 -0.4481  0.1228 -0.0305
  501MOL0     C69039   6.923   9.815   8.202  1.1429 -0.2188  0.2780
  501MOL0     C69040   7.031   9.845   8.099  0.3747  0.2934  0.4665
  501MOL0     C69041   6.973   9.903   7.970 -0.3328  0.1131  0.5031
  501MOL0     C69042   7.078   9.897   7.862 -0.0134  1.3900  0.9617
  501MOL0     C69043   7.029   9.948   7.727 -0.2100 -0.4526 -0.1680
  501MOL0     C69044   7.130   9.979   7.626 -0.1990  0.2095  0.2107
  501MOL0    Cl69045   7.244   9.841   7.619 -0.2720 -0.3105  0.1381
  501MOL0     C69046   6.499  10.064   8.323 -0.3846 -0.1658  0.4330
  501MOL0     C69047   6.383  10.130   8.269  0.0001 -0.0148  0.1658
  501MOL0     O69048   6.304  10.277   8.007  0.0415 -0.3107 -0.7492
  501MOL0     C69049   5.986  10.328   8.149  0.7889 -0.1262 -0.2350
  501MOL0     C69050   5.867  10.400   8.140  0.4296  0.1696  0.3569
  501MOL0     N69051   5.384  10.839   7.686 -0.6082  0.2675  0.6807
  501MOL0     N69052   5.312  10.863   7.586  0.0688 -0.1097 -0.2571
  501MOL0     C69053   4.013  10.873   7.598 -0.3469 -0.0834 -0.2510
  501MOL0     C69054   3.883  10.841   7.628  0.1639 -0.2129 -0.3108
  501MOL0     C69055   3.422  10.904   7.765 -0.6606 -0.0289  0.1620
  501MOL0     C69056   3.346  10.997   7.836  0.8731 -0.5291 -0.8732
  501MOL0     C69057   3.213  10.979   7.866 -0.0524  0.0033  0.0297
  501MOL0     C69058   3.153  10.856   7.837  0.4736 -0.0962  0.5318
  501MOL0     O69059   3.018  10.852   7.880 -0.6956  0.2658 -0.5091
  501MOL0     C69060   2.943  10.747   7.823 -0.9715  0.1815 -0.6105
  501MOL0     C69061   2.795  10.762   7.870 -0.2098  1.3282 -0.3761
  501MOL0     C69062   2.709  10.664   7.801  0.3369 -0.3331  0.8335
  501MOL0     C69063   2.564  10.667   7.854 -0.2133 -0.2828  0.1258
  501MOL0     C69064   2.559  10.609   7.986  0.0804  0.1939  0.2836
  501MOL0     C69065   2.553  10.580   8.105  0.0925 -0.3040 -0.4299
  501MOL0     C69066   3.230  10.753   7.756  0.0596  0.3871 -0.5221
  501MOL0     C69067   3.367  10.782   7.718  0.7540  0.3001 -0.3989
  501MOL0     C69068   3.447  10.684   7.644  0.0592  0.2539  0.1007
  501MOL0     H69069   3.740  11.145   7.572 -0.8630 -1.1128  0.1955
  501MOL0     H69070   3.982  11.195   7.535  0.6827  0.2606  0.4492
  501MOL0     H69071   4.244  11.209   7.502  1.2398  0.2812 -1.2748
  501MOL0     H69072   4.150  11.143   7.368  0.8793 -1.1891 -0.2807
  501MOL0     H69073   4.353  10.990   7.303  0.6236  0.4402 -1.5345
  501MOL0     H69074   4.393  11.152   7.307  0.7054 -2.3032 -1.2308
  501MOL0     H69075   4.467  11.142   7.538 -4.3641  0.0509 -0.1988
  501MOL0     H69076   4.441  10.967   7.544  1.0352  0.9300  0.6240
  501MOL0     H69077   4.588  10.925   7.356 -2.8976 -0.0738  0.9239
  501MOL0     H69078   4.624  11.094   7.339 -0.7254  0.1141  0.1401
  501MOL0     H69079   4.675  10.924   7.596 -0.8318  1.1316  1.8128
  501MOL0     H69080   4.718  11.097   7.571  2.4541 -0.3448 -2.5836
  501MOL0     H69081   4.813  10.857   7.397 -2.3508  0.1710 -1.3906
  501MOL0     H69082   4.882  11.019   7.396 -0.5858  1.0196  2.1671
  501MOL0     H69083   4.919  10.840   7.634 -1.4099 -0.2661 -1.3524
  501MOL0     H69084   4.980  11.002   7.622  2.2880 -0.7988  0.1694
  501MOL0     H69085   5.057  10.773   7.435 -2.8112  0.8363  0.0815
  501MOL0     H69086   5.123  10.942   7.437  1.9445  0.6131  0.3209
  501MOL0     H69087   5.082  10.741   7.770 -0.4174  2.1081 -0.8095
  501MOL0     H69088   5.238  10.683   7.956 -0.0259 -0.9566 -2.2503
  501MOL0     H69089   5.356  10.805   7.976  1.0669 -0.4406 -0.3213
  501MOL0     H69090   5.439  10.559   7.979  0.4931  1.4236  0.9270
  501MOL0     H69091   5.458  10.586   7.799 -1.0142 -1.2635  0.3076
  501MOL0     H69092   5.574  10.806   7.872 -0.6965  0.8398  0.2958
  501MOL0     H69093   5.569  10.740   8.038  0.4898  1.6446 -0.2082
  501MOL0     H69094   5.710  10.610   7.800 -0.5645  1.0530 -0.6266
  501MOL0     H69095   5.795  10.709   7.917 -2.4558  3.5089 -1.0613
  501MOL0     H69096   5.906  10.524   7.824  1.6215 -2.1257 -1.5141
  501MOL0     H69097   6.166  10.274   7.770 -2.2605 -1.6653  0.9151
  501MOL0     H69098   6.202  10.445   7.795 -0.7030 -0.4569  0.7317
  501MOL0     H69099   6.058  10.405   7.703 -2.2562 -0.7462  1.2921
  501MOL0     H69100   6.230   9.872   8.112 -1.9270  2.2801  1.2319
  501MOL0     H69101   6.441   9.759   8.212  3.0126  0.9225  1.2283
  501MOL0     H69102   6.749  10.026   8.413  1.1162 -0.7965  0.8435
  501MOL0     H69103   6.802   9.862   8.441  0.2771 -0.0268 -0.6774
  501MOL0     H69104   6.816   9.993   8.167  2.2049 -0.7026 -2.0725
  501MOL0     H69105   6.944   9.999   8.298  0.0506 -3.1672  3.7287
  501MOL0     H69106   6.844   9.756   8.154  1.4086 -0.7888  0.5363
  501MOL0     H69107   6.975   9.770   8.287 -2.2501 -1.8549  1.6724
  501MOL0     H69108   7.068   9.745   8.079 -0.0739  0.0839  0.6609
  501MOL0     H69109   7.112   9.905   8.141  0.6954  1.1122 -1.2434
  501MOL0     H69110   6.883   9.853   7.932  0.3190 -0.1523 -0.7644
  501MOL0     H69111   6.947  10.008   7.986 -1.5818  0.1180 -1.2988
  501MOL0     H69112   7.102   9.792   7.841 -0.3539  1.3235  0.9082
  501MOL0     H69113   7.176   9.932   7.895  1.8475 -2.5482  0.2339
  501MOL0     H69114   6.963  10.033   7.745  0.6759  0.9175 -2.8476
  501MOL0     H69115   6.966   9.871   7.682 -1.6843  0.5886  0.0592
  501MOL0     H69116   7.185  10.068   7.660 -0.1743 -0.2852  1.5212
  501MOL0     H69117   7.094   9.991   7.524 -1.0065 -1.9524  0.2018
  501MOL0     H69118   6.563  10.131   8.379  0.6418  0.7094 -1.6658
  501MOL0     H69119   6.361  10.233   8.297 -3.1211 -0.5366 -0.0300
  501MOL0     H69120   6.013  10.287   8.246  1.5581 -1.2844 -0.9211
  501MOL0     H69121   5.807  10.411   8.229  0.8981 -0.7557  0.8061
  501MOL0     H69122   4.083  10.794   7.571 -0.2705  0.6792 -2.5671
  501MOL0     H69123   3.850  10.741   7.655 -1.2747  0.6220  1.1953
  501MOL0     H69124   3.382  11.096   7.862 -3.1328  1.2523 -1.3307
  501MOL0     H69125   3.153  11.058   7.910  1.0464  0.3972  0.8708
  501MOL0     H69126   2.959  10.753   7.715  3.2373 -1.8415 -0.2707
  501MOL0     H69127   2.978  10.646   7.845  1.5187  0.6223 -2.1223
  501MOL0     H69128   2.764  10.866   7.851  1.0520  1.9585  0.8115
  501MOL0     H69129   2.797  10.734   7.976  0.3045 -2.6760 -1.3099
  501MOL0     H69130   2.714  10.694   7.696 -1.9273 -1.8763  0.2103
  501MOL0     H69131   2.756  10.568   7.823  0.9305 -0.2126  0.1093
  501MOL0     H69132   2.507  10.598   7.790  2.5942 -1.3162 -1.4337
  501MOL0     H69133   2.522  10.767   7.855 -0.9872 -0.5896 -0.5362
  501MOL0     H69134   2.535  10.550   8.207 -0.3435  1.4475  0.0425
  501MOL0     H69135   3.170  10.665   7.735 -1.9538  0.7483  2.8816
  501MOL0     H69136   3.521  10.638   7.711  0.8389 -0.1274 -1.0023
  501MOL0     H69137   3.389  10.601   7.605  1.6100  0.0407 -1.9371
  501MOL0     H69138   3.495  10.721   7.553 -2.5416  1.6020 -0.8129
  502MOL0     O69139  10.361   6.932   9.433 -0.1279  0.8695 -0.0730
  502MOL0     C69140  10.259   6.917   9.372  0.4386 -0.4222 -1.1405
  502MOL0     O69141  10.205   6.792   9.336  0.4953  0.5704 -0.4655
  502MOL0     C69142  10.285   6.680   9.347  1.4921 -0.4834  0.2949
  502MOL0     C69143  10.233   6.556   9.395 -0.0140  0.3010 -0.1238
  502MOL0     C69144  10.304   6.441   9.400  0.6315  0.7187  0.1840
  502MOL0     C69145  10.440   6.443   9.348  0.7566 -0.8137 -0.0040
  502MOL0     O69146  10.527   6.342   9.340  0.7949  0.3927 -0.1830
  502MOL0     C69147  10.481   6.211   9.342 -0.0407  0.6632  0.4747
  502MOL0     C69148  10.461   6.164   9.489  0.6288 -0.4764  0.7825
  502MOL0     C69149  10.598   6.186   9.563  0.3736  1.7912 -0.5694
  502MOL0     C69150  10.596   6.099   9.693  0.6256  0.0443  1.3655
  502MOL0     C69151  10.733   6.075   9.738 -0.1358 -0.0243 -0.0244
  502MOL0     C69152  10.741   6.020   9.886 -1.4838  0.1589  0.5198
  502MOL0     C69153  10.664   5.884   9.893  0.0581 -0.0536 -0.1011
  502MOL0     C69154  10.653   5.827  10.038  0.2996 -0.2140  0.3286
  502MOL0     N69155  10.785   5.816  10.107 -0.2683 -0.6091  0.8443
  502MOL0     C69156  10.874   5.708  10.094 -0.0566  0.4814 -0.8155
  502MOL0     C69157  10.979   5.755  10.172 -0.0995  0.4387 -1.1671
  502MOL0     C69158  11.080   5.654  10.219  0.8732  0.5923 -0.0699
  502MOL0     C69159  11.213   5.715  10.258  0.3074  0.2897  0.4217
  502MOL0     C69160  11.284   5.754  10.134 -0.4188 -0.1985  0.6020
  502MOL0     C69161  11.439   5.740  10.159 -0.1849  1.1451  0.5257
  502MOL0     O69162  11.483   5.599  10.119 -0.2096  0.4506 -0.0222
  502MOL0     C69163  11.620   5.560  10.099  0.9186  0.3949 -0.8923
  502MOL0     C69164  11.638   5.435  10.039 -0.6746 -0.1480  0.2135
  502MOL0     C69165  11.771   5.396  10.001  0.1385 -0.0486 -0.5479
  502MOL0     C69166  11.798   5.247   9.952 -0.8249 -0.6286 -0.6218
  502MOL0     C69167  11.878   5.492  10.023  0.1273  0.0376  0.1988
  502MOL0     C69168  12.024   5.459   9.991 -0.8627 -0.1072  0.1797
  502MOL0     O69169  12.104   5.570  10.001 -0.2254  0.1645 -0.0848
  502MOL0     C69170  12.239   5.535   9.995  0.3866 -0.4678  0.1552
  502MOL0     C69171  12.315   5.560  10.104  0.4325  0.2180  0.1254
  502MOL0     C69172  12.451   5.550  10.108 -0.6379 -0.0904 -0.3364
  502MOL0     C69173  12.517   5.514   9.985 -0.1909 -0.1977  0.4784
  502MOL0     O69174  12.659   5.517   9.999  0.2687 -0.3615 -0.3188
  502MOL0     C69175  12.737   5.470   9.892  0.7365  0.5860  0.1723
  502MOL0     C69176  12.871   5.415   9.946  1.1337  0.3414  0.1647
  502MOL0     C69177  12.960   5.348   9.841  0.0905  0.0002 -0.1816
  502MOL0     C69178  13.089   5.299   9.906  0.3445 -0.4271  0.3940
  502MOL0     C69179  13.194   5.239   9.809 -0.1761  0.3136 -0.6355
  502MOL0     C69180  13.253   5.338   9.703 -0.2265 -0.3518 -1.0340
  502MOL0     C69181  13.324   5.258   9.597  0.3597 -0.3704  0.6310
  502MOL0     C69182  13.415   5.339   9.507 -0.0651  0.3121  0.5128
  502MOL0    Cl69183  13.519   5.224   9.412  0.1457 -0.3352 -0.0129
  502MOL0     C69184  12.442   5.493   9.867 -0.1853 -0.2261 -0.4133
  502MOL0     C69185  12.302   5.510   9.872 -0.6669 -0.1566  0.2581
  502MOL0     O69186  12.065   5.349   9.947 -0.5412  0.9386 -0.3715
  502MOL0     C69187  11.856   5.608  10.093 -0.2271 -0.4025  0.3901
  502MOL0     C69188  11.723   5.637  10.133 -0.3474  1.0588 -0.5213
  502MOL0     N69189  10.940   5.870  10.238 -0.5093  0.3637  0.4773
  502MOL0     N69190  10.830   5.907  10.192  0.2117 -0.1344 -0.1103
  502MOL0     C69191  10.486   6.560   9.286 -0.2231 -0.0105  0.2104
  502MOL0     C69192  10.407   6.671   9.285  0.0513 -0.1594 -0.1446
  502MOL0     C69193  10.179   7.041   9.321 -0.0516  0.5872 -0.2661
  502MOL0     C69194  10.200   7.160   9.397  0.4782  0.4063  0.4047
  502MOL0     C69195  10.133   7.273   9.360 -0.9216 -0.4239 -0.9726
  502MOL0     C69196  10.039   7.277   9.260 -0.5290  0.3296 -0.2747
  502MOL0     O69197   9.962   7.380   9.237 -0.0329  0.0023  0.3584
  502MOL0     C69198   9.971   7.496   9.320 -0.2503  0.1926  0.3024
  502MOL0     C69199   9.868   7.605   9.281  0.3112 -0.0766 -0.7513
  502MOL0     C69200   9.719   7.566   9.309 -0.4037 -0.2785  0.9050
  502MOL0     C69201   9.622   7.669   9.241 -0.5560  0.3901 -0.5202
  502MOL0     C69202   9.650   7.695   9.102 -0.0171 -0.3996 -0.3084
  502MOL0     C69203   9.652   7.732   8.985 -0.7157 -0.1611 -0.7530
  502MOL0     C69204  10.023   7.163   9.179  0.1930 -0.0191 -0.1467
  502MOL0     C69205  10.093   7.043   9.204  0.1058 -0.4462 -0.3170
  502MOL0     C69206  10.066   6.930   9.109  0.1873 -0.1051  0.3708
  502MOL0     H69207  10.131   6.545   9.431 -0.5824  1.0681 -1.4183
  502MOL0     H69208  10.257   6.350   9.436  1.2964  0.1392 -0.3826
  502MOL0     H69209  10.547   6.158   9.272 -1.3273  0.7284 -0.8524
  502MOL0     H69210  10.382   6.206   9.295  0.6533 -2.5903 -0.8935
  502MOL0     H69211  10.373   6.215   9.529  0.2887  0.0988 -0.6395
  502MOL0     H69212  10.443   6.056   9.491  1.5326 -0.6641 -0.2858
  502MOL0     H69213  10.682   6.158   9.499 -0.0001 -0.7967 -0.0158
  502MOL0     H69214  10.617   6.292   9.583  0.8064  1.5133  0.5795
  502MOL0     H69215  10.540   6.138   9.778  0.3589 -0.1732  1.2923
  502MOL0     H69216  10.552   6.000   9.676  0.4183  0.3923 -0.2532
  502MOL0     H69217  10.791   6.168   9.742 -1.0529  0.6394 -1.2919
  502MOL0     H69218  10.782   6.005   9.669 -1.7467 -3.0175  1.6547
  502MOL0     H69219  10.844   6.003   9.920 -0.5633  0.7307 -1.7745
  502MOL0     H69220  10.706   6.104   9.946  0.1377  4.2869 -3.7191
  502MOL0     H69221  10.726   5.816   9.834 -1.0873 -1.4491  0.2349
  502MOL0     H69222  10.564   5.901   9.852 -0.3202 -2.4576 -0.3226
  502MOL0     H69223  10.595   5.896  10.099 -0.5454  0.7713 -1.5229
  502MOL0     H69224  10.597   5.733  10.031  1.6133 -0.8990 -1.9348
  502MOL0     H69225  10.850   5.615  10.043 -1.5711  0.6655 -0.4791
  502MOL0     H69226  11.094   5.564  10.159 -2.4966 -2.0695  2.6937
  502MOL0     H69227  11.041   5.611  10.312  1.3051 -0.2876 -0.2892
  502MOL0     H69228  11.201   5.808  10.316  2.7842  1.2907 -0.5623
  502MOL0     H69229  11.266   5.637  10.314  0.3522 -1.5104 -2.0056
  502MOL0     H69230  11.256   5.692  10.048  1.3831 -0.8856  0.4762
  502MOL0     H69231  11.266   5.858  10.105  0.1951 -0.4891 -0.9432
  502MOL0     H69232  11.492   5.808  10.091  0.6700 -1.3765 -1.4866
  502MOL0     H69233  11.461   5.753  10.265 -1.2340  2.0688  0.6542
  502MOL0     H69234  11.557   5.372  10.003 -1.8733  1.4530 -0.0242
  502MOL0     H69235  11.710   5.185   9.972 -3.4191  3.3030  1.7130
  502MOL0     H69236  11.882   5.214  10.013 -0.3430  0.8167 -0.4575
  502MOL0     H69237  11.840   5.247   9.851  1.1106  1.0826  0.1247
  502MOL0     H69238  12.272   5.579  10.202  0.8476 -1.2090  0.6020
  502MOL0     H69239  12.510   5.576  10.196  0.2575 -2.1943 -0.2678
  502MOL0     H69240  12.680   5.389   9.847 -0.0149  0.3194  1.5540
  502MOL0     H69241  12.750   5.555   9.825 -0.1015 -1.7846 -3.2461
  502MOL0     H69242  12.917   5.494  10.005  0.5812 -0.2741  1.4636
  502MOL0     H69243  12.834   5.332  10.008 -1.9406  0.8419 -0.8300
  502MOL0     H69244  12.980   5.426   9.767 -1.5983  0.2098 -0.4510
  502MOL0     H69245  12.907   5.263   9.798 -1.3752  1.5238 -1.4876
  502MOL0     H69246  13.070   5.221   9.980 -1.3864  1.3976  1.9947
  502MOL0     H69247  13.130   5.377   9.971  1.9511 -0.1935 -0.8463
  502MOL0     H69248  13.283   5.201   9.862  0.5085  0.4844 -1.6307
  502MOL0     H69249  13.151   5.155   9.755 -1.6338  0.6215  0.0072
  502MOL0     H69250  13.319   5.407   9.758 -1.9084 -0.2322  0.9668
  502MOL0     H69251  13.169   5.395   9.663 -0.2096  1.9466  1.8520
  502MOL0     H69252  13.250   5.201   9.540 -1.4318  1.9309  0.5249
  502MOL0     H69253  13.391   5.184   9.642 -0.7360 -0.0672  2.9067
  502MOL0     H69254  13.475   5.388   9.584 -2.7794  1.5684  1.9693
  502MOL0     H69255  13.364   5.409   9.441  0.4893  1.6413  1.4468
  502MOL0     H69256  12.489   5.472   9.772 -0.0328 -2.3201  0.0822
  502MOL0     H69257  12.235   5.489   9.789 -0.6981 -2.2073  0.7641
  502MOL0     H69258  11.936   5.674  10.122 -0.1671  0.7036 -2.0471
  502MOL0     H69259  11.708   5.725  10.195  0.5564  0.0905  1.1333
  502MOL0     H69260  10.587   6.572   9.247 -0.6339 -0.3114 -0.9869
  502MOL0     H69261  10.437   6.770   9.250  0.4869 -0.1662  0.2068
  502MOL0     H69262  10.283   7.163   9.467  2.1358 -0.1155 -1.4504
  502MOL0     H69263  10.143   7.367   9.415 -1.2141 -0.7143 -0.4125
  502MOL0     H69264   9.950   7.466   9.423  1.8765 -2.5107  0.0391
  502MOL0     H69265  10.066   7.551   9.313  0.2830 -0.4515  2.0181
  502MOL0     H69266   9.888   7.620   9.174 -1.8933 -1.2389 -1.3834
  502MOL0     H69267   9.903   7.696   9.329  1.2246 -0.8154  0.0265
  502MOL0     H69268   9.701   7.472   9.258 -2.7194  0.7361 -0.2996
  502MOL0     H69269   9.689   7.551   9.413 -0.9422  0.3084  0.8416
  502MOL0     H69270   9.609   7.763   9.295 -3.5379  0.3214 -0.9622
  502MOL0     H69271   9.522   7.626   9.241 -1.4025  2.2415 -0.1021
  502MOL0     H69272   9.660   7.754   8.880  0.4276  0.0051 -0.6411
  502MOL0     H69273   9.948   7.167   9.101 -0.8850 -1.3341  0.7868
  502MOL0     H69274   9.974   6.879   9.138 -1.2738  0.1400 -3.2214
  502MOL0     H69275  10.045   6.971   9.009 -3.3127  0.6688  1.2875
  502MOL0     H69276  10.147   6.857   9.096 -0.1516 -0.0081 -3.3478
  503MOL0     O69277   2.638  10.045  11.190  1.0760 -0.0398 -0.8905
  503MOL0     C69278   2.534  10.073  11.126 -0.3749  0.1660  0.6704
  503MOL0     O69279   2.539  10.165  11.021 -0.9200  0.3960  0.6975
  503MOL0     C69280   2.652  10.235  10.997  0.0167  0.1363  0.2546
  503MOL0     C69281   2.674  10.356  11.065 -0.0420  0.7800  0.3945
  503MOL0     C69282   2.782  10.428  11.034 -0.0675 -0.8111  0.4766
  503MOL0     C69283   2.872  10.395  10.927  0.1622  0.2984 -0.0437
  503MOL0     O69284   2.973  10.489  10.891  1.0328 -0.0909  0.6236
  503MOL0     C69285   3.067  10.459  10.792  0.4008  0.2197 -0.4674
  503MOL0     C69286   3.173  10.569  10.808  0.5894 -0.5091  0.2587
  503MOL0     C69287   3.295  10.549  10.719 -0.2940 -0.1681  0.5172
  503MOL0     C69288   3.371  10.427  10.778  0.4744 -0.3636 -0.1041
  503MOL0     C69289   3.508  10.431  10.715  0.7087 -0.5814  1.1050
  503MOL0     C69290   3.611  10.359  10.799  0.1076  0.3249  0.2094
  503MOL0     C69291   3.746  10.334  10.719 -0.4604  0.7200 -0.3996
  503MOL0     C69292   3.828  10.458  10.672  1.0552  0.5900  0.6053
  503MOL0     N69293   3.956  10.453  10.739  0.7425 -0.1133 -0.2540
  503MOL0     C69294   3.971  10.464  10.880 -0.3679  0.0208 -0.1442
  503MOL0     C69295   4.101  10.480  10.893 -0.3487 -1.1183 -0.0054
  503MOL0     C69296   4.170  10.506  11.029  0.1062  0.1007 -0.4002
  503MOL0     C69297   4.269  10.610  11.044  0.1127  0.3183  1.3819
  503MOL0     C69298   4.357  10.601  11.173 -0.2408  1.2366  0.1699
  503MOL0     C69299   4.475  10.697  11.162  0.0581  0.6169 -0.1975
  503MOL0     O69300   4.560  10.655  11.270  0.4156 -0.2998  0.7579
  503MOL0     C69301   4.668  10.734  11.301 -0.1106 -0.5132  0.8203
  503MOL0     C69302   4.728  10.828  11.211  0.3669  0.5550  0.2876
  503MOL0     C69303   4.859  10.880  11.247 -0.6535  0.7286  0.4616
  503MOL0     C69304   4.917  10.966  11.143  0.1264 -0.8162 -0.3274
  503MOL0     C69305   4.925  10.852  11.366 -0.2948 -0.8014 -0.4265
  503MOL0     C69306   5.066  10.910  11.394  0.4801 -0.0941 -0.9139
  503MOL0     O69307   5.166  10.899  11.302 -0.6774  0.0442  0.1539
  503MOL0     C69308   5.268  10.984  11.339 -0.6929 -0.3746 -0.1295
  503MOL0     C69309   5.270  11.117  11.285  0.2768 -0.1315 -0.1129
  503MOL0     C69310   5.385  11.197  11.296  0.5106  1.0095 -0.2712
  503MOL0     C69311   5.496  11.160  11.373 -0.0306 -0.6093 -1.0549
  503MOL0     O69312   5.600  11.250  11.375  0.1276 -0.3376  0.6940
  503MOL0     C69313   5.707  11.226  11.457 -0.2440 -0.3132 -0.6676
  503MOL0     C69314   5.790  11.351  11.497 -0.1558  1.0376 -0.3377
  503MOL0     C69315   5.726  11.438  11.605  0.0862  0.4303 -0.6672
  503MOL0     C69316   5.816  11.559  11.632 -0.1739  0.2141  0.7687
  503MOL0     C69317   5.747  11.656  11.730 -0.1562 -0.6285  0.1887
  503MOL0     C69318   5.827  11.780  11.765 -0.1489  0.6729 -0.6765
  503MOL0     C69319   5.807  11.891  11.657 -0.5694  0.6255 -0.1603
  503MOL0     C69320   5.894  12.011  11.706  0.8803 -0.6296 -0.3444
  503MOL0    Cl69321   6.066  11.975  11.737  0.0306  0.0721  0.2891
  503MOL0     C69322   5.495  11.019  11.427  0.2750 -0.6830  0.3818
  503MOL0     C69323   5.376  10.942  11.422  0.4179  0.1979  0.8352
  503MOL0     O69324   5.081  10.943  11.512 -0.3744 -0.3572 -0.3195
  503MOL0     C69325   4.857  10.772  11.464 -0.1392 -0.4654 -0.1384
  503MOL0     C69326   4.732  10.712  11.427 -0.1316  0.6346  0.0157
  503MOL0     N69327   4.170  10.471  10.775  0.1818  0.1280 -0.0212
  503MOL0     N69328   4.079  10.458  10.679 -0.6404  0.8581 -0.0241
  503MOL0     C69329   2.854  10.281  10.855 -0.1324 -0.5937  0.3714
  503MOL0     C69330   2.746  10.197  10.897  0.5390 -0.6415  0.2635
  503MOL0     C69331   2.403  10.000  11.159 -0.1330  0.0984 -0.3329
  503MOL0     C69332   2.334  10.013  11.283 -0.1821 -1.1062 -0.3784
  503MOL0     C69333   2.228   9.941  11.305  0.0064  0.0257  0.0820
  503MOL0     C69334   2.156   9.870  11.203  0.3981 -0.5035 -0.2881
  503MOL0     O69335   2.035   9.808  11.214 -0.1003 -0.0381 -0.3628
  503MOL0     C69336   1.973   9.799  11.343  0.4421 -0.4859 -0.2456
  503MOL0     C69337   1.827   9.757  11.331 -0.1175 -0.0546  0.7350
  503MOL0     C69338   1.747   9.753  11.464  0.4311 -0.3635  0.8969
  503MOL0     C69339   1.611   9.701  11.448  0.5717 -0.9160 -0.3187
  503MOL0     C69340   1.601   9.569  11.382  0.0965  0.1890  0.3878
  503MOL0     C69341   1.576   9.470  11.327  0.2952  0.2368 -0.0737
  503MOL0     C69342   2.220   9.852  11.083 -0.1759 -1.6613  0.2077
  503MOL0     C69343   2.347   9.912  11.061  0.8039 -0.0161 -0.7712
  503MOL0     C69344   2.412   9.886  10.934 -0.2994 -0.1981  0.2758
  503MOL0     H69345   2.613  10.391  11.147  0.7431  1.5497  0.6669
  503MOL0     H69346   2.799  10.520  11.089 -2.1077 -0.4375  0.5610
  503MOL0     H69347   3.038  10.449  10.687 -0.6741 -6.3071  0.0677
  503MOL0     H69348   3.115  10.364  10.816 -1.3655 -0.2216  1.6137
  503MOL0     H69349   3.124  10.665  10.790  2.0727  0.6459  2.0006
  503MOL0     H69350   3.208  10.566  10.912  2.7897 -1.4519 -0.4572
  503MOL0     H69351   3.272  10.541  10.613  1.8494  2.0605 -0.1962
  503MOL0     H69352   3.359  10.636  10.731 -0.9591  0.1129  2.5802
  503MOL0     H69353   3.379  10.439  10.887 -2.1404 -1.5091  0.2977
  503MOL0     H69354   3.322  10.330  10.771  0.4191 -0.8143  4.1188
  503MOL0     H69355   3.548  10.533  10.719  0.9892 -0.5889 -0.6692
  503MOL0     H69356   3.499  10.379  10.619 -1.6191 -0.9053  1.4521
  503MOL0     H69357   3.634  10.428  10.881  0.0016 -1.6011  1.9493
  503MOL0     H69358   3.561  10.269  10.836 -1.8994  0.4583 -1.9813
  503MOL0     H69359   3.722  10.286  10.624 -0.0520 -2.5373  1.0206
  503MOL0     H69360   3.811  10.267  10.776  1.0412  0.1219 -2.6624
  503MOL0     H69361   3.852  10.452  10.565  0.0353 -2.5340  0.4593
  503MOL0     H69362   3.769  10.549  10.686 -1.3839 -0.7828 -0.1580
  503MOL0     H69363   3.888  10.455  10.949  0.1963  1.8480  0.8333
  503MOL0     H69364   4.216  10.410  11.050 -1.5479 -0.6968 -0.2345
  503MOL0     H69365   4.093  10.533  11.102  0.7130 -1.4993  0.8785
  503MOL0     H69366   4.330  10.600  10.954 -0.1115 -1.3553  1.3784
  503MOL0     H69367   4.213  10.703  11.029  0.7639  0.2781 -2.2587
  503MOL0     H69368   4.293  10.609  11.261  1.7471  0.9159  1.7249
  503MOL0     H69369   4.399  10.501  11.181 -0.7529  1.1397  2.1812
  503MOL0     H69370   4.531  10.683  11.070  1.9399  1.2053  0.8077
  503MOL0     H69371   4.451  10.803  11.175  1.9870  0.9079  1.5131
  503MOL0     H69372   4.681  10.856  11.118  2.0444 -1.1767 -1.1712
  503MOL0     H69373   4.975  11.050  11.183  0.7756 -1.1331 -0.5894
  503MOL0     H69374   4.842  11.010  11.076  1.0893  1.0263 -0.2700
  503MOL0     H69375   4.982  10.912  11.072  1.6931 -0.4290  0.7498
  503MOL0     H69376   5.184  11.145  11.225  0.8426  0.5189 -0.6458
  503MOL0     H69377   5.370  11.297  11.257 -2.4204 -0.5171 -3.6029
  503MOL0     H69378   5.675  11.172  11.546  0.1782  0.9360  0.2683
  503MOL0     H69379   5.778  11.164  11.402  3.1348  1.6167  1.1894
  503MOL0     H69380   5.888  11.321  11.535 -0.1733  1.4496  0.0400
  503MOL0     H69381   5.806  11.403  11.402  1.3248  0.0932 -0.6328
  503MOL0     H69382   5.711  11.386  11.700  3.0161 -0.0248 -0.3619
  503MOL0     H69383   5.629  11.466  11.561 -0.4024 -1.5800 -0.9950
  503MOL0     H69384   5.828  11.610  11.536 -0.4184 -3.8700 -1.6770
  503MOL0     H69385   5.913  11.525  11.671  1.4374 -0.4300 -3.3223
  503MOL0     H69386   5.648  11.681  11.690  2.0675  2.4532 -4.2033
  503MOL0     H69387   5.738  11.607  11.827  1.0614 -1.0474  0.1032
  503MOL0     H69388   5.934  11.760  11.772 -0.2894 -0.1540 -0.7333
  503MOL0     H69389   5.791  11.823  11.859 -2.3511 -1.2719 -0.5352
  503MOL0     H69390   5.700  11.913  11.647 -0.4220  0.8092 -1.5838
  503MOL0     H69391   5.840  11.853  11.560 -2.0992  3.8850 -2.1429
  503MOL0     H69392   5.872  12.032  11.811  2.8944 -2.1288  0.4768
  503MOL0     H69393   5.888  12.104  11.650  1.7871 -0.0334  0.5175
  503MOL0     H69394   5.591  10.978  11.454  1.4575 -1.7385 -4.4693
  503MOL0     H69395   5.365  10.848  11.475 -0.4807  1.2723  2.6674
  503MOL0     H69396   4.895  10.754  11.564 -3.4000  1.3777  1.6201
  503MOL0     H69397   4.693  10.642  11.500 -1.0274 -0.0732 -1.1073
  503MOL0     H69398   2.916  10.250  10.772  0.2690 -4.1657  1.8265
  503MOL0     H69399   2.733  10.099  10.852 -1.0734  0.8855 -2.9055
  503MOL0     H69400   2.366  10.074  11.366  1.3856 -1.9789 -0.2861
  503MOL0     H69401   2.185   9.961  11.403  3.5698  1.4081  1.5185
  503MOL0     H69402   2.027   9.736  11.415 -0.9819  0.9947  2.2502
  503MOL0     H69403   1.978   9.895  11.396  0.6169 -1.4719  1.6137
  503MOL0     H69404   1.820   9.663  11.277 -2.3666  0.5925 -0.2450
  503MOL0     H69405   1.779   9.836  11.271 -0.3787  1.8701  3.2990
  503MOL0     H69406   1.805   9.698  11.539  0.8983 -1.1455 -0.0189
  503MOL0     H69407   1.751   9.857  11.497 -0.3341 -0.7512  2.3109
  503MOL0     H69408   1.556   9.767  11.381  0.7445  1.4306  1.7225
  503MOL0     H69409   1.551   9.708  11.539  0.8440  0.8095 -0.2406
  503MOL0     H69410   1.536   9.393  11.264 -0.6027  0.6490 -0.0198
  503MOL0     H69411   2.184   9.778  11.013  0.1663 -2.3109  0.7092
  503MOL0     H69412   2.380   9.962  10.862 -0.0959 -0.7240 -0.3828
  503MOL0     H69413   2.521   9.887  10.947 -0.2877 -2.2315  0.5220
  503MOL0     H69414   2.383   9.791  10.889  1.2555 -0.8884  0.6661
  504MOL0     O69415   5.042   7.150   2.817  0.4237  0.1399 -0.4993
  504MOL0     C69416   4.991   7.058   2.890 -0.7877 -0.0843  0.4130
  504MOL0     O69417   5.063   6.998   2.996  0.7776 -0.1169  0.5363
  504MOL0     C69418   5.193   6.994   3.012 -0.0060  0.3407 -0.9019
  504MOL0     C69419   5.233   6.907   3.112  0.6428 -0.1711 -0.5947
  504MOL0     C69420   5.365   6.879   3.142 -0.1425  0.0122  1.1470
  504MOL0     C69421   5.464   6.948   3.063  0.5522  0.1147  0.5355
  504MOL0     O69422   5.601   6.935   3.090  0.6867 -0.3493 -0.1620
  504MOL0     C69423   5.642   6.833   3.179 -0.1764  0.5280  0.3178
  504MOL0     C69424   5.795   6.828   3.202 -0.8005 -0.3285  0.2968
  504MOL0     C69425   5.833   6.931   3.317  0.9161  1.1873 -0.8004
  504MOL0     C69426   5.975   6.904   3.367 -0.1977 -0.4499  0.3991
  504MOL0     C69427   6.032   7.028   3.440 -0.2980  0.2798 -0.1587
  504MOL0     C69428   6.166   6.996   3.506 -0.1146  0.6579  0.4926
  504MOL0     C69429   6.227   7.110   3.571 -0.3158  0.3849 -0.8608
  504MOL0     C69430   6.256   7.242   3.488  0.4060  0.3136 -0.5012
  504MOL0     N69431   6.363   7.324   3.544  0.5497 -0.0118  0.3778
  504MOL0     C69432   6.354   7.430   3.631  0.1596  0.7586 -0.3428
  504MOL0     C69433   6.474   7.483   3.637 -0.2456 -0.8294 -0.0662
  504MOL0     C69434   6.528   7.599   3.719  0.1358  0.5032  0.4159
  504MOL0     C69435   6.634   7.670   3.649  0.0327 -0.3314  0.0684
  504MOL0     C69436   6.688   7.791   3.725  1.4007 -0.3925 -0.0211
  504MOL0     C69437   6.797   7.869   3.654  0.8961  0.1810  0.2107
  504MOL0     O69438   6.732   7.977   3.575 -0.3316  0.1572  0.0635
  504MOL0     C69439   6.795   8.045   3.481  0.2323  0.1357 -0.2735
  504MOL0     C69440   6.718   8.132   3.409  0.3187 -0.4355 -0.9114
  504MOL0     C69441   6.765   8.214   3.310 -0.3811 -0.7571 -0.0796
  504MOL0     C69442   6.659   8.304   3.239  0.1990 -0.3615 -1.1100
  504MOL0     C69443   6.911   8.223   3.285  0.9071  0.5200  0.3464
  504MOL0     C69444   6.974   8.310   3.195  0.6718 -0.4631 -0.0325
  504MOL0     O69445   6.890   8.372   3.100  0.2952 -0.3302 -0.4435
  504MOL0     C69446   6.950   8.425   2.989  0.0344 -0.8444 -0.3658
  504MOL0     C69447   6.987   8.346   2.877  0.2924 -0.3646  0.4068
  504MOL0     C69448   7.050   8.401   2.762 -0.0268  0.2887  0.0140
  504MOL0     C69449   7.065   8.540   2.747  0.1545 -0.4547 -0.7298
  504MOL0     O69450   7.092   8.602   2.629 -0.3370 -0.2244  0.0338
  504MOL0     C69451   7.226   8.562   2.575  0.9644 -0.9495  0.1996
  504MOL0     C69452   7.328   8.656   2.625  0.2685 -0.0465  0.1712
  504MOL0     C69453   7.329   8.792   2.548  0.5908  0.2128  0.0453
  504MOL0     C69454   7.410   8.895   2.618 -0.6478  0.3061  0.1055
  504MOL0     C69455   7.398   9.030   2.552 -0.2095  0.0595 -0.7835
  504MOL0     C69456   7.487   9.053   2.437 -0.0946 -0.0023  0.6801
  504MOL0     C69457   7.625   9.087   2.491  0.5459 -1.0001  0.6569
  504MOL0     C69458   7.722   9.081   2.375  0.4231  0.3682  0.1499
  504MOL0    Cl69459   7.701   9.222   2.265  0.0870 -0.1704  0.0615
  504MOL0     C69460   7.010   8.615   2.848  0.2152 -0.8511 -0.4693
  504MOL0     C69461   6.971   8.562   2.972  0.0480 -1.0281  0.5675
  504MOL0     O69462   7.094   8.330   3.210 -0.1323 -0.0579 -0.2815
  504MOL0     C69463   6.986   8.119   3.352  0.0315  0.1892  0.5691
  504MOL0     C69464   6.927   8.037   3.450 -0.2087  0.1021  0.2600
  504MOL0     N69465   6.562   7.403   3.566  0.6776  0.5594  0.4912
  504MOL0     N69466   6.494   7.312   3.505 -0.1229  0.0973  0.1485
  504MOL0     C69467   5.421   7.028   2.958 -0.1362  0.0374  0.2992
  504MOL0     C69468   5.288   7.055   2.926 -0.4608  0.2253  0.1806
  504MOL0     C69469   4.855   7.007   2.865  0.4676 -0.2477 -0.2848
  504MOL0     C69470   4.766   7.111   2.806  0.2504  0.2865 -0.7764
  504MOL0     C69471   4.630   7.091   2.780 -0.5390 -0.4946 -0.1077
  504MOL0     C69472   4.579   6.969   2.807 -0.1372  0.5948 -0.4773
  504MOL0     O69473   4.451   6.929   2.775  0.7458  0.3529  0.3888
  504MOL0     C69474   4.351   7.030   2.769 -0.0772  0.2066  0.8704
  504MOL0     C69475   4.226   6.965   2.725  0.8601 -0.8539  0.1768
  504MOL0     C69476   4.185   6.850   2.823 -0.4323 -1.0106 -0.0638
  504MOL0     C69477   4.046   6.800   2.785 -0.4728  0.3903  0.5390
  504MOL0     C69478   4.006   6.698   2.878  0.0884  0.4961 -1.1122
  504MOL0     C69479   3.971   6.625   2.971  0.1197 -0.8535  0.5802
  504MOL0     C69480   4.656   6.868   2.866  0.9280 -0.2478  0.1466
  504MOL0     C69481   4.793   6.881   2.898  0.1516 -0.2446  1.0059
  504MOL0     C69482   4.866   6.763   2.959 -0.3281  0.0024 -0.0048
  504MOL0     H69483   5.155   6.862   3.174  0.5096 -0.2333 -0.8091
  504MOL0     H69484   5.373   6.807   3.223 -0.8251  1.2379  2.3479
  504MOL0     H69485   5.602   6.737   3.149 -0.6960  0.4261  1.2866
  504MOL0     H69486   5.589   6.840   3.275  0.6667 -0.1863  0.8513
  504MOL0     H69487   5.816   6.727   3.238  0.5205 -0.2451 -0.1525
  504MOL0     H69488   5.853   6.855   3.113  1.8385  0.9201  2.2573
  504MOL0     H69489   5.827   7.031   3.274 -0.0284  1.9633  1.0604
  504MOL0     H69490   5.765   6.915   3.400 -0.0714  3.1328 -1.1756
  504MOL0     H69491   5.967   6.813   3.427  2.4738  0.1216  1.7784
  504MOL0     H69492   6.046   6.885   3.285  1.6264  0.6452  1.6293
  504MOL0     H69493   5.956   7.067   3.509  0.3057  1.0407  0.0943
  504MOL0     H69494   6.048   7.101   3.360 -0.1829 -0.7407 -1.0852
  504MOL0     H69495   6.158   6.913   3.577  0.2056 -0.0627 -0.2999
  504MOL0     H69496   6.235   6.955   3.432  1.1005 -1.0422  2.4513
  504MOL0     H69497   6.325   7.070   3.598  0.1486 -0.8214 -3.9667
  504MOL0     H69498   6.158   7.126   3.654 -0.7833 -0.3600 -1.1005
  504MOL0     H69499   6.266   7.218   3.381 -2.1242 -1.6546 -0.4008
  504MOL0     H69500   6.171   7.311   3.493  1.8980  2.2689 -0.7975
  504MOL0     H69501   6.270   7.461   3.692 -0.3777 -0.1102 -0.6220
  504MOL0     H69502   6.573   7.561   3.811 -0.9369  0.8588  1.0981
  504MOL0     H69503   6.442   7.663   3.739 -1.0238 -1.0883  0.7041
  504MOL0     H69504   6.717   7.606   3.617 -0.5645 -1.3119  0.4211
  504MOL0     H69505   6.596   7.710   3.555  2.4995 -1.3670 -1.4703
  504MOL0     H69506   6.615   7.852   3.779  1.8525  0.7214 -0.6094
  504MOL0     H69507   6.743   7.753   3.812  0.4847 -0.2216  0.6469
  504MOL0     H69508   6.870   7.909   3.727 -1.2742 -0.1872  2.7350
  504MOL0     H69509   6.847   7.796   3.590  0.4303  0.4408 -0.4608
  504MOL0     H69510   6.613   8.147   3.434  0.7687 -0.8642  1.5118
  504MOL0     H69511   6.666   8.407   3.275  0.4028 -0.9143  0.4936
  504MOL0     H69512   6.556   8.281   3.267  0.3146  1.4098  1.0186
  504MOL0     H69513   6.660   8.290   3.131 -0.1504 -2.1436 -0.9075
  504MOL0     H69514   6.961   8.241   2.872  1.9011 -0.8062  0.5562
  504MOL0     H69515   7.083   8.334   2.684  0.9185 -1.6808  2.0136
  504MOL0     H69516   7.258   8.459   2.596  3.0866 -0.7599 -1.7577
  504MOL0     H69517   7.217   8.573   2.467  0.7470 -2.6915  0.0062
  504MOL0     H69518   7.307   8.673   2.731  2.1046  1.1581  0.3810
  504MOL0     H69519   7.421   8.599   2.626 -0.8635 -2.0086 -0.4712
  504MOL0     H69520   7.225   8.825   2.540  0.2027 -1.1849 -0.9488
  504MOL0     H69521   7.373   8.774   2.450 -0.4176 -2.0564 -0.0558
  504MOL0     H69522   7.513   8.858   2.629 -1.8019 -2.3175  3.4847
  504MOL0     H69523   7.372   8.891   2.720  0.5258 -0.1820  0.5429
  504MOL0     H69524   7.296   9.058   2.525 -1.4659 -1.0170  2.3876
  504MOL0     H69525   7.423   9.096   2.635  1.6794 -1.3582 -0.1651
  504MOL0     H69526   7.449   9.137   2.378  2.3767  0.6658 -0.1069
  504MOL0     H69527   7.489   8.966   2.369 -2.4994  0.6385 -0.3299
  504MOL0     H69528   7.667   9.017   2.564  0.6847 -0.3378  1.2143
  504MOL0     H69529   7.621   9.190   2.527 -2.3317 -0.8858  0.2258
  504MOL0     H69530   7.722   8.990   2.314  1.4038  0.5522 -0.1372
  504MOL0     H69531   7.822   9.080   2.418  1.6239 -1.9214 -2.3692
  504MOL0     H69532   7.009   8.723   2.837 -1.3252 -0.7338  0.4994
  504MOL0     H69533   6.950   8.629   3.054 -0.2743 -2.2974  1.5673
  504MOL0     H69534   7.092   8.099   3.343  0.0760  0.2307  0.9821
  504MOL0     H69535   6.986   7.958   3.495  2.6953  1.3897 -1.0677
  504MOL0     H69536   5.492   7.079   2.893  2.5479 -2.6634  0.8832
  504MOL0     H69537   5.274   7.130   2.848  3.4271  0.6054 -0.3582
  504MOL0     H69538   4.806   7.211   2.793  3.0317 -0.6598 -0.1536
  504MOL0     H69539   4.588   7.174   2.725  0.2361 -1.6306 -2.5495
  504MOL0     H69540   4.348   7.074   2.870 -3.4774 -2.8206  2.3271
  504MOL0     H69541   4.386   7.101   2.694  2.6954 -3.4241 -1.6305
  504MOL0     H69542   4.237   6.933   2.621  1.4004 -1.4051  0.3998
  504MOL0     H69543   4.136   7.027   2.723  1.0579 -0.5318  0.8297
  504MOL0     H69544   4.264   6.775   2.817  1.3114  0.7683 -0.5293
  504MOL0     H69545   4.187   6.891   2.925  0.6838  0.3436 -0.6043
  504MOL0     H69546   4.044   6.755   2.685  0.2808 -1.7523  1.4207
  504MOL0     H69547   3.971   6.880   2.784 -0.8635  0.0719  2.1820
  504MOL0     H69548   3.916   6.584   3.052 -0.5475 -0.9384  0.0943
  504MOL0     H69549   4.604   6.775   2.883  0.7223  0.0224  1.0561
  504MOL0     H69550   4.939   6.793   3.035 -0.8295  2.3596 -0.3811
  504MOL0     H69551   4.793   6.698   3.008  0.9246  0.3077  2.4426
  504MOL0     H69552   4.924   6.708   2.884 -0.5360  0.5531 -0.5655
  505MOL0     O69553   6.414   0.289   9.518 -0.3289 -0.7886  0.1349
  505MOL0     C69554   6.354   0.364   9.445  0.5045 -0.9738  0.2891
  505MOL0     O69555   6.388   0.497   9.408  0.0846 -0.1461  0.0883
  505MOL0     C69556   6.491   0.575   9.459 -0.0832  1.3219  0.8340
  505MOL0     C69557   6.619   0.522   9.493  0.0180  0.2984 -0.7037
  505MOL0     C69558   6.726   0.604   9.536  0.4312  0.2331 -0.0752
  505MOL0     C69559   6.715   0.745   9.543  0.7013  0.5850  0.0987
  505MOL0     O69560   6.832   0.811   9.571 -0.3066 -1.0905  0.7256
  505MOL0     C69561   6.835   0.951   9.549 -0.1961 -0.0641  0.1806
  505MOL0     C69562   6.971   1.006   9.567  0.0698  0.8258  0.6602
  505MOL0     C69563   7.032   1.058   9.438 -0.3100 -0.3529  0.1949
  505MOL0     C69564   7.140   1.157   9.472  0.3291  1.0845  0.1733
  505MOL0     C69565   7.241   1.182   9.368  0.3437 -0.6406 -0.4076
  505MOL0     C69566   7.333   1.069   9.324 -0.4787 -0.0458  0.4768
  505MOL0     C69567   7.421   1.016   9.428 -0.1602 -0.3266  0.3439
  505MOL0     C69568   7.467   0.872   9.391  0.5537 -0.3279  0.0731
  505MOL0     N69569   7.543   0.795   9.496 -0.3753 -0.8229  0.3055
  505MOL0     C69570   7.666   0.835   9.552 -0.0659 -0.7218  0.0760
  505MOL0     C69571   7.728   0.722   9.596 -0.5110 -0.0947 -0.5439
  505MOL0     C69572   7.844   0.703   9.693 -0.3189 -0.2741 -0.3721
  505MOL0     C69573   7.976   0.676   9.614  0.1168 -0.6924  0.1681
  505MOL0     C69574   7.985   0.538   9.549  0.2976  0.0334  0.5535
  505MOL0     C69575   7.922   0.421   9.611 -0.8808 -0.0286 -0.4090
  505MOL0     O69576   7.972   0.407   9.746 -0.7221 -0.1450 -0.1734
  505MOL0     C69577   8.092   0.350   9.772 -0.0803  0.1208  0.6328
  505MOL0     C69578   8.124   0.332   9.901 -1.1179 -0.0702 -1.1110
  505MOL0     C69579   8.251   0.276   9.938 -0.4651 -0.3957  0.2874
  505MOL0     C69580   8.295   0.287  10.083 -0.2042 -0.6724  0.4168
  505MOL0     C69581   8.343   0.234   9.837 -0.5182 -0.3167  0.3683
  505MOL0     C69582   8.480   0.183   9.856  0.4315 -0.4788 -0.2714
  505MOL0     O69583   8.570   0.217   9.765 -0.1029  0.0848 -0.0804
  505MOL0     C69584   8.704   0.178   9.788  0.2055  0.3520 -0.1333
  505MOL0     C69585   8.775   0.117   9.685 -0.4921  0.4629  0.0265
  505MOL0     C69586   8.912   0.095   9.685  0.1968 -0.1126 -0.4208
  505MOL0     C69587   8.984   0.121   9.802  0.9527  1.0879  0.3480
  505MOL0     O69588   9.119   0.098   9.800  0.1151  0.5401  0.1250
  505MOL0     C69589   9.185   0.138   9.922  0.3934  0.3559  0.6471
  505MOL0     C69590   9.332   0.096   9.899 -0.1336 -0.6893 -0.3354
  505MOL0     C69591   9.396   0.205   9.813 -0.3445  0.3294  0.3133
  505MOL0     C69592   9.550   0.182   9.805 -0.7014 -0.2470 -0.6839
  505MOL0     C69593   9.628   0.289   9.727  0.2465  0.7663  0.2288
  505MOL0     C69594   9.760   0.229   9.677 -0.1600 -0.0480 -0.6429
  505MOL0     C69595   9.870   0.343   9.666  0.5297  0.4408 -0.5055
  505MOL0     C69596  10.016   0.282   9.653  0.2092  0.2825 -0.4499
  505MOL0    Cl69597  10.050   0.213   9.810 -0.0754  0.5376 -0.4624
  505MOL0     C69598   8.912   0.166   9.912 -0.3679 -0.9414  0.1214
  505MOL0     C69599   8.779   0.198   9.902 -0.1101 -0.3624  0.8155
  505MOL0     O69600   8.498   0.104   9.953  0.1732 -0.5532 -0.1292
  505MOL0     C69601   8.303   0.257   9.704 -0.6104  0.5521 -0.1505
  505MOL0     C69602   8.187   0.315   9.672  0.6157  0.0075  0.4006
  505MOL0     N69603   7.643   0.616   9.567  0.0245 -1.1597  0.0115
  505MOL0     N69604   7.539   0.658   9.502  1.1295 -0.3314  0.7024
  505MOL0     C69605   6.584   0.795   9.515  0.0973  0.6854 -0.2520
  505MOL0     C69606   6.476   0.710   9.471  0.0531 -0.8629  0.8404
  505MOL0     C69607   6.224   0.314   9.376  0.3434  0.3819 -0.7431
  505MOL0     C69608   6.151   0.395   9.292  0.1364 -0.1618 -0.6450
  505MOL0     C69609   6.032   0.344   9.243 -0.2869 -0.7583 -0.4149
  505MOL0     C69610   5.981   0.219   9.274  0.4633 -0.5767 -0.9471
  505MOL0     O69611   5.861   0.179   9.212 -0.0923 -0.7176 -0.5500
  505MOL0     C69612   5.808   0.043   9.251  0.1443  0.5457  0.1729
  505MOL0     C69613   5.688   0.014   9.166  0.6230  0.3732 -0.0536
  505MOL0     C69614   5.627  -0.130   9.190  1.0096 -0.4515  0.2469
  505MOL0     C69615   5.480  -0.139   9.144  0.3984 -0.0882  0.7668
  505MOL0     C69616   5.462  -0.119   8.999  0.0068 -1.3405  0.2761
  505MOL0     C69617   5.428  -0.094   8.883 -0.7598 -0.2425 -0.0794
  505MOL0     C69618   6.050   0.143   9.363  0.8156 -0.3457  0.7465
  505MOL0     C69619   6.171   0.181   9.414 -0.4669 -0.8301  0.3201
  505MOL0     C69620   6.240   0.082   9.493 -0.7468  0.7359 -0.0039
  505MOL0     H69621   6.633   0.415   9.504  2.5980  0.5800 -0.6468
  505MOL0     H69622   6.822   0.564   9.567  0.0194  0.7085  1.8980
  505MOL0     H69623   6.757   1.000   9.608 -1.8334 -1.4416 -0.7551
  505MOL0     H69624   6.804   0.968   9.445  0.4478 -0.5889 -0.1101
  505MOL0     H69625   6.963   1.090   9.637 -0.2075  1.0379  0.3782
  505MOL0     H69626   7.043   0.942   9.619  2.8016  3.7684  0.8772
  505MOL0     H69627   7.078   0.978   9.380  1.3449  0.8389 -0.2168
  505MOL0     H69628   6.956   1.108   9.378  0.9729  2.5236  0.7825
  505MOL0     H69629   7.097   1.254   9.496 -0.7799  0.6890 -0.1739
  505MOL0     H69630   7.195   1.127   9.562  1.2979  1.3024 -0.3332
  505MOL0     H69631   7.293   1.268   9.411 -0.1214 -0.9761  0.8439
  505MOL0     H69632   7.185   1.215   9.280 -1.3043 -3.8354 -0.6808
  505MOL0     H69633   7.266   0.990   9.290 -0.8991  0.4030  0.2407
  505MOL0     H69634   7.401   1.102   9.246 -3.0092  0.1557 -1.7871
  505MOL0     H69635   7.372   1.023   9.525 -1.0694 -1.9017  0.0366
  505MOL0     H69636   7.508   1.082   9.439 -1.6930  2.1212 -1.1259
  505MOL0     H69637   7.377   0.811   9.385 -1.0999  1.5858  2.8841
  505MOL0     H69638   7.515   0.873   9.293  2.2701  0.7874  0.8729
  505MOL0     H69639   7.698   0.938   9.563 -3.6832  0.2401  4.9527
  505MOL0     H69640   7.831   0.623   9.766  1.2849 -0.8113 -0.6301
  505MOL0     H69641   7.850   0.795   9.753 -0.4931 -1.9931  2.4398
  505MOL0     H69642   7.993   0.756   9.541  2.3638 -0.2214  1.1351
  505MOL0     H69643   8.057   0.696   9.684 -1.2628 -1.0064  1.9357
  505MOL0     H69644   7.920   0.546   9.461  1.9583 -1.6145 -0.9062
  505MOL0     H69645   8.088   0.518   9.518 -0.4262 -0.4253 -1.7112
  505MOL0     H69646   7.814   0.438   9.613 -1.1698 -1.7202  0.8924
  505MOL0     H69647   7.934   0.332   9.549 -2.2267 -1.3644  1.1209
  505MOL0     H69648   8.052   0.355   9.979 -1.9896 -1.8152 -1.3658
  505MOL0     H69649   8.251   0.372  10.136  1.5031  1.1510 -0.9200
  505MOL0     H69650   8.404   0.297  10.088 -0.0975 -0.6575 -1.4106
  505MOL0     H69651   8.264   0.199  10.140 -4.3542  1.5189  1.9501
  505MOL0     H69652   8.715   0.081   9.602  0.9790 -1.5678 -0.2200
  505MOL0     H69653   8.972   0.056   9.604 -1.0114 -0.7927 -1.0182
  505MOL0     H69654   9.188   0.246   9.941 -0.4900  0.1131  2.3036
  505MOL0     H69655   9.141   0.087  10.007  1.1778  0.2493  1.0042
  505MOL0     H69656   9.384   0.086   9.995  0.0108  0.2044 -0.3120
  505MOL0     H69657   9.324  -0.001   9.849 -0.4054 -1.3889  1.0052
  505MOL0     H69658   9.376   0.300   9.864  0.7704 -1.0279  3.5432
  505MOL0     H69659   9.350   0.214   9.714 -2.9242 -0.1631  1.3791
  505MOL0     H69660   9.561   0.088   9.750 -2.2642 -1.0577  0.3226
  505MOL0     H69661   9.599   0.174   9.902 -0.3165  1.0861 -0.7608
  505MOL0     H69662   9.568   0.312   9.638 -0.4982 -1.0172  0.2281
  505MOL0     H69663   9.647   0.375   9.791  2.0100 -0.1404  0.9887
  505MOL0     H69664   9.753   0.180   9.580 -0.8352 -1.7735  0.2296
  505MOL0     H69665   9.788   0.154   9.752  1.4984 -0.5581 -1.7205
  505MOL0     H69666   9.879   0.409   9.754  1.6123  0.8412 -0.8997
  505MOL0     H69667   9.845   0.409   9.583 -0.3687 -0.9756 -1.3884
  505MOL0     H69668  10.095   0.355   9.637 -0.5560  1.5654  1.2736
  505MOL0     H69669  10.036   0.216   9.568 -4.4763  0.9738 -2.4022
  505MOL0     H69670   8.955   0.200  10.006 -1.5085  0.4192  0.1877
  505MOL0     H69671   8.722   0.220   9.992  0.3612  2.4050  0.5350
  505MOL0     H69672   8.369   0.228   9.623 -1.2246  1.2641 -0.9241
  505MOL0     H69673   8.159   0.324   9.567  0.7363  0.4819  0.4049
  505MOL0     H69674   6.559   0.901   9.513  1.1174  0.9343 -0.2929
  505MOL0     H69675   6.378   0.750   9.450  1.2116  0.7496 -2.1414
  505MOL0     H69676   6.184   0.497   9.278  1.9804 -1.0126 -3.1715
  505MOL0     H69677   5.979   0.405   9.171  2.2301  1.9616 -0.2086
  505MOL0     H69678   5.878  -0.038   9.229  0.6621  0.9778  0.2179
  505MOL0     H69679   5.782   0.045   9.358  0.0531  2.0205  0.1410
  505MOL0     H69680   5.713   0.026   9.060  1.6158  2.3871  0.3624
  505MOL0     H69681   5.613   0.090   9.189  1.8070  1.3476  0.7188
  505MOL0     H69682   5.696  -0.206   9.153 -0.9912 -2.5894  0.6430
  505MOL0     H69683   5.629  -0.139   9.299 -1.3816 -1.6338  0.2686
  505MOL0     H69684   5.420  -0.073   9.207 -0.8244 -0.7589  0.3323
  505MOL0     H69685   5.451  -0.244   9.155  3.4599 -1.0357  0.6545
  505MOL0     H69686   5.419  -0.059   8.782  0.3291  1.8924  0.5025
  505MOL0     H69687   6.009   0.048   9.394 -1.6012  0.2850 -0.2591
  505MOL0     H69688   6.234   0.100   9.600 -1.1889 -0.3138  0.1648
  505MOL0     H69689   6.209  -0.022   9.479 -3.0953  1.2965  0.5701
  505MOL0     H69690   6.346   0.079   9.466 -0.2139  4.1734  1.2816
  506MOL0     O69691   5.852   1.725   7.862  0.0485  0.2732  0.5263
  506MOL0     C69692   5.741   1.771   7.895  0.6820 -0.5382  0.0499
  506MOL0     O69693   5.649   1.707   7.958  0.0160  0.0534  0.0804
  506MOL0     C69694   5.684   1.607   8.049 -0.8367  0.0100  0.0975
  506MOL0     C69695   5.586   1.511   8.078 -0.0595  0.2322 -0.1338
  506MOL0     C69696   5.621   1.392   8.148  0.9191 -0.0804 -0.0066
  506MOL0     C69697   5.744   1.375   8.196  0.2539 -0.1255  0.3660
  506MOL0     O69698   5.775   1.248   8.244  0.0609  0.5292 -0.0404
  506MOL0     C69699   5.907   1.190   8.243 -0.5350  0.5018 -0.2696
  506MOL0     C69700   5.909   1.040   8.283  0.1472 -0.2002 -0.4168
  506MOL0     C69701   6.050   0.990   8.317  0.2857 -0.1748  0.1415
  506MOL0     C69702   6.055   0.844   8.369  0.4502  0.5323  0.3834
  506MOL0     C69703   6.177   0.761   8.345  0.5273  0.4473 -0.4319
  506MOL0     C69704   6.292   0.823   8.423 -0.0196 -0.8118 -0.5360
  506MOL0     C69705   6.390   0.708   8.458 -0.4633 -0.1721 -0.2681
  506MOL0     C69706   6.531   0.768   8.473  0.4026 -0.8651 -0.2196
  506MOL0     N69707   6.636   0.673   8.514  0.5023 -0.1198  0.3255
  506MOL0     C69708   6.708   0.588   8.435 -0.3910 -0.1667 -0.3342
  506MOL0     C69709   6.809   0.552   8.517 -0.1623  0.1824 -0.8402
  506MOL0     C69710   6.926   0.468   8.508 -0.5249 -0.4633 -0.2217
  506MOL0     C69711   7.042   0.559   8.452  0.1663 -0.1975  1.0266
  506MOL0     C69712   7.151   0.467   8.391 -1.0370 -0.1158  0.0132
  506MOL0     C69713   7.219   0.385   8.488  0.2678  0.3142 -0.5867
  506MOL0     O69714   7.275   0.475   8.589  0.3393  1.1980  0.0763
  506MOL0     C69715   7.402   0.451   8.622 -0.1958 -0.5592 -0.6453
  506MOL0     C69716   7.488   0.556   8.618 -0.1651 -0.0704 -1.1255
  506MOL0     C69717   7.624   0.545   8.664  0.8983 -0.4597 -0.3738
  506MOL0     C69718   7.696   0.668   8.655 -0.7482  0.2489  0.3110
  506MOL0     C69719   7.670   0.423   8.724  0.0455 -0.4892 -0.9976
  506MOL0     C69720   7.812   0.415   8.784  0.1759 -0.0824  0.2180
  506MOL0     O69721   7.838   0.309   8.874  0.2728 -0.5699  0.4113
  506MOL0     C69722   7.951   0.325   8.955 -0.8500  0.0322  0.2065
  506MOL0     C69723   7.938   0.308   9.088 -0.3197  0.5116 -0.6425
  506MOL0     C69724   8.033   0.331   9.189 -0.2482  0.2859  0.2315
  506MOL0     C69725   8.161   0.330   9.140  0.7304 -0.4482 -0.9570
  506MOL0     O69726   8.255   0.330   9.236  0.9221 -0.5781  0.2482
  506MOL0     C69727   8.368   0.414   9.228  0.7041 -0.1105  0.5561
  506MOL0     C69728   8.428   0.421   9.367  0.0632  0.0983  0.3699
  506MOL0     C69729   8.577   0.472   9.356  0.1846  0.6361  0.8305
  506MOL0     C69730   8.648   0.485   9.491 -0.0201 -0.3272 -0.0971
  506MOL0     C69731   8.791   0.538   9.490 -0.1687  0.6973 -0.4506
  506MOL0     C69732   8.869   0.477   9.605 -0.4327  0.5674  0.1786
  506MOL0     C69733   9.011   0.541   9.631  1.2705  0.3214  0.2273
  506MOL0     C69734   9.077   0.481   9.751 -0.1111 -0.6180 -0.6256
  506MOL0    Cl69735   9.233   0.562   9.778 -0.2019 -0.4887  0.2923
  506MOL0     C69736   8.183   0.330   9.005  0.8188 -0.0799 -0.1184
  506MOL0     C69737   8.081   0.322   8.908 -0.6873 -0.2461 -0.7535
  506MOL0     O69738   7.896   0.490   8.740 -0.0576 -0.1313  0.3449
  506MOL0     C69739   7.576   0.310   8.717 -1.0982  0.3069  0.6779
  506MOL0     C69740   7.454   0.327   8.663  0.3080 -0.3142  0.5476
  506MOL0     N69741   6.785   0.611   8.645 -0.3241  0.4582  0.4963
  506MOL0     N69742   6.678   0.682   8.643 -0.2925 -0.2117 -0.2773
  506MOL0     C69743   5.849   1.474   8.178  0.1252  0.1837  0.5341
  506MOL0     C69744   5.815   1.595   8.109  0.0416  0.5342  0.3275
  506MOL0     C69745   5.697   1.901   7.840 -0.1830  0.1263 -0.5810
  506MOL0     C69746   5.764   1.955   7.726  0.9001  0.7157 -0.5131
  506MOL0     C69747   5.721   2.072   7.660  0.4404  0.8773 -0.0575
  506MOL0     C69748   5.622   2.149   7.714  1.2059  0.6944  0.4151
  506MOL0     O69749   5.593   2.256   7.640 -0.1631 -0.5203 -0.2414
  506MOL0     C69750   5.605   2.388   7.687  0.0805  0.2318  0.0686
  506MOL0     C69751   5.757   2.421   7.671  0.9092  1.9117 -0.7791
  506MOL0     C69752   5.791   2.539   7.760 -0.4607 -0.1047 -0.5483
  506MOL0     C69753   5.775   2.678   7.678  1.3663 -0.7879 -0.3626
  506MOL0     C69754   5.631   2.727   7.668  0.4131  0.5252 -0.5742
  506MOL0     C69755   5.519   2.773   7.659 -1.0980  0.4232  0.0216
  506MOL0     C69756   5.545   2.094   7.815  0.0199 -0.6967 -0.0786
  506MOL0     C69757   5.586   1.977   7.887  0.0719  1.6551 -0.5023
  506MOL0     C69758   5.490   1.917   7.989  0.9766 -0.1412  0.1899
  506MOL0     H69759   5.487   1.527   8.037  0.6217  0.6706 -1.7112
  506MOL0     H69760   5.539   1.323   8.165 -1.6559  2.9328  0.7112
  506MOL0     H69761   5.973   1.245   8.311  1.0123 -0.6248 -0.8262
  506MOL0     H69762   5.960   1.192   8.148 -1.2011 -0.4279 -0.6776
  506MOL0     H69763   5.862   1.023   8.381 -0.5277  0.6916 -0.5759
  506MOL0     H69764   5.847   0.979   8.216 -0.8102  1.8176 -1.4329
  506MOL0     H69765   6.103   1.003   8.223 -1.8128  2.7795 -0.7722
  506MOL0     H69766   6.090   1.066   8.385  1.6372  1.2764 -2.1527
  506MOL0     H69767   6.027   0.845   8.474  0.1349 -2.5451  0.4071
  506MOL0     H69768   5.973   0.784   8.329  0.3818  1.2996 -0.7071
  506MOL0     H69769   6.204   0.745   8.240 -1.1046  1.4487 -1.0290
  506MOL0     H69770   6.155   0.659   8.378  1.3103  0.3837 -0.0642
  506MOL0     H69771   6.340   0.901   8.364 -1.4671 -1.2428 -2.3484
  506MOL0     H69772   6.247   0.860   8.516  2.2289 -0.6509  0.5726
  506MOL0     H69773   6.391   0.629   8.383  0.6803 -0.0903 -0.3494
  506MOL0     H69774   6.364   0.657   8.551 -3.2716  1.1891 -0.2038
  506MOL0     H69775   6.549   0.824   8.381  0.4741 -0.4579  0.0403
  506MOL0     H69776   6.531   0.848   8.548  1.9425 -1.7772  0.7996
  506MOL0     H69777   6.691   0.569   8.330  0.3208  0.2183 -0.5295
  506MOL0     H69778   6.914   0.382   8.441 -0.0529 -1.3563  0.8137
  506MOL0     H69779   6.951   0.416   8.601  1.7798  0.4002 -0.2785
  506MOL0     H69780   6.995   0.630   8.383 -0.1017  0.2103  1.6260
  506MOL0     H69781   7.089   0.628   8.523  1.1407 -0.7612  0.9478
  506MOL0     H69782   7.098   0.400   8.322 -0.3364  1.6118 -2.3510
  506MOL0     H69783   7.218   0.518   8.321 -2.1102 -2.6845 -3.1282
  506MOL0     H69784   7.150   0.320   8.543  0.7943 -0.4472 -0.8229
  506MOL0     H69785   7.276   0.305   8.441  0.5211 -0.3686  0.8128
  506MOL0     H69786   7.452   0.652   8.582  0.3803  0.7285  0.3807
  506MOL0     H69787   7.695   0.722   8.751 -1.4103  0.0306  0.4341
  506MOL0     H69788   7.647   0.740   8.589 -0.1837  0.6742  0.3471
  506MOL0     H69789   7.789   0.640   8.605 -1.9995 -1.3048 -1.3082
  506MOL0     H69790   7.842   0.289   9.134  0.8050 -0.1500  1.5758
  506MOL0     H69791   7.999   0.327   9.292 -5.1378  0.0942 -1.1428
  506MOL0     H69792   8.439   0.382   9.151  0.4644 -0.8525  0.6356
  506MOL0     H69793   8.323   0.508   9.197  0.1860 -0.0645  1.4182
  506MOL0     H69794   8.374   0.493   9.429  0.7094 -0.0571  1.1315
  506MOL0     H69795   8.427   0.322   9.413 -2.9076  0.0027  0.2586
  506MOL0     H69796   8.582   0.574   9.316  2.3302  1.4479  2.9626
  506MOL0     H69797   8.636   0.407   9.291  2.0968 -0.8658  3.8226
  506MOL0     H69798   8.650   0.388   9.541  1.9626 -0.1178  0.2967
  506MOL0     H69799   8.586   0.558   9.545  0.4375 -2.6560  3.9889
  506MOL0     H69800   8.840   0.507   9.397 -0.3655 -0.2046 -0.2565
  506MOL0     H69801   8.799   0.646   9.505  0.2693  0.4670  1.0851
  506MOL0     H69802   8.871   0.373   9.571 -1.6146  0.8005 -0.6528
  506MOL0     H69803   8.813   0.477   9.699  1.7961 -0.7206  1.6077
  506MOL0     H69804   8.999   0.649   9.636 -3.2393 -0.0359  1.0471
  506MOL0     H69805   9.056   0.517   9.534 -1.3146  1.9406 -1.5191
  506MOL0     H69806   9.089   0.374   9.729  3.5232 -0.1691 -1.4381
  506MOL0     H69807   9.006   0.485   9.834  0.7771 -1.2359  0.1815
  506MOL0     H69808   8.285   0.328   8.967  0.6553 -3.8807 -0.7509
  506MOL0     H69809   8.107   0.318   8.803  2.5567  0.3502 -0.0663
  506MOL0     H69810   7.610   0.218   8.763 -0.9353  0.5151  0.9750
  506MOL0     H69811   7.395   0.236   8.668 -0.2793  0.0555  0.5127
  506MOL0     H69812   5.950   1.456   8.215  0.1643 -0.0817  0.2947
  506MOL0     H69813   5.891   1.672   8.095  1.7317 -0.8253  1.5255
  506MOL0     H69814   5.847   1.903   7.679  0.0580  0.5649 -1.8907
  506MOL0     H69815   5.769   2.113   7.572 -1.4389 -2.8513 -3.0629
  506MOL0     H69816   5.549   2.456   7.623 -0.8275 -2.0663 -1.7059
  506MOL0     H69817   5.574   2.398   7.791  0.9341  1.4906  0.2244
  506MOL0     H69818   5.775   2.439   7.565  1.1887 -0.6705 -1.2273
  506MOL0     H69819   5.811   2.332   7.704  3.2084  1.8454 -4.2258
  506MOL0     H69820   5.730   2.541   7.851  1.4448  2.2428  0.8061
  506MOL0     H69821   5.896   2.534   7.792  0.0595  2.4683 -1.5867
  506MOL0     H69822   5.820   2.668   7.579  3.5031  2.0383  0.1851
  506MOL0     H69823   5.826   2.765   7.720  1.5182  0.7605 -3.5123
  506MOL0     H69824   5.423   2.814   7.639 -1.6378  0.6618  2.7633
  506MOL0     H69825   5.463   2.159   7.842  0.9802  0.8995 -0.8046
  506MOL0     H69826   5.401   1.979   8.003  0.3577 -0.8741 -0.4382
  506MOL0     H69827   5.435   1.835   7.943 -0.4436  0.8626  0.0462
  506MOL0     H69828   5.537   1.873   8.078  2.1106 -2.0947 -1.2930
  507MOL0     O69829   5.250   8.590   4.422 -0.2199  0.3668  0.1260
  507MOL0     C69830   5.131   8.632   4.395  0.5339 -0.1407 -0.6029
  507MOL0     O69831   5.088   8.694   4.271 -0.1876 -0.1556 -0.3807
  507MOL0     C69832   5.167   8.781   4.204  0.6985 -0.9862  0.1703
  507MOL0     C69833   5.266   8.857   4.270 -0.0581 -0.0423  0.4101
  507MOL0     C69834   5.351   8.936   4.192 -0.8563  1.2074 -0.1191
  507MOL0     C69835   5.335   8.945   4.052  0.3431 -0.0408 -0.4594
  507MOL0     O69836   5.442   9.008   3.996  0.0597  0.4400 -0.3498
  507MOL0     C69837   5.457   8.987   3.853 -0.0712 -0.0794 -0.0104
  507MOL0     C69838   5.580   9.061   3.794  0.6764 -0.1560 -0.5636
  507MOL0     C69839   5.629   9.010   3.660  0.8071 -0.0053  0.1860
  507MOL0     C69840   5.726   9.101   3.591  0.9376 -0.0295  0.0429
  507MOL0     C69841   5.777   9.039   3.461  0.1393  0.1473  0.6622
  507MOL0     C69842   5.921   9.082   3.433 -0.8112  0.1807  0.1943
  507MOL0     C69843   5.985   8.985   3.333  0.0874  0.1669  0.0595
  507MOL0     C69844   6.063   9.058   3.224 -0.8833 -0.2611 -0.2494
  507MOL0     N69845   6.183   9.126   3.281  0.1384  0.6462 -0.5778
  507MOL0     C69846   6.296   9.062   3.311  0.2514  0.1887 -1.0076
  507MOL0     C69847   6.356   9.148   3.394  0.0184 -1.2724  0.0867
  507MOL0     C69848   6.498   9.119   3.450 -0.3044 -0.6786 -0.8064
  507MOL0     C69849   6.607   9.178   3.362 -0.6968  1.4908  0.3672
  507MOL0     C69850   6.746   9.165   3.435 -0.2338 -0.4537 -0.1162
  507MOL0     C69851   6.848   9.231   3.353  0.1040 -0.6055 -0.5477
  507MOL0     O69852   6.823   9.370   3.365  0.5922 -0.9089  0.7435
  507MOL0     C69853   6.928   9.459   3.330 -0.1407 -0.0892  0.0642
  507MOL0     C69854   7.015   9.430   3.229  0.4460 -0.4577  0.0432
  507MOL0     C69855   7.128   9.508   3.206 -0.0183 -0.1731  1.1991
  507MOL0     C69856   7.225   9.465   3.097  0.0104 -0.2963 -1.0183
  507MOL0     C69857   7.154   9.618   3.288 -0.1079 -0.1479  0.1514
  507MOL0     C69858   7.271   9.704   3.268 -0.7250 -0.3188 -0.0601
  507MOL0     O69859   7.313   9.765   3.382 -0.4488 -0.1617  0.3162
  507MOL0     C69860   7.431   9.844   3.406  0.1301 -0.6034 -0.4653
  507MOL0     C69861   7.511   9.896   3.303 -0.1528 -0.5474 -1.3428
  507MOL0     C69862   7.629   9.972   3.331 -0.0558 -0.0422 -0.8459
  507MOL0     C69863   7.670  10.011   3.462  0.6718 -0.2692 -0.0457
  507MOL0     O69864   7.779  10.083   3.502 -0.1768  0.4817  0.6491
  507MOL0     C69865   7.881  10.118   3.409  0.9477 -0.3602  0.8621
  507MOL0     C69866   8.011  10.158   3.478  0.3425 -0.3312 -0.3570
  507MOL0     C69867   8.090  10.038   3.533  0.5989  0.2459  0.2815
  507MOL0     C69868   8.206  10.076   3.619 -0.5970  0.3258 -1.2242
  507MOL0     C69869   8.286   9.951   3.663 -0.4163  0.3846  0.1894
  507MOL0     C69870   8.382   9.997   3.774 -0.3071 -0.1404 -0.0515
  507MOL0     C69871   8.464   9.874   3.814  0.0307  0.2878 -0.3183
  507MOL0     C69872   8.574   9.911   3.910 -0.9577 -0.2274  0.1244
  507MOL0    Cl69873   8.701   9.793   3.846  0.0238 -0.3230 -0.2349
  507MOL0     C69874   7.583   9.960   3.566  0.2019  0.5157  0.2475
  507MOL0     C69875   7.467   9.880   3.542  0.3621  0.2408 -0.1214
  507MOL0     O69876   7.316   9.735   3.159 -1.0063 -0.5935  0.3790
  507MOL0     C69877   7.066   9.643   3.400  0.2234 -0.1028  1.1170
  507MOL0     C69878   6.954   9.565   3.414 -0.2471 -0.1495 -0.0340
  507MOL0     N69879   6.294   9.271   3.397  0.3775 -0.1101  0.0058
  507MOL0     N69880   6.182   9.256   3.326  0.3168 -0.3705  0.6497
  507MOL0     C69881   5.223   8.881   3.992  0.0277  0.7798  0.2656
  507MOL0     C69882   5.145   8.796   4.068  0.6500  0.8973 -0.4724
  507MOL0     C69883   5.025   8.597   4.489  0.4272  0.4989  0.5122
  507MOL0     C69884   5.060   8.491   4.576 -0.0437 -0.3256 -0.1670
  507MOL0     C69885   4.959   8.427   4.658 -1.2203  0.4028  0.2752
  507MOL0     C69886   4.831   8.473   4.673  0.3404 -1.6956  0.7062
  507MOL0     O69887   4.747   8.406   4.753 -0.7657 -0.3243  0.2538
  507MOL0     C69888   4.610   8.437   4.781 -0.9508 -0.3192  0.0885
  507MOL0     C69889   4.505   8.389   4.684 -0.2739  0.2260  0.6725
  507MOL0     C69890   4.543   8.235   4.659  0.8407  0.1099  0.9373
  507MOL0     C69891   4.432   8.162   4.583  0.4821  0.2216  0.2351
  507MOL0     C69892   4.321   8.126   4.680 -0.3905  0.8222 -0.1345
  507MOL0     C69893   4.231   8.110   4.764  0.2343 -0.2786  0.0428
  507MOL0     C69894   4.810   8.596   4.601 -0.0082  0.8595  0.6436
  507MOL0     C69895   4.895   8.655   4.504  1.0044  0.2492  0.3447
  507MOL0     C69896   4.846   8.767   4.413 -0.5116 -0.4494  0.5129
  507MOL0     H69897   5.281   8.858   4.377 -1.7524  2.1301  0.6849
  507MOL0     H69898   5.444   8.968   4.239 -0.2739  1.5796 -1.4684
  507MOL0     H69899   5.365   9.020   3.805 -0.9920 -0.6418  1.3078
  507MOL0     H69900   5.458   8.881   3.824 -2.4034 -0.6668  1.8007
  507MOL0     H69901   5.553   9.167   3.787 -0.7320 -0.5968 -4.0568
  507MOL0     H69902   5.664   9.052   3.864 -0.9976  2.2436  1.9612
  507MOL0     H69903   5.687   8.918   3.671  5.4560  2.7011  1.4460
  507MOL0     H69904   5.544   8.992   3.594  0.0528  0.8715  0.8893
  507MOL0     H69905   5.669   9.190   3.564  0.5898 -0.2906 -0.0913
  507MOL0     H69906   5.802   9.138   3.661 -0.1755 -0.3148  1.4431
  507MOL0     H69907   5.715   9.054   3.372  1.4548 -2.3879 -0.8050
  507MOL0     H69908   5.786   8.930   3.465 -1.6481 -0.0050  1.4555
  507MOL0     H69909   5.922   9.181   3.386  0.2308  0.8084  1.4949
  507MOL0     H69910   5.977   9.084   3.527 -2.8323 -0.0456  1.4522
  507MOL0     H69911   5.902   8.941   3.278  3.2471 -2.9753 -2.6737
  507MOL0     H69912   6.041   8.907   3.386  1.4579 -0.2835 -1.9404
  507MOL0     H69913   6.104   8.977   3.162  0.1352  0.5980 -0.7361
  507MOL0     H69914   6.000   9.132   3.174 -1.8105 -1.2249 -0.5444
  507MOL0     H69915   6.317   8.963   3.271 -0.7886 -0.1604 -0.7298
  507MOL0     H69916   6.498   9.011   3.466 -0.2134 -0.2530  2.8189
  507MOL0     H69917   6.513   9.177   3.542 -1.1432 -3.1208  0.9910
  507MOL0     H69918   6.609   9.124   3.267  0.3474 -1.7269  2.0775
  507MOL0     H69919   6.588   9.281   3.330  0.7999  1.1300 -1.9450
  507MOL0     H69920   6.731   9.214   3.532 -0.8903  3.4801 -2.0071
  507MOL0     H69921   6.778   9.061   3.449 -3.8413 -1.9196 -1.5358
  507MOL0     H69922   6.938   9.208   3.411 -0.8099 -0.7585  0.8438
  507MOL0     H69923   6.843   9.190   3.251 -0.6008 -0.0089 -0.7626
  507MOL0     H69924   6.994   9.349   3.160  0.9074 -0.4229 -0.1424
  507MOL0     H69925   7.325   9.455   3.141  0.1731 -1.2809 -1.5904
  507MOL0     H69926   7.240   9.536   3.015 -0.1472 -0.9644 -1.6396
  507MOL0     H69927   7.206   9.367   3.052  0.1237 -0.4076 -0.8257
  507MOL0     H69928   7.503   9.886   3.195  2.2579 -1.8963 -1.4601
  507MOL0     H69929   7.693  10.001   3.248  2.8613 -0.2688  1.1618
  507MOL0     H69930   7.893  10.028   3.346  0.6597 -1.5576  2.4602
  507MOL0     H69931   7.841  10.201   3.350  0.3330 -0.7034  0.7923
  507MOL0     H69932   8.069  10.223   3.411 -2.0083  2.4935  0.1670
  507MOL0     H69933   7.990  10.216   3.568  2.2104 -0.9890  0.5548
  507MOL0     H69934   8.128   9.990   3.443 -0.1814  1.1233 -0.5537
  507MOL0     H69935   8.015   9.973   3.579 -1.6664  1.9436 -0.7729
  507MOL0     H69936   8.165  10.140   3.699 -0.4586  1.6148 -2.1516
  507MOL0     H69937   8.277  10.144   3.572  1.7978  0.1518  1.8122
  507MOL0     H69938   8.214   9.881   3.705 -0.6703  0.9413  0.6873
  507MOL0     H69939   8.341   9.896   3.585  0.4250  1.3552  0.0749
  507MOL0     H69940   8.333  10.054   3.853 -0.6749  1.8083 -1.6072
  507MOL0     H69941   8.455  10.065   3.728 -1.3785  0.5200 -0.8103
  507MOL0     H69942   8.502   9.815   3.730  1.0667  1.4284 -0.6723
  507MOL0     H69943   8.408   9.794   3.863  0.1528 -0.9846 -2.1507
  507MOL0     H69944   8.553   9.908   4.017 -0.0460  2.3127  0.4416
  507MOL0     H69945   8.612  10.012   3.897  1.4851 -1.1927 -0.7487
  507MOL0     H69946   7.620   9.986   3.665 -1.7448  0.9535  0.9047
  507MOL0     H69947   7.408   9.837   3.623 -1.9706 -0.7438 -2.2033
  507MOL0     H69948   7.083   9.713   3.481 -3.4684  2.3093  0.0642
  507MOL0     H69949   6.898   9.576   3.507 -0.4818  0.0890 -0.2016
  507MOL0     H69950   5.194   8.895   3.889 -1.1783  0.4644  0.5465
  507MOL0     H69951   5.059   8.749   4.023  1.6376 -0.1251 -1.3615
  507MOL0     H69952   5.159   8.450   4.589  0.1097  0.0133 -0.2578
  507MOL0     H69953   4.992   8.340   4.714 -1.3879  0.6196  0.7085
  507MOL0     H69954   4.578   8.386   4.873 -1.2848  1.9536  1.3059
  507MOL0     H69955   4.604   8.544   4.804  1.1618 -0.1943  0.2517
  507MOL0     H69956   4.513   8.445   4.590 -1.3817  0.5492  0.7510
  507MOL0     H69957   4.406   8.403   4.729 -0.1948 -2.7249  2.0303
  507MOL0     H69958   4.625   8.239   4.587 -2.3805 -1.4395 -3.1686
  507MOL0     H69959   4.564   8.172   4.746  2.5879 -0.7700 -0.0580
  507MOL0     H69960   4.477   8.070   4.544  1.5605  1.2092 -0.9323
  507MOL0     H69961   4.388   8.218   4.500  1.0929 -2.2288 -1.8670
  507MOL0     H69962   4.153   8.079   4.830  0.1416 -0.1969 -0.0301
  507MOL0     H69963   4.713   8.642   4.613 -0.3511  0.8514 -1.6159
  507MOL0     H69964   4.860   8.747   4.307  1.3142  2.2762  0.1425
  507MOL0     H69965   4.747   8.802   4.443 -0.2500  1.1052 -0.3262
  507MOL0     H69966   4.903   8.860   4.425 -1.6260  0.4133 -0.6212
  508MOL0     O69967   8.940   9.537   1.019 -0.3620  0.5344  0.2856
  508MOL0     C69968   8.966   9.421   1.047  0.3274  0.5256 -0.5926
  508MOL0     O69969   9.055   9.343   0.980  0.2585 -0.3142  0.2656
  508MOL0     C69970   9.112   9.385   0.868  0.0825 -0.3376  0.0726
  508MOL0     C69971   9.045   9.387   0.749 -0.3776  0.5648 -0.1863
  508MOL0     C69972   9.111   9.447   0.632  1.2065 -0.1135 -0.6302
  508MOL0     C69973   9.224   9.521   0.651  0.0879 -0.8545 -0.6083
  508MOL0     O69974   9.285   9.598   0.550 -0.1052 -0.5474 -0.1923
  508MOL0     C69975   9.230   9.603   0.417 -0.5495  0.2822  0.3285
  508MOL0     C69976   9.319   9.705   0.335  0.0374  0.5546  0.1510
  508MOL0     C69977   9.448   9.633   0.282 -0.3557 -0.8249 -0.7276
  508MOL0     C69978   9.550   9.724   0.219 -0.0174 -0.0848  0.2144
  508MOL0     C69979   9.676   9.672   0.154 -0.0336  0.7509 -0.7103
  508MOL0     C69980   9.784   9.621   0.247 -0.8647  0.6086 -0.5261
  508MOL0     C69981   9.922   9.642   0.199  0.1642 -0.1883 -0.7598
  508MOL0     C69982  10.023   9.602   0.307 -0.0051 -0.4704 -0.2438
  508MOL0     N69983  10.154   9.618   0.242 -0.2976 -0.2301 -0.0188
  508MOL0     C69984  10.220   9.733   0.234  0.7499 -0.5457  0.8235
  508MOL0     C69985  10.316   9.707   0.147  0.4970 -0.9841  0.4533
  508MOL0     C69986  10.413   9.803   0.087 -0.3992 -0.7181 -0.1162
  508MOL0     C69987  10.547   9.746   0.042  0.1583 -0.1025  0.1113
  508MOL0     C69988  10.546   9.696  -0.104 -0.6757 -0.6104  0.4154
  508MOL0     C69989  10.682   9.635  -0.142  0.2638 -0.1377  0.0063
  508MOL0     O69990  10.799   9.720  -0.134 -0.0032  0.2450 -0.2754
  508MOL0     C69991  10.927   9.679  -0.103 -0.1104  0.1189  0.4385
  508MOL0     C69992  10.958   9.543  -0.080 -0.1981 -0.7881  0.2137
  508MOL0     C69993  11.093   9.502  -0.058 -0.1610  0.2590  0.8142
  508MOL0     C69994  11.130   9.358  -0.032 -0.0158 -0.4964 -0.0287
  508MOL0     C69995  11.192   9.607  -0.054 -0.6865 -0.4900  0.2404
  508MOL0     C69996  11.342   9.583  -0.030 -0.5081 -0.2727 -0.3815
  508MOL0     O69997  11.401   9.466  -0.023 -0.0347 -0.3549  0.7481
  508MOL0     C69998  11.520   9.463   0.038 -0.3134  0.2585 -0.9398
  508MOL0     C69999  11.639   9.452  -0.033  0.0528 -0.2539  0.0230
  508MOL0     C70000  11.757   9.440   0.034 -1.0261  0.0307 -0.3870
  508MOL0     C70001  11.765   9.434   0.170 -0.7688 -0.1311  0.5064
  508MOL0     O70002  11.892   9.434   0.220 -0.4395  0.1287  1.0795
  508MOL0     C70003  11.915   9.468   0.351 -0.6743  0.9921 -0.5792
  508MOL0     C70004  12.067   9.455   0.379 -0.3887 -0.5759 -0.1705
  508MOL0     C70005  12.117   9.311   0.356  0.5338 -0.2813 -0.7703
  508MOL0     C70006  12.262   9.285   0.398  0.2031  0.0077  0.1130
  508MOL0     C70007  12.311   9.163   0.324  0.9874  0.4003 -0.5458
  508MOL0     C70008  12.449   9.127   0.374 -0.3936 -0.2299 -0.3516
  508MOL0     C70009  12.433   9.077   0.520 -0.4009 -0.1922  0.5908
  508MOL0     C70010  12.551   8.986   0.560  0.1316  0.4658 -0.2995
  508MOL0    Cl70011  12.533   8.931   0.733 -0.2754  0.2998 -0.2282
  508MOL0     C70012  11.644   9.441   0.242 -0.7280  0.8400 -0.7298
  508MOL0     C70013  11.523   9.455   0.175  0.2565  0.0716 -0.5468
  508MOL0     O70014  11.408   9.691  -0.016  0.3590 -0.1645 -0.0532
  508MOL0     C70015  11.150   9.739  -0.069 -1.1424  0.1057  0.1320
  508MOL0     C70016  11.025   9.768  -0.084 -0.0045  0.0573  0.3765
  508MOL0     N70017  10.311   9.572   0.113  0.1773  0.2762  0.5711
  508MOL0     N70018  10.210   9.520   0.168  0.2025  1.2131  0.2005
  508MOL0     C70019   9.285   9.517   0.777 -0.0534  0.3037 -0.2534
  508MOL0     C70020   9.227   9.450   0.885 -0.3405 -0.3528  1.0371
  508MOL0     C70021   8.951   9.379   1.187 -0.2134 -0.0042 -0.5054
  508MOL0     C70022   9.045   9.290   1.242 -0.0834  0.1970 -0.1443
  508MOL0     C70023   9.040   9.252   1.376  0.0041 -1.3297  0.1440
  508MOL0     C70024   8.946   9.302   1.454 -0.2115 -0.3157  0.3545
  508MOL0     O70025   8.950   9.276   1.588  0.1217 -0.1777  0.3606
  508MOL0     C70026   8.838   9.201   1.627 -0.3743 -0.5291  0.4288
  508MOL0     C70027   8.858   9.158   1.764 -0.8663  0.2462 -0.8566
  508MOL0     C70028   8.903   9.266   1.868 -0.2489  0.8433  0.4323
  508MOL0     C70029   8.970   9.193   1.989 -0.1435  0.0316 -0.3484
  508MOL0     C70030   8.994   9.292   2.093  0.2128 -0.2763  0.0489
  508MOL0     C70031   9.020   9.370   2.181 -0.6460 -0.6021 -0.0516
  508MOL0     C70032   8.848   9.390   1.402  0.3119  0.9735 -0.1590
  508MOL0     C70033   8.847   9.425   1.267  0.1267 -0.0557 -0.3930
  508MOL0     C70034   8.731   9.511   1.219 -0.4700 -0.6928  0.3784
  508MOL0     H70035   8.958   9.323   0.747  0.3634 -0.6677  2.4494
  508MOL0     H70036   9.062   9.447   0.535  1.5986  0.1737 -0.8318
  508MOL0     H70037   9.130   9.648   0.413 -1.3015 -1.3670 -0.1216
  508MOL0     H70038   9.246   9.509   0.364  2.3599  1.5378 -1.2830
  508MOL0     H70039   9.270   9.740   0.243 -0.9749 -3.8807 -1.2574
  508MOL0     H70040   9.353   9.783   0.403  3.5315 -1.8638  1.4748
  508MOL0     H70041   9.496   9.568   0.356 -1.0859 -0.2995  0.2357
  508MOL0     H70042   9.416   9.565   0.202  0.8531 -2.5713  0.2068
  508MOL0     H70043   9.507   9.786   0.140 -0.2129 -0.2799  0.1670
  508MOL0     H70044   9.575   9.794   0.299  1.4460 -2.3248  1.8400
  508MOL0     H70045   9.724   9.757   0.105 -0.9024  3.2123  2.3512
  508MOL0     H70046   9.647   9.605   0.073  0.0725 -0.9273  0.5865
  508MOL0     H70047   9.776   9.680   0.339  0.5531 -0.2162  0.1666
  508MOL0     H70048   9.768   9.517   0.273  1.0304 -0.1957 -2.2454
  508MOL0     H70049   9.928   9.748   0.173  0.9200 -0.2219 -0.7370
  508MOL0     H70050   9.937   9.577   0.112 -0.8779 -0.2478 -0.9083
  508MOL0     H70051  10.027   9.660   0.399  2.4031 -3.9583  2.0625
  508MOL0     H70052  10.004   9.501   0.345  2.7008 -0.8215  0.3273
  508MOL0     H70053  10.201   9.832   0.273  1.3281  0.4680 -1.2991
  508MOL0     H70054  10.445   9.871   0.166  1.2600 -1.6652  0.0704
  508MOL0     H70055  10.364   9.857   0.005  1.0836  3.0078  1.1936
  508MOL0     H70056  10.629   9.817   0.056 -0.2878  0.2415  1.0428
  508MOL0     H70057  10.569   9.660   0.106  0.2403  1.2957  2.0522
  508MOL0     H70058  10.460   9.631  -0.120 -1.4224 -1.0263  4.7614
  508MOL0     H70059  10.535   9.781  -0.172  1.1619 -1.0297 -0.4575
  508MOL0     H70060  10.693   9.567  -0.057  0.9247  1.6956  1.4426
  508MOL0     H70061  10.680   9.595  -0.244  5.0550  0.0475 -0.3875
  508MOL0     H70062  10.879   9.469  -0.074 -0.1528 -1.1548 -2.4280
  508MOL0     H70063  11.156   9.350   0.074  1.0770  0.1919 -0.2261
  508MOL0     H70064  11.217   9.331  -0.092  1.6132  2.1808  0.9515
  508MOL0     H70065  11.056   9.282  -0.058 -0.9144 -1.3652  4.2410
  508MOL0     H70066  11.637   9.446  -0.141 -1.1673 -1.3800  0.0830
  508MOL0     H70067  11.847   9.439  -0.027 -1.1359  0.9286 -0.5784
  508MOL0     H70068  11.878   9.565   0.384 -1.5311  0.0478  1.4483
  508MOL0     H70069  11.858   9.394   0.409 -1.5935  0.2753 -2.3113
  508MOL0     H70070  12.114   9.533   0.319  2.3242 -1.7616  0.2762
  508MOL0     H70071  12.084   9.476   0.485  3.4172 -0.8672 -0.5912
  508MOL0     H70072  12.105   9.290   0.249 -0.6578  1.7535 -1.0824
  508MOL0     H70073  12.055   9.252   0.425  0.5560  1.8532  1.1782
  508MOL0     H70074  12.266   9.276   0.507 -0.6838 -1.4647  0.0469
  508MOL0     H70075  12.337   9.361   0.370  0.2566  0.0071  0.2543
  508MOL0     H70076  12.246   9.075   0.338  0.4452  0.9146  0.2622
  508MOL0     H70077  12.319   9.184   0.217  0.2831 -0.9606 -0.9027
  508MOL0     H70078  12.510   9.218   0.385 -2.6544  1.2920  0.2701
  508MOL0     H70079  12.490   9.061   0.297 -0.1032  2.7115 -2.9303
  508MOL0     H70080  12.335   9.032   0.536 -1.3440  2.4441  3.1638
  508MOL0     H70081  12.437   9.161   0.589  0.1205 -1.3464  2.0250
  508MOL0     H70082  12.645   9.038   0.538 -0.5398  2.5852  1.4867
  508MOL0     H70083  12.559   8.891   0.506  0.8427 -0.2501  1.0090
  508MOL0     H70084  11.634   9.420   0.348 -1.3707  2.6305 -0.4013
  508MOL0     H70085  11.425   9.456   0.222  0.5683  1.6542  0.1419
  508MOL0     H70086  11.226   9.816  -0.081 -1.0153 -0.4284 -3.3724
  508MOL0     H70087  11.013   9.873  -0.107 -1.1843  0.0657  0.9982
  508MOL0     H70088   9.362   9.587   0.809  0.3908 -1.1383  2.0191
  508MOL0     H70089   9.267   9.445   0.986 -0.2362 -1.6844  0.9402
  508MOL0     H70090   9.129   9.259   1.181  0.4019  0.0502  0.5882
  508MOL0     H70091   9.121   9.201   1.427  1.6349 -0.7777 -1.7609
  508MOL0     H70092   8.748   9.264   1.625 -0.4710 -0.6711 -1.5681
  508MOL0     H70093   8.833   9.108   1.570  1.9887 -1.6197  1.8694
  508MOL0     H70094   8.938   9.085   1.756 -1.5559 -0.6430  0.1552
  508MOL0     H70095   8.762   9.114   1.793  0.1550 -1.2910  0.3556
  508MOL0     H70096   8.979   9.328   1.819  1.8266 -0.3784  1.9377
  508MOL0     H70097   8.818   9.327   1.900 -1.9596 -1.6369  0.9669
  508MOL0     H70098   9.071   9.159   1.963  0.3447  0.2664  1.1770
  508MOL0     H70099   8.911   9.110   2.030  1.5208 -0.2631  1.5938
  508MOL0     H70100   9.051   9.444   2.253  0.6430  0.4461 -1.6120
  508MOL0     H70101   8.772   9.422   1.473  0.6048  0.3580  0.4456
  508MOL0     H70102   8.709   9.469   1.120  0.6765  2.1695 -1.2108
  508MOL0     H70103   8.649   9.515   1.291  0.2103  0.1438  1.1229
  508MOL0     H70104   8.753   9.618   1.216  0.2345 -0.8456 -0.7940
  509MOL0     O70105   9.933   9.705   9.024 -0.4445  0.1297 -0.1372
  509MOL0     C70106   9.948   9.829   9.046 -0.4830 -0.1512  0.4037
  509MOL0     O70107  10.069   9.896   9.051 -0.1340 -0.1012 -0.5100
  509MOL0     C70108  10.180   9.819   9.045  0.3937  0.1717 -0.1160
  509MOL0     C70109  10.235   9.754   9.163  0.2418 -0.1868 -0.9009
  509MOL0     C70110  10.334   9.649   9.147  0.8009 -0.1646 -0.1085
  509MOL0     C70111  10.380   9.620   9.026  0.7902  1.2614  0.4050
  509MOL0     O70112  10.483   9.532   8.999 -0.5317  0.1649  0.5333
  509MOL0     C70113  10.534   9.442   9.108  0.3766 -1.0347 -0.5721
  509MOL0     C70114  10.583   9.310   9.037  0.5654 -1.1134  0.4615
  509MOL0     C70115  10.676   9.345   8.919 -0.6190 -0.1333 -0.2798
  509MOL0     C70116  10.666   9.234   8.816  1.0838  0.3868 -0.1164
  509MOL0     C70117  10.750   9.244   8.693  0.3921  0.5609  1.0929
  509MOL0     C70118  10.897   9.252   8.723 -0.2044  0.7752 -0.0973
  509MOL0     C70119  10.973   9.209   8.589  0.8140 -0.0749  0.7659
  509MOL0     C70120  11.119   9.206   8.604 -0.0053  0.0587  1.2076
  509MOL0     N70121  11.166   9.097   8.697  0.8314 -0.5700 -0.7071
  509MOL0     C70122  11.214   8.982   8.652  0.3939  0.9442 -0.0755
  509MOL0     C70123  11.266   8.928   8.763 -0.2472  0.1060 -0.0664
  509MOL0     C70124  11.343   8.801   8.759 -0.3281  0.1777 -0.4304
  509MOL0     C70125  11.485   8.816   8.786 -0.2539 -0.3758 -0.0478
  509MOL0     C70126  11.556   8.892   8.671 -0.1570  0.9496  0.3237
  509MOL0     C70127  11.705   8.922   8.701  0.7904 -0.3810  0.8285
  509MOL0     O70128  11.768   8.799   8.703  0.1283  0.6428  0.5795
  509MOL0     C70129  11.902   8.787   8.699 -0.4058  0.6229  0.5346
  509MOL0     C70130  11.964   8.679   8.640  0.4075 -0.2257  0.0967
  509MOL0     C70131  12.104   8.681   8.629 -0.6968 -0.8354 -0.7412
  509MOL0     C70132  12.161   8.567   8.559 -0.9886 -0.4194  0.2850
  509MOL0     C70133  12.187   8.794   8.668  0.4308  0.3982 -0.7241
  509MOL0     C70134  12.326   8.827   8.623 -1.2475  0.4848 -0.3644
  509MOL0     O70135  12.378   8.764   8.516  0.0115  0.1422 -0.7989
  509MOL0     C70136  12.512   8.750   8.492 -0.4500 -0.8673  0.7218
  509MOL0     C70137  12.560   8.630   8.435  1.1773 -0.5984  0.4205
  509MOL0     C70138  12.688   8.617   8.382  0.1402  0.1431 -0.1753
  509MOL0     C70139  12.781   8.722   8.385 -0.1924 -0.2963  0.4541
  509MOL0     O70140  12.903   8.696   8.326 -0.3781  0.1380  0.1370
  509MOL0     C70141  12.990   8.815   8.310 -0.4947  1.1969 -0.5722
  509MOL0     C70142  13.111   8.784   8.215  0.6124  0.5318 -0.2918
  509MOL0     C70143  13.214   8.896   8.228 -0.5301 -0.2520  0.8370
  509MOL0     C70144  13.352   8.863   8.172 -0.3483 -0.4341 -0.6821
  509MOL0     C70145  13.465   8.958   8.207 -1.1963 -0.1461  0.8741
  509MOL0     C70146  13.593   8.906   8.149 -0.0622  0.1081  0.4497
  509MOL0     C70147  13.710   8.993   8.204  0.0848  0.2904  0.3670
  509MOL0     C70148  13.724   8.978   8.359  0.5586  0.3228  0.5060
  509MOL0    Cl70149  13.900   9.000   8.400  0.0910 -0.2341  0.2078
  509MOL0     C70150  12.738   8.839   8.452 -0.2771 -0.8641  0.3570
  509MOL0     C70151  12.610   8.858   8.497 -0.0266  0.5290 -0.5944
  509MOL0     O70152  12.396   8.906   8.693  0.2139 -0.3013 -0.1107
  509MOL0     C70153  12.114   8.894   8.741 -0.2134  0.0333 -0.1994
  509MOL0     C70154  11.979   8.890   8.755 -0.5237 -0.0151 -0.3552
  509MOL0     N70155  11.263   9.020   8.868  0.2667  0.2977  0.3580
  509MOL0     N70156  11.198   9.121   8.823 -1.1879  0.2047  0.0641
  509MOL0     C70157  10.334   9.691   8.921 -0.4833  0.5159  0.3757
  509MOL0     C70158  10.233   9.790   8.924  0.6850  0.3557  0.1876
  509MOL0     C70159   9.827   9.901   9.100  0.1887 -0.4567 -0.4570
  509MOL0     C70160   9.839  10.037   9.155 -0.4142  0.8009  0.8715
  509MOL0     C70161   9.728  10.104   9.207  0.2547 -0.0007  0.7251
  509MOL0     C70162   9.593  10.056   9.197 -0.2076 -1.4076  0.5227
  509MOL0     O70163   9.498  10.145   9.257 -0.2581 -0.3067 -0.3266
  509MOL0     C70164   9.366  10.102   9.265  0.1685 -0.0937 -0.8832
  509MOL0     C70165   9.296  10.229   9.327  0.4408 -0.0502  1.0656
  509MOL0     C70166   9.138  10.214   9.349 -0.3117 -0.1198 -0.0554
  509MOL0     C70167   9.055  10.222   9.224  0.0431  0.3151 -1.0262
  509MOL0     C70168   8.911  10.179   9.241 -0.0002 -0.1353  0.6541
  509MOL0     C70169   8.788  10.166   9.253  0.0029  0.6394 -0.6929
  509MOL0     C70170   9.578   9.934   9.127  0.6982 -0.6114  0.4940
  509MOL0     C70171   9.694   9.862   9.074 -0.0644  0.4313  0.0224
  509MOL0     C70172   9.649   9.752   8.991  0.6314  0.0297  0.0857
  509MOL0     H70173  10.199   9.770   9.264  1.5457 -2.3907 -0.0278
  509MOL0     H70174  10.361   9.591   9.234  0.5370 -0.2728 -0.0977
  509MOL0     H70175  10.451   9.426   9.179  2.9407  1.1488  3.3205
  509MOL0     H70176  10.614   9.493   9.162 -1.3981  1.7776 -0.4124
  509MOL0     H70177  10.646   9.249   9.103  3.0810 -0.3178 -1.0783
  509MOL0     H70178  10.497   9.249   9.005  2.3207 -1.5718 -4.1593
  509MOL0     H70179  10.659   9.445   8.879 -2.1343  0.1909  1.0753
  509MOL0     H70180  10.775   9.342   8.965 -0.0348 -0.8104 -1.5072
  509MOL0     H70181  10.690   9.135   8.856  1.5177 -0.0860 -1.4799
  509MOL0     H70182  10.562   9.233   8.782  0.4650  2.0164  1.5882
  509MOL0     H70183  10.714   9.320   8.624 -1.1059  0.0318  1.2448
  509MOL0     H70184  10.715   9.153   8.643 -1.9255  2.6479 -1.3489
  509MOL0     H70185  10.931   9.354   8.744 -1.3806  0.9713  0.9940
  509MOL0     H70186  10.924   9.189   8.808 -5.5608 -2.6618 -0.4926
  509MOL0     H70187  10.944   9.272   8.504 -2.3613  2.0157  3.1859
  509MOL0     H70188  10.945   9.104   8.572 -1.6012  0.2918  2.0629
  509MOL0     H70189  11.162   9.205   8.503 -0.4773  2.4979  0.9157
  509MOL0     H70190  11.155   9.300   8.648  0.6596 -1.1271  3.3460
  509MOL0     H70191  11.212   8.939   8.552  1.5821 -0.2103  0.3760
  509MOL0     H70192  11.341   8.761   8.657 -0.5064  1.9078 -1.1494
  509MOL0     H70193  11.302   8.733   8.834 -0.0973 -0.2767 -0.7163
  509MOL0     H70194  11.505   8.855   8.886 -2.1009  0.7969 -0.1081
  509MOL0     H70195  11.526   8.714   8.786 -0.2846 -0.4195 -1.6304
  509MOL0     H70196  11.548   8.834   8.578 -1.0135  2.3766 -0.5340
  509MOL0     H70197  11.514   8.993   8.657  3.3139  2.3600 -0.8516
  509MOL0     H70198  11.737   8.982   8.615 -2.7392 -0.7790 -0.9682
  509MOL0     H70199  11.711   8.977   8.795  2.1271  0.0720  0.4981
  509MOL0     H70200  11.903   8.595   8.607  2.0558 -0.6446 -2.0933
  509MOL0     H70201  12.267   8.547   8.576 -0.5240  0.9099 -0.9601
  509MOL0     H70202  12.156   8.585   8.452 -0.9032 -0.1175  0.3326
  509MOL0     H70203  12.110   8.473   8.586 -2.7513  0.9667  2.1551
  509MOL0     H70204  12.489   8.548   8.437  2.0895 -1.5545 -2.2930
  509MOL0     H70205  12.728   8.539   8.319  2.0012  1.9249 -1.3078
  509MOL0     H70206  12.936   8.906   8.283 -4.0267 -0.2851  0.8641
  509MOL0     H70207  13.044   8.834   8.403  1.7868  1.5241 -1.8811
  509MOL0     H70208  13.159   8.690   8.242 -0.2863 -0.2244 -1.2348
  509MOL0     H70209  13.074   8.770   8.113 -0.2705  2.1588 -0.2368
  509MOL0     H70210  13.223   8.910   8.336 -0.5507 -2.1667  1.1152
  509MOL0     H70211  13.176   8.989   8.185  1.4770  1.0232  1.6701
  509MOL0     H70212  13.353   8.860   8.062  1.4275 -0.6419 -0.6812
  509MOL0     H70213  13.383   8.766   8.213 -0.7488 -1.5780 -2.9121
  509MOL0     H70214  13.434   9.054   8.164  0.4346 -0.3642 -0.9329
  509MOL0     H70215  13.464   8.958   8.317 -1.8624 -0.7527  0.8703
  509MOL0     H70216  13.586   8.897   8.040  2.6233  0.7697  0.1500
  509MOL0     H70217  13.619   8.807   8.188 -0.8011  0.4828  1.9733
  509MOL0     H70218  13.696   9.093   8.164 -1.2402 -0.0538 -0.0643
  509MOL0     H70219  13.804   8.954   8.162 -0.2087 -0.1421  0.1035
  509MOL0     H70220  13.672   8.887   8.391 -0.4414 -0.6621 -3.3513
  509MOL0     H70221  13.663   9.054   8.407 -1.6665 -1.7476  1.1759
  509MOL0     H70222  12.809   8.922   8.451 -1.9945  0.6877 -0.8844
  509MOL0     H70223  12.600   8.960   8.534  1.2489 -0.4672  2.9438
  509MOL0     H70224  12.183   8.973   8.768 -1.0547  0.4188  0.9327
  509MOL0     H70225  11.926   8.972   8.800 -1.3278 -0.2811 -0.8059
  509MOL0     H70226  10.374   9.671   8.822 -3.5370 -0.1119 -0.8534
  509MOL0     H70227  10.199   9.842   8.835  0.0175  1.1109  0.8744
  509MOL0     H70228   9.940  10.065   9.181  1.5552 -1.5565 -3.2866
  509MOL0     H70229   9.748  10.198   9.259 -1.0565  0.4732  0.4308
  509MOL0     H70230   9.328  10.077   9.166  3.3917 -3.4894 -1.4693
  509MOL0     H70231   9.345  10.017   9.332 -2.4459  2.0386  1.2765
  509MOL0     H70232   9.317  10.320   9.270  0.3837 -1.8391 -2.0986
  509MOL0     H70233   9.335  10.243   9.428 -0.1841  2.7450  1.0133
  509MOL0     H70234   9.117  10.121   9.402  1.7376  0.4759  1.9439
  509MOL0     H70235   9.114  10.303   9.408 -2.6796 -1.2732  0.8351
  509MOL0     H70236   9.101  10.150   9.156  1.3376 -0.3785  0.5199
  509MOL0     H70237   9.062  10.326   9.193  3.3723  0.0474 -1.4982
  509MOL0     H70238   8.683  10.155   9.272 -0.0789 -2.5215 -2.3530
  509MOL0     H70239   9.483   9.895   9.094  0.7174 -0.1566 -0.1127
  509MOL0     H70240   9.699   9.746   8.893  1.5103 -1.0246  0.5764
  509MOL0     H70241   9.671   9.656   9.039  0.3033  0.1572  0.4944
  509MOL0     H70242   9.541   9.749   8.974  0.6915  1.1272 -0.5348
  510MOL0     O70243   1.103   7.787   1.280 -0.0515 -0.6884  0.1691
  510MOL0     C70244   1.091   7.664   1.254 -0.4994  0.1571  0.2182
  510MOL0     O70245   1.174   7.595   1.173  0.4659  0.5932  0.0692
  510MOL0     C70246   1.302   7.639   1.149  0.1386  0.4929 -0.4360
  510MOL0     C70247   1.402   7.647   1.248 -0.2356  0.1499 -0.2211
  510MOL0     C70248   1.528   7.684   1.209  0.1237  0.1486 -0.8637
  510MOL0     C70249   1.576   7.708   1.084 -0.2127  0.3223  0.1673
  510MOL0     O70250   1.699   7.761   1.073 -0.5223 -0.3771  0.6056
  510MOL0     C70251   1.742   7.806   0.943 -0.0232  0.7848  0.6049
  510MOL0     C70252   1.873   7.882   0.956 -1.0522 -0.8099 -0.1534
  510MOL0     C70253   1.937   7.919   0.830 -0.5092 -0.0835  0.4267
  510MOL0     C70254   2.088   7.920   0.853 -0.7585  0.2820  0.2309
  510MOL0     C70255   2.142   7.984   0.728 -0.7310 -0.0112 -0.5649
  510MOL0     C70256   2.297   7.987   0.746  0.1100 -0.5527  0.0216
  510MOL0     C70257   2.366   8.018   0.620  0.1735 -0.0161  0.1255
  510MOL0     C70258   2.341   8.160   0.571  0.8504  0.4596 -0.6520
  510MOL0     N70259   2.407   8.205   0.450  0.7603 -0.3809 -0.3178
  510MOL0     C70260   2.403   8.149   0.325  0.6059 -0.2421  0.2143
  510MOL0     C70261   2.481   8.227   0.253 -0.1180  0.6136 -0.1933
  510MOL0     C70262   2.501   8.214   0.106  0.5924 -0.3097  0.2499
  510MOL0     C70263   2.425   8.328   0.035 -0.0387 -0.3092 -0.5877
  510MOL0     C70264   2.289   8.281  -0.016  0.2768  0.2634  0.2690
  510MOL0     C70265   2.207   8.391  -0.090  0.4867  0.5184  0.3544
  510MOL0     O70266   2.179   8.480   0.015 -1.0551  0.3092 -0.2139
  510MOL0     C70267   2.073   8.469   0.098  0.0762  0.9605 -0.1971
  510MOL0     C70268   2.094   8.491   0.234  0.4074 -0.2913  1.0686
  510MOL0     C70269   1.992   8.481   0.333  0.5506 -0.1511 -0.7053
  510MOL0     C70270   2.027   8.500   0.479 -0.0984  0.2097  0.4119
  510MOL0     C70271   1.862   8.440   0.289  0.1444 -0.5181  0.0096
  510MOL0     C70272   1.748   8.431   0.382  0.9149  0.2438 -0.0425
  510MOL0     O70273   1.625   8.452   0.319 -0.3004  0.4517 -0.4124
  510MOL0     C70274   1.516   8.457   0.405 -0.3669  0.8629 -0.7692
  510MOL0     C70275   1.437   8.353   0.429  0.5034  0.4582  0.1884
  510MOL0     C70276   1.328   8.359   0.515  0.4247 -0.5675 -1.8887
  510MOL0     C70277   1.299   8.476   0.598 -1.1708 -0.1486 -0.4780
  510MOL0     O70278   1.191   8.476   0.684 -0.1805  0.1305 -0.2773
  510MOL0     C70279   1.159   8.594   0.757 -0.0495  0.0739  0.5436
  510MOL0     C70280   1.030   8.591   0.836  0.3035 -0.1247 -0.3599
  510MOL0     C70281   0.913   8.544   0.751  0.1000 -0.5053  0.4253
  510MOL0     C70282   0.792   8.642   0.767  0.1274  0.6505  0.2755
  510MOL0     C70283   0.724   8.637   0.906 -0.6985 -1.0079  0.2291
  510MOL0     C70284   0.610   8.737   0.926  0.3264  0.2118  1.0610
  510MOL0     C70285   0.491   8.700   0.835  0.1558  0.1425  0.4540
  510MOL0     C70286   0.369   8.795   0.844 -0.2338 -0.6155  0.1295
  510MOL0    Cl70287   0.318   8.831   1.015  0.5716 -0.3162  0.0286
  510MOL0     C70288   1.382   8.584   0.561 -0.1456 -0.1035  0.2942
  510MOL0     C70289   1.492   8.578   0.474 -0.5211  0.2004 -0.3515
  510MOL0     O70290   1.764   8.394   0.495 -0.0868 -0.3488 -0.1007
  510MOL0     C70291   1.839   8.426   0.154  0.4612 -0.0730  0.5660
  510MOL0     C70292   1.941   8.442   0.055 -0.3277  0.4485 -0.3962
  510MOL0     N70293   2.546   8.321   0.333 -0.3694 -0.5168  0.0990
  510MOL0     N70294   2.491   8.309   0.453  0.5229  0.3599  0.7887
  510MOL0     C70295   1.477   7.699   0.987 -0.1843 -0.5942 -0.4947
  510MOL0     C70296   1.342   7.667   1.019 -0.2700  0.3817 -0.5924
  510MOL0     C70297   0.971   7.597   1.302  0.1831  1.3254  0.2187
  510MOL0     C70298   0.884   7.545   1.204 -0.9034  0.3661 -1.0498
  510MOL0     C70299   0.784   7.465   1.241  0.9264  0.1960  0.8335
  510MOL0     C70300   0.743   7.449   1.372  0.1471 -0.8215  0.2246
  510MOL0     O70301   0.643   7.361   1.403  0.3671 -0.0318  0.1085
  510MOL0     C70302   0.649   7.288   1.528  1.0088 -0.2698  0.0607
  510MOL0     C70303   0.520   7.199   1.528  0.2519  0.0279  0.2391
  510MOL0     C70304   0.393   7.287   1.503 -0.5071 -0.2151 -0.0473
  510MOL0     C70305   0.287   7.250   1.611  0.3640  0.1803 -0.7657
  510MOL0     C70306   0.156   7.310   1.613 -0.7463 -0.0129  0.2128
  510MOL0     C70307   0.052   7.368   1.630 -0.0791  0.3456 -0.2056
  510MOL0     C70308   0.814   7.521   1.477  0.0542  1.2020  0.2332
  510MOL0     C70309   0.928   7.593   1.439 -0.4059  0.0353  0.3036
  510MOL0     C70310   1.017   7.655   1.546  0.0319  0.0249  0.2620
  510MOL0     H70311   1.385   7.639   1.355  0.5189  0.2568 -0.0927
  510MOL0     H70312   1.592   7.700   1.296 -1.0736 -0.9829  0.2780
  510MOL0     H70313   1.666   7.866   0.893  1.8200  1.3073 -1.7566
  510MOL0     H70314   1.767   7.716   0.885 -0.9831 -1.0849  2.9407
  510MOL0     H70315   1.855   7.982   0.998  2.5142  0.4857 -1.3028
  510MOL0     H70316   1.944   7.831   1.021 -1.6098  0.1240  1.2647
  510MOL0     H70317   1.930   7.844   0.751 -0.7284 -0.6011  0.9315
  510MOL0     H70318   1.897   8.015   0.796  2.0791  1.5772  1.7724
  510MOL0     H70319   2.115   7.988   0.935  2.2661  0.0816 -0.4731
  510MOL0     H70320   2.135   7.821   0.863 -2.1170 -0.5318 -1.0129
  510MOL0     H70321   2.113   8.089   0.717 -2.0911 -0.6513 -4.8537
  510MOL0     H70322   2.109   7.928   0.641 -2.4539  0.3233 -0.1658
  510MOL0     H70323   2.331   8.063   0.816 -0.6464  0.0976 -0.3087
  510MOL0     H70324   2.347   7.893   0.772  1.8802  0.4315  0.3368
  510MOL0     H70325   2.319   7.947   0.551 -0.3646  0.6542 -0.2106
  510MOL0     H70326   2.472   7.996   0.630 -0.0414 -2.0020 -1.3606
  510MOL0     H70327   2.233   8.170   0.555  0.5980  2.0874  1.5324
  510MOL0     H70328   2.375   8.237   0.641  0.6421 -1.4140  1.6180
  510MOL0     H70329   2.339   8.069   0.289  0.7446 -1.7641  3.0908
  510MOL0     H70330   2.465   8.119   0.064 -2.2868  0.9240 -0.3385
  510MOL0     H70331   2.607   8.228   0.086  0.4154 -0.4965 -0.9199
  510MOL0     H70332   2.403   8.398   0.117 -0.9385 -2.9523  1.5796
  510MOL0     H70333   2.489   8.366  -0.045 -2.1258  1.3541 -1.5656
  510MOL0     H70334   2.307   8.199  -0.086 -3.4138 -1.2609  0.8655
  510MOL0     H70335   2.231   8.232   0.063  0.1320 -3.1545 -1.7371
  510MOL0     H70336   2.254   8.447  -0.171  0.9013  0.2657  0.4228
  510MOL0     H70337   2.111   8.356  -0.130  0.0869  1.9301  0.0089
  510MOL0     H70338   2.199   8.512   0.255 -0.1785  1.4916  2.4796
  510MOL0     H70339   2.015   8.402   0.525  2.5328 -1.2686 -1.7781
  510MOL0     H70340   1.964   8.572   0.532  0.1910 -0.8482  2.2868
  510MOL0     H70341   2.130   8.531   0.500  0.2350 -0.3544 -0.3316
  510MOL0     H70342   1.457   8.262   0.373  1.4282  1.6939 -1.5874
  510MOL0     H70343   1.264   8.272   0.517  0.0067 -0.3652  2.2614
  510MOL0     H70344   1.244   8.609   0.824 -1.5483  2.4511  2.0230
  510MOL0     H70345   1.150   8.679   0.690  1.6128 -1.6257 -2.0450
  510MOL0     H70346   1.051   8.519   0.915 -0.8793  1.5030  1.5201
  510MOL0     H70347   1.013   8.692   0.874  2.3868  0.2184 -0.2288
  510MOL0     H70348   0.889   8.441   0.776  1.1531 -1.1222 -0.9818
  510MOL0     H70349   0.936   8.556   0.645 -0.3408 -1.2771  0.2395
  510MOL0     H70350   0.728   8.599   0.689  0.3303 -0.7860  0.8588
  510MOL0     H70351   0.821   8.745   0.743 -0.2521  0.1564 -2.6601
  510MOL0     H70352   0.688   8.535   0.921 -1.6395 -0.8795 -0.9622
  510MOL0     H70353   0.789   8.659   0.991 -0.3701  1.3153 -0.5503
  510MOL0     H70354   0.653   8.836   0.908  2.2571 -0.7874 -0.1729
  510MOL0     H70355   0.580   8.733   1.031  1.3668 -1.8953  1.3306
  510MOL0     H70356   0.452   8.605   0.873 -1.3891 -0.2430 -1.9062
  510MOL0     H70357   0.524   8.696   0.731  0.9419  0.6420  0.6697
  510MOL0     H70358   0.285   8.752   0.790  0.8226 -1.9900 -0.4725
  510MOL0     H70359   0.388   8.886   0.785  1.3396 -2.7711 -2.9351
  510MOL0     H70360   1.367   8.685   0.597 -0.0971 -0.3015  0.8924
  510MOL0     H70361   1.551   8.665   0.449 -0.4565 -0.3532 -2.2362
  510MOL0     H70362   1.740   8.400   0.118 -0.2728  1.7285  1.2031
  510MOL0     H70363   1.911   8.430  -0.049  0.5897 -0.3654 -0.5828
  510MOL0     H70364   1.491   7.711   0.880 -0.6345  3.4355 -0.2452
  510MOL0     H70365   1.270   7.661   0.938 -2.1628 -1.4152  1.1283
  510MOL0     H70366   0.907   7.561   1.099  2.3264 -2.1144 -0.8779
  510MOL0     H70367   0.723   7.419   1.165  0.8870 -0.8614  1.4856
  510MOL0     H70368   0.740   7.227   1.533  1.1384  0.0190  1.6147
  510MOL0     H70369   0.639   7.357   1.613 -0.2522 -0.8959  0.4477
  510MOL0     H70370   0.526   7.144   1.622  3.2860 -0.9742 -0.4411
  510MOL0     H70371   0.526   7.130   1.443  0.0494 -0.1308  0.3537
  510MOL0     H70372   0.417   7.392   1.517  0.6546 -0.4989  0.2697
  510MOL0     H70373   0.362   7.279   1.399  2.0025  1.9401 -1.0532
  510MOL0     H70374   0.338   7.266   1.706  1.0180  0.7067 -1.1940
  510MOL0     H70375   0.260   7.144   1.600 -3.0414  0.9993 -1.2725
  510MOL0     H70376  -0.033   7.433   1.636 -1.1700 -1.1399  1.1827
  510MOL0     H70377   0.783   7.502   1.579 -2.4472 -0.2979 -0.7132
  510MOL0     H70378   1.117   7.619   1.521  0.8681  0.2433  3.0034
  510MOL0     H70379   1.011   7.763   1.529  0.3149 -0.1263 -0.9147
  510MOL0     H70380   0.987   7.630   1.648 -0.1318 -1.7460 -0.1977
  511MOL0     O70381   2.445   0.330   9.321  0.9469 -0.1919  0.0975
  511MOL0     C70382   2.351   0.299   9.244  0.3151  0.1382  0.3961
  511MOL0     O70383   2.355   0.189   9.167  0.0073  0.3517 -0.4259
  511MOL0     C70384   2.454   0.163   9.074 -0.4857  0.4460 -0.7582
  511MOL0     C70385   2.423   0.098   8.957  0.0643 -0.5463 -0.3856
  511MOL0     C70386   2.522   0.056   8.872  0.1819  0.6752  0.4520
  511MOL0     C70387   2.658   0.064   8.898  0.0445  0.3532  0.4360
  511MOL0     O70388   2.742   0.030   8.799 -0.6315 -0.3073 -0.4814
  511MOL0     C70389   2.883   0.013   8.824  1.2686 -0.1631  0.8331
  511MOL0     C70390   2.965   0.138   8.826 -0.4308 -0.0142 -0.4699
  511MOL0     C70391   3.119   0.126   8.824 -0.7191 -0.5133 -0.0260
  511MOL0     C70392   3.172   0.079   8.687  0.0016  0.8660  0.5673
  511MOL0     C70393   3.319   0.070   8.686 -1.0238  0.0930  0.2594
  511MOL0     C70394   3.385   0.003   8.562  0.3664  0.0566 -0.0788
  511MOL0     C70395   3.523   0.039   8.531  0.6088  0.3366 -0.1516
  511MOL0     C70396   3.535   0.180   8.486 -0.5691 -0.9470  0.2777
  511MOL0     N70397   3.671   0.204   8.441  0.0796  0.8009  0.3764
  511MOL0     C70398   3.744   0.132   8.343 -0.5411 -0.2765  0.0260
  511MOL0     C70399   3.864   0.187   8.332  0.3271 -0.7825 -0.5346
  511MOL0     C70400   3.970   0.134   8.235 -0.1078  0.5963  0.1774
  511MOL0     C70401   4.072   0.238   8.174  0.6919  0.4113  0.0051
  511MOL0     C70402   4.179   0.171   8.094 -0.3915  0.4195 -0.0829
  511MOL0     C70403   4.265   0.267   8.023  0.2746 -0.4791 -0.0182
  511MOL0     O70404   4.348   0.186   7.938 -0.4268  0.5638  0.0935
  511MOL0     C70405   4.479   0.235   7.934 -0.7151  0.2333  0.9538
  511MOL0     C70406   4.573   0.134   7.930  0.0043 -0.1541  0.2016
  511MOL0     C70407   4.709   0.168   7.924  0.2232  0.0255 -0.0493
  511MOL0     C70408   4.795   0.041   7.938 -0.1881 -0.3548 -1.0181
  511MOL0     C70409   4.757   0.301   7.891  0.6149 -0.2285  0.8039
  511MOL0     C70410   4.888   0.346   7.860  0.2453  0.7015  0.0182
  511MOL0     O70411   4.906   0.473   7.808  0.6293 -0.7990  0.6485
  511MOL0     C70412   5.024   0.517   7.767  0.0349 -0.8491  0.1832
  511MOL0     C70413   5.038   0.658   7.759 -0.0814  0.1769 -1.0577
  511MOL0     C70414   5.154   0.711   7.707  0.1426  0.6931  0.1654
  511MOL0     C70415   5.259   0.630   7.674  0.6354  0.5927 -1.1436
  511MOL0     O70416   5.377   0.693   7.626  1.0233  0.2311 -0.2535
  511MOL0     C70417   5.384   0.665   7.486 -0.1310  0.4914 -0.3941
  511MOL0     C70418   5.519   0.595   7.447  0.7350  0.1917  0.4374
  511MOL0     C70419   5.625   0.654   7.537  0.0510 -0.6069 -0.0385
  511MOL0     C70420   5.768   0.613   7.486 -0.6786  0.1867  0.4883
  511MOL0     C70421   5.869   0.637   7.588 -0.7673 -0.9393 -0.2981
  511MOL0     C70422   5.998   0.566   7.561  0.2378 -0.2348 -0.1273
  511MOL0     C70423   6.114   0.623   7.638  0.5609  0.1622 -1.0944
  511MOL0     C70424   6.245   0.604   7.560 -0.5316 -0.2945 -0.1556
  511MOL0    Cl70425   6.303   0.433   7.556 -0.3928  0.1809  0.0149
  511MOL0     C70426   5.240   0.489   7.667  0.1860 -0.4901 -0.2993
  511MOL0     C70427   5.128   0.433   7.712 -0.4930 -0.1531  0.5249
  511MOL0     O70428   4.977   0.269   7.889 -0.2564 -0.1697 -0.3963
  511MOL0     C70429   4.658   0.400   7.905 -0.3772 -0.2976 -0.0822
  511MOL0     C70430   4.524   0.368   7.927  0.0643 -0.1162 -0.4964
  511MOL0     N70431   3.871   0.285   8.435  0.3622  0.0933 -0.1590
  511MOL0     N70432   3.756   0.297   8.490 -0.1778  0.5023  0.1900
  511MOL0     C70433   2.690   0.106   9.027  0.5639  0.1394  0.2609
  511MOL0     C70434   2.590   0.162   9.116  0.2286 -0.3725 -0.3640
  511MOL0     C70435   2.227   0.393   9.249  0.3504  1.4606  0.1141
  511MOL0     C70436   2.244   0.512   9.318  0.6932 -0.6457  1.2520
  511MOL0     C70437   2.132   0.596   9.335  0.4096  0.2715 -0.1693
  511MOL0     C70438   2.021   0.572   9.264  0.0511  0.7232  0.2400
  511MOL0     O70439   1.927   0.664   9.268  0.2620 -0.4062  0.0398
  511MOL0     C70440   1.790   0.633   9.251 -0.4473  0.0173 -0.8050
  511MOL0     C70441   1.697   0.745   9.285 -0.6405 -1.3940  0.6254
  511MOL0     C70442   1.743   0.886   9.214 -0.7043 -0.3234  0.0275
  511MOL0     C70443   1.748   0.873   9.066 -0.8881  0.7109 -0.0132
  511MOL0     C70444   1.617   0.853   9.008  0.4019 -0.5428  0.2634
  511MOL0     C70445   1.501   0.850   8.977  0.0623 -0.5578 -0.3322
  511MOL0     C70446   2.007   0.453   9.196  0.0738 -0.3792 -0.9553
  511MOL0     C70447   2.104   0.360   9.191  0.0843 -0.9165  0.2917
  511MOL0     C70448   2.084   0.239   9.099  0.5623  0.3474 -0.2918
  511MOL0     H70449   2.318   0.074   8.942 -0.7743  0.7864  2.5138
  511MOL0     H70450   2.485   0.016   8.778  2.4287  2.4546 -1.3139
  511MOL0     H70451   2.922  -0.050   8.744  0.6439 -0.5723  0.8412
  511MOL0     H70452   2.900  -0.040   8.918 -0.3404 -1.2536  0.5704
  511MOL0     H70453   2.931   0.203   8.745 -2.7097 -0.9780 -0.3572
  511MOL0     H70454   2.943   0.186   8.922  1.2968 -1.7742  0.8640
  511MOL0     H70455   3.172   0.216   8.853 -0.3119 -0.4141 -1.0460
  511MOL0     H70456   3.147   0.054   8.902 -1.7841  2.1307  3.0258
  511MOL0     H70457   3.131  -0.019   8.663  1.1916  0.0957  1.5712
  511MOL0     H70458   3.133   0.145   8.609 -4.3777 -3.0857 -1.0414
  511MOL0     H70459   3.349  -0.000   8.765 -0.3733 -0.9592 -0.8886
  511MOL0     H70460   3.366   0.167   8.703 -0.2873 -0.0665 -0.7550
  511MOL0     H70461   3.381  -0.105   8.577 -2.3685  0.0961 -0.0455
  511MOL0     H70462   3.336   0.019   8.465 -0.4902  1.3101  0.5326
  511MOL0     H70463   3.553  -0.022   8.446  0.2930 -2.4156  1.5987
  511MOL0     H70464   3.590   0.020   8.615 -0.3283  0.4280  0.6301
  511MOL0     H70465   3.476   0.199   8.396 -1.8551 -0.8341  1.1202
  511MOL0     H70466   3.509   0.254   8.562  3.0153 -2.4163  3.2549
  511MOL0     H70467   3.711   0.052   8.278 -1.2221 -1.4827  1.7614
  511MOL0     H70468   3.921   0.073   8.158  0.6569 -0.8405  0.7881
  511MOL0     H70469   4.021   0.059   8.296 -2.8426 -0.8788  0.7997
  511MOL0     H70470   4.025   0.319   8.116  3.1909  1.4655 -0.6546
  511MOL0     H70471   4.121   0.301   8.249  0.7513  0.4720 -0.0851
  511MOL0     H70472   4.240   0.109   8.160 -2.2616  0.4355  1.7458
  511MOL0     H70473   4.139   0.108   8.013  0.0255  1.2510 -0.9584
  511MOL0     H70474   4.201   0.339   7.972 -0.2548  0.7927  2.3060
  511MOL0     H70475   4.327   0.320   8.096  1.6269 -3.4951  1.1942
  511MOL0     H70476   4.530   0.035   7.941 -1.6306  0.3550 -1.1745
  511MOL0     H70477   4.836   0.015   7.840 -0.1650 -1.6962 -0.6679
  511MOL0     H70478   4.740  -0.039   7.989  1.9455 -1.1093  0.2123
  511MOL0     H70479   4.873   0.061   8.012 -0.1682 -1.9910 -0.5593
  511MOL0     H70480   4.954   0.716   7.795 -0.6553 -2.6055  2.7279
  511MOL0     H70481   5.164   0.819   7.718  0.9457  0.6996 -0.5440
  511MOL0     H70482   5.297   0.606   7.452 -0.1292  0.0168  0.4095
  511MOL0     H70483   5.385   0.763   7.438 -0.3527  1.4331  1.4541
  511MOL0     H70484   5.514   0.486   7.442 -0.2605  0.2162  0.6378
  511MOL0     H70485   5.547   0.634   7.348  2.0207  1.5573  1.2960
  511MOL0     H70486   5.599   0.620   7.637 -1.9362 -2.2900 -1.0756
  511MOL0     H70487   5.616   0.763   7.539 -2.6750 -0.6143  4.8490
  511MOL0     H70488   5.799   0.667   7.396 -0.9966 -1.0536 -0.3917
  511MOL0     H70489   5.777   0.507   7.463 -1.8298  0.3708 -0.9568
  511MOL0     H70490   5.890   0.744   7.603  4.0338 -1.3128 -2.6004
  511MOL0     H70491   5.831   0.599   7.683  3.3833 -0.5099  1.7303
  511MOL0     H70492   6.019   0.570   7.453 -2.0804  1.0063 -0.6065
  511MOL0     H70493   5.989   0.461   7.593 -0.2237 -0.0382  0.3959
  511MOL0     H70494   6.117   0.574   7.736  0.1010  1.1922 -0.5547
  511MOL0     H70495   6.102   0.730   7.656  2.0745 -0.0712  1.9175
  511MOL0     H70496   6.315   0.664   7.619 -1.0102  0.7892 -0.6861
  511MOL0     H70497   6.239   0.647   7.460  1.6237  0.0740 -0.1732
  511MOL0     H70498   5.319   0.426   7.627  1.1500 -2.8566  4.5092
  511MOL0     H70499   5.111   0.326   7.703  3.3688 -0.8459 -0.3418
  511MOL0     H70500   4.693   0.500   7.878  1.3231 -0.9574 -0.4320
  511MOL0     H70501   4.456   0.452   7.936  2.4565  1.7669  2.1730
  511MOL0     H70502   2.797   0.106   9.050  0.7271 -0.9409 -0.4569
  511MOL0     H70503   2.608   0.185   9.221 -3.0071 -2.8484  0.9095
  511MOL0     H70504   2.331   0.550   9.370  0.5708  2.2078 -0.4275
  511MOL0     H70505   2.135   0.683   9.400 -1.0715 -1.1704  1.9246
  511MOL0     H70506   1.777   0.601   9.147 -2.2817 -0.3138 -0.5192
  511MOL0     H70507   1.766   0.549   9.317 -0.9172  1.3738  0.8275
  511MOL0     H70508   1.688   0.751   9.393 -1.3764 -0.7068  0.5401
  511MOL0     H70509   1.593   0.726   9.257 -1.4305  1.1276  1.5675
  511MOL0     H70510   1.668   0.961   9.240 -1.5712 -1.2583  0.2657
  511MOL0     H70511   1.840   0.909   9.260 -0.3653  0.3711 -0.9860
  511MOL0     H70512   1.813   0.789   9.038 -0.8510  0.3614  1.0716
  511MOL0     H70513   1.796   0.964   9.028  0.9636  0.1529  0.8502
  511MOL0     H70514   1.397   0.839   8.954  0.4595 -2.6529 -1.4991
  511MOL0     H70515   1.916   0.425   9.144 -2.5331  2.2300  1.8110
  511MOL0     H70516   1.977   0.219   9.094  0.5679 -0.3199  1.4263
  511MOL0     H70517   2.124   0.265   9.001 -2.1865  0.3043 -1.5014
  511MOL0     H70518   2.126   0.147   9.142 -0.7632 -0.6796 -1.1234
  512MOL0     O70519   5.723   5.310   1.241  0.7878  0.2613  0.5039
  512MOL0     C70520   5.691   5.410   1.310  0.2792  0.7919 -0.5810
  512MOL0     O70521   5.730   5.433   1.439  0.2676 -0.3569  0.0416
  512MOL0     C70522   5.831   5.356   1.489  0.5126  0.1147  0.7022
  512MOL0     C70523   5.802   5.239   1.567 -0.0690  0.0237 -0.8717
  512MOL0     C70524   5.910   5.154   1.597  0.3623  0.2217 -0.7480
  512MOL0     C70525   6.043   5.190   1.567 -0.4504 -0.0857  0.7714
  512MOL0     O70526   6.143   5.113   1.601  0.1009  0.0553  0.0468
  512MOL0     C70527   6.198   5.132   1.730  0.7062  0.0150  0.2082
  512MOL0     C70528   6.346   5.101   1.712 -0.5533 -0.1168  0.2033
  512MOL0     C70529   6.431   5.100   1.847  0.1668  0.4823  0.0171
  512MOL0     C70530   6.493   5.232   1.871  0.6639 -0.2569 -0.0035
  512MOL0     C70531   6.585   5.223   1.985 -1.4081  0.2085  0.3492
  512MOL0     C70532   6.697   5.130   1.963 -0.4256  0.5774 -0.7954
  512MOL0     C70533   6.809   5.168   2.065 -1.2014 -0.0703 -0.3376
  512MOL0     C70534   6.873   5.310   2.052  0.2767  0.2773  1.0924
  512MOL0     N70535   7.009   5.310   2.105  0.9795  0.1192  0.0770
  512MOL0     C70536   7.125   5.284   2.022 -0.4398 -0.9416 -0.5322
  512MOL0     C70537   7.223   5.259   2.110 -0.4812  0.2364  0.4123
  512MOL0     C70538   7.369   5.231   2.077  0.0233  0.3957 -0.2872
  512MOL0     C70539   7.452   5.360   2.034  1.4612  0.1991 -0.0409
  512MOL0     C70540   7.569   5.317   1.956  0.1140 -0.0241  0.2456
  512MOL0     C70541   7.650   5.437   1.914 -0.8233  0.5866  0.2402
  512MOL0     O70542   7.770   5.402   1.852 -0.6021 -0.4338 -0.7404
  512MOL0     C70543   7.861   5.504   1.818  0.1377  0.3181 -0.1243
  512MOL0     C70544   7.989   5.474   1.803  0.3929 -0.2164  0.5064
  512MOL0     C70545   8.097   5.568   1.767 -0.4412  0.6295  0.3510
  512MOL0     C70546   8.232   5.514   1.725 -0.5953 -1.0588 -0.8433
  512MOL0     C70547   8.064   5.706   1.762 -0.8274  0.0748 -0.0506
  512MOL0     C70548   8.168   5.808   1.749  0.2736  0.1771 -0.1556
  512MOL0     O70549   8.288   5.800   1.817  0.1674  0.5468 -0.1924
  512MOL0     C70550   8.368   5.913   1.827  0.5704 -0.1054 -0.3218
  512MOL0     C70551   8.343   6.015   1.917 -0.3034 -0.4988 -0.6604
  512MOL0     C70552   8.431   6.121   1.926  0.6111  0.0276 -0.4460
  512MOL0     C70553   8.538   6.132   1.847  0.5473  0.7210 -0.2312
  512MOL0     O70554   8.617   6.243   1.876  0.2477 -0.7536  0.8353
  512MOL0     C70555   8.696   6.241   2.002 -0.2262 -0.7397  0.8860
  512MOL0     C70556   8.805   6.362   2.001  0.5773 -0.4533 -0.0782
  512MOL0     C70557   8.929   6.314   1.933  0.6940  0.4583  0.2162
  512MOL0     C70558   9.006   6.208   2.012  1.2125  0.3911 -0.5365
  512MOL0     C70559   9.132   6.171   1.929  0.0817  0.3495  0.5755
  512MOL0     C70560   9.257   6.136   2.015  0.1618  0.8749 -0.4850
  512MOL0     C70561   9.382   6.089   1.929  0.3214 -0.0184  0.8567
  512MOL0     C70562   9.495   6.091   2.021  0.3557 -0.1204  0.0453
  512MOL0    Cl70563   9.630   6.019   1.941  0.1392  0.2453  0.2107
  512MOL0     C70564   8.566   6.037   1.749  0.0704  0.2443  0.7043
  512MOL0     C70565   8.489   5.918   1.758 -0.3135 -0.4740 -0.4238
  512MOL0     O70566   8.135   5.905   1.680  0.6856  0.6971  0.7361
  512MOL0     C70567   7.930   5.735   1.792 -0.1794  0.5819 -0.2330
  512MOL0     C70568   7.825   5.641   1.811  0.3085 -0.1122  0.6818
  512MOL0     N70569   7.165   5.244   2.231 -0.2468  0.0802  0.2054
  512MOL0     N70570   7.038   5.277   2.231 -0.5394  0.1480  0.2066
  512MOL0     C70571   6.062   5.312   1.508 -0.2813 -0.4300 -0.5166
  512MOL0     C70572   5.962   5.389   1.454  0.6601  0.5450  0.0126
  512MOL0     C70573   5.613   5.523   1.239 -0.2263 -0.3818 -0.6961
  512MOL0     C70574   5.605   5.652   1.304 -0.6873  0.5382 -0.4061
  512MOL0     C70575   5.547   5.758   1.248  0.7551  0.0471 -0.2662
  512MOL0     C70576   5.504   5.746   1.118  0.4318 -0.4395 -0.3502
  512MOL0     O70577   5.436   5.849   1.050 -0.1351  0.1208 -0.4990
  512MOL0     C70578   5.401   5.974   1.114  0.9455 -0.5607  0.0722
  512MOL0     C70579   5.315   6.061   1.026 -0.0379  0.5145 -0.3069
  512MOL0     C70580   5.371   6.094   0.884  0.1199 -0.5041  0.6430
  512MOL0     C70581   5.259   6.147   0.798 -0.2905 -0.4100  0.3687
  512MOL0     C70582   5.150   6.052   0.779  0.0204 -0.5189 -0.3789
  512MOL0     C70583   5.056   5.979   0.759 -0.2013 -0.1913  0.5549
  512MOL0     C70584   5.510   5.621   1.045 -0.0257 -0.2047 -0.8990
  512MOL0     C70585   5.565   5.516   1.107  0.5387  0.3413  0.3424
  512MOL0     C70586   5.546   5.386   1.036 -0.0780  0.0992  0.2910
  512MOL0     H70587   5.702   5.201   1.587  0.2158 -1.3353 -1.8861
  512MOL0     H70588   5.891   5.059   1.645 -1.6049  1.5190  1.2669
  512MOL0     H70589   6.161   5.065   1.808  2.2321  1.8741  2.6900
  512MOL0     H70590   6.183   5.235   1.765 -0.0195  1.1051 -2.9618
  512MOL0     H70591   6.355   5.001   1.667 -0.7142 -0.2893  0.5432
  512MOL0     H70592   6.397   5.164   1.639 -1.0976 -0.1198 -0.1917
  512MOL0     H70593   6.368   5.066   1.931 -0.2014 -1.8106 -1.1211
  512MOL0     H70594   6.501   5.019   1.826 -0.8209 -0.4073  0.0689
  512MOL0     H70595   6.546   5.262   1.780  0.6810  0.9159  0.3794
  512MOL0     H70596   6.418   5.310   1.888  0.3326 -0.7479  0.8607
  512MOL0     H70597   6.526   5.190   2.071  0.8206 -1.0448  1.4956
  512MOL0     H70598   6.631   5.322   1.989 -0.5598  0.0298 -2.5378
  512MOL0     H70599   6.675   5.030   2.001 -2.9969  1.1365 -0.5709
  512MOL0     H70600   6.728   5.129   1.858 -0.0608 -3.1424 -0.7777
  512MOL0     H70601   6.894   5.101   2.048 -1.3533 -0.6557  1.0265
  512MOL0     H70602   6.768   5.163   2.166 -1.2411  1.2726 -0.2649
  512MOL0     H70603   6.872   5.329   1.944 -1.0761 -4.1278  0.0890
  512MOL0     H70604   6.822   5.389   2.107 -1.6734 -0.6942  0.7754
  512MOL0     H70605   7.131   5.300   1.915 -1.4359 -0.3346 -0.5082
  512MOL0     H70606   7.376   5.146   2.009  1.7156 -1.8069  2.4453
  512MOL0     H70607   7.406   5.187   2.169 -1.6000 -0.4131  0.0127
  512MOL0     H70608   7.386   5.425   1.975  0.0175 -0.3566  0.9111
  512MOL0     H70609   7.466   5.421   2.123 -2.6264  3.6244 -1.4075
  512MOL0     H70610   7.622   5.244   2.018  0.4153  0.2230  0.2759
  512MOL0     H70611   7.540   5.249   1.875 -0.4725  0.0349  0.4004
  512MOL0     H70612   7.588   5.492   1.843  2.1603  0.3378 -2.8009
  512MOL0     H70613   7.679   5.502   1.998  2.5779  2.0788 -1.8303
  512MOL0     H70614   8.009   5.367   1.799 -1.4200 -0.6186  1.1796
  512MOL0     H70615   8.223   5.421   1.670 -0.0018  0.1874 -3.1633
  512MOL0     H70616   8.286   5.495   1.819 -2.6467 -0.9864  0.4129
  512MOL0     H70617   8.290   5.580   1.660  0.3493  0.8847  1.7857
  512MOL0     H70618   8.250   6.013   1.973 -0.7810 -3.4988 -1.3561
  512MOL0     H70619   8.421   6.190   2.010 -0.8414  0.4415 -0.9346
  512MOL0     H70620   8.636   6.249   2.093  1.4611 -1.3728  2.1209
  512MOL0     H70621   8.748   6.145   2.012 -1.2807 -1.4568 -0.3085
  512MOL0     H70622   8.764   6.450   1.950 -0.2380 -0.3403  0.7411
  512MOL0     H70623   8.817   6.382   2.108  0.5454 -2.9073  0.4475
  512MOL0     H70624   8.994   6.401   1.922  0.7190  0.2727 -1.2143
  512MOL0     H70625   8.893   6.277   1.837 -0.4006 -0.5991  1.0177
  512MOL0     H70626   8.947   6.121   2.042  1.8115  0.5933  1.4061
  512MOL0     H70627   9.046   6.247   2.106  2.9437 -1.4855 -0.4263
  512MOL0     H70628   9.103   6.088   1.863  1.5683  2.0553 -2.4211
  512MOL0     H70629   9.163   6.261   1.875 -2.4297  1.1244  0.3199
  512MOL0     H70630   9.236   6.063   2.094  2.4884  0.0796 -0.5257
  512MOL0     H70631   9.289   6.229   2.064  1.1641 -0.2246  1.0541
  512MOL0     H70632   9.400   6.151   1.841 -0.9085 -1.6904 -0.6377
  512MOL0     H70633   9.364   5.987   1.894  3.8038  0.6120 -3.8625
  512MOL0     H70634   9.475   6.045   2.118  1.4546 -1.3094 -0.2728
  512MOL0     H70635   9.527   6.194   2.038 -4.2401  1.4092  0.9294
  512MOL0     H70636   8.655   6.051   1.688 -2.9638  1.8600 -3.8558
  512MOL0     H70637   8.516   5.828   1.703  0.4373 -1.4537  1.4705
  512MOL0     H70638   7.914   5.842   1.795  0.0319  0.7993 -3.4691
  512MOL0     H70639   7.727   5.673   1.845 -0.0797  0.7373 -1.1172
  512MOL0     H70640   6.159   5.355   1.484 -1.3092  2.1828 -0.3532
  512MOL0     H70641   5.993   5.466   1.385  2.3702 -0.5015 -0.4306
  512MOL0     H70642   5.633   5.660   1.408 -0.7001  1.8549 -0.4898
  512MOL0     H70643   5.533   5.844   1.314 -0.1632  0.5969 -1.1528
  512MOL0     H70644   5.356   5.965   1.214  0.2565  1.5739  0.0183
  512MOL0     H70645   5.496   6.025   1.131  1.2867 -1.7405  2.0108
  512MOL0     H70646   5.295   6.157   1.074 -0.7280  0.5206 -0.5822
  512MOL0     H70647   5.225   6.002   1.006  1.3203 -1.2023 -1.6329
  512MOL0     H70648   5.463   6.153   0.884  0.1212 -0.4974 -0.0438
  512MOL0     H70649   5.405   6.004   0.833  0.3242  1.3136 -2.7880
  512MOL0     H70650   5.301   6.170   0.699  1.9999 -0.1461  1.3373
  512MOL0     H70651   5.231   6.246   0.836 -1.1704 -0.8937  1.0155
  512MOL0     H70652   4.986   5.904   0.728  0.7145 -1.4194  1.3482
  512MOL0     H70653   5.461   5.609   0.949 -1.7340  0.5909 -0.1689
  512MOL0     H70654   5.476   5.407   0.954  0.8357  2.9199  0.1309
  512MOL0     H70655   5.641   5.347   1.000 -0.9716 -0.9005 -1.0919
  512MOL0     H70656   5.497   5.312   1.100 -3.3509  2.8716  1.3321
  513MOL0     O70657   0.524   4.506   7.429  0.4056  0.3844  0.2622
  513MOL0     C70658   0.454   4.482   7.525 -0.3683 -0.1433 -0.1790
  513MOL0     O70659   0.473   4.562   7.637 -0.0655 -0.0567 -0.3545
  513MOL0     C70660   0.581   4.644   7.650 -0.5024  0.0395  0.4386
  513MOL0     C70661   0.554   4.773   7.692 -0.5119 -0.4162 -0.2644
  513MOL0     C70662   0.663   4.862   7.703  0.7080  0.7182 -1.0140
  513MOL0     C70663   0.798   4.823   7.681  0.4046 -0.4374 -0.6741
  513MOL0     O70664   0.905   4.906   7.703  0.1832  0.5893 -0.3468
  513MOL0     C70665   0.884   5.050   7.720 -0.7757 -0.2158 -0.1632
  513MOL0     C70666   0.836   5.107   7.588  0.0453  0.7283  0.1075
  513MOL0     C70667   0.877   5.249   7.600 -0.4437 -0.0813 -0.4660
  513MOL0     C70668   0.863   5.319   7.465 -0.3199  0.6692  0.2953
  513MOL0     C70669   0.990   5.312   7.384 -0.1991 -0.4316  0.4545
  513MOL0     C70670   0.976   5.368   7.239  0.1169 -0.5923  0.9322
  513MOL0     C70671   1.089   5.336   7.135  0.5199  0.7654  0.0296
  513MOL0     C70672   1.216   5.369   7.202 -0.3708 -0.6025 -0.2793
  513MOL0     N70673   1.333   5.367   7.105 -0.6949  0.0167 -0.2381
  513MOL0     C70674   1.377   5.255   7.046  0.0792 -0.2027  0.3290
  513MOL0     C70675   1.483   5.294   6.962 -0.0799 -0.2074 -0.5550
  513MOL0     C70676   1.582   5.199   6.894  0.7694 -0.2360 -0.2224
  513MOL0     C70677   1.724   5.268   6.874 -0.3339 -0.3574 -0.3281
  513MOL0     C70678   1.796   5.285   7.004 -0.3089 -0.3344  0.3851
  513MOL0     C70679   1.934   5.331   6.982  0.5880 -0.2839  0.1193
  513MOL0     O70680   1.983   5.353   7.119 -0.1722  0.2716 -0.6879
  513MOL0     C70681   2.119   5.382   7.134  0.5596 -0.5006 -0.4610
  513MOL0     C70682   2.159   5.404   7.267  0.1328 -0.7467  0.0443
  513MOL0     C70683   2.295   5.425   7.301 -0.1268 -0.2660 -0.1414
  513MOL0     C70684   2.315   5.451   7.446 -0.4766 -0.2095 -0.2747
  513MOL0     C70685   2.396   5.407   7.201  0.9580 -0.2365 -0.4523
  513MOL0     C70686   2.541   5.414   7.226 -0.3927 -0.0891 -0.2895
  513MOL0     O70687   2.629   5.383   7.123 -0.6251 -0.0590 -0.1077
  513MOL0     C70688   2.763   5.419   7.131 -0.1527  0.8357 -0.3137
  513MOL0     C70689   2.862   5.325   7.124  0.6393 -0.1744 -0.0962
  513MOL0     C70690   2.994   5.366   7.137 -0.1653  0.6301 -1.0199
  513MOL0     C70691   3.033   5.499   7.149 -0.1628 -0.0667 -0.4113
  513MOL0     O70692   3.169   5.524   7.166 -0.5447  0.4003 -0.7230
  513MOL0     C70693   3.199   5.652   7.225 -0.3375 -0.2969 -0.4728
  513MOL0     C70694   3.347   5.680   7.273 -0.5197 -0.5383  0.5288
  513MOL0     C70695   3.430   5.730   7.153 -0.3085 -0.4570 -1.0019
  513MOL0     C70696   3.579   5.756   7.177  0.0681  0.0109  0.1517
  513MOL0     C70697   3.645   5.768   7.038  0.1525  0.6078 -0.4212
  513MOL0     C70698   3.794   5.760   7.038 -0.0346  0.3903  0.5571
  513MOL0     C70699   3.857   5.877   7.117 -0.1263  0.5683  0.7639
  513MOL0     C70700   4.008   5.851   7.138 -0.0081 -0.1763 -0.5312
  513MOL0    Cl70701   4.079   5.997   7.212 -0.2204  0.0935 -0.0664
  513MOL0     C70702   2.934   5.594   7.134  0.1519  0.8426 -0.8068
  513MOL0     C70703   2.796   5.553   7.136 -0.5338 -0.8541  0.2594
  513MOL0     O70704   2.574   5.451   7.335  0.9148  0.6131  0.4909
  513MOL0     C70705   2.349   5.394   7.065  0.5845  0.2982 -0.2400
  513MOL0     C70706   2.213   5.389   7.034  0.7790  1.5210 -0.9895
  513MOL0     N70707   1.491   5.430   6.964  0.3251 -0.4613 -0.3155
  513MOL0     N70708   1.401   5.471   7.046  0.2547  0.5709 -0.1695
  513MOL0     C70709   0.819   4.691   7.633 -0.0648 -0.7218 -0.0805
  513MOL0     C70710   0.712   4.606   7.621  0.7505 -0.7750 -0.1782
  513MOL0     C70711   0.356   4.371   7.516  0.0649 -0.1664 -0.3495
  513MOL0     C70712   0.311   4.328   7.394  0.0962  1.0244  0.4723
  513MOL0     C70713   0.224   4.208   7.373 -1.2663 -0.4622  0.0394
  513MOL0     C70714   0.171   4.147   7.492  0.1889  0.3354  0.0797
  513MOL0     O70715   0.086   4.040   7.488  0.2717  0.5120 -0.8656
  513MOL0     C70716   0.004   4.032   7.370 -0.4152 -0.6579  0.0002
  513MOL0     C70717  -0.129   3.976   7.414 -0.0207  0.1158 -0.1819
  513MOL0     C70718  -0.134   3.831   7.485 -0.2239 -0.2987 -0.3508
  513MOL0     C70719  -0.136   3.727   7.383  0.6812  0.1459  0.1517
  513MOL0     C70720  -0.166   3.590   7.439 -0.0217  0.6655 -0.6061
  513MOL0     C70721  -0.201   3.484   7.484 -0.7141  0.7616 -0.7548
  513MOL0     C70722   0.212   4.195   7.616  0.0322  0.0256  0.0349
  513MOL0     C70723   0.304   4.299   7.633 -0.7435  0.6837  0.9070
  513MOL0     C70724   0.347   4.331   7.775 -0.7122 -0.1752  0.3694
  513MOL0     H70725   0.449   4.798   7.698  0.2452  2.8320  1.4577
  513MOL0     H70726   0.633   4.962   7.733  0.5701  0.0939  1.1284
  513MOL0     H70727   0.984   5.088   7.740 -1.1229 -0.4382  2.2221
  513MOL0     H70728   0.818   5.060   7.807  1.8724  0.6679  1.8619
  513MOL0     H70729   0.892   5.047   7.515  0.7014 -0.1719  1.3082
  513MOL0     H70730   0.728   5.101   7.575  0.2185 -0.8654 -1.0126
  513MOL0     H70731   0.811   5.307   7.665  1.2791 -0.6749  1.9445
  513MOL0     H70732   0.976   5.273   7.640 -0.4195  1.3955 -1.3297
  513MOL0     H70733   0.773   5.277   7.419 -0.3225  2.2521 -1.2633
  513MOL0     H70734   0.832   5.421   7.489  0.5430  0.8913  0.5095
  513MOL0     H70735   1.022   5.208   7.373 -0.6183 -0.4388 -0.8791
  513MOL0     H70736   1.065   5.354   7.451 -1.3401  0.0224  1.4786
  513MOL0     H70737   0.887   5.325   7.193  1.5961 -2.3833 -0.3760
  513MOL0     H70738   0.976   5.478   7.244  0.2370 -0.4889 -0.8283
  513MOL0     H70739   1.074   5.398   7.046 -3.5915  3.2290  2.1363
  513MOL0     H70740   1.093   5.230   7.106  0.3006  0.7160  0.1834
  513MOL0     H70741   1.202   5.473   7.230  1.7716 -0.0090 -1.1961
  513MOL0     H70742   1.237   5.310   7.292 -1.4324 -0.8079 -0.1543
  513MOL0     H70743   1.336   5.157   7.066 -1.0627  0.8209  3.6519
  513MOL0     H70744   1.543   5.180   6.794 -2.1966 -2.2275  1.1689
  513MOL0     H70745   1.599   5.103   6.944 -0.2238 -0.4313 -0.2422
  513MOL0     H70746   1.772   5.212   6.794 -1.7806  1.4502 -2.5987
  513MOL0     H70747   1.700   5.366   6.832 -1.9173 -0.8470 -0.6417
  513MOL0     H70748   1.740   5.359   7.062  2.8352  1.7729  0.9273
  513MOL0     H70749   1.799   5.191   7.061 -0.6216 -0.1923  0.6413
  513MOL0     H70750   1.999   5.257   6.933  2.4834  0.9119  0.7233
  513MOL0     H70751   1.942   5.419   6.919  1.8861 -1.2182 -1.0937
  513MOL0     H70752   2.089   5.402   7.349  2.7295 -0.1865  2.4490
  513MOL0     H70753   2.404   5.398   7.479  1.2160  2.3052 -0.5497
  513MOL0     H70754   2.230   5.419   7.507 -1.2041  1.2013 -0.4950
  513MOL0     H70755   2.327   5.558   7.463 -1.6127 -0.1307  0.1104
  513MOL0     H70756   2.824   5.224   7.119  1.8790 -0.6059 -2.2476
  513MOL0     H70757   3.072   5.290   7.135 -1.0644 -0.3191 -1.3007
  513MOL0     H70758   3.158   5.734   7.165 -2.4601 -2.2125 -1.8187
  513MOL0     H70759   3.153   5.652   7.324  3.1872 -2.2001  1.3834
  513MOL0     H70760   3.345   5.754   7.353  2.2703  0.0291  0.1689
  513MOL0     H70761   3.392   5.587   7.310 -0.7308 -1.0677 -0.5218
  513MOL0     H70762   3.381   5.820   7.116 -0.6378  0.5568  1.6469
  513MOL0     H70763   3.415   5.653   7.077 -1.6050 -1.2319 -0.0036
  513MOL0     H70764   3.619   5.674   7.237  1.1204  0.6700  0.3827
  513MOL0     H70765   3.603   5.839   7.245  0.8596 -0.3239  0.2960
  513MOL0     H70766   3.612   5.681   6.981 -4.1385  1.3589  0.6018
  513MOL0     H70767   3.616   5.866   6.999  1.3483  1.3359  0.4393
  513MOL0     H70768   3.837   5.762   6.937 -0.9119 -0.5271  0.1451
  513MOL0     H70769   3.810   5.659   7.076 -3.0673 -0.0489  0.9156
  513MOL0     H70770   3.819   5.883   7.220 -0.2598 -1.2833  0.8687
  513MOL0     H70771   3.841   5.976   7.074 -2.7921 -0.5109 -0.9765
  513MOL0     H70772   4.059   5.834   7.042  0.7347  2.7610 -0.7270
  513MOL0     H70773   4.022   5.761   7.200  0.3497 -1.1648 -1.9796
  513MOL0     H70774   2.955   5.701   7.133  2.4851  0.4355 -1.2586
  513MOL0     H70775   2.715   5.625   7.132  0.9246  1.0789  2.8140
  513MOL0     H70776   2.419   5.376   6.985  0.8500 -0.5953  0.1843
  513MOL0     H70777   2.180   5.396   6.931  1.3846  0.4229 -1.2733
  513MOL0     H70778   0.923   4.660   7.623  0.5816 -0.9354  4.7921
  513MOL0     H70779   0.729   4.501   7.600  0.1394 -1.4044  2.2476
  513MOL0     H70780   0.351   4.365   7.300 -2.1597 -0.5338 -1.2185
  513MOL0     H70781   0.202   4.186   7.269  1.4618  1.9294 -1.2044
  513MOL0     H70782  -0.027   4.125   7.322 -1.8522  0.3600  2.7010
  513MOL0     H70783   0.056   3.966   7.300  0.3375  0.7978 -0.8501
  513MOL0     H70784  -0.199   3.982   7.330 -0.6003 -0.8873  0.2084
  513MOL0     H70785  -0.186   4.045   7.478 -1.3066 -0.4422 -0.6945
  513MOL0     H70786  -0.048   3.817   7.552 -0.8979 -1.7289  0.2602
  513MOL0     H70787  -0.226   3.819   7.543 -0.5891  2.5025 -0.2051
  513MOL0     H70788  -0.035   3.724   7.341  0.4757 -1.9514 -0.2900
  513MOL0     H70789  -0.207   3.748   7.304  1.7836 -1.4906 -1.3514
  513MOL0     H70790  -0.228   3.392   7.532  2.5419  0.7687  1.4329
  513MOL0     H70791   0.169   4.150   7.706 -0.8143  2.4056  0.8958
  513MOL0     H70792   0.448   4.373   7.778 -1.3273  1.4949 -0.6827
  513MOL0     H70793   0.269   4.395   7.819 -0.4078 -1.2602  2.6226
  513MOL0     H70794   0.349   4.239   7.834  3.5993 -1.5491 -1.5792
  514MOL0     O70795   8.118   4.878   6.962  0.2260  0.0034 -0.5314
  514MOL0     C70796   8.034   4.832   7.041 -0.8758  0.4975 -0.3926
  514MOL0     O70797   8.045   4.716   7.102  0.4031  0.1881  0.1754
  514MOL0     C70798   8.159   4.687   7.172  0.2016 -0.0356  0.2739
  514MOL0     C70799   8.288   4.751   7.161 -0.1512  0.1085  0.1276
  514MOL0     C70800   8.390   4.711   7.252  0.0589 -0.1311 -0.5227
  514MOL0     C70801   8.366   4.615   7.353 -0.4122 -1.1520  0.3471
  514MOL0     O70802   8.454   4.588   7.448 -0.1169  0.3407 -0.2383
  514MOL0     C70803   8.577   4.664   7.475  0.1736  0.5265 -0.9399
  514MOL0     C70804   8.638   4.637   7.613 -0.2451 -0.0753  0.5198
  514MOL0     C70805   8.713   4.505   7.614 -0.2639  0.4407 -0.5557
  514MOL0     C70806   8.629   4.383   7.587 -1.0486 -0.1508  0.2077
  514MOL0     C70807   8.706   4.256   7.616  0.1735  0.0838 -0.0618
  514MOL0     C70808   8.613   4.136   7.585 -0.1109 -0.2176 -0.5628
  514MOL0     C70809   8.715   4.023   7.598 -0.8315  0.1254 -0.2671
  514MOL0     C70810   8.653   3.882   7.595 -0.0515  0.0151 -0.2890
  514MOL0     N70811   8.733   3.779   7.668  0.7898 -0.0648 -0.9559
  514MOL0     C70812   8.860   3.737   7.629 -0.0733 -0.0160 -0.3652
  514MOL0     C70813   8.900   3.677   7.745 -0.9623 -0.1372  0.4185
  514MOL0     C70814   9.041   3.630   7.770 -0.0376  0.2818  0.3650
  514MOL0     C70815   9.067   3.599   7.923 -0.5270 -0.0803  0.3203
  514MOL0     C70816   8.987   3.492   7.997 -0.1105 -0.4859  0.1452
  514MOL0     C70817   9.020   3.504   8.150  0.4013  0.1491  0.5278
  514MOL0     O70818   9.164   3.484   8.172  0.1303 -0.1899  0.1581
  514MOL0     C70819   9.200   3.435   8.295 -0.5563  0.4168  0.0021
  514MOL0     C70820   9.138   3.460   8.416  0.3355  0.4231 -0.4448
  514MOL0     C70821   9.193   3.424   8.539 -0.8588  0.3519 -1.6960
  514MOL0     C70822   9.108   3.446   8.669  0.3234 -0.0558  0.8224
  514MOL0     C70823   9.320   3.355   8.545  0.2565 -0.1856  0.8726
  514MOL0     C70824   9.398   3.318   8.665 -0.1300 -0.4779 -0.0089
  514MOL0     O70825   9.537   3.304   8.644  0.1917 -0.1380 -0.4767
  514MOL0     C70826   9.628   3.249   8.736  0.1432 -1.0294 -0.0512
  514MOL0     C70827   9.604   3.228   8.871  0.4625  0.4238 -0.2623
  514MOL0     C70828   9.709   3.188   8.955  0.3942  0.1362 -0.5090
  514MOL0     C70829   9.838   3.170   8.907 -0.1455  0.9978  0.2123
  514MOL0     O70830   9.941   3.118   8.984 -0.0707 -0.2370  0.3592
  514MOL0     C70831   9.914   3.069   9.119  0.3543  0.3297  0.8678
  514MOL0     C70832   9.904   3.187   9.224  0.2196  0.3221 -0.0099
  514MOL0     C70833   9.936   3.141   9.365  0.3253  0.2183 -0.8786
  514MOL0     C70834   9.957   3.251   9.470 -0.2318 -0.4066  0.4779
  514MOL0     C70835  10.097   3.315   9.468 -0.3519  0.4350  0.5952
  514MOL0     C70836  10.106   3.449   9.545 -0.3784  0.7595 -0.2217
  514MOL0     C70837  10.247   3.500   9.545 -0.7906  0.4242  0.6297
  514MOL0     C70838  10.265   3.635   9.608 -0.4099 -0.3052  0.8322
  514MOL0    Cl70839  10.194   3.765   9.511  0.3032 -0.3175 -0.3711
  514MOL0     C70840   9.858   3.177   8.765  0.1031  0.1555  0.2869
  514MOL0     C70841   9.753   3.230   8.688 -0.0127  0.7298  0.4660
  514MOL0     O70842   9.340   3.307   8.775 -0.0021 -1.0104 -0.9973
  514MOL0     C70843   9.383   3.327   8.421  0.3249  0.3703 -0.1033
  514MOL0     C70844   9.332   3.370   8.299  1.3274  0.2572 -0.1633
  514MOL0     N70845   8.798   3.663   7.836 -0.1290  0.0473 -0.2568
  514MOL0     N70846   8.697   3.733   7.796 -0.9723 -0.7501  0.0062
  514MOL0     C70847   8.258   4.537   7.342  0.1888 -0.2888 -0.1828
  514MOL0     C70848   8.149   4.570   7.253 -0.9680  0.1976 -0.2404
  514MOL0     C70849   7.909   4.900   7.048  0.0804 -0.1955 -0.1190
  514MOL0     C70850   7.815   4.854   7.143  0.3367  0.6370  0.3999
  514MOL0     C70851   7.694   4.931   7.183  0.2418  0.1618  0.1678
  514MOL0     C70852   7.660   5.040   7.101  0.0765 -1.0837 -0.0128
  514MOL0     O70853   7.549   5.123   7.125 -0.4979  0.1734  0.2613
  514MOL0     C70854   7.479   5.098   7.243  0.6002 -0.0431  0.2902
  514MOL0     C70855   7.360   4.999   7.221 -1.1221 -1.2104  0.3096
  514MOL0     C70856   7.281   5.025   7.093  0.4720  0.3247  0.1570
  514MOL0     C70857   7.180   4.917   7.062  0.5815 -0.1864  0.6351
  514MOL0     C70858   7.254   4.795   7.028  0.2506  0.2956  0.2399
  514MOL0     C70859   7.318   4.691   7.019 -0.0431 -1.2163  0.1299
  514MOL0     C70860   7.738   5.069   6.993  0.5829 -0.2728  0.8044
  514MOL0     C70861   7.864   5.012   6.967  0.9309  0.7326 -0.0393
  514MOL0     C70862   7.954   5.079   6.860 -0.5088 -0.9156 -0.0159
  514MOL0     H70863   8.301   4.831   7.089  0.5400  1.6007  1.8270
  514MOL0     H70864   8.483   4.767   7.248  0.2060 -0.3328  0.1072
  514MOL0     H70865   8.565   4.772   7.480 -1.9209  0.2994  2.6949
  514MOL0     H70866   8.656   4.646   7.401 -0.4748  1.5752 -1.9156
  514MOL0     H70867   8.717   4.713   7.618  0.5477 -0.9247  1.2043
  514MOL0     H70868   8.564   4.651   7.693  1.5119 -0.8853  2.3917
  514MOL0     H70869   8.803   4.514   7.553  0.9495 -2.2140  0.6508
  514MOL0     H70870   8.745   4.494   7.718 -1.1042  1.1266 -0.2166
  514MOL0     H70871   8.546   4.396   7.656  1.8042  2.4664  3.5241
  514MOL0     H70872   8.596   4.387   7.483  1.0204 -0.3015 -0.5165
  514MOL0     H70873   8.730   4.254   7.722 -0.3727  3.6223  0.2325
  514MOL0     H70874   8.803   4.262   7.566  0.3222 -0.3878  0.1652
  514MOL0     H70875   8.537   4.132   7.663 -0.7912 -2.9667 -1.2366
  514MOL0     H70876   8.564   4.145   7.488  0.2058  0.6887 -0.6468
  514MOL0     H70877   8.773   4.035   7.690 -0.2746 -1.3742 -0.3959
  514MOL0     H70878   8.794   4.028   7.522  0.2639  1.4162  0.9072
  514MOL0     H70879   8.555   3.898   7.639 -0.3154  1.5180 -1.3489
  514MOL0     H70880   8.641   3.856   7.489 -2.0509  3.1097 -0.9441
  514MOL0     H70881   8.910   3.759   7.535 -2.1077  0.6369 -1.3595
  514MOL0     H70882   9.105   3.711   7.735  1.8285 -0.7611  1.1901
  514MOL0     H70883   9.050   3.540   7.709 -0.6703  1.4814 -1.5972
  514MOL0     H70884   9.175   3.577   7.922 -0.3604  0.1924 -3.7250
  514MOL0     H70885   9.064   3.694   7.976  1.8775  0.7904 -0.9219
  514MOL0     H70886   8.880   3.509   7.981  0.3431  1.7889 -0.8982
  514MOL0     H70887   9.008   3.392   7.959  2.2843  0.1159 -0.3023
  514MOL0     H70888   8.989   3.604   8.181 -0.7971 -0.0639  0.0888
  514MOL0     H70889   8.959   3.424   8.193  0.5836 -1.2717 -1.6619
  514MOL0     H70890   9.044   3.513   8.412 -0.8215 -1.5455 -1.1594
  514MOL0     H70891   9.027   3.518   8.651 -0.7338 -1.3041  0.4428
  514MOL0     H70892   9.164   3.489   8.753 -1.5304 -1.3070  2.8212
  514MOL0     H70893   9.060   3.351   8.696 -0.4152 -0.7581 -2.5738
  514MOL0     H70894   9.503   3.239   8.910 -0.8798 -1.3552 -2.9085
  514MOL0     H70895   9.679   3.172   9.058  0.8383  0.9163 -0.2560
  514MOL0     H70896   9.824   3.007   9.129  0.4768  0.1648  0.9462
  514MOL0     H70897   9.994   3.000   9.146  1.2691  1.2054  0.4477
  514MOL0     H70898   9.972   3.266   9.192 -1.1765  1.6570  0.2204
  514MOL0     H70899   9.804   3.229   9.236  0.9136  1.4214  2.7219
  514MOL0     H70900  10.031   3.088   9.368  0.3248  0.1984  1.8529
  514MOL0     H70901   9.859   3.074   9.406  2.5792 -2.5214 -0.8636
  514MOL0     H70902   9.935   3.211   9.569  1.6014 -2.9528 -0.0370
  514MOL0     H70903   9.882   3.318   9.427 -0.0111 -0.9413 -0.7891
  514MOL0     H70904  10.171   3.241   9.500  1.2987  1.2266 -1.1647
  514MOL0     H70905  10.124   3.337   9.364  0.1672 -2.0213  0.1468
  514MOL0     H70906  10.081   3.440   9.652  2.5278 -0.8977  0.4289
  514MOL0     H70907  10.034   3.519   9.503 -1.3018  0.3030  0.5406
  514MOL0     H70908  10.277   3.510   9.440 -2.4349  0.2345  0.1192
  514MOL0     H70909  10.316   3.432   9.596 -0.4533 -0.9431 -1.5068
  514MOL0     H70910  10.370   3.663   9.615 -0.3859 -0.7607  2.6824
  514MOL0     H70911  10.229   3.640   9.711  1.4374  1.5093  1.4328
  514MOL0     H70912   9.954   3.160   8.719  0.3217  0.0050  0.7914
  514MOL0     H70913   9.772   3.241   8.582  0.0234  1.1287  0.5142
  514MOL0     H70914   9.483   3.287   8.408  0.1157 -0.5533  1.0019
  514MOL0     H70915   9.374   3.367   8.199 -0.5911  2.8339 -1.1616
  514MOL0     H70916   8.246   4.462   7.419  3.6432 -0.4819  0.3228
  514MOL0     H70917   8.058   4.511   7.259 -0.3419 -0.7480  0.1741
  514MOL0     H70918   7.826   4.760   7.196  2.2082 -0.3237 -1.5608
  514MOL0     H70919   7.622   4.893   7.253 -0.2214 -2.7016 -1.6913
  514MOL0     H70920   7.537   5.070   7.332  0.5526 -0.3441  0.2282
  514MOL0     H70921   7.435   5.195   7.266  1.5940  0.5808 -0.4112
  514MOL0     H70922   7.281   5.003   7.298 -1.2470  3.5743  0.2622
  514MOL0     H70923   7.405   4.900   7.225 -0.4252 -0.9220 -0.2910
  514MOL0     H70924   7.237   5.124   7.085 -0.4512 -0.1333 -0.6074
  514MOL0     H70925   7.356   5.006   7.015 -1.1379  0.4943 -1.4862
  514MOL0     H70926   7.132   4.954   6.971  0.2453  1.9121  1.6108
  514MOL0     H70927   7.104   4.901   7.139  1.0574 -0.9757  0.9498
  514MOL0     H70928   7.383   4.607   7.002  0.8296 -0.6353  0.5713
  514MOL0     H70929   7.705   5.156   6.937 -2.3636 -3.6258 -3.3087
  514MOL0     H70930   7.926   5.184   6.846 -3.6535 -1.2813  2.3621
  514MOL0     H70931   8.056   5.112   6.882 -1.9923  2.6307  2.6251
  514MOL0     H70932   7.940   5.024   6.767  0.8152  0.0330 -0.7999
  515MOL0     O70933   2.660   1.068   7.344 -0.3566 -0.7296  0.3897
  515MOL0     C70934   2.631   1.180   7.323 -0.1758 -0.4836  0.1674
  515MOL0     O70935   2.717   1.286   7.315  0.1545 -0.5532  0.1733
  515MOL0     C70936   2.684   1.408   7.259  0.0405 -0.8579 -0.6479
  515MOL0     C70937   2.708   1.526   7.335  0.1714  0.1568 -0.6079
  515MOL0     C70938   2.661   1.652   7.288 -0.6862 -0.4652 -0.4796
  515MOL0     C70939   2.619   1.667   7.159  0.2144 -0.5004  0.0559
  515MOL0     O70940   2.593   1.796   7.125 -0.0741  0.5377  0.8263
  515MOL0     C70941   2.640   1.835   6.996  1.0008  0.7088  0.4299
  515MOL0     C70942   2.600   1.976   6.962 -0.8664 -0.3777 -0.4199
  515MOL0     C70943   2.664   2.071   7.059 -0.3873  0.1324  0.2807
  515MOL0     C70944   2.816   2.085   7.027  0.5283 -0.6727  0.8037
  515MOL0     C70945   2.874   2.206   7.098  1.0810  0.2177  0.1226
  515MOL0     C70946   3.032   2.210   7.094  0.1935 -0.1205  0.1423
  515MOL0     C70947   3.091   2.340   7.136 -0.2311  0.5455 -0.2661
  515MOL0     C70948   3.233   2.340   7.124 -0.0526  0.7417 -0.4417
  515MOL0     N70949   3.278   2.348   6.985  0.0756 -0.1596  0.2269
  515MOL0     C70950   3.279   2.465   6.902  0.7060  0.5921  0.0545
  515MOL0     C70951   3.311   2.412   6.783 -0.4436  0.1533 -0.1167
  515MOL0     C70952   3.315   2.494   6.655 -0.4178 -0.3365 -0.2339
  515MOL0     C70953   3.444   2.569   6.638  0.3950 -0.2885  0.2859
  515MOL0     C70954   3.576   2.478   6.629 -0.0288 -0.8601 -0.0644
  515MOL0     C70955   3.559   2.386   6.511  0.0968  0.0678 -0.0456
  515MOL0     O70956   3.686   2.351   6.465  0.2769  0.4030  0.1446
  515MOL0     C70957   3.769   2.459   6.427  0.0033 -0.0356  0.2968
  515MOL0     C70958   3.902   2.449   6.453 -0.3926 -0.3032  0.4447
  515MOL0     C70959   4.000   2.545   6.423  0.0525  0.5174 -0.1261
  515MOL0     C70960   4.140   2.508   6.453  0.4040  0.8364 -0.1115
  515MOL0     C70961   3.962   2.658   6.341  0.3906  0.4238 -0.3023
  515MOL0     C70962   4.067   2.748   6.278  1.3637  0.3940  0.0440
  515MOL0     O70963   4.205   2.730   6.298 -0.0173  0.0308  0.3460
  515MOL0     C70964   4.294   2.788   6.206 -0.8628 -0.0491  0.7871
  515MOL0     C70965   4.269   2.786   6.069 -0.1212  0.4747  0.0808
  515MOL0     C70966   4.361   2.847   5.978 -0.5725  0.7284  0.3782
  515MOL0     C70967   4.475   2.916   6.025  0.0617  0.3807 -0.3756
  515MOL0     O70968   4.579   2.966   5.957 -0.1340  0.1727  0.9716
  515MOL0     C70969   4.564   2.993   5.812 -0.0097  0.0886 -0.2709
  515MOL0     C70970   4.700   3.048   5.759 -0.0775  0.1599  1.1058
  515MOL0     C70971   4.746   2.953   5.654  0.1714  0.4575 -0.0833
  515MOL0     C70972   4.880   2.996   5.613  0.6038  0.5431  0.6471
  515MOL0     C70973   4.931   2.905   5.502  0.9416 -0.3762 -0.2953
  515MOL0     C70974   4.856   2.933   5.370 -0.0323  1.0189 -0.4092
  515MOL0     C70975   4.917   2.848   5.254 -0.2154 -0.3113  1.1190
  515MOL0     C70976   4.847   2.884   5.115 -0.1304  0.1111 -0.8290
  515MOL0    Cl70977   4.678   2.831   5.100  0.4273  0.1345  0.2726
  515MOL0     C70978   4.494   2.911   6.166 -0.4571 -0.1633  0.0660
  515MOL0     C70979   4.413   2.850   6.252  0.6712 -0.1472  0.0220
  515MOL0     O70980   4.019   2.833   6.211  0.5530 -0.1985  1.2205
  515MOL0     C70981   3.821   2.664   6.306 -0.4668 -0.1830  0.1027
  515MOL0     C70982   3.730   2.565   6.355 -0.1367 -0.1043  0.6584
  515MOL0     N70983   3.338   2.278   6.795 -0.6470 -0.2283 -0.4916
  515MOL0     N70984   3.318   2.241   6.914  0.4355 -0.1402  1.0212
  515MOL0     C70985   2.595   1.552   7.083 -0.4974  0.9000  0.0115
  515MOL0     C70986   2.628   1.425   7.128  0.2270  1.6955 -0.3278
  515MOL0     C70987   2.481   1.202   7.305  0.6648 -0.7235  0.0538
  515MOL0     C70988   2.409   1.292   7.383  0.2704 -0.7627 -0.0468
  515MOL0     C70989   2.271   1.311   7.376 -0.4877  0.0706  0.8169
  515MOL0     C70990   2.205   1.255   7.263  0.0262  0.5395 -0.6058
  515MOL0     O70991   2.078   1.292   7.241  0.2388  0.2058  0.5889
  515MOL0     C70992   1.976   1.190   7.202 -0.4584 -0.7142 -0.2503
  515MOL0     C70993   1.993   1.070   7.294  0.0247  0.2301 -0.6458
  515MOL0     C70994   1.856   0.996   7.319 -0.0862  0.2591 -0.4882
  515MOL0     C70995   1.875   0.879   7.413  0.6083 -0.2404  1.2992
  515MOL0     C70996   1.757   0.785   7.425 -0.3965  0.0144  1.1791
  515MOL0     C70997   1.672   0.696   7.416 -0.9305 -0.0662 -0.2055
  515MOL0     C70998   2.273   1.166   7.174  0.1021 -0.6585 -0.0863
  515MOL0     C70999   2.404   1.131   7.205 -1.3080  0.4566 -0.1822
  515MOL0     C71000   2.479   1.045   7.101  0.0372  0.7045 -0.0317
  515MOL0     H71001   2.753   1.523   7.434  0.7416 -0.4397 -0.8746
  515MOL0     H71002   2.675   1.745   7.342 -0.7961  1.9338 -4.2587
  515MOL0     H71003   2.595   1.769   6.921  0.6182  0.0992  1.1789
  515MOL0     H71004   2.750   1.834   6.989  0.9975 -3.0338 -3.0255
  515MOL0     H71005   2.648   1.999   6.866  1.0182  0.1793  0.6087
  515MOL0     H71006   2.493   1.987   6.979 -0.7064 -0.9346  1.0249
  515MOL0     H71007   2.615   2.169   7.052 -1.0337 -0.2528 -0.8705
  515MOL0     H71008   2.649   2.038   7.162 -0.9914  0.6060  0.3532
  515MOL0     H71009   2.872   1.997   7.059  1.2479 -0.2904  0.6136
  515MOL0     H71010   2.836   2.104   6.921 -0.0872 -1.0252  0.6195
  515MOL0     H71011   2.840   2.199   7.202  1.1937 -2.0988  0.0451
  515MOL0     H71012   2.839   2.299   7.052 -0.3064 -0.8224 -1.0396
  515MOL0     H71013   3.059   2.130   7.164 -1.9403 -2.5585 -1.5939
  515MOL0     H71014   3.063   2.170   6.997 -3.2859 -0.8171 -0.8087
  515MOL0     H71015   3.064   2.363   7.240 -0.7751 -2.5398  0.3613
  515MOL0     H71016   3.035   2.411   7.074 -1.0603 -0.8191 -1.1048
  515MOL0     H71017   3.285   2.427   7.167  0.3685  0.1812  0.2002
  515MOL0     H71018   3.283   2.249   7.159 -0.2066  0.0205 -1.9946
  515MOL0     H71019   3.247   2.566   6.926  1.5630  0.8829 -0.0106
  515MOL0     H71020   3.236   2.568   6.673 -0.2653 -0.1406 -0.3738
  515MOL0     H71021   3.287   2.427   6.574  0.3791 -2.2106  0.9812
  515MOL0     H71022   3.434   2.631   6.548 -0.4285  2.9250  2.4088
  515MOL0     H71023   3.451   2.642   6.719 -1.0733  1.5948 -1.1680
  515MOL0     H71024   3.662   2.545   6.637 -0.6628 -0.1821  1.5130
  515MOL0     H71025   3.582   2.418   6.720  0.6100 -1.9753 -0.8212
  515MOL0     H71026   3.515   2.294   6.550  1.9182 -0.2825  1.2785
  515MOL0     H71027   3.507   2.435   6.428 -0.4569 -0.0784  0.2119
  515MOL0     H71028   3.928   2.362   6.512  0.6138  0.4769  1.1945
  515MOL0     H71029   4.142   2.425   6.525 -1.3128  2.3666  1.8168
  515MOL0     H71030   4.192   2.588   6.507 -2.4791  1.9230  1.2847
  515MOL0     H71031   4.196   2.475   6.365  0.1053  0.0550 -0.0214
  515MOL0     H71032   4.187   2.730   6.025  1.1216 -2.2483  1.0581
  515MOL0     H71033   4.348   2.852   5.870  1.4866 -1.5394 -0.0712
  515MOL0     H71034   4.529   2.903   5.760  0.7127  0.4795 -1.4804
  515MOL0     H71035   4.488   3.069   5.793 -1.5145 -0.8742  1.5770
  515MOL0     H71036   4.689   3.149   5.720 -2.8191 -0.3787  0.2930
  515MOL0     H71037   4.780   3.052   5.834  0.4386 -0.4490  0.6018
  515MOL0     H71038   4.666   2.954   5.579  0.0178  0.7764  0.0833
  515MOL0     H71039   4.751   2.858   5.708 -1.2727  0.8773  0.8389
  515MOL0     H71040   4.956   2.992   5.692  2.8227 -2.7016 -1.4146
  515MOL0     H71041   4.867   3.095   5.567 -0.6148  0.8692  1.6301
  515MOL0     H71042   5.040   2.912   5.491  0.7104  0.2393 -2.6091
  515MOL0     H71043   4.918   2.799   5.529 -0.3919  0.2068  1.5582
  515MOL0     H71044   4.840   3.038   5.346 -0.6862  1.0952  0.3287
  515MOL0     H71045   4.755   2.893   5.382  1.1119 -2.3017 -0.7885
  515MOL0     H71046   4.914   2.742   5.280 -1.7256 -0.7592 -0.6078
  515MOL0     H71047   5.020   2.880   5.237 -0.5978 -0.3173 -1.7360
  515MOL0     H71048   4.895   2.826   5.036 -0.0622 -2.3202  0.8895
  515MOL0     H71049   4.854   2.990   5.091 -1.2948  0.8752  1.9001
  515MOL0     H71050   4.576   2.969   6.205 -1.8217  0.4025  2.2922
  515MOL0     H71051   4.428   2.846   6.359 -1.0341 -1.2216  0.2759
  515MOL0     H71052   3.787   2.753   6.254  1.2562 -0.0978 -0.9691
  515MOL0     H71053   3.624   2.575   6.334 -0.1304  0.4193  0.8602
  515MOL0     H71054   2.552   1.559   6.984 -2.3276  0.4540  0.7337
  515MOL0     H71055   2.600   1.347   7.058 -1.7664  2.2583 -0.1901
  515MOL0     H71056   2.458   1.354   7.456 -2.1337  0.2900  0.7636
  515MOL0     H71057   2.230   1.374   7.455 -0.1902  0.4620  0.6604
  515MOL0     H71058   1.875   1.225   7.223  0.1253  0.1044  1.3643
  515MOL0     H71059   1.990   1.172   7.095  2.2784  2.7841 -0.6902
  515MOL0     H71060   2.033   1.114   7.386 -1.2085  4.3836 -1.8477
  515MOL0     H71061   2.056   0.991   7.252 -0.1028 -1.2853  1.7932
  515MOL0     H71062   1.787   1.070   7.360 -0.6967 -1.1667  1.1329
  515MOL0     H71063   1.825   0.973   7.217  2.4860  1.4906 -1.6595
  515MOL0     H71064   1.905   0.925   7.508  2.8403  2.6363 -0.6263
  515MOL0     H71065   1.961   0.820   7.381 -0.9049 -2.9647  1.9307
  515MOL0     H71066   1.598   0.622   7.397 -0.7117  0.1902 -2.3234
  515MOL0     H71067   2.222   1.127   7.086  2.2175  0.5257 -1.9515
  515MOL0     H71068   2.521   0.948   7.130  1.0655  0.6490 -1.5664
  515MOL0     H71069   2.421   1.015   7.013  1.3940  0.5709 -0.9073
  515MOL0     H71070   2.557   1.112   7.064 -1.6286  1.6402 -2.1137
  516MOL0     O71071   1.229   1.859   4.491 -0.1838  0.2353 -0.1662
  516MOL0     C71072   1.161   1.822   4.586  0.5725  0.4384 -0.3026
  516MOL0     O71073   1.204   1.733   4.684 -0.1659  0.6476  0.2218
  516MOL0     C71074   1.330   1.683   4.667  0.0357 -0.1076  0.2663
  516MOL0     C71075   1.442   1.748   4.710 -0.1901  0.1195 -0.9699
  516MOL0     C71076   1.566   1.684   4.715  0.8088  0.3064 -0.3199
  516MOL0     C71077   1.583   1.554   4.668 -0.1938 -0.1356  0.0954
  516MOL0     O71078   1.699   1.480   4.654 -0.3994  0.5633 -0.1292
  516MOL0     C71079   1.814   1.507   4.741 -0.2319 -0.0324 -0.1023
  516MOL0     C71080   1.892   1.383   4.783  0.4627  0.7149  1.0243
  516MOL0     C71081   1.973   1.308   4.672 -0.0411 -0.5006  0.0021
  516MOL0     C71082   2.094   1.251   4.733 -0.1768  0.7402 -0.0658
  516MOL0     C71083   2.181   1.162   4.649  0.0694  0.0390  0.5402
  516MOL0     C71084   2.121   1.022   4.651  0.2696 -0.5326  0.1643
  516MOL0     C71085   2.185   0.924   4.550  0.9588  0.4012 -0.7797
  516MOL0     C71086   2.168   0.978   4.419  0.4644 -0.0602  0.7920
  516MOL0     N71087   2.194   0.888   4.309 -0.2152  0.1946 -0.0918
  516MOL0     C71088   2.119   0.775   4.284  0.3732 -0.2371 -0.8507
  516MOL0     C71089   2.153   0.743   4.153  0.2265  0.4312 -0.1942
  516MOL0     C71090   2.098   0.621   4.074 -0.0376  0.2571  0.4957
  516MOL0     C71091   1.993   0.665   3.971  0.4218 -0.4381 -0.1841
  516MOL0     C71092   1.852   0.674   4.047 -0.5954  0.6874 -0.1984
  516MOL0     C71093   1.731   0.728   3.965  0.6919  0.3491 -0.0442
  516MOL0     O71094   1.743   0.677   3.828  0.2187  0.4933 -0.2372
  516MOL0     C71095   1.785   0.747   3.718 -0.6672  0.1662 -0.9237
  516MOL0     C71096   1.770   0.685   3.590 -0.1717  0.1610  0.1005
  516MOL0     C71097   1.796   0.750   3.468  0.1261 -0.5132  0.7684
  516MOL0     C71098   1.790   0.667   3.341  0.3881  0.5733  0.2261
  516MOL0     C71099   1.857   0.876   3.476 -0.5682  0.1844 -0.5298
  516MOL0     C71100   1.898   0.958   3.360 -0.0989  0.0341 -0.2475
  516MOL0     O71101   2.017   1.024   3.378  0.8021  0.3849 -0.2697
  516MOL0     C71102   2.059   1.114   3.280 -0.5229 -0.7177  0.1572
  516MOL0     C71103   2.030   1.253   3.278 -0.5557 -0.9186 -0.3906
  516MOL0     C71104   2.072   1.331   3.166  0.3020 -0.2625  0.2470
  516MOL0     C71105   2.142   1.276   3.056  0.6493 -0.1851 -0.2932
  516MOL0     O71106   2.153   1.351   2.946 -0.2636  0.4080 -0.2673
  516MOL0     C71107   2.204   1.293   2.825 -0.4045 -0.3535 -0.2237
  516MOL0     C71108   2.218   1.400   2.725 -0.1783 -0.1612  0.2692
  516MOL0     C71109   2.315   1.514   2.751 -0.1097 -0.0097 -0.4024
  516MOL0     C71110   2.419   1.482   2.866 -0.6719  0.6855  0.1627
  516MOL0     C71111   2.514   1.596   2.892 -0.3687  0.1805 -0.1301
  516MOL0     C71112   2.611   1.581   3.015  0.2552  0.3975  0.2776
  516MOL0     C71113   2.534   1.550   3.147  0.9001 -0.6702 -0.3707
  516MOL0     C71114   2.618   1.530   3.264  0.4707 -0.5209 -0.0883
  516MOL0    Cl71115   2.763   1.421   3.246 -0.0354  0.0138 -0.0090
  516MOL0     C71116   2.174   1.138   3.073  0.6333 -1.1273  0.1350
  516MOL0     C71117   2.133   1.061   3.178  0.5205  0.0290 -0.1819
  516MOL0     O71118   1.831   0.975   3.259 -0.6276 -0.2540  0.7154
  516MOL0     C71119   1.880   0.941   3.603 -0.9854  0.2120 -0.4358
  516MOL0     C71120   1.845   0.872   3.720  0.6061  0.3675  0.4371
  516MOL0     N71121   2.228   0.839   4.095  0.0566 -0.4977 -0.5139
  516MOL0     N71122   2.245   0.931   4.193  0.4337 -0.1865  0.7747
  516MOL0     C71123   1.471   1.493   4.610 -0.5121 -0.1323  0.0606
  516MOL0     C71124   1.342   1.557   4.613 -0.3653 -0.0752 -0.9319
  516MOL0     C71125   1.025   1.879   4.580  0.6388  0.2276  0.3993
  516MOL0     C71126   0.947   1.839   4.689  0.1456  0.0560  0.1571
  516MOL0     C71127   0.813   1.871   4.707 -0.3997  0.1399 -0.1792
  516MOL0     C71128   0.757   1.964   4.610  0.6937  0.0903 -0.0231
  516MOL0     O71129   0.632   2.006   4.637  0.3866  0.7750 -0.4099
  516MOL0     C71130   0.570   2.096   4.546 -0.6359  0.2008 -0.7023
  516MOL0     C71131   0.432   2.145   4.597 -0.3837 -0.3935 -0.3119
  516MOL0     C71132   0.354   2.228   4.495  0.0281  0.5353  0.2657
  516MOL0     C71133   0.207   2.238   4.546  0.0804 -0.7700 -0.0649
  516MOL0     C71134   0.127   2.140   4.485  0.5089  0.0023 -0.0328
  516MOL0     C71135   0.061   2.060   4.429  0.3681 -0.5106 -0.3735
  516MOL0     C71136   0.839   2.007   4.503 -0.1947  0.2656 -0.2861
  516MOL0     C71137   0.973   1.970   4.489 -0.3634 -0.3084  0.6282
  516MOL0     C71138   1.045   2.009   4.354  0.6655 -0.0263 -0.0232
  516MOL0     H71139   1.421   1.848   4.747 -2.0723 -0.9882  1.1838
  516MOL0     H71140   1.656   1.734   4.749  1.8714 -1.0450 -1.0359
  516MOL0     H71141   1.766   1.542   4.833 -2.6782 -0.7262 -1.0410
  516MOL0     H71142   1.878   1.592   4.715  0.9708  0.5091  3.9263
  516MOL0     H71143   1.961   1.424   4.858  1.3657  1.9841 -0.4256
  516MOL0     H71144   1.818   1.315   4.826 -1.2671  0.9519 -1.3970
  516MOL0     H71145   1.909   1.226   4.639 -3.7610  1.2160  2.3983
  516MOL0     H71146   2.002   1.372   4.588 -1.3882  1.0179  0.6513
  516MOL0     H71147   2.165   1.330   4.755 -1.9399  3.0603 -2.0887
  516MOL0     H71148   2.067   1.203   4.827 -0.2475  0.6302 -0.1408
  516MOL0     H71149   2.283   1.157   4.686 -0.2706  0.3934  1.5647
  516MOL0     H71150   2.187   1.201   4.547 -3.1000  0.5900  0.4613
  516MOL0     H71151   2.129   0.977   4.751 -0.4472 -0.8669  0.0833
  516MOL0     H71152   2.013   1.032   4.639  0.4285  2.2350  0.5351
  516MOL0     H71153   2.121   0.835   4.553 -0.9514  1.7055 -0.5679
  516MOL0     H71154   2.286   0.901   4.585  0.8446 -0.6342 -1.0726
  516MOL0     H71155   2.065   1.014   4.421  0.1301 -1.0125  1.1028
  516MOL0     H71156   2.241   1.058   4.400  2.5335 -2.0433 -0.1195
  516MOL0     H71157   2.059   0.715   4.351 -2.4460  2.0002 -1.1790
  516MOL0     H71158   2.061   0.535   4.131  1.3986 -1.4603 -1.0407
  516MOL0     H71159   2.186   0.587   4.018 -0.2729 -0.0842  0.3327
  516MOL0     H71160   2.015   0.761   3.924  0.3395 -1.2411 -1.9824
  516MOL0     H71161   1.986   0.582   3.899 -0.5780 -0.8837  0.3976
  516MOL0     H71162   1.826   0.574   4.083  0.2812  0.2923 -0.6372
  516MOL0     H71163   1.869   0.734   4.137  1.1183 -0.9670  0.6485
  516MOL0     H71164   1.643   0.691   4.018  1.1531  1.7062  1.7987
  516MOL0     H71165   1.732   0.837   3.973  2.6045  0.3091  0.8841
  516MOL0     H71166   1.726   0.586   3.587 -1.0546  0.5373  0.3780
  516MOL0     H71167   1.698   0.608   3.334  0.4972  0.6071 -2.6961
  516MOL0     H71168   1.866   0.589   3.335 -1.5198 -1.3356 -0.4004
  516MOL0     H71169   1.807   0.724   3.250  1.2345  0.0471  0.0454
  516MOL0     H71170   1.975   1.298   3.360  1.8801 -1.2275  1.5336
  516MOL0     H71171   2.036   1.434   3.163 -0.5488 -0.4649  2.0213
  516MOL0     H71172   2.298   1.239   2.837 -2.3934 -3.7040  2.2878
  516MOL0     H71173   2.135   1.216   2.791  0.6586 -1.8337  0.8525
  516MOL0     H71174   2.253   1.360   2.629 -0.0862  1.9226 -0.6422
  516MOL0     H71175   2.115   1.436   2.716  0.3503  1.0047 -1.7922
  516MOL0     H71176   2.276   1.615   2.768 -1.7469 -1.0709  3.0596
  516MOL0     H71177   2.375   1.511   2.659  0.9700 -2.0407  0.3185
  516MOL0     H71178   2.479   1.392   2.848 -1.9430  0.0018 -0.8530
  516MOL0     H71179   2.359   1.465   2.956  1.5650  0.9963  1.7996
  516MOL0     H71180   2.563   1.625   2.798 -0.1750 -1.1346 -0.4571
  516MOL0     H71181   2.452   1.684   2.911 -0.9080  0.1388 -1.5433
  516MOL0     H71182   2.657   1.679   3.032 -0.0529  0.2431  2.1769
  516MOL0     H71183   2.688   1.506   2.996  1.5552  1.9538 -0.9102
  516MOL0     H71184   2.466   1.465   3.134 -0.8733  0.9465 -2.2708
  516MOL0     H71185   2.474   1.640   3.157  3.9135  1.4938 -0.3504
  516MOL0     H71186   2.556   1.499   3.348  0.4258  2.2498  0.9995
  516MOL0     H71187   2.651   1.628   3.300 -4.6774  1.2129  0.6817
  516MOL0     H71188   2.221   1.081   2.993 -0.5216 -1.8385 -0.0588
  516MOL0     H71189   2.154   0.954   3.173 -0.9772 -0.2554 -1.0917
  516MOL0     H71190   1.919   1.042   3.604  0.9907 -0.4372  2.6811
  516MOL0     H71191   1.857   0.933   3.810 -2.3875  1.1423  0.4120
  516MOL0     H71192   1.480   1.390   4.576 -2.6866  0.0854 -1.4017
  516MOL0     H71193   1.259   1.499   4.573 -0.9571  0.9428 -1.2242
  516MOL0     H71194   0.991   1.770   4.760 -3.1897 -2.5699 -0.1284
  516MOL0     H71195   0.768   1.842   4.801 -2.3880 -0.0378 -1.1277
  516MOL0     H71196   0.632   2.183   4.528  0.2681  0.1496  1.8048
  516MOL0     H71197   0.555   2.048   4.449  0.6387  1.2882 -1.4706
  516MOL0     H71198   0.437   2.207   4.687 -0.4716  1.2372 -1.3860
  516MOL0     H71199   0.371   2.055   4.610 -5.5604  2.9500  1.5176
  516MOL0     H71200   0.404   2.325   4.491 -0.7283  0.9048 -0.3737
  516MOL0     H71201   0.357   2.196   4.391 -0.5807  1.8302 -0.1595
  516MOL0     H71202   0.165   2.326   4.496 -3.3128 -2.2568 -0.1265
  516MOL0     H71203   0.194   2.256   4.653 -0.9743  0.0698 -0.3143
  516MOL0     H71204  -0.016   2.010   4.373 -1.7358  0.9936  1.0308
  516MOL0     H71205   0.801   2.078   4.430 -1.3394 -0.6358 -0.6016
  516MOL0     H71206   1.128   2.077   4.375 -1.4995  2.8265 -0.0996
  516MOL0     H71207   1.075   1.927   4.289 -4.0300 -1.6034 -0.5498
  516MOL0     H71208   0.973   2.065   4.295  0.7988  1.0664  0.8073
  517MOL0     O71209   4.715   4.279  10.267 -0.1572 -0.2523  0.4355
  517MOL0     C71210   4.752   4.169  10.308  0.0112  0.0157  0.4638
  517MOL0     O71211   4.862   4.100  10.256  0.4698 -0.6754 -0.2629
  517MOL0     C71212   4.938   4.160  10.162 -0.7688  0.0178 -0.3453
  517MOL0     C71213   4.963   4.092  10.047 -0.4165 -0.6424  0.7053
  517MOL0     C71214   5.074   4.135   9.963 -0.2643  0.0810  0.4840
  517MOL0     C71215   5.153   4.245   9.993 -0.2738  0.0102  0.1776
  517MOL0     O71216   5.260   4.270   9.908 -0.4157 -0.4030 -0.4946
  517MOL0     C71217   5.296   4.406   9.881 -1.0215  0.2001 -0.8919
  517MOL0     C71218   5.292   4.438   9.734  0.1586 -0.2471  0.1002
  517MOL0     C71219   5.292   4.590   9.697 -0.0489  0.4008 -0.0527
  517MOL0     C71220   5.296   4.590   9.549  0.4378  0.4857 -0.4248
  517MOL0     C71221   5.312   4.735   9.505  0.1786 -0.6858 -0.0967
  517MOL0     C71222   5.363   4.749   9.356 -0.0594  0.7359 -0.1621
  517MOL0     C71223   5.349   4.898   9.305  0.8605 -0.1156 -0.1095
  517MOL0     C71224   5.400   4.909   9.163  0.1445 -0.1098  0.1668
  517MOL0     N71225   5.425   5.038   9.100  0.1492 -0.2731  0.0770
  517MOL0     C71226   5.509   5.134   9.152  0.3735  0.4559 -0.5617
  517MOL0     C71227   5.547   5.211   9.044  0.1186  0.0455 -0.2663
  517MOL0     C71228   5.650   5.329   9.026  0.3500 -0.0896  0.1828
  517MOL0     C71229   5.797   5.288   9.056  0.0345 -0.6615  0.0142
  517MOL0     C71230   5.821   5.138   9.017 -0.6150 -0.2544  0.3083
  517MOL0     C71231   5.972   5.118   9.014  0.0690  0.4262 -0.2758
  517MOL0     O71232   6.018   5.134   9.150 -0.2977  0.0781  0.2262
  517MOL0     C71233   6.150   5.121   9.179 -0.4263  0.2879 -0.4059
  517MOL0     C71234   6.199   5.175   9.291 -0.3028  0.0243  0.1122
  517MOL0     C71235   6.336   5.170   9.323  0.7999  0.3590 -0.0382
  517MOL0     C71236   6.375   5.233   9.465 -0.3715  0.0540  0.8422
  517MOL0     C71237   6.436   5.116   9.231  0.5386 -0.1543 -0.1106
  517MOL0     C71238   6.580   5.099   9.256  1.5901  0.7925 -0.8047
  517MOL0     O71239   6.637   5.152   9.368  0.2524  1.0661  0.1365
  517MOL0     C71240   6.773   5.131   9.384  0.4359  0.1167  0.1655
  517MOL0     C71241   6.838   5.008   9.371  1.2333  0.2461 -0.4119
  517MOL0     C71242   6.978   4.999   9.386 -0.4088 -0.2858 -0.5497
  517MOL0     C71243   7.056   5.111   9.418 -0.2747 -0.2933 -0.1459
  517MOL0     O71244   7.194   5.106   9.426  0.1209 -0.1582  0.7561
  517MOL0     C71245   7.262   4.989   9.408 -1.2656 -0.0491 -0.1835
  517MOL0     C71246   7.291   4.968   9.263 -0.3942  0.4100 -0.9527
  517MOL0     C71247   7.421   5.038   9.224  0.2973 -0.1422  0.3356
  517MOL0     C71248   7.456   5.001   9.082 -0.3400  0.4336  0.1885
  517MOL0     C71249   7.594   5.034   9.034 -0.6265  1.1498  0.4016
  517MOL0     C71250   7.629   5.184   9.024 -0.4019 -0.0497 -1.4961
  517MOL0     C71251   7.518   5.279   8.966 -0.7161 -0.2531 -0.2686
  517MOL0     C71252   7.576   5.405   8.902  0.0958  1.3263  0.7749
  517MOL0    Cl71253   7.690   5.391   8.753  0.2506 -0.3480  0.1544
  517MOL0     C71254   6.995   5.228   9.450  1.0144  0.4091  0.5421
  517MOL0     C71255   6.850   5.237   9.439  0.4082  0.3771 -0.3937
  517MOL0     O71256   6.634   5.022   9.176 -0.6418 -0.4368 -0.2787
  517MOL0     C71257   6.380   5.059   9.108 -0.0334  0.5825 -0.2618
  517MOL0     C71258   6.240   5.060   9.084 -0.0399  0.3090 -0.7330
  517MOL0     N71259   5.474   5.168   8.932  0.8436 -0.7100 -0.1637
  517MOL0     N71260   5.400   5.062   8.972  0.1656  0.2294 -0.0857
  517MOL0     C71261   5.131   4.313  10.105 -0.5601 -0.1120 -0.4348
  517MOL0     C71262   5.024   4.270  10.189  0.8485  0.3851  0.2844
  517MOL0     C71263   4.677   4.097  10.416  0.0153  0.5176  0.1129
  517MOL0     C71264   4.731   3.976  10.461 -0.0125  0.0720  0.4934
  517MOL0     C71265   4.675   3.908  10.563  0.8172 -0.4319 -0.1810
  517MOL0     C71266   4.568   3.959  10.643 -0.5977  0.6081 -0.3513
  517MOL0     O71267   4.525   3.900  10.756 -0.1163  0.5768 -0.6008
  517MOL0     C71268   4.611   3.819  10.840  0.4728 -0.5139  0.6338
  517MOL0     C71269   4.537   3.808  10.968 -0.2542 -0.1059  0.6738
  517MOL0     C71270   4.552   3.926  11.051 -0.3839  0.2960  0.7486
  517MOL0     C71271   4.423   3.970  11.113 -0.1221  0.8018 -1.1425
  517MOL0     C71272   4.343   4.044  11.014 -1.0724  0.2558  0.0081
  517MOL0     C71273   4.279   4.101  10.931 -0.2473 -0.7247  0.2819
  517MOL0     C71274   4.512   4.070  10.597  0.4398 -0.1165 -0.5097
  517MOL0     C71275   4.562   4.138  10.481  0.1994 -0.5753 -0.2823
  517MOL0     C71276   4.476   4.260  10.434  0.2663  0.9854  0.1739
  517MOL0     H71277   4.919   3.999  10.012  1.4645 -0.2459 -3.1916
  517MOL0     H71278   5.098   4.075   9.876 -0.9242  0.7013 -0.1515
  517MOL0     H71279   5.392   4.432   9.928 -1.4563 -0.5965  0.5112
  517MOL0     H71280   5.231   4.470   9.942  0.4104 -0.3729  1.4015
  517MOL0     H71281   5.384   4.393   9.696 -0.2653 -0.3837 -0.8058
  517MOL0     H71282   5.204   4.398   9.682  1.4057 -1.3874 -1.2389
  517MOL0     H71283   5.216   4.652   9.745  0.7017  0.3093  1.3070
  517MOL0     H71284   5.389   4.634   9.725  0.0014  0.2208  0.0580
  517MOL0     H71285   5.385   4.535   9.516  0.0485 -0.1306 -0.4701
  517MOL0     H71286   5.208   4.551   9.496  0.6454  2.3803 -2.3217
  517MOL0     H71287   5.382   4.792   9.566 -1.5873  0.2089  1.1731
  517MOL0     H71288   5.221   4.795   9.515  1.2096  1.3022 -1.7782
  517MOL0     H71289   5.469   4.725   9.363 -0.8267 -3.5962 -0.3693
  517MOL0     H71290   5.316   4.672   9.294  2.8522 -0.0357 -1.5967
  517MOL0     H71291   5.418   4.957   9.367 -2.1053  1.9048  1.5215
  517MOL0     H71292   5.243   4.924   9.308  0.6248 -1.0257 -0.2197
  517MOL0     H71293   5.500   4.865   9.158  2.3118  4.2978  0.4469
  517MOL0     H71294   5.325   4.855   9.104 -1.5455  1.8190  0.4625
  517MOL0     H71295   5.521   5.138   9.260 -2.3861 -0.5086 -0.1296
  517MOL0     H71296   5.611   5.410   9.087  0.5932  1.9290 -2.1600
  517MOL0     H71297   5.648   5.375   8.926  3.5835 -0.9380 -0.3846
  517MOL0     H71298   5.862   5.353   8.997 -0.2131 -2.0676 -1.9085
  517MOL0     H71299   5.828   5.304   9.159 -0.8573  0.0528  0.1862
  517MOL0     H71300   5.789   5.057   9.084  1.1163 -1.3012 -0.0814
  517MOL0     H71301   5.775   5.131   8.918  0.3599  0.9724 -0.2634
  517MOL0     H71302   5.998   5.024   8.965 -0.9125 -0.4815  0.8824
  517MOL0     H71303   6.033   5.189   8.957  1.5638  0.0098  0.7446
  517MOL0     H71304   6.139   5.239   9.354  1.4994 -0.2637  2.2751
  517MOL0     H71305   6.281   5.261   9.513 -0.1386  1.0694  0.7462
  517MOL0     H71306   6.441   5.321   9.465 -1.7783  1.1470  1.4082
  517MOL0     H71307   6.429   5.159   9.524  0.2956 -0.9533 -0.9348
  517MOL0     H71308   6.781   4.919   9.348 -1.2025  1.2392  1.4062
  517MOL0     H71309   7.027   4.902   9.378  0.0191 -0.0983 -0.2410
  517MOL0     H71310   7.360   4.997   9.455 -0.2483  0.7797 -2.2890
  517MOL0     H71311   7.218   4.895   9.441  0.3054 -1.2218 -1.2678
  517MOL0     H71312   7.307   4.861   9.248 -1.3090  0.2376 -0.7962
  517MOL0     H71313   7.201   4.978   9.201 -1.9858 -0.4544  1.1050
  517MOL0     H71314   7.505   4.996   9.279  0.4740  0.3545  0.4414
  517MOL0     H71315   7.424   5.147   9.234  0.1837 -0.2141  1.1732
  517MOL0     H71316   7.372   5.048   9.030 -1.9371 -0.9620  1.3432
  517MOL0     H71317   7.432   4.896   9.062 -0.8326  0.9754 -2.3079
  517MOL0     H71318   7.662   4.976   9.098  0.7192  1.6283 -0.5429
  517MOL0     H71319   7.601   4.985   8.937  3.9774 -1.4471  1.7042
  517MOL0     H71320   7.719   5.204   8.966  2.7237 -0.4045  2.7868
  517MOL0     H71321   7.654   5.222   9.123 -1.2434 -2.6745 -0.1597
  517MOL0     H71322   7.436   5.295   9.036 -0.1987 -1.2496  0.6019
  517MOL0     H71323   7.465   5.228   8.885 -1.2576  0.1375 -0.1657
  517MOL0     H71324   7.631   5.450   8.985 -1.8736  2.5981  1.4677
  517MOL0     H71325   7.490   5.465   8.871 -1.1092 -1.5514 -2.1066
  517MOL0     H71326   7.051   5.316   9.480  0.8174  0.8010 -0.2056
  517MOL0     H71327   6.795   5.329   9.456  2.6764  2.0382 -1.5476
  517MOL0     H71328   6.437   5.011   9.030 -0.7593 -1.6736  0.5089
  517MOL0     H71329   6.202   5.023   8.989  0.7504 -1.5591 -0.3666
  517MOL0     H71330   5.186   4.398  10.144  0.0753 -1.2654  1.3154
  517MOL0     H71331   5.001   4.329  10.277 -1.6975  1.4543 -0.9930
  517MOL0     H71332   4.825   3.941  10.418  0.4776 -0.5863  2.0191
  517MOL0     H71333   4.719   3.811  10.582 -1.9224 -2.2301 -2.1968
  517MOL0     H71334   4.612   3.717  10.800 -3.1486  0.3254 -2.1384
  517MOL0     H71335   4.709   3.863  10.860  0.9537 -0.9199 -0.7389
  517MOL0     H71336   4.563   3.716  11.022 -0.4094  0.7258  2.2170
  517MOL0     H71337   4.431   3.789  10.952 -1.0104  0.5618  4.1108
  517MOL0     H71338   4.617   3.903  11.135  1.1703  1.7605  0.0090
  517MOL0     H71339   4.582   4.016  10.996 -0.4935  0.9396  1.7140
  517MOL0     H71340   4.457   4.038  11.192 -1.3293  1.8531 -1.4913
  517MOL0     H71341   4.371   3.890  11.167 -1.6512  1.8367 -1.0122
  517MOL0     H71342   4.228   4.158  10.856  0.3216 -3.5172 -2.4495
  517MOL0     H71343   4.431   4.113  10.655  0.3004  1.6791 -1.9408
  517MOL0     H71344   4.377   4.256  10.480  0.8791 -0.2848  1.4469
  517MOL0     H71345   4.523   4.359  10.442 -2.5199  2.2785  2.2745
  517MOL0     H71346   4.469   4.253  10.325 -1.8042  0.0795  0.3293
  518MOL0     O71347   3.828   4.656   0.184  0.4268 -0.8655 -0.1555
  518MOL0     C71348   3.841   4.542   0.146  0.3319 -0.0978 -0.3875
  518MOL0     O71349   3.775   4.434   0.207 -0.6552  0.9012 -0.5119
  518MOL0     C71350   3.696   4.457   0.316  0.3645  0.9852  1.1099
  518MOL0     C71351   3.750   4.451   0.445  0.9129  0.0229  0.6394
  518MOL0     C71352   3.668   4.485   0.554  1.0991  0.2942 -0.5721
  518MOL0     C71353   3.525   4.518   0.535  0.0877 -0.4801 -0.2246
  518MOL0     O71354   3.430   4.535   0.630  0.0131  0.8099 -0.3151
  518MOL0     C71355   3.456   4.475   0.754 -0.0876 -0.5490  0.1361
  518MOL0     C71356   3.349   4.523   0.853 -0.3169 -0.8851 -0.8493
  518MOL0     C71357   3.335   4.674   0.888 -0.9152 -0.4304  0.2699
  518MOL0     C71358   3.257   4.702   1.006  0.1547 -0.0900 -0.4893
  518MOL0     C71359   3.107   4.684   0.991 -0.2935 -0.2312 -0.7716
  518MOL0     C71360   3.027   4.702   1.117  0.2738  0.1405  0.5200
  518MOL0     C71361   2.871   4.671   1.104  0.2216 -0.6882 -0.2925
  518MOL0     C71362   2.798   4.689   1.231 -0.5380 -0.4433 -0.4849
  518MOL0     N71363   2.809   4.832   1.281  0.8660  0.3932 -0.0976
  518MOL0     C71364   2.849   4.880   1.401  0.4865 -0.7307  0.3913
  518MOL0     C71365   2.813   5.011   1.394 -0.1728  0.1795  0.3451
  518MOL0     C71366   2.832   5.110   1.504  0.8626 -0.4734  0.0841
  518MOL0     C71367   2.978   5.110   1.544 -0.2825 -0.2517  0.4013
  518MOL0     C71368   3.009   5.216   1.648  0.5529  0.4797 -0.5193
  518MOL0     C71369   3.162   5.224   1.680  1.3621  0.1063  0.8142
  518MOL0     O71370   3.206   5.115   1.773  0.6452 -0.2829  0.1229
  518MOL0     C71371   3.330   5.109   1.828 -0.9582  0.4354 -0.1301
  518MOL0     C71372   3.376   5.011   1.909  0.0484  0.7975 -0.8366
  518MOL0     C71373   3.496   5.003   1.983 -0.5496  0.5868  0.4025
  518MOL0     C71374   3.519   4.882   2.065 -0.7206 -0.8177 -0.6290
  518MOL0     C71375   3.586   5.115   1.958 -0.2834 -0.0471  0.1469
  518MOL0     C71376   3.732   5.122   2.004  0.2357 -0.7407 -0.1345
  518MOL0     O71377   3.791   5.006   2.034  0.1240 -0.1859  0.2390
  518MOL0     C71378   3.906   5.004   2.107  0.2468 -0.1879  0.1305
  518MOL0     C71379   4.033   5.021   2.048 -0.9157  0.1041 -0.5320
  518MOL0     C71380   4.152   5.011   2.115 -0.6990 -0.3604 -0.7339
  518MOL0     C71381   4.140   4.972   2.249 -0.3347 -0.1808 -0.4404
  518MOL0     O71382   4.262   4.964   2.321  0.0801 -0.0839  1.0308
  518MOL0     C71383   4.266   4.825   2.362 -1.1324 -0.0780  0.5995
  518MOL0     C71384   4.367   4.797   2.470 -0.3734  0.1420  0.4892
  518MOL0     C71385   4.508   4.758   2.414  0.4348  0.8807 -0.0898
  518MOL0     C71386   4.598   4.685   2.520 -0.3573 -0.2840  0.9250
  518MOL0     C71387   4.747   4.734   2.488 -0.1052 -0.0528 -0.8054
  518MOL0     C71388   4.789   4.672   2.351 -0.5580  0.2545  0.1895
  518MOL0     C71389   4.934   4.696   2.313  0.1425 -0.0178 -0.0714
  518MOL0     C71390   5.037   4.607   2.395 -0.2096  0.6659  0.3759
  518MOL0    Cl71391   4.978   4.434   2.396 -0.0142  0.0179  0.4724
  518MOL0     C71392   4.019   4.960   2.312  0.2788  0.4685 -0.8057
  518MOL0     C71393   3.901   4.964   2.238 -0.5175 -1.6851 -1.0717
  518MOL0     O71394   3.793   5.228   1.991  0.1486 -0.6358 -0.4804
  518MOL0     C71395   3.539   5.225   1.885  0.0123  0.0042 -0.0101
  518MOL0     C71396   3.418   5.211   1.815 -1.2359  0.0484 -0.1983
  518MOL0     N71397   2.771   5.040   1.267  0.3646  0.7253 -0.8442
  518MOL0     N71398   2.759   4.933   1.207 -0.2136  0.8034  0.1391
  518MOL0     C71399   3.484   4.539   0.401 -0.3224  0.4200  0.7968
  518MOL0     C71400   3.569   4.491   0.296  0.2190 -0.4161 -0.1873
  518MOL0     C71401   3.927   4.520   0.029 -1.1844 -0.1196 -0.1010
  518MOL0     C71402   3.963   4.383   0.006  0.0139 -0.2928  0.5709
  518MOL0     C71403   4.046   4.354  -0.100  0.0957  0.8022  0.8444
  518MOL0     C71404   4.095   4.445  -0.198 -0.3110  0.7781 -0.3513
  518MOL0     O71405   4.164   4.388  -0.296 -0.6334  0.1409 -0.1198
  518MOL0     C71406   4.251   4.477  -0.371  0.6787 -0.2845  0.2778
  518MOL0     C71407   4.381   4.496  -0.287  0.2503  0.4163 -0.2581
  518MOL0     C71408   4.492   4.385  -0.292  0.2746  0.1745  0.1758
  518MOL0     C71409   4.622   4.423  -0.214  0.0182  0.1260 -0.2136
  518MOL0     C71410   4.735   4.376  -0.289 -0.2172  0.3527 -0.1781
  518MOL0     C71411   4.832   4.324  -0.337 -0.9907  0.2084  0.4406
  518MOL0     C71412   4.062   4.580  -0.170 -0.6382  0.1688 -0.0173
  518MOL0     C71413   3.980   4.616  -0.066 -0.2555  0.8529  0.6170
  518MOL0     C71414   3.965   4.767  -0.047  0.7114  0.2984  0.3221
  518MOL0     H71415   3.855   4.425   0.456  1.2338  1.1089  0.2906
  518MOL0     H71416   3.715   4.485   0.652  1.3549 -1.1069 -0.6841
  518MOL0     H71417   3.553   4.515   0.784  1.4456 -2.3731 -2.0441
  518MOL0     H71418   3.471   4.367   0.740  3.1682 -0.0490 -1.1852
  518MOL0     H71419   3.256   4.489   0.805 -1.4954 -0.9011  1.3425
  518MOL0     H71420   3.346   4.463   0.944  2.6385 -1.8872 -1.3018
  518MOL0     H71421   3.428   4.730   0.902 -1.6206  0.7063  0.5545
  518MOL0     H71422   3.275   4.718   0.808 -0.9017 -1.7741 -0.5121
  518MOL0     H71423   3.287   4.648   1.096 -3.3821 -0.2459  0.7521
  518MOL0     H71424   3.272   4.808   1.030  4.3221  0.0632 -2.7545
  518MOL0     H71425   3.095   4.581   0.955  1.9855 -1.1240  0.8104
  518MOL0     H71426   3.066   4.756   0.919 -0.2633  1.6539  0.9932
  518MOL0     H71427   3.070   4.635   1.192 -0.3562  0.0964  0.8452
  518MOL0     H71428   3.041   4.808   1.140 -1.0836  1.1382 -2.7059
  518MOL0     H71429   2.864   4.568   1.067 -2.4792 -0.8223  0.3964
  518MOL0     H71430   2.824   4.728   1.023  2.2675  0.7707 -0.5362
  518MOL0     H71431   2.692   4.663   1.220 -0.7894  0.0906  0.5977
  518MOL0     H71432   2.832   4.607   1.296  0.2791 -0.5818 -1.0672
  518MOL0     H71433   2.886   4.828   1.489 -1.7492 -0.0909  1.7870
  518MOL0     H71434   2.779   5.063   1.588  1.6128 -3.0817 -0.8074
  518MOL0     H71435   2.796   5.213   1.492  0.7108  0.0144  3.6366
  518MOL0     H71436   3.011   5.013   1.583  1.1856  0.0232 -0.0874
  518MOL0     H71437   3.032   5.128   1.451  1.8921 -4.4907  0.5982
  518MOL0     H71438   2.989   5.309   1.593 -0.3122  0.9219  0.5071
  518MOL0     H71439   2.948   5.206   1.738 -1.1410  0.1350 -1.6466
  518MOL0     H71440   3.225   5.227   1.590 -0.9805 -1.5814 -1.0077
  518MOL0     H71441   3.180   5.319   1.731 -2.0264  0.4107  1.6435
  518MOL0     H71442   3.309   4.928   1.929  2.9936 -1.4121  0.6469
  518MOL0     H71443   3.563   4.899   2.164 -3.3228 -3.9286  1.3024
  518MOL0     H71444   3.588   4.813   2.015  1.2984 -0.8738  1.9670
  518MOL0     H71445   3.423   4.834   2.091 -0.9937  1.0212  2.2265
  518MOL0     H71446   4.030   5.044   1.942 -0.7034  1.9315 -0.1675
  518MOL0     H71447   4.242   5.028   2.057 -0.2203  3.2873  0.8014
  518MOL0     H71448   4.173   4.790   2.409 -1.7892 -0.1782 -0.7169
  518MOL0     H71449   4.291   4.754   2.282  1.1668  0.1384  1.0641
  518MOL0     H71450   4.395   4.892   2.516  4.1008 -0.9749  0.5117
  518MOL0     H71451   4.324   4.729   2.544 -4.1378  0.6560 -0.9894
  518MOL0     H71452   4.554   4.847   2.370  1.0934 -0.0248 -1.2964
  518MOL0     H71453   4.487   4.691   2.331  1.5267  1.9479 -1.2726
  518MOL0     H71454   4.580   4.578   2.526  0.8903 -0.5765 -0.0672
  518MOL0     H71455   4.574   4.729   2.617  1.3548  0.4769  1.0312
  518MOL0     H71456   4.752   4.843   2.488  0.6649  0.1435  4.0781
  518MOL0     H71457   4.814   4.690   2.562  1.2098 -0.9986 -2.4673
  518MOL0     H71458   4.734   4.735   2.280  0.7422  0.4567 -0.6600
  518MOL0     H71459   4.758   4.570   2.327  1.0340 -0.3132  0.4191
  518MOL0     H71460   4.960   4.800   2.337  1.0973 -0.2794  0.0629
  518MOL0     H71461   4.938   4.685   2.204  0.5155  1.8143 -0.2770
  518MOL0     H71462   5.035   4.642   2.499 -0.2967  0.5904  0.3993
  518MOL0     H71463   5.137   4.609   2.351 -0.5726  0.4916 -0.4689
  518MOL0     H71464   4.007   4.941   2.418  1.5283 -2.0064 -1.0342
  518MOL0     H71465   3.807   4.931   2.281 -0.4066 -2.2797 -1.2746
  518MOL0     H71466   3.591   5.318   1.864  0.5707 -0.3981 -0.4015
  518MOL0     H71467   3.399   5.299   1.754  2.0550  1.2738  0.3095
  518MOL0     H71468   3.380   4.563   0.380  0.4521  2.7487 -0.7696
  518MOL0     H71469   3.526   4.471   0.198  2.0675 -2.4836 -0.6596
  518MOL0     H71470   3.929   4.313   0.081 -2.6807  1.1687  0.8595
  518MOL0     H71471   4.070   4.251  -0.124 -2.7939  0.3496 -0.5256
  518MOL0     H71472   4.275   4.431  -0.468 -1.5096 -1.5238  0.2688
  518MOL0     H71473   4.220   4.580  -0.386  3.3178  0.5838  0.1573
  518MOL0     H71474   4.370   4.516  -0.180  0.0766 -2.1530  0.2747
  518MOL0     H71475   4.434   4.579  -0.334 -1.2065  1.5178 -0.0324
  518MOL0     H71476   4.450   4.295  -0.247  0.4248  1.1365  2.3793
  518MOL0     H71477   4.524   4.369  -0.395  3.3796  0.2526  1.0229
  518MOL0     H71478   4.632   4.377  -0.115  1.3967  1.8120  0.4856
  518MOL0     H71479   4.617   4.533  -0.211 -1.0812  0.1412 -1.5605
  518MOL0     H71480   4.929   4.283  -0.359 -1.0474 -0.2795  1.0511
  518MOL0     H71481   4.095   4.660  -0.236 -2.0533  1.6795  1.0280
  518MOL0     H71482   3.990   4.788   0.058 -2.9336 -2.3052  1.9504
  518MOL0     H71483   4.036   4.817  -0.113 -0.4175 -0.5423 -1.5918
  518MOL0     H71484   3.862   4.788  -0.075  0.6342 -2.6206 -2.1779
  519MOL0     O71485   6.472   0.400   2.873 -0.6459  0.0908  0.7935
  519MOL0     C71486   6.371   0.459   2.902 -0.8898  0.0106  0.7934
  519MOL0     O71487   6.346   0.538   3.009  0.2771 -0.3361  0.4878
  519MOL0     C71488   6.446   0.572   3.099 -0.5298  1.0262 -0.2126
  519MOL0     C71489   6.567   0.500   3.113 -0.1091 -0.4632 -0.0687
  519MOL0     C71490   6.661   0.541   3.209  0.7077  0.6994 -0.0840
  519MOL0     C71491   6.644   0.648   3.288  0.1953  0.0563  0.1397
  519MOL0     O71492   6.751   0.682   3.373 -0.3212 -0.5534  0.4829
  519MOL0     C71493   6.748   0.806   3.436  0.3460 -0.4868  0.3050
  519MOL0     C71494   6.886   0.854   3.474  0.2256 -0.1042  0.0856
  519MOL0     C71495   6.899   0.948   3.598  0.3847  0.7902  0.7460
  519MOL0     C71496   6.903   0.878   3.731  0.3656  0.2380 -0.1022
  519MOL0     C71497   7.042   0.824   3.774 -0.9937  0.3029  0.2883
  519MOL0     C71498   7.135   0.930   3.827 -0.0818  0.1395  0.0834
  519MOL0     C71499   7.107   0.993   3.968  0.6392 -0.5736  0.1662
  519MOL0     C71500   7.224   1.083   4.017  0.4813  0.3280 -0.2472
  519MOL0     N71501   7.273   1.173   3.919  0.1375 -0.3873  0.4035
  519MOL0     C71502   7.192   1.269   3.862 -0.5828  0.4184 -0.2460
  519MOL0     C71503   7.252   1.316   3.748 -0.4103 -0.4825  0.3001
  519MOL0     C71504   7.206   1.432   3.662 -0.3973 -0.5043 -0.4921
  519MOL0     C71505   7.165   1.397   3.521 -0.3246  0.6314  0.0470
  519MOL0     C71506   7.029   1.322   3.518 -0.2892  0.5044 -0.4595
  519MOL0     C71507   6.997   1.300   3.369  0.2038  0.9848 -0.4301
  519MOL0     O71508   6.862   1.241   3.380 -0.8822  0.2372  0.2144
  519MOL0     C71509   6.751   1.314   3.380  0.0311 -0.0707 -0.3991
  519MOL0     C71510   6.740   1.455   3.368  0.2091 -1.1189  0.8139
  519MOL0     C71511   6.618   1.519   3.362  0.3003 -0.6623  0.0527
  519MOL0     C71512   6.633   1.673   3.335 -0.5934 -0.2872  0.0887
  519MOL0     C71513   6.497   1.452   3.392  0.5039  0.0574 -0.0007
  519MOL0     C71514   6.367   1.515   3.406  0.4594 -0.3260 -0.5707
  519MOL0     O71515   6.264   1.427   3.401  0.8771  0.0748  0.3767
  519MOL0     C71516   6.138   1.455   3.442  1.1284 -0.2900 -0.0796
  519MOL0     C71517   6.120   1.516   3.564 -0.0404 -0.2651 -0.4548
  519MOL0     C71518   5.994   1.549   3.602  0.3808  1.5447  0.3568
  519MOL0     C71519   5.884   1.519   3.519 -0.8139 -0.3480 -0.2075
  519MOL0     O71520   5.761   1.561   3.559 -0.0511 -0.4199 -0.6358
  519MOL0     C71521   5.727   1.540   3.697  0.4677  0.4188  0.0905
  519MOL0     C71522   5.581   1.520   3.695  0.3878 -0.2318  0.8474
  519MOL0     C71523   5.500   1.651   3.663  0.2443  0.6384 -0.7791
  519MOL0     C71524   5.347   1.608   3.657 -0.4626  0.4148 -0.5814
  519MOL0     C71525   5.274   1.731   3.697  0.8421 -0.4092  0.1220
  519MOL0     C71526   5.118   1.702   3.711 -0.2287  0.0559 -0.0915
  519MOL0     C71527   5.039   1.829   3.720  0.2293  0.0141 -0.7144
  519MOL0     C71528   5.070   1.938   3.837 -0.2229  0.5825  0.9669
  519MOL0    Cl71529   5.023   1.872   4.004  0.1422  0.1899  0.1011
  519MOL0     C71530   5.893   1.448   3.403 -0.8025 -1.0124 -0.4013
  519MOL0     C71531   6.027   1.424   3.356 -0.6233  0.3410 -0.7476
  519MOL0     O71532   6.360   1.636   3.431 -0.4735 -0.2557 -0.6070
  519MOL0     C71533   6.505   1.310   3.404 -0.6901  0.1885  0.2486
  519MOL0     C71534   6.631   1.251   3.395 -0.1953  0.2172 -0.6204
  519MOL0     N71535   7.374   1.252   3.736 -0.1386  0.4014  0.1054
  519MOL0     N71536   7.381   1.167   3.832 -0.1108  0.6149  0.0660
  519MOL0     C71537   6.515   0.720   3.269 -0.5868  0.6010  0.5644
  519MOL0     C71538   6.419   0.677   3.182  0.0275 -0.0002  0.1167
  519MOL0     C71539   6.268   0.444   2.802  1.0016  0.2409 -0.8138
  519MOL0     C71540   6.190   0.561   2.784 -0.9823 -0.4290 -0.3927
  519MOL0     C71541   6.098   0.569   2.670 -0.7714 -0.2753  0.5277
  519MOL0     C71542   6.058   0.455   2.598  0.1394  0.1175 -0.2540
  519MOL0     O71543   5.955   0.470   2.516 -0.2005 -0.0673  0.1618
  519MOL0     C71544   5.926   0.365   2.418 -0.3535  0.3449 -0.4406
  519MOL0     C71545   5.860   0.429   2.293 -0.8487  0.9559 -1.1892
  519MOL0     C71546   5.741   0.525   2.315 -0.5252 -0.6804 -0.7644
  519MOL0     C71547   5.609   0.456   2.347 -0.3803 -0.3551  0.0671
  519MOL0     C71548   5.609   0.438   2.497  1.3872 -0.3383  0.3834
  519MOL0     C71549   5.600   0.436   2.620  0.5438  0.9110  0.6797
  519MOL0     C71550   6.139   0.341   2.619  0.1602  0.5112  0.1158
  519MOL0     C71551   6.232   0.332   2.722 -0.3461 -1.0266 -0.1564
  519MOL0     C71552   6.278   0.197   2.757 -0.1619  0.7773 -0.7450
  519MOL0     H71553   6.600   0.412   3.059  1.2946 -1.6945  2.5955
  519MOL0     H71554   6.743   0.469   3.205  0.3322  0.2355  0.4364
  519MOL0     H71555   6.688   0.793   3.527 -2.5914 -0.3502 -1.4838
  519MOL0     H71556   6.697   0.882   3.377 -0.3267  0.7204  2.3415
  519MOL0     H71557   6.954   0.770   3.490 -0.4484 -0.8447 -0.8632
  519MOL0     H71558   6.928   0.903   3.386 -0.5533 -0.3141 -0.4127
  519MOL0     H71559   6.983   1.015   3.579  2.4187 -1.0140  2.7198
  519MOL0     H71560   6.802   0.998   3.607 -0.4236 -0.3000 -1.1395
  519MOL0     H71561   6.865   0.939   3.813 -1.5212 -1.2984  0.2181
  519MOL0     H71562   6.832   0.796   3.735  0.4653  0.1394 -0.3433
  519MOL0     H71563   7.094   0.774   3.692 -0.0195  0.7043  0.6464
  519MOL0     H71564   7.031   0.754   3.857  0.3675  0.7181  0.8446
  519MOL0     H71565   7.236   0.887   3.831 -0.3435 -0.5114 -0.3257
  519MOL0     H71566   7.143   1.004   3.747 -0.3415 -0.0168 -0.0857
  519MOL0     H71567   7.090   0.912   4.039  0.0838  0.4158  1.1922
  519MOL0     H71568   7.018   1.055   3.956  2.1737  1.4348 -1.6989
  519MOL0     H71569   7.190   1.145   4.100  0.0161  1.8381 -1.5255
  519MOL0     H71570   7.300   1.015   4.058  1.1253 -0.0571 -1.9750
  519MOL0     H71571   7.098   1.294   3.910 -0.0510  0.7197  0.6643
  519MOL0     H71572   7.296   1.493   3.659  0.3689 -1.4949  1.0238
  519MOL0     H71573   7.142   1.487   3.731  0.9315 -0.9680  1.1869
  519MOL0     H71574   7.143   1.477   3.450  0.0402 -0.2506 -1.0805
  519MOL0     H71575   7.243   1.338   3.472 -0.8243 -0.3695  0.4284
  519MOL0     H71576   7.029   1.224   3.566 -0.3443  0.6433 -0.1720
  519MOL0     H71577   6.952   1.383   3.566 -0.1321 -0.4316  1.0496
  519MOL0     H71578   6.984   1.396   3.318 -0.6277  0.6983 -0.7723
  519MOL0     H71579   7.067   1.229   3.324 -1.4512 -0.6149 -0.6103
  519MOL0     H71580   6.829   1.513   3.348 -1.0663  0.3715 -0.7834
  519MOL0     H71581   6.735   1.708   3.351 -0.2830 -2.0650  2.5309
  519MOL0     H71582   6.571   1.726   3.408 -1.3545 -1.9149  0.6841
  519MOL0     H71583   6.595   1.702   3.236  1.1461  0.1285 -0.4936
  519MOL0     H71584   6.205   1.541   3.626  0.6056 -0.3246 -1.3039
  519MOL0     H71585   5.981   1.606   3.693 -0.8569  0.8428  0.6413
  519MOL0     H71586   5.777   1.453   3.738 -2.5002 -2.1397 -1.2652
  519MOL0     H71587   5.743   1.628   3.761 -1.5295  1.3243 -0.5650
  519MOL0     H71588   5.550   1.448   3.619 -1.0045  1.1061  0.1035
  519MOL0     H71589   5.541   1.484   3.791 -4.2193  0.6540 -0.4862
  519MOL0     H71590   5.520   1.686   3.561 -1.1871  3.2450 -0.2630
  519MOL0     H71591   5.519   1.729   3.737  2.9493 -2.9866  2.7820
  519MOL0     H71592   5.321   1.530   3.729  3.5294 -1.0449 -0.4573
  519MOL0     H71593   5.314   1.578   3.557  0.9748 -1.8992 -0.4263
  519MOL0     H71594   5.313   1.773   3.790 -1.2284  0.5076  0.6348
  519MOL0     H71595   5.295   1.810   3.624  1.8302  0.5219  1.3647
  519MOL0     H71596   5.096   1.637   3.796 -0.9631  1.0233  0.4770
  519MOL0     H71597   5.090   1.659   3.615 -0.1293  0.7901 -0.4607
  519MOL0     H71598   4.934   1.798   3.721  0.0006  0.5687 -2.5115
  519MOL0     H71599   5.049   1.890   3.630 -2.7044  1.3246 -0.2505
  519MOL0     H71600   5.021   2.034   3.824  0.6236  0.6316 -3.4363
  519MOL0     H71601   5.179   1.951   3.838  0.2098 -1.8450 -1.2222
  519MOL0     H71602   5.805   1.432   3.343 -1.1114 -1.2104  0.0968
  519MOL0     H71603   6.049   1.371   3.264  0.7776  1.4243 -1.0697
  519MOL0     H71604   6.420   1.244   3.412 -0.8906  0.5846  1.9157
  519MOL0     H71605   6.641   1.145   3.415 -0.4050  0.6911  2.5629
  519MOL0     H71606   6.494   0.806   3.331 -0.4743  0.3781  0.9187
  519MOL0     H71607   6.329   0.734   3.165 -0.7380 -0.6979  1.6933
  519MOL0     H71608   6.196   0.644   2.854  0.8280 -0.9447  0.1045
  519MOL0     H71609   6.054   0.665   2.643 -2.4411 -0.5854  1.9357
  519MOL0     H71610   6.013   0.314   2.375 -1.7115 -0.3211 -2.5569
  519MOL0     H71611   5.863   0.283   2.454  0.1940 -0.5139 -1.3859
  519MOL0     H71612   5.829   0.350   2.224  0.9425  1.9248 -3.2404
  519MOL0     H71613   5.942   0.483   2.244  0.7620 -0.4508 -0.1900
  519MOL0     H71614   5.764   0.601   2.390  2.5542 -1.3330 -0.9066
  519MOL0     H71615   5.735   0.582   2.221  0.8015  2.9196  1.1350
  519MOL0     H71616   5.600   0.361   2.294 -1.3603 -0.3416  0.1835
  519MOL0     H71617   5.512   0.501   2.325 -1.9499 -3.8009 -0.6029
  519MOL0     H71618   5.594   0.450   2.726 -2.8382  2.2241  0.4452
  519MOL0     H71619   6.116   0.243   2.578  1.2831  0.3464 -0.1647
  519MOL0     H71620   6.246   0.171   2.859  0.3014 -0.4203 -0.8770
  519MOL0     H71621   6.254   0.115   2.688  2.6279 -0.6878 -0.1680
  519MOL0     H71622   6.387   0.194   2.768 -0.3376 -0.9657  1.2151
  520MOL0     O71623   5.823  10.275   5.338 -0.3163  0.1495 -0.3606
  520MOL0     C71624   5.731  10.272   5.422 -0.1496 -0.0619 -0.6525
  520MOL0     O71625   5.735  10.335   5.544  0.5692 -0.0299  0.8192
  520MOL0     C71626   5.860  10.361   5.598  0.7477 -0.7220  0.4914
  520MOL0     C71627   5.917  10.482   5.561  0.1072 -0.4697 -0.5137
  520MOL0     C71628   6.040  10.513   5.609  0.1486 -0.2271 -0.3624
  520MOL0     C71629   6.119  10.405   5.660  0.1788 -0.6286 -0.4049
  520MOL0     O71630   6.249  10.436   5.678  0.1505  0.0982  0.1198
  520MOL0     C71631   6.303  10.392   5.801  0.7523 -0.2902 -0.2161
  520MOL0     C71632   6.432  10.457   5.836  0.2958 -0.5157  0.4546
  520MOL0     C71633   6.532  10.481   5.725 -0.4507  0.8563 -0.0640
  520MOL0     C71634   6.644  10.567   5.775 -0.1466  0.8408  0.6744
  520MOL0     C71635   6.743  10.604   5.662  0.0914 -0.6848  0.2153
  520MOL0     C71636   6.849  10.489   5.636  0.3358  0.1386 -0.3909
  520MOL0     C71637   6.925  10.532   5.510  0.4316  0.0536  0.1995
  520MOL0     C71638   7.070  10.476   5.531  0.3832 -0.7988  0.7375
  520MOL0     N71639   7.161  10.571   5.592 -0.6106  0.1919 -0.0723
  520MOL0     C71640   7.289  10.613   5.551 -0.1669  0.7845 -0.0983
  520MOL0     C71641   7.330  10.690   5.656  0.7499 -0.5647  0.2450
  520MOL0     C71642   7.450  10.766   5.673 -0.3172  0.6403  0.9795
  520MOL0     C71643   7.576  10.681   5.640 -0.4188  0.1915  1.1119
  520MOL0     C71644   7.571  10.532   5.698 -0.6618  1.2225  0.0175
  520MOL0     C71645   7.708  10.469   5.684  0.7765  0.5059 -0.5222
  520MOL0     O71646   7.750  10.479   5.544 -0.4821 -0.2320  0.2279
  520MOL0     C71647   7.882  10.508   5.524 -0.7024 -0.9877  0.5587
  520MOL0     C71648   7.902  10.586   5.408  0.5034  0.5252 -0.1891
  520MOL0     C71649   8.025  10.642   5.367  0.1694  1.2407  0.3794
  520MOL0     C71650   8.012  10.733   5.245  0.3483 -0.1945  0.3100
  520MOL0     C71651   8.139  10.626   5.458 -0.3640 -0.1473  0.9924
  520MOL0     C71652   8.270  10.692   5.430  0.6737  0.3807 -0.7974
  520MOL0     O71653   8.309  10.731   5.302 -0.6021 -0.8652  0.3086
  520MOL0     C71654   8.423  10.797   5.265  0.4353  0.3085  0.9672
  520MOL0     C71655   8.432  10.849   5.137  0.5417  0.5220 -0.0645
  520MOL0     C71656   8.555  10.899   5.089  0.1456 -0.1236 -0.7868
  520MOL0     C71657   8.673  10.889   5.165  1.4674 -0.4401 -0.1942
  520MOL0     O71658   8.786  10.955   5.122 -1.1199 -0.0178  0.1280
  520MOL0     C71659   8.785  11.091   5.163 -0.5823 -0.8149  0.0703
  520MOL0     C71660   8.878  11.163   5.060  0.8946 -0.2828 -0.6390
  520MOL0     C71661   8.902  11.306   5.121 -0.2100  1.3925 -0.0582
  520MOL0     C71662   9.036  11.352   5.058 -0.1167  0.0738  0.2831
  520MOL0     C71663   9.087  11.474   5.127  0.4842  0.1537 -0.4347
  520MOL0     C71664   9.210  11.525   5.065 -0.4209 -0.2569  0.8289
  520MOL0     C71665   9.244  11.667   5.091  0.2725 -0.9158  0.0641
  520MOL0     C71666   9.396  11.701   5.095 -0.3842  0.3076 -1.3779
  520MOL0    Cl71667   9.448  11.680   4.928 -0.3046 -0.2513  0.4739
  520MOL0     C71668   8.662  10.840   5.298 -0.2818 -0.5869  0.1974
  520MOL0     C71669   8.537  10.791   5.341 -0.9335  0.4690 -0.8575
  520MOL0     O71670   8.333  10.717   5.530  0.0694  0.8277  0.6093
  520MOL0     C71671   8.116  10.554   5.576  0.2303  0.3635 -0.4255
  520MOL0     C71672   7.991  10.488   5.602 -0.3523 -0.0041  0.3570
  520MOL0     N71673   7.226  10.709   5.739  0.6637 -0.0589  0.2719
  520MOL0     N71674   7.131  10.641   5.697  0.0927  0.5641 -0.1519
  520MOL0     C71675   6.068  10.277   5.684  0.4627 -0.4094  0.0219
  520MOL0     C71676   5.932  10.264   5.664  0.3961  0.4738 -0.5730
  520MOL0     C71677   5.606  10.224   5.376 -0.2266 -0.3285 -0.4649
  520MOL0     C71678   5.604  10.122   5.282 -0.4185  0.1041  0.0077
  520MOL0     C71679   5.491  10.073   5.216 -0.9209 -0.9486 -0.1098
  520MOL0     C71680   5.371  10.135   5.251 -0.4389 -0.4397 -0.3150
  520MOL0     O71681   5.248  10.107   5.195 -0.5992  0.2769  0.0882
  520MOL0     C71682   5.234   9.983   5.123 -1.0844 -0.8030  0.2765
  520MOL0     C71683   5.096   9.912   5.118  0.2451  0.1706  0.7236
  520MOL0     C71684   4.990  10.019   5.083  0.0203 -0.6343  0.1933
  520MOL0     C71685   4.860   9.959   5.031  0.7866  0.0833  0.0834
  520MOL0     C71686   4.791   9.861   5.119 -0.0170 -0.6737 -0.4752
  520MOL0     C71687   4.744   9.778   5.196 -0.1483 -0.5545  1.0843
  520MOL0     C71688   5.367  10.237   5.340 -0.5875 -0.6293 -1.0239
  520MOL0     C71689   5.487  10.286   5.412 -0.1202 -0.2217  0.5173
  520MOL0     C71690   5.471  10.414   5.501 -0.0959 -0.0029 -0.3204
  520MOL0     H71691   5.875  10.558   5.496  3.9215  1.5463 -0.8857
  520MOL0     H71692   6.090  10.609   5.602  2.4128 -1.3517 -0.6048
  520MOL0     H71693   6.333  10.287   5.806  1.8874  0.0379  0.3925
  520MOL0     H71694   6.226  10.404   5.877 -2.9527 -1.7624 -3.4027
  520MOL0     H71695   6.400  10.554   5.876 -2.9632 -1.6766  1.0119
  520MOL0     H71696   6.488  10.417   5.921  3.3971 -2.0626 -2.0977
  520MOL0     H71697   6.572  10.382   5.697  0.0207  1.1997 -0.6304
  520MOL0     H71698   6.495  10.506   5.626  1.9433 -1.3483 -1.6549
  520MOL0     H71699   6.606  10.663   5.809  0.8485  0.8080  1.9835
  520MOL0     H71700   6.697  10.516   5.856  1.9828 -0.3423 -1.3339
  520MOL0     H71701   6.794  10.695   5.693 -0.2751 -0.1842 -0.6222
  520MOL0     H71702   6.691  10.613   5.567  2.8579  0.7572 -1.2775
  520MOL0     H71703   6.910  10.479   5.726  1.8281 -2.2861 -1.5691
  520MOL0     H71704   6.806  10.390   5.618  0.6173 -0.3502  1.4381
  520MOL0     H71705   6.933  10.637   5.481 -0.2517 -0.1317 -0.7317
  520MOL0     H71706   6.885  10.473   5.427  0.8146 -1.5439  1.1152
  520MOL0     H71707   7.059  10.384   5.590  3.0768 -1.6472  0.0659
  520MOL0     H71708   7.109  10.435   5.437  1.1497 -0.7964  1.0441
  520MOL0     H71709   7.345  10.589   5.461 -1.0950 -0.1169 -0.4579
  520MOL0     H71710   7.455  10.800   5.777  0.1079 -0.0263  1.1848
  520MOL0     H71711   7.443  10.855   5.610 -1.0936 -1.7376 -2.5373
  520MOL0     H71712   7.583  10.684   5.531 -1.6290 -0.8493  0.9813
  520MOL0     H71713   7.660  10.741   5.676  1.5850 -1.2349 -0.8812
  520MOL0     H71714   7.538  10.533   5.803 -3.9985 -0.2927 -0.8815
  520MOL0     H71715   7.494  10.477   5.643  0.0275 -2.1658  2.1083
  520MOL0     H71716   7.781  10.520   5.747  1.4584  0.2143 -1.0596
  520MOL0     H71717   7.710  10.364   5.716  0.4858  0.6372 -0.0677
  520MOL0     H71718   7.813  10.594   5.347  0.3186  2.3012  0.2690
  520MOL0     H71719   8.038  10.839   5.250 -0.7880  0.2240 -1.7824
  520MOL0     H71720   7.910  10.725   5.206  0.3094  3.3372 -0.6685
  520MOL0     H71721   8.068  10.690   5.161 -1.4933 -4.1336  0.8590
  520MOL0     H71722   8.347  10.844   5.070  1.4579  1.5779 -1.3458
  520MOL0     H71723   8.577  10.951   4.997  0.8521  0.1040 -0.4936
  520MOL0     H71724   8.687  11.140   5.156 -0.2339  0.5141  2.9554
  520MOL0     H71725   8.817  11.102   5.267 -2.0304 -1.2102  0.5936
  520MOL0     H71726   8.972  11.110   5.039  0.6499 -0.7404 -0.6032
  520MOL0     H71727   8.820  11.177   4.969  0.0960  1.4081  0.0851
  520MOL0     H71728   8.907  11.307   5.230 -3.2956  2.5879  0.1964
  520MOL0     H71729   8.823  11.376   5.091 -0.5619 -0.2013 -3.3319
  520MOL0     H71730   9.024  11.379   4.953  2.2863  0.0729 -0.0455
  520MOL0     H71731   9.112  11.273   5.060  0.3280  0.3830 -1.9380
  520MOL0     H71732   9.005  11.545   5.123  0.8356  0.5171 -2.6389
  520MOL0     H71733   9.112  11.449   5.231 -1.7605  0.4392  0.2104
  520MOL0     H71734   9.207  11.523   4.956 -1.7648  1.5211  0.7799
  520MOL0     H71735   9.292  11.461   5.098  0.8358  0.2540 -1.1417
  520MOL0     H71736   9.200  11.700   5.185  3.3783  1.2003  0.9286
  520MOL0     H71737   9.195  11.735   5.020  0.5479  0.3260  1.0256
  520MOL0     H71738   9.435  11.634   5.172  0.6659 -0.1798 -2.3101
  520MOL0     H71739   9.406  11.803   5.133  0.6486 -0.3946  0.3290
  520MOL0     H71740   8.748  10.859   5.361  0.3572 -1.6936 -0.3072
  520MOL0     H71741   8.552  10.743   5.437  0.4647  1.8167 -0.3625
  520MOL0     H71742   8.194  10.532   5.648  1.5860  1.5477 -1.4827
  520MOL0     H71743   7.985  10.425   5.689 -0.4852 -4.0406 -2.3048
  520MOL0     H71744   6.123  10.197   5.732  1.9298  0.1001 -0.7654
  520MOL0     H71745   5.881  10.172   5.690  0.3008  0.8729  0.7269
  520MOL0     H71746   5.698  10.078   5.250 -0.8132 -0.0442 -0.9978
  520MOL0     H71747   5.499   9.986   5.152  1.2683 -3.3045  3.0539
  520MOL0     H71748   5.265   9.991   5.019  1.6319  0.5783  1.1009
  520MOL0     H71749   5.301   9.915   5.176  0.4580  1.2862  1.1768
  520MOL0     H71750   5.076   9.856   5.210 -1.5749 -1.4147 -0.5687
  520MOL0     H71751   5.102   9.841   5.036  0.4763  1.2495 -0.2197
  520MOL0     H71752   4.974  10.074   5.176  1.8778  0.0522  0.1519
  520MOL0     H71753   5.026  10.103   5.023 -2.9629  1.5149  1.1810
  520MOL0     H71754   4.873   9.900   4.940  2.3034 -1.1965  1.0710
  520MOL0     H71755   4.788  10.040   5.014  2.7866  1.6220 -1.6141
  520MOL0     H71756   4.698   9.708   5.263 -2.3400 -0.1238  0.1203
  520MOL0     H71757   5.267  10.267   5.368 -0.8131 -1.7444 -0.5583
  520MOL0     H71758   5.552  10.484   5.480 -1.7253  1.1217 -3.4017
  520MOL0     H71759   5.377  10.466   5.479  0.3565 -0.3365 -3.4529
  520MOL0     H71760   5.468  10.382   5.606 -2.9863  3.5484  0.9007
  521MOL0     O71761   9.241   9.104   6.675  0.3682 -0.2648  0.0725
  521MOL0     C71762   9.221   9.222   6.704 -0.0495  0.0025  0.2028
  521MOL0     O71763   9.304   9.300   6.760 -0.1347 -0.1887 -0.3191
  521MOL0     C71764   9.439   9.276   6.773  0.1784 -0.4744  0.4249
  521MOL0     C71765   9.530   9.316   6.672  0.3281 -0.1183  0.2363
  521MOL0     C71766   9.661   9.301   6.695 -0.2298  0.1422 -0.5872
  521MOL0     C71767   9.710   9.240   6.808  0.3536  0.9909  0.0505
  521MOL0     O71768   9.850   9.237   6.816  1.3360  0.5720 -0.0881
  521MOL0     C71769   9.900   9.121   6.876 -0.1343 -0.0887  0.7628
  521MOL0     C71770  10.056   9.130   6.885  0.1484 -0.0846  0.4623
  521MOL0     C71771  10.114   9.007   6.949 -0.2806 -0.0579 -0.8152
  521MOL0     C71772  10.267   9.020   6.962  0.2106 -0.3247 -1.2031
  521MOL0     C71773  10.316   8.928   7.076  0.9263 -0.1336 -0.1573
  521MOL0     C71774  10.473   8.915   7.070 -0.8372 -0.7129  1.2746
  521MOL0     C71775  10.541   8.869   7.207  0.2229  0.3543  0.5629
  521MOL0     C71776  10.511   8.721   7.224 -0.0006  0.0620 -0.3506
  521MOL0     N71777  10.572   8.668   7.347 -0.1445 -1.3849 -0.1512
  521MOL0     C71778  10.709   8.672   7.377  0.2341 -0.6146  0.3417
  521MOL0     C71779  10.720   8.571   7.465  0.1960 -0.2681 -0.3334
  521MOL0     C71780  10.858   8.532   7.511  0.2064 -0.0398  0.1066
  521MOL0     C71781  10.905   8.621   7.636  0.3724  0.1488 -0.8816
  521MOL0     C71782  10.843   8.585   7.773  0.7734  0.8501 -0.6060
  521MOL0     C71783  10.873   8.431   7.822 -0.6530 -0.4118  0.4059
  521MOL0     O71784  11.014   8.411   7.827 -0.7890  0.1462 -0.0033
  521MOL0     C71785  11.087   8.478   7.926  0.1450 -0.2384 -0.3649
  521MOL0     C71786  11.031   8.556   8.031 -1.3181  0.1918 -0.7479
  521MOL0     C71787  11.112   8.638   8.114 -0.1836  0.2352  0.5910
  521MOL0     C71788  11.039   8.729   8.213  0.3858 -0.0028  0.1421
  521MOL0     C71789  11.257   8.622   8.104  0.9184 -0.3916  0.3237
  521MOL0     C71790  11.354   8.690   8.185  0.1150 -0.3239 -0.1680
  521MOL0     O71791  11.482   8.708   8.138  0.7849 -0.3838 -0.5115
  521MOL0     C71792  11.581   8.773   8.210 -0.6166  0.9645 -0.6962
  521MOL0     C71793  11.696   8.713   8.269 -0.2660 -0.7200  0.1724
  521MOL0     C71794  11.799   8.784   8.334 -0.1513 -0.4988  0.5342
  521MOL0     C71795  11.796   8.925   8.324  0.0691 -0.2107  0.2486
  521MOL0     O71796  11.907   8.999   8.374  0.7825  0.3415  0.2275
  521MOL0     C71797  12.041   8.945   8.356  0.2002  0.3934  0.4195
  521MOL0     C71798  12.137   9.056   8.378  0.7727  0.2973  0.1225
  521MOL0     C71799  12.258   9.048   8.282  0.2619 -0.1960 -0.3839
  521MOL0     C71800  12.370   9.144   8.334 -0.3639 -0.2891 -0.5978
  521MOL0     C71801  12.490   9.139   8.245  0.0232  0.5851 -0.0684
  521MOL0     C71802  12.607   9.223   8.289 -1.4333 -0.0904  0.4597
  521MOL0     C71803  12.702   9.219   8.172 -0.8894 -0.0270 -0.0636
  521MOL0     C71804  12.838   9.282   8.205 -0.0916  0.5598  0.8496
  521MOL0    Cl71805  12.929   9.181   8.330 -0.1401 -0.1695  0.2452
  521MOL0     C71806  11.677   8.993   8.276 -0.9738  0.1704 -0.3636
  521MOL0     C71807  11.578   8.917   8.215  0.1583  0.3661 -0.4151
  521MOL0     O71808  11.312   8.737   8.291  0.0120  0.1655 -0.0892
  521MOL0     C71809  11.315   8.553   7.988 -0.0498 -0.8674  0.1002
  521MOL0     C71810  11.220   8.487   7.910 -0.3667 -0.3375  0.4270
  521MOL0     N71811  10.604   8.504   7.484  0.1410 -0.6158  0.1853
  521MOL0     N71812  10.514   8.571   7.416 -0.7526  0.6232  0.2997
  521MOL0     C71813   9.620   9.206   6.915 -0.5268 -0.6411  0.4291
  521MOL0     C71814   9.481   9.221   6.891 -0.0455 -0.9344  1.3829
  521MOL0     C71815   9.085   9.277   6.693  0.8678 -0.3347 -0.0954
  521MOL0     C71816   9.063   9.393   6.613  0.5566 -0.1942  0.3893
  521MOL0     C71817   8.937   9.438   6.597  0.4163 -0.6090  0.0617
  521MOL0     C71818   8.816   9.383   6.650 -0.6177 -0.3235  0.4530
  521MOL0     O71819   8.704   9.454   6.644 -0.1619  0.6338  0.1231
  521MOL0     C71820   8.585   9.380   6.676 -0.0719  0.3261 -0.0039
  521MOL0     C71821   8.480   9.421   6.569  0.0055  0.2400  0.2219
  521MOL0     C71822   8.437   9.576   6.571 -0.1567  0.1853  0.1064
  521MOL0     C71823   8.335   9.640   6.475  0.3182  0.7733 -0.1119
  521MOL0     C71824   8.195   9.578   6.477 -0.3909  0.0200 -0.0700
  521MOL0     C71825   8.082   9.541   6.476  0.4640 -0.2426  0.5222
  521MOL0     C71826   8.838   9.271   6.735 -0.3018 -0.5553  0.6682
  521MOL0     C71827   8.971   9.218   6.750 -0.3644 -0.1616  0.4543
  521MOL0     C71828   8.988   9.096   6.842  0.1656 -0.1091  0.7076
  521MOL0     H71829   9.490   9.370   6.587  0.2983  3.7015  2.4475
  521MOL0     H71830   9.732   9.334   6.619  0.0951 -0.4030 -0.5228
  521MOL0     H71831   9.868   9.028   6.829  1.5458  0.4696 -1.6935
  521MOL0     H71832   9.874   9.115   6.982  1.2594  1.9755  1.2862
  521MOL0     H71833  10.101   9.124   6.785  0.6526  1.4944  0.5687
  521MOL0     H71834  10.095   9.215   6.942  2.0544 -1.0794  0.6930
  521MOL0     H71835  10.083   8.992   7.053  1.6392 -0.1065 -0.2207
  521MOL0     H71836  10.082   8.928   6.881 -2.3963 -0.7103  0.8029
  521MOL0     H71837  10.332   8.995   6.877  0.3983 -0.2067 -1.0972
  521MOL0     H71838  10.286   9.124   6.990 -3.5572  0.2857 -0.4159
  521MOL0     H71839  10.281   8.825   7.067  2.5397 -0.8973  1.4221
  521MOL0     H71840  10.274   8.971   7.168 -0.3080  3.4459 -2.1909
  521MOL0     H71841  10.492   8.839   6.994  0.1927  3.6374 -3.4160
  521MOL0     H71842  10.525   9.002   7.030 -2.9642 -0.1724 -0.5400
  521MOL0     H71843  10.493   8.932   7.283  0.0413 -0.2894  0.9906
  521MOL0     H71844  10.648   8.887   7.214  0.6672 -2.1777  1.5932
  521MOL0     H71845  10.405   8.696   7.222  0.5885 -2.7533 -0.2969
  521MOL0     H71846  10.558   8.666   7.141 -0.4958 -0.1246 -0.5072
  521MOL0     H71847  10.789   8.737   7.344 -0.5855  1.4740  2.2552
  521MOL0     H71848  10.935   8.561   7.438 -1.0820  2.0373 -0.5062
  521MOL0     H71849  10.855   8.427   7.542  0.6002 -0.2811 -0.6450
  521MOL0     H71850  11.009   8.608   7.665 -0.0811  1.1903  1.4843
  521MOL0     H71851  10.889   8.727   7.617  1.0452  0.6245  1.0172
  521MOL0     H71852  10.876   8.656   7.850  0.6897  2.3495 -1.9010
  521MOL0     H71853  10.736   8.598   7.754  0.4530  1.3824  1.3127
  521MOL0     H71854  10.821   8.413   7.917  1.6123  1.9288  2.2619
  521MOL0     H71855  10.834   8.363   7.746 -0.9385  1.5109 -1.2713
  521MOL0     H71856  10.924   8.549   8.047 -1.1641 -4.5749 -0.4906
  521MOL0     H71857  11.036   8.693   8.317  0.2713 -1.3340 -0.2988
  521MOL0     H71858  10.935   8.745   8.182  0.8020  0.3808 -1.0742
  521MOL0     H71859  11.092   8.824   8.205 -0.0290  0.2918  0.7611
  521MOL0     H71860  11.707   8.608   8.242 -0.3282 -1.1516  1.7540
  521MOL0     H71861  11.879   8.727   8.381  1.2607 -0.3899 -1.6037
  521MOL0     H71862  12.061   8.861   8.424 -1.2193 -1.0434 -0.8649
  521MOL0     H71863  12.039   8.914   8.252 -1.7701  0.9960  0.2248
  521MOL0     H71864  12.079   9.147   8.361 -0.6619 -0.8268 -1.3292
  521MOL0     H71865  12.160   9.075   8.484  0.6944  0.2296  0.1521
  521MOL0     H71866  12.214   9.068   8.184 -1.8243 -1.8776  0.1165
  521MOL0     H71867  12.298   8.946   8.286  1.4430  0.2872  1.3092
  521MOL0     H71868  12.414   9.112   8.428  0.7898  1.2433 -0.5772
  521MOL0     H71869  12.326   9.245   8.335 -7.9595 -2.9044 -1.7527
  521MOL0     H71870  12.515   9.033   8.233 -0.1896  0.6050 -0.7048
  521MOL0     H71871  12.458   9.168   8.144 -0.2043 -0.0158 -0.1730
  521MOL0     H71872  12.656   9.176   8.375 -0.8506 -0.2611  0.0435
  521MOL0     H71873  12.577   9.326   8.308 -2.1723  0.1771 -1.9043
  521MOL0     H71874  12.662   9.283   8.093 -2.2197 -2.6609 -1.6626
  521MOL0     H71875  12.717   9.118   8.131 -1.6007  1.0244 -3.1419
  521MOL0     H71876  12.816   9.382   8.245 -0.7724  0.5752  0.4618
  521MOL0     H71877  12.896   9.298   8.114  0.1509  2.4293  1.2975
  521MOL0     H71878  11.674   9.101   8.290  1.6961 -0.0905  4.5723
  521MOL0     H71879  11.494   8.959   8.160 -0.0012 -2.9905 -3.0550
  521MOL0     H71880  11.417   8.549   7.952 -0.5117  1.2715 -1.6455
  521MOL0     H71881  11.252   8.436   7.819 -1.5681  0.5562 -0.5368
  521MOL0     H71882   9.651   9.175   7.014 -0.9669 -1.6365  0.2780
  521MOL0     H71883   9.410   9.193   6.968  2.2458 -2.7337  2.9903
  521MOL0     H71884   9.149   9.437   6.563  1.8420 -0.4192  2.2927
  521MOL0     H71885   8.931   9.520   6.526  1.3522 -2.0096 -1.7382
  521MOL0     H71886   8.607   9.273   6.662  2.4632  0.7172  0.4991
  521MOL0     H71887   8.546   9.394   6.777  0.9694 -4.6639  1.3984
  521MOL0     H71888   8.392   9.358   6.580 -0.4078  0.7553 -0.1041
  521MOL0     H71889   8.517   9.398   6.468 -0.3046  0.4917  0.0479
  521MOL0     H71890   8.409   9.604   6.673 -1.3285 -1.2387  0.2138
  521MOL0     H71891   8.531   9.627   6.549  0.8781 -0.5164  2.5788
  521MOL0     H71892   8.377   9.636   6.374 -0.3075  0.4305 -0.3684
  521MOL0     H71893   8.320   9.742   6.513  0.5246 -0.0691  2.3774
  521MOL0     H71894   7.986   9.493   6.476 -0.0827  0.8082  1.5511
  521MOL0     H71895   8.757   9.230   6.794 -0.1861  2.2140  2.9623
  521MOL0     H71896   8.894   9.085   6.897 -0.6953 -2.0008 -1.0404
  521MOL0     H71897   9.009   9.011   6.778 -1.6275  1.3167 -1.9316
  521MOL0     H71898   9.069   9.108   6.915  0.8858  2.6130 -0.4092
  522MOL0     O71899   2.335   5.671   5.176  0.0749 -0.5631  0.0565
  522MOL0     C71900   2.342   5.583   5.268  0.4180 -0.5296 -0.2381
  522MOL0     O71901   2.447   5.547   5.334 -0.3175 -0.2325  0.6015
  522MOL0     C71902   2.576   5.596   5.323  0.5871 -0.3615 -0.7425
  522MOL0     C71903   2.657   5.581   5.434  0.2633  0.8523  1.2736
  522MOL0     C71904   2.797   5.602   5.425  0.1088  0.0334 -0.0392
  522MOL0     C71905   2.859   5.659   5.313  0.2732 -0.1018  0.1614
  522MOL0     O71906   2.991   5.684   5.299 -0.6564  0.1148  0.4243
  522MOL0     C71907   3.079   5.590   5.371 -0.3717 -0.7834  0.3863
  522MOL0     C71908   3.219   5.606   5.313  0.1160 -0.0689  0.0181
  522MOL0     C71909   3.291   5.738   5.321  0.4040  0.3617 -0.5430
  522MOL0     C71910   3.426   5.730   5.257 -0.9974 -0.5602  0.2983
  522MOL0     C71911   3.507   5.855   5.265 -0.0989  0.5169 -0.0322
  522MOL0     C71912   3.637   5.853   5.183 -0.0846  0.0663 -0.6270
  522MOL0     C71913   3.747   5.774   5.241 -0.5882 -0.2613 -0.1460
  522MOL0     C71914   3.796   5.836   5.374 -0.3344  0.7975  0.6678
  522MOL0     N71915   3.907   5.925   5.353  0.9326  0.2847 -0.0315
  522MOL0     C71916   4.029   5.889   5.299 -0.3007  0.3653 -0.6478
  522MOL0     C71917   4.095   6.004   5.294 -1.5681 -0.8030  0.0464
  522MOL0     C71918   4.237   6.025   5.231 -0.5298  0.6982  0.0525
  522MOL0     C71919   4.345   5.977   5.321  0.0649  0.3704 -0.2386
  522MOL0     C71920   4.475   6.005   5.257  0.7165  0.2201 -0.0072
  522MOL0     C71921   4.592   5.976   5.339  0.1624  0.8128 -0.3535
  522MOL0     O71922   4.704   6.040   5.285  1.1643 -0.5214  0.1496
  522MOL0     C71923   4.820   5.987   5.338  0.0354 -0.4387  0.9140
  522MOL0     C71924   4.836   5.956   5.476  0.7736  0.7311  0.4766
  522MOL0     C71925   4.964   5.908   5.525  0.5531  1.4599 -0.0507
  522MOL0     C71926   4.965   5.882   5.672 -0.6020  0.9471 -0.9481
  522MOL0     C71927   5.072   5.886   5.435  0.5118 -0.8896 -0.5209
  522MOL0     C71928   5.204   5.833   5.477 -0.7515 -0.4350  0.0084
  522MOL0     O71929   5.290   5.803   5.371  0.2950  0.9278 -0.2796
  522MOL0     C71930   5.427   5.781   5.379 -0.2819  0.3181  0.0434
  522MOL0     C71931   5.469   5.699   5.275 -0.5643  0.0733  0.8821
  522MOL0     C71932   5.604   5.663   5.249 -0.0051  0.0805  0.0743
  522MOL0     C71933   5.697   5.690   5.349  0.6521 -0.6441 -0.2859
  522MOL0     O71934   5.828   5.664   5.332 -0.5949  0.3519  0.4446
  522MOL0     C71935   5.885   5.566   5.421 -0.2732 -0.3315 -0.6286
  522MOL0     C71936   5.866   5.425   5.380  0.0726 -0.6823 -0.2306
  522MOL0     C71937   5.947   5.323   5.467  0.0590 -0.8122 -0.4967
  522MOL0     C71938   5.901   5.179   5.436 -0.1169  0.1073 -0.3897
  522MOL0     C71939   6.002   5.069   5.476  0.7894  0.0906 -0.3905
  522MOL0     C71940   6.057   5.091   5.624 -0.2120  1.0574 -0.1628
  522MOL0     C71941   6.144   4.963   5.670  0.1713 -0.5120 -0.0682
  522MOL0     C71942   6.241   4.914   5.560  0.0884  0.2715 -0.1405
  522MOL0    Cl71943   6.348   4.786   5.623 -0.1267 -0.3236 -0.0996
  522MOL0     C71944   5.655   5.772   5.461  0.0476  0.2019 -0.6640
  522MOL0     C71945   5.521   5.810   5.479  0.0369 -0.1213  0.2076
  522MOL0     O71946   5.236   5.830   5.595 -0.3853  0.0868  0.0999
  522MOL0     C71947   5.048   5.918   5.297 -0.6451 -0.0557 -0.6953
  522MOL0     C71948   4.930   5.973   5.251 -0.1802  0.5073  0.3028
  522MOL0     N71949   4.022   6.101   5.355  0.2749  0.3912  0.0721
  522MOL0     N71950   3.916   6.050   5.403 -0.2702 -0.1695 -0.2583
  522MOL0     C71951   2.769   5.695   5.214  0.6415 -0.0439 -0.1872
  522MOL0     C71952   2.629   5.666   5.213  1.0597  0.0570  0.9121
  522MOL0     C71953   2.216   5.514   5.300 -0.2781 -0.0369 -0.5526
  522MOL0     C71954   2.200   5.447   5.421 -0.5050 -0.1928  0.6480
  522MOL0     C71955   2.098   5.359   5.450 -0.4141  0.0822  0.0100
  522MOL0     C71956   1.996   5.350   5.364  0.7010  0.3163 -0.1599
  522MOL0     O71957   1.894   5.261   5.400 -1.1828 -0.1859 -0.0129
  522MOL0     C71958   1.749   5.293   5.381  0.0471 -0.1430 -0.3785
  522MOL0     C71959   1.688   5.206   5.277 -0.0117 -0.0886 -0.8867
  522MOL0     C71960   1.664   5.053   5.317  0.6066  0.1084 -0.3922
  522MOL0     C71961   1.576   4.979   5.211  0.1744  0.2853 -0.2047
  522MOL0     C71962   1.446   5.040   5.195  0.1559 -0.2501  0.1866
  522MOL0     C71963   1.346   5.113   5.208 -0.4883 -0.2233  0.4804
  522MOL0     C71964   2.002   5.419   5.246 -0.1767  0.1806  0.1623
  522MOL0     C71965   2.111   5.500   5.214  0.6119  0.0721  1.0400
  522MOL0     C71966   2.109   5.560   5.074 -0.1453  0.6953  0.2403
  522MOL0     H71967   2.613   5.523   5.514 -0.1709 -0.5967  0.0110
  522MOL0     H71968   2.866   5.580   5.506  0.7263 -0.2370 -0.6272
  522MOL0     H71969   3.053   5.485   5.356 -0.1446 -0.6365 -1.2391
  522MOL0     H71970   3.072   5.609   5.478  2.1419  3.0129  0.0562
  522MOL0     H71971   3.282   5.538   5.372 -1.8234 -0.1631  2.0947
  522MOL0     H71972   3.216   5.562   5.213 -4.7444  0.1122 -0.1252
  522MOL0     H71973   3.229   5.809   5.264 -1.5321 -0.6387  0.2130
  522MOL0     H71974   3.296   5.766   5.427 -0.4597 -3.2856  0.5834
  522MOL0     H71975   3.480   5.651   5.309  2.2128  1.0251 -0.3772
  522MOL0     H71976   3.421   5.701   5.151  4.5940  0.6497 -0.6038
  522MOL0     H71977   3.534   5.874   5.370  1.0155 -0.9972 -0.0147
  522MOL0     H71978   3.443   5.937   5.229  1.0932  1.9181  0.8937
  522MOL0     H71979   3.611   5.836   5.078 -1.2004 -1.3372 -0.1589
  522MOL0     H71980   3.683   5.952   5.181  1.6163 -0.5431  2.2925
  522MOL0     H71981   3.835   5.766   5.177  1.8312  2.3562  2.5673
  522MOL0     H71982   3.728   5.670   5.270  0.2269 -0.0612  1.2245
  522MOL0     H71983   3.717   5.878   5.437  1.6154 -0.1146  3.9942
  522MOL0     H71984   3.836   5.750   5.428 -0.2176  0.6432  0.3347
  522MOL0     H71985   4.062   5.795   5.257 -0.3639  0.2943 -0.5376
  522MOL0     H71986   4.250   6.128   5.198 -1.2432  0.2421 -1.8042
  522MOL0     H71987   4.241   5.959   5.144  0.3050 -0.0586  0.6469
  522MOL0     H71988   4.319   6.032   5.412 -1.1043  2.3300 -1.6890
  522MOL0     H71989   4.328   5.870   5.337  0.5138  0.2448 -0.5723
  522MOL0     H71990   4.487   5.950   5.164  0.7125  1.7549 -0.9554
  522MOL0     H71991   4.481   6.111   5.231  1.1838 -0.4257 -2.8333
  522MOL0     H71992   4.580   6.011   5.442  1.3267  2.6397 -0.7927
  522MOL0     H71993   4.604   5.867   5.332 -0.5384  0.7984 -1.8850
  522MOL0     H71994   4.755   5.984   5.542 -0.7452  2.1654 -1.8808
  522MOL0     H71995   4.876   5.925   5.720  0.0083 -0.0466  1.1498
  522MOL0     H71996   5.043   5.943   5.718 -2.2001  0.7526  2.3011
  522MOL0     H71997   4.989   5.781   5.706  1.2570  1.1981 -1.3909
  522MOL0     H71998   5.391   5.664   5.207 -0.9034  0.5631  1.0117
  522MOL0     H71999   5.652   5.633   5.155 -0.3004  2.5449 -0.9357
  522MOL0     H72000   5.994   5.576   5.420 -0.3703  1.1259  0.2822
  522MOL0     H72001   5.842   5.596   5.517  0.1828 -0.1807 -0.4697
  522MOL0     H72002   5.760   5.396   5.378 -0.2540  0.5370 -1.5896
  522MOL0     H72003   5.910   5.416   5.281 -1.8940 -1.2657 -1.0962
  522MOL0     H72004   5.942   5.343   5.575 -1.5426 -0.2601 -0.6491
  522MOL0     H72005   6.054   5.324   5.443 -0.2155  0.0879 -1.7778
  522MOL0     H72006   5.894   5.161   5.328  0.8631 -0.7843 -0.3131
  522MOL0     H72007   5.800   5.160   5.473 -0.6975  0.1866 -1.8267
  522MOL0     H72008   5.961   4.968   5.474 -0.2453  0.1800  4.2489
  522MOL0     H72009   6.085   5.084   5.406  0.1693 -2.8431 -1.9127
  522MOL0     H72010   5.975   5.116   5.692 -1.5900  0.6603 -1.6072
  522MOL0     H72011   6.123   5.178   5.638 -1.6511  2.0372  0.7381
  522MOL0     H72012   6.073   4.885   5.701  0.6003 -0.0472  2.2536
  522MOL0     H72013   6.204   4.981   5.760  0.2057 -3.8795  0.7327
  522MOL0     H72014   6.304   4.999   5.532 -0.2805  0.9757  1.1062
  522MOL0     H72015   6.183   4.881   5.473 -1.3429  2.2166 -0.0113
  522MOL0     H72016   5.732   5.784   5.537  2.7038 -3.6188 -2.4258
  522MOL0     H72017   5.491   5.870   5.565  1.2104 -0.4317  0.8448
  522MOL0     H72018   5.134   5.907   5.232 -0.6745 -0.2557 -0.7014
  522MOL0     H72019   4.930   6.015   5.151 -1.3560 -1.2432 -0.4714
  522MOL0     H72020   2.807   5.743   5.124  0.8482  0.9892  0.4388
  522MOL0     H72021   2.573   5.684   5.122 -0.9694 -1.2540  1.8325
  522MOL0     H72022   2.284   5.443   5.490 -0.2929  0.8523  0.4806
  522MOL0     H72023   2.118   5.302   5.540  0.8832  1.1784  0.4544
  522MOL0     H72024   1.709   5.264   5.479  1.6382 -1.8390 -0.1678
  522MOL0     H72025   1.740   5.400   5.360  0.0160  0.4225  2.1174
  522MOL0     H72026   1.742   5.214   5.181 -1.6800 -0.0591 -1.8589
  522MOL0     H72027   1.592   5.255   5.262  1.1856  3.2107  1.2455
  522MOL0     H72028   1.755   4.995   5.334  0.4248  0.1309  0.7764
  522MOL0     H72029   1.612   5.051   5.414 -1.7356  0.8425 -1.5543
  522MOL0     H72030   1.561   4.873   5.235  0.7949  0.0108 -0.9975
  522MOL0     H72031   1.625   4.977   5.114 -0.8298 -0.3256 -0.7252
  522MOL0     H72032   1.250   5.160   5.205  0.1893  1.1882 -0.0142
  522MOL0     H72033   1.925   5.414   5.170 -1.1012  0.6711  1.0392
  522MOL0     H72034   2.039   5.504   5.012  1.4871 -1.4385  0.1754
  522MOL0     H72035   2.077   5.665   5.078 -2.6437 -0.0416  1.5143
  522MOL0     H72036   2.204   5.550   5.019  0.1793 -0.7561  1.0182
  523MOL0     O72037   5.910   0.156   8.272  0.0576  0.4303 -0.4308
  523MOL0     C72038   5.840   0.055   8.293 -0.0110 -0.0708 -1.3456
  523MOL0     O72039   5.833  -0.059   8.222 -0.2217  0.0210 -0.2973
  523MOL0     C72040   5.956  -0.096   8.168 -0.0705  0.3844  0.8630
  523MOL0     C72041   6.004  -0.048   8.049  1.1653 -1.3585  0.9659
  523MOL0     C72042   6.122  -0.084   7.989 -0.0409 -0.1405  0.6549
  523MOL0     C72043   6.195  -0.185   8.049 -0.6007 -0.3148  0.1112
  523MOL0     O72044   6.314  -0.207   7.991  0.0353 -0.2393 -0.3585
  523MOL0     C72045   6.348  -0.344   7.971  0.1589 -1.2427  0.4022
  523MOL0     C72046   6.473  -0.385   8.056 -0.0776 -0.4688 -0.5769
  523MOL0     C72047   6.601  -0.309   8.009 -0.1574  0.1691  0.0412
  523MOL0     C72048   6.724  -0.363   8.085 -0.8872 -0.2993  0.1213
  523MOL0     C72049   6.848  -0.281   8.048  0.3989  0.2705 -0.2337
  523MOL0     C72050   6.888  -0.309   7.905 -0.3661 -0.1994 -0.2173
  523MOL0     C72051   7.036  -0.291   7.861  0.3402 -0.0245  0.7255
  523MOL0     C72052   7.078  -0.150   7.904  0.3807 -0.1557  0.5160
  523MOL0     N72053   7.208  -0.124   7.848 -1.3560 -0.2266  0.0050
  523MOL0     C72054   7.313  -0.211   7.869 -0.4416  0.5677  0.5194
  523MOL0     C72055   7.404  -0.182   7.775  0.1024  0.4325 -0.8454
  523MOL0     C72056   7.544  -0.240   7.781  0.1726  0.0779  0.3007
  523MOL0     C72057   7.612  -0.200   7.913  0.0777  0.3364 -0.1654
  523MOL0     C72058   7.701  -0.318   7.974  0.4689  0.4575 -0.1242
  523MOL0     C72059   7.826  -0.321   7.888  0.4939 -0.0232 -0.2476
  523MOL0     O72060   7.866  -0.460   7.875  0.4640 -0.8814 -0.2416
  523MOL0     C72061   8.000  -0.475   7.868  0.4961 -0.2200 -0.2322
  523MOL0     C72062   8.084  -0.392   7.789  0.2652 -0.4528  0.3790
  523MOL0     C72063   8.229  -0.407   7.788 -0.4614 -0.1913 -0.5267
  523MOL0     C72064   8.308  -0.308   7.712  0.0310  1.1577 -0.1668
  523MOL0     C72065   8.284  -0.512   7.848  0.3091  0.0798 -0.6404
  523MOL0     C72066   8.429  -0.534   7.872 -0.4004 -0.0084  0.4789
  523MOL0     O72067   8.473  -0.648   7.918 -0.9509 -0.6084  0.5052
  523MOL0     C72068   8.615  -0.659   7.909 -0.7115 -0.2050  0.1187
  523MOL0     C72069   8.674  -0.708   7.783 -0.3046  0.1385  0.0931
  523MOL0     C72070   8.811  -0.735   7.787 -1.2493  0.5188 -0.2407
  523MOL0     C72071   8.891  -0.718   7.907 -0.2909  0.3744 -0.5971
  523MOL0     O72072   9.023  -0.756   7.936  0.1863  0.0809  0.1799
  523MOL0     C72073   9.125  -0.769   7.831 -0.6624 -0.6302  1.0470
  523MOL0     C72074   9.247  -0.826   7.891  0.5107  0.6832  0.7102
  523MOL0     C72075   9.316  -0.748   8.003  0.1391  0.4409  0.7039
  523MOL0     C72076   9.453  -0.813   8.050 -0.1554 -0.4826 -0.4535
  523MOL0     C72077   9.519  -0.755   8.165 -0.1247 -0.7773 -0.5782
  523MOL0     C72078   9.587  -0.610   8.149 -0.4598  0.0802 -0.4520
  523MOL0     C72079   9.614  -0.549   8.289 -0.3835 -1.1567  0.3933
  523MOL0     C72080   9.717  -0.434   8.282 -0.0405 -0.1117 -0.0487
  523MOL0    Cl72081   9.880  -0.513   8.271  0.0386  0.1305 -0.2327
  523MOL0     C72082   8.830  -0.680   8.025 -0.2373 -0.4002 -0.1619
  523MOL0     C72083   8.696  -0.654   8.022 -0.6484 -0.4402  0.1722
  523MOL0     O72084   8.494  -0.431   7.868  0.2782  0.4250 -0.7059
  523MOL0     C72085   8.203  -0.606   7.907 -0.1963  0.4669 -0.2267
  523MOL0     C72086   8.064  -0.584   7.921  0.2503 -0.4741  0.3610
  523MOL0     N72087   7.359  -0.070   7.707 -0.0381  0.0123 -0.6055
  523MOL0     N72088   7.242  -0.046   7.745  0.4485 -0.2246 -0.2252
  523MOL0     C72089   6.142  -0.254   8.157  0.7031  0.4520 -0.0447
  523MOL0     C72090   6.027  -0.206   8.219 -0.5861 -0.4151 -0.0832
  523MOL0     C72091   5.731   0.072   8.393  0.4373  0.5540  0.1169
  523MOL0     C72092   5.628   0.162   8.350 -0.1754  0.4204  0.5197
  523MOL0     C72093   5.508   0.177   8.422 -0.4988 -0.3361 -0.6231
  523MOL0     C72094   5.500   0.118   8.548  0.2529  0.8057  0.3374
  523MOL0     O72095   5.402   0.137   8.639 -0.2951 -0.7550 -0.3816
  523MOL0     C72096   5.271   0.147   8.595  0.4067  0.1335  0.1015
  523MOL0     C72097   5.222   0.028   8.514 -0.6129  0.7702 -0.0222
  523MOL0     C72098   5.066   0.033   8.496  0.0920 -0.8711  0.4631
  523MOL0     C72099   5.014   0.152   8.409 -0.4855  0.0794 -0.2241
  523MOL0     C72100   5.069   0.147   8.273  0.3727  0.6936  0.2152
  523MOL0     C72101   5.137   0.151   8.172 -0.3825  0.6476  0.1115
  523MOL0     C72102   5.615   0.053   8.600 -0.2013  0.7224 -0.4788
  523MOL0     C72103   5.729   0.020   8.521  0.1906  0.0122 -0.7503
  523MOL0     C72104   5.844  -0.061   8.584 -0.0484  0.8122 -0.0189
  523MOL0     H72105   5.950   0.035   8.004  1.3013 -1.8084 -0.0581
  523MOL0     H72106   6.169  -0.040   7.901  0.7385 -1.5132  0.3618
  523MOL0     H72107   6.375  -0.351   7.865 -3.4081 -2.8012 -0.5743
  523MOL0     H72108   6.262  -0.410   7.984 -2.1369  0.9087 -2.3337
  523MOL0     H72109   6.441  -0.363   8.159 -0.7140 -4.0800  0.1077
  523MOL0     H72110   6.489  -0.492   8.047 -1.4942 -0.6613 -1.0403
  523MOL0     H72111   6.600  -0.317   7.900 -2.5473  0.8589 -0.0376
  523MOL0     H72112   6.598  -0.201   8.024 -1.5812  0.0672  0.6891
  523MOL0     H72113   6.704  -0.353   8.192  1.0706 -0.3283  0.5427
  523MOL0     H72114   6.739  -0.467   8.054  1.6244  0.5415 -1.8401
  523MOL0     H72115   6.929  -0.314   8.114 -1.2647 -0.3485  1.5900
  523MOL0     H72116   6.832  -0.176   8.074  0.3803 -0.2656  2.1249
  523MOL0     H72117   6.874  -0.415   7.884 -0.0202  0.0558 -1.9443
  523MOL0     H72118   6.825  -0.248   7.840 -2.9793 -0.2227  2.1158
  523MOL0     H72119   7.051  -0.305   7.754  2.8724  1.7706  0.7534
  523MOL0     H72120   7.088  -0.370   7.916  2.5657 -0.6407 -2.0103
  523MOL0     H72121   7.006  -0.079   7.861  1.9809 -0.9781 -4.1121
  523MOL0     H72122   7.076  -0.136   8.012  1.0874  3.5061  0.1731
  523MOL0     H72123   7.332  -0.283   7.947  2.8303 -0.8965 -1.3976
  523MOL0     H72124   7.598  -0.208   7.692 -2.1195  0.9656 -0.8475
  523MOL0     H72125   7.532  -0.347   7.760  0.0569  0.1608 -0.0595
  523MOL0     H72126   7.671  -0.109   7.899  1.5007 -0.0132  2.6715
  523MOL0     H72127   7.535  -0.175   7.986  0.8475  1.2092  0.3677
  523MOL0     H72128   7.716  -0.295   8.080 -3.4917  0.8291  0.5060
  523MOL0     H72129   7.656  -0.418   7.970  0.4831  0.4726 -0.7777
  523MOL0     H72130   7.803  -0.271   7.794  1.0165 -0.3028 -0.5308
  523MOL0     H72131   7.909  -0.263   7.929 -0.4528  2.3498 -1.5341
  523MOL0     H72132   8.045  -0.305   7.738 -0.5485 -1.5559 -0.9479
  523MOL0     H72133   8.373  -0.366   7.645 -1.0382 -2.3452  1.6031
  523MOL0     H72134   8.352  -0.235   7.781 -0.7485  0.5027  1.0368
  523MOL0     H72135   8.237  -0.256   7.646 -0.1377  1.5809  0.3420
  523MOL0     H72136   8.614  -0.733   7.696 -2.1596  0.2013  1.2841
  523MOL0     H72137   8.855  -0.761   7.692 -2.2854 -1.0079 -0.3387
  523MOL0     H72138   9.111  -0.850   7.758  2.3619 -1.4172  1.2253
  523MOL0     H72139   9.149  -0.673   7.785  0.4607  0.6083  4.0300
  523MOL0     H72140   9.208  -0.924   7.921 -1.1549  0.6647 -1.2671
  523MOL0     H72141   9.322  -0.830   7.811  1.0059  1.5492  1.1058
  523MOL0     H72142   9.245  -0.746   8.086 -1.7554  0.7815 -0.8558
  523MOL0     H72143   9.333  -0.645   7.969 -2.2167  0.0811 -1.9027
  523MOL0     H72144   9.521  -0.806   7.965 -0.0919 -2.8167 -0.6784
  523MOL0     H72145   9.435  -0.920   8.069  0.9596 -0.1884  2.8067
  523MOL0     H72146   9.442  -0.741   8.242  0.9278 -2.4925  0.8729
  523MOL0     H72147   9.604  -0.821   8.186  2.2671  1.6138 -2.1081
  523MOL0     H72148   9.526  -0.539   8.093  2.0345  3.9142  1.2150
  523MOL0     H72149   9.682  -0.625   8.098 -0.3410 -0.7988 -0.0049
  523MOL0     H72150   9.641  -0.635   8.352  1.9552 -2.0426 -1.6868
  523MOL0     H72151   9.528  -0.504   8.339  1.2143  0.9235  1.4224
  523MOL0     H72152   9.707  -0.367   8.367  0.1849 -1.2452  0.9022
  523MOL0     H72153   9.702  -0.367   8.197 -0.5695 -0.2103 -0.0355
  523MOL0     H72154   8.883  -0.688   8.120  1.1725 -2.5587 -1.0531
  523MOL0     H72155   8.657  -0.625   8.119  0.3445 -0.3086  0.5395
  523MOL0     H72156   8.242  -0.701   7.941 -2.6439 -1.0270 -1.3086
  523MOL0     H72157   8.006  -0.652   7.984  2.1200  0.2152  3.0055
  523MOL0     H72158   6.200  -0.335   8.199  1.0669  0.1001 -1.1746
  523MOL0     H72159   6.001  -0.258   8.310 -1.1266 -2.2840 -1.2473
  523MOL0     H72160   5.656   0.216   8.260  0.7766  1.4813  1.4073
  523MOL0     H72161   5.428   0.239   8.383 -0.7160 -1.5330 -2.2024
  523MOL0     H72162   5.214   0.146   8.688  1.1959 -2.3940  0.6475
  523MOL0     H72163   5.257   0.240   8.540  3.0791  0.2211 -0.5666
  523MOL0     H72164   5.261  -0.054   8.575 -0.4740 -1.0284 -2.4105
  523MOL0     H72165   5.261   0.018   8.413  0.2869 -0.2428  0.4109
  523MOL0     H72166   5.038  -0.057   8.440 -2.2531  0.9686 -1.5201
  523MOL0     H72167   5.009   0.041   8.589 -1.3712 -1.4453 -0.3642
  523MOL0     H72168   5.047   0.238   8.468 -3.0879 -1.5308  4.0914
  523MOL0     H72169   4.905   0.144   8.404 -0.3567 -5.3334 -0.2193
  523MOL0     H72170   5.204   0.129   8.091 -0.6248 -1.4709  0.4260
  523MOL0     H72171   5.608   0.022   8.704 -0.5295 -2.6582 -1.3872
  523MOL0     H72172   5.824  -0.061   8.692 -1.4259 -0.1806 -0.2472
  523MOL0     H72173   5.839  -0.162   8.541 -2.4734 -0.0814  2.0851
  523MOL0     H72174   5.944  -0.019   8.568  0.0367 -0.3608 -3.3329
  524MOL0     O72175   3.686   9.563   8.537  0.6318 -0.5182  0.2952
  524MOL0     C72176   3.620   9.629   8.619 -0.3225 -0.0492  0.3582
  524MOL0     O72177   3.666   9.677   8.739 -0.1452 -0.1847 -0.0134
  524MOL0     C72178   3.795   9.725   8.760  0.4836 -0.3000 -0.4444
  524MOL0     C72179   3.837   9.739   8.892 -0.4780  0.2640 -0.3596
  524MOL0     C72180   3.976   9.770   8.900 -0.3054 -0.9623 -0.4555
  524MOL0     C72181   4.063   9.808   8.798 -0.6495 -1.0218 -0.3646
  524MOL0     O72182   4.195   9.842   8.832  0.3912  0.1659  0.2238
  524MOL0     C72183   4.294   9.851   8.734 -0.9367  0.0719  0.4626
  524MOL0     C72184   4.431   9.794   8.773 -0.3657  0.1581  0.4211
  524MOL0     C72185   4.497   9.876   8.885 -0.2334  0.3470 -0.1159
  524MOL0     C72186   4.645   9.847   8.886  0.1231 -0.0202 -0.2191
  524MOL0     C72187   4.724   9.954   8.967  0.4498  0.6945 -1.0538
  524MOL0     C72188   4.695   9.938   9.119 -1.0735  0.5845  1.2024
  524MOL0     C72189   4.746  10.052   9.212 -0.0640 -0.1928 -0.3273
  524MOL0     C72190   4.645  10.171   9.224  0.6948  0.0532 -0.0841
  524MOL0     N72191   4.659  10.274   9.323 -0.1463 -0.6883 -0.0185
  524MOL0     C72192   4.630  10.244   9.454  0.3559 -1.0549  0.9977
  524MOL0     C72193   4.625  10.366   9.516 -0.7938  1.1054 -1.2950
  524MOL0     C72194   4.617  10.392   9.667 -0.0671 -0.8766  0.6370
  524MOL0     C72195   4.757  10.387   9.737 -0.7000 -0.3326  0.5367
  524MOL0     C72196   4.730  10.375   9.887  0.4946  0.2030  0.8337
  524MOL0     C72197   4.851  10.412   9.970  0.0256 -1.3800  0.6330
  524MOL0     O72198   4.953  10.319   9.929 -0.5351 -0.1335  0.5037
  524MOL0     C72199   5.089  10.335   9.962  0.2919 -0.5335 -0.5953
  524MOL0     C72200   5.182  10.281   9.877  0.1432  0.4037  0.0921
  524MOL0     C72201   5.325  10.295   9.889  0.2881  1.5588 -0.9322
  524MOL0     C72202   5.415  10.221   9.791  0.4131  0.0892 -0.1940
  524MOL0     C72203   5.369  10.355  10.011  0.3533  0.6222 -0.5645
  524MOL0     C72204   5.511  10.365  10.048 -0.2848 -0.0455  0.4951
  524MOL0     O72205   5.551  10.398  10.177  0.1732  0.1479  0.3270
  524MOL0     C72206   5.674  10.458  10.194  0.0483 -0.0228  0.4679
  524MOL0     C72207   5.787  10.378  10.188 -1.0505 -0.0318 -0.0808
  524MOL0     C72208   5.912  10.436  10.233 -1.0663 -1.1021 -0.6136
  524MOL0     C72209   5.925  10.577  10.260 -0.5538  0.6597 -0.1595
  524MOL0     O72210   6.046  10.638  10.281  0.0235 -0.4180 -0.0226
  524MOL0     C72211   6.167  10.574  10.227  0.4208 -0.4746 -0.5441
  524MOL0     C72212   6.283  10.666  10.262 -0.3592 -0.3105  0.5251
  524MOL0     C72213   6.417  10.593  10.227 -0.4381  0.2534  0.7380
  524MOL0     C72214   6.534  10.688  10.258 -0.0748  0.2441 -0.2456
  524MOL0     C72215   6.679  10.628  10.263 -1.1572  0.4037 -0.0773
  524MOL0     C72216   6.710  10.571  10.119  0.2746  0.0755  0.0428
  524MOL0     C72217   6.854  10.524  10.123 -0.2576  0.1897  0.3725
  524MOL0     C72218   6.887  10.439  10.005 -0.1247  0.3063  0.8004
  524MOL0    Cl72219   6.815  10.282  10.039  0.4760 -0.0605 -0.0873
  524MOL0     C72220   5.808  10.643  10.258  0.6723  0.1403 -0.3834
  524MOL0     C72221   5.678  10.592  10.232 -1.1948 -0.1881  0.1738
  524MOL0     O72222   5.593  10.354   9.954  0.6253 -0.2366  0.2272
  524MOL0     C72223   5.274  10.410  10.097 -0.2840 -0.2570 -1.3387
  524MOL0     C72224   5.134  10.403  10.077 -0.6902  0.6218  0.1678
  524MOL0     N72225   4.660  10.461   9.425  0.6985  0.4360  0.5419
  524MOL0     N72226   4.682  10.410   9.307  0.2741  0.3305 -1.6502
  524MOL0     C72227   4.006   9.813   8.676  0.4837  0.6006  0.1997
  524MOL0     C72228   3.874   9.768   8.655 -0.1450  0.3199 -0.9829
  524MOL0     C72229   3.475   9.648   8.583 -0.7019  0.6432 -0.7463
  524MOL0     C72230   3.389   9.686   8.688 -0.5370 -0.2058 -0.1626
  524MOL0     C72231   3.251   9.718   8.671  0.0306 -1.3475  0.6841
  524MOL0     C72232   3.198   9.688   8.547 -0.0366 -0.1569 -1.0914
  524MOL0     O72233   3.058   9.702   8.522 -0.1404  0.0069  0.9437
  524MOL0     C72234   2.983   9.810   8.580  0.5125 -0.0373  0.1693
  524MOL0     C72235   2.847   9.830   8.507  0.6830  0.7224  0.0758
  524MOL0     C72236   2.733   9.752   8.582 -0.0568  0.5327 -0.4358
  524MOL0     C72237   2.603   9.759   8.512 -0.2131  0.1345  0.1425
  524MOL0     C72238   2.525   9.877   8.555 -1.0081  0.1781  0.0761
  524MOL0     C72239   2.469   9.972   8.596  0.4648  0.5826 -0.3822
  524MOL0     C72240   3.282   9.649   8.442  0.1644  1.0749  0.4735
  524MOL0     C72241   3.418   9.628   8.457  0.4304  0.1270  0.1586
  524MOL0     C72242   3.488   9.607   8.334 -1.0058  0.2662 -0.0014
  524MOL0     H72243   3.776   9.702   8.974 -0.7716 -1.0538 -1.1344
  524MOL0     H72244   4.022   9.774   8.999  2.2072  2.1548 -1.5813
  524MOL0     H72245   4.299   9.960   8.732  0.8669  0.0614  1.7267
  524MOL0     H72246   4.259   9.828   8.633 -2.7930  3.1594  0.2623
  524MOL0     H72247   4.417   9.686   8.778 -0.9157  0.1689 -0.5698
  524MOL0     H72248   4.493   9.815   8.685 -1.5886  3.1153  0.1333
  524MOL0     H72249   4.487   9.984   8.867 -1.8780  0.0232 -1.3105
  524MOL0     H72250   4.459   9.841   8.982  1.7319 -2.6113 -0.2776
  524MOL0     H72251   4.661   9.748   8.929  0.1732  0.0091 -0.1708
  524MOL0     H72252   4.683   9.839   8.783 -1.4994 -3.8787 -0.6977
  524MOL0     H72253   4.699  10.053   8.927  0.5846  1.8947  1.6388
  524MOL0     H72254   4.830   9.941   8.945  0.5188  0.5039 -0.6173
  524MOL0     H72255   4.587   9.930   9.136 -1.2137  0.0536  0.1021
  524MOL0     H72256   4.741   9.845   9.153 -1.0949  1.5417  4.1382
  524MOL0     H72257   4.840  10.105   9.197 -0.2378  0.3158  0.3554
  524MOL0     H72258   4.745  10.015   9.314  3.2643 -2.9538 -1.1321
  524MOL0     H72259   4.636  10.224   9.129 -1.7381  0.3166  0.2239
  524MOL0     H72260   4.549  10.122   9.244  0.4382  0.3211 -0.6358
  524MOL0     H72261   4.613  10.144   9.495  0.9655 -2.3860 -1.7774
  524MOL0     H72262   4.545  10.317   9.702  0.6196 -1.7605  0.1750
  524MOL0     H72263   4.580  10.494   9.681  2.5106  0.3043 -0.5822
  524MOL0     H72264   4.807  10.299   9.695 -0.3145  0.4486 -0.7173
  524MOL0     H72265   4.829  10.468   9.723 -0.0142 -0.5714  2.3640
  524MOL0     H72266   4.647  10.442   9.911 -0.8087 -0.3367 -1.8277
  524MOL0     H72267   4.705  10.270   9.904  0.6474 -0.2565 -1.5459
  524MOL0     H72268   4.873  10.516   9.943 -2.1084  0.0565  3.7437
  524MOL0     H72269   4.835  10.417  10.078 -1.5435  1.9107  0.3830
  524MOL0     H72270   5.139  10.221   9.798 -0.6051  1.0870 -0.0273
  524MOL0     H72271   5.343  10.142   9.766 -2.9333  2.9202 -0.1023
  524MOL0     H72272   5.499  10.169   9.840 -0.6575 -2.1291 -0.5852
  524MOL0     H72273   5.454  10.278   9.706  1.3657  0.7906  0.6881
  524MOL0     H72274   5.782  10.270  10.173  1.1507 -0.5937  2.4138
  524MOL0     H72275   5.996  10.367  10.233  0.1953  0.2393 -3.3745
  524MOL0     H72276   6.180  10.474  10.270 -0.9269 -1.1228 -1.5570
  524MOL0     H72277   6.168  10.565  10.118  1.7581  2.8056 -0.9232
  524MOL0     H72278   6.271  10.751  10.194 -0.1918 -0.2708  0.5453
  524MOL0     H72279   6.280  10.697  10.367  1.2820  0.4431  0.3961
  524MOL0     H72280   6.414  10.544  10.129 -0.7975  1.9663 -0.1516
  524MOL0     H72281   6.429  10.513  10.301 -1.3793  0.5014  1.1789
  524MOL0     H72282   6.509  10.724  10.358 -3.0499 -4.4656  1.0215
  524MOL0     H72283   6.536  10.771  10.187  0.0566  0.0069 -0.5206
  524MOL0     H72284   6.749  10.707  10.292 -2.1042 -0.0739  4.0545
  524MOL0     H72285   6.690  10.545  10.332 -1.1508 -0.0662 -0.6341
  524MOL0     H72286   6.679  10.641  10.041  0.7980  2.2885  1.7138
  524MOL0     H72287   6.657  10.476  10.109 -0.7172  0.2588  2.6811
  524MOL0     H72288   6.879  10.483  10.221  0.5024  3.1931  1.5647
  524MOL0     H72289   6.912  10.617  10.116  1.2354 -0.7429 -0.1795
  524MOL0     H72290   6.995  10.426   9.993 -0.1378  0.1854  0.8001
  524MOL0     H72291   6.833  10.487   9.923  0.3303 -2.4035 -1.2393
  524MOL0     H72292   5.809  10.745  10.295 -0.5963  0.0132  0.0464
  524MOL0     H72293   5.591  10.657  10.229 -2.2909 -1.6238 -0.2276
  524MOL0     H72294   5.300  10.468  10.185  0.0639 -0.2950 -1.4127
  524MOL0     H72295   5.073  10.445  10.156  0.9258 -1.0652  2.4549
  524MOL0     H72296   4.060   9.830   8.583 -0.9120 -2.6301 -1.3581
  524MOL0     H72297   3.824   9.768   8.558 -3.1118 -0.5655  0.4215
  524MOL0     H72298   3.436   9.706   8.783  0.8324  2.6221 -1.3119
  524MOL0     H72299   3.188   9.738   8.757  2.6097 -1.4576  2.7067
  524MOL0     H72300   2.963   9.792   8.686 -0.8071 -0.7811 -0.1973
  524MOL0     H72301   3.045   9.900   8.586 -0.6751  0.7167  2.4826
  524MOL0     H72302   2.859   9.792   8.405  0.9704  2.8326 -0.7304
  524MOL0     H72303   2.821   9.937   8.503 -1.1374  0.2707 -2.2159
  524MOL0     H72304   2.768   9.650   8.599 -0.4661  0.7057  1.7548
  524MOL0     H72305   2.726   9.805   8.678  3.0647  1.5216 -0.6470
  524MOL0     H72306   2.548   9.671   8.544  0.7846 -0.1144  1.2325
  524MOL0     H72307   2.623   9.747   8.405  1.4065 -3.7648  0.6892
  524MOL0     H72308   2.407  10.052   8.631 -0.0785  0.0601 -0.1605
  524MOL0     H72309   3.241   9.610   8.349  2.4023 -0.1983 -0.0705
  524MOL0     H72310   3.435   9.639   8.245 -0.9494 -0.3987 -0.2796
  524MOL0     H72311   3.585   9.657   8.338 -0.5084 -0.7355  1.2711
  524MOL0     H72312   3.511   9.501   8.323  2.1467  0.6959  1.1796
  525MOL0     O72313   7.183   1.832   4.950  0.1489  0.7104  0.5553
  525MOL0     C72314   7.169   1.940   4.899 -0.4537 -0.8508 -0.0549
  525MOL0     O72315   7.260   2.003   4.825 -0.4067  0.2778 -1.1211
  525MOL0     C72316   7.363   1.933   4.756  0.3143 -0.6553 -0.5289
  525MOL0     C72317   7.467   2.004   4.704 -0.4120  0.4864  0.2417
  525MOL0     C72318   7.587   1.943   4.643  0.5935 -0.7130 -0.1640
  525MOL0     C72319   7.602   1.803   4.636 -0.3960 -0.1157 -0.1582
  525MOL0     O72320   7.722   1.762   4.578  0.3776 -0.2432  0.8054
  525MOL0     C72321   7.755   1.624   4.558  0.2322  0.3944  0.3079
  525MOL0     C72322   7.715   1.569   4.413  0.1102 -0.5405 -0.8487
  525MOL0     C72323   7.787   1.429   4.373  0.8610  0.1074  0.1884
  525MOL0     C72324   7.733   1.392   4.237 -0.0529  0.7804 -0.3131
  525MOL0     C72325   7.818   1.272   4.182  0.4914  0.6439  0.0639
  525MOL0     C72326   7.770   1.230   4.037 -0.0765 -0.4941  0.0411
  525MOL0     C72327   7.846   1.104   3.984  0.6315 -0.0443 -1.0058
  525MOL0     C72328   7.790   1.059   3.852 -0.1330  0.7930 -0.4316
  525MOL0     N72329   7.829   1.148   3.739 -0.3950  0.5193  0.3325
  525MOL0     C72330   7.738   1.236   3.684  0.1206 -0.6011  0.2304
  525MOL0     C72331   7.797   1.271   3.566  0.2554 -0.7427 -0.2560
  525MOL0     C72332   7.750   1.344   3.448 -0.7877 -0.3360  0.3352
  525MOL0     C72333   7.674   1.248   3.347 -0.9347  0.2654  1.3360
  525MOL0     C72334   7.527   1.228   3.378 -0.9914  0.6138 -0.6476
  525MOL0     C72335   7.446   1.166   3.264 -0.1756  0.2744  0.1829
  525MOL0     O72336   7.307   1.141   3.307 -0.0565  0.2584 -0.3170
  525MOL0     C72337   7.259   1.013   3.333 -0.5563 -0.5109  0.0134
  525MOL0     C72338   7.194   0.929   3.238 -0.0560  0.0219 -0.3096
  525MOL0     C72339   7.164   0.799   3.265 -0.0259 -0.0670 -0.7365
  525MOL0     C72340   7.084   0.719   3.166 -0.0059 -0.0491 -0.1847
  525MOL0     C72341   7.206   0.744   3.392 -0.5952 -0.4930  0.6878
  525MOL0     C72342   7.197   0.603   3.430  0.5642  0.1090  0.0111
  525MOL0     O72343   7.240   0.568   3.553  0.5607 -0.1860 -0.2091
  525MOL0     C72344   7.185   0.448   3.587 -0.1229 -0.3731 -0.0523
  525MOL0     C72345   7.046   0.440   3.613  0.7476  0.6503 -0.0082
  525MOL0     C72346   6.986   0.311   3.631 -0.3400 -0.1534 -0.1466
  525MOL0     C72347   7.062   0.191   3.616 -0.1962 -0.2034 -0.2757
  525MOL0     O72348   6.995   0.072   3.647  0.1943  0.4848  0.4580
  525MOL0     C72349   7.049  -0.052   3.682  0.3690  0.3832  0.0835
  525MOL0     C72350   7.109  -0.125   3.557 -0.2561 -0.0896 -0.0630
  525MOL0     C72351   7.016  -0.195   3.465  0.1722 -0.5025  0.7860
  525MOL0     C72352   6.993  -0.344   3.507  0.4702 -0.5933 -0.5269
  525MOL0     C72353   6.900  -0.400   3.399 -0.6642  0.0716 -0.0762
  525MOL0     C72354   6.876  -0.551   3.425  0.0356  0.9402  0.4144
  525MOL0     C72355   6.806  -0.565   3.555  0.4618 -0.2550 -0.2231
  525MOL0     C72356   6.761  -0.711   3.590 -0.2654  0.3614 -1.0491
  525MOL0    Cl72357   6.626  -0.764   3.470  0.1700 -0.0273 -0.1488
  525MOL0     C72358   7.203   0.199   3.594  0.5349  0.7582  0.4475
  525MOL0     C72359   7.261   0.327   3.582 -0.2755  0.3995  0.0422
  525MOL0     O72360   7.149   0.522   3.343 -0.2617 -0.8955  0.0723
  525MOL0     C72361   7.257   0.831   3.492  0.3927  1.0830 -0.4369
  525MOL0     C72362   7.291   0.957   3.458  0.1114 -0.1705 -0.1678
  525MOL0     N72363   7.923   1.217   3.569  0.1801 -0.2184 -1.1479
  525MOL0     N72364   7.947   1.138   3.663 -0.5960  0.1490 -0.1028
  525MOL0     C72365   7.486   1.722   4.674 -0.1579 -0.1092 -0.9452
  525MOL0     C72366   7.376   1.789   4.735 -0.0648 -0.6429 -0.3583
  525MOL0     C72367   7.049   2.006   4.934  0.4544 -0.6548  0.1303
  525MOL0     C72368   7.021   2.126   4.868 -0.0683  0.0346  0.1180
  525MOL0     C72369   6.908   2.202   4.899  1.1244  0.9418  0.0455
  525MOL0     C72370   6.817   2.159   4.992  0.4724  0.3043 -1.0485
  525MOL0     O72371   6.702   2.233   5.021 -0.1350  0.4451 -0.0074
  525MOL0     C72372   6.575   2.184   5.071 -0.3852  0.7029  0.3603
  525MOL0     C72373   6.448   2.268   5.037 -0.6754 -0.8786 -0.0506
  525MOL0     C72374   6.315   2.197   5.055 -0.1050 -0.0271 -0.0488
  525MOL0     C72375   6.186   2.281   5.021 -0.0143  0.0599 -0.7958
  525MOL0     C72376   6.174   2.404   5.107 -0.0784  0.0322 -0.6600
  525MOL0     C72377   6.182   2.514   5.163 -0.4507 -0.3334 -0.0365
  525MOL0     C72378   6.849   2.049   5.069  0.6421 -0.0598 -0.1338
  525MOL0     C72379   6.960   1.974   5.039  0.3193  0.2129  0.5552
  525MOL0     C72380   6.968   1.856   5.136 -0.4012 -0.9233  0.1989
  525MOL0     H72381   7.467   2.112   4.711  1.0524  0.4417  1.6030
  525MOL0     H72382   7.656   2.014   4.598 -2.1794  0.1360 -3.5443
  525MOL0     H72383   7.712   1.550   4.627  1.3911  0.0983  0.7238
  525MOL0     H72384   7.858   1.607   4.590  0.1849 -1.6475 -0.4509
  525MOL0     H72385   7.606   1.560   4.411 -0.0456 -0.7512  2.5567
  525MOL0     H72386   7.749   1.642   4.339  0.1955 -0.3494 -0.6197
  525MOL0     H72387   7.892   1.456   4.372  0.8243  0.3312 -1.8443
  525MOL0     H72388   7.759   1.350   4.443 -2.0864  0.5343 -0.3638
  525MOL0     H72389   7.632   1.351   4.232  0.9880 -1.7472 -2.7334
  525MOL0     H72390   7.743   1.475   4.166 -1.1479 -0.7897 -2.4213
  525MOL0     H72391   7.809   1.184   4.246 -0.7261 -0.2056 -1.2044
  525MOL0     H72392   7.920   1.311   4.179  0.2137  1.3738 -0.0535
  525MOL0     H72393   7.667   1.197   4.052 -0.1300 -2.3985 -3.5584
  525MOL0     H72394   7.770   1.316   3.969 -2.2831  0.7105  1.4376
  525MOL0     H72395   7.851   1.039   4.071 -2.9242  2.1224  1.1027
  525MOL0     H72396   7.949   1.138   3.973  0.4286  1.5106  1.1769
  525MOL0     H72397   7.826   0.956   3.843 -2.8374 -0.4073  1.1631
  525MOL0     H72398   7.682   1.061   3.865  0.0956  4.5510  2.4817
  525MOL0     H72399   7.639   1.251   3.724 -0.2219 -2.3111  0.0925
  525MOL0     H72400   7.829   1.401   3.399 -3.3716  3.4704  0.1812
  525MOL0     H72401   7.681   1.426   3.469 -0.0000 -0.2078  2.8290
  525MOL0     H72402   7.676   1.279   3.242  1.1274 -0.9433  0.9651
  525MOL0     H72403   7.734   1.157   3.350 -2.9908 -1.3489 -1.6943
  525MOL0     H72404   7.518   1.149   3.454 -0.8379  1.3462  0.1560
  525MOL0     H72405   7.489   1.317   3.429  0.1571 -1.4807  4.4973
  525MOL0     H72406   7.454   1.231   3.176 -0.0498  1.4144  1.0135
  525MOL0     H72407   7.479   1.067   3.234 -5.1414 -1.7811  0.6261
  525MOL0     H72408   7.161   0.974   3.145  0.3806 -1.5454 -1.2557
  525MOL0     H72409   7.000   0.668   3.214 -1.5058  2.0190 -0.4495
  525MOL0     H72410   7.153   0.649   3.118 -0.6894 -1.3972  0.7238
  525MOL0     H72411   7.050   0.777   3.079 -0.0668  0.5231  0.2123
  525MOL0     H72412   6.986   0.529   3.599  1.4822  0.6639 -4.5673
  525MOL0     H72413   6.882   0.295   3.658 -0.7374 -0.5771 -1.8396
  525MOL0     H72414   7.138  -0.034   3.743 -0.1100  0.6895  0.7000
  525MOL0     H72415   6.970  -0.115   3.724 -2.5971  2.1843 -2.4032
  525MOL0     H72416   7.148  -0.043   3.496 -0.5608  2.6384  3.1640
  525MOL0     H72417   7.192  -0.189   3.588  0.6124  0.5844 -0.9515
  525MOL0     H72418   7.070  -0.203   3.370 -1.2066 -2.3926  0.1027
  525MOL0     H72419   6.919  -0.145   3.456  1.5546  2.0666 -1.5149
  525MOL0     H72420   6.964  -0.354   3.612  2.6334 -0.0644  0.1589
  525MOL0     H72421   7.091  -0.392   3.500  1.5681  1.3731  0.6484
  525MOL0     H72422   6.805  -0.346   3.406 -0.3284  0.4820  2.2054
  525MOL0     H72423   6.942  -0.379   3.301  1.9433  1.4300  1.2034
  525MOL0     H72424   6.961  -0.620   3.428 -0.6525 -0.1737 -2.4395
  525MOL0     H72425   6.812  -0.594   3.347  1.6141 -4.5957  1.7248
  525MOL0     H72426   6.714  -0.507   3.563  0.5157 -0.2871  0.8295
  525MOL0     H72427   6.879  -0.542   3.633 -1.3715 -0.6189  1.6988
  525MOL0     H72428   6.738  -0.719   3.697  0.7138 -1.5567 -0.9499
  525MOL0     H72429   6.845  -0.780   3.579  0.3095  0.4501  1.9984
  525MOL0     H72430   7.267   0.112   3.582 -0.8722 -0.7575  3.0984
  525MOL0     H72431   7.368   0.335   3.566 -0.0705 -2.6735 -0.5661
  525MOL0     H72432   7.290   0.799   3.590 -1.5060 -0.6795 -0.3014
  525MOL0     H72433   7.342   1.023   3.528  1.5527 -0.5698 -0.8310
  525MOL0     H72434   7.492   1.614   4.675  0.8672 -0.0600 -0.3439
  525MOL0     H72435   7.299   1.727   4.780  0.8078 -0.6052  1.2601
  525MOL0     H72436   7.087   2.157   4.787  0.9685 -0.2120  0.8511
  525MOL0     H72437   6.898   2.292   4.840 -3.4491 -0.6595 -2.0867
  525MOL0     H72438   6.557   2.083   5.032  3.1035  0.3478 -0.7147
  525MOL0     H72439   6.565   2.177   5.180 -2.5760  2.4406  0.3435
  525MOL0     H72440   6.458   2.300   4.932 -0.8887  1.7211  0.6537
  525MOL0     H72441   6.465   2.357   5.097  0.1408 -0.3802 -0.9921
  525MOL0     H72442   6.307   2.109   4.990 -0.8318 -1.5117  1.9452
  525MOL0     H72443   6.310   2.155   5.156  2.0967  0.1832  0.1960
  525MOL0     H72444   6.090   2.229   5.025 -1.0757  1.8765 -1.4517
  525MOL0     H72445   6.197   2.307   4.915 -1.3825  0.9822 -0.7372
  525MOL0     H72446   6.187   2.613   5.202  0.0779  0.3524 -1.7302
  525MOL0     H72447   6.781   2.034   5.152  1.1057  3.4796  1.0331
  525MOL0     H72448   7.071   1.847   5.172 -1.0160 -3.2405  1.6222
  525MOL0     H72449   6.910   1.873   5.227  0.3687  2.9442  0.1461
  525MOL0     H72450   6.939   1.761   5.089  0.5103 -0.9964 -0.2371
  526MOL0     O72451   2.989   6.590   0.410  0.6046 -0.4438 -0.1638
  526MOL0     C72452   2.999   6.504   0.322  0.3471 -0.1390  0.5396
  526MOL0     O72453   3.116   6.466   0.266  0.3236  0.4434  0.1872
  526MOL0     C72454   3.248   6.512   0.292 -0.5276 -0.6035  0.5686
  526MOL0     C72455   3.294   6.596   0.395  0.3473 -0.8791  0.8590
  526MOL0     C72456   3.435   6.620   0.416  1.4011 -0.6184  0.2071
  526MOL0     C72457   3.529   6.570   0.329 -0.2065 -0.2442 -0.3979
  526MOL0     O72458   3.662   6.578   0.356  0.1959  0.3384  0.4709
  526MOL0     C72459   3.708   6.703   0.403  0.9297 -0.4376 -0.7769
  526MOL0     C72460   3.815   6.758   0.308 -0.6099 -0.2023 -0.0427
  526MOL0     C72461   3.926   6.657   0.287  0.4668 -0.4795  0.2817
  526MOL0     C72462   3.982   6.587   0.406  0.9858 -0.1339 -0.5117
  526MOL0     C72463   4.093   6.500   0.354 -0.1409 -0.0832  0.6171
  526MOL0     C72464   4.227   6.565   0.294  0.8695 -0.0233  0.6148
  526MOL0     C72465   4.337   6.474   0.239  0.2586 -0.1292  0.1816
  526MOL0     C72466   4.479   6.550   0.243 -0.2007  0.2302  0.0606
  526MOL0     N72467   4.469   6.664   0.156 -0.2588 -0.0501 -1.0493
  526MOL0     C72468   4.491   6.669   0.024  0.0924  1.1118  0.1315
  526MOL0     C72469   4.466   6.796  -0.012  0.3040 -0.0791 -0.6954
  526MOL0     C72470   4.484   6.846  -0.150 -0.3458  0.9756  0.2002
  526MOL0     C72471   4.633   6.867  -0.180 -0.7371 -1.2512  0.6838
  526MOL0     C72472   4.652   6.946  -0.318 -0.1743  0.1003  0.0403
  526MOL0     C72473   4.773   7.044  -0.339 -0.3350  0.4988  0.4107
  526MOL0     O72474   4.894   6.974  -0.347  0.0573  0.5330  0.1862
  526MOL0     C72475   4.984   6.998  -0.250  0.0718  0.5476 -0.1806
  526MOL0     C72476   5.108   6.926  -0.262 -0.2615  0.0282  0.6837
  526MOL0     C72477   5.227   6.943  -0.180 -0.5443 -0.4584 -1.1323
  526MOL0     C72478   5.347   6.871  -0.227  0.0811  0.5422 -0.6133
  526MOL0     C72479   5.217   7.036  -0.073  0.2353  0.0892  0.1271
  526MOL0     C72480   5.333   7.068   0.025  0.5685 -0.4302 -0.2646
  526MOL0     O72481   5.303   7.161   0.121 -0.3273  0.0277 -0.5927
  526MOL0     C72482   5.407   7.203   0.208  0.6794  0.1773  0.4186
  526MOL0     C72483   5.539   7.231   0.157  0.5084 -0.5511  0.4116
  526MOL0     C72484   5.636   7.292   0.237  0.2569  0.1451 -0.5717
  526MOL0     C72485   5.607   7.325   0.368 -0.3539  0.1117 -0.5859
  526MOL0     O72486   5.689   7.389   0.456 -0.2170  0.2824  0.2220
  526MOL0     C72487   5.828   7.395   0.416  0.2462 -0.0121  0.1660
  526MOL0     C72488   5.918   7.462   0.533 -0.1815  0.4843  0.6587
  526MOL0     C72489   6.056   7.395   0.554  0.5707  0.0428  0.6164
  526MOL0     C72490   6.147   7.391   0.425  0.3324 -0.0648 -0.7584
  526MOL0     C72491   6.285   7.328   0.452  0.8675  0.6811 -0.5571
  526MOL0     C72492   6.375   7.359   0.337 -0.3882 -0.8409  0.0588
  526MOL0     C72493   6.498   7.281   0.357  0.3009  0.5695  0.0203
  526MOL0     C72494   6.600   7.314   0.247 -0.8901 -0.7553  0.1156
  526MOL0    Cl72495   6.664   7.172   0.165 -0.2757 -0.1605 -0.1203
  526MOL0     C72496   5.476   7.299   0.417  0.3516 -0.3970  0.8158
  526MOL0     C72497   5.374   7.237   0.341  0.0498  0.0597  0.2256
  526MOL0     O72498   5.441   7.017   0.002 -0.4366  0.5851  0.1386
  526MOL0     C72499   5.092   7.094  -0.055  0.3694 -0.1292 -0.0273
  526MOL0     C72500   4.980   7.080  -0.139  0.5408 -0.2213 -0.0687
  526MOL0     N72501   4.448   6.873   0.103 -0.2127  0.3255 -0.3415
  526MOL0     N72502   4.445   6.794   0.208  0.1846  0.1707 -0.5091
  526MOL0     C72503   3.481   6.496   0.217 -0.5485 -0.1016 -0.4223
  526MOL0     C72504   3.346   6.451   0.206  0.3158 -1.5670  1.1710
  526MOL0     C72505   2.867   6.440   0.283 -0.1461  0.2936 -0.4367
  526MOL0     C72506   2.746   6.450   0.361  0.3179  0.3923  0.4294
  526MOL0     C72507   2.634   6.374   0.339  0.0955  0.7170 -0.9187
  526MOL0     C72508   2.621   6.301   0.224  0.1274  0.3488  0.2045
  526MOL0     O72509   2.514   6.230   0.186 -0.6033 -0.4087 -0.5470
  526MOL0     C72510   2.390   6.231   0.259  0.3512 -0.0711 -0.5130
  526MOL0     C72511   2.318   6.367   0.259 -0.2874 -1.3333 -0.7276
  526MOL0     C72512   2.216   6.379   0.146 -0.6387  0.2901 -0.1219
  526MOL0     C72513   2.145   6.513   0.160  0.5459  0.3585 -0.1444
  526MOL0     C72514   2.020   6.521   0.082 -0.1364 -0.8967  0.3746
  526MOL0     C72515   1.910   6.527   0.024  0.1281 -0.2100 -0.6268
  526MOL0     C72516   2.729   6.294   0.140 -0.1580 -0.7486  0.3845
  526MOL0     C72517   2.851   6.359   0.167  0.2416  0.5242  0.5894
  526MOL0     C72518   2.962   6.340   0.069  1.0834 -0.2557 -0.0265
  526MOL0     H72519   3.218   6.632   0.464  0.4827  2.0869 -0.4029
  526MOL0     H72520   3.466   6.679   0.502  1.8177 -2.1863  1.1704
  526MOL0     H72521   3.748   6.692   0.504 -2.1076 -0.9784  0.4746
  526MOL0     H72522   3.626   6.774   0.418 -0.1778 -1.9786  0.7730
  526MOL0     H72523   3.767   6.786   0.213  0.4662  1.8456 -0.0337
  526MOL0     H72524   3.854   6.846   0.360  1.8569 -1.0163 -0.4004
  526MOL0     H72525   3.894   6.578   0.219 -0.4049 -0.7644  0.9853
  526MOL0     H72526   4.002   6.717   0.238  0.0951  0.7554  1.1532
  526MOL0     H72527   4.017   6.650   0.489  0.2501 -1.0852  0.5490
  526MOL0     H72528   3.909   6.524   0.457  1.5188  0.2405  0.7748
  526MOL0     H72529   4.056   6.427   0.282  0.1026 -0.6932  1.0921
  526MOL0     H72530   4.122   6.448   0.446  0.3873  1.9591  1.6762
  526MOL0     H72531   4.194   6.643   0.225  0.4455 -2.4434 -2.1419
  526MOL0     H72532   4.268   6.622   0.378 -0.2953 -1.4136  2.2013
  526MOL0     H72533   4.322   6.432   0.140  1.9094 -1.9533  0.6430
  526MOL0     H72534   4.352   6.400   0.318  1.1563  0.7673  0.8935
  526MOL0     H72535   4.513   6.586   0.340  0.5343  0.9738 -0.4576
  526MOL0     H72536   4.559   6.486   0.204 -1.0413  0.4499 -2.1753
  526MOL0     H72537   4.527   6.586  -0.035 -0.9658 -0.0116  1.0048
  526MOL0     H72538   4.435   6.940  -0.177 -0.6994  0.3140 -1.5827
  526MOL0     H72539   4.438   6.780  -0.224  1.9680 -3.6030  2.4422
  526MOL0     H72540   4.672   6.932  -0.102 -1.9229  0.0216  0.2656
  526MOL0     H72541   4.682   6.770  -0.192 -1.2791 -1.6959  1.8440
  526MOL0     H72542   4.660   6.873  -0.400  4.9735 -0.9263  1.1230
  526MOL0     H72543   4.561   7.000  -0.345  0.3314  0.4612 -0.9782
  526MOL0     H72544   4.756   7.094  -0.435 -2.5611  1.1282  1.0848
  526MOL0     H72545   4.764   7.116  -0.257  0.7030  1.6585 -0.4513
  526MOL0     H72546   5.100   6.846  -0.335 -0.8178  2.0199 -1.5603
  526MOL0     H72547   5.390   6.804  -0.153 -4.4871  0.5070  2.3627
  526MOL0     H72548   5.420   6.945  -0.263 -1.5149  2.1454 -0.7026
  526MOL0     H72549   5.335   6.800  -0.309  2.0200 -1.6962  0.8905
  526MOL0     H72550   5.571   7.214   0.055  0.6770 -1.1048  0.5529
  526MOL0     H72551   5.735   7.313   0.197  1.3029  2.9508  2.9532
  526MOL0     H72552   5.855   7.293   0.387 -0.2761  0.8736 -4.0676
  526MOL0     H72553   5.837   7.456   0.326 -2.3191 -0.9681 -0.8324
  526MOL0     H72554   5.936   7.568   0.511 -1.5772  0.6938  0.4262
  526MOL0     H72555   5.857   7.458   0.623  1.1515  0.4502  1.5882
  526MOL0     H72556   6.039   7.290   0.580  2.6471 -0.9802 -1.6991
  526MOL0     H72557   6.114   7.442   0.634 -0.8671 -0.6174  2.1198
  526MOL0     H72558   6.171   7.493   0.395  2.2549  0.2685  1.6302
  526MOL0     H72559   6.103   7.339   0.339 -3.3770 -1.8077  1.9132
  526MOL0     H72560   6.323   7.359   0.550 -0.0024  1.2131 -0.3857
  526MOL0     H72561   6.281   7.219   0.455 -1.7111  0.6972 -1.0644
  526MOL0     H72562   6.404   7.464   0.332 -0.8674 -0.7239 -0.3702
  526MOL0     H72563   6.323   7.331   0.245  0.8990 -0.2804 -0.8574
  526MOL0     H72564   6.467   7.178   0.338  2.6925  0.0950 -1.7103
  526MOL0     H72565   6.535   7.304   0.458 -0.6238  2.6096 -0.0722
  526MOL0     H72566   6.688   7.368   0.285 -1.4638  0.9586 -0.8732
  526MOL0     H72567   6.560   7.381   0.170 -1.3369  0.7843  1.6322
  526MOL0     H72568   5.467   7.334   0.520  2.0697  2.8858 -0.0290
  526MOL0     H72569   5.281   7.203   0.385 -0.3639  0.2733 -0.4737
  526MOL0     H72570   5.076   7.169   0.021 -0.1836  2.0650 -2.1786
  526MOL0     H72571   4.892   7.138  -0.111  0.3852 -1.2792  1.8223
  526MOL0     H72572   3.555   6.485   0.138  2.3878  0.4173  2.0562
  526MOL0     H72573   3.314   6.383   0.128  1.9060 -0.7058 -0.3109
  526MOL0     H72574   2.759   6.511   0.450 -1.7874  2.1638 -0.3947
  526MOL0     H72575   2.561   6.378   0.419  1.8314  0.2119  0.7725
  526MOL0     H72576   2.326   6.149   0.224  0.5646 -0.5135  0.1047
  526MOL0     H72577   2.419   6.212   0.363  0.4422  2.1649 -0.0782
  526MOL0     H72578   2.394   6.443   0.245 -0.8947 -1.0285 -2.5355
  526MOL0     H72579   2.271   6.378   0.358  2.3756  0.1040  0.4800
  526MOL0     H72580   2.270   6.380   0.051 -1.8418 -3.7164 -1.0338
  526MOL0     H72581   2.143   6.297   0.145 -3.9310  2.9172  1.5569
  526MOL0     H72582   2.213   6.589   0.122 -0.3359  0.5249 -1.4530
  526MOL0     H72583   2.113   6.535   0.262 -1.1143 -0.7227 -0.3972
  526MOL0     H72584   1.812   6.530  -0.020  1.4296  1.6220 -3.7288
  526MOL0     H72585   2.728   6.231   0.052 -0.3782  0.4984 -0.5343
  526MOL0     H72586   2.923   6.292  -0.022  2.2073 -2.7407  0.7202
  526MOL0     H72587   3.008   6.436   0.043  1.5537 -0.3484  0.4504
  526MOL0     H72588   3.037   6.272   0.111  0.6804 -0.1308  0.9222
  527MOL0     O72589   7.436   2.353   0.183 -0.0059 -0.2219  0.6925
  527MOL0     C72590   7.314   2.341   0.221 -0.2822 -0.2361 -0.5114
  527MOL0     O72591   7.269   2.252   0.319 -0.3608  0.1972 -0.0330
  527MOL0     C72592   7.379   2.169   0.346 -0.8864 -0.3784 -0.2195
  527MOL0     C72593   7.417   2.057   0.278  0.3924  0.6183  0.0836
  527MOL0     C72594   7.519   1.967   0.317 -0.2298 -0.3157  0.3013
  527MOL0     C72595   7.595   1.993   0.433  0.3156  0.2427  0.1795
  527MOL0     O72596   7.706   1.915   0.458 -0.0561 -0.0816  0.1684
  527MOL0     C72597   7.829   1.987   0.508  0.2660 -0.7822 -0.0098
  527MOL0     C72598   7.944   1.880   0.526 -0.5350  1.1155 -0.0241
  527MOL0     C72599   7.996   1.825   0.390  0.4144 -0.6883  1.2942
  527MOL0     C72600   8.052   1.688   0.419 -0.2787 -0.5537 -0.4272
  527MOL0     C72601   8.084   1.623   0.283 -0.5001 -0.6445 -0.1277
  527MOL0     C72602   8.134   1.479   0.300  0.3971 -0.4756 -0.0381
  527MOL0     C72603   8.183   1.407   0.168  0.4558 -1.1279  0.0351
  527MOL0     C72604   8.197   1.266   0.176 -0.5160 -0.6657  0.0878
  527MOL0     N72605   8.069   1.201   0.208  0.1836 -0.5775  0.2927
  527MOL0     C72606   7.949   1.203   0.140  0.2694 -0.4074 -0.5773
  527MOL0     C72607   7.856   1.159   0.227  1.0460  0.1959  0.5054
  527MOL0     C72608   7.718   1.125   0.176  0.6715  0.9347  0.0580
  527MOL0     C72609   7.654   1.240   0.105 -0.2178 -0.1812 -0.7242
  527MOL0     C72610   7.508   1.199   0.068  0.0688 -0.0301  1.0272
  527MOL0     C72611   7.426   1.329   0.024 -0.0631  0.2448 -0.9487
  527MOL0     O72612   7.483   1.386  -0.093 -0.8171  0.3488 -0.2278
  527MOL0     C72613   7.571   1.495  -0.094 -1.3198  0.6375  0.4277
  527MOL0     C72614   7.636   1.537  -0.213 -0.2203  0.8226  0.0623
  527MOL0     C72615   7.717   1.648  -0.225 -0.6138 -0.0575 -0.2914
  527MOL0     C72616   7.774   1.673  -0.358 -0.6130 -0.1410  0.4296
  527MOL0     C72617   7.741   1.724  -0.106  0.2725 -0.1778  0.6614
  527MOL0     C72618   7.840   1.840  -0.099  0.5159  0.4287  0.8258
  527MOL0     O72619   7.851   1.899   0.022  0.7465  0.1131  0.7459
  527MOL0     C72620   7.981   1.945   0.036  0.4936  0.4918 -0.7547
  527MOL0     C72621   7.993   2.069   0.102  0.1835 -1.3555 -0.4556
  527MOL0     C72622   8.117   2.121   0.147  0.3718  1.0275  0.4086
  527MOL0     C72623   8.231   2.045   0.113  0.1003 -0.7069  0.4549
  527MOL0     O72624   8.359   2.081   0.146  0.8918  0.5807  0.3093
  527MOL0     C72625   8.397   2.222   0.122 -0.4539  0.4440  0.0454
  527MOL0     C72626   8.539   2.252   0.171  0.0150 -0.0970 -0.3181
  527MOL0     C72627   8.634   2.208   0.064 -0.4254  0.1875  0.2773
  527MOL0     C72628   8.776   2.247   0.095  0.1673  0.0729 -0.6025
  527MOL0     C72629   8.875   2.180  -0.001 -0.2200  0.0850  0.3086
  527MOL0     C72630   9.021   2.230   0.019 -0.4224 -0.1639 -0.0956
  527MOL0     C72631   9.125   2.154  -0.072  0.1804 -0.2316 -0.0231
  527MOL0     C72632   9.140   2.012  -0.013 -0.1444  0.5850  0.1290
  527MOL0    Cl72633   9.272   1.906  -0.068 -0.0562  0.0874 -0.1255
  527MOL0     C72634   8.221   1.921   0.050 -0.1684  0.7598 -0.2231
  527MOL0     C72635   8.098   1.868   0.019 -0.0420 -0.1005  0.6583
  527MOL0     O72636   7.903   1.875  -0.194  0.5777 -0.0140 -0.4124
  527MOL0     C72637   7.675   1.688   0.005 -0.4876 -1.0427 -0.6255
  527MOL0     C72638   7.593   1.578   0.014  0.3766 -0.3884  0.7165
  527MOL0     N72639   7.928   1.096   0.333  0.4302 -0.0480 -0.4898
  527MOL0     N72640   8.049   1.121   0.318 -0.5054  0.1928 -0.1645
  527MOL0     C72641   7.566   2.116   0.500 -0.3678  1.0039 -0.0714
  527MOL0     C72642   7.458   2.207   0.456 -0.7554  0.4902 -0.2537
  527MOL0     C72643   7.214   2.431   0.153 -0.0658 -0.3107 -0.8005
  527MOL0     C72644   7.085   2.374   0.116  0.5408 -0.4648  0.3665
  527MOL0     C72645   6.990   2.437   0.033 -0.2163 -0.0059  1.0892
  527MOL0     C72646   7.015   2.570  -0.005 -0.4924  0.8506 -0.3381
  527MOL0     O72647   6.913   2.630  -0.072  0.1794 -0.3079  0.2592
  527MOL0     C72648   6.849   2.745  -0.017  0.3727 -0.0180  0.4630
  527MOL0     C72649   6.782   2.817  -0.126 -0.2729 -0.5706 -0.0617
  527MOL0     C72650   6.683   2.929  -0.074  1.0685  0.2205  0.6273
  527MOL0     C72651   6.750   3.053  -0.010  0.2267  0.6663 -0.2467
  527MOL0     C72652   6.645   3.148   0.013 -0.4993 -0.5837 -0.3041
  527MOL0     C72653   6.554   3.225   0.032 -0.5067  0.7265  0.0944
  527MOL0     C72654   7.144   2.625   0.018  0.1963 -0.0291 -0.1895
  527MOL0     C72655   7.246   2.561   0.091  0.1241  0.0769 -0.3541
  527MOL0     C72656   7.380   2.627   0.097 -0.0371 -0.0605 -0.2656
  527MOL0     H72657   7.346   2.023   0.203 -0.6986  1.0735  0.8753
  527MOL0     H72658   7.524   1.867   0.275  2.3954 -0.3015  0.3814
  527MOL0     H72659   7.802   2.030   0.605  0.9004 -1.7006  0.5875
  527MOL0     H72660   7.859   2.062   0.433 -3.3626 -0.0291 -0.8801
  527MOL0     H72661   8.030   1.924   0.577  0.0428  0.5433 -0.4816
  527MOL0     H72662   7.919   1.794   0.588 -0.1851 -2.4826 -4.3723
  527MOL0     H72663   7.910   1.810   0.325  0.5840  1.0296  0.6181
  527MOL0     H72664   8.071   1.892   0.346  0.6485 -1.1187  1.0342
  527MOL0     H72665   8.142   1.697   0.481  1.7182 -2.7056 -2.8079
  527MOL0     H72666   7.978   1.625   0.469 -1.8514  1.1853 -0.4328
  527MOL0     H72667   8.148   1.694   0.232 -1.1264  1.3488  1.7200
  527MOL0     H72668   7.988   1.617   0.231 -0.3070 -1.0949 -0.4434
  527MOL0     H72669   8.217   1.487   0.371 -0.3255  0.0748  0.7631
  527MOL0     H72670   8.054   1.428   0.354 -2.0226  1.9889 -1.0460
  527MOL0     H72671   8.281   1.452   0.150  1.0032 -2.3578 -0.1452
  527MOL0     H72672   8.112   1.431   0.088 -0.6926 -0.0207  1.3305
  527MOL0     H72673   8.231   1.219   0.083  2.4581 -0.8082  1.1262
  527MOL0     H72674   8.281   1.243   0.242 -0.9545 -1.3286  0.4342
  527MOL0     H72675   7.952   1.240   0.038  1.8603 -0.7378 -0.6842
  527MOL0     H72676   7.650   1.084   0.251 -1.6923  1.1443 -1.8292
  527MOL0     H72677   7.725   1.045   0.101 -1.9849  0.4975  0.1721
  527MOL0     H72678   7.659   1.332   0.163 -0.4436 -1.1358  0.8446
  527MOL0     H72679   7.705   1.268   0.012  0.8195  0.9017  0.1510
  527MOL0     H72680   7.499   1.146  -0.027  1.5799  2.5886 -0.7311
  527MOL0     H72681   7.453   1.149   0.149 -0.1036  2.8717  2.8589
  527MOL0     H72682   7.330   1.287  -0.007 -1.6996 -2.4269  5.9641
  527MOL0     H72683   7.413   1.396   0.109  0.8922  0.2281 -0.7825
  527MOL0     H72684   7.609   1.475  -0.298 -0.7229 -0.3983  1.0854
  527MOL0     H72685   7.721   1.752  -0.412 -1.8729 -1.5310 -0.4444
  527MOL0     H72686   7.780   1.577  -0.410 -0.2495  0.1333 -0.0470
  527MOL0     H72687   7.877   1.699  -0.333 -1.0545  1.4419  0.7095
  527MOL0     H72688   7.900   2.123   0.115  0.6683 -0.8534  1.1367
  527MOL0     H72689   8.114   2.208   0.212  0.9308  0.1861  1.5711
  527MOL0     H72690   8.387   2.244   0.015 -0.6809  1.8714  0.3292
  527MOL0     H72691   8.327   2.291   0.171 -2.0467  1.3339 -3.1404
  527MOL0     H72692   8.544   2.361   0.173 -0.9374 -0.0085 -1.6185
  527MOL0     H72693   8.567   2.206   0.266 -1.2513 -1.0328 -0.3808
  527MOL0     H72694   8.606   2.241  -0.036  1.2899 -0.2094 -0.3646
  527MOL0     H72695   8.640   2.100   0.045  1.0692  0.3818 -0.4991
  527MOL0     H72696   8.786   2.208   0.197 -0.1339  2.7089  0.5319
  527MOL0     H72697   8.794   2.355   0.105 -0.2096  0.0560  0.4346
  527MOL0     H72698   8.868   2.071   0.009 -1.0983 -0.1680 -2.2869
  527MOL0     H72699   8.851   2.202  -0.105  0.6475 -0.1329  0.0581
  527MOL0     H72700   9.043   2.212   0.124 -0.6080 -4.2984 -0.6039
  527MOL0     H72701   9.028   2.338   0.001 -1.4094 -0.2893 -1.4762
  527MOL0     H72702   9.220   2.207  -0.075 -0.3147  0.6468 -1.6115
  527MOL0     H72703   9.084   2.153  -0.174 -0.2906  0.4283  0.1553
  527MOL0     H72704   9.044   1.960  -0.020 -1.3407  2.6576  0.2375
  527MOL0     H72705   9.167   2.033   0.090  0.5682  1.2389 -0.1836
  527MOL0     H72706   8.309   1.859   0.037  0.0682 -0.6840  5.4167
  527MOL0     H72707   8.110   1.771  -0.029  4.9214  1.6130 -2.3725
  527MOL0     H72708   7.694   1.743   0.097  0.4689 -0.2776 -1.2579
  527MOL0     H72709   7.542   1.557   0.107 -0.0371 -0.2466  0.5229
  527MOL0     H72710   7.612   2.148   0.593 -4.8554  2.4321  1.9310
  527MOL0     H72711   7.426   2.300   0.501  0.5394  2.0016 -2.2901
  527MOL0     H72712   7.062   2.274   0.151 -1.4558  0.0734  0.7104
  527MOL0     H72713   6.903   2.382  -0.000  1.9286 -3.3888  0.5626
  527MOL0     H72714   6.777   2.722   0.062 -0.3265 -0.6556 -0.3240
  527MOL0     H72715   6.924   2.807   0.032 -0.7194  0.7027  1.2744
  527MOL0     H72716   6.732   2.744  -0.191  0.6922 -2.3291  1.0863
  527MOL0     H72717   6.855   2.866  -0.190 -2.5806  2.0166 -0.8960
  527MOL0     H72718   6.617   2.965  -0.153  1.0149  1.5255  1.2447
  527MOL0     H72719   6.615   2.880  -0.005  0.7541 -1.5584 -0.8459
  527MOL0     H72720   6.813   3.088  -0.092 -1.6177 -2.4656 -3.3015
  527MOL0     H72721   6.805   3.036   0.083  1.5331 -2.1029 -1.4139
  527MOL0     H72722   6.479   3.301   0.033 -0.0793  1.1516  0.6415
  527MOL0     H72723   7.175   2.713  -0.037  2.3257 -1.3777 -1.2668
  527MOL0     H72724   7.359   2.730   0.066 -1.0445  0.5063  2.0596
  527MOL0     H72725   7.430   2.618   0.194 -0.8006  2.7084  0.4794
  527MOL0     H72726   7.456   2.577   0.037  2.5942 -0.7330  3.2551
  528MOL0     O72727   7.189   9.929   0.388 -0.0062 -0.7037 -0.1260
  528MOL0     C72728   7.250   9.940   0.283  0.1611  0.2899 -0.5816
  528MOL0     O72729   7.203  10.009   0.173  0.3676  0.2770 -0.8683
  528MOL0     C72730   7.079  10.065   0.177 -0.6142 -0.2002 -0.0234
  528MOL0     C72731   6.991  10.029   0.069  0.8223 -0.1652  0.7367
  528MOL0     C72732   6.869  10.100   0.055 -0.1004 -0.2461  0.1939
  528MOL0     C72733   6.842  10.203   0.148 -0.1032 -0.3530 -0.6318
  528MOL0     O72734   6.741  10.284   0.130  0.3457  0.7721  0.0481
  528MOL0     C72735   6.613  10.214   0.116  0.3600  0.1004 -0.1756
  528MOL0     C72736   6.505  10.327   0.128  0.6739  0.4568  1.0083
  528MOL0     C72737   6.359  10.285   0.129 -0.9041 -0.2282 -0.6141
  528MOL0     C72738   6.263  10.407   0.091 -0.1036 -0.4711 -0.5656
  528MOL0     C72739   6.114  10.366   0.093 -0.7649 -0.7083 -0.4557
  528MOL0     C72740   6.031  10.463   0.162  1.5292  0.6756 -0.1855
  528MOL0     C72741   5.885  10.434   0.155 -0.1200  0.2864  0.0882
  528MOL0     C72742   5.810  10.566   0.187  0.2130 -0.3018 -0.6774
  528MOL0     N72743   5.669  10.534   0.156  0.6409  0.0176  0.2512
  528MOL0     C72744   5.585  10.452   0.227 -0.0921  0.6274  0.0390
  528MOL0     C72745   5.481  10.425   0.150  0.5051  0.0107 -0.5076
  528MOL0     C72746   5.360  10.338   0.191 -0.2329 -0.0650 -0.4069
  528MOL0     C72747   5.270  10.423   0.286  0.0303 -0.1415 -0.0675
  528MOL0     C72748   5.209  10.538   0.206 -0.4201 -0.2459  0.0182
  528MOL0     C72749   5.179  10.663   0.285  0.1069  0.0270  0.1204
  528MOL0     O72750   5.287  10.757   0.296  0.4222 -0.1694 -0.2282
  528MOL0     C72751   5.388  10.744   0.389  0.1497 -0.0082 -0.2736
  528MOL0     C72752   5.511  10.801   0.355  0.3454  0.4613 -0.1503
  528MOL0     C72753   5.629  10.778   0.434  0.1358  0.0399 -0.2198
  528MOL0     C72754   5.747  10.863   0.397 -0.3619  0.3164 -0.5227
  528MOL0     C72755   5.615  10.702   0.554 -0.3131  0.0971 -0.0930
  528MOL0     C72756   5.718  10.694   0.660 -0.4908  0.6092 -0.8567
  528MOL0     O72757   5.811  10.806   0.673 -0.4992  0.6855 -0.2160
  528MOL0     C72758   5.915  10.790   0.752 -1.1651 -0.4929  1.0777
  528MOL0     C72759   5.999  10.675   0.755 -0.1858 -0.0633  0.1273
  528MOL0     C72760   6.128  10.674   0.815  0.5397 -0.4259  0.1287
  528MOL0     C72761   6.176  10.797   0.871  0.0521 -0.5156  0.5625
  528MOL0     O72762   6.305  10.813   0.928 -0.1788 -0.4289 -0.5601
  528MOL0     C72763   6.381  10.701   0.987  0.6127  0.8454  0.0805
  528MOL0     C72764   6.318  10.667   1.122 -0.2063  0.6339  0.4852
  528MOL0     C72765   6.332  10.776   1.225  0.1078 -0.5130 -0.0024
  528MOL0     C72766   6.263  10.761   1.358 -0.6447  0.3534  0.5182
  528MOL0     C72767   6.235  10.888   1.434 -1.2063 -0.7156 -0.9565
  528MOL0     C72768   6.362  10.968   1.473  0.2127 -0.4291  0.3810
  528MOL0     C72769   6.470  10.902   1.551 -0.3891 -0.8220  0.5482
  528MOL0     C72770   6.581  11.000   1.584 -0.7929 -0.2712  0.0738
  528MOL0    Cl72771   6.705  10.905   1.678 -0.7184  0.1836 -0.2378
  528MOL0     C72772   6.088  10.904   0.873 -0.3100  0.5640 -0.5223
  528MOL0     C72773   5.963  10.902   0.812 -0.5287 -0.6943  0.4182
  528MOL0     O72774   5.731  10.586   0.713  0.1128  0.2313  0.1047
  528MOL0     C72775   5.493  10.644   0.583 -0.2195  0.2795  0.5579
  528MOL0     C72776   5.381  10.670   0.507 -0.4013  0.8887  0.7231
  528MOL0     N72777   5.503  10.493   0.033  0.7426  1.3138  0.1230
  528MOL0     N72778   5.611  10.553   0.031 -0.7409 -0.1733  0.3736
  528MOL0     C72779   6.924  10.228   0.256  0.1137  0.5007 -0.3278
  528MOL0     C72780   7.047  10.167   0.267 -0.0283 -0.2663  0.4850
  528MOL0     C72781   7.389   9.881   0.280  0.5704  0.5066 -0.5375
  528MOL0     C72782   7.458   9.851   0.396  0.0774  0.5721 -0.5772
  528MOL0     C72783   7.586   9.799   0.405 -0.6936 -0.3992  0.6360
  528MOL0     C72784   7.649   9.767   0.288  0.7243  0.0755  0.2164
  528MOL0     O72785   7.771   9.702   0.296 -0.3950 -0.3132  0.6486
  528MOL0     C72786   7.826   9.638   0.172 -0.0406 -0.7590 -0.5481
  528MOL0     C72787   7.945   9.724   0.112  0.5934 -0.0987 -0.0644
  528MOL0     C72788   8.034   9.776   0.216  0.2755  0.0358 -0.2941
  528MOL0     C72789   8.154   9.849   0.151  0.4697  0.1050 -0.3667
  528MOL0     C72790   8.239   9.901   0.258 -0.9341 -0.4601  0.0486
  528MOL0     C72791   8.315   9.952   0.338  0.4121  0.0777 -0.2382
  528MOL0     C72792   7.588   9.797   0.164 -0.0305 -0.1651  0.5039
  528MOL0     C72793   7.458   9.854   0.160  0.2471 -0.7808 -0.9582
  528MOL0     C72794   7.393   9.866   0.024 -0.1361 -1.0441 -0.5287
  528MOL0     H72795   7.027   9.960  -0.006  0.3532  0.0334  0.3247
  528MOL0     H72796   6.801  10.089  -0.028 -1.3219 -0.4983  1.2009
  528MOL0     H72797   6.614  10.150   0.205 -0.8942 -0.0888 -0.2844
  528MOL0     H72798   6.614  10.158   0.023  2.6081  2.0796 -1.4864
  528MOL0     H72799   6.527  10.377   0.223 -2.4863  1.9608  1.0706
  528MOL0     H72800   6.525  10.385   0.038  3.5038 -0.2388  1.0997
  528MOL0     H72801   6.349  10.197   0.065 -1.4848 -1.3041  0.8879
  528MOL0     H72802   6.329  10.260   0.231  4.8910 -1.1264  1.2427
  528MOL0     H72803   6.263  10.487   0.165 -1.1281 -1.1306  0.1795
  528MOL0     H72804   6.299  10.447  -0.004  2.0348 -0.7160  0.1032
  528MOL0     H72805   6.116  10.280   0.161 -0.4493 -0.1898  0.2054
  528MOL0     H72806   6.080  10.338  -0.007 -0.3566 -1.6453 -0.3439
  528MOL0     H72807   6.062  10.470   0.266  0.6205 -0.2497  0.1699
  528MOL0     H72808   6.051  10.562   0.119  0.1321  0.5357 -1.2203
  528MOL0     H72809   5.849  10.361   0.228  0.4625 -1.0186 -0.8871
  528MOL0     H72810   5.856  10.406   0.053 -0.1772  1.3932 -0.2136
  528MOL0     H72811   5.827  10.603   0.288  4.9367 -3.1706 -0.0901
  528MOL0     H72812   5.828  10.647   0.115 -1.3075 -0.2821 -1.0678
  528MOL0     H72813   5.600  10.401   0.322 -0.9504 -2.3871 -1.3018
  528MOL0     H72814   5.384  10.239   0.230  0.0658 -1.0752 -2.9381
  528MOL0     H72815   5.308  10.302   0.101 -0.6093 -2.8902  0.8427
  528MOL0     H72816   5.195  10.353   0.326  0.9643 -0.5477  1.0355
  528MOL0     H72817   5.332  10.460   0.368 -1.3715  0.4698  0.7712
  528MOL0     H72818   5.261  10.557   0.112 -0.0567 -0.6578  0.1270
  528MOL0     H72819   5.109  10.506   0.178 -0.3504 -0.5858  0.1478
  528MOL0     H72820   5.094  10.715   0.241  0.0786  1.1934  1.4649
  528MOL0     H72821   5.141  10.623   0.379 -0.0886 -0.7145 -0.2750
  528MOL0     H72822   5.515  10.859   0.264  0.5034  0.8731  0.1130
  528MOL0     H72823   5.711  10.955   0.445  0.0691  1.1029 -1.6662
  528MOL0     H72824   5.755  10.873   0.289 -1.3480  1.5873 -0.5135
  528MOL0     H72825   5.845  10.833   0.436 -0.3622 -3.2262 -2.8180
  528MOL0     H72826   5.961  10.581   0.717  1.2857 -1.3981  1.8077
  528MOL0     H72827   6.182  10.580   0.816  0.3472 -0.5486  1.9131
  528MOL0     H72828   6.367  10.619   0.916  0.4406  1.8588 -1.1013
  528MOL0     H72829   6.486  10.728   1.001  0.7527 -0.2569  1.3461
  528MOL0     H72830   6.212  10.650   1.102 -0.0676  0.5296 -0.1786
  528MOL0     H72831   6.364  10.576   1.162 -0.3981  0.6723  0.7955
  528MOL0     H72832   6.296  10.872   1.187 -1.3062  0.2140  2.9252
  528MOL0     H72833   6.437  10.783   1.254  0.1011 -1.7147  0.3479
  528MOL0     H72834   6.317  10.690   1.421  0.4796 -1.7352 -2.5597
  528MOL0     H72835   6.174  10.702   1.332  0.4062 -0.8408 -0.5142
  528MOL0     H72836   6.163  10.953   1.384 -2.0970  0.2908  1.4749
  528MOL0     H72837   6.192  10.858   1.530  0.5181 -0.0251  0.0660
  528MOL0     H72838   6.328  11.045   1.542  1.7433  1.6553 -1.0697
  528MOL0     H72839   6.403  11.017   1.384  1.3120  1.9839  2.1018
  528MOL0     H72840   6.511  10.820   1.492  0.4613  0.4898 -0.7515
  528MOL0     H72841   6.436  10.879   1.653 -0.7900 -0.4098  0.5109
  528MOL0     H72842   6.556  11.087   1.647  0.6535 -0.0721  0.4159
  528MOL0     H72843   6.619  11.035   1.488  0.7274 -0.2447  0.6503
  528MOL0     H72844   6.123  10.992   0.925  4.0593 -1.8670  1.1677
  528MOL0     H72845   5.910  10.996   0.825  2.3689  1.2757 -0.7707
  528MOL0     H72846   5.487  10.581   0.671  0.5918 -0.2341  0.2602
  528MOL0     H72847   5.289  10.633   0.550 -1.8104 -0.0924 -2.8444
  528MOL0     H72848   6.886  10.297   0.330  0.1510 -1.5541  1.7222
  528MOL0     H72849   7.113  10.194   0.349 -0.1191  1.1537  0.1245
  528MOL0     H72850   7.398   9.857   0.486  0.5148  1.9250 -0.3582
  528MOL0     H72851   7.651   9.780   0.490  1.0626  3.6682  0.4706
  528MOL0     H72852   7.864   9.539   0.197  0.9948 -0.3175 -0.2908
  528MOL0     H72853   7.755   9.626   0.090  0.9681 -0.5702 -1.4818
  528MOL0     H72854   7.892   9.809   0.068 -2.4913 -1.3863  0.8719
  528MOL0     H72855   8.002   9.667   0.038  3.4213  3.7119 -1.1307
  528MOL0     H72856   7.982   9.849   0.278 -0.0283 -1.5640  1.4141
  528MOL0     H72857   8.078   9.696   0.276  0.8479 -0.6246 -1.5511
  528MOL0     H72858   8.116   9.928   0.086  1.0238  0.7565  0.0911
  528MOL0     H72859   8.227   9.785   0.101  1.7896  0.8283  0.5641
  528MOL0     H72860   8.364  10.004   0.418 -1.7444 -0.2485  1.4068
  528MOL0     H72861   7.643   9.788   0.071 -1.3439  3.0989 -0.7652
  528MOL0     H72862   7.289   9.830   0.019  0.3721 -2.6413 -0.0413
  528MOL0     H72863   7.400   9.971  -0.009 -0.8478 -1.2336 -1.3399
  528MOL0     H72864   7.458   9.811  -0.044  1.9300  0.5739  0.0235
  529MOL0     O72865   2.856   2.173   8.793  0.3064  0.4163 -0.8054
  529MOL0     C72866   2.818   2.278   8.751  0.1365  0.8393  0.5875
  529MOL0     O72867   2.886   2.359   8.664  0.0119 -0.2349  0.0935
  529MOL0     C72868   3.001   2.318   8.604  0.4717  0.6799  0.8906
  529MOL0     C72869   3.122   2.287   8.665 -0.1352  0.0235 -0.1713
  529MOL0     C72870   3.226   2.247   8.587 -0.8279 -0.0436 -0.5309
  529MOL0     C72871   3.218   2.245   8.445 -0.5187  0.7129 -0.3030
  529MOL0     O72872   3.320   2.205   8.366  0.2488 -0.2762 -0.2096
  529MOL0     C72873   3.456   2.226   8.424  0.8038  0.1057 -0.1776
  529MOL0     C72874   3.555   2.219   8.306 -0.0694  0.5194  0.0270
  529MOL0     C72875   3.696   2.198   8.351  0.8922 -0.7830  0.3736
  529MOL0     C72876   3.783   2.182   8.234  0.1319  0.2624  0.2692
  529MOL0     C72877   3.934   2.211   8.271 -0.5941  0.4539  0.1736
  529MOL0     C72878   4.030   2.160   8.161 -0.1919  0.6945  0.0801
  529MOL0     C72879   4.016   2.236   8.028  0.7533  0.0011 -0.2880
  529MOL0     C72880   4.128   2.231   7.928 -0.4404  0.0404  0.7985
  529MOL0     N72881   4.249   2.308   7.961  0.8233  0.1077 -0.3126
  529MOL0     C72882   4.254   2.439   7.946  0.3384 -0.3072  0.0498
  529MOL0     C72883   4.371   2.470   7.998 -0.4236 -0.7943 -0.5192
  529MOL0     C72884   4.438   2.608   7.993 -0.3203 -0.1519  0.1538
  529MOL0     C72885   4.533   2.621   7.872 -0.1866  0.5837  0.4695
  529MOL0     C72886   4.627   2.741   7.888  0.1440 -0.1437  0.3687
  529MOL0     C72887   4.736   2.762   7.790 -0.1393  0.2200  0.0713
  529MOL0     O72888   4.780   2.898   7.786  0.5559  0.3995 -0.0420
  529MOL0     C72889   4.891   2.933   7.709 -0.4353 -1.5287 -0.4594
  529MOL0     C72890   4.921   3.074   7.706  0.2684  0.4715 -0.4612
  529MOL0     C72891   5.029   3.126   7.636 -0.5166 -0.3979 -0.5006
  529MOL0     C72892   5.053   3.281   7.649 -0.0924 -0.1372 -0.2066
  529MOL0     C72893   5.111   3.043   7.564 -0.5741 -0.8630  0.7373
  529MOL0     C72894   5.231   3.089   7.484  0.9181 -0.4760  0.1861
  529MOL0     O72895   5.315   2.994   7.430  0.1030  0.2699 -0.5322
  529MOL0     C72896   5.433   3.049   7.388  0.4515 -0.3337  0.1031
  529MOL0     C72897   5.532   3.075   7.473  0.3860  0.8670 -0.6732
  529MOL0     C72898   5.656   3.112   7.424  0.2714  0.0185 -0.1864
  529MOL0     C72899   5.683   3.138   7.291  0.1537  0.0129 -0.5369
  529MOL0     O72900   5.802   3.184   7.253 -0.7096 -0.6094  0.1312
  529MOL0     C72901   5.855   3.152   7.119 -0.4277 -0.9227 -0.0631
  529MOL0     C72902   6.004   3.145   7.138 -0.2535  0.7963 -0.0890
  529MOL0     C72903   6.063   3.158   7.003  1.1641 -0.1249 -0.6294
  529MOL0     C72904   6.216   3.146   6.998  0.5160  0.7890 -0.3898
  529MOL0     C72905   6.289   3.236   7.100 -0.6728 -0.1072 -0.4507
  529MOL0     C72906   6.331   3.146   7.225  0.5469 -0.0219 -0.0467
  529MOL0     C72907   6.420   3.230   7.307  0.0069 -1.0275 -0.4645
  529MOL0     C72908   6.484   3.153   7.426 -0.4185 -0.0358  0.5324
  529MOL0    Cl72909   6.603   3.255   7.498  0.0829 -0.4707 -0.5804
  529MOL0     C72910   5.582   3.107   7.208 -0.4444  0.7017 -0.1302
  529MOL0     C72911   5.461   3.057   7.251 -0.3351  0.1964  0.8752
  529MOL0     O72912   5.237   3.209   7.453 -0.7974 -0.1927 -0.0807
  529MOL0     C72913   5.086   2.911   7.551  0.6100 -0.5145 -0.6851
  529MOL0     C72914   4.976   2.861   7.627  0.1387  0.0234 -0.2871
  529MOL0     N72915   4.431   2.359   8.051 -0.2158 -0.3256  1.0834
  529MOL0     N72916   4.357   2.257   8.020 -0.0292 -0.1554 -0.2670
  529MOL0     C72917   3.092   2.275   8.389  0.7003 -0.1922  0.7673
  529MOL0     C72918   2.984   2.319   8.467  0.0081 -0.0298 -0.5672
  529MOL0     C72919   2.691   2.333   8.802 -0.1562  0.8166  0.3497
  529MOL0     C72920   2.694   2.432   8.901 -0.2751 -0.0671 -0.3827
  529MOL0     C72921   2.573   2.479   8.963 -0.1497  0.0614  0.0997
  529MOL0     C72922   2.451   2.410   8.934 -0.3198 -0.1172  0.3773
  529MOL0     O72923   2.329   2.460   8.975 -0.3951  1.0058  0.5116
  529MOL0     C72924   2.317   2.586   9.046 -0.4034 -0.1667  0.0783
  529MOL0     C72925   2.164   2.616   9.050  0.8305 -0.3385  0.1339
  529MOL0     C72926   2.111   2.644   8.907  1.0209  0.2962  0.3097
  529MOL0     C72927   1.962   2.682   8.913  0.2451 -0.1554  1.0219
  529MOL0     C72928   1.918   2.727   8.773  0.3842  0.8775 -0.7450
  529MOL0     C72929   1.896   2.758   8.664  0.2065 -0.3869 -0.0080
  529MOL0     C72930   2.455   2.298   8.855  0.3484  0.3366 -0.6520
  529MOL0     C72931   2.570   2.264   8.783  0.4841 -0.2740  0.5358
  529MOL0     C72932   2.559   2.150   8.686  0.0145 -1.1747 -0.2883
  529MOL0     H72933   3.144   2.292   8.771  0.3986 -0.3068 -0.2637
  529MOL0     H72934   3.310   2.205   8.641  0.8871  1.0234 -2.2390
  529MOL0     H72935   3.470   2.139   8.489 -1.0349 -0.3914 -0.3778
  529MOL0     H72936   3.461   2.321   8.478  0.3165  0.0228  0.0223
  529MOL0     H72937   3.511   2.144   8.240 -0.4856  0.7816  0.0044
  529MOL0     H72938   3.562   2.309   8.244 -3.2693  1.2044  0.5189
  529MOL0     H72939   3.714   2.289   8.408 -5.0198  1.1929 -0.2616
  529MOL0     H72940   3.713   2.111   8.415 -2.8043 -1.5991  0.4767
  529MOL0     H72941   3.774   2.076   8.209  0.2085  1.0268 -3.6190
  529MOL0     H72942   3.742   2.239   8.150 -1.2718  1.3003  1.6048
  529MOL0     H72943   3.963   2.176   8.370  1.5448 -1.4506 -1.0190
  529MOL0     H72944   3.938   2.320   8.268  0.8007  0.5114  2.4276
  529MOL0     H72945   4.128   2.188   8.201  1.1529 -1.2462 -1.6639
  529MOL0     H72946   4.024   2.051   8.152 -2.0901  0.6683  1.1793
  529MOL0     H72947   3.995   2.342   8.042  0.5088 -0.1372  0.4451
  529MOL0     H72948   3.931   2.179   7.988  0.7300  0.4160 -0.8431
  529MOL0     H72949   4.153   2.125   7.912 -0.6448  0.2268 -1.0306
  529MOL0     H72950   4.095   2.271   7.832  1.3884  1.0256  0.5235
  529MOL0     H72951   4.187   2.492   7.881 -0.2096 -0.6682  0.3152
  529MOL0     H72952   4.497   2.620   8.084  0.4079  1.6839 -0.5215
  529MOL0     H72953   4.359   2.683   8.001 -1.4277 -1.2309 -0.2663
  529MOL0     H72954   4.588   2.527   7.863  3.3851  2.2949  2.1545
  529MOL0     H72955   4.469   2.629   7.784 -1.1917 -2.7161  0.7370
  529MOL0     H72956   4.565   2.831   7.882 -0.3552 -0.5744 -1.2720
  529MOL0     H72957   4.677   2.754   7.985  0.9710 -1.8443  0.1916
  529MOL0     H72958   4.825   2.707   7.823  1.9873  4.0369  1.2855
  529MOL0     H72959   4.700   2.737   7.690  0.4568 -1.8248  0.3069
  529MOL0     H72960   4.849   3.138   7.755  0.2752  0.6406 -0.6711
  529MOL0     H72961   4.981   3.328   7.716 -0.3207  0.4895 -0.8763
  529MOL0     H72962   5.043   3.320   7.547 -2.1774 -0.2847 -0.1080
  529MOL0     H72963   5.156   3.292   7.685 -0.5492 -0.3359  1.2003
  529MOL0     H72964   5.518   3.056   7.579  0.4001  3.0732 -0.2172
  529MOL0     H72965   5.739   3.121   7.494 -0.3088  0.3991  0.4706
  529MOL0     H72966   5.813   3.058   7.082 -0.3604 -0.2753 -1.8388
  529MOL0     H72967   5.834   3.234   7.051 -1.1961  2.4038  3.7921
  529MOL0     H72968   6.038   3.224   7.206  0.3113  0.5112 -0.0320
  529MOL0     H72969   6.031   3.049   7.183  1.0093  1.4355  0.5532
  529MOL0     H72970   6.037   3.258   6.965  4.7867  1.4420  0.6119
  529MOL0     H72971   6.017   3.080   6.942 -0.9595  0.0930  0.5779
  529MOL0     H72972   6.248   3.164   6.894  1.3239 -2.0339 -0.7154
  529MOL0     H72973   6.237   3.040   7.015  2.1465  0.4312 -3.7361
  529MOL0     H72974   6.380   3.275   7.053  0.1811 -1.0274  0.3766
  529MOL0     H72975   6.245   3.332   7.129  1.8590  1.7662 -2.3118
  529MOL0     H72976   6.384   3.059   7.185 -2.6890 -1.2388 -2.1556
  529MOL0     H72977   6.253   3.117   7.296  0.6458 -2.0089 -0.6995
  529MOL0     H72978   6.378   3.327   7.335 -0.7665 -1.7035  0.8146
  529MOL0     H72979   6.507   3.245   7.242  1.2481 -0.0406  1.3485
  529MOL0     H72980   6.525   3.061   7.384 -0.6305 -1.1519  2.6304
  529MOL0     H72981   6.413   3.119   7.502  1.6571 -1.2070  2.0610
  529MOL0     H72982   5.590   3.117   7.100 -1.0297  1.4688 -0.1091
  529MOL0     H72983   5.379   3.036   7.183  0.7788 -2.2070  0.1681
  529MOL0     H72984   5.147   2.836   7.501  1.7685 -0.0828  0.0421
  529MOL0     H72985   4.973   2.752   7.627  2.0406 -0.0801  1.1249
  529MOL0     H72986   3.075   2.270   8.282 -1.6490  1.9057  0.9554
  529MOL0     H72987   2.886   2.343   8.428 -0.4430 -0.0092  0.5226
  529MOL0     H72988   2.786   2.473   8.943 -1.5304 -1.0052  3.6598
  529MOL0     H72989   2.585   2.565   9.028 -1.8503  1.9218 -1.8946
  529MOL0     H72990   2.350   2.568   9.149  3.2710 -2.7403 -1.3422
  529MOL0     H72991   2.371   2.668   8.997  1.1267 -1.6078 -0.7530
  529MOL0     H72992   2.139   2.695   9.122 -0.1762 -0.1049 -0.4567
  529MOL0     H72993   2.119   2.529   9.098 -0.7809  0.9518  1.0610
  529MOL0     H72994   2.170   2.722   8.857 -1.4813  4.1225  2.7916
  529MOL0     H72995   2.113   2.550   8.851 -2.5123 -0.0121  0.4812
  529MOL0     H72996   1.942   2.764   8.983 -3.6278  2.2327 -2.4154
  529MOL0     H72997   1.903   2.595   8.946 -1.1519  0.8333  1.2199
  529MOL0     H72998   1.876   2.789   8.564  0.0091  0.0867  0.1752
  529MOL0     H72999   2.376   2.223   8.858 -0.1932  0.8475 -1.6150
  529MOL0     H73000   2.460   2.104   8.677 -0.1547 -0.8787 -0.0085
  529MOL0     H73001   2.591   2.191   8.590 -1.3978  1.4361  0.2610
  529MOL0     H73002   2.629   2.074   8.720 -0.6246 -2.6090 -2.0698
  530MOL0     O73003   3.925   9.672   3.877  0.7301 -0.0593 -0.1429
  530MOL0     C73004   4.003   9.601   3.937 -0.5897  0.1750  0.2006
  530MOL0     O73005   4.139   9.585   3.901 -0.1304 -0.2585  0.2358
  530MOL0     C73006   4.189   9.644   3.789 -0.3291  0.0100 -0.3051
  530MOL0     C73007   4.311   9.716   3.811 -0.5856 -0.2192 -0.0713
  530MOL0     C73008   4.370   9.784   3.702 -0.3091 -0.1552 -0.8511
  530MOL0     C73009   4.319   9.777   3.574  0.1707 -0.4918  0.3276
  530MOL0     O73010   4.390   9.826   3.470 -0.6176  0.1019 -0.4340
  530MOL0     C73011   4.315   9.864   3.350 -0.0302  0.1544 -0.1012
  530MOL0     C73012   4.395   9.977   3.288  0.8906  0.8674 -0.2088
  530MOL0     C73013   4.313  10.046   3.175  0.5191  0.1023  0.1805
  530MOL0     C73014   4.259   9.946   3.075 -0.1379 -0.7288  0.5852
  530MOL0     C73015   4.198  10.013   2.952  0.4191 -0.1198  0.3045
  530MOL0     C73016   4.310  10.030   2.841 -0.0535  0.6473 -0.8375
  530MOL0     C73017   4.280  10.139   2.739  0.6548 -0.1849 -0.1088
  530MOL0     C73018   4.155  10.130   2.647  0.5125 -0.3671  0.3631
  530MOL0     N73019   4.139  10.252   2.564  0.1973  0.0371  0.2323
  530MOL0     C73020   4.179  10.246   2.432 -0.3900 -0.8565 -1.9184
  530MOL0     C73021   4.097  10.329   2.369  0.0023  0.3687  0.0385
  530MOL0     C73022   4.114  10.362   2.220  0.2503 -0.4027 -0.0567
  530MOL0     C73023   4.036  10.478   2.174 -0.1484  0.5085  0.6419
  530MOL0     C73024   4.092  10.614   2.214 -0.2921  0.2028  0.3640
  530MOL0     C73025   4.057  10.735   2.124 -0.4390  0.1375  0.7107
  530MOL0     O73026   4.110  10.707   1.995 -0.1060  0.0082 -0.2146
  530MOL0     C73027   4.051  10.765   1.881 -0.2026  0.3988  0.0917
  530MOL0     C73028   4.038  10.905   1.869  0.2843  0.4998  1.2045
  530MOL0     C73029   3.970  10.968   1.762  0.0573  0.5901  0.3023
  530MOL0     C73030   3.974  11.113   1.749  1.1363  0.0381 -0.0192
  530MOL0     C73031   3.907  10.881   1.665 -0.1693  0.1156  1.9186
  530MOL0     C73032   3.829  10.931   1.541  0.5132  0.4978  0.5363
  530MOL0     O73033   3.806  10.832   1.450  0.3580 -0.0635  0.4281
  530MOL0     C73034   3.692  10.854   1.367 -1.0936 -1.6895 -0.8393
  530MOL0     C73035   3.573  10.784   1.395  0.7124 -0.1071 -0.1302
  530MOL0     C73036   3.475  10.804   1.302 -0.0939  1.3422 -0.3768
  530MOL0     C73037   3.482  10.884   1.189  0.0402 -0.2743 -0.1005
  530MOL0     O73038   3.373  10.891   1.110  0.3818  0.8568 -0.4012
  530MOL0     C73039   3.388  10.949   0.974 -0.1138 -0.2783 -0.3795
  530MOL0     C73040   3.254  10.953   0.900 -0.0470  0.0000  0.1996
  530MOL0     C73041   3.211  10.807   0.860  0.1667  0.2437  0.0403
  530MOL0     C73042   3.055  10.806   0.825  0.3124 -0.5295 -0.1769
  530MOL0     C73043   3.018  10.667   0.786 -0.0559  0.4839 -0.2943
  530MOL0     C73044   2.868  10.642   0.762  0.0961 -1.0216 -0.2447
  530MOL0     C73045   2.844  10.497   0.738  1.0728  0.2091  0.4382
  530MOL0     C73046   2.707  10.471   0.674 -1.1681  0.1395 -1.1118
  530MOL0    Cl73047   2.665  10.290   0.673 -0.1888  0.4127 -0.1613
  530MOL0     C73048   3.596  10.961   1.170 -1.2910 -0.2388  0.3688
  530MOL0     C73049   3.708  10.941   1.251  0.2511 -0.3784  0.3393
  530MOL0     O73050   3.797  11.052   1.526  0.6887  0.4461  1.1576
  530MOL0     C73051   3.921  10.737   1.678 -0.4370 -0.5056 -0.1320
  530MOL0     C73052   3.990  10.685   1.786  0.3874 -0.4920 -1.0249
  530MOL0     N73053   4.004  10.389   2.463  0.3954  0.0048  0.2328
  530MOL0     N73054   4.049  10.355   2.579 -0.1631  0.5936  0.7777
  530MOL0     C73055   4.194   9.710   3.559 -0.5965  1.1199  1.2815
  530MOL0     C73056   4.131   9.640   3.662 -0.5009  0.2018 -0.1016
  530MOL0     C73057   3.965   9.528   4.052 -0.8504  0.8484  0.3522
  530MOL0     C73058   4.053   9.525   4.159 -0.3303  0.4978 -0.2936
  530MOL0     C73059   4.000   9.486   4.280 -0.1900 -0.2055 -0.5673
  530MOL0     C73060   3.878   9.422   4.290  0.8863  0.2953  0.5961
  530MOL0     O73061   3.822   9.383   4.401 -0.2485  0.2702 -0.0594
  530MOL0     C73062   3.752   9.477   4.479  0.3598  0.2931 -1.0143
  530MOL0     C73063   3.623   9.532   4.411 -0.6711  0.2023 -0.2515
  530MOL0     C73064   3.521   9.432   4.360  0.0582 -0.1080 -0.4715
  530MOL0     C73065   3.415   9.411   4.470 -0.8453 -0.9281  0.1570
  530MOL0     C73066   3.342   9.280   4.457 -0.0015  0.0137 -0.1330
  530MOL0     C73067   3.306   9.163   4.478 -0.5307 -0.1779 -0.9008
  530MOL0     C73068   3.800   9.395   4.174  0.5818 -0.3556  0.0759
  530MOL0     C73069   3.838   9.460   4.059 -1.1426  0.1706  0.1262
  530MOL0     C73070   3.737   9.465   3.946  0.0326  0.8384  0.1321
  530MOL0     H73071   4.357   9.701   3.908  1.6778 -0.2560 -1.0919
  530MOL0     H73072   4.466   9.830   3.724 -0.2674 -1.5549  2.5043
  530MOL0     H73073   4.215   9.894   3.383 -0.0555 -0.6137  0.5627
  530MOL0     H73074   4.300   9.788   3.272 -2.5989  0.0708  0.3831
  530MOL0     H73075   4.423  10.051   3.364 -1.9180 -1.4264  3.3719
  530MOL0     H73076   4.490   9.943   3.247 -0.4593 -2.3230 -0.9584
  530MOL0     H73077   4.229  10.103   3.216 -1.7097  0.1241 -3.8747
  530MOL0     H73078   4.363  10.130   3.124 -3.6911  2.9565  0.2414
  530MOL0     H73079   4.337   9.876   3.044  0.9688  0.8715 -0.4286
  530MOL0     H73080   4.180   9.886   3.120 -0.4933 -0.1681  0.7220
  530MOL0     H73081   4.152  10.106   2.985  2.1769  0.6686  0.6247
  530MOL0     H73082   4.117   9.945   2.922 -1.7372  1.6912  1.7598
  530MOL0     H73083   4.408  10.047   2.885  0.1733 -1.9111 -0.1891
  530MOL0     H73084   4.318   9.935   2.789 -0.4019 -1.0776  2.0357
  530MOL0     H73085   4.360  10.140   2.665 -0.1761 -1.6405 -1.0880
  530MOL0     H73086   4.288  10.228   2.802  1.8931 -1.8451  2.2478
  530MOL0     H73087   4.161  10.044   2.580 -1.7168 -0.3027 -0.0135
  530MOL0     H73088   4.066  10.114   2.710  0.0356 -0.3816 -0.3035
  530MOL0     H73089   4.261  10.188   2.392 -0.3779 -1.5511 -0.9421
  530MOL0     H73090   4.074  10.278   2.163 -2.6345  1.1960 -0.6069
  530MOL0     H73091   4.219  10.385   2.198  0.0639 -0.9273 -1.5943
  530MOL0     H73092   4.021  10.471   2.066  2.9898  2.4311 -0.0641
  530MOL0     H73093   3.939  10.477   2.224  0.2345  0.1114  1.4108
  530MOL0     H73094   4.074  10.632   2.321  2.1412 -0.5664  0.9714
  530MOL0     H73095   4.201  10.615   2.218 -0.3112  1.3519  0.9677
  530MOL0     H73096   3.951  10.761   2.121 -0.0870  2.0871 -3.6329
  530MOL0     H73097   4.115  10.822   2.156 -0.3602  0.9328 -1.4028
  530MOL0     H73098   4.079  10.977   1.940 -1.6431  1.1261  1.7310
  530MOL0     H73099   3.872  11.150   1.761  1.0421 -1.2039  6.3269
  530MOL0     H73100   4.028  11.163   1.668 -0.8618  4.0593  0.8833
  530MOL0     H73101   4.022  11.159   1.835  2.3225  1.5903 -1.4250
  530MOL0     H73102   3.579  10.711   1.475  0.8214 -0.4184 -0.4173
  530MOL0     H73103   3.393  10.734   1.314  0.7685  0.5550  1.3048
  530MOL0     H73104   3.424  11.052   0.987 -1.9680  0.1893  1.5641
  530MOL0     H73105   3.458  10.894   0.911  0.3353  0.0746 -0.1916
  530MOL0     H73106   3.182  11.008   0.960 -0.2088  0.8424 -0.7322
  530MOL0     H73107   3.257  11.027   0.819 -0.5480  0.4792  0.6119
  530MOL0     H73108   3.230  10.739   0.943 -1.8569 -1.8061 -1.0653
  530MOL0     H73109   3.274  10.770   0.778 -0.3942 -0.5145 -0.0631
  530MOL0     H73110   3.025  10.873   0.743  0.4359 -2.1935 -1.6363
  530MOL0     H73111   2.988  10.827   0.908  0.5731  3.0501 -0.7055
  530MOL0     H73112   3.078  10.643   0.698 -1.5588  1.5374 -1.6590
  530MOL0     H73113   3.062  10.597   0.859 -0.6337  0.5331  0.1086
  530MOL0     H73114   2.833  10.703   0.677  4.0791  2.7176  0.4409
  530MOL0     H73115   2.815  10.674   0.852  0.8109 -0.5390  0.0121
  530MOL0     H73116   2.855  10.446   0.834  2.4449  0.6782  0.5572
  530MOL0     H73117   2.929  10.461   0.678  1.7196  1.4709  0.5626
  530MOL0     H73118   2.689  10.513   0.575  0.3564 -0.5767 -1.7288
  530MOL0     H73119   2.643  10.527   0.743  0.7110 -0.0300  0.8903
  530MOL0     H73120   3.609  11.025   1.084  3.3634 -0.8088  0.4264
  530MOL0     H73121   3.803  10.978   1.215 -1.5071  1.4014 -2.9899
  530MOL0     H73122   3.898  10.661   1.604 -4.2416  0.4696 -0.1513
  530MOL0     H73123   3.998  10.578   1.804  1.9648 -0.4807 -1.4769
  530MOL0     H73124   4.142   9.704   3.464 -2.0865 -0.3865  2.1446
  530MOL0     H73125   4.034   9.594   3.648 -0.1932 -1.4685  2.5037
  530MOL0     H73126   4.161   9.540   4.158  0.4364 -3.2972  2.2039
  530MOL0     H73127   4.065   9.497   4.366 -0.3940  0.5081 -0.5000
  530MOL0     H73128   3.742   9.432   4.578  1.2885  1.0465 -0.5636
  530MOL0     H73129   3.805   9.570   4.501 -0.1056  0.3975 -0.2626
  530MOL0     H73130   3.660   9.567   4.314 -1.0659 -2.3401 -1.3795
  530MOL0     H73131   3.574   9.607   4.474 -2.4984 -2.3564  1.6074
  530MOL0     H73132   3.479   9.464   4.264 -0.1467 -2.7519 -1.3202
  530MOL0     H73133   3.571   9.336   4.352 -0.9603 -0.7986  0.8798
  530MOL0     H73134   3.332   9.482   4.462 -0.6476 -0.7835 -0.6426
  530MOL0     H73135   3.442   9.417   4.576 -0.0262  1.5711 -0.1274
  530MOL0     H73136   3.290   9.059   4.494 -1.6885  0.3303  1.7130
  530MOL0     H73137   3.708   9.338   4.183  0.6412 -0.2520  1.5388
  530MOL0     H73138   3.789   9.441   3.853 -0.7421  1.9586 -0.6266
  530MOL0     H73139   3.657   9.397   3.977  0.9497  0.5501  2.0538
  530MOL0     H73140   3.699   9.568   3.938 -3.0013 -0.2635 -0.8773
  531MOL0     O73141   9.207   1.390   9.852 -0.7485 -0.6538 -0.1134
  531MOL0     C73142   9.177   1.416   9.731 -0.7701 -0.3840 -0.3969
  531MOL0     O73143   9.266   1.449   9.631 -0.0611 -0.1955 -0.6660
  531MOL0     C73144   9.387   1.488   9.670  0.3216 -1.6149 -0.4034
  531MOL0     C73145   9.487   1.400   9.694  0.0916 -0.8198 -0.3901
  531MOL0     C73146   9.617   1.431   9.734  0.7725 -0.2663 -0.2184
  531MOL0     C73147   9.648   1.568   9.754  0.1098  0.0912 -0.6287
  531MOL0     O73148   9.777   1.578   9.786 -0.6118 -0.1229 -0.1101
  531MOL0     C73149   9.815   1.709   9.830  0.2109  0.9429 -0.1473
  531MOL0     C73150   9.969   1.727   9.823 -1.2025 -0.6465  0.1788
  531MOL0     C73151  10.019   1.870   9.875  0.5754 -0.4431  0.4413
  531MOL0     C73152  10.165   1.886   9.832  0.0301 -0.0575 -0.5573
  531MOL0     C73153  10.240   2.005   9.893  0.0374 -0.0133 -0.1284
  531MOL0     C73154  10.231   2.010  10.046  0.7779 -0.7607 -0.5669
  531MOL0     C73155  10.348   2.080  10.129  0.2940  0.1739 -0.2315
  531MOL0     C73156  10.361   2.227  10.084 -0.0958 -1.2413  0.4174
  531MOL0     N73157  10.489   2.279  10.142  1.0543  0.9473  0.3774
  531MOL0     C73158  10.574   2.361  10.074  0.1224 -0.1655  0.1989
  531MOL0     C73159  10.664   2.393  10.169  0.0020  0.2241 -0.0241
  531MOL0     C73160  10.780   2.482  10.151  0.9956  1.3940  0.4069
  531MOL0     C73161  10.750   2.630  10.161 -0.1399 -1.0143  0.6635
  531MOL0     C73162  10.881   2.712  10.159 -0.1964  0.1765 -0.2843
  531MOL0     C73163  10.847   2.857  10.145  0.0689  0.1189  1.3297
  531MOL0     O73164  10.950   2.946  10.183 -0.4165 -0.6087 -1.1441
  531MOL0     C73165  11.071   2.954  10.109  0.1753  0.5492  0.0732
  531MOL0     C73166  11.186   3.013  10.172 -0.0098  0.4547  0.9327
  531MOL0     C73167  11.305   3.031  10.105 -0.2142  1.1618  0.5134
  531MOL0     C73168  11.422   3.072  10.198 -0.4179 -0.5532 -0.1771
  531MOL0     C73169  11.322   2.976   9.978 -0.4513 -0.5191 -0.6685
  531MOL0     C73170  11.447   2.980   9.902 -0.0401 -0.3281  0.3086
  531MOL0     O73171  11.520   3.089   9.930  0.0114  0.4794  0.2104
  531MOL0     C73172  11.610   3.133   9.844  0.0743 -0.5875 -0.2678
  531MOL0     C73173  11.743   3.118   9.871 -0.1391 -0.5904  0.1699
  531MOL0     C73174  11.827   3.185   9.782  0.0892  0.6026 -0.7613
  531MOL0     C73175  11.797   3.238   9.661 -1.1164  0.3955  0.3438
  531MOL0     O73176  11.896   3.274   9.570  0.0339 -0.6536 -0.0825
  531MOL0     C73177  12.020   3.214   9.566 -0.7196 -0.5548  0.9563
  531MOL0     C73178  12.113   3.310   9.491  0.4223 -0.2097  0.0577
  531MOL0     C73179  12.206   3.230   9.399 -0.6209  0.2506  0.7119
  531MOL0     C73180  12.252   3.313   9.281 -0.4509 -0.1880  0.7242
  531MOL0     C73181  12.364   3.229   9.216 -0.0077  0.2453 -0.2810
  531MOL0     C73182  12.433   3.308   9.111  0.1888  0.3725  0.9549
  531MOL0     C73183  12.540   3.211   9.059 -0.0324 -0.9199  0.9744
  531MOL0     C73184  12.603   3.244   8.921  0.8625 -0.1338 -0.9988
  531MOL0    Cl73185  12.703   3.390   8.919 -0.1928  0.2643 -0.0303
  531MOL0     C73186  11.663   3.242   9.636  0.2381 -0.2936 -0.3831
  531MOL0     C73187  11.569   3.193   9.724  0.2295  0.4048 -0.8889
  531MOL0     O73188  11.471   2.891   9.819 -0.2084 -0.1187 -0.1163
  531MOL0     C73189  11.215   2.917   9.914  0.0594 -0.0094  0.4212
  531MOL0     C73190  11.091   2.903   9.978 -0.5380  0.5558  0.9438
  531MOL0     N73191  10.629   2.342  10.291  0.3671  0.0101 -0.0981
  531MOL0     N73192  10.529   2.265  10.271  0.7499  0.2499  0.2791
  531MOL0     C73193   9.548   1.661   9.724  0.0476  0.0494 -0.8102
  531MOL0     C73194   9.413   1.623   9.699 -1.6695  0.3129  0.8543
  531MOL0     C73195   9.036   1.398   9.706 -0.2767  0.3828 -0.0858
  531MOL0     C73196   8.968   1.290   9.760 -0.4090 -0.5259 -0.4613
  531MOL0     C73197   8.831   1.274   9.724 -0.2247  1.2562  0.1468
  531MOL0     C73198   8.767   1.370   9.648  0.6796 -0.1773  0.2230
  531MOL0     O73199   8.638   1.334   9.620  0.2183  0.1261  0.0529
  531MOL0     C73200   8.536   1.425   9.593  0.1801 -0.5638 -0.3798
  531MOL0     C73201   8.419   1.358   9.532 -0.6079  0.8684 -0.5140
  531MOL0     C73202   8.297   1.462   9.545  0.3876 -0.3730 -0.3505
  531MOL0     C73203   8.172   1.407   9.474 -0.4709  0.4625 -0.7345
  531MOL0     C73204   8.190   1.402   9.330 -0.8604  0.5202 -0.3374
  531MOL0     C73205   8.235   1.410   9.217 -0.1597  0.0986  0.0578
  531MOL0     C73206   8.823   1.492   9.616 -0.9428  0.5884  0.3513
  531MOL0     C73207   8.958   1.503   9.632 -0.2937  0.3026 -0.4416
  531MOL0     C73208   9.011   1.630   9.581 -0.6943 -0.6585  0.0521
  531MOL0     H73209   9.458   1.297   9.678 -0.1237 -0.7288 -0.5903
  531MOL0     H73210   9.686   1.348   9.749  2.6428  1.0197 -1.2843
  531MOL0     H73211   9.774   1.730   9.930  1.2879  0.7532  0.3499
  531MOL0     H73212   9.772   1.784   9.762 -0.4363  3.0407  2.3706
  531MOL0     H73213  10.021   1.643   9.871 -1.7859 -2.3707 -2.0150
  531MOL0     H73214   9.991   1.709   9.717 -1.3599  0.5443 -0.0665
  531MOL0     H73215   9.957   1.951   9.835 -0.8245 -0.8530  1.6719
  531MOL0     H73216  10.001   1.855   9.982 -1.6739 -2.4073 -0.1169
  531MOL0     H73217  10.216   1.794   9.861  1.2680  1.1353  1.2792
  531MOL0     H73218  10.167   1.901   9.724 -2.3875 -2.1655 -0.9548
  531MOL0     H73219  10.193   2.094   9.850  1.6855  0.1182 -1.8022
  531MOL0     H73220  10.340   2.013   9.849 -0.7506 -0.6091 -2.1203
  531MOL0     H73221  10.135   2.057  10.070 -0.7153 -4.0761  0.5918
  531MOL0     H73222  10.223   1.906  10.078 -0.9908 -1.1191 -1.9845
  531MOL0     H73223  10.440   2.025  10.111 -0.5495 -1.6864  0.8841
  531MOL0     H73224  10.332   2.081  10.238  2.2828  0.8259  0.1086
  531MOL0     H73225  10.366   2.232   9.975  3.2255  0.6844  0.4986
  531MOL0     H73226  10.279   2.289  10.120 -1.2987 -1.2966 -2.0187
  531MOL0     H73227  10.569   2.401   9.973 -1.9686 -2.8457 -0.8797
  531MOL0     H73228  10.824   2.453  10.056 -0.9711  0.0869 -0.1534
  531MOL0     H73229  10.854   2.456  10.227 -0.2821 -4.7566  0.0252
  531MOL0     H73230  10.685   2.658  10.078 -0.1799  1.7344  1.5032
  531MOL0     H73231  10.697   2.638  10.257 -2.8058  2.6745 -0.8946
  531MOL0     H73232  10.941   2.701  10.250 -0.6852  2.2186  0.3492
  531MOL0     H73233  10.940   2.676  10.075 -2.3659  0.6890 -2.1455
  531MOL0     H73234  10.830   2.874  10.038  1.3985  4.3002  1.6174
  531MOL0     H73235  10.757   2.903  10.186 -1.4202 -1.0564 -0.4179
  531MOL0     H73236  11.195   3.046  10.275  4.1933  0.6512  0.6843
  531MOL0     H73237  11.516   3.023  10.173 -0.2250 -0.8338  1.0480
  531MOL0     H73238  11.400   3.039  10.299 -1.7943 -3.6505 -1.3766
  531MOL0     H73239  11.434   3.181  10.192  2.4697 -0.6850  1.4530
  531MOL0     H73240  11.775   3.067   9.962 -0.9674 -2.0998 -0.3565
  531MOL0     H73241  11.932   3.166   9.803 -0.1604  0.2388  0.1821
  531MOL0     H73242  12.061   3.193   9.665  0.2664  1.3404  0.9939
  531MOL0     H73243  12.012   3.123   9.505  1.1177 -0.6955  0.8550
  531MOL0     H73244  12.062   3.384   9.429 -2.5969  1.6235  4.2586
  531MOL0     H73245  12.184   3.361   9.557  2.0055 -2.8907  0.5635
  531MOL0     H73246  12.166   3.149   9.336  0.6908  0.8763 -1.0119
  531MOL0     H73247  12.295   3.195   9.451  0.5670  1.5662 -0.3638
  531MOL0     H73248  12.300   3.408   9.309  2.5790 -1.0048 -1.1830
  531MOL0     H73249  12.173   3.344   9.212 -0.4046  0.6223  1.0221
  531MOL0     H73250  12.436   3.206   9.295  0.9685  0.6411 -1.0282
  531MOL0     H73251  12.328   3.132   9.179  1.9417 -0.5909 -0.0865
  531MOL0     H73252  12.489   3.389   9.158  1.6526 -0.1072  0.0992
  531MOL0     H73253  12.358   3.343   9.039 -2.9910 -0.5743  3.5586
  531MOL0     H73254  12.504   3.108   9.048 -2.9180 -0.2233  2.8683
  531MOL0     H73255  12.631   3.215   9.120  0.4637 -2.0491  0.3401
  531MOL0     H73256  12.523   3.235   8.847  0.0220  3.2053 -0.6657
  531MOL0     H73257  12.669   3.162   8.890 -0.3089 -1.0980 -1.0285
  531MOL0     H73258  11.636   3.287   9.541 -0.9497  1.8653  0.8835
  531MOL0     H73259  11.463   3.198   9.701  0.1544  0.2963 -0.5745
  531MOL0     H73260  11.218   2.881   9.812  1.1473 -1.1761  0.8404
  531MOL0     H73261  11.011   2.863   9.916  0.6905  1.4024 -1.3121
  531MOL0     H73262   9.569   1.767   9.728 -3.4119  0.8597 -1.1693
  531MOL0     H73263   9.345   1.706   9.680  0.6379  1.8540 -1.3743
  531MOL0     H73264   9.024   1.223   9.824  2.0116  1.2948 -0.5446
  531MOL0     H73265   8.781   1.184   9.758  3.3669 -0.3366  1.7073
  531MOL0     H73266   8.502   1.451   9.694  0.7661 -2.5417  0.3906
  531MOL0     H73267   8.569   1.513   9.538 -1.2344  1.9708  2.4890
  531MOL0     H73268   8.399   1.272   9.597  0.5069  1.7848  1.1052
  531MOL0     H73269   8.462   1.335   9.433  2.3749  4.0125 -0.1451
  531MOL0     H73270   8.271   1.478   9.649  0.7894 -0.7681 -0.1812
  531MOL0     H73271   8.323   1.559   9.503 -1.2420  0.1748 -0.1360
  531MOL0     H73272   8.087   1.474   9.494  1.4553  3.3804 -1.6720
  531MOL0     H73273   8.162   1.306   9.514 -2.0145  0.3805 -1.2545
  531MOL0     H73274   8.262   1.447   9.120 -0.9789  0.8866  0.1236
  531MOL0     H73275   8.763   1.572   9.575 -0.1568  0.7776 -0.4701
  531MOL0     H73276   9.052   1.618   9.480  1.3674  2.4071  0.3908
  531MOL0     H73277   8.929   1.702   9.590 -1.4376 -1.6262  1.3857
  531MOL0     H73278   9.090   1.662   9.650 -1.2308  1.0255 -0.0625
  532MOL0     O73279  10.905  11.273   4.854  0.1296 -0.0135 -0.2107
  532MOL0     C73280  10.889  11.394   4.830 -0.6235 -0.7060  0.0549
  532MOL0     O73281  10.973  11.471   4.757 -0.1672  0.4548 -0.3859
  532MOL0     C73282  11.093  11.413   4.735  0.2848  0.3738  0.4037
  532MOL0     C73283  11.209  11.453   4.802  0.1386  0.4749  0.1517
  532MOL0     C73284  11.326  11.386   4.782  0.1962  0.1062  0.4798
  532MOL0     C73285  11.324  11.280   4.684  0.6216  0.6673  0.1132
  532MOL0     O73286  11.445  11.211   4.663  0.8353 -0.6188  0.8791
  532MOL0     C73287  11.503  11.236   4.534  0.3501  0.6030  0.2647
  532MOL0     C73288  11.647  11.174   4.537 -0.2675 -0.1573 -0.3353
  532MOL0     C73289  11.742  11.281   4.481 -0.3886 -0.3597  0.1082
  532MOL0     C73290  11.882  11.228   4.448  0.4390 -0.4368  0.1875
  532MOL0     C73291  11.941  11.329   4.347  0.2356 -0.8444 -0.5707
  532MOL0     C73292  12.085  11.286   4.318 -0.1962 -0.6712  0.7547
  532MOL0     C73293  12.150  11.351   4.201 -1.1552  0.2219 -0.1093
  532MOL0     C73294  12.304  11.343   4.203  0.6497  0.0890 -0.1331
  532MOL0     N73295  12.378  11.351   4.082  0.2497 -0.0299  0.1085
  532MOL0     C73296  12.490  11.420   4.073 -0.5297 -0.7489  0.5499
  532MOL0     C73297  12.524  11.398   3.942  1.5005 -0.1981  0.2635
  532MOL0     C73298  12.643  11.456   3.877 -0.2918 -0.2943 -0.0920
  532MOL0     C73299  12.725  11.345   3.806  0.2488 -0.2920  1.0108
  532MOL0     C73300  12.833  11.393   3.718 -0.0467 -0.0463  0.5230
  532MOL0     C73301  12.860  11.300   3.590 -0.0784  0.2891 -1.0394
  532MOL0     O73302  12.930  11.185   3.635  0.3742 -0.2056 -0.1623
  532MOL0     C73303  13.062  11.208   3.668 -0.6529 -0.0883  0.7177
  532MOL0     C73304  13.097  11.186   3.803  0.3530  0.9740  0.0450
  532MOL0     C73305  13.228  11.183   3.844  0.1366  0.0299  0.9284
  532MOL0     C73306  13.258  11.170   3.992  0.1870  1.0516  0.0493
  532MOL0     C73307  13.332  11.183   3.747  0.7036 -0.0503 -1.1751
  532MOL0     C73308  13.477  11.177   3.774  0.2422 -0.1189 -0.3693
  532MOL0     O73309  13.554  11.245   3.684  0.2945 -0.6923  0.3867
  532MOL0     C73310  13.691  11.234   3.700  0.0620 -0.1803 -0.0731
  532MOL0     C73311  13.756  11.109   3.678  0.9044  0.7591 -0.1901
  532MOL0     C73312  13.893  11.098   3.714 -0.4685 -0.0830 -0.1188
  532MOL0     C73313  13.975  11.209   3.740 -0.0440 -0.5429 -0.3885
  532MOL0     O73314  14.112  11.219   3.757  0.0985 -0.1573 -0.2633
  532MOL0     C73315  14.181  11.093   3.763 -0.0495 -0.7735 -0.3298
  532MOL0     C73316  14.330  11.112   3.799  0.1788 -0.6741  1.3053
  532MOL0     C73317  14.386  11.152   3.655  0.1489 -0.2698  0.2944
  532MOL0     C73318  14.537  11.168   3.657  0.4040 -0.4003 -0.1147
  532MOL0     C73319  14.587  11.154   3.515  0.3145  0.2348 -0.7602
  532MOL0     C73320  14.623  11.004   3.498  0.0113  0.2372  0.8014
  532MOL0     C73321  14.661  10.963   3.360 -0.0419  0.3038  0.6543
  532MOL0     C73322  14.807  11.013   3.330 -0.3120 -0.1259 -0.2024
  532MOL0    Cl73323  14.925  10.918   3.411  0.2702  0.3508 -0.3082
  532MOL0     C73324  13.903  11.333   3.750 -0.3084 -0.0150  0.8797
  532MOL0     C73325  13.768  11.346   3.736 -0.1023 -0.1628 -0.4782
  532MOL0     O73326  13.513  11.123   3.876  0.1489 -0.0700  0.2847
  532MOL0     C73327  13.297  11.209   3.613 -0.7992  1.0779  0.4368
  532MOL0     C73328  13.163  11.217   3.572 -0.4600  0.1083 -0.1111
  532MOL0     N73329  12.441  11.300   3.893  0.1179 -0.0749  0.4079
  532MOL0     N73330  12.345  11.276   3.970 -0.2596 -0.0645  0.4901
  532MOL0     C73331  11.206  11.237   4.608  0.2836 -0.2010 -0.1728
  532MOL0     C73332  11.092  11.315   4.633 -0.2016 -0.2865 -0.0691
  532MOL0     C73333  10.770  11.461   4.876  0.4560 -0.5456  0.8028
  532MOL0     C73334  10.653  11.386   4.867 -0.1218  0.2627 -0.2859
  532MOL0     C73335  10.534  11.431   4.926 -0.6146 -0.1928 -0.2067
  532MOL0     C73336  10.540  11.557   4.984 -0.0569  0.7014  0.5861
  532MOL0     O73337  10.424  11.612   5.026  0.6683 -0.3155  0.3618
  532MOL0     C73338  10.403  11.757   5.031 -0.4737 -0.2009 -1.0328
  532MOL0     C73339  10.283  11.775   5.125  0.2106 -0.2596  1.3286
  532MOL0     C73340  10.155  11.742   5.054 -0.0406  0.1220  0.1599
  532MOL0     C73341  10.033  11.744   5.154 -0.1438  0.4645  0.5611
  532MOL0     C73342   9.903  11.705   5.098 -0.5190 -0.3057 -1.1303
  532MOL0     C73343   9.787  11.668   5.068 -0.1007  1.0318 -0.9386
  532MOL0     C73344  10.659  11.622   4.992 -0.9661  0.1359 -0.3584
  532MOL0     C73345  10.771  11.585   4.935 -0.9116 -0.1293  0.0868
  532MOL0     C73346  10.897  11.665   4.956  0.0160 -0.3458  0.0146
  532MOL0     H73347  11.201  11.535   4.873  1.3754 -0.5655  1.5642
  532MOL0     H73348  11.422  11.394   4.832 -0.2145 -0.9111  1.4547
  532MOL0     H73349  11.506  11.344   4.514 -4.0486  0.6942 -0.8655
  532MOL0     H73350  11.452  11.190   4.450  1.9603 -2.4765  0.8271
  532MOL0     H73351  11.680  11.144   4.636  0.2696 -0.8889 -0.7260
  532MOL0     H73352  11.639  11.087   4.470  1.3424 -0.0462 -0.7097
  532MOL0     H73353  11.689  11.320   4.393 -1.7330 -3.5965 -0.6641
  532MOL0     H73354  11.738  11.365   4.551 -0.4564  0.5954 -0.9991
  532MOL0     H73355  11.942  11.231   4.539 -1.7381  0.1743  1.6821
  532MOL0     H73356  11.884  11.127   4.405 -2.3205 -0.3597 -0.2964
  532MOL0     H73357  11.947  11.430   4.389  2.8108 -1.2324  0.1706
  532MOL0     H73358  11.882  11.326   4.255  2.0565  0.2699 -1.8397
  532MOL0     H73359  12.138  11.316   4.409 -1.2606  2.4573  0.4521
  532MOL0     H73360  12.078  11.177   4.308  0.1027 -0.5563 -0.8466
  532MOL0     H73361  12.115  11.453   4.184 -1.1082 -0.0085 -1.8268
  532MOL0     H73362  12.118  11.305   4.107 -0.2058 -2.9255  0.9773
  532MOL0     H73363  12.328  11.418   4.279 -1.8221 -0.8701  1.7512
  532MOL0     H73364  12.320  11.242   4.242 -1.2353 -0.2055 -0.0352
  532MOL0     H73365  12.541  11.490   4.139 -0.9977  1.3408 -1.1883
  532MOL0     H73366  12.713  11.503   3.946  1.7940 -2.6280 -0.4836
  532MOL0     H73367  12.620  11.530   3.800  4.8197  1.1281 -0.6359
  532MOL0     H73368  12.767  11.272   3.875 -1.3966  1.4112  4.0110
  532MOL0     H73369  12.647  11.306   3.740 -0.7080  3.1833 -0.1351
  532MOL0     H73370  12.803  11.490   3.678 -2.2229 -0.2018  1.6601
  532MOL0     H73371  12.924  11.401   3.778  1.8812  0.0842 -2.1954
  532MOL0     H73372  12.763  11.266   3.553 -0.2153  1.4967 -1.8403
  532MOL0     H73373  12.916  11.354   3.513 -0.6245 -0.4289 -1.9618
  532MOL0     H73374  13.012  11.173   3.870 -0.3261 -0.5120 -1.0503
  532MOL0     H73375  13.182  11.217   4.055 -1.0821  0.8637 -1.2981
  532MOL0     H73376  13.349  11.225   4.017  1.3188 -0.7718  0.1866
  532MOL0     H73377  13.268  11.064   4.018 -1.9996  0.4993 -1.1372
  532MOL0     H73378  13.706  11.018   3.649 -0.9925  1.6170  0.2009
  532MOL0     H73379  13.949  11.006   3.701  0.1056  0.5867 -3.4686
  532MOL0     H73380  14.144  11.037   3.849  0.3902  0.4028  0.6509
  532MOL0     H73381  14.163  11.030   3.676 -1.7283 -0.2455 -0.3896
  532MOL0     H73382  14.340  11.192   3.873  4.3866 -0.2218  0.5059
  532MOL0     H73383  14.375  11.019   3.837  0.5245 -0.7189  0.7926
  532MOL0     H73384  14.344  11.248   3.624  2.3474  0.3364 -1.0129
  532MOL0     H73385  14.359  11.073   3.585  1.2722  0.2858 -0.7928
  532MOL0     H73386  14.583  11.093   3.722 -1.7777 -0.3454  1.5798
  532MOL0     H73387  14.553  11.266   3.703 -1.0406 -0.6958  1.0832
  532MOL0     H73388  14.529  11.202   3.436  0.1972 -0.0414 -0.8425
  532MOL0     H73389  14.679  11.214   3.516 -0.0777  0.8443  0.0616
  532MOL0     H73390  14.545  10.931   3.523 -0.7075 -0.7333 -3.4796
  532MOL0     H73391  14.709  10.979   3.560 -0.5454 -2.8371  0.4682
  532MOL0     H73392  14.580  10.990   3.292  0.2939 -0.3309 -0.0042
  532MOL0     H73393  14.665  10.855   3.346  3.4663  0.6496 -2.4353
  532MOL0     H73394  14.826  11.113   3.370 -1.0075  1.1060 -2.7703
  532MOL0     H73395  14.825  11.018   3.222 -1.0291  3.7408 -0.3056
  532MOL0     H73396  13.961  11.424   3.763 -1.0867  0.6276 -0.0686
  532MOL0     H73397  13.727  11.447   3.735 -0.4803 -0.1068  3.4453
  532MOL0     H73398  13.377  11.213   3.540 -0.5726  1.6184  0.7069
  532MOL0     H73399  13.152  11.222   3.465 -0.7621 -0.2033 -0.0945
  532MOL0     H73400  11.215  11.162   4.530 -0.4218 -1.0363  0.5393
  532MOL0     H73401  11.007  11.295   4.569 -0.7188 -0.6841  0.7133
  532MOL0     H73402  10.634  11.291   4.818  0.8619  0.2757 -0.7038
  532MOL0     H73403  10.445  11.369   4.927 -1.3893  0.8586 -1.4955
  532MOL0     H73404  10.480  11.806   5.092  0.0411  0.0016 -1.8333
  532MOL0     H73405  10.389  11.802   4.933 -0.1760  0.8740 -0.5991
  532MOL0     H73406  10.272  11.878   5.157  3.2421  1.0127 -1.2071
  532MOL0     H73407  10.302  11.718   5.217  1.4583  0.1357  1.3355
  532MOL0     H73408  10.144  11.817   4.975 -1.0897  0.6022  0.7402
  532MOL0     H73409  10.160  11.646   5.001 -0.1174  0.9167 -1.3610
  532MOL0     H73410  10.018  11.841   5.202  1.5212  0.9756  0.1295
  532MOL0     H73411  10.058  11.671   5.231  1.7606  2.1662  1.6667
  532MOL0     H73412   9.685  11.648   5.044 -0.3422 -0.2509  0.9133
  532MOL0     H73413  10.665  11.721   5.037  0.2597  0.4122 -1.0808
  532MOL0     H73414  10.942  11.707   4.866  0.4167 -0.6717  0.0602
  532MOL0     H73415  10.880  11.749   5.024  0.0172 -0.2334 -0.1243
  532MOL0     H73416  10.959  11.589   5.005 -0.3351 -0.5980  0.0712
  533MOL0     O73417   5.608   9.588   5.732  0.2704 -0.6459  0.1071
  533MOL0     C73418   5.651   9.693   5.683  0.0797  0.9767 -0.4590
  533MOL0     O73419   5.727   9.698   5.572 -0.0818 -0.2443 -0.2075
  533MOL0     C73420   5.804   9.592   5.544  0.1196  0.0906 -0.0437
  533MOL0     C73421   5.810   9.539   5.413 -0.0440 -0.1096 -0.2483
  533MOL0     C73422   5.901   9.433   5.381  0.5220  0.2814  0.1975
  533MOL0     C73423   5.984   9.377   5.474 -0.3234 -0.1622 -0.2172
  533MOL0     O73424   6.080   9.282   5.449 -0.2703  0.7748  0.4821
  533MOL0     C73425   6.057   9.205   5.330 -0.1487  0.4965  0.1995
  533MOL0     C73426   6.150   9.094   5.346  0.0632  0.5317  0.0615
  533MOL0     C73427   6.299   9.126   5.377 -0.6542 -0.2275  0.6050
  533MOL0     C73428   6.390   9.193   5.271  0.6135 -0.3094 -0.8083
  533MOL0     C73429   6.382   9.348   5.257  0.5828 -0.0391 -0.2392
  533MOL0     C73430   6.392   9.439   5.382  0.0373 -0.8642  0.1417
  533MOL0     C73431   6.519   9.400   5.463 -0.4255 -0.1530 -0.9072
  533MOL0     C73432   6.530   9.504   5.576  0.5481  0.5333  0.0100
  533MOL0     N73433   6.588   9.632   5.525 -0.1964  0.0740 -0.3847
  533MOL0     C73434   6.644   9.657   5.398 -0.6367  0.1062 -0.1175
  533MOL0     C73435   6.707   9.775   5.409  0.6713  0.8024  0.7052
  533MOL0     C73436   6.805   9.836   5.309  0.9158 -0.2177 -0.2338
  533MOL0     C73437   6.940   9.765   5.315  0.2545 -0.4555  0.4408
  533MOL0     C73438   7.043   9.815   5.209 -0.3620  0.1113  0.1518
  533MOL0     C73439   7.187   9.763   5.228  0.0646  0.1177 -0.4481
  533MOL0     O73440   7.276   9.818   5.134  0.9229 -0.2216 -0.3045
  533MOL0     C73441   7.412   9.802   5.144  0.3875  0.0516  0.8569
  533MOL0     C73442   7.478   9.793   5.266  0.6258  0.3586  0.2244
  533MOL0     C73443   7.612   9.773   5.275  0.9486 -0.1729  0.5453
  533MOL0     C73444   7.674   9.765   5.416  0.6260 -0.3834 -0.3005
  533MOL0     C73445   7.697   9.783   5.168  0.7887  0.4478  0.2522
  533MOL0     C73446   7.850   9.784   5.170 -0.4263 -0.3262 -0.5597
  533MOL0     O73447   7.912   9.831   5.061  0.6977  0.3495  0.5811
  533MOL0     C73448   8.048   9.843   5.041 -0.3124  0.4535 -0.1130
  533MOL0     C73449   8.093   9.838   4.903 -1.2318 -0.5781 -0.3519
  533MOL0     C73450   8.231   9.860   4.872  0.9127 -0.6617 -0.3851
  533MOL0     C73451   8.331   9.871   4.978  0.7834  0.0802 -0.3262
  533MOL0     O73452   8.466   9.880   4.955  0.2904 -0.1490 -0.2514
  533MOL0     C73453   8.516   9.842   4.820 -0.1756 -0.2869  0.9517
  533MOL0     C73454   8.666   9.862   4.805  0.4044 -0.2750 -0.0780
  533MOL0     C73455   8.748   9.746   4.873  0.8305 -0.0867  0.2765
  533MOL0     C73456   8.899   9.775   4.854 -0.4616  0.5857  0.4708
  533MOL0     C73457   8.982   9.668   4.919 -0.3390  0.7838  0.5950
  533MOL0     C73458   9.135   9.697   4.899  0.5516  0.1475 -0.6947
  533MOL0     C73459   9.173   9.811   4.998 -0.3863  0.0065  0.2358
  533MOL0     C73460   9.324   9.814   4.975  0.0863 -0.8160 -0.6731
  533MOL0    Cl73461   9.410   9.718   5.105  0.3132  0.4226  0.1452
  533MOL0     C73462   8.281   9.871   5.115  0.4279 -0.2086 -0.5378
  533MOL0     C73463   8.142   9.860   5.144 -0.1390 -0.1145  0.8503
  533MOL0     O73464   7.905   9.721   5.265 -0.0776  0.4692  0.0775
  533MOL0     C73465   7.630   9.803   5.042 -0.1686  0.3952 -0.5808
  533MOL0     C73466   7.493   9.808   5.025  0.2249 -0.0235 -0.5982
  533MOL0     N73467   6.676   9.830   5.532 -0.8649 -0.6827 -0.0220
  533MOL0     N73468   6.606   9.745   5.600 -0.3579  0.1675 -0.0791
  533MOL0     C73469   5.980   9.431   5.608  0.2054 -0.0278  0.3170
  533MOL0     C73470   5.888   9.527   5.640 -0.3180 -0.3877  0.7714
  533MOL0     C73471   5.595   9.821   5.731  0.3858 -0.3274 -0.2615
  533MOL0     C73472   5.455   9.847   5.750 -0.2005  0.3815  0.0317
  533MOL0     C73473   5.400   9.967   5.784  1.4978  0.0281  0.6436
  533MOL0     C73474   5.488  10.072   5.813  0.2983 -0.3845  0.1445
  533MOL0     O73475   5.442  10.181   5.870  0.3988 -0.2990 -0.2170
  533MOL0     C73476   5.308  10.236   5.842  0.1262  0.5379  0.3401
  533MOL0     C73477   5.227  10.192   5.973 -0.3038  0.1826  0.6194
  533MOL0     C73478   5.094  10.270   5.998  0.2622 -0.3871 -0.7460
  533MOL0     C73479   5.024  10.212   6.126 -0.1676  0.5468 -0.1814
  533MOL0     C73480   4.883  10.250   6.116  0.4810  0.0659 -0.7577
  533MOL0     C73481   4.768  10.280   6.090 -0.3369 -0.2342 -0.2082
  533MOL0     C73482   5.624  10.051   5.799  1.6885  0.2739  1.0084
  533MOL0     C73483   5.682   9.926   5.766  0.1175  0.5261 -0.0269
  533MOL0     C73484   5.832   9.920   5.749  0.0390 -0.2907 -0.5683
  533MOL0     H73485   5.745   9.578   5.336  0.3242  1.1027  0.0269
  533MOL0     H73486   5.890   9.390   5.282 -1.3510  0.9823  0.0500
  533MOL0     H73487   6.077   9.258   5.237 -0.7723  1.1234  0.4105
  533MOL0     H73488   5.954   9.169   5.325 -0.4235  1.4423 -2.6784
  533MOL0     H73489   6.123   9.036   5.434 -0.8720  1.0900  0.1610
  533MOL0     H73490   6.144   9.034   5.254  0.3485 -0.0142  0.3946
  533MOL0     H73491   6.315   9.195   5.460  2.5792 -0.5943  0.3983
  533MOL0     H73492   6.344   9.036   5.419 -1.5699 -1.2823 -0.5770
  533MOL0     H73493   6.496   9.168   5.277  0.3764 -1.1919 -0.2594
  533MOL0     H73494   6.357   9.149   5.176 -1.1591  0.6547 -0.6800
  533MOL0     H73495   6.285   9.360   5.208  0.8478  2.5458 -0.2512
  533MOL0     H73496   6.470   9.379   5.200  0.6265  3.1354  1.3297
  533MOL0     H73497   6.393   9.542   5.345  3.1357 -0.9023 -0.0999
  533MOL0     H73498   6.309   9.436   5.453  1.4679 -0.1975  1.9019
  533MOL0     H73499   6.617   9.396   5.415  1.2442  2.0453  2.0005
  533MOL0     H73500   6.488   9.307   5.512 -2.6232  1.0340  0.1079
  533MOL0     H73501   6.440   9.520   5.636 -0.9416 -2.5907 -1.1517
  533MOL0     H73502   6.590   9.471   5.661 -0.1057  0.7481  0.5623
  533MOL0     H73503   6.650   9.586   5.316 -3.2280  2.2256 -2.2989
  533MOL0     H73504   6.815   9.937   5.349  0.9782 -0.5098  0.5223
  533MOL0     H73505   6.772   9.835   5.205  0.9001  0.9831 -0.2509
  533MOL0     H73506   6.988   9.792   5.410 -0.2639  5.0817 -0.4967
  533MOL0     H73507   6.921   9.658   5.303 -0.3976 -0.5032  1.6543
  533MOL0     H73508   7.005   9.812   5.106  0.3151  0.6690 -0.1311
  533MOL0     H73509   7.056   9.920   5.237  0.5060 -0.3337  1.5389
  533MOL0     H73510   7.215   9.802   5.327 -1.1048  0.1892 -0.1360
  533MOL0     H73511   7.202   9.656   5.245  0.5019  0.4089  1.2294
  533MOL0     H73512   7.423   9.811   5.358 -0.4842 -0.6045 -0.2283
  533MOL0     H73513   7.596   9.772   5.492  0.1615 -0.9852 -0.7121
  533MOL0     H73514   7.753   9.838   5.436 -1.1828  1.0842  2.0667
  533MOL0     H73515   7.725   9.669   5.422  0.3257 -0.7818 -2.9614
  533MOL0     H73516   8.017   9.822   4.828  0.1228 -2.6024 -1.3997
  533MOL0     H73517   8.259   9.859   4.767  1.9795 -1.2992 -0.1096
  533MOL0     H73518   8.484   9.743   4.787 -2.2038  0.8506 -0.7348
  533MOL0     H73519   8.470   9.909   4.747 -0.3915 -1.0040  0.4184
  533MOL0     H73520   8.688   9.862   4.698  1.8875 -1.4774  0.1978
  533MOL0     H73521   8.690   9.957   4.855 -1.3935  0.1484  0.0580
  533MOL0     H73522   8.717   9.653   4.825 -0.1850  0.5976 -0.4288
  533MOL0     H73523   8.725   9.747   4.980 -1.4915 -0.1267 -0.1887
  533MOL0     H73524   8.928   9.873   4.893 -1.3730  1.2118 -0.3782
  533MOL0     H73525   8.922   9.773   4.747 -2.6267  1.3811 -0.0605
  533MOL0     H73526   8.956   9.657   5.025  1.8542  0.9957  1.2016
  533MOL0     H73527   8.962   9.575   4.864 -1.1626  1.8946 -1.0551
  533MOL0     H73528   9.153   9.722   4.795 -1.2375 -0.2033 -1.1298
  533MOL0     H73529   9.195   9.610   4.929  1.5065  1.5815  1.8163
  533MOL0     H73530   9.154   9.774   5.099  0.0945 -1.7753 -0.3076
  533MOL0     H73531   9.120   9.907   4.988 -2.4517 -0.9984  0.9305
  533MOL0     H73532   9.370   9.912   4.995  0.5462 -1.7713  4.1562
  533MOL0     H73533   9.350   9.777   4.875 -0.6195 -0.2929 -1.0674
  533MOL0     H73534   8.353   9.881   5.197  0.3788 -0.7753 -0.4282
  533MOL0     H73535   8.116   9.855   5.249 -0.6131  0.5918  0.7722
  533MOL0     H73536   7.685   9.816   4.949 -1.9374  2.5574 -1.4411
  533MOL0     H73537   7.446   9.818   4.928 -0.5976 -2.6786 -0.5293
  533MOL0     H73538   6.045   9.385   5.681  1.3573 -0.3506 -0.8840
  533MOL0     H73539   5.898   9.562   5.743  1.0331 -0.1727  0.5770
  533MOL0     H73540   5.388   9.762   5.753  0.6922 -0.2961  1.6530
  533MOL0     H73541   5.296   9.966   5.813  0.7941 -0.7961 -1.7205
  533MOL0     H73542   5.327  10.343   5.834 -0.2949  0.6156  0.3673
  533MOL0     H73543   5.253  10.198   5.756 -1.3615  0.9418  1.0843
  533MOL0     H73544   5.297  10.195   6.057  1.7185 -2.5507 -0.8401
  533MOL0     H73545   5.193  10.089   5.963  1.8974 -0.3496 -2.6129
  533MOL0     H73546   5.121  10.374   6.017 -0.2362 -0.1466 -1.3259
  533MOL0     H73547   5.039  10.273   5.903  1.4506 -0.9120 -1.4801
  533MOL0     H73548   5.071  10.255   6.215  1.0868 -1.3388  0.1326
  533MOL0     H73549   5.027  10.103   6.130 -3.2359  0.3786 -0.2131
  533MOL0     H73550   4.664  10.293   6.070 -0.5951 -2.6760 -0.7273
  533MOL0     H73551   5.691  10.130   5.832  2.6858  0.7248 -1.7670
  533MOL0     H73552   5.880   9.988   5.819 -0.1844 -0.6137 -0.0996
  533MOL0     H73553   5.859   9.817   5.778 -2.5111 -0.6696  0.7050
  533MOL0     H73554   5.863   9.939   5.646 -0.4038 -1.8552 -1.0287
  534MOL0     O73555   0.087   2.967   9.046  0.2598  0.0480 -0.1754
  534MOL0     C73556   0.112   2.988   9.166  1.1179  0.6795 -0.5750
  534MOL0     O73557   0.226   3.029   9.221 -0.1819  0.1857  0.5249
  534MOL0     C73558   0.324   3.082   9.142  0.6768 -0.5975  0.2430
  534MOL0     C73559   0.397   3.010   9.050 -0.7464 -0.7233 -1.0303
  534MOL0     C73560   0.497   3.079   8.987  0.4983  0.5153 -1.1518
  534MOL0     C73561   0.536   3.210   9.016  1.3618 -0.0308  0.4455
  534MOL0     O73562   0.641   3.283   8.968 -0.7917  0.3793  0.5437
  534MOL0     C73563   0.730   3.214   8.880  0.0929 -0.0507  0.0633
  534MOL0     C73564   0.669   3.218   8.744 -0.1389  0.5172  0.6719
  534MOL0     C73565   0.743   3.115   8.659  0.1073 -0.4265  0.0354
  534MOL0     C73566   0.662   3.102   8.529  0.0058  0.5018  0.4494
  534MOL0     C73567   0.767   3.100   8.414 -0.6991 -0.0476  0.5258
  534MOL0     C73568   0.680   3.075   8.287  0.0926  0.5763  0.0724
  534MOL0     C73569   0.768   3.083   8.162 -0.0028 -0.0517  0.1267
  534MOL0     C73570   0.703   3.093   8.034  0.2024 -0.0709  0.0884
  534MOL0     N73571   0.796   3.153   7.943 -0.0306 -0.5602 -0.6426
  534MOL0     C73572   0.775   3.263   7.861 -0.4213 -0.7048 -0.5388
  534MOL0     C73573   0.886   3.279   7.789 -0.2429 -0.4417 -0.2253
  534MOL0     C73574   0.924   3.393   7.698  0.5032  0.0890 -0.1176
  534MOL0     C73575   0.902   3.360   7.548  0.3074 -0.4121 -1.0724
  534MOL0     C73576   0.754   3.379   7.505  0.7546  0.0767 -0.3949
  534MOL0     C73577   0.707   3.315   7.374  0.6611  1.1548  0.7403
  534MOL0     O73578   0.792   3.355   7.267 -0.1546  0.0774  0.0337
  534MOL0     C73579   0.879   3.264   7.213  0.4266  0.0774 -0.5295
  534MOL0     C73580   0.843   3.133   7.193 -0.1054 -0.1844  0.3398
  534MOL0     C73581   0.936   3.035   7.160 -0.8780 -0.2097  0.3853
  534MOL0     C73582   0.889   2.890   7.155 -0.1272 -0.5259  0.2579
  534MOL0     C73583   1.069   3.074   7.124  0.1166  0.4776  0.6601
  534MOL0     C73584   1.176   2.987   7.062  0.0792 -0.2279  0.8138
  534MOL0     O73585   1.273   3.049   6.991  0.3387 -0.6285 -0.6212
  534MOL0     C73586   1.322   2.960   6.892  0.5785 -0.1597 -1.0403
  534MOL0     C73587   1.455   2.918   6.886  0.3327  0.5529  0.3599
  534MOL0     C73588   1.498   2.837   6.774  0.4486 -0.3229 -0.8068
  534MOL0     C73589   1.412   2.803   6.665 -0.3522  0.0505 -0.6390
  534MOL0     O73590   1.447   2.719   6.560  0.1413 -0.3651  0.0342
  534MOL0     C73591   1.592   2.703   6.550 -0.5047  0.0423  0.0645
  534MOL0     C73592   1.621   2.638   6.412 -0.4470 -0.4215 -0.3825
  534MOL0     C73593   1.763   2.685   6.368  1.0029 -0.0983 -0.4665
  534MOL0     C73594   1.806   2.620   6.232  0.3077 -0.7107  0.1750
  534MOL0     C73595   1.947   2.660   6.191 -0.2153 -0.5012 -0.0455
  534MOL0     C73596   1.974   2.806   6.211 -0.4319 -0.4500  0.1442
  534MOL0     C73597   2.119   2.848   6.169  0.7379  0.2830 -0.2063
  534MOL0     C73598   2.123   2.999   6.133  0.0725  0.3774 -0.5399
  534MOL0    Cl73599   2.291   3.051   6.154  0.3583  0.4260  0.1336
  534MOL0     C73600   1.282   2.854   6.671  1.1962 -0.2419  0.2042
  534MOL0     C73601   1.239   2.928   6.784  0.4320 -0.1086  0.1070
  534MOL0     O73602   1.163   2.866   7.078 -0.1962  0.0275  0.8009
  534MOL0     C73603   1.098   3.207   7.125  0.0407 -0.1653 -0.2739
  534MOL0     C73604   1.007   3.297   7.173 -0.7304  0.6630 -0.3002
  534MOL0     N73605   0.971   3.172   7.813  0.3872 -0.2729 -0.5890
  534MOL0     N73606   0.919   3.101   7.908  0.2948  0.7473 -0.1501
  534MOL0     C73607   0.437   3.290   9.076  0.0361 -0.7533 -0.3099
  534MOL0     C73608   0.345   3.221   9.150 -0.2720 -0.0105 -0.5758
  534MOL0     C73609   0.006   2.945   9.268  0.0271  0.3756  0.0483
  534MOL0     C73610   0.050   2.918   9.401 -0.7962  0.3745 -0.4791
  534MOL0     C73611  -0.043   2.870   9.494  0.6350 -0.1386 -0.7514
  534MOL0     C73612  -0.178   2.870   9.460  1.1541 -0.9521 -0.6252
  534MOL0     O73613  -0.270   2.830   9.556 -0.2600  0.1211  0.3929
  534MOL0     C73614  -0.391   2.771   9.514 -0.0579  0.5258  0.3850
  534MOL0     C73615  -0.457   2.690   9.621  0.6432 -0.3944 -0.5728
  534MOL0     C73616  -0.363   2.568   9.665 -1.0315 -0.3577  1.3525
  534MOL0     C73617  -0.426   2.494   9.775 -0.4803 -0.5095 -0.0964
  534MOL0     C73618  -0.545   2.420   9.734  0.7164  0.1366  0.8073
  534MOL0     C73619  -0.653   2.371   9.704  0.1519  0.2280  0.1581
  534MOL0     C73620  -0.220   2.892   9.332  0.7644  1.0671 -0.2274
  534MOL0     C73621  -0.132   2.929   9.237  0.1217  0.1039 -0.1316
  534MOL0     C73622  -0.184   2.932   9.097  0.1222  0.1751 -0.7381
  534MOL0     H73623   0.399   2.904   9.029  2.4570 -0.0859 -5.3934
  534MOL0     H73624   0.552   3.017   8.917  2.4212  2.9361 -1.9519
  534MOL0     H73625   0.751   3.118   8.927 -2.1770  0.7449  3.0079
  534MOL0     H73626   0.823   3.272   8.877  0.7712 -1.1258 -2.2770
  534MOL0     H73627   0.569   3.176   8.753 -0.5781  1.7437  1.8251
  534MOL0     H73628   0.663   3.318   8.699  0.5292 -0.6957 -2.3413
  534MOL0     H73629   0.844   3.149   8.636  1.1912 -2.4988  1.3615
  534MOL0     H73630   0.745   3.013   8.698  2.6475 -1.0230 -1.4239
  534MOL0     H73631   0.601   3.011   8.526 -0.8369  1.0841 -1.2369
  534MOL0     H73632   0.586   3.178   8.511 -0.8019 -0.3425  0.1855
  534MOL0     H73633   0.840   3.021   8.428 -1.9845 -1.5288 -0.6605
  534MOL0     H73634   0.814   3.197   8.392 -2.9871  1.1252  0.4604
  534MOL0     H73635   0.636   2.975   8.298  0.9394  0.1255 -0.5841
  534MOL0     H73636   0.591   3.139   8.283 -1.2450 -1.2452 -1.6525
  534MOL0     H73637   0.834   2.996   8.154  0.6714  0.4102  0.5384
  534MOL0     H73638   0.835   3.169   8.170  0.8589 -0.5920 -1.0153
  534MOL0     H73639   0.661   3.002   7.990 -1.3325  2.0840 -3.3316
  534MOL0     H73640   0.615   3.157   8.049 -0.6492  0.2122 -4.6425
  534MOL0     H73641   0.702   3.344   7.861  0.7821  0.4233 -0.0675
  534MOL0     H73642   1.026   3.430   7.713  0.5984  1.0207 -2.6466
  534MOL0     H73643   0.863   3.482   7.715  1.8863  1.1695 -0.6336
  534MOL0     H73644   0.967   3.429   7.493  1.1389 -0.2331  0.0872
  534MOL0     H73645   0.937   3.257   7.532  1.9533  0.1199 -1.0894
  534MOL0     H73646   0.682   3.343   7.579 -0.8035  0.4229 -1.6890
  534MOL0     H73647   0.735   3.486   7.494 -0.6449  0.0124  1.0326
  534MOL0     H73648   0.708   3.206   7.389  2.3868  1.3759  2.8269
  534MOL0     H73649   0.606   3.351   7.353  1.6863  3.8805  0.0473
  534MOL0     H73650   0.739   3.103   7.196 -0.0753 -0.3284 -0.0261
  534MOL0     H73651   0.880   2.845   7.055 -0.7225 -1.3747  0.6833
  534MOL0     H73652   0.788   2.888   7.196 -0.6839  1.5438 -0.8573
  534MOL0     H73653   0.941   2.823   7.223  0.2270  0.2360  0.7539
  534MOL0     H73654   1.527   2.949   6.962 -1.2129 -0.4525  2.3149
  534MOL0     H73655   1.596   2.790   6.780  1.9310  2.2686 -2.5014
  534MOL0     H73656   1.639   2.801   6.558  2.0830 -1.0983 -0.4002
  534MOL0     H73657   1.640   2.633   6.619  0.1582 -3.2149 -3.3334
  534MOL0     H73658   1.632   2.529   6.418 -2.5472 -0.8721 -2.6415
  534MOL0     H73659   1.535   2.669   6.351 -0.2886  0.0997 -0.3482
  534MOL0     H73660   1.835   2.658   6.446  3.0051  3.6655 -0.7948
  534MOL0     H73661   1.759   2.794   6.369 -2.6412 -0.0545  2.2457
  534MOL0     H73662   1.742   2.648   6.148  1.0179 -0.7834 -0.4049
  534MOL0     H73663   1.802   2.512   6.248 -2.4143 -0.6926  0.0108
  534MOL0     H73664   2.016   2.607   6.257  1.6972  1.3301 -0.4454
  534MOL0     H73665   1.971   2.630   6.088 -1.0871 -1.2712 -0.0291
  534MOL0     H73666   1.969   2.828   6.318 -0.1742 -1.2885  0.3302
  534MOL0     H73667   1.904   2.866   6.152  0.0210  0.7210  0.7505
  534MOL0     H73668   2.146   2.789   6.081 -0.3949  0.5827 -0.7742
  534MOL0     H73669   2.195   2.820   6.243 -0.2498  0.6964  0.9918
  534MOL0     H73670   2.061   3.055   6.203  0.2733 -0.5922  0.4489
  534MOL0     H73671   2.095   3.018   6.029  1.4776 -3.1620 -1.7538
  534MOL0     H73672   1.235   2.825   6.578 -1.4079  2.2521  0.5736
  534MOL0     H73673   1.133   2.952   6.789  0.7744  1.2382  1.5691
  534MOL0     H73674   1.195   3.246   7.097  1.4163  0.4601  4.4998
  534MOL0     H73675   1.032   3.403   7.170 -0.6079  0.8119  2.8111
  534MOL0     H73676   0.462   3.395   9.085 -0.5356 -0.6703  0.4739
  534MOL0     H73677   0.288   3.271   9.228  2.5975 -0.2294  1.8376
  534MOL0     H73678   0.151   2.923   9.438 -0.9669 -1.2715  0.2984
  534MOL0     H73679  -0.002   2.851   9.593  2.3510  0.0479 -1.3862
  534MOL0     H73680  -0.462   2.847   9.482  1.5032  1.2363 -1.5915
  534MOL0     H73681  -0.371   2.701   9.432  4.3284 -0.1971  1.7806
  534MOL0     H73682  -0.551   2.647   9.588  1.0597 -0.2401 -2.0102
  534MOL0     H73683  -0.468   2.765   9.700 -1.0900  0.5459 -1.6563
  534MOL0     H73684  -0.352   2.503   9.577  1.3198  3.4027 -1.4791
  534MOL0     H73685  -0.260   2.601   9.684  0.4174 -1.3861 -3.3695
  534MOL0     H73686  -0.448   2.567   9.853 -0.1868 -0.5599  0.0362
  534MOL0     H73687  -0.361   2.419   9.821  0.4028  0.2721 -0.0353
  534MOL0     H73688  -0.745   2.337   9.662 -0.8214 -1.0466  3.0785
  534MOL0     H73689  -0.327   2.885   9.312  0.8382 -0.8752 -0.1040
  534MOL0     H73690  -0.143   3.013   9.036  1.4732 -0.2959 -0.4996
  534MOL0     H73691  -0.155   2.839   9.047 -0.0235 -0.7465  0.8037
  534MOL0     H73692  -0.293   2.940   9.094  0.0546 -0.7903 -1.4324
  535MOL0     O73693   5.502   8.016   2.196 -0.4247 -0.0606 -0.2188
  535MOL0     C73694   5.571   7.976   2.106 -0.3123  0.4443  0.7552
  535MOL0     O73695   5.540   7.864   2.041 -0.5499  0.6634  0.5084
  535MOL0     C73696   5.423   7.792   2.059 -0.3926  0.2854 -0.7173
  535MOL0     C73697   5.298   7.855   2.035 -0.3882 -0.1124 -0.0024
  535MOL0     C73698   5.177   7.787   2.039 -0.2453  0.3617 -0.2554
  535MOL0     C73699   5.178   7.646   2.051 -0.2972  0.8440  0.0868
  535MOL0     O73700   5.068   7.563   2.062 -0.1270  0.0197 -0.4109
  535MOL0     C73701   4.940   7.608   2.065  0.4586 -0.9718 -0.1447
  535MOL0     C73702   4.834   7.516   2.093 -0.8907  0.0072  0.1106
  535MOL0     C73703   4.694   7.573   2.104  0.7474  0.2489  0.4211
  535MOL0     C73704   4.588   7.457   2.082 -0.4393 -0.3933  0.6127
  535MOL0     C73705   4.455   7.519   2.047 -0.1638 -0.0716  0.3282
  535MOL0     C73706   4.343   7.422   2.044  0.4135  0.8931 -0.1519
  535MOL0     C73707   4.206   7.487   2.063  0.7221  0.3097 -0.6475
  535MOL0     C73708   4.181   7.604   1.981  0.2091 -0.9342 -0.1877
  535MOL0     N73709   4.037   7.659   1.973 -0.1235  0.0900 -1.0827
  535MOL0     C73710   3.926   7.573   1.965  0.4698  0.7132  0.1064
  535MOL0     C73711   3.828   7.656   1.936 -1.0194 -0.7804  0.5982
  535MOL0     C73712   3.681   7.617   1.934 -0.2216  0.2431 -0.3690
  535MOL0     C73713   3.627   7.526   2.036  0.5086 -0.5953 -0.7887
  535MOL0     C73714   3.631   7.585   2.180 -0.0558 -0.8795 -0.1075
  535MOL0     C73715   3.571   7.495   2.280 -1.2713  0.7668 -0.5340
  535MOL0     O73716   3.651   7.371   2.287 -0.1275 -0.5952  0.6114
  535MOL0     C73717   3.768   7.379   2.355 -0.1335  0.2604 -0.1415
  535MOL0     C73718   3.768   7.378   2.492  0.0866 -1.1625 -0.3741
  535MOL0     C73719   3.877   7.353   2.569 -0.6764  0.0088 -0.3984
  535MOL0     C73720   3.848   7.328   2.715  0.9115  0.3082  0.2751
  535MOL0     C73721   4.003   7.362   2.504 -0.1752 -1.0203 -0.7992
  535MOL0     C73722   4.130   7.355   2.585  0.6574  0.1402 -0.2850
  535MOL0     O73723   4.238   7.399   2.511 -0.2677 -0.0526  0.5485
  535MOL0     C73724   4.372   7.401   2.557  0.2034 -0.3014 -0.7366
  535MOL0     C73725   4.416   7.417   2.692  0.7391  0.8357 -0.7358
  535MOL0     C73726   4.548   7.417   2.725  0.4934 -0.1777  0.3212
  535MOL0     C73727   4.640   7.405   2.623  0.0798 -0.4186  0.0153
  535MOL0     O73728   4.772   7.412   2.676  0.0706 -0.4238  0.2609
  535MOL0     C73729   4.870   7.443   2.582 -0.2421 -0.2292  0.0508
  535MOL0     C73730   5.003   7.481   2.647 -0.3812  0.1413  0.4282
  535MOL0     C73731   5.085   7.549   2.537  0.6236 -0.0699 -0.2724
  535MOL0     C73732   5.223   7.579   2.589  0.2361 -0.1721  0.3218
  535MOL0     C73733   5.308   7.636   2.477  1.3451 -0.6204  0.4734
  535MOL0     C73734   5.449   7.679   2.521  0.3983  0.6493  0.4384
  535MOL0     C73735   5.540   7.703   2.399 -0.5679  0.3236 -0.5954
  535MOL0     C73736   5.652   7.799   2.426 -0.0426 -1.0308  0.9598
  535MOL0    Cl73737   5.770   7.766   2.567 -0.5887 -0.1456  0.1516
  535MOL0     C73738   4.605   7.405   2.488  0.5038  0.4273 -0.8184
  535MOL0     C73739   4.465   7.393   2.457 -0.8207  0.0756 -0.0283
  535MOL0     O73740   4.131   7.307   2.696 -0.1918  0.7202  0.2462
  535MOL0     C73741   4.004   7.379   2.366  0.0716  0.6719 -0.1068
  535MOL0     C73742   3.891   7.379   2.295  0.1292 -0.7554  0.3554
  535MOL0     N73743   3.874   7.781   1.920 -0.2587 -0.3004 -0.1241
  535MOL0     N73744   3.998   7.788   1.950  0.1992  0.5476 -0.1050
  535MOL0     C73745   5.294   7.580   2.077 -0.7699  0.3997  0.3790
  535MOL0     C73746   5.417   7.652   2.073  0.0158  0.2693  0.8099
  535MOL0     C73747   5.677   8.063   2.038  0.9188 -0.1066 -0.1888
  535MOL0     C73748   5.684   8.065   1.891 -0.1863 -0.2844 -0.1454
  535MOL0     C73749   5.755   8.164   1.823  0.7645 -0.6302  0.0162
  535MOL0     C73750   5.819   8.261   1.893  0.0942 -0.5542 -0.5271
  535MOL0     O73751   5.882   8.364   1.819  1.0400  0.8785  0.5331
  535MOL0     C73752   5.815   8.496   1.816 -0.4522  0.6013  0.3390
  535MOL0     C73753   5.680   8.490   1.738  0.3608  0.2389  0.7284
  535MOL0     C73754   5.698   8.475   1.583 -0.6946  0.5433  0.1272
  535MOL0     C73755   5.575   8.489   1.487 -0.3753 -1.0855  0.0854
  535MOL0     C73756   5.465   8.403   1.520  0.6420 -0.1500 -0.3885
  535MOL0     C73757   5.372   8.334   1.538  0.1575  0.1208 -0.1903
  535MOL0     C73758   5.823   8.260   2.035  0.6354 -0.4262  0.1772
  535MOL0     C73759   5.749   8.160   2.111 -0.1447  0.0959  0.0739
  535MOL0     C73760   5.764   8.164   2.266 -0.4689  0.0868 -0.1449
  535MOL0     H73761   5.299   7.962   2.017  2.7026 -0.2327 -1.2486
  535MOL0     H73762   5.088   7.848   2.030 -1.5106 -0.8085  2.9015
  535MOL0     H73763   4.907   7.656   1.973  0.0569 -4.2253 -1.8218
  535MOL0     H73764   4.934   7.678   2.149 -0.0586 -0.2074 -0.8015
  535MOL0     H73765   4.854   7.441   2.016  1.4466 -1.5935  2.0863
  535MOL0     H73766   4.842   7.461   2.188 -2.6192  0.9226  0.8238
  535MOL0     H73767   4.674   7.611   2.205  1.2395  0.2626  0.5191
  535MOL0     H73768   4.679   7.652   2.030 -0.6145 -0.8936 -0.5597
  535MOL0     H73769   4.624   7.396   1.999  0.7170  0.5109  0.4268
  535MOL0     H73770   4.582   7.397   2.174 -1.1516  1.4089  1.7969
  535MOL0     H73771   4.472   7.565   1.949 -2.9685  1.6007  0.4988
  535MOL0     H73772   4.441   7.597   2.122  0.1336 -0.9928  1.3575
  535MOL0     H73773   4.358   7.352   1.962 -1.1130 -1.0940  1.1568
  535MOL0     H73774   4.352   7.350   2.126 -0.1894 -1.5363 -2.1072
  535MOL0     H73775   4.199   7.528   2.164  0.4406 -0.3427 -0.3969
  535MOL0     H73776   4.135   7.408   2.037  0.5111  1.0123 -2.2893
  535MOL0     H73777   4.244   7.690   2.007 -0.8206  0.1124 -1.0256
  535MOL0     H73778   4.213   7.588   1.878  3.2598  0.7927  0.3524
  535MOL0     H73779   3.915   7.466   1.980  1.1095  0.6222 -0.0507
  535MOL0     H73780   3.663   7.570   1.837  1.6914 -2.4109  0.4569
  535MOL0     H73781   3.610   7.701   1.938 -0.8526 -0.2254 -1.4816
  535MOL0     H73782   3.522   7.507   2.010 -0.0810  0.6481  0.5605
  535MOL0     H73783   3.678   7.430   2.027  3.0448  0.4205  1.3807
  535MOL0     H73784   3.731   7.625   2.200 -0.8436  1.1553 -0.0198
  535MOL0     H73785   3.569   7.675   2.185 -1.8960 -2.1417  1.4429
  535MOL0     H73786   3.575   7.536   2.381 -0.3782 -0.9868  0.1929
  535MOL0     H73787   3.469   7.467   2.255 -0.9500 -0.9156 -0.0805
  535MOL0     H73788   3.675   7.392   2.545 -0.3874 -0.9104 -1.2526
  535MOL0     H73789   3.850   7.418   2.777  1.0248 -0.6505  1.6864
  535MOL0     H73790   3.911   7.257   2.770 -1.1280 -1.1029  0.9028
  535MOL0     H73791   3.750   7.282   2.725  0.3987  1.0528 -0.9995
  535MOL0     H73792   4.347   7.432   2.775 -0.2836 -0.0803 -1.3896
  535MOL0     H73793   4.576   7.441   2.828 -0.0173 -0.6211  0.5674
  535MOL0     H73794   4.878   7.355   2.518 -0.2894  0.2588 -0.6303
  535MOL0     H73795   4.843   7.527   2.519 -0.0171  0.8062  1.2834
  535MOL0     H73796   4.982   7.554   2.725  0.0921 -1.6465  2.3413
  535MOL0     H73797   5.052   7.388   2.680 -0.0087  0.2329  0.1291
  535MOL0     H73798   5.037   7.642   2.506  1.1595  0.3130  0.0347
  535MOL0     H73799   5.093   7.477   2.455  0.8104  0.3168 -0.5939
  535MOL0     H73800   5.278   7.491   2.623  1.3731  1.0236  1.7459
  535MOL0     H73801   5.215   7.638   2.681  1.3451  2.9857 -1.4394
  535MOL0     H73802   5.316   7.574   2.387  2.5588  1.4668 -0.9723
  535MOL0     H73803   5.271   7.735   2.447  3.8978 -0.2193 -1.8643
  535MOL0     H73804   5.486   7.598   2.585  2.1245  1.1580  0.1394
  535MOL0     H73805   5.438   7.772   2.578 -3.0764  1.8349 -1.7884
  535MOL0     H73806   5.479   7.746   2.319 -1.3678 -1.7391 -1.1518
  535MOL0     H73807   5.580   7.610   2.357  0.0627 -0.5675  1.8394
  535MOL0     H73808   5.610   7.899   2.439 -0.0055 -0.8190 -0.3945
  535MOL0     H73809   5.718   7.788   2.339  0.3750 -0.4829  1.2059
  535MOL0     H73810   4.679   7.404   2.409  1.1090  0.5055 -0.2687
  535MOL0     H73811   4.435   7.387   2.353 -2.1504  1.7466  0.2220
  535MOL0     H73812   4.102   7.356   2.325 -0.1223 -0.6069  0.0974
  535MOL0     H73813   3.914   7.382   2.189  1.0837 -1.2325  0.5407
  535MOL0     H73814   5.292   7.473   2.091 -0.1239  0.4648  1.0937
  535MOL0     H73815   5.508   7.594   2.087  1.5840  2.5407  0.4678
  535MOL0     H73816   5.637   8.000   1.819  0.0740  0.3307 -0.8828
  535MOL0     H73817   5.748   8.164   1.715 -1.2424  2.1981  0.0445
  535MOL0     H73818   5.800   8.535   1.917  0.4638  1.9288 -0.0172
  535MOL0     H73819   5.877   8.580   1.782  2.3830 -0.6999  1.9795
  535MOL0     H73820   5.640   8.589   1.761  1.0671  0.2280  2.1378
  535MOL0     H73821   5.611   8.420   1.786  1.4018 -1.6096 -0.3458
  535MOL0     H73822   5.770   8.548   1.545  0.3334 -0.9709 -0.9372
  535MOL0     H73823   5.729   8.371   1.570  2.3272  1.1560  1.4142
  535MOL0     H73824   5.603   8.473   1.382  0.8619  2.4159 -0.2449
  535MOL0     H73825   5.544   8.594   1.490 -0.0644 -1.0068  1.1605
  535MOL0     H73826   5.284   8.275   1.553 -1.0883  1.8154 -0.4977
  535MOL0     H73827   5.868   8.346   2.084  1.0481 -0.1394 -0.6825
  535MOL0     H73828   5.810   8.073   2.307  2.4814  1.2215 -0.6426
  535MOL0     H73829   5.831   8.243   2.302 -2.0220  0.4093  2.2361
  535MOL0     H73830   5.670   8.176   2.319  0.9831 -0.0868  2.6751
  536MOL0     O73831   2.517   3.431   5.033 -0.7394  0.0152  0.9186
  536MOL0     C73832   2.461   3.391   4.929 -0.2970  0.5828  0.2742
  536MOL0     O73833   2.527   3.310   4.838  0.4012  0.4755  0.8477
  536MOL0     C73834   2.660   3.290   4.854 -0.2557  0.3371  0.3148
  536MOL0     C73835   2.747   3.392   4.835 -1.1296 -1.0296  0.2869
  536MOL0     C73836   2.887   3.368   4.841  0.8005  0.1046  0.7221
  536MOL0     C73837   2.931   3.235   4.857 -0.2420 -0.1468 -0.0004
  536MOL0     O73838   3.060   3.213   4.850 -0.2703  0.3744  1.1300
  536MOL0     C73839   3.108   3.106   4.934 -0.7179 -0.1996 -0.3080
  536MOL0     C73840   3.182   3.000   4.856 -0.6421  0.0520  0.2986
  536MOL0     C73841   3.304   3.053   4.772 -0.5533  0.3481 -0.3794
  536MOL0     C73842   3.434   3.057   4.870  1.0775 -0.2886  0.0701
  536MOL0     C73843   3.547   3.109   4.789 -0.3198 -0.2785  0.2735
  536MOL0     C73844   3.646   3.176   4.880 -0.6529  0.2670 -0.2515
  536MOL0     C73845   3.785   3.204   4.812  0.6174 -0.8319 -0.2646
  536MOL0     C73846   3.801   3.343   4.746  0.2195 -0.2896 -0.5138
  536MOL0     N73847   3.934   3.374   4.706 -0.5507  1.0157 -0.2669
  536MOL0     C73848   3.989   3.309   4.602  0.0384  1.5330 -0.1687
  536MOL0     C73849   4.116   3.368   4.588  0.8536 -0.8036  0.0176
  536MOL0     C73850   4.218   3.332   4.487 -0.0892 -0.2929  0.1804
  536MOL0     C73851   4.357   3.367   4.536 -0.6964 -0.0925  0.1760
  536MOL0     C73852   4.442   3.365   4.408 -0.0548  0.1729  1.3005
  536MOL0     C73853   4.586   3.423   4.435  0.1575  0.1042 -0.0409
  536MOL0     O73854   4.664   3.391   4.313 -1.2834  0.3232  0.0066
  536MOL0     C73855   4.788   3.433   4.333 -0.5619  0.2772 -0.0937
  536MOL0     C73856   4.888   3.341   4.356  0.7011  1.3412  0.4525
  536MOL0     C73857   5.022   3.377   4.385 -0.1995  0.7088  0.0501
  536MOL0     C73858   5.121   3.266   4.428  0.2179  0.7369 -0.2601
  536MOL0     C73859   5.058   3.509   4.386 -1.4306 -0.5966  0.2969
  536MOL0     C73860   5.199   3.563   4.408  1.0539 -0.0477 -0.3202
  536MOL0     O73861   5.206   3.702   4.429  0.2546  0.0506  0.2964
  536MOL0     C73862   5.327   3.766   4.443 -0.1398  0.0133  0.0395
  536MOL0     C73863   5.387   3.786   4.567  0.1324 -0.1650 -0.3925
  536MOL0     C73864   5.503   3.856   4.588 -0.6014 -0.5745 -0.7450
  536MOL0     C73865   5.571   3.902   4.477  0.0720  0.4169  0.4283
  536MOL0     O73866   5.676   3.972   4.497 -0.0961 -0.7702  0.0583
  536MOL0     C73867   5.797   3.904   4.473 -0.0799 -0.3609 -1.0675
  536MOL0     C73868   5.837   3.798   4.583 -0.4212 -0.8994 -0.3686
  536MOL0     C73869   5.985   3.760   4.573  0.8757  0.3324  0.1022
  536MOL0     C73870   6.062   3.864   4.655 -0.2040 -0.3922 -0.8737
  536MOL0     C73871   6.209   3.871   4.622  0.2830 -0.3825 -0.5138
  536MOL0     C73872   6.280   3.995   4.681 -0.2309  0.0370 -0.1372
  536MOL0     C73873   6.425   3.955   4.702  0.1412 -0.2209  0.4820
  536MOL0     C73874   6.498   4.072   4.765 -0.1782  0.3035 -0.6250
  536MOL0    Cl73875   6.655   3.998   4.829  0.2294 -0.3253 -0.1696
  536MOL0     C73876   5.510   3.888   4.351 -0.1603  0.1950  0.0728
  536MOL0     C73877   5.383   3.827   4.343 -0.2783  0.4893  0.0740
  536MOL0     O73878   5.297   3.484   4.406  0.2830 -0.1600  0.0130
  536MOL0     C73879   4.956   3.606   4.360 -0.2375 -0.0020 -0.3175
  536MOL0     C73880   4.822   3.564   4.340 -0.0928 -0.7805  0.7552
  536MOL0     N73881   4.127   3.466   4.680 -0.3375 -0.3117 -0.0277
  536MOL0     N73882   4.017   3.479   4.742  0.3238  0.5068 -0.0517
  536MOL0     C73883   2.842   3.131   4.843 -0.5282 -0.4208 -0.3031
  536MOL0     C73884   2.707   3.165   4.844 -0.5064  0.1438  1.1183
  536MOL0     C73885   2.324   3.429   4.902  0.3967  0.3089 -0.1786
  536MOL0     C73886   2.289   3.428   4.764 -0.1426  0.5759  0.5376
  536MOL0     C73887   2.159   3.455   4.724  0.5901  0.4509  0.5607
  536MOL0     C73888   2.068   3.499   4.824  0.1509  1.3090 -0.0422
  536MOL0     O73889   1.945   3.530   4.772 -0.5567 -0.8051  0.4717
  536MOL0     C73890   1.825   3.536   4.859  0.2676 -0.0775  0.3523
  536MOL0     C73891   1.713   3.476   4.783  0.5535 -0.4332 -0.0497
  536MOL0     C73892   1.590   3.460   4.871  0.0186  1.2385  0.5128
  536MOL0     C73893   1.462   3.419   4.789 -0.3679 -0.9370 -0.0403
  536MOL0     C73894   1.488   3.304   4.702  0.0571 -0.1510  0.6727
  536MOL0     C73895   1.493   3.220   4.612 -0.6703 -0.7406  0.0551
  536MOL0     C73896   2.105   3.510   4.964 -0.1227 -0.4442 -0.0873
  536MOL0     C73897   2.231   3.475   5.006  0.3128 -0.2675  0.1759
  536MOL0     C73898   2.262   3.491   5.150 -0.7190 -0.5804  0.1523
  536MOL0     H73899   2.697   3.488   4.824  1.1470  0.3253  1.1993
  536MOL0     H73900   2.962   3.447   4.841  0.9908 -0.0762  0.4490
  536MOL0     H73901   3.032   3.053   4.992 -0.2841  1.1600  1.6018
  536MOL0     H73902   3.174   3.138   5.015  1.0227  0.1045 -1.7592
  536MOL0     H73903   3.202   2.927   4.935 -2.6449  1.3998  2.1691
  536MOL0     H73904   3.109   2.949   4.794  1.9415 -1.4238 -1.7601
  536MOL0     H73905   3.321   2.974   4.699 -0.5553  0.8268 -0.9087
  536MOL0     H73906   3.289   3.143   4.710 -2.5746 -0.3771 -1.0322
  536MOL0     H73907   3.415   3.129   4.950  0.8128  0.4049 -0.6015
  536MOL0     H73908   3.459   2.958   4.909 -0.9558 -0.1927  1.7877
  536MOL0     H73909   3.513   3.180   4.713  1.9446  1.2760  0.6088
  536MOL0     H73910   3.597   3.026   4.738  0.5544 -1.0916  2.3391
  536MOL0     H73911   3.604   3.272   4.912  1.4086  1.8468 -1.8954
  536MOL0     H73912   3.668   3.119   4.970  2.5766  2.3618  0.4680
  536MOL0     H73913   3.802   3.127   4.737  0.0468 -0.9238 -0.3055
  536MOL0     H73914   3.869   3.192   4.882  0.7082  0.7026 -0.0867
  536MOL0     H73915   3.754   3.347   4.647 -4.4663  2.6544  1.4747
  536MOL0     H73916   3.772   3.427   4.809 -1.1514 -2.0129  1.2481
  536MOL0     H73917   3.953   3.223   4.547 -1.5361  1.8398  0.3243
  536MOL0     H73918   4.194   3.387   4.395 -1.7231 -1.3382 -0.0748
  536MOL0     H73919   4.208   3.224   4.475  1.0603 -0.7555  2.9008
  536MOL0     H73920   4.359   3.463   4.589 -0.8221 -0.8239  1.5747
  536MOL0     H73921   4.395   3.297   4.611  0.7325  3.6266  3.2885
  536MOL0     H73922   4.448   3.261   4.373 -0.7591  1.2186 -2.2699
  536MOL0     H73923   4.398   3.425   4.328  2.0808  0.3919  0.2423
  536MOL0     H73924   4.578   3.530   4.452  0.0326  0.2148 -0.7855
  536MOL0     H73925   4.629   3.374   4.523  2.6739  1.0499 -0.6791
  536MOL0     H73926   4.849   3.240   4.362  1.6407  1.0439  1.8982
  536MOL0     H73927   5.161   3.289   4.527  0.0855 -0.8782  0.2037
  536MOL0     H73928   5.213   3.256   4.370 -0.1191 -0.4363 -0.6276
  536MOL0     H73929   5.072   3.168   4.420  0.8698  0.4519 -0.8020
  536MOL0     H73930   5.331   3.733   4.644 -1.1978 -0.4236 -1.5034
  536MOL0     H73931   5.545   3.878   4.685 -0.3360  0.1348 -1.0120
  536MOL0     H73932   5.785   3.850   4.378 -0.1262 -2.6294  0.1535
  536MOL0     H73933   5.877   3.977   4.467 -1.7846  1.5805 -1.2023
  536MOL0     H73934   5.813   3.833   4.684 -0.2905  0.6266 -0.8517
  536MOL0     H73935   5.772   3.714   4.556 -0.7189 -0.1075 -2.3148
  536MOL0     H73936   6.009   3.761   4.466 -1.2465  3.2937 -0.4496
  536MOL0     H73937   6.004   3.660   4.615 -1.3266  0.3486  1.2420
  536MOL0     H73938   6.061   3.838   4.762  2.7524  1.3552 -0.3126
  536MOL0     H73939   6.021   3.964   4.639  0.9834  0.4253  0.8447
  536MOL0     H73940   6.249   3.772   4.648  0.2150 -0.7526 -1.7691
  536MOL0     H73941   6.225   3.891   4.516  1.8153  3.2663  0.2507
  536MOL0     H73942   6.239   4.020   4.780 -0.6268 -0.9252 -0.0473
  536MOL0     H73943   6.267   4.083   4.617  0.2353  0.1821 -0.0372
  536MOL0     H73944   6.479   3.934   4.610  2.4140  4.1288  0.5439
  536MOL0     H73945   6.425   3.868   4.767  0.0632  0.4872  1.4555
  536MOL0     H73946   6.451   4.116   4.853 -2.7306 -1.5471 -0.9455
  536MOL0     H73947   6.508   4.153   4.693 -1.8602  0.2054 -1.0246
  536MOL0     H73948   5.553   3.941   4.267 -2.2579  2.4045  0.2962
  536MOL0     H73949   5.331   3.822   4.247  2.7035  0.0686 -1.6634
  536MOL0     H73950   4.989   3.709   4.355  0.3654 -0.2446 -4.3599
  536MOL0     H73951   4.746   3.636   4.314 -1.1473 -1.3303  2.1606
  536MOL0     H73952   2.863   3.025   4.837  1.4357 -0.0815 -0.0753
  536MOL0     H73953   2.632   3.088   4.841 -1.0710  0.2810  5.2723
  536MOL0     H73954   2.360   3.409   4.684 -0.6354 -1.8285  0.6113
  536MOL0     H73955   2.146   3.452   4.617  3.4435 -0.2795  0.1358
  536MOL0     H73956   1.838   3.478   4.951  2.3519  0.8395  0.7050
  536MOL0     H73957   1.795   3.637   4.887 -1.4018  0.4829 -2.9208
  536MOL0     H73958   1.749   3.383   4.737  0.7754 -1.4079  1.9665
  536MOL0     H73959   1.686   3.548   4.706 -0.4769  0.4729  1.1020
  536MOL0     H73960   1.610   3.380   4.943 -3.2301 -0.8758 -0.6889
  536MOL0     H73961   1.568   3.545   4.937 -1.2876 -1.0605  3.2672
  536MOL0     H73962   1.426   3.499   4.724  0.3628 -1.6634 -1.3849
  536MOL0     H73963   1.377   3.396   4.855 -1.1768  0.9572 -0.3674
  536MOL0     H73964   1.508   3.137   4.545  0.1390  0.1991 -0.9678
  536MOL0     H73965   2.027   3.546   5.030  0.5110  1.5429 -0.3270
  536MOL0     H73966   2.321   3.579   5.175 -2.1516  0.5474 -0.2790
  536MOL0     H73967   2.172   3.497   5.213  1.6770 -0.3454  3.8373
  536MOL0     H73968   2.320   3.402   5.175 -4.5814 -3.4002  0.1024
  537MOL0     O73969   3.440   7.042  10.904 -0.5086  0.6512  0.0905
  537MOL0     C73970   3.366   6.987  10.825  0.5143 -0.3342  0.0631
  537MOL0     O73971   3.414   6.931  10.706  0.6064  0.1789  0.0231
  537MOL0     C73972   3.553   6.903  10.703  0.7834 -0.2605 -0.1462
  537MOL0     C73973   3.590   6.771  10.698 -0.3979  0.6686  0.5609
  537MOL0     C73974   3.722   6.736  10.688 -0.5492 -0.7683  0.7170
  537MOL0     C73975   3.821   6.840  10.688 -0.7118 -0.2444 -0.6264
  537MOL0     O73976   3.960   6.811  10.682  0.5174  0.2372  0.2497
  537MOL0     C73977   3.999   6.672  10.721 -0.2713  0.0710  0.7609
  537MOL0     C73978   4.146   6.661  10.761  0.0120  0.1196 -0.2064
  537MOL0     C73979   4.232   6.718  10.645 -0.4516 -0.4905 -0.3351
  537MOL0     C73980   4.385   6.722  10.670  0.9546  0.2278  0.2518
  537MOL0     C73981   4.451   6.807  10.560 -0.1663  0.3712  0.7930
  537MOL0     C73982   4.606   6.812  10.601  0.4875 -0.7911 -0.4478
  537MOL0     C73983   4.694   6.872  10.497  0.5950 -0.2518  0.2157
  537MOL0     C73984   4.839   6.851  10.525  0.4092  0.2880  0.0916
  537MOL0     N73985   4.907   6.973  10.582 -0.0257 -0.0773  0.0322
  537MOL0     C73986   4.882   7.044  10.697 -0.2242  0.2218  0.1146
  537MOL0     C73987   4.996   7.120  10.710  0.7099  0.6043 -0.9531
  537MOL0     C73988   5.033   7.216  10.816  0.3915  0.8945 -0.6524
  537MOL0     C73989   5.153   7.189  10.898  0.1382 -0.1319 -0.1521
  537MOL0     C73990   5.202   7.306  10.990 -0.0308 -0.4176 -0.2298
  537MOL0     C73991   5.335   7.288  11.061 -0.5389  0.3611  0.3562
  537MOL0     O73992   5.388   7.416  11.103 -0.2638  0.2407  0.5314
  537MOL0     C73993   5.504   7.418  11.177 -0.7974 -0.0118  0.3405
  537MOL0     C73994   5.604   7.323  11.178  0.3131 -0.2733  0.4225
  537MOL0     C73995   5.724   7.334  11.255  0.7258 -0.9394  0.0180
  537MOL0     C73996   5.821   7.212  11.249  0.0772 -0.2979 -0.0540
  537MOL0     C73997   5.745   7.459  11.322 -0.5326  0.4380 -0.3285
  537MOL0     C73998   5.866   7.489  11.403 -0.3149 -0.7376  0.1855
  537MOL0     O73999   5.855   7.586  11.486  0.3644  0.0038 -0.6077
  537MOL0     C74000   5.967   7.647  11.540  0.7286 -0.2696 -0.5030
  537MOL0     C74001   6.093   7.656  11.479  0.0708 -0.0605 -0.6040
  537MOL0     C74002   6.204   7.718  11.539 -0.3610 -0.4744 -0.2183
  537MOL0     C74003   6.177   7.788  11.656  0.2043 -0.0670 -0.1575
  537MOL0     O74004   6.287   7.850  11.721  0.3921  0.0067  0.2612
  537MOL0     C74005   6.253   7.994  11.719  0.5937 -1.0156 -0.3053
  537MOL0     C74006   6.378   8.075  11.762 -0.1317 -0.5590  0.3111
  537MOL0     C74007   6.342   8.231  11.755  0.1394 -0.0315  0.9293
  537MOL0     C74008   6.463   8.320  11.802  0.4037  0.2470  0.3416
  537MOL0     C74009   6.414   8.460  11.831 -0.2215  0.1971 -0.4372
  537MOL0     C74010   6.520   8.560  11.881 -0.8008  0.5491  0.4631
  537MOL0     C74011   6.573   8.635  11.752 -0.5388  0.3273  0.2349
  537MOL0     C74012   6.704   8.708  11.780 -0.3457 -0.0175  0.0789
  537MOL0    Cl74013   6.749   8.807  11.638 -0.2077 -0.1131  0.1098
  537MOL0     C74014   6.049   7.786  11.714  0.2075 -0.2946 -0.2467
  537MOL0     C74015   5.944   7.718  11.656  0.2449 -0.5514 -0.0044
  537MOL0     O74016   5.957   7.409  11.402 -0.2384 -0.1663  0.0548
  537MOL0     C74017   5.646   7.560  11.314  0.6235  0.2014  0.5985
  537MOL0     C74018   5.531   7.539  11.240 -0.4045  0.5371 -0.5471
  537MOL0     N74019   5.082   7.098  10.603 -0.7655  0.8212  0.4258
  537MOL0     N74020   5.017   7.015  10.523 -0.0402 -0.1717  0.0643
  537MOL0     C74021   3.784   6.977  10.689  0.6075 -0.2727  0.4592
  537MOL0     C74022   3.648   7.005  10.693  0.4404 -0.4151 -0.1023
  537MOL0     C74023   3.227   6.980  10.871  0.4141 -0.1786 -0.3468
  537MOL0     C74024   3.153   6.874  10.803  0.2340  0.0322 -0.0893
  537MOL0     C74025   3.029   6.840  10.856  0.2678  0.3369  0.3264
  537MOL0     C74026   2.960   6.911  10.949  0.0230 -0.2766  0.6202
  537MOL0     O74027   2.826   6.875  10.974 -0.0712 -0.0848  0.0483
  537MOL0     C74028   2.775   6.947  11.092 -0.8418  0.1024 -0.2691
  537MOL0     C74029   2.630   6.903  11.133 -0.1346 -0.3197  0.4013
  537MOL0     C74030   2.601   6.974  11.268  0.0220  0.4183 -0.3562
  537MOL0     C74031   2.453   6.973  11.312  0.2325  0.2983 -0.4630
  537MOL0     C74032   2.386   6.848  11.291 -0.5874 -0.0946  0.0416
  537MOL0     C74033   2.329   6.740  11.293 -0.1167  0.9808  0.0878
  537MOL0     C74034   3.026   7.030  11.001 -0.6744  0.0925 -0.0603
  537MOL0     C74035   3.158   7.057  10.972  0.0365  0.0221 -0.8249
  537MOL0     C74036   3.221   7.177  11.045 -0.6613 -0.1367  0.4752
  537MOL0     H74037   3.517   6.691  10.699  0.8167 -0.5208 -1.0657
  537MOL0     H74038   3.748   6.630  10.683  2.2783 -0.0856 -2.2694
  537MOL0     H74039   3.975   6.601  10.642 -0.4802 -0.7748  1.5587
  537MOL0     H74040   3.955   6.633  10.814 -1.6122 -3.1967 -1.0982
  537MOL0     H74041   4.157   6.717  10.855 -0.1855  0.8135 -0.5873
  537MOL0     H74042   4.162   6.553  10.767 -2.0123 -0.3278 -1.8129
  537MOL0     H74043   4.210   6.666  10.551 -2.7078 -3.1399  1.4969
  537MOL0     H74044   4.195   6.820  10.637  0.0245 -0.3328 -0.6396
  537MOL0     H74045   4.403   6.758  10.771 -0.0502  0.1532  0.4708
  537MOL0     H74046   4.432   6.623  10.666  4.0943  1.5497  1.3120
  537MOL0     H74047   4.429   6.914  10.553  3.3204  1.1689 -0.1607
  537MOL0     H74048   4.448   6.757  10.463  2.4114  1.0629  0.2779
  537MOL0     H74049   4.601   6.885  10.682 -2.1223  0.9251 -2.0052
  537MOL0     H74050   4.651   6.721  10.642 -1.5907 -1.0373  1.4370
  537MOL0     H74051   4.677   6.980  10.503  0.0279 -0.3861  1.1577
  537MOL0     H74052   4.674   6.840  10.394  0.1329  3.1880 -0.8860
  537MOL0     H74053   4.853   6.759  10.583  0.7245 -0.7013 -1.4921
  537MOL0     H74054   4.898   6.833  10.435  2.2002 -2.2410  1.6416
  537MOL0     H74055   4.791   7.045  10.756 -2.5830 -0.3728 -3.2276
  537MOL0     H74056   4.946   7.227  10.882 -0.6380 -1.9954 -1.3540
  537MOL0     H74057   5.061   7.314  10.777  2.8550  0.7963  0.6643
  537MOL0     H74058   5.118   7.112  10.968 -3.2773 -0.1148 -1.6292
  537MOL0     H74059   5.233   7.151  10.833 -0.9441  2.3993 -3.2290
  537MOL0     H74060   5.218   7.396  10.930  4.5907 -0.6251  0.3170
  537MOL0     H74061   5.123   7.319  11.064  0.4461  3.5055 -0.2479
  537MOL0     H74062   5.318   7.218  11.144 -1.4026 -1.2459 -1.1267
  537MOL0     H74063   5.391   7.227  10.989  0.7357  1.7144  0.1501
  537MOL0     H74064   5.584   7.244  11.107 -0.9764 -1.0325  1.5805
  537MOL0     H74065   5.902   7.234  11.178 -2.9133 -0.6095 -3.9073
  537MOL0     H74066   5.769   7.123  11.211  1.2993 -1.7478  1.4916
  537MOL0     H74067   5.859   7.191  11.349 -0.9232  0.9130  0.6046
  537MOL0     H74068   6.101   7.610  11.380  2.1249 -0.0322 -0.4837
  537MOL0     H74069   6.303   7.721  11.495  0.3862 -0.9147  1.3395
  537MOL0     H74070   6.214   8.024  11.621  3.6881  1.8497 -0.8497
  537MOL0     H74071   6.180   8.014  11.798  0.4996 -1.6509 -0.2265
  537MOL0     H74072   6.402   8.045  11.864 -0.3763 -1.7161  0.0412
  537MOL0     H74073   6.458   8.050  11.692 -1.6945 -2.5370 -0.8946
  537MOL0     H74074   6.250   8.251  11.811  1.2435  2.9791  1.8694
  537MOL0     H74075   6.328   8.269  11.653  1.2856  0.0916  0.8052
  537MOL0     H74076   6.542   8.318  11.726 -0.4457 -0.0121 -0.5555
  537MOL0     H74077   6.503   8.268  11.890 -0.8507 -0.6922  0.3856
  537MOL0     H74078   6.363   8.503  11.744 -0.5513  1.3217  0.2734
  537MOL0     H74079   6.333   8.450  11.905 -0.4501  1.9462 -0.4098
  537MOL0     H74080   6.611   8.515  11.919 -0.1322  1.5858  0.1262
  537MOL0     H74081   6.492   8.629  11.961 -0.5912  2.0803 -0.7322
  537MOL0     H74082   6.507   8.713  11.716  0.7597  1.7796  0.8717
  537MOL0     H74083   6.601   8.566  11.672 -1.7907  1.1212 -0.9223
  537MOL0     H74084   6.793   8.646  11.798 -0.2857 -0.3935 -1.3517
  537MOL0     H74085   6.690   8.774  11.866 -0.1482  1.2768 -0.8527
  537MOL0     H74086   6.038   7.835  11.811 -0.1018 -0.3078 -0.2755
  537MOL0     H74087   5.842   7.742  11.687 -0.6197 -2.2463 -1.3972
  537MOL0     H74088   5.658   7.648  11.376  2.2250 -0.3015  1.0684
  537MOL0     H74089   5.455   7.616  11.234  0.1723  1.1158 -0.5605
  537MOL0     H74090   3.861   7.053  10.690  1.8971 -1.5280  2.6114
  537MOL0     H74091   3.624   7.111  10.697 -1.9899 -0.9020  4.3456
  537MOL0     H74092   3.192   6.833  10.711  2.4428  0.5975  0.5223
  537MOL0     H74093   2.969   6.761  10.811 -1.2264  0.8038  1.4202
  537MOL0     H74094   2.844   6.932  11.176 -1.0790  1.3624  0.1824
  537MOL0     H74095   2.765   7.053  11.069 -0.2414 -0.0237 -1.1510
  537MOL0     H74096   2.633   6.796  11.154  1.0155 -0.6345 -1.1142
  537MOL0     H74097   2.555   6.923  11.055 -2.0362  1.4180  2.5597
  537MOL0     H74098   2.662   6.931  11.348 -1.5274 -1.8015 -0.2627
  537MOL0     H74099   2.632   7.077  11.252 -2.3298  1.3569  0.7841
  537MOL0     H74100   2.400   7.047  11.251 -1.1965 -0.3819 -0.0961
  537MOL0     H74101   2.460   6.987  11.420  0.8433  2.7636 -0.7591
  537MOL0     H74102   2.274   6.648  11.288  0.7838  0.4064  0.5520
  537MOL0     H74103   2.981   7.101  11.070  1.0859  1.5571 -0.3532
  537MOL0     H74104   3.224   7.157  11.153  2.3779 -2.5553  0.0772
  537MOL0     H74105   3.325   7.195  11.016 -0.6334 -0.6094  0.2775
  537MOL0     H74106   3.163   7.267  11.023  0.0090  0.0510 -0.5727
  538MOL0     O74107   1.795   3.582   3.986 -0.0626 -0.1424  0.1970
  538MOL0     C74108   1.749   3.689   3.936  0.1293 -0.1409 -1.2259
  538MOL0     O74109   1.626   3.707   3.901  0.1305  0.6592  0.4472
  538MOL0     C74110   1.528   3.617   3.925  0.2391  0.5254  0.2520
  538MOL0     C74111   1.523   3.498   3.849 -0.2684 -0.5852  0.0072
  538MOL0     C74112   1.421   3.406   3.884  0.3610  0.1973  0.6223
  538MOL0     C74113   1.330   3.424   3.991  0.9760  0.7135 -0.3416
  538MOL0     O74114   1.233   3.327   4.004  0.6940  0.3135 -0.2500
  538MOL0     C74115   1.133   3.352   4.103 -0.4894 -0.5153  0.7829
  538MOL0     C74116   1.056   3.229   4.137 -0.1597 -0.3471  1.1860
  538MOL0     C74117   1.010   3.152   4.015 -0.1940  0.6802  0.1770
  538MOL0     C74118   0.944   3.024   4.052 -0.7867 -0.5713  0.7048
  538MOL0     C74119   1.046   2.924   4.101 -0.4098  0.6268 -0.3211
  538MOL0     C74120   0.977   2.786   4.103  0.6256  0.0496  0.1219
  538MOL0     C74121   1.069   2.674   4.147 -0.2612 -0.0422 -0.7529
  538MOL0     C74122   1.023   2.529   4.149 -0.3151  0.3983 -0.1996
  538MOL0     N74123   1.136   2.440   4.189  0.2436  0.7946 -0.4203
  538MOL0     C74124   1.264   2.433   4.148 -1.1898  0.3885  0.8727
  538MOL0     C74125   1.331   2.339   4.221  0.2056 -0.1684  0.0293
  538MOL0     C74126   1.474   2.288   4.224  0.1016 -0.3047  0.0926
  538MOL0     C74127   1.526   2.278   4.083 -0.0295 -0.3400 -0.5929
  538MOL0     C74128   1.677   2.251   4.071 -0.2077 -0.5029 -0.0730
  538MOL0     C74129   1.737   2.301   3.937  0.4284  0.0161  0.0692
  538MOL0     O74130   1.673   2.232   3.829 -0.8177 -0.0447  0.1395
  538MOL0     C74131   1.690   2.284   3.703 -0.2532 -0.0193  0.5638
  538MOL0     C74132   1.785   2.375   3.660 -0.1684 -0.6926 -0.1759
  538MOL0     C74133   1.819   2.407   3.526  0.2868  0.7760  0.4659
  538MOL0     C74134   1.918   2.521   3.505 -0.1570 -0.5919 -0.6251
  538MOL0     C74135   1.750   2.343   3.426  0.3125  0.5984  0.2110
  538MOL0     C74136   1.765   2.382   3.281  0.5944  0.5105 -0.1064
  538MOL0     O74137   1.715   2.299   3.192  0.1597  0.1116 -0.2039
  538MOL0     C74138   1.713   2.330   3.060 -1.3584 -0.7068  0.0548
  538MOL0     C74139   1.662   2.452   3.010 -0.1976 -0.4062 -0.4982
  538MOL0     C74140   1.680   2.487   2.880  0.1202 -0.1874  0.4046
  538MOL0     C74141   1.735   2.391   2.787  0.2822  0.1223 -0.5507
  538MOL0     O74142   1.731   2.432   2.651  0.5670 -0.4153 -0.3680
  538MOL0     C74143   1.790   2.346   2.547  1.2978 -0.4292 -0.3085
  538MOL0     C74144   1.732   2.389   2.419 -0.3634  0.0980  0.9745
  538MOL0     C74145   1.588   2.337   2.394  0.3577 -0.1666  0.0189
  538MOL0     C74146   1.532   2.434   2.292 -0.1972 -1.1375 -0.7810
  538MOL0     C74147   1.394   2.396   2.239 -0.8596  0.7081 -0.2794
  538MOL0     C74148   1.285   2.377   2.351  0.3097 -0.4061 -0.8093
  538MOL0     C74149   1.154   2.322   2.303 -0.1585 -0.6336 -0.4992
  538MOL0     C74150   1.060   2.321   2.425  0.6277 -0.3511  0.5658
  538MOL0    Cl74151   1.026   2.480   2.498 -0.0683 -0.0521 -0.2929
  538MOL0     C74152   1.770   2.264   2.839 -0.0697  0.6552  0.6346
  538MOL0     C74153   1.764   2.236   2.974 -0.0047  0.4777  0.1254
  538MOL0     O74154   1.834   2.482   3.256 -0.1975  0.6989  0.3062
  538MOL0     C74155   1.655   2.244   3.465 -0.2295 -0.4279  0.3400
  538MOL0     C74156   1.629   2.215   3.597 -0.6981 -0.8066 -0.1861
  538MOL0     N74157   1.232   2.276   4.296 -0.9294  0.3491  1.2070
  538MOL0     N74158   1.119   2.338   4.282  0.5533 -0.4449  0.1167
  538MOL0     C74159   1.332   3.551   4.054  1.1809  0.9348 -0.2910
  538MOL0     C74160   1.437   3.639   4.022 -0.3308 -0.9451 -0.9215
  538MOL0     C74161   1.839   3.808   3.938 -0.1813  0.2106 -0.2335
  538MOL0     C74162   1.779   3.935   3.909  0.4523  0.3013 -0.6875
  538MOL0     C74163   1.853   4.049   3.898  0.2923  0.2193  0.4616
  538MOL0     C74164   1.985   4.051   3.944 -0.3813 -0.0151  0.1350
  538MOL0     O74165   2.058   4.165   3.931 -0.6911 -0.2995  0.0625
  538MOL0     C74166   1.997   4.283   3.881  0.3350 -0.3627 -0.4878
  538MOL0     C74167   2.122   4.373   3.875  0.4693  0.1805  0.1261
  538MOL0     C74168   2.093   4.523   3.855 -0.4854 -0.3658  0.2432
  538MOL0     C74169   2.218   4.585   3.802  0.7656 -0.0853 -0.4219
  538MOL0     C74170   2.330   4.583   3.898  0.6894 -0.5163  1.0670
  538MOL0     C74171   2.427   4.597   3.969 -0.5599  0.7787 -0.1936
  538MOL0     C74172   2.040   3.927   3.986  0.2049 -0.1770 -0.6386
  538MOL0     C74173   1.967   3.809   3.983 -0.1450 -0.1807 -0.3867
  538MOL0     C74174   2.039   3.689   4.040  0.4997  0.7437  0.3742
  538MOL0     H74175   1.588   3.484   3.763  2.7873  0.7946  1.9160
  538MOL0     H74176   1.402   3.321   3.819 -0.0168 -1.3472  2.6331
  538MOL0     H74177   1.055   3.418   4.063  1.6859  1.5962 -0.2396
  538MOL0     H74178   1.174   3.392   4.196 -0.0602  2.1816 -0.4539
  538MOL0     H74179   1.126   3.170   4.198  2.2412  2.0796  0.9961
  538MOL0     H74180   0.962   3.254   4.188  0.1964  0.5580  1.4303
  538MOL0     H74181   0.930   3.212   3.969 -0.9950 -1.4499 -1.3904
  538MOL0     H74182   1.082   3.140   3.934  1.6111 -1.8322  2.0150
  538MOL0     H74183   0.873   3.042   4.133  0.2332  1.7824  1.1740
  538MOL0     H74184   0.893   2.995   3.960  2.1334  0.8220 -1.5464
  538MOL0     H74185   1.091   2.936   4.200  1.8046 -1.3561 -0.9848
  538MOL0     H74186   1.137   2.922   4.040  0.2366  2.4356  0.4942
  538MOL0     H74187   0.883   2.790   4.159  0.9636  1.3259  0.6408
  538MOL0     H74188   0.958   2.754   4.000  2.2346 -1.3015  0.2146
  538MOL0     H74189   1.121   2.703   4.238 -2.9435  0.6969  0.6663
  538MOL0     H74190   1.154   2.674   4.079  2.4288 -0.0606  2.3817
  538MOL0     H74191   0.947   2.516   4.226 -1.4007 -0.9346 -1.4492
  538MOL0     H74192   0.996   2.494   4.049 -1.0536 -2.3434  0.8731
  538MOL0     H74193   1.298   2.496   4.066 -0.6036 -1.6902 -0.5598
  538MOL0     H74194   1.488   2.188   4.265 -1.1512 -1.1329 -1.3961
  538MOL0     H74195   1.535   2.359   4.281  1.0688 -0.4219 -0.7615
  538MOL0     H74196   1.470   2.202   4.029 -0.5841  0.3874 -1.0596
  538MOL0     H74197   1.489   2.371   4.037 -3.1126 -1.1329  0.0793
  538MOL0     H74198   1.723   2.297   4.159  0.3770 -4.0774  1.6574
  538MOL0     H74199   1.691   2.145   4.093  1.2639 -0.1130  1.0225
  538MOL0     H74200   1.731   2.410   3.930  1.0138  0.0058 -0.7954
  538MOL0     H74201   1.844   2.279   3.939 -0.0382 -2.6697 -0.2729
  538MOL0     H74202   1.849   2.435   3.725 -0.6592 -1.8728  1.4483
  538MOL0     H74203   1.993   2.500   3.428  2.2352  3.5748  0.2510
  538MOL0     H74204   1.975   2.534   3.597 -2.3067 -0.1557  0.7086
  538MOL0     H74205   1.865   2.616   3.494  0.0842  0.2356  3.7136
  538MOL0     H74206   1.639   2.539   3.071  1.9144  1.3152 -2.0158
  538MOL0     H74207   1.671   2.591   2.851  0.8618 -1.0771 -3.6307
  538MOL0     H74208   1.899   2.356   2.557  1.6093 -3.1270 -0.1052
  538MOL0     H74209   1.767   2.239   2.548  1.1016 -0.4892 -3.3073
  538MOL0     H74210   1.748   2.497   2.412  1.2124 -0.2049 -2.2052
  538MOL0     H74211   1.797   2.355   2.337  1.7807 -0.6120  2.8613
  538MOL0     H74212   1.530   2.327   2.487  0.8771  1.5126  0.5680
  538MOL0     H74213   1.591   2.236   2.354  1.2758  1.0915 -3.3696
  538MOL0     H74214   1.604   2.442   2.211  2.0819 -0.2516  1.2307
  538MOL0     H74215   1.521   2.530   2.343 -0.3324 -1.4911 -0.1204
  538MOL0     H74216   1.358   2.476   2.173 -0.8123  0.1603 -0.9922
  538MOL0     H74217   1.402   2.298   2.192  1.3835  0.5485  0.3079
  538MOL0     H74218   1.268   2.475   2.397 -2.4014 -1.8997  1.7417
  538MOL0     H74219   1.326   2.312   2.429 -2.5575 -1.1623  0.1909
  538MOL0     H74220   1.161   2.218   2.269 -1.2173 -0.5562 -0.9923
  538MOL0     H74221   1.118   2.391   2.227  2.1382  0.0099 -1.0675
  538MOL0     H74222   1.101   2.266   2.510 -1.4724  0.3000  2.0957
  538MOL0     H74223   0.960   2.285   2.398 -0.4995  2.7535  0.2118
  538MOL0     H74224   1.796   2.188   2.766  1.9525  1.5038  0.4321
  538MOL0     H74225   1.787   2.136   3.011 -0.0589  0.8462  1.1744
  538MOL0     H74226   1.593   2.191   3.393 -0.7159 -0.6893  0.9421
  538MOL0     H74227   1.563   2.134   3.627 -2.9410  1.3342  1.0203
  538MOL0     H74228   1.253   3.570   4.126 -0.8042 -2.4450 -1.3233
  538MOL0     H74229   1.460   3.723   4.087 -1.6575 -1.5410  0.3806
  538MOL0     H74230   1.675   3.938   3.878  0.7439 -0.3934 -1.7786
  538MOL0     H74231   1.797   4.135   3.863  2.8274  0.7874 -2.6718
  538MOL0     H74232   1.963   4.270   3.778 -2.8051  0.8242  0.2830
  538MOL0     H74233   1.921   4.317   3.953 -1.4612 -0.4142 -2.2659
  538MOL0     H74234   2.187   4.334   3.797  0.8249  3.5446 -1.4218
  538MOL0     H74235   2.180   4.376   3.968 -0.9331  0.5745  1.0328
  538MOL0     H74236   2.007   4.527   3.787 -1.6360 -3.3977  1.3287
  538MOL0     H74237   2.062   4.572   3.947  0.4564  2.0659 -0.6509
  538MOL0     H74238   2.199   4.689   3.775  1.2485  0.1204  0.0148
  538MOL0     H74239   2.253   4.521   3.721 -0.9070  0.5341 -1.7101
  538MOL0     H74240   2.504   4.612   4.042  0.7888 -0.7715 -1.2477
  538MOL0     H74241   2.142   3.918   4.023 -0.6789 -5.2338  1.3582
  538MOL0     H74242   2.070   3.609   3.974 -0.7749 -0.3064  1.0070
  538MOL0     H74243   2.120   3.725   4.104  0.2378  0.2312  1.0032
  538MOL0     H74244   1.974   3.651   4.120 -0.8182  3.3942  0.6848
  539MOL0     O74245   4.845   4.433   9.283 -0.6720  0.0081 -0.2856
  539MOL0     C74246   4.825   4.500   9.380 -0.1525 -0.5293 -0.4950
  539MOL0     O74247   4.836   4.637   9.394 -0.9963  0.4483 -0.4228
  539MOL0     C74248   4.854   4.705   9.275 -0.5032 -1.1187  0.0319
  539MOL0     C74249   4.742   4.773   9.223  0.3302 -0.3035 -0.2424
  539MOL0     C74250   4.755   4.847   9.113 -0.3861  0.0758  0.2727
  539MOL0     C74251   4.885   4.863   9.056 -0.2481  0.5830  0.4787
  539MOL0     O74252   4.894   4.960   8.955  0.3377  0.0647 -0.9912
  539MOL0     C74253   5.008   4.977   8.875  0.3357 -0.5025 -1.0702
  539MOL0     C74254   4.992   5.095   8.787  0.7677  0.0035  0.4435
  539MOL0     C74255   5.119   5.144   8.725  0.1796 -0.4066  0.4830
  539MOL0     C74256   5.207   5.046   8.661 -0.3552  0.1332 -0.2204
  539MOL0     C74257   5.331   5.122   8.598 -0.7721 -0.3254  0.2304
  539MOL0     C74258   5.305   5.211   8.477 -0.2052 -0.3248  0.1317
  539MOL0     C74259   5.426   5.296   8.438 -0.3374  0.0976  0.1818
  539MOL0     C74260   5.550   5.216   8.400 -0.3039 -0.2654  0.5830
  539MOL0     N74261   5.663   5.302   8.387 -0.2088 -0.1675 -0.3131
  539MOL0     C74262   5.680   5.397   8.293 -0.6215 -0.3092  0.5924
  539MOL0     C74263   5.776   5.476   8.341  0.0617 -0.4174 -0.5450
  539MOL0     C74264   5.822   5.599   8.260 -0.0271 -0.0776  0.1839
  539MOL0     C74265   5.971   5.613   8.249  0.4344  0.3564  0.3677
  539MOL0     C74266   6.033   5.671   8.388  0.7116 -0.2985 -0.2793
  539MOL0     C74267   6.007   5.819   8.414 -0.0634 -0.0422  0.4028
  539MOL0     O74268   6.076   5.897   8.305  0.1960  0.0636  0.2219
  539MOL0     C74269   6.212   5.928   8.328  0.6504 -0.4451 -0.2392
  539MOL0     C74270   6.310   5.860   8.406 -0.1962  0.8108 -0.1790
  539MOL0     C74271   6.441   5.888   8.411 -0.2906 -0.5441  0.3857
  539MOL0     C74272   6.526   5.815   8.511 -1.0097 -0.1290 -0.5511
  539MOL0     C74273   6.487   5.996   8.330  0.2979  0.6565  0.3789
  539MOL0     C74274   6.628   6.032   8.319 -0.1222  0.3457 -0.4743
  539MOL0     O74275   6.694   6.030   8.195  0.0257 -0.3920 -0.4690
  539MOL0     C74276   6.819   6.078   8.172 -0.7747  0.2003  0.1367
  539MOL0     C74277   6.936   6.046   8.259 -0.2877  0.2106  0.8558
  539MOL0     C74278   7.054   6.111   8.246 -0.8225  0.1988  0.7797
  539MOL0     C74279   7.073   6.203   8.143  0.5984 -0.4575  0.4053
  539MOL0     O74280   7.197   6.255   8.117 -0.4027 -0.4398 -0.2740
  539MOL0     C74281   7.214   6.390   8.077 -0.2485 -0.1496 -0.0578
  539MOL0     C74282   7.277   6.475   8.192  0.1108  0.4027 -0.3996
  539MOL0     C74283   7.254   6.629   8.191  0.2873  0.6898  0.2026
  539MOL0     C74284   7.347   6.702   8.285  0.0769  0.1005  0.6790
  539MOL0     C74285   7.320   6.857   8.271  0.0207  0.0384 -0.5131
  539MOL0     C74286   7.375   6.933   8.397  0.1179  0.2071  0.4396
  539MOL0     C74287   7.532   6.932   8.420 -0.5211  0.5882 -1.5526
  539MOL0     C74288   7.616   6.945   8.294 -0.1923 -0.7676 -0.5302
  539MOL0    Cl74289   7.789   6.931   8.331 -0.2871  0.0898  0.1608
  539MOL0     C74290   6.964   6.226   8.059  0.5169 -0.3603  0.2713
  539MOL0     C74291   6.840   6.169   8.064 -0.2260  0.6882 -0.0402
  539MOL0     O74292   6.674   6.060   8.429 -0.2192  0.3015 -0.1795
  539MOL0     C74293   6.395   6.067   8.252 -1.1938 -0.1708 -0.3527
  539MOL0     C74294   6.257   6.042   8.253  0.0318  0.1396 -0.4475
  539MOL0     N74295   5.820   5.440   8.464 -0.2588 -0.0309  0.1495
  539MOL0     N74296   5.755   5.334   8.488  0.4511  0.4612 -0.5973
  539MOL0     C74297   4.993   4.791   9.109  0.7223 -0.5720 -0.4003
  539MOL0     C74298   4.983   4.716   9.223  0.0573 -0.3702  0.6895
  539MOL0     C74299   4.801   4.422   9.505  0.4214  0.7156  0.6373
  539MOL0     C74300   4.856   4.458   9.627 -0.7619  0.4637  0.2649
  539MOL0     C74301   4.834   4.375   9.743 -0.5952 -0.4592  0.4852
  539MOL0     C74302   4.749   4.265   9.737 -0.3669  0.7248 -0.1479
  539MOL0     O74303   4.746   4.175   9.843 -0.0792 -0.3617  0.5528
  539MOL0     C74304   4.661   4.235   9.941  0.6997  0.5277  0.7835
  539MOL0     C74305   4.612   4.118  10.015  0.3775  0.0964 -0.0163
  539MOL0     C74306   4.528   4.032   9.931 -0.1972 -0.4315 -0.1902
  539MOL0     C74307   4.392   3.977   9.995  0.0184 -0.2587 -0.2390
  539MOL0     C74308   4.403   3.937  10.130  0.4182 -0.6015  0.5414
  539MOL0     C74309   4.427   3.899  10.244 -0.9516  0.2133 -0.6469
  539MOL0     C74310   4.696   4.227   9.610 -0.5694 -0.0194  0.2825
  539MOL0     C74311   4.716   4.301   9.495 -0.1275 -0.4520  0.1768
  539MOL0     C74312   4.646   4.254   9.368 -0.0775 -0.4044 -1.1060
  539MOL0     H74313   4.644   4.743   9.260  0.8535 -2.6188 -0.5740
  539MOL0     H74314   4.667   4.890   9.066 -2.6196 -3.2659  1.0187
  539MOL0     H74315   5.024   4.885   8.819 -2.6050 -1.6460 -0.2190
  539MOL0     H74316   5.097   4.991   8.936  0.9630 -1.0538 -1.8315
  539MOL0     H74317   4.929   5.070   8.700  4.2202 -1.9707 -1.7022
  539MOL0     H74318   4.946   5.179   8.839 -0.3228  1.2641 -2.3290
  539MOL0     H74319   5.084   5.207   8.642  0.3467 -1.2413 -0.2287
  539MOL0     H74320   5.177   5.208   8.792  2.7308 -1.0984 -0.9619
  539MOL0     H74321   5.260   4.981   8.732  0.5843  1.1485  0.0440
  539MOL0     H74322   5.153   4.985   8.588 -1.6260  1.4126 -0.3793
  539MOL0     H74323   5.411   5.053   8.571 -0.8689 -0.0690 -0.7775
  539MOL0     H74324   5.371   5.188   8.675 -1.5472  0.7113 -0.2204
  539MOL0     H74325   5.295   5.140   8.394 -2.4786  2.3321 -2.0648
  539MOL0     H74326   5.212   5.268   8.488 -0.8778 -0.7462 -2.7312
  539MOL0     H74327   5.452   5.352   8.528 -1.7786  1.1315 -0.0089
  539MOL0     H74328   5.400   5.364   8.357  2.2519 -0.0540 -0.8747
  539MOL0     H74329   5.581   5.138   8.470 -0.0605 -1.3329 -0.6763
  539MOL0     H74330   5.522   5.178   8.302 -0.8770  4.9787 -1.6392
  539MOL0     H74331   5.631   5.412   8.197 -0.5328  0.5282  0.6721
  539MOL0     H74332   5.768   5.682   8.306 -1.7497 -2.5080  2.8500
  539MOL0     H74333   5.770   5.590   8.164 -1.2429 -0.2301  0.8373
  539MOL0     H74334   6.008   5.517   8.213 -1.3947 -0.1590 -0.2440
  539MOL0     H74335   6.000   5.681   8.168 -0.3440 -0.1643 -0.3596
  539MOL0     H74336   5.992   5.610   8.468 -0.3848 -0.4165 -0.9169
  539MOL0     H74337   6.141   5.658   8.378  0.9749 -0.9454  2.5295
  539MOL0     H74338   5.901   5.843   8.410 -0.2431 -0.8975 -0.1820
  539MOL0     H74339   6.055   5.841   8.510  0.5546 -2.6053  0.7607
  539MOL0     H74340   6.290   5.767   8.459  1.1458  0.4317 -0.2922
  539MOL0     H74341   6.491   5.713   8.526  1.6032 -0.9595  0.2698
  539MOL0     H74342   6.510   5.853   8.612 -1.2453  3.2956 -1.7147
  539MOL0     H74343   6.631   5.811   8.483 -1.4643  0.6604 -2.5473
  539MOL0     H74344   6.918   5.976   8.340 -3.2375  0.5485  0.6254
  539MOL0     H74345   7.132   6.113   8.321 -2.4509  1.0633  2.5313
  539MOL0     H74346   7.286   6.401   7.995  0.3893  0.7465  0.6030
  539MOL0     H74347   7.118   6.432   8.048 -0.1716 -2.0288 -3.6307
  539MOL0     H74348   7.240   6.447   8.291 -2.2769  2.7255 -0.5035
  539MOL0     H74349   7.385   6.459   8.188  0.0009 -0.0293 -2.8437
  539MOL0     H74350   7.151   6.637   8.226 -0.0764 -0.2794 -0.5892
  539MOL0     H74351   7.263   6.673   8.091 -0.1451  2.2854  0.8418
  539MOL0     H74352   7.452   6.678   8.267  0.1601 -0.0461  1.3461
  539MOL0     H74353   7.328   6.670   8.387  1.4231  0.5499  1.0904
  539MOL0     H74354   7.361   6.887   8.175  1.2041 -2.0400 -0.7294
  539MOL0     H74355   7.212   6.873   8.262  0.0376  0.4177 -0.1047
  539MOL0     H74356   7.325   6.886   8.482 -0.0034 -0.2880  0.1010
  539MOL0     H74357   7.346   7.039   8.387  0.2606  0.4789  2.5803
  539MOL0     H74358   7.543   6.836   8.470 -2.3970  0.9293 -0.3766
  539MOL0     H74359   7.562   7.010   8.490  0.4797 -0.8429 -0.3256
  539MOL0     H74360   7.590   7.044   8.256 -1.4509 -1.0478 -0.4465
  539MOL0     H74361   7.601   6.875   8.211 -0.2622 -2.0906  0.5640
  539MOL0     H74362   6.985   6.289   7.973 -1.4600 -0.8362 -0.6196
  539MOL0     H74363   6.762   6.187   7.990 -0.3468 -1.1348 -0.3993
  539MOL0     H74364   6.422   6.146   8.183  0.3131 -2.2208 -2.2758
  539MOL0     H74365   6.181   6.097   8.198 -1.9112 -0.7084  1.2651
  539MOL0     H74366   5.092   4.800   9.064  0.8981 -0.3913  0.0140
  539MOL0     H74367   5.068   4.675   9.277  0.1174 -2.0809 -0.6209
  539MOL0     H74368   4.913   4.550   9.638 -2.6174  1.6117  0.6074
  539MOL0     H74369   4.876   4.393   9.841 -0.6217  2.2686  0.0584
  539MOL0     H74370   4.716   4.301  10.009  3.0069  1.4373 -1.7720
  539MOL0     H74371   4.580   4.298   9.902 -1.5740 -2.6291 -0.0262
  539MOL0     H74372   4.545   4.160  10.091  0.8236  0.7637  0.0141
  539MOL0     H74373   4.682   4.066  10.081 -1.1464 -2.0614  0.0077
  539MOL0     H74374   4.505   4.086   9.839 -1.2507 -0.0157  0.2947
  539MOL0     H74375   4.589   3.945   9.908 -0.9311 -0.7736 -0.9009
  539MOL0     H74376   4.358   3.897   9.929  1.2041 -0.1472 -1.0235
  539MOL0     H74377   4.325   4.062  10.014  0.1578  0.1550 -1.5018
  539MOL0     H74378   4.461   3.848  10.331  0.4903  0.9750 -0.7266
  539MOL0     H74379   4.640   4.135   9.608 -0.4688 -0.0700 -0.4797
  539MOL0     H74380   4.593   4.161   9.391  1.4433 -1.4656 -1.7570
  539MOL0     H74381   4.565   4.319   9.333  0.5139  2.3181  2.0657
  539MOL0     H74382   4.730   4.242   9.300  3.5163  2.6246  2.2487
  540MOL0     O74383   5.735   1.442   9.202 -0.2846  0.5813 -0.0875
  540MOL0     C74384   5.717   1.556   9.235 -0.3362 -0.4376  0.0485
  540MOL0     O74385   5.734   1.657   9.151  0.5476  0.2040 -0.7661
  540MOL0     C74386   5.847   1.662   9.068 -0.0030  0.5770  0.9944
  540MOL0     C74387   5.953   1.573   9.069  0.7472  0.4048  0.3277
  540MOL0     C74388   6.067   1.585   8.981 -0.4525 -0.3855  0.5876
  540MOL0     C74389   6.074   1.698   8.901  1.0584  0.2043 -0.2145
  540MOL0     O74390   6.171   1.730   8.812  0.0618 -0.5013  1.1195
  540MOL0     C74391   6.290   1.651   8.790  0.1103 -0.0847  0.9473
  540MOL0     C74392   6.371   1.724   8.676  0.3544  1.2928 -0.2576
  540MOL0     C74393   6.516   1.674   8.646  0.5334 -0.0881  0.0150
  540MOL0     C74394   6.535   1.522   8.603 -0.2173 -0.5118 -0.3062
  540MOL0     C74395   6.678   1.469   8.619 -0.1191  0.7264  0.0527
  540MOL0     C74396   6.778   1.535   8.527  0.1071  1.2462 -0.9409
  540MOL0     C74397   6.912   1.456   8.519 -0.3603  0.1927  0.4167
  540MOL0     C74398   7.026   1.550   8.470  0.4209  0.2640 -0.1184
  540MOL0     N74399   7.141   1.476   8.432  0.0738  0.5312 -0.0899
  540MOL0     C74400   7.188   1.458   8.305 -0.3842  0.5502 -0.0406
  540MOL0     C74401   7.317   1.420   8.315 -0.4791  0.0068  0.0486
  540MOL0     C74402   7.399   1.377   8.196  0.7039 -0.9088  0.8894
  540MOL0     C74403   7.540   1.353   8.242 -0.1222  0.8134 -0.7488
  540MOL0     C74404   7.629   1.377   8.123  0.5769  0.8669 -0.3007
  540MOL0     C74405   7.767   1.321   8.131  0.6064 -0.4214 -0.3019
  540MOL0     O74406   7.825   1.363   8.006 -0.2614 -1.4592 -0.1889
  540MOL0     C74407   7.962   1.364   7.974  0.5004  0.2243  0.5935
  540MOL0     C74408   8.008   1.404   7.849 -0.0699  0.8264  0.1472
  540MOL0     C74409   8.144   1.420   7.811 -0.6826  0.5871 -0.5569
  540MOL0     C74410   8.176   1.466   7.678  0.2375  0.2364 -0.5273
  540MOL0     C74411   8.240   1.377   7.909 -0.6656 -0.2111  0.3007
  540MOL0     C74412   8.390   1.391   7.895 -1.0343 -0.6665  0.2443
  540MOL0     O74413   8.470   1.283   7.924 -0.4808  0.1459 -0.1909
  540MOL0     C74414   8.605   1.267   7.888  0.0384 -0.0429  1.2407
  540MOL0     C74415   8.652   1.131   7.878 -0.5393 -0.1311  0.3737
  540MOL0     C74416   8.787   1.097   7.859 -0.2924 -0.1346 -0.0274
  540MOL0     C74417   8.878   1.202   7.837 -0.0935  1.3631 -0.5274
  540MOL0     O74418   9.005   1.155   7.802  0.1545  0.1683  0.6779
  540MOL0     C74419   9.123   1.240   7.808  0.2305 -0.1545 -0.3875
  540MOL0     C74420   9.203   1.225   7.941  1.0629  0.2505 -0.6475
  540MOL0     C74421   9.322   1.316   7.937  0.3118  1.0776  0.2847
  540MOL0     C74422   9.434   1.302   8.042  0.3049  0.3645  0.1320
  540MOL0     C74423   9.530   1.421   8.052 -0.6190 -0.3904 -0.3939
  540MOL0     C74424   9.650   1.389   8.138 -0.0123 -0.6625 -0.2076
  540MOL0     C74425   9.753   1.508   8.132 -0.5812  0.1863  0.0171
  540MOL0     C74426   9.887   1.457   8.180 -0.2278 -0.1522 -0.3155
  540MOL0    Cl74427   9.966   1.377   8.063  0.2546  0.0594  0.0077
  540MOL0     C74428   8.836   1.333   7.842 -0.0301 -0.0836  0.3826
  540MOL0     C74429   8.702   1.369   7.870 -0.5746  0.0411 -0.2132
  540MOL0     O74430   8.425   1.485   7.826 -0.2089 -0.5360 -0.6972
  540MOL0     C74431   8.191   1.334   8.032 -0.1954 -0.8436 -0.3415
  540MOL0     C74432   8.058   1.328   8.061  1.0901  0.3788  0.0700
  540MOL0     N74433   7.344   1.420   8.450 -1.1077  0.0236  0.6389
  540MOL0     N74434   7.238   1.444   8.516 -0.4952  0.2051  0.0172
  540MOL0     C74435   5.968   1.783   8.897  0.1027 -1.0134  0.2358
  540MOL0     C74436   5.856   1.767   8.978 -0.4678  0.3103  0.3198
  540MOL0     C74437   5.700   1.594   9.383 -0.0893  0.3486 -0.3637
  540MOL0     C74438   5.718   1.727   9.413 -0.2317 -0.4170 -0.7986
  540MOL0     C74439   5.686   1.773   9.544 -0.7226 -0.5769 -0.4913
  540MOL0     C74440   5.652   1.688   9.649 -0.7793  0.1489 -0.4412
  540MOL0     O74441   5.636   1.726   9.779 -0.3337 -0.5473 -0.1953
  540MOL0     C74442   5.602   1.862   9.807  0.0806  0.4307  0.3521
  540MOL0     C74443   5.735   1.944   9.827  0.2978  0.2267  0.9381
  540MOL0     C74444   5.714   2.096   9.864  0.2224 -0.0324 -0.4792
  540MOL0     C74445   5.739   2.190   9.753 -0.3179 -0.3294 -0.4300
  540MOL0     C74446   5.887   2.185   9.728  0.2915 -1.0139 -0.2555
  540MOL0     C74447   6.008   2.188   9.701 -1.0603  0.8762 -0.2814
  540MOL0     C74448   5.619   1.553   9.613  0.4931  0.4252  0.4922
  540MOL0     C74449   5.654   1.504   9.489 -0.6506 -0.4245  1.1067
  540MOL0     C74450   5.623   1.365   9.473  0.2656  0.9610 -0.6624
  540MOL0     H74451   5.961   1.488   9.136  3.9539  0.5323  0.2975
  540MOL0     H74452   6.147   1.512   8.968  3.5907  3.9666 -2.9284
  540MOL0     H74453   6.266   1.548   8.761 -1.4466  0.9091 -1.6577
  540MOL0     H74454   6.360   1.669   8.871  1.6266  1.2350 -0.5783
  540MOL0     H74455   6.309   1.726   8.586 -0.3767 -1.3648  0.0977
  540MOL0     H74456   6.384   1.831   8.698  3.3972  0.7846  0.9029
  540MOL0     H74457   6.556   1.739   8.567  1.2698  0.1962  0.6102
  540MOL0     H74458   6.577   1.688   8.736  1.8986 -1.2424 -0.6928
  540MOL0     H74459   6.478   1.459   8.671  0.0394  1.4602  1.8617
  540MOL0     H74460   6.511   1.504   8.498 -0.5308  0.1206 -0.3507
  540MOL0     H74461   6.687   1.363   8.595 -1.6249  0.6594 -0.3246
  540MOL0     H74462   6.704   1.473   8.725  1.3977 -2.2001 -0.1282
  540MOL0     H74463   6.727   1.535   8.431 -0.8715 -1.2454 -0.4928
  540MOL0     H74464   6.803   1.632   8.571  0.3256 -0.0823  2.1984
  540MOL0     H74465   6.901   1.378   8.443  2.4199  0.7939 -0.7387
  540MOL0     H74466   6.937   1.402   8.610  0.1506  0.5095  0.4716
  540MOL0     H74467   6.985   1.600   8.382 -0.0615  0.9852  0.5057
  540MOL0     H74468   7.040   1.628   8.545  0.4438  1.1589 -1.0355
  540MOL0     H74469   7.140   1.464   8.208  1.5515 -0.6418 -1.1294
  540MOL0     H74470   7.396   1.461   8.126  1.8666  0.0009  1.8912
  540MOL0     H74471   7.367   1.285   8.146  0.2367 -0.2883  0.0234
  540MOL0     H74472   7.575   1.426   8.316 -0.8862  0.1182  0.3263
  540MOL0     H74473   7.555   1.251   8.279 -4.3839  0.1236 -0.4148
  540MOL0     H74474   7.579   1.329   8.038 -1.5312  1.9406  0.2496
  540MOL0     H74475   7.634   1.480   8.085 -0.3861  0.7281 -0.8430
  540MOL0     H74476   7.819   1.356   8.220 -1.2335 -0.5399  0.8855
  540MOL0     H74477   7.766   1.212   8.126 -0.1206 -0.3736 -1.5776
  540MOL0     H74478   7.935   1.412   7.769  1.4069 -4.5117 -2.1710
  540MOL0     H74479   8.245   1.397   7.630  0.1047 -0.3596  0.1313
  540MOL0     H74480   8.228   1.562   7.684 -2.1636  1.6365 -0.7076
  540MOL0     H74481   8.089   1.488   7.616 -0.9019 -1.6966  0.3095
  540MOL0     H74482   8.577   1.054   7.895  0.6435 -2.1083 -2.4380
  540MOL0     H74483   8.822   0.994   7.859 -1.9439 -0.7667  1.5408
  540MOL0     H74484   9.182   1.204   7.723  1.6687 -2.4174  1.4144
  540MOL0     H74485   9.090   1.342   7.791 -0.2979 -0.6526 -2.6671
  540MOL0     H74486   9.127   1.249   8.016  0.4213  1.2440 -1.5726
  540MOL0     H74487   9.228   1.119   7.944 -2.9719 -0.8385 -0.6496
  540MOL0     H74488   9.289   1.420   7.937 -3.3074  0.1270  2.2575
  540MOL0     H74489   9.375   1.301   7.843 -0.8871 -2.5444  0.0382
  540MOL0     H74490   9.495   1.214   8.021 -0.2505 -0.1438  0.6279
  540MOL0     H74491   9.392   1.297   8.143  3.7253  0.6644  1.7433
  540MOL0     H74492   9.560   1.452   7.952 -2.4034 -0.3099 -0.9529
  540MOL0     H74493   9.484   1.509   8.099  0.5537  3.4037 -5.5041
  540MOL0     H74494   9.704   1.314   8.079  2.0303  0.0234  0.6996
  540MOL0     H74495   9.626   1.364   8.242 -4.2503  2.5047 -0.1945
  540MOL0     H74496   9.725   1.596   8.190 -0.3924  1.4589 -1.7457
  540MOL0     H74497   9.764   1.544   8.029  0.4540 -1.2431 -0.4176
  540MOL0     H74498   9.877   1.389   8.265  0.9779 -1.1979 -0.9761
  540MOL0     H74499   9.951   1.540   8.212 -1.6213  0.6261  0.5866
  540MOL0     H74500   8.906   1.414   7.826 -0.9577  0.5498 -0.6154
  540MOL0     H74501   8.681   1.476   7.868  0.2351  0.2419  0.9603
  540MOL0     H74502   8.267   1.306   8.104 -0.3828  1.5996  0.8925
  540MOL0     H74503   8.035   1.288   8.160 -2.4732  0.8975 -0.3986
  540MOL0     H74504   5.987   1.879   8.851  1.5236  0.4440  3.5184
  540MOL0     H74505   5.783   1.846   8.996  0.8378  1.4975  0.5745
  540MOL0     H74506   5.754   1.804   9.347  2.0674 -1.1534 -0.4918
  540MOL0     H74507   5.704   1.877   9.568 -1.5512 -0.6985  0.7125
  540MOL0     H74508   5.539   1.896   9.725 -0.5745  0.0497  0.6912
  540MOL0     H74509   5.542   1.864   9.899  0.2815 -0.2919  0.5050
  540MOL0     H74510   5.814   1.933   9.752  1.2307 -0.3990  1.9822
  540MOL0     H74511   5.780   1.901   9.917  3.8633  1.6294 -0.0218
  540MOL0     H74512   5.606   2.093   9.882 -0.2436 -3.6902 -2.8761
  540MOL0     H74513   5.766   2.131   9.955  0.0561 -0.2329 -0.3061
  540MOL0     H74514   5.703   2.289   9.785  1.5271 -0.1337  1.2661
  540MOL0     H74515   5.695   2.147   9.663 -0.0487 -2.7275  0.5199
  540MOL0     H74516   6.113   2.181   9.681 -0.9413 -0.6480  0.6575
  540MOL0     H74517   5.572   1.495   9.692 -0.4900 -1.9823 -1.7277
  540MOL0     H74518   5.717   1.309   9.478 -0.9985 -1.2278  0.9264
  540MOL0     H74519   5.559   1.319   9.549 -0.2665  1.3626 -0.8663
  540MOL0     H74520   5.571   1.341   9.380  1.7456 -2.7947 -0.7089
  541MOL0     O74521   6.533   2.389   5.511 -0.0563 -0.0768 -0.3225
  541MOL0     C74522   6.557   2.504   5.476 -1.2851 -0.7060 -0.6836
  541MOL0     O74523   6.681   2.550   5.435 -0.3642 -0.3736 -0.7895
  541MOL0     C74524   6.785   2.457   5.437  0.1719 -0.0262 -0.6870
  541MOL0     C74525   6.780   2.331   5.374 -0.5962 -0.1152 -0.2826
  541MOL0     C74526   6.895   2.252   5.370 -0.2922  0.2367  1.0749
  541MOL0     C74527   7.010   2.290   5.431 -0.9004 -1.1260 -0.2439
  541MOL0     O74528   7.125   2.206   5.435  0.3020 -0.6858 -0.0505
  541MOL0     C74529   7.107   2.103   5.537 -0.0930 -0.0779  0.3949
  541MOL0     C74530   7.253   2.052   5.562 -0.1927 -0.2077 -0.0250
  541MOL0     C74531   7.348   2.169   5.605  0.5278  0.5398 -0.3820
  541MOL0     C74532   7.487   2.120   5.640 -0.6216 -0.8958 -0.4432
  541MOL0     C74533   7.587   2.235   5.640 -0.0640 -0.0061  0.2290
  541MOL0     C74534   7.561   2.323   5.763  0.1613  0.7503  0.7742
  541MOL0     C74535   7.645   2.449   5.768  0.3591 -0.6813 -0.0938
  541MOL0     C74536   7.799   2.439   5.764  0.0793  0.2175 -0.2008
  541MOL0     N74537   7.854   2.341   5.858  0.3455  0.9161  0.0349
  541MOL0     C74538   7.846   2.336   5.993  0.3020  0.6490 -0.1193
  541MOL0     C74539   7.903   2.220   6.038 -0.5652 -0.4035  0.0894
  541MOL0     C74540   7.911   2.169   6.184  0.1378  0.4473  1.2179
  541MOL0     C74541   8.008   2.248   6.276 -0.6764  1.2432  1.7256
  541MOL0     C74542   8.156   2.209   6.234 -0.1876  0.1834  0.5147
  541MOL0     C74543   8.258   2.250   6.349 -0.4686 -0.2470  0.5384
  541MOL0     O74544   8.256   2.402   6.369 -0.5448  0.5319  0.4999
  541MOL0     C74545   8.369   2.462   6.421 -0.4865  0.8236 -0.0753
  541MOL0     C74546   8.390   2.589   6.378 -0.0439  0.4642  0.1210
  541MOL0     C74547   8.498   2.660   6.427  0.5083 -0.3123  0.2233
  541MOL0     C74548   8.490   2.807   6.384  0.5727 -0.2920 -0.6992
  541MOL0     C74549   8.594   2.604   6.523  0.0993  0.2095  0.2893
  541MOL0     C74550   8.698   2.685   6.592 -0.2417 -0.8062  0.3771
  541MOL0     O74551   8.753   2.787   6.524  0.2537  0.2271 -0.3872
  541MOL0     C74552   8.874   2.832   6.580  1.0537 -0.4471 -0.5164
  541MOL0     C74553   8.878   2.957   6.634  0.1331  0.0836 -0.4540
  541MOL0     C74554   8.996   3.000   6.692  0.6117 -0.1444  0.5602
  541MOL0     C74555   9.106   2.925   6.693 -0.2715 -0.6797 -1.2304
  541MOL0     O74556   9.213   2.990   6.742 -1.1198  0.3581 -0.0354
  541MOL0     C74557   9.344   2.913   6.749 -0.9061 -0.3039  0.2331
  541MOL0     C74558   9.345   2.807   6.863 -0.4744  0.0908  0.0680
  541MOL0     C74559   9.486   2.762   6.902 -0.1653 -0.4563  1.3267
  541MOL0     C74560   9.557   2.679   6.798  0.7028  0.5791 -0.4209
  541MOL0     C74561   9.696   2.636   6.853 -0.0948 -0.1741 -0.7531
  541MOL0     C74562   9.774   2.560   6.739  0.0699 -1.4205 -0.8374
  541MOL0     C74563   9.918   2.552   6.790  0.0282  0.3455 -0.1644
  541MOL0     C74564   9.935   2.459   6.908  0.3452 -0.0018  0.7708
  541MOL0    Cl74565  10.107   2.400   6.927 -0.2702  0.0565 -0.1162
  541MOL0     C74566   9.107   2.805   6.622  0.3407  0.2463 -0.0941
  541MOL0     C74567   8.996   2.756   6.559  0.1528  0.2124  0.6147
  541MOL0     O74568   8.735   2.642   6.701  0.4671  0.0336 -0.1061
  541MOL0     C74569   8.577   2.467   6.565  0.4232  0.1625 -0.0828
  541MOL0     C74570   8.464   2.398   6.503 -0.9984  0.3295 -0.4039
  541MOL0     N74571   7.947   2.158   5.926  0.2227 -0.3260  0.8830
  541MOL0     N74572   7.914   2.229   5.821  0.1457 -0.0297  0.5636
  541MOL0     C74573   7.020   2.409   5.489 -0.8554 -0.0580 -0.4634
  541MOL0     C74574   6.910   2.493   5.499  0.3594 -0.0945  1.0792
  541MOL0     C74575   6.452   2.613   5.492 -0.0981  0.6360 -0.0280
  541MOL0     C74576   6.495   2.752   5.501  0.3872 -0.9712 -0.6608
  541MOL0     C74577   6.399   2.856   5.505  0.0612  0.1369  0.2949
  541MOL0     C74578   6.264   2.827   5.522 -0.0990  0.3329 -0.1148
  541MOL0     O74579   6.170   2.925   5.532 -0.3270  0.0405  0.7177
  541MOL0     C74580   6.175   2.991   5.662 -0.6450  0.0522 -0.3269
  541MOL0     C74581   6.070   2.940   5.763 -1.3544 -0.2437  0.7139
  541MOL0     C74582   6.116   2.808   5.829  0.1864  0.0209 -0.5992
  541MOL0     C74583   6.000   2.753   5.913 -1.1251  0.1395  0.0757
  541MOL0     C74584   5.862   2.743   5.848 -0.0762 -0.1750 -0.0523
  541MOL0     C74585   5.748   2.731   5.803 -0.3503  0.1331  0.4654
  541MOL0     C74586   6.221   2.697   5.521  0.0318 -0.2113 -0.4025
  541MOL0     C74587   6.316   2.590   5.502  0.4506 -0.8170 -0.0846
  541MOL0     C74588   6.253   2.455   5.503 -0.3753 -0.2105  0.2170
  541MOL0     H74589   6.698   2.301   5.310  0.8034  0.3050 -2.3937
  541MOL0     H74590   6.901   2.169   5.300  1.2115 -1.8038  3.4849
  541MOL0     H74591   7.043   2.025   5.496  0.3222 -1.0749  1.5571
  541MOL0     H74592   7.067   2.133   5.634  0.8895 -0.6579  0.9949
  541MOL0     H74593   7.256   1.977   5.641  0.1735  1.6552  1.8327
  541MOL0     H74594   7.298   1.996   5.480  0.3418  1.6021 -1.0290
  541MOL0     H74595   7.359   2.253   5.536  2.1055  0.8508  0.2048
  541MOL0     H74596   7.305   2.223   5.691 -0.1549 -0.6780  0.0703
  541MOL0     H74597   7.492   2.067   5.736 -1.3381  0.8921  0.6339
  541MOL0     H74598   7.515   2.039   5.572  0.3194 -1.7567  0.9176
  541MOL0     H74599   7.571   2.293   5.548  4.0125 -0.5695 -1.0842
  541MOL0     H74600   7.688   2.192   5.638  0.4567  1.0872 -2.4462
  541MOL0     H74601   7.457   2.356   5.754 -0.3062 -1.0494 -1.3373
  541MOL0     H74602   7.577   2.262   5.852  0.1664 -2.8245 -1.4829
  541MOL0     H74603   7.612   2.500   5.859 -3.2055  0.7144 -2.0025
  541MOL0     H74604   7.623   2.512   5.681 -0.2240 -1.1272 -0.2655
  541MOL0     H74605   7.829   2.403   5.665  0.1388  0.5507 -0.3066
  541MOL0     H74606   7.845   2.538   5.771  1.4340 -0.2880 -1.5717
  541MOL0     H74607   7.789   2.404   6.056  0.4235  1.1887 -0.5854
  541MOL0     H74608   7.935   2.064   6.166 -0.6528  0.6624 -1.5544
  541MOL0     H74609   7.809   2.163   6.223 -0.2148 -0.4143  0.2269
  541MOL0     H74610   8.000   2.357   6.267 -2.4335  1.0469  0.3727
  541MOL0     H74611   7.993   2.220   6.380  0.6676 -3.3129  0.9039
  541MOL0     H74612   8.163   2.101   6.220  4.6293  0.3364 -0.2514
  541MOL0     H74613   8.195   2.259   6.144  4.2874 -2.5551  0.5986
  541MOL0     H74614   8.227   2.206   6.444 -1.7013  1.5915  1.0209
  541MOL0     H74615   8.359   2.215   6.324 -0.1304 -0.1812  1.7781
  541MOL0     H74616   8.312   2.634   6.318  1.1870 -0.7800 -2.6336
  541MOL0     H74617   8.392   2.847   6.357  0.7747  0.9478  0.3335
  541MOL0     H74618   8.561   2.823   6.302  0.0111 -0.7493 -1.2908
  541MOL0     H74619   8.518   2.876   6.464 -0.6028 -1.2636  0.5893
  541MOL0     H74620   8.778   3.000   6.630 -0.9828 -1.9313  2.5721
  541MOL0     H74621   8.999   3.095   6.744 -0.3135 -0.4349  1.1689
  541MOL0     H74622   9.370   2.865   6.654  2.8103  1.6498  0.0797
  541MOL0     H74623   9.423   2.989   6.756  0.3633 -1.4554 -0.8825
  541MOL0     H74624   9.298   2.852   6.951  2.5585  1.0069  1.3757
  541MOL0     H74625   9.293   2.718   6.826  0.5458  0.2734 -1.9628
  541MOL0     H74626   9.487   2.699   6.991 -1.5806 -0.6526  1.2211
  541MOL0     H74627   9.544   2.853   6.922  2.1159  0.2002 -5.5125
  541MOL0     H74628   9.560   2.729   6.701 -0.0499 -2.9227 -2.4421
  541MOL0     H74629   9.499   2.587   6.781 -1.3607  1.3674  1.7796
  541MOL0     H74630   9.755   2.724   6.881  1.0270 -0.9992 -0.4836
  541MOL0     H74631   9.684   2.584   6.949 -1.0024 -1.7623 -1.6858
  541MOL0     H74632   9.777   2.626   6.653  0.9112  0.3385  0.4794
  541MOL0     H74633   9.731   2.460   6.722 -2.0794 -0.7945  0.4567
  541MOL0     H74634   9.949   2.655   6.810 -3.1389  1.4085 -0.2743
  541MOL0     H74635   9.970   2.512   6.702 -1.4343 -0.4591 -0.7068
  541MOL0     H74636   9.886   2.363   6.891  1.1209 -0.4324  0.9070
  541MOL0     H74637   9.899   2.511   6.998  0.9618  0.9886  0.4583
  541MOL0     H74638   9.202   2.753   6.621  0.9496  1.3367 -0.3479
  541MOL0     H74639   8.994   2.668   6.495 -0.2849  0.9332 -0.3937
  541MOL0     H74640   8.650   2.420   6.630  2.1274  0.6933 -1.5360
  541MOL0     H74641   8.443   2.293   6.519  0.0458 -0.0189 -1.1998
  541MOL0     H74642   7.110   2.433   5.545 -1.0358 -2.2502  0.9019
  541MOL0     H74643   6.905   2.590   5.548  1.3623  1.1115 -1.0386
  541MOL0     H74644   6.598   2.782   5.487 -0.3637  0.5334 -3.7565
  541MOL0     H74645   6.429   2.960   5.516 -1.6992  0.7591 -0.4072
  541MOL0     H74646   6.278   2.986   5.699 -0.0746  1.1225 -1.6713
  541MOL0     H74647   6.162   3.099   5.649  1.9500  0.3398 -1.2001
  541MOL0     H74648   5.977   2.928   5.706 -2.1443  0.9615  1.7056
  541MOL0     H74649   6.057   3.018   5.838  0.1500 -1.0188  1.8299
  541MOL0     H74650   6.156   2.736   5.757 -1.3740 -0.8019 -0.6917
  541MOL0     H74651   6.199   2.826   5.898 -0.9490  1.4244  0.4504
  541MOL0     H74652   5.987   2.815   6.002 -0.5711  1.7401 -0.9066
  541MOL0     H74653   6.029   2.652   5.942 -0.1421  0.2729 -0.3851
  541MOL0     H74654   5.646   2.724   5.770 -0.3775  0.0696  0.5605
  541MOL0     H74655   6.115   2.680   5.512 -0.2229  1.7581 -1.4434
  541MOL0     H74656   6.148   2.456   5.532 -0.6627  0.4407 -0.8021
  541MOL0     H74657   6.254   2.417   5.400 -0.5634 -1.2611  0.5896
  541MOL0     H74658   6.296   2.392   5.582 -0.1813  1.0436  1.1404
  542MOL0     O74659   7.019  10.998   9.050 -0.3446 -0.4432 -0.7128
  542MOL0     C74660   6.965  10.901   8.999 -0.6161 -1.1594  0.2845
  542MOL0     O74661   7.029  10.789   8.954 -0.0777 -0.5382  0.3131
  542MOL0     C74662   7.164  10.806   8.927  0.7437  0.1830 -0.5399
  542MOL0     C74663   7.255  10.786   9.026 -0.4308  1.6487 -0.3076
  542MOL0     C74664   7.395  10.796   9.001  0.4074 -0.5592 -0.4624
  542MOL0     C74665   7.442  10.830   8.872 -0.1045 -0.1494 -0.4034
  542MOL0     O74666   7.578  10.829   8.852 -0.4508  0.3285  0.4153
  542MOL0     C74667   7.628  10.896   8.735  0.5139  0.3754 -0.1957
  542MOL0     C74668   7.778  10.906   8.742 -1.0313 -0.3632  0.1257
  542MOL0     C74669   7.833  11.020   8.652  1.2367  0.5673 -0.3016
  542MOL0     C74670   7.976  11.042   8.685  0.8334 -0.1206 -0.5726
  542MOL0     C74671   8.027  11.154   8.600 -0.8114  0.0231  0.6150
  542MOL0     C74672   8.171  11.174   8.659 -0.0980  0.1871 -0.5026
  542MOL0     C74673   8.228  11.301   8.596 -0.4584 -0.1254  0.7766
  542MOL0     C74674   8.198  11.434   8.669  1.5249  0.8660 -0.0580
  542MOL0     N74675   8.246  11.547   8.588  0.1808  0.5900  0.4320
  542MOL0     C74676   8.177  11.591   8.483  0.3738 -0.4447 -0.0847
  542MOL0     C74677   8.246  11.705   8.449 -0.1040  0.1709  0.0548
  542MOL0     C74678   8.231  11.783   8.321 -0.2038  0.4172 -0.9177
  542MOL0     C74679   8.091  11.806   8.282 -1.3735  0.4303  0.1497
  542MOL0     C74680   8.003  11.868   8.392 -0.4191 -0.5688  0.8059
  542MOL0     C74681   7.854  11.861   8.360 -0.5107 -0.0191  0.2397
  542MOL0     O74682   7.832  11.927   8.236 -0.4078 -0.2319 -0.5283
  542MOL0     C74683   7.712  11.924   8.175 -0.1891 -0.0852 -0.4193
  542MOL0     C74684   7.705  11.990   8.049  0.2889  0.2953  0.3587
  542MOL0     C74685   7.589  11.988   7.973  0.6705  0.1020  0.6180
  542MOL0     C74686   7.595  12.033   7.828  1.6601  0.6132 -0.3146
  542MOL0     C74687   7.464  11.937   8.023 -0.9013 -0.0348 -0.8375
  542MOL0     C74688   7.335  11.937   7.957 -0.1832 -0.1648 -0.5066
  542MOL0     O74689   7.329  11.861   7.852 -1.1495  0.7121 -0.3811
  542MOL0     C74690   7.223  11.859   7.772 -0.7797 -0.7220  0.9151
  542MOL0     C74691   7.206  11.968   7.687 -0.2858 -0.3083  0.2149
  542MOL0     C74692   7.122  11.961   7.580 -0.0146 -0.0821  0.3399
  542MOL0     C74693   7.036  11.857   7.558 -0.8307  0.4237 -0.0421
  542MOL0     O74694   6.924  11.846   7.480  0.5650  0.4263 -0.5889
  542MOL0     C74695   6.873  11.960   7.415 -0.5507  0.7025  0.0276
  542MOL0     C74696   6.813  12.057   7.520  0.2050  0.3869 -0.2766
  542MOL0     C74697   6.708  12.146   7.452 -0.0357 -0.7640 -0.9741
  542MOL0     C74698   6.655  12.237   7.562 -0.4534  0.9001  0.3728
  542MOL0     C74699   6.568  12.347   7.492  0.5816 -0.6400 -0.0846
  542MOL0     C74700   6.516  12.456   7.580  0.3186 -0.3232  0.4048
  542MOL0     C74701   6.429  12.560   7.504  0.1040  0.2062 -0.6080
  542MOL0     C74702   6.398  12.684   7.582  0.3318  0.0846 -0.0508
  542MOL0    Cl74703   6.545  12.781   7.631  0.7119 -0.2080 -0.1298
  542MOL0     C74704   7.057  11.743   7.631  0.4187  0.0531  0.1898
  542MOL0     C74705   7.152  11.741   7.742  0.0547 -0.2431  0.0040
  542MOL0     O74706   7.240  12.015   7.998 -0.1441  0.5689 -0.6094
  542MOL0     C74707   7.479  11.876   8.150  0.0104 -0.4579  0.4542
  542MOL0     C74708   7.596  11.878   8.232  0.5021 -0.8766 -0.2767
  542MOL0     N74709   8.342  11.733   8.543  0.5336  0.0848 -0.1877
  542MOL0     N74710   8.341  11.633   8.621  0.6085 -0.2739 -0.6271
  542MOL0     C74711   7.343  10.834   8.775  0.0408  0.4768  1.0040
  542MOL0     C74712   7.203  10.825   8.806  0.1428  0.3130  0.0983
  542MOL0     C74713   6.813  10.907   8.972 -0.8476 -0.8675  0.0089
  542MOL0     C74714   6.757  10.820   8.873 -0.3500  0.4325 -0.7108
  542MOL0     C74715   6.621  10.808   8.861 -0.4621 -0.4954  0.3363
  542MOL0     C74716   6.531  10.883   8.945 -0.4663  0.0925  0.3926
  542MOL0     O74717   6.399  10.861   8.933  0.2840  0.2951  0.3613
  542MOL0     C74718   6.294  10.908   9.017 -0.1413  0.6965 -0.6658
  542MOL0     C74719   6.241  11.030   8.947  1.2114 -0.0203 -0.1849
  542MOL0     C74720   6.153  10.987   8.822 -0.7791  0.2735 -0.3677
  542MOL0     C74721   6.109  11.109   8.728  0.2057  0.5065  0.7046
  542MOL0     C74722   6.072  11.226   8.811 -0.0899  0.2116 -1.2636
  542MOL0     C74723   6.049  11.326   8.884 -0.5441  0.1683  0.0741
  542MOL0     C74724   6.593  10.971   9.032 -0.2643  0.5657 -0.2188
  542MOL0     C74725   6.731  10.987   9.053  0.5492 -0.4389  1.1878
  542MOL0     C74726   6.778  11.084   9.155 -0.2814  1.1937  0.4007
  542MOL0     H74727   7.215  10.765   9.125  1.2095  2.2099  0.5041
  542MOL0     H74728   7.451  10.762   9.088 -1.2388 -1.2878  0.3516
  542MOL0     H74729   7.579  10.993   8.721  0.2475  0.3043  0.2417
  542MOL0     H74730   7.603  10.827   8.654 -0.5145 -1.3230  1.4892
  542MOL0     H74731   7.805  10.936   8.844 -0.4091  1.2663 -0.5011
  542MOL0     H74732   7.823  10.809   8.719 -1.7075 -0.7714  0.4811
  542MOL0     H74733   7.830  10.991   8.546  3.2061  0.2633 -0.3016
  542MOL0     H74734   7.764  11.104   8.664 -1.6166 -1.9154  2.4647
  542MOL0     H74735   7.984  11.075   8.789 -0.7176 -1.2596 -0.0526
  542MOL0     H74736   8.027  10.947   8.667 -0.4038 -0.2372 -4.4539
  542MOL0     H74737   7.964  11.241   8.620 -2.0590 -0.9163  0.8959
  542MOL0     H74738   8.019  11.118   8.497  0.7427  1.3675 -0.0266
  542MOL0     H74739   8.175  11.177   8.768 -1.9176 -1.0639 -0.3450
  542MOL0     H74740   8.211  11.078   8.623 -2.0835 -0.1273 -2.0714
  542MOL0     H74741   8.193  11.319   8.494 -0.9080 -1.0841  0.7489
  542MOL0     H74742   8.336  11.291   8.582 -0.3755  1.6781 -0.0543
  542MOL0     H74743   8.090  11.446   8.678  0.7966 -2.8687 -2.1368
  542MOL0     H74744   8.248  11.446   8.766  1.6008 -1.2727  0.2080
  542MOL0     H74745   8.103  11.544   8.419  1.2941  0.1899 -1.6786
  542MOL0     H74746   8.287  11.738   8.238  2.8626  0.0261  1.2173
  542MOL0     H74747   8.276  11.882   8.335  2.6505 -1.1038  1.7800
  542MOL0     H74748   8.090  11.879   8.200  1.0681 -1.4930 -1.7963
  542MOL0     H74749   8.041  11.712   8.257  1.1855 -0.3337 -2.7274
  542MOL0     H74750   8.017  11.803   8.478 -0.2268 -1.0910  0.3863
  542MOL0     H74751   8.026  11.970   8.425 -0.9265 -0.9014  2.2423
  542MOL0     H74752   7.821  11.757   8.362  0.2212 -0.2732 -0.2809
  542MOL0     H74753   7.805  11.915   8.441  2.0406 -0.2585  2.0624
  542MOL0     H74754   7.800  12.031   8.018 -0.2834  0.6556 -0.9924
  542MOL0     H74755   7.685  12.094   7.815  1.5617  1.7412  3.1456
  542MOL0     H74756   7.506  12.089   7.800  0.0159 -1.4401  0.5298
  542MOL0     H74757   7.590  11.947   7.760 -3.6283 -0.3354  0.8102
  542MOL0     H74758   7.256  12.061   7.714  0.0668 -0.1044 -1.0609
  542MOL0     H74759   7.105  12.056   7.530  0.3035 -1.6112 -2.9532
  542MOL0     H74760   6.953  12.012   7.362  0.4813 -0.6702  0.1810
  542MOL0     H74761   6.792  11.916   7.356  0.5188 -1.6237  0.1989
  542MOL0     H74762   6.766  11.994   7.595  2.6976 -1.6203 -0.2415
  542MOL0     H74763   6.895  12.114   7.566 -0.3124  0.7432  0.2116
  542MOL0     H74764   6.622  12.095   7.408 -3.2100  1.5567  1.9840
  542MOL0     H74765   6.757  12.204   7.374  1.3274 -0.2679  0.2090
  542MOL0     H74766   6.731  12.292   7.618 -0.0018  1.5452 -0.8447
  542MOL0     H74767   6.612  12.180   7.645  0.0943  2.1049  1.5128
  542MOL0     H74768   6.615  12.387   7.402  2.5238  1.8865  1.8861
  542MOL0     H74769   6.482  12.296   7.448 -1.8451  1.6072  1.7086
  542MOL0     H74770   6.593  12.518   7.626  0.0977  1.8932 -1.9612
  542MOL0     H74771   6.460  12.401   7.656 -3.5205  1.0650 -1.1806
  542MOL0     H74772   6.333  12.513   7.480 -0.7149  0.7216  1.4331
  542MOL0     H74773   6.479  12.598   7.414  0.7201  3.7848  1.0613
  542MOL0     H74774   6.343  12.663   7.673  0.5989 -0.3200  0.0167
  542MOL0     H74775   6.334  12.749   7.521 -0.4914 -1.0550 -0.4195
  542MOL0     H74776   7.018  11.644   7.608  4.2638 -1.6158  0.0691
  542MOL0     H74777   7.182  11.644   7.782  1.2260  0.4918  0.9804
  542MOL0     H74778   7.385  11.831   8.181 -0.4451 -1.1530 -1.7566
  542MOL0     H74779   7.604  11.851   8.337  2.4441 -0.3247 -0.2424
  542MOL0     H74780   7.354  10.823   8.668 -2.4692  1.3298  0.6002
  542MOL0     H74781   7.124  10.833   8.732 -2.0024 -1.0379  2.0960
  542MOL0     H74782   6.828  10.766   8.810 -0.3489 -0.8913  0.4017
  542MOL0     H74783   6.576  10.745   8.786 -3.5413  0.4309  1.2600
  542MOL0     H74784   6.216  10.832   9.031 -0.1638  1.0642  1.5881
  542MOL0     H74785   6.336  10.943   9.112 -0.1670  4.2958 -1.8229
  542MOL0     H74786   6.322  11.099   8.921  0.9485 -0.2830 -1.8504
  542MOL0     H74787   6.179  11.077   9.024 -0.4484  0.6258 -1.8367
  542MOL0     H74788   6.200  10.911   8.759 -0.3037  0.7293 -0.5693
  542MOL0     H74789   6.061  10.937   8.854 -0.7107 -1.8280 -3.1159
  542MOL0     H74790   6.024  11.078   8.667  0.0702 -0.4781  1.3657
  542MOL0     H74791   6.184  11.123   8.650 -1.4452 -1.9874 -1.5087
  542MOL0     H74792   6.016  11.409   8.943 -2.6211 -0.8042  0.3943
  542MOL0     H74793   6.527  11.033   9.091 -0.4191  0.4046 -0.2225
  542MOL0     H74794   6.823  11.025   9.236 -0.7092  1.2246  0.6608
  542MOL0     H74795   6.848  11.156   9.111  1.9212 -1.5548 -0.8733
  542MOL0     H74796   6.696  11.135   9.206 -1.8243  0.7682 -1.5678
  543MOL0     O74797   4.030   1.592   5.459 -0.5172 -0.1488 -0.8662
  543MOL0     C74798   3.930   1.535   5.420 -0.0302 -0.1655  0.0184
  543MOL0     O74799   3.904   1.513   5.293 -0.5445 -0.0285  0.1797
  543MOL0     C74800   4.000   1.530   5.194  0.3943  0.2837  0.0907
  543MOL0     C74801   3.958   1.528   5.062  0.2030  0.1712 -0.2909
  543MOL0     C74802   4.042   1.520   4.950 -0.3483  0.4671  0.0751
  543MOL0     C74803   4.177   1.503   4.976 -0.2998 -0.4967 -0.6300
  543MOL0     O74804   4.269   1.486   4.880 -0.3022 -0.5475  0.3336
  543MOL0     C74805   4.271   1.567   4.761  0.5409  0.3684  0.0184
  543MOL0     C74806   4.392   1.665   4.774 -0.5012 -0.1733  0.4556
  543MOL0     C74807   4.516   1.584   4.729 -0.5426  0.1570 -0.7000
  543MOL0     C74808   4.657   1.632   4.749 -0.7203 -0.0077  0.3356
  543MOL0     C74809   4.765   1.553   4.676 -0.5460  0.6475  0.0592
  543MOL0     C74810   4.774   1.583   4.526 -0.2710 -0.6263  0.1369
  543MOL0     C74811   4.908   1.531   4.459  0.2601 -0.5876 -0.4149
  543MOL0     C74812   5.032   1.610   4.503  0.1583 -0.1295  0.3216
  543MOL0     N74813   5.137   1.583   4.402 -0.4129 -0.9309  0.1387
  543MOL0     C74814   5.167   1.673   4.310  0.7112 -0.1463 -0.4404
  543MOL0     C74815   5.280   1.616   4.256  0.1451  0.1621  0.8016
  543MOL0     C74816   5.370   1.645   4.136 -0.6166  0.5253 -0.6075
  543MOL0     C74817   5.459   1.763   4.164  0.2957 -0.0191  0.2899
  543MOL0     C74818   5.593   1.791   4.078  0.0116  0.8663 -0.1692
  543MOL0     C74819   5.677   1.669   4.083  0.0814  0.0498  0.1662
  543MOL0     O74820   5.716   1.633   4.212 -0.6192 -0.4335  0.3464
  543MOL0     C74821   5.825   1.552   4.235 -0.0847 -0.1747  0.6582
  543MOL0     C74822   5.856   1.455   4.135  0.2509 -0.8577  0.0319
  543MOL0     C74823   5.968   1.369   4.152 -0.2037 -0.5189 -0.3526
  543MOL0     C74824   6.005   1.275   4.043 -0.2164 -0.7985 -0.5641
  543MOL0     C74825   6.042   1.370   4.273 -0.2685 -0.4705 -0.0815
  543MOL0     C74826   6.168   1.296   4.297 -0.0471 -0.2941 -0.6348
  543MOL0     O74827   6.236   1.238   4.198 -0.0727  0.1450  0.7429
  543MOL0     C74828   6.369   1.222   4.233  0.3222 -0.2102 -0.7396
  543MOL0     C74829   6.409   1.117   4.322  0.3142 -0.0445  0.4580
  543MOL0     C74830   6.540   1.098   4.367 -0.1334 -0.1237  0.5962
  543MOL0     C74831   6.635   1.187   4.331 -0.0623  0.3933 -0.0891
  543MOL0     O74832   6.756   1.162   4.391 -0.0594 -0.0859 -0.5148
  543MOL0     C74833   6.851   1.277   4.392 -0.2720 -0.0043 -0.0275
  543MOL0     C74834   6.964   1.238   4.487 -0.3545 -0.4915 -0.6997
  543MOL0     C74835   6.918   1.236   4.632  0.0450 -0.3076  0.8990
  543MOL0     C74836   7.035   1.203   4.725 -0.0638  0.6459 -0.7238
  543MOL0     C74837   7.030   1.285   4.852  0.3840  0.4932 -0.1347
  543MOL0     C74838   6.909   1.233   4.940 -0.2596 -0.0046 -0.9525
  543MOL0     C74839   6.897   1.315   5.071 -0.0401 -0.7963 -0.0759
  543MOL0     C74840   6.833   1.453   5.050  0.1388  0.3336  0.7524
  543MOL0    Cl74841   6.656   1.448   5.013  0.0422  0.0645 -0.0533
  543MOL0     C74842   6.602   1.292   4.243  0.0627 -0.2398  0.5468
  543MOL0     C74843   6.473   1.307   4.193  0.4204 -0.3994  0.2455
  543MOL0     O74844   6.204   1.294   4.418  0.3859  0.8490 -0.6035
  543MOL0     C74845   5.998   1.454   4.373 -0.1197 -0.0030  0.0927
  543MOL0     C74846   5.893   1.546   4.349 -0.0283 -0.1523  0.0394
  543MOL0     N74847   5.313   1.502   4.327 -0.1848  0.5319 -0.0478
  543MOL0     N74848   5.219   1.481   4.410 -0.1770 -0.0340  0.0090
  543MOL0     C74849   4.220   1.496   5.108  0.2791  0.1603 -0.4364
  543MOL0     C74850   4.139   1.510   5.217  0.2533 -0.9704  0.1320
  543MOL0     C74851   3.831   1.473   5.505 -0.0148 -0.3113 -0.8031
  543MOL0     C74852   3.698   1.459   5.462 -0.4263  0.5846  0.2274
  543MOL0     C74853   3.598   1.398   5.544 -0.4896 -0.4062 -0.3285
  543MOL0     C74854   3.630   1.360   5.675  0.1673  0.4908  0.4705
  543MOL0     O74855   3.539   1.324   5.766  0.1255 -0.0190 -0.0627
  543MOL0     C74856   3.411   1.279   5.730  0.3380  0.0473  0.0156
  543MOL0     C74857   3.425   1.137   5.658  0.0809  0.2059 -0.0086
  543MOL0     C74858   3.315   1.123   5.555  0.7677  0.8265  0.1974
  543MOL0     C74859   3.307   0.984   5.497  0.6544  0.4723  0.2364
  543MOL0     C74860   3.192   0.956   5.415  0.4206 -0.2005  0.1086
  543MOL0     C74861   3.097   0.936   5.348 -0.0664 -1.5309  0.2575
  543MOL0     C74862   3.765   1.379   5.720  1.2187 -0.3854  0.5063
  543MOL0     C74863   3.862   1.434   5.645  0.2975  0.5174 -0.8230
  543MOL0     C74864   3.999   1.441   5.709 -0.0384  0.8378  0.2869
  543MOL0     H74865   3.853   1.552   5.048  0.4990  2.8974  1.3037
  543MOL0     H74866   4.008   1.510   4.847 -2.1944 -2.4648  0.8655
  543MOL0     H74867   4.179   1.626   4.753  0.7923  0.6874 -0.6090
  543MOL0     H74868   4.273   1.498   4.676 -2.5587  0.0438  0.1149
  543MOL0     H74869   4.372   1.741   4.698 -0.6721 -1.0464 -0.3926
  543MOL0     H74870   4.410   1.701   4.875 -0.0036 -0.1284  0.3541
  543MOL0     H74871   4.511   1.487   4.780  1.7307  1.3386  2.0330
  543MOL0     H74872   4.501   1.572   4.621  0.1395  0.7493 -0.8668
  543MOL0     H74873   4.656   1.733   4.707 -0.9656 -0.0974  0.1286
  543MOL0     H74874   4.689   1.629   4.854  2.3997 -2.2512 -0.5202
  543MOL0     H74875   4.750   1.445   4.682  1.0634  0.1729 -2.7828
  543MOL0     H74876   4.854   1.562   4.740 -0.1917 -1.0900 -0.1403
  543MOL0     H74877   4.697   1.524   4.475  0.8114 -1.7004 -0.3090
  543MOL0     H74878   4.763   1.688   4.499  0.3897 -0.7877 -0.8282
  543MOL0     H74879   4.898   1.539   4.351  1.9692 -2.7662 -0.8088
  543MOL0     H74880   4.943   1.429   4.477  3.3710 -0.0536 -2.7414
  543MOL0     H74881   5.020   1.719   4.512 -1.2426 -0.2494  0.1524
  543MOL0     H74882   5.060   1.570   4.601 -1.9882  1.8298  1.8584
  543MOL0     H74883   5.112   1.763   4.284 -0.1070 -1.0037 -1.7659
  543MOL0     H74884   5.306   1.654   4.047 -1.9614 -1.4079  0.0997
  543MOL0     H74885   5.440   1.561   4.122 -3.3756 -2.0465 -0.0749
  543MOL0     H74886   5.397   1.852   4.148 -1.5202 -1.3766 -0.4436
  543MOL0     H74887   5.485   1.757   4.271 -1.4647  0.4055  0.7761
  543MOL0     H74888   5.567   1.821   3.976  1.0124 -2.5260 -1.5305
  543MOL0     H74889   5.647   1.880   4.112 -1.8502  1.8991  0.2715
  543MOL0     H74890   5.623   1.588   4.033  0.2952  1.2480 -2.1216
  543MOL0     H74891   5.769   1.689   4.026  1.0845 -1.2509  1.2575
  543MOL0     H74892   5.796   1.459   4.045  2.2056  1.9059 -1.3018
  543MOL0     H74893   6.035   1.179   4.088  1.7197 -2.3575 -4.6882
  543MOL0     H74894   6.097   1.319   4.002 -0.3804  1.7265  1.5218
  543MOL0     H74895   5.919   1.257   3.979 -0.1680  0.2278 -0.9338
  543MOL0     H74896   6.332   1.051   4.359 -0.7781  1.5168  1.0619
  543MOL0     H74897   6.569   1.028   4.445 -2.2550  0.4656  2.0119
  543MOL0     H74898   6.890   1.290   4.291 -1.8157  1.1708 -0.5036
  543MOL0     H74899   6.810   1.367   4.438  0.6118 -0.5111  1.8309
  543MOL0     H74900   7.013   1.142   4.465  3.6556 -0.2331  4.8705
  543MOL0     H74901   7.039   1.317   4.473  0.8879 -1.7423 -1.3965
  543MOL0     H74902   6.839   1.161   4.638  1.5236 -1.7896  3.2419
  543MOL0     H74903   6.878   1.334   4.658  0.6616 -0.0491  0.8993
  543MOL0     H74904   7.133   1.222   4.680  0.2085 -0.1766 -0.4908
  543MOL0     H74905   7.031   1.096   4.748 -1.7815  1.0677  1.2106
  543MOL0     H74906   7.121   1.277   4.913 -0.1416 -1.9346  0.4408
  543MOL0     H74907   7.025   1.392   4.830 -0.4588  0.3951 -0.4703
  543MOL0     H74908   6.943   1.130   4.952  2.7338  1.0588  0.8339
  543MOL0     H74909   6.820   1.228   4.876 -1.6100 -2.7090  0.9311
  543MOL0     H74910   6.992   1.339   5.120  1.6345 -1.3136 -2.8268
  543MOL0     H74911   6.832   1.266   5.143  0.9761  0.4734  1.8030
  543MOL0     H74912   6.881   1.500   4.963 -2.5459 -2.2592 -2.4014
  543MOL0     H74913   6.850   1.514   5.140 -0.6179  0.3534  0.8861
  543MOL0     H74914   6.674   1.369   4.217 -1.5258  0.7747 -1.1204
  543MOL0     H74915   6.439   1.390   4.132 -1.5335 -0.1765  1.5689
  543MOL0     H74916   6.050   1.452   4.468  2.7820 -1.2500 -1.4125
  543MOL0     H74917   5.873   1.620   4.426  1.5138  0.9713 -0.5851
  543MOL0     H74918   4.325   1.475   5.127 -0.0359 -0.9467  0.1548
  543MOL0     H74919   4.182   1.482   5.313  0.8020 -0.3172  0.0834
  543MOL0     H74920   3.685   1.479   5.356  1.9843 -1.6750 -0.5952
  543MOL0     H74921   3.501   1.385   5.497  1.1147 -0.7121 -3.8990
  543MOL0     H74922   3.337   1.268   5.809  0.6836 -1.0524  0.2094
  543MOL0     H74923   3.364   1.346   5.657 -1.4539 -4.4486 -3.4567
  543MOL0     H74924   3.433   1.049   5.723  1.1577 -1.3682 -2.1775
  543MOL0     H74925   3.521   1.133   5.605  1.6025  1.6990  2.4095
  543MOL0     H74926   3.224   1.151   5.609  1.1580 -0.0990  1.3864
  543MOL0     H74927   3.323   1.194   5.473 -2.0391  1.3911  0.3054
  543MOL0     H74928   3.308   0.909   5.577  0.3511 -3.7029 -3.2911
  543MOL0     H74929   3.388   0.960   5.427  0.0347 -0.1849 -0.2693
  543MOL0     H74930   3.001   0.935   5.300  0.4681 -1.1613 -0.8719
  543MOL0     H74931   3.794   1.354   5.822  1.1803  0.3906  0.7110
  543MOL0     H74932   4.011   1.540   5.754 -0.2278 -0.5634  3.7196
  543MOL0     H74933   4.010   1.375   5.795  0.2264  0.3339 -0.1291
  543MOL0     H74934   4.065   1.409   5.628  1.4736  1.4354  1.2323
  544MOL0     O74935  10.060   2.571   9.852 -0.4968 -0.7315 -0.2019
  544MOL0     C74936   9.961   2.640   9.885 -0.1210 -0.2135 -0.4070
  544MOL0     O74937   9.958   2.741   9.982 -0.2517 -0.4344 -0.0487
  544MOL0     C74938  10.063   2.763  10.069  0.5065  0.3836  0.3515
  544MOL0     C74939  10.103   2.894  10.094 -0.3716 -0.7486  1.0868
  544MOL0     C74940  10.205   2.926  10.181 -0.0032 -0.6736  0.8936
  544MOL0     C74941  10.264   2.821  10.253  0.5071 -0.2148 -0.0358
  544MOL0     O74942  10.360   2.836  10.350 -0.7271  0.2654  0.3807
  544MOL0     C74943  10.379   2.962  10.407 -0.1316  0.1249 -0.1367
  544MOL0     C74944  10.477   2.939  10.523  0.2565 -0.0004 -0.4868
  544MOL0     C74945  10.596   2.853  10.456  0.4779 -0.1390  0.4280
  544MOL0     C74946  10.721   2.869  10.532  0.0466  0.1208 -0.0584
  544MOL0     C74947  10.780   3.006  10.501  0.1025  1.2852  0.0291
  544MOL0     C74948  10.921   3.035  10.561 -0.0930  0.3122 -0.1522
  544MOL0     C74949  10.999   3.162  10.513  0.6935 -0.3674  0.1648
  544MOL0     C74950  11.122   3.182  10.600 -0.0391 -0.4900 -0.3582
  544MOL0     N74951  11.185   3.309  10.565 -0.2614 -0.0922 -0.2167
  544MOL0     C74952  11.199   3.417  10.653 -0.5835 -0.3638  0.7645
  544MOL0     C74953  11.291   3.495  10.592  0.0210  0.4975  1.2458
  544MOL0     C74954  11.357   3.625  10.638  0.7626  0.4908  0.4940
  544MOL0     C74955  11.476   3.593  10.724  0.3264 -0.7635 -0.3053
  544MOL0     C74956  11.583   3.702  10.706 -0.3977 -0.6618 -0.3945
  544MOL0     C74957  11.663   3.693  10.577 -1.6950 -0.6866  0.5849
  544MOL0     O74958  11.727   3.818  10.542 -0.1832 -0.0833 -0.0338
  544MOL0     C74959  11.796   3.828  10.416 -0.3645  0.0187 -0.8975
  544MOL0     C74960  11.905   3.919  10.411  0.4201  0.3601 -0.0731
  544MOL0     C74961  11.987   3.917  10.289  0.2276  0.6745  1.0531
  544MOL0     C74962  12.100   4.018  10.286 -0.9030  0.8544 -0.0036
  544MOL0     C74963  11.965   3.836  10.179  0.3136  0.5934  0.3447
  544MOL0     C74964  12.052   3.821  10.056 -0.9342 -0.1323 -1.2746
  544MOL0     O74965  11.993   3.828   9.931 -0.6509  0.0819  0.1588
  544MOL0     C74966  12.066   3.811   9.815 -0.3696 -0.2106  0.0475
  544MOL0     C74967  12.195   3.858   9.799  0.0097  0.7158  0.3417
  544MOL0     C74968  12.265   3.836   9.679  0.0615 -0.2163 -0.3224
  544MOL0     C74969  12.198   3.774   9.570 -0.3357 -0.3231  0.2948
  544MOL0     O74970  12.257   3.736   9.453 -0.4747  0.7791  0.1830
  544MOL0     C74971  12.400   3.751   9.435  0.1693 -0.0395 -0.3981
  544MOL0     C74972  12.437   3.721   9.285 -0.3626 -0.9972 -1.4261
  544MOL0     C74973  12.583   3.723   9.242  0.4043 -0.6702 -0.8360
  544MOL0     C74974  12.655   3.852   9.270  0.7475  0.3133 -0.0354
  544MOL0     C74975  12.791   3.869   9.199  0.3380 -0.1148 -0.2091
  544MOL0     C74976  12.788   3.831   9.045  0.0009  0.0137 -0.0621
  544MOL0     C74977  12.931   3.852   8.979  0.4526 -0.4703  0.5902
  544MOL0     C74978  12.963   4.011   8.965 -0.7249 -0.9234  0.2081
  544MOL0    Cl74979  13.131   4.010   8.897 -0.1976  0.2746  0.0235
  544MOL0     C74980  12.064   3.732   9.583  0.1165  0.6591 -0.1577
  544MOL0     C74981  11.996   3.748   9.707 -0.0804  0.5787 -0.0688
  544MOL0     O74982  12.169   3.792  10.082 -0.0213  0.7146 -0.4006
  544MOL0     C74983  11.855   3.742  10.188 -0.2486  0.4320  0.1929
  544MOL0     C74984  11.776   3.737  10.305 -0.0956  0.3110  0.6622
  544MOL0     N74985  11.330   3.437  10.467 -0.3553 -0.2270 -0.0786
  544MOL0     N74986  11.271   3.323  10.460 -0.6503  0.0859  0.1337
  544MOL0     C74987  10.237   2.684  10.228  0.1469 -0.2511 -0.1244
  544MOL0     C74988  10.136   2.659  10.135  0.2834  0.3978 -0.0670
  544MOL0     C74989   9.831   2.623   9.814 -0.4994  0.4600  0.4280
  544MOL0     C74990   9.723   2.714   9.839 -0.5432  0.0407 -0.1408
  544MOL0     C74991   9.607   2.709   9.763 -0.3400 -0.9952 -0.1279
  544MOL0     C74992   9.593   2.617   9.661  0.9691 -0.3750  0.0757
  544MOL0     O74993   9.481   2.597   9.591 -0.1874 -0.2325  0.4555
  544MOL0     C74994   9.349   2.625   9.630 -0.5568  0.2623 -0.0117
  544MOL0     C74995   9.281   2.489   9.647 -0.0643  0.5583 -0.6299
  544MOL0     C74996   9.127   2.509   9.661  0.7631  0.9925 -0.8492
  544MOL0     C74997   9.054   2.379   9.672 -0.4533 -0.3796  0.3018
  544MOL0     C74998   9.080   2.312   9.796  1.0600 -0.0691 -0.3412
  544MOL0     C74999   9.075   2.242   9.899 -0.5552  0.0730  0.0481
  544MOL0     C75000   9.695   2.530   9.631 -0.7387  0.3702 -0.5240
  544MOL0     C75001   9.810   2.527   9.706 -0.3004  0.6954  0.3593
  544MOL0     C75002   9.906   2.427   9.665  0.0003 -0.1408  0.1506
  544MOL0     H75003  10.060   2.978  10.041  3.1513 -0.3362 -1.4053
  544MOL0     H75004  10.240   3.029  10.183 -0.3275 -0.4666 -1.5841
  544MOL0     H75005  10.285   3.004  10.443  0.3341 -1.0803  2.7759
  544MOL0     H75006  10.424   3.032  10.337  0.8064 -1.1142 -0.8017
  544MOL0     H75007  10.514   3.030  10.571  0.6715 -0.3248 -0.1742
  544MOL0     H75008  10.435   2.880  10.606  2.7536 -2.5522 -0.8545
  544MOL0     H75009  10.561   2.750  10.447  0.6507 -0.2135  0.5940
  544MOL0     H75010  10.612   2.887  10.353 -1.1437  2.6324  1.0009
  544MOL0     H75011  10.710   2.858  10.641 -1.1164  0.7840 -0.0983
  544MOL0     H75012  10.794   2.800  10.490 -0.0037 -0.3881  0.6716
  544MOL0     H75013  10.702   3.073  10.539  0.8366  1.3961  1.3995
  544MOL0     H75014  10.785   3.010  10.392 -1.2816 -0.3451 -0.1455
  544MOL0     H75015  10.903   3.033  10.669 -3.7785 -1.6198 -0.6305
  544MOL0     H75016  10.991   2.953  10.538  3.0073  3.0671 -1.4076
  544MOL0     H75017  10.930   3.247  10.519 -0.2161 -0.9825 -1.1546
  544MOL0     H75018  11.039   3.134  10.415 -0.2026 -3.7799  0.6558
  544MOL0     H75019  11.094   3.191  10.705  0.6218  0.5190 -0.2624
  544MOL0     H75020  11.204   3.110  10.593  0.3434 -0.0216 -0.7383
  544MOL0     H75021  11.161   3.424  10.754 -3.0716 -0.4318 -0.0989
  544MOL0     H75022  11.287   3.692  10.690  2.2366  1.4692  1.2985
  544MOL0     H75023  11.386   3.680  10.548  1.4772  2.5823  1.9246
  544MOL0     H75024  11.442   3.586  10.828  1.3304  0.0742  0.0967
  544MOL0     H75025  11.520   3.494  10.709 -0.9076 -2.2187  4.0807
  544MOL0     H75026  11.532   3.798  10.716 -0.0423 -0.5422  0.2534
  544MOL0     H75027  11.648   3.705  10.793  0.9205 -0.7570 -1.3480
  544MOL0     H75028  11.741   3.620  10.602 -1.6228 -0.7330  0.2364
  544MOL0     H75029  11.610   3.639  10.498  0.6555 -1.4738 -0.5598
  544MOL0     H75030  11.939   3.988  10.487  1.0043  0.6071 -0.5525
  544MOL0     H75031  12.120   4.043  10.390  1.1769  0.4214 -0.2453
  544MOL0     H75032  12.086   4.104  10.220 -1.5171 -0.2511 -1.3659
  544MOL0     H75033  12.195   3.965  10.271 -0.0040  1.7619  2.0431
  544MOL0     H75034  12.253   3.907   9.877  0.4775  1.3183 -0.3788
  544MOL0     H75035  12.363   3.882   9.673 -0.5485  1.1864 -0.0669
  544MOL0     H75036  12.422   3.856   9.458  0.9809 -0.2565 -0.1909
  544MOL0     H75037  12.456   3.686   9.502 -0.5008 -0.6962 -0.4671
  544MOL0     H75038  12.391   3.622   9.269  0.2752 -1.5069 -0.2750
  544MOL0     H75039  12.383   3.790   9.220 -1.7503 -1.9278 -1.3199
  544MOL0     H75040  12.585   3.696   9.136  0.7248  1.3289 -1.3750
  544MOL0     H75041  12.629   3.639   9.297 -1.0168 -0.0801  1.3705
  544MOL0     H75042  12.677   3.855   9.377 -0.8626 -0.3047  0.3402
  544MOL0     H75043  12.594   3.937   9.240 -0.0561  0.4407  1.8381
  544MOL0     H75044  12.824   3.974   9.200  3.0005 -0.8257 -1.8953
  544MOL0     H75045  12.860   3.809   9.259 -1.4345 -0.4580  1.6180
  544MOL0     H75046  12.712   3.884   8.987  0.2900 -1.9783 -2.4495
  544MOL0     H75047  12.768   3.725   9.033  0.8590  0.0075 -1.7380
  544MOL0     H75048  12.940   3.799   8.883 -1.3441  1.1530 -0.5480
  544MOL0     H75049  13.013   3.815   9.041 -1.9506 -3.8713  1.9758
  544MOL0     H75050  12.957   4.067   9.059  2.4882  1.1734 -0.6611
  544MOL0     H75051  12.909   4.055   8.881  0.5943 -0.8462 -0.6277
  544MOL0     H75052  12.033   3.677   9.494  0.4717 -1.4122  0.9426
  544MOL0     H75053  11.897   3.706   9.721 -0.6859  1.5210 -1.3502
  544MOL0     H75054  11.844   3.672  10.105 -0.9637  2.9908 -2.0236
  544MOL0     H75055  11.706   3.655  10.307 -1.2740  1.2495 -0.5747
  544MOL0     H75056  10.295   2.614  10.288  1.5948  0.2259 -0.9200
  544MOL0     H75057  10.112   2.557  10.108 -1.6451  0.4663  1.1644
  544MOL0     H75058   9.736   2.781   9.924  3.4372 -0.3694 -0.2354
  544MOL0     H75059   9.529   2.779   9.789  1.8335  1.8265 -0.7773
  544MOL0     H75060   9.352   2.681   9.724 -0.4283 -0.1652  0.2390
  544MOL0     H75061   9.298   2.692   9.559 -1.5750  0.5585  0.9730
  544MOL0     H75062   9.323   2.443   9.736 -0.5448  0.2127 -0.5774
  544MOL0     H75063   9.315   2.425   9.564  2.0019  0.6865  0.0647
  544MOL0     H75064   9.114   2.558   9.758 -0.1044 -0.7638 -0.0401
  544MOL0     H75065   9.089   2.574   9.581  1.4359  3.9592  1.0830
  544MOL0     H75066   9.100   2.325   9.588  0.5697  1.3252 -0.2993
  544MOL0     H75067   8.946   2.386   9.658 -0.5402 -2.4945 -0.5075
  544MOL0     H75068   9.069   2.184   9.989 -0.0171  0.2477  0.1976
  544MOL0     H75069   9.682   2.446   9.563 -0.6530  1.2754 -1.6760
  544MOL0     H75070   9.930   2.356   9.745 -0.9505  0.8532  1.3627
  544MOL0     H75071   9.885   2.375   9.571  1.1300 -1.7639  0.7392
  544MOL0     H75072  10.000   2.480   9.648  0.0831  0.2186  1.5505
  545MOL0     O75073  10.823   9.784   2.802  0.6805  0.7358 -0.0795
  545MOL0     C75074  10.803   9.762   2.685 -0.6084  0.4986 -0.6341
  545MOL0     O75075  10.894   9.784   2.589 -0.8430  0.4213 -0.6145
  545MOL0     C75076  11.025   9.798   2.623 -0.0990 -0.0898  0.1570
  545MOL0     C75077  11.118   9.726   2.554 -0.3774  0.6266 -0.0381
  545MOL0     C75078  11.253   9.735   2.577 -0.0434 -0.3247  0.0538
  545MOL0     C75079  11.306   9.823   2.672  0.0760 -0.2418  0.6124
  545MOL0     O75080  11.441   9.829   2.698 -0.2543 -0.3037 -0.1193
  545MOL0     C75081  11.507   9.947   2.650 -0.8657 -0.2631 -0.5450
  545MOL0     C75082  11.651   9.922   2.692 -0.1935 -0.5109  0.1233
  545MOL0     C75083  11.730  10.056   2.696 -0.1281  0.5584  0.5412
  545MOL0     C75084  11.765  10.120   2.562  0.0659 -0.9370  0.0016
  545MOL0     C75085  11.872  10.234   2.584 -0.2111  1.3686 -0.0722
  545MOL0     C75086  11.900  10.307   2.459  0.8985  0.3496  0.3197
  545MOL0     C75087  12.029  10.386   2.469 -0.0363 -0.2991 -0.3639
  545MOL0     C75088  11.999  10.518   2.547 -0.3360 -1.4284  0.6950
  545MOL0     N75089  12.114  10.604   2.520 -0.2013  0.2431  0.5307
  545MOL0     C75090  12.244  10.552   2.518 -0.0431  0.3368  0.8379
  545MOL0     C75091  12.318  10.661   2.491  0.7225  0.2853 -0.1835
  545MOL0     C75092  12.472  10.665   2.482  0.2925 -0.3324 -0.3083
  545MOL0     C75093  12.534  10.801   2.518 -0.6570 -0.2471  0.3663
  545MOL0     C75094  12.519  10.820   2.669  0.2241  0.1639  0.0162
  545MOL0     C75095  12.559  10.967   2.710 -0.3285  0.5536  0.3635
  545MOL0     O75096  12.701  10.970   2.711 -0.0991  0.1938  0.3534
  545MOL0     C75097  12.767  11.083   2.774 -1.0514  0.9544  0.1877
  545MOL0     C75098  12.700  11.181   2.853 -0.5068  0.5623 -0.1326
  545MOL0     C75099  12.776  11.287   2.899  0.0310 -0.5241 -1.0758
  545MOL0     C75100  12.701  11.380   2.995  0.7624  0.4608  0.0557
  545MOL0     C75101  12.910  11.310   2.873 -0.0233  0.8085 -0.6106
  545MOL0     C75102  12.992  11.424   2.907  0.1389 -0.3634  0.1711
  545MOL0     O75103  13.119  11.390   2.943  0.3720 -0.4009  0.4539
  545MOL0     C75104  13.225  11.473   2.932  0.2957 -0.3560  0.4689
  545MOL0     C75105  13.252  11.568   2.836 -0.4551 -0.0848 -0.5571
  545MOL0     C75106  13.376  11.623   2.820  0.1047 -0.4243 -0.5026
  545MOL0     C75107  13.485  11.584   2.900 -0.5145 -0.6477  0.3882
  545MOL0     O75108  13.612  11.621   2.869 -0.2227  0.0158  0.6970
  545MOL0     C75109  13.649  11.724   2.781 -0.1092 -0.8601  0.1246
  545MOL0     C75110  13.774  11.687   2.710 -0.3092 -0.0199 -0.2664
  545MOL0     C75111  13.763  11.549   2.639 -0.4671  0.1949  0.3370
  545MOL0     C75112  13.871  11.532   2.530 -0.7550  0.7183 -0.2826
  545MOL0     C75113  13.849  11.408   2.455 -1.2720  1.4430  0.5752
  545MOL0     C75114  13.957  11.407   2.341 -0.5004 -0.2897  0.9072
  545MOL0     C75115  13.951  11.277   2.255  0.4386  0.0014 -0.5103
  545MOL0     C75116  14.076  11.264   2.166 -0.4237 -1.0838  0.0425
  545MOL0    Cl75117  14.078  11.122   2.069  0.2575  0.1153 -0.1547
  545MOL0     C75118  13.459  11.503   2.999  0.5685  0.3976 -0.0691
  545MOL0     C75119  13.332  11.445   3.017 -0.0524  0.1383  0.2010
  545MOL0     O75120  12.937  11.536   2.903 -0.2073 -0.3334  0.0082
  545MOL0     C75121  12.979  11.206   2.806 -0.5565 -0.1249 -0.0786
  545MOL0     C75122  12.908  11.092   2.761 -0.5360 -0.0659 -0.6119
  545MOL0     N75123  12.237  10.773   2.474  0.4664 -0.3217 -0.1166
  545MOL0     N75124  12.114  10.744   2.501  0.3262  0.3874 -0.1978
  545MOL0     C75125  11.216   9.916   2.729  0.2171  0.6267  0.2966
  545MOL0     C75126  11.078   9.893   2.716  0.1520 -0.3668  1.4223
  545MOL0     C75127  10.670   9.696   2.654 -0.2169  0.1903  0.4755
  545MOL0     C75128  10.573   9.713   2.751 -0.0965 -0.3184 -0.4670
  545MOL0     C75129  10.451   9.641   2.741 -0.0009  0.3787  0.1541
  545MOL0     C75130  10.427   9.550   2.645  0.5577 -0.4769 -0.0240
  545MOL0     O75131  10.307   9.488   2.643 -0.2897  0.2086 -0.0839
  545MOL0     C75132  10.245   9.478   2.516  0.1417 -0.3473 -0.0642
  545MOL0     C75133  10.092   9.453   2.532 -0.4458 -1.0337 -0.9001
  545MOL0     C75134  10.052   9.315   2.577  0.4200 -0.4175  0.3635
  545MOL0     C75135  10.049   9.301   2.726  0.2687 -0.7483 -0.8067
  545MOL0     C75136   9.940   9.386   2.787  0.5895  0.1179  0.5628
  545MOL0     C75137   9.847   9.459   2.815 -0.3027  0.3910  0.1592
  545MOL0     C75138  10.527   9.528   2.552 -0.4961 -0.4696  0.3332
  545MOL0     C75139  10.649   9.594   2.554 -0.2247 -0.1937 -0.1385
  545MOL0     C75140  10.755   9.562   2.446 -0.4724  0.1851 -0.0657
  545MOL0     H75141  11.063   9.659   2.488 -2.5950  1.4060  0.9283
  545MOL0     H75142  11.322   9.681   2.512  1.0267 -0.4814  1.2939
  545MOL0     H75143  11.464  10.043   2.682  0.6072  0.6051 -1.0413
  545MOL0     H75144  11.509   9.952   2.541 -0.9661 -3.5299 -0.7952
  545MOL0     H75145  11.649   9.886   2.795 -0.8154 -1.4977 -0.2228
  545MOL0     H75146  11.705   9.848   2.633  0.7695  0.9131 -0.8505
  545MOL0     H75147  11.669  10.127   2.752 -0.2694  0.4563  0.5188
  545MOL0     H75148  11.818  10.034   2.757 -0.0972 -0.8142  0.0449
  545MOL0     H75149  11.800  10.050   2.485  1.2779 -0.4446  0.0804
  545MOL0     H75150  11.672  10.159   2.521  0.3738 -2.2104 -2.0520
  545MOL0     H75151  11.960  10.182   2.621  1.1633 -1.0427 -5.6669
  545MOL0     H75152  11.841  10.305   2.661  3.5342  1.8513  1.1370
  545MOL0     H75153  11.914  10.240   2.374 -0.5866 -2.1217  1.9181
  545MOL0     H75154  11.823  10.375   2.421  0.7627 -0.8857 -1.7653
  545MOL0     H75155  12.063  10.408   2.368  0.1379 -2.0498 -0.7274
  545MOL0     H75156  12.105  10.327   2.521  0.1512 -0.1749 -0.4967
  545MOL0     H75157  11.906  10.572   2.527  0.2786  0.8860  3.4434
  545MOL0     H75158  11.983  10.494   2.652  1.1774  1.0870  1.5996
  545MOL0     H75159  12.274  10.454   2.554 -0.7920  0.1209  0.9018
  545MOL0     H75160  12.492  10.642   2.377 -0.3160  1.5574 -0.8725
  545MOL0     H75161  12.514  10.589   2.549 -0.8106 -0.4067  0.3307
  545MOL0     H75162  12.642  10.798   2.506 -0.8190 -2.1806 -1.1658
  545MOL0     H75163  12.486  10.877   2.455 -2.7446 -1.2632  0.6381
  545MOL0     H75164  12.413  10.802   2.689 -0.9401  1.9927 -3.6096
  545MOL0     H75165  12.586  10.753   2.724  0.1735 -0.8352 -1.0966
  545MOL0     H75166  12.522  11.049   2.648  1.6286  0.7303 -0.6577
  545MOL0     H75167  12.521  10.979   2.812 -2.7404  0.5743 -0.4846
  545MOL0     H75168  12.596  11.175   2.884 -0.0173 -0.1786  1.4817
  545MOL0     H75169  12.616  11.327   3.040  0.3829  1.9529  1.1727
  545MOL0     H75170  12.653  11.463   2.943 -2.1845 -0.8959  0.4229
  545MOL0     H75171  12.765  11.407   3.079  0.9827 -1.4123  0.5416
  545MOL0     H75172  13.177  11.591   2.761 -1.7625  0.0136  0.7326
  545MOL0     H75173  13.379  11.692   2.736  0.8323  2.5871  1.8260
  545MOL0     H75174  13.571  11.743   2.707 -1.3967 -0.6404  1.4887
  545MOL0     H75175  13.664  11.819   2.833  0.6909 -0.4128 -0.8844
  545MOL0     H75176  13.795  11.761   2.633  0.2803  0.3176  0.2048
  545MOL0     H75177  13.856  11.670   2.780 -0.3912  0.3374 -0.0778
  545MOL0     H75178  13.666  11.536   2.589 -0.0508  1.3825 -0.8386
  545MOL0     H75179  13.760  11.471   2.716  0.1342  1.5523  1.8032
  545MOL0     H75180  13.974  11.540   2.565 -0.9329  2.8013 -0.1065
  545MOL0     H75181  13.868  11.608   2.451 -1.4022  0.1972 -0.7748
  545MOL0     H75182  13.860  11.322   2.521 -1.6224  0.9858  0.0493
  545MOL0     H75183  13.746  11.414   2.418 -0.6153  3.0891 -1.1667
  545MOL0     H75184  14.057  11.416   2.384 -0.2070  0.3765  0.0919
  545MOL0     H75185  13.941  11.483   2.265 -1.7584 -3.0326 -1.7946
  545MOL0     H75186  13.865  11.277   2.188 -0.6518 -2.2162  0.8024
  545MOL0     H75187  13.932  11.192   2.320  0.1509 -1.4646 -2.4160
  545MOL0     H75188  14.169  11.257   2.224  0.8789 -0.9334 -1.9398
  545MOL0     H75189  14.091  11.350   2.101  2.0190 -1.0388  0.5432
  545MOL0     H75190  13.548  11.484   3.059 -0.2603 -1.3916  0.6456
  545MOL0     H75191  13.319  11.365   3.090  0.9840 -0.9587 -0.7805
  545MOL0     H75192  13.087  11.211   2.791 -0.6999  2.1558 -0.5726
  545MOL0     H75193  12.958  11.021   2.696 -2.1298 -0.1988 -1.7425
  545MOL0     H75194  11.266   9.998   2.781  0.1688  1.1879 -0.5261
  545MOL0     H75195  11.008   9.962   2.762 -0.4838  1.0576 -1.4782
  545MOL0     H75196  10.577   9.784   2.833 -0.8575 -0.7668 -0.0325
  545MOL0     H75197  10.368   9.659   2.809 -0.6642 -2.7495  0.3554
  545MOL0     H75198  10.262   9.564   2.451 -1.6281 -1.9684 -2.8847
  545MOL0     H75199  10.286   9.389   2.466  2.9442  0.4886  0.5727
  545MOL0     H75200  10.052   9.460   2.430  0.3725 -0.7017 -1.2067
  545MOL0     H75201  10.047   9.535   2.588 -1.7804 -1.9928 -0.5169
  545MOL0     H75202   9.953   9.297   2.535  1.2141 -1.0257 -1.3422
  545MOL0     H75203  10.129   9.250   2.535 -1.3448 -1.2460 -1.7253
  545MOL0     H75204  10.148   9.327   2.764 -0.3016 -1.1361  1.1040
  545MOL0     H75205  10.033   9.194   2.746 -1.3529 -0.7573 -1.9193
  545MOL0     H75206   9.757   9.511   2.840 -0.5291 -0.4038  1.0898
  545MOL0     H75207  10.507   9.450   2.480  2.1087 -0.6842 -0.2650
  545MOL0     H75208  10.819   9.645   2.417 -1.4045  0.7233 -0.6315
  545MOL0     H75209  10.817   9.482   2.487 -1.2087 -0.7403 -0.7048
  545MOL0     H75210  10.709   9.535   2.350  2.4031  1.5975 -1.9802
  546MOL0     O75211   7.625   1.471   9.626 -0.2117 -0.6601  0.4081
  546MOL0     C75212   7.568   1.389   9.694 -0.3116  0.2767 -0.6568
  546MOL0     O75213   7.632   1.300   9.774 -0.3843 -0.4286 -0.7001
  546MOL0     C75214   7.772   1.273   9.768  0.8844  0.4211 -0.4883
  546MOL0     C75215   7.815   1.140   9.764 -0.5386  0.3120 -0.4481
  546MOL0     C75216   7.950   1.108   9.771 -0.1967  0.7822 -0.1335
  546MOL0     C75217   8.045   1.215   9.777  0.3819  0.5103  0.4607
  546MOL0     O75218   8.174   1.177   9.799  0.3632  0.6580 -0.7920
  546MOL0     C75219   8.199   1.116   9.924 -0.1033 -0.1819 -0.5081
  546MOL0     C75220   8.347   1.095   9.941 -0.2611  0.7867 -0.0169
  546MOL0     C75221   8.424   1.213   9.999 -0.6572 -0.5983  1.0841
  546MOL0     C75222   8.575   1.179  10.014  0.6935 -0.8061 -0.1491
  546MOL0     C75223   8.660   1.290  10.072 -0.3952 -0.1808  0.3861
  546MOL0     C75224   8.643   1.426   9.993 -0.4174 -0.1941 -0.6212
  546MOL0     C75225   8.765   1.514  10.021  0.0276  0.5130 -0.1886
  546MOL0     C75226   8.764   1.653   9.965  0.5912 -0.3978  0.4710
  546MOL0     N75227   8.873   1.738  10.006 -0.2919 -0.6708  0.0939
  546MOL0     C75228   9.011   1.697  10.006 -0.1125 -0.1364 -0.5460
  546MOL0     C75229   9.083   1.797  10.058  0.1020  0.6043 -0.4680
  546MOL0     C75230   9.239   1.808  10.069 -0.0004  0.8481 -0.2586
  546MOL0     C75231   9.294   1.890  10.190 -0.7277 -0.5080  0.5329
  546MOL0     C75232   9.446   1.909  10.182  0.4069  0.1405 -0.2922
  546MOL0     C75233   9.506   1.963  10.058 -0.1919  0.4082 -0.9120
  546MOL0     O75234   9.644   1.945  10.038  0.1151  0.9893 -0.0075
  546MOL0     C75235   9.718   2.021  10.124  0.1096 -1.1668 -0.6545
  546MOL0     C75236   9.758   2.138  10.068  0.5848 -0.0019 -0.6807
  546MOL0     C75237   9.841   2.228  10.131  0.6051 -0.2416  0.0488
  546MOL0     C75238   9.888   2.347  10.047 -0.6620  0.7416  0.6570
  546MOL0     C75239   9.880   2.203  10.260  0.0035 -0.9009  0.4063
  546MOL0     C75240   9.966   2.301  10.336 -0.9618  0.3890  0.3345
  546MOL0     O75241  10.039   2.249  10.442 -0.3161  1.2655 -0.1687
  546MOL0     C75242  10.130   2.340  10.506  0.8693  0.2084 -0.1476
  546MOL0     C75243  10.253   2.380  10.460 -0.3201  0.0032 -0.0024
  546MOL0     C75244  10.335   2.467  10.530 -0.5446 -0.3015 -0.4983
  546MOL0     C75245  10.296   2.516  10.650  0.3497  0.0488 -0.0521
  546MOL0     O75246  10.379   2.609  10.719  0.3539  0.0097 -0.5260
  546MOL0     C75247  10.339   2.661  10.845  0.2874 -0.6214  0.1362
  546MOL0     C75248  10.450   2.747  10.918 -0.4467  0.0379 -0.0351
  546MOL0     C75249  10.599   2.698  10.888  1.1385  0.1131 -0.0905
  546MOL0     C75250  10.616   2.553  10.933  0.7756  0.0307 -0.7329
  546MOL0     C75251  10.752   2.494  10.930 -0.6855  0.3141  0.2162
  546MOL0     C75252  10.844   2.546  11.036  0.4467 -0.3085 -0.3375
  546MOL0     C75253  10.977   2.460  11.056 -0.0530 -0.4490 -0.1842
  546MOL0     C75254  11.074   2.465  10.933 -0.0223  0.8239  0.0220
  546MOL0    Cl75255  11.230   2.387  10.998 -0.2285  0.0361  0.1242
  546MOL0     C75256  10.172   2.479  10.705  0.7789 -0.5017 -0.4359
  546MOL0     C75257  10.093   2.394  10.635 -0.3499 -0.7107  0.3432
  546MOL0     O75258   9.961   2.425  10.313  0.1948  0.1545 -0.1514
  546MOL0     C75259   9.842   2.079  10.317 -0.7045  1.2255 -0.6238
  546MOL0     C75260   9.765   1.983  10.252  0.1636  0.8254  0.1589
  546MOL0     N75261   8.991   1.891  10.103 -0.2399 -0.1814 -0.2582
  546MOL0     N75262   8.869   1.865  10.067 -0.3080  1.3906  0.2111
  546MOL0     C75263   8.005   1.349   9.761  0.5635 -0.3973 -0.1352
  546MOL0     C75264   7.864   1.382   9.764  0.0599  0.1659 -0.2968
  546MOL0     C75265   7.420   1.405   9.695  0.4403 -0.3176 -0.7131
  546MOL0     C75266   7.345   1.312   9.774 -0.2218  0.4218  0.1895
  546MOL0     C75267   7.207   1.318   9.773  0.2637  0.7472 -0.9476
  546MOL0     C75268   7.135   1.414   9.700 -0.9119 -0.3387 -1.0256
  546MOL0     O75269   6.996   1.402   9.717 -0.0435  0.2254  0.3904
  546MOL0     C75270   6.899   1.481   9.647 -0.1890  0.1887 -0.4588
  546MOL0     C75271   6.891   1.432   9.505  0.3465 -0.6135 -0.0753
  546MOL0     C75272   6.786   1.510   9.431 -0.9319 -0.3704  0.0801
  546MOL0     C75273   6.635   1.510   9.487 -0.0732 -0.1650  0.0681
  546MOL0     C75274   6.599   1.364   9.511 -0.2253  0.4818 -0.0742
  546MOL0     C75275   6.565   1.247   9.530  0.1075 -0.7092  0.3289
  546MOL0     C75276   7.204   1.511   9.622  0.5315 -0.8009  0.2476
  546MOL0     C75277   7.344   1.502   9.608  0.5728 -0.0547 -0.3204
  546MOL0     C75278   7.392   1.601   9.504  0.0936  0.1828 -0.2372
  546MOL0     H75279   7.741   1.060   9.765  1.7800 -1.9810  0.2524
  546MOL0     H75280   7.985   1.006   9.756 -1.8750  0.4612 -2.4845
  546MOL0     H75281   8.150   1.020   9.944 -0.3291  0.0335 -0.0307
  546MOL0     H75282   8.161   1.187   9.998  1.1179 -2.0390  2.0366
  546MOL0     H75283   8.358   1.015  10.014  2.5410  2.0839  1.1335
  546MOL0     H75284   8.390   1.054   9.849  0.1080 -1.1616  0.9805
  546MOL0     H75285   8.404   1.301   9.938  1.3494 -0.5006  0.5120
  546MOL0     H75286   8.399   1.235  10.103  1.2587 -1.2105  1.7128
  546MOL0     H75287   8.576   1.104  10.094  1.0875 -0.6164  0.0268
  546MOL0     H75288   8.615   1.130   9.925  0.4693 -2.0010  0.3931
  546MOL0     H75289   8.767   1.272  10.089  0.0741  1.1713 -0.8765
  546MOL0     H75290   8.628   1.307  10.175  1.9603 -0.5715  1.2436
  546MOL0     H75291   8.622   1.416   9.886 -2.2409  0.3920 -0.3486
  546MOL0     H75292   8.555   1.479  10.031 -0.4017 -1.8342  1.9599
  546MOL0     H75293   8.846   1.450   9.983 -0.9040 -1.2920  0.7396
  546MOL0     H75294   8.783   1.525  10.128 -1.3265  3.1765 -0.1754
  546MOL0     H75295   8.766   1.635   9.857  1.2768 -0.7189  0.5316
  546MOL0     H75296   8.667   1.696   9.993  1.6146  1.0232  1.9366
  546MOL0     H75297   9.061   1.617   9.953  0.3174 -1.7065  2.0625
  546MOL0     H75298   9.273   1.851   9.975  0.5929 -0.4178 -0.6468
  546MOL0     H75299   9.282   1.707  10.078 -0.1456  0.8355  0.3988
  546MOL0     H75300   9.251   1.989  10.204 -2.6643 -1.1082 -0.7127
  546MOL0     H75301   9.278   1.833  10.282 -0.8763 -1.2484  0.0631
  546MOL0     H75302   9.479   1.966  10.269 -2.4093  1.6369 -0.0616
  546MOL0     H75303   9.496   1.813  10.199  1.2439  1.0044  2.8273
  546MOL0     H75304   9.466   1.910   9.971  1.1835 -1.5359 -0.4239
  546MOL0     H75305   9.488   2.070  10.043  0.1577  1.0270  2.4870
  546MOL0     H75306   9.738   2.151   9.962  2.4740 -2.6466 -1.4789
  546MOL0     H75307   9.994   2.322  10.038 -1.2667 -1.8123 -0.2310
  546MOL0     H75308   9.868   2.443  10.096 -0.8546 -0.0409  2.1790
  546MOL0     H75309   9.836   2.349   9.950 -0.7621 -1.7349  0.6015
  546MOL0     H75310  10.293   2.344  10.366  2.3623 -1.0724  1.4515
  546MOL0     H75311  10.436   2.471  10.491 -1.2145 -0.5889 -2.3364
  546MOL0     H75312  10.251   2.724  10.835  0.5066 -0.4580 -0.8472
  546MOL0     H75313  10.317   2.583  10.918 -1.8874  1.3160  1.6740
  546MOL0     H75314  10.434   2.851  10.891  0.5243  0.1091 -0.3574
  546MOL0     H75315  10.430   2.749  11.025  1.4722 -3.1935  0.5169
  546MOL0     H75316  10.676   2.756  10.940  3.5693 -1.7596 -1.4352
  546MOL0     H75317  10.612   2.699  10.780 -0.0350 -0.1582 -0.2529
  546MOL0     H75318  10.552   2.487  10.874 -2.1167 -0.9197  3.0344
  546MOL0     H75319  10.572   2.560  11.033  1.5060 -1.1827 -0.2941
  546MOL0     H75320  10.752   2.385  10.937 -2.2904  0.1350 -1.6801
  546MOL0     H75321  10.796   2.527  10.835 -1.9069  2.1467  0.2361
  546MOL0     H75322  10.790   2.547  11.131  1.8495  1.0279  0.4809
  546MOL0     H75323  10.880   2.647  11.013  1.0880 -0.4290  0.1280
  546MOL0     H75324  10.948   2.355  11.067  1.1774 -0.8144 -0.2697
  546MOL0     H75325  11.034   2.502  11.140  0.5048  0.4289 -0.9812
  546MOL0     H75326  11.091   2.568  10.899  0.1047  0.3487 -1.4242
  546MOL0     H75327  11.035   2.409  10.847  2.1496 -1.3172  0.3455
  546MOL0     H75328  10.144   2.498  10.808  0.5326  2.1201 -0.9088
  546MOL0     H75329   9.998   2.367  10.680 -0.0835  0.8501  1.9547
  546MOL0     H75330   9.873   2.061  10.420  1.2237 -1.7492 -1.5787
  546MOL0     H75331   9.713   1.898  10.296 -0.1186  1.0226  0.2064
  546MOL0     H75332   8.081   1.427   9.762 -2.2707  2.7592 -3.6183
  546MOL0     H75333   7.818   1.479   9.757  1.0063  0.5625 -1.3826
  546MOL0     H75334   7.393   1.236   9.835  2.4376  0.3292 -1.8469
  546MOL0     H75335   7.153   1.249   9.837 -0.0489 -0.8435 -2.8363
  546MOL0     H75336   6.808   1.471   9.707  1.9064  2.7701  3.6131
  546MOL0     H75337   6.929   1.586   9.656  1.3856 -0.2456 -0.3309
  546MOL0     H75338   6.870   1.325   9.502 -0.5596 -0.5109  1.5730
  546MOL0     H75339   6.986   1.451   9.455  0.1315  0.6560 -0.0432
  546MOL0     H75340   6.819   1.614   9.439  0.7792 -1.0096  2.5372
  546MOL0     H75341   6.793   1.480   9.326 -1.7340 -3.1900  0.7544
  546MOL0     H75342   6.572   1.558   9.412  0.6285  0.9124  0.1553
  546MOL0     H75343   6.624   1.566   9.580 -0.5881 -0.9469  0.4910
  546MOL0     H75344   6.526   1.149   9.552 -1.5641 -0.3148 -0.6801
  546MOL0     H75345   7.153   1.581   9.556  0.1124  0.4842  1.8874
  546MOL0     H75346   7.482   1.568   9.452  1.0880  0.6137  1.1426
  546MOL0     H75347   7.316   1.620   9.427  1.9893  0.4723 -2.1309
  546MOL0     H75348   7.411   1.701   9.545 -1.0436  0.0826  0.5751
  547MOL0     O75349  10.770   9.673   6.433 -0.2806  0.1079 -0.2054
  547MOL0     C75350  10.762   9.779   6.482  0.5363 -0.6351 -1.2946
  547MOL0     O75351  10.861   9.853   6.530 -0.0797  0.3177  1.0178
  547MOL0     C75352  10.995   9.805   6.499 -0.0940 -0.0490  0.2989
  547MOL0     C75353  11.047   9.715   6.592  0.0358 -0.1993  0.0336
  547MOL0     C75354  11.179   9.680   6.579 -0.5127 -0.3086  0.7326
  547MOL0     C75355  11.254   9.723   6.461  0.9455  0.0390 -0.1548
  547MOL0     O75356  11.380   9.661   6.450  0.8461 -0.9817 -0.1799
  547MOL0     C75357  11.476   9.739   6.390 -1.3920  0.4498  0.5599
  547MOL0     C75358  11.523   9.668   6.273 -0.5029  0.6055 -0.2188
  547MOL0     C75359  11.577   9.753   6.153 -0.3242 -0.2940  0.7569
  547MOL0     C75360  11.632   9.652   6.051  0.3723 -0.1283  0.5602
  547MOL0     C75361  11.702   9.701   5.928  0.2106 -0.1201 -0.0332
  547MOL0     C75362  11.728   9.577   5.832 -0.3309 -0.6258 -0.7126
  547MOL0     C75363  11.799   9.621   5.704 -0.0031 -0.6823  1.1989
  547MOL0     C75364  11.842   9.503   5.611 -0.5879  0.4291 -0.3360
  547MOL0     N75365  11.917   9.560   5.495  0.0896 -0.0348  0.6265
  547MOL0     C75366  11.881   9.663   5.412  0.5490  0.3627  0.4509
  547MOL0     C75367  11.982   9.678   5.320  0.1060  0.4513  0.1239
  547MOL0     C75368  12.000   9.782   5.213  0.0839  0.1297  0.4468
  547MOL0     C75369  12.111   9.880   5.246  0.0871 -0.4836 -0.1199
  547MOL0     C75370  12.125   9.972   5.134 -0.3981  0.1160  0.6628
  547MOL0     C75371  12.189   9.887   5.016 -0.4037 -0.3246  0.2692
  547MOL0     O75372  12.266   9.982   4.935  0.4598 -0.3354 -0.4760
  547MOL0     C75373  12.398   9.987   4.943 -0.0486 -0.2775  0.0171
  547MOL0     C75374  12.460  10.003   4.817 -0.0780  0.6920  0.2483
  547MOL0     C75375  12.594  10.026   4.808  0.1801 -0.0793 -0.3512
  547MOL0     C75376  12.661  10.054   4.671 -0.0070  0.3902 -0.6530
  547MOL0     C75377  12.677  10.033   4.927 -0.3090  0.4370  0.8300
  547MOL0     C75378  12.827  10.069   4.937  0.4520 -0.5997 -0.6178
  547MOL0     O75379  12.867  10.100   5.055  0.6606 -0.4081 -0.0471
  547MOL0     C75380  12.998  10.119   5.078  0.8985 -0.7877  0.5860
  547MOL0     C75381  13.079  10.215   5.027 -0.2980  0.4447 -0.0527
  547MOL0     C75382  13.205  10.233   5.084 -0.0765  0.2256  0.5204
  547MOL0     C75383  13.257  10.152   5.184 -0.2063  0.3202 -0.5259
  547MOL0     O75384  13.380  10.169   5.248 -0.3002 -1.0769  0.0576
  547MOL0     C75385  13.452  10.293   5.214  0.4939  0.5679 -0.1699
  547MOL0     C75386  13.577  10.299   5.301 -1.1702  0.6711 -0.8979
  547MOL0     C75387  13.695  10.218   5.250  0.1895 -0.1868  0.4994
  547MOL0     C75388  13.822  10.239   5.331  0.2810 -0.3331  0.1927
  547MOL0     C75389  13.942  10.188   5.250  0.6921 -0.0513 -0.3198
  547MOL0     C75390  14.074  10.192   5.333 -0.0198 -0.4497  0.3364
  547MOL0     C75391  14.187  10.223   5.231 -0.6192  0.1400  0.4602
  547MOL0     C75392  14.323  10.226   5.309  0.3342 -0.6021 -0.0864
  547MOL0    Cl75393  14.332  10.090   5.435 -0.3217 -0.1076  0.5462
  547MOL0     C75394  13.172  10.051   5.221 -0.3685 -0.5424  0.1068
  547MOL0     C75395  13.046  10.031   5.170 -0.5814  0.5470 -0.4953
  547MOL0     O75396  12.900  10.064   4.837  0.3099 -0.4644 -0.4175
  547MOL0     C75397  12.615  10.013   5.058  0.1273  0.7577  0.2883
  547MOL0     C75398  12.474   9.987   5.061  0.7368 -0.7046  0.0012
  547MOL0     N75399  12.082   9.586   5.350 -0.1107 -0.0742  0.1108
  547MOL0     N75400  12.041   9.517   5.456  0.0905  0.2969  0.1626
  547MOL0     C75401  11.194   9.796   6.360  0.1593 -0.2261 -0.5445
  547MOL0     C75402  11.061   9.838   6.384  0.5588 -1.1409  0.0910
  547MOL0     C75403  10.626   9.840   6.503 -0.1895 -1.0882  0.2165
  547MOL0     C75404  10.613   9.955   6.584 -0.2015  0.0441  0.9720
  547MOL0     C75405  10.491  10.018   6.607  0.6299 -0.3659  0.4769
  547MOL0     C75406  10.374   9.967   6.558  0.3832 -0.4934 -0.1265
  547MOL0     O75407  10.248  10.026   6.588  0.4275  0.3447 -0.1704
  547MOL0     C75408  10.235  10.152   6.668  0.7149  0.1859  0.0188
  547MOL0     C75409  10.276  10.281   6.610  0.1492 -0.4391  0.4145
  547MOL0     C75410  10.230  10.310   6.467 -0.0328  0.4468 -0.2910
  547MOL0     C75411  10.246  10.449   6.434  0.1792  0.4210  0.1498
  547MOL0     C75412  10.229  10.478   6.293  0.4503  1.0557  0.4854
  547MOL0     C75413  10.216  10.512   6.178 -0.3489 -0.0267  0.0487
  547MOL0     C75414  10.385   9.863   6.471 -0.0206  0.8862 -0.8327
  547MOL0     C75415  10.500   9.792   6.448  0.2795 -0.6373  0.3315
  547MOL0     C75416  10.483   9.671   6.351 -0.7572  0.2850 -0.1689
  547MOL0     H75417  11.006   9.691   6.690  1.9164  2.2426  1.5613
  547MOL0     H75418  11.233   9.622   6.653 -1.0008  0.3196  1.6021
  547MOL0     H75419  11.562   9.753   6.456  0.1089  0.7421 -1.3397
  547MOL0     H75420  11.445   9.840   6.361 -1.0837  0.1057 -1.1106
  547MOL0     H75421  11.605   9.604   6.306 -1.9283 -0.0044  2.4631
  547MOL0     H75422  11.439   9.607   6.237 -1.3761 -0.1284  2.7241
  547MOL0     H75423  11.493   9.808   6.111 -0.2600 -1.7392 -1.3836
  547MOL0     H75424  11.648   9.832   6.179 -1.3701  0.7175  0.6011
  547MOL0     H75425  11.706   9.586   6.097  1.0396 -1.2191 -1.9073
  547MOL0     H75426  11.546   9.591   6.023  1.7312 -1.4327 -0.9293
  547MOL0     H75427  11.793   9.755   5.954  1.1264 -1.5942 -0.0628
  547MOL0     H75428  11.639   9.772   5.873  0.9754  0.2464 -0.4561
  547MOL0     H75429  11.771   9.491   5.884 -1.3510 -0.6322  0.1683
  547MOL0     H75430  11.635   9.538   5.788  0.2818 -2.5916 -0.3462
  547MOL0     H75431  11.883   9.687   5.726 -0.0243 -0.9483  2.0946
  547MOL0     H75432  11.731   9.686   5.648  0.8315 -0.7687  0.0494
  547MOL0     H75433  11.904   9.430   5.663  5.0817  2.0071 -4.0212
  547MOL0     H75434  11.750   9.455   5.575  0.5884 -2.3079  0.1012
  547MOL0     H75435  11.785   9.713   5.414  0.5869  0.4019  1.6055
  547MOL0     H75436  11.901   9.823   5.190 -0.2213  0.1274  1.7260
  547MOL0     H75437  12.023   9.734   5.117  1.2986  3.2949 -0.9883
  547MOL0     H75438  12.088   9.940   5.335 -2.9308 -1.6906  0.0187
  547MOL0     H75439  12.207   9.830   5.261 -0.2755 -1.8249 -1.9168
  547MOL0     H75440  12.029  10.013   5.102 -0.0948  1.1014  0.9937
  547MOL0     H75441  12.182  10.059   5.166 -0.8902  0.1739  1.4190
  547MOL0     H75442  12.254   9.807   5.052 -0.7635 -1.3744 -1.3195
  547MOL0     H75443  12.116   9.850   4.944  0.5585 -0.4614 -0.6508
  547MOL0     H75444  12.404  10.019   4.725 -4.7675  2.9075  3.1390
  547MOL0     H75445  12.612  10.002   4.588 -0.0116  1.3206 -1.2592
  547MOL0     H75446  12.766  10.026   4.660  0.3689  1.3547  0.3489
  547MOL0     H75447  12.651  10.161   4.648 -2.1608 -0.0554 -2.0955
  547MOL0     H75448  13.043  10.280   4.948 -2.6846 -0.0126  0.5832
  547MOL0     H75449  13.272  10.309   5.046  1.2479 -1.4818 -0.7238
  547MOL0     H75450  13.487  10.297   5.111 -0.6118  2.4986 -0.5153
  547MOL0     H75451  13.383  10.374   5.239 -0.9824 -0.7190  0.1106
  547MOL0     H75452  13.605  10.402   5.325 -0.0961 -0.1374  1.7659
  547MOL0     H75453  13.544  10.250   5.394 -1.6880 -1.0184 -1.9352
  547MOL0     H75454  13.707  10.224   5.142  3.0936 -0.1289  0.7482
  547MOL0     H75455  13.670  10.113   5.264  3.1208 -1.1158 -0.4487
  547MOL0     H75456  13.810  10.199   5.433 -1.7030 -1.2238 -0.3380
  547MOL0     H75457  13.836  10.347   5.333  2.1162 -0.2759 -4.6190
  547MOL0     H75458  13.920  10.084   5.225 -2.5688  0.1279  1.1950
  547MOL0     H75459  13.949  10.238   5.153 -0.4321  0.4368 -0.1701
  547MOL0     H75460  14.071  10.098   5.389  3.1451 -0.9904 -0.1701
  547MOL0     H75461  14.074  10.270   5.410 -0.9009 -0.4411  0.3325
  547MOL0     H75462  14.178  10.320   5.181  0.7548 -0.5748 -1.2791
  547MOL0     H75463  14.186  10.147   5.153  0.4539 -2.4771  2.8328
  547MOL0     H75464  14.329  10.319   5.366 -0.8917 -0.4448 -0.1832
  547MOL0     H75465  14.403  10.222   5.234  0.0187 -0.4140 -0.4384
  547MOL0     H75466  13.218   9.985   5.294  0.3674 -0.0356  0.1166
  547MOL0     H75467  12.994   9.946   5.211  1.9259  0.1845  2.2856
  547MOL0     H75468  12.669  10.021   5.151 -0.4575 -0.3061  0.7465
  547MOL0     H75469  12.421   9.966   5.154 -0.8434 -1.9209 -1.1203
  547MOL0     H75470  11.254   9.819   6.273  0.8834 -1.8892 -0.5215
  547MOL0     H75471  11.002   9.890   6.310 -1.3205 -0.3478  2.0601
  547MOL0     H75472  10.696  10.002   6.636  1.0294  0.5016 -1.2532
  547MOL0     H75473  10.495  10.097   6.682  3.2611 -2.8385  3.2478
  547MOL0     H75474  10.129  10.153   6.693  0.6379 -0.9661 -0.2048
  547MOL0     H75475  10.286  10.128   6.762 -1.5291 -2.4442  0.6941
  547MOL0     H75476  10.386  10.289   6.614  0.0778  1.3566 -0.1433
  547MOL0     H75477  10.227  10.356   6.673  0.9756 -0.6028  1.2826
  547MOL0     H75478  10.289  10.248   6.399 -1.3921 -1.1980 -0.0247
  547MOL0     H75479  10.126  10.281   6.452  0.4160 -1.2133 -0.4158
  547MOL0     H75480  10.349  10.477   6.456  1.4755 -1.8904 -2.3697
  547MOL0     H75481  10.184  10.517   6.493 -1.3923 -0.9981  0.2253
  547MOL0     H75482  10.217  10.563   6.083 -2.6069  0.1850  0.0811
  547MOL0     H75483  10.299   9.833   6.411  0.0252 -0.5196 -0.2290
  547MOL0     H75484  10.388   9.619   6.366 -1.3064  0.7550 -1.8291
  547MOL0     H75485  10.484   9.694   6.245 -0.8315  0.5274 -0.1164
  547MOL0     H75486  10.549   9.590   6.384 -3.0002 -1.1170  1.1589
  548MOL0     O75487   4.818   2.423   4.187 -0.5741 -0.4351  0.8009
  548MOL0     C75488   4.789   2.540   4.194  0.7538 -0.2485  0.1020
  548MOL0     O75489   4.872   2.651   4.162 -0.6569  0.1151  0.1409
  548MOL0     C75490   5.001   2.625   4.122 -0.2187  0.0416 -0.4516
  548MOL0     C75491   5.038   2.616   3.988 -0.1814 -0.0581  0.3755
  548MOL0     C75492   5.170   2.591   3.948 -0.2580  0.0500  0.5841
  548MOL0     C75493   5.273   2.585   4.043  0.6761  0.1233 -0.0474
  548MOL0     O75494   5.406   2.577   4.016  0.3251  0.4496  0.0844
  548MOL0     C75495   5.452   2.648   3.896 -0.0489 -0.3937 -0.7048
  548MOL0     C75496   5.585   2.594   3.840 -0.1218 -0.5109  0.4326
  548MOL0     C75497   5.702   2.602   3.932  0.8554 -0.1885  0.3697
  548MOL0     C75498   5.825   2.537   3.871 -0.0729  0.3483  0.6218
  548MOL0     C75499   5.950   2.533   3.956 -0.2047  0.0054  0.1459
  548MOL0     C75500   6.010   2.675   3.989 -0.4345 -0.9441  0.3979
  548MOL0     C75501   6.132   2.662   4.084  0.2869 -0.0097  0.2945
  548MOL0     C75502   6.255   2.604   4.009 -0.7370 -0.2074 -0.0507
  548MOL0     N75503   6.387   2.611   4.079 -0.0448  0.7218  0.1900
  548MOL0     C75504   6.483   2.517   4.078  0.1933 -0.2639  0.4908
  548MOL0     C75505   6.582   2.558   4.156 -0.4432  0.3458 -0.4029
  548MOL0     C75506   6.697   2.467   4.196  0.9468 -0.2003 -0.3492
  548MOL0     C75507   6.824   2.543   4.148  0.0523  0.3405  0.2761
  548MOL0     C75508   6.961   2.476   4.191  0.4294  0.1108 -0.1522
  548MOL0     C75509   7.085   2.569   4.177  0.6257 -0.0405 -0.3763
  548MOL0     O75510   7.207   2.488   4.178 -0.0322 -0.3963  0.1628
  548MOL0     C75511   7.322   2.559   4.155 -0.0596  0.6896 -0.3098
  548MOL0     C75512   7.327   2.685   4.126 -1.2116  0.3643 -0.3572
  548MOL0     C75513   7.452   2.747   4.112  0.7362 -0.7907 -0.2473
  548MOL0     C75514   7.459   2.884   4.039 -0.3389  0.0686 -0.3441
  548MOL0     C75515   7.576   2.678   4.123  0.6762  0.9585 -0.4693
  548MOL0     C75516   7.717   2.735   4.132  0.1392 -0.9178  0.6141
  548MOL0     O75517   7.813   2.652   4.177 -0.6691  0.1456  0.0483
  548MOL0     C75518   7.947   2.675   4.146 -0.0523 -0.0665  0.0924
  548MOL0     C75519   7.998   2.741   4.029 -0.3911  0.4119 -0.5144
  548MOL0     C75520   8.141   2.739   4.000 -0.0098  0.2579 -0.1865
  548MOL0     C75521   8.233   2.671   4.087 -0.1877 -0.3161 -0.0008
  548MOL0     O75522   8.361   2.647   4.040  0.2786 -0.0027 -0.0865
  548MOL0     C75523   8.463   2.706   4.123  0.2690  0.9448  0.7866
  548MOL0     C75524   8.578   2.604   4.104  0.3655  0.1756 -0.2735
  548MOL0     C75525   8.705   2.633   4.178  0.2960 -0.4825 -0.2758
  548MOL0     C75526   8.811   2.524   4.156 -0.7269  0.4229 -0.5017
  548MOL0     C75527   8.949   2.542   4.202  0.0359 -0.1510 -0.3542
  548MOL0     C75528   9.059   2.522   4.102 -0.0429 -0.4549  0.1288
  548MOL0     C75529   9.196   2.536   4.159 -0.0651  0.7112 -0.1241
  548MOL0     C75530   9.236   2.680   4.186  0.7520  0.1399 -0.2831
  548MOL0    Cl75531   9.408   2.677   4.238  0.4336  0.3626 -0.3975
  548MOL0     C75532   8.187   2.626   4.210 -0.2497  0.1013 -0.0516
  548MOL0     C75533   8.045   2.623   4.235  0.0032 -0.6929  0.2920
  548MOL0     O75534   7.730   2.858   4.113  0.2393 -0.2111  0.7185
  548MOL0     C75535   7.561   2.540   4.158  0.0478  0.2486  1.0193
  548MOL0     C75536   7.435   2.485   4.170 -1.0525  0.5572  0.7326
  548MOL0     N75537   6.547   2.674   4.215  0.7280 -0.4209  0.1620
  548MOL0     N75538   6.431   2.712   4.157 -0.6309 -0.5038  0.4679
  548MOL0     C75539   5.242   2.598   4.172  0.4186  0.0557  0.8501
  548MOL0     C75540   5.112   2.613   4.220  0.1843  0.1197  0.4347
  548MOL0     C75541   4.642   2.568   4.216 -0.7752  0.3783  0.3318
  548MOL0     C75542   4.581   2.678   4.158  0.0929 -0.4789 -0.6138
  548MOL0     C75543   4.444   2.693   4.152  0.0042 -0.3807 -0.6273
  548MOL0     C75544   4.355   2.603   4.204 -0.6730  0.1955 -0.3513
  548MOL0     O75545   4.224   2.623   4.192 -0.6213  0.4003 -0.2453
  548MOL0     C75546   4.133   2.549   4.272  0.6047  0.8715 -0.1264
  548MOL0     C75547   4.089   2.424   4.195 -0.3972  0.3660  0.7129
  548MOL0     C75548   3.979   2.458   4.089  0.0361 -0.1379 -1.0038
  548MOL0     C75549   4.018   2.565   3.985 -0.1339  0.8161 -0.7414
  548MOL0     C75550   3.917   2.556   3.871  0.5854  0.8461  0.9716
  548MOL0     C75551   3.838   2.554   3.775 -0.3816  0.3941 -0.7264
  548MOL0     C75552   4.410   2.490   4.258 -0.3306 -0.1796  0.7207
  548MOL0     C75553   4.551   2.465   4.262  0.3073 -0.1113  0.3938
  548MOL0     C75554   4.584   2.334   4.329  0.0948  0.0906  0.3244
  548MOL0     H75555   4.947   2.637   3.933 -0.3073 -0.0201  0.5964
  548MOL0     H75556   5.180   2.569   3.842 -0.8056 -1.0533  0.7503
  548MOL0     H75557   5.468   2.751   3.928 -1.3136 -0.2681 -0.4076
  548MOL0     H75558   5.370   2.658   3.823 -0.5874 -2.9206 -0.5368
  548MOL0     H75559   5.568   2.492   3.805 -0.1566  0.0503 -1.2897
  548MOL0     H75560   5.611   2.645   3.747  2.5797  0.0462  1.4098
  548MOL0     H75561   5.718   2.708   3.958 -1.0494  0.8037 -2.0913
  548MOL0     H75562   5.674   2.543   4.019 -2.1069  1.9746  1.0163
  548MOL0     H75563   5.804   2.430   3.863 -0.2005  0.4504 -0.5163
  548MOL0     H75564   5.847   2.570   3.769  2.0152  1.5333  1.3804
  548MOL0     H75565   6.029   2.486   3.897 -1.3975 -1.2808 -0.5010
  548MOL0     H75566   5.930   2.479   4.049 -2.5225  0.7152  0.1215
  548MOL0     H75567   6.033   2.737   3.902  0.4132 -0.5240  0.9034
  548MOL0     H75568   5.933   2.732   4.042  0.5205  0.4875  0.3189
  548MOL0     H75569   6.103   2.595   4.165  2.4211 -4.0099 -1.9526
  548MOL0     H75570   6.163   2.755   4.134 -0.1112 -0.5789  1.6481
  548MOL0     H75571   6.236   2.499   3.986 -1.8686 -0.0438  0.0873
  548MOL0     H75572   6.279   2.658   3.916 -2.4792 -1.9043 -1.5873
  548MOL0     H75573   6.478   2.422   4.026  2.4045 -0.6691  0.9188
  548MOL0     H75574   6.686   2.370   4.148  2.7235 -1.3237  1.3431
  548MOL0     H75575   6.702   2.449   4.304  0.6315 -1.5310 -0.5367
  548MOL0     H75576   6.808   2.544   4.039  2.5088 -0.4054 -0.1633
  548MOL0     H75577   6.819   2.646   4.184  0.6960 -0.2061  1.9946
  548MOL0     H75578   6.949   2.445   4.295  1.5960  1.0914  0.3104
  548MOL0     H75579   6.971   2.382   4.136  2.9802  0.0207  0.3478
  548MOL0     H75580   7.068   2.615   4.079 -0.6076  2.2281  0.8069
  548MOL0     H75581   7.090   2.654   4.247 -2.8053  0.6523 -0.7890
  548MOL0     H75582   7.239   2.747   4.111 -1.8439 -0.0266  1.5247
  548MOL0     H75583   7.525   2.887   3.952 -1.7997 -0.7442 -1.5381
  548MOL0     H75584   7.502   2.961   4.104 -0.3377 -0.4220  0.2458
  548MOL0     H75585   7.361   2.911   3.997  1.3945  0.3956 -4.7166
  548MOL0     H75586   7.933   2.782   3.952 -2.5823 -0.1936  0.8936
  548MOL0     H75587   8.174   2.777   3.904  2.4690 -2.1916 -0.4351
  548MOL0     H75588   8.485   2.799   4.070  2.9687 -0.2070 -0.2754
  548MOL0     H75589   8.428   2.708   4.227 -0.9492 -1.2660  0.4718
  548MOL0     H75590   8.546   2.500   4.110  1.2456 -0.0858 -0.0623
  548MOL0     H75591   8.612   2.614   4.001 -1.1512 -1.4048 -0.9906
  548MOL0     H75592   8.688   2.634   4.286 -1.8983 -0.9877 -0.5643
  548MOL0     H75593   8.744   2.728   4.142  2.2855 -0.0978  2.5742
  548MOL0     H75594   8.819   2.515   4.047 -3.7836  1.9348 -0.9608
  548MOL0     H75595   8.764   2.434   4.198  0.7543  0.6341  1.7632
  548MOL0     H75596   8.963   2.647   4.228  1.9679 -0.9988  2.5322
  548MOL0     H75597   8.962   2.481   4.292  2.5054  0.8068  0.0132
  548MOL0     H75598   9.047   2.573   4.006 -1.1860  1.8383  1.3838
  548MOL0     H75599   9.054   2.415   4.082  4.7258 -1.7680  4.0563
  548MOL0     H75600   9.264   2.489   4.088  0.6896  0.2338  0.8991
  548MOL0     H75601   9.198   2.473   4.249  0.8652 -4.9140 -3.6398
  548MOL0     H75602   9.169   2.728   4.258 -1.0763  0.6437 -2.1984
  548MOL0     H75603   9.224   2.736   4.092 -1.0552 -0.3469 -0.3722
  548MOL0     H75604   8.249   2.573   4.282 -0.3502 -1.5138 -1.1020
  548MOL0     H75605   8.004   2.574   4.322 -3.1818  2.7761  1.0386
  548MOL0     H75606   7.649   2.476   4.162  0.1080  0.0515 -1.7190
  548MOL0     H75607   7.422   2.378   4.184  2.3467 -0.4805 -2.4322
  548MOL0     H75608   5.320   2.595   4.248  2.0872  0.4671 -0.7927
  548MOL0     H75609   5.081   2.624   4.323 -4.5499 -0.8772 -0.6441
  548MOL0     H75610   4.654   2.753   4.130  0.6349  0.1942  2.2865
  548MOL0     H75611   4.400   2.779   4.103 -1.0109 -0.2346  0.5004
  548MOL0     H75612   4.184   2.528   4.366 -0.3958  1.8368  0.6540
  548MOL0     H75613   4.038   2.596   4.298 -1.8641 -3.6060 -0.0938
  548MOL0     H75614   4.046   2.352   4.265 -3.3502  2.5587  1.3528
  548MOL0     H75615   4.174   2.380   4.143 -0.8846  1.1004 -0.7664
  548MOL0     H75616   3.938   2.368   4.043 -1.5643 -0.0978  0.2685
  548MOL0     H75617   3.889   2.490   4.142  0.2731  0.5242 -0.9838
  548MOL0     H75618   4.119   2.544   3.950 -0.1936  0.5320 -0.7406
  548MOL0     H75619   4.016   2.666   4.027 -0.7304 -0.3102  2.1894
  548MOL0     H75620   3.778   2.525   3.691 -1.8472  0.2995  0.3043
  548MOL0     H75621   4.338   2.420   4.299  0.3310  0.2434  2.7024
  548MOL0     H75622   4.684   2.350   4.369  1.5717 -1.0143 -2.6252
  548MOL0     H75623   4.512   2.310   4.407 -0.4468  0.6466  0.0067
  548MOL0     H75624   4.581   2.256   4.253  0.8441  0.7628 -0.4181
  549MOL0     O75625   2.233   0.783   2.980  0.9923  0.8909  0.8224
  549MOL0     C75626   2.178   0.678   3.012 -1.5010 -0.6765 -0.4940
  549MOL0     O75627   2.239   0.568   3.066  0.4981  0.2973 -0.1816
  549MOL0     C75628   2.366   0.579   3.110  0.7148 -0.6064 -0.0903
  549MOL0     C75629   2.475   0.514   3.045 -0.7798 -0.5011  0.1777
  549MOL0     C75630   2.609   0.540   3.087 -0.1669  0.1963 -0.7374
  549MOL0     C75631   2.637   0.623   3.201 -0.1136  0.0413  0.2496
  549MOL0     O75632   2.766   0.637   3.232 -0.0684 -0.3339  0.4316
  549MOL0     C75633   2.806   0.702   3.346  0.0792 -0.1745  0.8673
  549MOL0     C75634   2.958   0.693   3.375  0.3555  0.4149 -0.3315
  549MOL0     C75635   3.031   0.796   3.282  0.0781 -0.0005  0.1069
  549MOL0     C75636   2.989   0.945   3.292 -0.1624 -0.6048 -0.4214
  549MOL0     C75637   3.089   1.033   3.216 -0.0625  0.1191 -0.5382
  549MOL0     C75638   3.037   1.174   3.212  0.0974  0.3393  0.0768
  549MOL0     C75639   3.125   1.280   3.134  0.2061 -0.2813 -0.5409
  549MOL0     C75640   3.243   1.316   3.224 -0.2195  0.6164  0.4103
  549MOL0     N75641   3.328   1.434   3.177  0.7579  0.7320  0.1903
  549MOL0     C75642   3.458   1.437   3.131  0.1537  0.4240  0.3754
  549MOL0     C75643   3.471   1.559   3.078  0.0071  0.2420 -0.8880
  549MOL0     C75644   3.602   1.602   2.995  0.6201 -0.4830  0.2191
  549MOL0     C75645   3.573   1.721   2.911  0.3785 -0.0164 -0.3880
  549MOL0     C75646   3.507   1.689   2.781  0.4089  0.4493  0.4431
  549MOL0     C75647   3.488   1.819   2.705  0.4680 -0.3451  0.1586
  549MOL0     O75648   3.613   1.835   2.642 -0.0005 -0.3659  0.1881
  549MOL0     C75649   3.631   1.951   2.570  0.0425  0.1544  0.0169
  549MOL0     C75650   3.527   2.031   2.531 -0.1070  0.5545  0.3100
  549MOL0     C75651   3.548   2.136   2.449  0.3230  0.0517  0.7460
  549MOL0     C75652   3.433   2.230   2.426 -0.0631 -0.0210  0.4439
  549MOL0     C75653   3.684   2.162   2.406 -1.2092 -0.2415  1.2106
  549MOL0     C75654   3.711   2.260   2.299  0.0491 -0.6395  0.1846
  549MOL0     O75655   3.830   2.326   2.305  0.4924  0.6637 -0.1703
  549MOL0     C75656   3.845   2.441   2.225  0.0353 -1.4638 -0.1992
  549MOL0     C75657   3.933   2.432   2.112 -0.4374  1.1803  0.2535
  549MOL0     C75658   3.977   2.549   2.036 -0.0282  0.2352  0.0323
  549MOL0     C75659   3.909   2.673   2.064  0.7531 -0.2913 -0.1518
  549MOL0     O75660   3.934   2.779   1.987  0.6307 -0.4686  0.3761
  549MOL0     C75661   3.842   2.893   1.995 -0.1099  0.9482  0.0088
  549MOL0     C75662   3.901   3.025   1.954  0.3303 -0.0857 -0.1247
  549MOL0     C75663   4.001   3.091   2.060  0.3157  1.7502  0.3174
  549MOL0     C75664   4.134   3.019   2.070 -0.1292 -0.3436  0.1576
  549MOL0     C75665   4.238   3.128   2.098 -0.4242 -1.2982  0.1538
  549MOL0     C75666   4.220   3.186   2.239  0.5968 -0.4915  0.7071
  549MOL0     C75667   4.332   3.281   2.276  0.1366 -0.1749 -0.4395
  549MOL0     C75668   4.445   3.191   2.348  1.0444 -0.4045  0.2048
  549MOL0    Cl75669   4.578   3.302   2.376  0.3579  0.2551  0.0779
  549MOL0     C75670   3.815   2.675   2.173  1.1440 -0.3592  0.1422
  549MOL0     C75671   3.778   2.558   2.247 -0.0957 -0.7679  0.1935
  549MOL0     O75672   3.618   2.281   2.220  0.7884  0.0536 -0.2547
  549MOL0     C75673   3.788   2.079   2.437  0.6822 -0.0371 -0.1679
  549MOL0     C75674   3.763   1.971   2.523 -0.1492 -0.2419 -0.5799
  549MOL0     N75675   3.347   1.622   3.076  0.2019 -0.1996  0.4571
  549MOL0     N75676   3.266   1.547   3.143  0.3035  0.2771  0.7542
  549MOL0     C75677   2.524   0.690   3.257  0.2618  0.0285  0.1381
  549MOL0     C75678   2.395   0.673   3.211 -0.3700  0.0889 -0.1006
  549MOL0     C75679   2.033   0.667   2.975  0.4112 -0.0162 -0.3447
  549MOL0     C75680   1.970   0.547   3.012 -0.2983 -0.8285 -0.1369
  549MOL0     C75681   1.833   0.532   2.991  0.1489 -0.3221  0.0245
  549MOL0     C75682   1.751   0.623   2.927  0.2031  0.0856  0.0287
  549MOL0     O75683   1.613   0.610   2.909  0.1810  0.0078 -0.2328
  549MOL0     C75684   1.550   0.502   2.963  0.7537 -0.5352 -0.0923
  549MOL0     C75685   1.400   0.528   2.955 -0.0203 -0.4180  0.2481
  549MOL0     C75686   1.340   0.652   3.026 -0.0586 -0.2588 -0.3000
  549MOL0     C75687   1.404   0.679   3.166 -0.7234 -0.2818 -0.1144
  549MOL0     C75688   1.332   0.601   3.268 -0.0358 -0.2244 -0.6319
  549MOL0     C75689   1.268   0.544   3.355 -0.6101  0.3546 -0.0393
  549MOL0     C75690   1.812   0.742   2.899 -0.0069 -0.4078 -0.1946
  549MOL0     C75691   1.950   0.761   2.899 -0.5596 -0.5338 -0.0730
  549MOL0     C75692   1.993   0.907   2.862 -0.6636 -0.0506 -0.0701
  549MOL0     H75693   2.448   0.463   2.953  2.8778 -0.9573 -0.8341
  549MOL0     H75694   2.696   0.511   3.027 -0.0199 -1.5426  0.2404
  549MOL0     H75695   2.740   0.648   3.416 -2.8594  0.1239 -1.4480
  549MOL0     H75696   2.776   0.806   3.357  1.9865  0.5459 -0.3350
  549MOL0     H75697   2.975   0.722   3.479  4.8803 -0.0888 -0.7251
  549MOL0     H75698   3.004   0.597   3.350  0.8359  0.9607 -1.5993
  549MOL0     H75699   3.137   0.796   3.310 -0.5603  0.2943  2.8619
  549MOL0     H75700   3.032   0.765   3.177 -1.2075  0.4510 -0.0563
  549MOL0     H75701   2.888   0.956   3.251 -1.3528 -1.3588  2.0992
  549MOL0     H75702   2.998   0.975   3.396  2.2463 -2.7207  0.0928
  549MOL0     H75703   3.100   1.006   3.110  1.6868  2.2351 -0.9641
  549MOL0     H75704   3.186   1.012   3.263  0.1148  0.5069 -0.7282
  549MOL0     H75705   2.942   1.169   3.157  0.6722  4.8178 -1.7260
  549MOL0     H75706   3.007   1.212   3.309  0.5430 -1.9457  1.1792
  549MOL0     H75707   3.063   1.369   3.118 -1.8254 -1.3329  1.0148
  549MOL0     H75708   3.160   1.235   3.040  0.1381  0.8776 -1.1351
  549MOL0     H75709   3.196   1.339   3.320 -1.2334 -1.4752  0.4544
  549MOL0     H75710   3.311   1.233   3.242  0.2270  0.8485 -0.1431
  549MOL0     H75711   3.532   1.357   3.133  1.8158  1.5711 -3.8915
  549MOL0     H75712   3.634   1.516   2.935 -0.1002 -0.3173 -0.4350
  549MOL0     H75713   3.691   1.622   3.054 -0.6119  2.9140  1.1269
  549MOL0     H75714   3.506   1.788   2.966 -0.1987 -1.1461  0.3348
  549MOL0     H75715   3.653   1.790   2.883  0.0708 -0.7027 -3.4064
  549MOL0     H75716   3.560   1.613   2.723 -0.7141 -1.3187  1.6470
  549MOL0     H75717   3.409   1.644   2.798  0.7239 -1.5072 -2.3118
  549MOL0     H75718   3.410   1.799   2.632 -0.5088  0.9062  0.8250
  549MOL0     H75719   3.456   1.901   2.770  2.3416 -0.1303  0.8919
  549MOL0     H75720   3.429   2.008   2.572  0.0619  0.5573  0.7243
  549MOL0     H75721   3.448   2.329   2.471 -2.8307  1.7974 -2.2077
  549MOL0     H75722   3.340   2.190   2.469 -0.9425  0.7946 -0.6285
  549MOL0     H75723   3.412   2.258   2.323  0.1777  0.6452  0.5693
  549MOL0     H75724   3.975   2.333   2.092  0.1467  1.4540  0.0841
  549MOL0     H75725   4.053   2.541   1.958 -0.5940  0.0685 -0.5077
  549MOL0     H75726   3.745   2.875   1.948 -0.8601 -1.9764  2.3226
  549MOL0     H75727   3.819   2.908   2.101  0.7999 -0.2778  0.3973
  549MOL0     H75728   3.940   3.020   1.852  0.3574  0.0200 -0.1192
  549MOL0     H75729   3.814   3.090   1.957 -2.2874 -3.3164  0.1837
  549MOL0     H75730   3.961   3.067   2.159  0.4787 -1.1540 -0.2244
  549MOL0     H75731   4.005   3.196   2.031  0.1665  1.3433 -1.2337
  549MOL0     H75732   4.150   2.978   1.970 -2.5263 -0.1256 -0.3692
  549MOL0     H75733   4.142   2.940   2.146  5.3263  0.1946  0.6103
  549MOL0     H75734   4.336   3.079   2.090  0.0112 -0.7292  1.7423
  549MOL0     H75735   4.247   3.209   2.024 -0.1794 -1.3036  0.1769
  549MOL0     H75736   4.221   3.100   2.307 -1.2738 -0.3760  0.9269
  549MOL0     H75737   4.133   3.253   2.237  2.1818  1.6526  0.5779
  549MOL0     H75738   4.301   3.360   2.346  2.1061  2.1352 -2.0138
  549MOL0     H75739   4.375   3.323   2.186  1.8249  0.2562  0.5329
  549MOL0     H75740   4.482   3.111   2.284 -1.3591 -0.7562 -0.8802
  549MOL0     H75741   4.418   3.148   2.445  3.6140 -2.7329 -0.0000
  549MOL0     H75742   3.756   2.759   2.207  2.9550  1.1410 -0.2084
  549MOL0     H75743   3.697   2.568   2.319 -1.2637 -1.6262 -0.9629
  549MOL0     H75744   3.889   2.102   2.407  0.3355  0.4390 -0.9983
  549MOL0     H75745   3.840   1.898   2.548 -2.6049 -2.5505  0.7948
  549MOL0     H75746   2.546   0.762   3.335  1.6979  1.7272 -1.7035
  549MOL0     H75747   2.316   0.735   3.254 -0.4197  0.4298 -0.6702
  549MOL0     H75748   2.011   0.470   3.077 -0.8834 -0.0840  1.1690
  549MOL0     H75749   1.788   0.434   3.006 -2.1439  0.5780 -0.5626
  549MOL0     H75750   1.576   0.408   2.913 -0.0751 -0.5523 -0.5056
  549MOL0     H75751   1.585   0.499   3.067 -0.4247 -0.0906  0.3365
  549MOL0     H75752   1.360   0.437   3.001 -3.4355 -0.2059 -1.9969
  549MOL0     H75753   1.378   0.521   2.848  0.1479 -2.0473  0.2871
  549MOL0     H75754   1.352   0.738   2.961 -2.2503 -0.1987 -0.7167
  549MOL0     H75755   1.231   0.655   3.032 -0.0079  1.6300  0.3083
  549MOL0     H75756   1.382   0.785   3.181  1.7752  0.1313  1.4020
  549MOL0     H75757   1.512   0.663   3.180 -0.8961 -0.9689  0.4688
  549MOL0     H75758   1.207   0.489   3.424 -1.9395  2.4894  0.5657
  549MOL0     H75759   1.753   0.822   2.854 -1.4668 -1.0078  0.5919
  549MOL0     H75760   1.979   0.966   2.954 -1.0961 -1.9212  1.1095
  549MOL0     H75761   2.090   0.912   2.812 -1.0752  1.7991 -0.7985
  549MOL0     H75762   1.930   0.954   2.786  1.1639  0.9486 -1.0372
  550MOL0     O75763   0.728   8.813   7.808  0.1284  0.2872  0.1183
  550MOL0     C75764   0.665   8.778   7.716 -0.2027 -0.0623  0.3762
  550MOL0     O75765   0.715   8.780   7.591  0.3723  0.5568  0.0339
  550MOL0     C75766   0.837   8.727   7.576 -0.5759  0.3290 -1.1985
  550MOL0     C75767   0.943   8.794   7.533  0.0418 -0.1912 -0.6684
  550MOL0     C75768   1.063   8.730   7.506 -0.4856  0.2215  0.4449
  550MOL0     C75769   1.078   8.597   7.527  0.9489 -0.3940  0.0405
  550MOL0     O75770   1.195   8.524   7.521 -0.0212  0.0875 -0.6597
  550MOL0     C75771   1.324   8.576   7.566 -0.4457  0.1345 -0.3467
  550MOL0     C75772   1.427   8.474   7.527 -0.1681  0.6097 -0.3356
  550MOL0     C75773   1.570   8.534   7.551 -1.0848  0.4416  0.1091
  550MOL0     C75774   1.683   8.439   7.498 -0.1562 -0.0715 -0.6614
  550MOL0     C75775   1.818   8.512   7.491 -0.5923  0.6798  0.3503
  550MOL0     C75776   1.933   8.428   7.427  1.6308 -0.0547 -0.1166
  550MOL0     C75777   2.052   8.512   7.403 -0.0950 -0.2826 -0.1179
  550MOL0     C75778   2.170   8.423   7.355  0.4039 -0.2880  0.2682
  550MOL0     N75779   2.296   8.501   7.336 -0.0314  0.2169  0.2158
  550MOL0     C75780   2.388   8.467   7.234 -0.7824  0.1958 -0.0661
  550MOL0     C75781   2.492   8.555   7.258 -0.4168  0.1445  0.5708
  550MOL0     C75782   2.619   8.566   7.182 -0.2993 -0.2883 -0.3567
  550MOL0     C75783   2.733   8.602   7.280  0.4128  0.4635 -0.1862
  550MOL0     C75784   2.854   8.619   7.188 -0.2491 -0.2596 -0.4827
  550MOL0     C75785   2.988   8.658   7.258 -0.1572  0.2603  0.3282
  550MOL0     O75786   3.096   8.642   7.161 -0.6661  0.3314 -0.1014
  550MOL0     C75787   3.195   8.736   7.173  0.6078 -0.3901 -0.4166
  550MOL0     C75788   3.262   8.775   7.061 -0.0422  0.5977 -0.3028
  550MOL0     C75789   3.375   8.868   7.065  0.4907  0.3927 -0.1623
  550MOL0     C75790   3.451   8.900   6.936 -0.0698  0.1203 -0.5972
  550MOL0     C75791   3.417   8.916   7.194 -0.5703  0.0728  0.1855
  550MOL0     C75792   3.532   9.012   7.216 -0.3182  0.7981  0.3407
  550MOL0     O75793   3.575   9.020   7.340  0.1461 -0.1047 -0.1761
  550MOL0     C75794   3.646   9.137   7.365 -0.5885  1.2500 -0.5114
  550MOL0     C75795   3.598   9.259   7.397 -0.1879  0.7549 -0.3405
  550MOL0     C75796   3.680   9.358   7.434  0.3460 -0.4696  0.1211
  550MOL0     C75797   3.820   9.341   7.427  0.2237 -0.1461 -0.3432
  550MOL0     O75798   3.887   9.454   7.463 -0.5193 -0.2589  0.3038
  550MOL0     C75799   4.031   9.447   7.502 -0.6667 -0.6077  0.1629
  550MOL0     C75800   4.032   9.417   7.647 -0.0043  0.6813  0.1443
  550MOL0     C75801   4.173   9.401   7.705 -0.0065  0.6026  0.6478
  550MOL0     C75802   4.153   9.366   7.853 -0.0130  0.6831  1.0310
  550MOL0     C75803   4.288   9.370   7.929  0.1085  1.1070  0.9041
  550MOL0     C75804   4.290   9.381   8.086 -0.9237  0.6243  0.9212
  550MOL0     C75805   4.425   9.429   8.151  0.2092  0.5995  0.1459
  550MOL0     C75806   4.503   9.308   8.186  0.5607 -0.2024 -0.3329
  550MOL0    Cl75807   4.631   9.365   8.291 -0.1160  0.1084  0.3606
  550MOL0     C75808   3.878   9.221   7.393  0.0048  0.7134  1.0925
  550MOL0     C75809   3.789   9.113   7.369  0.4167  0.1523  0.8432
  550MOL0     O75810   3.579   9.075   7.128  0.1859 -0.2916  0.7650
  550MOL0     C75811   3.350   8.876   7.305 -0.1315 -0.7597  0.4654
  550MOL0     C75812   3.239   8.792   7.295 -0.3723 -0.0873  0.1742
  550MOL0     N75813   2.455   8.643   7.354  0.7947 -0.5884  0.2339
  550MOL0     N75814   2.340   8.615   7.402  0.3925  0.6397 -0.1260
  550MOL0     C75815   0.964   8.526   7.566 -0.3189 -0.3911 -0.4914
  550MOL0     C75816   0.842   8.587   7.599 -0.5857 -0.9832  0.2968
  550MOL0     C75817   0.518   8.756   7.723 -0.1714  0.0360 -0.7803
  550MOL0     C75818   0.449   8.685   7.629  0.5941 -0.5921  0.1497
  550MOL0     C75819   0.311   8.683   7.628  0.2592 -0.6325  0.0710
  550MOL0     C75820   0.235   8.729   7.737  0.3341 -0.1908  0.0287
  550MOL0     O75821   0.098   8.709   7.729  0.2523 -0.6375  0.3164
  550MOL0     C75822   0.014   8.793   7.806 -0.2653 -0.2319  0.1795
  550MOL0     C75823   0.009   8.938   7.752 -0.0634  0.0830  0.0655
  550MOL0     C75824  -0.028   8.942   7.599  0.0539  0.7202 -0.1874
  550MOL0     C75825  -0.015   9.075   7.523 -0.0752 -1.0880  0.3510
  550MOL0     C75826  -0.126   9.168   7.547 -0.2983 -0.2474  0.3780
  550MOL0     C75827  -0.212   9.251   7.564 -0.5986  0.4298 -0.7764
  550MOL0     C75828   0.305   8.779   7.848  0.8989 -0.1005  0.2686
  550MOL0     C75829   0.436   8.810   7.836 -0.5745  1.0040  0.2549
  550MOL0     C75830   0.494   8.887   7.952  0.2791  0.1333 -0.2069
  550MOL0     H75831   0.924   8.897   7.507  1.4656 -0.1231 -1.5487
  550MOL0     H75832   1.143   8.793   7.467 -0.9933  1.1619  0.9120
  550MOL0     H75833   1.312   8.590   7.674  1.1426 -1.5870  0.1069
  550MOL0     H75834   1.346   8.671   7.517 -0.2336  0.2443 -0.0481
  550MOL0     H75835   1.421   8.383   7.587  0.7898 -1.4934 -3.2032
  550MOL0     H75836   1.421   8.436   7.424  1.8767 -0.0539 -0.2495
  550MOL0     H75837   1.584   8.625   7.492  1.5370  0.4622  0.6448
  550MOL0     H75838   1.582   8.558   7.657 -1.3894  0.2539  0.1879
  550MOL0     H75839   1.699   8.350   7.559  0.5754 -0.2855 -1.1385
  550MOL0     H75840   1.657   8.405   7.397  2.7080 -5.0035 -0.0589
  550MOL0     H75841   1.845   8.530   7.595 -2.0338 -0.3543  0.9415
  550MOL0     H75842   1.794   8.600   7.431 -2.2655  0.2589  0.3368
  550MOL0     H75843   1.953   8.339   7.488  2.6984 -1.0169 -1.7940
  550MOL0     H75844   1.891   8.387   7.334  1.2263  2.4097 -1.0959
  550MOL0     H75845   2.087   8.553   7.498 -1.9657  3.0677 -0.7305
  550MOL0     H75846   2.036   8.590   7.328 -0.0051 -1.1149 -1.0280
  550MOL0     H75847   2.188   8.331   7.412  2.1325  0.6389  1.3365
  550MOL0     H75848   2.140   8.386   7.257 -0.6119 -0.9170  0.8053
  550MOL0     H75849   2.381   8.385   7.164  1.5284 -1.8711  1.9153
  550MOL0     H75850   2.610   8.645   7.108 -0.3911 -1.0514 -1.1797
  550MOL0     H75851   2.634   8.471   7.130 -0.8043  0.8019 -2.6223
  550MOL0     H75852   2.713   8.696   7.333  0.3389  0.5743 -0.4066
  550MOL0     H75853   2.751   8.532   7.362 -0.2225  0.1822 -0.2760
  550MOL0     H75854   2.877   8.524   7.138  1.7569 -0.1132  0.0882
  550MOL0     H75855   2.828   8.704   7.124 -1.4669  1.9435  2.7071
  550MOL0     H75856   2.974   8.759   7.296 -1.1140  0.8275 -1.4188
  550MOL0     H75857   3.007   8.596   7.346  1.1956 -0.0797 -0.1828
  550MOL0     H75858   3.215   8.737   6.971 -0.4481  0.6431 -0.1111
  550MOL0     H75859   3.423   9.003   6.915 -3.4736 -0.4289  0.6221
  550MOL0     H75860   3.409   8.852   6.847 -1.0884 -0.2231  0.0553
  550MOL0     H75861   3.558   8.876   6.930 -0.1563  0.0900 -3.7074
  550MOL0     H75862   3.492   9.279   7.391 -0.4867 -0.9979 -2.1205
  550MOL0     H75863   3.638   9.454   7.460  0.6063 -0.4834  0.6114
  550MOL0     H75864   4.091   9.378   7.442 -1.1851 -0.8107 -0.1304
  550MOL0     H75865   4.071   9.549   7.493 -1.5728 -0.1255  1.3315
  550MOL0     H75866   3.979   9.490   7.709  0.0176  1.8590 -1.1650
  550MOL0     H75867   3.985   9.320   7.664  0.0856  0.7003  0.4992
  550MOL0     H75868   4.229   9.494   7.697  0.0530  0.6184  1.2156
  550MOL0     H75869   4.233   9.323   7.656  0.2393 -0.3965  2.4489
  550MOL0     H75870   4.112   9.265   7.856 -1.1166  1.1425  2.7346
  550MOL0     H75871   4.080   9.431   7.902 -2.1368 -0.8183  0.0177
  550MOL0     H75872   4.347   9.282   7.898  1.5768  2.5244 -0.5839
  550MOL0     H75873   4.348   9.455   7.896 -0.3746  0.8108 -0.8777
  550MOL0     H75874   4.260   9.287   8.133  2.5921  0.0026  2.1698
  550MOL0     H75875   4.224   9.464   8.114 -0.9243  0.7150  0.6569
  550MOL0     H75876   4.402   9.490   8.239  1.5771  2.5204 -0.7451
  550MOL0     H75877   4.483   9.476   8.071  0.6188 -0.7143 -0.3503
  550MOL0     H75878   4.542   9.253   8.100  2.2118 -3.2835  2.1773
  550MOL0     H75879   4.446   9.232   8.239 -1.1454  1.9273  1.0594
  550MOL0     H75880   3.984   9.199   7.394 -0.1571 -0.1469  0.5703
  550MOL0     H75881   3.827   9.015   7.343  1.3777  0.8570 -0.5545
  550MOL0     H75882   3.373   8.922   7.400  0.2306 -0.4858  0.2478
  550MOL0     H75883   3.178   8.773   7.383 -0.0119 -0.1933  0.4030
  550MOL0     H75884   0.978   8.418   7.565  1.9084 -0.1965  1.3256
  550MOL0     H75885   0.750   8.542   7.635 -1.9500 -0.1850 -2.0385
  550MOL0     H75886   0.502   8.634   7.549 -0.1185 -1.4145  0.1860
  550MOL0     H75887   0.253   8.631   7.553  1.8245 -1.2654 -0.7400
  550MOL0     H75888  -0.083   8.743   7.806  0.1686 -1.2224  2.5818
  550MOL0     H75889   0.043   8.803   7.911 -0.5032  1.2676  0.1217
  550MOL0     H75890   0.101   8.992   7.774 -0.5540  0.0996  2.2773
  550MOL0     H75891  -0.076   8.984   7.802 -0.3850  0.9558 -1.2412
  550MOL0     H75892   0.054   8.886   7.552 -1.1771 -0.6819 -0.7366
  550MOL0     H75893  -0.122   8.892   7.573  1.6484 -2.6540 -0.1018
  550MOL0     H75894  -0.017   9.051   7.416  2.6236 -0.1777  0.0326
  550MOL0     H75895   0.075   9.135   7.535 -1.1669  0.4993  0.9013
  550MOL0     H75896  -0.278   9.333   7.585 -0.1118  0.6781 -0.1799
  550MOL0     H75897   0.260   8.805   7.943 -2.5226 -1.6759 -0.7785
  550MOL0     H75898   0.590   8.847   7.985  2.7741  3.1247 -3.1393
  550MOL0     H75899   0.514   8.993   7.930  0.3704 -0.1376 -1.5166
  550MOL0     H75900   0.427   8.888   8.039 -0.1841  3.6796 -0.4490
  551MOL0     O75901   3.113   4.331   4.599  0.0341  0.4719 -0.7201
  551MOL0     C75902   3.115   4.231   4.677  0.8494 -0.3478 -0.1465
  551MOL0     O75903   3.199   4.124   4.678  0.2539  0.0945 -0.2469
  551MOL0     C75904   3.304   4.105   4.595 -0.2868 -0.5901  0.9890
  551MOL0     C75905   3.329   4.169   4.471  0.8912  0.2963 -0.6993
  551MOL0     C75906   3.445   4.141   4.396  0.4133  1.0532 -0.1950
  551MOL0     C75907   3.537   4.047   4.440  0.5769  0.1901  0.6599
  551MOL0     O75908   3.643   4.022   4.355 -0.2052  0.3117  0.4145
  551MOL0     C75909   3.769   4.002   4.431  0.1361 -0.6930  0.6140
  551MOL0     C75910   3.875   3.996   4.329 -0.0059 -0.2694  0.0424
  551MOL0     C75911   3.869   3.867   4.247  0.4605 -0.2664 -0.2096
  551MOL0     C75912   3.974   3.851   4.133  1.1827  1.6839  0.5433
  551MOL0     C75913   3.925   3.740   4.036 -0.4456  0.1326 -0.6562
  551MOL0     C75914   4.021   3.728   3.919 -1.1262 -0.1294  0.3574
  551MOL0     C75915   4.161   3.676   3.959  0.0291  0.4411 -0.3010
  551MOL0     C75916   4.262   3.690   3.844  0.5788 -0.3445  0.4459
  551MOL0     N75917   4.394   3.642   3.869 -0.0594  0.2666  0.1021
  551MOL0     C75918   4.489   3.704   3.944 -0.4880 -0.1403  0.8791
  551MOL0     C75919   4.602   3.637   3.920 -0.3909 -0.1447 -0.4790
  551MOL0     C75920   4.730   3.641   3.999 -1.2296 -0.0712 -1.3211
  551MOL0     C75921   4.802   3.778   4.012  0.8136  0.0852 -0.1957
  551MOL0     C75922   4.799   3.859   3.885 -0.2301 -0.4157 -0.0345
  551MOL0     C75923   4.901   3.814   3.780 -0.0817  0.3672 -0.1313
  551MOL0     O75924   5.027   3.769   3.836 -0.3946 -0.5451 -0.4640
  551MOL0     C75925   5.123   3.862   3.879  0.3410 -0.0189  1.3223
  551MOL0     C75926   5.109   4.002   3.896 -0.9105  0.5370  0.2257
  551MOL0     C75927   5.218   4.089   3.922  0.5169 -0.0337  0.7134
  551MOL0     C75928   5.183   4.233   3.939  0.6613 -0.1962 -0.0402
  551MOL0     C75929   5.343   4.040   3.952 -0.3323  0.4435 -0.4363
  551MOL0     C75930   5.468   4.121   3.978 -0.2822  0.7160  0.0436
  551MOL0     O75931   5.584   4.045   3.987  0.0584 -0.4596 -0.3860
  551MOL0     C75932   5.699   4.108   4.034  0.0391  0.0517  0.7543
  551MOL0     C75933   5.791   4.040   4.109 -0.1179 -0.2842  0.1641
  551MOL0     C75934   5.923   4.074   4.134 -0.2253 -0.5060  1.2554
  551MOL0     C75935   5.970   4.194   4.073 -0.4334 -0.1390 -0.6753
  551MOL0     O75936   6.092   4.248   4.102 -0.5971 -0.8034  0.3422
  551MOL0     C75937   6.191   4.176   4.181 -0.0701 -0.4278  0.3664
  551MOL0     C75938   6.151   4.199   4.330  0.5115 -0.3296 -0.4309
  551MOL0     C75939   6.172   4.352   4.373 -0.8800 -0.5022  0.3076
  551MOL0     C75940   6.319   4.381   4.414  0.3146 -0.1613 -0.2707
  551MOL0     C75941   6.333   4.518   4.485 -0.2368  0.3459 -0.0442
  551MOL0     C75942   6.467   4.515   4.555 -0.3010 -0.5529 -0.3365
  551MOL0     C75943   6.491   4.639   4.654 -0.2080  0.2603  0.1079
  551MOL0     C75944   6.544   4.755   4.581  0.6942  0.2401 -0.7784
  551MOL0    Cl75945   6.407   4.859   4.551  0.1295 -0.1125 -0.3327
  551MOL0     C75946   5.881   4.271   4.003  0.5599  0.2304 -0.0464
  551MOL0     C75947   5.754   4.223   3.976  0.0256 -0.1206 -0.7028
  551MOL0     O75948   5.461   4.239   3.979  0.4893 -0.7156  0.0261
  551MOL0     C75949   5.354   3.890   3.940 -0.2729  0.1698 -0.5313
  551MOL0     C75950   5.246   3.809   3.915 -0.4611 -0.1130 -0.1963
  551MOL0     N75951   4.572   3.534   3.836  0.3430 -0.7040  0.2494
  551MOL0     N75952   4.448   3.537   3.809 -0.0058 -0.0856  0.1390
  551MOL0     C75953   3.513   3.970   4.560  0.7030  0.0608  0.5919
  551MOL0     C75954   3.399   4.010   4.633 -0.1152 -0.1967  0.6325
  551MOL0     C75955   3.006   4.239   4.784  1.1796  1.1079  0.0863
  551MOL0     C75956   2.997   4.130   4.874 -0.3754  0.1346 -0.7111
  551MOL0     C75957   2.899   4.126   4.975  1.0048  0.3629  0.3244
  551MOL0     C75958   2.798   4.219   4.983  1.6241  0.2288 -0.5349
  551MOL0     O75959   2.696   4.223   5.070  0.2222  0.4198  0.0686
  551MOL0     C75960   2.668   4.101   5.141 -0.0727 -0.4417  0.8177
  551MOL0     C75961   2.550   4.125   5.227 -0.2961  0.4980 -0.2180
  551MOL0     C75962   2.469   3.997   5.250  0.8597 -0.0992  0.1718
  551MOL0     C75963   2.524   3.899   5.354 -0.2193  0.1563  1.2028
  551MOL0     C75964   2.426   3.796   5.385 -0.1368  0.3067  0.5177
  551MOL0     C75965   2.354   3.706   5.418  0.5517  0.0201  0.3595
  551MOL0     C75966   2.800   4.321   4.896  0.5693  0.8689 -0.2315
  551MOL0     C75967   2.904   4.339   4.804 -0.9339  0.0851 -0.4752
  551MOL0     C75968   2.893   4.464   4.710  0.5823  0.1022 -0.1690
  551MOL0     H75969   3.251   4.231   4.427 -0.8598  0.0385  1.8304
  551MOL0     H75970   3.478   4.191   4.305  2.8570 -0.3116 -0.1515
  551MOL0     H75971   3.771   3.913   4.495  1.3960 -0.3625  1.0650
  551MOL0     H75972   3.783   4.089   4.497  0.6825  0.5064 -1.0204
  551MOL0     H75973   3.854   4.071   4.253 -0.7510  0.4467  0.9301
  551MOL0     H75974   3.971   4.027   4.372 -0.9116  2.3275  0.3636
  551MOL0     H75975   3.890   3.780   4.310  3.1506 -1.0632 -2.0466
  551MOL0     H75976   3.769   3.866   4.202 -0.5087 -1.4968  1.8286
  551MOL0     H75977   3.989   3.948   4.085 -1.3362  2.2782  0.8302
  551MOL0     H75978   4.067   3.827   4.186  0.2037 -1.5781  0.9733
  551MOL0     H75979   3.831   3.783   3.998 -0.0825  1.3345 -0.2264
  551MOL0     H75980   3.897   3.643   4.079  0.2455  0.1856 -0.0869
  551MOL0     H75981   3.983   3.648   3.854  0.7277 -1.4269  0.7701
  551MOL0     H75982   4.021   3.822   3.863  1.2879  0.0853  0.6081
  551MOL0     H75983   4.164   3.568   3.978  3.1251  0.2238 -1.5298
  551MOL0     H75984   4.201   3.728   4.046  0.8693  1.8113 -1.4671
  551MOL0     H75985   4.215   3.636   3.762 -0.1502  2.1084 -0.8627
  551MOL0     H75986   4.262   3.795   3.812 -1.2774 -1.2323 -3.0076
  551MOL0     H75987   4.468   3.787   4.010  0.0036  1.5690 -0.9997
  551MOL0     H75988   4.806   3.580   3.951 -1.0500 -1.8765  1.1208
  551MOL0     H75989   4.714   3.606   4.101  1.6578 -0.0892 -0.7993
  551MOL0     H75990   4.736   3.830   4.083 -1.8986 -0.5701 -2.0696
  551MOL0     H75991   4.904   3.756   4.045  1.1524  0.9749 -0.6215
  551MOL0     H75992   4.702   3.868   3.835 -1.0369 -3.6247  0.7422
  551MOL0     H75993   4.820   3.962   3.915  2.4798 -1.4737  2.0760
  551MOL0     H75994   4.865   3.728   3.722 -0.3654 -1.0900  2.0402
  551MOL0     H75995   4.909   3.901   3.716 -1.1385 -0.1432 -0.9960
  551MOL0     H75996   5.014   4.049   3.873 -0.3902  2.5407  1.9588
  551MOL0     H75997   5.077   4.252   3.920  0.1343 -0.9969  1.8601
  551MOL0     H75998   5.236   4.289   3.862  1.3807 -1.7907 -0.7686
  551MOL0     H75999   5.212   4.277   4.034 -0.9155  1.2470 -0.1868
  551MOL0     H76000   5.760   3.940   4.138  0.8718 -1.3731 -2.2971
  551MOL0     H76001   5.996   4.000   4.165  0.5182 -0.2558  0.1854
  551MOL0     H76002   6.213   4.076   4.142  3.2053  1.1416 -2.2994
  551MOL0     H76003   6.286   4.227   4.164  1.3429 -2.7265  0.8952
  551MOL0     H76004   6.046   4.172   4.344 -0.3775  3.1581  0.7025
  551MOL0     H76005   6.210   4.124   4.383  0.2604 -0.3327 -0.1563
  551MOL0     H76006   6.099   4.377   4.450  0.0205 -1.1140  1.3946
  551MOL0     H76007   6.153   4.414   4.285  2.8539  0.5441  0.0650
  551MOL0     H76008   6.384   4.382   4.325  0.0368 -1.0055 -0.4995
  551MOL0     H76009   6.343   4.300   4.484 -1.0635  2.4331  3.5019
  551MOL0     H76010   6.331   4.604   4.419  1.6435  0.2594 -0.2639
  551MOL0     H76011   6.246   4.514   4.552  0.6366 -1.0629  1.0803
  551MOL0     H76012   6.549   4.508   4.483 -0.5489  0.9706 -0.8006
  551MOL0     H76013   6.469   4.423   4.615 -0.1964  0.0937  0.6701
  551MOL0     H76014   6.569   4.604   4.723 -0.7792 -1.1599  0.0633
  551MOL0     H76015   6.398   4.658   4.709 -1.3503 -1.3739 -1.1643
  551MOL0     H76016   6.592   4.734   4.486  0.1333  1.3199 -1.3212
  551MOL0     H76017   6.620   4.808   4.640  0.0072  0.2900  0.0973
  551MOL0     H76018   5.928   4.361   3.965  1.0433 -1.4807 -3.9547
  551MOL0     H76019   5.703   4.282   3.900 -2.2270  2.1591  2.3088
  551MOL0     H76020   5.443   3.831   3.953  0.3008  1.2220  0.5124
  551MOL0     H76021   5.263   3.702   3.911  4.8704  0.5066 -1.3140
  551MOL0     H76022   3.584   3.891   4.582  0.9263 -0.4828 -1.8032
  551MOL0     H76023   3.379   3.963   4.728  0.8480 -0.9116  0.5006
  551MOL0     H76024   3.089   4.072   4.879  1.3835  2.7719  4.2933
  551MOL0     H76025   2.900   4.045   5.047 -0.8443  0.2695  0.2876
  551MOL0     H76026   2.646   4.023   5.067  3.9205 -0.1591 -0.9125
  551MOL0     H76027   2.756   4.072   5.198 -0.3236 -0.9593  0.9551
  551MOL0     H76028   2.479   4.188   5.173  0.0647  1.2975  0.2340
  551MOL0     H76029   2.579   4.176   5.319  0.6983 -2.7610  1.4574
  551MOL0     H76030   2.369   4.026   5.284  0.3187 -2.0603  0.3802
  551MOL0     H76031   2.443   3.940   5.160 -2.1488  1.3122  0.0253
  551MOL0     H76032   2.560   3.931   5.452 -0.6604  0.4580  1.2707
  551MOL0     H76033   2.603   3.842   5.304 -1.4635 -2.0808  1.6516
  551MOL0     H76034   2.276   3.638   5.444 -1.2866  0.9201 -2.3798
  551MOL0     H76035   2.722   4.391   4.922  0.1821  0.0214  0.9726
  551MOL0     H76036   2.865   4.419   4.614 -0.5079 -4.2204  1.9450
  551MOL0     H76037   2.819   4.536   4.746 -0.2565 -0.8274  0.0019
  551MOL0     H76038   2.992   4.511   4.707  0.3979  0.5160 -3.6587
  552MOL0     O76039   3.936   3.448   7.184 -0.0044  0.3160 -0.0796
  552MOL0     C76040   3.881   3.384   7.096 -0.0604  0.2811  0.5584
  552MOL0     O76041   3.947   3.330   6.991  0.6004 -0.3792  0.1840
  552MOL0     C76042   4.079   3.338   6.982 -0.3742 -0.3569 -0.0379
  552MOL0     C76043   4.166   3.253   7.055 -0.2950 -0.3490  0.5022
  552MOL0     C76044   4.302   3.239   7.025 -0.4125  0.1444 -0.7868
  552MOL0     C76045   4.364   3.323   6.933 -0.3744 -0.7372 -0.0361
  552MOL0     O76046   4.500   3.316   6.918  0.0639  0.3713 -0.0630
  552MOL0     C76047   4.568   3.414   6.845 -0.5012 -0.8927  0.1093
  552MOL0     C76048   4.712   3.436   6.885 -0.2170  0.5021  0.4842
  552MOL0     C76049   4.710   3.482   7.038  0.4806 -0.2167  0.9969
  552MOL0     C76050   4.793   3.608   7.052  0.3099 -0.2237  0.1630
  552MOL0     C76051   4.804   3.655   7.192  0.1412 -0.9592  0.2462
  552MOL0     C76052   4.896   3.581   7.275  0.4914 -0.1301 -0.3831
  552MOL0     C76053   5.047   3.606   7.242 -0.7916  0.6067  0.3424
  552MOL0     C76054   5.136   3.522   7.329 -0.2714  0.0413  0.2709
  552MOL0     N76055   5.277   3.560   7.320  0.1063 -0.4475 -0.3110
  552MOL0     C76056   5.371   3.487   7.256 -0.1818 -0.6463  0.4018
  552MOL0     C76057   5.476   3.576   7.220  0.0874 -0.6791 -0.1834
  552MOL0     C76058   5.597   3.538   7.144 -0.8629  0.2089  1.3231
  552MOL0     C76059   5.732   3.583   7.207 -0.4446  0.6131  0.2861
  552MOL0     C76060   5.846   3.549   7.111  0.2921 -0.5761  0.0578
  552MOL0     C76061   5.969   3.617   7.169  0.0649 -0.5954 -0.8821
  552MOL0     O76062   6.074   3.601   7.079 -0.2774 -0.7164 -0.1696
  552MOL0     C76063   6.204   3.649   7.098  0.2040  0.3041  0.2053
  552MOL0     C76064   6.249   3.708   7.216  0.5861  0.2786  0.0073
  552MOL0     C76065   6.379   3.759   7.235 -0.9507 -0.1521  0.0489
  552MOL0     C76066   6.420   3.810   7.376  0.7066 -0.5357  0.7761
  552MOL0     C76067   6.470   3.742   7.130  0.0738  0.0936  0.1786
  552MOL0     C76068   6.605   3.801   7.124  0.1062 -0.7165  0.0030
  552MOL0     O76069   6.683   3.745   7.035 -0.5057  0.9988  0.1497
  552MOL0     C76070   6.807   3.787   6.998 -0.8658 -0.8210  0.5247
  552MOL0     C76071   6.905   3.836   7.085  1.1500 -0.5256  0.0989
  552MOL0     C76072   7.035   3.854   7.036 -0.0482 -0.2398 -0.0817
  552MOL0     C76073   7.080   3.826   6.906 -0.1332 -0.1502 -0.3152
  552MOL0     O76074   7.210   3.845   6.862 -0.4014  0.2589 -0.4872
  552MOL0     C76075   7.329   3.817   6.950  0.0886  0.2905  0.8044
  552MOL0     C76076   7.442   3.757   6.860  0.6729 -0.4486 -0.4894
  552MOL0     C76077   7.575   3.738   6.938  0.5085  0.2757 -0.0047
  552MOL0     C76078   7.668   3.851   6.944 -0.6460  0.2910  0.5150
  552MOL0     C76079   7.698   3.913   6.811 -0.7141  0.1827  0.8034
  552MOL0     C76080   7.777   3.829   6.704  0.3731  0.5410  0.6712
  552MOL0     C76081   7.923   3.804   6.755  0.1934  0.0383  0.7827
  552MOL0     C76082   8.027   3.929   6.734 -0.1671 -0.0308  0.2763
  552MOL0    Cl76083   8.195   3.896   6.784 -0.7365 -0.2165 -0.2511
  552MOL0     C76084   6.986   3.768   6.813  0.3652  0.3068  0.2630
  552MOL0     C76085   6.855   3.749   6.860 -1.1239 -0.6531  0.5070
  552MOL0     O76086   6.639   3.884   7.203 -0.5156  0.0348  0.3697
  552MOL0     C76087   6.426   3.678   7.009 -1.0737  1.1006 -0.2303
  552MOL0     C76088   6.301   3.629   6.999  0.1300  0.8362 -0.0188
  552MOL0     N76089   5.435   3.699   7.277 -0.2699  0.4022  0.1948
  552MOL0     N76090   5.317   3.686   7.328 -0.3500  0.3285 -1.3912
  552MOL0     C76091   4.280   3.406   6.847 -1.0336  0.4248 -0.0935
  552MOL0     C76092   4.144   3.410   6.874 -0.5225  1.8517 -0.1360
  552MOL0     C76093   3.739   3.363   7.114 -0.0365  0.6027  0.0855
  552MOL0     C76094   3.673   3.427   7.225 -0.0041 -0.0348  0.6245
  552MOL0     C76095   3.539   3.413   7.248 -0.5772 -0.4770 -0.5049
  552MOL0     C76096   3.461   3.336   7.174 -0.5060  1.2458  0.9354
  552MOL0     O76097   3.328   3.330   7.185 -0.2538 -0.4444 -0.8850
  552MOL0     C76098   3.266   3.226   7.267  0.6188 -0.2110 -0.0344
  552MOL0     C76099   3.154   3.144   7.182  0.9220  0.0610 -1.2507
  552MOL0     C76100   3.029   3.226   7.173 -0.5196 -0.0820 -0.1108
  552MOL0     C76101   2.906   3.149   7.135  0.3833  0.3358  1.3912
  552MOL0     C76102   2.854   3.075   7.244 -0.4813 -0.6005  0.1800
  552MOL0     C76103   2.804   3.032   7.347  0.4510 -0.1815  0.3058
  552MOL0     C76104   3.518   3.277   7.063 -0.1152 -0.9107  0.7197
  552MOL0     C76105   3.650   3.288   7.024  0.4505 -0.0459 -0.7619
  552MOL0     C76106   3.694   3.208   6.905  0.2024  0.0176  0.3100
  552MOL0     H76107   4.116   3.185   7.123 -4.1659  1.4058 -0.2981
  552MOL0     H76108   4.362   3.171   7.085  0.6110  2.2039  0.6633
  552MOL0     H76109   4.513   3.508   6.830  0.1451 -0.2867  1.3920
  552MOL0     H76110   4.562   3.377   6.743 -1.6078  2.5621 -1.2161
  552MOL0     H76111   4.760   3.338   6.879  1.0342  1.0166  1.5873
  552MOL0     H76112   4.760   3.513   6.823  2.3908 -0.1604  1.5485
  552MOL0     H76113   4.609   3.516   7.063  0.8441  1.3338  0.4608
  552MOL0     H76114   4.740   3.402   7.106 -0.9036 -0.3047  1.5339
  552MOL0     H76115   4.888   3.569   7.014  0.1025  1.0679 -1.8522
  552MOL0     H76116   4.763   3.692   6.988 -0.5791 -1.9578 -1.8202
  552MOL0     H76117   4.702   3.653   7.232  0.3984 -0.3783  0.9557
  552MOL0     H76118   4.830   3.761   7.199  1.3995 -1.0746 -1.7011
  552MOL0     H76119   4.891   3.632   7.372  0.9066  2.4329 -1.6134
  552MOL0     H76120   4.877   3.474   7.288  0.8668  0.0621  2.4082
  552MOL0     H76121   5.078   3.711   7.246 -0.6027  0.5247  1.2223
  552MOL0     H76122   5.072   3.575   7.140 -0.2894 -0.9052  0.9115
  552MOL0     H76123   5.106   3.531   7.434  0.1385 -0.9849  0.4850
  552MOL0     H76124   5.116   3.416   7.314  2.6545 -0.5560  0.1472
  552MOL0     H76125   5.365   3.382   7.225  0.4435  0.1826 -3.0038
  552MOL0     H76126   5.593   3.590   7.047 -1.8171 -1.1533  0.6013
  552MOL0     H76127   5.594   3.432   7.119 -0.6826  0.5559 -0.3280
  552MOL0     H76128   5.730   3.685   7.246  0.4638  0.3724  0.9915
  552MOL0     H76129   5.748   3.516   7.292 -1.6223 -0.4482 -0.2938
  552MOL0     H76130   5.847   3.439   7.106 -0.3225 -0.5410 -2.7724
  552MOL0     H76131   5.833   3.582   7.008 -1.0731 -2.5784 -0.4883
  552MOL0     H76132   5.947   3.723   7.185  1.2685 -0.7137  2.4590
  552MOL0     H76133   5.996   3.560   7.259  2.1157 -0.5906 -1.4613
  552MOL0     H76134   6.189   3.704   7.307  1.4876 -2.8688  0.5702
  552MOL0     H76135   6.399   3.916   7.389 -0.1921  0.0690 -3.7876
  552MOL0     H76136   6.522   3.778   7.396  0.3329 -2.1322  0.3394
  552MOL0     H76137   6.355   3.768   7.453 -1.3915  1.6223  0.2989
  552MOL0     H76138   6.879   3.857   7.188 -0.8402 -1.5340 -0.1385
  552MOL0     H76139   7.105   3.900   7.105 -1.1460  1.0829  0.1761
  552MOL0     H76140   7.364   3.908   7.000 -1.6916  1.1737  0.5247
  552MOL0     H76141   7.310   3.737   7.022 -0.5041 -0.1766  0.1449
  552MOL0     H76142   7.406   3.659   6.827 -1.2968  0.1903 -0.3246
  552MOL0     H76143   7.446   3.816   6.768 -3.2934 -0.4132 -0.8044
  552MOL0     H76144   7.628   3.646   6.911 -2.3199 -2.0139  1.6993
  552MOL0     H76145   7.539   3.722   7.040 -0.4226 -0.6337 -0.4626
  552MOL0     H76146   7.761   3.831   6.998 -0.7665 -0.9819  0.2960
  552MOL0     H76147   7.621   3.930   7.003 -0.1706  2.8616 -2.3036
  552MOL0     H76148   7.605   3.946   6.764 -0.1057  0.8472  0.0357
  552MOL0     H76149   7.749   4.010   6.815 -3.0652  1.4531  2.2774
  552MOL0     H76150   7.789   3.881   6.608  2.2931 -1.1908 -0.1111
  552MOL0     H76151   7.727   3.735   6.679  1.7456 -0.2780  0.9271
  552MOL0     H76152   7.963   3.732   6.683 -1.6750 -0.6248  0.3530
  552MOL0     H76153   7.930   3.760   6.855 -0.5598 -1.2531  0.2966
  552MOL0     H76154   7.981   4.008   6.794 -2.2611 -1.0522  0.1103
  552MOL0     H76155   8.020   3.965   6.631 -0.2506 -0.7679  0.0156
  552MOL0     H76156   7.016   3.741   6.713 -0.0251  0.0444  0.2171
  552MOL0     H76157   6.777   3.697   6.805  1.0775 -1.4803 -1.9889
  552MOL0     H76158   6.494   3.659   6.927 -2.3804 -0.9517 -0.9039
  552MOL0     H76159   6.267   3.581   6.908  0.4313  3.2712 -1.5277
  552MOL0     H76160   4.313   3.462   6.760  0.1661  2.2114  1.4288
  552MOL0     H76161   4.085   3.474   6.809 -3.2985  2.1071  2.4418
  552MOL0     H76162   3.730   3.484   7.298  1.6385 -0.2083 -0.4706
  552MOL0     H76163   3.492   3.472   7.327 -2.2724  1.0319 -2.5352
  552MOL0     H76164   3.347   3.160   7.296  1.2458  0.0751 -1.0934
  552MOL0     H76165   3.221   3.270   7.357  0.4950 -1.6592  0.6355
  552MOL0     H76166   3.125   3.057   7.242  2.1672 -0.6457 -1.6359
  552MOL0     H76167   3.206   3.103   7.095  2.5182  1.2406 -0.8896
  552MOL0     H76168   3.000   3.272   7.268 -3.8017 -0.5096 -0.7927
  552MOL0     H76169   3.055   3.307   7.104  2.3006 -0.3568  0.5386
  552MOL0     H76170   2.924   3.092   7.044 -3.5322  2.4210 -0.9862
  552MOL0     H76171   2.830   3.221   7.103  2.0288  0.7625 -2.0312
  552MOL0     H76172   2.759   3.006   7.440 -0.9724 -2.1321 -0.8426
  552MOL0     H76173   3.461   3.222   6.989  1.1343  1.5683 -2.3166
  552MOL0     H76174   3.678   3.268   6.815  1.3278  0.9090  0.6752
  552MOL0     H76175   3.797   3.172   6.902 -0.5621 -2.2817 -0.5811
  552MOL0     H76176   3.643   3.111   6.900  0.7928 -0.2778 -0.1080
  553MOL0     O76177   9.302   1.191   3.552  0.2233 -0.3411 -0.8987
  553MOL0     C76178   9.248   1.249   3.465 -0.4456  0.0683  0.1585
  553MOL0     O76179   9.318   1.302   3.361 -0.2192 -0.5771 -0.3225
  553MOL0     C76180   9.420   1.233   3.321 -1.0601 -0.1908  0.2970
  553MOL0     C76181   9.404   1.116   3.244  0.2876  0.0030  0.5302
  553MOL0     C76182   9.496   1.062   3.164 -0.9031 -0.0209  0.8903
  553MOL0     C76183   9.629   1.113   3.175 -0.1469 -0.5250  0.2084
  553MOL0     O76184   9.737   1.050   3.112 -0.6827  0.4179 -0.6602
  553MOL0     C76185   9.750   0.907   3.143 -0.3098 -0.7804  0.0045
  553MOL0     C76186   9.874   0.856   3.068  0.2814 -0.2626  0.3897
  553MOL0     C76187  10.005   0.930   3.113 -0.8050 -0.7928 -0.0818
  553MOL0     C76188  10.133   0.861   3.066 -0.0903  0.0689  1.0279
  553MOL0     C76189  10.255   0.910   3.141  0.1038 -0.1958 -0.5810
  553MOL0     C76190  10.374   0.837   3.076  0.2767 -1.0289 -0.6897
  553MOL0     C76191  10.516   0.875   3.127  0.3737 -0.3140  0.7902
  553MOL0     C76192  10.642   0.860   3.036 -0.5961 -0.4149  0.5341
  553MOL0     N76193  10.657   0.718   2.984  0.0331  0.3472  0.3167
  553MOL0     C76194  10.574   0.652   2.889 -0.4810 -0.0216 -0.4806
  553MOL0     C76195  10.626   0.529   2.882  0.1003 -0.2470  1.0065
  553MOL0     C76196  10.576   0.420   2.796  0.6616  0.3640  0.3858
  553MOL0     C76197  10.477   0.324   2.862  0.6664  0.4216 -0.5434
  553MOL0     C76198  10.351   0.394   2.906  0.6022 -0.7078  0.4127
  553MOL0     C76199  10.252   0.297   2.966  0.1365 -0.5392  0.0747
  553MOL0     O76200  10.223   0.185   2.871  0.0931  0.4706 -0.1904
  553MOL0     C76201  10.104   0.115   2.876  0.0963  0.4874 -0.5723
  553MOL0     C76202  10.086  -0.002   2.795 -0.0799 -0.6117  1.0202
  553MOL0     C76203   9.969  -0.074   2.792  0.0487 -0.6701 -0.6052
  553MOL0     C76204   9.961  -0.211   2.725 -0.5656 -0.2926 -0.0699
  553MOL0     C76205   9.863  -0.025   2.863  0.9295 -0.7696 -0.5110
  553MOL0     C76206   9.725  -0.086   2.851 -0.1334 -0.0849  0.3191
  553MOL0     O76207   9.639  -0.065   2.959 -0.4438  0.1632  0.1805
  553MOL0     C76208   9.518  -0.115   2.946  1.2717  0.5529  1.1941
  553MOL0     C76209   9.486  -0.251   2.965 -0.7005 -0.2317 -0.5491
  553MOL0     C76210   9.348  -0.291   2.945  0.2121 -0.6136  0.0668
  553MOL0     C76211   9.247  -0.199   2.905 -0.2270  0.5472 -0.2681
  553MOL0     O76212   9.118  -0.237   2.882 -0.0306  0.3414 -0.5059
  553MOL0     C76213   9.052  -0.207   2.757 -0.5631 -0.7815 -0.6519
  553MOL0     C76214   8.910  -0.259   2.782  0.4817  0.5136  0.1522
  553MOL0     C76215   8.825  -0.272   2.660  0.4583  0.4079  0.7304
  553MOL0     C76216   8.675  -0.279   2.694 -0.7482  0.2727 -0.1956
  553MOL0     C76217   8.568  -0.289   2.582  0.6119  0.2641 -0.6528
  553MOL0     C76218   8.432  -0.301   2.644  0.7933 -0.6190 -0.1275
  553MOL0     C76219   8.324  -0.287   2.534  0.5782  0.0469  0.5510
  553MOL0     C76220   8.236  -0.412   2.516 -0.7425 -0.0707 -0.5982
  553MOL0    Cl76221   8.327  -0.536   2.439 -0.2955  0.1327  0.0571
  553MOL0     C76222   9.281  -0.063   2.892  0.0870 -0.2976 -0.0805
  553MOL0     C76223   9.414  -0.024   2.908 -0.2095  0.0391 -0.2613
  553MOL0     O76224   9.687  -0.147   2.751 -0.1277 -0.3054  0.6591
  553MOL0     C76225   9.876   0.091   2.944  0.2504  0.7359 -0.6330
  553MOL0     C76226   9.991   0.164   2.946 -0.4995 -0.0126  0.1213
  553MOL0     N76227  10.739   0.522   2.961  0.1650  0.1683 -0.5383
  553MOL0     N76228  10.762   0.639   3.017 -0.4278 -0.5464 -0.8042
  553MOL0     C76229   9.657   1.234   3.247 -1.0850 -0.0262 -0.4074
  553MOL0     C76230   9.549   1.292   3.309 -0.2267 -0.3810 -0.0649
  553MOL0     C76231   9.111   1.269   3.491  0.0534 -1.3867 -0.4274
  553MOL0     C76232   9.029   1.294   3.376 -0.1613  0.6395 -0.1744
  553MOL0     C76233   8.890   1.317   3.378 -0.2084 -0.2517  0.0197
  553MOL0     C76234   8.823   1.309   3.502 -0.5762  0.3083  0.2426
  553MOL0     O76235   8.688   1.322   3.522  0.5798 -0.2912  0.0935
  553MOL0     C76236   8.610   1.375   3.413  0.2806 -0.1156 -0.5914
  553MOL0     C76237   8.469   1.409   3.465  0.3101  0.2090 -0.2274
  553MOL0     C76238   8.397   1.276   3.476 -0.2266  0.2816 -0.0794
  553MOL0     C76239   8.248   1.295   3.502 -0.3650 -0.0419 -0.0038
  553MOL0     C76240   8.164   1.306   3.383  0.7150 -0.5500 -0.5078
  553MOL0     C76241   8.108   1.320   3.283 -0.0961 -0.6042  0.2012
  553MOL0     C76242   8.901   1.277   3.610 -0.4743 -0.5287 -0.3643
  553MOL0     C76243   9.042   1.268   3.616 -0.6225 -0.2577 -0.0150
  553MOL0     C76244   9.104   1.242   3.741  0.1399  0.0895  0.9113
  553MOL0     H76245   9.306   1.071   3.261 -0.0713  1.1792  1.7001
  553MOL0     H76246   9.471   0.974   3.104  0.7751  0.8726 -1.2855
  553MOL0     H76247   9.668   0.848   3.102 -2.4089  2.3946 -0.7370
  553MOL0     H76248   9.759   0.884   3.249  1.1694 -1.5966 -0.2738
  553MOL0     H76249   9.890   0.749   3.087  0.3896 -0.1147  1.2130
  553MOL0     H76250   9.867   0.872   2.960  3.3762  0.7024  0.2354
  553MOL0     H76251  10.002   1.027   3.064 -0.0754 -0.2680  0.8734
  553MOL0     H76252  10.005   0.949   3.221 -0.1979  2.5219 -0.5701
  553MOL0     H76253  10.120   0.754   3.084 -0.9027 -0.0330 -0.0024
  553MOL0     H76254  10.139   0.866   2.957 -0.1904  1.2980  1.0569
  553MOL0     H76255  10.256   0.883   3.247  1.6403  1.6650 -0.0592
  553MOL0     H76256  10.261   1.018   3.151  0.8704 -0.4674  5.4547
  553MOL0     H76257  10.353   0.730   3.090 -1.2848 -0.6193  0.4067
  553MOL0     H76258  10.369   0.862   2.969 -0.5117 -1.6791 -0.8113
  553MOL0     H76259  10.528   0.806   3.211 -1.2717 -0.4349  0.9543
  553MOL0     H76260  10.509   0.975   3.171 -2.7267 -0.1701  0.1818
  553MOL0     H76261  10.626   0.935   2.958  1.5129 -0.0249  0.4191
  553MOL0     H76262  10.727   0.890   3.097 -3.8413  2.3835  4.2408
  553MOL0     H76263  10.479   0.683   2.847 -0.5719 -1.3414 -1.2999
  553MOL0     H76264  10.662   0.356   2.779 -0.4830 -0.6895 -1.7023
  553MOL0     H76265  10.530   0.458   2.704 -2.5154 -0.7744  1.3791
  553MOL0     H76266  10.456   0.239   2.797 -1.0302  0.5327 -0.2041
  553MOL0     H76267  10.536   0.289   2.947  2.8072  3.6629 -0.5158
  553MOL0     H76268  10.377   0.471   2.980  0.2285  0.4560 -0.6347
  553MOL0     H76269  10.307   0.445   2.820  2.8686  0.7083  0.0124
  553MOL0     H76270  10.289   0.264   3.064  1.1659  0.5026  0.0593
  553MOL0     H76271  10.161   0.354   2.987  2.2777  2.7348  1.2271
  553MOL0     H76272  10.170  -0.022   2.729 -1.8814  1.2480 -2.0668
  553MOL0     H76273   9.905  -0.221   2.631  0.1284 -5.8346 -0.2018
  553MOL0     H76274   9.923  -0.285   2.795 -1.3644  1.3474  1.3257
  553MOL0     H76275  10.061  -0.238   2.691 -0.8463 -0.3948 -0.8578
  553MOL0     H76276   9.562  -0.317   3.005 -0.2435 -1.3934 -3.1355
  553MOL0     H76277   9.309  -0.391   2.961 -2.4581  0.5346  1.3996
  553MOL0     H76278   9.062  -0.108   2.713 -0.1307 -1.5364 -2.3145
  553MOL0     H76279   9.090  -0.285   2.691 -0.1280 -0.3145 -0.9567
  553MOL0     H76280   8.912  -0.351   2.841  0.4166  0.3722 -0.0649
  553MOL0     H76281   8.864  -0.182   2.845 -0.1894  0.9225 -0.8111
  553MOL0     H76282   8.843  -0.368   2.610  1.5931  0.6965  0.5413
  553MOL0     H76283   8.849  -0.195   2.585 -1.3729 -0.7321 -1.1199
  553MOL0     H76284   8.658  -0.203   2.771 -1.3715  0.7630 -0.7974
  553MOL0     H76285   8.670  -0.373   2.749 -2.0320  0.3783 -0.0942
  553MOL0     H76286   8.578  -0.203   2.515  3.4555  2.1084  1.8937
  553MOL0     H76287   8.587  -0.378   2.521 -3.3385 -1.5354  0.4502
  553MOL0     H76288   8.416  -0.226   2.723 -1.6535 -0.7709 -0.4306
  553MOL0     H76289   8.427  -0.394   2.700 -1.1435 -0.9494 -0.7939
  553MOL0     H76290   8.366  -0.273   2.434 -0.8104 -3.4584 -0.6806
  553MOL0     H76291   8.255  -0.207   2.564 -0.0032  0.1976 -1.0935
  553MOL0     H76292   8.139  -0.401   2.467 -1.6859  0.4500  1.3371
  553MOL0     H76293   8.205  -0.445   2.615 -1.0940 -0.9782 -0.9971
  553MOL0     H76294   9.201   0.007   2.871  0.8592  0.3574 -0.9283
  553MOL0     H76295   9.432   0.082   2.890 -3.1821  0.5669 -0.5569
  553MOL0     H76296   9.794   0.122   3.009  2.2509  1.4727  1.6932
  553MOL0     H76297   9.978   0.254   3.006 -0.7213 -0.3086  0.5143
  553MOL0     H76298   9.755   1.279   3.259 -1.4625  0.1367  2.9599
  553MOL0     H76299   9.559   1.392   3.351  2.2007 -1.0131  1.0072
  553MOL0     H76300   9.076   1.299   3.278 -1.3416 -2.0294 -0.9456
  553MOL0     H76301   8.833   1.329   3.287 -0.0328 -1.1658 -0.2235
  553MOL0     H76302   8.659   1.466   3.377  1.2771 -1.7404 -3.7681
  553MOL0     H76303   8.608   1.301   3.332  1.1254 -1.2843  0.4283
  553MOL0     H76304   8.424   1.487   3.404  3.1516  0.9739 -1.5016
  553MOL0     H76305   8.481   1.452   3.565  2.5875 -1.2740  0.2025
  553MOL0     H76306   8.413   1.217   3.385 -0.3028  0.1497 -0.0082
  553MOL0     H76307   8.438   1.220   3.560  1.2958 -1.5267 -1.9231
  553MOL0     H76308   8.248   1.387   3.561  2.0569  0.5455 -0.7874
  553MOL0     H76309   8.215   1.209   3.561  0.1423  0.3796  0.9309
  553MOL0     H76310   8.057   1.330   3.189 -1.5274  1.2512  1.0988
  553MOL0     H76311   8.843   1.262   3.701 -1.4331 -1.5991 -1.1200
  553MOL0     H76312   9.051   1.298   3.819  0.0604  0.8272  0.3316
  553MOL0     H76313   9.093   1.137   3.770 -0.8932  0.8671  3.6667
  553MOL0     H76314   9.210   1.268   3.755  0.1834 -1.1270  3.4132
  554MOL0     O76315   0.756   8.921  11.385  0.1944  0.9996 -0.6786
  554MOL0     C76316   0.770   8.891  11.501 -0.0935  0.4700 -0.3497
  554MOL0     O76317   0.893   8.850  11.560  0.7307  0.5353  0.4980
  554MOL0     C76318   1.009   8.829  11.494 -0.2229 -0.2957  0.4773
  554MOL0     C76319   1.026   8.823  11.357  0.6448  0.0259  0.2760
  554MOL0     C76320   1.149   8.784  11.306  0.0006  0.0900  1.0303
  554MOL0     C76321   1.257   8.756  11.391  0.1780  0.3595  0.0109
  554MOL0     O76322   1.373   8.713  11.334  0.7085  0.0945  0.2071
  554MOL0     C76323   1.479   8.666  11.417  1.3311  0.0493  0.0156
  554MOL0     C76324   1.592   8.624  11.330 -0.0904  0.4863  0.5002
  554MOL0     C76325   1.645   8.735  11.224  0.1230  0.5854  0.8784
  554MOL0     C76326   1.705   8.856  11.304  0.5497  0.2425 -0.1426
  554MOL0     C76327   1.803   8.934  11.217  0.1672 -0.0801  0.8286
  554MOL0     C76328   1.820   9.083  11.261  0.0930 -0.9119  0.7218
  554MOL0     C76329   1.907   9.143  11.151 -0.3475 -0.4441  0.2762
  554MOL0     C76330   1.950   9.287  11.192 -1.3106  0.2005  0.4264
  554MOL0     N76331   2.074   9.347  11.143 -0.1406  1.0743 -0.1597
  554MOL0     C76332   2.207   9.297  11.142  0.8778 -0.8242 -1.0191
  554MOL0     C76333   2.274   9.410  11.114 -0.1306  0.7996  0.7608
  554MOL0     C76334   2.418   9.423  11.081  0.6112 -0.0602 -0.5323
  554MOL0     C76335   2.499   9.511  11.188 -1.3550  1.0692  0.2757
  554MOL0     C76336   2.641   9.521  11.129  1.0886  0.2689 -0.1597
  554MOL0     C76337   2.738   9.567  11.225 -0.1114  0.4122  1.0526
  554MOL0     O76338   2.696   9.687  11.292  0.1221 -0.6687 -0.0731
  554MOL0     C76339   2.765   9.737  11.396 -0.2469  0.2352  0.6053
  554MOL0     C76340   2.707   9.843  11.456 -0.6493  0.9278 -0.2001
  554MOL0     C76341   2.768   9.910  11.563 -0.4992  0.4799 -0.0018
  554MOL0     C76342   2.697  10.026  11.627  0.2237 -0.3883  0.4176
  554MOL0     C76343   2.896   9.862  11.609 -0.1229 -0.9205 -0.2145
  554MOL0     C76344   2.981   9.926  11.718 -0.1186 -1.0221  0.2530
  554MOL0     O76345   2.924  10.035  11.787  0.2285 -0.1548  0.6278
  554MOL0     C76346   3.006  10.119  11.860 -0.3875 -0.3348  0.0806
  554MOL0     C76347   2.966  10.134  11.991  0.8828  0.3043 -0.3041
  554MOL0     C76348   3.042  10.209  12.082  0.1721 -0.9895 -0.1722
  554MOL0     C76349   3.172  10.253  12.055  0.1488 -0.6209  0.0761
  554MOL0     O76350   3.260  10.306  12.149 -0.2967  0.0653 -0.5857
  554MOL0     C76351   3.236  10.282  12.288 -0.4077  0.3324  0.8169
  554MOL0     C76352   3.347  10.342  12.378 -0.1113  0.9421  0.0649
  554MOL0     C76353   3.318  10.298  12.515  0.7808 -0.2940  0.0208
  554MOL0     C76354   3.410  10.376  12.614 -0.3727 -0.2680 -0.2976
  554MOL0     C76355   3.400  10.318  12.758 -0.4236 -0.0549 -0.1032
  554MOL0     C76356   3.456  10.411  12.862 -0.2787  0.4611 -0.3983
  554MOL0     C76357   3.423  10.382  13.013 -1.0458  0.2248  0.4464
  554MOL0     C76358   3.432  10.511  13.081  0.5834  0.6595 -0.0787
  554MOL0    Cl76359   3.605  10.559  13.099 -0.1415 -0.0283  0.0135
  554MOL0     C76360   3.205  10.240  11.922  0.4439  0.4886  0.3191
  554MOL0     C76361   3.132  10.167  11.823  0.3462  0.4881 -0.9533
  554MOL0     O76362   3.096   9.893  11.729 -0.1503 -0.3269  0.1260
  554MOL0     C76363   2.946   9.748  11.549 -0.1764  0.0286  0.0973
  554MOL0     C76364   2.882   9.675  11.448  0.6929 -0.8575  0.1233
  554MOL0     N76365   2.193   9.520  11.101  0.1704  0.1319  0.0219
  554MOL0     N76366   2.072   9.483  11.116 -0.3902  0.3494 -0.4054
  554MOL0     C76367   1.241   8.771  11.529 -0.0073  0.0931  0.9392
  554MOL0     C76368   1.119   8.801  11.579 -0.6030  0.6670  0.7943
  554MOL0     C76369   0.652   8.907  11.588 -0.1693  0.0253 -0.5772
  554MOL0     C76370   0.628   8.820  11.705 -0.2542  0.1215  0.0668
  554MOL0     C76371   0.533   8.850  11.808  0.1879 -0.1350  0.3733
  554MOL0     C76372   0.458   8.964  11.791 -0.2614  0.3833  0.8045
  554MOL0     O76373   0.377   8.990  11.896  0.2568  0.3354  0.3168
  554MOL0     C76374   0.313   9.119  11.912  0.6592 -0.0757  0.4046
  554MOL0     C76375   0.176   9.112  11.839 -0.1281 -0.4695 -0.3444
  554MOL0     C76376   0.079   9.058  11.938 -0.4127  0.1025 -0.5922
  554MOL0     C76377  -0.063   9.032  11.878  0.8918 -0.0642  0.2406
  554MOL0     C76378  -0.126   9.164  11.867 -0.0645 -0.1477 -0.1400
  554MOL0     C76379  -0.164   9.280  11.858  0.3753 -0.3345  0.4030
  554MOL0     C76380   0.458   9.027  11.675 -0.5946  0.1130  0.0717
  554MOL0     C76381   0.544   9.002  11.570  0.0210  1.1156  0.6751
  554MOL0     C76382   0.541   9.087  11.447  0.0490  0.4358  0.1366
  554MOL0     H76383   0.948   8.834  11.281  2.0170 -0.4095 -1.2497
  554MOL0     H76384   1.162   8.768  11.199  1.9613 -1.3226  1.4199
  554MOL0     H76385   1.444   8.580  11.475 -2.1872 -0.1645 -2.1117
  554MOL0     H76386   1.508   8.751  11.480 -0.9251 -0.0456  1.2936
  554MOL0     H76387   1.683   8.597  11.383  1.8296  2.4966 -1.5894
  554MOL0     H76388   1.549   8.543  11.270  1.2839 -0.8214  1.2074
  554MOL0     H76389   1.720   8.689  11.159  0.6914 -1.3779  2.7958
  554MOL0     H76390   1.559   8.770  11.167  0.3192 -0.3280  0.0000
  554MOL0     H76391   1.629   8.928  11.337 -0.2428 -0.6592  0.0379
  554MOL0     H76392   1.742   8.808  11.395 -0.7847 -0.4840  0.0310
  554MOL0     H76393   1.778   8.940  11.110  2.5079  2.8750  0.3224
  554MOL0     H76394   1.895   8.875  11.221 -0.3612 -1.1020 -0.9595
  554MOL0     H76395   1.721   9.130  11.255 -0.3579 -2.0110 -1.2937
  554MOL0     H76396   1.863   9.094  11.360 -2.7769 -0.6197  2.0417
  554MOL0     H76397   1.852   9.157  11.058  1.8582 -0.9724 -1.1734
  554MOL0     H76398   2.002   9.093  11.133  0.2988  0.6393  0.6423
  554MOL0     H76399   1.875   9.360  11.161 -2.9807 -1.5582  0.1503
  554MOL0     H76400   1.953   9.287  11.302  0.2879  0.3083  0.4058
  554MOL0     H76401   2.242   9.199  11.170 -0.6508 -0.7629  1.3668
  554MOL0     H76402   2.421   9.466  10.981  0.3226  2.0914  0.3398
  554MOL0     H76403   2.458   9.321  11.081 -0.6872 -0.6900 -3.9320
  554MOL0     H76404   2.450   9.608  11.204 -2.9222  0.4625 -0.6555
  554MOL0     H76405   2.517   9.469  11.287  2.1768  1.0890 -0.2376
  554MOL0     H76406   2.674   9.429  11.080  1.8215 -0.1045  0.9914
  554MOL0     H76407   2.631   9.595  11.049  0.1257 -0.6393 -0.9107
  554MOL0     H76408   2.759   9.484  11.293 -1.9360 -1.5309 -0.6419
  554MOL0     H76409   2.831   9.598  11.175 -0.0482 -0.2590  0.7402
  554MOL0     H76410   2.620   9.894  11.418 -0.2014  0.6845 -1.5963
  554MOL0     H76411   2.593  10.024  11.592 -0.4479  1.4031  2.1305
  554MOL0     H76412   2.722  10.125  11.588  0.0737 -0.6603 -0.3823
  554MOL0     H76413   2.693  10.015  11.736  0.8545 -1.7710  0.3295
  554MOL0     H76414   2.867  10.098  12.018  1.2011 -1.9346 -1.8578
  554MOL0     H76415   2.994  10.208  12.180  0.2693  3.2908  0.1106
  554MOL0     H76416   3.139  10.322  12.320 -0.2716  3.2423 -1.9478
  554MOL0     H76417   3.244  10.174  12.306 -1.5621 -0.2756 -1.9196
  554MOL0     H76418   3.442  10.303  12.342 -0.7675 -0.5541 -0.1219
  554MOL0     H76419   3.341  10.451  12.367  2.5117  0.9563 -2.2308
  554MOL0     H76420   3.334  10.191  12.527  1.5415 -0.0195  1.8257
  554MOL0     H76421   3.216  10.305  12.552  0.3525 -4.2373 -0.0081
  554MOL0     H76422   3.377  10.480  12.601 -2.7081 -1.0138 -0.8279
  554MOL0     H76423   3.515  10.361  12.588 -0.0296  0.8967  0.3401
  554MOL0     H76424   3.297  10.294  12.784  0.3205 -2.2425  1.0503
  554MOL0     H76425   3.452  10.222  12.765  2.9916  1.2459 -3.5314
  554MOL0     H76426   3.423  10.512  12.837 -0.9408  0.2956 -0.1894
  554MOL0     H76427   3.566  10.414  12.860 -0.2633  1.3067  0.6284
  554MOL0     H76428   3.500  10.317  13.054  0.8814  1.8419 -0.4003
  554MOL0     H76429   3.320  10.349  13.023 -0.4145 -1.0731  4.2273
  554MOL0     H76430   3.385  10.501  13.180 -1.0266 -2.7605 -1.0217
  554MOL0     H76431   3.375  10.584  13.023 -0.5052  0.2837  0.4906
  554MOL0     H76432   3.302  10.271  11.884 -0.4071  1.2197 -1.3568
  554MOL0     H76433   3.160  10.150  11.719 -2.6254 -1.1652 -1.5950
  554MOL0     H76434   3.036   9.701  11.588 -0.0446  0.4630  0.3205
  554MOL0     H76435   2.939   9.597  11.400  1.1492  0.3230 -1.3276
  554MOL0     H76436   1.323   8.754  11.599  1.0554  3.5064  0.7131
  554MOL0     H76437   1.077   8.783  11.678 -2.4152 -1.1322 -0.2291
  554MOL0     H76438   0.696   8.737  11.719 -0.3111  0.4448  2.8637
  554MOL0     H76439   0.539   8.794  11.901  0.1052 -0.7492  0.0184
  554MOL0     H76440   0.293   9.153  12.014 -3.3748  3.4130 -1.2470
  554MOL0     H76441   0.370   9.205  11.877  0.3846 -0.7430 -1.8170
  554MOL0     H76442   0.176   9.048  11.750  1.8231  3.1442 -3.2145
  554MOL0     H76443   0.138   9.210  11.806 -0.6766 -1.4443 -2.8949
  554MOL0     H76444   0.125   8.966  11.975 -0.9988 -0.3395 -0.9398
  554MOL0     H76445   0.074   9.122  12.026  0.9627 -3.1667  2.0799
  554MOL0     H76446  -0.126   8.962  11.934  2.6174 -1.9550 -0.0414
  554MOL0     H76447  -0.050   8.997  11.775  0.9322  1.1775 -0.1975
  554MOL0     H76448  -0.207   9.378  11.847 -1.1925 -1.2262 -2.4453
  554MOL0     H76449   0.385   9.107  11.662  0.8777  2.2808  3.6731
  554MOL0     H76450   0.466   9.165  11.461 -0.2683  0.5459 -1.9808
  554MOL0     H76451   0.635   9.142  11.450  0.8626 -0.7394 -1.9304
  554MOL0     H76452   0.514   9.029  11.358  0.1019  1.0763 -0.2966
  555MOL0     O76453  10.026   7.363   5.219  0.3818  0.0533  0.9632
  555MOL0     C76454   9.951   7.434   5.152 -0.5982  0.4735 -0.5813
  555MOL0     O76455   9.983   7.499   5.038 -0.4068 -0.0430 -0.0817
  555MOL0     C76456  10.115   7.476   4.994 -0.0096 -0.9135  0.8863
  555MOL0     C76457  10.133   7.357   4.922  0.4527  0.2160 -0.3640
  555MOL0     C76458  10.258   7.323   4.872  0.5320 -0.4094 -0.0057
  555MOL0     C76459  10.371   7.403   4.900  0.6029  0.0803  0.8745
  555MOL0     O76460  10.501   7.367   4.848  0.3522 -0.6675  0.1659
  555MOL0     C76461  10.602   7.465   4.851  0.2472  0.4632  0.0248
  555MOL0     C76462  10.730   7.423   4.769 -0.2717 -0.5603 -0.1094
  555MOL0     C76463  10.691   7.343   4.655  0.1448  0.7886 -0.3425
  555MOL0     C76464  10.815   7.277   4.592  0.2649 -0.0147  0.8002
  555MOL0     C76465  10.775   7.187   4.480  0.7412 -0.2296  0.9104
  555MOL0     C76466  10.901   7.110   4.436 -0.5931 -0.4856  0.6110
  555MOL0     C76467  10.863   7.027   4.314  0.8052  0.2465  0.2761
  555MOL0     C76468  10.974   6.937   4.251  0.4994  1.3317  0.1621
  555MOL0     N76469  11.052   6.843   4.340  0.4185 -0.2112 -0.0348
  555MOL0     C76470  11.136   6.888   4.436 -0.5141 -0.4022 -0.1440
  555MOL0     C76471  11.133   6.784   4.517  0.7261  0.3903 -0.7620
  555MOL0     C76472  11.220   6.790   4.637 -0.2704  0.3298 -0.2462
  555MOL0     C76473  11.369   6.738   4.606  0.1255  0.2653 -0.1722
  555MOL0     C76474  11.455   6.833   4.524 -1.5180 -0.5781  0.2360
  555MOL0     C76475  11.607   6.820   4.542  0.3106  0.5828 -0.0034
  555MOL0     O76476  11.654   6.690   4.502 -0.3294 -0.1406  0.2687
  555MOL0     C76477  11.791   6.673   4.520 -0.3935  0.0528 -0.1137
  555MOL0     C76478  11.847   6.548   4.488 -0.4820  0.1013  0.4542
  555MOL0     C76479  11.983   6.522   4.501  0.5632 -0.2067  0.0398
  555MOL0     C76480  12.029   6.374   4.471  0.1191 -0.0185 -0.7545
  555MOL0     C76481  12.066   6.617   4.557 -0.8415 -0.7605  1.7321
  555MOL0     C76482  12.216   6.602   4.583  1.1975 -0.5097 -0.9498
  555MOL0     O76483  12.276   6.699   4.669 -0.0221 -0.1257 -0.0528
  555MOL0     C76484  12.406   6.695   4.690 -0.3998 -0.6160 -0.2125
  555MOL0     C76485  12.456   6.754   4.805 -0.0015  0.4133  0.2510
  555MOL0     C76486  12.598   6.758   4.834 -0.0944  0.2200 -0.3438
  555MOL0     C76487  12.691   6.723   4.738 -0.2452 -0.3530  0.1976
  555MOL0     O76488  12.828   6.729   4.743  0.4477  0.0522 -0.0270
  555MOL0     C76489  12.886   6.812   4.852  0.3423 -0.8169  0.1457
  555MOL0     C76490  13.031   6.845   4.815 -0.1658  0.2850  0.1138
  555MOL0     C76491  13.107   6.873   4.935  0.4117  0.4766  0.2289
  555MOL0     C76492  13.265   6.873   4.918  0.2619 -0.8202 -0.4037
  555MOL0     C76493  13.311   7.018   4.887 -0.8998 -0.4255  0.0220
  555MOL0     C76494  13.473   7.028   4.879 -0.4064  0.2129  0.2237
  555MOL0     C76495  13.526   7.171   4.842 -0.4686 -0.1598  1.2356
  555MOL0     C76496  13.675   7.194   4.864 -0.6570  0.5168 -0.0132
  555MOL0    Cl76497  13.722   7.361   4.833 -0.0419  0.0986 -0.0683
  555MOL0     C76498  12.638   6.674   4.617  0.1693  0.1668  0.2806
  555MOL0     C76499  12.502   6.666   4.590  0.0512  0.4836 -0.2294
  555MOL0     O76500  12.268   6.505   4.532  0.6091 -0.3858  0.7068
  555MOL0     C76501  12.014   6.738   4.594 -0.0939 -0.3086  0.7447
  555MOL0     C76502  11.878   6.765   4.579 -0.1045 -0.4221  0.4290
  555MOL0     N76503  11.064   6.675   4.464 -0.1126 -0.9288  0.0079
  555MOL0     N76504  11.012   6.717   4.355  0.2634  0.8204  0.2903
  555MOL0     C76505  10.354   7.518   4.978  0.4706 -0.7402 -0.8256
  555MOL0     C76506  10.229   7.559   5.018  0.1119 -0.1190  0.0908
  555MOL0     C76507   9.813   7.459   5.217  0.1230 -0.3067 -0.9426
  555MOL0     C76508   9.767   7.364   5.312  0.5336 -0.0659  0.3622
  555MOL0     C76509   9.652   7.381   5.392 -0.1303  0.7141  0.3728
  555MOL0     C76510   9.577   7.489   5.377 -0.1046  0.6180  0.0917
  555MOL0     O76511   9.466   7.492   5.462 -0.8879  0.3491 -0.4031
  555MOL0     C76512   9.361   7.591   5.443 -0.3498 -1.3606  0.8942
  555MOL0     C76513   9.253   7.600   5.552 -0.3829 -0.1781  0.0582
  555MOL0     C76514   9.144   7.492   5.544  0.9561  0.0647  0.2643
  555MOL0     C76515   9.024   7.522   5.633 -0.1480  0.8030  0.5493
  555MOL0     C76516   9.062   7.457   5.761  0.1275  0.2577  0.7218
  555MOL0     C76517   9.089   7.388   5.860 -0.4360 -0.5108 -0.1261
  555MOL0     C76518   9.617   7.585   5.283 -0.1587 -0.0505 -0.8703
  555MOL0     C76519   9.737   7.577   5.204 -0.4881  0.9886 -0.5592
  555MOL0     C76520   9.790   7.691   5.120 -0.0298  0.4507  0.0311
  555MOL0     H76521  10.043   7.297   4.912 -1.2912  2.8098 -1.5193
  555MOL0     H76522  10.269   7.231   4.816 -1.5685  1.6075 -4.1740
  555MOL0     H76523  10.630   7.482   4.955 -2.2014 -1.1145  1.0290
  555MOL0     H76524  10.554   7.554   4.809 -2.4297 -1.6444 -1.6949
  555MOL0     H76525  10.788   7.510   4.737  0.2011 -1.0178 -0.5101
  555MOL0     H76526  10.797   7.357   4.825 -1.8535 -1.7710  0.4430
  555MOL0     H76527  10.634   7.256   4.687 -0.4503 -0.1728 -3.7059
  555MOL0     H76528  10.641   7.402   4.577  1.4111  1.1021 -0.9525
  555MOL0     H76529  10.894   7.348   4.562  0.1690 -0.3777 -0.3507
  555MOL0     H76530  10.871   7.218   4.664  0.7741 -0.5121  0.0186
  555MOL0     H76531  10.743   7.245   4.393 -1.0031 -0.2975  1.4659
  555MOL0     H76532  10.700   7.115   4.514 -0.8501 -0.9648 -3.5337
  555MOL0     H76533  10.976   7.186   4.416  1.0629 -2.3371 -0.5740
  555MOL0     H76534  10.947   7.058   4.520 -2.0293 -0.5459  1.3943
  555MOL0     H76535  10.820   7.089   4.234  0.6920 -1.0822 -0.7214
  555MOL0     H76536  10.784   6.960   4.348 -0.9463  0.7823 -2.3927
  555MOL0     H76537  10.922   6.876   4.177 -0.4566  0.8325  1.2050
  555MOL0     H76538  11.057   6.984   4.198  3.0292 -2.9473 -0.1696
  555MOL0     H76539  11.192   6.981   4.441 -0.4935 -0.4525  0.7147
  555MOL0     H76540  11.168   6.727   4.710 -0.2761  1.5046  0.7864
  555MOL0     H76541  11.223   6.893   4.675 -0.4519 -0.0563  0.8570
  555MOL0     H76542  11.412   6.719   4.705 -1.9318  0.7542  0.8727
  555MOL0     H76543  11.355   6.647   4.547  0.0896 -0.3043  0.7043
  555MOL0     H76544  11.431   6.803   4.421 -1.0033 -0.4575  0.0817
  555MOL0     H76545  11.427   6.938   4.541 -2.0699 -0.5498 -0.7472
  555MOL0     H76546  11.652   6.892   4.473 -0.3990  0.0144 -1.0820
  555MOL0     H76547  11.628   6.842   4.647  1.4751  0.9532 -0.2959
  555MOL0     H76548  11.782   6.467   4.456  0.9104 -0.2022 -1.7965
  555MOL0     H76549  11.949   6.308   4.435  0.3667 -0.3487 -0.7023
  555MOL0     H76550  12.050   6.323   4.565  1.2038 -1.0523 -1.5382
  555MOL0     H76551  12.108   6.375   4.395  0.6560 -0.5395 -0.2044
  555MOL0     H76552  12.380   6.782   4.877 -0.7114 -1.9383  0.5029
  555MOL0     H76553  12.624   6.798   4.932  0.3352 -0.0625 -0.3423
  555MOL0     H76554  12.831   6.903   4.877  0.0958 -0.8839 -0.1441
  555MOL0     H76555  12.878   6.753   4.944  0.9347  0.0908  0.7929
  555MOL0     H76556  13.074   6.766   4.752  1.9255  2.4740 -1.3714
  555MOL0     H76557  13.029   6.934   4.752  0.4354 -0.4457 -0.9734
  555MOL0     H76558  13.077   6.797   5.008 -1.6631 -0.3273 -1.3456
  555MOL0     H76559  13.078   6.974   4.966 -1.2794  0.9752 -2.6061
  555MOL0     H76560  13.303   6.800   4.846 -1.3884 -0.4104 -1.7863
  555MOL0     H76561  13.299   6.834   5.014 -3.3174 -2.0189  0.5206
  555MOL0     H76562  13.252   7.062   4.806 -2.3213 -0.6370  0.9192
  555MOL0     H76563  13.289   7.089   4.967 -0.5534  1.6878 -1.6786
  555MOL0     H76564  13.495   6.952   4.804 -1.0822 -0.3886  0.6126
  555MOL0     H76565  13.517   6.994   4.974 -2.6210 -3.2357  0.1956
  555MOL0     H76566  13.455   7.234   4.898 -1.6584 -0.3980  0.0586
  555MOL0     H76567  13.509   7.187   4.735  1.1120 -1.3788  0.7709
  555MOL0     H76568  13.742   7.132   4.803  2.4589 -0.1331  3.6944
  555MOL0     H76569  13.702   7.179   4.969 -1.0522  1.6602  0.2662
  555MOL0     H76570  12.704   6.658   4.533 -1.4203  0.4155 -1.0600
  555MOL0     H76571  12.475   6.637   4.490  3.1043 -0.1027 -0.9840
  555MOL0     H76572  12.079   6.816   4.631  0.5367  0.5439 -1.9841
  555MOL0     H76573  11.839   6.846   4.639  1.8723  1.2100 -0.3646
  555MOL0     H76574  10.436   7.586   4.999  0.1686 -0.5721 -0.1715
  555MOL0     H76575  10.220   7.649   5.077 -2.2801  0.4887 -1.0841
  555MOL0     H76576   9.820   7.269   5.315  0.8869  0.1404  0.7061
  555MOL0     H76577   9.620   7.306   5.462 -1.9211  0.9978 -0.1052
  555MOL0     H76578   9.402   7.691   5.430 -0.9210 -1.0482  1.4507
  555MOL0     H76579   9.297   7.560   5.360  0.0633 -0.2363  0.1316
  555MOL0     H76580   9.199   7.694   5.541 -1.0733 -0.1744  2.6750
  555MOL0     H76581   9.298   7.606   5.652 -0.8721  0.2704  0.2551
  555MOL0     H76582   9.108   7.481   5.441  0.5526 -3.8322  0.6543
  555MOL0     H76583   9.179   7.389   5.560 -0.3331 -0.2463  1.3111
  555MOL0     H76584   8.942   7.466   5.587  1.8554 -1.8508 -0.0873
  555MOL0     H76585   9.001   7.627   5.650 -2.4619  1.2017 -3.6034
  555MOL0     H76586   9.131   7.331   5.940  2.3463  1.6325  0.1346
  555MOL0     H76587   9.548   7.669   5.276  1.1593  1.3325  1.4374
  555MOL0     H76588   9.728   7.782   5.120  0.4266  0.7736  0.9067
  555MOL0     H76589   9.892   7.714   5.151  0.6601 -2.0980 -0.1151
  555MOL0     H76590   9.791   7.643   5.022  0.3983 -0.5067  0.4934
  556MOL0     O76591  10.028   0.351   7.201  0.3735 -0.8285  0.1509
  556MOL0     C76592  10.029   0.358   7.320 -0.6378  0.4314 -0.0666
  556MOL0     O76593  10.132   0.307   7.402  0.1993  0.7330 -1.0640
  556MOL0     C76594  10.245   0.276   7.336 -0.7653  0.5043  0.7511
  556MOL0     C76595  10.306   0.363   7.246  0.3276  0.3531 -0.8303
  556MOL0     C76596  10.426   0.334   7.166  0.0139 -0.0786  0.3733
  556MOL0     C76597  10.490   0.217   7.183  0.0849  0.1176  0.7256
  556MOL0     O76598  10.592   0.165   7.102  0.7664  0.4186  0.3538
  556MOL0     C76599  10.675   0.263   7.041  0.1560  0.0049  0.5782
  556MOL0     C76600  10.762   0.183   6.942  0.5129  0.4080  0.3853
  556MOL0     C76601  10.866   0.098   7.004 -0.4137  0.3387 -0.4209
  556MOL0     C76602  10.944   0.038   6.889 -0.5587  0.0666 -0.6745
  556MOL0     C76603  11.084  -0.017   6.933 -0.0569 -0.9523  0.4897
  556MOL0     C76604  11.192   0.094   6.946 -0.1381  0.5980 -0.7364
  556MOL0     C76605  11.304   0.042   7.033 -0.2259  0.2665 -0.9960
  556MOL0     C76606  11.416   0.146   7.042  0.4044  0.6499 -0.3166
  556MOL0     N76607  11.485   0.137   6.913 -0.5345  0.6060  0.5606
  556MOL0     C76608  11.564   0.033   6.867 -0.0018 -0.2512  0.2342
  556MOL0     C76609  11.595   0.078   6.742  0.3959 -0.0046 -0.7246
  556MOL0     C76610  11.708   0.003   6.669  0.0281  0.4186 -0.4513
  556MOL0     C76611  11.714   0.050   6.521 -0.0628  0.1947 -0.0476
  556MOL0     C76612  11.842  -0.009   6.451  0.2749  0.3786 -0.1687
  556MOL0     C76613  11.864  -0.158   6.480  0.2953 -0.8985  0.5400
  556MOL0     O76614  11.993  -0.193   6.421  0.2655  0.1718  0.7244
  556MOL0     C76615  12.111  -0.143   6.470 -0.2693  0.1302 -0.4802
  556MOL0     C76616  12.227  -0.129   6.394  0.9635 -0.2884 -0.5484
  556MOL0     C76617  12.347  -0.082   6.449 -1.0231 -0.3132 -1.0416
  556MOL0     C76618  12.473  -0.097   6.366  0.0838 -1.3180 -0.4810
  556MOL0     C76619  12.353  -0.011   6.578 -0.3643 -0.1014 -0.3742
  556MOL0     C76620  12.459   0.072   6.635 -0.7978  1.1212 -1.3590
  556MOL0     O76621  12.558   0.117   6.544 -0.6469 -0.1618 -0.2189
  556MOL0     C76622  12.658   0.193   6.601 -0.3583 -0.2079  0.1403
  556MOL0     C76623  12.631   0.313   6.672  0.6793 -0.2466 -0.5691
  556MOL0     C76624  12.738   0.391   6.706 -0.5880  0.3385  0.0424
  556MOL0     C76625  12.875   0.363   6.680  0.2041 -0.1285 -0.7257
  556MOL0     O76626  12.964   0.461   6.717  0.0938  0.3017  0.2136
  556MOL0     C76627  13.097   0.410   6.714 -0.3805 -0.2379 -0.5958
  556MOL0     C76628  13.205   0.510   6.756  0.2132  0.8869  0.5490
  556MOL0     C76629  13.219   0.522   6.911  0.7968  0.1988  0.1003
  556MOL0     C76630  13.304   0.413   6.964  0.3514  0.0253 -0.5943
  556MOL0     C76631  13.321   0.407   7.126 -0.0981 -0.7121 -1.3087
  556MOL0     C76632  13.386   0.533   7.194 -0.3967  0.1843  1.0851
  556MOL0     C76633  13.513   0.571   7.134  0.0534 -0.0673 -0.2993
  556MOL0     C76634  13.577   0.702   7.193  0.0818  0.4436 -0.6499
  556MOL0    Cl76635  13.681   0.775   7.071 -0.0014 -0.2790  0.3289
  556MOL0     C76636  12.896   0.232   6.625 -0.5281  0.1303 -0.5967
  556MOL0     C76637  12.791   0.151   6.583  0.2094  0.3158  0.2603
  556MOL0     O76638  12.454   0.109   6.752 -0.8733  0.0193  0.3764
  556MOL0     C76639  12.234  -0.019   6.648 -0.6320 -0.7321  0.1255
  556MOL0     C76640  12.117  -0.081   6.598 -0.1838  0.2648 -0.7573
  556MOL0     N76641  11.541   0.206   6.721 -0.0248  0.0956  0.1922
  556MOL0     N76642  11.473   0.237   6.826 -0.3929 -0.4140 -0.2381
  556MOL0     C76643  10.432   0.133   7.276 -0.1808  0.6819  0.4576
  556MOL0     C76644  10.327   0.162   7.352  0.6062 -0.0408  0.3056
  556MOL0     C76645   9.903   0.400   7.396  0.2563 -0.8682  0.0655
  556MOL0     C76646   9.913   0.422   7.533 -0.4545 -0.1403 -1.2301
  556MOL0     C76647   9.801   0.465   7.604 -0.4134  0.1501  0.2712
  556MOL0     C76648   9.682   0.481   7.544 -1.2181  0.7446 -0.3095
  556MOL0     O76649   9.583   0.516   7.636  0.0542 -0.4843 -0.0490
  556MOL0     C76650   9.494   0.621   7.598  0.4859  1.2681  0.2332
  556MOL0     C76651   9.365   0.614   7.680 -0.2725  1.0840  0.9364
  556MOL0     C76652   9.260   0.508   7.623 -0.5119 -0.3997  0.3482
  556MOL0     C76653   9.140   0.497   7.715  0.6975  0.1905 -0.3573
  556MOL0     C76654   9.062   0.623   7.721 -0.0220  0.5826 -0.4459
  556MOL0     C76655   9.016   0.732   7.730 -0.1386 -0.0247 -0.2162
  556MOL0     C76656   9.665   0.457   7.414 -0.1551 -0.2626 -0.1972
  556MOL0     C76657   9.775   0.421   7.332 -0.0094 -0.0883 -0.7666
  556MOL0     C76658   9.745   0.382   7.190 -0.7561 -0.3609  0.4247
  556MOL0     H76659  10.268   0.458   7.211 -2.0073 -0.2701 -0.1105
  556MOL0     H76660  10.462   0.394   7.082  2.1367 -1.2286  0.3810
  556MOL0     H76661  10.739   0.323   7.106  1.7026  1.1152 -1.8103
  556MOL0     H76662  10.621   0.333   6.977 -0.2993  0.3341  1.3136
  556MOL0     H76663  10.698   0.118   6.880  1.5214  0.3070 -0.5683
  556MOL0     H76664  10.813   0.256   6.879  3.9833 -1.2959  1.0015
  556MOL0     H76665  10.935   0.149   7.071 -0.6060 -0.2147  0.2100
  556MOL0     H76666  10.814   0.019   7.058 -0.6539 -1.1473 -2.6767
  556MOL0     H76667  10.892  -0.051   6.850  1.4164 -1.8885  0.8772
  556MOL0     H76668  10.959   0.105   6.804  1.5406  1.0677  0.4149
  556MOL0     H76669  11.121  -0.078   6.850 -0.7811  1.4506 -1.7534
  556MOL0     H76670  11.070  -0.071   7.027 -0.0753 -0.2387  0.9025
  556MOL0     H76671  11.227   0.120   6.845  1.5910 -0.3505 -0.4127
  556MOL0     H76672  11.144   0.185   6.983 -0.3293  0.3579 -0.3878
  556MOL0     H76673  11.334  -0.061   7.009  0.0256 -1.1372  4.1246
  556MOL0     H76674  11.262   0.038   7.134 -0.2817  0.0793 -1.0267
  556MOL0     H76675  11.366   0.241   7.064  0.9886  0.5709  1.5441
  556MOL0     H76676  11.493   0.127   7.118 -1.0758  1.4236  1.4711
  556MOL0     H76677  11.604  -0.050   6.925 -2.5735 -3.2538 -1.9599
  556MOL0     H76678  11.681  -0.102   6.679 -1.8124  0.6081 -2.6424
  556MOL0     H76679  11.804   0.016   6.720 -0.3786  0.7872  0.2194
  556MOL0     H76680  11.623   0.011   6.474  0.6527 -3.2255  1.0925
  556MOL0     H76681  11.703   0.158   6.507  0.4388  0.2121 -0.3342
  556MOL0     H76682  11.828   0.004   6.343  1.3451  0.1927 -0.3449
  556MOL0     H76683  11.926   0.056   6.480 -0.8939  2.6492 -1.5527
  556MOL0     H76684  11.872  -0.187   6.585  2.2167  0.8552  0.9508
  556MOL0     H76685  11.781  -0.208   6.429 -0.0161  1.7795 -1.8124
  556MOL0     H76686  12.223  -0.146   6.287 -0.0956  1.1561 -0.7691
  556MOL0     H76687  12.552  -0.124   6.437 -1.7870 -0.8234  1.9558
  556MOL0     H76688  12.486   0.001   6.319 -3.8503  0.3617  1.4050
  556MOL0     H76689  12.466  -0.179   6.295  1.0573 -1.2168 -0.7074
  556MOL0     H76690  12.527   0.336   6.691 -0.1153 -2.9448 -1.2011
  556MOL0     H76691  12.714   0.483   6.758 -2.0235  1.1494 -1.8982
  556MOL0     H76692  13.099   0.323   6.781  1.4409  0.0969 -0.1522
  556MOL0     H76693  13.133   0.371   6.618 -0.0062 -0.2801 -0.4413
  556MOL0     H76694  13.306   0.486   6.721 -0.3774 -3.1196  1.1586
  556MOL0     H76695  13.170   0.603   6.710  0.2417  0.2984 -0.6912
  556MOL0     H76696  13.121   0.514   6.958  1.5923  2.3329  2.3369
  556MOL0     H76697  13.273   0.615   6.932 -1.2944  1.2703  0.9150
  556MOL0     H76698  13.403   0.412   6.917  1.1330  0.8556  0.9465
  556MOL0     H76699  13.265   0.316   6.932  1.1693 -0.8930  1.0817
  556MOL0     H76700  13.224   0.389   7.174  1.3949  0.2644  2.3862
  556MOL0     H76701  13.372   0.317   7.159 -3.1717 -1.3998  2.2395
  556MOL0     H76702  13.401   0.512   7.300  0.6303 -1.0886  0.7143
  556MOL0     H76703  13.321   0.620   7.177 -0.0594 -0.2273 -3.6252
  556MOL0     H76704  13.477   0.597   7.034 -3.5233  1.6895  1.2754
  556MOL0     H76705  13.580   0.485   7.132  1.1495  0.5807  2.9305
  556MOL0     H76706  13.635   0.677   7.282  1.8220  1.1264 -1.5465
  556MOL0     H76707  13.494   0.766   7.221  0.8350 -0.1500  3.5084
  556MOL0     H76708  12.996   0.198   6.599  0.4155  0.6197  2.0390
  556MOL0     H76709  12.812   0.061   6.526  1.1608  0.1041  0.9006
  556MOL0     H76710  12.237   0.031   6.744  2.5274  0.9050 -0.7174
  556MOL0     H76711  12.036  -0.083   6.670  0.2311  0.3421 -0.2815
  556MOL0     H76712  10.483   0.037   7.275 -0.2469  0.6467 -0.8434
  556MOL0     H76713  10.288   0.081   7.413 -0.0908 -1.5280 -2.0010
  556MOL0     H76714  10.004   0.405   7.589 -0.6575  0.9586 -0.5518
  556MOL0     H76715   9.802   0.473   7.712 -1.6495  0.8136  0.2544
  556MOL0     H76716   9.542   0.718   7.614  0.1610  1.5641 -0.5399
  556MOL0     H76717   9.472   0.620   7.491 -0.2102  1.7833  0.3732
  556MOL0     H76718   9.315   0.709   7.700 -0.7631  1.3264 -1.1881
  556MOL0     H76719   9.387   0.583   7.782 -0.5383  3.9818  1.9859
  556MOL0     H76720   9.226   0.543   7.525  1.1145 -0.0891 -0.1461
  556MOL0     H76721   9.303   0.408   7.614  0.5453 -0.3508  3.5679
  556MOL0     H76722   9.138   0.464   7.819 -0.2492  0.2359 -0.3507
  556MOL0     H76723   9.074   0.426   7.665  0.9263 -0.0398 -0.3376
  556MOL0     H76724   8.969   0.828   7.734  2.0589  1.0974  0.5058
  556MOL0     H76725   9.561   0.455   7.383 -1.7394  0.5962  4.3379
  556MOL0     H76726   9.792   0.454   7.122  2.7441 -1.0189  1.9067
  556MOL0     H76727   9.775   0.281   7.162  1.8970  0.0353  1.5714
  556MOL0     H76728   9.637   0.377   7.172 -0.6735  0.1232 -0.2532
  557MOL0     O76729   6.808   8.430   9.207 -0.8843  0.0189 -0.5397
  557MOL0     C76730   6.922   8.487   9.220  0.4521 -0.6751  0.6026
  557MOL0     O76731   6.948   8.569   9.322  0.5170  0.9467  0.1228
  557MOL0     C76732   6.869   8.545   9.430  0.1183  0.4282  0.2101
  557MOL0     C76733   6.898   8.430   9.509 -0.4180  0.2534  0.9390
  557MOL0     C76734   6.823   8.403   9.626  0.2697 -0.7889 -0.3691
  557MOL0     C76735   6.724   8.489   9.665  0.4476 -0.9185 -0.2768
  557MOL0     O76736   6.658   8.472   9.788 -0.2031 -0.4660 -0.0945
  557MOL0     C76737   6.545   8.380   9.775 -0.3074  0.4642 -0.1182
  557MOL0     C76738   6.607   8.235   9.780 -0.3358  0.5638 -0.5970
  557MOL0     C76739   6.495   8.135   9.817 -1.1627 -0.5567 -0.3594
  557MOL0     C76740   6.528   7.989   9.783 -0.3575 -0.1450  0.3900
  557MOL0     C76741   6.413   7.902   9.842 -0.0285  0.2246  0.3026
  557MOL0     C76742   6.413   7.901  10.002  0.3706  0.4537 -0.2829
  557MOL0     C76743   6.287   7.833  10.054  1.2901  0.8910 -0.1306
  557MOL0     C76744   6.287   7.796  10.198  0.2114  0.4920 -0.3948
  557MOL0     N76745   6.403   7.723  10.235 -0.7807  0.0220 -0.1436
  557MOL0     C76746   6.503   7.774  10.311 -0.1449 -0.3326  0.1409
  557MOL0     C76747   6.592   7.671  10.324 -0.0155  0.3927 -0.9143
  557MOL0     C76748   6.716   7.695  10.409  0.0286 -0.8510 -0.4813
  557MOL0     C76749   6.820   7.796  10.347  0.4841  0.7773 -0.6635
  557MOL0     C76750   6.887   7.736  10.219  0.2669  0.4121 -1.1715
  557MOL0     C76751   6.813   7.758  10.092  0.4437 -0.4095  0.0512
  557MOL0     O76752   6.789   7.890  10.046 -0.5885  0.2455  0.6626
  557MOL0     C76753   6.896   7.967   9.992 -0.9421  0.3894 -0.5585
  557MOL0     C76754   6.932   7.971   9.860 -0.3434 -0.4366 -1.3012
  557MOL0     C76755   7.019   8.076   9.811 -0.4322  0.3176  0.4238
  557MOL0     C76756   7.046   8.076   9.668 -0.7796  0.4978  0.1962
  557MOL0     C76757   7.082   8.165   9.905  0.0142 -0.9779  0.1310
  557MOL0     C76758   7.185   8.266   9.868  0.6433  0.0115  0.5394
  557MOL0     O76759   7.260   8.301   9.972  1.2710 -0.0889 -0.1359
  557MOL0     C76760   7.360   8.389   9.960 -0.8377 -0.7830 -0.1715
  557MOL0     C76761   7.480   8.364   9.892 -0.4553  0.1613  0.0116
  557MOL0     C76762   7.581   8.464   9.877  0.2280  0.0724  0.5600
  557MOL0     C76763   7.557   8.594   9.934 -0.8147 -0.2791  0.6649
  557MOL0     O76764   7.650   8.695   9.926 -0.1185 -1.1555 -1.2123
  557MOL0     C76765   7.782   8.668   9.861  0.1852 -0.5588 -0.5344
  557MOL0     C76766   7.875   8.785   9.896  0.0689 -0.1282 -0.4996
  557MOL0     C76767   7.827   8.936   9.876  0.3984 -0.3622  0.6590
  557MOL0     C76768   7.817   8.960   9.726 -0.1765  1.1344 -0.4700
  557MOL0     C76769   7.809   9.107   9.674  0.4339  0.4078 -0.4715
  557MOL0     C76770   7.824   9.131   9.523  0.4688  0.0356 -1.3215
  557MOL0     C76771   7.707   9.092   9.440  0.5907  0.0451  0.4409
  557MOL0     C76772   7.746   9.105   9.292  0.4586 -0.1707 -0.8735
  557MOL0    Cl76773   7.788   9.270   9.260  0.1055 -0.4011  0.2329
  557MOL0     C76774   7.433   8.628   9.987 -0.2432 -0.5119 -0.0534
  557MOL0     C76775   7.338   8.522  10.008  0.6697 -0.3878  1.0166
  557MOL0     O76776   7.205   8.306   9.750  0.0510 -0.5090 -0.1245
  557MOL0     C76777   7.049   8.146  10.036  0.1693  0.5217  0.4702
  557MOL0     C76778   6.953   8.060  10.075  0.4061 -0.0774 -0.6420
  557MOL0     N76779   6.550   7.554  10.268 -0.7044  0.0403 -0.0771
  557MOL0     N76780   6.433   7.589  10.214  0.6731 -0.9937 -0.1378
  557MOL0     C76781   6.695   8.606   9.586 -0.0308  0.2505  0.4026
  557MOL0     C76782   6.773   8.637   9.478 -1.0883 -0.4279  0.5661
  557MOL0     C76783   7.028   8.483   9.115  0.3230 -0.3768 -0.6843
  557MOL0     C76784   7.153   8.541   9.147 -0.4382 -0.6757  0.2098
  557MOL0     C76785   7.256   8.546   9.048 -0.4109 -0.6327  0.1407
  557MOL0     C76786   7.233   8.486   8.928  0.4369  0.3547  0.8190
  557MOL0     O76787   7.343   8.498   8.839  0.1066  0.4841  0.0682
  557MOL0     C76788   7.334   8.459   8.705  0.7416 -0.1946 -0.2681
  557MOL0     C76789   7.453   8.511   8.626  0.5740  1.2986 -0.0899
  557MOL0     C76790   7.454   8.445   8.488 -0.6669  0.7552 -0.5753
  557MOL0     C76791   7.549   8.509   8.392 -0.0455 -0.2948 -0.0107
  557MOL0     C76792   7.531   8.442   8.266 -0.6067 -0.0965  0.4440
  557MOL0     C76793   7.514   8.398   8.154  1.0106  0.0412 -0.7024
  557MOL0     C76794   7.115   8.424   8.895  0.1848  0.0041  0.0405
  557MOL0     C76795   7.008   8.423   8.988  0.5388 -0.4283  0.5148
  557MOL0     C76796   6.882   8.362   8.938  0.6317  0.0994 -0.1021
  557MOL0     H76797   6.972   8.358   9.475 -1.2009 -0.3061  0.3891
  557MOL0     H76798   6.863   8.318   9.680  2.1911  0.3597  0.1222
  557MOL0     H76799   6.482   8.393   9.686  0.4616  0.7209 -0.6398
  557MOL0     H76800   6.482   8.408   9.860 -1.8150  2.5961 -1.8089
  557MOL0     H76801   6.647   8.201   9.684  1.2574  0.9618 -0.0980
  557MOL0     H76802   6.683   8.221   9.858 -2.1338 -2.0194  0.8760
  557MOL0     H76803   6.475   8.150   9.923 -1.5996 -1.4810 -0.2977
  557MOL0     H76804   6.403   8.166   9.767 -2.0341 -1.1667  0.8152
  557MOL0     H76805   6.545   7.977   9.676  2.0999  2.6248  0.3663
  557MOL0     H76806   6.626   7.960   9.823 -1.1079 -0.6294  1.9705
  557MOL0     H76807   6.425   7.797   9.813  3.5762  0.2211  1.2577
  557MOL0     H76808   6.322   7.936   9.793  1.4466  1.8679 -1.5027
  557MOL0     H76809   6.507   7.853  10.032  0.2047 -1.7798 -2.9359
  557MOL0     H76810   6.414   8.003  10.040  1.8181  0.0164  0.9983
  557MOL0     H76811   6.266   7.743   9.995 -1.7006  0.2201  1.7489
  557MOL0     H76812   6.201   7.896  10.031 -0.8985 -2.0548 -0.7648
  557MOL0     H76813   6.273   7.887  10.257  0.0388  1.5918 -2.0369
  557MOL0     H76814   6.205   7.727  10.215  0.0957  0.4525 -1.0778
  557MOL0     H76815   6.495   7.871  10.360 -1.9759  0.1764 -1.0804
  557MOL0     H76816   6.783   7.615  10.440  3.1941  0.1401 -3.9497
  557MOL0     H76817   6.673   7.737  10.500 -0.4409 -0.7679 -0.7337
  557MOL0     H76818   6.771   7.893  10.330  0.0805  0.4067 -1.6645
  557MOL0     H76819   6.889   7.826  10.427 -1.2880  1.4019  0.7202
  557MOL0     H76820   6.987   7.780  10.210 -0.8738  3.1221 -1.5293
  557MOL0     H76821   6.905   7.630  10.235  0.4684  0.5470 -0.4784
  557MOL0     H76822   6.859   7.708  10.007  0.0821  3.3476 -2.6378
  557MOL0     H76823   6.713   7.718  10.106 -0.5731  2.0292  0.3661
  557MOL0     H76824   6.885   7.895   9.799  0.4533 -0.1091 -2.3469
  557MOL0     H76825   7.021   8.174   9.625 -1.1995  1.0480  1.6408
  557MOL0     H76826   6.989   7.994   9.623 -2.2940 -1.8717  5.6712
  557MOL0     H76827   7.149   8.051   9.641 -1.0363 -1.5302  0.9231
  557MOL0     H76828   7.500   8.271   9.840 -1.0831  0.0006  0.0418
  557MOL0     H76829   7.676   8.441   9.831  0.6658 -0.1734  1.5613
  557MOL0     H76830   7.825   8.581   9.911  1.5281  0.4741  0.1844
  557MOL0     H76831   7.779   8.674   9.752  2.9548  0.7557 -0.6286
  557MOL0     H76832   7.902   8.769  10.000  2.2335 -2.0751 -1.2853
  557MOL0     H76833   7.971   8.777   9.845  0.7002  1.7316  0.3065
  557MOL0     H76834   7.893   9.006   9.929  0.5655  0.7415 -0.9515
  557MOL0     H76835   7.726   8.954   9.913 -0.3963  1.4119 -2.0967
  557MOL0     H76836   7.731   8.899   9.696 -0.1304  0.7625  0.1386
  557MOL0     H76837   7.907   8.913   9.684 -0.5774  0.3150 -0.4258
  557MOL0     H76838   7.723   9.160   9.716  1.4351  1.8385 -0.1341
  557MOL0     H76839   7.898   9.156   9.717 -0.1809  1.6417 -0.5650
  557MOL0     H76840   7.917   9.082   9.493  3.1136  3.6395  0.2972
  557MOL0     H76841   7.836   9.239   9.522  0.4193  0.0815  0.4202
  557MOL0     H76842   7.626   9.161   9.465  0.4560  1.1857 -2.6902
  557MOL0     H76843   7.696   8.985   9.460  1.5728 -0.4563 -1.5128
  557MOL0     H76844   7.679   9.072   9.211 -0.8742  2.4135 -0.9256
  557MOL0     H76845   7.834   9.040   9.287  0.9335 -0.0461  2.9210
  557MOL0     H76846   7.407   8.726  10.026 -1.8821 -0.5429 -0.9691
  557MOL0     H76847   7.251   8.556  10.061  1.8459  1.1842  2.0230
  557MOL0     H76848   7.083   8.216  10.113  1.6543  0.2339  0.0961
  557MOL0     H76849   6.908   8.070  10.173  3.4510 -2.2329  1.1035
  557MOL0     H76850   6.630   8.688   9.614 -0.4497  0.3385 -0.7784
  557MOL0     H76851   6.777   8.720   9.408  1.1897 -2.6256 -2.1392
  557MOL0     H76852   7.171   8.578   9.248  0.5325 -1.3314  0.2852
  557MOL0     H76853   7.352   8.596   9.056 -0.6178  0.0370 -1.2011
  557MOL0     H76854   7.335   8.350   8.715  0.6543  0.0638  4.4816
  557MOL0     H76855   7.241   8.496   8.661 -1.1722 -2.4132  1.5940
  557MOL0     H76856   7.547   8.495   8.678  0.0468  1.0917  0.8133
  557MOL0     H76857   7.434   8.618   8.614 -1.1182  1.0384 -0.0131
  557MOL0     H76858   7.477   8.339   8.493  2.3176  1.2394 -1.8831
  557MOL0     H76859   7.353   8.450   8.445 -0.4133 -1.8271 -1.6233
  557MOL0     H76860   7.654   8.509   8.422 -0.0005 -0.6010 -0.1653
  557MOL0     H76861   7.523   8.615   8.386 -0.0034 -0.0565  2.7403
  557MOL0     H76862   7.475   8.364   8.060  0.2623 -0.7336 -0.1282
  557MOL0     H76863   7.099   8.381   8.797 -0.2919  1.0800 -0.3625
  557MOL0     H76864   6.800   8.433   8.928  0.8537  0.2867 -0.6388
  557MOL0     H76865   6.895   8.313   8.841  0.4493  3.0500 -1.7320
  557MOL0     H76866   6.845   8.295   9.016 -1.1708  1.4714  0.2952
  558MOL0     O76867   8.277   8.711   1.648 -0.0919 -0.1757 -0.1153
  558MOL0     C76868   8.323   8.742   1.758  0.6237  0.0535  0.5813
  558MOL0     O76869   8.413   8.839   1.782 -0.1787 -0.2612  0.2466
  558MOL0     C76870   8.470   8.905   1.686  0.4316  0.7887 -0.0451
  558MOL0     C76871   8.448   9.044   1.666 -0.4070 -0.7891  0.4554
  558MOL0     C76872   8.519   9.115   1.566  0.2407 -0.3653 -0.1705
  558MOL0     C76873   8.596   9.050   1.467 -0.5275  0.2750  0.1569
  558MOL0     O76874   8.642   9.136   1.371 -0.1462  0.4016 -0.1483
  558MOL0     C76875   8.621   9.082   1.240  0.4812  0.1908  0.8016
  558MOL0     C76876   8.750   9.030   1.169 -0.4635  0.4997  0.2252
  558MOL0     C76877   8.715   8.972   1.026  0.5020  0.3510 -0.1909
  558MOL0     C76878   8.620   9.055   0.934  0.5115  0.0032 -0.8853
  558MOL0     C76879   8.693   9.150   0.841  0.3639  0.5100 -0.6465
  558MOL0     C76880   8.586   9.231   0.774  0.7528  0.4060 -0.3612
  558MOL0     C76881   8.655   9.344   0.689 -0.4155  0.4656  0.0463
  558MOL0     C76882   8.704   9.465   0.774 -0.1626  0.6572  0.3314
  558MOL0     N76883   8.683   9.589   0.710 -0.1388  0.2963  0.7339
  558MOL0     C76884   8.768   9.623   0.603 -0.4687 -0.4105  0.0759
  558MOL0     C76885   8.709   9.737   0.555 -0.0011 -0.6715  1.1702
  558MOL0     C76886   8.752   9.813   0.431  0.6770  0.2474 -0.2209
  558MOL0     C76887   8.752   9.733   0.298  0.1754  0.0808  0.4377
  558MOL0     C76888   8.652   9.619   0.279  0.5139 -0.2324 -0.2144
  558MOL0     C76889   8.514   9.682   0.287 -0.5845  0.0793 -0.3924
  558MOL0     O76890   8.424   9.575   0.251  0.4746  0.5326  0.2171
  558MOL0     C76891   8.352   9.512   0.349  0.1400 -0.8202  0.4494
  558MOL0     C76892   8.240   9.438   0.325  0.4046 -0.7245 -0.0383
  558MOL0     C76893   8.164   9.377   0.429 -0.4406  0.2802  0.3428
  558MOL0     C76894   8.041   9.291   0.382  0.6830 -0.3483  0.5529
  558MOL0     C76895   8.197   9.394   0.565 -0.2019  0.1246  0.3425
  558MOL0     C76896   8.131   9.339   0.690  0.3049  0.8143  0.2441
  558MOL0     O76897   8.031   9.253   0.680 -0.5514  0.1123  0.4617
  558MOL0     C76898   7.940   9.240   0.780  0.8011  0.1413 -0.2171
  558MOL0     C76899   7.927   9.132   0.857 -0.0010 -0.5495 -0.7204
  558MOL0     C76900   7.812   9.110   0.942  0.4033 -0.0587 -0.9785
  558MOL0     C76901   7.708   9.206   0.940  0.3351 -0.2492  0.9911
  558MOL0     O76902   7.601   9.181   1.026  0.6606  0.1073  0.0130
  558MOL0     C76903   7.486   9.270   1.034  0.3611  0.2175  0.2060
  558MOL0     C76904   7.396   9.237   1.150 -0.9463  0.0683  0.0591
  558MOL0     C76905   7.333   9.363   1.200  0.2950  0.3018 -0.5358
  558MOL0     C76906   7.239   9.340   1.323  0.5658 -0.0943 -1.0005
  558MOL0     C76907   7.118   9.449   1.326  0.0414  0.4413  0.0348
  558MOL0     C76908   7.159   9.595   1.321  0.0052 -0.2524 -0.6184
  558MOL0     C76909   7.124   9.677   1.444  0.3623 -0.0373  0.2108
  558MOL0     C76910   7.207   9.643   1.571 -0.6564  0.7877  0.0502
  558MOL0    Cl76911   7.390   9.636   1.547  0.0036 -0.0311  0.7285
  558MOL0     C76912   7.720   9.325   0.863  0.7856  0.2195 -0.6685
  558MOL0     C76913   7.832   9.342   0.781 -1.0933 -0.4138 -0.6317
  558MOL0     O76914   8.173   9.375   0.799  0.1118  0.6915 -0.0336
  558MOL0     C76915   8.311   9.468   0.591  0.3948 -0.4252  0.8120
  558MOL0     C76916   8.396   9.514   0.494  0.0506 -0.1444 -0.0484
  558MOL0     N76917   8.596   9.762   0.626 -0.1619 -0.0180 -0.6234
  558MOL0     N76918   8.579   9.678   0.720  0.5998  0.1451 -0.4175
  558MOL0     C76919   8.609   8.911   1.482  0.3061 -0.5674  0.7633
  558MOL0     C76920   8.554   8.839   1.590 -0.6216  0.3708  0.9747
  558MOL0     C76921   8.279   8.665   1.881  0.1207  0.0332  0.4912
  558MOL0     C76922   8.244   8.724   2.001  0.6169  0.1814 -0.1581
  558MOL0     C76923   8.196   8.646   2.104 -0.6897  0.6620  0.5558
  558MOL0     C76924   8.195   8.503   2.088  0.0604  0.6690 -0.2000
  558MOL0     O76925   8.149   8.415   2.183 -0.2645  0.4904  0.5742
  558MOL0     C76926   8.092   8.457   2.303 -0.0330  0.5868 -0.7301
  558MOL0     C76927   8.126   8.359   2.417  1.0327 -0.1116  0.4596
  558MOL0     C76928   8.270   8.378   2.471 -0.1694 -0.0921 -0.2913
  558MOL0     C76929   8.308   8.264   2.560  0.5338 -0.0190  0.7183
  558MOL0     C76930   8.316   8.136   2.483  0.2972 -0.3432  0.0117
  558MOL0     C76931   8.319   8.025   2.428 -0.0220 -0.5402 -0.2211
  558MOL0     C76932   8.261   8.445   1.981 -0.1432 -0.3295 -0.0504
  558MOL0     C76933   8.290   8.519   1.867 -0.0359  0.0580 -0.3200
  558MOL0     C76934   8.359   8.442   1.758  0.2250 -0.3999  0.2252
  558MOL0     H76935   8.391   9.096   1.742  0.3747 -0.0521  0.5607
  558MOL0     H76936   8.504   9.222   1.556  2.6763 -0.0283 -0.9266
  558MOL0     H76937   8.583   9.163   1.177  0.1118  1.5206  2.6529
  558MOL0     H76938   8.548   9.001   1.245  2.0795 -1.3580  0.0527
  558MOL0     H76939   8.838   9.093   1.153  0.1796 -0.7129 -1.3447
  558MOL0     H76940   8.794   8.959   1.240 -0.5688  0.8148  0.6092
  558MOL0     H76941   8.796   8.934   0.964 -0.4420 -0.7206 -0.8009
  558MOL0     H76942   8.657   8.883   1.048 -0.3824  0.5205 -1.6617
  558MOL0     H76943   8.573   8.991   0.858 -0.3651 -2.1371  1.3559
  558MOL0     H76944   8.538   9.099   0.991 -1.1148 -1.0988 -2.2566
  558MOL0     H76945   8.755   9.091   0.772  0.1300  0.3065 -0.6856
  558MOL0     H76946   8.761   9.215   0.897 -0.1764  0.5963 -0.0784
  558MOL0     H76947   8.518   9.170   0.714 -0.8559  2.9151 -1.2822
  558MOL0     H76948   8.521   9.285   0.844 -0.7775 -0.3926 -1.1100
  558MOL0     H76949   8.577   9.387   0.626  0.5807  1.7779 -0.3313
  558MOL0     H76950   8.743   9.306   0.636  0.5280  1.5911  0.7423
  558MOL0     H76951   8.633   9.476   0.857  1.2171 -0.9162  1.8045
  558MOL0     H76952   8.801   9.461   0.823 -0.8737  4.2582  2.3219
  558MOL0     H76953   8.860   9.580   0.564  0.2814  1.0519  0.1859
  558MOL0     H76954   8.849   9.857   0.454  0.6504 -0.3489  1.1018
  558MOL0     H76955   8.678   9.894   0.429 -0.2095 -0.5395 -0.0188
  558MOL0     H76956   8.752   9.810   0.220  0.6824 -0.0058  0.3480
  558MOL0     H76957   8.849   9.683   0.288 -0.7626 -1.7154 -0.1047
  558MOL0     H76958   8.662   9.577   0.178 -0.3274 -0.4657 -0.2126
  558MOL0     H76959   8.670   9.536   0.348  0.0410 -1.6736 -1.7436
  558MOL0     H76960   8.490   9.727   0.384 -0.6677 -1.9658  0.5837
  558MOL0     H76961   8.519   9.775   0.229  1.1473  0.1127 -0.2347
  558MOL0     H76962   8.217   9.416   0.221  0.3733 -0.4489 -0.0884
  558MOL0     H76963   8.035   9.283   0.273 -0.3669 -1.8217  0.6921
  558MOL0     H76964   7.949   9.336   0.420  0.3425 -1.5691  1.2240
  558MOL0     H76965   8.056   9.187   0.415 -0.4372 -0.6985  0.0121
  558MOL0     H76966   8.002   9.058   0.833  1.2145  1.4326 -3.6832
  558MOL0     H76967   7.801   9.018   0.999 -0.1163 -0.2795 -1.4166
  558MOL0     H76968   7.516   9.375   1.045 -2.1317  1.1009 -0.5562
  558MOL0     H76969   7.428   9.257   0.942  1.9309  1.5648 -1.0213
  558MOL0     H76970   7.318   9.167   1.119 -2.2401  2.5577 -2.7414
  558MOL0     H76971   7.453   9.193   1.233  0.4932 -0.0583 -0.9546
  558MOL0     H76972   7.281   9.405   1.114 -0.5366  0.8880  0.2355
  558MOL0     H76973   7.413   9.430   1.234 -0.8348  1.5333 -0.2238
  558MOL0     H76974   7.294   9.348   1.418  1.7034  0.3461 -1.6696
  558MOL0     H76975   7.196   9.241   1.311 -0.3491  0.3598 -1.5717
  558MOL0     H76976   7.063   9.427   1.234 -0.5835  0.8137  0.3102
  558MOL0     H76977   7.058   9.439   1.417 -0.9110  0.2049 -0.5962
  558MOL0     H76978   7.106   9.644   1.239 -0.7910 -0.6590 -0.3527
  558MOL0     H76979   7.266   9.611   1.307  0.4974 -1.0456  1.7421
  558MOL0     H76980   7.020   9.667   1.477  0.8538 -1.6224  1.4053
  558MOL0     H76981   7.138   9.783   1.423 -2.1018  0.1999 -0.5696
  558MOL0     H76982   7.167   9.543   1.593 -1.5722  0.9244 -0.9345
  558MOL0     H76983   7.180   9.695   1.663  1.6852 -0.8942  1.8347
  558MOL0     H76984   7.636   9.393   0.866 -0.7082 -1.5409 -1.1955
  558MOL0     H76985   7.823   9.420   0.706  0.6908  0.7062  0.2508
  558MOL0     H76986   8.349   9.478   0.692  1.7889  1.9225  0.1429
  558MOL0     H76987   8.496   9.548   0.516 -1.7056  3.9024  2.8224
  558MOL0     H76988   8.675   8.854   1.418  1.6794  1.9384 -0.1981
  558MOL0     H76989   8.585   8.736   1.605 -0.5230 -0.2543 -2.5757
  558MOL0     H76990   8.226   8.830   2.013  1.0381  0.4856 -1.9355
  558MOL0     H76991   8.157   8.696   2.193 -0.8592  0.4807  0.5836
  558MOL0     H76992   8.125   8.556   2.336 -0.2959  0.8131 -1.1225
  558MOL0     H76993   7.983   8.467   2.291 -0.0952 -0.8038 -1.5219
  558MOL0     H76994   8.114   8.260   2.372  0.9952 -0.1529  0.5609
  558MOL0     H76995   8.062   8.369   2.505 -0.9209 -1.4957 -0.7302
  558MOL0     H76996   8.334   8.377   2.382 -0.3630 -2.1370 -0.4555
  558MOL0     H76997   8.276   8.469   2.531 -1.2150 -3.1334  5.0122
  558MOL0     H76998   8.237   8.259   2.643  2.0869  0.1882  2.1118
  558MOL0     H76999   8.405   8.282   2.607  1.3670 -1.3721 -0.4181
  558MOL0     H77000   8.324   7.933   2.373  0.1354 -1.6903  1.6595
  558MOL0     H77001   8.281   8.339   1.997 -1.8612 -0.2336  3.5562
  558MOL0     H77002   8.279   8.416   1.688 -2.0022  1.8931  1.7448
  558MOL0     H77003   8.438   8.502   1.711  1.2235 -2.1234 -0.4097
  558MOL0     H77004   8.397   8.347   1.798 -0.5595 -0.5771  0.5681
  559MOL0     O77005  10.443   1.591   0.891  0.6200 -0.3387 -0.0919
  559MOL0     C77006  10.408   1.496   0.819  1.1835 -1.0542 -0.4391
  559MOL0     O77007  10.477   1.386   0.799  0.3891 -0.1034  0.5117
  559MOL0     C77008  10.603   1.365   0.861  0.1049 -0.0980  0.3643
  559MOL0     C77009  10.700   1.455   0.880  0.5896  0.1527 -0.0593
  559MOL0     C77010  10.829   1.422   0.936 -0.8159  0.1283  0.7144
  559MOL0     C77011  10.857   1.286   0.970  0.1364 -0.0846 -0.3313
  559MOL0     O77012  10.982   1.250   1.019  0.1990  0.4657  0.6589
  559MOL0     C77013  11.015   1.111   0.988  0.1152 -0.9688 -0.6649
  559MOL0     C77014  11.167   1.122   0.995 -0.2240  0.0894 -0.4721
  559MOL0     C77015  11.228   1.207   0.882  0.6927 -0.2325  0.1226
  559MOL0     C77016  11.378   1.218   0.900 -0.4818 -0.3754  0.3613
  559MOL0     C77017  11.455   1.318   0.814  0.1325 -0.1140 -0.0549
  559MOL0     C77018  11.605   1.327   0.847  0.5332  0.0606  0.0669
  559MOL0     C77019  11.683   1.452   0.788  0.2741 -0.3689  0.4492
  559MOL0     C77020  11.828   1.456   0.828 -0.4838 -0.2193  0.1716
  559MOL0     N77021  11.906   1.340   0.778  0.2192 -0.7218  0.7610
  559MOL0     C77022  11.960   1.339   0.653  0.3994  0.1489  0.2418
  559MOL0     C77023  12.012   1.216   0.636 -0.0338  0.3979 -1.0023
  559MOL0     C77024  12.069   1.164   0.503  0.4310 -0.0858 -0.2200
  559MOL0     C77025  12.206   1.231   0.471 -0.3151 -0.1611 -0.2369
  559MOL0     C77026  12.237   1.192   0.321  0.5374  0.3590  0.6527
  559MOL0     C77027  12.330   1.277   0.244 -0.6874  0.2686 -0.2051
  559MOL0     O77028  12.342   1.220   0.112  0.0667 -0.0904  0.7507
  559MOL0     C77029  12.470   1.218   0.067 -0.1527  0.7409 -0.4521
  559MOL0     C77030  12.540   1.099   0.066 -0.0052  0.7893  0.3191
  559MOL0     C77031  12.669   1.089   0.016  0.0260  0.0266  0.2772
  559MOL0     C77032  12.736   0.958   0.025 -0.2539  0.3341 -0.4431
  559MOL0     C77033  12.733   1.197  -0.047  0.5149 -0.4106  0.5879
  559MOL0     C77034  12.857   1.190  -0.127  1.0390 -0.0952  0.3035
  559MOL0     O77035  12.946   1.297  -0.119 -0.0925  0.2175 -1.0359
  559MOL0     C77036  13.052   1.299  -0.207 -0.2160 -0.3986  0.0521
  559MOL0     C77037  13.164   1.225  -0.179 -0.0230  0.5421 -0.2626
  559MOL0     C77038  13.273   1.234  -0.264  0.6169  0.6483  1.2166
  559MOL0     C77039  13.268   1.316  -0.380  0.3079  0.5362  0.7471
  559MOL0     O77040  13.363   1.338  -0.476 -0.0225  0.2375 -0.0273
  559MOL0     C77041  13.448   1.227  -0.504 -0.3207  0.1732  1.1126
  559MOL0     C77042  13.507   1.243  -0.642  0.0586 -0.4380 -0.1308
  559MOL0     C77043  13.587   1.124  -0.692  0.0906 -0.2052 -0.0881
  559MOL0     C77044  13.693   1.091  -0.588  0.5338 -0.4850  1.2469
  559MOL0     C77045  13.790   0.988  -0.651  0.5988  0.1642 -0.5241
  559MOL0     C77046  13.879   0.919  -0.546 -0.0222 -1.1729 -0.4627
  559MOL0     C77047  13.959   1.021  -0.461  0.3106  1.4661 -0.5215
  559MOL0     C77048  14.079   0.973  -0.380  0.4471 -0.0658 -0.0125
  559MOL0    Cl77049  14.045   0.838  -0.269  0.3288 -0.4866  0.1705
  559MOL0     C77050  13.150   1.392  -0.411 -0.4228  0.6687 -0.3609
  559MOL0     C77051  13.043   1.385  -0.321 -0.0856  0.5224  0.3166
  559MOL0     O77052  12.861   1.094  -0.210  0.1983  0.0773  0.2359
  559MOL0     C77053  12.665   1.323  -0.045  0.0382  0.4860 -0.1725
  559MOL0     C77054  12.532   1.328   0.013  0.3572  0.0421  0.2429
  559MOL0     N77055  11.993   1.141   0.762  0.6737 -0.0191 -0.2556
  559MOL0     N77056  11.924   1.219   0.839  0.1055  0.2150  0.4121
  559MOL0     C77057  10.748   1.201   0.952  0.0339 -0.1327 -0.6854
  559MOL0     C77058  10.626   1.235   0.903 -1.1437 -0.0463  0.5266
  559MOL0     C77059  10.274   1.504   0.755  0.2617 -0.1554 -0.0655
  559MOL0     C77060  10.228   1.627   0.725 -0.1088  0.4962  0.0628
  559MOL0     C77061  10.101   1.651   0.661 -0.1241  0.4663  0.3000
  559MOL0     C77062  10.019   1.549   0.639  0.8943  0.4615 -0.6333
  559MOL0     O77063   9.896   1.542   0.580  0.2035  0.0332 -0.2604
  559MOL0     C77064   9.853   1.654   0.496  0.5562  0.3917  0.2863
  559MOL0     C77065   9.702   1.665   0.500  0.2876 -0.1984 -0.2993
  559MOL0     C77066   9.631   1.532   0.449  0.3391  0.4224  0.4100
  559MOL0     C77067   9.476   1.542   0.445 -0.6025 -0.1767  0.3974
  559MOL0     C77068   9.424   1.649   0.362 -1.0116  0.4187  0.3806
  559MOL0     C77069   9.399   1.742   0.296 -0.8911  0.2629 -0.4285
  559MOL0     C77070  10.059   1.423   0.684  0.4904  0.6526  0.4284
  559MOL0     C77071  10.188   1.396   0.734 -0.0188 -0.0245  0.6526
  559MOL0     C77072  10.209   1.253   0.788  0.2550  0.2295 -0.1953
  559MOL0     H77073  10.685   1.560   0.856  1.9387  0.6371  1.0100
  559MOL0     H77074  10.906   1.499   0.943  2.2140 -2.1696 -3.0140
  559MOL0     H77075  10.984   1.075   0.889  0.3004 -0.3881 -0.9386
  559MOL0     H77076  10.978   1.037   1.059 -0.7604 -0.6255 -0.7586
  559MOL0     H77077  11.194   1.173   1.087  5.2889  0.6150 -2.0312
  559MOL0     H77078  11.205   1.020   1.009  2.3269  1.2913  2.3938
  559MOL0     H77079  11.208   1.158   0.786  0.3436 -0.3678  0.2642
  559MOL0     H77080  11.186   1.308   0.881 -1.8421 -1.2184 -0.4367
  559MOL0     H77081  11.402   1.244   1.003  0.3155  3.7310 -0.6766
  559MOL0     H77082  11.425   1.122   0.879 -1.3353 -1.2026  2.0582
  559MOL0     H77083  11.412   1.418   0.826  0.5163 -0.2563  3.1420
  559MOL0     H77084  11.444   1.288   0.709  2.9549 -0.3941 -0.3529
  559MOL0     H77085  11.632   1.316   0.952  2.5777 -0.3277 -0.4444
  559MOL0     H77086  11.648   1.244   0.790  0.2784  1.5722 -2.4834
  559MOL0     H77087  11.638   1.548   0.815 -0.9780  0.1253 -2.9440
  559MOL0     H77088  11.676   1.439   0.680 -3.6751 -0.8213  0.6251
  559MOL0     H77089  11.863   1.552   0.788  1.4608 -0.3911  1.3160
  559MOL0     H77090  11.837   1.469   0.936 -2.0930 -1.1821  0.4508
  559MOL0     H77091  11.964   1.410   0.571  4.1318 -0.3613 -0.2222
  559MOL0     H77092  12.000   1.193   0.423 -0.8987 -2.5875 -0.0952
  559MOL0     H77093  12.084   1.055   0.503 -1.9833 -0.5250 -2.2354
  559MOL0     H77094  12.195   1.339   0.482  0.3068 -0.1971  0.8743
  559MOL0     H77095  12.283   1.198   0.540  1.5357  3.7892 -0.1317
  559MOL0     H77096  12.271   1.088   0.318 -1.6619 -0.4248 -1.7784
  559MOL0     H77097  12.143   1.203   0.265  1.5658  1.8199 -0.8488
  559MOL0     H77098  12.297   1.379   0.226 -0.7701  0.0608 -1.3607
  559MOL0     H77099  12.430   1.279   0.290 -0.1094 -2.9596 -1.0460
  559MOL0     H77100  12.484   1.016   0.108  2.1079 -0.9933 -0.2085
  559MOL0     H77101  12.705   0.913   0.119 -1.5959  1.2324 -0.4180
  559MOL0     H77102  12.844   0.974   0.026 -0.3008  0.7499  1.1028
  559MOL0     H77103  12.711   0.889  -0.056  0.2529  0.5317 -0.7750
  559MOL0     H77104  13.174   1.173  -0.084 -1.8584  1.7672  0.6813
  559MOL0     H77105  13.363   1.173  -0.252 -1.0883 -2.1942  0.4978
  559MOL0     H77106  13.528   1.233  -0.430  0.7490  0.9852 -0.0667
  559MOL0     H77107  13.390   1.134  -0.504  1.6329 -1.1218 -0.5772
  559MOL0     H77108  13.428   1.261  -0.715 -1.5990  1.3025  1.9368
  559MOL0     H77109  13.571   1.331  -0.647 -0.2474 -0.1249  1.1858
  559MOL0     H77110  13.633   1.149  -0.788 -0.6480 -1.2080 -0.7275
  559MOL0     H77111  13.525   1.034  -0.697  1.2661 -1.2169  1.9223
  559MOL0     H77112  13.637   1.046  -0.506 -2.4223  2.6835  1.2265
  559MOL0     H77113  13.748   1.177  -0.549 -0.3643  0.7685 -0.1417
  559MOL0     H77114  13.735   0.910  -0.703 -0.2789  0.4374 -0.0191
  559MOL0     H77115  13.851   1.026  -0.733 -1.1222 -5.3199 -4.9483
  559MOL0     H77116  13.951   0.858  -0.601 -0.5898 -2.6129  0.3288
  559MOL0     H77117  13.824   0.855  -0.476  0.9373 -1.2191  0.2689
  559MOL0     H77118  13.896   1.080  -0.394 -3.4734 -0.1539 -2.3608
  559MOL0     H77119  13.990   1.096  -0.535 -1.6321  2.4826 -0.3662
  559MOL0     H77120  14.111   1.065  -0.331 -0.8340  0.9206 -0.9339
  559MOL0     H77121  14.159   0.947  -0.450 -0.3852 -1.8871 -0.3324
  559MOL0     H77122  13.130   1.445  -0.503 -1.7420 -0.0860 -0.5370
  559MOL0     H77123  12.956   1.445  -0.347 -1.2518 -1.5160 -0.8158
  559MOL0     H77124  12.702   1.405  -0.106 -2.0338 -0.2008 -2.4868
  559MOL0     H77125  12.487   1.427   0.022 -0.1689 -0.3397  2.4716
  559MOL0     H77126  10.758   1.099   0.988 -3.0604  0.2507  1.7573
  559MOL0     H77127  10.556   1.156   0.877 -0.7567 -0.7461  1.5577
  559MOL0     H77128  10.287   1.715   0.748  0.0768  0.4413 -0.1969
  559MOL0     H77129  10.070   1.748   0.623  0.9459 -0.5518 -3.5658
  559MOL0     H77130   9.887   1.754   0.524 -0.3238  0.7725  0.0313
  559MOL0     H77131   9.891   1.633   0.395 -0.7254 -2.9528  0.3745
  559MOL0     H77132   9.668   1.745   0.434 -0.5130  0.6176  1.0553
  559MOL0     H77133   9.679   1.700   0.601  0.1609 -2.1380  0.3938
  559MOL0     H77134   9.674   1.498   0.354  0.5143  1.6721  0.0195
  559MOL0     H77135   9.643   1.455   0.526 -1.6320 -0.8021 -0.4363
  559MOL0     H77136   9.433   1.564   0.543  0.4841 -0.4821  0.9555
  559MOL0     H77137   9.432   1.448   0.412  2.0636 -1.2643 -0.3432
  559MOL0     H77138   9.392   1.838   0.249 -0.8132  1.1565  1.2952
  559MOL0     H77139  10.001   1.335   0.659  0.4358  0.8045  0.0158
  559MOL0     H77140  10.294   1.204   0.739 -0.2140 -2.9295  1.8273
  559MOL0     H77141  10.223   1.250   0.897 -1.2854  0.9902  0.0510
  559MOL0     H77142  10.122   1.191   0.764  1.5036 -0.7466 -2.5314
  560MOL0     O77143   7.556   2.383  10.022 -0.1877  0.1936 -0.0826
  560MOL0     C77144   7.464   2.322   9.972 -0.0618  0.8006  0.0216
  560MOL0     O77145   7.340   2.321  10.027 -0.2060  0.2307  1.1854
  560MOL0     C77146   7.296   2.390  10.143  0.3661 -0.1974 -0.3374
  560MOL0     C77147   7.356   2.503  10.204  0.1787  0.2928  0.6340
  560MOL0     C77148   7.303   2.560  10.313  0.8342 -0.0398  0.7535
  560MOL0     C77149   7.187   2.504  10.373  0.2040  0.9142 -0.5927
  560MOL0     O77150   7.155   2.559  10.498 -0.0687 -0.0990 -0.3629
  560MOL0     C77151   7.025   2.550  10.539 -1.0472  0.0354  0.4754
  560MOL0     C77152   7.017   2.592  10.677 -0.2480  0.1365 -0.4725
  560MOL0     C77153   7.032   2.741  10.694  0.2609  0.9326  0.3474
  560MOL0     C77154   7.068   2.760  10.839  0.3635  1.2574 -0.0595
  560MOL0     C77155   7.076   2.908  10.868 -0.0657  1.0815  0.6616
  560MOL0     C77156   7.104   2.921  11.020  0.1857  0.0464  0.2823
  560MOL0     C77157   7.070   3.059  11.077  0.5736 -0.4227  0.3447
  560MOL0     C77158   7.107   3.066  11.221 -0.5419  0.2466 -0.2958
  560MOL0     N77159   7.254   3.065  11.244 -0.0412  0.8470 -0.2604
  560MOL0     C77160   7.331   3.167  11.200 -0.1719  0.5484  0.5217
  560MOL0     C77161   7.459   3.127  11.221  0.4265 -0.6013 -0.7180
  560MOL0     C77162   7.581   3.212  11.191 -0.3133 -0.7631 -0.1765
  560MOL0     C77163   7.713   3.161  11.245 -0.0709 -0.5144  0.2930
  560MOL0     C77164   7.830   3.254  11.201  0.2889  0.1041 -0.1699
  560MOL0     C77165   7.952   3.187  11.260  0.0251 -0.9390  0.3016
  560MOL0     O77166   8.056   3.283  11.235  0.2683  0.1025  0.6025
  560MOL0     C77167   8.185   3.236  11.249 -0.0668 -0.3484 -0.2711
  560MOL0     C77168   8.213   3.105  11.303 -1.2386 -0.9015 -0.1760
  560MOL0     C77169   8.349   3.064  11.308  0.4622  0.3023 -0.7475
  560MOL0     C77170   8.366   2.920  11.361 -0.3642 -0.6843  0.2047
  560MOL0     C77171   8.452   3.147  11.274  0.5499  0.4983 -0.3841
  560MOL0     C77172   8.592   3.107  11.284  0.1553 -0.3191 -0.5490
  560MOL0     O77173   8.675   3.126  11.177  0.7256 -0.0532  0.6717
  560MOL0     C77174   8.806   3.079  11.180 -0.1699 -0.0694  0.8330
  560MOL0     C77175   8.900   3.164  11.116 -0.0765 -0.3798 -0.1625
  560MOL0     C77176   9.029   3.124  11.087  0.3701 -0.3694 -0.4147
  560MOL0     C77177   9.070   2.996  11.130 -0.2561 -0.2452  0.5628
  560MOL0     O77178   9.201   2.940  11.108  0.4072  0.4935  0.0536
  560MOL0     C77179   9.301   3.039  11.122 -0.3434 -0.1045 -0.1764
  560MOL0     C77180   9.437   2.966  11.148  0.1836 -0.2109 -0.4713
  560MOL0     C77181   9.561   3.054  11.143  0.2328  0.1061 -0.7954
  560MOL0     C77182   9.689   2.981  11.194 -0.7871  0.8043  0.5953
  560MOL0     C77183   9.814   3.069  11.173  1.1953  0.0398  0.9934
  560MOL0     C77184   9.938   2.989  11.199  0.7652  0.4507 -0.7835
  560MOL0     C77185  10.058   3.086  11.183  0.4758  0.2181  0.0453
  560MOL0     C77186  10.181   2.988  11.151  0.6622 -0.2350  0.8222
  560MOL0    Cl77187  10.318   3.033  11.258  0.0243 -0.1148 -0.0735
  560MOL0     C77188   8.969   2.913  11.192 -0.7652 -0.5486  0.2582
  560MOL0     C77189   8.844   2.953  11.223  0.5635  0.3005 -0.1599
  560MOL0     O77190   8.633   3.072  11.393 -0.2133  0.0706  0.6418
  560MOL0     C77191   8.423   3.281  11.230  0.2709  0.2438  0.1021
  560MOL0     C77192   8.289   3.318  11.212  0.2084  0.1567 -0.8108
  560MOL0     N77193   7.453   2.999  11.281  0.1071  0.5200 -0.1963
  560MOL0     N77194   7.329   2.970  11.305  0.3534 -0.0133 -0.4991
  560MOL0     C77195   7.125   2.393  10.317 -0.6101 -0.6044 -1.0900
  560MOL0     C77196   7.170   2.341  10.191 -0.4612  0.2372 -0.3205
  560MOL0     C77197   7.473   2.260   9.837  0.3152  0.8326 -0.8420
  560MOL0     C77198   7.355   2.209   9.781 -0.1051 -0.2988  0.4022
  560MOL0     C77199   7.372   2.149   9.655  0.0581  0.1883 -0.5558
  560MOL0     C77200   7.494   2.126   9.594  0.1612 -0.2717 -0.5409
  560MOL0     O77201   7.518   2.081   9.470  0.5524  0.5194 -0.5764
  560MOL0     C77202   7.423   2.010   9.392 -0.1224 -0.8557  0.4142
  560MOL0     C77203   7.450   2.018   9.244 -0.4359 -0.3511  0.1153
  560MOL0     C77204   7.528   2.146   9.200  0.0190 -0.6594  0.1913
  560MOL0     C77205   7.532   2.151   9.046  0.2716 -0.2875  0.4477
  560MOL0     C77206   7.595   2.281   9.000 -0.4606  0.6426 -0.0059
  560MOL0     C77207   7.649   2.375   8.943 -0.4898 -0.0574 -0.5505
  560MOL0     C77208   7.605   2.171   9.653 -0.2736 -0.4449  0.5231
  560MOL0     C77209   7.605   2.240   9.776  0.5999  0.0049  0.3475
  560MOL0     C77210   7.744   2.301   9.818 -0.0348  0.0162  0.1726
  560MOL0     H77211   7.434   2.562  10.158  0.8495 -2.1618 -1.5935
  560MOL0     H77212   7.349   2.649  10.356 -1.0013  0.3571  2.0379
  560MOL0     H77213   6.986   2.450  10.563 -1.7363  0.2658  0.3379
  560MOL0     H77214   6.961   2.607  10.471  0.6857  0.5677 -0.7564
  560MOL0     H77215   6.924   2.556  10.723  1.1477  2.1005  4.5973
  560MOL0     H77216   7.098   2.539  10.727 -0.1896 -0.4605 -1.1789
  560MOL0     H77217   7.106   2.786  10.627 -1.5415  0.7656 -1.9213
  560MOL0     H77218   6.939   2.797  10.678 -1.1118 -1.8920 -2.8303
  560MOL0     H77219   6.987   2.721  10.901  0.0325 -1.3380 -1.9691
  560MOL0     H77220   7.163   2.713  10.865  0.8604  1.1811 -1.8782
  560MOL0     H77221   6.981   2.958  10.847  0.1114  0.8684 -0.7526
  560MOL0     H77222   7.145   2.965  10.805 -0.9334  0.4794 -0.8807
  560MOL0     H77223   7.050   2.845  11.078 -3.1499  1.5722 -0.5487
  560MOL0     H77224   7.210   2.900  11.035  0.5634  1.4442 -0.2736
  560MOL0     H77225   6.963   3.081  11.071  0.9569  2.2088  1.8128
  560MOL0     H77226   7.111   3.145  11.023 -0.3528  0.8022  1.5255
  560MOL0     H77227   7.080   3.162  11.265  0.3995  0.3819  0.0266
  560MOL0     H77228   7.051   2.992  11.279 -0.7303 -1.2581 -2.3097
  560MOL0     H77229   7.295   3.248  11.139  0.4787 -0.7567 -1.7213
  560MOL0     H77230   7.565   3.307  11.242 -1.2872 -1.0805  0.1288
  560MOL0     H77231   7.600   3.225  11.084  3.7322 -1.9420  0.2055
  560MOL0     H77232   7.713   3.162  11.354  1.3310  0.6856  0.3097
  560MOL0     H77233   7.736   3.059  11.212 -2.7175 -0.8087 -0.8955
  560MOL0     H77234   7.843   3.244  11.093  0.7583  0.4058 -0.1430
  560MOL0     H77235   7.814   3.358  11.229  4.1879  0.5212  1.1649
  560MOL0     H77236   7.938   3.172  11.367  1.7567 -1.1535  0.5269
  560MOL0     H77237   7.971   3.088  11.218 -1.9244 -1.5198  0.7006
  560MOL0     H77238   8.136   3.030  11.314 -1.5952 -0.8412 -2.0331
  560MOL0     H77239   8.274   2.861  11.366 -2.4361  2.0476 -2.3965
  560MOL0     H77240   8.419   2.919  11.457  3.3402  0.6016 -1.6396
  560MOL0     H77241   8.434   2.866  11.294  2.6722  1.5436  1.2862
  560MOL0     H77242   8.873   3.260  11.074 -1.7675 -1.8652 -2.6844
  560MOL0     H77243   9.097   3.191  11.035  0.0531  1.6364  1.6053
  560MOL0     H77244   9.309   3.091  11.026 -1.5911  0.6997  0.1306
  560MOL0     H77245   9.284   3.115  11.199  1.6244  1.3354 -1.0729
  560MOL0     H77246   9.434   2.923  11.248 -0.9859 -2.4979 -1.4085
  560MOL0     H77247   9.442   2.883  11.077  2.5010  0.3332 -1.0295
  560MOL0     H77248   9.535   3.134  11.211  1.1365  1.3977 -1.9098
  560MOL0     H77249   9.580   3.097  11.044  1.3540 -3.2722 -2.2350
  560MOL0     H77250   9.696   2.898  11.123 -0.2596  2.8353 -1.8856
  560MOL0     H77251   9.668   2.963  11.299  3.2149  1.1326  1.6004
  560MOL0     H77252   9.826   3.101  11.069  0.0360  0.2865  0.9157
  560MOL0     H77253   9.804   3.159  11.235 -1.8516  0.4955  0.0219
  560MOL0     H77254   9.942   2.901  11.133 -0.4632 -1.5515  1.6345
  560MOL0     H77255   9.931   2.950  11.302 -1.2554  1.7647 -0.3900
  560MOL0     H77256  10.055   3.152  11.270 -1.4824  0.2476  0.0129
  560MOL0     H77257  10.042   3.147  11.094  0.0482  0.7667  0.4927
  560MOL0     H77258  10.214   2.977  11.048  2.7921 -1.3041  1.5646
  560MOL0     H77259  10.163   2.886  11.187  2.6999  0.4203  4.1748
  560MOL0     H77260   9.002   2.814  11.222  1.1459  0.2956  1.1214
  560MOL0     H77261   8.777   2.883  11.273  1.7508 -1.2250 -0.5982
  560MOL0     H77262   8.497   3.344  11.183 -1.3764  2.1196 -0.0962
  560MOL0     H77263   8.269   3.412  11.161 -0.7396  0.5441  0.2337
  560MOL0     H77264   7.036   2.345  10.357 -1.0392  1.4720  0.6501
  560MOL0     H77265   7.108   2.270  10.136 -2.4182 -1.0728  3.2307
  560MOL0     H77266   7.257   2.224   9.826 -0.4408 -1.7583  0.2175
  560MOL0     H77267   7.277   2.111   9.618 -1.3738 -0.3648  3.2314
  560MOL0     H77268   7.421   1.904   9.416 -0.7070 -1.0090 -0.2711
  560MOL0     H77269   7.321   2.044   9.410 -0.9514 -1.8959 -1.8572
  560MOL0     H77270   7.364   2.005   9.178  0.2914  1.2957 -1.2381
  560MOL0     H77271   7.520   1.935   9.226 -0.0088 -0.2546  1.2860
  560MOL0     H77272   7.473   2.236   9.230  0.7673  0.8299 -2.5832
  560MOL0     H77273   7.632   2.151   9.235  0.0824  0.8846 -0.1617
  560MOL0     H77274   7.431   2.152   9.005 -0.3771 -0.5981  1.9611
  560MOL0     H77275   7.595   2.069   9.009  2.8175  1.2338  1.1047
  560MOL0     H77276   7.702   2.447   8.884  2.2237 -2.2845 -1.0366
  560MOL0     H77277   7.691   2.177   9.587 -0.3568  4.4055  0.4953
  560MOL0     H77278   7.748   2.399   9.770  0.7222 -0.6938 -1.2827
  560MOL0     H77279   7.743   2.299   9.928 -0.7839  0.2898  0.1722
  560MOL0     H77280   7.829   2.240   9.786  0.5116  1.0179 -0.3265
  561MOL0     O77281   0.411   3.645   4.125 -0.1275  1.1001 -1.0483
  561MOL0     C77282   0.307   3.581   4.116 -0.8365 -0.6376 -0.1991
  561MOL0     O77283   0.297   3.443   4.093 -0.4310  0.0910 -0.0530
  561MOL0     C77284   0.400   3.375   4.034 -0.1033 -0.2979 -1.4131
  561MOL0     C77285   0.493   3.300   4.112 -0.5645 -0.8274  0.1241
  561MOL0     C77286   0.591   3.234   4.055 -0.3844  0.8896 -0.3678
  561MOL0     C77287   0.610   3.232   3.912 -0.1546 -0.4850 -0.2200
  561MOL0     O77288   0.708   3.151   3.854 -0.2632  0.0298  1.0286
  561MOL0     C77289   0.726   3.155   3.708 -0.0785  0.2466 -0.8950
  561MOL0     C77290   0.791   3.285   3.656 -0.3642  0.4584  0.1578
  561MOL0     C77291   0.778   3.300   3.504 -0.5913  0.3464 -0.1124
  561MOL0     C77292   0.854   3.188   3.421 -0.3629 -0.1690 -0.2343
  561MOL0     C77293   0.846   3.198   3.271  0.0432  0.0990  0.1475
  561MOL0     C77294   0.953   3.100   3.212 -0.7523  0.1570 -0.3684
  561MOL0     C77295   0.918   3.063   3.066  0.1852 -0.1285 -0.2458
  561MOL0     C77296   1.032   3.021   2.975  1.2332  0.8076  0.2531
  561MOL0     N77297   1.149   3.109   2.975 -0.1073  0.4824  0.5403
  561MOL0     C77298   1.143   3.231   2.907  1.2443  0.3335 -0.5511
  561MOL0     C77299   1.267   3.254   2.874 -0.7098  0.1770  0.6518
  561MOL0     C77300   1.310   3.375   2.794 -0.0848 -0.7952 -1.1212
  561MOL0     C77301   1.435   3.350   2.715 -1.0268  0.3021 -0.2246
  561MOL0     C77302   1.481   3.471   2.640  0.1993 -0.0652 -0.6479
  561MOL0     C77303   1.527   3.597   2.731 -0.4982 -0.3577  0.5043
  561MOL0     O77304   1.624   3.550   2.830  0.0235  0.1587  0.4524
  561MOL0     C77305   1.754   3.529   2.790  0.0275 -0.5417 -0.1557
  561MOL0     C77306   1.846   3.528   2.903  0.8730 -0.0086 -0.4572
  561MOL0     C77307   1.983   3.532   2.882 -0.6921 -0.2738 -0.0437
  561MOL0     C77308   2.066   3.539   3.005 -0.1272 -0.2806 -0.3855
  561MOL0     C77309   2.030   3.529   2.754  0.0812  1.4257 -0.1512
  561MOL0     C77310   2.178   3.526   2.726 -0.4066  0.0923  0.5528
  561MOL0     O77311   2.228   3.463   2.612 -0.2215  0.7457 -0.5953
  561MOL0     C77312   2.359   3.473   2.579 -0.4540 -0.0536  0.2437
  561MOL0     C77313   2.433   3.352   2.556 -0.3247  0.5407  0.1672
  561MOL0     C77314   2.568   3.346   2.519 -0.4312  0.1075 -0.1422
  561MOL0     C77315   2.634   3.465   2.506 -0.1775  0.1468 -0.7815
  561MOL0     O77316   2.771   3.471   2.488 -0.1957  0.3334  0.1003
  561MOL0     C77317   2.838   3.362   2.424  0.8918 -0.1433  0.0651
  561MOL0     C77318   2.982   3.398   2.386 -0.5224 -0.0995  0.1060
  561MOL0     C77319   3.039   3.303   2.278 -0.1228  0.2142 -0.0080
  561MOL0     C77320   3.163   3.358   2.215 -0.0422 -0.6227  0.4542
  561MOL0     C77321   3.218   3.266   2.119 -1.2168 -0.0580  0.7633
  561MOL0     C77322   3.335   3.311   2.028 -0.4598 -0.4741 -0.4886
  561MOL0     C77323   3.466   3.299   2.115  0.5032 -0.2039 -0.1731
  561MOL0     C77324   3.597   3.306   2.038 -0.1008  0.3119 -0.7086
  561MOL0    Cl77325   3.630   3.462   1.973 -0.1318  0.0551 -0.4016
  561MOL0     C77326   2.561   3.589   2.520 -0.1915 -0.4041  0.1842
  561MOL0     C77327   2.424   3.592   2.559  0.5380 -0.3895 -0.3716
  561MOL0     O77328   2.243   3.603   2.795  0.1021 -0.0742  0.2141
  561MOL0     C77329   1.947   3.516   2.643 -0.6272 -0.2681 -0.4992
  561MOL0     C77330   1.809   3.522   2.657  0.5065  0.0274  0.0335
  561MOL0     N77331   1.350   3.151   2.914  0.0398 -0.4168  0.4860
  561MOL0     N77332   1.276   3.065   2.977  0.1439 -0.8124  0.2533
  561MOL0     C77333   0.522   3.318   3.838  0.5658  0.4738  0.0072
  561MOL0     C77334   0.420   3.392   3.903  0.0586  0.3962 -0.3845
  561MOL0     C77335   0.172   3.641   4.130 -1.0475  0.1741  0.0025
  561MOL0     C77336   0.069   3.550   4.152 -0.5793  0.1838  0.1801
  561MOL0     C77337  -0.065   3.589   4.172 -0.3006  0.6007  0.3601
  561MOL0     C77338  -0.096   3.727   4.169  0.1127  0.5515  0.0353
  561MOL0     O77339  -0.220   3.781   4.187  0.3006 -0.1904 -0.3201
  561MOL0     C77340  -0.337   3.713   4.156  0.0422 -0.2881  0.4076
  561MOL0     C77341  -0.470   3.794   4.144 -0.7528  0.5711  0.0987
  561MOL0     C77342  -0.455   3.910   4.045 -0.5835 -0.3148 -0.0404
  561MOL0     C77343  -0.582   3.987   4.012  0.5785 -0.6792 -0.1177
  561MOL0     C77344  -0.662   4.023   4.127  0.2391 -0.7433 -0.3033
  561MOL0     C77345  -0.710   4.068   4.231 -0.0522  0.8791  0.3373
  561MOL0     C77346   0.009   3.817   4.154 -0.3027 -0.0102 -0.8458
  561MOL0     C77347   0.148   3.777   4.131 -0.4515 -0.3689 -0.6031
  561MOL0     C77348   0.247   3.892   4.112 -0.6108  0.5524 -0.8599
  561MOL0     H77349   0.484   3.293   4.220 -0.3947 -0.5881  0.1532
  561MOL0     H77350   0.663   3.179   4.115 -2.7293 -1.0718  0.8216
  561MOL0     H77351   0.633   3.142   3.652 -0.1630  0.6019 -0.8369
  561MOL0     H77352   0.785   3.066   3.685  1.4722  1.2766 -1.0142
  561MOL0     H77353   0.741   3.372   3.699 -1.7094 -0.4423  0.4878
  561MOL0     H77354   0.897   3.292   3.679 -0.4222  1.6615  0.1031
  561MOL0     H77355   0.673   3.282   3.478 -0.1667 -0.8390 -1.1129
  561MOL0     H77356   0.817   3.396   3.471  2.4616 -1.4207 -2.2098
  561MOL0     H77357   0.955   3.179   3.461 -1.0629  1.4574  2.2101
  561MOL0     H77358   0.807   3.091   3.437 -0.4983 -0.2709 -1.2297
  561MOL0     H77359   0.866   3.297   3.229  3.2569 -0.7996 -0.6844
  561MOL0     H77360   0.752   3.152   3.238 -0.3546  1.0830 -0.1111
  561MOL0     H77361   1.051   3.147   3.215 -1.3207  1.4994 -1.6616
  561MOL0     H77362   0.961   3.010   3.274 -2.6401 -0.0592 -0.3846
  561MOL0     H77363   0.892   3.161   3.025 -2.9732 -0.1817  1.3001
  561MOL0     H77364   0.833   2.995   3.057 -0.9992  1.2732 -0.1083
  561MOL0     H77365   1.058   2.922   3.013  0.2441 -0.2253 -1.6143
  561MOL0     H77366   0.987   3.011   2.876  1.5682 -0.6820  0.2368
  561MOL0     H77367   1.047   3.278   2.887 -0.8719 -2.8108  1.3330
  561MOL0     H77368   1.333   3.452   2.868  1.1994 -2.6674  0.5409
  561MOL0     H77369   1.234   3.418   2.728  0.2323  1.5568 -0.0796
  561MOL0     H77370   1.520   3.322   2.779 -1.7250  1.2145  1.1305
  561MOL0     H77371   1.422   3.261   2.653  0.9028  0.6338 -1.1815
  561MOL0     H77372   1.570   3.439   2.585  0.3172  1.9635 -1.7194
  561MOL0     H77373   1.410   3.507   2.565  0.6016  1.2224 -0.4213
  561MOL0     H77374   1.551   3.687   2.673 -0.8023 -0.3254  0.4237
  561MOL0     H77375   1.438   3.635   2.782 -0.6778  1.4027 -1.0085
  561MOL0     H77376   1.798   3.528   3.000  0.3145 -0.7733 -0.7251
  561MOL0     H77377   2.019   3.497   3.094 -0.7625  0.5959 -0.2966
  561MOL0     H77378   2.090   3.646   3.012  2.4719 -0.6573 -2.0289
  561MOL0     H77379   2.154   3.474   2.997 -1.2010 -1.9040  0.4884
  561MOL0     H77380   2.386   3.258   2.582  0.1430  0.4893  0.8379
  561MOL0     H77381   2.628   3.257   2.535  0.2765  0.6896  0.4682
  561MOL0     H77382   2.836   3.274   2.489  0.6121  1.8909  2.9672
  561MOL0     H77383   2.779   3.343   2.333  2.8080  1.7278 -1.6944
  561MOL0     H77384   2.964   3.499   2.347 -0.8713  0.0546  0.6488
  561MOL0     H77385   3.044   3.405   2.476  0.1727 -0.0362 -0.3668
  561MOL0     H77386   2.972   3.285   2.193 -1.3386  2.3649  0.4185
  561MOL0     H77387   3.083   3.215   2.325 -0.2048  1.1401  1.9331
  561MOL0     H77388   3.244   3.373   2.287 -0.7278  0.9435  0.9237
  561MOL0     H77389   3.136   3.452   2.168 -0.3824  1.0998  3.8219
  561MOL0     H77390   3.241   3.167   2.158  1.0968 -0.4988 -1.5093
  561MOL0     H77391   3.135   3.233   2.055  1.0628  0.7767 -2.8968
  561MOL0     H77392   3.339   3.418   2.005  0.4912  0.0130  1.6635
  561MOL0     H77393   3.347   3.254   1.936  1.8947 -1.0707  0.1374
  561MOL0     H77394   3.475   3.200   2.161  1.6419 -1.0883 -2.1584
  561MOL0     H77395   3.468   3.373   2.195 -2.7974 -1.3332  1.1506
  561MOL0     H77396   3.590   3.244   1.948  1.2283 -0.1624 -0.5167
  561MOL0     H77397   3.677   3.272   2.104 -2.1713 -0.0328  1.7733
  561MOL0     H77398   2.619   3.680   2.507  0.3094 -0.5263  1.5126
  561MOL0     H77399   2.386   3.692   2.578 -0.0491 -1.0311  2.1444
  561MOL0     H77400   1.984   3.515   2.541  0.8899  0.7094  0.0007
  561MOL0     H77401   1.752   3.516   2.565  0.0238 -0.6678  0.3682
  561MOL0     H77402   0.531   3.320   3.730  1.8638  0.7119  0.1034
  561MOL0     H77403   0.363   3.459   3.839 -0.3513  2.4498  1.9482
  561MOL0     H77404   0.083   3.442   4.150  0.1969  0.2133  2.1849
  561MOL0     H77405  -0.146   3.519   4.187 -0.5134  0.8284  0.2915
  561MOL0     H77406  -0.320   3.678   4.053  0.8447  0.0514  0.4199
  561MOL0     H77407  -0.350   3.621   4.214 -0.5081 -1.4400 -1.4434
  561MOL0     H77408  -0.481   3.835   4.245 -0.2166  0.9334  0.0142
  561MOL0     H77409  -0.561   3.742   4.113 -0.6726  1.5219 -1.8593
  561MOL0     H77410  -0.374   3.978   4.072 -0.8672 -1.1519  3.4691
  561MOL0     H77411  -0.409   3.875   3.953  0.6722  0.7752  0.1474
  561MOL0     H77412  -0.653   3.925   3.956 -2.9679 -0.0423  3.2016
  561MOL0     H77413  -0.561   4.083   3.964 -0.3383 -0.6617 -0.5092
  561MOL0     H77414  -0.755   4.102   4.322  0.9962  1.9603  0.4862
  561MOL0     H77415  -0.012   3.921   4.175  0.9376 -0.2111  1.8926
  561MOL0     H77416   0.198   3.981   4.070 -0.7278  2.0334  2.1763
  561MOL0     H77417   0.295   3.916   4.207 -2.7619 -1.2788  0.8101
  561MOL0     H77418   0.310   3.852   4.032 -0.6135 -3.3099  0.8058
  562MOL0     O77419   7.805   0.266   6.839 -0.2410 -0.1104  0.2373
  562MOL0     C77420   7.796   0.220   6.955  0.1606  0.0122  0.4854
  562MOL0     O77421   7.753   0.094   6.980 -0.2272 -0.2576 -0.5542
  562MOL0     C77422   7.738   0.012   6.864  0.0326  0.6777 -0.2337
  562MOL0     C77423   7.630  -0.072   6.874  0.0182  0.1522  0.6085
  562MOL0     C77424   7.614  -0.174   6.778  0.1947 -0.4268  0.2953
  562MOL0     C77425   7.704  -0.195   6.671  0.2201 -0.1324 -0.6658
  562MOL0     O77426   7.663  -0.294   6.588 -0.3882  0.2274 -0.4655
  562MOL0     C77427   7.761  -0.353   6.499 -0.7688 -0.2349 -0.4728
  562MOL0     C77428   7.866  -0.428   6.583  0.2795  0.4225 -0.6204
  562MOL0     C77429   7.960  -0.535   6.518 -0.1370 -0.8189  0.1287
  562MOL0     C77430   8.070  -0.464   6.443 -0.0729  0.5151 -0.3535
  562MOL0     C77431   8.173  -0.548   6.367  0.2103 -0.4364  0.5607
  562MOL0     C77432   8.215  -0.673   6.433 -0.6753  0.0335 -0.3625
  562MOL0     C77433   8.357  -0.724   6.390 -0.1595  0.4433  0.6555
  562MOL0     C77434   8.342  -0.870   6.404 -1.5268  0.1115  0.7292
  562MOL0     N77435   8.470  -0.947   6.388 -0.1607  0.2317  0.0474
  562MOL0     C77436   8.560  -0.985   6.483  0.3619 -0.0907 -0.5209
  562MOL0     C77437   8.656  -1.045   6.418 -1.2725 -0.0003 -0.6922
  562MOL0     C77438   8.778  -1.092   6.494  0.1180  0.1818  0.7624
  562MOL0     C77439   8.872  -0.966   6.493 -0.2036 -0.0624  0.5667
  562MOL0     C77440   9.010  -1.018   6.523  0.2454  0.2691 -0.3971
  562MOL0     C77441   9.112  -0.898   6.527  0.4180 -0.2241  0.3376
  562MOL0     O77442   9.184  -0.883   6.400 -0.8000  0.1802  0.0098
  562MOL0     C77443   9.284  -0.982   6.380  0.8334  0.9058  0.2606
  562MOL0     C77444   9.367  -0.958   6.263  0.4521  1.2357  0.1363
  562MOL0     C77445   9.475  -1.042   6.236 -0.4948  0.1704  0.6267
  562MOL0     C77446   9.555  -1.013   6.114  0.2066 -0.1672 -0.2202
  562MOL0     C77447   9.502  -1.148   6.330  0.5174 -0.3646  0.0382
  562MOL0     C77448   9.620  -1.235   6.322  0.1720  0.3433 -0.0770
  562MOL0     O77449   9.732  -1.176   6.358 -0.5383  0.0943 -0.2013
  562MOL0     C77450   9.857  -1.231   6.309  0.8034  0.3680 -0.3121
  562MOL0     C77451   9.910  -1.183   6.193 -0.0241 -0.4226  0.0304
  562MOL0     C77452  10.035  -1.227   6.151  0.4400  0.1368 -0.5810
  562MOL0     C77453  10.105  -1.330   6.215  0.3241  0.0963  0.3950
  562MOL0     O77454  10.225  -1.387   6.178  0.7797  0.1267  0.4807
  562MOL0     C77455  10.300  -1.328   6.070  0.3499 -0.0219 -0.6276
  562MOL0     C77456  10.442  -1.382   6.046 -0.2657 -0.6564  1.5819
  562MOL0     C77457  10.517  -1.381   6.180 -0.0534  0.1696 -0.2295
  562MOL0     C77458  10.664  -1.407   6.175  0.6811  0.0781 -0.6688
  562MOL0     C77459  10.738  -1.315   6.071 -0.8575 -0.4983 -0.1050
  562MOL0     C77460  10.889  -1.337   6.086 -1.0535 -0.0824 -0.0591
  562MOL0     C77461  10.963  -1.303   5.960  0.0845 -0.4204 -1.1821
  562MOL0     C77462  11.113  -1.301   5.993  0.3296 -0.6732 -0.6457
  562MOL0    Cl77463  11.204  -1.455   5.955 -0.0047 -0.3920  0.0180
  562MOL0     C77464  10.043  -1.380   6.339 -0.4846  0.0460  1.1023
  562MOL0     C77465   9.927  -1.328   6.389  1.1176  0.0158  0.2751
  562MOL0     O77466   9.605  -1.345   6.268 -0.5733  0.1322  0.3636
  562MOL0     C77467   9.412  -1.172   6.423  0.1819 -0.6892  0.2500
  562MOL0     C77468   9.307  -1.090   6.457  0.9948 -0.7320  0.2691
  562MOL0     N77469   8.632  -1.044   6.281 -0.1904  0.1101  0.2396
  562MOL0     N77470   8.516  -0.995   6.268 -0.4200 -0.2681  0.1662
  562MOL0     C77471   7.814  -0.107   6.661 -0.8040 -0.0806  0.2536
  562MOL0     C77472   7.831  -0.003   6.763 -0.8287  0.7963 -0.2697
  562MOL0     C77473   7.832   0.287   7.079  0.6042  0.8251  0.3264
  562MOL0     C77474   7.876   0.211   7.193 -0.5298 -0.1135  0.5717
  562MOL0     C77475   7.932   0.278   7.300 -0.0350  0.5665  0.0314
  562MOL0     C77476   7.930   0.419   7.315 -0.6473  0.9395  0.2439
  562MOL0     O77477   7.989   0.468   7.436  0.2110 -0.0784  0.1294
  562MOL0     C77478   8.006   0.614   7.451  1.2198 -0.7676 -0.3085
  562MOL0     C77479   8.068   0.644   7.582  0.7679 -0.0403 -0.1453
  562MOL0     C77480   8.212   0.605   7.591 -0.5030 -0.3079 -0.6802
  562MOL0     C77481   8.271   0.646   7.727 -0.5296  0.1083 -0.5968
  562MOL0     C77482   8.421   0.635   7.718  0.7020  0.3528  0.0472
  562MOL0     C77483   8.537   0.650   7.715  0.4502 -1.2226  1.3024
  562MOL0     C77484   7.876   0.489   7.212 -0.5190 -0.5459 -0.1434
  562MOL0     C77485   7.842   0.430   7.094  0.5950 -0.6609  0.0676
  562MOL0     C77486   7.784   0.525   6.987  0.8965 -0.0394 -0.0789
  562MOL0     H77487   7.554  -0.039   6.944 -1.8826  1.0528 -1.7438
  562MOL0     H77488   7.529  -0.242   6.779  0.5352 -0.9003 -0.7831
  562MOL0     H77489   7.817  -0.282   6.438 -1.7544  1.4521  0.5014
  562MOL0     H77490   7.713  -0.422   6.429 -1.0880 -1.3503  0.8008
  562MOL0     H77491   7.930  -0.350   6.625 -1.7091  0.7637  2.0702
  562MOL0     H77492   7.822  -0.486   6.665 -0.1970  1.5596 -0.0407
  562MOL0     H77493   8.004  -0.594   6.598  0.0875  0.1785  0.7614
  562MOL0     H77494   7.911  -0.616   6.463 -0.6887 -0.1603 -0.3698
  562MOL0     H77495   8.023  -0.396   6.372 -2.2869 -2.0762 -1.5800
  562MOL0     H77496   8.131  -0.418   6.522 -3.0667  2.7167  0.8610
  562MOL0     H77497   8.260  -0.485   6.346  0.7099 -1.6766 -1.2813
  562MOL0     H77498   8.130  -0.576   6.270  0.9494 -2.8859  0.8833
  562MOL0     H77499   8.208  -0.660   6.541 -0.5605  1.6551 -0.5137
  562MOL0     H77500   8.139  -0.749   6.412 -0.7644 -0.7562  2.4215
  562MOL0     H77501   8.441  -0.681   6.445  0.4827  1.6344 -1.1507
  562MOL0     H77502   8.364  -0.708   6.282 -0.8334 -2.5630  0.0780
  562MOL0     H77503   8.296  -0.896   6.500  1.2172 -0.1535  2.0729
  562MOL0     H77504   8.289  -0.905   6.316  1.0520 -0.6897 -0.5974
  562MOL0     H77505   8.547  -0.951   6.585 -2.7774  3.7122 -1.9002
  562MOL0     H77506   8.818  -1.180   6.443  2.2867  1.4906  0.0777
  562MOL0     H77507   8.748  -1.112   6.597 -1.8091 -0.1855  0.1669
  562MOL0     H77508   8.873  -0.926   6.391 -1.4307  2.2777  1.4005
  562MOL0     H77509   8.828  -0.892   6.560  0.7120  1.1441 -0.1474
  562MOL0     H77510   8.994  -1.067   6.619 -2.5418 -0.1507 -1.0040
  562MOL0     H77511   9.031  -1.104   6.459 -2.6975 -0.5999 -0.3238
  562MOL0     H77512   9.065  -0.800   6.542  1.7992  0.2511  1.8715
  562MOL0     H77513   9.186  -0.918   6.605  1.9508 -1.1590 -1.2904
  562MOL0     H77514   9.343  -0.873   6.200 -0.5619 -0.3255 -1.7238
  562MOL0     H77515   9.622  -1.093   6.080 -0.3520 -0.0683 -1.6053
  562MOL0     H77516   9.615  -0.925   6.139 -0.1105  0.3843 -1.3520
  562MOL0     H77517   9.482  -0.972   6.044  0.1523  2.3316  1.1811
  562MOL0     H77518   9.849  -1.115   6.134 -0.2774  1.4013  2.2993
  562MOL0     H77519  10.065  -1.189   6.054  0.1883  2.5936  0.2416
  562MOL0     H77520  10.247  -1.355   5.978 -0.1759 -3.4071  0.5323
  562MOL0     H77521  10.311  -1.220   6.086  2.8414 -0.4047  0.7440
  562MOL0     H77522  10.440  -1.484   6.006 -0.0517  0.4800 -1.5529
  562MOL0     H77523  10.486  -1.318   5.970  3.0194 -1.2220  2.8694
  562MOL0     H77524  10.473  -1.462   6.239 -0.0178 -0.0335 -0.4760
  562MOL0     H77525  10.493  -1.293   6.239  0.1745 -1.6669  2.7873
  562MOL0     H77526  10.695  -1.510   6.160  0.2449 -0.0597 -0.6548
  562MOL0     H77527  10.709  -1.373   6.268  2.5386  0.0832 -1.5213
  562MOL0     H77528  10.712  -1.352   5.972  0.0027 -0.0683 -0.5034
  562MOL0     H77529  10.705  -1.212   6.088 -1.3447 -0.8981  1.5390
  562MOL0     H77530  10.902  -1.441   6.119 -1.9407 -0.2981 -0.3783
  562MOL0     H77531  10.919  -1.261   6.159 -2.1769  0.5312 -0.2211
  562MOL0     H77532  10.935  -1.203   5.926  0.3287 -0.0383 -0.2953
  562MOL0     H77533  10.952  -1.375   5.879  2.0462 -0.1831 -1.7259
  562MOL0     H77534  11.134  -1.265   6.094  1.2340  0.0704 -1.0904
  562MOL0     H77535  11.152  -1.227   5.923 -1.7898  1.3863  0.2036
  562MOL0     H77536  10.096  -1.450   6.402 -0.0364 -0.2145  0.4414
  562MOL0     H77537   9.888  -1.367   6.482  1.5656 -0.3188  0.3282
  562MOL0     H77538   9.433  -1.268   6.469  1.7525 -1.6556 -2.3080
  562MOL0     H77539   9.252  -1.128   6.543  2.6895 -2.6000  0.6055
  562MOL0     H77540   7.886  -0.116   6.580  1.5887 -3.6393  2.4862
  562MOL0     H77541   7.914   0.067   6.753 -1.5098  1.7883  0.6849
  562MOL0     H77542   7.879   0.102   7.195  3.4307 -0.1619 -0.4874
  562MOL0     H77543   7.988   0.224   7.375  3.8033  0.6180 -2.5396
  562MOL0     H77544   8.064   0.659   7.370 -0.2697  2.8478  0.4270
  562MOL0     H77545   7.908   0.662   7.457  1.1670 -0.8552 -0.4828
  562MOL0     H77546   8.012   0.580   7.650  2.0924 -0.4333  0.5881
  562MOL0     H77547   8.053   0.751   7.603 -1.4370 -0.8326  3.1960
  562MOL0     H77548   8.228   0.499   7.569 -4.6496 -0.7393 -2.5916
  562MOL0     H77549   8.253   0.668   7.512 -0.3649  0.4839  0.0091
  562MOL0     H77550   8.235   0.593   7.816 -1.0832  0.3476 -0.6730
  562MOL0     H77551   8.254   0.752   7.744  0.9653  0.4505 -1.0801
  562MOL0     H77552   8.641   0.670   7.703  0.4566 -1.3615  1.1205
  562MOL0     H77553   7.865   0.595   7.232  0.9162 -0.2065 -1.0223
  562MOL0     H77554   7.681   0.554   7.008  0.7948 -0.6219  0.2521
  562MOL0     H77555   7.844   0.613   6.964  1.9572 -1.1741 -1.9663
  562MOL0     H77556   7.776   0.481   6.887 -1.2310  1.2161 -0.5200
  563MOL0     O77557   8.109  10.848   3.402  0.0432 -0.5899 -0.3122
  563MOL0     C77558   8.118  10.926   3.496 -0.7223 -0.7467 -0.0899
  563MOL0     O77559   8.239  10.965   3.553  0.1984  0.1092  0.4320
  563MOL0     C77560   8.353  10.911   3.502 -0.0552 -0.0846 -0.2876
  563MOL0     C77561   8.468  11.000   3.476  0.6865 -0.2428 -0.3401
  563MOL0     C77562   8.590  10.954   3.416  0.9273 -0.3012  0.3124
  563MOL0     C77563   8.601  10.819   3.383  0.6919  0.6642 -0.2319
  563MOL0     O77564   8.713  10.766   3.325  0.6560  0.4449 -0.4804
  563MOL0     C77565   8.770  10.838   3.210  0.4529  0.2222  0.4165
  563MOL0     C77566   8.919  10.801   3.170  0.9132 -0.0807 -0.0174
  563MOL0     C77567   9.001  10.873   3.278  0.8357  0.4323 -0.4344
  563MOL0     C77568   9.149  10.847   3.252  0.3925 -0.1465 -0.3436
  563MOL0     C77569   9.227  10.944   3.337 -0.3070 -0.3662 -0.6512
  563MOL0     C77570   9.372  10.939   3.297  1.0601 -0.1658  0.1126
  563MOL0     C77571   9.460  11.030   3.379  0.0177 -0.1860 -0.0698
  563MOL0     C77572   9.609  11.005   3.344  0.0148 -0.1834  1.3328
  563MOL0     N77573   9.696  11.107   3.403  0.0363 -0.4761 -0.4503
  563MOL0     C77574   9.707  11.230   3.342  0.3046 -0.8104 -0.4577
  563MOL0     C77575   9.824  11.291   3.388  0.3549  0.9201  0.1947
  563MOL0     C77576   9.882  11.419   3.341 -0.7440 -0.0116  0.0282
  563MOL0     C77577  10.030  11.424   3.362 -0.0164  0.7469  0.1238
  563MOL0     C77578  10.106  11.328   3.265  0.1201  0.0469 -0.7161
  563MOL0     C77579  10.250  11.362   3.261 -0.0932  0.5668  0.0701
  563MOL0     O77580  10.322  11.260   3.199 -0.0702 -0.0780  0.6904
  563MOL0     C77581  10.453  11.242   3.244  0.5460 -0.6744  0.9079
  563MOL0     C77582  10.507  11.119   3.204  0.6134 -0.5268 -0.8992
  563MOL0     C77583  10.651  11.093   3.216 -0.3768  0.3436  0.1090
  563MOL0     C77584  10.702  10.964   3.163 -0.3637  0.0674 -0.0589
  563MOL0     C77585  10.738  11.191   3.266  0.3165  0.1887  0.4228
  563MOL0     C77586  10.885  11.184   3.262 -0.0307  0.0641  0.1786
  563MOL0     O77587  10.943  11.074   3.204 -0.1466  0.0214 -1.3647
  563MOL0     C77588  11.075  11.035   3.220 -0.1536 -0.0796  0.8793
  563MOL0     C77589  11.125  10.937   3.130 -0.2586  0.2550 -0.6102
  563MOL0     C77590  11.250  10.882   3.164 -0.1811  1.0799 -0.0084
  563MOL0     C77591  11.326  10.904   3.279 -0.3327 -0.6872 -0.5323
  563MOL0     O77592  11.448  10.856   3.315 -0.3916 -0.6277 -0.0339
  563MOL0     C77593  11.484  10.740   3.248 -0.7428  0.3088 -0.5669
  563MOL0     C77594  11.598  10.682   3.332  0.0288  0.2774 -0.1285
  563MOL0     C77595  11.714  10.790   3.354  1.4433 -0.5196 -0.7424
  563MOL0     C77596  11.837  10.727   3.400 -0.1507 -0.3179  0.0685
  563MOL0     C77597  11.935  10.687   3.285 -0.2693  0.1083 -0.2759
  563MOL0     C77598  12.081  10.666   3.337  0.5357 -0.2927  0.1537
  563MOL0     C77599  12.175  10.606   3.238 -0.6590 -0.0180  0.0055
  563MOL0     C77600  12.318  10.614   3.280 -0.2497 -0.5858  0.0207
  563MOL0    Cl77601  12.435  10.499   3.199  0.1885  0.0227 -0.2797
  563MOL0     C77602  11.275  11.012   3.354  0.0261  0.0832  0.0776
  563MOL0     C77603  11.153  11.077   3.330 -0.2042  0.1086  0.5126
  563MOL0     O77604  10.941  11.280   3.312 -0.3226 -0.6172  0.0993
  563MOL0     C77605  10.677  11.304   3.314  0.8232  0.0116 -0.5178
  563MOL0     C77606  10.543  11.340   3.301  0.0165  0.4382 -0.1580
  563MOL0     N77607   9.879  11.203   3.472 -0.1768 -0.6710 -0.0559
  563MOL0     N77608   9.806  11.093   3.480 -0.5247  0.0574 -0.7084
  563MOL0     C77609   8.495  10.735   3.409  0.0540  0.0320 -0.5825
  563MOL0     C77610   8.376  10.778   3.473  1.0718 -0.2735  0.2555
  563MOL0     C77611   7.993  10.990   3.544  0.5068 -0.4852 -1.0345
  563MOL0     C77612   8.001  11.097   3.634  1.1384 -0.3075 -0.1573
  563MOL0     C77613   7.890  11.162   3.686  0.0750 -0.3257  0.6857
  563MOL0     C77614   7.765  11.118   3.664  0.2314 -1.1030  0.4537
  563MOL0     O77615   7.643  11.163   3.713  0.3246 -0.1099  0.3809
  563MOL0     C77616   7.627  11.291   3.767 -0.1920 -0.7223 -0.1716
  563MOL0     C77617   7.589  11.398   3.659  0.8688 -1.0808  0.2485
  563MOL0     C77618   7.702  11.433   3.557 -0.7982  0.4857 -0.1939
  563MOL0     C77619   7.659  11.553   3.473 -0.4022 -0.2002  0.4053
  563MOL0     C77620   7.551  11.538   3.382 -0.5821 -0.4495  0.3860
  563MOL0     C77621   7.448  11.532   3.324 -0.5573  0.3985  0.5868
  563MOL0     C77622   7.751  10.997   3.585  0.4909  0.5173 -0.4115
  563MOL0     C77623   7.861  10.932   3.528 -0.4015 -0.4739 -0.3317
  563MOL0     C77624   7.835  10.820   3.435 -0.1382 -0.3222 -0.7165
  563MOL0     H77625   8.458  11.106   3.493  0.2238 -0.6320  2.3542
  563MOL0     H77626   8.674  11.023   3.412  1.6061 -1.1165  0.1453
  563MOL0     H77627   8.763  10.947   3.216  0.5505  0.5361 -3.0490
  563MOL0     H77628   8.709  10.822   3.121  1.1887  2.5747 -0.5982
  563MOL0     H77629   8.930  10.692   3.171 -1.1186 -0.3333 -0.6200
  563MOL0     H77630   8.939  10.841   3.071 -1.8330 -0.1509 -0.7003
  563MOL0     H77631   8.974  10.979   3.271 -0.9893  0.2763  2.4615
  563MOL0     H77632   8.975  10.832   3.376 -0.7649  0.2805 -0.9041
  563MOL0     H77633   9.175  10.747   3.286  3.3791  1.4066  2.5667
  563MOL0     H77634   9.177  10.861   3.147 -2.2696 -1.3575 -1.2987
  563MOL0     H77635   9.218  10.913   3.441 -0.6146  3.5899  0.6702
  563MOL0     H77636   9.190  11.047   3.338  0.7286  0.0222 -0.4272
  563MOL0     H77637   9.404  10.835   3.309  1.9995  0.1614  0.6182
  563MOL0     H77638   9.371  10.957   3.189 -1.7840  0.0016  0.0984
  563MOL0     H77639   9.433  11.020   3.484 -1.8911  1.3365 -0.3547
  563MOL0     H77640   9.429  11.130   3.346 -1.0586 -0.5160 -0.0716
  563MOL0     H77641   9.636  10.907   3.384 -2.1968 -0.4316  2.3663
  563MOL0     H77642   9.626  11.003   3.236  1.7659 -0.9160  1.5934
  563MOL0     H77643   9.633  11.273   3.275 -0.5366 -3.8725 -1.7013
  563MOL0     H77644   9.837  11.497   3.404 -2.2908  0.3408 -1.4497
  563MOL0     H77645   9.861  11.443   3.237  1.4835 -2.3111 -1.0672
  563MOL0     H77646  10.058  11.526   3.331  2.4935 -0.4755 -2.0690
  563MOL0     H77647  10.065  11.394   3.461 -1.6651 -1.2199  0.1704
  563MOL0     H77648  10.095  11.228   3.308  0.2611  0.6301  0.7291
  563MOL0     H77649  10.058  11.337   3.167 -2.9788  0.4777  0.7240
  563MOL0     H77650  10.260  11.441   3.186 -5.1639  0.8803 -0.6514
  563MOL0     H77651  10.288  11.395   3.357  1.0788 -1.0334  0.2049
  563MOL0     H77652  10.438  11.057   3.148 -1.2265 -0.3737  1.0606
  563MOL0     H77653  10.616  10.907   3.127 -0.7477  0.2773  0.5028
  563MOL0     H77654  10.751  10.899   3.236 -1.2397  1.8522  2.2796
  563MOL0     H77655  10.762  10.981   3.073 -1.0999 -1.2570 -0.8196
  563MOL0     H77656  11.066  10.904   3.045  2.7496 -3.7923 -1.4173
  563MOL0     H77657  11.290  10.808   3.094 -1.5123  1.0365 -0.7613
  563MOL0     H77658  11.405  10.664   3.253  0.9360 -1.4566  1.6005
  563MOL0     H77659  11.518  10.753   3.145  1.8290 -1.3501 -0.0381
  563MOL0     H77660  11.563  10.660   3.433 -1.0457 -0.0884 -0.5615
  563MOL0     H77661  11.633  10.597   3.273  1.1481 -0.0903  1.0199
  563MOL0     H77662  11.676  10.860   3.430  1.9123 -0.2301 -0.7694
  563MOL0     H77663  11.725  10.857   3.268 -0.9193  0.7659 -0.1490
  563MOL0     H77664  11.813  10.639   3.461  0.2475 -0.8444 -0.5185
  563MOL0     H77665  11.888  10.806   3.456  0.7376  0.1206 -1.2940
  563MOL0     H77666  11.896  10.591   3.251 -1.1602  0.2887  0.1986
  563MOL0     H77667  11.928  10.759   3.202 -0.3109 -2.2612 -2.4472
  563MOL0     H77668  12.077  10.614   3.433  2.2886 -0.0956  0.3645
  563MOL0     H77669  12.108  10.770   3.355 -0.2038  0.7134 -3.5888
  563MOL0     H77670  12.162  10.663   3.145  1.0840 -1.1231 -0.9756
  563MOL0     H77671  12.157  10.499   3.223  2.1037 -0.5002 -0.5046
  563MOL0     H77672  12.318  10.591   3.387 -0.0172 -0.2966  0.0837
  563MOL0     H77673  12.361  10.714   3.286  3.5478 -2.0069 -0.3630
  563MOL0     H77674  11.349  11.037   3.430 -0.3154 -0.5539  0.6359
  563MOL0     H77675  11.129  11.165   3.388 -1.6216 -1.6119  2.7333
  563MOL0     H77676  10.737  11.379   3.365 -1.3765 -0.8715  3.8405
  563MOL0     H77677  10.504  11.437   3.331  1.8390  0.4364  2.4848
  563MOL0     H77678   8.498  10.629   3.384 -0.1554 -0.3104  0.7384
  563MOL0     H77679   8.297  10.704   3.471 -0.5829  1.4101  0.0098
  563MOL0     H77680   8.101  11.134   3.655  0.3631  0.9575  1.6347
  563MOL0     H77681   7.913  11.254   3.740 -0.0911  1.3842 -1.9702
  563MOL0     H77682   7.545  11.288   3.840 -0.9990  0.9788 -0.9557
  563MOL0     H77683   7.715  11.305   3.831 -0.8789 -3.8176  1.6736
  563MOL0     H77684   7.562  11.485   3.720  4.6425 -0.5462  1.3822
  563MOL0     H77685   7.493  11.356   3.626  0.3678 -1.7014  2.3399
  563MOL0     H77686   7.791  11.460   3.614 -0.5267  0.5979 -0.6665
  563MOL0     H77687   7.728  11.347   3.495 -1.3047 -0.5429  0.9695
  563MOL0     H77688   7.743  11.591   3.414 -1.8028  2.3498 -0.0876
  563MOL0     H77689   7.642  11.640   3.537  1.6193 -0.2740  1.1275
  563MOL0     H77690   7.360  11.516   3.266  0.4336 -3.6911 -0.1255
  563MOL0     H77691   7.654  10.954   3.566 -1.0158  2.0870  2.8618
  563MOL0     H77692   7.734  10.778   3.442 -1.3317  1.9077 -2.9260
  563MOL0     H77693   7.852  10.845   3.330  0.3798  1.1620 -0.3014
  563MOL0     H77694   7.900  10.737   3.462  0.0547 -0.6417 -2.0860
  564MOL0     O77695   9.363   3.170   3.768  0.9501  1.2262 -0.1825
  564MOL0     C77696   9.285   3.085   3.737 -1.5128  0.1099 -0.3579
  564MOL0     O77697   9.308   2.952   3.730 -0.5376  0.5109  0.7465
  564MOL0     C77698   9.436   2.901   3.731  0.4979  0.4652 -0.2615
  564MOL0     C77699   9.510   2.891   3.616  0.5467 -0.5535 -1.0545
  564MOL0     C77700   9.645   2.864   3.630  1.0575  1.5511  0.6522
  564MOL0     C77701   9.702   2.838   3.751  0.4333 -0.7158  0.0934
  564MOL0     O77702   9.835   2.806   3.777  0.2228 -0.7310  0.5088
  564MOL0     C77703   9.918   2.774   3.665 -0.7327 -0.1394 -0.1164
  564MOL0     C77704  10.053   2.749   3.725 -0.6400  0.2964  0.8142
  564MOL0     C77705  10.146   2.712   3.608 -0.1320 -0.2552 -0.3241
  564MOL0     C77706  10.291   2.745   3.641 -0.0906  1.2029  0.2080
  564MOL0     C77707  10.338   2.666   3.775  0.5418 -1.0685  0.3290
  564MOL0     C77708  10.490   2.656   3.786  0.0745  0.7542  0.3324
  564MOL0     C77709  10.537   2.595   3.919 -0.2126 -0.1733  0.3308
  564MOL0     C77710  10.679   2.609   3.941 -0.2123  0.3009 -0.0653
  564MOL0     N77711  10.749   2.517   3.856  0.3887  0.3698 -0.0431
  564MOL0     C77712  10.839   2.557   3.755  0.4452 -0.7567  0.2978
  564MOL0     C77713  10.897   2.441   3.709 -0.1631 -0.0680 -0.4361
  564MOL0     C77714  11.008   2.407   3.617 -0.5342 -0.3313 -0.4308
  564MOL0     C77715  11.037   2.528   3.530 -0.0919  0.3236  0.6918
  564MOL0     C77716  11.117   2.496   3.409  0.1578 -0.7056 -0.5443
  564MOL0     C77717  11.257   2.447   3.433 -0.4866  0.9540 -0.0041
  564MOL0     O77718  11.307   2.402   3.305  0.1322 -0.1608 -1.3264
  564MOL0     C77719  11.443   2.387   3.293 -0.1839 -0.4462  0.2296
  564MOL0     C77720  11.480   2.347   3.169  0.7103 -0.3310 -0.3857
  564MOL0     C77721  11.618   2.321   3.139 -0.1161  0.0851  0.9630
  564MOL0     C77722  11.656   2.272   3.001 -0.1067 -0.0623  0.8465
  564MOL0     C77723  11.712   2.354   3.237 -1.1817  0.4234 -0.7135
  564MOL0     C77724  11.859   2.325   3.224 -0.1917  0.2461 -0.3198
  564MOL0     O77725  11.922   2.304   3.345 -0.7836  0.0998  0.4407
  564MOL0     C77726  12.043   2.237   3.372 -0.1862  0.3053  0.4556
  564MOL0     C77727  12.070   2.214   3.510  0.4522  0.1464  0.1967
  564MOL0     C77728  12.197   2.188   3.554 -0.3996  0.5425  0.5421
  564MOL0     C77729  12.300   2.158   3.466 -0.2293  0.1585  0.9227
  564MOL0     O77730  12.427   2.116   3.507 -0.0270 -1.1824 -0.9653
  564MOL0     C77731  12.522   2.041   3.435  0.0011  0.9258 -0.0723
  564MOL0     C77732  12.501   1.887   3.458  1.1678 -0.3801 -0.3646
  564MOL0     C77733  12.595   1.802   3.379 -0.1336  0.1039  0.2060
  564MOL0     C77734  12.613   1.667   3.453  0.1984  0.7461 -0.0692
  564MOL0     C77735  12.632   1.552   3.347 -0.4394 -0.9289 -0.5475
  564MOL0     C77736  12.753   1.580   3.253  0.2256  0.5393 -0.5872
  564MOL0     C77737  12.765   1.467   3.158 -0.0856  0.5458  0.7069
  564MOL0     C77738  12.882   1.465   3.064  0.1085  0.0198  0.7079
  564MOL0    Cl77739  12.873   1.588   2.934  0.3633 -0.0710 -0.1939
  564MOL0     C77740  12.278   2.189   3.331  0.0912 -0.5812  0.4680
  564MOL0     C77741  12.159   2.229   3.285  0.5433  0.1175  0.6408
  564MOL0     O77742  11.911   2.307   3.115  0.0477  0.2251  0.0442
  564MOL0     C77743  11.671   2.409   3.352  1.1568 -0.2592 -0.5985
  564MOL0     C77744  11.535   2.426   3.383  0.5101 -0.3037 -1.0714
  564MOL0     N77745  10.847   2.335   3.786  0.5781  0.8560  0.3958
  564MOL0     N77746  10.761   2.381   3.871 -0.9077 -0.7115 -0.5379
  564MOL0     C77747   9.627   2.839   3.863 -0.4398  0.1570  1.2896
  564MOL0     C77748   9.498   2.873   3.856  0.3950  1.5262  0.3584
  564MOL0     C77749   9.156   3.126   3.689  0.4297 -0.0508 -0.2092
  564MOL0     C77750   9.072   3.024   3.647  0.3345 -0.1444 -0.1714
  564MOL0     C77751   8.942   3.056   3.606  0.0725  0.0413 -0.7214
  564MOL0     C77752   8.890   3.185   3.607 -0.2185 -0.9652 -0.0770
  564MOL0     O77753   8.763   3.201   3.555 -0.1507 -0.2274 -0.5857
  564MOL0     C77754   8.748   3.308   3.469 -0.2466 -0.2975  0.2405
  564MOL0     C77755   8.620   3.305   3.378  0.7456  0.8332  0.4263
  564MOL0     C77756   8.650   3.338   3.232  0.2322 -0.0154 -0.3007
  564MOL0     C77757   8.535   3.299   3.137 -0.7687  0.0928 -0.0346
  564MOL0     C77758   8.410   3.358   3.180 -0.2642  0.0551 -0.9080
  564MOL0     C77759   8.306   3.415   3.222 -0.5335  0.1948 -0.0294
  564MOL0     C77760   8.968   3.293   3.655 -0.0515  0.4995  0.0209
  564MOL0     C77761   9.100   3.267   3.691  0.1915  0.8466 -0.1043
  564MOL0     C77762   9.182   3.380   3.740 -0.2506 -0.5448  0.7675
  564MOL0     H77763   9.453   2.910   3.525 -1.1499  1.0286  0.2502
  564MOL0     H77764   9.700   2.850   3.537 -1.1507 -1.5036 -0.3594
  564MOL0     H77765   9.929   2.863   3.602  0.9052  0.5528  1.0500
  564MOL0     H77766   9.874   2.690   3.611 -0.6705 -0.5150  0.4123
  564MOL0     H77767  10.089   2.843   3.767 -1.4026  0.2132  1.6965
  564MOL0     H77768  10.052   2.675   3.806  3.1001 -1.0337 -0.1418
  564MOL0     H77769  10.127   2.606   3.588  0.9665 -0.1505 -2.2031
  564MOL0     H77770  10.123   2.763   3.515  2.3765 -0.3296 -1.0737
  564MOL0     H77771  10.349   2.718   3.552  1.7193 -0.5833  1.8369
  564MOL0     H77772  10.300   2.853   3.656  1.0779  1.3695 -1.3534
  564MOL0     H77773  10.300   2.563   3.769 -0.9378 -0.5642  0.6429
  564MOL0     H77774  10.280   2.718   3.852 -4.4007 -0.8926 -3.1136
  564MOL0     H77775  10.527   2.592   3.706 -2.4055 -0.4533  0.0475
  564MOL0     H77776  10.531   2.757   3.775  1.4693  0.0931 -0.9532
  564MOL0     H77777  10.499   2.493   3.920 -0.9619  0.1015  0.9993
  564MOL0     H77778  10.482   2.648   3.998  0.5403  0.4659  0.4418
  564MOL0     H77779  10.716   2.712   3.931 -0.3379  0.4688  1.0810
  564MOL0     H77780  10.707   2.573   4.040 -2.5981  0.5536  0.7727
  564MOL0     H77781  10.849   2.657   3.715  1.9956 -0.6968  0.7685
  564MOL0     H77782  10.982   2.316   3.561 -1.4471 -1.3248  1.5110
  564MOL0     H77783  11.104   2.381   3.663 -0.3227  0.6278 -0.3253
  564MOL0     H77784  10.942   2.572   3.497  0.0086 -0.2078 -0.3582
  564MOL0     H77785  11.090   2.601   3.592  1.5748 -2.1707  2.3984
  564MOL0     H77786  11.055   2.416   3.366 -1.4124 -0.6164  1.4276
  564MOL0     H77787  11.122   2.576   3.334 -0.7823 -0.6745 -0.5867
  564MOL0     H77788  11.310   2.536   3.468 -1.2598  1.6971 -0.7042
  564MOL0     H77789  11.251   2.361   3.500  3.0623 -0.1134 -0.8213
  564MOL0     H77790  11.406   2.318   3.094 -0.6546 -1.8442  1.4268
  564MOL0     H77791  11.730   2.334   2.950 -1.5810 -1.1958 -2.9513
  564MOL0     H77792  11.573   2.275   2.931  1.6907 -0.6542 -1.4249
  564MOL0     H77793  11.708   2.176   3.016 -0.9267 -0.9230 -1.4149
  564MOL0     H77794  11.987   2.238   3.576 -3.6980 -2.6268 -3.4570
  564MOL0     H77795  12.218   2.180   3.660  0.9221  1.5094  0.3806
  564MOL0     H77796  12.520   2.047   3.325 -2.0165 -2.9893 -0.4639
  564MOL0     H77797  12.622   2.074   3.463 -1.0421  2.8578  1.5847
  564MOL0     H77798  12.493   1.857   3.562 -0.7834 -2.9662 -1.1535
  564MOL0     H77799  12.402   1.854   3.424  0.5236 -2.1808  2.9007
  564MOL0     H77800  12.690   1.857   3.382 -0.3809  1.0103 -3.5054
  564MOL0     H77801  12.570   1.788   3.274 -1.6269  1.3097  0.3772
  564MOL0     H77802  12.521   1.640   3.505 -0.8378  0.6551 -1.8719
  564MOL0     H77803  12.698   1.669   3.522  0.0718  1.2733  0.0761
  564MOL0     H77804  12.646   1.455   3.395 -1.1410 -0.2315  1.1283
  564MOL0     H77805  12.542   1.540   3.286 -0.8995 -0.4279  0.0155
  564MOL0     H77806  12.844   1.593   3.312  0.7147 -2.3272 -0.5887
  564MOL0     H77807  12.735   1.670   3.194  3.2678  1.3199 -0.4921
  564MOL0     H77808  12.678   1.447   3.095  1.0855  1.3777 -1.2794
  564MOL0     H77809  12.766   1.371   3.210 -1.0548  0.7156  1.0657
  564MOL0     H77810  12.881   1.360   3.032  2.1442 -0.9696  3.5347
  564MOL0     H77811  12.978   1.484   3.113  0.1522 -0.1197  0.6767
  564MOL0     H77812  12.359   2.193   3.258  0.4188  2.0342  0.8561
  564MOL0     H77813  12.158   2.263   3.182  1.3582  1.7440  1.1455
  564MOL0     H77814  11.736   2.445   3.432 -2.8261  3.2927  1.4216
  564MOL0     H77815  11.504   2.473   3.476 -2.8095 -0.2014 -2.0861
  564MOL0     H77816   9.668   2.817   3.961  2.1970  1.3536  0.5362
  564MOL0     H77817   9.438   2.881   3.946 -0.1962 -0.4028  0.2010
  564MOL0     H77818   9.097   2.918   3.639 -0.1636 -0.2212 -0.8290
  564MOL0     H77819   8.879   2.978   3.565  0.8346 -1.1735  0.3395
  564MOL0     H77820   8.745   3.405   3.519  0.8244 -1.4015  2.5566
  564MOL0     H77821   8.832   3.308   3.398  3.2528 -1.9075  3.9992
  564MOL0     H77822   8.543   3.377   3.407 -2.0464 -1.0719 -1.7013
  564MOL0     H77823   8.584   3.202   3.384  2.1098  0.2417 -0.7085
  564MOL0     H77824   8.679   3.443   3.231  0.9001 -0.0768  2.9904
  564MOL0     H77825   8.740   3.276   3.219  1.4375  0.5775  3.8296
  564MOL0     H77826   8.517   3.194   3.115 -1.8375  0.4096 -0.7615
  564MOL0     H77827   8.563   3.331   3.037  0.3353 -1.5370 -0.2749
  564MOL0     H77828   8.215   3.471   3.231  0.6742  2.0044  1.9775
  564MOL0     H77829   8.921   3.391   3.660 -1.9101 -0.1245 -2.9813
  564MOL0     H77830   9.213   3.371   3.845 -2.4621 -0.7724  1.4570
  564MOL0     H77831   9.272   3.391   3.678 -0.8627  1.2739  0.1167
  564MOL0     H77832   9.115   3.466   3.735  0.3095 -0.1169  0.5111
  565MOL0     O77833   8.053   7.470   5.840 -0.2388 -0.4094  0.4714
  565MOL0     C77834   8.088   7.558   5.919  0.3429 -0.5709 -0.1341
  565MOL0     O77835   8.005   7.660   5.966  0.1005  0.1936 -0.5158
  565MOL0     C77836   7.864   7.673   5.950 -0.9064  0.1546 -0.1419
  565MOL0     C77837   7.781   7.572   5.903 -1.4346  0.0736 -0.6977
  565MOL0     C77838   7.649   7.601   5.889 -0.6816 -0.5605  0.8682
  565MOL0     C77839   7.594   7.729   5.915 -0.2725 -0.0890 -0.0155
  565MOL0     O77840   7.461   7.749   5.906  0.3723 -0.6360 -1.1579
  565MOL0     C77841   7.394   7.825   6.008 -0.7905  0.3486  0.2467
  565MOL0     C77842   7.246   7.779   6.016  0.0970  0.2786 -0.4592
  565MOL0     C77843   7.170   7.866   6.118  0.2818 -0.1248 -0.0664
  565MOL0     C77844   7.020   7.864   6.092 -0.8649 -0.1912  0.2730
  565MOL0     C77845   6.954   7.760   6.183 -0.6171  0.6120  0.8783
  565MOL0     C77846   6.803   7.746   6.168 -1.2172 -0.2515  0.1653
  565MOL0     C77847   6.771   7.606   6.236 -0.5114 -0.0557 -0.7743
  565MOL0     C77848   6.608   7.593   6.244 -0.6302  0.1597 -0.2236
  565MOL0     N77849   6.569   7.579   6.101 -0.4566 -0.5726 -0.0036
  565MOL0     C77850   6.594   7.476   6.018  0.2195  0.5197 -0.5506
  565MOL0     C77851   6.547   7.515   5.897  0.6143  0.0778 -0.3573
  565MOL0     C77852   6.528   7.427   5.780  0.0965  0.1169 -0.5293
  565MOL0     C77853   6.397   7.361   5.770  0.1638 -0.4144 -0.4050
  565MOL0     C77854   6.353   7.283   5.890  0.1695  0.5034  0.5146
  565MOL0     C77855   6.215   7.221   5.870 -0.6350  0.3359  0.1430
  565MOL0     O77856   6.101   7.318   5.862 -0.1290 -0.1151 -0.1934
  565MOL0     C77857   5.989   7.268   5.797 -0.1560 -0.1803 -0.6522
  565MOL0     C77858   5.904   7.364   5.746 -0.0796  0.2886 -0.9327
  565MOL0     C77859   5.793   7.329   5.670  0.1335  0.4153 -0.7207
  565MOL0     C77860   5.713   7.445   5.613  0.2546 -0.5377  0.0081
  565MOL0     C77861   5.768   7.197   5.652  0.2490  0.0052  0.0931
  565MOL0     C77862   5.649   7.148   5.579 -0.2617  0.3281 -0.6475
  565MOL0     O77863   5.679   7.072   5.476  0.5072 -0.6361 -0.2191
  565MOL0     C77864   5.586   7.048   5.383  0.1136  0.6097 -0.5846
  565MOL0     C77865   5.551   7.143   5.282 -0.0259  0.3040  0.7411
  565MOL0     C77866   5.449   7.114   5.188 -0.3541  0.0901  0.4393
  565MOL0     C77867   5.390   6.990   5.189  1.2732 -0.3597  0.1029
  565MOL0     O77868   5.284   6.981   5.105 -0.3100  0.0977 -0.5493
  565MOL0     C77869   5.154   6.937   5.159 -0.8877 -0.5230 -1.4615
  565MOL0     C77870   5.054   6.935   5.047 -0.5567  0.1408  0.6440
  565MOL0     C77871   4.926   6.858   5.074  0.3078 -0.6704 -0.0933
  565MOL0     C77872   4.815   6.876   4.970 -0.3019 -0.5642 -0.0266
  565MOL0     C77873   4.689   6.797   4.995  0.2839  0.5593 -0.7380
  565MOL0     C77874   4.566   6.843   4.909  0.0913 -0.1848 -0.0062
  565MOL0     C77875   4.559   6.782   4.766 -0.1256 -0.0509 -0.1457
  565MOL0     C77876   4.448   6.847   4.673  0.5008 -0.8316  0.3010
  565MOL0    Cl77877   4.429   6.754   4.525 -0.6532  0.3157  0.0321
  565MOL0     C77878   5.427   6.885   5.280 -0.6736  0.2357  0.2951
  565MOL0     C77879   5.524   6.923   5.383 -0.5129 -0.0437 -0.1105
  565MOL0     O77880   5.533   7.192   5.607 -0.0444 -0.2101  0.1967
  565MOL0     C77881   5.849   7.094   5.699 -0.1010 -0.1254 -0.6257
  565MOL0     C77882   5.957   7.134   5.779  0.2934 -0.6801  0.2248
  565MOL0     N77883   6.502   7.647   5.906 -0.2122 -0.0199  0.4390
  565MOL0     N77884   6.504   7.677   6.029 -0.0685 -0.0091  0.0462
  565MOL0     C77885   7.676   7.830   5.959 -0.6261 -0.0590  0.3864
  565MOL0     C77886   7.819   7.808   5.971 -0.5247 -0.2010  0.2398
  565MOL0     C77887   8.234   7.563   5.959  0.3285 -1.3448  0.2018
  565MOL0     C77888   8.312   7.474   5.887 -0.4583 -0.2011 -0.6511
  565MOL0     C77889   8.445   7.473   5.922  0.0745  0.7762  0.2764
  565MOL0     C77890   8.514   7.553   6.018  0.1967 -0.3013  0.1479
  565MOL0     O77891   8.646   7.554   6.047  1.0928  0.1958  0.7120
  565MOL0     C77892   8.740   7.535   5.939 -0.4699 -0.2814  0.3991
  565MOL0     C77893   8.718   7.630   5.814  0.5301  0.2181  0.0315
  565MOL0     C77894   8.707   7.784   5.860  0.5436  0.2930  0.8499
  565MOL0     C77895   8.832   7.847   5.913 -0.2091 -1.0152 -0.1024
  565MOL0     C77896   8.941   7.859   5.824 -0.0291 -0.0925  0.2705
  565MOL0     C77897   9.030   7.880   5.746 -0.5079 -0.6630  0.5282
  565MOL0     C77898   8.425   7.645   6.090 -0.2556 -0.1991  0.0725
  565MOL0     C77899   8.295   7.649   6.062  0.3912  0.1532 -1.1854
  565MOL0     C77900   8.213   7.748   6.155 -0.2724  0.6985  0.5964
  565MOL0     H77901   7.817   7.470   5.901  4.2682  1.5355  3.4339
  565MOL0     H77902   7.589   7.511   5.876 -1.1924  0.1178 -2.3165
  565MOL0     H77903   7.386   7.929   5.975 -2.2041 -0.2874 -1.5547
  565MOL0     H77904   7.439   7.813   6.107  0.0814 -0.5758 -0.2479
  565MOL0     H77905   7.204   7.786   5.915 -0.3871  1.0178 -0.2137
  565MOL0     H77906   7.243   7.672   6.042 -1.7506  0.0971 -1.2382
  565MOL0     H77907   7.188   7.819   6.215  1.2439 -0.4092 -0.3711
  565MOL0     H77908   7.214   7.965   6.122  1.9458 -0.8277 -0.2666
  565MOL0     H77909   6.983   7.960   6.129  0.5179  0.9008 -1.0510
  565MOL0     H77910   7.002   7.846   5.985  0.1148  5.0518 -1.0507
  565MOL0     H77911   6.973   7.790   6.286 -3.0838  2.7638  0.8195
  565MOL0     H77912   7.005   7.663   6.175 -2.9955 -0.6965  0.2977
  565MOL0     H77913   6.753   7.824   6.226 -0.6632  0.6486 -0.5308
  565MOL0     H77914   6.766   7.763   6.067 -0.3732  1.8297  0.1456
  565MOL0     H77915   6.803   7.617   6.340 -2.4312  1.7605 -0.2804
  565MOL0     H77916   6.816   7.520   6.188 -0.6167 -0.6949  0.2406
  565MOL0     H77917   6.583   7.508   6.308  2.8069 -2.1342 -1.6598
  565MOL0     H77918   6.568   7.690   6.273 -1.3210  0.1432 -1.0776
  565MOL0     H77919   6.630   7.377   6.046  1.3139  0.9320 -0.4566
  565MOL0     H77920   6.601   7.345   5.782  0.0965 -0.0621 -3.3485
  565MOL0     H77921   6.549   7.477   5.684  1.5809 -0.0851 -0.3337
  565MOL0     H77922   6.320   7.433   5.739 -0.6131 -2.0959 -2.6305
  565MOL0     H77923   6.397   7.280   5.696 -3.9195 -2.5260  1.5548
  565MOL0     H77924   6.430   7.211   5.919  0.1955  1.0684  1.9623
  565MOL0     H77925   6.361   7.344   5.981 -0.9546  1.6186 -0.1002
  565MOL0     H77926   6.229   7.163   5.778  1.1669  1.3410 -0.2469
  565MOL0     H77927   6.195   7.149   5.950  0.0793  0.8860  0.8156
  565MOL0     H77928   5.923   7.471   5.750  1.8632 -0.0245 -0.5073
  565MOL0     H77929   5.771   7.538   5.612  0.5754 -0.6878  1.7885
  565MOL0     H77930   5.631   7.477   5.678  1.0313  1.1269  0.2196
  565MOL0     H77931   5.670   7.428   5.514 -1.4571  0.5644  0.5076
  565MOL0     H77932   5.588   7.245   5.279 -0.3240  0.4045  0.4200
  565MOL0     H77933   5.421   7.169   5.098  0.2212 -1.5237 -0.7705
  565MOL0     H77934   5.169   6.842   5.211 -0.2845  0.8964  1.1088
  565MOL0     H77935   5.117   7.010   5.232  0.1937 -1.1577 -0.2282
  565MOL0     H77936   5.017   7.034   5.020  0.6400  0.8417  1.4499
  565MOL0     H77937   5.100   6.893   4.957 -0.8942 -1.6628  1.2879
  565MOL0     H77938   4.886   6.887   5.171  0.8618 -0.6425  0.1316
  565MOL0     H77939   4.945   6.751   5.081  0.2701 -0.9836 -3.2916
  565MOL0     H77940   4.858   6.859   4.871 -0.3984 -1.6592  0.1074
  565MOL0     H77941   4.786   6.981   4.980 -1.3961 -0.8597  0.0069
  565MOL0     H77942   4.713   6.691   4.985  1.9543  0.7603  0.5713
  565MOL0     H77943   4.655   6.813   5.098 -0.6794 -0.5189 -0.8659
  565MOL0     H77944   4.566   6.952   4.904  0.6487 -0.0926  1.6263
  565MOL0     H77945   4.474   6.809   4.959 -2.1129  1.3134 -2.7034
  565MOL0     H77946   4.525   6.679   4.778 -1.4442  0.0720 -2.3029
  565MOL0     H77947   4.657   6.778   4.716  1.0478  2.1572  1.7723
  565MOL0     H77948   4.485   6.948   4.653  0.5507 -1.1093 -1.1436
  565MOL0     H77949   4.351   6.856   4.722 -0.2588  0.4948 -1.3510
  565MOL0     H77950   5.383   6.786   5.271 -2.1876  0.7733  1.3837
  565MOL0     H77951   5.548   6.845   5.454  0.4304 -1.2576 -1.7089
  565MOL0     H77952   5.821   6.990   5.704  1.3183 -0.4565  1.9077
  565MOL0     H77953   6.027   7.059   5.815  1.3676  0.2841  0.2226
  565MOL0     H77954   7.639   7.927   5.988 -3.3115 -0.2482 -1.9358
  565MOL0     H77955   7.886   7.890   5.993 -2.7958  1.9727 -0.4686
  565MOL0     H77956   8.274   7.422   5.800 -0.0082  0.2402 -1.1221
  565MOL0     H77957   8.506   7.416   5.853 -2.9399 -1.6021 -0.6201
  565MOL0     H77958   8.836   7.555   5.988  0.2224  1.2008 -1.4239
  565MOL0     H77959   8.740   7.431   5.905  1.4199 -0.5344  1.0584
  565MOL0     H77960   8.616   7.610   5.779 -0.1496  1.3730  1.2347
  565MOL0     H77961   8.783   7.614   5.727  3.0658  0.0494  1.8363
  565MOL0     H77962   8.679   7.838   5.769  0.6566  1.6648  1.6058
  565MOL0     H77963   8.623   7.785   5.929  0.1763 -1.1258  0.4495
  565MOL0     H77964   8.872   7.780   5.990  3.4439 -1.2505 -2.0001
  565MOL0     H77965   8.812   7.945   5.957 -0.7975 -2.2601  2.6273
  565MOL0     H77966   9.103   7.903   5.671 -1.9598  1.6752 -0.2931
  565MOL0     H77967   8.470   7.713   6.161 -1.9814  1.7629 -0.6381
  565MOL0     H77968   8.122   7.698   6.188 -0.3108 -2.5333 -3.5212
  565MOL0     H77969   8.280   7.779   6.236  3.8164  0.0005 -2.1911
  565MOL0     H77970   8.184   7.832   6.091 -0.3064 -0.2271 -0.6449
  566MOL0     O77971   3.369   0.078   9.975  0.7823 -0.5318 -0.4638
  566MOL0     C77972   3.322   0.003  10.057  0.4353  0.4576 -1.2964
  566MOL0     O77973   3.385  -0.034  10.179 -0.1471 -0.1454 -0.0591
  566MOL0     C77974   3.505   0.033  10.207 -0.1297  0.1797 -0.3696
  566MOL0     C77975   3.515   0.158  10.261 -0.2167 -0.3559  0.1351
  566MOL0     C77976   3.631   0.228  10.282  0.5707 -0.7790  0.1492
  566MOL0     C77977   3.750   0.163  10.262  0.6482 -0.3271 -0.3592
  566MOL0     O77978   3.863   0.221  10.297 -0.1663 -0.3942 -0.1528
  566MOL0     C77979   3.960   0.128  10.341 -0.3411 -0.4076 -0.1655
  566MOL0     C77980   4.077   0.213  10.402 -0.4832 -0.5438 -0.5403
  566MOL0     C77981   4.188   0.128  10.473 -1.0346  0.1795  0.5132
  566MOL0     C77982   4.333   0.167  10.417  1.0540  0.2370  0.7234
  566MOL0     C77983   4.427   0.065  10.486 -0.6508 -0.3778 -0.2707
  566MOL0     C77984   4.572   0.093  10.452 -0.5598 -0.4851  0.1826
  566MOL0     C77985   4.665  -0.013  10.512  0.1552  0.3869  0.1133
  566MOL0     C77986   4.808   0.027  10.480  0.9870 -0.2972 -0.2068
  566MOL0     N77987   4.906  -0.047  10.548  0.1055  0.2926  0.9760
  566MOL0     C77988   4.958  -0.013  10.676  0.7762 -0.4861 -0.4024
  566MOL0     C77989   5.026  -0.129  10.719  0.4550  0.2516 -0.2485
  566MOL0     C77990   5.107  -0.140  10.845  0.0367 -0.4991  0.1465
  566MOL0     C77991   5.242  -0.056  10.816  0.7122 -0.1152 -0.8495
  566MOL0     C77992   5.339  -0.087  10.939 -0.5392 -0.1280 -1.5304
  566MOL0     C77993   5.484  -0.030  10.921 -0.5501  0.4814 -0.6867
  566MOL0     O77994   5.580  -0.082  11.021 -0.0912  0.2241  0.7177
  566MOL0     C77995   5.715  -0.047  11.009  0.0426  0.6208 -0.5289
  566MOL0     C77996   5.764   0.031  10.900 -0.0415  0.5375 -0.5496
  566MOL0     C77997   5.899   0.062  10.886  0.3874  0.1840  0.8289
  566MOL0     C77998   5.932   0.160  10.779 -1.1634  0.2998 -0.2969
  566MOL0     C77999   5.999   0.005  10.972 -0.4549 -0.1778 -0.7028
  566MOL0     C78000   6.152   0.015  10.963  0.3788 -0.1684 -0.1201
  566MOL0     O78001   6.228  -0.054  11.059  0.6306  0.3667 -0.0936
  566MOL0     C78002   6.360  -0.036  11.044  0.4800 -0.2571  0.4299
  566MOL0     C78003   6.440  -0.111  10.960  0.0490  0.0780 -0.3509
  566MOL0     C78004   6.569  -0.068  10.940 -0.0511  0.2591  0.2566
  566MOL0     C78005   6.633   0.036  11.006 -0.2863  0.6368 -0.1360
  566MOL0     O78006   6.765   0.062  10.985 -1.0911 -0.1331  0.7329
  566MOL0     C78007   6.823   0.178  11.049 -0.0870  0.4192  0.2993
  566MOL0     C78008   6.928   0.236  10.961 -0.3887  0.1325 -0.8299
  566MOL0     C78009   7.051   0.153  10.976  0.0693 -0.4412  0.2853
  566MOL0     C78010   7.183   0.219  10.938 -0.2337  0.4486 -0.2124
  566MOL0     C78011   7.183   0.255  10.787  0.1321 -0.2766 -0.8705
  566MOL0     C78012   7.315   0.340  10.766  0.1356  0.5725 -0.3870
  566MOL0     C78013   7.329   0.366  10.613 -0.1479  0.0912  0.2469
  566MOL0     C78014   7.463   0.453  10.610 -0.5235  0.4309 -0.2135
  566MOL0    Cl78015   7.521   0.497  10.438 -0.2073  0.5795 -0.7747
  566MOL0     C78016   6.552   0.105  11.105  0.2836  0.6196  0.5150
  566MOL0     C78017   6.415   0.074  11.111 -0.7281 -0.3276 -1.0441
  566MOL0     O78018   6.199   0.059  10.868 -0.0145 -0.6548  0.2150
  566MOL0     C78019   5.947  -0.071  11.080  0.9372  0.6923 -0.8596
  566MOL0     C78020   5.809  -0.095  11.098 -0.0588  0.4430  0.4595
  566MOL0     N78021   5.022  -0.228  10.619 -0.7364  0.8477  0.1525
  566MOL0     N78022   4.948  -0.177  10.528  0.6371  0.2007  0.0629
  566MOL0     C78023   3.746   0.033  10.203 -0.1271 -0.3872  0.0768
  566MOL0     C78024   3.628  -0.035  10.177  0.4757 -0.3331 -0.5966
  566MOL0     C78025   3.171  -0.037  10.044 -0.3901 -0.2804  0.1233
  566MOL0     C78026   3.145  -0.151   9.965  1.0601 -0.0152  0.2816
  566MOL0     C78027   3.014  -0.193   9.959  0.3286  0.7524 -0.4356
  566MOL0     C78028   2.915  -0.130  10.031 -1.2808 -0.3477  0.4636
  566MOL0     O78029   2.795  -0.182  10.016  0.0510  0.4949 -0.1189
  566MOL0     C78030   2.697  -0.163  10.124  0.5508 -0.8573  0.1015
  566MOL0     C78031   2.587  -0.268  10.108 -0.1582 -0.7744  0.4277
  566MOL0     C78032   2.634  -0.423  10.108 -0.6069 -0.2139 -0.0514
  566MOL0     C78033   2.683  -0.474  10.239  0.3755 -0.1988 -0.7688
  566MOL0     C78034   2.561  -0.494  10.317  0.1845 -0.6767  0.1442
  566MOL0     C78035   2.449  -0.504  10.372  0.3370 -0.4640  0.1221
  566MOL0     C78036   2.949  -0.023  10.108 -0.1101  0.3610 -0.2919
  566MOL0     C78037   3.076   0.028  10.120 -0.0976 -0.6415 -0.0017
  566MOL0     C78038   3.103   0.156  10.204 -0.2728  0.6003  0.2399
  566MOL0     H78039   3.422   0.213  10.255  0.3389  0.6521  0.5134
  566MOL0     H78040   3.634   0.334  10.306 -0.6764 -0.5874 -0.4547
  566MOL0     H78041   4.000   0.067  10.259  0.5787  2.2097 -1.7886
  566MOL0     H78042   3.917   0.058  10.413 -1.0743 -1.7865 -1.8553
  566MOL0     H78043   4.124   0.280  10.329  1.5209 -2.5610 -1.2250
  566MOL0     H78044   4.022   0.274  10.474  1.0382 -0.2096  0.3785
  566MOL0     H78045   4.182   0.144  10.581 -0.7642  2.9639  0.1846
  566MOL0     H78046   4.166   0.022  10.456  0.4686  0.0229 -0.6032
  566MOL0     H78047   4.337   0.147  10.310 -2.5681  0.4820  0.4154
  566MOL0     H78048   4.357   0.273  10.435 -0.5681  0.7366  0.1522
  566MOL0     H78049   4.395  -0.032  10.448 -2.4593 -0.2232  0.7264
  566MOL0     H78050   4.414   0.059  10.595  1.5916 -1.2364  0.0073
  566MOL0     H78051   4.581   0.087  10.343  1.3058 -1.9691  0.3671
  566MOL0     H78052   4.604   0.192  10.485 -0.0535  0.4479 -2.7964
  566MOL0     H78053   4.658  -0.107  10.458  1.7877  0.7542 -0.8296
  566MOL0     H78054   4.646  -0.031  10.618 -0.0043 -1.4053 -0.2029
  566MOL0     H78055   4.833   0.027  10.374  0.2751  1.9841 -0.4343
  566MOL0     H78056   4.817   0.133  10.509 -0.9520 -0.0782 -0.2956
  566MOL0     H78057   4.950   0.082  10.727  2.2471  0.8059 -2.4528
  566MOL0     H78058   5.115  -0.249  10.851  0.9737 -0.8328 -3.9048
  566MOL0     H78059   5.057  -0.096  10.931  2.5704 -4.1498  3.8652
  566MOL0     H78060   5.275  -0.091  10.719 -0.0524  1.4245 -1.7081
  566MOL0     H78061   5.217   0.051  10.815 -2.7154 -0.7574  0.5905
  566MOL0     H78062   5.303  -0.042  11.032  2.7703  1.8367 -1.0608
  566MOL0     H78063   5.349  -0.191  10.973  1.0479  0.1171 -1.1774
  566MOL0     H78064   5.535  -0.074  10.834  0.8975 -1.8968  1.2172
  566MOL0     H78065   5.479   0.079  10.924 -1.2980  0.4621 -1.0574
  566MOL0     H78066   5.701   0.066  10.819 -0.8432  2.7806  0.9416
  566MOL0     H78067   5.980   0.100  10.700  0.6852  1.4848 -0.1313
  566MOL0     H78068   6.010   0.215  10.831 -0.8348 -0.5483  0.1214
  566MOL0     H78069   5.857   0.227  10.735 -0.6010  1.6320  0.7200
  566MOL0     H78070   6.418  -0.202  10.906  0.8378 -1.0912  1.2047
  566MOL0     H78071   6.640  -0.125  10.880 -1.1657  0.6971 -1.5836
  566MOL0     H78072   6.755   0.261  11.071 -1.0352  0.2282 -1.7002
  566MOL0     H78073   6.866   0.137  11.140 -1.5665  0.2414  0.9541
  566MOL0     H78074   6.897   0.241  10.857  0.5742 -2.0107 -1.2684
  566MOL0     H78075   6.948   0.336  11.002  1.8390 -0.7796  0.5252
  566MOL0     H78076   7.035   0.058  10.924 -0.2545  0.2223 -0.8659
  566MOL0     H78077   7.070   0.124  11.080 -0.4466 -1.2311  0.1674
  566MOL0     H78078   7.273   0.157  10.946 -0.1521  0.5612 -0.2600
  566MOL0     H78079   7.197   0.305  11.004  0.2437  0.7742 -0.7293
  566MOL0     H78080   7.190   0.165  10.726  3.5715 -0.6299 -0.1109
  566MOL0     H78081   7.099   0.320  10.760  1.6824  2.3958  0.3383
  566MOL0     H78082   7.402   0.287  10.806 -0.9355 -0.7459  0.2801
  566MOL0     H78083   7.310   0.438  10.815 -0.6453 -0.6728  2.2187
  566MOL0     H78084   7.246   0.417  10.563 -0.8719 -1.5631 -0.3123
  566MOL0     H78085   7.341   0.269  10.564 -0.3873  0.1804  0.0117
  566MOL0     H78086   7.544   0.400  10.662 -0.0620  2.5756  1.4221
  566MOL0     H78087   7.457   0.547  10.667  1.3751  1.5011 -1.6512
  566MOL0     H78088   6.590   0.182  11.171  1.6158  1.1099 -0.7685
  566MOL0     H78089   6.363   0.139  11.181  0.7530  0.1316 -0.3324
  566MOL0     H78090   6.015  -0.114  11.152 -1.2733  0.0359  0.9560
  566MOL0     H78091   5.773  -0.150  11.184 -0.8038  2.1927  1.3079
  566MOL0     H78092   3.832  -0.027  10.173 -1.1192 -0.3245 -3.3449
  566MOL0     H78093   3.613  -0.127  10.121  3.4142 -2.1582  1.3362
  566MOL0     H78094   3.231  -0.203   9.923  0.2550 -1.8152  0.7584
  566MOL0     H78095   2.982  -0.277   9.898 -1.1607  3.6417 -4.0096
  566MOL0     H78096   2.743  -0.160  10.223 -0.0004 -1.1332  0.3702
  566MOL0     H78097   2.666  -0.060  10.103 -0.0890 -0.9615  0.5283
  566MOL0     H78098   2.520  -0.244  10.024 -1.5645  0.6504  1.8887
  566MOL0     H78099   2.528  -0.247  10.197 -0.0842  1.4121  0.0293
  566MOL0     H78100   2.548  -0.485  10.081 -0.4047  0.3381 -2.1693
  566MOL0     H78101   2.713  -0.445  10.036 -2.1875 -0.5697 -1.7536
  566MOL0     H78102   2.751  -0.402  10.287  2.8395 -1.7573 -1.7484
  566MOL0     H78103   2.733  -0.570  10.224 -1.8006 -1.4292 -0.5508
  566MOL0     H78104   2.352  -0.517  10.416 -0.7920  0.4438 -1.9437
  566MOL0     H78105   2.870   0.033  10.158  1.4321  1.2929  1.2179
  566MOL0     H78106   3.149   0.129  10.299 -0.5077  2.4661  0.9268
  566MOL0     H78107   3.166   0.222  10.144 -2.1269  2.0120 -0.2477
  566MOL0     H78108   3.019   0.222  10.230  0.2195  0.3084  2.8286
  567MOL0     O78109   1.048   9.345   7.110  0.4484  0.0288  0.1344
  567MOL0     C78110   0.947   9.277   7.133 -0.8433 -0.1796  0.5693
  567MOL0     O78111   0.929   9.211   7.252 -0.0798  0.2066 -0.1319
  567MOL0     C78112   1.026   9.220   7.350  0.3542 -0.8859  0.0552
  567MOL0     C78113   1.047   9.346   7.429  0.1977 -0.0294  0.1355
  567MOL0     C78114   1.154   9.351   7.521  0.4705  0.1278 -0.3331
  567MOL0     C78115   1.224   9.238   7.562 -0.4923 -0.4875 -0.3091
  567MOL0     O78116   1.333   9.226   7.657  0.2454 -0.2734 -0.1019
  567MOL0     C78117   1.381   9.343   7.726  0.3997 -0.7944  0.1700
  567MOL0     C78118   1.496   9.310   7.815 -0.4632  0.4370 -0.1801
  567MOL0     C78119   1.611   9.228   7.745  0.1538 -0.1724 -0.0884
  567MOL0     C78120   1.693   9.325   7.665  0.5265  1.2881 -1.0035
  567MOL0     C78121   1.793   9.247   7.578  0.1721  0.3003 -0.5534
  567MOL0     C78122   1.881   9.353   7.507  0.4996 -0.2782 -0.6616
  567MOL0     C78123   2.002   9.280   7.453 -0.1652 -0.0997 -0.0215
  567MOL0     C78124   1.972   9.178   7.341 -0.2612  0.3830  0.0035
  567MOL0     N78125   1.994   9.214   7.202 -0.2401 -0.8151  0.5575
  567MOL0     C78126   2.117   9.242   7.148 -0.2621 -0.7358 -0.5825
  567MOL0     C78127   2.099   9.305   7.028 -0.1530 -0.4379 -0.1692
  567MOL0     C78128   2.210   9.325   6.924  0.3496  0.2456  0.2875
  567MOL0     C78129   2.343   9.360   6.987 -0.1940  0.0788 -0.5828
  567MOL0     C78130   2.428   9.403   6.867 -0.8571  0.0759 -0.4215
  567MOL0     C78131   2.559   9.472   6.913 -0.2810 -0.2249  0.0297
  567MOL0     O78132   2.528   9.588   6.991 -0.0111  0.2909 -0.6261
  567MOL0     C78133   2.630   9.677   7.015  1.1486 -0.1499  0.1423
  567MOL0     C78134   2.607   9.762   7.118 -0.5793  0.5800 -0.7506
  567MOL0     C78135   2.708   9.839   7.167  0.2083 -0.4439  0.4009
  567MOL0     C78136   2.678   9.896   7.300 -0.0357  0.0390  0.5268
  567MOL0     C78137   2.822   9.864   7.096  0.7389  0.8346  0.8353
  567MOL0     C78138   2.929   9.958   7.133  0.0215 -0.1280 -0.5086
  567MOL0     O78139   3.054   9.931   7.079  0.1481 -0.0045  0.6224
  567MOL0     C78140   3.157  10.015   7.114 -0.0119  0.4648 -0.1664
  567MOL0     C78141   3.204  10.117   7.033 -0.1924 -0.9908  0.2889
  567MOL0     C78142   3.309  10.203   7.087  0.0567 -0.3154  0.2878
  567MOL0     C78143   3.359  10.186   7.213 -0.3400  0.4600 -0.5576
  567MOL0     O78144   3.443  10.285   7.264  0.1126 -0.7685  0.0445
  567MOL0     C78145   3.504  10.283   7.391 -0.7257  0.1513 -0.6642
  567MOL0     C78146   3.625  10.362   7.373 -0.2375 -0.4066  0.3068
  567MOL0     C78147   3.704  10.365   7.508  0.1310 -0.2088  0.0718
  567MOL0     C78148   3.809  10.480   7.508  1.1178 -0.0079  0.7419
  567MOL0     C78149   3.917  10.463   7.619 -0.6688  0.1096 -0.4983
  567MOL0     C78150   3.982  10.321   7.629  0.4935  0.7749 -0.1107
  567MOL0     C78151   4.117  10.335   7.688 -0.6017  0.0653 -0.0320
  567MOL0     C78152   4.188  10.199   7.680  0.1599 -0.9133  1.0020
  567MOL0    Cl78153   4.353  10.227   7.726  0.3226  0.2626  0.4529
  567MOL0     C78154   3.308  10.083   7.294  0.2834  0.2328  0.6705
  567MOL0     C78155   3.210   9.995   7.242  0.2304  0.4021  0.2145
  567MOL0     O78156   2.917  10.054   7.215  0.2352 -0.2277  0.8831
  567MOL0     C78157   2.838   9.781   6.979 -1.1268  0.2793  1.0156
  567MOL0     C78158   2.752   9.676   6.944  0.4116  0.0888  0.4025
  567MOL0     N78159   1.963   9.315   7.017  0.6569  0.6897 -0.3773
  567MOL0     N78160   1.901   9.252   7.110  0.0662  0.3449 -0.3877
  567MOL0     C78161   1.176   9.125   7.506  0.9706  0.3636 -0.7183
  567MOL0     C78162   1.084   9.109   7.404  0.3792  0.9212  0.2066
  567MOL0     C78163   0.851   9.236   7.022  0.1428  0.2356 -0.6022
  567MOL0     C78164   0.735   9.164   7.061 -0.5849 -0.1802 -0.2261
  567MOL0     C78165   0.650   9.100   6.973  0.5988 -0.8352  0.3045
  567MOL0     C78166   0.676   9.104   6.844 -0.9201 -0.3789 -0.9239
  567MOL0     O78167   0.585   9.050   6.760 -0.5504 -0.2194  0.2854
  567MOL0     C78168   0.615   9.014   6.626 -0.2719  0.2725 -0.9416
  567MOL0     C78169   0.526   8.890   6.597 -0.3154 -0.4885 -0.7834
  567MOL0     C78170   0.382   8.902   6.660 -0.5956 -0.0398  0.4412
  567MOL0     C78171   0.309   8.794   6.584  0.1781  0.2184 -0.2434
  567MOL0     C78172   0.167   8.792   6.634  0.4754  0.9089 -0.5895
  567MOL0     C78173   0.052   8.784   6.671  0.2368  0.5335  0.2465
  567MOL0     C78174   0.791   9.180   6.803  0.5749  0.5521  0.0651
  567MOL0     C78175   0.878   9.247   6.886 -0.1538 -0.5310 -0.3426
  567MOL0     C78176   1.005   9.311   6.827  0.1130 -0.1416 -1.1698
  567MOL0     H78177   0.991   9.438   7.414  1.3491  1.2984  3.0334
  567MOL0     H78178   1.191   9.444   7.563  1.2510  0.7228 -2.2468
  567MOL0     H78179   1.299   9.370   7.793  0.6874 -1.1028  0.6526
  567MOL0     H78180   1.415   9.424   7.660  0.1729 -0.3363  0.6104
  567MOL0     H78181   1.530   9.407   7.855 -1.5340  0.6880  0.1497
  567MOL0     H78182   1.452   9.253   7.897  1.6168  1.3581  1.6850
  567MOL0     H78183   1.669   9.196   7.831  0.5392  0.9530  0.0896
  567MOL0     H78184   1.579   9.138   7.692 -0.3660 -0.4135  0.6160
  567MOL0     H78185   1.625   9.372   7.594  1.2698  0.8898 -2.0020
  567MOL0     H78186   1.746   9.395   7.731  0.0598 -0.6940  1.6336
  567MOL0     H78187   1.722   9.195   7.513 -2.4196  2.1017  0.6291
  567MOL0     H78188   1.855   9.173   7.629  1.1555  0.7381 -1.0862
  567MOL0     H78189   1.816   9.402   7.434 -2.9523 -3.1645  0.1548
  567MOL0     H78190   1.919   9.428   7.577  0.0327 -1.8218  1.3381
  567MOL0     H78191   2.054   9.237   7.539 -0.1262  1.8300  0.9726
  567MOL0     H78192   2.063   9.357   7.405 -3.5634  1.6949 -1.9012
  567MOL0     H78193   2.023   9.083   7.361 -0.4812  0.5745  1.5850
  567MOL0     H78194   1.871   9.141   7.357 -0.3694  0.5631 -0.2621
  567MOL0     H78195   2.213   9.222   7.195  0.3033 -0.6352 -1.6578
  567MOL0     H78196   2.178   9.411   6.864  0.1877  1.3514  1.9016
  567MOL0     H78197   2.215   9.236   6.861  0.2259  0.0657  0.5335
  567MOL0     H78198   2.315   9.439   7.057 -3.6045  0.7416 -2.4558
  567MOL0     H78199   2.392   9.273   7.031 -2.0788 -0.8462 -0.2223
  567MOL0     H78200   2.456   9.317   6.806  2.0268  0.1894  0.5814
  567MOL0     H78201   2.377   9.471   6.798  0.3154 -0.6407 -2.0469
  567MOL0     H78202   2.614   9.394   6.965 -0.8717  0.2632  1.4127
  567MOL0     H78203   2.624   9.494   6.827  0.8138 -2.2305  0.3037
  567MOL0     H78204   2.513   9.739   7.167  0.1287 -1.0649 -0.1016
  567MOL0     H78205   2.574   9.873   7.326 -0.2075  1.3495  1.1053
  567MOL0     H78206   2.696  10.004   7.297 -1.8542  0.3651 -2.1623
  567MOL0     H78207   2.736   9.850   7.381 -0.7530  0.5533  1.3626
  567MOL0     H78208   3.180  10.122   6.928 -1.5637 -1.4762  0.5708
  567MOL0     H78209   3.349  10.282   7.025 -0.0941  0.2030  0.8476
  567MOL0     H78210   3.439  10.334   7.461 -0.1327 -2.0893  1.6750
  567MOL0     H78211   3.537  10.186   7.430 -1.2643  0.3273  0.2470
  567MOL0     H78212   3.691  10.337   7.290  0.8228 -1.2083  1.3657
  567MOL0     H78213   3.592  10.466   7.358  1.9814  0.3257  0.1738
  567MOL0     H78214   3.756  10.271   7.526  2.5908  0.9813 -0.3392
  567MOL0     H78215   3.629  10.383   7.585  0.9807 -2.9485  1.6802
  567MOL0     H78216   3.757  10.572   7.534 -0.8614 -0.3412 -1.6320
  567MOL0     H78217   3.847  10.490   7.406 -2.9145  1.6891 -0.7987
  567MOL0     H78218   3.994  10.541   7.613 -0.4207  0.3934  3.5741
  567MOL0     H78219   3.867  10.476   7.715 -0.5711 -0.4381 -0.3688
  567MOL0     H78220   3.983  10.271   7.532 -0.4251  0.8824 -0.1889
  567MOL0     H78221   3.927  10.259   7.702  0.7300  1.1082  0.3565
  567MOL0     H78222   4.105  10.377   7.788  0.8552 -0.0021  0.1814
  567MOL0     H78223   4.179  10.403   7.628  0.0930  0.9496  1.6179
  567MOL0     H78224   4.198  10.166   7.576 -1.0783  1.0425  0.1929
  567MOL0     H78225   4.135  10.126   7.742 -1.6641 -0.9974 -0.5744
  567MOL0     H78226   3.340  10.054   7.393  0.1875 -0.5862  0.4678
  567MOL0     H78227   3.171   9.913   7.301  1.5635 -2.0102 -2.0192
  567MOL0     H78228   2.931   9.784   6.922 -0.1926 -1.1179  2.3908
  567MOL0     H78229   2.775   9.603   6.867 -4.1692 -1.0113 -0.2283
  567MOL0     H78230   1.213   9.029   7.537 -0.8491 -1.1031 -2.7605
  567MOL0     H78231   1.067   9.009   7.364 -3.0858  1.3978  0.2396
  567MOL0     H78232   0.720   9.154   7.168 -1.5205 -2.7215 -0.5366
  567MOL0     H78233   0.550   9.072   7.002 -1.0522  2.1624 -1.9337
  567MOL0     H78234   0.581   9.087   6.552  1.8588  2.6918  0.2721
  567MOL0     H78235   0.721   8.991   6.614 -0.2294  0.5545 -1.1179
  567MOL0     H78236   0.582   8.809   6.645  1.0435  1.5690  1.2982
  567MOL0     H78237   0.523   8.877   6.488 -0.5143 -1.6034 -0.6534
  567MOL0     H78238   0.376   8.893   6.769  4.3501 -0.7595  0.8940
  567MOL0     H78239   0.347   9.000   6.628 -1.3366 -0.5169 -0.2351
  567MOL0     H78240   0.353   8.695   6.596  0.6919  0.3111 -1.2873
  567MOL0     H78241   0.301   8.823   6.479 -0.4908  0.4595 -0.1284
  567MOL0     H78242  -0.048   8.764   6.704  0.7194 -1.3240  0.7048
  567MOL0     H78243   0.816   9.185   6.697  2.5639  1.3066  0.5343
  567MOL0     H78244   1.097   9.281   6.878 -1.1905 -1.7639  0.3342
  567MOL0     H78245   1.008   9.305   6.718 -0.5684  2.3531 -1.3793
  567MOL0     H78246   1.006   9.417   6.855  1.9153 -0.5728  0.6759
  568MOL0     O78247   1.297   6.784   7.975  0.3430  0.2961  0.3132
  568MOL0     C78248   1.190   6.846   7.987  0.2143 -0.7297 -0.0021
  568MOL0     O78249   1.177   6.980   7.997 -0.2914  0.5491  0.0375
  568MOL0     C78250   1.292   7.055   7.980  0.4677  0.0561 -0.5654
  568MOL0     C78251   1.408   7.035   8.059  0.1970  0.1795 -0.4181
  568MOL0     C78252   1.526   7.100   8.022 -0.5301 -0.0439 -0.2791
  568MOL0     C78253   1.530   7.186   7.910  0.3313  0.6856 -0.3489
  568MOL0     O78254   1.641   7.259   7.874  0.1314  0.0987 -0.6249
  568MOL0     C78255   1.721   7.304   7.980  0.2884  0.4391 -0.6034
  568MOL0     C78256   1.823   7.407   7.937 -0.3463 -0.1205  0.2504
  568MOL0     C78257   1.759   7.533   7.886  0.0767 -0.5313  0.1267
  568MOL0     C78258   1.803   7.559   7.745 -0.5552 -0.8350  0.2095
  568MOL0     C78259   1.750   7.696   7.697  0.6881  0.0521 -0.7515
  568MOL0     C78260   1.758   7.693   7.539 -0.5244 -0.2967  1.0107
  568MOL0     C78261   1.721   7.822   7.472  0.3878 -0.3041 -0.4841
  568MOL0     C78262   1.566   7.838   7.482  0.7818  0.1079 -0.0286
  568MOL0     N78263   1.522   7.960   7.406 -0.5993  0.2394 -0.4136
  568MOL0     C78264   1.554   7.995   7.278  1.2634 -1.1052  0.3028
  568MOL0     C78265   1.518   8.125   7.268 -0.3948  0.4687  0.1655
  568MOL0     C78266   1.505   8.187   7.126 -0.7087 -0.6069 -0.7327
  568MOL0     C78267   1.578   8.325   7.130  0.0893  0.1359  0.5028
  568MOL0     C78268   1.591   8.396   6.991  0.2814 -0.0514  0.1420
  568MOL0     C78269   1.466   8.430   6.917  0.1313 -0.1785 -0.2636
  568MOL0     O78270   1.486   8.550   6.843 -0.3335  0.1867 -0.3658
  568MOL0     C78271   1.368   8.604   6.785 -0.7776 -0.0091 -0.8903
  568MOL0     C78272   1.260   8.532   6.761 -0.2613 -0.3405 -0.3382
  568MOL0     C78273   1.144   8.587   6.714  0.0386  0.0703 -0.2422
  568MOL0     C78274   1.029   8.487   6.686  0.6222  0.0650 -0.1277
  568MOL0     C78275   1.134   8.725   6.687  0.1085 -0.2274  0.1910
  568MOL0     C78276   1.013   8.789   6.627  0.7804 -0.4380 -0.3276
  568MOL0     O78277   1.023   8.921   6.568  0.3715 -0.7012 -0.4413
  568MOL0     C78278   0.930   8.975   6.486  0.1331 -0.5103  0.5219
  568MOL0     C78279   0.916   9.110   6.470 -0.0542 -0.6429 -0.0678
  568MOL0     C78280   0.818   9.163   6.389  0.8289  0.7409  0.4115
  568MOL0     C78281   0.736   9.081   6.312 -0.1156 -0.5048 -0.5719
  568MOL0     O78282   0.647   9.145   6.231  0.5401  0.6461  0.7806
  568MOL0     C78283   0.539   9.054   6.191  0.5065  0.5038  0.7839
  568MOL0     C78284   0.417   9.134   6.164 -0.3644 -0.2561 -0.1235
  568MOL0     C78285   0.366   9.220   6.291  0.5894 -1.2252 -0.5000
  568MOL0     C78286   0.236   9.178   6.362 -0.2050 -0.2232 -0.5005
  568MOL0     C78287   0.199   9.277   6.479 -0.5323  0.7383  0.2551
  568MOL0     C78288   0.049   9.294   6.482  0.9829  0.0688 -0.4285
  568MOL0     C78289  -0.012   9.187   6.579  0.7020  0.8099 -1.3275
  568MOL0     C78290  -0.157   9.218   6.616  0.5438 -0.4516  0.9390
  568MOL0    Cl78291  -0.212   9.083   6.715 -0.3635 -0.2045  0.0660
  568MOL0     C78292   0.753   8.951   6.319  0.9747  1.1918  0.1024
  568MOL0     C78293   0.845   8.891   6.406  0.6844  0.4905  0.3170
  568MOL0     O78294   0.911   8.724   6.630  0.4922 -0.7338 -0.0119
  568MOL0     C78295   1.258   8.799   6.704 -0.5520  0.9323 -0.0584
  568MOL0     C78296   1.372   8.741   6.756  0.5442  0.1502 -0.4654
  568MOL0     N78297   1.452   8.167   7.385 -0.0206 -0.0521 -0.3710
  568MOL0     N78298   1.470   8.063   7.470 -0.1042 -0.3437 -0.3658
  568MOL0     C78299   1.414   7.217   7.842  0.3905  0.3725 -0.1680
  568MOL0     C78300   1.296   7.155   7.880  0.8191  0.4559 -0.3002
  568MOL0     C78301   1.064   6.768   7.951  1.0715  0.0774 -0.3948
  568MOL0     C78302   0.961   6.835   7.883 -0.2387  0.5811 -0.7871
  568MOL0     C78303   0.852   6.775   7.838 -0.3407  0.0426  0.3598
  568MOL0     C78304   0.824   6.639   7.870  0.0590 -0.3973  0.0444
  568MOL0     O78305   0.711   6.569   7.825  0.8606 -0.0105 -0.0811
  568MOL0     C78306   0.596   6.641   7.778  0.2149  0.2300 -0.4015
  568MOL0     C78307   0.472   6.553   7.798  0.1428 -0.2286  0.6302
  568MOL0     C78308   0.464   6.434   7.707  0.1562  1.2916 -0.7070
  568MOL0     C78309   0.365   6.335   7.761  0.5782 -0.4908  0.9666
  568MOL0     C78310   0.379   6.203   7.704  0.2567  0.5794 -0.1923
  568MOL0     C78311   0.367   6.104   7.638 -0.5544  0.3596  0.1618
  568MOL0     C78312   0.917   6.569   7.937  0.2986 -0.6449 -0.4915
  568MOL0     C78313   1.038   6.629   7.976 -0.6202  0.0435  0.1065
  568MOL0     C78314   1.127   6.542   8.066 -0.1443 -0.8644  0.0595
  568MOL0     H78315   1.420   6.965   8.141  3.1515  0.7801 -0.2474
  568MOL0     H78316   1.616   7.078   8.078 -0.6746 -1.4042 -0.5381
  568MOL0     H78317   1.775   7.214   8.011  1.3986  0.6879 -1.7488
  568MOL0     H78318   1.660   7.348   8.060 -0.3021 -0.7739 -0.3734
  568MOL0     H78319   1.891   7.437   8.018 -0.7910  3.3122 -0.5038
  568MOL0     H78320   1.873   7.356   7.855 -0.0517 -1.2944  1.1235
  568MOL0     H78321   1.652   7.513   7.893 -0.0819  0.0792 -0.4405
  568MOL0     H78322   1.774   7.622   7.948  1.2238 -1.7279  1.6451
  568MOL0     H78323   1.912   7.562   7.738 -0.5157 -0.1285  1.0329
  568MOL0     H78324   1.759   7.480   7.683  0.1678 -0.2766 -1.0602
  568MOL0     H78325   1.807   7.779   7.740  1.9263 -1.5169  0.7964
  568MOL0     H78326   1.648   7.712   7.733  1.0544 -0.0493  0.3923
  568MOL0     H78327   1.856   7.654   7.511  0.6653  1.9104  1.8310
  568MOL0     H78328   1.691   7.615   7.500 -0.3299 -1.1875  2.3907
  568MOL0     H78329   1.745   7.835   7.366  3.7461  0.6771  0.2757
  568MOL0     H78330   1.778   7.900   7.524 -0.6345  1.6014 -2.0936
  568MOL0     H78331   1.526   7.745   7.441  1.2934 -0.6495  1.1068
  568MOL0     H78332   1.532   7.842   7.586  0.5528  0.7322 -0.1249
  568MOL0     H78333   1.603   7.937   7.200 -1.8342 -2.3032 -0.9130
  568MOL0     H78334   1.399   8.201   7.100 -0.4634  2.3895 -0.5106
  568MOL0     H78335   1.557   8.125   7.053 -3.0441 -3.0583 -0.4848
  568MOL0     H78336   1.522   8.392   7.196 -0.6102  0.4313 -0.3677
  568MOL0     H78337   1.680   8.316   7.167  0.7324 -0.6663 -1.3379
  568MOL0     H78338   1.645   8.491   7.004 -0.7607  0.4595  0.9239
  568MOL0     H78339   1.649   8.333   6.923 -1.5200 -1.9229  0.2483
  568MOL0     H78340   1.439   8.345   6.854  1.3607  0.5370 -1.7946
  568MOL0     H78341   1.382   8.431   6.988 -0.9329 -0.9305 -1.4717
  568MOL0     H78342   1.260   8.424   6.766 -0.2604 -0.5399 -3.1433
  568MOL0     H78343   0.941   8.505   6.749  0.9921 -0.2092  0.4816
  568MOL0     H78344   1.052   8.382   6.704  1.1748 -0.1384 -1.8903
  568MOL0     H78345   0.998   8.494   6.582  0.5953 -0.5627 -0.1634
  568MOL0     H78346   0.986   9.171   6.526  1.7787  0.3203 -3.1852
  568MOL0     H78347   0.799   9.270   6.382  1.2364  0.8387  0.7340
  568MOL0     H78348   0.558   8.995   6.100 -0.3319 -0.0900  0.9745
  568MOL0     H78349   0.497   8.994   6.272 -1.7486  0.6239 -0.2098
  568MOL0     H78350   0.435   9.195   6.075 -1.1986  0.4818  0.1975
  568MOL0     H78351   0.340   9.065   6.127 -0.0952  0.6867 -2.5897
  568MOL0     H78352   0.361   9.327   6.270  0.8791 -1.0610  0.2493
  568MOL0     H78353   0.444   9.210   6.367 -0.8456  2.0238  1.6267
  568MOL0     H78354   0.226   9.075   6.396  0.2606 -0.5771 -1.3882
  568MOL0     H78355   0.159   9.185   6.284  0.0665 -0.7661 -0.8200
  568MOL0     H78356   0.242   9.238   6.572  0.3683 -2.2689 -1.3204
  568MOL0     H78357   0.234   9.378   6.454 -1.4616  0.9026 -0.4051
  568MOL0     H78358   0.007   9.284   6.381 -1.4203 -0.9299  0.6016
  568MOL0     H78359   0.027   9.398   6.508 -0.7295  0.1930 -2.1125
  568MOL0     H78360   0.046   9.184   6.671 -0.1251  1.7680 -0.7458
  568MOL0     H78361  -0.009   9.089   6.532 -0.2119  0.6468 -1.0562
  568MOL0     H78362  -0.217   9.235   6.526  2.8308  1.3035 -0.3948
  568MOL0     H78363  -0.163   9.314   6.667  1.1499  0.8241 -1.2639
  568MOL0     H78364   0.689   8.877   6.270 -3.7801  4.6731  0.3417
  568MOL0     H78365   0.844   8.783   6.410 -1.5184  0.4945  1.4368
  568MOL0     H78366   1.260   8.904   6.677 -2.5250  1.0562  0.0605
  568MOL0     H78367   1.463   8.799   6.761  1.2020 -0.9380  2.0052
  568MOL0     H78368   1.391   7.303   7.779  1.6375  0.1910 -0.8981
  568MOL0     H78369   1.206   7.187   7.828  0.3249  2.3698  1.5745
  568MOL0     H78370   0.962   6.943   7.868  0.2356  1.0437  1.9867
  568MOL0     H78371   0.796   6.843   7.775  0.7539  1.4666  0.8590
  568MOL0     H78372   0.582   6.737   7.829  0.8029 -0.7855  1.7959
  568MOL0     H78373   0.605   6.666   7.672 -0.8590 -0.0401 -0.5697
  568MOL0     H78374   0.383   6.614   7.781 -0.0427 -0.4323  0.8537
  568MOL0     H78375   0.456   6.519   7.901 -3.3306  2.2483  1.0698
  568MOL0     H78376   0.428   6.451   7.605  0.5363 -3.9996 -2.0083
  568MOL0     H78377   0.561   6.383   7.702 -0.1144  0.4295  1.6846
  568MOL0     H78378   0.266   6.374   7.736 -0.5359 -2.2589  2.3743
  568MOL0     H78379   0.367   6.325   7.870  0.7349 -2.2030  0.8287
  568MOL0     H78380   0.353   6.014   7.581 -3.4706 -0.0952  1.3585
  568MOL0     H78381   0.878   6.469   7.956 -1.0303  0.0033  0.3206
  568MOL0     H78382   1.094   6.438   8.077  1.0272 -1.3237 -0.6172
  568MOL0     H78383   1.226   6.530   8.021 -1.5643 -3.7738 -2.7027
  568MOL0     H78384   1.127   6.591   8.164 -2.7255 -0.2958 -0.1333
  569MOL0     O78385   4.245   2.756   9.561 -0.4851 -0.6619 -0.7894
  569MOL0     C78386   4.255   2.879   9.582  0.9964  0.2084 -0.2928
  569MOL0     O78387   4.141   2.970   9.582 -0.3284 -0.5451 -0.0071
  569MOL0     C78388   4.021   2.923   9.546  0.1800  0.0015  0.6335
  569MOL0     C78389   3.949   2.829   9.622 -0.3895 -0.3835  0.2207
  569MOL0     C78390   3.831   2.769   9.574 -0.4240  0.0489  0.1212
  569MOL0     C78391   3.776   2.801   9.448 -0.7021 -0.0093 -0.4860
  569MOL0     O78392   3.664   2.746   9.382  0.8894  0.4575  0.0918
  569MOL0     C78393   3.587   2.633   9.435  0.1465  1.0411 -0.3621
  569MOL0     C78394   3.651   2.494   9.402 -0.0328 -0.6568  0.0248
  569MOL0     C78395   3.754   2.445   9.498 -0.4901  0.3578 -0.1881
  569MOL0     C78396   3.802   2.293   9.473  0.5558 -0.5534 -0.0463
  569MOL0     C78397   3.888   2.271   9.349 -0.4989  0.7555 -0.0052
  569MOL0     C78398   3.946   2.128   9.332 -0.0758  0.8556  0.1843
  569MOL0     C78399   4.049   2.130   9.211  0.6412 -0.3252  0.4916
  569MOL0     C78400   4.137   2.010   9.220 -0.1645  0.1662 -0.3976
  569MOL0     N78401   4.243   2.012   9.116  0.7662  0.1419 -0.4193
  569MOL0     C78402   4.209   2.009   8.982  0.2741  0.2291 -0.8580
  569MOL0     C78403   4.317   2.035   8.917  0.0513 -0.6428 -0.5226
  569MOL0     C78404   4.340   2.034   8.763 -1.1277  0.3645 -0.0962
  569MOL0     C78405   4.452   1.940   8.729 -0.6054  0.4903  0.7459
  569MOL0     C78406   4.457   1.897   8.575  0.0668 -0.9674 -0.9408
  569MOL0     C78407   4.575   1.811   8.531 -0.0423  0.9749  0.0729
  569MOL0     O78408   4.702   1.878   8.532  0.2464  0.0110 -0.3523
  569MOL0     C78409   4.808   1.827   8.457  0.9827 -0.2900  0.3571
  569MOL0     C78410   4.830   1.691   8.434 -0.1380  0.2335  0.2788
  569MOL0     C78411   4.928   1.640   8.343  0.1809 -0.1438  0.3724
  569MOL0     C78412   4.936   1.490   8.324 -0.0110 -0.3278 -0.6416
  569MOL0     C78413   5.005   1.739   8.280  0.0819  0.1674  0.1724
  569MOL0     C78414   5.114   1.703   8.186 -0.3497 -0.1676 -0.0706
  569MOL0     O78415   5.115   1.582   8.117  0.1898  0.1142  0.0015
  569MOL0     C78416   5.197   1.550   8.013 -0.4714 -0.4945  0.2200
  569MOL0     C78417   5.224   1.417   7.981  0.4809  1.0299  0.0498
  569MOL0     C78418   5.304   1.389   7.871  0.3816 -0.7541 -0.2106
  569MOL0     C78419   5.357   1.490   7.783 -0.1928 -0.5306 -0.4141
  569MOL0     O78420   5.441   1.488   7.675 -0.4060 -0.0379 -0.4714
  569MOL0     C78421   5.544   1.384   7.692  0.1779  0.0655  0.1058
  569MOL0     C78422   5.666   1.394   7.600  0.1055  0.3513  0.6596
  569MOL0     C78423   5.768   1.503   7.641  0.7479 -0.1379 -0.3464
  569MOL0     C78424   5.894   1.481   7.554  0.7269 -0.3655 -0.4878
  569MOL0     C78425   6.005   1.583   7.597  0.0522  0.7610  0.2125
  569MOL0     C78426   6.118   1.575   7.491 -0.1345 -0.5046  0.0771
  569MOL0     C78427   6.236   1.647   7.555  0.3729  0.5337  0.5859
  569MOL0     C78428   6.356   1.651   7.466  0.6980 -0.1082  0.1539
  569MOL0    Cl78429   6.476   1.735   7.566 -0.0980  0.0668 -0.2053
  569MOL0     C78430   5.333   1.618   7.820 -0.6454  0.6570 -0.8137
  569MOL0     C78431   5.255   1.646   7.930  0.4005 -0.3488  0.2122
  569MOL0     O78432   5.214   1.776   8.202  0.9553 -0.2007 -0.1209
  569MOL0     C78433   4.989   1.873   8.313  0.2118  0.1394  0.6278
  569MOL0     C78434   4.892   1.919   8.397 -0.1159  0.4212 -0.9820
  569MOL0     N78435   4.419   2.040   9.010  0.0010  0.9370  0.1266
  569MOL0     N78436   4.370   2.043   9.130 -0.1797 -0.6578  0.2356
  569MOL0     C78437   3.844   2.903   9.375 -0.3209  0.4514 -0.0371
  569MOL0     C78438   3.962   2.957   9.424  0.2954 -0.3898  0.6793
  569MOL0     C78439   4.387   2.943   9.598 -0.0275 -0.2366  0.5059
  569MOL0     C78440   4.395   3.080   9.634 -0.4944 -0.1347  0.4172
  569MOL0     C78441   4.519   3.150   9.648 -0.2353 -0.8139 -0.1446
  569MOL0     C78442   4.637   3.081   9.626 -0.4071 -1.9372 -0.2770
  569MOL0     O78443   4.757   3.143   9.655  1.0774 -0.0927  0.2328
  569MOL0     C78444   4.859   3.073   9.723  0.0224 -0.8174 -0.2633
  569MOL0     C78445   4.960   3.044   9.608 -0.5779  0.7525 -0.6110
  569MOL0     C78446   5.093   2.989   9.648  0.4818  0.1374  0.0875
  569MOL0     C78447   5.173   2.963   9.518  0.3757  0.1258  0.0879
  569MOL0     C78448   5.146   2.825   9.473 -0.4455  0.0732  0.5592
  569MOL0     C78449   5.122   2.724   9.405 -0.5563  0.9135  0.5134
  569MOL0     C78450   4.623   2.948   9.591  0.0010  0.2044  0.4782
  569MOL0     C78451   4.508   2.874   9.577  0.1223 -0.1063 -0.0589
  569MOL0     C78452   4.520   2.737   9.528  0.4040  1.3410  0.5724
  569MOL0     H78453   3.989   2.802   9.719  0.8420  0.9437  0.1095
  569MOL0     H78454   3.783   2.688   9.628  2.1415 -1.3378  0.4860
  569MOL0     H78455   3.495   2.633   9.377  0.4021 -1.8042 -0.9068
  569MOL0     H78456   3.570   2.640   9.543  5.8790 -1.8234  1.1745
  569MOL0     H78457   3.564   2.428   9.401  0.0127 -0.7136 -0.4712
  569MOL0     H78458   3.673   2.489   9.295 -1.8888 -3.0967 -0.3566
  569MOL0     H78459   3.845   2.505   9.507  0.4183 -1.0456  0.2342
  569MOL0     H78460   3.707   2.456   9.597  1.1677  2.5552  0.4522
  569MOL0     H78461   3.841   2.245   9.563 -0.2487 -0.7985  0.1777
  569MOL0     H78462   3.710   2.236   9.460  1.7914 -2.7232  0.2124
  569MOL0     H78463   3.971   2.342   9.360 -0.5806  1.3371 -2.4748
  569MOL0     H78464   3.850   2.309   9.253  1.3286  0.0862 -1.0478
  569MOL0     H78465   4.003   2.102   9.422  1.1912  0.5072 -0.6822
  569MOL0     H78466   3.873   2.049   9.313  2.5447 -1.7216  0.1096
  569MOL0     H78467   4.108   2.222   9.213  1.2145 -0.6847  0.3001
  569MOL0     H78468   3.993   2.126   9.117 -0.1574 -0.3208  0.9530
  569MOL0     H78469   4.183   2.007   9.320 -1.3408  2.1707  0.2547
  569MOL0     H78470   4.076   1.920   9.213  0.3005 -0.2568  0.7059
  569MOL0     H78471   4.111   1.984   8.943 -1.1877  0.7519  2.1919
  569MOL0     H78472   4.364   2.134   8.727  0.8860  0.4692  1.3696
  569MOL0     H78473   4.246   2.000   8.719 -0.6814 -3.4679  1.5112
  569MOL0     H78474   4.546   1.989   8.754  0.1003 -0.1591 -0.5549
  569MOL0     H78475   4.443   1.847   8.786  0.6544 -1.6903 -2.3795
  569MOL0     H78476   4.366   1.843   8.549 -0.3437 -0.7135 -0.0813
  569MOL0     H78477   4.460   1.989   8.516  1.8569  0.0032  0.5580
  569MOL0     H78478   4.581   1.730   8.605  1.3602 -2.1094 -3.1561
  569MOL0     H78479   4.551   1.764   8.436  0.6175  0.2559  0.2523
  569MOL0     H78480   4.776   1.608   8.480  0.8526 -2.8621 -3.5705
  569MOL0     H78481   5.039   1.454   8.325 -0.4372 -1.6707 -1.4689
  569MOL0     H78482   4.905   1.478   8.219 -1.3275  0.3091 -0.3428
  569MOL0     H78483   4.871   1.436   8.393  0.8078  1.4160  1.5965
  569MOL0     H78484   5.188   1.331   8.037  2.2001  0.4706  0.3576
  569MOL0     H78485   5.336   1.287   7.851  1.3726 -0.6597  0.7851
  569MOL0     H78486   5.592   1.379   7.790  1.4064 -2.8738 -0.5309
  569MOL0     H78487   5.509   1.280   7.683  0.5855 -0.0307 -0.5043
  569MOL0     H78488   5.713   1.296   7.585  0.0843  0.8163 -3.9946
  569MOL0     H78489   5.634   1.416   7.498 -2.6803 -0.9745  1.1541
  569MOL0     H78490   5.789   1.499   7.748  0.3078 -1.1076 -0.2878
  569MOL0     H78491   5.726   1.603   7.627 -0.9222 -0.5292  1.4177
  569MOL0     H78492   5.863   1.500   7.451 -4.2282  0.2110  0.8073
  569MOL0     H78493   5.925   1.377   7.565  0.5541 -0.3701  0.0114
  569MOL0     H78494   5.970   1.686   7.600 -0.8603  0.4437  2.6197
  569MOL0     H78495   6.039   1.551   7.696  1.7439  1.1198 -0.2239
  569MOL0     H78496   6.087   1.611   7.393  2.0879  0.5139 -0.2946
  569MOL0     H78497   6.146   1.471   7.468  3.6673 -0.0319  1.8990
  569MOL0     H78498   6.267   1.592   7.644  2.0871 -0.0741 -0.3312
  569MOL0     H78499   6.208   1.752   7.572  1.4090  1.2186 -1.4971
  569MOL0     H78500   6.338   1.703   7.372 -1.1497 -2.6557 -1.0048
  569MOL0     H78501   6.386   1.548   7.447  0.0409 -0.6034  1.6592
  569MOL0     H78502   5.376   1.700   7.763 -0.9650  1.5591  0.1913
  569MOL0     H78503   5.245   1.751   7.955  5.7763  1.1548 -2.3981
  569MOL0     H78504   5.039   1.956   8.265 -1.1589  1.3311  1.1975
  569MOL0     H78505   4.884   2.026   8.408  2.0134  0.3575  2.5915
  569MOL0     H78506   3.811   2.939   9.279 -1.4643 -1.4457 -0.3984
  569MOL0     H78507   4.005   3.032   9.359  1.7831 -0.8928  1.0517
  569MOL0     H78508   4.303   3.138   9.630 -0.3795 -0.0176 -1.4860
  569MOL0     H78509   4.521   3.254   9.680  1.3745 -1.0787  0.7375
  569MOL0     H78510   4.901   3.144   9.794 -0.1484 -1.8902  0.9462
  569MOL0     H78511   4.831   2.988   9.786 -0.4175  0.5073  1.3857
  569MOL0     H78512   4.958   3.132   9.543  0.2936  1.1141 -0.1674
  569MOL0     H78513   4.909   2.968   9.547 -1.3886 -0.4937  1.5102
  569MOL0     H78514   5.142   3.071   9.701  0.9135  0.5090 -0.8667
  569MOL0     H78515   5.082   2.897   9.707 -2.4686 -0.1466 -0.7515
  569MOL0     H78516   5.280   2.969   9.541  1.0729  0.3263 -2.8117
  569MOL0     H78517   5.158   3.031   9.434  0.9111  0.1449 -0.0002
  569MOL0     H78518   5.099   2.637   9.347 -0.6510  2.0131 -1.1582
  569MOL0     H78519   4.710   2.891   9.563 -2.1144 -2.5056 -1.1005
  569MOL0     H78520   4.489   2.735   9.423 -2.2941  2.2616  1.2813
  569MOL0     H78521   4.620   2.693   9.533 -1.0213 -2.3020  0.3008
  569MOL0     H78522   4.461   2.671   9.593 -0.5577  0.8230 -0.7635
  570MOL0     O78523   7.756   8.101   0.371 -0.0517 -0.6785  0.3951
  570MOL0     C78524   7.637   8.068   0.357  0.4430  0.3174  0.5238
  570MOL0     O78525   7.575   7.957   0.409  0.0226 -0.6175 -0.2181
  570MOL0     C78526   7.625   7.914   0.528  0.4496 -0.3899  0.2821
  570MOL0     C78527   7.674   7.783   0.542 -0.3344  0.7632 -0.7480
  570MOL0     C78528   7.715   7.735   0.660  0.5526  0.3394  0.2054
  570MOL0     C78529   7.739   7.822   0.769 -0.1435 -0.2238 -0.5523
  570MOL0     O78530   7.805   7.775   0.880 -0.0245  0.2638 -0.8708
  570MOL0     C78531   7.922   7.851   0.920 -0.4679  0.1603  0.4022
  570MOL0     C78532   7.903   7.893   1.071  0.4571 -0.0164 -0.6152
  570MOL0     C78533   7.824   7.800   1.161  0.5901  0.0309 -1.0436
  570MOL0     C78534   7.893   7.675   1.185 -0.6503 -0.0518 -0.4384
  570MOL0     C78535   7.807   7.581   1.270  0.7023 -0.2289  0.0238
  570MOL0     C78536   7.845   7.437   1.276 -0.5002 -0.7500  0.0965
  570MOL0     C78537   7.996   7.426   1.332  0.5502 -0.3622 -0.1570
  570MOL0     C78538   8.013   7.281   1.390 -0.0790 -0.3580 -0.0056
  570MOL0     N78539   7.992   7.167   1.291 -0.7063  0.6234  0.3309
  570MOL0     C78540   7.912   7.060   1.313  0.1147  0.0836 -0.2651
  570MOL0     C78541   7.899   6.985   1.195 -0.2220  0.2618  0.4528
  570MOL0     C78542   7.812   6.863   1.156  0.7275 -1.5165  0.2198
  570MOL0     C78543   7.807   6.829   1.004 -0.7279  0.2027  0.6777
  570MOL0     C78544   7.702   6.717   0.990  0.1774  0.1790  0.4115
  570MOL0     C78545   7.729   6.594   1.078  0.7552  1.1998  0.3245
  570MOL0     O78546   7.635   6.487   1.036  0.4146 -0.2224  0.4477
  570MOL0     C78547   7.509   6.468   1.084  0.2743 -0.2717 -0.3918
  570MOL0     C78548   7.443   6.558   1.168 -0.1057 -0.7337  1.4503
  570MOL0     C78549   7.312   6.542   1.218  0.2853  0.9152 -0.1158
  570MOL0     C78550   7.258   6.655   1.300 -0.3136  0.1743 -0.1399
  570MOL0     C78551   7.233   6.430   1.165  0.2858 -0.2376 -0.0685
  570MOL0     C78552   7.077   6.415   1.164 -0.8353  0.3413  0.2140
  570MOL0     O78553   7.029   6.316   1.087  0.3569 -0.3937  0.1820
  570MOL0     C78554   6.899   6.277   1.088 -0.7243 -0.4313 -0.4563
  570MOL0     C78555   6.834   6.259   0.966  0.6999  0.7050  0.8814
  570MOL0     C78556   6.698   6.229   0.963 -0.7048  1.1334  0.5690
  570MOL0     C78557   6.627   6.211   1.072  0.0330 -0.2130 -0.1145
  570MOL0     O78558   6.492   6.216   1.035 -0.2771  0.2129 -0.0254
  570MOL0     C78559   6.398   6.246   1.138 -0.3723 -1.1382 -0.3005
  570MOL0     C78560   6.268   6.197   1.091 -0.3895  0.1525 -0.5122
  570MOL0     C78561   6.197   6.287   0.995 -0.2355 -0.7159  0.5958
  570MOL0     C78562   6.080   6.207   0.915  0.9525 -0.7381  0.4316
  570MOL0     C78563   5.988   6.302   0.836 -0.5341 -0.7420 -0.6746
  570MOL0     C78564   5.912   6.418   0.909 -0.3790  0.1388  0.3307
  570MOL0     C78565   5.838   6.375   1.040 -0.6038 -0.1262  0.0357
  570MOL0     C78566   5.719   6.287   1.019  0.4509 -0.0485  0.2379
  570MOL0    Cl78567   5.664   6.238   1.184 -0.3374 -0.3459 -0.1730
  570MOL0     C78568   6.690   6.215   1.203  0.3768  0.7515  0.7368
  570MOL0     C78569   6.826   6.256   1.205 -0.1141  0.4634  0.5273
  570MOL0     O78570   7.016   6.497   1.229 -0.0328  0.0596 -0.2677
  570MOL0     C78571   7.305   6.328   1.094  0.3608 -0.0175 -0.3374
  570MOL0     C78572   7.439   6.344   1.054  0.0621 -0.9142  0.0896
  570MOL0     N78573   7.974   7.055   1.102 -0.5444 -0.0518 -0.9518
  570MOL0     N78574   8.031   7.159   1.158 -0.0624 -0.0420  0.1111
  570MOL0     C78575   7.705   7.956   0.750 -0.9435 -0.4994 -0.5608
  570MOL0     C78576   7.637   8.002   0.641 -0.1644 -0.2428  0.4561
  570MOL0     C78577   7.548   8.154   0.287 -0.0410 -0.1096  0.8575
  570MOL0     C78578   7.402   8.139   0.319 -0.6259  1.0628  0.2166
  570MOL0     C78579   7.315   8.227   0.254 -0.2993  0.3795 -0.1453
  570MOL0     C78580   7.356   8.327   0.167  0.1458  0.2017 -0.3543
  570MOL0     O78581   7.265   8.414   0.103  0.6264 -0.6976 -0.5317
  570MOL0     C78582   7.121   8.425   0.148 -0.1523 -0.8686  0.4950
  570MOL0     C78583   7.127   8.503   0.285  0.3380 -0.4040  0.5192
  570MOL0     C78584   7.173   8.650   0.253 -0.0436  0.0535  0.1266
  570MOL0     C78585   7.146   8.726   0.377  0.3727  0.0055  0.2096
  570MOL0     C78586   7.208   8.856   0.356 -0.4535 -0.7621 -0.7426
  570MOL0     C78587   7.245   8.967   0.345 -0.1377 -0.6051 -0.1451
  570MOL0     C78588   7.493   8.340   0.138 -0.4431 -0.7315  0.7084
  570MOL0     C78589   7.589   8.258   0.196 -0.3974  0.4457  1.3798
  570MOL0     C78590   7.731   8.284   0.152  0.6042  0.4266  0.4220
  570MOL0     H78591   7.674   7.710   0.461  0.1098  1.5077 -1.4360
  570MOL0     H78592   7.753   7.633   0.665  3.1050  1.2417  0.9055
  570MOL0     H78593   7.951   7.932   0.851 -3.2794  0.5935 -0.3711
  570MOL0     H78594   8.015   7.794   0.914 -0.0949  0.7978 -0.1013
  570MOL0     H78595   7.999   7.900   1.121 -0.9326  1.1227  2.0731
  570MOL0     H78596   7.851   7.989   1.072 -0.2385 -0.3579  1.9623
  570MOL0     H78597   7.809   7.853   1.255 -0.6160  1.9187 -2.2388
  570MOL0     H78598   7.719   7.792   1.130 -0.3664  2.2287  1.2235
  570MOL0     H78599   7.894   7.617   1.092 -0.0852  2.0217 -1.7975
  570MOL0     H78600   7.992   7.697   1.225 -0.1595 -0.4849 -1.3753
  570MOL0     H78601   7.705   7.577   1.230 -1.1130 -0.1772  4.1136
  570MOL0     H78602   7.792   7.628   1.368  0.2533  3.2506 -1.5634
  570MOL0     H78603   7.773   7.378   1.335  0.8174 -1.4613  1.0636
  570MOL0     H78604   7.844   7.405   1.171  0.0426 -0.7250  0.0840
  570MOL0     H78605   8.015   7.497   1.413 -0.7074  1.3592 -1.3001
  570MOL0     H78606   8.062   7.440   1.246 -0.8369  2.5977 -0.8698
  570MOL0     H78607   8.116   7.271   1.426  0.0310 -0.3416 -0.3086
  570MOL0     H78608   7.938   7.267   1.469 -0.8964  1.1706 -0.4593
  570MOL0     H78609   7.861   7.031   1.404  1.0992  0.7604  0.5201
  570MOL0     H78610   7.710   6.886   1.190  0.3409 -0.0142 -1.7622
  570MOL0     H78611   7.857   6.777   1.207  1.6464 -1.6538 -0.8082
  570MOL0     H78612   7.787   6.922   0.949  3.3005  1.0087  0.2438
  570MOL0     H78613   7.903   6.795   0.963 -1.2494  1.5046 -1.8445
  570MOL0     H78614   7.601   6.754   1.005  0.2074  1.0594 -1.2881
  570MOL0     H78615   7.701   6.683   0.885 -1.9253  1.1717  0.0603
  570MOL0     H78616   7.831   6.562   1.055  0.4384 -0.6564  1.2951
  570MOL0     H78617   7.722   6.613   1.186 -1.5043  2.8228 -0.0409
  570MOL0     H78618   7.503   6.644   1.195  0.3460 -0.6789  0.3355
  570MOL0     H78619   7.176   6.705   1.247  0.4319  0.2804 -1.2135
  570MOL0     H78620   7.330   6.729   1.335 -1.7024  0.7568  1.6879
  570MOL0     H78621   7.221   6.606   1.391  0.0934 -0.4628 -0.3143
  570MOL0     H78622   6.890   6.270   0.874  1.1347  1.3336  1.2085
  570MOL0     H78623   6.651   6.217   0.866 -0.0216  2.3917  0.0473
  570MOL0     H78624   6.414   6.198   1.235 -4.0996 -2.0354  0.0273
  570MOL0     H78625   6.391   6.354   1.150  1.6779 -0.6006 -2.9031
  570MOL0     H78626   6.281   6.096   1.051 -0.3882  0.5530 -1.5444
  570MOL0     H78627   6.208   6.181   1.182 -1.2124 -1.7598 -1.3192
  570MOL0     H78628   6.272   6.335   0.932  0.3548 -0.2777  1.6173
  570MOL0     H78629   6.144   6.365   1.049  0.1082 -0.6586  0.8499
  570MOL0     H78630   6.026   6.139   0.982 -0.1097  0.3727  0.7282
  570MOL0     H78631   6.129   6.147   0.838  1.4841  0.6486 -0.3286
  570MOL0     H78632   6.059   6.340   0.762  0.9893 -1.8420  0.1637
  570MOL0     H78633   5.923   6.246   0.768  3.2566 -5.4254 -0.9494
  570MOL0     H78634   5.857   6.474   0.833 -0.4339 -0.2053  0.1151
  570MOL0     H78635   5.978   6.500   0.937  1.9783 -0.8448 -1.9097
  570MOL0     H78636   5.796   6.464   1.087 -1.5965 -0.2158 -0.6483
  570MOL0     H78637   5.910   6.329   1.107  1.1015  0.5198 -1.2825
  570MOL0     H78638   5.751   6.196   0.968  0.3149 -0.9285  1.6514
  570MOL0     H78639   5.640   6.333   0.959 -0.0692 -0.0867  0.8781
  570MOL0     H78640   6.639   6.198   1.298 -1.6785  1.7545 -0.1256
  570MOL0     H78641   6.874   6.274   1.301 -2.4817 -1.9218  2.3338
  570MOL0     H78642   7.246   6.242   1.064 -0.2008  0.5861 -1.0328
  570MOL0     H78643   7.486   6.273   0.987  0.3837  0.7244 -1.4885
  570MOL0     H78644   7.720   8.014   0.840  1.5603 -1.1226 -0.4848
  570MOL0     H78645   7.608   8.106   0.632 -0.0157 -0.2590 -0.2733
  570MOL0     H78646   7.362   8.066   0.388  2.6563 -0.4463  0.6908
  570MOL0     H78647   7.212   8.241   0.284 -1.2154 -1.0828 -2.3435
  570MOL0     H78648   7.058   8.476   0.074 -0.1171 -2.6212 -0.8132
  570MOL0     H78649   7.080   8.324   0.159  0.6056 -1.3152 -0.6650
  570MOL0     H78650   7.199   8.460   0.354  0.3349 -0.5122  0.4546
  570MOL0     H78651   7.027   8.511   0.328 -0.0770 -0.5403 -0.3873
  570MOL0     H78652   7.279   8.652   0.225  0.2538  0.2382  1.2240
  570MOL0     H78653   7.111   8.695   0.175  1.3394  3.5599  0.8719
  570MOL0     H78654   7.187   8.678   0.467  2.1166 -1.9898 -1.5212
  570MOL0     H78655   7.037   8.726   0.383  0.3508 -2.2967  0.6337
  570MOL0     H78656   7.269   9.071   0.335  1.2947 -0.8052  0.9361
  570MOL0     H78657   7.512   8.433   0.085 -0.1852 -0.6771  0.8943
  570MOL0     H78658   7.742   8.333   0.055 -0.2124  1.1120  0.6681
  570MOL0     H78659   7.782   8.344   0.228 -0.0496 -1.1077  2.1548
  570MOL0     H78660   7.789   8.192   0.138 -1.3933 -0.6772 -1.2538
  571MOL0     O78661   7.978   8.287   4.120  0.1426  0.0369  0.6956
  571MOL0     C78662   7.955   8.186   4.061  0.1843  0.4769 -0.3117
  571MOL0     O78663   8.047   8.111   3.987 -0.6555  0.5011 -0.0230
  571MOL0     C78664   8.180   8.115   4.024 -0.4418 -0.1755  0.0813
  571MOL0     C78665   8.228   8.160   4.146  0.2789  0.3702 -1.2537
  571MOL0     C78666   8.373   8.162   4.174 -0.4250  0.5933  0.6943
  571MOL0     C78667   8.467   8.123   4.072 -0.6004  0.9869  0.5669
  571MOL0     O78668   8.611   8.122   4.087  0.4975 -0.5327  0.6447
  571MOL0     C78669   8.676   8.206   4.183  0.1041 -0.4391 -0.4405
  571MOL0     C78670   8.822   8.224   4.129 -0.0188 -0.1391 -0.0647
  571MOL0     C78671   8.850   8.359   4.054  0.9995 -0.3730 -0.3779
  571MOL0     C78672   8.982   8.354   3.969  0.7474  0.2389 -0.4673
  571MOL0     C78673   8.978   8.245   3.851  0.1424 -0.1934 -0.1406
  571MOL0     C78674   9.084   8.288   3.745 -0.5492 -0.4156  0.4134
  571MOL0     C78675   9.224   8.263   3.801 -0.8724  0.1850 -0.1977
  571MOL0     C78676   9.301   8.193   3.689 -0.2555 -0.4333 -0.2763
  571MOL0     N78677   9.448   8.188   3.703  0.6570 -0.0116 -0.0668
  571MOL0     C78678   9.522   8.072   3.741  0.0243 -0.5608 -0.1573
  571MOL0     C78679   9.646   8.128   3.765  0.6698  0.5269 -0.0149
  571MOL0     C78680   9.766   8.062   3.816 -0.5215  0.3660 -0.7277
  571MOL0     C78681   9.840   7.979   3.708  0.4313  1.0493  0.5563
  571MOL0     C78682   9.781   7.853   3.668 -0.0522 -0.1950 -0.6889
  571MOL0     C78683   9.752   7.743   3.781 -0.1201 -0.0338  0.4360
  571MOL0     O78684   9.858   7.704   3.873  0.1421  0.3972  0.2300
  571MOL0     C78685   9.969   7.630   3.833  0.3383 -1.0560 -0.4427
  571MOL0     C78686  10.063   7.615   3.935 -0.3912 -0.8376 -0.6998
  571MOL0     C78687  10.174   7.530   3.929 -0.8206 -0.3057 -0.5252
  571MOL0     C78688  10.262   7.527   4.053  0.1910 -0.0284  1.7533
  571MOL0     C78689  10.194   7.471   3.802  0.3312  0.5363  0.0215
  571MOL0     C78690  10.318   7.385   3.778  0.5471  0.2847 -0.0049
  571MOL0     O78691  10.316   7.313   3.662  0.5000  0.1009 -0.2507
  571MOL0     C78692  10.411   7.222   3.626  0.9464  0.2610 -0.2027
  571MOL0     C78693  10.543   7.236   3.664  1.1319 -1.1627  0.5977
  571MOL0     C78694  10.637   7.150   3.612  0.3248  0.0793  1.0697
  571MOL0     C78695  10.603   7.047   3.523 -0.9786  0.0411  1.0100
  571MOL0     O78696  10.680   6.947   3.468  0.2753 -0.2681 -0.6489
  571MOL0     C78697  10.820   6.957   3.480 -0.2337 -0.2265 -0.4908
  571MOL0     C78698  10.875   6.846   3.389 -0.0365 -0.1062  0.7181
  571MOL0     C78699  11.033   6.834   3.388  0.7005 -0.4886  0.1786
  571MOL0     C78700  11.079   6.740   3.277  0.1961 -0.0980  0.3951
  571MOL0     C78701  11.230   6.696   3.283 -0.6364  0.0284 -0.3524
  571MOL0     C78702  11.270   6.608   3.399 -0.1808 -0.2381  0.1308
  571MOL0     C78703  11.394   6.530   3.360 -0.7543  0.0821 -0.5837
  571MOL0     C78704  11.454   6.455   3.477 -0.2543 -0.9229 -0.5902
  571MOL0    Cl78705  11.337   6.361   3.550  0.1807  0.2019  0.0559
  571MOL0     C78706  10.473   7.032   3.488  0.0855  0.4919  0.4507
  571MOL0     C78707  10.376   7.124   3.535  0.2678  0.0044 -0.3911
  571MOL0     O78708  10.409   7.385   3.861  0.6264  0.8143 -0.0853
  571MOL0     C78709  10.099   7.489   3.695  0.6835 -0.0182 -0.1189
  571MOL0     C78710   9.984   7.570   3.711  0.2864  1.2391  0.8828
  571MOL0     N78711   9.643   8.264   3.731  0.4739  1.1749  0.4469
  571MOL0     N78712   9.528   8.300   3.687  0.6538  1.0366 -0.8137
  571MOL0     C78713   8.408   8.076   3.947 -0.6243 -0.4776 -1.4526
  571MOL0     C78714   8.272   8.064   3.932  0.2268 -1.3546  0.7484
  571MOL0     C78715   7.832   8.128   4.101  0.5533  0.7072  0.2764
  571MOL0     C78716   7.802   8.003   4.054  0.5353  0.2725  0.5780
  571MOL0     C78717   7.678   7.929   4.080 -0.1856  0.2642 -0.8443
  571MOL0     C78718   7.587   7.980   4.173  0.1443 -0.8131 -0.2330
  571MOL0     O78719   7.480   7.912   4.219  0.3074  0.0030 -0.2403
  571MOL0     C78720   7.351   7.977   4.252 -0.2653 -0.0712 -0.4905
  571MOL0     C78721   7.290   8.044   4.128 -0.7813  0.8908  0.1121
  571MOL0     C78722   7.153   8.102   4.150  0.5403 -0.7276  0.3053
  571MOL0     C78723   7.145   8.236   4.221 -0.8203 -0.3025  0.1991
  571MOL0     C78724   7.005   8.263   4.234 -0.2731 -0.5651 -0.8655
  571MOL0     C78725   6.884   8.296   4.258 -0.0812 -0.0227  1.0452
  571MOL0     C78726   7.617   8.108   4.222  0.5516 -0.4959 -0.1140
  571MOL0     C78727   7.727   8.182   4.187  0.1409 -0.3501 -0.2008
  571MOL0     C78728   7.735   8.319   4.257 -0.3416 -0.6410  0.6917
  571MOL0     H78729   8.160   8.191   4.225 -0.6469 -0.7445 -1.5888
  571MOL0     H78730   8.415   8.187   4.271 -1.7156 -2.5270  2.2351
  571MOL0     H78731   8.679   8.154   4.279  2.9489  1.4690  0.6405
  571MOL0     H78732   8.622   8.301   4.180  0.4657 -0.2168 -0.0240
  571MOL0     H78733   8.880   8.224   4.222 -1.9750  0.3798  1.2267
  571MOL0     H78734   8.843   8.138   4.065 -3.7394 -0.2473 -1.3704
  571MOL0     H78735   8.779   8.376   3.974  3.4596  0.2556 -2.5599
  571MOL0     H78736   8.838   8.445   4.121 -2.9132 -1.6502  0.8357
  571MOL0     H78737   8.999   8.451   3.921  2.0247  0.0857 -0.3376
  571MOL0     H78738   9.068   8.330   4.032  0.0992  2.7101  1.5335
  571MOL0     H78739   8.881   8.247   3.801  0.4736 -0.5442 -0.8124
  571MOL0     H78740   8.991   8.146   3.896 -1.2521 -0.6430 -0.6779
  571MOL0     H78741   9.074   8.218   3.662 -0.1269  1.4907 -1.3080
  571MOL0     H78742   9.069   8.385   3.698 -1.7123 -1.9496 -2.6310
  571MOL0     H78743   9.235   8.203   3.892  2.2521  0.1225 -0.5085
  571MOL0     H78744   9.274   8.358   3.822 -1.9808  0.4565  1.4462
  571MOL0     H78745   9.270   8.088   3.682 -0.2842 -0.4615  0.2681
  571MOL0     H78746   9.269   8.238   3.594 -0.7173 -2.8797 -1.3521
  571MOL0     H78747   9.484   7.971   3.753 -0.3406 -0.3767  0.3340
  571MOL0     H78748   9.734   8.002   3.902  0.2551  2.8839  1.4460
  571MOL0     H78749   9.829   8.145   3.850  0.0545  0.2106 -1.3956
  571MOL0     H78750   9.868   8.034   3.618  2.4917 -0.1904  0.3856
  571MOL0     H78751   9.939   7.952   3.748  0.9196 -0.3597 -1.4886
  571MOL0     H78752   9.685   7.865   3.618 -0.8296 -0.4592  0.7120
  571MOL0     H78753   9.846   7.811   3.589  0.1948 -0.5825 -0.2862
  571MOL0     H78754   9.675   7.784   3.847 -0.2304  1.9075 -0.8131
  571MOL0     H78755   9.717   7.649   3.735  0.7494 -0.4727  0.6578
  571MOL0     H78756  10.043   7.674   4.024  0.0462 -1.6217 -0.0694
  571MOL0     H78757  10.222   7.583   4.139 -0.1620  1.8107  0.4519
  571MOL0     H78758  10.364   7.564   4.040  0.1279 -0.9553 -3.0322
  571MOL0     H78759  10.259   7.420   4.076 -0.8207 -1.0267 -2.2945
  571MOL0     H78760  10.576   7.317   3.728  0.0306 -1.8769  2.1378
  571MOL0     H78761  10.740   7.164   3.641  0.1352  2.6769  0.7208
  571MOL0     H78762  10.855   7.052   3.439 -1.6551  1.5632  2.1499
  571MOL0     H78763  10.859   6.957   3.583  1.1306 -1.8952 -0.9549
  571MOL0     H78764  10.834   6.751   3.424  1.5778 -0.9795  0.3015
  571MOL0     H78765  10.835   6.863   3.289 -1.7602  0.2464  1.4286
  571MOL0     H78766  11.080   6.809   3.484  2.8172 -1.9721 -1.1523
  571MOL0     H78767  11.080   6.931   3.369  0.6424 -0.7920 -1.7362
  571MOL0     H78768  11.069   6.796   3.184 -3.5988 -0.2287  0.5756
  571MOL0     H78769  11.026   6.644   3.274  1.4066 -0.7458 -1.7324
  571MOL0     H78770  11.252   6.644   3.190  0.3402  2.4855 -1.5755
  571MOL0     H78771  11.302   6.778   3.280  1.0573 -1.3421  0.7854
  571MOL0     H78772  11.183   6.543   3.414  1.0079 -2.1518 -0.7677
  571MOL0     H78773  11.271   6.663   3.493 -4.6308 -0.8823  0.7700
  571MOL0     H78774  11.468   6.599   3.319 -0.4043 -1.2799 -2.3836
  571MOL0     H78775  11.368   6.451   3.289 -1.6036 -2.8410  2.7210
  571MOL0     H78776  11.485   6.535   3.545 -0.1348  0.7608 -2.5334
  571MOL0     H78777  11.545   6.405   3.445 -0.9200 -1.3297 -1.9128
  571MOL0     H78778  10.434   6.951   3.428 -0.1513 -1.1667  2.7472
  571MOL0     H78779  10.273   7.112   3.502  0.4724 -4.1752 -0.0693
  571MOL0     H78780  10.112   7.441   3.599  1.4134  1.6524 -0.9104
  571MOL0     H78781   9.908   7.568   3.634 -3.2202 -0.9148  4.0405
  571MOL0     H78782   8.485   8.063   3.873  0.9611 -0.1699  0.0717
  571MOL0     H78783   8.231   8.034   3.836 -0.8511  0.1568  0.6975
  571MOL0     H78784   7.876   7.942   4.004 -0.4218 -0.8633  0.4865
  571MOL0     H78785   7.657   7.829   4.042  1.8845  0.0532 -1.5481
  571MOL0     H78786   7.283   7.901   4.292 -0.0861  0.7431  1.4399
  571MOL0     H78787   7.368   8.051   4.330 -1.3014  1.6590 -1.8285
  571MOL0     H78788   7.301   7.987   4.036  3.6423 -0.7645  1.4112
  571MOL0     H78789   7.353   8.131   4.105 -0.4982  0.0133 -2.8069
  571MOL0     H78790   7.112   8.107   4.048 -0.4984 -1.4959  0.6680
  571MOL0     H78791   7.087   8.034   4.204 -2.6891  2.7994  1.2638
  571MOL0     H78792   7.208   8.300   4.159  2.2736  0.0612  3.3909
  571MOL0     H78793   7.191   8.248   4.319 -1.3222  0.0882  0.3951
  571MOL0     H78794   6.782   8.317   4.285 -0.1314 -0.8745  1.5649
  571MOL0     H78795   7.545   8.159   4.287  0.6200  2.0118 -1.8566
  571MOL0     H78796   7.747   8.399   4.184 -1.4041 -1.2083 -0.1440
  571MOL0     H78797   7.641   8.348   4.306 -0.8674  1.3612 -1.3431
  571MOL0     H78798   7.817   8.322   4.329  1.3503 -1.1009 -1.1412
  572MOL0     O78799   8.708   5.311   3.502  0.4959 -1.1256 -0.1881
  572MOL0     C78800   8.703   5.348   3.622  0.1139 -0.2892  0.4986
  572MOL0     O78801   8.796   5.422   3.690 -0.4772  0.9125 -0.6298
  572MOL0     C78802   8.903   5.454   3.606 -0.0545  0.1175  0.5711
  572MOL0     C78803   9.005   5.365   3.575 -0.5718  0.4250 -0.3486
  572MOL0     C78804   9.121   5.406   3.498  0.0402 -0.1144 -0.2176
  572MOL0     C78805   9.121   5.535   3.440  0.3582  0.4532  1.3625
  572MOL0     O78806   9.227   5.589   3.376 -0.3316  0.3882 -0.3487
  572MOL0     C78807   9.318   5.496   3.318  0.3718  0.2106  0.1026
  572MOL0     C78808   9.419   5.584   3.237 -0.5165  0.1859  0.2988
  572MOL0     C78809   9.526   5.666   3.330  0.5800 -0.4304  0.8762
  572MOL0     C78810   9.612   5.774   3.250  0.8727  0.7580  0.7927
  572MOL0     C78811   9.717   5.844   3.339  0.2345 -0.3057  0.0667
  572MOL0     C78812   9.839   5.755   3.369  0.1854  0.4941 -0.8052
  572MOL0     C78813   9.952   5.831   3.430  0.3494 -0.0815 -0.7941
  572MOL0     C78814  10.031   5.907   3.321  0.2480  0.6494 -0.6388
  572MOL0     N78815  10.140   5.825   3.260  0.3950 -0.4657 -0.7573
  572MOL0     C78816  10.249   5.773   3.331  1.1983 -0.2756 -0.1556
  572MOL0     C78817  10.317   5.719   3.226 -0.9174  0.1683 -0.8593
  572MOL0     C78818  10.459   5.678   3.247 -0.2379 -0.1971 -0.2867
  572MOL0     C78819  10.534   5.651   3.119  0.5677  0.5866 -0.0380
  572MOL0     C78820  10.494   5.510   3.063  0.3697  0.5773  0.3002
  572MOL0     C78821  10.538   5.495   2.919 -0.2625  0.0583 -0.3661
  572MOL0     O78822  10.681   5.514   2.904 -0.3922 -0.0859 -0.2102
  572MOL0     C78823  10.734   5.417   2.823 -0.2760  0.7032  0.4982
  572MOL0     C78824  10.822   5.317   2.882 -0.5094 -1.1355  0.9840
  572MOL0     C78825  10.877   5.209   2.810 -0.3109  0.3032 -0.0773
  572MOL0     C78826  10.952   5.099   2.887  0.0312 -0.1143 -0.2281
  572MOL0     C78827  10.872   5.219   2.669 -0.0149  0.6983  0.5671
  572MOL0     C78828  10.940   5.136   2.573  0.0821  0.5792 -0.2187
  572MOL0     O78829  11.055   5.080   2.618 -0.2469 -0.0002  0.3793
  572MOL0     C78830  11.153   5.034   2.531  0.5465 -1.0846 -0.9655
  572MOL0     C78831  11.276   5.089   2.560 -0.7636 -0.1856 -0.2000
  572MOL0     C78832  11.384   5.067   2.468  0.7389 -0.3434  0.1513
  572MOL0     C78833  11.367   4.984   2.361  0.0529  0.5141 -0.0623
  572MOL0     O78834  11.458   4.958   2.261  0.4707  0.4896  0.4100
  572MOL0     C78835  11.592   4.933   2.310  0.3107 -0.3425  1.3761
  572MOL0     C78836  11.669   4.881   2.181 -0.1183 -0.1389  0.0237
  572MOL0     C78837  11.817   4.839   2.210  0.0682 -0.8666  0.4868
  572MOL0     C78838  11.909   4.959   2.205 -0.4409 -0.0329 -0.5451
  572MOL0     C78839  12.030   4.951   2.104 -0.7707 -0.7469  0.5359
  572MOL0     C78840  12.135   4.844   2.158 -0.0571 -0.7497  0.6125
  572MOL0     C78841  12.251   4.856   2.063 -0.3282  0.7359  0.6840
  572MOL0     C78842  12.367   4.774   2.091  0.1502 -0.4287  0.4242
  572MOL0    Cl78843  12.418   4.786   2.263  0.4924 -0.4144 -0.0936
  572MOL0     C78844  11.239   4.924   2.339 -0.2694 -0.2516  0.3965
  572MOL0     C78845  11.134   4.954   2.425 -0.0795 -0.4237  0.0506
  572MOL0     O78846  10.896   5.137   2.459  0.2481  0.0508 -0.1462
  572MOL0     C78847  10.788   5.324   2.619  0.7776  0.1650 -0.3807
  572MOL0     C78848  10.713   5.415   2.691 -0.0675  0.5528  0.0875
  572MOL0     N78849  10.252   5.745   3.104 -0.3682 -0.0382  0.0400
  572MOL0     N78850  10.146   5.806   3.132  0.0133 -0.9909  0.2537
  572MOL0     C78851   9.007   5.617   3.461  0.1957  0.0766 -0.7242
  572MOL0     C78852   8.909   5.586   3.558  0.6732  1.0723  0.8197
  572MOL0     C78853   8.572   5.316   3.682 -0.6372 -1.2239 -0.0580
  572MOL0     C78854   8.457   5.358   3.607  0.2273 -0.0540  0.0232
  572MOL0     C78855   8.329   5.351   3.664 -0.4570 -0.0551  0.5505
  572MOL0     C78856   8.314   5.275   3.780 -0.1208 -0.2233  0.4023
  572MOL0     O78857   8.184   5.271   3.813  0.3618 -0.0036 -0.3852
  572MOL0     C78858   8.139   5.187   3.920  0.0412 -0.5209 -0.0998
  572MOL0     C78859   7.989   5.193   3.923  0.7343 -0.2420 -0.6693
  572MOL0     C78860   7.928   5.338   3.957  0.2494 -1.0437 -0.6006
  572MOL0     C78861   7.895   5.351   4.109  0.6611 -0.9454  0.6141
  572MOL0     C78862   7.999   5.316   4.206 -0.3804  0.6756 -0.1249
  572MOL0     C78863   8.085   5.297   4.292  0.8887  0.1634 -0.3472
  572MOL0     C78864   8.423   5.223   3.851  1.1340  0.3068  0.7895
  572MOL0     C78865   8.549   5.251   3.807 -0.1086  0.2598  0.2612
  572MOL0     C78866   8.660   5.175   3.885  0.3660 -0.1143  0.0984
  572MOL0     H78867   9.009   5.268   3.624  1.2406  0.4736 -0.3175
  572MOL0     H78868   9.203   5.336   3.481  0.3544  0.0133  0.7051
  572MOL0     H78869   9.279   5.420   3.249  2.8558  0.9338 -2.2800
  572MOL0     H78870   9.369   5.441   3.398 -0.1169  1.2165  1.1254
  572MOL0     H78871   9.473   5.520   3.167  0.4198  2.3263 -1.0456
  572MOL0     H78872   9.363   5.644   3.165  3.3618 -2.1515 -5.3072
  572MOL0     H78873   9.479   5.713   3.417 -1.4259  2.3924 -1.5465
  572MOL0     H78874   9.590   5.592   3.381 -2.2643 -1.8002  2.7156
  572MOL0     H78875   9.667   5.720   3.172 -1.6040  1.0662 -1.3041
  572MOL0     H78876   9.544   5.843   3.199 -0.6899 -1.8424 -0.8912
  572MOL0     H78877   9.679   5.893   3.429  0.9761  2.9650 -1.2414
  572MOL0     H78878   9.748   5.931   3.281 -0.8899 -0.8614 -1.4536
  572MOL0     H78879   9.801   5.690   3.449 -0.5100  2.0021  0.1378
  572MOL0     H78880   9.883   5.701   3.284  1.2397  0.4175 -0.2197
  572MOL0     H78881  10.016   5.765   3.490 -0.2610 -0.1507 -0.2152
  572MOL0     H78882   9.904   5.903   3.496  2.1701  0.1984  0.3158
  572MOL0     H78883   9.972   5.949   3.238  1.2680  2.2113 -0.5944
  572MOL0     H78884  10.074   5.992   3.374  1.0055 -0.4140  0.5090
  572MOL0     H78885  10.262   5.786   3.438 -0.7637  1.1859 -0.0416
  572MOL0     H78886  10.448   5.591   3.311 -2.7208 -0.6844 -1.2249
  572MOL0     H78887  10.505   5.760   3.303 -0.0367 -0.3831 -0.1788
  572MOL0     H78888  10.515   5.725   3.040 -3.3529 -1.0887 -0.9109
  572MOL0     H78889  10.642   5.656   3.135  0.4411 -1.1581  1.6540
  572MOL0     H78890  10.543   5.424   3.110 -1.4291 -1.4211 -1.3270
  572MOL0     H78891  10.386   5.501   3.051  0.7132 -3.0578 -1.5423
  572MOL0     H78892  10.500   5.406   2.866  2.5931 -0.9197 -0.9566
  572MOL0     H78893  10.500   5.581   2.864  1.6604  2.1001  1.3331
  572MOL0     H78894  10.843   5.304   2.988 -1.6829 -1.4804  1.1924
  572MOL0     H78895  10.936   5.001   2.841 -0.6462 -0.8348  1.4724
  572MOL0     H78896  10.911   5.086   2.987  0.8770  1.3416  0.3446
  572MOL0     H78897  11.054   5.137   2.899  0.0362 -0.1709 -0.0966
  572MOL0     H78898  11.299   5.147   2.649 -0.2194 -1.5653  0.5933
  572MOL0     H78899  11.483   5.112   2.473  0.9894 -0.5179 -2.1592
  572MOL0     H78900  11.638   5.024   2.349 -1.2349 -0.1224  2.7997
  572MOL0     H78901  11.598   4.862   2.393 -2.5632 -0.7747  1.3165
  572MOL0     H78902  11.627   4.788   2.140  0.9738 -0.6807  0.0872
  572MOL0     H78903  11.649   4.951   2.100  0.0295  0.8841  0.8555
  572MOL0     H78904  11.850   4.786   2.120 -0.8131 -0.6404  0.0140
  572MOL0     H78905  11.838   4.782   2.301  0.7559 -1.4204 -0.0071
  572MOL0     H78906  11.952   4.958   2.306 -3.8081 -2.3825  1.0655
  572MOL0     H78907  11.843   5.045   2.200 -0.6364  0.2419  3.2864
  572MOL0     H78908  11.997   4.917   2.005  1.3960 -2.6638  0.3927
  572MOL0     H78909  12.080   5.047   2.088  0.6272 -1.8150 -2.0956
  572MOL0     H78910  12.091   4.744   2.152  0.7230 -1.0267 -1.4229
  572MOL0     H78911  12.158   4.872   2.261  2.7797 -2.0743  0.4187
  572MOL0     H78912  12.283   4.960   2.052 -1.1878  0.9032 -0.4669
  572MOL0     H78913  12.212   4.825   1.965  1.4163 -1.4230  0.6089
  572MOL0     H78914  12.442   4.798   2.015 -0.9643 -1.2196 -0.9807
  572MOL0     H78915  12.337   4.670   2.076 -0.1447 -0.6216  2.1779
  572MOL0     H78916  11.213   4.860   2.255 -0.0844  1.4044 -0.9745
  572MOL0     H78917  11.035   4.918   2.401 -0.0286  0.3151 -1.3646
  572MOL0     H78918  10.782   5.350   2.513 -1.0905  0.8393 -0.1413
  572MOL0     H78919  10.656   5.496   2.645 -1.1338  0.1740  0.6893
  572MOL0     H78920   9.001   5.719   3.424 -0.8333  1.0050  1.8070
  572MOL0     H78921   8.827   5.648   3.593 -2.3944 -0.7616 -2.4450
  572MOL0     H78922   8.477   5.427   3.526  0.4798  1.7684  1.5679
  572MOL0     H78923   8.246   5.396   3.611  0.7557  0.9043 -0.6140
  572MOL0     H78924   8.166   5.083   3.899 -1.8222 -0.8585 -1.0569
  572MOL0     H78925   8.192   5.209   4.013  1.8231 -2.4445 -0.5928
  572MOL0     H78926   7.948   5.120   3.994  0.2887  2.7681  2.3769
  572MOL0     H78927   7.933   5.172   3.831 -1.8574 -0.1612  0.7879
  572MOL0     H78928   7.995   5.421   3.932 -0.3338  0.1114  1.3886
  572MOL0     H78929   7.842   5.351   3.890 -0.7732 -1.1860  0.6429
  572MOL0     H78930   7.820   5.273   4.124  1.2965 -2.5489 -3.2231
  572MOL0     H78931   7.853   5.450   4.129  1.9587 -0.4895  1.2359
  572MOL0     H78932   8.156   5.296   4.373  3.2358  1.7670 -2.2574
  572MOL0     H78933   8.392   5.152   3.927  0.1968 -2.3299 -1.8832
  572MOL0     H78934   8.635   5.167   3.991 -1.0404  1.8277 -0.0491
  572MOL0     H78935   8.674   5.080   3.833  0.2749  1.4490 -2.9862
  572MOL0     H78936   8.755   5.230   3.884  0.3175 -0.0358 -0.6862
  573MOL0     O78937   7.758   5.786   9.074 -0.7003  0.1565 -0.1112
  573MOL0     C78938   7.705   5.823   8.969 -0.4794  0.2643 -0.2651
  573MOL0     O78939   7.764   5.808   8.846 -0.1458  0.2915  0.0755
  573MOL0     C78940   7.901   5.787   8.849  0.4866 -0.0628  0.3887
  573MOL0     C78941   7.987   5.899   8.868 -0.2959  0.2194 -0.2391
  573MOL0     C78942   8.129   5.871   8.888 -0.3422  0.3502 -0.1706
  573MOL0     C78943   8.185   5.743   8.882  0.2358 -0.1944 -0.2413
  573MOL0     O78944   8.316   5.735   8.912  0.1117  0.4018  0.2764
  573MOL0     C78945   8.394   5.655   8.813  0.3101 -0.1280  0.6059
  573MOL0     C78946   8.410   5.721   8.674  0.0827  0.1822  0.4564
  573MOL0     C78947   8.472   5.858   8.671 -0.3873  0.1603  0.1512
  573MOL0     C78948   8.626   5.849   8.691 -0.0921  0.4847  1.0621
  573MOL0     C78949   8.679   5.977   8.761 -0.6073  0.0133 -0.4475
  573MOL0     C78950   8.821   5.949   8.804 -0.0092 -0.2140  0.8960
  573MOL0     C78951   8.873   6.062   8.886 -0.6427  0.6334 -0.2321
  573MOL0     C78952   9.024   6.061   8.875  0.5697  0.4200 -0.5099
  573MOL0     N78953   9.087   5.931   8.921 -0.4836  0.6712  0.5029
  573MOL0     C78954   9.114   5.820   8.846  0.8332  0.1667  1.4993
  573MOL0     C78955   9.130   5.718   8.932 -0.2300  0.0573 -0.2551
  573MOL0     C78956   9.156   5.572   8.909  0.5800 -0.0938  0.2292
  573MOL0     C78957   9.269   5.553   8.805 -0.2923  0.1999 -0.1641
  573MOL0     C78958   9.280   5.412   8.758  0.1718  0.5966  0.1328
  573MOL0     C78959   9.374   5.394   8.637  0.4231  0.4608  1.1098
  573MOL0     O78960   9.487   5.473   8.660  0.8816  0.3075  0.7282
  573MOL0     C78961   9.609   5.438   8.612  0.6497  0.4766  0.0191
  573MOL0     C78962   9.629   5.384   8.479  0.0474  0.6981 -0.0104
  573MOL0     C78963   9.751   5.344   8.440 -0.2909 -0.2092  0.7391
  573MOL0     C78964   9.766   5.293   8.301  0.5892  0.6736 -0.7626
  573MOL0     C78965   9.862   5.347   8.531  0.3525  0.8460  0.4511
  573MOL0     C78966   9.998   5.311   8.491  0.4358 -0.8782 -0.5421
  573MOL0     O78967  10.061   5.231   8.590 -0.2356 -0.6696  0.5605
  573MOL0     C78968  10.176   5.160   8.558 -1.0635  0.5391 -0.1201
  573MOL0     C78969  10.283   5.235   8.513 -0.1397 -0.1479  0.6565
  573MOL0     C78970  10.410   5.181   8.490 -0.0296  0.4238 -1.1010
  573MOL0     C78971  10.424   5.046   8.503  1.0911 -0.5922 -0.6819
  573MOL0     O78972  10.540   4.990   8.470  0.0962 -0.4638 -0.3976
  573MOL0     C78973  10.660   5.065   8.483 -0.6509 -0.5173 -0.4548
  573MOL0     C78974  10.773   4.959   8.486  0.6797  0.0543  0.4384
  573MOL0     C78975  10.914   5.016   8.494  0.4973 -0.8639 -0.3863
  573MOL0     C78976  11.021   4.905   8.459  0.4010 -0.3143 -0.6890
  573MOL0     C78977  11.168   4.963   8.454 -0.8746  0.5211 -0.3960
  573MOL0     C78978  11.192   5.084   8.372 -0.4490  0.2485 -0.2538
  573MOL0     C78979  11.331   5.143   8.369 -0.0697  0.5169 -0.2067
  573MOL0     C78980  11.385   5.203   8.496  0.9175  0.1281  0.6502
  573MOL0    Cl78981  11.445   5.092   8.618 -0.0086  0.0610  0.2876
  573MOL0     C78982  10.312   4.965   8.547  0.2779  0.5507  0.1754
  573MOL0     C78983  10.193   5.027   8.576 -0.0129  0.0139 -0.6343
  573MOL0     O78984  10.042   5.350   8.380 -0.2495  1.0737 -0.2270
  573MOL0     C78985   9.846   5.400   8.656 -0.5022  0.7578 -0.3488
  573MOL0     C78986   9.720   5.446   8.696 -0.2451  0.0573  0.8655
  573MOL0     N78987   9.129   5.776   9.057 -0.1650  1.0312 -0.1007
  573MOL0     N78988   9.096   5.897   9.051 -0.1265 -0.6124  0.2577
  573MOL0     C78989   8.100   5.636   8.877  0.7529  0.4382  0.9643
  573MOL0     C78990   7.960   5.662   8.854 -0.1281 -0.3915  0.2974
  573MOL0     C78991   7.578   5.894   8.977  0.2565 -0.6491  1.0384
  573MOL0     C78992   7.563   5.999   8.881 -0.0402  0.2928  0.2672
  573MOL0     C78993   7.455   6.075   8.885  0.7113 -0.3649 -0.2208
  573MOL0     C78994   7.347   6.053   8.974  0.5125 -0.3958  0.1360
  573MOL0     O78995   7.233   6.131   8.959  0.3572 -0.2211 -0.7917
  573MOL0     C78996   7.102   6.099   9.022 -0.0897  0.3599  0.4884
  573MOL0     C78997   7.038   5.979   8.945 -0.0811 -0.2990 -0.3922
  573MOL0     C78998   6.977   6.023   8.810 -0.7121 -0.0528 -0.1823
  573MOL0     C78999   6.911   5.916   8.717  0.0061  0.5685 -0.4359
  573MOL0     C79000   6.789   5.855   8.774 -0.8198  1.0262 -0.0002
  573MOL0     C79001   6.690   5.787   8.802 -0.2906  0.0576 -0.1612
  573MOL0     C79002   7.354   5.954   9.068 -0.0360 -0.2589 -1.3032
  573MOL0     C79003   7.477   5.879   9.076  0.3658 -0.9154 -0.7692
  573MOL0     C79004   7.480   5.779   9.192  1.0843 -0.2445  0.0524
  573MOL0     H79005   7.942   5.998   8.868 -2.4180 -0.6914  0.4685
  573MOL0     H79006   8.199   5.949   8.915 -0.1512 -0.2258  1.0719
  573MOL0     H79007   8.347   5.556   8.810  0.6651 -0.2737 -1.2545
  573MOL0     H79008   8.493   5.632   8.852  0.0297 -3.4220 -0.2941
  573MOL0     H79009   8.467   5.650   8.614  0.5445  1.4119 -0.6012
  573MOL0     H79010   8.316   5.732   8.619 -0.3874 -1.8868  0.7479
  573MOL0     H79011   8.462   5.898   8.570  0.0469 -3.3623 -1.4294
  573MOL0     H79012   8.416   5.915   8.745 -3.1092 -0.7597 -1.0797
  573MOL0     H79013   8.651   5.755   8.741  3.9269  0.0745 -1.2950
  573MOL0     H79014   8.686   5.828   8.602 -0.2917  1.4484  0.6886
  573MOL0     H79015   8.609   5.995   8.843 -0.5624  0.3784 -0.4863
  573MOL0     H79016   8.676   6.066   8.697 -0.0211  0.1363 -0.3068
  573MOL0     H79017   8.817   5.853   8.856 -0.1472 -2.6579 -3.1651
  573MOL0     H79018   8.883   5.944   8.714  1.1169  3.7490  1.2697
  573MOL0     H79019   8.845   6.051   8.991  0.5181  0.8059  0.1083
  573MOL0     H79020   8.821   6.151   8.848 -1.3636 -0.7519 -2.6676
  573MOL0     H79021   9.057   6.089   8.774  0.1263  0.5280 -0.6257
  573MOL0     H79022   9.065   6.143   8.935 -1.2090  0.1117  1.2159
  573MOL0     H79023   9.127   5.807   8.739 -0.6460 -1.8940  1.4982
  573MOL0     H79024   9.060   5.539   8.867  0.0840 -0.8744  1.8887
  573MOL0     H79025   9.181   5.532   9.007 -0.0849 -2.3902 -0.4867
  573MOL0     H79026   9.250   5.606   8.710  0.9448  1.5499  0.3042
  573MOL0     H79027   9.368   5.581   8.843 -0.5186  0.1683  0.4590
  573MOL0     H79028   9.306   5.343   8.839 -0.2087  0.7836  0.4180
  573MOL0     H79029   9.180   5.383   8.724 -0.0526 -0.4789  1.6205
  573MOL0     H79030   9.399   5.289   8.620 -0.2670  0.5011 -0.3418
  573MOL0     H79031   9.321   5.428   8.548 -2.0210 -0.7469  2.0023
  573MOL0     H79032   9.550   5.370   8.406 -0.5724 -1.7068  1.0302
  573MOL0     H79033   9.667   5.283   8.258  0.1708 -0.6884  0.4399
  573MOL0     H79034   9.806   5.191   8.303 -1.7506 -0.4014 -3.6023
  573MOL0     H79035   9.838   5.348   8.240  0.6687  0.0866 -1.1968
  573MOL0     H79036  10.270   5.342   8.506 -0.9174 -0.3366 -3.2171
  573MOL0     H79037  10.500   5.240   8.479  0.4087 -0.2516 -1.1770
  573MOL0     H79038  10.675   5.138   8.404 -0.5150  0.1325  0.1570
  573MOL0     H79039  10.654   5.117   8.580  1.7004  1.7609 -1.4121
  573MOL0     H79040  10.756   4.897   8.574  0.0990 -2.5483 -1.3994
  573MOL0     H79041  10.750   4.896   8.400  0.4844 -1.6727  1.7186
  573MOL0     H79042  10.939   5.076   8.581 -1.1339  0.4054 -0.7639
  573MOL0     H79043  10.936   5.090   8.417  1.4970 -1.0498 -0.2968
  573MOL0     H79044  11.001   4.847   8.368 -0.2700 -3.0387  1.0540
  573MOL0     H79045  11.010   4.835   8.542 -4.1114 -0.7008 -1.3636
  573MOL0     H79046  11.205   4.980   8.555  0.4134  1.0103 -0.9271
  573MOL0     H79047  11.223   4.879   8.408 -2.9038 -0.3555 -1.3653
  573MOL0     H79048  11.128   5.164   8.410 -0.9581  0.5381 -1.6741
  573MOL0     H79049  11.149   5.067   8.273 -2.6819  1.7510  0.3839
  573MOL0     H79050  11.341   5.222   8.294  1.2819  2.6637  2.0412
  573MOL0     H79051  11.401   5.068   8.333 -3.1122 -2.9670  0.6126
  573MOL0     H79052  11.308   5.268   8.540 -0.3144  1.7585 -3.4219
  573MOL0     H79053  11.474   5.262   8.476  2.7497 -1.9504  2.1375
  573MOL0     H79054  10.304   4.857   8.541  1.6671  0.5054 -1.2798
  573MOL0     H79055  10.117   4.956   8.607  2.8985 -3.4320 -0.7487
  573MOL0     H79056   9.935   5.423   8.714 -0.1271 -1.9264  0.2745
  573MOL0     H79057   9.696   5.490   8.793 -1.1007  1.8366 -0.1009
  573MOL0     H79058   8.132   5.533   8.884 -1.8907 -0.4831  0.5319
  573MOL0     H79059   7.892   5.579   8.837 -1.0410  0.8971 -2.9459
  573MOL0     H79060   7.638   6.016   8.805 -0.0635 -0.5389  0.0413
  573MOL0     H79061   7.428   6.150   8.811 -0.1678  1.0444  1.4720
  573MOL0     H79062   7.107   6.075   9.129 -1.2918  0.1199  0.5064
  573MOL0     H79063   7.037   6.186   9.012 -0.8637 -0.3016 -0.5269
  573MOL0     H79064   6.966   5.934   9.013  1.0942 -2.0561 -0.2327
  573MOL0     H79065   7.126   5.916   8.927 -0.2565 -0.6065 -0.1745
  573MOL0     H79066   6.912   6.111   8.821  0.1344  0.4882  0.7371
  573MOL0     H79067   7.066   6.059   8.757 -0.2318  1.0685  1.3223
  573MOL0     H79068   6.990   5.841   8.705 -1.0831 -0.6344 -0.3482
  573MOL0     H79069   6.890   5.964   8.621  2.4434  0.2084 -1.2367
  573MOL0     H79070   6.603   5.730   8.829 -0.0647 -0.5309 -0.6505
  573MOL0     H79071   7.277   5.930   9.141  1.8566  0.1623  0.9633
  573MOL0     H79072   7.378   5.790   9.229  0.5481  0.5144 -1.5275
  573MOL0     H79073   7.503   5.676   9.162  1.6976 -0.7645  2.1927
  573MOL0     H79074   7.558   5.800   9.265  0.3022 -1.3031  1.2461
  574MOL0     O79075   2.634   8.865   2.185 -0.4105 -0.5681  0.6970
  574MOL0     C79076   2.655   8.974   2.239 -0.2266 -0.0842 -0.3417
  574MOL0     O79077   2.773   9.030   2.261  0.2694  0.1640 -0.1761
  574MOL0     C79078   2.880   8.950   2.239 -0.3710 -0.3005  0.5110
  574MOL0     C79079   2.898   8.825   2.298  1.4054 -0.3674 -0.1778
  574MOL0     C79080   3.019   8.749   2.280 -0.3262  0.6435  0.1396
  574MOL0     C79081   3.121   8.801   2.201 -0.3782 -0.1064 -0.7376
  574MOL0     O79082   3.248   8.735   2.204  0.0501  0.1960 -0.2959
  574MOL0     C79083   3.303   8.726   2.074 -0.1375  0.7261  0.2909
  574MOL0     C79084   3.412   8.606   2.073  0.0189 -0.1623 -0.1867
  574MOL0     C79085   3.515   8.601   2.192 -0.1987  0.2991 -0.6979
  574MOL0     C79086   3.449   8.524   2.311  0.1177 -0.6130  0.1248
  574MOL0     C79087   3.550   8.504   2.427 -0.2726 -0.4440 -0.8929
  574MOL0     C79088   3.669   8.414   2.402  0.0822 -0.4317  0.4128
  574MOL0     C79089   3.758   8.389   2.521 -0.3439 -1.5394 -0.8714
  574MOL0     C79090   3.861   8.282   2.484 -0.5145  0.5435 -0.6935
  574MOL0     N79091   3.832   8.139   2.521  0.7054 -0.4401  1.1278
  574MOL0     C79092   3.837   8.034   2.434 -0.0392  0.6295  0.4750
  574MOL0     C79093   3.848   7.927   2.514 -0.1367  0.7093  0.6675
  574MOL0     C79094   3.861   7.781   2.465  0.7595 -0.4776  0.2927
  574MOL0     C79095   4.000   7.738   2.467  0.4865 -0.0872  0.4643
  574MOL0     C79096   4.088   7.783   2.346 -0.0949 -0.6074 -0.1874
  574MOL0     C79097   4.235   7.790   2.394 -0.4046 -0.2664  0.4589
  574MOL0     O79098   4.315   7.797   2.275  0.2022  0.6695 -0.0237
  574MOL0     C79099   4.451   7.808   2.291  0.0603 -1.3847  0.0350
  574MOL0     C79100   4.510   7.779   2.412  0.1455 -0.0128 -0.3187
  574MOL0     C79101   4.646   7.824   2.435 -1.0077  0.5114  0.0696
  574MOL0     C79102   4.703   7.774   2.571 -0.2392 -0.0472 -0.2194
  574MOL0     C79103   4.726   7.897   2.332 -0.4795 -0.3791  0.1137
  574MOL0     C79104   4.868   7.942   2.356 -0.7902 -0.1996 -0.5617
  574MOL0     O79105   4.918   7.947   2.479 -0.8505 -0.8105 -0.1992
  574MOL0     C79106   5.046   7.980   2.510 -0.0931 -0.2100  0.4972
  574MOL0     C79107   5.153   7.987   2.417 -0.4347  0.2328 -0.8666
  574MOL0     C79108   5.283   8.005   2.467 -1.0100 -0.2665 -0.5044
  574MOL0     C79109   5.305   8.045   2.598  0.6014 -1.0108 -0.9800
  574MOL0     O79110   5.426   8.093   2.640 -0.4160 -0.5758  0.2167
  574MOL0     C79111   5.473   8.076   2.776 -0.1029  0.7468 -0.4735
  574MOL0     C79112   5.622   8.090   2.777 -0.8679  0.2650  0.0408
  574MOL0     C79113   5.686   8.081   2.911 -0.3137 -0.4459 -0.3529
  574MOL0     C79114   5.682   7.944   2.976 -0.3236  1.0337 -0.3173
  574MOL0     C79115   5.727   7.944   3.122 -0.5227  0.9071 -0.0479
  574MOL0     C79116   5.635   8.013   3.225  0.6683 -0.3103  0.2835
  574MOL0     C79117   5.485   7.972   3.199  0.4587  0.1320 -0.3339
  574MOL0     C79118   5.379   8.046   3.285  0.3860  0.0389  0.3466
  574MOL0    Cl79119   5.214   8.022   3.234 -0.0914  0.3599 -0.1614
  574MOL0     C79120   5.197   8.045   2.686  1.0590 -0.4608 -0.1189
  574MOL0     C79121   5.073   7.999   2.646  0.0797 -1.2096  0.2075
  574MOL0     O79122   4.917   7.988   2.254  0.2531 -0.4210  0.3101
  574MOL0     C79123   4.659   7.931   2.211 -0.4869  0.5475 -0.9543
  574MOL0     C79124   4.530   7.882   2.194  0.3803  0.0259 -0.3068
  574MOL0     N79125   3.860   7.958   2.649 -0.2436 -0.2164 -0.1891
  574MOL0     N79126   3.857   8.094   2.646 -0.0526  0.9344  0.1726
  574MOL0     C79127   3.094   8.917   2.133  0.1379 -0.6699  0.2657
  574MOL0     C79128   2.978   8.994   2.155  0.7411 -0.7394  0.0783
  574MOL0     C79129   2.529   9.054   2.257  0.1551  1.0249 -0.1079
  574MOL0     C79130   2.536   9.187   2.212  0.2788  0.1653 -0.5408
  574MOL0     C79131   2.424   9.266   2.223 -0.3493  0.1403  0.9137
  574MOL0     C79132   2.299   9.219   2.275 -0.3252 -1.1555  0.4244
  574MOL0     O79133   2.189   9.299   2.298 -0.7464  0.7157 -0.4897
  574MOL0     C79134   2.213   9.438   2.325  0.7109 -0.3546 -0.4546
  574MOL0     C79135   2.072   9.495   2.346  0.3599  0.6635  0.1621
  574MOL0     C79136   2.071   9.637   2.398  0.4181 -0.1625  0.1181
  574MOL0     C79137   1.940   9.670   2.466  0.0090  0.1786  0.2017
  574MOL0     C79138   1.825   9.658   2.375  0.9942 -0.1622 -0.1248
  574MOL0     C79139   1.721   9.633   2.317  0.0293 -1.1678  0.2527
  574MOL0     C79140   2.296   9.088   2.306 -0.5281 -0.2483  0.0524
  574MOL0     C79141   2.403   9.001   2.306 -0.1808 -0.1448 -0.7217
  574MOL0     C79142   2.371   8.858   2.357  0.5698  0.0726 -0.5784
  574MOL0     H79143   2.816   8.793   2.361 -1.8125  0.9857 -3.3222
  574MOL0     H79144   3.035   8.652   2.325  2.7598 -0.2709 -2.5232
  574MOL0     H79145   3.345   8.821   2.039 -1.6877  0.6559 -1.9660
  574MOL0     H79146   3.225   8.697   2.003 -0.1027  2.5732 -0.5553
  574MOL0     H79147   3.353   8.514   2.068 -1.5386  0.8420 -1.6423
  574MOL0     H79148   3.476   8.619   1.985 -0.3530 -0.0614 -0.4468
  574MOL0     H79149   3.602   8.543   2.160 -1.4307 -2.0231 -0.1209
  574MOL0     H79150   3.545   8.701   2.224  0.9426 -0.7486  1.7786
  574MOL0     H79151   3.370   8.586   2.355 -1.2001  0.7031 -3.6516
  574MOL0     H79152   3.409   8.432   2.268 -0.9350 -0.2062  0.1907
  574MOL0     H79153   3.498   8.454   2.510  0.1842  2.3249  1.2396
  574MOL0     H79154   3.580   8.603   2.463  1.4358 -1.3433  0.2910
  574MOL0     H79155   3.630   8.315   2.377  1.0393 -1.5230  2.9201
  574MOL0     H79156   3.725   8.445   2.314  3.0120  0.7795  2.5561
  574MOL0     H79157   3.711   8.368   2.618  1.1225  0.3869  0.3353
  574MOL0     H79158   3.815   8.480   2.542 -1.9275 -0.6132 -0.4107
  574MOL0     H79159   3.880   8.275   2.376 -0.1792 -0.0375 -0.6008
  574MOL0     H79160   3.946   8.309   2.546  0.2996  0.4035 -1.7261
  574MOL0     H79161   3.827   8.044   2.327 -1.3930 -0.3617  0.4831
  574MOL0     H79162   3.830   7.776   2.361 -1.7969  1.8695  0.8348
  574MOL0     H79163   3.796   7.717   2.526  0.7299 -0.6692  0.0590
  574MOL0     H79164   4.046   7.786   2.554 -0.6822  1.6397  0.1868
  574MOL0     H79165   4.006   7.629   2.466  0.0184 -0.1586 -1.8590
  574MOL0     H79166   4.060   7.724   2.258 -0.2452  0.5046 -0.9089
  574MOL0     H79167   4.056   7.883   2.314 -0.4360 -1.3003 -2.1732
  574MOL0     H79168   4.254   7.883   2.449  1.3274 -0.5849  0.4419
  574MOL0     H79169   4.254   7.704   2.458  1.4097  1.0978  1.8790
  574MOL0     H79170   4.454   7.738   2.495  0.5046  1.9314  0.9483
  574MOL0     H79171   4.631   7.704   2.615  1.3546 -1.3571  0.3820
  574MOL0     H79172   4.707   7.855   2.645 -0.0173 -1.9999  2.0260
  574MOL0     H79173   4.803   7.731   2.559  0.2861  1.2920 -0.8293
  574MOL0     H79174   5.153   7.959   2.312  0.8786  1.9528 -1.3781
  574MOL0     H79175   5.367   7.996   2.399  0.8863 -0.1452  1.6971
  574MOL0     H79176   5.425   8.147   2.843 -0.1950 -0.6812  1.0238
  574MOL0     H79177   5.440   7.981   2.820  1.3965  0.7204  0.6350
  574MOL0     H79178   5.657   8.004   2.720  2.3772  1.2533  0.2781
  574MOL0     H79179   5.654   8.186   2.735 -2.0501  1.6504  2.1095
  574MOL0     H79180   5.624   8.156   2.961  0.4401 -0.0243 -0.0360
  574MOL0     H79181   5.788   8.121   2.906 -0.5002  0.0495 -0.2248
  574MOL0     H79182   5.753   7.885   2.917  0.5959  2.1960 -0.4112
  574MOL0     H79183   5.586   7.893   2.970  0.6763 -0.9466 -0.3179
  574MOL0     H79184   5.730   7.837   3.148  0.1246  0.8531 -0.3210
  574MOL0     H79185   5.832   7.970   3.137  0.2546  1.4169 -4.8531
  574MOL0     H79186   5.647   8.121   3.211  1.8248 -0.4553  0.0448
  574MOL0     H79187   5.665   7.996   3.329  0.1519  0.4226  0.5601
  574MOL0     H79188   5.472   7.864   3.209  0.5914 -0.0517 -1.9275
  574MOL0     H79189   5.468   7.995   3.094  1.9792  1.6809 -0.2891
  574MOL0     H79190   5.406   8.150   3.263 -2.9573  0.7318 -0.9770
  574MOL0     H79191   5.385   8.025   3.392 -0.6728  3.7537  1.2858
  574MOL0     H79192   5.203   8.060   2.793  0.0418 -1.1726  0.0599
  574MOL0     H79193   4.984   7.973   2.703 -0.6459 -1.7657 -1.1332
  574MOL0     H79194   4.695   7.983   2.123  1.3287  2.1054  0.6054
  574MOL0     H79195   4.476   7.926   2.110 -0.1045  0.7277  0.3554
  574MOL0     H79196   3.167   8.957   2.063 -0.6863 -0.8402 -0.7277
  574MOL0     H79197   2.973   9.091   2.107 -3.5377 -0.3283  0.9730
  574MOL0     H79198   2.632   9.227   2.181  1.1997 -0.3319  1.4966
  574MOL0     H79199   2.435   9.367   2.185 -0.2142  0.8322  2.6898
  574MOL0     H79200   2.273   9.444   2.417  1.6264  0.2284 -1.0727
  574MOL0     H79201   2.264   9.493   2.246  3.8783 -1.0631  0.9269
  574MOL0     H79202   2.022   9.417   2.406  2.0612 -0.6194 -0.0189
  574MOL0     H79203   2.026   9.496   2.247 -0.7095 -0.3336  0.6225
  574MOL0     H79204   2.138   9.665   2.479  0.4974  0.8970 -0.2928
  574MOL0     H79205   2.103   9.716   2.330  2.2486  1.3546  2.5471
  574MOL0     H79206   1.942   9.777   2.489 -3.1951  0.7314 -1.4019
  574MOL0     H79207   1.924   9.620   2.561 -1.5507  0.7304  0.2607
  574MOL0     H79208   1.632   9.610   2.262 -1.2070  0.8213  1.3021
  574MOL0     H79209   2.200   9.044   2.331 -1.8231 -0.0730 -3.8955
  574MOL0     H79210   2.448   8.788   2.324 -0.7357 -0.2219 -3.3747
  574MOL0     H79211   2.361   8.854   2.465  1.3116 -0.9336 -0.5306
  574MOL0     H79212   2.276   8.824   2.313 -0.1883 -0.1993  1.2030
  575MOL0     O79213   8.708   1.584   5.031  0.2922  0.0104 -0.1259
  575MOL0     C79214   8.743   1.640   5.141  0.2793 -0.2556  0.0946
  575MOL0     O79215   8.869   1.679   5.170  0.3481 -0.1794 -0.5417
  575MOL0     C79216   8.964   1.675   5.076 -0.0684  0.4363 -0.2268
  575MOL0     C79217   8.978   1.765   4.975 -0.1248  0.5434 -0.6539
  575MOL0     C79218   9.082   1.751   4.887  0.6334  0.1351 -0.1841
  575MOL0     C79219   9.166   1.646   4.899 -0.0983  0.4690 -0.5218
  575MOL0     O79220   9.266   1.643   4.811  0.0532 -0.0458  0.4286
  575MOL0     C79221   9.358   1.528   4.805  0.6069 -0.2658  0.0219
  575MOL0     C79222   9.437   1.543   4.664  0.1495  0.3378 -0.0664
  575MOL0     C79223   9.526   1.419   4.643 -0.3820 -0.9483 -0.4429
  575MOL0     C79224   9.597   1.439   4.509  0.2214  0.1411  1.0570
  575MOL0     C79225   9.724   1.348   4.500 -1.7515  0.4762 -0.6229
  575MOL0     C79226   9.785   1.368   4.361  0.0309  0.0878  0.5803
  575MOL0     C79227   9.922   1.307   4.351 -0.4274 -0.4410 -0.4891
  575MOL0     C79228   9.989   1.353   4.215 -0.4417  0.8671  0.2616
  575MOL0     N79229  10.128   1.298   4.205  0.0249  0.1658 -0.0750
  575MOL0     C79230  10.219   1.322   4.106 -0.2303  0.5513  0.1347
  575MOL0     C79231  10.329   1.256   4.136  0.2070  0.6939  0.0151
  575MOL0     C79232  10.451   1.264   4.059 -0.3509 -0.3931 -0.0885
  575MOL0     C79233  10.540   1.136   4.055 -0.4269 -1.2343  0.2093
  575MOL0     C79234  10.472   1.020   3.974  0.1092  0.3381 -0.7887
  575MOL0     C79235  10.502   1.019   3.820  0.1003 -0.7817 -0.1807
  575MOL0     O79236  10.642   1.029   3.790  0.5874 -0.1974 -0.9888
  575MOL0     C79237  10.720   0.916   3.821  0.3183 -0.5106  0.4376
  575MOL0     C79238  10.856   0.944   3.809 -0.2029 -0.8774  0.0821
  575MOL0     C79239  10.959   0.850   3.835 -1.0189  0.5299 -0.1563
  575MOL0     C79240  11.104   0.911   3.819  0.9689  0.2212  0.3855
  575MOL0     C79241  10.917   0.721   3.867 -0.1644  0.1116  0.9372
  575MOL0     C79242  11.016   0.611   3.884 -0.3420  0.5794  0.8849
  575MOL0     O79243  11.120   0.608   3.793  0.4577  0.7161 -0.4786
  575MOL0     C79244  11.220   0.520   3.820 -0.3522  0.1058  0.7276
  575MOL0     C79245  11.193   0.384   3.803 -0.3878  0.5756 -0.7386
  575MOL0     C79246  11.288   0.281   3.834 -0.7323 -0.5542 -0.6276
  575MOL0     C79247  11.417   0.320   3.877  0.0537  0.0680  0.3965
  575MOL0     O79248  11.511   0.225   3.900 -0.9601  0.3891  0.3339
  575MOL0     C79249  11.649   0.252   3.874 -0.3053  0.6331 -0.2904
  575MOL0     C79250  11.666   0.260   3.728  0.6633 -0.0432  0.6313
  575MOL0     C79251  11.807   0.306   3.689 -0.1293  0.8403 -1.1454
  575MOL0     C79252  11.834   0.294   3.542 -0.5474  0.4082 -0.6176
  575MOL0     C79253  11.980   0.333   3.505 -0.9249  0.5339 -0.1293
  575MOL0     C79254  12.004   0.366   3.355 -0.0121 -0.0757 -0.5671
  575MOL0     C79255  12.156   0.350   3.316 -0.1844 -0.4534  0.2266
  575MOL0     C79256  12.176   0.445   3.196 -0.0350  0.0074  0.4535
  575MOL0    Cl79257  12.146   0.354   3.045  0.0445  0.4450 -0.0581
  575MOL0     C79258  11.442   0.455   3.890  0.7973 -1.1529  0.5711
  575MOL0     C79259  11.344   0.561   3.867  0.1615  0.7152  0.1456
  575MOL0     O79260  10.994   0.527   3.970  0.2997 -0.8315 -0.4669
  575MOL0     C79261  10.784   0.685   3.873  1.3298  0.2626 -0.7152
  575MOL0     C79262  10.683   0.784   3.856  0.3472 -0.0054 -0.9700
  575MOL0     N79263  10.301   1.183   4.256 -0.2924 -0.1831  0.3569
  575MOL0     N79264  10.185   1.209   4.292  0.2835  0.4608  0.7474
  575MOL0     C79265   9.153   1.543   4.998  0.6905 -0.5625  0.5535
  575MOL0     C79266   9.053   1.565   5.088 -0.0180 -0.8874  0.1534
  575MOL0     C79267   8.640   1.664   5.257  0.0031  0.3042  0.9861
  575MOL0     C79268   8.519   1.600   5.242 -0.3461 -0.1385  0.2867
  575MOL0     C79269   8.419   1.607   5.342 -0.9589 -0.3205 -0.2795
  575MOL0     C79270   8.438   1.681   5.462  0.3873  0.5294  0.0215
  575MOL0     O79271   8.345   1.690   5.554  0.0857 -0.5833 -0.7240
  575MOL0     C79272   8.356   1.786   5.663  0.6055  0.4425 -0.6390
  575MOL0     C79273   8.226   1.774   5.740 -0.0613  0.2210  0.2093
  575MOL0     C79274   8.181   1.914   5.781 -0.3681 -0.4361 -0.0021
  575MOL0     C79275   8.275   1.985   5.876 -0.0127  1.3439 -0.9002
  575MOL0     C79276   8.297   1.904   6.005 -0.4746 -0.6797 -0.0315
  575MOL0     C79277   8.330   1.845   6.106  0.1078 -0.4186 -0.8403
  575MOL0     C79278   8.563   1.739   5.481 -0.0846 -0.6380 -0.3484
  575MOL0     C79279   8.658   1.741   5.383  0.4026 -0.0679 -0.4468
  575MOL0     C79280   8.773   1.827   5.410 -0.6730  0.2389 -0.4249
  575MOL0     H79281   8.913   1.851   4.960 -1.7907 -0.1056  2.1137
  575MOL0     H79282   9.105   1.827   4.813  1.8802 -0.8074 -0.7934
  575MOL0     H79283   9.292   1.441   4.802  1.7194 -1.0923 -2.2405
  575MOL0     H79284   9.421   1.530   4.895 -0.7970 -2.2582  1.1191
  575MOL0     H79285   9.357   1.534   4.590 -0.5868  0.6397  0.6786
  575MOL0     H79286   9.491   1.638   4.664 -1.4385  1.2873  0.6497
  575MOL0     H79287   9.604   1.420   4.720  3.6856  2.0065 -4.1386
  575MOL0     H79288   9.465   1.328   4.643 -0.1930 -1.0772 -1.3415
  575MOL0     H79289   9.534   1.409   4.424  0.0510  4.6660 -0.6900
  575MOL0     H79290   9.622   1.543   4.487  3.5595 -0.3920  1.9176
  575MOL0     H79291   9.702   1.243   4.518  0.8639 -0.2739 -1.4016
  575MOL0     H79292   9.794   1.375   4.579 -0.0662 -2.5908 -0.9260
  575MOL0     H79293   9.721   1.327   4.283 -3.9457  1.8528  2.6065
  575MOL0     H79294   9.805   1.473   4.335  0.6733  0.1966  1.4789
  575MOL0     H79295   9.909   1.199   4.360  0.6729 -0.4501  1.8476
  575MOL0     H79296   9.987   1.346   4.430 -1.4660 -0.6379  0.4825
  575MOL0     H79297   9.943   1.310   4.126  1.4722  3.3829 -2.1059
  575MOL0     H79298   9.983   1.460   4.195 -1.0404  0.5068 -1.6043
  575MOL0     H79299  10.208   1.374   4.012  2.1966  0.9041 -0.0075
  575MOL0     H79300  10.510   1.341   4.111  1.1968 -2.6415  1.6972
  575MOL0     H79301  10.419   1.301   3.962 -2.0906 -0.6466  0.3512
  575MOL0     H79302  10.632   1.171   4.006 -2.6250  2.4429 -1.7311
  575MOL0     H79303  10.560   1.101   4.157 -2.1390  1.7642  1.7046
  575MOL0     H79304  10.516   0.929   4.017  1.1379 -0.0183 -2.4994
  575MOL0     H79305  10.364   1.020   3.994  0.2909 -3.1898  0.9686
  575MOL0     H79306  10.449   0.932   3.779 -1.3755 -0.7243  1.4515
  575MOL0     H79307  10.452   1.111   3.788 -1.3292 -1.5313 -0.2203
  575MOL0     H79308  10.878   1.047   3.782  0.3540 -0.4919  1.8821
  575MOL0     H79309  11.166   0.900   3.909 -1.1125  1.2783  2.0374
  575MOL0     H79310  11.109   1.016   3.792  1.7539 -0.3889 -2.0493
  575MOL0     H79311  11.149   0.855   3.736 -3.9600  1.9590 -3.9318
  575MOL0     H79312  11.096   0.345   3.776 -0.3070 -1.5362  1.6283
  575MOL0     H79313  11.269   0.175   3.821  0.0413 -0.7692 -0.0853
  575MOL0     H79314  11.691   0.335   3.932  1.5703  0.7199 -1.6819
  575MOL0     H79315  11.713   0.168   3.903 -0.0681  1.2211  0.9662
  575MOL0     H79316  11.640   0.171   3.671 -2.8949  0.9633  0.4863
  575MOL0     H79317  11.609   0.343   3.685  2.4221 -0.1984 -2.2527
  575MOL0     H79318  11.884   0.242   3.734 -0.7055  0.4189 -0.7439
  575MOL0     H79319  11.829   0.400   3.739  0.2277  0.1473  0.0409
  575MOL0     H79320  11.783   0.366   3.478  2.5404  1.0276 -2.6041
  575MOL0     H79321  11.808   0.194   3.506 -0.0297  0.1281 -0.2416
  575MOL0     H79322  12.018   0.413   3.569  1.5346  0.4977 -1.4624
  575MOL0     H79323  12.042   0.248   3.534  1.4419  1.7897 -1.2620
  575MOL0     H79324  11.968   0.464   3.323 -0.1072  0.0188 -0.1789
  575MOL0     H79325  11.946   0.285   3.308  4.3807 -3.2943 -1.0244
  575MOL0     H79326  12.188   0.250   3.287  0.0713 -0.1092 -0.7313
  575MOL0     H79327  12.210   0.392   3.401 -1.4604  4.5748 -1.0862
  575MOL0     H79328  12.280   0.480   3.197  0.0809 -0.2137 -1.1198
  575MOL0     H79329  12.121   0.540   3.193  1.7280  1.0630 -1.4679
  575MOL0     H79330  11.541   0.479   3.928  0.7158 -1.2283  0.8316
  575MOL0     H79331  11.351   0.668   3.881 -1.8107  0.8838  0.1146
  575MOL0     H79332  10.748   0.584   3.890 -0.3081  0.9012 -0.2145
  575MOL0     H79333  10.578   0.755   3.861 -0.2417  2.0115 -0.8415
  575MOL0     H79334   9.203   1.447   4.997  1.2110 -0.3447  2.1596
  575MOL0     H79335   9.046   1.498   5.173  1.3056  0.3665  1.3057
  575MOL0     H79336   8.501   1.531   5.160 -0.7771  1.1325 -0.7183
  575MOL0     H79337   8.320   1.570   5.317 -2.6293  1.7072  2.6324
  575MOL0     H79338   8.441   1.772   5.731 -0.6202  0.0235  0.8735
  575MOL0     H79339   8.365   1.892   5.636 -2.5504  0.9623 -0.0154
  575MOL0     H79340   8.247   1.704   5.821 -0.7778 -1.4365 -0.9770
  575MOL0     H79341   8.143   1.733   5.682  0.2387 -1.7031  1.0608
  575MOL0     H79342   8.160   1.974   5.692  1.3296 -0.1152 -0.2303
  575MOL0     H79343   8.085   1.903   5.832 -0.2118  1.1430  0.7085
  575MOL0     H79344   8.240   2.088   5.892  2.7917  2.0484  1.4859
  575MOL0     H79345   8.368   1.993   5.820  0.4783  2.3762  0.0264
  575MOL0     H79346   8.339   1.781   6.191  0.6609 -2.3112 -2.2698
  575MOL0     H79347   8.588   1.794   5.571  1.3549  0.2506 -1.2689
  575MOL0     H79348   8.761   1.880   5.505  3.9357  0.3803  0.3067
  575MOL0     H79349   8.870   1.778   5.414 -1.0227 -0.3754  0.8864
  575MOL0     H79350   8.786   1.909   5.339  3.0832 -0.5166 -0.8100
  576MOL0     O79351   8.391   8.991   2.468 -0.3821 -0.2714  0.8116
  576MOL0     C79352   8.303   9.063   2.414 -0.7093  0.2675 -0.3623
  576MOL0     O79353   8.300   9.198   2.418 -0.2637  0.5070 -0.5622
  576MOL0     C79354   8.401   9.279   2.473  0.2463  1.0906  1.0328
  576MOL0     C79355   8.529   9.238   2.527 -0.1204  0.5096 -0.9721
  576MOL0     C79356   8.618   9.334   2.575 -0.2178 -0.3171  0.4382
  576MOL0     C79357   8.600   9.475   2.556 -0.4011  0.5895 -0.6089
  576MOL0     O79358   8.701   9.571   2.573  0.1642 -0.4336  0.2025
  576MOL0     C79359   8.838   9.522   2.584  0.4990  0.2616  0.6505
  576MOL0     C79360   8.942   9.633   2.628  0.3911 -0.0611  0.1336
  576MOL0     C79361   9.064   9.573   2.703  1.1121 -0.6349 -0.0964
  576MOL0     C79362   9.159   9.504   2.601 -0.5460  0.2640 -0.4498
  576MOL0     C79363   9.267   9.418   2.673 -0.3603  0.4668 -0.5906
  576MOL0     C79364   9.367   9.360   2.573 -0.6669 -0.0510  0.4294
  576MOL0     C79365   9.470   9.457   2.517 -0.0047 -0.2626 -0.2341
  576MOL0     C79366   9.561   9.503   2.627  0.8567  0.2909  0.9935
  576MOL0     N79367   9.668   9.598   2.567 -0.0270  0.7690  0.1432
  576MOL0     C79368   9.699   9.723   2.604  0.2301 -0.3243 -0.5580
  576MOL0     C79369   9.811   9.764   2.544  0.6733 -0.7849 -0.2789
  576MOL0     C79370   9.884   9.887   2.584  0.6150 -0.1868 -0.5561
  576MOL0     C79371   9.979   9.841   2.694 -0.3202  0.1383 -0.3273
  576MOL0     C79372  10.035   9.975   2.766  0.2244  0.3442  0.0109
  576MOL0     C79373  10.136   9.955   2.876 -0.2117 -0.4735 -0.2066
  576MOL0     O79374  10.258  10.016   2.823 -0.0870 -0.9980 -0.0545
  576MOL0     C79375  10.377  10.008   2.898 -0.5005 -0.1459  0.1600
  576MOL0     C79376  10.479  10.079   2.833  0.4834 -0.7868 -0.6961
  576MOL0     C79377  10.602  10.088   2.897 -0.4659 -0.1437  0.1035
  576MOL0     C79378  10.708  10.166   2.823 -0.4216  0.8521  0.4527
  576MOL0     C79379  10.624  10.013   3.018 -0.2569  0.4987  0.2958
  576MOL0     C79380  10.745  10.017   3.099 -0.2472 -0.4014  0.3768
  576MOL0     O79381  10.841  10.111   3.062  0.5697 -0.4674 -0.1020
  576MOL0     C79382  10.953  10.136   3.131  0.6334 -0.4980 -0.4083
  576MOL0     C79383  10.952  10.177   3.263 -0.6913 -0.1666 -0.2168
  576MOL0     C79384  11.068  10.203   3.336 -0.2064 -0.5275  0.0280
  576MOL0     C79385  11.193  10.194   3.271 -0.6576  0.1354  0.0781
  576MOL0     O79386  11.312  10.223   3.330 -0.1159  0.1713 -0.0333
  576MOL0     C79387  11.314  10.297   3.451 -0.4062 -0.4899 -1.1264
  576MOL0     C79388  11.453  10.356   3.468 -0.0820 -0.4877  0.0231
  576MOL0     C79389  11.565  10.251   3.463 -1.2079  0.3993  1.0450
  576MOL0     C79390  11.700  10.321   3.434 -0.8692  0.4484 -0.6548
  576MOL0     C79391  11.825  10.233   3.471  0.1165 -0.2102 -0.1295
  576MOL0     C79392  11.955  10.296   3.440  0.4942 -0.8140 -0.5134
  576MOL0     C79393  12.066  10.221   3.514 -0.1195 -0.3505 -0.9009
  576MOL0     C79394  12.210  10.281   3.506  1.2548  0.4957 -0.1002
  576MOL0    Cl79395  12.313  10.206   3.380  0.0067 -0.1500  0.4605
  576MOL0     C79396  11.191  10.156   3.131 -0.2707 -0.4515 -0.5205
  576MOL0     C79397  11.071  10.117   3.071 -1.3168 -0.0584 -0.0009
  576MOL0     O79398  10.751   9.947   3.196 -0.4014 -0.0688 -0.6167
  576MOL0     C79399  10.520   9.946   3.076  0.2495  0.6641  0.6088
  576MOL0     C79400  10.395   9.927   3.010  0.0690 -0.0715 -0.2913
  576MOL0     N79401   9.862   9.655   2.473 -0.2128  0.2826  0.5339
  576MOL0     N79402   9.769   9.552   2.486  0.3591  0.0655  0.2249
  576MOL0     C79403   8.478   9.514   2.493 -0.7529 -0.1153  0.6256
  576MOL0     C79404   8.380   9.418   2.460 -0.2204  0.8273 -0.4576
  576MOL0     C79405   8.182   9.005   2.351  0.2934 -0.2532  0.7794
  576MOL0     C79406   8.122   9.067   2.243 -0.1281 -0.4101 -0.2829
  576MOL0     C79407   8.012   9.011   2.173  0.1821  0.0562 -0.3153
  576MOL0     C79408   7.954   8.895   2.219  0.4617 -0.2303  0.3480
  576MOL0     O79409   7.838   8.839   2.163  0.4477 -0.1047  0.2840
  576MOL0     C79410   7.807   8.856   2.032  0.3054  1.1712 -0.3097
  576MOL0     C79411   7.673   8.792   1.994  0.0575  0.1999 -0.0038
  576MOL0     C79412   7.562   8.893   2.023 -0.5412  1.0020  0.8889
  576MOL0     C79413   7.426   8.838   1.980 -0.5028 -0.1131  0.3706
  576MOL0     C79414   7.368   8.750   2.077  0.1071  0.2907  0.2518
  576MOL0     C79415   7.309   8.697   2.170 -0.6466 -0.1000  0.0334
  576MOL0     C79416   8.012   8.833   2.333  0.5931  1.2130 -0.0321
  576MOL0     C79417   8.125   8.883   2.397 -0.9112 -0.0338  0.8885
  576MOL0     C79418   8.178   8.810   2.522  0.1937 -0.0791 -0.0268
  576MOL0     H79419   8.566   9.138   2.550  0.4804  1.2231  1.4447
  576MOL0     H79420   8.705   9.294   2.627 -0.5366 -0.3717  0.9419
  576MOL0     H79421   8.875   9.467   2.496  2.1614 -0.1586  1.5785
  576MOL0     H79422   8.833   9.449   2.666 -1.8462 -0.0149  0.3301
  576MOL0     H79423   8.973   9.696   2.544 -2.5284  0.2320 -0.8375
  576MOL0     H79424   8.889   9.699   2.697 -0.7579  1.0598 -1.7188
  576MOL0     H79425   9.114   9.655   2.756 -1.4213  2.0062 -1.5359
  576MOL0     H79426   9.023   9.503   2.776  3.8062 -2.7784 -0.4495
  576MOL0     H79427   9.096   9.438   2.540 -0.6508 -1.1396  1.1107
  576MOL0     H79428   9.201   9.579   2.533  2.4672 -1.3993 -0.5761
  576MOL0     H79429   9.215   9.337   2.726  0.4861 -0.0081 -0.4776
  576MOL0     H79430   9.313   9.492   2.739  1.5992 -0.0482 -1.3279
  576MOL0     H79431   9.418   9.274   2.618  1.8485  0.8773 -0.4579
  576MOL0     H79432   9.307   9.327   2.488  0.7431  1.7399 -1.3693
  576MOL0     H79433   9.429   9.531   2.448 -2.4362  0.0352  1.3972
  576MOL0     H79434   9.525   9.396   2.444  0.5453 -0.2779  0.1884
  576MOL0     H79435   9.509   9.559   2.706  1.5330  1.1787  0.8196
  576MOL0     H79436   9.606   9.413   2.671  1.0658  0.2893  0.7729
  576MOL0     H79437   9.630   9.773   2.671 -0.7295  0.4940 -2.0780
  576MOL0     H79438   9.813   9.963   2.618  1.6108  0.9360 -0.8978
  576MOL0     H79439   9.944   9.933   2.505 -0.0968  1.8945  0.0491
  576MOL0     H79440   9.930   9.791   2.778 -0.4696  0.0513 -0.4632
  576MOL0     H79441  10.055   9.775   2.653  0.0328  1.1851 -1.4151
  576MOL0     H79442  10.078  10.037   2.688  2.6896  0.6988  1.5514
  576MOL0     H79443   9.956  10.030   2.817  2.3909  2.7564  0.9989
  576MOL0     H79444  10.117  10.008   2.970 -1.4448 -1.7677  0.3028
  576MOL0     H79445  10.136   9.848   2.897 -1.6586 -0.6822 -1.1425
  576MOL0     H79446  10.462  10.127   2.737  1.7551  1.1195 -0.0142
  576MOL0     H79447  10.672  10.215   2.732 -1.7380 -0.8368 -0.0074
  576MOL0     H79448  10.787  10.093   2.804 -0.8138  0.8555 -1.3621
  576MOL0     H79449  10.741  10.234   2.902  1.6184 -2.1685  2.4248
  576MOL0     H79450  10.850  10.194   3.295 -0.1240  2.3195  0.4255
  576MOL0     H79451  11.053  10.227   3.441 -1.4201  0.4997 -0.3544
  576MOL0     H79452  11.249  10.384   3.458 -0.6035 -0.7478  1.1974
  576MOL0     H79453  11.295  10.235   3.539 -0.8273  3.1939  1.6141
  576MOL0     H79454  11.470  10.423   3.383 -0.6582  0.5964  0.7357
  576MOL0     H79455  11.452  10.415   3.560  2.6579  1.0245 -0.7871
  576MOL0     H79456  11.543  10.187   3.377 -2.0871  0.9241  0.8674
  576MOL0     H79457  11.567  10.197   3.558 -0.8196 -1.6136 -0.0385
  576MOL0     H79458  11.703  10.420   3.481  1.6431  1.7613 -3.3066
  576MOL0     H79459  11.700  10.335   3.325 -1.4553  2.6911 -0.4059
  576MOL0     H79460  11.812  10.194   3.572 -0.8248  0.4271  0.0093
  576MOL0     H79461  11.816  10.140   3.414 -0.0773  0.0220 -0.4803
  576MOL0     H79462  11.950  10.401   3.471 -0.1733 -1.0639  0.2594
  576MOL0     H79463  11.983  10.285   3.335 -1.6450 -1.4772 -1.0522
  576MOL0     H79464  12.075  10.124   3.465  1.1739  0.3994 -2.2753
  576MOL0     H79465  12.046  10.204   3.620 -0.4989 -1.0523 -1.0810
  576MOL0     H79466  12.260  10.272   3.603  1.0119 -2.8857 -0.1769
  576MOL0     H79467  12.208  10.384   3.469  2.8763  0.3597 -0.6682
  576MOL0     H79468  11.282  10.142   3.073 -0.7665 -1.7103 -1.0195
  576MOL0     H79469  11.078  10.097   2.965 -0.5844 -0.7660  0.1728
  576MOL0     H79470  10.532   9.881   3.162  2.3535 -1.1070 -0.9136
  576MOL0     H79471  10.315   9.860   3.039  1.7845 -1.0902  2.5446
  576MOL0     H79472   8.464   9.620   2.474 -0.4408  0.2451  2.3010
  576MOL0     H79473   8.290   9.451   2.408 -0.6447  3.0338  1.4601
  576MOL0     H79474   8.157   9.160   2.200 -0.1816 -1.5276 -2.9461
  576MOL0     H79475   7.986   9.057   2.078 -0.2574 -3.1167 -1.8545
  576MOL0     H79476   7.804   8.963   2.011  1.8315  1.0251 -1.3840
  576MOL0     H79477   7.877   8.814   1.959 -0.5759  1.5820 -1.4152
  576MOL0     H79478   7.664   8.695   2.043  1.2677 -0.4196 -0.9280
  576MOL0     H79479   7.669   8.780   1.885  0.2393  1.2042 -0.1319
  576MOL0     H79480   7.557   8.910   2.131  2.4572  2.4540  0.9061
  576MOL0     H79481   7.586   8.987   1.971  3.3442 -0.6187 -0.5754
  576MOL0     H79482   7.433   8.796   1.880  1.1963 -1.1242  0.8708
  576MOL0     H79483   7.363   8.927   1.972  0.8436  0.7064 -2.0875
  576MOL0     H79484   7.252   8.656   2.251 -1.8276  0.4259 -0.5064
  576MOL0     H79485   7.967   8.742   2.372  0.0634 -0.4562 -4.0397
  576MOL0     H79486   8.188   8.886   2.599  0.5319  0.4453 -0.5849
  576MOL0     H79487   8.109   8.733   2.560  0.6344 -0.5646 -0.1909
  576MOL0     H79488   8.279   8.770   2.512  0.5543 -0.0046  2.5971
  577MOL0     O79489   5.826   5.524  10.241  0.2721 -0.1035  0.2177
  577MOL0     C79490   5.780   5.511  10.363 -0.4476 -0.1151  0.3449
  577MOL0     O79491   5.850   5.473  10.466  0.2203  0.1233 -0.0262
  577MOL0     C79492   5.982   5.429  10.450 -0.0890 -0.0536  0.2352
  577MOL0     C79493   6.100   5.501  10.490  0.2054  0.1947  0.0075
  577MOL0     C79494   6.233   5.456  10.478  0.4561  0.1362 -0.9389
  577MOL0     C79495   6.257   5.334  10.426 -0.1648 -0.9630 -0.1833
  577MOL0     O79496   6.389   5.314  10.401 -1.0285  0.0274 -0.5379
  577MOL0     C79497   6.436   5.183  10.345  0.3917  0.1845  0.0482
  577MOL0     C79498   6.589   5.183  10.360  0.7093 -0.2026 -0.2518
  577MOL0     C79499   6.657   5.049  10.313 -0.5691 -0.7130  0.0769
  577MOL0     C79500   6.802   5.094  10.262  0.0163  0.6563 -0.4126
  577MOL0     C79501   6.847   5.002  10.145 -0.1862  0.4377 -0.3781
  577MOL0     C79502   6.872   4.858  10.200  0.9786  0.4301 -0.0843
  577MOL0     C79503   6.937   4.771  10.098  0.0519 -0.0796  0.4447
  577MOL0     C79504   6.943   4.615  10.130 -1.4090  0.4311  0.2425
  577MOL0     N79505   7.050   4.588  10.223  0.6075  0.0047 -0.1771
  577MOL0     C79506   7.186   4.610  10.195  0.3649  0.0567 -0.1981
  577MOL0     C79507   7.251   4.599  10.319  0.3527 -0.3939  0.6430
  577MOL0     C79508   7.400   4.601  10.336 -0.2646  0.3326 -0.4757
  577MOL0     C79509   7.427   4.603  10.495 -0.3837 -0.0789  0.4871
  577MOL0     C79510   7.580   4.601  10.530  0.0234  0.8654 -0.7495
  577MOL0     C79511   7.603   4.542  10.674 -0.3945 -0.4299  0.8874
  577MOL0     O79512   7.751   4.550  10.683 -0.3452 -0.2789 -0.1057
  577MOL0     C79513   7.821   4.518  10.797  0.0002 -0.2261 -0.1808
  577MOL0     C79514   7.959   4.512  10.788 -0.4887 -0.1089 -0.4663
  577MOL0     C79515   8.038   4.472  10.899  1.1221  0.0537  0.0016
  577MOL0     C79516   8.184   4.473  10.872  0.0361  0.4143 -0.1991
  577MOL0     C79517   7.980   4.442  11.021  0.4153  0.4561  0.1652
  577MOL0     C79518   8.051   4.425  11.149 -1.2929  0.2402 -0.0272
  577MOL0     O79519   8.162   4.503  11.161  0.6223  0.0514 -0.2465
  577MOL0     C79520   8.207   4.525  11.294  0.2726  0.0354 -0.3262
  577MOL0     C79521   8.124   4.571  11.394 -0.5949 -0.1017  0.2151
  577MOL0     C79522   8.167   4.579  11.532  0.3797 -0.5384  0.0421
  577MOL0     C79523   8.307   4.548  11.565  0.9668  0.5559  0.2042
  577MOL0     O79524   8.356   4.536  11.692 -0.0405  0.4599 -0.2148
  577MOL0     C79525   8.255   4.506  11.787  0.2089  0.0291  0.3863
  577MOL0     C79526   8.314   4.450  11.918 -0.3118 -0.6593 -0.0280
  577MOL0     C79527   8.420   4.554  11.987  0.0284 -0.8283  0.0778
  577MOL0     C79528   8.476   4.482  12.107  0.6442 -0.5842  0.2359
  577MOL0     C79529   8.610   4.543  12.153  0.2221 -0.1136 -0.8025
  577MOL0     C79530   8.649   4.480  12.293 -0.7843 -0.1070 -0.0752
  577MOL0     C79531   8.762   4.555  12.373  0.0359  0.3003  0.8434
  577MOL0     C79532   8.809   4.478  12.489 -1.1029 -0.2435 -0.1312
  577MOL0    Cl79533   8.940   4.572  12.558  0.0039 -0.3228  0.3875
  577MOL0     C79534   8.396   4.520  11.461 -0.0756  0.1274  0.4914
  577MOL0     C79535   8.343   4.511  11.328 -0.4425 -0.9860  0.2889
  577MOL0     O79536   7.997   4.358  11.233  0.4960  0.4027 -0.3397
  577MOL0     C79537   7.838   4.445  11.026 -0.1960 -0.6856 -0.3526
  577MOL0     C79538   7.758   4.483  10.919  0.6597 -0.4495 -0.2789
  577MOL0     N79539   7.151   4.544  10.399 -0.4010 -0.5566 -0.1974
  577MOL0     N79540   7.037   4.545  10.350  0.1940 -0.5001  0.6072
  577MOL0     C79541   6.154   5.265  10.376  0.2469  0.9727 -0.3711
  577MOL0     C79542   6.015   5.312  10.383  0.1093  0.0322  0.3417
  577MOL0     C79543   5.633   5.534  10.378  0.5162 -0.1448  0.0729
  577MOL0     C79544   5.556   5.535  10.256 -0.2624  0.7413 -0.6802
  577MOL0     C79545   5.421   5.564  10.254 -0.3644  1.0003 -0.4706
  577MOL0     C79546   5.353   5.615  10.373  0.1529 -0.1145  0.3501
  577MOL0     O79547   5.222   5.644  10.379  0.4882 -0.6586 -0.8536
  577MOL0     C79548   5.123   5.626  10.280 -0.0871 -0.3240  0.3205
  577MOL0     C79549   5.074   5.481  10.276 -0.7952 -1.0228 -0.7755
  577MOL0     C79550   4.918   5.468  10.254 -0.8284 -0.2321  0.1072
  577MOL0     C79551   4.826   5.482  10.369 -0.5493 -0.5663 -0.1671
  577MOL0     C79552   4.693   5.437  10.328  1.0678  0.2545 -1.1827
  577MOL0     C79553   4.586   5.397  10.288  0.3147 -0.2423  1.2875
  577MOL0     C79554   5.424   5.627  10.488  0.6238 -1.2795 -0.6472
  577MOL0     C79555   5.561   5.596  10.495 -0.7291  0.1305 -0.3026
  577MOL0     C79556   5.632   5.632  10.623  0.3590  1.0803  0.2254
  577MOL0     H79557   6.088   5.600  10.534  2.4494 -0.3654  2.1191
  577MOL0     H79558   6.309   5.510  10.532 -0.3134  1.2517 -0.9393
  577MOL0     H79559   6.401   5.175  10.242 -3.1453 -0.2281  1.1600
  577MOL0     H79560   6.408   5.092  10.399 -1.0335 -0.0349 -0.9896
  577MOL0     H79561   6.625   5.270  10.304  0.8308 -0.2024 -0.1729
  577MOL0     H79562   6.605   5.204  10.466 -1.9209 -2.0376  0.6145
  577MOL0     H79563   6.652   4.969  10.388 -2.0415  0.1247  0.9319
  577MOL0     H79564   6.601   5.017  10.225 -2.6138  1.5409  0.4501
  577MOL0     H79565   6.802   5.199  10.230 -1.2809  1.0808  0.8174
  577MOL0     H79566   6.863   5.084  10.352 -2.4400  0.9039  1.3857
  577MOL0     H79567   6.942   5.045  10.111 -0.0950  3.1268  2.7774
  577MOL0     H79568   6.779   4.999  10.060  0.3547  1.2911 -0.8541
  577MOL0     H79569   6.936   4.855  10.289  1.9827  1.5091 -0.7457
  577MOL0     H79570   6.773   4.825  10.235  1.3569  1.2144  1.8514
  577MOL0     H79571   7.041   4.802  10.084  0.5310 -1.4754  0.7736
  577MOL0     H79572   6.880   4.778  10.005  0.9127  0.2477 -0.0741
  577MOL0     H79573   6.848   4.580  10.173 -1.3935 -0.5676 -0.5041
  577MOL0     H79574   6.959   4.559  10.038  0.0030 -0.3830  0.9520
  577MOL0     H79575   7.238   4.631  10.102 -1.7657 -3.2596 -2.3700
  577MOL0     H79576   7.445   4.682  10.279  1.6749 -1.2980 -1.3667
  577MOL0     H79577   7.444   4.510  10.295 -1.1350 -0.2437 -0.1614
  577MOL0     H79578   7.399   4.703  10.531  3.4847  0.8642  1.3093
  577MOL0     H79579   7.378   4.519  10.544  1.3237 -1.6540 -0.4122
  577MOL0     H79580   7.641   4.536  10.466  0.2680 -1.0041  1.2557
  577MOL0     H79581   7.618   4.703  10.530  0.0218  0.9664  2.4739
  577MOL0     H79582   7.547   4.601  10.748 -0.8059  1.2381 -0.6829
  577MOL0     H79583   7.562   4.441  10.673 -3.4614  0.6420 -2.8903
  577MOL0     H79584   8.007   4.546  10.697 -1.2288  0.4399 -0.6683
  577MOL0     H79585   8.233   4.565  10.903  1.2972 -0.2949  0.0045
  577MOL0     H79586   8.200   4.461  10.764 -1.2196  0.0444 -0.3639
  577MOL0     H79587   8.228   4.386  10.922 -1.3732 -0.6669 -0.7655
  577MOL0     H79588   8.019   4.592  11.376 -1.0190 -1.1927  1.2367
  577MOL0     H79589   8.101   4.617  11.610  1.3346  2.5089 -0.4885
  577MOL0     H79590   8.193   4.590  11.820 -1.1028  0.3453 -2.5559
  577MOL0     H79591   8.187   4.430  11.748 -0.4520  1.4245 -1.3419
  577MOL0     H79592   8.235   4.428  11.990  1.1983 -0.3933  1.8009
  577MOL0     H79593   8.358   4.353  11.892 -0.0863 -0.5255 -0.1488
  577MOL0     H79594   8.386   4.654  12.014  0.1891 -0.2591 -1.6892
  577MOL0     H79595   8.499   4.559  11.912 -1.5956 -1.7574 -1.8077
  577MOL0     H79596   8.495   4.381  12.069 -0.7972 -1.8663  2.7177
  577MOL0     H79597   8.395   4.479  12.180  1.7938 -1.1981  1.5370
  577MOL0     H79598   8.690   4.532  12.078 -0.0963  2.1559 -1.5472
  577MOL0     H79599   8.610   4.648  12.183 -0.3332 -0.3757  0.1483
  577MOL0     H79600   8.682   4.378  12.276 -1.3927 -0.5578  1.3063
  577MOL0     H79601   8.566   4.469  12.363 -3.1743 -2.0945 -2.9571
  577MOL0     H79602   8.730   4.655  12.403 -1.5017 -0.3920  1.6702
  577MOL0     H79603   8.848   4.582  12.311  0.2553 -1.4874  0.3057
  577MOL0     H79604   8.855   4.384  12.456 -0.0177  0.1455  0.2467
  577MOL0     H79605   8.735   4.462  12.568 -0.9708 -0.5087 -0.0576
  577MOL0     H79606   8.502   4.510  11.479 -0.2812  0.4831  2.0416
  577MOL0     H79607   8.423   4.505  11.254 -2.2689  2.8885 -2.2705
  577MOL0     H79608   7.786   4.424  11.119 -0.1490 -1.0067 -0.3973
  577MOL0     H79609   7.651   4.489  10.936  0.9328  1.9057  0.9734
  577MOL0     H79610   6.172   5.171  10.325  2.2419  0.3250  1.4334
  577MOL0     H79611   5.929   5.252  10.355 -0.3423  0.3253  1.0703
  577MOL0     H79612   5.599   5.515  10.158  0.5691  0.1025 -0.1996
  577MOL0     H79613   5.384   5.567  10.152  2.0221  0.4321 -1.4170
  577MOL0     H79614   5.034   5.689  10.291 -2.3611 -2.5663 -3.1968
  577MOL0     H79615   5.165   5.648  10.182 -0.2711  2.2662  0.7421
  577MOL0     H79616   5.100   5.426  10.367  0.5404 -1.4033 -1.3549
  577MOL0     H79617   5.132   5.431  10.197 -1.0161 -0.2283 -1.4604
  577MOL0     H79618   4.885   5.547  10.186  0.0966 -1.3800 -1.7755
  577MOL0     H79619   4.895   5.367  10.218  0.5347 -1.5853  2.7882
  577MOL0     H79620   4.826   5.583  10.411  2.2208  0.2317 -1.8156
  577MOL0     H79621   4.847   5.403  10.441 -2.0772 -3.0816 -2.3232
  577MOL0     H79622   4.494   5.356  10.252  0.8569  0.1626 -0.6659
  577MOL0     H79623   5.368   5.664  10.574 -0.5399 -0.1329 -1.8551
  577MOL0     H79624   5.723   5.692  10.607 -0.8310  2.7259 -0.6828
  577MOL0     H79625   5.574   5.693  10.693  0.9820  1.5604  0.3354
  577MOL0     H79626   5.670   5.541  10.670  0.4048  1.2982  0.6142
  578MOL0     O79627   0.543   9.788   7.911 -0.2900  0.0365  0.3669
  578MOL0     C79628   0.493   9.775   7.801  0.2846 -0.7294  0.2677
  578MOL0     O79629   0.558   9.767   7.685  1.4049 -0.0328 -0.1119
  578MOL0     C79630   0.691   9.738   7.687  1.7893 -0.4786 -0.0677
  578MOL0     C79631   0.746   9.614   7.659  0.0014 -0.0164  0.1936
  578MOL0     C79632   0.882   9.600   7.664 -0.7054 -0.5329 -0.5564
  578MOL0     C79633   0.969   9.704   7.683 -0.6039  0.3011  0.2510
  578MOL0     O79634   1.099   9.680   7.665 -0.9010 -0.0566  0.7252
  578MOL0     C79635   1.191   9.797   7.651  0.1209  0.5707 -1.1912
  578MOL0     C79636   1.337   9.764   7.653 -0.7235  0.7674  0.5894
  578MOL0     C79637   1.397   9.781   7.788 -0.1294  0.0081  0.1376
  578MOL0     C79638   1.546   9.736   7.778  0.9296 -0.9217  0.5593
  578MOL0     C79639   1.603   9.743   7.913 -0.3000  0.1556 -0.2561
  578MOL0     C79640   1.758   9.714   7.908  0.8256 -0.4657  0.8296
  578MOL0     C79641   1.809   9.699   8.047 -0.2391  0.4900 -1.2540
  578MOL0     C79642   1.953   9.665   8.064  0.4133  0.7261 -0.0719
  578MOL0     N79643   1.988   9.531   8.006  0.8247 -0.1320  0.1305
  578MOL0     C79644   2.072   9.510   7.900  0.1478 -0.2487  1.0277
  578MOL0     C79645   2.119   9.388   7.924 -0.8393  0.1838 -0.4358
  578MOL0     C79646   2.230   9.315   7.835 -0.0735  0.5052  0.0238
  578MOL0     C79647   2.373   9.364   7.852  0.8346 -0.0927 -0.2261
  578MOL0     C79648   2.466   9.294   7.750 -0.1164  0.0242  0.1603
  578MOL0     C79649   2.611   9.342   7.744  0.5637 -0.8331  0.4221
  578MOL0     O79650   2.649   9.364   7.880 -0.3793 -0.0328 -0.8614
  578MOL0     C79651   2.767   9.420   7.894 -1.0529  0.2774 -1.0448
  578MOL0     C79652   2.775   9.541   7.970 -0.1378 -0.5855 -0.5925
  578MOL0     C79653   2.902   9.607   7.985  0.7162  0.8539  0.2940
  578MOL0     C79654   2.899   9.728   8.076  0.5535  0.2276  0.6643
  578MOL0     C79655   3.023   9.550   7.936 -0.2743  0.3934  0.6624
  578MOL0     C79656   3.162   9.589   7.963  0.0733 -0.8366 -0.0024
  578MOL0     O79657   3.268   9.549   7.890 -0.3370 -0.5662  0.2115
  578MOL0     C79658   3.397   9.611   7.906 -0.1955 -0.6321  0.9555
  578MOL0     C79659   3.435   9.726   7.975 -0.3336 -0.1353  0.3942
  578MOL0     C79660   3.567   9.775   7.966  0.7099 -0.1893 -0.5381
  578MOL0     C79661   3.658   9.717   7.877 -0.4167  0.5754  0.3142
  578MOL0     O79662   3.788   9.756   7.855 -0.4508  0.2420 -0.0324
  578MOL0     C79663   3.841   9.843   7.953  0.3526  0.0525 -0.0712
  578MOL0     C79664   3.984   9.888   7.933 -1.0906  0.1718  0.3311
  578MOL0     C79665   4.078   9.770   7.891  0.4155 -0.0841 -0.4928
  578MOL0     C79666   4.221   9.821   7.862 -0.1779 -0.7266  0.0334
  578MOL0     C79667   4.292   9.879   7.981 -0.7461  0.7307 -0.0246
  578MOL0     C79668   4.354   9.778   8.084  0.7630  0.2410  0.2722
  578MOL0     C79669   4.413   9.862   8.190  0.3745  0.0187 -0.0674
  578MOL0     C79670   4.501   9.774   8.277 -0.3194  0.2625  0.3972
  578MOL0    Cl79671   4.613   9.864   8.359 -0.3653  0.1932  0.1227
  578MOL0     C79672   3.625   9.594   7.821 -0.2589 -0.1330  0.8481
  578MOL0     C79673   3.498   9.546   7.836  0.1980 -0.4685  0.5557
  578MOL0     O79674   3.174   9.633   8.075  0.5226 -0.3570  0.5248
  578MOL0     C79675   3.014   9.432   7.866 -0.3371 -0.4515  0.5626
  578MOL0     C79676   2.890   9.368   7.842  0.2121  0.1588 -0.1488
  578MOL0     N79677   2.045   9.331   8.029  1.2364 -0.7733 -0.5367
  578MOL0     N79678   1.954   9.411   8.069  1.1978  0.7780  0.0414
  578MOL0     C79679   0.916   9.830   7.694 -0.0722 -0.0541  0.0016
  578MOL0     C79680   0.780   9.851   7.718  0.7378  0.1846 -0.3411
  578MOL0     C79681   0.351   9.737   7.791 -0.0346 -0.8218  0.3559
  578MOL0     C79682   0.306   9.668   7.680 -0.2635  1.2134  0.0716
  578MOL0     C79683   0.176   9.627   7.661  0.6521 -0.5550  0.0336
  578MOL0     C79684   0.077   9.661   7.756  0.0449  0.4215  1.0056
  578MOL0     O79685  -0.058   9.624   7.735  0.1396 -0.5209  0.1543
  578MOL0     C79686  -0.156   9.686   7.814  0.3652 -0.2290 -1.0225
  578MOL0     C79687  -0.291   9.638   7.754 -0.7034 -0.0256  0.2517
  578MOL0     C79688  -0.425   9.693   7.802  0.2355  1.0937  0.7294
  578MOL0     C79689  -0.536   9.661   7.698  0.2850 -0.0522 -0.3387
  578MOL0     C79690  -0.532   9.530   7.639  0.1869  0.4116  0.2263
  578MOL0     C79691  -0.526   9.426   7.584 -0.2589  1.4174 -0.0335
  578MOL0     C79692   0.110   9.747   7.863  0.4735 -0.7541  0.3038
  578MOL0     C79693   0.248   9.789   7.870 -0.0823 -0.6469 -0.2659
  578MOL0     C79694   0.277   9.895   7.969  0.2161 -0.2167  0.6480
  578MOL0     H79695   0.679   9.533   7.631  0.1264  0.6318 -2.2115
  578MOL0     H79696   0.936   9.513   7.630  1.3348  0.5040 -0.1112
  578MOL0     H79697   1.174   9.869   7.732  2.5826  2.7993 -2.4947
  578MOL0     H79698   1.170   9.856   7.562 -0.7801  3.5683  0.8548
  578MOL0     H79699   1.356   9.670   7.601 -1.9604  1.0091 -0.3468
  578MOL0     H79700   1.393   9.832   7.588  1.5306 -2.6258 -1.2930
  578MOL0     H79701   1.387   9.885   7.818  0.0982 -0.4863  2.0720
  578MOL0     H79702   1.352   9.725   7.871 -0.6802  1.4660  0.8470
  578MOL0     H79703   1.536   9.634   7.741  2.4430 -0.4378 -1.3588
  578MOL0     H79704   1.598   9.801   7.707 -0.3360 -0.4034  0.0974
  578MOL0     H79705   1.570   9.658   7.973  1.2338  1.5855  2.8555
  578MOL0     H79706   1.572   9.836   7.962 -1.8349  0.3852 -1.6036
  578MOL0     H79707   1.779   9.637   7.833 -0.3320  2.7206 -3.1477
  578MOL0     H79708   1.803   9.803   7.863 -1.5692  0.6924  0.5891
  578MOL0     H79709   1.742   9.621   8.085  1.4139 -0.3535  0.0566
  578MOL0     H79710   1.791   9.786   8.111  3.7021  0.3243  0.3107
  578MOL0     H79711   2.006   9.736   8.001 -2.0903  0.3956 -2.7868
  578MOL0     H79712   1.978   9.670   8.170 -0.7555 -0.4533  0.2954
  578MOL0     H79713   2.108   9.580   7.826  0.4797  1.1231  2.4483
  578MOL0     H79714   2.203   9.333   7.730 -0.9924 -0.4332  0.0851
  578MOL0     H79715   2.218   9.211   7.867 -1.0510  1.8997  5.1026
  578MOL0     H79716   2.376   9.470   7.826  2.4664 -0.3698 -1.3730
  578MOL0     H79717   2.411   9.355   7.954  0.7680 -0.8115 -0.2579
  578MOL0     H79718   2.471   9.186   7.769  1.2047 -0.1145 -0.7766
  578MOL0     H79719   2.425   9.308   7.649 -0.6736 -2.9033 -0.1085
  578MOL0     H79720   2.671   9.264   7.696 -1.1209 -0.3811 -2.6563
  578MOL0     H79721   2.624   9.429   7.679  0.5109 -2.3812 -1.7635
  578MOL0     H79722   2.690   9.594   8.010 -1.1136  0.1904 -3.4362
  578MOL0     H79723   2.795   9.757   8.091  1.0266  3.6594 -1.6589
  578MOL0     H79724   2.933   9.819   8.026  1.4072  0.5794  1.8509
  578MOL0     H79725   2.962   9.721   8.165  0.6351  0.7068  0.6449
  578MOL0     H79726   3.360   9.787   8.024 -3.3597 -0.7454 -3.0905
  578MOL0     H79727   3.582   9.865   8.024  1.4235 -0.3503 -0.4613
  578MOL0     H79728   3.776   9.931   7.965  1.0925  0.6427 -0.3162
  578MOL0     H79729   3.838   9.785   8.046  1.5709 -2.1996 -1.3546
  578MOL0     H79730   3.991   9.965   7.855 -1.0864 -1.4514 -1.3366
  578MOL0     H79731   4.008   9.935   8.029 -0.3829  0.1261  0.1761
  578MOL0     H79732   4.035   9.722   7.803 -1.3681  1.4882 -0.5376
  578MOL0     H79733   4.091   9.694   7.968  1.1779  0.1710 -0.3513
  578MOL0     H79734   4.227   9.888   7.776  4.2045 -0.4182  0.3556
  578MOL0     H79735   4.287   9.740   7.829  0.7220 -0.0648  0.1781
  578MOL0     H79736   4.379   9.923   7.932 -0.7961 -0.4360 -1.2015
  578MOL0     H79737   4.226   9.955   8.026 -0.4627  2.5399 -2.4592
  578MOL0     H79738   4.431   9.719   8.032 -1.8100 -2.3503 -0.8533
  578MOL0     H79739   4.279   9.706   8.117 -0.0912  2.0846  2.5862
  578MOL0     H79740   4.333   9.914   8.244  0.8315 -0.2157  0.8409
  578MOL0     H79741   4.483   9.938   8.154  1.0757 -1.3480 -1.7083
  578MOL0     H79742   4.551   9.692   8.224  1.2433  0.6831  1.1528
  578MOL0     H79743   4.446   9.705   8.342  2.2262  0.4963  3.0191
  578MOL0     H79744   3.704   9.540   7.770  1.1728  2.1278  0.5458
  578MOL0     H79745   3.465   9.465   7.772 -1.9128  1.3815 -0.8049
  578MOL0     H79746   3.101   9.374   7.836  1.7292  2.7813 -0.2759
  578MOL0     H79747   2.892   9.272   7.793  0.4961  0.4433 -0.7043
  578MOL0     H79748   0.973   9.921   7.708  0.6628 -0.5225  0.1056
  578MOL0     H79749   0.731   9.945   7.744  1.8120  0.9333 -0.9724
  578MOL0     H79750   0.370   9.635   7.599  1.3438  0.2683  1.6480
  578MOL0     H79751   0.146   9.564   7.578  3.1173  0.1845 -1.5450
  578MOL0     H79752  -0.144   9.654   7.919  1.5403 -0.9306 -1.3547
  578MOL0     H79753  -0.159   9.795   7.806  1.3952 -0.2786 -2.4534
  578MOL0     H79754  -0.292   9.529   7.766  1.7505  0.1421  3.1066
  578MOL0     H79755  -0.283   9.657   7.647  1.1282  6.0254  1.1379
  578MOL0     H79756  -0.454   9.645   7.896 -1.0272  0.7831  0.2036
  578MOL0     H79757  -0.433   9.801   7.818 -3.4798  1.1278 -0.4300
  578MOL0     H79758  -0.527   9.732   7.615  0.0988 -0.0286 -0.3394
  578MOL0     H79759  -0.635   9.677   7.743  1.0818  3.0434  0.6114
  578MOL0     H79760  -0.516   9.328   7.542  0.9601  2.2438 -1.7872
  578MOL0     H79761   0.044   9.776   7.944 -0.6448 -0.5052 -0.6791
  578MOL0     H79762   0.184   9.947   7.995 -0.1964 -1.0872  0.9630
  578MOL0     H79763   0.323   9.851   8.058  1.1505 -2.6732 -0.9702
  578MOL0     H79764   0.342   9.968   7.920 -1.3473 -0.9018 -2.7727
  579MOL0     O79765   5.367   4.522   3.706 -0.4259 -0.3833 -0.1769
  579MOL0     C79766   5.332   4.450   3.611  0.1546  0.0346 -0.5141
  579MOL0     O79767   5.418   4.423   3.506  0.0447  0.5192 -0.1636
  579MOL0     C79768   5.534   4.492   3.498  0.0295  0.0160 -0.0420
  579MOL0     C79769   5.650   4.424   3.534  0.5524  0.4452  0.5426
  579MOL0     C79770   5.775   4.486   3.527  0.7269 -0.8022  0.2335
  579MOL0     C79771   5.783   4.624   3.499  0.4418  0.1546 -0.0510
  579MOL0     O79772   5.910   4.679   3.502  0.4774  0.1465 -0.5236
  579MOL0     C79773   5.928   4.818   3.508  0.4522  0.3608  0.3992
  579MOL0     C79774   6.070   4.847   3.456 -0.5735  1.1433  0.4870
  579MOL0     C79775   6.102   4.993   3.460 -0.3963  0.2147 -0.1067
  579MOL0     C79776   6.243   5.012   3.409 -0.6715 -0.8350 -0.0761
  579MOL0     C79777   6.287   5.163   3.406 -0.6483  0.0952  0.2937
  579MOL0     C79778   6.337   5.206   3.539 -0.2605 -0.0270 -0.5702
  579MOL0     C79779   6.493   5.203   3.567  1.8460  0.2389 -0.5403
  579MOL0     C79780   6.541   5.284   3.690 -0.0430 -0.3262  0.6649
  579MOL0     N79781   6.469   5.259   3.816  0.4085  0.7314 -0.8274
  579MOL0     C79782   6.491   5.143   3.892 -0.3005 -1.0145 -0.3709
  579MOL0     C79783   6.437   5.178   4.016 -0.0977 -0.0637  0.0242
  579MOL0     C79784   6.449   5.109   4.145  0.3365 -0.9419 -0.3758
  579MOL0     C79785   6.544   5.187   4.243  0.3061 -0.6798  0.1831
  579MOL0     C79786   6.551   5.112   4.374  0.3987  0.5694  0.2752
  579MOL0     C79787   6.664   5.152   4.469  0.4254  0.0571 -0.6450
  579MOL0     O79788   6.782   5.097   4.421  0.2012  0.2914 -0.1747
  579MOL0     C79789   6.893   5.097   4.511 -0.2595  0.8323 -0.0115
  579MOL0     C79790   6.992   5.000   4.483  0.6553  0.0792 -1.4824
  579MOL0     C79791   7.115   4.992   4.552 -0.7661 -0.4994 -0.5712
  579MOL0     C79792   7.214   4.891   4.501  0.2736 -0.3913  0.2333
  579MOL0     C79793   7.141   5.086   4.650 -0.3865 -0.1734 -0.0499
  579MOL0     C79794   7.269   5.103   4.708 -0.2537 -0.1071 -0.0758
  579MOL0     O79795   7.337   4.992   4.732 -0.6493  0.4897 -0.5422
  579MOL0     C79796   7.461   4.989   4.800 -0.1896  0.8381  0.0952
  579MOL0     C79797   7.518   4.862   4.826  0.6983  0.9736 -0.4144
  579MOL0     C79798   7.640   4.846   4.890 -0.1109  1.1038  0.9184
  579MOL0     C79799   7.716   4.961   4.925  0.7393 -0.0949  1.1583
  579MOL0     O79800   7.840   4.957   4.979  0.4222 -0.4085  0.1502
  579MOL0     C79801   7.896   4.832   5.032  0.5131  0.2237  0.4839
  579MOL0     C79802   8.021   4.834   5.121  0.8559 -0.3664 -0.9735
  579MOL0     C79803   8.146   4.883   5.065  0.8348  0.1016 -0.2490
  579MOL0     C79804   8.267   4.901   5.174 -0.2275  0.5615 -0.0897
  579MOL0     C79805   8.393   4.935   5.108 -0.4173 -0.3204  0.1922
  579MOL0     C79806   8.497   5.002   5.196  0.0007  0.1134  0.5954
  579MOL0     C79807   8.623   5.030   5.115 -0.0506  0.3905  0.4497
  579MOL0     C79808   8.733   5.091   5.207  0.2411 -0.2354  0.4190
  579MOL0    Cl79809   8.886   5.117   5.108  0.3260 -0.0887 -0.0410
  579MOL0     C79810   7.659   5.090   4.912 -0.1615 -0.3719 -0.1142
  579MOL0     C79811   7.532   5.106   4.848 -0.1718 -0.2672  0.7834
  579MOL0     O79812   7.302   5.226   4.716 -0.1645 -0.2947  0.3277
  579MOL0     C79813   7.039   5.182   4.684  0.2440 -0.0881 -0.0768
  579MOL0     C79814   6.913   5.186   4.616 -0.8701  0.5478 -0.5811
  579MOL0     N79815   6.396   5.314   4.007 -0.1338  0.2895 -0.5422
  579MOL0     N79816   6.415   5.358   3.888  0.3940 -0.2035 -0.1863
  579MOL0     C79817   5.670   4.694   3.467  0.2253 -0.0126  0.1574
  579MOL0     C79818   5.549   4.633   3.480  0.7704  0.6534  0.0430
  579MOL0     C79819   5.206   4.377   3.613 -0.0523  0.6381 -0.7357
  579MOL0     C79820   5.088   4.450   3.649 -0.1188  0.3737  0.1931
  579MOL0     C79821   4.965   4.383   3.655 -0.2814  0.7890  0.1272
  579MOL0     C79822   4.955   4.248   3.624 -0.1896  0.1798 -0.4733
  579MOL0     O79823   4.845   4.167   3.636  0.2142 -0.2924 -0.2639
  579MOL0     C79824   4.711   4.218   3.658 -0.1460 -0.5321  0.4202
  579MOL0     C79825   4.615   4.122   3.721  0.2834  0.0460  0.3193
  579MOL0     C79826   4.474   4.187   3.733 -0.2818 -0.2772 -0.8920
  579MOL0     C79827   4.399   4.216   3.602 -0.7992  0.5465  0.2898
  579MOL0     C79828   4.341   4.087   3.544 -0.3768 -0.1744 -0.4972
  579MOL0     C79829   4.280   3.998   3.482 -0.0722 -0.3056  0.4749
  579MOL0     C79830   5.063   4.178   3.591 -0.1111 -0.2643 -0.4276
  579MOL0     C79831   5.192   4.236   3.580  0.0293 -0.6513 -0.0096
  579MOL0     C79832   5.306   4.151   3.544 -0.4172  0.8201  0.1467
  579MOL0     H79833   5.632   4.321   3.563  0.3322  1.1453  3.1404
  579MOL0     H79834   5.863   4.427   3.547  0.6635 -1.6810 -1.8651
  579MOL0     H79835   5.901   4.867   3.602  0.6544  1.7635 -0.2557
  579MOL0     H79836   5.867   4.874   3.438 -0.9103  1.2580  2.2436
  579MOL0     H79837   6.149   4.798   3.515 -0.3218  2.5022  1.3404
  579MOL0     H79838   6.084   4.817   3.352 -2.0121  2.6563 -0.1809
  579MOL0     H79839   6.043   5.053   3.390  1.3571  1.3973 -0.6300
  579MOL0     H79840   6.094   5.039   3.560 -0.4732  3.1507 -1.3522
  579MOL0     H79841   6.321   4.952   3.457 -0.8286 -0.2535  0.9284
  579MOL0     H79842   6.247   4.989   3.302  0.7240  5.0412 -1.6584
  579MOL0     H79843   6.211   5.230   3.365  1.8160  2.8668 -0.1290
  579MOL0     H79844   6.374   5.166   3.340 -0.1332 -0.9832  0.8947
  579MOL0     H79845   6.312   5.313   3.543 -1.1045 -0.2427  0.7190
  579MOL0     H79846   6.292   5.170   3.632  0.3402  1.5492  0.3735
  579MOL0     H79847   6.553   5.240   3.483  1.3959 -1.8549 -1.8592
  579MOL0     H79848   6.529   5.101   3.579  0.5513 -0.3075 -1.1308
  579MOL0     H79849   6.647   5.261   3.704 -0.1486 -0.5429  1.1223
  579MOL0     H79850   6.534   5.391   3.672  0.3908 -0.4862 -0.5382
  579MOL0     H79851   6.533   5.051   3.851  2.2933 -0.1430  0.1488
  579MOL0     H79852   6.478   5.004   4.133 -3.1263 -2.2399  1.2271
  579MOL0     H79853   6.345   5.115   4.179  0.1223 -1.3671 -0.9426
  579MOL0     H79854   6.639   5.197   4.191 -0.2267 -3.5575 -1.5736
  579MOL0     H79855   6.506   5.289   4.256  2.8079  0.4698 -0.9209
  579MOL0     H79856   6.460   5.121   4.435  0.1247 -2.0110  0.3553
  579MOL0     H79857   6.556   5.006   4.351  0.4477  0.9808 -1.7811
  579MOL0     H79858   6.665   5.261   4.483 -0.4366  0.2664 -2.0321
  579MOL0     H79859   6.633   5.101   4.561 -1.3472  0.6091 -0.8898
  579MOL0     H79860   6.965   4.923   4.412 -0.0265 -1.1300  0.0126
  579MOL0     H79861   7.308   4.945   4.488 -1.0943  2.4853  1.4069
  579MOL0     H79862   7.179   4.835   4.414 -0.6472 -0.5164  0.6677
  579MOL0     H79863   7.227   4.815   4.579  0.5351 -2.0001 -1.2982
  579MOL0     H79864   7.458   4.775   4.803 -2.3590  2.2262  2.0635
  579MOL0     H79865   7.675   4.745   4.905 -1.7597  0.4325  0.4463
  579MOL0     H79866   7.811   4.784   5.081 -0.8846  0.8157 -1.2260
  579MOL0     H79867   7.927   4.777   4.942 -0.7636  0.0447  0.1277
  579MOL0     H79868   7.993   4.897   5.206  0.2687 -2.7170  0.6603
  579MOL0     H79869   8.038   4.732   5.156  2.3629 -0.2923 -1.4403
  579MOL0     H79870   8.128   4.974   5.007 -0.6072 -0.1702 -0.2540
  579MOL0     H79871   8.178   4.800   5.001  0.7390 -2.8045  3.1787
  579MOL0     H79872   8.289   4.807   5.224  2.8265  2.1300  1.7661
  579MOL0     H79873   8.235   4.967   5.254  0.6729 -0.3526  1.0483
  579MOL0     H79874   8.434   4.842   5.068 -1.5856 -0.6280 -0.3210
  579MOL0     H79875   8.380   4.999   5.021 -0.1810 -3.7638 -2.5835
  579MOL0     H79876   8.522   4.919   5.263  5.1350  2.2498  1.7875
  579MOL0     H79877   8.461   5.087   5.256  3.3817  0.1259  2.8550
  579MOL0     H79878   8.591   5.095   5.033 -2.0347 -1.0082  0.0577
  579MOL0     H79879   8.671   4.946   5.064  2.1921  0.0867  2.8029
  579MOL0     H79880   8.760   5.037   5.298 -0.8990 -1.3414  0.1265
  579MOL0     H79881   8.710   5.192   5.241 -2.0710 -0.9118  0.9692
  579MOL0     H79882   7.724   5.175   4.930  0.2426 -0.6107 -0.4115
  579MOL0     H79883   7.503   5.207   4.822 -0.3681 -0.7874 -1.1736
  579MOL0     H79884   7.062   5.257   4.759  0.6428  0.5724 -0.8382
  579MOL0     H79885   6.842   5.265   4.642 -1.8991 -0.3753 -0.4959
  579MOL0     H79886   5.671   4.792   3.420 -2.9989 -0.8863 -2.0941
  579MOL0     H79887   5.464   4.698   3.462  0.5374  0.8477  1.6921
  579MOL0     H79888   5.081   4.554   3.682 -2.8436 -0.2898  2.0169
  579MOL0     H79889   4.878   4.437   3.691 -1.1089 -0.1323 -0.4240
  579MOL0     H79890   4.713   4.307   3.722 -0.5540  1.2709 -1.9320
  579MOL0     H79891   4.672   4.261   3.565 -1.8413  1.7872  2.0828
  579MOL0     H79892   4.642   4.084   3.821 -1.1477 -0.2800  0.6105
  579MOL0     H79893   4.608   4.034   3.657  0.9601  0.3726 -0.2062
  579MOL0     H79894   4.410   4.128   3.799  1.3115 -3.0579 -1.6634
  579MOL0     H79895   4.494   4.282   3.783  2.1710  0.8420 -3.7032
  579MOL0     H79896   4.471   4.269   3.539  0.3097  1.1048  1.9638
  579MOL0     H79897   4.320   4.290   3.619  1.1168  2.6785  0.3783
  579MOL0     H79898   4.222   3.933   3.420  1.2716  0.9311 -2.2549
  579MOL0     H79899   5.064   4.072   3.567  2.1282  0.4152 -4.0641
  579MOL0     H79900   5.404   4.172   3.589  0.5134 -0.0502 -1.3686
  579MOL0     H79901   5.290   4.046   3.572  2.6175  0.3936  0.5960
  579MOL0     H79902   5.321   4.146   3.436  2.2924  0.3502  0.4627
  580MOL0     O79903  11.130   7.733   5.292  0.6588 -0.2565 -0.7893
  580MOL0     C79904  11.151   7.852   5.321  0.5510  0.4775  0.5692
  580MOL0     O79905  11.256   7.924   5.277 -0.1797  0.1750  0.5675
  580MOL0     C79906  11.344   7.864   5.186 -0.5516 -0.7617  0.1810
  580MOL0     C79907  11.415   7.758   5.216 -0.3185  0.4825 -0.9282
  580MOL0     C79908  11.495   7.691   5.118 -0.0494 -0.3163 -0.1697
  580MOL0     C79909  11.497   7.741   4.990  0.8420 -0.1924  0.9326
  580MOL0     O79910  11.573   7.675   4.898  0.9125  0.2776  0.0151
  580MOL0     C79911  11.566   7.712   4.755  0.6029 -0.2515 -0.2184
  580MOL0     C79912  11.688   7.653   4.678 -0.2253 -0.2288  0.2661
  580MOL0     C79913  11.677   7.688   4.531 -0.1983  0.2024 -0.3893
  580MOL0     C79914  11.782   7.617   4.444 -0.2103  0.7171  0.4135
  580MOL0     C79915  11.801   7.677   4.302  0.5461  0.2772 -0.2072
  580MOL0     C79916  11.923   7.622   4.228  0.0877  1.0283  0.4818
  580MOL0     C79917  11.950   7.693   4.102 -0.3749 -1.0500  0.3921
  580MOL0     C79918  12.031   7.597   4.010 -0.1587 -0.2595 -0.4344
  580MOL0     N79919  12.090   7.673   3.901 -0.0477 -0.2999  0.1420
  580MOL0     C79920  12.020   7.706   3.787 -0.2934  0.0713 -0.4590
  580MOL0     C79921  12.104   7.753   3.698  0.0568  0.0483 -0.9641
  580MOL0     C79922  12.083   7.813   3.562  0.7182 -0.1832  0.2501
  580MOL0     C79923  12.070   7.970   3.567  0.4704 -0.0447 -0.4199
  580MOL0     C79924  11.991   8.049   3.685  0.0444 -0.5555  0.0719
  580MOL0     C79925  11.977   8.201   3.654  0.0699 -0.0028 -0.5348
  580MOL0     O79926  11.866   8.229   3.564  0.3184  0.1793 -0.3302
  580MOL0     C79927  11.864   8.357   3.518  0.3065  0.5999 -0.3242
  580MOL0     C79928  11.736   8.413   3.502 -0.6061  0.0999  1.0988
  580MOL0     C79929  11.720   8.537   3.428 -0.0422  1.1156 -0.0645
  580MOL0     C79930  11.585   8.612   3.427 -0.0762  0.1907 -0.0191
  580MOL0     C79931  11.838   8.601   3.376  0.1578 -0.0050 -0.5430
  580MOL0     C79932  11.839   8.730   3.307 -0.3158  0.9737 -0.0247
  580MOL0     O79933  11.943   8.741   3.207  0.6749 -0.0147  0.0958
  580MOL0     C79934  11.968   8.855   3.136  0.1539 -0.1886  0.0402
  580MOL0     C79935  12.035   8.839   3.011  0.2085 -0.2946  0.0706
  580MOL0     C79936  12.071   8.952   2.935  0.5583  0.6452  0.1725
  580MOL0     C79937  12.031   9.077   2.976 -0.5301  0.4319 -0.0783
  580MOL0     O79938  12.058   9.189   2.899  1.1134 -0.4342 -0.1289
  580MOL0     C79939  12.176   9.203   2.818  0.1503 -0.9904 -0.1487
  580MOL0     C79940  12.309   9.184   2.888 -0.5082 -1.0297  0.2004
  580MOL0     C79941  12.318   9.261   3.024 -0.4399 -0.2662 -1.1179
  580MOL0     C79942  12.466   9.261   3.074 -0.3463 -0.0079 -0.3763
  580MOL0     C79943  12.492   9.301   3.219  0.6422  0.6904  0.2179
  580MOL0     C79944  12.631   9.297   3.269 -0.7568 -0.3741  0.2091
  580MOL0     C79945  12.718   9.404   3.193  0.7009 -0.5742  0.6110
  580MOL0     C79946  12.845   9.432   3.277 -0.7995  0.0597 -0.3203
  580MOL0    Cl79947  12.934   9.274   3.282 -0.2727 -0.1268  0.3721
  580MOL0     C79948  11.959   9.088   3.091 -0.9515 -0.5164 -0.4729
  580MOL0     C79949  11.930   8.982   3.176 -0.0115 -0.5028 -0.2845
  580MOL0     O79950  11.756   8.813   3.336  0.0793 -0.8403  0.5378
  580MOL0     C79951  11.961   8.541   3.405  0.3430 -0.6044 -0.3515
  580MOL0     C79952  11.974   8.418   3.471 -0.2601  0.3884 -0.7286
  580MOL0     N79953  12.229   7.733   3.743 -0.2213 -0.0383 -0.8106
  580MOL0     N79954  12.219   7.687   3.866  0.5721 -0.1280 -0.2416
  580MOL0     C79955  11.414   7.850   4.955 -0.2496 -0.2842  0.4347
  580MOL0     C79956  11.341   7.914   5.056  0.2755 -0.4779 -0.3396
  580MOL0     C79957  11.041   7.914   5.406 -0.2894  0.2335 -0.1429
  580MOL0     C79958  10.984   7.834   5.507  0.3598 -0.5593  0.1897
  580MOL0     C79959  10.870   7.884   5.582  0.2531  0.1992  1.0560
  580MOL0     C79960  10.802   7.991   5.539 -0.3001 -0.3740  0.2213
  580MOL0     O79961  10.687   8.013   5.610 -0.2148  0.0022 -0.6278
  580MOL0     C79962  10.610   8.133   5.612  0.0244 -0.4342 -0.1315
  580MOL0     C79963  10.485   8.126   5.526  0.4421 -0.4189  0.0444
  580MOL0     C79964  10.397   8.002   5.551 -0.0290  0.4468  0.3280
  580MOL0     C79965  10.358   7.991   5.700 -0.3659  0.6120 -0.3213
  580MOL0     C79966  10.254   7.887   5.730 -0.4300  1.0280  0.5003
  580MOL0     C79967  10.171   7.801   5.752  0.3851  0.0800  1.0260
  580MOL0     C79968  10.851   8.082   5.444 -1.1507  0.3082 -0.8162
  580MOL0     C79969  10.973   8.036   5.377  0.5653 -1.4185  0.3176
  580MOL0     C79970  11.012   8.119   5.260 -0.1178 -0.8159  0.8751
  580MOL0     H79971  11.411   7.721   5.318  0.8982  2.7008 -0.0265
  580MOL0     H79972  11.550   7.603   5.150 -4.1695 -2.8001  0.6952
  580MOL0     H79973  11.561   7.817   4.725  1.9718 -0.5910 -1.7749
  580MOL0     H79974  11.479   7.658   4.716  1.0663 -1.3668  0.2705
  580MOL0     H79975  11.778   7.705   4.712  0.1475  1.3805 -2.7961
  580MOL0     H79976  11.689   7.545   4.692  1.1332  0.0009  2.3721
  580MOL0     H79977  11.575   7.671   4.497 -1.0331  2.4257  0.8330
  580MOL0     H79978  11.686   7.797   4.526 -0.9749  0.3691  1.0861
  580MOL0     H79979  11.876   7.619   4.501 -0.0562 -2.1727  0.3891
  580MOL0     H79980  11.763   7.510   4.435 -1.2098  0.9575 -0.4541
  580MOL0     H79981  11.815   7.785   4.314 -0.8385  0.2255  2.5851
  580MOL0     H79982  11.711   7.657   4.243  1.4609 -1.4808 -1.1186
  580MOL0     H79983  12.018   7.633   4.282  1.6972 -1.1734 -1.6598
  580MOL0     H79984  11.917   7.514   4.209 -2.4610  1.2143 -0.0213
  580MOL0     H79985  11.999   7.789   4.121  0.7738 -1.5448  0.0274
  580MOL0     H79986  11.856   7.722   4.053  0.6765  0.2917 -0.9523
  580MOL0     H79987  12.102   7.541   4.071 -0.6524 -0.4832 -0.0543
  580MOL0     H79988  11.965   7.515   3.981  0.7570 -0.9364 -0.6390
  580MOL0     H79989  11.912   7.695   3.777 -0.6043  1.0375  1.3114
  580MOL0     H79990  11.999   7.763   3.513 -0.6956  0.6716  1.6867
  580MOL0     H79991  12.174   7.794   3.504 -1.5853 -1.6965 -3.1556
  580MOL0     H79992  12.175   8.003   3.568  0.5171 -0.1523  1.1995
  580MOL0     H79993  12.016   8.008   3.480  0.9999  0.6812 -0.4407
  580MOL0     H79994  11.894   8.001   3.700  0.3860 -1.5038 -0.6131
  580MOL0     H79995  12.048   8.039   3.778  0.0545  3.1792  0.6166
  580MOL0     H79996  11.943   8.246   3.748 -0.0689 -0.9121 -0.1423
  580MOL0     H79997  12.075   8.238   3.622  0.8706 -1.8154 -0.3121
  580MOL0     H79998  11.656   8.357   3.552 -0.9950  0.3656  0.7804
  580MOL0     H79999  11.539   8.631   3.329 -0.6269 -0.9914 -0.0097
  580MOL0     H80000  11.594   8.703   3.487 -1.4390  0.2601  0.1268
  580MOL0     H80001  11.518   8.551   3.489 -1.3067 -0.1838 -1.6333
  580MOL0     H80002  12.043   8.736   2.977  3.9599 -1.1628  2.8703
  580MOL0     H80003  12.111   8.943   2.835  2.6871 -0.5783  1.0619
  580MOL0     H80004  12.166   9.139   2.729 -2.2023 -1.4862  0.4034
  580MOL0     H80005  12.185   9.306   2.782  0.8952 -1.0184 -0.0579
  580MOL0     H80006  12.325   9.077   2.900 -0.9655 -1.1244 -0.0312
  580MOL0     H80007  12.393   9.221   2.827  2.0727 -1.1707  3.3832
  580MOL0     H80008  12.260   9.210   3.101  1.1263 -1.1762 -0.5069
  580MOL0     H80009  12.286   9.366   3.024  4.2978  1.4421 -0.1364
  580MOL0     H80010  12.527   9.329   3.014  2.4314 -1.3039  0.7566
  580MOL0     H80011  12.519   9.165   3.066  0.7544  0.2180  2.8605
  580MOL0     H80012  12.452   9.402   3.235 -1.7171 -0.1590  0.0303
  580MOL0     H80013  12.430   9.234   3.279 -1.4573  0.3340 -2.1836
  580MOL0     H80014  12.681   9.200   3.256  0.7672  0.2014  1.4087
  580MOL0     H80015  12.643   9.319   3.375  0.0789  0.6772 -0.0844
  580MOL0     H80016  12.661   9.497   3.186  0.8485 -0.5810 -1.2899
  580MOL0     H80017  12.751   9.369   3.094  0.8893 -1.1548  0.8739
  580MOL0     H80018  12.833   9.471   3.378  0.1764  0.2032 -0.2500
  580MOL0     H80019  12.910   9.505   3.228  0.7870 -1.8307 -1.1863
  580MOL0     H80020  11.932   9.191   3.115 -1.4837 -1.0698  1.4819
  580MOL0     H80021  11.874   9.008   3.265 -3.6194  2.4582 -3.0866
  580MOL0     H80022  12.055   8.583   3.370  0.6475 -0.3070  0.7857
  580MOL0     H80023  12.076   8.380   3.475  0.5988  2.6181  1.6160
  580MOL0     H80024  11.429   7.905   4.863  1.6347 -1.1094  0.2039
  580MOL0     H80025  11.270   7.992   5.028 -0.5997 -1.2178 -0.2431
  580MOL0     H80026  11.030   7.737   5.521  2.0710  0.0704 -0.8119
  580MOL0     H80027  10.833   7.821   5.663  0.2627  0.6363  1.4055
  580MOL0     H80028  10.570   8.149   5.712  0.9693  2.5304 -0.1446
  580MOL0     H80029  10.673   8.217   5.584 -0.0497 -0.5348 -0.6260
  580MOL0     H80030  10.516   8.120   5.421 -1.7572  3.4891 -1.0324
  580MOL0     H80031  10.417   8.211   5.535 -0.6835 -1.2453 -0.4710
  580MOL0     H80032  10.308   8.019   5.489  2.4206  1.2750 -3.2642
  580MOL0     H80033  10.450   7.912   5.519  0.9986 -0.4418  4.1152
  580MOL0     H80034  10.331   8.093   5.730 -3.7172  0.3647 -2.0171
  580MOL0     H80035  10.443   7.974   5.765 -0.9017  0.7007  0.4155
  580MOL0     H80036  10.095   7.729   5.773  1.1565 -1.4334 -1.0735
  580MOL0     H80037  10.799   8.176   5.426  2.0256  2.1923 -0.9565
  580MOL0     H80038  11.119   8.103   5.243  0.7633  0.3306  4.5287
  580MOL0     H80039  10.955   8.107   5.168  2.8904 -0.6078 -1.1860
  580MOL0     H80040  10.993   8.222   5.292 -0.6345 -0.6234 -0.0304
  581MOL0     O80041  10.048   6.653   6.072 -0.2284 -0.6339  0.7362
  581MOL0     C80042   9.967   6.730   6.018 -0.1559  0.2240  0.1842
  581MOL0     O80043   9.996   6.866   5.988 -0.3840  0.0097  0.0457
  581MOL0     C80044  10.126   6.909   6.005  0.0282 -0.2942  0.2367
  581MOL0     C80045  10.157   6.985   6.121 -0.5977  0.4919 -0.6485
  581MOL0     C80046  10.281   7.055   6.129 -0.1681 -0.5801  0.1014
  581MOL0     C80047  10.375   7.041   6.021 -0.3446 -0.3257  0.5179
  581MOL0     O80048  10.477   7.131   6.019 -0.0133 -0.0132  0.4173
  581MOL0     C80049  10.586   7.117   5.919 -0.1190 -0.5591 -0.7116
  581MOL0     C80050  10.713   7.192   5.960 -0.6354 -0.4858 -0.6542
  581MOL0     C80051  10.766   7.146   6.088 -0.2513 -0.4694  0.3065
  581MOL0     C80052  10.917   7.148   6.086  0.3057 -0.4650  0.8103
  581MOL0     C80053  10.975   7.286   6.065 -0.3138 -0.4679 -0.1097
  581MOL0     C80054  11.131   7.283   6.068  0.1598 -0.7963 -0.5797
  581MOL0     C80055  11.193   7.421   6.091 -0.2686  0.2754 -0.9747
  581MOL0     C80056  11.342   7.404   6.060  0.0233  0.6931 -0.1423
  581MOL0     N80057  11.401   7.303   6.147 -1.0249 -0.2287 -0.3140
  581MOL0     C80058  11.437   7.326   6.278 -0.5088  0.3045  0.0720
  581MOL0     C80059  11.476   7.210   6.328 -0.5225 -0.1142 -0.0330
  581MOL0     C80060  11.533   7.154   6.453  0.0703 -0.9068  0.4722
  581MOL0     C80061  11.584   7.257   6.551  0.0691 -0.5753 -0.2553
  581MOL0     C80062  11.668   7.200   6.676  0.4628 -0.2263 -0.2381
  581MOL0     C80063  11.659   7.287   6.798 -0.7031 -0.3568 -0.7508
  581MOL0     O80064  11.690   7.424   6.761 -0.7900  0.4150 -0.5838
  581MOL0     C80065  11.821   7.460   6.749 -0.9371 -0.7263  0.4269
  581MOL0     C80066  11.846   7.593   6.707  0.0672 -0.0534 -0.4689
  581MOL0     C80067  11.975   7.651   6.692 -0.6701  0.7086 -0.6917
  581MOL0     C80068  11.985   7.797   6.658 -0.4771 -1.1151  0.0895
  581MOL0     C80069  12.086   7.560   6.715  0.2455 -0.1401  0.2106
  581MOL0     C80070  12.227   7.602   6.677  0.3667 -0.1422 -0.5392
  581MOL0     O80071  12.247   7.721   6.605 -0.3633  0.3815  0.3841
  581MOL0     C80072  12.363   7.765   6.543 -0.1895  0.1949  0.6066
  581MOL0     C80073  12.439   7.684   6.472 -0.2990  0.4331 -0.5923
  581MOL0     C80074  12.547   7.725   6.396 -0.3099  0.1407 -0.0489
  581MOL0     C80075  12.584   7.860   6.397 -0.2688 -0.0308  0.0119
  581MOL0     O80076  12.696   7.907   6.325 -0.2719  0.5363 -0.5486
  581MOL0     C80077  12.710   8.041   6.291  0.3939  0.1916 -0.3060
  581MOL0     C80078  12.835   8.078   6.211  0.2567 -0.2604 -0.5223
  581MOL0     C80079  12.829   8.223   6.152  0.0579  0.3518  0.4296
  581MOL0     C80080  12.864   8.220   6.003  0.8342  0.2340 -0.8635
  581MOL0     C80081  12.877   8.363   5.948 -0.1849 -0.3854 -0.4120
  581MOL0     C80082  12.752   8.461   5.930 -0.0489 -0.3800  0.0985
  581MOL0     C80083  12.675   8.399   5.815 -0.4093  0.0730 -0.0650
  581MOL0     C80084  12.534   8.457   5.816  0.0651  0.5028  0.0710
  581MOL0    Cl80085  12.460   8.402   5.661 -0.0704 -0.2277  0.2185
  581MOL0     C80086  12.494   7.958   6.466 -0.2339  0.3535  0.7288
  581MOL0     C80087  12.388   7.898   6.535  0.8166  0.4578 -0.2116
  581MOL0     O80088  12.316   7.535   6.728 -0.2844  0.3957  0.2877
  581MOL0     C80089  12.061   7.427   6.759 -0.3455 -0.0431  0.3435
  581MOL0     C80090  11.931   7.382   6.771  0.4094 -0.3061 -0.2981
  581MOL0     N80091  11.455   7.111   6.229 -0.6017  0.1751  0.8852
  581MOL0     N80092  11.421   7.169   6.119  0.3005  0.1641  0.0424
  581MOL0     C80093  10.339   6.952   5.917 -0.4834 -0.5999  0.1949
  581MOL0     C80094  10.223   6.880   5.909  0.0514 -0.1043  1.1908
  581MOL0     C80095   9.827   6.680   5.980  0.4506  0.0457  0.6707
  581MOL0     C80096   9.755   6.762   5.894  0.2750  0.2556 -0.3907
  581MOL0     C80097   9.628   6.718   5.853 -0.7578 -0.3359  0.2380
  581MOL0     C80098   9.572   6.591   5.891 -1.0602 -0.5725 -0.2920
  581MOL0     O80099   9.470   6.529   5.837  0.3503  1.2834  0.1338
  581MOL0     C80100   9.423   6.570   5.710  0.0001  0.1167  0.8331
  581MOL0     C80101   9.340   6.460   5.655  0.2872  0.0288  0.3283
  581MOL0     C80102   9.243   6.511   5.547  0.2035 -0.5552 -0.5897
  581MOL0     C80103   9.139   6.404   5.506 -0.8568 -0.5991 -0.6549
  581MOL0     C80104   9.041   6.368   5.613 -0.3844 -0.3140 -0.3642
  581MOL0     C80105   8.961   6.340   5.698 -0.0638 -0.1786  0.2265
  581MOL0     C80106   9.645   6.519   5.983  0.0251 -0.1347 -0.0453
  581MOL0     C80107   9.764   6.565   6.035 -0.1253  0.9531  0.1576
  581MOL0     C80108   9.833   6.475   6.134 -0.1591  1.6174 -0.3155
  581MOL0     H80109  10.089   7.006   6.204 -1.4312  0.7325 -1.3776
  581MOL0     H80110  10.297   7.124   6.210 -0.9621  0.6804 -0.7779
  581MOL0     H80111  10.559   7.156   5.820  2.1878  1.6649 -0.5825
  581MOL0     H80112  10.607   7.011   5.904  0.3300 -0.5118 -0.4438
  581MOL0     H80113  10.788   7.176   5.882  1.3338  1.8177  0.6151
  581MOL0     H80114  10.704   7.301   5.961  0.2066 -0.3741  1.3260
  581MOL0     H80115  10.733   7.211   6.170 -0.3131 -0.0866 -0.0177
  581MOL0     H80116  10.728   7.047   6.113 -0.0212 -0.2487  1.6245
  581MOL0     H80117  10.961   7.103   6.175 -1.3106  3.1927  3.7171
  581MOL0     H80118  10.946   7.086   6.000 -1.4394  2.0152 -1.7723
  581MOL0     H80119  10.944   7.354   6.145 -1.6942 -0.2701 -0.7671
  581MOL0     H80120  10.944   7.334   5.971 -0.3466 -1.0400 -0.3958
  581MOL0     H80121  11.157   7.230   6.159 -5.1207  0.4043  2.0175
  581MOL0     H80122  11.167   7.248   5.970  0.8314 -0.2593 -0.5346
  581MOL0     H80123  11.182   7.449   6.196 -0.2572 -2.2936 -0.2127
  581MOL0     H80124  11.161   7.509   6.035 -2.1545  1.6923  2.0376
  581MOL0     H80125  11.356   7.378   5.954  0.1209  3.8322 -0.9986
  581MOL0     H80126  11.397   7.498   6.073 -2.3797  2.4911 -1.9617
  581MOL0     H80127  11.454   7.422   6.326  0.5970  1.1409 -1.9035
  581MOL0     H80128  11.610   7.084   6.421  0.5780  0.9667 -2.8399
  581MOL0     H80129  11.467   7.084   6.505 -2.0177 -0.1956 -1.0775
  581MOL0     H80130  11.642   7.336   6.500  1.6112 -1.4908  0.0037
  581MOL0     H80131  11.493   7.308   6.583  1.4650  0.8247  1.7696
  581MOL0     H80132  11.631   7.100   6.699 -3.1841  0.5894 -1.8344
  581MOL0     H80133  11.774   7.183   6.656  0.4650 -0.6902  0.1611
  581MOL0     H80134  11.558   7.278   6.837 -1.2935  2.3815 -1.5005
  581MOL0     H80135  11.732   7.251   6.872  1.2153  3.7076 -0.4263
  581MOL0     H80136  11.758   7.653   6.683 -2.2861 -3.4430 -1.0942
  581MOL0     H80137  12.027   7.819   6.559  1.0324 -1.6029  0.5953
  581MOL0     H80138  12.042   7.851   6.733 -0.8206 -0.0796 -0.3793
  581MOL0     H80139  11.885   7.842   6.658 -1.2641 -2.7865  0.2657
  581MOL0     H80140  12.416   7.578   6.473  0.2505  0.3036 -1.2195
  581MOL0     H80141  12.612   7.655   6.345 -0.3478  0.4509 -0.5260
  581MOL0     H80142  12.621   8.069   6.234 -0.1793 -0.1409  0.4141
  581MOL0     H80143  12.703   8.095   6.386  0.1769 -0.6551  0.1729
  581MOL0     H80144  12.918   8.090   6.280 -1.5619 -0.9171  1.9467
  581MOL0     H80145  12.859   8.006   6.132  1.9565 -1.1762  0.7727
  581MOL0     H80146  12.898   8.287   6.209 -0.2023  0.2068  0.9155
  581MOL0     H80147  12.730   8.265   6.167  0.2630  1.1806 -0.4510
  581MOL0     H80148  12.779   8.167   5.958  1.4527  0.6115 -2.5314
  581MOL0     H80149  12.954   8.161   5.985  0.8968  0.5586 -1.6289
  581MOL0     H80150  12.947   8.418   6.012 -2.5804  0.8303  1.3369
  581MOL0     H80151  12.923   8.357   5.849 -2.3625  1.9604 -1.7014
  581MOL0     H80152  12.786   8.562   5.907  0.7401 -0.7368 -0.3410
  581MOL0     H80153  12.700   8.460   6.026  2.0716 -2.4553  1.3517
  581MOL0     H80154  12.671   8.292   5.836  3.1603  0.2425  2.4306
  581MOL0     H80155  12.730   8.409   5.721  1.1977 -0.2716  0.7864
  581MOL0     H80156  12.520   8.566   5.820  0.1314  0.5425 -0.6228
  581MOL0     H80157  12.483   8.425   5.907  1.5678  1.1554  1.1866
  581MOL0     H80158  12.514   8.063   6.483  0.1937  0.0907  1.9864
  581MOL0     H80159  12.306   7.948   6.587  1.4299 -0.0185  1.2777
  581MOL0     H80160  12.148   7.362   6.769 -0.4234 -0.5700 -1.8931
  581MOL0     H80161  11.919   7.281   6.808  0.8698  0.6653  2.7982
  581MOL0     H80162  10.412   6.937   5.838  0.2314  0.6554  0.5870
  581MOL0     H80163  10.202   6.822   5.820 -0.0389 -2.0461  2.4210
  581MOL0     H80164   9.798   6.856   5.862  2.3377  0.0644  1.5672
  581MOL0     H80165   9.584   6.785   5.781 -0.7301  0.4174  0.9112
  581MOL0     H80166   9.350   6.650   5.724  0.7429  1.1348 -0.8731
  581MOL0     H80167   9.505   6.603   5.646  1.3835 -0.8287  2.0416
  581MOL0     H80168   9.279   6.418   5.735  0.9610 -1.0340  0.2958
  581MOL0     H80169   9.404   6.382   5.614  1.5641  1.3779 -0.3610
  581MOL0     H80170   9.183   6.592   5.590 -1.9462 -1.2166 -2.1586
  581MOL0     H80171   9.303   6.552   5.466 -0.2708 -0.8465 -1.0954
  581MOL0     H80172   9.191   6.309   5.487  2.5545  1.1170 -0.7393
  581MOL0     H80173   9.092   6.442   5.415  1.9287  1.6923 -1.3013
  581MOL0     H80174   8.885   6.305   5.764 -1.4535 -0.5897 -1.5072
  581MOL0     H80175   9.612   6.418   6.006  1.0569 -0.9802 -2.0320
  581MOL0     H80176   9.842   6.532   6.228 -0.1076  3.0957 -1.1842
  581MOL0     H80177   9.772   6.388   6.160 -0.5970  1.5203 -1.6286
  581MOL0     H80178   9.926   6.432   6.098  0.1464 -1.5187  3.4983
  582MOL0     O80179   6.252   3.773   9.564  0.0586 -0.6587  0.3641
  582MOL0     C80180   6.250   3.661   9.521  0.7339  0.4769 -0.1215
  582MOL0     O80181   6.357   3.575   9.515  0.0918 -0.3864  0.2915
  582MOL0     C80182   6.484   3.586   9.572  0.4935 -0.3035 -0.1108
  582MOL0     C80183   6.539   3.706   9.613  0.2230 -0.5279  0.0816
  582MOL0     C80184   6.664   3.712   9.671  0.1798  0.0005  0.0530
  582MOL0     C80185   6.737   3.591   9.703  0.0019  0.6376  0.3167
  582MOL0     O80186   6.865   3.579   9.759  0.4978  0.3614  0.0432
  582MOL0     C80187   6.928   3.705   9.801 -0.0925  0.4865  0.1912
  582MOL0     C80188   6.863   3.751   9.928  0.0509 -0.3330  0.4870
  582MOL0     C80189   6.884   3.892   9.958  0.3256 -0.2081  0.8385
  582MOL0     C80190   6.790   3.940  10.062  0.3423 -0.5098  0.3155
  582MOL0     C80191   6.779   3.855  10.193  1.4761  0.0437 -0.3228
  582MOL0     C80192   6.676   3.918  10.280 -0.2797  0.7821  0.0589
  582MOL0     C80193   6.637   3.837  10.405  0.1562  0.6900 -0.4794
  582MOL0     C80194   6.736   3.819  10.511 -0.4666 -0.6858 -0.1585
  582MOL0     N80195   6.721   3.698  10.592  0.4483  0.2045 -0.7350
  582MOL0     C80196   6.759   3.576  10.555 -0.7438  0.0923  0.0292
  582MOL0     C80197   6.705   3.497  10.649 -0.1022 -0.1300  0.0120
  582MOL0     C80198   6.688   3.341  10.631 -0.4433 -0.3186 -0.4460
  582MOL0     C80199   6.691   3.274  10.759  0.3890  0.4519  0.3765
  582MOL0     C80200   6.627   3.134  10.733  0.7581  0.3329  0.4182
  582MOL0     C80201   6.608   3.048  10.860 -0.1586 -0.9461 -0.2396
  582MOL0     O80202   6.651   2.914  10.851 -0.5524  1.0013 -0.3481
  582MOL0     C80203   6.568   2.840  10.765  0.4662 -0.1701  0.5750
  582MOL0     C80204   6.624   2.779  10.653 -0.6445  0.0713 -0.2262
  582MOL0     C80205   6.562   2.683  10.575 -0.3090  0.5357  0.8902
  582MOL0     C80206   6.635   2.615  10.460 -0.5739  0.0101 -0.3305
  582MOL0     C80207   6.424   2.657  10.598  0.7498  0.1361 -0.7720
  582MOL0     C80208   6.328   2.574  10.522  0.3795 -0.1655  0.4035
  582MOL0     O80209   6.253   2.491  10.590 -0.1081 -0.1791 -0.1390
  582MOL0     C80210   6.193   2.387  10.530 -0.1878  0.8292 -0.4928
  582MOL0     C80211   6.109   2.403  10.421  0.7411 -0.2220  0.4920
  582MOL0     C80212   6.030   2.294  10.374 -0.4617 -0.7158 -0.4379
  582MOL0     C80213   6.032   2.167  10.440 -0.1356  0.4527 -0.6026
  582MOL0     O80214   5.953   2.064  10.418 -0.2079  0.3833 -0.0855
  582MOL0     C80215   5.837   2.087  10.341 -0.4462  0.0290  0.1123
  582MOL0     C80216   5.745   1.969  10.345  0.8129 -0.5229 -1.0603
  582MOL0     C80217   5.626   1.996  10.265  1.7166  0.4807  0.1178
  582MOL0     C80218   5.527   1.881  10.296 -0.3405  0.2560 -0.8518
  582MOL0     C80219   5.389   1.904  10.227 -0.4388  0.4742  0.1644
  582MOL0     C80220   5.302   1.786  10.268 -0.3260  0.2849  0.5920
  582MOL0     C80221   5.163   1.804  10.205  0.3834 -0.7705  0.1276
  582MOL0     C80222   5.062   1.704  10.259  0.7405  1.0597 -0.1244
  582MOL0    Cl80223   4.915   1.716  10.160  0.0306 -0.1586 -0.3345
  582MOL0     C80224   6.128   2.154  10.543 -0.1906  0.5670 -0.3075
  582MOL0     C80225   6.202   2.260  10.591 -0.4433 -0.2269 -0.2703
  582MOL0     O80226   6.336   2.587  10.392  0.2262  0.2112 -0.0189
  582MOL0     C80227   6.361   2.723  10.703  0.4019 -0.3301  0.2784
  582MOL0     C80228   6.436   2.812  10.793  0.6079  0.8368  0.3325
  582MOL0     N80229   6.650   3.571  10.752  0.6764 -0.0887 -0.1869
  582MOL0     N80230   6.665   3.694  10.718 -0.3746 -0.9078 -0.2667
  582MOL0     C80231   6.668   3.470   9.663 -0.4188 -0.5245 -0.5059
  582MOL0     C80232   6.548   3.470   9.591  0.1909  0.4301 -0.6630
  582MOL0     C80233   6.104   3.630   9.476 -0.9134  0.8806  0.3460
  582MOL0     C80234   6.011   3.737   9.450 -0.5902  0.6239  1.0761
  582MOL0     C80235   5.878   3.705   9.436 -0.0783  0.6812 -0.1458
  582MOL0     C80236   5.836   3.573   9.431 -0.1741  0.4992  0.3659
  582MOL0     O80237   5.706   3.552   9.420  0.6439  0.6546  1.1700
  582MOL0     C80238   5.642   3.444   9.348 -0.5882  0.5712 -0.3283
  582MOL0     C80239   5.556   3.505   9.244  0.3961  0.8672 -0.2133
  582MOL0     C80240   5.447   3.594   9.312 -0.4691  0.2139  1.0827
  582MOL0     C80241   5.366   3.680   9.201  0.2815 -0.5323 -0.6941
  582MOL0     C80242   5.423   3.814   9.189  1.0592  0.0996 -0.2430
  582MOL0     C80243   5.487   3.916   9.184 -0.2256  0.1215 -0.3280
  582MOL0     C80244   5.932   3.468   9.441  0.3459  0.0176 -0.4355
  582MOL0     C80245   6.065   3.496   9.470 -0.2206  0.2324 -0.4444
  582MOL0     C80246   6.150   3.375   9.491  0.3859  0.2976  0.9434
  582MOL0     H80247   6.478   3.795   9.598 -0.3060 -1.2806 -3.1546
  582MOL0     H80248   6.711   3.808   9.692  1.1862  0.1125 -2.3106
  582MOL0     H80249   6.916   3.771   9.714 -0.1353 -0.4057 -0.4935
  582MOL0     H80250   7.035   3.688   9.819  0.0931 -0.0961 -1.3538
  582MOL0     H80251   6.757   3.727   9.916  0.4341 -1.0976 -1.6126
  582MOL0     H80252   6.900   3.685  10.007 -1.1299  0.0063  1.3657
  582MOL0     H80253   6.988   3.887   9.995  0.4537 -3.7350  0.3410
  582MOL0     H80254   6.869   3.954   9.870 -0.5985  1.2819  2.0055
  582MOL0     H80255   6.836   4.035  10.093  1.3482 -1.5867  2.3298
  582MOL0     H80256   6.692   3.955  10.015 -0.9459 -2.6212  2.1339
  582MOL0     H80257   6.876   3.860  10.244  2.0210 -0.3965 -1.3026
  582MOL0     H80258   6.744   3.751  10.191 -0.6641  0.7025 -3.2718
  582MOL0     H80259   6.705   4.020  10.305  1.9588  0.1076  0.4319
  582MOL0     H80260   6.588   3.933  10.217 -0.3385 -0.2823 -0.1330
  582MOL0     H80261   6.615   3.737  10.368  0.3075  0.8428 -0.9905
  582MOL0     H80262   6.553   3.872  10.466 -0.8662 -0.6327 -1.0759
  582MOL0     H80263   6.839   3.818  10.475  0.8707  0.2978  3.2761
  582MOL0     H80264   6.715   3.906  10.574 -0.8930  1.0109 -2.4967
  582MOL0     H80265   6.801   3.553  10.458  1.5164 -0.3828  1.0449
  582MOL0     H80266   6.755   3.300  10.555 -0.1404 -0.6615 -0.0072
  582MOL0     H80267   6.588   3.325  10.592 -1.0369  3.7636 -1.0824
  582MOL0     H80268   6.798   3.271  10.781  0.7107  0.5175 -1.0977
  582MOL0     H80269   6.635   3.331  10.835 -0.1736 -2.2158  2.0964
  582MOL0     H80270   6.533   3.131  10.677  0.9728  0.0528  0.0641
  582MOL0     H80271   6.687   3.074  10.665 -0.7556 -0.0602 -0.6146
  582MOL0     H80272   6.670   3.096  10.936 -0.7938 -0.3289 -0.0984
  582MOL0     H80273   6.503   3.050  10.891 -0.2579 -0.1682 -0.6125
  582MOL0     H80274   6.728   2.806  10.637 -1.6085  3.4052 -1.6890
  582MOL0     H80275   6.584   2.522  10.436 -0.7491  0.7210 -3.0653
  582MOL0     H80276   6.735   2.589  10.497 -0.7832  2.5479  2.3553
  582MOL0     H80277   6.629   2.673  10.367  1.3589 -0.8936 -1.0709
  582MOL0     H80278   6.101   2.496  10.367 -2.2285 -0.2722  0.6681
  582MOL0     H80279   5.955   2.302  10.296 -0.0403  0.7438 -0.7262
  582MOL0     H80280   5.790   2.181  10.371  0.4479  0.4664  0.1820
  582MOL0     H80281   5.866   2.085  10.235 -0.4247 -0.2700  0.1221
  582MOL0     H80282   5.792   1.874  10.319  1.3349 -0.4473 -0.4264
  582MOL0     H80283   5.717   1.960  10.451  0.7291  1.0772 -0.9238
  582MOL0     H80284   5.643   2.001  10.157 -1.5155  0.4670 -0.5079
  582MOL0     H80285   5.574   2.084  10.303  0.0468 -0.6176  0.5347
  582MOL0     H80286   5.501   1.874  10.402 -1.2674 -1.0529 -1.1476
  582MOL0     H80287   5.568   1.784  10.266 -2.6223 -1.2807  0.6265
  582MOL0     H80288   5.349   1.999  10.263 -0.6155  0.6408 -0.4488
  582MOL0     H80289   5.395   1.914  10.118  0.5531 -1.2655  0.0259
  582MOL0     H80290   5.299   1.781  10.377 -2.1219 -2.8023  0.4929
  582MOL0     H80291   5.338   1.689  10.233 -0.5703  0.4451 -0.1158
  582MOL0     H80292   5.175   1.788  10.098  1.4412 -3.8823  0.5924
  582MOL0     H80293   5.127   1.904  10.231 -0.1912 -0.7487 -0.7549
  582MOL0     H80294   5.034   1.720  10.364 -0.4353 -1.0369 -0.0545
  582MOL0     H80295   5.105   1.604  10.260 -0.9054  0.3165  0.6327
  582MOL0     H80296   6.138   2.058  10.592 -3.5784 -0.7329 -1.8435
  582MOL0     H80297   6.268   2.244  10.676  0.4959 -0.3421 -1.0100
  582MOL0     H80298   6.256   2.708  10.723  0.5959 -2.2343  0.0543
  582MOL0     H80299   6.381   2.863  10.871 -0.4036 -0.5256  0.5453
  582MOL0     H80300   6.712   3.372   9.680  3.4344  1.2293  0.8112
  582MOL0     H80301   6.501   3.377   9.561 -1.1188  1.0689 -0.6699
  582MOL0     H80302   6.036   3.840   9.475 -1.2187  1.1860 -0.4714
  582MOL0     H80303   5.807   3.787   9.440 -1.8836 -0.8623  2.0615
  582MOL0     H80304   5.715   3.375   9.305 -2.7592 -2.8646  1.0820
  582MOL0     H80305   5.589   3.372   9.411  1.3356 -3.0330 -2.4453
  582MOL0     H80306   5.500   3.425   9.194 -1.3947 -0.8715  4.0953
  582MOL0     H80307   5.617   3.562   9.173 -0.1012 -0.4903 -1.7935
  582MOL0     H80308   5.371   3.531   9.360 -2.4844  1.0468 -0.8203
  582MOL0     H80309   5.485   3.659   9.391  0.6996 -2.2947  2.7459
  582MOL0     H80310   5.265   3.699   9.239  0.3540  1.5005 -1.3914
  582MOL0     H80311   5.357   3.623   9.109 -1.7848 -4.4472  1.6511
  582MOL0     H80312   5.522   4.017   9.191  1.9121 -0.2114 -3.9247
  582MOL0     H80313   5.903   3.364   9.437  1.2063 -0.2396 -0.1489
  582MOL0     H80314   6.088   3.286   9.481  0.2300  0.5405 -0.5413
  582MOL0     H80315   6.228   3.381   9.415 -0.3240  0.6712  0.2236
  582MOL0     H80316   6.194   3.376   9.591 -1.9967 -0.4726  2.0795
  583MOL0     O80317   2.494   9.955   2.933 -0.4399 -0.2293 -0.0298
  583MOL0     C80318   2.429   9.851   2.933 -0.0894  1.0489  0.2439
  583MOL0     O80319   2.481   9.733   2.981 -0.0381  0.5886  0.6322
  583MOL0     C80320   2.615   9.726   3.019 -0.1799  1.2060  0.5513
  583MOL0     C80321   2.713   9.664   2.942 -0.2489  0.4666 -0.0936
  583MOL0     C80322   2.846   9.662   2.980 -0.8317 -0.7279  0.9658
  583MOL0     C80323   2.887   9.727   3.104  0.0438  0.5549  0.1430
  583MOL0     O80324   3.015   9.711   3.156  0.7541 -0.2574  0.0920
  583MOL0     C80325   3.119   9.727   3.063 -0.5305  0.0877 -0.0954
  583MOL0     C80326   3.250   9.744   3.148  0.2847 -0.0990 -0.2084
  583MOL0     C80327   3.374   9.677   3.090  0.5017 -0.2452  0.7124
  583MOL0     C80328   3.485   9.692   3.191 -0.2270 -0.7894  0.2573
  583MOL0     C80329   3.613   9.659   3.121  0.5061  0.2020 -0.5961
  583MOL0     C80330   3.733   9.683   3.204 -0.0857  0.2805  0.5969
  583MOL0     C80331   3.860   9.671   3.119  0.0894  0.1319 -0.2515
  583MOL0     C80332   3.921   9.529   3.102  0.7141 -0.1098  0.8229
  583MOL0     N80333   4.044   9.514   3.178  0.3458  0.6185  0.4883
  583MOL0     C80334   4.068   9.425   3.293  0.5600 -0.4595 -0.3635
  583MOL0     C80335   4.202   9.440   3.323  0.9562 -1.0321  1.2674
  583MOL0     C80336   4.283   9.380   3.438  0.1690  0.5749 -0.3050
  583MOL0     C80337   4.340   9.236   3.406  0.8142  0.5161 -0.1830
  583MOL0     C80338   4.249   9.110   3.404 -0.4882 -0.7320  0.1328
  583MOL0     C80339   4.160   9.086   3.517 -0.4965 -0.1430  0.0697
  583MOL0     O80340   4.059   8.990   3.498  0.6770  0.0869  1.4360
  583MOL0     C80341   3.948   9.008   3.569 -0.1588 -0.2944 -1.1846
  583MOL0     C80342   3.941   9.029   3.707 -0.1720 -0.2063  0.5831
  583MOL0     C80343   3.819   9.048   3.769  0.5965 -0.3503 -0.9274
  583MOL0     C80344   3.838   9.044   3.924  0.0842 -0.1156  0.0823
  583MOL0     C80345   3.698   9.049   3.697  0.4606  0.5887  0.8762
  583MOL0     C80346   3.575   9.085   3.758 -1.1248  0.1877  0.3899
  583MOL0     O80347   3.542   9.216   3.747  0.1182  0.0828 -0.0375
  583MOL0     C80348   3.455   9.274   3.837 -0.3574  0.3446 -0.2300
  583MOL0     C80349   3.412   9.404   3.802 -0.5748  0.8941  0.1401
  583MOL0     C80350   3.313   9.472   3.874 -0.8451 -0.7267  0.0045
  583MOL0     C80351   3.260   9.421   4.002 -0.3185  0.0020 -0.4608
  583MOL0     O80352   3.169   9.495   4.064  0.2341  0.4765  0.0988
  583MOL0     C80353   3.083   9.424   4.154  0.1499  0.2671  0.2890
  583MOL0     C80354   2.992   9.534   4.214 -1.2307 -0.2917 -0.6080
  583MOL0     C80355   2.872   9.472   4.282  0.7180 -0.1871 -0.0313
  583MOL0     C80356   2.767   9.576   4.329 -0.1374 -0.6956  0.2620
  583MOL0     C80357   2.649   9.518   4.395 -0.7517  0.4604  0.1734
  583MOL0     C80358   2.646   9.495   4.553  0.3391  0.9563  0.4032
  583MOL0     C80359   2.745   9.394   4.613  0.3293  0.1678  0.4065
  583MOL0     C80360   2.876   9.456   4.659  0.9929  0.1757  0.7203
  583MOL0    Cl80361   2.839   9.547   4.807 -0.6979 -0.0525 -0.1830
  583MOL0     C80362   3.312   9.292   4.038 -0.2323  0.8006  0.5465
  583MOL0     C80363   3.406   9.219   3.961 -0.1415  0.3376  0.1012
  583MOL0     O80364   3.504   8.995   3.805 -1.1149 -0.3977  0.1373
  583MOL0     C80365   3.695   9.030   3.560 -0.4280  0.9415 -0.8385
  583MOL0     C80366   3.828   9.005   3.500 -0.0049 -0.0058  0.7014
  583MOL0     N80367   4.255   9.517   3.219  0.3884  0.3488 -0.0391
  583MOL0     N80368   4.170   9.556   3.133  0.1796  0.2745  0.1663
  583MOL0     C80369   2.788   9.780   3.178  0.6165 -0.6115 -0.7800
  583MOL0     C80370   2.651   9.785   3.141  0.7195  0.7823 -0.1289
  583MOL0     C80371   2.283   9.859   2.888 -0.5373 -0.6853  0.2178
  583MOL0     C80372   2.245   9.981   2.824  0.1988  0.2652 -0.0237
  583MOL0     C80373   2.108   9.999   2.788  0.4400  0.6757  0.2437
  583MOL0     C80374   2.016   9.898   2.806 -0.0473 -0.0586  0.9480
  583MOL0     O80375   1.881   9.914   2.787  0.4705  0.4648 -0.6294
  583MOL0     C80376   1.822  10.043   2.773  0.4677  0.9877 -0.4112
  583MOL0     C80377   1.677  10.029   2.807  0.8207 -0.2413  0.5654
  583MOL0     C80378   1.648   9.997   2.957  0.7592  0.2528 -0.2755
  583MOL0     C80379   1.500   9.957   2.978 -0.1032 -0.1046 -0.7612
  583MOL0     C80380   1.459   9.923   3.124 -0.1335 -0.0628  0.4219
  583MOL0     C80381   1.431   9.887   3.236  0.7304 -0.1591 -0.2472
  583MOL0     C80382   2.060   9.777   2.860 -0.2922  0.9604 -0.3540
  583MOL0     C80383   2.189   9.754   2.907  0.4033 -0.2238  0.1598
  583MOL0     C80384   2.209   9.616   2.963 -0.0902 -0.1170 -0.3610
  583MOL0     H80385   2.681   9.606   2.855  2.3927  1.5059 -1.8848
  583MOL0     H80386   2.916   9.610   2.916 -1.5280 -1.0822  0.4805
  583MOL0     H80387   3.108   9.803   2.985 -2.5855 -0.8660 -0.8347
  583MOL0     H80388   3.130   9.630   3.012  1.0490  0.7328 -1.0454
  583MOL0     H80389   3.268   9.850   3.169  0.0412 -0.3958  1.6510
  583MOL0     H80390   3.231   9.694   3.243 -1.2529 -0.8814 -0.8832
  583MOL0     H80391   3.354   9.573   3.063 -0.0004 -0.0646  0.3826
  583MOL0     H80392   3.407   9.721   2.996 -0.7571 -0.4716  0.1581
  583MOL0     H80393   3.481   9.796   3.224 -2.0217  0.2451 -2.8140
  583MOL0     H80394   3.478   9.627   3.279 -0.7550 -0.4328  0.4798
  583MOL0     H80395   3.624   9.725   3.035  0.0620 -1.0935 -1.6837
  583MOL0     H80396   3.606   9.552   3.098 -1.8513  0.1196  0.2333
  583MOL0     H80397   3.726   9.787   3.238 -2.1815 -0.6080  3.1163
  583MOL0     H80398   3.738   9.627   3.298  0.9868  4.0007  3.0028
  583MOL0     H80399   3.920   9.748   3.169 -2.2849  1.2098  1.1612
  583MOL0     H80400   3.837   9.712   3.020  1.6503  1.4105 -0.1373
  583MOL0     H80401   3.851   9.448   3.125 -1.3436  1.8195  1.7194
  583MOL0     H80402   3.935   9.523   2.993 -2.3029 -0.3309  0.3570
  583MOL0     H80403   3.998   9.359   3.343  1.6329  0.2606  2.2515
  583MOL0     H80404   4.225   9.363   3.529  0.5663  2.7806  0.4302
  583MOL0     H80405   4.355   9.457   3.467  0.7344  0.1308 -0.5028
  583MOL0     H80406   4.396   9.248   3.313 -1.9970  1.6447 -1.8621
  583MOL0     H80407   4.399   9.200   3.491  0.3672  0.9381  0.3204
  583MOL0     H80408   4.190   9.136   3.315 -1.7195  3.3815  1.8802
  583MOL0     H80409   4.311   9.023   3.383  1.6253  1.0761 -1.6513
  583MOL0     H80410   4.215   9.069   3.610 -1.3396 -0.0481  0.5945
  583MOL0     H80411   4.109   9.183   3.524  1.1004  1.0156 -2.6045
  583MOL0     H80412   4.026   9.035   3.774 -1.5218 -1.4014  2.5177
  583MOL0     H80413   3.863   9.137   3.976  0.2336  0.1355 -0.4395
  583MOL0     H80414   3.922   8.975   3.935 -0.1471 -0.4106  0.0328
  583MOL0     H80415   3.754   9.001   3.980  2.8739 -0.9842  4.0522
  583MOL0     H80416   3.456   9.454   3.716 -0.3414  0.4272 -0.0130
  583MOL0     H80417   3.286   9.571   3.839 -3.4097 -0.8053  1.5566
  583MOL0     H80418   3.021   9.349   4.105  0.9152 -0.9034  1.0655
  583MOL0     H80419   3.133   9.364   4.230 -0.3537  1.3252  1.5045
  583MOL0     H80420   3.053   9.587   4.287 -2.5273  0.3753  0.0404
  583MOL0     H80421   2.963   9.607   4.139  0.4633  1.3754  0.2860
  583MOL0     H80422   2.904   9.420   4.373  1.0453  2.0274  1.2160
  583MOL0     H80423   2.822   9.411   4.206  1.5566  1.0168 -1.6193
  583MOL0     H80424   2.727   9.635   4.246 -0.4626 -1.2052  0.0533
  583MOL0     H80425   2.821   9.648   4.392  0.1640 -0.0827 -0.6776
  583MOL0     H80426   2.567   9.584   4.366  0.2484  1.8347  0.3935
  583MOL0     H80427   2.621   9.426   4.343 -0.3463  1.5206 -2.0479
  583MOL0     H80428   2.548   9.458   4.586  1.1915  0.0138  2.0197
  583MOL0     H80429   2.676   9.596   4.583  2.7543  1.9424 -4.4444
  583MOL0     H80430   2.762   9.330   4.527  1.9335  2.9084 -1.4695
  583MOL0     H80431   2.708   9.336   4.698  2.1186  0.5158  1.4974
  583MOL0     H80432   2.932   9.508   4.581  0.7263 -1.7403 -0.8459
  583MOL0     H80433   2.933   9.370   4.696  1.2027  0.1705  0.3819
  583MOL0     H80434   3.282   9.254   4.136  0.0302 -1.0008 -0.0386
  583MOL0     H80435   3.451   9.129   4.000  0.4287 -0.4070 -2.1451
  583MOL0     H80436   3.604   9.047   3.502 -0.9825 -1.6323 -0.8645
  583MOL0     H80437   3.831   8.988   3.393 -2.1384  0.1911  0.5679
  583MOL0     H80438   2.814   9.820   3.276  0.7162 -0.5537 -0.8296
  583MOL0     H80439   2.578   9.835   3.204  2.2826 -0.9184  3.3213
  583MOL0     H80440   2.312  10.066   2.820 -1.5293  1.7659  1.1799
  583MOL0     H80441   2.070  10.096   2.758 -4.2457  0.0057  2.9369
  583MOL0     H80442   1.868  10.125   2.829 -3.0443 -0.0014  4.5355
  583MOL0     H80443   1.843  10.071   2.669  2.8010 -2.0422 -0.9184
  583MOL0     H80444   1.637   9.956   2.736 -0.5664 -2.4852  3.4531
  583MOL0     H80445   1.633  10.123   2.773 -0.5879 -0.5593  1.4575
  583MOL0     H80446   1.714   9.917   2.992  0.1871 -1.3482 -2.5658
  583MOL0     H80447   1.672  10.088   3.013  0.2659  0.8128 -0.9524
  583MOL0     H80448   1.490   9.867   2.918  0.3072  0.6596 -2.0285
  583MOL0     H80449   1.436  10.040   2.948 -2.7550 -0.3997  3.2527
  583MOL0     H80450   1.423   9.859   3.339  0.9625 -2.3672 -0.7873
  583MOL0     H80451   1.979   9.711   2.886 -0.5941  2.1281  1.9647
  583MOL0     H80452   2.269   9.545   2.906  1.5501  0.6278  0.3692
  583MOL0     H80453   2.259   9.627   3.060  1.2765  0.0502 -1.0626
  583MOL0     H80454   2.116   9.562   2.984  1.1467 -1.5204  2.0212
  584MOL0     O80455   1.266   4.138  11.005 -0.3260  0.1908  0.2383
  584MOL0     C80456   1.370   4.114  11.063  0.2299 -0.2015 -0.3275
  584MOL0     O80457   1.477   4.199  11.078  0.0454 -0.5551 -0.2503
  584MOL0     C80458   1.493   4.292  10.979 -0.1511 -0.3463 -0.1432
  584MOL0     C80459   1.492   4.431  11.003 -0.5158 -0.2360  0.0670
  584MOL0     C80460   1.518   4.529  10.906 -0.8760  0.0276 -0.0212
  584MOL0     C80461   1.557   4.488  10.777 -0.6787  0.3649  0.4473
  584MOL0     O80462   1.571   4.586  10.686  0.3724  0.3115  0.4381
  584MOL0     C80463   1.625   4.549  10.557  0.0132 -0.5029 -0.0962
  584MOL0     C80464   1.610   4.680  10.477 -0.5850  0.1542 -0.3482
  584MOL0     C80465   1.682   4.658  10.339  0.5920 -0.3706  0.3475
  584MOL0     C80466   1.598   4.573  10.233 -0.1912 -0.9507  1.0759
  584MOL0     C80467   1.651   4.587  10.089 -0.2145 -0.4178  0.4486
  584MOL0     C80468   1.615   4.458  10.006  0.3771  0.6186  0.5272
  584MOL0     C80469   1.656   4.462   9.864 -0.6514  0.1651 -0.2438
  584MOL0     C80470   1.601   4.340   9.787  0.3212 -0.0140 -0.0173
  584MOL0     N80471   1.708   4.233   9.783  0.5195 -0.4136  0.3206
  584MOL0     C80472   1.694   4.100   9.814 -0.2095  0.3787 -0.4796
  584MOL0     C80473   1.812   4.042   9.772 -0.3817 -0.3469  0.4381
  584MOL0     C80474   1.837   3.889   9.756 -0.1144  0.5904 -0.1634
  584MOL0     C80475   1.928   3.849   9.633 -0.4933 -0.2704  0.2045
  584MOL0     C80476   1.860   3.893   9.511  0.4759  0.9308  0.1426
  584MOL0     C80477   1.914   3.817   9.384  0.1110  1.5155  0.3591
  584MOL0     O80478   1.881   3.672   9.407 -0.5143  0.0236 -0.2573
  584MOL0     C80479   1.971   3.581   9.354  0.9078  0.4304  0.0659
  584MOL0     C80480   2.064   3.613   9.252 -0.7525  1.0379  0.0269
  584MOL0     C80481   2.172   3.526   9.226 -0.1534 -0.7071  0.3142
  584MOL0     C80482   2.285   3.576   9.137 -1.0416  0.1088  0.3445
  584MOL0     C80483   2.184   3.397   9.296 -0.4274 -0.6544  0.1988
  584MOL0     C80484   2.289   3.304   9.268  1.0561  0.3788  0.7964
  584MOL0     O80485   2.313   3.217   9.367 -0.2422  0.2712 -0.2118
  584MOL0     C80486   2.382   3.097   9.355 -0.1709  0.4870 -0.0214
  584MOL0     C80487   2.391   3.033   9.232  0.9947 -0.4517  0.1037
  584MOL0     C80488   2.447   2.908   9.215  0.1060 -0.2037  0.1706
  584MOL0     C80489   2.501   2.850   9.327 -0.0495 -0.1054 -0.7197
  584MOL0     O80490   2.539   2.717   9.301  0.1764 -0.0781  0.5989
  584MOL0     C80491   2.533   2.615   9.406 -0.3659  0.8446 -0.9115
  584MOL0     C80492   2.668   2.539   9.411 -0.1381 -0.6901 -0.1872
  584MOL0     C80493   2.717   2.505   9.548 -0.0304  0.7058 -0.4974
  584MOL0     C80494   2.783   2.633   9.614 -0.1193  0.8899 -0.1363
  584MOL0     C80495   2.847   2.597   9.755  0.8334  0.0070  1.0844
  584MOL0     C80496   2.747   2.525   9.849 -0.2458  0.5121 -0.4387
  584MOL0     C80497   2.803   2.524   9.999 -0.0544 -0.2984 -0.2606
  584MOL0     C80498   2.947   2.471  10.018 -0.6001 -0.0843 -0.1025
  584MOL0    Cl80499   2.979   2.308   9.946  0.2564  0.3000  0.2424
  584MOL0     C80500   2.516   2.921   9.456 -0.1736 -0.3257  0.4822
  584MOL0     C80501   2.443   3.037   9.471  0.4758 -0.7650 -0.0279
  584MOL0     O80502   2.352   3.308   9.156  0.0948  0.5780  0.1796
  584MOL0     C80503   2.086   3.364   9.392  0.2641 -0.0601  0.0429
  584MOL0     C80504   1.983   3.455   9.418 -0.3149  0.4559 -0.1554
  584MOL0     N80505   1.895   4.139   9.721 -0.1368  0.7335 -0.4647
  584MOL0     N80506   1.828   4.245   9.722  0.5748 -0.2891 -0.6983
  584MOL0     C80507   1.558   4.349  10.754 -0.1270  0.3404 -0.0094
  584MOL0     C80508   1.529   4.256  10.853  0.4154  0.1131 -0.8319
  584MOL0     C80509   1.368   3.994  11.151 -0.2738  0.5671 -0.2600
  584MOL0     C80510   1.463   4.001  11.256 -0.0915  0.2431 -0.0141
  584MOL0     C80511   1.493   3.891  11.332  0.2430  0.1762  0.5924
  584MOL0     C80512   1.439   3.767  11.309  0.5713  0.3619 -0.6284
  584MOL0     O80513   1.482   3.671  11.393  0.1150  0.4812 -0.0323
  584MOL0     C80514   1.475   3.536  11.350 -0.3480  0.3930  0.2303
  584MOL0     C80515   1.466   3.451  11.474  0.5550  0.5014 -0.7270
  584MOL0     C80516   1.604   3.408  11.537 -0.4213 -0.0178 -0.4668
  584MOL0     C80517   1.675   3.517  11.629  0.6043 -0.1445 -0.4186
  584MOL0     C80518   1.587   3.604  11.711  0.5445 -0.2096  0.0776
  584MOL0     C80519   1.512   3.668  11.791 -0.8810  0.7775  0.1822
  584MOL0     C80520   1.333   3.762  11.217 -0.6869  0.7798  0.2303
  584MOL0     C80521   1.298   3.868  11.136 -0.7330 -0.4055 -0.1919
  584MOL0     C80522   1.215   3.836  11.017  0.4702  0.2330 -0.2327
  584MOL0     H80523   1.471   4.465  11.104 -1.1163 -3.0835  1.0081
  584MOL0     H80524   1.520   4.635  10.932  1.1474  0.4114 -1.4619
  584MOL0     H80525   1.576   4.461  10.514  0.4653 -0.5817 -0.4463
  584MOL0     H80526   1.730   4.521  10.557  0.1277 -0.1606  1.2122
  584MOL0     H80527   1.507   4.707  10.454 -0.9386  0.3269  1.3363
  584MOL0     H80528   1.643   4.766  10.537 -0.1966  0.0058 -0.3419
  584MOL0     H80529   1.679   4.757  10.294  1.6768 -0.5610 -0.1677
  584MOL0     H80530   1.787   4.633  10.355  0.9229  0.2803 -0.7137
  584MOL0     H80531   1.594   4.468  10.264  0.6736 -0.7849  1.8064
  584MOL0     H80532   1.499   4.620  10.236  0.5473  0.6920  3.9643
  584MOL0     H80533   1.759   4.602  10.085  0.2570 -2.7910  2.0601
  584MOL0     H80534   1.599   4.671  10.042  3.5036  1.3003 -1.0165
  584MOL0     H80535   1.669   4.372  10.046 -1.0718 -1.8901 -2.4763
  584MOL0     H80536   1.508   4.440  10.024  0.5182  0.7996  1.5852
  584MOL0     H80537   1.765   4.467   9.849 -0.4702 -1.9549  0.0181
  584MOL0     H80538   1.611   4.547   9.813 -0.4464  1.9167  2.3255
  584MOL0     H80539   1.504   4.314   9.830 -0.8313  2.0915 -1.1754
  584MOL0     H80540   1.582   4.376   9.686  1.5011 -0.1775 -0.3107
  584MOL0     H80541   1.605   4.045   9.842 -0.6914  1.7482  0.7801
  584MOL0     H80542   1.741   3.843   9.728  1.9264 -2.5357 -2.7218
  584MOL0     H80543   1.884   3.850   9.846  0.3996  1.8548  0.1413
  584MOL0     H80544   2.029   3.886   9.654 -1.2471 -0.4709  5.3007
  584MOL0     H80545   1.950   3.742   9.635 -0.6731 -0.3506 -0.9775
  584MOL0     H80546   1.756   3.866   9.528  1.1833 -0.3673  3.2069
  584MOL0     H80547   1.875   4.001   9.506  2.7873  0.5974 -1.6214
  584MOL0     H80548   1.863   3.851   9.293  1.1609 -0.5331 -1.0766
  584MOL0     H80549   2.021   3.840   9.374  0.8304 -1.0552  1.2761
  584MOL0     H80550   2.060   3.707   9.198  1.2022  1.5613  0.7237
  584MOL0     H80551   2.268   3.676   9.096 -0.5224  0.0815  0.0579
  584MOL0     H80552   2.303   3.504   9.056 -0.8866  0.5770 -0.0423
  584MOL0     H80553   2.376   3.573   9.196 -1.2319 -0.2447  0.6230
  584MOL0     H80554   2.344   3.074   9.143  0.4183 -2.7080 -0.6819
  584MOL0     H80555   2.443   2.860   9.117  0.8788 -1.7107  0.8401
  584MOL0     H80556   2.518   2.658   9.506 -0.4462 -0.3033 -0.4173
  584MOL0     H80557   2.456   2.545   9.373 -0.5942  0.6875 -0.0713
  584MOL0     H80558   2.663   2.444   9.357 -0.4922 -1.1189  0.5863
  584MOL0     H80559   2.732   2.605   9.351 -2.1627  0.6192 -1.0123
  584MOL0     H80560   2.793   2.427   9.542 -0.2723  0.5370 -1.5566
  584MOL0     H80561   2.635   2.460   9.606 -2.0660  2.1570 -2.1006
  584MOL0     H80562   2.711   2.714   9.624 -1.3440 -0.0715 -0.8521
  584MOL0     H80563   2.867   2.659   9.549 -0.2333 -1.8356 -1.5513
  584MOL0     H80564   2.933   2.530   9.739  0.5320 -0.8181  2.7029
  584MOL0     H80565   2.884   2.687   9.805 -0.4885 -0.7443  3.5543
  584MOL0     H80566   2.725   2.422   9.819 -3.6721  0.4816  1.6726
  584MOL0     H80567   2.648   2.571   9.847 -0.9201 -0.6727 -4.4918
  584MOL0     H80568   2.741   2.457  10.059  0.9966 -0.3680  0.7817
  584MOL0     H80569   2.798   2.625  10.042 -0.1064 -0.9892  1.4433
  584MOL0     H80570   2.971   2.473  10.125 -1.0330  3.7475  0.0533
  584MOL0     H80571   3.013   2.535   9.959  0.2413 -1.7036 -0.9781
  584MOL0     H80572   2.580   2.890   9.539 -0.3074  0.1765  0.7764
  584MOL0     H80573   2.434   3.092   9.564 -0.1068 -1.7462  0.5176
  584MOL0     H80574   2.086   3.266   9.439 -1.4774  0.2243  0.7272
  584MOL0     H80575   1.911   3.437   9.497 -1.0147  0.4814 -0.7787
  584MOL0     H80576   1.581   4.310  10.656 -0.6635  0.1150 -0.0514
  584MOL0     H80577   1.533   4.149  10.834  2.9559 -0.0479  0.2722
  584MOL0     H80578   1.511   4.095  11.282 -2.1174  0.6276  2.7200
  584MOL0     H80579   1.558   3.904  11.419  1.1907  0.8987 -0.2038
  584MOL0     H80580   1.381   3.529  11.294 -0.7814  0.4679  0.9262
  584MOL0     H80581   1.567   3.511  11.297  1.2167  1.8748  2.0696
  584MOL0     H80582   1.415   3.357  11.449  1.1430  0.3841 -1.5400
  584MOL0     H80583   1.400   3.497  11.548  0.9711  1.7368 -1.1078
  584MOL0     H80584   1.573   3.324  11.600 -0.0910  1.0789  1.2092
  584MOL0     H80585   1.673   3.376  11.458  1.2792  1.6207  0.2873
  584MOL0     H80586   1.738   3.583  11.569  0.7149  1.1404  1.0665
  584MOL0     H80587   1.746   3.474  11.699 -1.1308 -1.9830  0.2800
  584MOL0     H80588   1.472   3.724  11.873  1.3151  0.9268  1.2389
  584MOL0     H80589   1.288   3.666  11.193  2.8578 -0.5754 -1.7159
  584MOL0     H80590   1.116   3.878  11.037  0.3483 -0.2568  0.2086
  584MOL0     H80591   1.244   3.877  10.920 -0.6759  0.6577 -0.4083
  584MOL0     H80592   1.198   3.728  11.004  0.0815  0.1567  0.8541
  585MOL0     O80593   9.236  10.969   5.647 -0.2767  0.5363  0.0982
  585MOL0     C80594   9.158  11.054   5.611 -0.7330 -0.6663 -0.0545
  585MOL0     O80595   9.201  11.171   5.548  0.2991 -0.7759  0.0189
  585MOL0     C80596   9.339  11.207   5.553  1.2753 -0.4247 -0.0201
  585MOL0     C80597   9.388  11.272   5.663 -0.0889 -0.0909 -0.4154
  585MOL0     C80598   9.529  11.305   5.673  0.1491 -0.7969 -0.6596
  585MOL0     C80599   9.610  11.272   5.563 -0.5483  0.6551  0.8479
  585MOL0     O80600   9.742  11.311   5.560  0.0970 -0.3251  0.0210
  585MOL0     C80601   9.799  11.319   5.690 -0.2258 -0.2927  0.9221
  585MOL0     C80602   9.949  11.338   5.683 -0.8579  0.3072  0.2696
  585MOL0     C80603   9.995  11.465   5.619 -0.7381 -0.9071  0.0881
  585MOL0     C80604  10.140  11.483   5.617  0.3530  0.4095  0.1118
  585MOL0     C80605  10.190  11.606   5.542  0.8691 -0.2655 -0.8606
  585MOL0     C80606  10.335  11.611   5.523  1.1918 -0.2068 -0.4215
  585MOL0     C80607  10.430  11.523   5.611 -0.7186 -0.0384  0.5797
  585MOL0     C80608  10.574  11.565   5.598  0.2377  0.2529 -0.3058
  585MOL0     N80609  10.659  11.477   5.680  0.3821  0.0433  0.5787
  585MOL0     C80610  10.710  11.504   5.807  1.0193  0.6998 -0.6476
  585MOL0     C80611  10.801  11.406   5.832 -0.1495 -0.0233 -0.4495
  585MOL0     C80612  10.898  11.390   5.942  0.5612 -0.7478  0.2772
  585MOL0     C80613  11.043  11.416   5.909  0.2495  0.1001 -0.7199
  585MOL0     C80614  11.077  11.562   5.863  0.9357  0.1928  0.7472
  585MOL0     C80615  11.221  11.595   5.857  0.4236  0.1402  0.0928
  585MOL0     O80616  11.282  11.496   5.768  0.1212 -0.2601 -0.4001
  585MOL0     C80617  11.415  11.503   5.740  0.5243 -0.6897 -0.2223
  585MOL0     C80618  11.500  11.607   5.788 -0.3075  0.7067 -0.3233
  585MOL0     C80619  11.631  11.614   5.743  0.0424  0.2087  0.0464
  585MOL0     C80620  11.724  11.719   5.797 -0.8974 -0.7765 -0.1187
  585MOL0     C80621  11.682  11.503   5.676  0.3792 -0.5480  0.2404
  585MOL0     C80622  11.819  11.498   5.623  0.4756 -0.3613  0.8299
  585MOL0     O80623  11.882  11.376   5.625  0.1215  0.2881  0.0346
  585MOL0     C80624  11.985  11.360   5.540  0.3383  0.5776  0.5784
  585MOL0     C80625  11.955  11.315   5.418  0.4277 -0.4987  0.1752
  585MOL0     C80626  12.043  11.314   5.310  0.0837  0.1771 -0.3039
  585MOL0     C80627  12.173  11.340   5.332 -0.8273 -0.2058  0.0037
  585MOL0     O80628  12.275  11.341   5.238 -0.2116  0.0879 -0.0843
  585MOL0     C80629  12.235  11.322   5.104  0.1411 -1.0975 -0.2806
  585MOL0     C80630  12.344  11.325   5.000 -0.0386 -0.4780  0.2323
  585MOL0     C80631  12.471  11.252   5.044  0.8476 -0.1447  0.1342
  585MOL0     C80632  12.557  11.225   4.911  0.6023  0.1439  0.5646
  585MOL0     C80633  12.701  11.171   4.934 -0.7958 -0.0060 -0.3550
  585MOL0     C80634  12.812  11.279   4.963 -0.4356 -0.1822  0.7239
  585MOL0     C80635  12.946  11.220   5.007  0.1432 -0.4266  0.1406
  585MOL0     C80636  13.007  11.142   4.900  0.7976 -0.1223  0.3088
  585MOL0    Cl80637  13.189  11.116   4.945 -0.2711 -0.1585  0.4024
  585MOL0     C80638  12.220  11.374   5.458 -0.6336  0.3477  0.9810
  585MOL0     C80639  12.130  11.387   5.563  0.3341  1.1916  0.5609
  585MOL0     O80640  11.864  11.597   5.561 -0.2772  0.4800  1.1731
  585MOL0     C80641  11.602  11.393   5.646  1.0159  0.5408  0.4043
  585MOL0     C80642  11.464  11.399   5.670  0.1724  0.5488 -0.3148
  585MOL0     N80643  10.780  11.313   5.736 -0.2401  0.1968  0.0583
  585MOL0     N80644  10.693  11.349   5.653 -0.0349 -0.0221 -0.7637
  585MOL0     C80645   9.554  11.207   5.457  0.0416 -0.2329  0.0996
  585MOL0     C80646   9.422  11.174   5.453 -0.8210 -0.6603  0.2445
  585MOL0     C80647   9.007  11.033   5.622 -0.9114  0.1393 -0.5898
  585MOL0     C80648   8.933  11.150   5.618  0.3568  0.8342 -0.1573
  585MOL0     C80649   8.798  11.143   5.617 -0.6109  0.4700  0.4628
  585MOL0     C80650   8.733  11.022   5.628  0.4808 -0.9299 -0.4031
  585MOL0     O80651   8.597  11.008   5.629  0.1374  0.0148  0.4377
  585MOL0     C80652   8.525  11.104   5.553 -0.0243 -0.0349 -0.0740
  585MOL0     C80653   8.366  11.060   5.537 -0.3658  0.1589  0.0606
  585MOL0     C80654   8.298  11.025   5.673  0.5730  0.6784 -0.2631
  585MOL0     C80655   8.293  11.140   5.774 -0.0570  0.0033  0.6671
  585MOL0     C80656   8.240  11.092   5.899  0.1487 -0.4719 -0.1637
  585MOL0     C80657   8.189  11.053   6.003  0.1357  1.3159  0.5049
  585MOL0     C80658   8.800  10.906   5.646  0.4179  0.2810 -0.3308
  585MOL0     C80659   8.940  10.906   5.636  0.0340  0.3340  0.0436
  585MOL0     C80660   9.016  10.780   5.644 -0.8084 -0.5927  0.2745
  585MOL0     H80661   9.313  11.280   5.740  0.6726 -2.9052  0.7533
  585MOL0     H80662   9.569  11.361   5.757 -2.7633  0.0290  0.2898
  585MOL0     H80663   9.771  11.239   5.759  2.1446 -0.8174  1.3783
  585MOL0     H80664   9.764  11.412   5.737 -0.2406  1.0126 -1.5389
  585MOL0     H80665   9.981  11.342   5.788 -1.6211 -2.3033  0.6769
  585MOL0     H80666   9.997  11.247   5.646 -2.0023 -0.2211  0.0467
  585MOL0     H80667   9.950  11.477   5.520 -0.4088 -0.5246 -0.0191
  585MOL0     H80668   9.956  11.553   5.671 -1.1929 -1.1097  0.0976
  585MOL0     H80669  10.182  11.481   5.718  0.7440 -1.5478 -0.0461
  585MOL0     H80670  10.180  11.398   5.561 -0.4010  1.6468 -2.4454
  585MOL0     H80671  10.170  11.693   5.606 -1.8243 -1.4096  0.0149
  585MOL0     H80672  10.134  11.621   5.450  0.3278  1.7512 -0.2589
  585MOL0     H80673  10.340  11.586   5.417 -1.7078  0.7967 -0.8784
  585MOL0     H80674  10.370  11.715   5.527 -0.4704  0.3773 -0.5752
  585MOL0     H80675  10.418  11.420   5.576 -0.8417 -0.2807  1.3315
  585MOL0     H80676  10.408  11.534   5.717  1.7953 -1.7339  1.3740
  585MOL0     H80677  10.605  11.563   5.493 -3.3281  0.4005 -1.5308
  585MOL0     H80678  10.587  11.671   5.620 -4.3160  1.1296 -0.8527
  585MOL0     H80679  10.710  11.603   5.852 -2.9050 -0.1335  1.6158
  585MOL0     H80680  10.883  11.285   5.970  2.2764 -0.6688  1.6850
  585MOL0     H80681  10.865  11.452   6.026  1.1438  1.4963 -1.0468
  585MOL0     H80682  11.106  11.400   5.997 -1.4402  2.3277  1.0142
  585MOL0     H80683  11.078  11.344   5.834 -0.6289 -0.5646 -0.5110
  585MOL0     H80684  11.029  11.585   5.767  3.8192  4.7217  0.0576
  585MOL0     H80685  11.027  11.617   5.944  0.4568  2.0444 -0.7472
  585MOL0     H80686  11.233  11.699   5.828  2.7094 -0.6244 -2.0535
  585MOL0     H80687  11.263  11.592   5.958  1.9143  2.3815 -0.3914
  585MOL0     H80688  11.461  11.691   5.844 -1.6177  0.3623 -0.6786
  585MOL0     H80689  11.672  11.792   5.858 -1.0665 -1.9385  1.1723
  585MOL0     H80690  11.765  11.776   5.713  2.1745 -0.3464  1.5416
  585MOL0     H80691  11.811  11.672   5.843  0.6161  2.5868  0.7525
  585MOL0     H80692  11.853  11.278   5.408  1.1011 -2.9585  1.5027
  585MOL0     H80693  11.996  11.282   5.217  1.0239  0.5844 -0.9376
  585MOL0     H80694  12.179  11.229   5.090 -2.9662  0.6363 -0.2559
  585MOL0     H80695  12.153  11.388   5.073 -1.8967 -3.0395  0.6149
  585MOL0     H80696  12.297  11.283   4.911 -2.3930  1.4416  0.4571
  585MOL0     H80697  12.364  11.432   4.985  0.2937 -0.3934  1.2226
  585MOL0     H80698  12.445  11.157   5.092  0.0658 -1.7371 -3.1731
  585MOL0     H80699  12.524  11.315   5.116 -1.3341  0.1675  1.5837
  585MOL0     H80700  12.568  11.315   4.850  1.1652 -0.7936 -0.7580
  585MOL0     H80701  12.496  11.155   4.854 -0.0064  1.7287 -0.8159
  585MOL0     H80702  12.694  11.094   5.012 -2.1879  0.7209  0.2823
  585MOL0     H80703  12.727  11.140   4.833 -2.5502  0.7172 -1.0735
  585MOL0     H80704  12.785  11.326   5.058 -2.5339 -0.4504  0.2918
  585MOL0     H80705  12.818  11.345   4.877  0.2092  1.0619  1.6886
  585MOL0     H80706  12.922  11.148   5.087  1.3110  1.1724  2.0273
  585MOL0     H80707  13.017  11.293   5.046  0.2519 -0.2462 -0.3947
  585MOL0     H80708  12.992  11.192   4.803 -1.5313 -2.8025 -0.8600
  585MOL0     H80709  12.949  11.050   4.885 -0.9241  1.2348 -2.1172
  585MOL0     H80710  12.328  11.380   5.467 -0.4901  1.8748 -1.1483
  585MOL0     H80711  12.158  11.426   5.660  0.5976 -0.1341  1.0473
  585MOL0     H80712  11.658  11.309   5.607  1.6589  0.3243  1.7426
  585MOL0     H80713  11.406  11.310   5.649  1.4946 -1.4439  3.4366
  585MOL0     H80714   9.613  11.174   5.372  1.3264  1.2710  0.3617
  585MOL0     H80715   9.387  11.126   5.362 -1.1508  1.8054 -1.0155
  585MOL0     H80716   8.983  11.245   5.623  0.1371  0.9242  0.4744
  585MOL0     H80717   8.745  11.229   5.576  1.6878  1.0847 -1.4289
  585MOL0     H80718   8.540  11.207   5.588  0.6475 -0.2542  0.2950
  585MOL0     H80719   8.557  11.096   5.448 -0.9668  0.0025 -0.3717
  585MOL0     H80720   8.354  10.974   5.470  0.1310  0.1215  0.0144
  585MOL0     H80721   8.310  11.142   5.491  0.1654  0.6074  0.1985
  585MOL0     H80722   8.196  10.992   5.656 -0.1675  2.6225  0.1509
  585MOL0     H80723   8.354  10.945   5.722  1.3139  1.8897  0.9268
  585MOL0     H80724   8.225  11.219   5.742 -0.8099 -0.0465  2.0658
  585MOL0     H80725   8.393  11.183   5.783 -1.5787  3.9949  0.2632
  585MOL0     H80726   8.147  11.026   6.097  0.7116  0.8324  0.6286
  585MOL0     H80727   8.751  10.810   5.636  0.1008  0.2796  1.1321
  585MOL0     H80728   9.084  10.771   5.560 -0.1694  1.5048  0.5132
  585MOL0     H80729   9.067  10.787   5.741 -1.3141  2.0404  0.4058
  585MOL0     H80730   8.949  10.695   5.659  0.3165 -1.4314  0.7076
  586MOL0     O80731   8.315   8.521   6.171  0.0060  0.6559  0.2075
  586MOL0     C80732   8.306   8.512   6.293  0.2778  0.1248  0.4896
  586MOL0     O80733   8.397   8.441   6.372 -0.1756  0.0451  0.0778
  586MOL0     C80734   8.496   8.361   6.309 -0.7145 -1.0445 -0.3126
  586MOL0     C80735   8.507   8.227   6.341 -0.3443 -0.4617 -1.0411
  586MOL0     C80736   8.608   8.155   6.286 -0.2595 -0.2901  0.5326
  586MOL0     C80737   8.702   8.212   6.199  0.1954  0.1319  0.1907
  586MOL0     O80738   8.810   8.139   6.148  0.2885 -0.4391  0.5911
  586MOL0     C80739   8.928   8.144   6.229  0.2420  0.3550  0.2987
  586MOL0     C80740   8.915   8.037   6.348  0.6050  0.0068 -0.0209
  586MOL0     C80741   9.039   7.998   6.422 -0.9056 -0.1688 -0.2066
  586MOL0     C80742   9.009   7.904   6.543  0.6227 -0.2396  0.8724
  586MOL0     C80743   9.139   7.855   6.611  0.2202  0.1145  0.5591
  586MOL0     C80744   9.228   7.977   6.670  0.1695  0.4338 -0.0442
  586MOL0     C80745   9.343   7.910   6.746 -0.3984  0.3760  0.2154
  586MOL0     C80746   9.406   7.995   6.856  0.5828  1.1727 -0.2563
  586MOL0     N80747   9.523   7.923   6.913  0.9384  0.3033  0.8240
  586MOL0     C80748   9.652   7.977   6.915  0.2140  0.4148  0.3697
  586MOL0     C80749   9.721   7.887   6.986  0.8216 -0.0166  0.4217
  586MOL0     C80750   9.862   7.887   7.011 -0.4478 -0.1765 -0.2216
  586MOL0     C80751   9.959   7.837   6.906  0.1579 -0.4968 -0.2925
  586MOL0     C80752  10.104   7.830   6.960 -0.4798 -0.0470  0.2291
  586MOL0     C80753  10.202   7.761   6.868  0.6315  0.9799 -0.2689
  586MOL0     O80754  10.344   7.764   6.907  0.2169 -0.2103 -0.2335
  586MOL0     C80755  10.391   7.671   6.995  0.1603  0.0787 -0.3442
  586MOL0     C80756  10.321   7.562   7.042  0.7203  0.6608 -0.4670
  586MOL0     C80757  10.385   7.461   7.123 -0.4537  0.1453  0.2671
  586MOL0     C80758  10.295   7.343   7.174 -0.0445 -0.1670 -0.1512
  586MOL0     C80759  10.522   7.472   7.150 -0.5230  0.5633  0.2124
  586MOL0     C80760  10.599   7.386   7.236 -0.3554  0.6012 -0.0340
  586MOL0     O80761  10.531   7.344   7.353  0.2202  0.6081  0.0941
  586MOL0     C80762  10.603   7.267   7.439  1.0685  1.0907 -0.8048
  586MOL0     C80763  10.536   7.152   7.483  0.8441  0.4574 -0.2552
  586MOL0     C80764  10.604   7.073   7.575  0.1232 -0.5790 -0.5313
  586MOL0     C80765  10.729   7.102   7.626 -0.2276 -0.2063 -0.3986
  586MOL0     O80766  10.788   7.024   7.719 -0.0530  0.2593 -0.2017
  586MOL0     C80767  10.933   7.018   7.728  0.1173  0.5801 -0.1675
  586MOL0     C80768  10.971   6.887   7.804 -0.8740 -0.2697 -0.3985
  586MOL0     C80769  10.932   6.763   7.714 -0.5520  0.1812  0.5721
  586MOL0     C80770  11.031   6.640   7.725  0.6508 -0.5441 -0.1233
  586MOL0     C80771  10.986   6.524   7.632  0.9507  0.6764  0.0279
  586MOL0     C80772  11.100   6.423   7.616 -0.6202  0.5774 -0.3889
  586MOL0     C80773  11.099   6.311   7.725  0.0762  0.3760  0.2562
  586MOL0     C80774  11.205   6.207   7.723 -0.0177  0.1835 -0.1482
  586MOL0    Cl80775  11.163   6.089   7.855 -0.3466  0.1176  0.0887
  586MOL0     C80776  10.797   7.204   7.567 -0.2352  0.8247 -0.3104
  586MOL0     C80777  10.732   7.296   7.489 -0.5388  0.1674  0.5732
  586MOL0     O80778  10.717   7.352   7.219  0.2247 -0.2098  0.7894
  586MOL0     C80779  10.593   7.573   7.091 -0.2076 -0.6617 -1.0235
  586MOL0     C80780  10.532   7.670   7.017  0.3068  0.8813 -0.3658
  586MOL0     N80781   9.631   7.783   7.025 -0.8167  0.2585 -1.0559
  586MOL0     N80782   9.516   7.804   6.988 -0.0768 -0.6196  0.1867
  586MOL0     C80783   8.698   8.350   6.176  0.3027 -0.2595  0.2450
  586MOL0     C80784   8.597   8.423   6.226 -0.0344  0.4363  0.0371
  586MOL0     C80785   8.205   8.584   6.367 -0.0456  0.8840 -0.4027
  586MOL0     C80786   8.133   8.518   6.468  0.3301  0.4314  0.0402
  586MOL0     C80787   8.025   8.586   6.532 -0.4317  0.6871  0.3742
  586MOL0     C80788   7.980   8.707   6.486  0.0677 -1.0667  0.5391
  586MOL0     O80789   7.879   8.768   6.555 -0.6051 -0.4515 -0.1131
  586MOL0     C80790   7.800   8.862   6.481  0.1691 -0.0129  0.0257
  586MOL0     C80791   7.661   8.841   6.525  0.8812  0.5700  0.0342
  586MOL0     C80792   7.599   8.699   6.492 -0.3815 -0.4818 -0.1292
  586MOL0     C80793   7.453   8.707   6.535  0.4100  1.0524  0.1866
  586MOL0     C80794   7.387   8.574   6.542  0.0783 -0.0405 -0.7129
  586MOL0     C80795   7.352   8.456   6.549  0.0870 -0.2779 -0.3288
  586MOL0     C80796   8.062   8.771   6.392 -0.6087 -0.4217  0.8062
  586MOL0     C80797   8.173   8.713   6.335  0.3683 -0.8577 -0.4505
  586MOL0     C80798   8.250   8.801   6.238 -0.2261 -0.1972 -0.8565
  586MOL0     H80799   8.435   8.187   6.412  2.6575  0.3277  2.7746
  586MOL0     H80800   8.605   8.048   6.304 -0.4524 -0.3249  0.2969
  586MOL0     H80801   8.960   8.243   6.264  0.7950  0.7815 -1.3368
  586MOL0     H80802   9.007   8.095   6.172  0.4214  0.2963  0.5923
  586MOL0     H80803   8.849   8.074   6.427  1.2934  1.5650 -0.1519
  586MOL0     H80804   8.875   7.944   6.304 -0.4155  1.6453 -2.8229
  586MOL0     H80805   9.102   7.945   6.350 -0.3347 -0.2414  0.3335
  586MOL0     H80806   9.101   8.081   6.459 -1.1307 -1.5207  3.6512
  586MOL0     H80807   8.936   7.945   6.613 -0.7484 -1.2230  0.0739
  586MOL0     H80808   8.954   7.818   6.505 -1.3229 -0.1721  3.3544
  586MOL0     H80809   9.205   7.823   6.530  0.6627  0.7342  0.6672
  586MOL0     H80810   9.126   7.778   6.688  3.3162 -0.3367  0.7658
  586MOL0     H80811   9.264   8.050   6.596  0.5010  0.4241  0.1059
  586MOL0     H80812   9.159   8.025   6.740 -2.0995 -0.8725 -1.2607
  586MOL0     H80813   9.420   7.882   6.673 -0.5396 -2.7422  1.1271
  586MOL0     H80814   9.322   7.817   6.799 -0.8636 -0.8866 -2.0210
  586MOL0     H80815   9.438   8.093   6.820  0.2701  0.7965 -1.6154
  586MOL0     H80816   9.328   8.005   6.932  0.9580  1.4802  0.0926
  586MOL0     H80817   9.686   8.074   6.883 -0.5840  0.0677 -1.6389
  586MOL0     H80818   9.877   7.841   7.109 -2.6470  1.2720  0.8902
  586MOL0     H80819   9.886   7.991   7.037  0.8856 -0.8356  1.3217
  586MOL0     H80820   9.927   7.741   6.865  0.8728  0.2698 -2.7783
  586MOL0     H80821   9.968   7.906   6.822  2.2139 -0.3535 -0.0111
  586MOL0     H80822  10.135   7.933   6.976  0.6709 -0.5030  1.1406
  586MOL0     H80823  10.107   7.799   7.065  0.7272 -0.6457  0.0440
  586MOL0     H80824  10.164   7.663   6.838 -2.8416  1.0609  3.0393
  586MOL0     H80825  10.198   7.817   6.774 -0.3341 -1.4749 -1.7911
  586MOL0     H80826  10.212   7.562   7.039  0.7337  1.7312 -2.1002
  586MOL0     H80827  10.191   7.358   7.145  0.4703  1.5391 -1.2516
  586MOL0     H80828  10.299   7.339   7.284 -0.4714  0.3344 -0.1152
  586MOL0     H80829  10.322   7.247   7.128 -1.0058 -0.4688 -0.1019
  586MOL0     H80830  10.440   7.147   7.433  0.8325  3.3116 -0.6621
  586MOL0     H80831  10.553   6.987   7.619  1.7092 -0.6963  1.2358
  586MOL0     H80832  10.983   7.023   7.631  0.5252 -0.2871 -0.0090
  586MOL0     H80833  10.975   7.097   7.791  2.7467  0.5083 -1.6865
  586MOL0     H80834  11.079   6.887   7.817 -0.8318 -3.0285 -0.1577
  586MOL0     H80835  10.916   6.872   7.897 -0.8802 -0.7352 -0.4767
  586MOL0     H80836  10.920   6.792   7.609 -3.3529  0.5555  0.9195
  586MOL0     H80837  10.831   6.736   7.746 -0.6252  1.3588  1.3625
  586MOL0     H80838  11.049   6.596   7.824 -0.2509  0.6254  0.5812
  586MOL0     H80839  11.125   6.670   7.678 -0.6834  3.3643 -0.6238
  586MOL0     H80840  10.907   6.467   7.682  0.0748  0.2688 -1.7316
  586MOL0     H80841  10.960   6.557   7.531  0.9972 -0.6180 -0.4239
  586MOL0     H80842  11.201   6.465   7.615  0.7322 -2.2332  1.5028
  586MOL0     H80843  11.095   6.385   7.514  0.2402  4.4166 -2.0073
  586MOL0     H80844  11.002   6.261   7.726 -0.0408  0.5001 -1.3165
  586MOL0     H80845  11.112   6.351   7.826 -1.1474 -0.9869  0.9909
  586MOL0     H80846  11.306   6.246   7.737  0.4175 -0.7455 -0.6270
  586MOL0     H80847  11.200   6.156   7.626  0.0922 -0.3548  0.1262
  586MOL0     H80848  10.903   7.213   7.588 -0.5256 -2.1636  3.6703
  586MOL0     H80849  10.794   7.379   7.458  0.1225 -0.4305  0.2676
  586MOL0     H80850  10.698   7.584   7.115 -0.1324 -0.2210 -1.5362
  586MOL0     H80851  10.599   7.744   6.975 -2.4676  3.8883  0.0716
  586MOL0     H80852   8.767   8.392   6.104 -1.4680 -0.5743 -1.7289
  586MOL0     H80853   8.594   8.531   6.217 -0.9306  0.6595  2.2914
  586MOL0     H80854   8.155   8.415   6.494  1.9498  0.1600 -2.1491
  586MOL0     H80855   7.987   8.531   6.617 -0.2458  1.6184  1.0697
  586MOL0     H80856   7.831   8.963   6.507  0.7242  0.0037 -0.6747
  586MOL0     H80857   7.809   8.858   6.372 -0.7389  0.3227 -0.0702
  586MOL0     H80858   7.604   8.923   6.480 -1.2291 -1.3995 -1.0848
  586MOL0     H80859   7.663   8.847   6.635 -2.8326 -2.3513  0.4959
  586MOL0     H80860   7.617   8.673   6.387  3.4870  1.4182 -0.1130
  586MOL0     H80861   7.658   8.627   6.550  1.5547  1.0054 -0.1462
  586MOL0     H80862   7.391   8.767   6.468 -0.8019 -0.2943  0.0490
  586MOL0     H80863   7.447   8.748   6.636  0.6866  1.5157  0.0146
  586MOL0     H80864   7.311   8.358   6.561 -2.9100  1.0534  1.6310
  586MOL0     H80865   8.042   8.874   6.365  3.2576  0.4611  0.7741
  586MOL0     H80866   8.240   8.908   6.258  0.8007 -0.3853  0.9485
  586MOL0     H80867   8.358   8.784   6.241 -0.1126  0.5339  1.5894
  586MOL0     H80868   8.217   8.785   6.135  0.0163 -0.0489 -0.9572
  587MOL0     O80869   4.169   0.650   6.600 -0.3750  0.8544  0.7614
  587MOL0     C80870   4.127   0.539   6.564 -0.9521  0.5577 -0.6946
  587MOL0     O80871   4.211   0.432   6.509  0.5149  0.7118  0.1049
  587MOL0     C80872   4.341   0.466   6.480  0.0908  0.1348 -0.0225
  587MOL0     C80873   4.372   0.489   6.340 -0.4796 -0.9079  0.4412
  587MOL0     C80874   4.500   0.529   6.306  0.7281 -0.4056 -0.1809
  587MOL0     C80875   4.594   0.568   6.398 -0.4416  0.4989  0.6464
  587MOL0     O80876   4.717   0.622   6.371 -0.1105 -0.3044 -0.1203
  587MOL0     C80877   4.780   0.587   6.247 -0.1891  0.4957 -0.5729
  587MOL0     C80878   4.923   0.656   6.249  0.1558 -0.1908  0.1835
  587MOL0     C80879   5.001   0.600   6.125 -0.3835 -0.0289 -0.6372
  587MOL0     C80880   5.114   0.701   6.093 -0.6016 -0.5576 -0.6231
  587MOL0     C80881   5.239   0.683   6.186  0.3450 -0.2799 -0.3437
  587MOL0     C80882   5.351   0.775   6.158 -0.8815 -0.0127 -0.6095
  587MOL0     C80883   5.449   0.705   6.051  0.6692 -0.5412  0.7093
  587MOL0     C80884   5.561   0.793   5.994 -0.6694  0.9762 -0.7743
  587MOL0     N80885   5.694   0.772   6.059  0.0350 -0.0707 -0.3541
  587MOL0     C80886   5.751   0.848   6.158  0.7125 -0.3645  0.8363
  587MOL0     C80887   5.861   0.787   6.194  0.4024 -0.2289  0.0998
  587MOL0     C80888   5.956   0.828   6.303 -0.0957 -0.2866 -0.3357
  587MOL0     C80889   6.056   0.935   6.256  0.2904  0.1943 -0.3200
  587MOL0     C80890   6.158   0.975   6.362  0.5389  1.0953  0.5444
  587MOL0     C80891   6.245   1.089   6.328  0.3903  0.1788 -0.5584
  587MOL0     O80892   6.305   1.120   6.455  0.7525  0.1993  0.1557
  587MOL0     C80893   6.424   1.181   6.462 -0.2716  0.3130  0.2883
  587MOL0     C80894   6.501   1.210   6.350  0.1111 -1.4625 -0.6391
  587MOL0     C80895   6.635   1.264   6.357  0.4133  0.5207  1.0267
  587MOL0     C80896   6.703   1.282   6.225 -0.6646  0.2318  0.4851
  587MOL0     C80897   6.695   1.275   6.487  0.3817 -0.4446 -0.7535
  587MOL0     C80898   6.845   1.307   6.503 -0.0759  0.6392 -0.4553
  587MOL0     O80899   6.900   1.277   6.626 -0.0332  0.0986  0.1691
  587MOL0     C80900   7.035   1.288   6.662  0.4461  0.3436  0.3726
  587MOL0     C80901   7.139   1.265   6.570  0.3838  0.4839 -0.6198
  587MOL0     C80902   7.269   1.293   6.618 -0.1779  0.0619 -0.2169
  587MOL0     C80903   7.295   1.295   6.756 -0.1527 -0.3171  0.2332
  587MOL0     O80904   7.424   1.258   6.795 -0.4665 -0.2546 -0.0814
  587MOL0     C80905   7.435   1.199   6.926  0.0115  0.3578 -1.1591
  587MOL0     C80906   7.576   1.157   6.962  0.1883  0.2405 -0.4482
  587MOL0     C80907   7.567   1.047   7.066  0.5831 -0.2325 -0.5162
  587MOL0     C80908   7.697   1.014   7.137 -0.6014  0.2524  0.1479
  587MOL0     C80909   7.696   0.905   7.248  0.4966  0.2073  0.2529
  587MOL0     C80910   7.559   0.885   7.308 -0.8818  0.3362  0.5027
  587MOL0     C80911   7.554   0.778   7.426 -0.4858 -0.0550 -0.4265
  587MOL0     C80912   7.409   0.739   7.455  0.0063 -0.1335  0.1090
  587MOL0    Cl80913   7.323   0.880   7.514  0.0932 -0.6597  0.0418
  587MOL0     C80914   7.190   1.308   6.846 -0.0919 -1.2352 -0.2087
  587MOL0     C80915   7.061   1.312   6.801  0.0428 -0.3849 -0.6381
  587MOL0     O80916   6.904   1.373   6.415  0.4019 -0.1651  0.3416
  587MOL0     C80917   6.617   1.254   6.599  0.2263  1.1437  0.2173
  587MOL0     C80918   6.486   1.206   6.585 -0.0364  0.3539 -0.4469
  587MOL0     N80919   5.885   0.683   6.103  0.2851 -0.4524 -0.2524
  587MOL0     N80920   5.775   0.673   6.033 -0.0183 -0.4808 -0.5457
  587MOL0     C80921   4.562   0.547   6.531 -0.4659  0.2428 -0.0501
  587MOL0     C80922   4.436   0.501   6.573  0.6435 -1.1973 -0.6014
  587MOL0     C80923   4.000   0.498   6.621 -0.3829  0.1985 -0.1910
  587MOL0     C80924   3.975   0.368   6.658 -0.1130 -0.8492  0.6445
  587MOL0     C80925   3.854   0.330   6.724 -0.1012  0.2828 -0.0938
  587MOL0     C80926   3.758   0.422   6.753 -0.0057  0.2518  0.8527
  587MOL0     O80927   3.638   0.375   6.805 -0.6066  0.6248 -0.3303
  587MOL0     C80928   3.520   0.454   6.826  0.4516 -0.4864  0.2035
  587MOL0     C80929   3.404   0.373   6.867  0.3567  0.0182 -0.7572
  587MOL0     C80930   3.357   0.276   6.759 -0.3696 -0.0691 -0.6474
  587MOL0     C80931   3.249   0.206   6.831 -0.5053 -0.7716 -0.1480
  587MOL0     C80932   3.175   0.128   6.735 -0.8846  0.8304  0.6651
  587MOL0     C80933   3.112   0.052   6.672 -0.5780  0.7795  0.2968
  587MOL0     C80934   3.779   0.559   6.725 -0.5586 -0.3159 -0.1349
  587MOL0     C80935   3.896   0.600   6.653  0.1184 -0.5029  0.0302
  587MOL0     C80936   3.896   0.747   6.620  0.2356  0.1101  0.7800
  587MOL0     H80937   4.301   0.455   6.266 -0.0836 -1.4805  0.3178
  587MOL0     H80938   4.514   0.546   6.200 -1.2262 -1.5629 -0.6573
  587MOL0     H80939   4.728   0.624   6.158  0.2968  1.9845 -0.2521
  587MOL0     H80940   4.793   0.479   6.233 -2.0256  0.3394 -1.4010
  587MOL0     H80941   4.897   0.762   6.242 -0.9842 -0.4570  0.1165
  587MOL0     H80942   4.978   0.635   6.341  1.9502 -0.5576 -0.9397
  587MOL0     H80943   5.034   0.496   6.137 -0.1925  0.1994  1.0425
  587MOL0     H80944   4.942   0.609   6.034  3.4347 -0.7540 -3.4293
  587MOL0     H80945   5.149   0.679   5.992  0.3008 -1.2688 -0.1664
  587MOL0     H80946   5.085   0.807   6.100  0.7712 -0.1639 -0.6718
  587MOL0     H80947   5.263   0.577   6.202  0.7085 -0.1122  0.2393
  587MOL0     H80948   5.197   0.706   6.284 -0.1977 -0.8306 -0.4461
  587MOL0     H80949   5.332   0.876   6.120  0.5151 -0.1226 -1.6903
  587MOL0     H80950   5.397   0.778   6.257 -1.7761 -0.8451 -0.1531
  587MOL0     H80951   5.379   0.680   5.971  1.1411 -2.7426  0.9300
  587MOL0     H80952   5.500   0.614   6.083  3.1410 -0.0350 -1.4829
  587MOL0     H80953   5.585   0.771   5.890 -0.0026  1.1488 -0.6615
  587MOL0     H80954   5.536   0.899   5.986  0.2204  1.2114 -0.5891
  587MOL0     H80955   5.710   0.933   6.211  0.4618 -1.2060  2.0210
  587MOL0     H80956   6.001   0.738   6.344 -3.1981 -1.7358  0.1765
  587MOL0     H80957   5.899   0.889   6.374  3.5327  2.5592  0.4021
  587MOL0     H80958   6.122   0.897   6.177 -1.3304 -0.6270 -1.3520
  587MOL0     H80959   6.005   1.017   6.205  0.3866  0.6892  0.3777
  587MOL0     H80960   6.089   1.001   6.444  0.2314 -0.2794  0.7343
  587MOL0     H80961   6.221   0.891   6.393  0.3232  1.8722  3.4666
  587MOL0     H80962   6.316   1.065   6.248  1.8882  1.3596  0.3593
  587MOL0     H80963   6.196   1.179   6.290  0.1245  0.3436  0.1572
  587MOL0     H80964   6.463   1.194   6.250 -3.8581  3.1773 -0.2555
  587MOL0     H80965   6.804   1.240   6.228 -0.5623  0.2719 -1.2993
  587MOL0     H80966   6.718   1.386   6.195 -0.1222 -0.8584 -3.6788
  587MOL0     H80967   6.651   1.241   6.138  2.8193 -1.3933 -1.0661
  587MOL0     H80968   7.119   1.257   6.464  1.0113 -1.4609 -0.6202
  587MOL0     H80969   7.353   1.305   6.550  0.1833  2.3094  0.5347
  587MOL0     H80970   7.413   1.269   7.007  0.0619 -1.6410  0.6905
  587MOL0     H80971   7.369   1.112   6.935 -0.7498  1.0968  1.0483
  587MOL0     H80972   7.626   1.123   6.871  0.3001 -0.4442 -0.1448
  587MOL0     H80973   7.629   1.247   6.994 -1.4699  0.7424  1.0591
  587MOL0     H80974   7.539   0.957   7.010  0.7068  0.1080 -1.1434
  587MOL0     H80975   7.485   1.059   7.137 -0.1256 -0.8857 -1.2026
  587MOL0     H80976   7.739   1.103   7.184  3.3850 -0.6169 -1.3235
  587MOL0     H80977   7.773   0.982   7.066  2.3475  0.9752  2.7375
  587MOL0     H80978   7.719   0.808   7.203 -1.7674 -1.0886  1.7080
  587MOL0     H80979   7.766   0.918   7.331  0.5206 -1.2554  0.4987
  587MOL0     H80980   7.497   0.839   7.231  2.8710 -1.3467 -1.7686
  587MOL0     H80981   7.507   0.979   7.330  1.6912  2.1202 -0.5329
  587MOL0     H80982   7.602   0.826   7.512 -3.1125  1.4302  0.3189
  587MOL0     H80983   7.608   0.687   7.398  0.4753  0.6795 -1.0350
  587MOL0     H80984   7.404   0.645   7.512  4.7396 -0.8930 -0.3517
  587MOL0     H80985   7.361   0.724   7.358  0.4424  2.4920 -0.5851
  587MOL0     H80986   7.218   1.326   6.949 -1.6980  1.0553 -0.0862
  587MOL0     H80987   6.979   1.333   6.869  1.9494 -0.7135  1.9546
  587MOL0     H80988   6.654   1.257   6.701 -1.7510 -3.0731  1.3047
  587MOL0     H80989   6.441   1.172   6.678  0.1469  2.6241  0.5486
  587MOL0     H80990   4.628   0.590   6.605 -0.6713  1.6620 -0.6507
  587MOL0     H80991   4.421   0.508   6.680  0.9188  0.2798 -0.6389
  587MOL0     H80992   4.040   0.284   6.638 -1.4391 -1.6208 -0.6745
  587MOL0     H80993   3.829   0.225   6.737  0.6792  0.2138  0.9569
  587MOL0     H80994   3.547   0.519   6.910  1.5525 -0.6441 -0.0090
  587MOL0     H80995   3.488   0.510   6.737 -1.0653  0.8939  1.5593
  587MOL0     H80996   3.322   0.433   6.908  0.0046 -1.8411  1.4402
  587MOL0     H80997   3.450   0.319   6.950 -0.6479 -3.1599 -2.0962
  587MOL0     H80998   3.328   0.325   6.665  1.4618 -0.9116 -1.7093
  587MOL0     H80999   3.440   0.210   6.731 -0.5586  0.6092 -3.0483
  587MOL0     H81000   3.189   0.279   6.886  2.0523 -0.0331  1.8569
  587MOL0     H81001   3.292   0.131   6.898  0.8369  1.6675  1.8895
  587MOL0     H81002   3.052  -0.019   6.619  1.5326  1.5456 -3.4093
  587MOL0     H81003   3.710   0.639   6.751  0.4884  0.4056  0.4909
  587MOL0     H81004   3.795   0.786   6.607  0.3349 -0.6029 -3.2738
  587MOL0     H81005   3.949   0.800   6.700 -1.6653  3.3883  0.0520
  587MOL0     H81006   3.950   0.776   6.530 -1.3891 -0.8608 -0.5483
  588MOL0     O81007   8.941  11.306   0.973  0.2928  0.0383  0.0330
  588MOL0     C81008   8.947  11.199   1.028  0.8097  0.3178 -0.6103
  588MOL0     O81009   9.050  11.149   1.095 -0.2691  0.0392 -0.4606
  588MOL0     C81010   9.177  11.169   1.054  0.5389  0.3691  0.6978
  588MOL0     C81011   9.277  11.194   1.143  0.4225  0.3688 -0.2467
  588MOL0     C81012   9.415  11.217   1.107 -0.5403 -0.0538 -0.2390
  588MOL0     C81013   9.449  11.234   0.968  0.0232 -0.3334 -0.4695
  588MOL0     O81014   9.578  11.275   0.932  0.4019 -0.1305 -0.3167
  588MOL0     C81015   9.692  11.199   0.986 -0.2080 -0.0122 -0.2066
  588MOL0     C81016   9.768  11.154   0.860 -0.0518  0.0984  0.7124
  588MOL0     C81017   9.890  11.075   0.908 -0.1118 -0.1618 -0.6340
  588MOL0     C81018   9.870  10.964   1.011 -0.2249 -0.1665 -0.1866
  588MOL0     C81019  10.001  10.881   1.019 -0.1770 -0.0265  0.1560
  588MOL0     C81020  10.006  10.771   1.128  0.3798 -0.0164  0.6248
  588MOL0     C81021   9.923  10.640   1.090  0.8813 -0.0399 -0.9251
  588MOL0     C81022   9.966  10.572   0.963  0.4356  0.3061  0.3371
  588MOL0     N81023  10.096  10.506   0.995  0.8352  0.7493  0.4163
  588MOL0     C81024  10.110  10.375   1.023 -0.8089  0.7877 -1.0494
  588MOL0     C81025  10.242  10.353   0.993  0.1488 -0.5373 -0.0999
  588MOL0     C81026  10.306  10.224   1.025 -0.2032  0.3048  1.1738
  588MOL0     C81027  10.309  10.201   1.174 -0.8593 -0.5917  0.0790
  588MOL0     C81028  10.400  10.078   1.207 -0.0114 -0.6573  0.0648
  588MOL0     C81029  10.541  10.110   1.236 -0.9506  0.9053  0.5035
  588MOL0     O81030  10.542  10.222   1.324  0.1134 -0.2013 -0.2336
  588MOL0     C81031  10.666  10.277   1.342  0.7942 -0.7081  0.3340
  588MOL0     C81032  10.666  10.389   1.428 -0.1090  0.2273  0.4424
  588MOL0     C81033  10.785  10.470   1.439  0.0371  0.0897 -0.7588
  588MOL0     C81034  10.756  10.593   1.525  0.3668 -0.2326  0.3597
  588MOL0     C81035  10.912  10.415   1.412  0.3850 -0.3702  1.1164
  588MOL0     C81036  11.045  10.491   1.434 -0.2167  0.3916  0.3323
  588MOL0     O81037  11.157  10.406   1.426 -0.3490 -0.0547 -0.5835
  588MOL0     C81038  11.265  10.441   1.503  0.6123  0.3068 -1.3637
  588MOL0     C81039  11.272  10.421   1.640  0.0097  0.3444 -0.0698
  588MOL0     C81040  11.397  10.452   1.703 -0.0654  0.0235  0.5082
  588MOL0     C81041  11.501  10.527   1.627 -0.0017  0.5093  0.4659
  588MOL0     O81042  11.615  10.568   1.690 -0.8494 -0.7251  0.2931
  588MOL0     C81043  11.739  10.580   1.626  0.0298  1.1904  0.9345
  588MOL0     C81044  11.867  10.590   1.697  0.3952  0.0562  0.1946
  588MOL0     C81045  11.879  10.722   1.781  0.5210  0.0267 -0.3153
  588MOL0     C81046  11.990  10.733   1.882 -0.1874  0.5527  0.7240
  588MOL0     C81047  11.965  10.815   2.008  0.7614  0.2418  0.0805
  588MOL0     C81048  11.842  10.766   2.091  0.3423  0.3849 -0.8763
  588MOL0     C81049  11.866  10.797   2.239  0.4129  0.0530  0.1868
  588MOL0     C81050  11.745  10.740   2.311  0.2246 -0.0589 -0.7726
  588MOL0    Cl81051  11.745  10.798   2.479  0.2229  0.7528  0.4200
  588MOL0     C81052  11.479  10.561   1.492  0.2528 -0.4944 -0.6362
  588MOL0     C81053  11.364  10.507   1.436 -0.5249  0.1044  1.1398
  588MOL0     O81054  11.043  10.610   1.467 -0.3590  0.3249  0.2939
  588MOL0     C81055  10.906  10.289   1.342  0.1634 -1.2689 -0.6677
  588MOL0     C81056  10.791  10.235   1.299  0.5681  0.3476  0.1762
  588MOL0     N81057  10.299  10.466   0.946 -0.0825 -0.3220 -0.0642
  588MOL0     N81058  10.209  10.558   0.951 -0.5757 -0.3472  0.3202
  588MOL0     C81059   9.338  11.217   0.877 -0.5017 -1.1446  0.1936
  588MOL0     C81060   9.209  11.182   0.919  0.6572 -0.6763  0.4345
  588MOL0     C81061   8.832  11.117   1.045  0.8386  0.2815 -0.2153
  588MOL0     C81062   8.727  11.135   0.953 -0.2262  0.5517 -0.4969
  588MOL0     C81063   8.611  11.051   0.963  0.4108  0.6277  0.8107
  588MOL0     C81064   8.599  10.950   1.064  0.0085 -0.6651 -0.0495
  588MOL0     O81065   8.480  10.875   1.063  0.0475 -0.2840  0.3539
  588MOL0     C81066   8.478  10.764   1.155  0.2906 -1.3099  0.3442
  588MOL0     C81067   8.330  10.720   1.159 -1.1258 -0.2678  0.1924
  588MOL0     C81068   8.250  10.828   1.222  0.3536  0.5121 -0.0259
  588MOL0     C81069   8.109  10.780   1.250 -0.9860  0.2073 -0.4656
  588MOL0     C81070   8.029  10.901   1.275  0.1469  0.1514  0.0121
  588MOL0     C81071   7.975  11.006   1.303  0.1891  0.0798  0.2431
  588MOL0     C81072   8.703  10.936   1.155 -0.1235  0.5498  0.3723
  588MOL0     C81073   8.821  11.016   1.149  0.7279  0.5511  0.9384
  588MOL0     C81074   8.924  10.990   1.265 -0.1821 -0.7766 -0.2275
  588MOL0     H81075   9.239  11.185   1.245 -1.8635  1.2919 -0.9637
  588MOL0     H81076   9.502  11.227   1.171 -1.0394  0.0035  0.4430
  588MOL0     H81077   9.654  11.106   1.029  0.5024  1.3059  3.5766
  588MOL0     H81078   9.753  11.252   1.060 -0.0623 -2.7045  1.7470
  588MOL0     H81079   9.699  11.092   0.801 -0.5516 -0.4861  1.8773
  588MOL0     H81080   9.804  11.236   0.797  1.0253 -1.0988 -0.2830
  588MOL0     H81081   9.932  11.032   0.817  0.0055 -1.5904  0.0596
  588MOL0     H81082   9.958  11.148   0.953 -0.7719 -1.9706  3.9094
  588MOL0     H81083   9.843  10.996   1.112 -0.2943 -0.1442 -0.2120
  588MOL0     H81084   9.794  10.892   0.983  1.6235 -2.9940  1.5791
  588MOL0     H81085  10.084  10.945   1.048 -0.6640  0.3612  0.7253
  588MOL0     H81086  10.017  10.836   0.920  2.8880  0.8123  0.1794
  588MOL0     H81087  10.108  10.732   1.138 -0.0664 -0.7475  2.8572
  588MOL0     H81088   9.979  10.817   1.224 -2.4921  1.7227 -0.8959
  588MOL0     H81089   9.820  10.671   1.070  0.4860 -0.3187  0.5657
  588MOL0     H81090   9.932  10.565   1.169 -0.5476 -0.3933 -1.0655
  588MOL0     H81091   9.899  10.491   0.934  0.5832  0.5631 -0.7615
  588MOL0     H81092   9.968  10.632   0.871 -0.0461 -3.2970 -2.2479
  588MOL0     H81093  10.042  10.291   1.036 -2.1462  1.5384 -2.8691
  588MOL0     H81094  10.407  10.208   0.986 -0.0748 -0.2024  1.6892
  588MOL0     H81095  10.244  10.144   0.982  0.7402 -0.3087  0.9065
  588MOL0     H81096  10.341  10.296   1.219 -0.8153 -0.7589  0.3991
  588MOL0     H81097  10.211  10.173   1.213 -0.6602 -0.8834  0.3735
  588MOL0     H81098  10.362  10.036   1.300 -0.6326  1.6459  0.9066
  588MOL0     H81099  10.386  10.000   1.131  1.6536  2.5481 -3.8967
  588MOL0     H81100  10.588  10.026   1.289 -0.0461  0.3987 -1.0407
  588MOL0     H81101  10.594  10.129   1.143  0.4861 -2.0982  0.5783
  588MOL0     H81102  10.563  10.414   1.453 -0.8079  1.3471 -2.9888
  588MOL0     H81103  10.791  10.579   1.628 -1.7810 -0.3806  1.1180
  588MOL0     H81104  10.648  10.606   1.531  0.2092 -0.9701 -0.7128
  588MOL0     H81105  10.808  10.683   1.489  1.3293 -1.3089 -1.0127
  588MOL0     H81106  11.194  10.360   1.684 -1.9003  2.5997 -0.1989
  588MOL0     H81107  11.410  10.438   1.810 -3.4441 -0.3001  1.0005
  588MOL0     H81108  11.744  10.489   1.565 -3.4240 -0.4437  2.7960
  588MOL0     H81109  11.741  10.659   1.550 -0.3597  0.4178  0.1067
  588MOL0     H81110  11.880  10.503   1.761 -1.3195  0.5096  1.2373
  588MOL0     H81111  11.951  10.596   1.628  0.2326 -1.1943 -0.1356
  588MOL0     H81112  11.783  10.714   1.834  0.5933 -2.8821 -0.4257
  588MOL0     H81113  11.873  10.810   1.718 -1.3062  0.0316 -0.1923
  588MOL0     H81114  12.081  10.772   1.836 -1.5430  1.3752 -1.3983
  588MOL0     H81115  12.001  10.628   1.912 -0.7509  0.6901  1.4489
  588MOL0     H81116  12.057  10.810   2.066  0.9071  0.2847 -0.1473
  588MOL0     H81117  11.959  10.921   1.980 -2.5503 -0.0051 -0.5495
  588MOL0     H81118  11.830  10.659   2.069  3.3583 -0.4154  0.7721
  588MOL0     H81119  11.748  10.810   2.057  0.2311 -0.7151 -2.0765
  588MOL0     H81120  11.882  10.904   2.253  1.1231  0.1949 -1.4647
  588MOL0     H81121  11.951  10.739   2.277 -0.5640 -0.8397  1.0943
  588MOL0     H81122  11.746  10.630   2.313  1.3547 -0.1120  3.0054
  588MOL0     H81123  11.646  10.772   2.278  0.8975  2.7599 -0.3074
  588MOL0     H81124  11.557  10.614   1.438 -1.9710  2.4607 -1.1825
  588MOL0     H81125  11.350  10.524   1.329 -0.3944 -1.1771  0.9043
  588MOL0     H81126  11.000  10.239   1.322  1.1528 -0.3142  1.2748
  588MOL0     H81127  10.793  10.148   1.234 -0.1592  0.2584  0.2637
  588MOL0     H81128   9.351  11.249   0.774 -0.9421  1.0692  0.7871
  588MOL0     H81129   9.134  11.164   0.842  0.1759 -0.2606  0.7919
  588MOL0     H81130   8.736  11.209   0.875  0.1918 -0.2898 -1.2677
  588MOL0     H81131   8.531  11.067   0.892  2.4143  1.7531 -1.3120
  588MOL0     H81132   8.542  10.679   1.131 -0.5228 -2.3684  1.8129
  588MOL0     H81133   8.502  10.809   1.252  2.1702  0.2020 -0.7440
  588MOL0     H81134   8.315  10.631   1.222  0.9583 -1.6500 -1.1220
  588MOL0     H81135   8.292  10.692   1.060 -1.7993 -1.8216  0.8624
  588MOL0     H81136   8.296  10.861   1.316 -1.3568 -0.4813  1.2091
  588MOL0     H81137   8.243  10.917   1.158  1.5830 -0.3167 -1.3466
  588MOL0     H81138   8.100  10.717   1.338 -3.5180  0.8005 -0.2122
  588MOL0     H81139   8.079  10.715   1.167 -0.2200  0.9406 -1.3381
  588MOL0     H81140   7.909  11.085   1.332 -2.2133 -2.4384  2.1509
  588MOL0     H81141   8.697  10.858   1.230  1.0539 -1.7498 -1.7817
  588MOL0     H81142   9.006  10.924   1.235  0.1679  0.0708 -1.2206
  588MOL0     H81143   8.970  11.085   1.292  1.6091 -0.8610 -2.6123
  588MOL0     H81144   8.873  10.944   1.349  0.7371 -0.7888  0.3374
  589MOL0     O81145   3.552   5.428   0.148  0.3200  0.4406  0.1173
  589MOL0     C81146   3.487   5.418   0.262 -0.2542 -0.4065  0.1073
  589MOL0     O81147   3.532   5.375   0.379 -0.7764  0.4601  0.9194
  589MOL0     C81148   3.670   5.344   0.386  0.9121  0.1166  0.0098
  589MOL0     C81149   3.708   5.211   0.392  0.1192  0.1757 -0.3046
  589MOL0     C81150   3.838   5.174   0.406 -0.6752  0.2428  0.2657
  589MOL0     C81151   3.942   5.271   0.402 -0.0011  0.1507  0.0239
  589MOL0     O81152   4.082   5.253   0.396 -0.3145  0.4517  0.3528
  589MOL0     C81153   4.124   5.121   0.413 -0.3423 -0.1426 -0.1672
  589MOL0     C81154   4.269   5.110   0.408  0.8322  0.5538 -0.0664
  589MOL0     C81155   4.318   4.962   0.382 -0.2754 -0.1271 -0.6457
  589MOL0     C81156   4.469   4.949   0.375  0.0094 -0.9991  0.3403
  589MOL0     C81157   4.505   4.799   0.363  0.0992  0.6813 -0.3447
  589MOL0     C81158   4.655   4.765   0.383  0.2825 -1.2124  0.2474
  589MOL0     C81159   4.682   4.616   0.379  0.0304 -0.2501 -0.5792
  589MOL0     C81160   4.810   4.575   0.448 -0.5545  0.0427 -0.0662
  589MOL0     N81161   4.932   4.599   0.378 -0.2164  0.7363  1.0509
  589MOL0     C81162   4.980   4.728   0.357 -0.0035  0.0553  0.4041
  589MOL0     C81163   5.106   4.712   0.308  0.7705  0.1058 -0.3351
  589MOL0     C81164   5.200   4.826   0.292  0.2032 -0.0026  0.0990
  589MOL0     C81165   5.348   4.789   0.302  0.4763  0.8234 -0.8764
  589MOL0     C81166   5.424   4.918   0.274 -0.7234 -0.9307 -1.0270
  589MOL0     C81167   5.580   4.918   0.262  0.2360 -0.4812  0.1597
  589MOL0     O81168   5.613   4.824   0.159 -0.2923 -0.1685  0.1282
  589MOL0     C81169   5.742   4.775   0.173 -0.7488  0.6586  0.2802
  589MOL0     C81170   5.854   4.852   0.149 -0.1220  0.8493 -0.4773
  589MOL0     C81171   5.983   4.794   0.150 -0.0105 -0.5193  0.5249
  589MOL0     C81172   6.090   4.877   0.100 -0.3951  0.0332 -0.8325
  589MOL0     C81173   5.996   4.664   0.204  0.4234  0.2507  0.7074
  589MOL0     C81174   6.128   4.604   0.214 -0.6997 -0.6565 -0.5473
  589MOL0     O81175   6.132   4.478   0.269  0.2428 -0.4151 -0.0891
  589MOL0     C81176   6.246   4.406   0.285  0.1176 -0.9031 -0.0095
  589MOL0     C81177   6.251   4.271   0.252  0.2407  0.2795 -0.2228
  589MOL0     C81178   6.366   4.200   0.266 -0.6835 -0.6181  0.8260
  589MOL0     C81179   6.484   4.245   0.312 -0.7530  0.7153  0.5358
  589MOL0     O81180   6.597   4.160   0.320  0.0089 -0.5154 -0.3531
  589MOL0     C81181   6.700   4.196   0.411 -0.1765 -0.0179 -0.1020
  589MOL0     C81182   6.772   4.063   0.445  0.4310 -0.3848  0.2499
  589MOL0     C81183   6.910   4.090   0.495 -0.6374 -0.1945  0.0088
  589MOL0     C81184   7.009   3.976   0.477 -0.0038  0.5739 -0.3362
  589MOL0     C81185   7.056   3.973   0.332  0.2794  0.0188  0.4985
  589MOL0     C81186   7.180   3.884   0.318  0.0604 -0.3399  0.8554
  589MOL0     C81187   7.227   3.882   0.175  0.1011 -0.5204 -0.1609
  589MOL0     C81188   7.296   3.746   0.142  0.5766 -0.0454  0.6891
  589MOL0    Cl81189   7.314   3.719  -0.042  0.5039  0.0290  0.0848
  589MOL0     C81190   6.491   4.385   0.340 -0.6119 -0.7134  0.0403
  589MOL0     C81191   6.371   4.461   0.324 -0.3641 -0.8241 -0.3753
  589MOL0     O81192   6.229   4.659   0.172 -0.3762  0.0851  0.1522
  589MOL0     C81193   5.884   4.587   0.233  0.4761  0.5007  0.7556
  589MOL0     C81194   5.762   4.644   0.217  0.3019 -0.4674  0.0226
  589MOL0     N81195   5.139   4.584   0.308 -0.8421  0.6621  0.5075
  589MOL0     N81196   5.036   4.518   0.335  0.1063 -0.2139  0.7458
  589MOL0     C81197   3.902   5.405   0.394  0.1087 -0.5684  1.1021
  589MOL0     C81198   3.767   5.440   0.394 -0.2947 -0.2478  0.5073
  589MOL0     C81199   3.353   5.474   0.268  0.6157 -0.0651 -0.6673
  589MOL0     C81200   3.276   5.478   0.150 -0.6622 -0.3420  1.3403
  589MOL0     C81201   3.149   5.536   0.140  0.4155  0.4465 -0.0539
  589MOL0     C81202   3.090   5.589   0.255 -0.3711 -0.9775  0.4935
  589MOL0     O81203   2.966   5.644   0.259  0.3584 -0.0776  0.1165
  589MOL0     C81204   2.855   5.561   0.231  0.1670  0.1551  0.7040
  589MOL0     C81205   2.856   5.442   0.329 -0.5823  0.1865  0.1887
  589MOL0     C81206   2.717   5.367   0.309 -0.4283 -0.3207 -0.9820
  589MOL0     C81207   2.674   5.283   0.438 -0.6794 -0.1174 -0.0941
  589MOL0     C81208   2.609   5.351   0.550 -0.3214  0.3705 -0.6615
  589MOL0     C81209   2.559   5.402   0.644  0.3920 -0.4359 -0.1646
  589MOL0     C81210   3.168   5.589   0.376 -0.6767 -0.2138 -0.5131
  589MOL0     C81211   3.305   5.540   0.380 -0.2319  0.0488 -0.0973
  589MOL0     C81212   3.371   5.555   0.520  0.2275 -0.6050 -1.0661
  589MOL0     H81213   3.630   5.137   0.403  0.0015  0.4358  0.7420
  589MOL0     H81214   3.847   5.070   0.435 -0.5249  0.3488  0.6076
  589MOL0     H81215   4.086   5.060   0.330  1.8025 -1.4114 -0.2914
  589MOL0     H81216   4.083   5.077   0.504  1.1058  1.2072  1.1838
  589MOL0     H81217   4.310   5.168   0.325  0.8378  1.7747  0.7604
  589MOL0     H81218   4.303   5.150   0.504 -1.2327  2.0816  0.1015
  589MOL0     H81219   4.281   4.898   0.462  0.6536  0.2864  0.1338
  589MOL0     H81220   4.266   4.919   0.296 -2.3586  1.9635 -0.5302
  589MOL0     H81221   4.514   5.020   0.305 -1.1638  0.5469  1.0979
  589MOL0     H81222   4.503   4.984   0.473  0.4842  1.3412 -0.5997
  589MOL0     H81223   4.466   4.764   0.267 -0.0506  2.6100 -1.0152
  589MOL0     H81224   4.444   4.755   0.443  0.0968 -2.2529 -1.8225
  589MOL0     H81225   4.709   4.831   0.315 -2.5210 -0.1228 -1.0959
  589MOL0     H81226   4.673   4.800   0.485  2.1083  0.9514 -0.7228
  589MOL0     H81227   4.667   4.584   0.276  1.8618  0.7929 -1.2132
  589MOL0     H81228   4.602   4.564   0.434  0.0221  0.1954 -0.1658
  589MOL0     H81229   4.829   4.604   0.552 -0.0929  0.7888 -0.3506
  589MOL0     H81230   4.801   4.466   0.447 -0.3266 -0.0195 -2.4453
  589MOL0     H81231   4.942   4.826   0.388  1.7540  0.0680  2.8427
  589MOL0     H81232   5.177   4.900   0.370  1.4633  0.3050  0.2042
  589MOL0     H81233   5.185   4.863   0.191 -1.2661  3.2555  1.3697
  589MOL0     H81234   5.362   4.757   0.406 -0.7564  0.7791 -0.7076
  589MOL0     H81235   5.379   4.706   0.237  0.8176  0.4318 -0.2266
  589MOL0     H81236   5.383   4.952   0.178  0.2236 -0.6324 -1.3380
  589MOL0     H81237   5.392   4.997   0.343 -0.5915 -1.2924 -0.5469
  589MOL0     H81238   5.626   5.015   0.242  1.8980 -0.8873  1.6849
  589MOL0     H81239   5.616   4.878   0.358 -1.7755  1.3832  1.8080
  589MOL0     H81240   5.842   4.955   0.117 -0.7845  0.9705  0.1424
  589MOL0     H81241   6.044   4.973   0.077 -0.9972  1.0227  3.5853
  589MOL0     H81242   6.150   4.834   0.019 -0.2318  0.1399 -0.7697
  589MOL0     H81243   6.161   4.896   0.181 -0.5407 -0.2529 -0.6358
  589MOL0     H81244   6.160   4.219   0.222  0.6584 -1.1467  0.8919
  589MOL0     H81245   6.366   4.096   0.235 -3.2133  0.2527 -2.6248
  589MOL0     H81246   6.776   4.267   0.376  1.8653 -0.2531  3.3911
  589MOL0     H81247   6.655   4.238   0.501 -1.8292  1.2725 -1.4624
  589MOL0     H81248   6.722   4.008   0.525 -2.3063 -0.5513 -1.4646
  589MOL0     H81249   6.772   3.999   0.357  0.7051  0.3216 -0.2746
  589MOL0     H81250   6.919   4.128   0.597 -0.0642 -0.1893 -0.0426
  589MOL0     H81251   6.950   4.174   0.437 -2.0681  0.4846 -0.0468
  589MOL0     H81252   6.957   3.880   0.491 -2.0636  1.6215 -0.5130
  589MOL0     H81253   7.098   3.984   0.540  2.6733  0.8328 -3.8259
  589MOL0     H81254   6.974   3.947   0.265  0.2879  1.4063 -0.1061
  589MOL0     H81255   7.078   4.074   0.294 -0.7998 -0.6800 -2.1938
  589MOL0     H81256   7.167   3.782   0.355 -0.3747  0.1292  2.0490
  589MOL0     H81257   7.255   3.934   0.381 -0.5993 -0.1427  1.4906
  589MOL0     H81258   7.298   3.963   0.157 -0.3484 -0.2271 -0.6561
  589MOL0     H81259   7.138   3.901   0.114 -0.0648 -0.6894  0.0263
  589MOL0     H81260   7.247   3.655   0.179  1.2628 -0.3280  0.9243
  589MOL0     H81261   7.397   3.739   0.185  1.3781  0.5885 -1.0001
  589MOL0     H81262   6.589   4.423   0.366  0.0302 -2.8660  0.9300
  589MOL0     H81263   6.375   4.570   0.328 -1.4353 -0.5677 -3.6038
  589MOL0     H81264   5.889   4.482   0.258  2.7506  0.2694 -0.4790
  589MOL0     H81265   5.669   4.593   0.237 -0.9072  2.2219  1.9500
  589MOL0     H81266   3.978   5.481   0.378  1.1859 -1.7901  0.1431
  589MOL0     H81267   3.730   5.541   0.388 -1.1520 -0.4155  2.2562
  589MOL0     H81268   3.300   5.424   0.059 -2.5494 -0.1921  0.7012
  589MOL0     H81269   3.093   5.530   0.047 -1.2160 -0.6528  0.9454
  589MOL0     H81270   2.772   5.624   0.264  1.1806  1.2887  1.1796
  589MOL0     H81271   2.855   5.539   0.124 -1.4207  0.4788  0.6190
  589MOL0     H81272   2.866   5.479   0.431 -1.0777 -0.9524  0.6768
  589MOL0     H81273   2.937   5.371   0.315 -0.1913  0.6793 -0.0546
  589MOL0     H81274   2.635   5.437   0.287  0.2936  1.3596  1.2359
  589MOL0     H81275   2.729   5.305   0.220 -3.1781 -1.8291 -0.4223
  589MOL0     H81276   2.764   5.234   0.476 -1.2078 -0.0394  1.3398
  589MOL0     H81277   2.607   5.199   0.416 -0.0917 -0.8668  0.8640
  589MOL0     H81278   2.502   5.460   0.713 -1.4909 -1.9893 -0.3127
  589MOL0     H81279   3.114   5.632   0.459 -3.2633 -4.5571  0.3565
  589MOL0     H81280   3.334   5.648   0.565 -2.4425 -0.8236 -2.5645
  589MOL0     H81281   3.333   5.475   0.584  1.9292 -0.4789  0.1569
  589MOL0     H81282   3.480   5.563   0.524  0.2260 -1.0599  0.5261
  590MOL0     O81283   0.058   6.844   7.246  0.7436  0.4822 -0.6967
  590MOL0     C81284   0.009   6.880   7.140  0.5906  0.4015  0.0434
  590MOL0     O81285   0.078   6.914   7.030 -0.4324  0.1311 -0.1592
  590MOL0     C81286   0.213   6.938   7.045  0.6449 -0.4527  0.1151
  590MOL0     C81287   0.295   6.901   6.934 -0.4183  0.1712 -0.2281
  590MOL0     C81288   0.436   6.932   6.934 -0.2397 -0.2432  0.5231
  590MOL0     C81289   0.477   7.025   7.032 -1.2775  0.1804 -0.3461
  590MOL0     O81290   0.607   7.066   7.032 -0.0988  0.6552 -0.1974
  590MOL0     C81291   0.711   6.967   7.002 -0.3562  0.5970  0.9491
  590MOL0     C81292   0.838   7.033   7.050  0.1587 -1.6235 -0.1863
  590MOL0     C81293   0.949   6.928   7.068 -0.2839  0.4467 -0.2244
  590MOL0     C81294   1.081   6.999   7.085 -0.1633 -0.2362 -0.1961
  590MOL0     C81295   1.180   6.890   7.102 -0.0202  0.3013  0.5313
  590MOL0     C81296   1.322   6.955   7.125 -0.0236 -0.8666  0.7600
  590MOL0     C81297   1.434   6.841   7.146 -0.0007  0.2560 -0.2229
  590MOL0     C81298   1.506   6.851   7.284 -0.8055 -0.1103 -0.4447
  590MOL0     N81299   1.579   6.980   7.298 -0.1084 -0.1300  0.3016
  590MOL0     C81300   1.597   7.038   7.425  1.0323 -0.1865  0.6456
  590MOL0     C81301   1.636   7.163   7.398  0.1280  0.0067  0.4497
  590MOL0     C81302   1.683   7.249   7.506  0.6594 -0.1042  0.8742
  590MOL0     C81303   1.825   7.246   7.521 -0.1997  0.9755 -0.3177
  590MOL0     C81304   1.921   7.296   7.403  0.3456 -0.0342 -0.0698
  590MOL0     C81305   2.063   7.315   7.440  0.0984  0.2689  0.1590
  590MOL0     O81306   2.067   7.443   7.516  0.0584  0.1181 -0.1240
  590MOL0     C81307   2.197   7.494   7.532 -0.7070  0.6509 -0.6256
  590MOL0     C81308   2.221   7.627   7.500 -0.9740  0.2955 -0.1843
  590MOL0     C81309   2.353   7.674   7.508  0.1652 -0.1040  0.6290
  590MOL0     C81310   2.375   7.805   7.428  0.1968  0.2090 -0.0005
  590MOL0     C81311   2.458   7.590   7.555 -0.6322 -0.1969 -0.5349
  590MOL0     C81312   2.594   7.641   7.583  0.0448 -0.1070  0.5683
  590MOL0     O81313   2.608   7.771   7.622  0.4961  0.4947 -0.1972
  590MOL0     C81314   2.734   7.824   7.594  0.1090 -0.5389  0.7966
  590MOL0     C81315   2.845   7.840   7.688  0.0616  0.0221  0.3049
  590MOL0     C81316   2.971   7.890   7.648 -0.8842 -0.1493 -0.5599
  590MOL0     C81317   2.984   7.951   7.519 -0.1698  1.1074 -0.2199
  590MOL0     O81318   3.089   8.021   7.488  0.0890 -0.1589 -0.4544
  590MOL0     C81319   3.216   7.991   7.548  1.1589 -0.0146 -0.0832
  590MOL0     C81320   3.337   8.029   7.456 -0.1969  0.4050  0.2691
  590MOL0     C81321   3.471   7.995   7.512  0.5852  0.4776  0.7286
  590MOL0     C81322   3.580   8.050   7.422 -0.1183  1.3670 -0.0929
  590MOL0     C81323   3.703   8.106   7.505  0.1371 -1.0262  0.0777
  590MOL0     C81324   3.811   8.162   7.412  0.6815 -0.5802 -0.4276
  590MOL0     C81325   3.924   8.219   7.489  0.2272  0.4074 -0.5299
  590MOL0     C81326   4.014   8.309   7.401 -0.0134 -0.3007 -0.0907
  590MOL0    Cl81327   4.127   8.398   7.517  0.3384  0.1933 -0.0167
  590MOL0     C81328   2.876   7.938   7.425  0.0878  0.2521 -0.1746
  590MOL0     C81329   2.760   7.873   7.458 -0.1959  0.1464  0.6807
  590MOL0     O81330   2.691   7.559   7.572 -0.4796 -0.3519 -0.0241
  590MOL0     C81331   2.434   7.458   7.576 -0.0981  0.1933  0.3830
  590MOL0     C81332   2.304   7.406   7.570  0.0852 -0.7505  0.3884
  590MOL0     N81333   1.658   7.181   7.261  0.7067 -0.4870 -0.5114
  590MOL0     N81334   1.628   7.068   7.203  0.5182 -0.8809 -0.4123
  590MOL0     C81335   0.390   7.085   7.117 -0.0555 -0.1116 -0.6053
  590MOL0     C81336   0.262   7.040   7.134  0.7200  0.5765 -0.3336
  590MOL0     C81337  -0.140   6.914   7.132 -0.2380  0.1582 -0.0775
  590MOL0     C81338  -0.205   6.917   7.255 -0.0714  0.2432 -0.1033
  590MOL0     C81339  -0.343   6.946   7.269  0.6441  0.3050  1.0779
  590MOL0     C81340  -0.417   6.968   7.150 -0.5207  0.6292  0.0239
  590MOL0     O81341  -0.548   6.964   7.143  0.0581 -0.3147  0.0776
  590MOL0     C81342  -0.631   6.931   7.261 -0.4303  0.0800  0.0284
  590MOL0     C81343  -0.778   6.888   7.215  0.1333 -0.2122 -1.1442
  590MOL0     C81344  -0.851   6.994   7.114 -0.5145  0.0040 -0.2737
  590MOL0     C81345  -0.969   6.941   7.043 -0.1534  0.5592  0.2333
  590MOL0     C81346  -1.039   7.041   6.955 -0.8980 -0.0005 -0.4766
  590MOL0     C81347  -1.100   7.123   6.887 -0.5794  0.8417  0.1665
  590MOL0     C81348  -0.357   6.961   7.028  0.0102  0.0989  0.4196
  590MOL0     C81349  -0.215   6.932   7.020  0.4735 -0.1840  0.6155
  590MOL0     C81350  -0.161   6.918   6.876  1.2724 -0.5507 -0.8549
  590MOL0     H81351   0.260   6.838   6.853  1.6216  1.9531 -2.6513
  590MOL0     H81352   0.500   6.898   6.853 -1.0666  0.9284 -0.6660
  590MOL0     H81353   0.734   6.957   6.895  2.9647  2.3611  1.3399
  590MOL0     H81354   0.685   6.868   7.041 -6.6352  0.8314 -1.4572
  590MOL0     H81355   0.875   7.109   6.981 -0.6959 -1.3648 -0.3665
  590MOL0     H81356   0.829   7.089   7.144  1.0370 -2.4471  0.4122
  590MOL0     H81357   0.921   6.869   7.156  0.2479  0.6148  0.0609
  590MOL0     H81358   0.955   6.873   6.974  1.4480 -0.2274  0.2359
  590MOL0     H81359   1.094   7.050   6.989  1.4897 -0.2909 -0.0363
  590MOL0     H81360   1.080   7.061   7.175 -2.2187 -1.7535  0.8977
  590MOL0     H81361   1.178   6.820   7.017  1.1221  0.5976  0.2446
  590MOL0     H81362   1.155   6.827   7.188  0.6774 -0.6177  0.0918
  590MOL0     H81363   1.350   7.013   7.037  0.7509 -2.3374 -0.0035
  590MOL0     H81364   1.327   7.022   7.211  2.3269 -0.2402  0.1948
  590MOL0     H81365   1.509   6.856   7.068  1.4717 -1.8279  0.6808
  590MOL0     H81366   1.399   6.738   7.135  1.9420 -0.3083 -1.6618
  590MOL0     H81367   1.446   6.860   7.375  2.0709  1.5673  1.4602
  590MOL0     H81368   1.572   6.764   7.283  0.2996  0.7128 -1.1034
  590MOL0     H81369   1.582   6.987   7.520  1.0763 -0.3673  0.5559
  590MOL0     H81370   1.640   7.213   7.600  1.8500 -0.6416  1.2335
  590MOL0     H81371   1.650   7.353   7.500 -1.3008 -0.6627  1.2790
  590MOL0     H81372   1.850   7.306   7.609 -1.6265  1.1984 -0.0296
  590MOL0     H81373   1.863   7.144   7.534  5.4476  2.2574 -3.5132
  590MOL0     H81374   1.927   7.223   7.321  0.2848  1.0594 -1.0669
  590MOL0     H81375   1.885   7.393   7.368 -0.8229 -0.6542 -0.6557
  590MOL0     H81376   2.090   7.225   7.497  3.3987  2.1748  1.9442
  590MOL0     H81377   2.128   7.311   7.352  1.7207 -1.6028  1.3469
  590MOL0     H81378   2.139   7.690   7.469 -2.9335 -2.0731 -0.1457
  590MOL0     H81379   2.393   7.885   7.500  1.0354 -1.1139  1.3121
  590MOL0     H81380   2.281   7.830   7.379  0.0767  0.5546  0.4096
  590MOL0     H81381   2.467   7.795   7.368 -0.5740 -0.0629 -1.1661
  590MOL0     H81382   2.826   7.800   7.787 -1.8350  0.2611  0.0638
  590MOL0     H81383   3.036   7.908   7.732 -0.7881  0.3047 -0.7292
  590MOL0     H81384   3.231   8.046   7.642 -1.7644 -3.5952  2.7967
  590MOL0     H81385   3.218   7.886   7.578 -0.2161  0.1426  0.6794
  590MOL0     H81386   3.326   7.988   7.355 -0.2691  2.0734 -0.4390
  590MOL0     H81387   3.339   8.138   7.452  2.1610  0.4365  0.8983
  590MOL0     H81388   3.482   7.887   7.514  0.2608  0.4086 -0.3885
  590MOL0     H81389   3.488   8.034   7.613  1.1624 -1.4560  1.4068
  590MOL0     H81390   3.544   8.126   7.352 -0.2546  0.2749 -1.2524
  590MOL0     H81391   3.620   7.969   7.359  1.6277  1.9184  0.2476
  590MOL0     H81392   3.658   8.189   7.561  0.9308 -0.8545  0.4782
  590MOL0     H81393   3.737   8.033   7.579  1.7156 -0.8877 -0.4612
  590MOL0     H81394   3.766   8.244   7.356  4.9709  1.3975 -1.3595
  590MOL0     H81395   3.853   8.089   7.343  1.9742 -1.9008  1.6342
  590MOL0     H81396   3.991   8.142   7.528  1.5272  1.5260 -0.4646
  590MOL0     H81397   3.879   8.261   7.579  1.3967 -3.6445  2.2137
  590MOL0     H81398   3.947   8.374   7.344 -2.1173 -1.7349  0.6538
  590MOL0     H81399   4.080   8.262   7.327  2.6981  2.8162  0.0748
  590MOL0     H81400   2.883   7.971   7.322  0.4050 -1.4710 -0.7414
  590MOL0     H81401   2.682   7.854   7.385  0.9263  1.0481 -0.8223
  590MOL0     H81402   2.513   7.385   7.593  0.3351  0.8444  1.2408
  590MOL0     H81403   2.281   7.305   7.602 -0.5020 -0.8613 -0.3486
  590MOL0     H81404   0.432   7.157   7.187  0.7112 -0.3865 -0.7657
  590MOL0     H81405   0.204   7.084   7.214 -0.5827  1.5684 -1.7712
  590MOL0     H81406  -0.164   6.886   7.351 -2.0746 -2.4836 -0.0037
  590MOL0     H81407  -0.382   6.949   7.370 -0.1152  2.5718  0.7671
  590MOL0     H81408  -0.584   6.846   7.311 -0.8600 -0.4862 -0.5070
  590MOL0     H81409  -0.636   7.014   7.331  0.0670 -0.1382  0.3341
  590MOL0     H81410  -0.839   6.873   7.305  0.1703  2.4060 -0.6242
  590MOL0     H81411  -0.773   6.796   7.156  0.4489 -0.4397 -0.7663
  590MOL0     H81412  -0.883   7.080   7.173 -0.2586 -1.1549  1.6505
  590MOL0     H81413  -0.777   7.038   7.046 -0.3498 -0.7365 -0.5858
  590MOL0     H81414  -1.034   6.914   7.127  0.4760  3.3938  1.7528
  590MOL0     H81415  -0.936   6.848   6.994 -0.9400  0.1378  0.4815
  590MOL0     H81416  -1.146   7.194   6.822  1.1028 -1.6272 -4.2178
  590MOL0     H81417  -0.410   6.985   6.937  1.3380 -0.1656 -0.4533
  590MOL0     H81418  -0.240   6.880   6.811  0.5209  1.0225 -0.9017
  590MOL0     H81419  -0.127   7.009   6.826 -1.0732  1.0100  0.2403
  590MOL0     H81420  -0.089   6.835   6.876  3.1911  1.0271 -1.9559
  591MOL0     O81421   7.055   9.420   4.449 -0.0319  0.1042  0.1103
  591MOL0     C81422   7.012   9.530   4.397 -0.1044  1.0497  0.0383
  591MOL0     O81423   7.090   9.623   4.338  0.4113 -0.0562  0.0970
  591MOL0     C81424   7.221   9.594   4.327 -0.4412 -0.1964 -0.5721
  591MOL0     C81425   7.253   9.502   4.230 -0.3162  0.0267 -0.4464
  591MOL0     C81426   7.381   9.461   4.206  0.5148  0.2174  0.3731
  591MOL0     C81427   7.490   9.507   4.284  0.7583  0.0442  0.1194
  591MOL0     O81428   7.623   9.473   4.267  0.1772 -0.2319  0.0065
  591MOL0     C81429   7.648   9.353   4.191 -0.3753 -0.8492  0.0160
  591MOL0     C81430   7.798   9.311   4.201 -0.5335  0.8956  0.0101
  591MOL0     C81431   7.808   9.175   4.138  0.1037  0.3782  0.0195
  591MOL0     C81432   7.954   9.127   4.149 -0.3499 -0.3885  0.3754
  591MOL0     C81433   7.979   8.983   4.106 -0.2832 -0.8742 -0.1022
  591MOL0     C81434   7.946   8.947   3.963  0.0503 -0.0946 -0.7847
  591MOL0     C81435   8.002   8.807   3.937  0.1612 -0.0237  0.1915
  591MOL0     C81436   7.979   8.773   3.792  0.0997 -0.7035 -0.2204
  591MOL0     N81437   8.079   8.677   3.738 -0.8115  0.0249  0.4137
  591MOL0     C81438   8.098   8.556   3.793  0.2257 -0.4079 -0.0351
  591MOL0     C81439   8.195   8.494   3.718 -0.1969 -0.3893 -0.1632
  591MOL0     C81440   8.230   8.355   3.748  0.7406  0.2334  0.4723
  591MOL0     C81441   8.332   8.288   3.649  0.1073  0.3006  0.1120
  591MOL0     C81442   8.470   8.337   3.685  0.7986 -0.2784 -0.5543
  591MOL0     C81443   8.584   8.284   3.607 -0.0141  0.9230  0.4300
  591MOL0     O81444   8.589   8.138   3.621  0.2856 -0.6671  1.0170
  591MOL0     C81445   8.702   8.074   3.588  0.1232  0.4098 -0.9721
  591MOL0     C81446   8.747   8.068   3.463  0.0849  0.7112  0.3220
  591MOL0     C81447   8.865   8.000   3.426  1.4298 -0.0924 -1.2434
  591MOL0     C81448   8.891   8.009   3.281 -0.2480 -0.0414 -0.0705
  591MOL0     C81449   8.936   7.926   3.525 -0.2616 -0.2394  0.2358
  591MOL0     C81450   9.074   7.873   3.489  0.1199  0.5055 -0.2827
  591MOL0     O81451   9.160   7.848   3.588  0.3455 -0.2501 -0.3024
  591MOL0     C81452   9.279   7.778   3.560  0.1429 -0.1119  0.3351
  591MOL0     C81453   9.321   7.679   3.646 -1.6553  0.7821  0.9139
  591MOL0     C81454   9.440   7.606   3.617  0.7571  0.2103  0.1547
  591MOL0     C81455   9.515   7.643   3.515  0.2863 -0.6520 -0.6231
  591MOL0     O81456   9.642   7.585   3.503  0.0258  0.2873 -0.7218
  591MOL0     C81457   9.724   7.619   3.391 -0.9102  0.2712 -1.1151
  591MOL0     C81458   9.678   7.552   3.264 -0.2351 -0.3713 -0.3332
  591MOL0     C81459   9.752   7.605   3.154  0.2113 -0.0383  0.4945
  591MOL0     C81460   9.677   7.566   3.026  0.3907  0.0884  0.1835
  591MOL0     C81461   9.765   7.590   2.895 -0.2693  0.6247  0.6969
  591MOL0     C81462   9.706   7.532   2.759  0.0240  0.0829  0.7429
  591MOL0     C81463   9.549   7.540   2.753 -0.1294 -1.3096  0.3417
  591MOL0     C81464   9.490   7.535   2.608 -0.0473 -0.5451  0.2712
  591MOL0    Cl81465   9.530   7.695   2.537 -0.3464 -0.7403  0.1493
  591MOL0     C81466   9.479   7.748   3.430  0.1446 -0.2620 -0.4983
  591MOL0     C81467   9.358   7.817   3.451  0.4170 -0.4430  0.5171
  591MOL0     O81468   9.088   7.833   3.373  0.1740  0.1191 -0.3781
  591MOL0     C81469   8.893   7.936   3.658  0.6101  0.7106 -0.4194
  591MOL0     C81470   8.775   8.015   3.691  0.3554 -0.2162 -0.3386
  591MOL0     N81471   8.236   8.583   3.616 -0.4959 -0.5146 -0.6758
  591MOL0     N81472   8.158   8.687   3.628 -0.1277 -0.5052  0.0585
  591MOL0     C81473   7.460   9.613   4.377 -0.9929 -0.0635 -0.5264
  591MOL0     C81474   7.328   9.646   4.403 -0.4685 -0.4102  0.0595
  591MOL0     C81475   6.860   9.546   4.395 -0.6027  0.0133 -0.7508
  591MOL0     C81476   6.826   9.673   4.348  0.2317  0.2534 -0.4797
  591MOL0     C81477   6.687   9.706   4.339 -0.4027 -1.0272 -0.5070
  591MOL0     C81478   6.586   9.615   4.375  0.4410 -0.1959  0.1050
  591MOL0     O81479   6.456   9.648   4.348 -0.7439  0.2857  0.4512
  591MOL0     C81480   6.382   9.673   4.469  0.4935  0.2620  0.3958
  591MOL0     C81481   6.356   9.826   4.499  0.0216 -0.5756  0.2267
  591MOL0     C81482   6.255   9.821   4.617  0.0694 -0.7373  0.4422
  591MOL0     C81483   6.221   9.956   4.658 -0.3715  0.3511  0.5884
  591MOL0     C81484   6.320  10.023   4.733 -0.8015  0.2233  0.1370
  591MOL0     C81485   6.419  10.073   4.787 -0.7087 -0.3371  0.3066
  591MOL0     C81486   6.625   9.490   4.413  0.1922  0.3847 -0.0835
  591MOL0     C81487   6.762   9.449   4.426 -0.1274 -0.3490  0.0821
  591MOL0     C81488   6.798   9.309   4.470 -0.3212 -0.2315 -0.9600
  591MOL0     H81489   7.168   9.467   4.171 -0.6891 -1.1038  0.6979
  591MOL0     H81490   7.387   9.375   4.140  2.2426 -0.2531  1.0792
  591MOL0     H81491   7.629   9.370   4.085 -1.3302  0.5257  0.3760
  591MOL0     H81492   7.573   9.281   4.223 -1.8496  0.4011 -0.4987
  591MOL0     H81493   7.865   9.381   4.149  3.3078  1.1079  4.5094
  591MOL0     H81494   7.841   9.309   4.302  0.1952 -0.6049 -0.3014
  591MOL0     H81495   7.746   9.102   4.190  0.4288 -0.3146 -0.5451
  591MOL0     H81496   7.771   9.176   4.035 -0.1964 -0.6829  0.1097
  591MOL0     H81497   8.020   9.191   4.089 -0.4173  0.3496  1.0733
  591MOL0     H81498   7.993   9.145   4.249 -3.6882  0.4401  1.6321
  591MOL0     H81499   7.934   8.914   4.178  0.2936 -0.6123  0.5255
  591MOL0     H81500   8.087   8.971   4.123  0.2847  0.5912 -2.2932
  591MOL0     H81501   7.841   8.959   3.934  0.5447  2.0316 -1.9108
  591MOL0     H81502   7.995   9.025   3.903  0.4269  1.2584  1.1969
  591MOL0     H81503   7.964   8.732   4.008 -0.6046  1.2772  1.2078
  591MOL0     H81504   8.111   8.813   3.943  0.2339  0.2790 -1.1219
  591MOL0     H81505   7.882   8.724   3.779  0.5609 -1.6131 -0.3268
  591MOL0     H81506   7.992   8.864   3.733 -0.7134  0.2400  0.9934
  591MOL0     H81507   8.033   8.524   3.874  0.3803 -0.3963  0.0952
  591MOL0     H81508   8.135   8.304   3.731  0.3613  0.7056  1.0941
  591MOL0     H81509   8.251   8.345   3.855 -0.3747  0.8466  0.7674
  591MOL0     H81510   8.337   8.179   3.659  3.5233  0.5368  2.5218
  591MOL0     H81511   8.299   8.334   3.555 -1.6285  1.0732  1.0575
  591MOL0     H81512   8.477   8.446   3.677  0.6397 -0.3341 -1.6098
  591MOL0     H81513   8.476   8.314   3.792  0.3708  0.8556 -0.2661
  591MOL0     H81514   8.551   8.284   3.502  0.4525  0.1204  0.2807
  591MOL0     H81515   8.676   8.340   3.626 -0.2954  0.9754  1.7227
  591MOL0     H81516   8.696   8.126   3.387 -1.0941  1.7716  1.8899
  591MOL0     H81517   8.814   8.062   3.225 -1.1983 -2.5529 -1.3031
  591MOL0     H81518   8.893   7.906   3.244  0.1784  0.3794 -1.2511
  591MOL0     H81519   8.990   8.053   3.268 -0.3256  0.3501  0.6155
  591MOL0     H81520   9.253   7.650   3.725 -2.7461  0.3907 -0.1479
  591MOL0     H81521   9.481   7.529   3.682 -2.6068  0.1915  2.4971
  591MOL0     H81522   9.736   7.728   3.391  0.7715  0.1276 -2.3213
  591MOL0     H81523   9.820   7.571   3.412 -1.2509 -0.3316 -0.9046
  591MOL0     H81524   9.685   7.445   3.281 -0.3793 -0.1601  1.1946
  591MOL0     H81525   9.578   7.595   3.251  0.0772  0.6678  0.5757
  591MOL0     H81526   9.853   7.563   3.147  0.3217  0.3749 -0.5100
  591MOL0     H81527   9.758   7.714   3.168 -1.8907  0.1213  0.4412
  591MOL0     H81528   9.580   7.617   3.025  0.5003  0.6214  3.7772
  591MOL0     H81529   9.650   7.460   3.031  2.8153 -0.5304  1.5747
  591MOL0     H81530   9.782   7.698   2.893  2.6863  0.2732  1.5975
  591MOL0     H81531   9.860   7.537   2.908 -0.6752 -0.5917 -0.9513
  591MOL0     H81532   9.731   7.426   2.742  1.8339  0.4511  0.8416
  591MOL0     H81533   9.745   7.589   2.674  0.0602  1.1556  1.4684
  591MOL0     H81534   9.526   7.637   2.797  0.5457 -1.7399  1.7258
  591MOL0     H81535   9.509   7.451   2.803  0.8681 -1.3619  1.0791
  591MOL0     H81536   9.384   7.512   2.615 -0.2382 -0.3823 -1.5287
  591MOL0     H81537   9.535   7.453   2.550  0.1657  0.3744 -0.9072
  591MOL0     H81538   9.538   7.789   3.349  2.0901 -0.8570  0.5651
  591MOL0     H81539   9.328   7.909   3.403  3.8333  1.2596  1.3576
  591MOL0     H81540   8.951   7.876   3.728 -0.4675  0.4052  0.2262
  591MOL0     H81541   8.747   8.026   3.795 -1.1299  0.2290 -0.7602
  591MOL0     H81542   7.546   9.643   4.436 -1.2187  0.2794 -0.3699
  591MOL0     H81543   7.297   9.717   4.480  0.4970 -1.1142  1.1338
  591MOL0     H81544   6.898   9.749   4.320 -1.0711  2.2816  1.4229
  591MOL0     H81545   6.654   9.800   4.297 -1.8591 -1.8262 -1.2180
  591MOL0     H81546   6.289   9.618   4.450 -0.9904  2.2178  1.5242
  591MOL0     H81547   6.432   9.627   4.554  0.9454  0.0888  0.0390
  591MOL0     H81548   6.312   9.868   4.409 -2.0307 -1.8407  0.5742
  591MOL0     H81549   6.450   9.882   4.511 -0.9641  0.8200  1.9901
  591MOL0     H81550   6.161   9.771   4.592  0.4393 -1.4124  0.3819
  591MOL0     H81551   6.299   9.757   4.695  1.1572  1.4094  1.6935
  591MOL0     H81552   6.127   9.942   4.711 -1.8315 -3.2314 -2.4937
  591MOL0     H81553   6.207  10.023   4.573 -1.6999 -0.4441  0.1588
  591MOL0     H81554   6.508  10.119   4.825 -0.3289 -0.4565 -0.4285
  591MOL0     H81555   6.541   9.426   4.439  2.1501 -2.5113 -0.4709
  591MOL0     H81556   6.708   9.247   4.463  0.9873 -2.2656 -0.7514
  591MOL0     H81557   6.879   9.270   4.407 -2.6025 -3.8367 -1.9949
  591MOL0     H81558   6.812   9.307   4.578 -3.7012 -0.0901 -0.4279
  592MOL0     O81559   5.974   6.683  10.891 -0.2497  0.0989 -0.4643
  592MOL0     C81560   5.932   6.582  10.838 -0.4194  0.0712  0.3101
  592MOL0     O81561   5.977   6.524  10.724 -0.1482  0.0098 -0.3578
  592MOL0     C81562   6.089   6.561  10.662  0.2202 -0.0322  0.2120
  592MOL0     C81563   6.162   6.677  10.670  0.2210 -0.7054 -0.0521
  592MOL0     C81564   6.269   6.711  10.577  0.5364  0.3305 -0.3146
  592MOL0     C81565   6.298   6.617  10.476  0.2767 -0.9059 -0.4223
  592MOL0     O81566   6.409   6.644  10.404 -0.2945 -0.2526  0.7949
  592MOL0     C81567   6.417   6.601  10.266 -0.1815 -0.4405 -0.0407
  592MOL0     C81568   6.533   6.684  10.209  0.4125 -0.0825  0.2380
  592MOL0     C81569   6.664   6.607  10.220  0.4918  0.1021 -0.2714
  592MOL0     C81570   6.718   6.618  10.365 -0.7342  0.6397 -0.1889
  592MOL0     C81571   6.861   6.548  10.359  0.4410 -0.5037  0.3868
  592MOL0     C81572   6.923   6.521  10.495 -0.5205  0.5381  0.4248
  592MOL0     C81573   7.037   6.415  10.482  0.3395  0.0353  0.4687
  592MOL0     C81574   7.169   6.470  10.436  0.8355 -0.6216  0.2026
  592MOL0     N81575   7.253   6.351  10.436  0.3579  0.1099  0.0689
  592MOL0     C81576   7.354   6.314  10.520  0.3203 -0.4895  0.0891
  592MOL0     C81577   7.423   6.221  10.452 -0.0171  0.4036 -0.0818
  592MOL0     C81578   7.545   6.149  10.485 -0.7125 -0.0199 -0.4879
  592MOL0     C81579   7.515   5.999  10.466 -0.5118 -0.3519 -0.2143
  592MOL0     C81580   7.631   5.916  10.521 -0.0848 -0.2384  0.4826
  592MOL0     C81581   7.627   5.764  10.516  0.6020 -0.7347  0.1077
  592MOL0     O81582   7.736   5.703  10.584 -0.2254  0.7517 -0.4780
  592MOL0     C81583   7.867   5.721  10.550  0.9275 -0.2787  1.1992
  592MOL0     C81584   7.918   5.757  10.425  0.4303 -0.3352  0.5209
  592MOL0     C81585   8.060   5.766  10.398  0.5272  0.0769  0.1486
  592MOL0     C81586   8.102   5.795  10.261 -0.0895 -0.6792  0.5562
  592MOL0     C81587   8.147   5.754  10.510  0.6565 -0.1005  0.1969
  592MOL0     C81588   8.301   5.772  10.495 -0.8748 -0.1472  0.1847
  592MOL0     O81589   8.387   5.729  10.588 -0.2381  0.0916 -0.1008
  592MOL0     C81590   8.512   5.776  10.597 -0.3004 -0.1730 -0.5394
  592MOL0     C81591   8.615   5.722  10.518  0.2152 -0.7380  0.1464
  592MOL0     C81592   8.744   5.757  10.553  1.0145  0.4741  0.4939
  592MOL0     C81593   8.771   5.850  10.654 -0.0943 -0.0587  0.6458
  592MOL0     O81594   8.903   5.890  10.687  0.6162 -0.6243 -0.5261
  592MOL0     C81595   8.978   5.917  10.566  0.5853  0.0094 -0.7461
  592MOL0     C81596   9.117   5.988  10.599 -0.2959  0.3130  0.9379
  592MOL0     C81597   9.101   6.124  10.657 -0.0477 -0.0477 -0.7824
  592MOL0     C81598   9.214   6.224  10.619  0.1342  0.2136  1.0410
  592MOL0     C81599   9.183   6.359  10.681  0.6084 -0.0453  0.4454
  592MOL0     C81600   9.264   6.478  10.623  0.4576 -0.0513  0.5600
  592MOL0     C81601   9.207   6.604  10.688  0.9709 -0.7430  0.1903
  592MOL0     C81602   9.270   6.728  10.619 -0.2130 -0.8975  0.7178
  592MOL0    Cl81603   9.449   6.746  10.628 -0.3052  0.5999  0.2579
  592MOL0     C81604   8.665   5.914  10.718 -0.0667  0.1349 -0.5057
  592MOL0     C81605   8.537   5.868  10.701  0.2895  0.9839  0.1723
  592MOL0     O81606   8.337   5.826  10.390 -0.3303 -0.0158 -0.4284
  592MOL0     C81607   8.092   5.719  10.636 -0.7663 -0.5670 -0.2402
  592MOL0     C81608   7.956   5.700  10.657  0.7251 -0.7314 -0.5937
  592MOL0     N81609   7.354   6.202  10.329 -0.3080 -0.1697 -0.3510
  592MOL0     N81610   7.257   6.277  10.326  0.0161 -0.1337 -0.7389
  592MOL0     C81611   6.223   6.505  10.467 -0.8468  0.0120 -0.7355
  592MOL0     C81612   6.126   6.476  10.556 -0.1091  1.0158 -0.6134
  592MOL0     C81613   5.818   6.523  10.900  0.4474  0.1399 -0.3159
  592MOL0     C81614   5.817   6.390  10.939 -0.5302 -0.4289  0.2773
  592MOL0     C81615   5.715   6.338  11.018 -0.1322  0.1285  0.6291
  592MOL0     C81616   5.602   6.414  11.046 -0.7017 -0.3630  0.7530
  592MOL0     O81617   5.507   6.359  11.134  0.2776  1.1100  1.0046
  592MOL0     C81618   5.399   6.436  11.186  0.5524  0.7630 -0.7281
  592MOL0     C81619   5.309   6.339  11.273  0.2687 -0.3574  0.6317
  592MOL0     C81620   5.247   6.215  11.197  0.0068 -0.1521 -0.2874
  592MOL0     C81621   5.170   6.123  11.293  0.0470 -0.9366  0.0124
  592MOL0     C81622   5.148   6.004  11.219  0.0252 -0.5006  1.0404
  592MOL0     C81623   5.136   5.892  11.171  0.0518 -0.8292 -0.4296
  592MOL0     C81624   5.594   6.541  10.994 -0.0674  0.0630  0.1435
  592MOL0     C81625   5.704   6.601  10.930  0.6563 -0.3926 -0.6022
  592MOL0     C81626   5.691   6.745  10.894  1.0154  0.4799 -0.3274
  592MOL0     H81627   6.146   6.747  10.751  1.8697  0.2031 -0.4648
  592MOL0     H81628   6.316   6.808  10.588  2.0047 -0.2270 -1.3175
  592MOL0     H81629   6.317   6.604  10.220 -0.2795 -0.2585  0.1817
  592MOL0     H81630   6.456   6.499  10.268  0.7608 -0.2036 -2.4752
  592MOL0     H81631   6.513   6.685  10.101 -1.1870 -2.0060  0.4575
  592MOL0     H81632   6.535   6.790  10.235  1.3645  0.1189 -0.5558
  592MOL0     H81633   6.648   6.505  10.183 -1.6579  0.8808 -1.6659
  592MOL0     H81634   6.742   6.646  10.153  1.0200 -0.3833  0.0568
  592MOL0     H81635   6.729   6.720  10.403  0.8182  0.3964  0.0685
  592MOL0     H81636   6.661   6.564  10.440 -0.4334 -0.2140 -0.5629
  592MOL0     H81637   6.921   6.620  10.305 -0.3237 -0.3276 -0.2428
  592MOL0     H81638   6.841   6.457  10.302 -0.7354 -0.8545  1.2928
  592MOL0     H81639   6.948   6.608  10.556  0.2095 -1.5776  3.3738
  592MOL0     H81640   6.850   6.462  10.551  2.1639 -3.3519  0.2251
  592MOL0     H81641   7.008   6.335  10.413  2.5936  1.4437 -2.3098
  592MOL0     H81642   7.056   6.366  10.578  1.0051 -2.1106 -0.6804
  592MOL0     H81643   7.160   6.526  10.343  0.4870  1.3875  1.3716
  592MOL0     H81644   7.203   6.542  10.512 -0.4988  0.8198 -0.5190
  592MOL0     H81645   7.382   6.367  10.611 -3.6848 -2.0027  2.4739
  592MOL0     H81646   7.584   6.164  10.586 -0.5385 -3.0972 -0.0089
  592MOL0     H81647   7.618   6.184  10.412 -0.8937  0.3061 -0.5141
  592MOL0     H81648   7.433   5.967  10.531  0.5679  1.5287  2.2423
  592MOL0     H81649   7.487   5.975  10.363 -1.0941  4.0532 -1.3208
  592MOL0     H81650   7.717   5.947  10.462 -1.8479  0.8741 -1.6840
  592MOL0     H81651   7.637   5.941  10.628 -2.3001  0.3023  0.5501
  592MOL0     H81652   7.529   5.726  10.547 -0.2301  0.4577 -0.9123
  592MOL0     H81653   7.632   5.736  10.410  1.5329 -0.0580 -0.0420
  592MOL0     H81654   7.847   5.770  10.344  0.4262  0.1087  0.5968
  592MOL0     H81655   8.169   5.724  10.213 -1.0814  0.3650 -2.6053
  592MOL0     H81656   8.142   5.897  10.263 -2.7642  0.5016 -0.6963
  592MOL0     H81657   8.011   5.811  10.203  0.3666  0.9076  0.2229
  592MOL0     H81658   8.603   5.637  10.451 -0.3523  0.1644 -0.9223
  592MOL0     H81659   8.830   5.716  10.502  0.1124  0.8442 -1.3940
  592MOL0     H81660   9.006   5.826  10.512  2.3757  0.6236 -0.9133
  592MOL0     H81661   8.927   5.975  10.489  1.7129  2.2679  0.1282
  592MOL0     H81662   9.168   5.916  10.662 -1.1386 -0.9976  0.1658
  592MOL0     H81663   9.174   5.992  10.506 -0.2248 -0.7830  0.9306
  592MOL0     H81664   9.103   6.126  10.766  2.4013  0.0468 -0.7782
  592MOL0     H81665   9.013   6.166  10.608  1.0329  3.2054 -0.1574
  592MOL0     H81666   9.215   6.236  10.510  0.0002 -1.4389  0.8312
  592MOL0     H81667   9.313   6.188  10.646  0.8770  0.8748 -0.6644
  592MOL0     H81668   9.080   6.380  10.652 -0.1893 -2.2776  1.3973
  592MOL0     H81669   9.185   6.369  10.790  0.1791  0.7956  0.3821
  592MOL0     H81670   9.252   6.486  10.514  1.5308 -1.0618  0.3526
  592MOL0     H81671   9.366   6.452  10.650  0.6429 -1.9805 -1.6644
  592MOL0     H81672   9.234   6.622  10.793  1.4372  0.6394 -0.1421
  592MOL0     H81673   9.100   6.605  10.668  1.4688  0.8610 -3.0015
  592MOL0     H81674   9.213   6.815  10.653  1.6540  0.9061 -0.5233
  592MOL0     H81675   9.249   6.723  10.512 -2.6129 -1.1113  1.1461
  592MOL0     H81676   8.688   5.989  10.792 -0.7311 -1.3878  1.3293
  592MOL0     H81677   8.450   5.899  10.758  0.8740  2.9147  0.0959
  592MOL0     H81678   8.165   5.718  10.716  1.1773  0.0888 -1.9242
  592MOL0     H81679   7.914   5.677  10.755 -0.8867  2.7854 -0.2991
  592MOL0     H81680   6.257   6.427  10.399 -0.8655 -1.1617  0.5595
  592MOL0     H81681   6.068   6.384  10.561  3.2115 -1.1890  1.3184
  592MOL0     H81682   5.908   6.332  10.922 -0.4405 -0.4483  0.8110
  592MOL0     H81683   5.713   6.242  11.069  0.9186  1.1373  2.6670
  592MOL0     H81684   5.447   6.509  11.252  0.8858 -0.7564  0.7653
  592MOL0     H81685   5.334   6.473  11.105 -2.0687  0.7825  1.2319
  592MOL0     H81686   5.223   6.398  11.304  1.9583  1.7233  1.6163
  592MOL0     H81687   5.362   6.306  11.363  0.5841  0.2836  0.6851
  592MOL0     H81688   5.171   6.257  11.131  0.4485 -0.6519 -1.1317
  592MOL0     H81689   5.322   6.160  11.140 -0.0523  1.3727 -1.9380
  592MOL0     H81690   5.080   6.168  11.335  0.4535  0.0811 -0.1623
  592MOL0     H81691   5.231   6.095  11.379 -0.5436  2.4054  1.7024
  592MOL0     H81692   5.118   5.799  11.121  3.0102 -1.5804 -0.2399
  592MOL0     H81693   5.511   6.606  11.020 -1.1292  0.2710 -3.3246
  592MOL0     H81694   5.586   6.777  10.893  0.7261 -0.0321  2.6391
  592MOL0     H81695   5.740   6.806  10.971  0.1647 -0.7687  1.2717
  592MOL0     H81696   5.731   6.761  10.794  0.4229  2.5273 -0.2880
  593MOL0     O81697  11.039   7.170  11.100 -0.3230  0.5088  0.8447
  593MOL0     C81698  10.988   7.277  11.127 -1.0827  0.6943  0.1045
  593MOL0     O81699  11.051   7.387  11.162 -0.1970  0.7110  0.2964
  593MOL0     C81700  11.187   7.382  11.192  0.2894  0.2913 -0.4286
  593MOL0     C81701  11.257   7.499  11.160 -0.1303 -0.0823  0.5267
  593MOL0     C81702  11.394   7.500  11.182 -0.8083  0.1167  0.9188
  593MOL0     C81703  11.467   7.403  11.247  0.4079  0.1726 -0.4459
  593MOL0     O81704  11.599   7.426  11.283 -0.2482  0.2059 -0.1334
  593MOL0     C81705  11.675   7.306  11.315 -0.4505  0.3482 -0.2484
  593MOL0     C81706  11.823   7.339  11.316 -0.2082 -0.5335 -0.0209
  593MOL0     C81707  11.874   7.373  11.171 -0.9504  0.3068 -0.0042
  593MOL0     C81708  12.018   7.430  11.185  1.0949  0.2703  0.1302
  593MOL0     C81709  12.112   7.339  11.251  0.0604 -0.6817  0.4819
  593MOL0     C81710  12.261   7.365  11.215 -0.1887  0.3124 -0.7198
  593MOL0     C81711  12.296   7.515  11.225 -0.1309  0.2844 -0.1981
  593MOL0     C81712  12.448   7.529  11.229  0.4508 -0.0324  0.4762
  593MOL0     N81713  12.509   7.534  11.096 -0.5006  0.5893  0.4805
  593MOL0     C81714  12.546   7.429  11.008 -0.5011 -1.2130  0.1121
  593MOL0     C81715  12.587   7.486  10.895 -0.0930 -0.3692  0.2821
  593MOL0     C81716  12.632   7.410  10.766  0.1565  0.0250 -0.4646
  593MOL0     C81717  12.595   7.474  10.637  0.1830 -0.4611  1.6005
  593MOL0     C81718  12.692   7.418  10.530 -0.2014 -0.3357  0.0876
  593MOL0     C81719  12.654   7.468  10.394  0.6308  0.1706 -0.6215
  593MOL0     O81720  12.760   7.430  10.296  0.2795  0.8181 -0.4008
  593MOL0     C81721  12.722   7.433  10.161  1.2892 -0.4563  0.1406
  593MOL0     C81722  12.741   7.335  10.071 -0.3234  0.0371  0.5437
  593MOL0     C81723  12.686   7.339   9.938 -0.5084 -0.2873  0.0032
  593MOL0     C81724  12.719   7.216   9.849 -0.1050  0.1567 -1.0139
  593MOL0     C81725  12.615   7.455   9.892  0.3717  0.4366 -0.6977
  593MOL0     C81726  12.564   7.478   9.757  0.3555  0.4456 -0.6483
  593MOL0     O81727  12.562   7.605   9.717  0.2116 -0.7092  0.3962
  593MOL0     C81728  12.520   7.649   9.597 -0.4299 -0.1078 -0.4097
  593MOL0     C81729  12.607   7.670   9.491  0.2912 -0.4551  0.4743
  593MOL0     C81730  12.562   7.697   9.367 -0.1416 -0.5548  0.6965
  593MOL0     C81731  12.417   7.705   9.340 -0.7534 -0.5683  1.3624
  593MOL0     O81732  12.361   7.715   9.214  0.1155  0.5659  0.0025
  593MOL0     C81733  12.435   7.706   9.102 -0.0895  0.1872 -0.3128
  593MOL0     C81734  12.494   7.843   9.063 -0.2390 -0.4198 -0.3297
  593MOL0     C81735  12.607   7.816   8.962  0.5170 -0.2375 -0.4358
  593MOL0     C81736  12.663   7.952   8.913  0.0955 -0.0426  0.3189
  593MOL0     C81737  12.791   7.913   8.842 -0.2148  0.7948  0.8536
  593MOL0     C81738  12.861   8.032   8.794  0.0063 -0.1504  0.1085
  593MOL0     C81739  12.984   7.993   8.719 -0.1126  0.2136  0.3822
  593MOL0     C81740  13.067   8.115   8.674 -0.1491  0.3209  0.4606
  593MOL0    Cl81741  13.167   8.179   8.807  0.0049 -0.1637 -0.1879
  593MOL0     C81742  12.336   7.697   9.451  0.4589 -0.5331  0.6113
  593MOL0     C81743  12.386   7.664   9.577  0.0086  0.6206 -0.0131
  593MOL0     O81744  12.542   7.384   9.681 -0.0238  0.1649 -0.0008
  593MOL0     C81745  12.608   7.559   9.986  0.9725 -0.0674  1.2137
  593MOL0     C81746  12.655   7.546  10.112  0.8361  0.2748 -0.1273
  593MOL0     N81747  12.591   7.623  10.916  0.2345  0.4505 -0.6500
  593MOL0     N81748  12.545   7.650  11.033 -0.3588  0.2639  0.1207
  593MOL0     C81749  11.383   7.298  11.302 -0.6770 -0.1343 -0.3946
  593MOL0     C81750  11.246   7.280  11.275  0.7116  0.2494  0.1449
  593MOL0     C81751  10.846   7.305  11.087 -0.5970 -0.2808 -1.1758
  593MOL0     C81752  10.821   7.441  11.037 -0.2761 -0.8319 -0.3287
  593MOL0     C81753  10.693   7.472  10.988 -0.5291  0.6920  0.6452
  593MOL0     C81754  10.589   7.380  10.999 -1.0464  0.3847 -0.0677
  593MOL0     O81755  10.459   7.403  10.966 -0.4049  0.6385  0.3664
  593MOL0     C81756  10.411   7.532  10.963  0.5587  0.2424  0.0332
  593MOL0     C81757  10.262   7.546  10.914 -1.3879  0.1997  0.4056
  593MOL0     C81758  10.197   7.679  10.962 -0.5623  0.4070  0.0301
  593MOL0     C81759  10.055   7.694  10.919 -0.4293  0.8546  0.4203
  593MOL0     C81760   9.986   7.811  10.964  0.1326 -0.1398 -0.0337
  593MOL0     C81761   9.930   7.917  11.008  0.2533 -0.9060  0.1180
  593MOL0     C81762  10.613   7.244  11.041  0.4326  0.2702  0.6155
  593MOL0     C81763  10.737   7.211  11.081  0.0429  0.0297 -0.1607
  593MOL0     C81764  10.757   7.075  11.141 -0.0828  0.3974 -0.0450
  593MOL0     H81765  11.209   7.574  11.098 -0.3258  0.0765  0.8706
  593MOL0     H81766  11.451   7.587  11.150  1.3139 -1.2750  0.6720
  593MOL0     H81767  11.661   7.239  11.229 -1.5723  0.9907 -0.5861
  593MOL0     H81768  11.636   7.259  11.406  0.5411  3.5315  1.9931
  593MOL0     H81769  11.841   7.431  11.374  1.2430 -0.1680 -1.0020
  593MOL0     H81770  11.887   7.268  11.369 -0.1919 -0.6253 -0.1648
  593MOL0     H81771  11.888   7.287  11.105 -0.1470 -0.5026  1.1753
  593MOL0     H81772  11.808   7.442  11.118 -1.5710 -1.0020 -0.9685
  593MOL0     H81773  12.045   7.442  11.080 -1.0468  2.1276 -0.2723
  593MOL0     H81774  12.006   7.531  11.226 -0.0746  0.7041 -1.2207
  593MOL0     H81775  12.096   7.237  11.213  0.5313 -0.7163  0.3721
  593MOL0     H81776  12.091   7.333  11.358 -2.3154 -0.6607  0.0762
  593MOL0     H81777  12.315   7.308  11.291 -0.9348 -0.4665 -0.7573
  593MOL0     H81778  12.281   7.319  11.118  2.4839  1.7653 -0.9448
  593MOL0     H81779  12.256   7.539  11.324  0.0557 -1.2365  0.2805
  593MOL0     H81780  12.259   7.566  11.135  2.4267 -0.0949 -1.5653
  593MOL0     H81781  12.473   7.619  11.286  0.8622  1.3467 -1.7703
  593MOL0     H81782  12.490   7.446  11.287 -3.2506 -1.9157  0.7352
  593MOL0     H81783  12.538   7.322  11.022 -1.7973 -1.2676 -0.8627
  593MOL0     H81784  12.586   7.312  10.782  0.3065  0.2458  1.7334
  593MOL0     H81785  12.741   7.402  10.772  0.3041  0.9782 -1.5662
  593MOL0     H81786  12.489   7.445  10.632  0.0876 -0.2445  2.2360
  593MOL0     H81787  12.621   7.580  10.642  3.5461 -1.0649 -0.5834
  593MOL0     H81788  12.787   7.464  10.559 -1.6644  0.4337  4.5061
  593MOL0     H81789  12.692   7.309  10.531  2.2264 -0.4123 -1.7588
  593MOL0     H81790  12.565   7.417  10.356 -0.0506  1.2559 -0.5417
  593MOL0     H81791  12.619   7.572  10.393 -1.0147 -0.3446  0.1151
  593MOL0     H81792  12.784   7.242  10.107 -0.0840 -0.5423 -1.1594
  593MOL0     H81793  12.635   7.147   9.852  0.7289 -0.9570  3.3709
  593MOL0     H81794  12.811   7.167   9.883  0.3708  0.6845 -1.5074
  593MOL0     H81795  12.739   7.242   9.745 -0.2786  2.3999 -0.5522
  593MOL0     H81796  12.714   7.667   9.513 -0.0273 -0.0076  2.2635
  593MOL0     H81797  12.639   7.702   9.291  0.5586 -1.6712  1.3046
  593MOL0     H81798  12.510   7.628   9.121  1.0252  0.8341 -1.7908
  593MOL0     H81799  12.366   7.665   9.028 -0.5194 -0.5369  0.4735
  593MOL0     H81800  12.419   7.900   9.009  0.6848  2.0073  0.8226
  593MOL0     H81801  12.532   7.893   9.152 -2.5177  3.6056 -1.3838
  593MOL0     H81802  12.577   7.765   8.870 -2.9724  3.6902 -1.8414
  593MOL0     H81803  12.675   7.746   9.011 -2.2187 -1.3475  2.0888
  593MOL0     H81804  12.686   8.018   8.997 -2.0670 -0.6385  1.4446
  593MOL0     H81805  12.597   8.004   8.844 -2.3625 -1.2061  1.6878
  593MOL0     H81806  12.855   7.865   8.916  0.4557  3.0688  1.8423
  593MOL0     H81807  12.783   7.839   8.762  1.8824 -1.1610  2.3443
  593MOL0     H81808  12.886   8.088   8.885 -2.0813 -0.2912  0.8101
  593MOL0     H81809  12.796   8.095   8.733 -2.0680 -1.3619  0.9731
  593MOL0     H81810  12.949   7.934   8.634  0.3885 -0.5979  0.7213
  593MOL0     H81811  13.049   7.925   8.776  0.9166  1.7383  1.0743
  593MOL0     H81812  13.006   8.197   8.637 -0.6398 -0.4097 -0.3942
  593MOL0     H81813  13.127   8.076   8.591  2.4088 -0.6258  2.6269
  593MOL0     H81814  12.228   7.689   9.440  0.4782  0.1918 -0.1901
  593MOL0     H81815  12.316   7.640   9.656  0.0086 -1.0887 -0.5116
  593MOL0     H81816  12.550   7.650   9.974  1.6743  0.1586 -0.8146
  593MOL0     H81817  12.641   7.634  10.174  3.6409  1.8067 -1.4786
  593MOL0     H81818  11.429   7.205  11.333  0.9394  0.5423 -0.6784
  593MOL0     H81819  11.192   7.192  11.309  1.8246 -0.0111  1.3266
  593MOL0     H81820  10.898   7.516  11.022 -1.5977  1.4632  3.0313
  593MOL0     H81821  10.684   7.569  10.940  1.1012  1.3213  1.5410
  593MOL0     H81822  10.404   7.567  11.066 -3.6193  0.2835 -0.0925
  593MOL0     H81823  10.468   7.586  10.887 -1.0212  0.2779 -1.1778
  593MOL0     H81824  10.202   7.464  10.954 -1.6568 -0.0834 -0.5672
  593MOL0     H81825  10.270   7.543  10.805  2.0306 -2.0181  0.5624
  593MOL0     H81826  10.199   7.691  11.071 -0.6732  0.2345  0.0520
  593MOL0     H81827  10.262   7.755  10.917 -0.8569 -1.0000 -3.0411
  593MOL0     H81828   9.987   7.616  10.957 -0.6178  0.5903 -0.4321
  593MOL0     H81829  10.049   7.681  10.811 -2.2882 -1.6110  0.7196
  593MOL0     H81830   9.873   8.003  11.036  2.0050  0.2303  0.2860
  593MOL0     H81831  10.526   7.179  11.046 -0.0505  0.7396 -1.0617
  593MOL0     H81832  10.792   7.015  11.057  1.8121 -1.1412  1.7214
  593MOL0     H81833  10.836   7.077  11.217 -0.3083  1.3155  0.1804
  593MOL0     H81834  10.659   7.048  11.182  0.2904 -0.5160  0.2801
  594MOL0     O81835   5.391   3.929   1.139  0.1030  0.4190  0.5695
  594MOL0     C81836   5.336   4.000   1.217 -0.9298 -0.2208  0.3326
  594MOL0     O81837   5.393   4.049   1.332 -0.4170  0.8087 -0.4836
  594MOL0     C81838   5.526   4.044   1.357 -0.9493  0.2212 -0.6012
  594MOL0     C81839   5.621   4.049   1.257 -0.0890 -1.1149  0.3497
  594MOL0     C81840   5.758   4.054   1.288 -0.1345 -0.0902 -0.2617
  594MOL0     C81841   5.804   4.059   1.418  0.3377  0.6543 -0.0784
  594MOL0     O81842   5.939   4.073   1.432  1.0315 -0.5508 -0.4757
  594MOL0     C81843   5.992   4.072   1.563 -0.7265  0.2646  0.0993
  594MOL0     C81844   6.139   4.115   1.572 -0.1647  0.2642 -0.4134
  594MOL0     C81845   6.234   4.012   1.509 -0.3837  0.3733 -0.0991
  594MOL0     C81846   6.377   4.026   1.554  0.7738 -0.2254  0.1340
  594MOL0     C81847   6.477   3.938   1.475  0.2354 -0.0690 -1.1071
  594MOL0     C81848   6.630   3.981   1.496  1.0002  0.4662 -0.7671
  594MOL0     C81849   6.733   3.862   1.489  0.1496  0.0851 -0.1394
  594MOL0     C81850   6.703   3.770   1.374 -0.0536 -0.6972  0.0153
  594MOL0     N81851   6.830   3.697   1.348  0.3934 -0.7836  0.5157
  594MOL0     C81852   6.944   3.768   1.306  0.6058 -0.4537 -0.4398
  594MOL0     C81853   7.045   3.675   1.307  0.1915  0.2460  0.2209
  594MOL0     C81854   7.196   3.691   1.267  0.5809  0.3404 -0.4323
  594MOL0     C81855   7.276   3.592   1.354 -0.2558 -0.4019 -0.6558
  594MOL0     C81856   7.423   3.638   1.356 -0.8587  1.0662  0.0188
  594MOL0     C81857   7.520   3.533   1.419  1.3730 -0.3443 -0.1127
  594MOL0     O81858   7.647   3.583   1.432 -0.4915 -0.4658  0.1120
  594MOL0     C81859   7.747   3.491   1.414 -0.4302 -0.2056 -0.0120
  594MOL0     C81860   7.737   3.363   1.474  0.0151 -0.9961 -0.4147
  594MOL0     C81861   7.832   3.263   1.457 -0.1310 -0.2393  0.1608
  594MOL0     C81862   7.812   3.124   1.510 -0.3179 -0.2646  0.2254
  594MOL0     C81863   7.961   3.303   1.391  0.1313  0.0842  0.1230
  594MOL0     C81864   8.068   3.208   1.363 -1.1086 -0.0579  0.7682
  594MOL0     O81865   8.041   3.076   1.352 -0.7534  0.0004  0.1168
  594MOL0     C81866   8.147   2.986   1.335  0.8729  0.1911  0.1883
  594MOL0     C81867   8.214   2.977   1.210  0.8279  0.0162 -0.1051
  594MOL0     C81868   8.310   2.883   1.181  0.1182  0.0949  0.0776
  594MOL0     C81869   8.349   2.797   1.285  0.1062 -0.3472 -0.7154
  594MOL0     O81870   8.436   2.697   1.251 -0.1087  0.8747  0.1555
  594MOL0     C81871   8.486   2.602   1.344 -0.3348  0.6877  0.3954
  594MOL0     C81872   8.594   2.655   1.429 -0.1810  0.0193  0.3633
  594MOL0     C81873   8.672   2.534   1.486 -0.1998  0.5168 -0.3950
  594MOL0     C81874   8.788   2.569   1.579 -0.4526 -0.8313  0.6374
  594MOL0     C81875   8.880   2.465   1.632 -0.1792  0.1471  0.5360
  594MOL0     C81876   8.991   2.426   1.534 -0.7154  0.3260 -0.7019
  594MOL0     C81877   9.103   2.346   1.612  0.1628  0.1347 -0.9029
  594MOL0     C81878   9.245   2.379   1.576  0.1817 -0.2650  0.2494
  594MOL0    Cl81879   9.350   2.237   1.606  0.0744  0.3262 -0.3906
  594MOL0     C81880   8.281   2.801   1.412  0.5679 -0.2090  0.4462
  594MOL0     C81881   8.186   2.901   1.437 -0.5796  0.4363  0.3192
  594MOL0     O81882   8.178   3.261   1.368  0.1687  0.2810 -0.2462
  594MOL0     C81883   7.980   3.440   1.365  0.2736 -0.6920  0.5081
  594MOL0     C81884   7.877   3.533   1.375  0.0429 -0.9015 -0.5285
  594MOL0     N81885   6.990   3.553   1.362 -0.8833  0.1884  0.6418
  594MOL0     N81886   6.860   3.569   1.382  1.0309 -0.6935 -0.1001
  594MOL0     C81887   5.703   4.074   1.519  0.4830 -0.2283 -0.3412
  594MOL0     C81888   5.570   4.075   1.487  0.6957 -0.1760 -0.1609
  594MOL0     C81889   5.194   4.018   1.192 -0.1520  0.0602  0.6249
  594MOL0     C81890   5.137   4.025   1.061  0.1441  0.3030 -0.1348
  594MOL0     C81891   4.999   4.023   1.050  0.5946 -1.0100  0.0952
  594MOL0     C81892   4.912   4.030   1.156 -0.0697 -0.5370  0.5299
  594MOL0     O81893   4.777   4.020   1.147  0.1762  0.0318  0.2603
  594MOL0     C81894   4.691   4.010   1.258  0.7754  1.1334 -0.0383
  594MOL0     C81895   4.557   3.956   1.199  0.3286  0.2584  0.3670
  594MOL0     C81896   4.443   3.973   1.295  0.2326  0.2937 -0.1217
  594MOL0     C81897   4.448   3.870   1.410 -0.5571  0.3437  0.1743
  594MOL0     C81898   4.343   3.893   1.508  0.5711  0.1586 -0.5366
  594MOL0     C81899   4.264   3.929   1.586  0.7644  0.5846  0.1262
  594MOL0     C81900   4.966   4.036   1.283 -0.4248  0.4444  0.0051
  594MOL0     C81901   5.102   4.032   1.305  1.1407  1.3250  0.5234
  594MOL0     C81902   5.143   4.055   1.444  0.2524 -0.2711  0.0025
  594MOL0     H81903   5.591   4.054   1.152 -1.4643  1.4609  0.7872
  594MOL0     H81904   5.833   4.046   1.211 -1.1026 -3.2655 -1.0440
  594MOL0     H81905   5.978   3.974   1.608  1.8076 -0.1269  0.1405
  594MOL0     H81906   5.945   4.149   1.625 -0.7725  1.3187 -1.1716
  594MOL0     H81907   6.154   4.209   1.518  2.3296  0.7579  0.9736
  594MOL0     H81908   6.162   4.132   1.678  4.0029 -0.9009 -0.9743
  594MOL0     H81909   6.200   3.910   1.528  1.1920 -0.1193  0.2727
  594MOL0     H81910   6.218   4.029   1.402 -2.0467 -0.3885  0.0052
  594MOL0     H81911   6.404   4.132   1.545 -0.9423  0.3665  1.3310
  594MOL0     H81912   6.381   4.016   1.663 -1.1896  2.9919  0.6177
  594MOL0     H81913   6.465   3.936   1.366 -1.9960  1.0404 -0.9198
  594MOL0     H81914   6.456   3.834   1.503  3.1120 -1.0137 -2.0810
  594MOL0     H81915   6.659   4.057   1.424 -0.3835  1.6518 -0.1247
  594MOL0     H81916   6.641   4.033   1.592  3.2037 -2.2239  0.6034
  594MOL0     H81917   6.738   3.807   1.583 -1.1848  0.7781  0.3688
  594MOL0     H81918   6.834   3.904   1.484  0.2223  1.1362  4.6626
  594MOL0     H81919   6.625   3.699   1.402  0.0888  0.0937  2.6650
  594MOL0     H81920   6.682   3.830   1.285  0.6490 -2.1826 -1.2123
  594MOL0     H81921   6.957   3.873   1.281  1.0513 -0.7906 -1.7045
  594MOL0     H81922   7.229   3.794   1.282 -1.1074  1.0282 -1.1627
  594MOL0     H81923   7.220   3.657   1.166 -0.5255 -0.0276 -0.5952
  594MOL0     H81924   7.221   3.584   1.448 -2.7203 -2.1259 -2.1451
  594MOL0     H81925   7.262   3.495   1.306  1.2431  0.2890 -2.6260
  594MOL0     H81926   7.464   3.638   1.255 -1.5108 -2.4762 -0.3653
  594MOL0     H81927   7.438   3.739   1.396 -0.6417  1.0575 -0.0346
  594MOL0     H81928   7.482   3.513   1.520  4.3714 -0.8023  1.0303
  594MOL0     H81929   7.516   3.449   1.349 -1.6135  1.0274 -1.7917
  594MOL0     H81930   7.648   3.337   1.532 -1.0663  1.0944 -1.0082
  594MOL0     H81931   7.804   3.050   1.430 -1.4994  0.2439 -0.1565
  594MOL0     H81932   7.717   3.111   1.563  0.3723 -0.4516  1.4603
  594MOL0     H81933   7.905   3.096   1.561 -1.0120  0.0262  1.7072
  594MOL0     H81934   8.185   3.034   1.122 -2.2851 -0.5551  0.4149
  594MOL0     H81935   8.351   2.852   1.085 -1.0391  0.8841 -0.6964
  594MOL0     H81936   8.408   2.559   1.407 -0.5854  1.5929  0.7152
  594MOL0     H81937   8.529   2.519   1.287  0.8729  0.5965  1.3861
  594MOL0     H81938   8.654   2.718   1.363  0.5190 -2.7656 -1.9052
  594MOL0     H81939   8.555   2.713   1.512  1.8505  0.8111  0.8146
  594MOL0     H81940   8.705   2.471   1.402 -0.6046 -2.1604  1.3083
  594MOL0     H81941   8.604   2.472   1.545 -0.7998  0.8264 -0.7507
  594MOL0     H81942   8.742   2.606   1.671  0.1229  2.7641 -0.3643
  594MOL0     H81943   8.847   2.649   1.534 -1.2377 -0.9463 -0.6362
  594MOL0     H81944   8.924   2.504   1.724 -0.0424 -2.1161  1.5136
  594MOL0     H81945   8.823   2.375   1.658 -0.5739 -0.4306 -2.0567
  594MOL0     H81946   9.036   2.515   1.488  2.4740 -1.1181 -0.6529
  594MOL0     H81947   8.949   2.364   1.455 -0.9569 -0.3300 -0.0706
  594MOL0     H81948   9.082   2.239   1.603  0.7844 -0.2497  1.4345
  594MOL0     H81949   9.093   2.379   1.716  0.8020 -0.7297 -0.5457
  594MOL0     H81950   9.278   2.462   1.639 -0.3103 -0.9010  1.3606
  594MOL0     H81951   9.241   2.414   1.472  1.0129 -0.6050  0.0918
  594MOL0     H81952   8.302   2.727   1.489 -1.5419 -1.0116  0.3182
  594MOL0     H81953   8.136   2.907   1.533  1.2413  2.0460  1.2368
  594MOL0     H81954   8.079   3.478   1.342 -0.0450 -0.3120 -0.2675
  594MOL0     H81955   7.908   3.637   1.371 -1.7637 -0.2716  0.8010
  594MOL0     H81956   5.733   4.081   1.623  1.5990 -2.2840 -0.4587
  594MOL0     H81957   5.491   4.074   1.562 -1.2135  3.3366 -1.8922
  594MOL0     H81958   5.197   4.022   0.971 -0.0074  2.9923 -0.3893
  594MOL0     H81959   4.957   4.023   0.950 -3.8286 -0.8311  1.7038
  594MOL0     H81960   4.722   3.934   1.331 -0.5950  1.1776  0.6100
  594MOL0     H81961   4.684   4.106   1.310 -1.2271  1.3091 -0.5709
  594MOL0     H81962   4.561   3.847   1.184 -1.9997  0.3868 -1.9289
  594MOL0     H81963   4.540   4.006   1.103  1.9137  0.3018  0.0757
  594MOL0     H81964   4.447   4.075   1.335  1.5756  0.5039 -0.7563
  594MOL0     H81965   4.346   3.965   1.243 -0.0618  3.8906 -0.3658
  594MOL0     H81966   4.542   3.863   1.466 -0.6260  0.9600  0.3772
  594MOL0     H81967   4.431   3.767   1.376  0.6487 -0.8550  2.8998
  594MOL0     H81968   4.199   3.954   1.667  0.5186 -1.6878  0.6960
  594MOL0     H81969   4.904   4.063   1.367  0.5578  1.3302  0.4638
  594MOL0     H81970   5.205   4.144   1.464  0.3209 -0.5755  1.2104
  594MOL0     H81971   5.058   4.067   1.512 -1.2385 -0.0789 -1.7880
  594MOL0     H81972   5.207   3.972   1.475  1.8631  1.1635  0.6970
  595MOL0     O81973   6.671   3.377   0.998 -1.1318 -0.2432 -0.6491
  595MOL0     C81974   6.606   3.286   0.947 -0.0017 -0.0862 -0.0544
  595MOL0     O81975   6.640   3.150   0.940  0.6217 -0.2297  0.0232
  595MOL0     C81976   6.753   3.084   0.986 -0.8480  0.0941  0.2575
  595MOL0     C81977   6.849   3.140   1.067 -0.5709  0.3202  0.5666
  595MOL0     C81978   6.956   3.054   1.116  1.4116 -0.6354  0.0699
  595MOL0     C81979   6.970   2.927   1.060 -0.2149  0.7861 -0.2847
  595MOL0     O81980   7.083   2.856   1.089  0.3945  0.1898 -0.2198
  595MOL0     C81981   7.094   2.721   1.055 -0.1630 -0.9561  1.3602
  595MOL0     C81982   7.230   2.680   1.099 -0.2893  0.7056 -0.3968
  595MOL0     C81983   7.208   2.621   1.236 -0.2234  0.5025 -0.6988
  595MOL0     C81984   7.338   2.553   1.288  0.7581  0.0260 -0.0402
  595MOL0     C81985   7.325   2.520   1.437 -0.3949  0.6084 -0.1274
  595MOL0     C81986   7.442   2.417   1.475  0.1551 -0.0025 -0.8534
  595MOL0     C81987   7.582   2.461   1.452 -0.7099 -0.7976  0.3252
  595MOL0     C81988   7.673   2.337   1.465 -0.5134  0.0322 -0.1883
  595MOL0     N81989   7.812   2.383   1.489 -0.6945 -0.2005 -0.0830
  595MOL0     C81990   7.919   2.389   1.399 -0.0945 -0.2962  0.1952
  595MOL0     C81991   8.028   2.413   1.475 -0.4923 -0.0985 -0.2416
  595MOL0     C81992   8.168   2.434   1.420  0.0095  0.6761 -0.0568
  595MOL0     C81993   8.245   2.305   1.377  0.6032  0.1620  0.8757
  595MOL0     C81994   8.189   2.214   1.265  0.1295  0.6332 -0.9916
  595MOL0     C81995   8.282   2.101   1.221 -0.4260 -0.2673  0.6282
  595MOL0     O81996   8.274   1.989   1.311 -0.5556  0.5499 -0.6058
  595MOL0     C81997   8.370   1.892   1.321  0.1173  0.0144  0.0862
  595MOL0     C81998   8.455   1.849   1.215  0.0945 -0.7749 -0.8098
  595MOL0     C81999   8.547   1.752   1.231  0.7304 -0.2211  0.1368
  595MOL0     C82000   8.608   1.703   1.104 -0.1293  0.5847  0.9187
  595MOL0     C82001   8.568   1.696   1.360  0.5659  0.0678 -0.2596
  595MOL0     C82002   8.674   1.597   1.389  0.0578  0.2280 -0.1221
  595MOL0     O82003   8.660   1.525   1.499  0.0077  0.1086 -0.2667
  595MOL0     C82004   8.769   1.463   1.552  0.5889 -0.4031 -0.2823
  595MOL0     C82005   8.868   1.543   1.618  0.0600  0.2276 -0.0431
  595MOL0     C82006   8.986   1.482   1.661  0.4497  0.5455  0.1172
  595MOL0     C82007   9.014   1.347   1.650  0.7384  0.3666 -0.3545
  595MOL0     O82008   9.128   1.297   1.691 -0.0791 -0.0360 -0.3370
  595MOL0     C82009   9.237   1.342   1.610 -1.0297 -0.0528 -0.2955
  595MOL0     C82010   9.361   1.258   1.653  0.3339 -0.6446  0.3590
  595MOL0     C82011   9.346   1.105   1.632  0.5265 -0.8965  0.2184
  595MOL0     C82012   9.466   1.028   1.704  0.5931 -0.7277  0.5640
  595MOL0     C82013   9.583   1.041   1.610 -0.8924  0.8284 -1.1188
  595MOL0     C82014   9.696   0.958   1.664  0.4122 -0.1416  0.7543
  595MOL0     C82015   9.829   0.974   1.574 -0.6197  0.2190 -0.7711
  595MOL0     C82016   9.935   0.890   1.640 -0.9520 -0.4929 -0.7154
  595MOL0    Cl82017  10.008   0.982   1.768  0.1821  0.1392 -0.0420
  595MOL0     C82018   8.920   1.271   1.588  0.0508  0.2051 -0.0595
  595MOL0     C82019   8.803   1.326   1.544  0.3117  0.1067  0.5093
  595MOL0     O82020   8.772   1.594   1.314 -0.2584  0.7709  0.4453
  595MOL0     C82021   8.478   1.737   1.461 -0.5890  0.6162 -1.0652
  595MOL0     C82022   8.375   1.820   1.442  0.1328 -0.5805  0.8338
  595MOL0     N82023   7.992   2.408   1.608 -0.4328 -0.5817 -0.3988
  595MOL0     N82024   7.864   2.398   1.615  0.3452  0.0413  0.0136
  595MOL0     C82025   6.876   2.878   0.964  0.7274  0.2933  0.4961
  595MOL0     C82026   6.772   2.959   0.927 -0.5714 -0.4146 -0.9286
  595MOL0     C82027   6.473   3.314   0.884 -0.1514 -1.0240 -0.3380
  595MOL0     C82028   6.389   3.211   0.834 -0.3435 -0.2364  0.4647
  595MOL0     C82029   6.262   3.235   0.770 -0.2190  0.1898 -0.1952
  595MOL0     C82030   6.214   3.362   0.764 -1.0061 -0.2208  0.0360
  595MOL0     O82031   6.086   3.375   0.729  0.3277 -0.2819 -0.4487
  595MOL0     C82032   6.074   3.452   0.605  0.3847 -0.0660 -1.2320
  595MOL0     C82033   5.926   3.470   0.555 -0.8640  0.4181  0.0190
  595MOL0     C82034   5.847   3.344   0.542  0.3876 -0.3317  0.3193
  595MOL0     C82035   5.698   3.356   0.494 -0.5405 -1.0343 -0.1986
  595MOL0     C82036   5.626   3.231   0.475 -0.7313 -0.2313  0.3817
  595MOL0     C82037   5.569   3.123   0.475 -0.7180 -0.1182 -0.0149
  595MOL0     C82038   6.292   3.470   0.818 -0.3987 -0.1318  0.5195
  595MOL0     C82039   6.415   3.445   0.878 -0.2226  0.5570  0.2244
  595MOL0     C82040   6.492   3.569   0.909  0.2827  0.9904  0.3695
  595MOL0     H82041   6.855   3.243   1.100  0.9900  1.7960 -3.6211
  595MOL0     H82042   7.036   3.084   1.184 -0.1732  1.9949  0.8966
  595MOL0     H82043   7.081   2.711   0.947  0.0232  0.4934  1.1795
  595MOL0     H82044   7.021   2.660   1.108 -1.9978 -0.4560 -0.4792
  595MOL0     H82045   7.271   2.605   1.030 -1.4761 -1.5524  1.2165
  595MOL0     H82046   7.296   2.767   1.100  1.7915 -0.7776 -1.3686
  595MOL0     H82047   7.173   2.691   1.312  4.1342 -1.0185  3.2024
  595MOL0     H82048   7.127   2.546   1.236  1.1873 -1.0970  0.0225
  595MOL0     H82049   7.370   2.465   1.231  3.1405  0.2989  0.7625
  595MOL0     H82050   7.415   2.630   1.279 -1.6383  2.3329 -2.4493
  595MOL0     H82051   7.223   2.484   1.451 -1.4960  3.7597  0.6079
  595MOL0     H82052   7.334   2.611   1.497  1.2041  1.7075 -1.9365
  595MOL0     H82053   7.429   2.386   1.580 -2.0172 -0.2309 -1.1365
  595MOL0     H82054   7.414   2.324   1.425 -0.2714 -1.5926  2.0681
  595MOL0     H82055   7.595   2.534   1.533 -3.4001  2.3594 -1.7929
  595MOL0     H82056   7.610   2.497   1.353  2.3217 -1.3689  0.8950
  595MOL0     H82057   7.639   2.281   1.553 -2.4683  1.3335 -0.0481
  595MOL0     H82058   7.662   2.261   1.388  0.8505  0.6723 -1.0451
  595MOL0     H82059   7.913   2.380   1.291  3.0993 -3.0047  0.0866
  595MOL0     H82060   8.219   2.466   1.511 -1.8452  0.3354  1.1808
  595MOL0     H82061   8.161   2.514   1.347 -1.0950  1.4248  0.8365
  595MOL0     H82062   8.350   2.332   1.359  0.1209  1.3818 -0.2505
  595MOL0     H82063   8.249   2.239   1.464  0.1488 -3.0848 -1.3834
  595MOL0     H82064   8.089   2.180   1.295  0.8379  1.2721  2.5184
  595MOL0     H82065   8.176   2.275   1.175 -0.6359  2.6319  0.3691
  595MOL0     H82066   8.238   2.074   1.125 -0.0031 -1.3357  0.7213
  595MOL0     H82067   8.385   2.137   1.211 -0.4779  0.6045  2.7079
  595MOL0     H82068   8.442   1.898   1.119  1.4489  1.3594  0.0250
  595MOL0     H82069   8.717   1.689   1.098 -0.3059 -0.7574  0.6100
  595MOL0     H82070   8.597   1.781   1.028  0.6600  2.8076  2.9196
  595MOL0     H82071   8.559   1.609   1.080  2.5339 -0.4371 -0.9483
  595MOL0     H82072   8.847   1.650   1.627 -0.8423 -0.0942  3.4965
  595MOL0     H82073   9.066   1.540   1.707 -0.0987  2.6126 -1.3762
  595MOL0     H82074   9.218   1.336   1.502  1.3319  0.7602 -0.8060
  595MOL0     H82075   9.258   1.448   1.629  0.7844 -0.8833  2.9082
  595MOL0     H82076   9.447   1.299   1.599 -0.7268  3.5792  1.5470
  595MOL0     H82077   9.367   1.286   1.758 -3.0441 -1.0157  0.7396
  595MOL0     H82078   9.344   1.083   1.525  1.9274 -3.6579  0.6757
  595MOL0     H82079   9.252   1.075   1.680  0.2573 -0.5860 -0.0970
  595MOL0     H82080   9.442   0.921   1.716 -1.3517 -0.6051 -1.5288
  595MOL0     H82081   9.489   1.057   1.807 -0.5830 -1.7119  1.1411
  595MOL0     H82082   9.568   1.016   1.504 -1.9862  0.4491 -0.8912
  595MOL0     H82083   9.610   1.146   1.601  1.1772  0.2495 -2.6522
  595MOL0     H82084   9.661   0.855   1.678 -0.9228  0.2171  0.2309
  595MOL0     H82085   9.716   1.003   1.762  0.4470  2.6741 -0.4717
  595MOL0     H82086   9.861   1.077   1.555  4.7676 -1.0440 -0.3922
  595MOL0     H82087   9.808   0.928   1.477  1.3638 -0.9417 -0.7068
  595MOL0     H82088  10.005   0.872   1.558  2.4736  2.1167  1.3142
  595MOL0     H82089   9.894   0.799   1.685 -1.0194 -0.8752 -1.5461
  595MOL0     H82090   8.951   1.168   1.569 -0.7221 -0.1569  0.5585
  595MOL0     H82091   8.739   1.273   1.473 -0.0397  1.1677  0.0134
  595MOL0     H82092   8.487   1.695   1.561 -2.2022 -2.1832 -1.9663
  595MOL0     H82093   8.319   1.842   1.532  4.4918  1.1132  3.4405
  595MOL0     H82094   6.875   2.781   0.914 -2.9038  2.3040 -3.9930
  595MOL0     H82095   6.701   2.926   0.852  1.4357 -2.6161 -2.0036
  595MOL0     H82096   6.420   3.108   0.846  0.1851  0.0678  2.0192
  595MOL0     H82097   6.206   3.157   0.720  0.8517 -0.5718 -0.2392
  595MOL0     H82098   6.115   3.551   0.627  0.7539  0.3263 -3.4841
  595MOL0     H82099   6.138   3.407   0.529 -0.1591 -0.9156 -1.1932
  595MOL0     H82100   5.938   3.516   0.457 -2.0712  0.4807 -0.1056
  595MOL0     H82101   5.876   3.549   0.612  0.3136  1.0487  0.2204
  595MOL0     H82102   5.884   3.275   0.466 -0.3262  1.5180 -1.8055
  595MOL0     H82103   5.839   3.288   0.636 -0.8348  1.3267  1.2689
  595MOL0     H82104   5.697   3.403   0.396 -0.5571  1.2398  0.8320
  595MOL0     H82105   5.642   3.416   0.567  0.9415 -0.5963  0.6093
  595MOL0     H82106   5.521   3.027   0.476  0.5501 -0.7814  0.2487
  595MOL0     H82107   6.257   3.572   0.829  1.5854  0.5101  1.4031
  595MOL0     H82108   6.519   3.572   1.015 -0.8265  1.9071  0.6492
  595MOL0     H82109   6.583   3.582   0.848 -0.2262  3.6197  0.0140
  595MOL0     H82110   6.451   3.666   0.877  1.2317  1.4066  0.3562
  596MOL0     O82111   7.165   8.459   6.006  0.4407  0.2670 -0.7014
  596MOL0     C82112   7.078   8.478   6.093  0.4012  0.4632  0.4312
  596MOL0     O82113   7.075   8.580   6.184  0.7107 -0.5781 -0.3242
  596MOL0     C82114   7.164   8.690   6.193 -0.3763 -0.4598 -0.2545
  596MOL0     C82115   7.146   8.769   6.302  0.1126 -0.4802  0.7286
  596MOL0     C82116   7.230   8.884   6.324 -0.6145  0.5211 -0.2383
  596MOL0     C82117   7.323   8.923   6.230 -0.9529  0.5730  0.8623
  596MOL0     O82118   7.403   9.039   6.242 -0.6927 -0.0682 -0.7689
  596MOL0     C82119   7.388   9.131   6.348 -0.4533 -0.0343  0.2358
  596MOL0     C82120   7.487   9.252   6.330 -0.0608 -0.5380 -0.3530
  596MOL0     C82121   7.632   9.205   6.341 -0.2650  0.0471  0.0864
  596MOL0     C82122   7.741   9.306   6.298 -0.3029 -0.5300  0.1254
  596MOL0     C82123   7.885   9.238   6.291  0.4079  0.4461 -0.3705
  596MOL0     C82124   7.980   9.333   6.222  0.3596 -0.3449 -0.3750
  596MOL0     C82125   8.120   9.273   6.243  0.0453  0.3613  0.8243
  596MOL0     C82126   8.220   9.384   6.193 -1.3747  0.5991 -0.0758
  596MOL0     N82127   8.330   9.310   6.127  0.0737 -0.3194 -0.3420
  596MOL0     C82128   8.434   9.252   6.201 -0.7073  0.4592  0.6465
  596MOL0     C82129   8.486   9.166   6.117 -0.1233 -0.8769  0.6345
  596MOL0     C82130   8.601   9.072   6.155  0.8822  0.2479  0.1074
  596MOL0     C82131   8.734   9.125   6.111  0.4548  0.6083 -0.0065
  596MOL0     C82132   8.798   9.246   6.171 -0.6606 -0.8776 -0.8617
  596MOL0     C82133   8.833   9.219   6.319  0.1074 -0.8025  0.1661
  596MOL0     O82134   8.941   9.126   6.349 -0.7919  0.4442  0.2512
  596MOL0     C82135   9.073   9.165   6.335 -0.4836  0.6571 -0.3285
  596MOL0     C82136   9.113   9.291   6.305 -1.4915 -0.3323  0.3988
  596MOL0     C82137   9.251   9.321   6.283 -0.8484  1.1751 -0.0104
  596MOL0     C82138   9.279   9.462   6.232 -0.8413  0.0499 -0.1501
  596MOL0     C82139   9.356   9.224   6.320  0.4707 -0.2448 -0.0145
  596MOL0     C82140   9.505   9.239   6.317 -0.9511  0.0446 -0.2040
  596MOL0     O82141   9.577   9.136   6.379 -0.5065 -0.3177 -1.1290
  596MOL0     C82142   9.715   9.140   6.392  0.0500 -0.3367  0.3397
  596MOL0     C82143   9.772   9.019   6.419 -0.8859  0.4172  0.1930
  596MOL0     C82144   9.915   9.011   6.427  0.2049 -0.0550 -0.1693
  596MOL0     C82145  10.003   9.119   6.421 -1.1173 -1.0384  0.5431
  596MOL0     O82146  10.131   9.099   6.446 -0.4279 -0.0196 -0.3001
  596MOL0     C82147  10.217   9.191   6.505 -0.4101 -0.0647 -0.0042
  596MOL0     C82148  10.363   9.156   6.484  0.4196 -0.5512 -1.1108
  596MOL0     C82149  10.441   9.162   6.617 -0.3893 -0.4081  0.0240
  596MOL0     C82150  10.588   9.183   6.591  0.3457  0.3593 -0.6777
  596MOL0     C82151  10.667   9.166   6.721 -0.1842 -0.1794  0.1875
  596MOL0     C82152  10.818   9.173   6.699  0.2937 -0.7315 -0.5427
  596MOL0     C82153  10.871   9.310   6.644  0.4403  0.4826 -0.1476
  596MOL0     C82154  10.810   9.430   6.708 -0.2648 -0.2407  0.4830
  596MOL0    Cl82155  10.856   9.452   6.880 -0.1857  0.3882  0.1254
  596MOL0     C82156   9.939   9.247   6.406 -0.4220  1.0711 -0.7099
  596MOL0     C82157   9.800   9.248   6.384 -0.9417  1.2767 -0.1328
  596MOL0     O82158   9.551   9.344   6.275  0.3272  0.0854 -0.3155
  596MOL0     C82159   9.312   9.099   6.356  0.8133 -0.0003  0.1647
  596MOL0     C82160   9.175   9.071   6.358 -0.2159 -0.2356 -0.3039
  596MOL0     N82161   8.417   9.173   5.992 -0.7028  0.4637 -0.4047
  596MOL0     N82162   8.321   9.254   6.004 -0.3706 -1.0802  1.1656
  596MOL0     C82163   7.349   8.834   6.122 -0.0959  0.4729  0.4044
  596MOL0     C82164   7.268   8.720   6.106  0.1256  0.0696  0.5558
  596MOL0     C82165   6.958   8.389   6.096  0.3340 -0.2045 -0.8151
  596MOL0     C82166   6.847   8.429   6.183  0.6252  0.0697  0.1474
  596MOL0     C82167   6.720   8.362   6.182  0.5024 -0.2254  0.2289
  596MOL0     C82168   6.704   8.242   6.110 -0.2172 -0.5971 -0.4272
  596MOL0     O82169   6.601   8.163   6.108  0.0448 -0.0463  0.3992
  596MOL0     C82170   6.465   8.220   6.121 -0.0617  0.2693 -0.4389
  596MOL0     C82171   6.361   8.146   6.044 -0.3178  0.6919  0.2322
  596MOL0     C82172   6.382   7.998   6.062  0.4654  1.2639 -0.2278
  596MOL0     C82173   6.354   7.950   6.208  0.2669 -0.0784 -0.8645
  596MOL0     C82174   6.242   8.013   6.273  0.8966 -0.4044 -0.7810
  596MOL0     C82175   6.153   8.067   6.347  0.4751  0.1337 -0.3105
  596MOL0     C82176   6.816   8.201   6.041 -0.2288  0.5173  0.0509
  596MOL0     C82177   6.942   8.261   6.030 -0.7024 -0.6001 -1.2929
  596MOL0     C82178   7.052   8.192   5.936  0.4910  0.1735  0.7176
  596MOL0     H82179   7.076   8.735   6.377 -0.8828  1.7740  0.9040
  596MOL0     H82180   7.212   8.945   6.412  1.3645  0.5091  0.2227
  596MOL0     H82181   7.399   9.082   6.445  0.3180 -0.5859 -0.1159
  596MOL0     H82182   7.287   9.171   6.354  0.2634  1.9266 -0.1012
  596MOL0     H82183   7.476   9.292   6.229  2.7419 -1.5475 -1.1380
  596MOL0     H82184   7.464   9.322   6.411 -0.8836  1.9156 -2.5677
  596MOL0     H82185   7.647   9.171   6.444 -0.1119 -1.5294 -0.4294
  596MOL0     H82186   7.638   9.120   6.272 -1.0395  0.0575  0.0004
  596MOL0     H82187   7.720   9.350   6.200  0.9015  2.7910  1.2083
  596MOL0     H82188   7.741   9.387   6.371  0.7150 -0.5710  0.1807
  596MOL0     H82189   7.880   9.145   6.234  1.1391 -0.4209  0.9262
  596MOL0     H82190   7.912   9.213   6.393 -0.7147 -1.9838 -0.6085
  596MOL0     H82191   7.965   9.350   6.115 -1.3979  1.4959  0.0845
  596MOL0     H82192   7.960   9.431   6.267 -2.1901 -0.6028 -0.7672
  596MOL0     H82193   8.137   9.183   6.184 -1.0769  1.1103 -0.7227
  596MOL0     H82194   8.127   9.258   6.351 -0.7558  1.6537  1.0787
  596MOL0     H82195   8.170   9.450   6.121 -5.1826 -1.4204  0.4492
  596MOL0     H82196   8.260   9.435   6.281 -0.1639 -2.0406  1.0379
  596MOL0     H82197   8.457   9.274   6.305 -2.8389  1.3327  0.9944
  596MOL0     H82198   8.582   8.974   6.110  0.4211  1.1194 -1.6971
  596MOL0     H82199   8.605   9.051   6.262  2.9481 -1.9181 -0.3129
  596MOL0     H82200   8.808   9.045   6.114  1.0881  1.1326 -0.8409
  596MOL0     H82201   8.720   9.153   6.006 -0.2331  1.1039  0.2091
  596MOL0     H82202   8.886   9.285   6.118 -0.8679  0.7491 -0.0663
  596MOL0     H82203   8.723   9.325   6.165  0.2131 -0.1051 -1.9758
  596MOL0     H82204   8.850   9.308   6.381 -3.7560  1.4511 -1.6321
  596MOL0     H82205   8.746   9.174   6.368  1.4316 -0.9931  2.4617
  596MOL0     H82206   9.038   9.368   6.291 -1.6998 -0.6633 -0.3048
  596MOL0     H82207   9.312   9.526   6.314  1.6913  0.4364 -1.3737
  596MOL0     H82208   9.188   9.508   6.192  0.8576  0.3478 -4.1061
  596MOL0     H82209   9.355   9.470   6.153 -0.2307  2.7520  0.6093
  596MOL0     H82210   9.713   8.931   6.445  0.1568 -0.5609 -0.6021
  596MOL0     H82211   9.930   8.906   6.450 -0.3414  0.0817  0.8367
  596MOL0     H82212  10.211   9.288   6.455  1.4352 -0.8495 -1.9138
  596MOL0     H82213  10.204   9.200   6.613  2.1520 -0.6552  0.4275
  596MOL0     H82214  10.368   9.057   6.439  3.0088 -1.5194  1.0530
  596MOL0     H82215  10.407   9.227   6.413  0.7567 -0.1472 -0.5033
  596MOL0     H82216  10.414   9.073   6.674 -0.8265 -0.5922 -0.4607
  596MOL0     H82217  10.409   9.244   6.681  0.2466  0.0997 -0.2979
  596MOL0     H82218  10.603   9.282   6.547  0.3502  0.9338  0.5542
  596MOL0     H82219  10.610   9.101   6.522 -1.6227 -2.4684  1.7659
  596MOL0     H82220  10.644   9.233   6.804  3.6249  1.6312 -0.0082
  596MOL0     H82221  10.643   9.066   6.760 -0.9530  0.2462  0.8444
  596MOL0     H82222  10.842   9.088   6.636  0.3148 -1.4820  0.4501
  596MOL0     H82223  10.865   9.153   6.796 -1.3881 -0.0096  0.4781
  596MOL0     H82224  10.848   9.310   6.537  0.3471 -2.8238 -0.2327
  596MOL0     H82225  10.978   9.316   6.668 -0.1987  1.7465  2.9898
  596MOL0     H82226  10.702   9.429   6.692 -0.0656  1.2030 -1.2341
  596MOL0     H82227  10.848   9.515   6.651  0.3953 -0.9603 -0.1740
  596MOL0     H82228  10.004   9.334   6.397  1.4399 -0.1017  0.7488
  596MOL0     H82229   9.756   9.348   6.376 -0.1329  1.6685  0.2136
  596MOL0     H82230   9.383   9.021   6.379  0.0646 -1.2813 -1.6481
  596MOL0     H82231   9.149   8.976   6.403  1.0990 -1.1375 -1.3861
  596MOL0     H82232   7.429   8.852   6.051 -0.9862 -0.2765 -0.8338
  596MOL0     H82233   7.293   8.673   6.012 -1.3021 -0.8685  0.6234
  596MOL0     H82234   6.842   8.518   6.245  1.6522 -1.4348  2.5255
  596MOL0     H82235   6.632   8.404   6.230  0.5855  0.9189 -0.5657
  596MOL0     H82236   6.445   8.203   6.228 -1.4815 -2.1623 -1.0007
  596MOL0     H82237   6.462   8.326   6.098  0.4102  0.3385 -0.1938
  596MOL0     H82238   6.380   8.174   5.940  3.0694 -0.2888  0.4842
  596MOL0     H82239   6.261   8.174   6.080  0.3378  0.0838  2.7629
  596MOL0     H82240   6.317   7.929   6.007  0.0354 -0.3198  2.1585
  596MOL0     H82241   6.479   7.957   6.032 -1.1204 -2.8185 -0.4247
  596MOL0     H82242   6.443   7.955   6.271 -0.6143  1.1147  0.3558
  596MOL0     H82243   6.327   7.844   6.202  1.2028 -0.2315 -3.0600
  596MOL0     H82244   6.083   8.121   6.409  1.9710  1.4475  0.3278
  596MOL0     H82245   6.804   8.111   5.982 -0.3071  0.1649  0.5947
  596MOL0     H82246   7.135   8.153   5.995 -0.5663 -0.0537  2.1177
  596MOL0     H82247   7.013   8.107   5.879 -1.9590  0.5569  1.6677
  596MOL0     H82248   7.088   8.264   5.862  0.4534 -0.5547 -0.0139
  597MOL0     O82249   0.147   2.106   5.873 -0.3552 -0.2847 -0.3435
  597MOL0     C82250   0.182   2.160   5.974 -0.0464  0.3479 -0.2473
  597MOL0     O82251   0.299   2.141   6.032  0.3657 -0.5744 -0.0162
  597MOL0     C82252   0.396   2.068   5.961  0.5662 -0.4003  0.3717
  597MOL0     C82253   0.515   2.131   5.935  0.3563 -0.2511 -0.1045
  597MOL0     C82254   0.634   2.076   5.894 -0.2053  1.6403  0.4645
  597MOL0     C82255   0.624   1.940   5.862 -0.9740  0.4328  0.4174
  597MOL0     O82256   0.734   1.865   5.813  0.1010  0.0674  0.1081
  597MOL0     C82257   0.843   1.864   5.910 -0.2695  0.0393  0.0778
  597MOL0     C82258   0.919   1.735   5.884 -0.2371 -0.0784 -1.1855
  597MOL0     C82259   1.019   1.738   5.773  0.1156  0.5588  0.1115
  597MOL0     C82260   1.144   1.822   5.804  0.1689  1.1024 -0.6527
  597MOL0     C82261   1.230   1.843   5.687 -1.1637 -0.0943  0.0325
  597MOL0     C82262   1.297   1.712   5.634  0.1673 -0.1867  0.3569
  597MOL0     C82263   1.429   1.746   5.582  0.2397  0.4420 -1.4301
  597MOL0     C82264   1.542   1.750   5.684 -0.7331 -0.3885 -0.0588
  597MOL0     N82265   1.676   1.765   5.633 -1.2440 -0.7540 -0.2874
  597MOL0     C82266   1.720   1.765   5.499  0.1044  0.6046  0.6239
  597MOL0     C82267   1.851   1.804   5.501  0.4197  0.0496  0.7175
  597MOL0     C82268   1.954   1.801   5.388  0.9334 -0.0655  1.0876
  597MOL0     C82269   2.080   1.711   5.418  0.7265  0.5203  0.2423
  597MOL0     C82270   2.166   1.690   5.299 -1.0650  0.7802 -0.2444
  597MOL0     C82271   2.244   1.818   5.260  0.3171  0.5328 -0.4635
  597MOL0     O82272   2.331   1.797   5.141  0.2834 -0.2496 -0.2335
  597MOL0     C82273   2.418   1.893   5.104  0.4264  0.1018 -0.2595
  597MOL0     C82274   2.415   2.023   5.149  0.7153 -0.0877  1.0625
  597MOL0     C82275   2.521   2.108   5.107 -0.6168 -0.0603  0.4062
  597MOL0     C82276   2.506   2.246   5.149  0.6111  0.2080 -0.4341
  597MOL0     C82277   2.616   2.065   5.015 -1.2274 -0.0480  1.0054
  597MOL0     C82278   2.730   2.148   4.969  0.0430  0.3392  0.8239
  597MOL0     O82279   2.798   2.106   4.857 -0.0998  1.0453 -0.0353
  597MOL0     C82280   2.922   2.161   4.814 -0.1360  1.7037 -0.5139
  597MOL0     C82281   3.007   2.248   4.875 -0.6629 -0.5882 -0.5271
  597MOL0     C82282   3.117   2.306   4.812  0.2783  0.1210  0.2285
  597MOL0     C82283   3.156   2.266   4.685  0.2129  0.3913  0.0767
  597MOL0     O82284   3.264   2.329   4.627  0.1872  0.3213 -0.2355
  597MOL0     C82285   3.289   2.320   4.490  0.3924 -0.6294  0.3849
  597MOL0     C82286   3.182   2.366   4.390  0.3322  0.1611  0.7205
  597MOL0     C82287   3.225   2.329   4.250 -0.3149 -0.4210  0.2452
  597MOL0     C82288   3.332   2.419   4.208  0.8225  0.2365  0.7187
  597MOL0     C82289   3.365   2.422   4.058  0.1948 -0.3946  0.0221
  597MOL0     C82290   3.483   2.515   4.022  0.2928 -0.6413 -0.0121
  597MOL0     C82291   3.442   2.672   4.000 -0.4411 -0.1255  0.0537
  597MOL0     C82292   3.388   2.713   3.861 -0.0207  0.8176 -0.2338
  597MOL0    Cl82293   3.516   2.689   3.738 -0.3340 -0.0826 -0.0355
  597MOL0     C82294   3.086   2.162   4.627 -0.8472 -0.0190 -0.0305
  597MOL0     C82295   2.973   2.106   4.696 -0.2287 -0.2533  0.2170
  597MOL0     O82296   2.759   2.255   5.027  0.7092 -0.0796 -0.1128
  597MOL0     C82297   2.605   1.936   4.958  0.4096 -0.9161  0.3234
  597MOL0     C82298   2.511   1.851   5.007 -0.0415  0.0486 -0.1619
  597MOL0     N82299   1.886   1.800   5.633 -0.0006  0.0999 -0.9543
  597MOL0     N82300   1.778   1.790   5.715  0.1442 -0.5371  0.8924
  597MOL0     C82301   0.503   1.869   5.872  0.9795  0.2017 -0.9048
  597MOL0     C82302   0.386   1.934   5.926 -0.6534 -0.0101  0.0935
  597MOL0     C82303   0.091   2.262   6.036 -0.2438 -0.3476 -0.1633
  597MOL0     C82304   0.081   2.270   6.171  0.3457 -0.0390 -0.1988
  597MOL0     C82305  -0.014   2.332   6.249  0.8478 -0.8983 -0.3940
  597MOL0     C82306  -0.098   2.419   6.184 -0.3150 -0.9128 -0.1625
  597MOL0     O82307  -0.182   2.500   6.254  0.1265 -0.0562 -0.0430
  597MOL0     C82308  -0.326   2.496   6.219  0.6424 -0.0819  0.3745
  597MOL0     C82309  -0.393   2.442   6.347  0.6807  0.5491  0.2293
  597MOL0     C82310  -0.345   2.503   6.468  0.3484 -0.4335  0.1455
  597MOL0     C82311  -0.349   2.658   6.481  0.5480  0.4628  0.1663
  597MOL0     C82312  -0.486   2.713   6.456 -0.5334 -0.0482  0.1168
  597MOL0     C82313  -0.585   2.774   6.431  0.4876  0.3379 -0.2373
  597MOL0     C82314  -0.091   2.420   6.043  0.2305 -0.2873 -0.7173
  597MOL0     C82315  -0.000   2.341   5.971  0.5661 -0.6432  0.6505
  597MOL0     C82316  -0.019   2.345   5.817 -0.0938 -0.2211  0.6251
  597MOL0     H82317   0.517   2.238   5.956  4.7071 -0.2392  0.3182
  597MOL0     H82318   0.727   2.128   5.875  0.4095 -0.3200 -2.4863
  597MOL0     H82319   0.813   1.869   6.015  0.1983 -2.2328  0.3759
  597MOL0     H82320   0.915   1.943   5.889  0.5062 -0.5966  0.2790
  597MOL0     H82321   0.968   1.694   5.973  1.6040 -0.8846 -2.4966
  597MOL0     H82322   0.842   1.661   5.860 -0.6155  0.3959 -1.4420
  597MOL0     H82323   1.048   1.634   5.757  0.0485  0.1575  2.2343
  597MOL0     H82324   0.974   1.771   5.679  2.8881 -0.4702 -1.6949
  597MOL0     H82325   1.118   1.915   5.854 -1.1759 -0.4357  1.7040
  597MOL0     H82326   1.201   1.765   5.878 -3.0352 -1.7534 -0.0993
  597MOL0     H82327   1.309   1.913   5.717 -2.6365  2.2404 -1.2494
  597MOL0     H82328   1.160   1.891   5.618  0.1409 -1.0913 -2.0756
  597MOL0     H82329   1.286   1.627   5.703 -1.6065 -1.7930 -1.7707
  597MOL0     H82330   1.237   1.669   5.554  0.7681 -2.0188  0.8223
  597MOL0     H82331   1.414   1.842   5.533 -0.1735  2.3267  2.0885
  597MOL0     H82332   1.462   1.669   5.511  2.2485 -0.1072 -0.0097
  597MOL0     H82333   1.527   1.827   5.760 -2.1779  1.1230 -1.7905
  597MOL0     H82334   1.533   1.657   5.742  1.8457 -0.8841 -0.3509
  597MOL0     H82335   1.668   1.731   5.410  1.6811 -1.2951  0.3602
  597MOL0     H82336   1.992   1.902   5.369  0.1835  0.4234  2.0740
  597MOL0     H82337   1.896   1.777   5.297  1.8542  2.2037 -0.1765
  597MOL0     H82338   2.145   1.760   5.491 -0.7556  2.1341  0.5514
  597MOL0     H82339   2.039   1.615   5.451 -1.6964  0.9379 -1.3458
  597MOL0     H82340   2.240   1.611   5.317 -1.8055  0.2976  0.7958
  597MOL0     H82341   2.103   1.655   5.217 -1.1598 -0.6179  0.4042
  597MOL0     H82342   2.185   1.908   5.241 -0.8851 -0.5265 -2.1466
  597MOL0     H82343   2.303   1.840   5.349  0.6679  2.6671 -1.1778
  597MOL0     H82344   2.343   2.043   5.228  0.0121 -1.6029  0.8402
  597MOL0     H82345   2.518   2.317   5.067 -2.1446  1.8614  0.4490
  597MOL0     H82346   2.551   2.270   5.245  2.3182 -3.2991 -0.2067
  597MOL0     H82347   2.400   2.255   5.172  0.7163  1.3890 -0.3627
  597MOL0     H82348   2.994   2.285   4.976  1.4810 -0.9174 -0.0788
  597MOL0     H82349   3.172   2.390   4.854  1.1604  0.1426 -0.9267
  597MOL0     H82350   3.384   2.373   4.477  0.4859 -0.8398  0.1982
  597MOL0     H82351   3.314   2.215   4.475 -1.2243 -1.0844  0.6698
  597MOL0     H82352   3.080   2.335   4.414  0.5543 -0.4061  0.9465
  597MOL0     H82353   3.173   2.475   4.402 -3.5432 -0.2554  3.7275
  597MOL0     H82354   3.135   2.339   4.188 -2.1218  1.5090  2.9545
  597MOL0     H82355   3.250   2.222   4.252  0.9528 -0.1273  1.3148
  597MOL0     H82356   3.423   2.382   4.254  0.6751  0.1052  0.9079
  597MOL0     H82357   3.318   2.523   4.240 -1.5325  1.0024 -2.3008
  597MOL0     H82358   3.384   2.318   4.030 -2.7436 -0.4449 -2.1801
  597MOL0     H82359   3.284   2.454   3.993  1.6181  1.4622 -0.9030
  597MOL0     H82360   3.524   2.484   3.925 -1.5262 -0.1575 -1.0000
  597MOL0     H82361   3.558   2.500   4.100  1.0701 -1.9946 -0.9819
  597MOL0     H82362   3.524   2.738   4.029 -0.2382  0.5002 -1.8080
  597MOL0     H82363   3.362   2.688   4.073  1.1330 -0.6226  1.9784
  597MOL0     H82364   3.339   2.810   3.845 -0.7908  0.0393 -3.2522
  597MOL0     H82365   3.314   2.633   3.853 -1.5510  2.3482 -3.1210
  597MOL0     H82366   3.103   2.112   4.532  0.6890 -0.6415  0.5495
  597MOL0     H82367   2.918   2.018   4.666  0.8079 -0.3866 -1.4267
  597MOL0     H82368   2.675   1.892   4.888 -0.3669 -1.5311 -0.0816
  597MOL0     H82369   2.505   1.750   4.967  0.9983 -0.9959  2.1342
  597MOL0     H82370   0.494   1.766   5.839 -1.4058  0.1988 -0.4541
  597MOL0     H82371   0.288   1.889   5.938 -0.2635 -1.4936 -1.8629
  597MOL0     H82372   0.155   2.213   6.226  0.0673  0.0661  0.2856
  597MOL0     H82373  -0.016   2.315   6.357 -0.1087  0.0582 -0.2489
  597MOL0     H82374  -0.360   2.598   6.201 -2.7552 -1.0959  0.3691
  597MOL0     H82375  -0.347   2.435   6.130 -0.3197 -1.0705  1.2580
  597MOL0     H82376  -0.380   2.334   6.337 -0.7902  0.4659 -1.1909
  597MOL0     H82377  -0.499   2.469   6.337 -0.3492 -2.2614  2.1730
  597MOL0     H82378  -0.406   2.463   6.550  1.2934 -0.3329  0.9121
  597MOL0     H82379  -0.247   2.467   6.501  0.3394 -1.4202 -0.8403
  597MOL0     H82380  -0.287   2.698   6.401 -1.7015  3.1139 -0.3691
  597MOL0     H82381  -0.314   2.685   6.581  0.6290 -0.4438  0.3917
  597MOL0     H82382  -0.673   2.827   6.401  0.3276 -0.1709 -0.6615
  597MOL0     H82383  -0.150   2.489   5.984 -0.7016 -0.5096 -0.0754
  597MOL0     H82384  -0.041   2.447   5.786 -0.7508  0.3909  2.9163
  597MOL0     H82385   0.065   2.307   5.757  0.8076  1.5636  0.7013
  597MOL0     H82386  -0.113   2.294   5.794 -0.4037 -0.7479  2.8237
  598MOL0     O82387  10.996  11.056  10.360 -0.2439 -0.0941 -0.0052
  598MOL0     C82388  11.045  11.062  10.245  0.9340 -0.0468  0.3403
  598MOL0     O82389  11.178  11.085  10.219 -0.6188 -0.2161  0.2246
  598MOL0     C82390  11.270  11.095  10.325 -1.0149  0.3881 -0.1434
  598MOL0     C82391  11.256  11.188  10.427  0.2354 -0.7730  0.2529
  598MOL0     C82392  11.342  11.200  10.538 -0.3352  0.6487 -0.1656
  598MOL0     C82393  11.438  11.095  10.559  0.7873  0.1026 -0.0242
  598MOL0     O82394  11.509  11.090  10.675 -0.5265 -0.1710  0.8293
  598MOL0     C82395  11.583  10.967  10.707 -0.1121 -0.4699  0.6528
  598MOL0     C82396  11.617  10.985  10.854 -0.3107  0.7318 -0.4573
  598MOL0     C82397  11.679  10.853  10.913  0.0914  0.1517 -0.4711
  598MOL0     C82398  11.787  10.881  11.021 -0.1428 -0.6253  0.1948
  598MOL0     C82399  11.846  10.748  11.066 -0.4374 -1.0347  1.1028
  598MOL0     C82400  11.933  10.734  11.197  0.2646 -0.0925  0.5140
  598MOL0     C82401  12.053  10.837  11.194 -0.1100  0.0189  0.4398
  598MOL0     C82402  12.159  10.821  11.306 -0.3573 -0.3079  0.7274
  598MOL0     N82403  12.256  10.934  11.299  0.0310  0.0295  0.1255
  598MOL0     C82404  12.359  10.965  11.206 -0.0812  0.4196  0.0839
  598MOL0     C82405  12.428  11.068  11.263 -0.1769 -0.0363  0.0938
  598MOL0     C82406  12.553  11.125  11.203  0.5626 -0.0534  0.1533
  598MOL0     C82407  12.593  11.267  11.248 -0.6549  0.3200  0.1313
  598MOL0     C82408  12.715  11.319  11.174 -0.1620  0.2878 -0.5239
  598MOL0     C82409  12.762  11.465  11.224 -0.2604  0.5080  0.1962
  598MOL0     O82410  12.873  11.502  11.138  0.2032 -0.3808  0.2611
  598MOL0     C82411  12.992  11.542  11.197  0.8251  0.2332 -0.0388
  598MOL0     C82412  13.048  11.652  11.141 -1.0790 -0.1261  0.6994
  598MOL0     C82413  13.170  11.698  11.194 -0.1675  0.1498 -0.5832
  598MOL0     C82414  13.234  11.804  11.110 -0.2714 -0.1245  0.4929
  598MOL0     C82415  13.235  11.635  11.299  0.8908  0.3677  0.0504
  598MOL0     C82416  13.364  11.676  11.351 -0.1574  0.3645 -1.0099
  598MOL0     O82417  13.387  11.813  11.377 -0.3537  0.2754  0.8240
  598MOL0     C82418  13.506  11.878  11.386  0.0342  0.0673  0.0081
  598MOL0     C82419  13.499  11.995  11.455 -0.6014  0.4503 -0.5702
  598MOL0     C82420  13.608  12.078  11.489 -0.3042  0.3955  0.3483
  598MOL0     C82421  13.738  12.046  11.435  0.4435  0.7009  0.0687
  598MOL0     O82422  13.853  12.119  11.459  0.1304  0.1279  0.3414
  598MOL0     C82423  13.837  12.217  11.558 -1.1248  0.9676 -0.2451
  598MOL0     C82424  13.963  12.300  11.583  0.0554  0.6171 -0.4287
  598MOL0     C82425  14.028  12.341  11.452 -0.6552 -0.0962 -0.7600
  598MOL0     C82426  14.163  12.422  11.482 -0.2152  0.5989 -0.1301
  598MOL0     C82427  14.251  12.404  11.370 -0.1889 -0.2192 -0.6083
  598MOL0     C82428  14.395  12.460  11.374  0.4957 -0.0449  0.6148
  598MOL0     C82429  14.463  12.460  11.234  1.0755 -0.0818  1.2341
  598MOL0     C82430  14.579  12.548  11.214  0.1068 -0.5966  1.0507
  598MOL0    Cl82431  14.692  12.512  11.346 -0.1119  0.0531 -0.0688
  598MOL0     C82432  13.747  11.923  11.356 -0.6804  0.5128  0.2902
  598MOL0     C82433  13.634  11.838  11.337 -0.2108 -0.0836  0.2683
  598MOL0     O82434  13.444  11.586  11.379  0.0072 -0.0276  0.0714
  598MOL0     C82435  13.175  11.510  11.344 -0.5237 -0.4031  0.6518
  598MOL0     C82436  13.055  11.471  11.292  0.2452 -0.2312  0.4408
  598MOL0     N82437  12.369  11.099  11.385  0.2125  0.5117 -0.1579
  598MOL0     N82438  12.261  11.026  11.402  0.3595 -0.5325 -0.0964
  598MOL0     C82439  11.442  10.994  10.467  0.1388 -0.1112 -0.6177
  598MOL0     C82440  11.370  10.998  10.351  0.5931  0.2540 -0.9836
  598MOL0     C82441  10.970  11.030  10.116  0.4671 -0.6771  0.1412
  598MOL0     C82442  11.037  10.950  10.022  0.1163 -0.7008 -0.9238
  598MOL0     C82443  10.973  10.901   9.909  0.7879 -0.8826 -0.0781
  598MOL0     C82444  10.848  10.946   9.885  0.1714  0.2303  0.0998
  598MOL0     O82445  10.784  10.880   9.788  0.3622  0.2832  0.0329
  598MOL0     C82446  10.644  10.900   9.773 -0.2883 -0.4316  0.2193
  598MOL0     C82447  10.579  10.808   9.665  0.6368 -0.0970 -0.4497
  598MOL0     C82448  10.444  10.839   9.620  0.9132 -0.6096 -0.4812
  598MOL0     C82449  10.384  10.733   9.534 -0.3031  0.0403 -0.3302
  598MOL0     C82450  10.243  10.750   9.495  0.1337  0.0078  0.5654
  598MOL0     C82451  10.134  10.763   9.446 -0.4049  0.3805 -0.0732
  598MOL0     C82452  10.790  11.049   9.969  0.4345  0.0947 -0.0552
  598MOL0     C82453  10.847  11.086  10.090 -1.4963 -0.7398  0.6172
  598MOL0     C82454  10.791  11.201  10.175  0.4569 -0.3402  0.0681
  598MOL0     H82455  11.179  11.263  10.413  2.3156  1.1323 -1.7694
  598MOL0     H82456  11.335  11.265  10.624  0.5877  0.8585 -0.2295
  598MOL0     H82457  11.668  10.956  10.640  0.6011 -2.5744  1.8220
  598MOL0     H82458  11.528  10.875  10.688  1.3413 -1.0371 -0.9608
  598MOL0     H82459  11.696  11.060  10.869  0.7895 -0.4274 -0.2789
  598MOL0     H82460  11.532  11.017  10.915 -1.8314 -0.3729 -1.9186
  598MOL0     H82461  11.603  10.786  10.955  1.2724 -0.8723  0.0971
  598MOL0     H82462  11.727  10.802  10.830 -0.8901  0.0576 -0.9950
  598MOL0     H82463  11.867  10.939  10.974  0.7331 -0.2245  2.0870
  598MOL0     H82464  11.746  10.939  11.103 -3.3858 -1.4186 -0.7073
  598MOL0     H82465  11.896  10.710  10.977 -2.7597 -2.6216  0.3867
  598MOL0     H82466  11.762  10.685  11.097 -1.1030  0.3103  2.1325
  598MOL0     H82467  11.867  10.766  11.278  0.7023  1.1486  0.4074
  598MOL0     H82468  11.972  10.633  11.213  1.2468 -0.0043 -1.1194
  598MOL0     H82469  12.023  10.941  11.206  0.6687  0.2348  0.6050
  598MOL0     H82470  12.094  10.846  11.093  1.9507  4.0998  1.4194
  598MOL0     H82471  12.118  10.819  11.407 -1.4259 -0.8627  0.3085
  598MOL0     H82472  12.210  10.726  11.285  0.0654  0.1877 -0.5882
  598MOL0     H82473  12.390  10.917  11.114  0.1347  0.9871 -0.1510
  598MOL0     H82474  12.547  11.126  11.094  0.7095 -3.6134  0.0141
  598MOL0     H82475  12.636  11.057  11.225  0.5013 -1.5841 -3.6921
  598MOL0     H82476  12.511  11.336  11.225 -2.9713 -0.8610  3.9502
  598MOL0     H82477  12.595  11.268  11.357 -0.7841  1.0315  0.1345
  598MOL0     H82478  12.791  11.240  11.175 -2.5764 -2.2171  1.4990
  598MOL0     H82479  12.682  11.319  11.070 -0.1923 -0.0218 -0.5165
  598MOL0     H82480  12.680  11.535  11.215  0.5042  1.1006 -3.8236
  598MOL0     H82481  12.778  11.451  11.331 -2.7477 -0.7308  0.4875
  598MOL0     H82482  12.995  11.699  11.059 -1.1034 -0.3727  0.5722
  598MOL0     H82483  13.338  11.826  11.137 -1.0009  0.9247  2.6110
  598MOL0     H82484  13.170  11.892  11.120 -0.1267  0.1265 -0.6044
  598MOL0     H82485  13.241  11.784  11.003  1.5408  0.0038  0.5567
  598MOL0     H82486  13.404  12.039  11.482 -0.3630  1.4671 -1.3421
  598MOL0     H82487  13.595  12.168  11.549  1.2885  0.5233  0.5657
  598MOL0     H82488  13.757  12.287  11.531 -2.7586 -1.0335 -0.8462
  598MOL0     H82489  13.816  12.164  11.651 -0.2500  0.5218 -0.2903
  598MOL0     H82490  13.958  12.377  11.660 -0.2842 -0.7748  0.9920
  598MOL0     H82491  14.042  12.235  11.623  1.6076  1.9494 -1.2060
  598MOL0     H82492  13.966  12.407  11.391  2.2247  0.0177 -3.8784
  598MOL0     H82493  14.048  12.250  11.395 -1.1899  0.9098 -2.6124
  598MOL0     H82494  14.223  12.383  11.564 -1.3613 -2.1968 -0.5102
  598MOL0     H82495  14.132  12.527  11.491 -0.4507  0.8243 -2.8281
  598MOL0     H82496  14.263  12.303  11.330 -1.0643 -0.8352  0.6375
  598MOL0     H82497  14.209  12.459  11.285  3.3358  1.8712 -1.2160
  598MOL0     H82498  14.462  12.409  11.445 -2.6483 -1.0600  3.1173
  598MOL0     H82499  14.392  12.566  11.399  2.0252  0.8318 -2.4388
  598MOL0     H82500  14.384  12.498  11.168  1.5078 -2.0771 -0.5566
  598MOL0     H82501  14.487  12.355  11.217 -1.0970 -0.2452 -1.4881
  598MOL0     H82502  14.540  12.651  11.207 -0.1957 -0.7687 -0.1225
  598MOL0     H82503  14.629  12.538  11.117 -0.2403  3.7302  0.1944
  598MOL0     H82504  13.843  11.896  11.314  0.9134  3.2852  1.8053
  598MOL0     H82505  13.646  11.750  11.276  1.0352 -0.9661  1.7244
  598MOL0     H82506  13.226  11.447  11.417  0.5729 -1.0622 -0.6333
  598MOL0     H82507  13.004  11.377  11.315  0.5149 -0.9920 -1.8830
  598MOL0     H82508  11.507  10.908  10.474  0.7941  0.4423  0.2299
  598MOL0     H82509  11.374  10.928  10.268  1.5528  1.9213 -2.3954
  598MOL0     H82510  11.133  10.916  10.060  2.3112  3.8141 -1.8133
  598MOL0     H82511  11.015  10.830   9.839 -0.5823 -1.8381  0.0198
  598MOL0     H82512  10.597  10.877   9.869 -0.2895 -1.4326 -0.0047
  598MOL0     H82513  10.622  11.004   9.746  0.9880  0.2654  1.6784
  598MOL0     H82514  10.579  10.707   9.707 -0.4865 -0.0327 -0.2520
  598MOL0     H82515  10.645  10.814   9.578 -0.1646  0.5840 -1.0291
  598MOL0     H82516  10.377  10.846   9.706  1.0817 -3.1003 -0.0647
  598MOL0     H82517  10.439  10.930   9.560  1.7993  0.2932  0.7585
  598MOL0     H82518  10.410  10.639   9.584  0.5948  0.9917  1.0500
  598MOL0     H82519  10.438  10.744   9.440 -0.9090  3.8697 -0.4054
  598MOL0     H82520  10.051  10.771   9.378 -1.7022 -2.3949  1.0077
  598MOL0     H82521  10.694  11.089   9.936  0.5069  2.2170  1.9848
  598MOL0     H82522  10.715  11.257  10.119  0.3582 -0.0374  0.5070
  598MOL0     H82523  10.748  11.156  10.265 -1.9678  1.7169  0.0443
  598MOL0     H82524  10.862  11.276  10.210 -0.8194  0.7359  0.4096
  599MOL0     O82525   1.914   6.116   7.282 -0.3723 -0.4960 -0.6288
  599MOL0     C82526   1.967   6.034   7.355  0.3895 -0.3382 -0.4067
  599MOL0     O82527   2.098   6.041   7.402  0.6779 -0.2349  0.1702
  599MOL0     C82528   2.160   6.149   7.348 -0.0768  0.6040 -0.1862
  599MOL0     C82529   2.181   6.265   7.425  0.1995 -0.1165 -0.8827
  599MOL0     C82530   2.255   6.373   7.377  0.2393  0.3555  0.0590
  599MOL0     C82531   2.313   6.368   7.252  0.5943  0.0339  0.2414
  599MOL0     O82532   2.384   6.471   7.197 -0.0843 -0.3798  0.3753
  599MOL0     C82533   2.510   6.478   7.263  0.0077 -0.0236 -0.6631
  599MOL0     C82534   2.590   6.586   7.194 -1.0270 -0.2097  0.4931
  599MOL0     C82535   2.737   6.604   7.252 -0.4247  0.4837  0.4141
  599MOL0     C82536   2.794   6.709   7.152  0.2946  0.4423 -0.2018
  599MOL0     C82537   2.950   6.728   7.170 -0.0354  0.1539 -0.5639
  599MOL0     C82538   2.980   6.774   7.316 -0.3914 -0.2573 -0.3958
  599MOL0     C82539   3.105   6.859   7.313 -0.0442 -0.1465 -0.0830
  599MOL0     C82540   3.226   6.779   7.346 -0.7516  0.0070 -0.1264
  599MOL0     N82541   3.340   6.866   7.357 -0.2123  0.2985  0.5287
  599MOL0     C82542   3.405   6.926   7.256 -0.8396  0.1962  0.5269
  599MOL0     C82543   3.521   6.980   7.317 -0.0609  0.6913 -0.6494
  599MOL0     C82544   3.639   7.027   7.241  0.0484 -0.3564 -0.6019
  599MOL0     C82545   3.705   7.140   7.315  0.3150  0.6605 -0.3572
  599MOL0     C82546   3.800   7.082   7.427  0.2913  0.1319 -0.7880
  599MOL0     C82547   3.892   7.183   7.482  0.0068 -0.4097 -0.0571
  599MOL0     O82548   3.977   7.127   7.587  0.4785 -0.4581  0.8493
  599MOL0     C82549   4.094   7.187   7.598  0.2043  0.2617 -0.0595
  599MOL0     C82550   4.119   7.330   7.591 -0.7805 -0.3391  0.4587
  599MOL0     C82551   4.258   7.380   7.586 -0.1240  0.0374 -0.4739
  599MOL0     C82552   4.258   7.526   7.574 -0.2790 -0.8021  0.3453
  599MOL0     C82553   4.365   7.291   7.614 -0.1900 -0.1286  0.1002
  599MOL0     C82554   4.504   7.325   7.647  0.4634  0.1909  0.2587
  599MOL0     O82555   4.581   7.220   7.684 -0.3069  0.2323 -1.1276
  599MOL0     C82556   4.717   7.250   7.705  1.2795 -0.5814  0.3487
  599MOL0     C82557   4.812   7.212   7.611  0.1912 -0.4982  0.0416
  599MOL0     C82558   4.947   7.241   7.622 -0.1659  0.1321 -0.0338
  599MOL0     C82559   4.990   7.318   7.726 -0.3902  0.4223 -0.4486
  599MOL0     O82560   5.126   7.348   7.748 -0.2558 -0.5107 -0.0771
  599MOL0     C82561   5.180   7.425   7.641 -0.4717 -0.6402  0.4076
  599MOL0     C82562   5.323   7.466   7.687  0.1168  0.3185  0.4651
  599MOL0     C82563   5.419   7.509   7.571  0.7829 -0.1603 -0.1441
  599MOL0     C82564   5.459   7.402   7.466  0.2383  0.7882  0.0312
  599MOL0     C82565   5.565   7.465   7.376 -1.2806 -0.3582  0.2624
  599MOL0     C82566   5.514   7.577   7.285  0.0488  1.0833 -1.0201
  599MOL0     C82567   5.643   7.645   7.232  0.0188  0.6935 -0.1773
  599MOL0     C82568   5.607   7.763   7.139  0.5968 -0.8418  0.9315
  599MOL0    Cl82569   5.737   7.803   7.024  0.5125 -0.1837  0.2214
  599MOL0     C82570   4.898   7.351   7.828 -0.8557  0.1380 -0.1377
  599MOL0     C82571   4.761   7.325   7.814  0.9446 -0.0350 -0.0021
  599MOL0     O82572   4.544   7.438   7.606  0.3915  0.5588  0.5413
  599MOL0     C82573   4.326   7.157   7.633 -0.6469 -0.1266  0.7042
  599MOL0     C82574   4.199   7.104   7.632  0.5255 -0.2921  0.5439
  599MOL0     N82575   3.515   6.964   7.456 -0.3399 -0.1923  0.0280
  599MOL0     N82576   3.409   6.889   7.477 -0.2531 -0.6419  0.7508
  599MOL0     C82577   2.299   6.250   7.179 -0.3422 -0.1969 -0.3385
  599MOL0     C82578   2.228   6.144   7.226 -0.2236 -0.2122 -0.0125
  599MOL0     C82579   1.901   5.910   7.385 -0.3601  0.4735 -0.3568
  599MOL0     C82580   1.764   5.917   7.404 -0.1459  0.5061 -0.6987
  599MOL0     C82581   1.693   5.798   7.432  0.3554  0.2236  0.4907
  599MOL0     C82582   1.750   5.670   7.411  0.5353 -0.6393 -0.0914
  599MOL0     O82583   1.675   5.561   7.438 -0.3099  0.4902 -0.2639
  599MOL0     C82584   1.643   5.485   7.329 -0.6323 -0.1491 -0.0763
  599MOL0     C82585   1.615   5.338   7.364  0.2098 -0.3488  0.2937
  599MOL0     C82586   1.729   5.258   7.435  0.1780 -0.1974  0.3542
  599MOL0     C82587   1.704   5.121   7.487  0.6911 -0.4757  0.2668
  599MOL0     C82588   1.806   5.027   7.443  0.4408  0.5686 -0.2390
  599MOL0     C82589   1.887   4.943   7.409  0.3425  0.6871 -0.4391
  599MOL0     C82590   1.885   5.665   7.394 -0.4127 -0.9079  0.3537
  599MOL0     C82591   1.962   5.777   7.384  0.5013 -0.8406  0.8422
  599MOL0     C82592   2.110   5.764   7.369  0.3035 -0.1616 -0.0622
  599MOL0     H82593   2.138   6.270   7.524  0.6989  3.1372 -0.7070
  599MOL0     H82594   2.278   6.460   7.439 -1.0542  0.2379  0.7241
  599MOL0     H82595   2.559   6.380   7.259 -1.1201 -0.6764  0.7355
  599MOL0     H82596   2.505   6.508   7.368  0.1630  0.4304 -0.7831
  599MOL0     H82597   2.602   6.554   7.090 -1.3334  2.2795 -0.3801
  599MOL0     H82598   2.541   6.684   7.201  0.0840  0.3172  1.1136
  599MOL0     H82599   2.749   6.632   7.357 -0.9776 -0.6420  0.7933
  599MOL0     H82600   2.800   6.515   7.245  0.4488  1.1827 -1.1169
  599MOL0     H82601   2.767   6.688   7.048 -2.9460  0.9071  0.4550
  599MOL0     H82602   2.755   6.808   7.176  0.8651  1.1025 -1.9157
  599MOL0     H82603   2.986   6.797   7.094  3.1267  0.9818  1.4987
  599MOL0     H82604   3.001   6.634   7.149  2.2763  1.2269 -0.0357
  599MOL0     H82605   2.892   6.831   7.346 -0.3130 -1.2460  1.9453
  599MOL0     H82606   2.989   6.692   7.388 -3.6358 -0.7793 -0.4164
  599MOL0     H82607   3.098   6.938   7.388 -0.2294 -0.0421 -0.2098
  599MOL0     H82608   3.118   6.906   7.215  0.0127  1.9183  0.8613
  599MOL0     H82609   3.206   6.722   7.438 -1.4505 -1.4199 -1.1199
  599MOL0     H82610   3.237   6.704   7.268  1.2817  0.8481 -0.7044
  599MOL0     H82611   3.387   6.927   7.149  1.2626 -0.1276  0.1163
  599MOL0     H82612   3.607   7.062   7.142  0.3960 -0.2706 -0.6867
  599MOL0     H82613   3.708   6.947   7.211  0.0813  0.0470 -1.6423
  599MOL0     H82614   3.770   7.187   7.241  1.6042 -1.2324 -0.5161
  599MOL0     H82615   3.632   7.210   7.357  0.8576  1.5843 -0.9186
  599MOL0     H82616   3.737   7.054   7.512  1.9073 -0.2323  0.3118
  599MOL0     H82617   3.859   7.005   7.377 -0.9267 -1.8526  0.6611
  599MOL0     H82618   3.938   7.236   7.398 -1.0342 -0.0321 -0.4055
  599MOL0     H82619   3.832   7.254   7.538 -1.4675 -0.2544 -1.7206
  599MOL0     H82620   4.044   7.403   7.564 -0.9568 -1.0796 -1.1990
  599MOL0     H82621   4.350   7.566   7.531 -1.8881  2.0862 -0.7216
  599MOL0     H82622   4.262   7.574   7.673  0.0086 -2.9473  1.4262
  599MOL0     H82623   4.181   7.574   7.513  2.0711 -0.0392 -2.2372
  599MOL0     H82624   4.793   7.161   7.517  3.5404  1.6906 -2.0333
  599MOL0     H82625   5.016   7.209   7.545  0.0974 -1.2413  0.7274
  599MOL0     H82626   5.192   7.376   7.544 -0.7359  0.0719  0.0062
  599MOL0     H82627   5.121   7.515   7.623 -1.0823 -0.9505  0.8242
  599MOL0     H82628   5.317   7.558   7.747  1.8568  0.6951  0.1214
  599MOL0     H82629   5.370   7.398   7.758 -1.6306 -0.5960  0.7920
  599MOL0     H82630   5.506   7.552   7.621  1.3914  0.3048 -1.5388
  599MOL0     H82631   5.364   7.594   7.528 -1.2204 -1.0533  0.5297
  599MOL0     H82632   5.373   7.365   7.410 -0.4373 -1.3834  2.2912
  599MOL0     H82633   5.497   7.314   7.519 -0.7121 -0.6093 -1.5080
  599MOL0     H82634   5.634   7.515   7.444 -1.0405 -0.8391  0.3765
  599MOL0     H82635   5.618   7.387   7.321  0.7099  1.3326 -0.3461
  599MOL0     H82636   5.460   7.649   7.346  1.6167 -0.7612  2.9118
  599MOL0     H82637   5.450   7.538   7.205  1.4495 -1.2172 -1.1215
  599MOL0     H82638   5.693   7.572   7.169 -1.5850 -1.5645  1.0221
  599MOL0     H82639   5.702   7.685   7.315 -0.7103  0.4065  0.4967
  599MOL0     H82640   5.595   7.847   7.208  0.5237  1.8420 -2.1101
  599MOL0     H82641   5.511   7.745   7.092  1.7212 -1.9471 -1.0643
  599MOL0     H82642   4.931   7.426   7.898 -2.7608  1.5983 -0.7398
  599MOL0     H82643   4.680   7.344   7.885 -0.8932 -0.4188 -1.9009
  599MOL0     H82644   4.393   7.078   7.664  0.2635 -0.4318 -1.8451
  599MOL0     H82645   4.177   7.000   7.650 -1.0901 -0.4672 -1.8835
  599MOL0     H82646   2.351   6.244   7.084 -0.5879 -0.3723 -0.4632
  599MOL0     H82647   2.220   6.056   7.163  2.5705  0.1905 -1.0884
  599MOL0     H82648   1.701   6.006   7.405  0.5930  1.0406 -0.9291
  599MOL0     H82649   1.587   5.804   7.457 -0.1014  2.5951 -1.5552
  599MOL0     H82650   1.558   5.527   7.274 -1.3616  0.3877  1.4042
  599MOL0     H82651   1.715   5.488   7.247 -2.1945  1.6287 -1.4890
  599MOL0     H82652   1.596   5.286   7.269 -0.8941 -1.4617  1.0911
  599MOL0     H82653   1.524   5.334   7.425  1.2870 -1.5822  1.8820
  599MOL0     H82654   1.815   5.253   7.368 -0.6442 -2.3696 -0.6412
  599MOL0     H82655   1.760   5.315   7.523 -1.9530 -1.7576  2.2210
  599MOL0     H82656   1.605   5.092   7.452  0.4085  1.7631 -0.9840
  599MOL0     H82657   1.709   5.129   7.596 -2.4302  2.1320  0.3621
  599MOL0     H82658   1.959   4.870   7.377  0.2224  0.8634 -1.1320
  599MOL0     H82659   1.927   5.566   7.386  1.4309 -0.1828  0.4951
  599MOL0     H82660   2.146   5.662   7.356 -1.1757 -0.6012 -0.8635
  599MOL0     H82661   2.154   5.822   7.287  0.3890 -0.1616 -0.0169
  599MOL0     H82662   2.150   5.808   7.461  2.2693 -1.2211 -0.3698
  600MOL0     O82663   7.105   0.797   6.766  0.4900  0.1750  0.4890
  600MOL0     C82664   7.217   0.767   6.808  0.3509 -0.3905 -0.0667
  600MOL0     O82665   7.261   0.800   6.933 -0.3008 -0.3896  0.9767
  600MOL0     C82666   7.178   0.868   7.021  0.5274  0.4094  0.7958
  600MOL0     C82667   7.137   0.816   7.143 -0.3581 -0.3464 -0.2412
  600MOL0     C82668   7.068   0.884   7.241 -0.1206  0.6615 -0.4269
  600MOL0     C82669   7.029   1.019   7.223  0.2589 -0.3890  0.0843
  600MOL0     O82670   6.953   1.098   7.309  0.0092  0.3470 -0.1174
  600MOL0     C82671   6.942   1.052   7.442 -1.0976  0.4596 -0.4076
  600MOL0     C82672   6.883   1.163   7.531  0.5673 -0.6281  0.1818
  600MOL0     C82673   6.985   1.263   7.553  0.0943  0.1722  0.4782
  600MOL0     C82674   6.924   1.395   7.582  0.4354  0.4692  0.4467
  600MOL0     C82675   7.025   1.507   7.626 -0.2324  0.3108 -0.1315
  600MOL0     C82676   7.122   1.553   7.520  0.4246 -0.5284 -0.3427
  600MOL0     C82677   7.194   1.680   7.570  0.4760  0.3952  1.2744
  600MOL0     C82678   7.296   1.726   7.462  0.3683  0.2422 -0.3812
  600MOL0     N82679   7.365   1.847   7.499 -0.7138 -0.1806 -0.1525
  600MOL0     C82680   7.372   1.902   7.625 -0.1853 -0.0297  0.1560
  600MOL0     C82681   7.469   1.997   7.617 -0.9568 -0.6711  0.6715
  600MOL0     C82682   7.495   2.102   7.719 -0.2527 -0.2550 -0.3862
  600MOL0     C82683   7.612   2.068   7.808 -0.0241  0.0176 -0.7865
  600MOL0     C82684   7.622   2.166   7.918 -0.5775  0.6159  0.0714
  600MOL0     C82685   7.746   2.130   7.998  0.2142 -0.2120 -0.5010
  600MOL0     O82686   7.742   1.999   8.061  0.1413  0.3326  0.1125
  600MOL0     C82687   7.858   1.950   8.111  0.4241 -0.9638  0.2945
  600MOL0     C82688   7.947   2.034   8.186  0.7953 -0.5564 -0.2087
  600MOL0     C82689   8.081   1.995   8.206 -0.1594 -0.0477 -0.4146
  600MOL0     C82690   8.173   2.105   8.256 -0.2532  0.8579  0.0135
  600MOL0     C82691   8.118   1.858   8.169  0.1161 -0.6017  0.0992
  600MOL0     C82692   8.257   1.795   8.192 -0.6518  0.1057 -0.6530
  600MOL0     O82693   8.295   1.689   8.122  0.4325  0.4407  0.4892
  600MOL0     C82694   8.418   1.648   8.147 -0.0861  0.2984 -0.3551
  600MOL0     C82695   8.448   1.552   8.248 -0.2417  0.3607 -0.1825
  600MOL0     C82696   8.581   1.529   8.289  1.0509 -0.0331 -0.3011
  600MOL0     C82697   8.680   1.597   8.222  0.5011 -0.0423 -0.4031
  600MOL0     O82698   8.809   1.573   8.257 -0.3615 -0.4815  0.4820
  600MOL0     C82699   8.916   1.585   8.156 -0.2523 -0.2006 -1.3432
  600MOL0     C82700   9.047   1.510   8.197 -0.2777  0.0450  0.2377
  600MOL0     C82701   9.114   1.589   8.306 -0.0523  0.8182 -0.6677
  600MOL0     C82702   9.250   1.537   8.337 -0.3296 -0.8174 -0.6795
  600MOL0     C82703   9.330   1.641   8.426  0.2228 -0.2163 -0.9871
  600MOL0     C82704   9.477   1.596   8.471  1.1941  0.3171  0.1950
  600MOL0     C82705   9.482   1.458   8.533 -0.0463  0.1377  0.0131
  600MOL0     C82706   9.602   1.453   8.619 -0.2001 -0.0869  0.2756
  600MOL0    Cl82707   9.764   1.475   8.523  0.0268  0.7544 -0.3285
  600MOL0     C82708   8.647   1.667   8.110 -0.9586 -1.0100 -0.1848
  600MOL0     C82709   8.516   1.706   8.080  0.2467  0.5849  0.1396
  600MOL0     O82710   8.321   1.841   8.292 -0.2776 -0.0981  0.2776
  600MOL0     C82711   8.033   1.776   8.096  0.1824  0.6948 -1.0305
  600MOL0     C82712   7.907   1.826   8.066  0.2985  0.9903 -0.0408
  600MOL0     N82713   7.534   1.983   7.498  0.7444  0.1098  0.7742
  600MOL0     N82714   7.471   1.892   7.429  0.3439  0.0038 -0.2581
  600MOL0     C82715   7.059   1.067   7.095  0.1815 -0.5821  0.1434
  600MOL0     C82716   7.121   0.991   6.992  0.7344 -0.0448  0.4099
  600MOL0     C82717   7.315   0.694   6.711  1.1289  0.6618  0.3192
  600MOL0     C82718   7.457   0.701   6.742 -0.3619  0.3223 -0.4929
  600MOL0     C82719   7.546   0.621   6.670  0.6926  0.0108  0.0185
  600MOL0     C82720   7.505   0.538   6.562 -0.4214 -0.0180 -0.2393
  600MOL0     O82721   7.597   0.456   6.498 -0.6977 -0.2264 -0.2018
  600MOL0     C82722   7.686   0.387   6.590 -0.4752 -0.2181  0.0895
  600MOL0     C82723   7.786   0.301   6.508 -0.6913  0.1316  0.2755
  600MOL0     C82724   7.731   0.165   6.472  0.0281  0.2409  0.3952
  600MOL0     C82725   7.826   0.079   6.381 -0.4830 -0.6665 -0.0519
  600MOL0     C82726   7.755  -0.025   6.315  0.4903  0.4455  0.7600
  600MOL0     C82727   7.698  -0.114   6.266  1.1894  0.4505 -0.2980
  600MOL0     C82728   7.373   0.541   6.521 -0.2945 -0.3507 -0.0584
  600MOL0     C82729   7.276   0.609   6.599  0.3469  0.2517  0.1143
  600MOL0     C82730   7.132   0.603   6.560 -0.2800  0.3731  0.4534
  600MOL0     H82731   7.160   0.713   7.168  1.2254  0.6233  2.9066
  600MOL0     H82732   7.034   0.827   7.327 -0.3996  1.0566 -0.2731
  600MOL0     H82733   7.042   1.029   7.481 -0.5983 -0.5669 -2.1798
  600MOL0     H82734   6.889   0.958   7.455 -0.7592  0.3424  0.2036
  600MOL0     H82735   6.794   1.202   7.480 -1.2622 -4.9095 -0.3370
  600MOL0     H82736   6.862   1.108   7.623  0.0089 -0.5954  0.0811
  600MOL0     H82737   7.042   1.233   7.642 -3.7766 -4.2907  1.8213
  600MOL0     H82738   7.049   1.272   7.465 -2.9151 -1.9341 -2.1121
  600MOL0     H82739   6.869   1.418   7.490  1.1180 -1.0396 -0.3720
  600MOL0     H82740   6.854   1.372   7.663  0.8560  0.7278  0.8841
  600MOL0     H82741   7.081   1.467   7.711 -1.9472 -1.7634  0.1042
  600MOL0     H82742   6.961   1.591   7.652  0.7890  1.4641 -1.2516
  600MOL0     H82743   7.197   1.477   7.493  0.0082 -0.4800 -1.7483
  600MOL0     H82744   7.074   1.584   7.426  2.3418  4.8906  0.1215
  600MOL0     H82745   7.247   1.664   7.665  0.6901  0.6854  1.2066
  600MOL0     H82746   7.115   1.756   7.575  0.5869  0.5476  0.7662
  600MOL0     H82747   7.375   1.650   7.454 -0.3055 -0.4581 -0.5416
  600MOL0     H82748   7.246   1.743   7.366  0.9837  0.0374 -0.7470
  600MOL0     H82749   7.313   1.877   7.712 -1.0658 -0.6588 -0.5929
  600MOL0     H82750   7.410   2.104   7.789 -2.6333 -1.3569 -3.0741
  600MOL0     H82751   7.513   2.203   7.682 -0.3741  0.7205  2.0095
  600MOL0     H82752   7.611   1.965   7.845 -1.2087  0.1571 -0.4051
  600MOL0     H82753   7.690   2.076   7.732  0.0840 -0.7779 -0.7638
  600MOL0     H82754   7.642   2.271   7.894  2.3075  0.8990  3.0005
  600MOL0     H82755   7.536   2.170   7.986 -0.2777 -1.1655  0.6190
  600MOL0     H82756   7.831   2.134   7.930  0.4930  0.9078 -0.1088
  600MOL0     H82757   7.764   2.200   8.079 -2.5706 -1.5153  1.4412
  600MOL0     H82758   7.919   2.134   8.219 -1.2146 -1.2212  0.2446
  600MOL0     H82759   8.266   2.112   8.199 -0.8373  2.4658 -0.7922
  600MOL0     H82760   8.200   2.090   8.361  3.5045  0.4772 -0.8951
  600MOL0     H82761   8.123   2.202   8.245 -1.7153  0.0982 -0.3993
  600MOL0     H82762   8.366   1.505   8.303 -0.9727  1.4962 -0.2680
  600MOL0     H82763   8.588   1.470   8.381  0.2053  1.5392  0.8164
  600MOL0     H82764   8.881   1.547   8.060 -1.2169  1.5805 -1.7296
  600MOL0     H82765   8.944   1.688   8.135 -0.2500  0.0166 -0.3410
  600MOL0     H82766   9.025   1.406   8.223 -0.3985 -0.0541 -0.2392
  600MOL0     H82767   9.109   1.513   8.107  1.5179 -0.4346  1.4155
  600MOL0     H82768   9.054   1.580   8.397 -0.8690  2.2534 -1.0430
  600MOL0     H82769   9.119   1.696   8.286  0.8294  0.7220 -0.9784
  600MOL0     H82770   9.305   1.518   8.245 -0.6071  2.8797 -1.7567
  600MOL0     H82771   9.249   1.439   8.387  0.9294 -0.4792  0.0700
  600MOL0     H82772   9.331   1.735   8.370 -1.9445 -0.8620 -2.2512
  600MOL0     H82773   9.283   1.659   8.523 -0.3146 -0.8080 -1.1262
  600MOL0     H82774   9.530   1.677   8.522  0.6363  0.5145  0.4688
  600MOL0     H82775   9.521   1.585   8.372 -2.9487 -1.2645 -1.7164
  600MOL0     H82776   9.485   1.379   8.458 -1.3798 -0.6338  0.7362
  600MOL0     H82777   9.388   1.450   8.590 -0.6975  0.0935 -1.0484
  600MOL0     H82778   9.611   1.359   8.674 -0.0695 -1.1551 -1.4908
  600MOL0     H82779   9.599   1.533   8.693  0.8697 -0.1338  0.3980
  600MOL0     H82780   8.728   1.711   8.052 -1.6631  0.9670  0.2492
  600MOL0     H82781   8.501   1.776   7.999 -1.4710  0.7724  0.5765
  600MOL0     H82782   8.067   1.679   8.062 -0.1730  1.1759 -2.8405
  600MOL0     H82783   7.840   1.777   7.995  0.3805  2.1000 -0.8960
  600MOL0     H82784   7.024   1.167   7.071 -2.5879 -1.6000 -0.4441
  600MOL0     H82785   7.134   1.046   6.900 -4.6763  0.8048 -0.1909
  600MOL0     H82786   7.498   0.766   6.818  0.9266 -0.0809 -0.8142
  600MOL0     H82787   7.651   0.623   6.698  0.5841 -2.6353  0.8303
  600MOL0     H82788   7.744   0.459   6.649  1.8575 -1.3874 -0.6598
  600MOL0     H82789   7.630   0.323   6.659  0.7635 -0.6497  0.7303
  600MOL0     H82790   7.868   0.272   6.574 -1.6309 -3.0833  0.1796
  600MOL0     H82791   7.829   0.349   6.420  0.3175 -1.7367 -0.3056
  600MOL0     H82792   7.716   0.113   6.567 -0.5656  1.7382  1.1571
  600MOL0     H82793   7.637   0.189   6.422  2.3651  3.4609 -2.9847
  600MOL0     H82794   7.903   0.029   6.441 -2.7367 -2.0803  1.8608
  600MOL0     H82795   7.874   0.136   6.301  1.0568 -0.3065  1.0789
  600MOL0     H82796   7.647  -0.198   6.223  1.0135  0.3853  0.0341
  600MOL0     H82797   7.339   0.480   6.438 -0.9087 -1.0986  0.7122
  600MOL0     H82798   7.072   0.576   6.648 -0.7234 -0.3573 -0.0586
  600MOL0     H82799   7.100   0.698   6.516  4.1759  1.6826 -0.4549
  600MOL0     H82800   7.106   0.529   6.484 -0.2719  2.6293 -1.8810
  601MOL0     O82801   3.789   5.042   6.532 -0.1815  0.1749 -0.6465
  601MOL0     C82802   3.688   5.085   6.477  0.7529  0.6265  0.1239
  601MOL0     O82803   3.682   5.147   6.360 -0.3003 -1.1465  0.4383
  601MOL0     C82804   3.802   5.191   6.312  0.5074  0.1634  0.3794
  601MOL0     C82805   3.876   5.092   6.239 -0.4683  1.0821 -0.4470
  601MOL0     C82806   4.004   5.125   6.213 -0.5041  0.3642  0.2161
  601MOL0     C82807   4.062   5.251   6.234 -1.1286  0.6241 -0.2534
  601MOL0     O82808   4.195   5.291   6.211  0.0933  0.2305  0.1340
  601MOL0     C82809   4.300   5.189   6.186  0.3273  0.2110  0.1912
  601MOL0     C82810   4.439   5.255   6.173  0.3134 -0.9566  0.3559
  601MOL0     C82811   4.471   5.343   6.287 -0.7094 -0.1575 -0.2581
  601MOL0     C82812   4.620   5.386   6.293 -0.1129  0.0009 -0.0717
  601MOL0     C82813   4.655   5.523   6.362  0.0942  0.1620  0.6734
  601MOL0     C82814   4.802   5.542   6.360  0.4222  0.5865 -0.0253
  601MOL0     C82815   4.824   5.679   6.419 -0.9281  0.5217 -0.1692
  601MOL0     C82816   4.975   5.721   6.430 -0.7386 -1.0203  0.3280
  601MOL0     N82817   5.031   5.755   6.296  0.7034 -0.8789  0.2387
  601MOL0     C82818   5.090   5.676   6.202 -1.1555  0.4513  0.0418
  601MOL0     C82819   5.121   5.759   6.098  0.9970 -0.8248 -0.5366
  601MOL0     C82820   5.193   5.749   5.967  0.0192  0.0079  0.0722
  601MOL0     C82821   5.350   5.713   5.982 -0.2525  0.1316  0.2723
  601MOL0     C82822   5.434   5.750   5.860 -0.5159  0.1399  0.1270
  601MOL0     C82823   5.586   5.735   5.882 -0.7893 -0.6722  0.0564
  601MOL0     O82824   5.643   5.804   6.003  0.2635  0.6038 -0.2052
  601MOL0     C82825   5.778   5.831   6.007  0.4241 -1.0428  0.9888
  601MOL0     C82826   5.864   5.805   5.899  0.7419 -0.7175 -0.2565
  601MOL0     C82827   6.002   5.829   5.908  0.3868  0.3095 -0.1123
  601MOL0     C82828   6.068   5.803   5.780 -0.0616  0.0909 -0.9113
  601MOL0     C82829   6.070   5.860   6.034 -0.2547 -0.2961 -0.0519
  601MOL0     C82830   6.220   5.861   6.068 -0.2505 -0.2780 -0.3953
  601MOL0     O82831   6.235   5.856   6.204  0.6746  0.3238  0.1606
  601MOL0     C82832   6.362   5.857   6.264  0.6438 -0.1814 -0.0129
  601MOL0     C82833   6.398   5.940   6.374  0.9742  0.6109  0.5370
  601MOL0     C82834   6.519   5.931   6.440 -0.1335  1.0490 -0.5678
  601MOL0     C82835   6.620   5.839   6.400 -0.1339  0.3969 -0.2498
  601MOL0     O82836   6.740   5.820   6.465  0.3303 -0.1010 -0.1105
  601MOL0     C82837   6.797   5.929   6.545 -0.6336 -0.0511  0.6389
  601MOL0     C82838   6.943   5.902   6.565  0.3079  0.4125  0.5479
  601MOL0     C82839   7.013   6.030   6.589  0.3464 -1.0794  0.7293
  601MOL0     C82840   7.155   6.008   6.642  0.4297 -0.4639  0.5841
  601MOL0     C82841   7.216   6.131   6.688  0.3031 -0.2259  0.7145
  601MOL0     C82842   7.364   6.095   6.716 -0.2048  0.1153  0.4924
  601MOL0     C82843   7.446   6.226   6.758 -0.4745 -1.2781 -0.4731
  601MOL0     C82844   7.560   6.194   6.846 -0.0322  0.6913  0.6905
  601MOL0    Cl82845   7.681   6.127   6.737  0.0337  0.0055  0.3936
  601MOL0     C82846   6.588   5.760   6.297  0.7511  0.1507  0.3620
  601MOL0     C82847   6.464   5.762   6.238  0.3561  0.3108 -0.2059
  601MOL0     O82848   6.306   5.892   5.986  0.0633  0.0506 -0.2456
  601MOL0     C82849   5.977   5.871   6.139 -0.3388 -0.9568  0.0686
  601MOL0     C82850   5.836   5.859   6.132 -0.1004 -0.2200  0.1153
  601MOL0     N82851   5.080   5.889   6.133 -0.6183  0.7538 -0.5379
  601MOL0     N82852   5.026   5.884   6.244  0.8206  0.2863 -0.2093
  601MOL0     C82853   3.988   5.350   6.294 -0.5722 -0.3902 -0.0793
  601MOL0     C82854   3.857   5.319   6.331 -0.1681 -0.4521 -0.2524
  601MOL0     C82855   3.553   5.076   6.548  0.8006 -0.0906  0.1251
  601MOL0     C82856   3.452   5.168   6.513  0.3344  0.1354  1.2618
  601MOL0     C82857   3.322   5.167   6.558 -0.2620 -0.1429  0.1274
  601MOL0     C82858   3.289   5.058   6.643 -0.2382 -0.1890 -0.0388
  601MOL0     O82859   3.165   5.034   6.682  1.0515 -0.2297 -0.4003
  601MOL0     C82860   3.084   5.127   6.752 -0.0932 -0.4733 -0.8991
  601MOL0     C82861   2.965   5.176   6.666 -0.1387 -0.2720  0.4376
  601MOL0     C82862   2.840   5.084   6.649 -0.7578 -0.5324 -0.3920
  601MOL0     C82863   2.777   5.034   6.786  0.6046 -0.6298 -0.0492
  601MOL0     C82864   2.637   5.005   6.765 -0.5973  0.4298 -1.1620
  601MOL0     C82865   2.522   4.975   6.767 -0.1548 -0.1149  0.0072
  601MOL0     C82866   3.383   4.957   6.667 -0.2671  0.2552 -0.9732
  601MOL0     C82867   3.515   4.958   6.621 -0.5291 -0.6133  0.4460
  601MOL0     C82868   3.614   4.842   6.628  0.0807  0.3547 -0.2047
  601MOL0     H82869   3.832   4.998   6.209  2.9811 -1.2903  1.3472
  601MOL0     H82870   4.064   5.046   6.170 -1.9980  0.1672 -1.6465
  601MOL0     H82871   4.265   5.135   6.097 -0.5269 -1.8193  1.6808
  601MOL0     H82872   4.312   5.113   6.264  1.7936  0.6483  0.4183
  601MOL0     H82873   4.516   5.177   6.178  3.0499  1.5940  0.8651
  601MOL0     H82874   4.451   5.321   6.087 -1.3759  1.4597  1.8320
  601MOL0     H82875   4.411   5.433   6.267  0.4522  0.9343  1.0005
  601MOL0     H82876   4.452   5.293   6.382 -0.6437  3.1994  1.6540
  601MOL0     H82877   4.666   5.307   6.354 -0.6749  1.0887  1.8591
  601MOL0     H82878   4.663   5.387   6.193 -0.4887  1.0375 -0.2420
  601MOL0     H82879   4.615   5.523   6.464 -1.8022  1.0532 -0.0191
  601MOL0     H82880   4.605   5.613   6.326  0.6483  0.5048  0.7635
  601MOL0     H82881   4.855   5.465   6.416 -2.5137 -1.4813  0.1456
  601MOL0     H82882   4.836   5.543   6.256  1.9416  0.7116  0.4512
  601MOL0     H82883   4.789   5.681   6.522  0.3274 -0.7380  0.3263
  601MOL0     H82884   4.785   5.762   6.359  3.1802  1.5809 -1.7363
  601MOL0     H82885   4.989   5.807   6.497  0.5502 -1.6259  0.8751
  601MOL0     H82886   5.030   5.636   6.470  1.6893  0.2359 -0.1320
  601MOL0     H82887   5.122   5.573   6.212 -2.3391 -0.4132 -3.6508
  601MOL0     H82888   5.181   5.839   5.905  1.5542  1.7940  2.2065
  601MOL0     H82889   5.144   5.672   5.907 -1.0167  1.5566 -1.1605
  601MOL0     H82890   5.404   5.764   6.063 -0.6180  3.0453 -1.1761
  601MOL0     H82891   5.360   5.606   5.999  3.9678  0.1079 -1.1810
  601MOL0     H82892   5.410   5.683   5.776  2.1137 -0.8129  0.0286
  601MOL0     H82893   5.405   5.849   5.825 -0.1260  0.8462  1.7242
  601MOL0     H82894   5.606   5.629   5.898 -0.4140 -0.2448  2.8642
  601MOL0     H82895   5.626   5.776   5.789  0.5596  1.0620  1.3431
  601MOL0     H82896   5.815   5.787   5.804 -0.8419  0.8382  0.2020
  601MOL0     H82897   6.168   5.761   5.796  0.0698  1.1679  1.4472
  601MOL0     H82898   6.080   5.900   5.729  2.2905 -1.0373 -2.6932
  601MOL0     H82899   6.007   5.744   5.711 -3.9041  3.1211 -0.4460
  601MOL0     H82900   6.337   6.022   6.411 -0.0871 -1.0801  2.8196
  601MOL0     H82901   6.533   5.997   6.525 -3.1593 -0.1983  1.0423
  601MOL0     H82902   6.782   6.017   6.483  4.1192  0.0082 -0.8015
  601MOL0     H82903   6.753   5.958   6.641  0.9805 -0.1917  1.4494
  601MOL0     H82904   6.960   5.842   6.655 -3.0654 -0.3182  0.8183
  601MOL0     H82905   6.997   5.853   6.483  1.6624  1.5414  0.7062
  601MOL0     H82906   6.965   6.086   6.669 -0.3362 -0.9796  0.2540
  601MOL0     H82907   7.017   6.091   6.498  0.8801 -0.1684  1.3456
  601MOL0     H82908   7.215   5.950   6.571 -2.5739 -2.3412 -0.6785
  601MOL0     H82909   7.143   5.935   6.723 -0.5993 -2.6616 -1.4050
  601MOL0     H82910   7.208   6.203   6.606  0.1125  0.2477  1.1422
  601MOL0     H82911   7.169   6.168   6.779  0.2567 -1.3396  1.1485
  601MOL0     H82912   7.409   6.054   6.625  1.1880 -0.8608  1.5757
  601MOL0     H82913   7.363   6.020   6.796  0.8614  1.9006  2.2705
  601MOL0     H82914   7.388   6.299   6.816  2.7510  1.2146 -0.0795
  601MOL0     H82915   7.482   6.286   6.674 -4.5131 -1.1769 -2.3797
  601MOL0     H82916   7.527   6.122   6.922 -1.2901 -0.4917 -0.9286
  601MOL0     H82917   7.600   6.282   6.899  0.1905 -1.4296  4.4428
  601MOL0     H82918   6.660   5.688   6.260 -1.7841 -1.9547 -0.7824
  601MOL0     H82919   6.444   5.694   6.157 -4.4289  0.7807  0.2362
  601MOL0     H82920   5.996   5.890   6.244 -0.7104 -0.5367  0.0627
  601MOL0     H82921   5.772   5.867   6.219 -3.1065 -0.7711 -1.8681
  601MOL0     H82922   4.016   5.451   6.320 -0.9727  0.5128 -2.8308
  601MOL0     H82923   3.807   5.395   6.390  1.2768 -0.6598  1.3315
  601MOL0     H82924   3.468   5.251   6.445 -2.1943 -0.7478 -0.5630
  601MOL0     H82925   3.258   5.253   6.540  1.0897  1.3760  2.1342
  601MOL0     H82926   3.053   5.083   6.848 -0.8689  0.7128 -0.5858
  601MOL0     H82927   3.150   5.209   6.781 -0.1847 -1.1998  1.6864
  601MOL0     H82928   3.012   5.189   6.569  1.4003  0.9307  1.3027
  601MOL0     H82929   2.938   5.267   6.720  2.4929 -0.2754  1.9041
  601MOL0     H82930   2.763   5.133   6.589 -3.0745 -1.4002  1.7050
  601MOL0     H82931   2.873   4.997   6.591  2.4653 -1.6344  2.7017
  601MOL0     H82932   2.773   5.125   6.847  0.3949  1.9880 -3.6724
  601MOL0     H82933   2.840   4.960   6.837 -1.0788 -2.8082 -0.9848
  601MOL0     H82934   2.419   4.943   6.761 -0.2629  0.2594 -0.1440
  601MOL0     H82935   3.352   4.866   6.718  0.3965  0.6168  0.0971
  601MOL0     H82936   3.695   4.872   6.696  1.0977  0.7446 -1.5339
  601MOL0     H82937   3.559   4.755   6.663 -0.1955  0.3613 -0.6069
  601MOL0     H82938   3.652   4.818   6.528  1.3496 -2.9309  0.9131
  602MOL0     O82939  11.268   6.576  10.190  0.6449  0.1622  0.2435
  602MOL0     C82940  11.215   6.469  10.205 -0.4940  0.1205 -0.3173
  602MOL0     O82941  11.284   6.351  10.211  0.3106  0.6457 -0.6449
  602MOL0     C82942  11.419   6.360  10.203 -0.8824  0.1248  1.0095
  602MOL0     C82943  11.492   6.403  10.312  0.7162 -0.2244  0.8802
  602MOL0     C82944  11.626   6.414  10.301  0.2848  0.4232  0.0162
  602MOL0     C82945  11.684   6.401  10.172  0.3049 -0.5005  0.2868
  602MOL0     O82946  11.816   6.436  10.167 -0.5189  0.0972 -0.1278
  602MOL0     C82947  11.871   6.468  10.045 -0.7143  0.1163  0.4960
  602MOL0     C82948  12.006   6.534  10.052  0.4999 -0.4784  0.4592
  602MOL0     C82949  12.100   6.442  10.129  1.0873 -0.3484 -0.0296
  602MOL0     C82950  12.237   6.512  10.131  0.3094  0.0025  0.7451
  602MOL0     C82951  12.331   6.439  10.234 -0.4694  0.4179  0.0685
  602MOL0     C82952  12.472   6.482  10.205 -0.6976 -0.0349  0.3904
  602MOL0     C82953  12.575   6.425  10.303  0.6265  0.0804 -0.3157
  602MOL0     C82954  12.712   6.475  10.274 -1.3516 -0.6393  0.3533
  602MOL0     N82955  12.774   6.413  10.157  0.2650 -0.2615  0.2334
  602MOL0     C82956  12.847   6.297  10.167  0.7524  0.7194 -0.2976
  602MOL0     C82957  12.882   6.278  10.041  1.3110  0.0288  0.6587
  602MOL0     C82958  12.958   6.156   9.989 -0.3284 -0.3746 -0.5641
  602MOL0     C82959  13.090   6.200   9.920 -0.7007 -0.0299 -0.3652
  602MOL0     C82960  13.153   6.079   9.856  0.2516  0.3551  0.6582
  602MOL0     C82961  13.298   6.114   9.817 -0.8258  0.2492 -0.5720
  602MOL0     O82962  13.342   6.006   9.734  0.6847  0.7253 -0.7931
  602MOL0     C82963  13.470   5.957   9.737 -0.8551 -1.1847  1.1495
  602MOL0     C82964  13.486   5.826   9.730  0.9019  0.0535 -0.0592
  602MOL0     C82965  13.613   5.768   9.711  0.4135  1.0137  0.5703
  602MOL0     C82966  13.623   5.617   9.696 -0.0646 -0.7572  0.2616
  602MOL0     C82967  13.725   5.849   9.707 -0.1520  0.0025 -0.5813
  602MOL0     C82968  13.868   5.795   9.699 -0.9150 -0.4079 -0.6053
  602MOL0     O82969  13.889   5.677   9.623  0.6811 -0.2825  0.7718
  602MOL0     C82970  14.015   5.628   9.632 -0.5210 -0.1503 -0.3908
  602MOL0     C82971  14.124   5.703   9.580  0.3637  0.0259 -0.1072
  602MOL0     C82972  14.244   5.631   9.569 -0.5734 -0.6769 -0.2167
  602MOL0     C82973  14.263   5.495   9.611 -0.3054 -0.0862 -0.2173
  602MOL0     O82974  14.388   5.444   9.581 -0.3516 -0.7875 -0.5356
  602MOL0     C82975  14.415   5.308   9.608  0.3151  0.2104  0.1006
  602MOL0     C82976  14.510   5.249   9.496 -0.6357  0.2635 -0.6591
  602MOL0     C82977  14.665   5.261   9.528  0.5857 -0.7095 -0.5580
  602MOL0     C82978  14.696   5.161   9.645 -0.3130 -0.3908  0.5846
  602MOL0     C82979  14.847   5.123   9.649  0.3016  0.0702 -0.4036
  602MOL0     C82980  14.951   5.226   9.673  0.9500  0.5193  0.5394
  602MOL0     C82981  15.091   5.159   9.675  0.2564 -0.1270  0.1918
  602MOL0     C82982  15.213   5.242   9.706 -0.1739 -0.0794  0.0871
  602MOL0    Cl82983  15.356   5.126   9.742 -0.2348  0.0107  0.1568
  602MOL0     C82984  14.151   5.425   9.667 -0.6849 -0.0453 -0.2441
  602MOL0     C82985  14.026   5.497   9.673  0.1600  0.0849  0.4632
  602MOL0     O82986  13.952   5.857   9.764 -0.0063  0.4195  0.1208
  602MOL0     C82987  13.714   5.986   9.725  1.0101 -0.4497  0.6074
  602MOL0     C82988  13.586   6.038   9.743  0.3553 -0.2983 -0.1415
  602MOL0     N82989  12.831   6.378   9.962  0.1637  0.1764 -0.3125
  602MOL0     N82990  12.766   6.463  10.030  0.1656  0.2674 -0.1067
  602MOL0     C82991  11.605   6.367  10.064  0.0526 -0.1045 -0.4622
  602MOL0     C82992  11.473   6.336  10.069  0.2300  0.0056 -0.4184
  602MOL0     C82993  11.069   6.461  10.225 -0.6581  0.3156 -0.2261
  602MOL0     C82994  11.019   6.345  10.282  0.6523  0.7770 -0.1880
  602MOL0     C82995  10.886   6.322  10.306  0.6774  0.5120 -1.0125
  602MOL0     C82996  10.791   6.416  10.261  0.3041 -0.7066  0.3634
  602MOL0     O82997  10.658   6.369  10.278  0.5885 -0.0025 -0.5325
  602MOL0     C82998  10.553   6.432  10.202 -0.8618  0.3527  0.0581
  602MOL0     C82999  10.439   6.335  10.226 -0.3827  0.0268 -0.2542
  602MOL0     C83000  10.454   6.205  10.132 -0.4549 -0.9639 -0.4109
  602MOL0     C83001  10.332   6.120  10.129 -0.4691 -0.4259 -0.2800
  602MOL0     C83002  10.324   6.020  10.020 -0.9765  0.0282  0.8961
  602MOL0     C83003  10.307   5.937   9.931 -0.6238 -0.6970 -0.2395
  602MOL0     C83004  10.834   6.523  10.187  0.1090  0.1579  0.2916
  602MOL0     C83005  10.971   6.547  10.170 -1.2723  0.5949  0.1189
  602MOL0     C83006  11.000   6.666  10.093  0.1850 -0.6972  0.0236
  602MOL0     H83007  11.436   6.429  10.402  0.5627 -1.2713  1.1008
  602MOL0     H83008  11.685   6.443  10.387 -1.3792  1.3759  0.8915
  602MOL0     H83009  11.806   6.543   9.998 -1.2436 -0.8583 -0.3750
  602MOL0     H83010  11.886   6.376   9.987  2.6707 -0.1234  1.5626
  602MOL0     H83011  12.062   6.543   9.959 -0.1123 -0.0674  0.1256
  602MOL0     H83012  11.983   6.633  10.092 -3.9608 -2.7458  4.4756
  602MOL0     H83013  12.055   6.447  10.229  0.9772  1.2930 -0.1430
  602MOL0     H83014  12.108   6.344  10.080  3.4293 -0.5399  0.6303
  602MOL0     H83015  12.278   6.511  10.029  0.9157 -0.3274  0.9871
  602MOL0     H83016  12.215   6.612  10.167 -2.0685 -0.6678  1.2785
  602MOL0     H83017  12.328   6.330  10.225 -1.9489  0.2151  2.1363
  602MOL0     H83018  12.302   6.449  10.339  0.0093 -1.0648  0.3725
  602MOL0     H83019  12.497   6.459  10.101 -0.2987  2.0524 -0.0081
  602MOL0     H83020  12.470   6.591  10.206 -2.3052 -0.0328  1.1481
  602MOL0     H83021  12.556   6.318  10.310  1.0526  0.0315  0.1363
  602MOL0     H83022  12.553   6.457  10.406 -1.2233  1.1598 -0.9911
  602MOL0     H83023  12.712   6.585  10.269  0.7316 -0.6514 -2.7135
  602MOL0     H83024  12.777   6.466  10.361 -2.5101  2.2245  1.6554
  602MOL0     H83025  12.868   6.225  10.245  0.8188  1.9357  0.8408
  602MOL0     H83026  12.895   6.098   9.921 -1.0038 -0.2134 -0.0951
  602MOL0     H83027  12.984   6.097  10.078  2.3717  2.3082  0.6212
  602MOL0     H83028  13.069   6.270   9.839  1.0604 -2.7480 -3.4215
  602MOL0     H83029  13.155   6.241   9.997 -1.2957  1.9689 -0.8635
  602MOL0     H83030  13.148   5.992   9.921  1.3455  0.3156  0.7134
  602MOL0     H83031  13.090   6.059   9.769  2.3371  0.8165 -1.0434
  602MOL0     H83032  13.300   6.196   9.745  0.5225  0.3968 -0.3786
  602MOL0     H83033  13.361   6.139   9.903 -3.6164  1.0556  1.3974
  602MOL0     H83034  13.398   5.762   9.731  1.5458 -0.9031 -1.4845
  602MOL0     H83035  13.524   5.571   9.702 -0.6551  0.5307  0.8807
  602MOL0     H83036  13.693   5.561   9.759 -0.2736 -0.7680  0.4886
  602MOL0     H83037  13.657   5.589   9.596 -1.0737 -1.3760  0.0762
  602MOL0     H83038  14.111   5.810   9.564 -2.9301  0.0540  1.9784
  602MOL0     H83039  14.326   5.695   9.539 -0.5556  0.2733  1.6904
  602MOL0     H83040  14.466   5.300   9.705 -0.7575 -3.7511  0.5039
  602MOL0     H83041  14.327   5.243   9.610  0.4785 -0.0099  0.2237
  602MOL0     H83042  14.485   5.145   9.474 -1.6988  0.5253 -0.7768
  602MOL0     H83043  14.492   5.301   9.401  1.4530 -0.1982 -1.3603
  602MOL0     H83044  14.692   5.359   9.569  1.6697 -1.1616 -0.1445
  602MOL0     H83045  14.732   5.241   9.444 -0.0422  0.0590 -1.2532
  602MOL0     H83046  14.634   5.072   9.631  1.2719 -1.4321 -0.1570
  602MOL0     H83047  14.668   5.203   9.742 -0.5717  0.7064  0.0487
  602MOL0     H83048  14.852   5.044   9.724  0.0070  2.2275  2.0286
  602MOL0     H83049  14.872   5.082   9.551  1.4148  0.9507 -0.5062
  602MOL0     H83050  14.936   5.263   9.775 -0.5640 -2.3843  1.4792
  602MOL0     H83051  14.949   5.311   9.604  3.3256  0.6329  0.5286
  602MOL0     H83052  15.111   5.120   9.575 -0.0948 -0.1471  0.1252
  602MOL0     H83053  15.084   5.076   9.745 -0.0437  0.0012  0.3170
  602MOL0     H83054  15.190   5.301   9.795  1.6208  0.5277  0.1872
  602MOL0     H83055  15.239   5.307   9.623  0.8898 -0.3718  0.1770
  602MOL0     H83056  14.170   5.325   9.704 -2.9276 -0.7263 -0.7207
  602MOL0     H83057  13.940   5.445   9.713 -0.0434 -0.3249 -0.4752
  602MOL0     H83058  13.797   6.056   9.713  0.2678  0.0819 -2.1754
  602MOL0     H83059  13.574   6.145   9.758 -1.9761 -0.7874  2.1421
  602MOL0     H83060  11.643   6.363   9.962 -2.6113 -1.0936 -1.4904
  602MOL0     H83061  11.407   6.299   9.991  2.6884 -2.2006 -1.5777
  602MOL0     H83062  11.080   6.262  10.317 -1.3121  0.4707  2.9283
  602MOL0     H83063  10.844   6.232  10.349  1.1248  0.0264 -1.5824
  602MOL0     H83064  10.529   6.530  10.245  1.6182  1.4558 -0.9173
  602MOL0     H83065  10.570   6.424  10.094 -0.0951 -0.2334  0.2151
  602MOL0     H83066  10.342   6.383  10.208 -0.0624  0.3091 -1.3447
  602MOL0     H83067  10.441   6.315  10.333  0.7894  1.4047  0.0225
  602MOL0     H83068  10.493   6.235  10.034  0.0946 -0.2215  0.0277
  602MOL0     H83069  10.533   6.138  10.167  0.5323  1.4080  2.3180
  602MOL0     H83070  10.246   6.187  10.128 -0.6164 -0.5128  1.8930
  602MOL0     H83071  10.325   6.064  10.223  0.6407  1.2603  0.8665
  602MOL0     H83072  10.276   5.866   9.857 -1.0380 -0.7738  0.0012
  602MOL0     H83073  10.764   6.594  10.144  0.6947 -0.2988 -1.5165
  602MOL0     H83074  11.053   6.635  10.002  1.7416  0.6500  0.4214
  602MOL0     H83075  10.917   6.732  10.067  0.4754  0.4368  1.8429
  602MOL0     H83076  11.058   6.734  10.156 -0.8661  1.7393 -1.5078
  603MOL0     O83077   2.358   7.052   5.702  0.4783 -0.1529 -0.1253
  603MOL0     C83078   2.381   7.166   5.755  0.7038 -0.3897  0.1506
  603MOL0     O83079   2.499   7.204   5.816 -0.2148 -0.5645 -0.3211
  603MOL0     C83080   2.608   7.133   5.849  0.2144 -0.0886 -0.4741
  603MOL0     C83081   2.655   7.029   5.774 -0.0934 -0.0174  0.0561
  603MOL0     C83082   2.766   6.958   5.807 -0.4266 -0.0329 -0.8424
  603MOL0     C83083   2.861   7.014   5.902  0.1529  0.5537 -0.1164
  603MOL0     O83084   2.978   6.944   5.904 -0.4559  0.9586 -0.4459
  603MOL0     C83085   3.061   6.984   6.021  0.3745  0.6997  1.2500
  603MOL0     C83086   3.179   6.878   6.024  1.3647 -0.5415 -1.4030
  603MOL0     C83087   3.239   6.847   5.886  0.5232 -0.1613 -0.0407
  603MOL0     C83088   3.365   6.763   5.891  0.2559  0.1453  0.4730
  603MOL0     C83089   3.488   6.846   5.928  0.3805  0.5993 -0.0097
  603MOL0     C83090   3.604   6.757   5.948 -0.1842  0.3193 -0.3052
  603MOL0     C83091   3.741   6.823   5.955  0.1238  0.3395 -0.5339
  603MOL0     C83092   3.743   6.908   6.081 -0.2121 -0.5845 -0.1031
  603MOL0     N83093   3.873   6.892   6.149 -0.0012  0.6024  0.3502
  603MOL0     C83094   3.989   6.937   6.096  0.6706  0.1364  0.0863
  603MOL0     C83095   4.079   6.929   6.199 -0.2632  0.1555 -0.2137
  603MOL0     C83096   4.212   6.999   6.202 -0.4632 -0.3184  0.4455
  603MOL0     C83097   4.315   6.952   6.092  0.6959  0.0055 -0.0440
  603MOL0     C83098   4.458   7.006   6.099  0.5858  0.2392  0.9191
  603MOL0     C83099   4.557   6.914   6.033 -0.4111 -0.2565 -0.3741
  603MOL0     O83100   4.514   6.905   5.895 -0.5635  0.6803  0.1794
  603MOL0     C83101   4.593   6.831   5.812  0.2744  0.0559 -0.5035
  603MOL0     C83102   4.540   6.811   5.684 -0.5044  0.2786 -0.5945
  603MOL0     C83103   4.610   6.771   5.572 -0.2041 -0.0934 -0.8978
  603MOL0     C83104   4.539   6.755   5.437  0.2701  0.2234  0.0882
  603MOL0     C83105   4.737   6.727   5.590 -0.4807  0.3928 -0.4743
  603MOL0     C83106   4.831   6.653   5.493  0.5983 -0.3645 -0.5433
  603MOL0     O83107   4.962   6.651   5.527  0.6102 -0.3868  0.5166
  603MOL0     C83108   5.052   6.565   5.467  0.0896 -0.2663  0.1874
  603MOL0     C83109   5.022   6.426   5.441  0.7709  0.4005 -0.0334
  603MOL0     C83110   5.119   6.345   5.388 -0.1163 -0.6916  0.4691
  603MOL0     C83111   5.251   6.395   5.368  0.8973 -0.2140  0.8957
  603MOL0     O83112   5.355   6.312   5.321  0.4917 -1.0431  0.0202
  603MOL0     C83113   5.344   6.167   5.333 -0.7579 -0.3605 -0.4458
  603MOL0     C83114   5.447   6.099   5.243  0.2263 -1.1633 -1.3206
  603MOL0     C83115   5.589   6.103   5.291  0.0038 -0.3285 -0.2535
  603MOL0     C83116   5.678   6.073   5.169  0.3987  0.2716  0.3971
  603MOL0     C83117   5.817   6.045   5.206  0.3803  0.0156 -0.2803
  603MOL0     C83118   5.900   6.022   5.084 -0.8578 -0.0781  0.4258
  603MOL0     C83119   6.052   6.031   5.105  0.9537 -0.1090 -0.8208
  603MOL0     C83120   6.086   5.903   5.173 -0.2850  0.0525 -0.2445
  603MOL0    Cl83121   6.253   5.862   5.127  0.4578  0.1779 -0.0555
  603MOL0     C83122   5.278   6.529   5.405  0.2347  0.3598 -0.4992
  603MOL0     C83123   5.184   6.616   5.456  0.1272 -0.0756 -0.3141
  603MOL0     O83124   4.782   6.587   5.399  0.3963  0.7987  0.1521
  603MOL0     C83125   4.789   6.735   5.720  0.0197  0.1445 -0.6332
  603MOL0     C83126   4.724   6.788   5.832 -0.0935  0.7738 -0.1292
  603MOL0     N83127   4.009   6.897   6.313 -0.9696  0.1457 -0.1640
  603MOL0     N83128   3.883   6.864   6.284 -1.5052  0.3682 -0.5679
  603MOL0     C83129   2.814   7.122   5.980 -0.0203 -0.0587 -0.3261
  603MOL0     C83130   2.688   7.185   5.944 -0.0732 -0.0227 -0.1977
  603MOL0     C83131   2.272   7.272   5.751 -0.7785 -0.0230  1.2339
  603MOL0     C83132   2.314   7.406   5.786  0.0548  0.1473  0.1649
  603MOL0     C83133   2.225   7.512   5.801 -0.5314 -0.4748  0.7528
  603MOL0     C83134   2.092   7.491   5.768  0.3832 -0.2469  0.6721
  603MOL0     O83135   1.997   7.594   5.803 -0.3547 -0.3306  1.0690
  603MOL0     C83136   1.861   7.594   5.760  0.4742  0.3589 -1.2404
  603MOL0     C83137   1.851   7.626   5.611 -0.8086 -0.2694 -0.9553
  603MOL0     C83138   1.927   7.756   5.577  0.3781  0.3414  0.1205
  603MOL0     C83139   1.918   7.786   5.429  0.1149  0.2782 -0.0952
  603MOL0     C83140   1.942   7.936   5.425  0.4753  1.1699 -0.1294
  603MOL0     C83141   1.968   8.053   5.423 -0.1134  0.3723 -0.0444
  603MOL0     C83142   2.059   7.365   5.724  0.2060  0.1798 -0.0767
  603MOL0     C83143   2.138   7.252   5.724 -0.0884  0.4677 -0.6413
  603MOL0     C83144   2.075   7.125   5.662  0.2597 -0.1805 -0.2808
  603MOL0     H83145   2.616   6.992   5.680  3.8551 -1.9314 -1.0332
  603MOL0     H83146   2.782   6.870   5.744 -0.3644  0.0710 -0.9724
  603MOL0     H83147   3.004   6.972   6.113 -2.0268 -0.7840 -0.3101
  603MOL0     H83148   3.095   7.087   6.008  1.5734  0.1936  0.0847
  603MOL0     H83149   3.257   6.907   6.095  0.2931  0.5386 -0.6401
  603MOL0     H83150   3.136   6.787   6.068 -0.8501  1.3323  0.5328
  603MOL0     H83151   3.161   6.800   5.825 -1.0437  1.8508  0.3084
  603MOL0     H83152   3.250   6.944   5.838  0.2834 -0.3084 -0.4012
  603MOL0     H83153   3.361   6.676   5.957  3.7542 -1.7292 -1.5442
  603MOL0     H83154   3.367   6.722   5.790  0.8198  0.2574  0.4380
  603MOL0     H83155   3.471   6.903   6.020 -1.8418 -1.1741  0.7650
  603MOL0     H83156   3.508   6.924   5.854 -2.4870  1.2264 -0.2210
  603MOL0     H83157   3.584   6.700   6.039 -0.1000  1.9916  0.8103
  603MOL0     H83158   3.602   6.691   5.861 -0.6709  1.0225 -0.8389
  603MOL0     H83159   3.753   6.879   5.862 -2.8522 -2.2917 -2.7602
  603MOL0     H83160   3.815   6.743   5.967 -1.0918 -0.7629 -0.0943
  603MOL0     H83161   3.722   7.014   6.066 -2.9099 -0.7773  1.6996
  603MOL0     H83162   3.662   6.871   6.145 -1.0044 -0.5791 -1.0721
  603MOL0     H83163   4.019   6.962   5.995 -0.9799 -1.8175 -0.9551
  603MOL0     H83164   4.261   6.972   6.296 -0.4152 -0.3932  0.3991
  603MOL0     H83165   4.192   7.106   6.195 -0.9589 -0.4958 -2.0339
  603MOL0     H83166   4.322   6.843   6.103  1.2914  0.0818  0.4497
  603MOL0     H83167   4.265   6.982   6.000 -3.5431 -1.4435  1.5732
  603MOL0     H83168   4.461   7.104   6.052 -0.8853 -0.2023 -0.1802
  603MOL0     H83169   4.482   7.017   6.205  0.5635 -1.9715  1.2047
  603MOL0     H83170   4.655   6.963   6.032  0.4814 -1.9404 -2.1898
  603MOL0     H83171   4.570   6.819   6.085  1.6735  0.5284  0.6291
  603MOL0     H83172   4.445   6.861   5.668 -0.6920  0.3562  0.6165
  603MOL0     H83173   4.500   6.654   5.420 -3.9811  1.7559 -0.4749
  603MOL0     H83174   4.612   6.782   5.361  0.7637  1.7787  1.0633
  603MOL0     H83175   4.448   6.815   5.425 -2.0801 -2.4998  2.6302
  603MOL0     H83176   4.925   6.382   5.461  1.0039 -0.7792 -1.3261
  603MOL0     H83177   5.093   6.241   5.370 -0.9452 -0.2904 -0.7180
  603MOL0     H83178   5.355   6.131   5.435  2.8223 -0.5252 -0.7473
  603MOL0     H83179   5.246   6.136   5.295 -0.6689  0.7440 -1.6252
  603MOL0     H83180   5.420   5.994   5.229 -3.3035 -0.4857 -0.3224
  603MOL0     H83181   5.432   6.154   5.149 -3.8030 -2.5000 -1.6294
  603MOL0     H83182   5.603   6.037   5.377  0.6389 -2.1773 -1.7167
  603MOL0     H83183   5.610   6.202   5.333 -4.7600  0.5422  0.7588
  603MOL0     H83184   5.677   6.166   5.112  5.1463 -0.9943 -2.2694
  603MOL0     H83185   5.635   5.994   5.107  2.0200 -0.7802  0.5741
  603MOL0     H83186   5.844   6.131   5.268 -0.6955 -0.6752  1.1789
  603MOL0     H83187   5.836   5.958   5.269 -0.0369  0.6572  0.7438
  603MOL0     H83188   5.877   6.101   5.012  0.9616  0.9160  0.8795
  603MOL0     H83189   5.871   5.929   5.034 -0.5661 -0.6560  1.3090
  603MOL0     H83190   6.095   6.119   5.153  2.3889 -0.3354 -1.6300
  603MOL0     H83191   6.111   6.031   5.013  1.1296  0.1229 -0.7093
  603MOL0     H83192   6.021   5.817   5.154  0.1632 -0.2651 -0.3745
  603MOL0     H83193   6.079   5.910   5.282 -1.4471 -2.8213 -0.0389
  603MOL0     H83194   5.381   6.562   5.393  1.5835 -3.4825 -0.8917
  603MOL0     H83195   5.201   6.721   5.478 -1.3483 -0.3888  2.9159
  603MOL0     H83196   4.892   6.709   5.744  0.8549  3.4829 -0.0081
  603MOL0     H83197   4.775   6.789   5.928  0.6145 -0.6316 -0.4490
  603MOL0     H83198   2.859   7.161   6.070  0.0553  0.5059 -0.6055
  603MOL0     H83199   2.653   7.268   6.004  1.2592  1.1981 -1.0280
  603MOL0     H83200   2.417   7.418   5.817 -0.8104  1.8496  2.6513
  603MOL0     H83201   2.263   7.606   5.841  4.0261 -1.1159 -1.4127
  603MOL0     H83202   1.818   7.493   5.766 -1.0945  1.0797  1.7762
  603MOL0     H83203   1.790   7.666   5.801  0.7619  0.8022 -1.5130
  603MOL0     H83204   1.743   7.633   5.598 -0.9026 -0.8036 -0.5189
  603MOL0     H83205   1.900   7.544   5.557  2.2309  0.1344  0.9190
  603MOL0     H83206   1.880   7.832   5.640  0.1718 -0.7637  1.3391
  603MOL0     H83207   2.028   7.751   5.618  0.7047 -1.4442 -0.7992
  603MOL0     H83208   1.822   7.758   5.385 -0.1524  1.2061 -0.1150
  603MOL0     H83209   1.991   7.729   5.370 -1.8459 -1.1278 -1.2964
  603MOL0     H83210   1.985   8.158   5.405  0.7077  0.1071 -0.9299
  603MOL0     H83211   1.958   7.350   5.686 -0.3479 -0.9713  1.6955
  603MOL0     H83212   2.096   7.037   5.723 -1.5287 -1.5898 -1.5686
  603MOL0     H83213   1.965   7.121   5.658  0.3195 -3.3804 -0.6661
  603MOL0     H83214   2.126   7.112   5.567  0.8285  1.4341 -0.2249
  604MOL0     O83215   2.388   1.659   6.757 -0.5661 -0.4344  0.2644
  604MOL0     C83216   2.275   1.700   6.747 -0.1588  0.4821 -0.7504
  604MOL0     O83217   2.223   1.776   6.643 -0.1337  0.1361  0.4257
  604MOL0     C83218   2.305   1.843   6.550 -0.0320 -0.6174 -0.6607
  604MOL0     C83219   2.435   1.813   6.513 -0.5227 -0.2189 -0.1431
  604MOL0     C83220   2.514   1.888   6.428 -0.1538  0.5259 -0.1807
  604MOL0     C83221   2.473   2.009   6.375  0.0798 -0.8551 -0.1089
  604MOL0     O83222   2.539   2.100   6.295  0.1189  0.3686  1.0801
  604MOL0     C83223   2.675   2.073   6.251  0.9013 -0.4731 -1.1665
  604MOL0     C83224   2.771   2.160   6.336 -0.6773  0.2102 -0.4916
  604MOL0     C83225   2.759   2.304   6.297  0.3782  0.3428 -0.2105
  604MOL0     C83226   2.774   2.330   6.147  0.7342  0.7203 -0.0863
  604MOL0     C83227   2.796   2.477   6.112  0.0024 -0.8631  1.1122
  604MOL0     C83228   2.844   2.483   5.960  0.0808  0.5443 -0.8050
  604MOL0     C83229   2.875   2.622   5.910 -0.0491  0.1061  0.8060
  604MOL0     C83230   2.958   2.608   5.776  0.5261  0.0796 -0.1206
  604MOL0     N83231   3.010   2.738   5.732  0.6601 -0.3543 -0.3289
  604MOL0     C83232   3.135   2.783   5.778  0.1153  1.2651  0.2996
  604MOL0     C83233   3.153   2.900   5.718 -0.2471 -0.4107 -0.4520
  604MOL0     C83234   3.261   3.005   5.746 -0.1954  0.3932 -0.8203
  604MOL0     C83235   3.295   3.081   5.615 -0.0033  0.3516 -0.2589
  604MOL0     C83236   3.381   3.203   5.635  0.3581 -0.4223 -0.1841
  604MOL0     C83237   3.525   3.192   5.678 -0.2688  0.3756 -1.2182
  604MOL0     O83238   3.614   3.287   5.616 -0.3602 -0.4372  0.3928
  604MOL0     C83239   3.749   3.269   5.615  0.6340  0.4573  0.0993
  604MOL0     C83240   3.820   3.177   5.689 -0.0710 -0.2622 -0.5669
  604MOL0     C83241   3.964   3.160   5.668  0.0826 -0.3717 -0.0631
  604MOL0     C83242   4.027   3.036   5.732  0.5810 -0.5460  0.3934
  604MOL0     C83243   4.041   3.240   5.580 -0.5386 -0.2268  0.4274
  604MOL0     C83244   4.187   3.250   5.561 -0.2856 -0.0175  0.5376
  604MOL0     O83245   4.233   3.356   5.485  0.3111 -0.1580  0.2544
  604MOL0     C83246   4.369   3.387   5.482 -0.1975  0.7258 -0.0836
  604MOL0     C83247   4.428   3.463   5.591 -0.3741 -0.0113 -0.9358
  604MOL0     C83248   4.564   3.484   5.603  0.5758 -0.3996  0.3965
  604MOL0     C83249   4.648   3.418   5.509  0.5585 -0.3941 -0.2878
  604MOL0     O83250   4.786   3.406   5.527 -0.2262  0.0118 -0.0404
  604MOL0     C83251   4.848   3.495   5.621  0.1399 -0.0343  0.6382
  604MOL0     C83252   5.000   3.483   5.595 -0.3931  0.0056 -0.2011
  604MOL0     C83253   5.047   3.332   5.566  0.4650 -0.7173 -0.2278
  604MOL0     C83254   5.196   3.310   5.601 -0.3383 -0.1289 -0.6766
  604MOL0     C83255   5.285   3.391   5.508 -0.5445 -0.1969 -0.3299
  604MOL0     C83256   5.430   3.393   5.556 -0.1478  1.5634 -0.2304
  604MOL0     C83257   5.527   3.412   5.433 -0.2988 -0.0918  0.6232
  604MOL0     C83258   5.676   3.424   5.468  0.3641  0.2395 -0.1209
  604MOL0    Cl83259   5.792   3.490   5.353  0.1506  0.1221  0.1032
  604MOL0     C83260   4.599   3.329   5.415 -0.3175  0.0842 -0.4688
  604MOL0     C83261   4.462   3.316   5.402  0.6951  0.4827  0.4357
  604MOL0     O83262   4.265   3.176   5.614  0.2012 -0.0319 -0.0850
  604MOL0     C83263   3.960   3.333   5.512 -0.2148  0.4540  0.6935
  604MOL0     C83264   3.820   3.343   5.524 -0.3698 -0.6180 -0.6925
  604MOL0     N83265   3.040   2.920   5.643 -0.1683  0.5897 -0.0474
  604MOL0     N83266   2.955   2.824   5.641 -0.2838 -0.1024 -0.6008
  604MOL0     C83267   2.346   2.039   6.400  0.1098 -0.8939  0.1013
  604MOL0     C83268   2.263   1.962   6.486 -0.0123 -0.1328 -0.7785
  604MOL0     C83269   2.179   1.653   6.854  1.0027 -0.0787 -0.0718
  604MOL0     C83270   2.215   1.671   6.993 -0.1496 -0.7325  0.8732
  604MOL0     C83271   2.126   1.628   7.095 -0.7117 -0.2983  0.0293
  604MOL0     C83272   2.000   1.577   7.058  0.0958 -0.2288  0.8142
  604MOL0     O83273   1.895   1.542   7.142 -0.5001 -0.1939  0.1993
  604MOL0     C83274   1.896   1.583   7.280  0.2626 -0.1308  0.3984
  604MOL0     C83275   1.770   1.525   7.353 -0.1660  0.2452 -0.6695
  604MOL0     C83276   1.637   1.537   7.279  1.2323 -0.4888  0.0902
  604MOL0     C83277   1.513   1.470   7.351  0.6391  0.2294 -0.0487
  604MOL0     C83278   1.524   1.323   7.361 -0.2482 -0.3504  0.5596
  604MOL0     C83279   1.529   1.202   7.372  0.6990  0.8471  0.4076
  604MOL0     C83280   1.967   1.561   6.923  0.6079  0.0498 -0.3759
  604MOL0     C83281   2.059   1.590   6.817  0.2752 -0.0911 -0.7186
  604MOL0     C83282   2.021   1.533   6.682  0.4691 -0.5837  0.3607
  604MOL0     H83283   2.481   1.721   6.549 -0.2146 -0.4521 -1.0996
  604MOL0     H83284   2.614   1.853   6.407 -1.5376 -3.0525 -1.5797
  604MOL0     H83285   2.680   2.083   6.142  1.6624  2.3819 -0.9338
  604MOL0     H83286   2.692   1.967   6.275 -1.7127 -0.0358  4.4037
  604MOL0     H83287   2.735   2.166   6.439 -0.2930  0.7691 -0.3812
  604MOL0     H83288   2.874   2.126   6.323 -0.4301  0.7393  0.0086
  604MOL0     H83289   2.665   2.354   6.324  0.2755  2.1113 -3.3773
  604MOL0     H83290   2.843   2.351   6.349 -1.0088  1.1893  1.3986
  604MOL0     H83291   2.854   2.269   6.102  0.7023 -0.6469  1.6320
  604MOL0     H83292   2.684   2.297   6.095  1.3775  0.5120 -1.1144
  604MOL0     H83293   2.869   2.535   6.169 -1.1405 -0.1628  1.9002
  604MOL0     H83294   2.698   2.522   6.123 -0.8199 -1.6892 -1.8978
  604MOL0     H83295   2.936   2.425   5.971 -1.5486 -2.6904 -2.7736
  604MOL0     H83296   2.790   2.420   5.889  1.2155 -1.1812 -0.1984
  604MOL0     H83297   2.930   2.678   5.986  2.7002  0.4729 -1.2872
  604MOL0     H83298   2.785   2.682   5.894  1.2199  2.0642  0.6008
  604MOL0     H83299   3.035   2.534   5.797 -0.5467 -0.9506  0.2451
  604MOL0     H83300   2.886   2.570   5.703  0.5023 -1.3744  0.6355
  604MOL0     H83301   3.204   2.742   5.851 -0.0671  2.0464  0.9265
  604MOL0     H83302   3.357   2.967   5.784  0.7821  0.1352 -3.3726
  604MOL0     H83303   3.219   3.070   5.823  0.8201 -0.9133  0.9023
  604MOL0     H83304   3.337   3.011   5.543  0.0981  1.3973 -1.2320
  604MOL0     H83305   3.202   3.108   5.565 -0.0365 -1.6493 -1.3972
  604MOL0     H83306   3.392   3.248   5.536 -3.7525 -0.5783 -0.9202
  604MOL0     H83307   3.340   3.280   5.701  0.8384 -0.0145 -0.3526
  604MOL0     H83308   3.530   3.195   5.787 -0.1672 -2.0682 -1.1014
  604MOL0     H83309   3.564   3.098   5.638 -1.9700 -0.3305 -1.3311
  604MOL0     H83310   3.769   3.122   5.767  1.6208 -2.5166 -0.9579
  604MOL0     H83311   4.117   3.066   5.785  0.0599  3.2161 -0.5592
  604MOL0     H83312   4.056   2.961   5.658 -2.1755  0.0931 -1.5304
  604MOL0     H83313   3.967   2.987   5.809  1.9245  1.3904  2.8004
  604MOL0     H83314   4.352   3.505   5.657 -1.8282 -0.0327 -2.5107
  604MOL0     H83315   4.611   3.544   5.680  2.8400  2.2086 -2.7121
  604MOL0     H83316   4.828   3.603   5.616  2.7712  0.6424  2.5010
  604MOL0     H83317   4.815   3.452   5.717 -0.7424  0.0153  0.3662
  604MOL0     H83318   5.011   3.546   5.507 -1.0121  2.1483  1.1843
  604MOL0     H83319   5.067   3.528   5.669  2.5568 -0.8356 -2.1422
  604MOL0     H83320   5.045   3.318   5.458  2.2529 -0.7435 -0.2834
  604MOL0     H83321   4.968   3.280   5.621 -0.8144  0.2260 -1.0953
  604MOL0     H83322   5.219   3.203   5.595 -0.7621 -0.2588 -0.0929
  604MOL0     H83323   5.207   3.338   5.706 -3.0914  3.2336 -1.0940
  604MOL0     H83324   5.280   3.343   5.410 -2.8305  0.1108 -0.4287
  604MOL0     H83325   5.247   3.491   5.486  1.7691  0.7604 -0.1943
  604MOL0     H83326   5.464   3.308   5.616  0.5756  2.3703  0.5182
  604MOL0     H83327   5.440   3.483   5.617  0.2469  0.1168  1.9540
  604MOL0     H83328   5.481   3.501   5.387 -0.2524  0.7038  2.0598
  604MOL0     H83329   5.518   3.336   5.355 -2.1803  1.3006 -0.6365
  604MOL0     H83330   5.710   3.325   5.502 -1.1280  0.4409  2.1827
  604MOL0     H83331   5.676   3.480   5.561 -0.0622  0.1455 -0.0608
  604MOL0     H83332   4.670   3.271   5.356  0.5813 -0.9680  1.5472
  604MOL0     H83333   4.416   3.243   5.336  0.7380  0.6174  0.2544
  604MOL0     H83334   4.004   3.414   5.454  0.0413 -1.1275 -1.4094
  604MOL0     H83335   3.778   3.429   5.474  1.6171  1.7332  1.3918
  604MOL0     H83336   2.310   2.135   6.365  3.7376  0.0992 -1.4199
  604MOL0     H83337   2.163   1.993   6.512  0.0261  0.9241 -1.8132
  604MOL0     H83338   2.311   1.720   7.010  1.2487 -2.5954 -1.0864
  604MOL0     H83339   2.146   1.630   7.201  1.6140 -2.3456 -0.2628
  604MOL0     H83340   1.990   1.546   7.322  0.7580 -1.7635 -1.9508
  604MOL0     H83341   1.886   1.692   7.282  1.1737 -0.0173 -0.3095
  604MOL0     H83342   1.771   1.579   7.448 -0.6738 -0.0428 -0.4996
  604MOL0     H83343   1.783   1.419   7.375 -0.8372  0.5842  1.5385
  604MOL0     H83344   1.607   1.642   7.271  0.9095 -0.6633 -1.3495
  604MOL0     H83345   1.642   1.497   7.178  1.8274 -0.5999  0.1629
  604MOL0     H83346   1.416   1.484   7.302 -0.3799  0.5498  1.9917
  604MOL0     H83347   1.498   1.515   7.449 -1.6738 -0.8433  0.1455
  604MOL0     H83348   1.548   1.099   7.396  0.3171  0.5873 -0.3561
  604MOL0     H83349   1.866   1.530   6.900  0.6030 -1.6939  1.7129
  604MOL0     H83350   2.109   1.478   6.646 -0.0046 -1.3896  0.3969
  604MOL0     H83351   1.931   1.470   6.686 -0.7340  1.1112  1.6428
  604MOL0     H83352   1.998   1.620   6.620  0.5626  0.0639  1.2225
  605MOL0     O83353   7.458  11.137   8.526 -0.2954 -0.0886  0.3034
  605MOL0     C83354   7.363  11.157   8.601 -0.0538  0.2163 -0.5415
  605MOL0     O83355   7.373  11.201   8.731  0.1134  0.1702 -0.5546
  605MOL0     C83356   7.489  11.225   8.783 -0.2500 -0.0251 -0.6464
  605MOL0     C83357   7.570  11.324   8.732 -0.4817 -0.1447 -0.9188
  605MOL0     C83358   7.695  11.353   8.797  0.2903  0.3107  0.6094
  605MOL0     C83359   7.741  11.280   8.912  0.5366  0.3403  0.2428
  605MOL0     O83360   7.873  11.295   8.948  0.9024 -0.3221  0.1349
  605MOL0     C83361   7.894  11.259   9.090  0.2429  0.3460  0.3282
  605MOL0     C83362   8.024  11.321   9.143 -0.3225  0.0682  0.1702
  605MOL0     C83363   8.142  11.320   9.052  0.3636 -0.0563 -0.0004
  605MOL0     C83364   8.249  11.410   9.115 -0.5485  0.1031  0.7000
  605MOL0     C83365   8.388  11.336   9.115 -0.0359  0.1246  0.5088
  605MOL0     C83366   8.506  11.437   9.134 -0.1467 -0.5034  0.0995
  605MOL0     C83367   8.531  11.456   9.283 -0.5721  0.0086  0.9975
  605MOL0     C83368   8.670  11.524   9.302 -0.4323 -0.4080  0.1754
  605MOL0     N83369   8.788  11.441   9.303 -0.3890 -0.9460  0.6058
  605MOL0     C83370   8.912  11.496   9.326  1.2785 -0.0665 -0.2620
  605MOL0     C83371   9.003  11.395   9.321 -0.1213  0.4618 -0.3337
  605MOL0     C83372   9.149  11.414   9.320 -0.0870  0.7279  0.0140
  605MOL0     C83373   9.217  11.309   9.413  0.0879  0.3815 -0.1241
  605MOL0     C83374   9.369  11.345   9.426 -1.0916  0.3157 -0.0528
  605MOL0     C83375   9.445  11.234   9.502 -0.7408 -0.0993  0.2713
  605MOL0     O83376   9.578  11.288   9.532 -0.2893 -0.0792  0.1846
  605MOL0     C83377   9.667  11.210   9.601  0.0076 -0.3196 -0.3970
  605MOL0     C83378   9.793  11.266   9.619  1.1037 -0.3758 -0.6060
  605MOL0     C83379   9.889  11.196   9.694  0.7023  0.2698 -0.1690
  605MOL0     C83380  10.022  11.257   9.739 -0.5635  0.2345  0.2943
  605MOL0     C83381   9.862  11.062   9.738 -0.0814  0.0314  0.6793
  605MOL0     C83382   9.952  10.979   9.809  0.1388  0.3671  0.2531
  605MOL0     O83383   9.941  10.847   9.778 -0.7540 -0.3148  0.2921
  605MOL0     C83384  10.038  10.753   9.806  0.1361 -0.3971 -0.5357
  605MOL0     C83385  10.168  10.776   9.841  0.2640  0.3914  0.8213
  605MOL0     C83386  10.264  10.678   9.869  0.3331  1.0507 -0.8685
  605MOL0     C83387  10.221  10.540   9.866 -0.3132 -1.0667  0.1945
  605MOL0     O83388  10.295  10.436   9.909  0.5034  0.4885  0.1168
  605MOL0     C83389  10.432  10.465   9.945 -0.1159  1.0691  0.3917
  605MOL0     C83390  10.494  10.327   9.984  0.0919 -0.4835  0.1798
  605MOL0     C83391  10.638  10.354  10.014 -0.7055  0.0322 -0.2239
  605MOL0     C83392  10.716  10.227  10.057  0.0938  0.6131  0.1465
  605MOL0     C83393  10.860  10.262  10.081 -0.7674 -0.6218 -0.0388
  605MOL0     C83394  10.950  10.143  10.092 -0.8961 -0.2883  0.2745
  605MOL0     C83395  11.082  10.198  10.139 -0.5468 -0.2508 -0.4266
  605MOL0     C83396  11.183  10.234  10.027 -0.0222 -0.3089 -0.2703
  605MOL0    Cl83397  11.343  10.288  10.092  0.0270  0.0747  0.2928
  605MOL0     C83398  10.089  10.522   9.817 -1.0341 -0.0544 -0.0165
  605MOL0     C83399   9.999  10.620   9.792  0.4679  0.3135  0.6805
  605MOL0     O83400  10.023  11.024   9.897  0.0340  0.0429  0.8127
  605MOL0     C83401   9.734  11.012   9.713  0.6903 -0.9143 -0.0996
  605MOL0     C83402   9.641  11.084   9.644  0.1140 -0.1480 -0.3501
  605MOL0     N83403   8.927  11.278   9.299 -0.0968 -0.3929  0.7746
  605MOL0     N83404   8.800  11.311   9.290  0.2760  0.4577 -0.4198
  605MOL0     C83405   7.646  11.194   8.966  0.4464  0.7223  0.2309
  605MOL0     C83406   7.520  11.165   8.906 -0.2518 -0.2102  0.2270
  605MOL0     C83407   7.214  11.126   8.569 -0.2042  0.3388  0.6269
  605MOL0     C83408   7.123  11.111   8.678  0.4452 -0.2160 -0.4229
  605MOL0     C83409   6.992  11.091   8.654  0.1894 -0.9095  0.0950
  605MOL0     C83410   6.943  11.084   8.517  0.3022  0.3440  0.2890
  605MOL0     O83411   6.809  11.077   8.507 -0.1562 -0.1179  0.1824
  605MOL0     C83412   6.749  11.184   8.451 -0.1511 -0.5269 -0.1633
  605MOL0     C83413   6.617  11.198   8.533  0.3983  0.4638  0.6424
  605MOL0     C83414   6.514  11.281   8.461 -0.0420 -0.1351  0.2123
  605MOL0     C83415   6.386  11.263   8.541  0.3466  0.3179 -0.2432
  605MOL0     C83416   6.274  11.343   8.479 -0.4766  0.4962  0.2258
  605MOL0     C83417   6.178  11.396   8.429 -0.1771  0.2515  0.0779
  605MOL0     C83418   7.027  11.103   8.412 -0.1909  0.0080 -0.3972
  605MOL0     C83419   7.173  11.124   8.435  0.5960  0.4336 -0.6425
  605MOL0     C83420   7.268  11.139   8.309  0.3608 -0.0953 -0.1636
  605MOL0     H83421   7.535  11.370   8.640  0.9232  2.0742 -0.4200
  605MOL0     H83422   7.761  11.425   8.749 -0.2076  0.4058  0.0557
  605MOL0     H83423   7.897  11.150   9.094 -2.5368  0.0982 -1.4881
  605MOL0     H83424   7.818  11.299   9.158  0.4603 -1.7367  1.8989
  605MOL0     H83425   8.004  11.422   9.179 -0.4226 -0.2644  1.0775
  605MOL0     H83426   8.057  11.266   9.231 -2.1722  2.2941  2.4036
  605MOL0     H83427   8.173  11.217   9.033 -1.9524 -0.5467 -1.6280
  605MOL0     H83428   8.121  11.361   8.953 -4.8140 -1.0009  0.4087
  605MOL0     H83429   8.252  11.503   9.057  1.6165  0.3865  1.1665
  605MOL0     H83430   8.234  11.444   9.218 -2.1397  2.4963 -0.2219
  605MOL0     H83431   8.413  11.282   9.024  2.6572  1.3735  0.3939
  605MOL0     H83432   8.380  11.261   9.194 -4.4551  1.6062  1.7769
  605MOL0     H83433   8.602  11.399   9.098  1.1271  0.0783  2.6561
  605MOL0     H83434   8.473  11.532   9.089  0.3683 -0.8437 -1.0327
  605MOL0     H83435   8.528  11.360   9.336 -1.5127 -2.6418 -3.4015
  605MOL0     H83436   8.450  11.513   9.330  1.2598  2.6867  1.1429
  605MOL0     H83437   8.682  11.604   9.229  1.9767 -0.1287  0.7801
  605MOL0     H83438   8.666  11.568   9.402  0.3066  1.6714 -0.6526
  605MOL0     H83439   8.935  11.599   9.350 -0.8136  0.3946 -0.0797
  605MOL0     H83440   9.177  11.516   9.351  0.6188  0.1948  1.2184
  605MOL0     H83441   9.187  11.391   9.220 -0.1324 -3.1901  0.7606
  605MOL0     H83442   9.161  11.313   9.506 -1.0241 -3.2620 -0.4745
  605MOL0     H83443   9.194  11.214   9.363 -0.1065  1.1708 -1.6129
  605MOL0     H83444   9.409  11.347   9.324  2.2408  3.2716  1.1309
  605MOL0     H83445   9.381  11.444   9.470  0.3180 -0.0752  0.4871
  605MOL0     H83446   9.398  11.214   9.599 -1.8556  1.5461  0.1068
  605MOL0     H83447   9.460  11.145   9.441  0.3768  0.2039  0.0765
  605MOL0     H83448   9.821  11.357   9.566  3.9773 -1.1789 -0.6227
  605MOL0     H83449  10.105  11.186   9.731  0.4195  0.9130  3.1027
  605MOL0     H83450  10.034  11.295   9.841 -0.4377  2.4955 -0.5003
  605MOL0     H83451  10.055  11.342   9.678  0.2115 -0.6892 -0.5981
  605MOL0     H83452  10.193  10.880   9.861 -1.8767  0.9032  1.0875
  605MOL0     H83453  10.360  10.716   9.900 -0.7824  3.5363 -0.2169
  605MOL0     H83454  10.479  10.501   9.853  2.8215 -0.9727  0.9788
  605MOL0     H83455  10.443  10.540  10.024 -1.2362  1.0074  0.6280
  605MOL0     H83456  10.447  10.297  10.079  0.4688  0.8597  0.8154
  605MOL0     H83457  10.478  10.252   9.906 -1.1606  0.2899 -0.3421
  605MOL0     H83458  10.642  10.423  10.099  2.2022 -1.3534  0.9090
  605MOL0     H83459  10.681  10.391   9.921  0.8410 -0.6789  0.1827
  605MOL0     H83460  10.710  10.155   9.976  0.9689  2.3112 -1.5032
  605MOL0     H83461  10.677  10.179  10.147 -1.0453  0.9519 -0.1508
  605MOL0     H83462  10.897  10.320   9.996  2.2513 -2.7231 -0.3205
  605MOL0     H83463  10.867  10.314  10.177  0.1802 -0.3580 -0.2382
  605MOL0     H83464  10.962  10.094   9.995 -3.1698 -1.5103  0.5242
  605MOL0     H83465  10.912  10.067  10.161  2.0549 -1.8329  0.3756
  605MOL0     H83466  11.130  10.117  10.194  0.9834 -0.3507 -1.8403
  605MOL0     H83467  11.073  10.284  10.206  0.9212  1.4750 -2.3112
  605MOL0     H83468  11.148  10.331   9.990  2.8543  1.8253  2.1179
  605MOL0     H83469  11.181  10.155   9.951 -0.4792  0.7031 -1.3403
  605MOL0     H83470  10.046  10.424   9.798  0.2697 -0.9234  1.2909
  605MOL0     H83471   9.898  10.604   9.755  0.7653  0.9514 -0.4717
  605MOL0     H83472   9.717  10.907   9.732  1.6175 -1.4107 -1.7368
  605MOL0     H83473   9.543  11.039   9.630 -0.4911  1.3822 -1.3604
  605MOL0     H83474   7.677  11.123   9.043  2.0944 -0.2377 -1.2292
  605MOL0     H83475   7.438  11.104   8.941 -1.3346  1.0648 -0.0104
  605MOL0     H83476   7.146  11.113   8.784 -2.5204 -0.2515  0.3076
  605MOL0     H83477   6.930  11.092   8.743  1.2300  1.1763  0.8822
  605MOL0     H83478   6.814  11.272   8.453 -2.7326  1.5356 -0.9192
  605MOL0     H83479   6.727  11.168   8.345 -1.2337 -0.5149  0.0466
  605MOL0     H83480   6.630  11.233   8.635  1.1242 -0.3051  0.8192
  605MOL0     H83481   6.581  11.095   8.542  0.7003  0.3505  0.5816
  605MOL0     H83482   6.548  11.385   8.453 -1.3335  0.1747 -2.1231
  605MOL0     H83483   6.498  11.243   8.360  1.7639 -3.7807  1.1544
  605MOL0     H83484   6.397  11.303   8.642  0.5292  1.3756 -0.6711
  605MOL0     H83485   6.365  11.155   8.540 -0.5436  0.4837 -1.0974
  605MOL0     H83486   6.101  11.460   8.389  0.8036  0.5790 -1.3410
  605MOL0     H83487   6.986  11.094   8.312  1.1795 -0.4182 -0.9551
  605MOL0     H83488   7.214  11.166   8.218  2.2844 -1.1520 -1.7002
  605MOL0     H83489   7.334  11.221   8.338  0.1478  0.1602 -0.3897
  605MOL0     H83490   7.316  11.046   8.281 -2.4572 -0.7613 -3.4250
  606MOL0     O83491   8.246   9.073   4.746  0.4454  0.5931  0.3806
  606MOL0     C83492   8.169   9.134   4.675 -0.7928  0.2041  0.6345
  606MOL0     O83493   8.203   9.203   4.561  0.2313 -0.0730  0.2705
  606MOL0     C83494   8.335   9.210   4.515  0.2508 -0.0040  0.0889
  606MOL0     C83495   8.424   9.104   4.508 -0.9018  0.0101  0.1920
  606MOL0     C83496   8.544   9.126   4.432  0.5780  0.7043  0.5300
  606MOL0     C83497   8.581   9.242   4.369  0.0305  0.2309 -0.6325
  606MOL0     O83498   8.698   9.233   4.297 -0.0270 -0.3091  0.5571
  606MOL0     C83499   8.744   9.357   4.235 -0.4350 -0.2216 -0.2673
  606MOL0     C83500   8.896   9.328   4.208 -1.0361 -0.0004  0.3447
  606MOL0     C83501   8.926   9.202   4.129  0.5040  0.4406  0.9198
  606MOL0     C83502   9.075   9.200   4.065  0.2907  0.1448  0.0689
  606MOL0     C83503   9.087   9.286   3.934  1.2787  0.3871  0.0985
  606MOL0     C83504   9.238   9.306   3.894  0.0212 -0.2641  0.1428
  606MOL0     C83505   9.303   9.183   3.829 -0.1091 -0.1019 -0.3572
  606MOL0     C83506   9.432   9.198   3.750 -0.6110  0.0830 -0.8772
  606MOL0     N83507   9.550   9.222   3.833  0.3285 -0.5344 -0.2556
  606MOL0     C83508   9.587   9.346   3.883 -0.0667  0.1695  0.3664
  606MOL0     C83509   9.707   9.337   3.953 -0.1455 -0.0032  0.6721
  606MOL0     C83510   9.807   9.448   3.985  0.1265 -0.4231  0.0044
  606MOL0     C83511   9.940   9.461   3.897  1.0019 -0.1046 -0.4433
  606MOL0     C83512   9.996   9.604   3.926 -0.3155  0.3102  0.3669
  606MOL0     C83513  10.038   9.629   4.071 -0.0522  0.9404  1.3782
  606MOL0     O83514  10.140   9.530   4.111  0.1471 -0.3418  0.1210
  606MOL0     C83515  10.272   9.556   4.077 -0.2366  0.1337 -0.4676
  606MOL0     C83516  10.320   9.669   4.006 -0.3794 -0.6404  0.2074
  606MOL0     C83517  10.457   9.690   3.987 -0.1448  0.1861  0.3868
  606MOL0     C83518  10.504   9.820   3.912  1.1506 -0.7664 -0.9271
  606MOL0     C83519  10.553   9.598   4.032  0.3980  0.2484  0.5209
  606MOL0     C83520  10.692   9.620   4.009 -0.4575  0.3999 -0.2803
  606MOL0     O83521  10.762   9.633   4.118 -0.4743  0.9668 -0.9066
  606MOL0     C83522  10.878   9.698   4.104 -0.0684 -0.5245  0.1560
  606MOL0     C83523  10.891   9.830   4.154  0.1496 -0.0107  0.5570
  606MOL0     C83524  11.014   9.895   4.140  0.0950 -0.8829  0.2071
  606MOL0     C83525  11.120   9.844   4.069 -0.1675 -0.7360 -0.3987
  606MOL0     O83526  11.226   9.929   4.066  0.2817 -0.1106  0.4783
  606MOL0     C83527  11.357   9.873   4.030  0.1554  0.1761  0.6020
  606MOL0     C83528  11.369   9.843   3.875 -0.2228 -0.1204 -0.1344
  606MOL0     C83529  11.478   9.928   3.800  0.6133  0.3990  0.3646
  606MOL0     C83530  11.619   9.892   3.853  0.4303  0.0108  0.4774
  606MOL0     C83531  11.731   9.951   3.770  0.7459 -1.0349 -0.5646
  606MOL0     C83532  11.766   9.906   3.633  0.3917  0.1393  0.2593
  606MOL0     C83533  11.843   9.779   3.639  0.3869 -0.1229  0.8473
  606MOL0     C83534  11.887   9.747   3.496 -0.4469 -0.7024  0.6954
  606MOL0    Cl83535  11.755   9.768   3.374 -0.0662 -0.0978 -0.0927
  606MOL0     C83536  11.103   9.717   4.015 -0.5332 -0.9852 -0.3044
  606MOL0     C83537  10.987   9.640   4.048 -0.2116 -0.8521  0.0346
  606MOL0     O83538  10.735   9.617   3.895 -0.8931  0.0395 -0.1415
  606MOL0     C83539  10.501   9.479   4.102 -0.4626  0.1017  0.0937
  606MOL0     C83540  10.369   9.460   4.122 -0.0996  0.5987  0.3333
  606MOL0     N83541   9.732   9.200   3.946 -0.7325 -0.4603  0.3779
  606MOL0     N83542   9.640   9.130   3.877 -0.7602 -0.1171 -0.2741
  606MOL0     C83543   8.488   9.348   4.380 -0.2920 -0.1396  0.4029
  606MOL0     C83544   8.363   9.325   4.448 -0.4414 -0.7343  0.0253
  606MOL0     C83545   8.026   9.117   4.690 -0.3107 -0.3330 -0.5833
  606MOL0     C83546   7.945   9.119   4.578 -0.1416  0.9754 -0.1128
  606MOL0     C83547   7.805   9.115   4.593 -0.1212  0.2936  0.7021
  606MOL0     C83548   7.741   9.087   4.712 -0.4000 -0.3823 -0.2005
  606MOL0     O83549   7.608   9.073   4.732  0.6105 -0.5296 -1.0201
  606MOL0     C83550   7.522   9.126   4.633 -0.3481 -0.4990  0.1822
  606MOL0     C83551   7.377   9.115   4.673  1.0909 -0.6606 -0.5562
  606MOL0     C83552   7.276   9.136   4.559  0.1580  0.2320  0.7867
  606MOL0     C83553   7.131   9.127   4.601 -0.0874 -0.8603  0.8339
  606MOL0     C83554   7.086   8.995   4.613  0.1313  0.8137  0.6108
  606MOL0     C83555   7.065   8.873   4.612 -0.3871  0.7212 -0.0947
  606MOL0     C83556   7.828   9.076   4.822  0.2184 -0.3019 -0.1710
  606MOL0     C83557   7.965   9.102   4.819 -0.8896  0.0178  0.3517
  606MOL0     C83558   8.040   9.095   4.946 -0.4890  0.5265 -0.4024
  606MOL0     H83559   8.403   9.006   4.550 -2.2404  0.4142  0.5279
  606MOL0     H83560   8.619   9.048   4.422 -1.3624 -1.0889 -1.0320
  606MOL0     H83561   8.733   9.442   4.303 -2.1789 -1.2857  0.8582
  606MOL0     H83562   8.689   9.369   4.142  3.1528 -0.8790 -2.6921
  606MOL0     H83563   8.939   9.418   4.162  2.8064 -0.2010  3.1041
  606MOL0     H83564   8.948   9.322   4.304 -3.6557  1.0534  1.9498
  606MOL0     H83565   8.921   9.119   4.200 -2.3210  0.6638  1.0934
  606MOL0     H83566   8.853   9.187   4.049  2.3546  2.5980 -1.3838
  606MOL0     H83567   9.142   9.250   4.136  0.4875  0.4550 -0.3297
  606MOL0     H83568   9.112   9.099   4.049 -0.8990 -0.3058  0.0976
  606MOL0     H83569   9.035   9.381   3.951 -2.6892 -1.9179  2.1241
  606MOL0     H83570   9.032   9.233   3.856  1.0954  2.4093 -1.2247
  606MOL0     H83571   9.236   9.397   3.833 -2.1132 -0.0147  0.5026
  606MOL0     H83572   9.293   9.330   3.985 -1.0164  1.4797  0.3598
  606MOL0     H83573   9.245   9.142   3.746  0.0831  0.0276 -0.5566
  606MOL0     H83574   9.313   9.110   3.909 -1.1710  1.2540  1.0672
  606MOL0     H83575   9.458   9.106   3.697 -0.0214  0.4288 -1.2052
  606MOL0     H83576   9.429   9.280   3.677  1.6335  0.0034 -1.1330
  606MOL0     H83577   9.530   9.432   3.849 -0.6344 -0.8058 -1.2678
  606MOL0     H83578   9.839   9.441   4.089  1.8982  0.4828 -0.4482
  606MOL0     H83579   9.743   9.537   3.982 -1.6063 -1.6182 -0.2276
  606MOL0     H83580  10.009   9.378   3.917 -2.4361 -3.0380  0.3555
  606MOL0     H83581   9.898   9.459   3.797  1.0353 -1.2279 -0.4524
  606MOL0     H83582  10.086   9.616   3.864  0.7125  2.7764  2.1717
  606MOL0     H83583   9.923   9.683   3.905  0.2460  1.0438  1.1109
  606MOL0     H83584  10.086   9.726   4.086  2.4542 -0.0379  0.2689
  606MOL0     H83585   9.949   9.621   4.135  1.4141 -0.0444  3.4193
  606MOL0     H83586  10.261   9.747   3.957  3.1814  1.3265 -1.3110
  606MOL0     H83587  10.602   9.839   3.956 -0.5647  2.7670  1.8705
  606MOL0     H83588  10.427   9.897   3.923 -0.0905 -2.0510 -0.3762
  606MOL0     H83589  10.518   9.800   3.805  1.9945 -0.1528 -0.9412
  606MOL0     H83590  10.804   9.883   4.191  0.7303  0.5973  1.0744
  606MOL0     H83591  11.025   9.998   4.172  1.4731 -0.4427 -1.5582
  606MOL0     H83592  11.428   9.951   4.058 -0.6338  1.8448 -1.6930
  606MOL0     H83593  11.383   9.780   4.080 -0.0889 -0.0025  0.4000
  606MOL0     H83594  11.404   9.740   3.863 -0.4259 -0.5519  2.4987
  606MOL0     H83595  11.271   9.844   3.826  0.2707  2.1119 -1.2324
  606MOL0     H83596  11.453  10.033   3.821 -3.2129 -0.5376  1.1823
  606MOL0     H83597  11.473   9.914   3.692 -2.2375  2.9053  0.0324
  606MOL0     H83598  11.627   9.783   3.842 -5.0049 -0.5447 -1.1343
  606MOL0     H83599  11.628   9.906   3.961  0.6583 -0.6598  0.5529
  606MOL0     H83600  11.714  10.059   3.770 -0.1802 -1.1741 -1.0073
  606MOL0     H83601  11.821   9.949   3.832 -0.4042 -1.6878  1.1859
  606MOL0     H83602  11.831   9.980   3.585  2.0039 -1.1497  0.4003
  606MOL0     H83603  11.674   9.892   3.575  0.3005 -0.3425  0.5219
  606MOL0     H83604  11.782   9.691   3.663  2.6820 -2.3189 -0.9539
  606MOL0     H83605  11.934   9.789   3.698  0.2357  0.8900  0.9163
  606MOL0     H83606  11.934   9.649   3.483 -3.2958 -1.8114 -2.6149
  606MOL0     H83607  11.968   9.815   3.467 -0.1442 -1.1591  0.4610
  606MOL0     H83608  11.180   9.659   3.965  0.7280 -0.2072  0.6597
  606MOL0     H83609  10.989   9.536   4.019  1.7129 -0.6480 -0.7527
  606MOL0     H83610  10.570   9.399   4.126 -0.4777 -0.0975 -0.5054
  606MOL0     H83611  10.348   9.366   4.170  2.4256  0.7599  1.9435
  606MOL0     H83612   8.522   9.441   4.336  0.0170 -0.8569 -0.9321
  606MOL0     H83613   8.296   9.406   4.476  1.4023 -0.1222  3.1239
  606MOL0     H83614   7.979   9.120   4.475  0.9863 -0.2510  0.2124
  606MOL0     H83615   7.760   9.128   4.495  0.5669 -0.1104  0.3244
  606MOL0     H83616   7.550   9.224   4.593 -0.3797 -1.2308 -1.7414
  606MOL0     H83617   7.547   9.060   4.549 -0.6983  0.3651 -0.6147
  606MOL0     H83618   7.354   9.192   4.747 -0.1993  0.7403 -2.3233
  606MOL0     H83619   7.358   9.014   4.711  0.1470 -0.0219  0.7309
  606MOL0     H83620   7.292   9.230   4.505  0.5606 -0.6028 -0.6047
  606MOL0     H83621   7.282   9.066   4.475 -1.6808  1.1667 -0.1912
  606MOL0     H83622   7.075   9.175   4.520  2.3623 -2.5385 -2.1044
  606MOL0     H83623   7.115   9.180   4.695 -1.2012  1.5615 -0.6105
  606MOL0     H83624   7.056   8.768   4.592  2.5894 -0.0665  2.0602
  606MOL0     H83625   7.789   9.069   4.923  0.9246 -0.3128  0.1138
  606MOL0     H83626   8.096   9.002   4.960  1.1310  1.6040  0.6012
  606MOL0     H83627   8.117   9.173   4.946 -0.9268  0.9543  0.1425
  606MOL0     H83628   7.970   9.106   5.028 -0.1668 -1.6614  0.2315
  607MOL0     O83629   1.460   0.759   2.396  1.1390 -0.2608 -0.1240
  607MOL0     C83630   1.414   0.662   2.339 -1.0134  0.1628  0.3564
  607MOL0     O83631   1.467   0.601   2.231 -0.4250 -0.0674 -0.3249
  607MOL0     C83632   1.558   0.665   2.156 -0.1603 -0.1116  0.0690
  607MOL0     C83633   1.547   0.803   2.112 -1.1873  0.3291  0.1699
  607MOL0     C83634   1.650   0.852   2.026 -0.2942 -0.0675 -0.6829
  607MOL0     C83635   1.752   0.774   1.977 -0.2036  0.3825 -0.5355
  607MOL0     O83636   1.858   0.800   1.888  0.5135 -0.2175 -0.2120
  607MOL0     C83637   1.863   0.938   1.853  0.3847  0.0552 -0.2044
  607MOL0     C83638   1.980   0.970   1.751  0.2199 -0.5592 -0.6944
  607MOL0     C83639   2.115   0.893   1.778 -0.3937 -0.7074 -0.1126
  607MOL0     C83640   2.162   0.917   1.925 -0.1927 -0.9824 -0.2950
  607MOL0     C83641   2.301   0.854   1.956 -0.3315  0.4966  0.8777
  607MOL0     C83642   2.363   0.931   2.065  0.2954 -0.4559  0.7290
  607MOL0     C83643   2.487   0.856   2.120  0.6576 -0.3724 -0.1718
  607MOL0     C83644   2.571   0.958   2.203  0.2951  0.2630 -0.2083
  607MOL0     N83645   2.613   1.080   2.134  0.7892 -0.0742 -0.3631
  607MOL0     C83646   2.684   1.090   2.018  0.7189  0.1326  0.2265
  607MOL0     C83647   2.712   1.212   1.995 -0.7828 -0.7764 -0.7253
  607MOL0     C83648   2.771   1.273   1.867 -0.4083  0.6533  0.8193
  607MOL0     C83649   2.909   1.340   1.905  0.8015  0.0858  0.1376
  607MOL0     C83650   2.961   1.391   1.773  0.7529  1.0490 -0.3659
  607MOL0     C83651   3.110   1.437   1.764  0.3127 -0.4827 -0.1923
  607MOL0     O83652   3.200   1.330   1.783 -0.0226  0.0715  0.0011
  607MOL0     C83653   3.329   1.365   1.825 -0.5693 -1.0567  0.4515
  607MOL0     C83654   3.418   1.265   1.862  0.4733 -1.0137  0.1248
  607MOL0     C83655   3.556   1.283   1.899  0.8740  0.4640  0.3105
  607MOL0     C83656   3.644   1.160   1.929  0.6713 -2.1079 -0.2771
  607MOL0     C83657   3.603   1.417   1.902 -0.5346  0.6589  0.2602
  607MOL0     C83658   3.747   1.447   1.929  0.2549 -1.3929  1.2361
  607MOL0     O83659   3.837   1.356   1.888  0.5342 -0.0272  0.1362
  607MOL0     C83660   3.968   1.367   1.926  0.0273 -0.3540  0.4826
  607MOL0     C83661   4.055   1.314   1.832  0.1273  0.3434  0.2349
  607MOL0     C83662   4.192   1.329   1.854  0.2045 -0.0955 -0.2422
  607MOL0     C83663   4.240   1.392   1.968  0.1357  0.0009  1.0291
  607MOL0     O83664   4.372   1.399   2.003 -0.4444 -0.7920 -0.3555
  607MOL0     C83665   4.469   1.389   1.898  0.3948  0.2095 -0.6857
  607MOL0     C83666   4.477   1.521   1.805 -0.2759 -1.1449  0.2887
  607MOL0     C83667   4.472   1.651   1.887  0.3334  0.6988 -0.5006
  607MOL0     C83668   4.520   1.771   1.802 -0.7653  0.3552 -0.0529
  607MOL0     C83669   4.467   1.907   1.857 -0.2266  0.3931  0.1716
  607MOL0     C83670   4.525   2.025   1.777  0.3933 -1.0327 -1.0287
  607MOL0     C83671   4.466   2.157   1.825  0.7603 -0.3142  0.0525
  607MOL0     C83672   4.492   2.278   1.729  0.0873 -0.3186 -0.3300
  607MOL0    Cl83673   4.348   2.283   1.616 -0.4350 -0.1680 -0.2579
  607MOL0     C83674   4.152   1.452   2.058 -0.1159  0.6356 -0.0745
  607MOL0     C83675   4.014   1.426   2.039  0.2261 -0.0076  0.2652
  607MOL0     O83676   3.759   1.542   2.008  0.5185  0.8271  0.3840
  607MOL0     C83677   3.508   1.527   1.867 -0.0840  0.0642  0.9430
  607MOL0     C83678   3.381   1.503   1.827  0.1651  0.1889  0.7134
  607MOL0     N83679   2.656   1.289   2.097 -0.1809  0.2372 -0.5102
  607MOL0     N83680   2.595   1.208   2.176 -0.8431  0.2938 -0.2119
  607MOL0     C83681   1.740   0.636   1.999  0.4144  0.2407 -0.6897
  607MOL0     C83682   1.645   0.576   2.089 -0.1457  0.1917 -0.2815
  607MOL0     C83683   1.284   0.599   2.390  0.5163  0.0319 -0.5908
  607MOL0     C83684   1.226   0.506   2.304 -0.5469  0.2602  0.7573
  607MOL0     C83685   1.113   0.436   2.341 -0.5394  0.2710 -0.7613
  607MOL0     C83686   1.065   0.448   2.477 -0.1709 -0.1319 -0.2090
  607MOL0     O83687   0.964   0.360   2.514 -0.0948  0.1757 -0.4421
  607MOL0     C83688   0.906   0.360   2.642 -0.0795 -0.4986 -0.6169
  607MOL0     C83689   0.778   0.284   2.644 -0.3314  0.1371  0.6087
  607MOL0     C83690   0.792   0.133   2.625 -0.2122 -0.4344 -0.9615
  607MOL0     C83691   0.807   0.053   2.755  0.3281 -0.3964  0.1299
  607MOL0     C83692   0.834  -0.081   2.726 -0.4327 -0.0302  0.3814
  607MOL0     C83693   0.862  -0.197   2.705 -0.3041  0.7183 -0.0070
  607MOL0     C83694   1.116   0.545   2.561 -0.1260 -0.1023 -0.4056
  607MOL0     C83695   1.223   0.625   2.516 -0.3975 -0.9062  0.8477
  607MOL0     C83696   1.271   0.741   2.601 -0.8688 -0.6616  0.4301
  607MOL0     H83697   1.455   0.855   2.139 -1.9533 -0.5919 -0.6223
  607MOL0     H83698   1.638   0.957   2.005  1.8798  0.8043  1.9069
  607MOL0     H83699   1.884   0.994   1.944 -1.0602  0.0076  0.1785
  607MOL0     H83700   1.767   0.977   1.819  1.0523  0.8135 -1.2764
  607MOL0     H83701   1.944   0.935   1.654 -1.6489  1.8500 -0.9679
  607MOL0     H83702   1.995   1.077   1.738 -1.0785 -0.4652 -1.6498
  607MOL0     H83703   2.112   0.785   1.767 -2.0507 -0.8530  1.2683
  607MOL0     H83704   2.194   0.939   1.719 -1.6562  5.2417  2.0346
  607MOL0     H83705   2.159   1.022   1.954 -0.9818 -1.4394  1.4070
  607MOL0     H83706   2.094   0.871   1.997  0.4855  1.6338  2.1632
  607MOL0     H83707   2.364   0.855   1.867 -1.2636  0.8011  0.2072
  607MOL0     H83708   2.286   0.748   1.978  0.4504  0.5452  1.7000
  607MOL0     H83709   2.396   1.030   2.033  1.1950 -0.8278  0.4778
  607MOL0     H83710   2.292   0.945   2.148  0.2613  1.0341  0.4797
  607MOL0     H83711   2.542   0.820   2.033 -0.6284 -1.1192 -0.7035
  607MOL0     H83712   2.462   0.770   2.183 -1.8755  1.0101  0.8277
  607MOL0     H83713   2.527   0.983   2.301  0.2469 -0.4745 -0.0317
  607MOL0     H83714   2.669   0.914   2.220  0.9282  0.2894 -3.3535
  607MOL0     H83715   2.702   1.006   1.951 -1.1362  1.1626 -1.6853
  607MOL0     H83716   2.701   1.349   1.830 -0.0966  0.8948  0.7209
  607MOL0     H83717   2.785   1.197   1.789 -1.4942 -0.2565  1.4932
  607MOL0     H83718   2.900   1.422   1.976  0.0307  0.4314 -0.3492
  607MOL0     H83719   2.968   1.252   1.932 -2.6339 -2.9205 -1.2331
  607MOL0     H83720   2.946   1.310   1.701 -3.0120 -0.2483  1.5772
  607MOL0     H83721   2.897   1.477   1.749  0.9118  1.8391  1.8152
  607MOL0     H83722   3.118   1.483   1.664 -1.1482 -1.1784 -0.6621
  607MOL0     H83723   3.126   1.502   1.850  2.0587 -0.4706 -0.4934
  607MOL0     H83724   3.385   1.162   1.857 -1.3695 -0.6463  3.0358
  607MOL0     H83725   3.702   1.132   1.840  2.4562  0.4275 -0.0060
  607MOL0     H83726   3.584   1.083   1.979 -1.3992  0.9755  2.3826
  607MOL0     H83727   3.713   1.189   2.007 -0.8513 -0.8446  0.6600
  607MOL0     H83728   4.018   1.272   1.738 -1.8090 -2.4769  2.0991
  607MOL0     H83729   4.258   1.284   1.780  0.0502  0.6493 -0.8552
  607MOL0     H83730   4.561   1.382   1.956  1.7397  1.0297 -2.6417
  607MOL0     H83731   4.454   1.302   1.835 -1.0037 -1.9200  2.3255
  607MOL0     H83732   4.568   1.513   1.745  1.2993 -3.7230  2.7782
  607MOL0     H83733   4.385   1.524   1.746 -0.7660  4.1648  0.7846
  607MOL0     H83734   4.543   1.628   1.967 -0.6927 -2.0973 -0.2830
  607MOL0     H83735   4.376   1.658   1.938  0.6530 -1.5503  0.5505
  607MOL0     H83736   4.488   1.757   1.698  1.6428 -1.7311 -0.6307
  607MOL0     H83737   4.629   1.766   1.792 -0.5390  2.5101  0.8211
  607MOL0     H83738   4.358   1.906   1.867 -0.3582  1.1485 -1.0218
  607MOL0     H83739   4.520   1.898   1.952  0.3251 -0.4131 -0.1965
  607MOL0     H83740   4.496   2.011   1.672 -2.0197  1.5021 -0.8019
  607MOL0     H83741   4.635   2.019   1.782  0.3696 -2.1112 -1.4930
  607MOL0     H83742   4.509   2.177   1.923 -1.5563 -1.3888  1.3829
  607MOL0     H83743   4.357   2.152   1.833  0.6325  0.1950 -1.2342
  607MOL0     H83744   4.584   2.248   1.677 -2.0594 -2.8394 -3.0062
  607MOL0     H83745   4.507   2.373   1.781  0.3069 -1.7018  2.3379
  607MOL0     H83746   4.197   1.493   2.148 -0.9159  0.4061  0.4326
  607MOL0     H83747   3.945   1.461   2.115 -0.9895 -1.7083  0.0197
  607MOL0     H83748   3.544   1.630   1.866 -1.7088  0.6672 -0.5551
  607MOL0     H83749   3.315   1.586   1.801 -2.2551 -2.3156 -1.7831
  607MOL0     H83750   1.804   0.560   1.955  2.6781  1.0133  1.0474
  607MOL0     H83751   1.640   0.471   2.112  2.1358 -0.3393 -1.8410
  607MOL0     H83752   1.264   0.479   2.206 -1.8344  2.6594 -0.4986
  607MOL0     H83753   1.068   0.362   2.276 -0.3690  1.0121 -1.7560
  607MOL0     H83754   0.971   0.326   2.723  0.3528  0.2902 -0.6285
  607MOL0     H83755   0.884   0.466   2.657  0.7006 -0.3767 -0.2801
  607MOL0     H83756   0.719   0.326   2.562  0.6417  0.7361  0.2136
  607MOL0     H83757   0.728   0.296   2.741 -2.3428  2.1469 -0.5669
  607MOL0     H83758   0.700   0.092   2.582 -0.1208 -2.5494  0.7081
  607MOL0     H83759   0.874   0.109   2.557  1.0205  1.4726 -0.2490
  607MOL0     H83760   0.718   0.078   2.814 -1.7665  2.4846 -3.7502
  607MOL0     H83761   0.895   0.075   2.818  0.4849 -1.4952  0.3106
  607MOL0     H83762   0.899  -0.296   2.689  3.4812  1.7615  1.2235
  607MOL0     H83763   1.078   0.566   2.660  1.8851  2.0841  0.0042
  607MOL0     H83764   1.282   0.832   2.542 -0.8459 -0.4642  0.7357
  607MOL0     H83765   1.202   0.763   2.683  0.0263  0.3938  0.9265
  607MOL0     H83766   1.366   0.717   2.651 -0.1257  2.5379  0.7701
  608MOL0     O83767   0.469   3.122   7.468  0.2655 -0.1922 -0.0807
  608MOL0     C83768   0.363   3.063   7.473 -0.6259  0.0543  0.5829
  608MOL0     O83769   0.322   2.979   7.372 -0.3143  0.2135 -0.6328
  608MOL0     C83770   0.379   2.966   7.249  0.6138  0.5222  0.1066
  608MOL0     C83771   0.415   3.074   7.178 -1.1931 -1.0263 -0.0104
  608MOL0     C83772   0.486   3.067   7.057  0.6575  0.5048 -0.7467
  608MOL0     C83773   0.526   2.936   7.018 -0.3278 -0.1553  0.1223
  608MOL0     O83774   0.593   2.924   6.896 -0.9188  0.8097 -0.4332
  608MOL0     C83775   0.594   3.016   6.777  0.7254 -0.0704 -0.4297
  608MOL0     C83776   0.517   2.956   6.652  0.0740  0.5283 -0.2929
  608MOL0     C83777   0.590   2.846   6.579  0.1146 -0.5929  0.3225
  608MOL0     C83778   0.730   2.896   6.530  0.5738 -1.0380  0.3698
  608MOL0     C83779   0.815   2.786   6.449  0.4507  0.0054 -0.2039
  608MOL0     C83780   0.943   2.861   6.384  0.0293  1.2504 -0.0735
  608MOL0     C83781   1.032   2.752   6.323  0.0539  0.2035  0.4670
  608MOL0     C83782   1.151   2.816   6.247  1.1111 -1.4340 -1.1723
  608MOL0     N83783   1.116   2.836   6.102 -0.2608  0.0119 -0.0622
  608MOL0     C83784   1.088   2.963   6.048  0.2450  0.4977  0.2319
  608MOL0     C83785   1.074   2.944   5.915 -0.5851  0.0247  0.0240
  608MOL0     C83786   1.025   3.045   5.821 -0.2112 -0.3657 -0.0461
  608MOL0     C83787   1.133   3.117   5.745  1.0088 -0.3133 -0.3256
  608MOL0     C83788   1.070   3.225   5.652  0.0200  0.8449 -0.8479
  608MOL0     C83789   1.176   3.287   5.554 -0.8735 -0.4825 -0.0780
  608MOL0     O83790   1.263   3.369   5.639  0.0704  0.5736  0.8570
  608MOL0     C83791   1.350   3.459   5.582  0.0031 -0.5664 -0.3124
  608MOL0     C83792   1.366   3.480   5.445  0.6132  0.5424 -0.5522
  608MOL0     C83793   1.456   3.565   5.388  0.0000 -0.1604 -0.7230
  608MOL0     C83794   1.450   3.586   5.237 -0.0364  0.2406  0.0396
  608MOL0     C83795   1.533   3.656   5.472  0.6900  0.2177 -0.2142
  608MOL0     C83796   1.609   3.777   5.435 -0.4349  0.0583  0.4132
  608MOL0     O83797   1.693   3.832   5.528  0.7900 -0.0384 -0.1618
  608MOL0     C83798   1.764   3.948   5.504 -0.1798 -0.5690  1.1470
  608MOL0     C83799   1.815   4.008   5.619  0.1199 -0.3301  0.4627
  608MOL0     C83800   1.889   4.125   5.603 -0.3495  0.6079  0.0477
  608MOL0     C83801   1.920   4.185   5.484 -0.0244 -0.3413  0.1995
  608MOL0     O83802   1.982   4.304   5.483 -0.1178  0.2665  0.6010
  608MOL0     C83803   2.098   4.307   5.388  0.4111 -1.0022  0.9556
  608MOL0     C83804   2.211   4.374   5.462 -0.6361  0.6003 -0.8449
  608MOL0     C83805   2.266   4.498   5.400  0.1511 -0.5451  0.6303
  608MOL0     C83806   2.405   4.530   5.450 -0.3000 -0.2937 -0.7839
  608MOL0     C83807   2.459   4.663   5.406 -0.0995 -0.2086  0.1225
  608MOL0     C83808   2.605   4.648   5.420 -1.2131 -0.7158  0.4501
  608MOL0     C83809   2.669   4.793   5.410 -0.0715  0.2245  0.6525
  608MOL0     C83810   2.816   4.786   5.458  0.0942 -0.0921 -0.2835
  608MOL0    Cl83811   2.918   4.652   5.404 -0.2357 -0.2797  0.1188
  608MOL0     C83812   1.876   4.125   5.363  0.7973  0.2025  0.8446
  608MOL0     C83813   1.800   4.001   5.374  0.6843 -0.7483 -0.6251
  608MOL0     O83814   1.587   3.828   5.328  0.4722  0.3373 -0.0535
  608MOL0     C83815   1.522   3.622   5.611  0.3837  0.4827 -0.1839
  608MOL0     C83816   1.435   3.528   5.662 -0.0725  0.6264  0.0369
  608MOL0     N83817   1.109   2.813   5.886 -0.2134  0.5341  1.1019
  608MOL0     N83818   1.143   2.752   5.994 -0.1731  0.3042  0.3893
  608MOL0     C83819   0.506   2.826   7.101  0.2757  0.3896  0.6882
  608MOL0     C83820   0.420   2.837   7.209  0.0986 -0.1119  0.0976
  608MOL0     C83821   0.283   3.054   7.603 -0.3708  0.9643  0.9064
  608MOL0     C83822   0.177   2.965   7.605 -0.6176  0.5597  0.0966
  608MOL0     C83823   0.100   2.944   7.725 -0.4885  0.0899  0.4494
  608MOL0     C83824   0.138   3.005   7.847  0.3445  0.4524 -0.1470
  608MOL0     O83825   0.065   2.981   7.963  0.8785  0.3724 -0.2914
  608MOL0     C83826  -0.019   2.863   7.963 -0.2966 -0.1670  0.2523
  608MOL0     C83827  -0.040   2.833   8.107 -0.1170  0.8760  0.8530
  608MOL0     C83828  -0.124   2.707   8.125 -0.2515 -1.2831  0.3932
  608MOL0     C83829  -0.156   2.668   8.275 -0.1797 -0.7615 -0.7506
  608MOL0     C83830  -0.072   2.575   8.342  0.1718 -0.1740  0.0206
  608MOL0     C83831  -0.006   2.495   8.407 -1.6765 -0.1828  0.0918
  608MOL0     C83832   0.250   3.081   7.839 -1.0669 -0.6993 -0.6727
  608MOL0     C83833   0.327   3.108   7.725 -0.2297  0.0679  1.2871
  608MOL0     C83834   0.450   3.195   7.733  0.6376  0.5503  0.9963
  608MOL0     H83835   0.395   3.174   7.214 -1.8247 -1.1510 -0.0063
  608MOL0     H83836   0.506   3.152   6.993  2.5064  0.1233 -0.7300
  608MOL0     H83837   0.695   3.050   6.751  0.5556  0.7043 -0.1117
  608MOL0     H83838   0.533   3.103   6.801  1.2206 -0.1747  1.2984
  608MOL0     H83839   0.418   2.918   6.677  0.3667 -2.0956 -2.6135
  608MOL0     H83840   0.505   3.037   6.580  1.5828  2.5247  1.5620
  608MOL0     H83841   0.607   2.765   6.651 -0.3163  0.4045  1.6009
  608MOL0     H83842   0.521   2.818   6.499  0.5795  1.0659 -0.6907
  608MOL0     H83843   0.712   2.982   6.466 -2.5776 -1.1781  0.9326
  608MOL0     H83844   0.791   2.942   6.609 -0.3828  2.0704 -0.5754
  608MOL0     H83845   0.747   2.745   6.374 -0.8789 -2.6791  2.2641
  608MOL0     H83846   0.840   2.715   6.529  0.4239  1.4061  1.1043
  608MOL0     H83847   0.902   2.934   6.314 -2.0972  1.7418  1.5928
  608MOL0     H83848   0.998   2.912   6.463  0.7315 -0.7959  0.8255
  608MOL0     H83849   0.966   2.687   6.264 -0.0155 -0.7506  1.5377
  608MOL0     H83850   1.074   2.695   6.407 -2.2880 -1.1497  0.8340
  608MOL0     H83851   1.175   2.915   6.288 -0.6745 -0.9693 -1.1678
  608MOL0     H83852   1.238   2.750   6.250  2.4962  0.3509  0.2346
  608MOL0     H83853   1.084   3.050   6.112  0.8063 -1.1372  2.6376
  608MOL0     H83854   0.963   3.111   5.884  1.6996  0.9178  0.5795
  608MOL0     H83855   0.951   2.998   5.755  0.5103 -1.3552 -0.1531
  608MOL0     H83856   1.189   3.161   5.827 -1.5996  0.7901  0.9946
  608MOL0     H83857   1.193   3.042   5.693  0.3603 -2.1394  1.4364
  608MOL0     H83858   0.997   3.178   5.586 -0.8470  1.8696 -0.6415
  608MOL0     H83859   1.028   3.303   5.717  0.2678 -1.2428  2.0534
  608MOL0     H83860   1.240   3.207   5.514  0.8639  0.1750  1.2697
  608MOL0     H83861   1.122   3.343   5.477  3.1108  1.1937 -1.9832
  608MOL0     H83862   1.306   3.421   5.376 -0.0358  1.2702 -0.6249
  608MOL0     H83863   1.434   3.488   5.192 -1.1924 -1.1380  3.1347
  608MOL0     H83864   1.531   3.626   5.176  1.4118 -1.1511  0.9858
  608MOL0     H83865   1.360   3.648   5.224  1.3925  3.7045  4.2055
  608MOL0     H83866   1.794   3.977   5.721  2.0317 -0.6472  0.7982
  608MOL0     H83867   1.902   4.185   5.692 -1.9156 -1.4407  1.7801
  608MOL0     H83868   2.141   4.209   5.366  1.1874 -0.4055 -0.2604
  608MOL0     H83869   2.066   4.368   5.303 -2.0520  1.2548  3.2905
  608MOL0     H83870   2.182   4.403   5.563 -2.6453 -1.4740 -0.7358
  608MOL0     H83871   2.287   4.297   5.477  0.4330  2.0689  2.0613
  608MOL0     H83872   2.205   4.587   5.419  1.8228  0.9318 -0.5836
  608MOL0     H83873   2.278   4.487   5.292 -0.3309 -1.9948  0.7086
  608MOL0     H83874   2.476   4.452   5.420 -0.2195 -0.2503 -0.7069
  608MOL0     H83875   2.401   4.530   5.559 -0.5759 -0.5376 -0.7904
  608MOL0     H83876   2.433   4.689   5.303  2.3180 -0.8277 -0.7190
  608MOL0     H83877   2.411   4.740   5.466 -0.3638 -1.0042  0.9601
  608MOL0     H83878   2.642   4.591   5.334 -0.1607 -0.5828  0.8005
  608MOL0     H83879   2.632   4.605   5.516 -0.8824 -1.6641 -0.0601
  608MOL0     H83880   2.614   4.854   5.483  0.2061  3.3039 -1.5294
  608MOL0     H83881   2.659   4.824   5.306 -1.4853 -0.9108  0.4033
  608MOL0     H83882   2.802   4.758   5.563 -3.8559  0.7161 -0.4340
  608MOL0     H83883   2.866   4.883   5.448 -0.0971  0.3638  2.3705
  608MOL0     H83884   1.901   4.185   5.276 -0.4404  4.0296  2.8562
  608MOL0     H83885   1.778   3.950   5.281  1.9525 -0.3723 -1.1427
  608MOL0     H83886   1.575   3.673   5.690 -0.4301  0.4793  0.3681
  608MOL0     H83887   1.433   3.504   5.768  3.5517  2.1633  0.6093
  608MOL0     H83888   0.539   2.727   7.071 -0.0884  0.0157  1.4941
  608MOL0     H83889   0.396   2.746   7.264  1.3917  0.2953  1.3781
  608MOL0     H83890   0.129   2.932   7.513 -0.9169 -0.7593  0.6962
  608MOL0     H83891   0.013   2.880   7.713 -1.5329  1.0807  2.3677
  608MOL0     H83892  -0.113   2.892   7.915 -0.0796  3.2577  1.6390
  608MOL0     H83893   0.029   2.781   7.909  2.7438  1.1012  0.7870
  608MOL0     H83894  -0.096   2.911   8.159  0.0022  0.8581  1.0089
  608MOL0     H83895   0.060   2.823   8.151 -0.1796  0.1333  0.8318
  608MOL0     H83896  -0.217   2.723   8.070 -0.0419  1.3004  0.6796
  608MOL0     H83897  -0.069   2.621   8.086  0.3282 -0.7784  0.0723
  608MOL0     H83898  -0.258   2.627   8.275 -1.2724  1.6234  1.4943
  608MOL0     H83899  -0.166   2.756   8.339  1.0437  0.9422 -2.8047
  608MOL0     H83900   0.055   2.423   8.458 -2.4262 -0.9215 -0.0370
  608MOL0     H83901   0.280   3.139   7.926 -0.4586  2.2825 -2.7050
  608MOL0     H83902   0.462   3.249   7.828  0.8841  2.0970  0.1131
  608MOL0     H83903   0.542   3.137   7.726  1.5560  2.1169 -0.6683
  608MOL0     H83904   0.446   3.264   7.648 -3.7725 -0.4815  0.1006
  609MOL0     O83905   3.672   0.064   2.327  0.0199  0.5301 -0.3321
  609MOL0     C83906   3.592  -0.029   2.363 -0.2776  0.0764 -0.0556
  609MOL0     O83907   3.453  -0.015   2.388 -0.3040  0.3281  0.1048
  609MOL0     C83908   3.377   0.098   2.352 -0.9676  0.1121  0.9902
  609MOL0     C83909   3.426   0.224   2.291  0.1638 -0.7714 -0.3555
  609MOL0     C83910   3.345   0.336   2.285  0.1322 -0.1017  0.4050
  609MOL0     C83911   3.218   0.327   2.331  0.9138 -0.3204  1.4085
  609MOL0     O83912   3.131   0.428   2.339  0.2234 -0.1344  0.4035
  609MOL0     C83913   3.114   0.525   2.234 -0.2403  0.2251  0.1692
  609MOL0     C83914   3.045   0.466   2.108  0.2786 -0.7670  0.4839
  609MOL0     C83915   3.015   0.563   1.985  0.2190 -0.2651  0.2527
  609MOL0     C83916   2.927   0.673   2.042 -0.0827 -0.7310  0.3587
  609MOL0     C83917   2.881   0.768   1.929 -0.7993  0.9019 -0.2981
  609MOL0     C83918   2.978   0.889   1.914 -0.5483  0.2984  0.5744
  609MOL0     C83919   2.989   0.938   1.770  0.1496 -0.2773 -0.0496
  609MOL0     C83920   3.105   1.040   1.737 -0.0559  0.5769 -0.3194
  609MOL0     N83921   3.087   1.101   1.603  0.9143  0.3066  0.7623
  609MOL0     C83922   3.186   1.159   1.528  0.4809  0.2775 -0.5744
  609MOL0     C83923   3.121   1.196   1.410  0.6373  0.5245 -1.0506
  609MOL0     C83924   3.184   1.250   1.292 -0.1781 -0.3138 -0.8251
  609MOL0     C83925   3.229   1.399   1.306  0.0359  0.6178 -0.1682
  609MOL0     C83926   3.313   1.450   1.183  0.0494 -1.2154  0.2793
  609MOL0     C83927   3.251   1.418   1.044 -0.1463  0.4314 -0.2912
  609MOL0     O83928   3.314   1.488   0.942  0.3717 -0.1858 -0.1123
  609MOL0     C83929   3.417   1.441   0.876 -0.2542 -0.2588  0.7216
  609MOL0     C83930   3.506   1.531   0.808 -0.1757  0.2480  1.0390
  609MOL0     C83931   3.595   1.493   0.697 -0.7997 -0.1685 -1.0876
  609MOL0     C83932   3.669   1.611   0.639  0.0485 -0.6228  0.0187
  609MOL0     C83933   3.609   1.355   0.664  0.3062  0.8874  0.1613
  609MOL0     C83934   3.715   1.293   0.571 -1.0620 -0.1446  0.2903
  609MOL0     O83935   3.831   1.359   0.549 -0.4982 -0.0751  0.2321
  609MOL0     C83936   3.938   1.295   0.479  0.6132  0.1636 -0.0017
  609MOL0     C83937   4.051   1.253   0.561  0.3175  0.1084  0.1712
  609MOL0     C83938   4.155   1.173   0.507  0.3482 -0.1310 -0.2779
  609MOL0     C83939   4.153   1.139   0.372 -0.5656  1.2618 -0.1277
  609MOL0     O83940   4.254   1.078   0.303 -0.1702  0.3249 -0.1295
  609MOL0     C83941   4.379   1.087   0.380 -0.7266 -0.5294  0.3532
  609MOL0     C83942   4.504   1.026   0.312  0.0693 -0.7883  0.3570
  609MOL0     C83943   4.630   1.098   0.360 -0.0562 -0.1822 -0.2950
  609MOL0     C83944   4.659   1.081   0.504  0.1491  0.0885  0.0152
  609MOL0     C83945   4.795   1.131   0.562  0.5305 -1.0908 -0.0469
  609MOL0     C83946   4.923   1.070   0.511  0.2704  0.4443 -1.1431
  609MOL0     C83947   5.046   1.156   0.550  0.5502 -0.2392  0.4166
  609MOL0     C83948   5.121   1.106   0.676  0.6490 -1.0090  0.8745
  609MOL0    Cl83949   5.010   1.110   0.819 -0.1388 -0.2628 -0.1239
  609MOL0     C83950   4.057   1.188   0.293  0.4355  0.9504 -0.4148
  609MOL0     C83951   3.946   1.257   0.344  0.4500 -0.0433 -0.7393
  609MOL0     O83952   3.685   1.193   0.513  0.0671  0.3049  0.0658
  609MOL0     C83953   3.529   1.271   0.733  1.0989 -0.3909  0.2322
  609MOL0     C83954   3.437   1.304   0.837 -0.0700 -0.5583  0.2378
  609MOL0     N83955   2.989   1.164   1.423  0.0656 -0.1052  0.5041
  609MOL0     N83956   2.963   1.108   1.543 -0.3088  0.1953  0.3844
  609MOL0     C83957   3.165   0.206   2.379  0.0624  0.5524  0.8365
  609MOL0     C83958   3.243   0.088   2.379 -0.0152  0.6502  0.2846
  609MOL0     C83959   3.644  -0.166   2.387  0.3934  0.2815 -0.2535
  609MOL0     C83960   3.787  -0.182   2.411  0.1506 -0.0009 -0.0965
  609MOL0     C83961   3.841  -0.309   2.446  0.7170 -0.1411 -1.5927
  609MOL0     C83962   3.760  -0.422   2.470  0.5104  1.2090 -1.1678
  609MOL0     O83963   3.802  -0.547   2.515 -0.1885 -0.6261 -0.2033
  609MOL0     C83964   3.933  -0.574   2.544 -0.1388  0.6163  0.7008
  609MOL0     C83965   3.986  -0.502   2.661  0.3892 -0.2176 -0.4960
  609MOL0     C83966   3.899  -0.538   2.780 -0.6194 -0.0825  0.4448
  609MOL0     C83967   3.954  -0.462   2.908  1.4539 -0.3972  0.5146
  609MOL0     C83968   3.878  -0.499   3.025  0.1376  0.9097 -0.7747
  609MOL0     C83969   3.799  -0.533   3.113  0.2970 -0.8051  0.4885
  609MOL0     C83970   3.626  -0.409   2.448 -0.5751 -0.4774  0.0550
  609MOL0     C83971   3.558  -0.283   2.406 -0.1823  0.1660  0.4880
  609MOL0     C83972   3.408  -0.285   2.376 -0.4610 -0.6554  0.1477
  609MOL0     H83973   3.529   0.241   2.260  0.6993  2.3060  2.5657
  609MOL0     H83974   3.379   0.428   2.237  2.3639  0.0756  2.1589
  609MOL0     H83975   3.214   0.562   2.209 -0.2254  0.0080 -0.0927
  609MOL0     H83976   3.055   0.610   2.268  1.5739  0.8186  2.0641
  609MOL0     H83977   3.098   0.377   2.075  0.6466 -1.4093  2.6691
  609MOL0     H83978   2.952   0.422   2.146  0.3722 -2.1691 -0.8381
  609MOL0     H83979   3.109   0.592   1.938 -1.1103 -0.2144 -2.5428
  609MOL0     H83980   2.968   0.506   1.905  1.2995  1.2498 -1.5283
  609MOL0     H83981   2.839   0.624   2.085 -0.7993  1.5894  1.6939
  609MOL0     H83982   2.968   0.738   2.119  0.3259 -2.7557  1.9328
  609MOL0     H83983   2.781   0.801   1.957 -1.8180 -2.7405  0.8496
  609MOL0     H83984   2.879   0.710   1.837  4.3770  0.4765 -0.4755
  609MOL0     H83985   2.961   0.975   1.979  1.1513  1.9697 -1.0832
  609MOL0     H83986   3.083   0.863   1.931  0.2593  1.0321 -2.5802
  609MOL0     H83987   2.893   0.983   1.744  0.4253 -0.4101 -1.3919
  609MOL0     H83988   2.993   0.849   1.705 -0.7561 -0.2982 -0.0869
  609MOL0     H83989   3.110   1.114   1.817  2.1697  0.4692 -0.2973
  609MOL0     H83990   3.204   0.994   1.734  0.1438  0.9668  0.1548
  609MOL0     H83991   3.291   1.172   1.554  0.3655  1.7262 -0.7589
  609MOL0     H83992   3.115   1.242   1.208 -2.1814  0.9497  0.6208
  609MOL0     H83993   3.272   1.190   1.267  1.7098  1.6011  0.8617
  609MOL0     H83994   3.150   1.467   1.340  0.0942  2.0746 -2.6570
  609MOL0     H83995   3.295   1.398   1.393  0.9731 -0.9725 -0.8626
  609MOL0     H83996   3.323   1.559   1.192 -1.5920 -0.6524 -3.0679
  609MOL0     H83997   3.408   1.402   1.207  1.0871  0.6331  0.1042
  609MOL0     H83998   3.241   1.310   1.031  0.0645  0.2591  0.8469
  609MOL0     H83999   3.151   1.461   1.041  0.5342  2.3084  1.4788
  609MOL0     H84000   3.502   1.633   0.844  1.8953  0.6073  0.3910
  609MOL0     H84001   3.771   1.624   0.678  1.1079 -0.6792 -2.5330
  609MOL0     H84002   3.610   1.701   0.661 -0.7737 -0.7451 -1.6150
  609MOL0     H84003   3.687   1.604   0.532  0.3586 -1.2421  0.1076
  609MOL0     H84004   4.051   1.274   0.668 -2.0833  1.0890  0.0610
  609MOL0     H84005   4.233   1.141   0.575 -0.5393 -2.7112 -0.3591
  609MOL0     H84006   4.390   1.195   0.394 -1.0122 -0.1480 -2.0116
  609MOL0     H84007   4.381   1.035   0.476  2.5879 -0.3368  0.5242
  609MOL0     H84008   4.502   0.924   0.351 -1.0645 -0.0932  2.2456
  609MOL0     H84009   4.501   1.021   0.202  0.6052 -2.5684  0.4039
  609MOL0     H84010   4.635   1.203   0.328  0.8785 -0.1436 -0.0617
  609MOL0     H84011   4.710   1.055   0.298  0.1193  0.2384 -0.3686
  609MOL0     H84012   4.663   0.974   0.527  2.9214  0.6418  2.8286
  609MOL0     H84013   4.581   1.113   0.574  3.0323  4.1000  1.7935
  609MOL0     H84014   4.794   1.239   0.546 -0.9984 -0.5929  2.6579
  609MOL0     H84015   4.809   1.119   0.670  3.7334  1.3071 -0.0580
  609MOL0     H84016   4.914   1.058   0.403 -1.7923 -2.0486 -0.7640
  609MOL0     H84017   4.940   0.978   0.567 -0.5121  2.6292  3.0862
  609MOL0     H84018   5.013   1.259   0.565  0.0560 -0.2717 -0.3724
  609MOL0     H84019   5.105   1.162   0.458 -1.3837  2.1636 -0.7830
  609MOL0     H84020   5.204   1.176   0.688 -0.1462  1.5907 -5.3532
  609MOL0     H84021   5.163   1.006   0.661 -0.2498 -1.1106 -1.1908
  609MOL0     H84022   4.058   1.164   0.187 -3.6070  1.5420 -0.7505
  609MOL0     H84023   3.868   1.293   0.277 -0.4214  2.2177  1.3038
  609MOL0     H84024   3.513   1.167   0.706  0.2195  0.2640 -2.0346
  609MOL0     H84025   3.377   1.232   0.892  1.2949 -0.6395  1.6879
  609MOL0     H84026   3.063   0.215   2.413 -0.3081 -1.8956  0.5570
  609MOL0     H84027   3.207  -0.009   2.411  1.0072  0.1100 -0.1605
  609MOL0     H84028   3.854  -0.097   2.404  1.8792 -1.3970 -1.0449
  609MOL0     H84029   3.948  -0.295   2.453  0.4153  1.7454  0.1502
  609MOL0     H84030   3.945  -0.681   2.565 -1.4873  0.0171 -1.3058
  609MOL0     H84031   3.992  -0.555   2.455 -0.9167  1.8674  0.4392
  609MOL0     H84032   3.990  -0.394   2.643 -3.4533  0.3209  1.0281
  609MOL0     H84033   4.079  -0.549   2.697  0.2558 -0.4866 -0.5025
  609MOL0     H84034   3.792  -0.525   2.763 -0.5661 -0.9818 -0.6909
  609MOL0     H84035   3.914  -0.644   2.801  2.4737 -0.2555 -1.8802
  609MOL0     H84036   3.940  -0.355   2.888  1.4883 -0.7633 -1.6942
  609MOL0     H84037   4.060  -0.474   2.932  1.0429 -0.6392  2.3784
  609MOL0     H84038   3.730  -0.564   3.189 -2.2521  0.2680 -1.2686
  609MOL0     H84039   3.571  -0.500   2.470 -1.4094 -0.3545 -1.4327
  609MOL0     H84040   3.380  -0.244   2.278  1.4277  1.5908  0.4565
  609MOL0     H84041   3.375  -0.389   2.382  0.0759 -0.7758  1.2231
  609MOL0     H84042   3.359  -0.230   2.456 -1.2505 -1.5368  0.2881
  610MOL0     O84043   8.820   6.893   9.240  0.4009  0.3194 -0.1172
  610MOL0     C84044   8.723   6.872   9.167  0.1300 -0.2279 -0.1197
  610MOL0     O84045   8.726   6.876   9.027  0.1359  0.2700  0.1166
  610MOL0     C84046   8.839   6.935   8.967  0.5669 -0.2041  0.5214
  610MOL0     C84047   8.912   6.861   8.870 -0.8365  0.1676 -0.1551
  610MOL0     C84048   9.022   6.912   8.791  0.2789 -1.2280 -0.2656
  610MOL0     C84049   9.063   7.041   8.821 -0.6951  0.1267  0.2440
  610MOL0     O84050   9.165   7.083   8.736 -0.4904  0.5902  0.1814
  610MOL0     C84051   9.210   7.214   8.758 -0.0216  0.7870 -0.3671
  610MOL0     C84052   9.304   7.260   8.648  0.2785 -0.5105  0.2730
  610MOL0     C84053   9.439   7.196   8.673 -0.2103  0.2067  0.5226
  610MOL0     C84054   9.540   7.297   8.609  0.9003  0.3528 -0.0769
  610MOL0     C84055   9.674   7.228   8.607  0.3351 -0.3952 -0.4409
  610MOL0     C84056   9.752   7.232   8.740  0.9545 -0.4129  0.9220
  610MOL0     C84057   9.804   7.375   8.775 -0.3382  0.0559  0.3275
  610MOL0     C84058   9.877   7.398   8.907  0.6074  0.2858  0.9023
  610MOL0     N84059   9.962   7.517   8.885 -0.1363 -0.0151 -0.0703
  610MOL0     C84060  10.087   7.525   8.949  0.8304  1.3924 -0.3141
  610MOL0     C84061  10.133   7.652   8.918  0.2050  0.2616  0.7879
  610MOL0     C84062  10.266   7.717   8.945 -1.0725  0.0356  0.3782
  610MOL0     C84063  10.378   7.650   8.862 -0.4461 -0.2563  0.5322
  610MOL0     C84064  10.445   7.545   8.941  0.0170 -0.0813  0.3025
  610MOL0     C84065  10.573   7.485   8.878 -0.4996 -0.2241 -0.2045
  610MOL0     O84066  10.632   7.394   8.977 -0.3344 -0.0143  0.5508
  610MOL0     C84067  10.762   7.348   8.961 -0.2151 -0.2390 -0.3152
  610MOL0     C84068  10.856   7.347   9.068 -0.3134  0.3517 -0.0881
  610MOL0     C84069  10.987   7.301   9.043  0.0578 -0.8098  0.5405
  610MOL0     C84070  11.075   7.314   9.167 -1.0531  0.1978  0.2287
  610MOL0     C84071  11.028   7.257   8.914  0.7274 -0.2381  0.8881
  610MOL0     C84072  11.165   7.202   8.886 -0.6299  0.0291  1.0910
  610MOL0     O84073  11.222   7.218   8.761 -0.4189 -0.4925 -0.2572
  610MOL0     C84074  11.340   7.155   8.735 -0.2614  0.0841  0.7293
  610MOL0     C84075  11.347   7.093   8.609  0.0121 -0.3171 -1.9948
  610MOL0     C84076  11.460   7.007   8.589 -0.1723 -0.3361 -0.3719
  610MOL0     C84077  11.566   6.995   8.679  0.1282  0.2720 -0.5193
  610MOL0     O84078  11.659   6.900   8.661 -0.3934 -0.2533  1.4891
  610MOL0     C84079  11.791   6.916   8.700 -0.9259  0.4812 -0.3380
  610MOL0     C84080  11.869   6.788   8.669 -0.9512  0.1922 -0.0355
  610MOL0     C84081  12.020   6.793   8.704  0.0079 -0.4946 -0.4227
  610MOL0     C84082  12.043   6.798   8.854  0.1257 -0.6244 -0.7477
  610MOL0     C84083  12.186   6.757   8.894  0.0762  0.6438 -1.0950
  610MOL0     C84084  12.224   6.612   8.854  0.2892  0.6091  0.5157
  610MOL0     C84085  12.329   6.550   8.964  0.0787 -0.6484  0.5160
  610MOL0     C84086  12.369   6.402   8.936  0.0732 -0.4458  0.2554
  610MOL0    Cl84087  12.468   6.376   8.785  0.5321 -0.2937 -0.0414
  610MOL0     C84088  11.552   7.066   8.805 -0.8107  0.4329 -0.0316
  610MOL0     C84089  11.446   7.149   8.829 -0.8031 -0.1636 -0.2050
  610MOL0     O84090  11.210   7.141   8.980 -0.3114 -0.0341  0.1162
  610MOL0     C84091  10.935   7.285   8.807  0.0056  0.8663 -0.7247
  610MOL0     C84092  10.803   7.322   8.828 -0.5957 -0.2867 -0.8964
  610MOL0     N84093  10.035   7.716   8.842  0.0696  0.5950  0.3219
  610MOL0     N84094   9.933   7.633   8.819  0.0190  0.3079  0.4556
  610MOL0     C84095   8.999   7.114   8.920  0.7970 -0.0114  0.2152
  610MOL0     C84096   8.897   7.063   8.989  0.0400 -0.5427 -0.1803
  610MOL0     C84097   8.588   6.842   9.232  0.2013 -0.1433  0.3840
  610MOL0     C84098   8.484   6.828   9.134  0.2909  0.4003 -0.1155
  610MOL0     C84099   8.351   6.794   9.165  0.1983 -0.2674 -0.2631
  610MOL0     C84100   8.323   6.790   9.304 -1.1348 -0.1125 -0.0811
  610MOL0     O84101   8.209   6.740   9.360 -0.0610 -0.2858 -0.2973
  610MOL0     C84102   8.081   6.801   9.318  0.2834  0.3343  0.1725
  610MOL0     C84103   8.027   6.708   9.196 -0.4503 -0.0520 -0.5103
  610MOL0     C84104   7.983   6.567   9.254  0.6810  0.0338  0.6503
  610MOL0     C84105   7.840   6.566   9.305 -0.5299 -0.9701  1.0377
  610MOL0     C84106   7.751   6.584   9.182  0.6854 -0.4588  0.4082
  610MOL0     C84107   7.684   6.594   9.076  0.0904 -0.1680 -0.0369
  610MOL0     C84108   8.421   6.833   9.401 -0.2778  0.0373 -0.1002
  610MOL0     C84109   8.550   6.850   9.365  0.0455  0.0006 -0.3617
  610MOL0     C84110   8.635   6.861   9.490 -0.0497 -0.3743 -0.4666
  610MOL0     H84111   8.870   6.762   8.855 -1.0431  0.0086  1.3656
  610MOL0     H84112   9.064   6.842   8.719  0.4964 -1.2140 -0.1519
  610MOL0     H84113   9.264   7.220   8.853  0.4223  1.7388 -0.6641
  610MOL0     H84114   9.115   7.268   8.759 -0.1525  0.5971 -1.4088
  610MOL0     H84115   9.271   7.226   8.550 -1.0748 -1.0325  0.8896
  610MOL0     H84116   9.315   7.369   8.645  1.7595 -0.4596  3.2805
  610MOL0     H84117   9.463   7.177   8.778 -0.6773 -1.4576  0.3488
  610MOL0     H84118   9.444   7.100   8.621 -1.1239  0.2487  0.3490
  610MOL0     H84119   9.500   7.316   8.509  0.4875  0.0265  0.0243
  610MOL0     H84120   9.530   7.384   8.675 -0.9862  0.3980 -0.3636
  610MOL0     H84121   9.739   7.279   8.535 -0.3850  2.1719  0.6155
  610MOL0     H84122   9.663   7.120   8.591 -0.3461 -0.7799  2.1853
  610MOL0     H84123   9.685   7.200   8.821 -0.6336  1.6340  0.4881
  610MOL0     H84124   9.840   7.170   8.722  1.4134  0.6306 -0.6542
  610MOL0     H84125   9.717   7.438   8.791 -0.1808 -0.1939  2.3736
  610MOL0     H84126   9.859   7.418   8.690  0.6919  1.1735  1.5145
  610MOL0     H84127   9.800   7.412   8.984 -2.0969  2.4087 -1.9269
  610MOL0     H84128   9.929   7.307   8.936 -0.3218  0.0160  1.7936
  610MOL0     H84129  10.133   7.442   9.001  0.8420  1.6806  0.1431
  610MOL0     H84130  10.290   7.707   9.051 -0.1580  1.2802  0.3166
  610MOL0     H84131  10.261   7.826   8.936  2.5834  0.2029 -1.6936
  610MOL0     H84132  10.335   7.600   8.775 -1.2199  1.9035 -0.3758
  610MOL0     H84133  10.454   7.724   8.835 -0.7880 -0.7952 -2.1137
  610MOL0     H84134  10.469   7.579   9.042  0.6020 -0.5867  0.3375
  610MOL0     H84135  10.370   7.465   8.937 -1.1431  0.9951 -2.5455
  610MOL0     H84136  10.555   7.418   8.794  3.1274 -1.1688 -0.4139
  610MOL0     H84137  10.638   7.565   8.843 -0.3438 -1.4865 -3.0387
  610MOL0     H84138  10.824   7.383   9.165 -1.3538  1.6205 -0.8573
  610MOL0     H84139  11.146   7.396   9.156 -0.4720 -0.2826  0.3302
  610MOL0     H84140  11.134   7.222   9.174 -0.1597  0.7348 -0.0810
  610MOL0     H84141  11.022   7.330   9.262 -1.7773  0.8105 -0.2719
  610MOL0     H84142  11.260   7.115   8.547 -0.2815  0.2825 -1.3839
  610MOL0     H84143  11.458   6.956   8.493  1.0442  1.1706 -1.2344
  610MOL0     H84144  11.834   7.002   8.647  0.5801 -1.0535 -1.6824
  610MOL0     H84145  11.795   6.943   8.806 -0.5724 -2.9972  0.6358
  610MOL0     H84146  11.834   6.701   8.724 -2.3901  1.2961  0.8727
  610MOL0     H84147  11.859   6.764   8.563 -2.8960  0.1578  0.1300
  610MOL0     H84148  12.060   6.884   8.659  0.0976  0.7613  2.0135
  610MOL0     H84149  12.075   6.711   8.656  1.1307 -2.6030  3.9656
  610MOL0     H84150  11.977   6.727   8.904  1.2813  0.2615  2.2235
  610MOL0     H84151  12.023   6.900   8.886  2.0400 -0.3954 -0.1578
  610MOL0     H84152  12.254   6.839   8.869 -1.2608  2.6502  1.4116
  610MOL0     H84153  12.184   6.755   9.003 -0.5264 -1.8035 -1.0909
  610MOL0     H84154  12.276   6.602   8.758  1.3088  0.2856  1.0897
  610MOL0     H84155  12.140   6.543   8.845  1.3714 -0.9313  1.7115
  610MOL0     H84156  12.273   6.541   9.058  0.3892 -3.2064  0.5353
  610MOL0     H84157  12.415   6.610   8.995 -0.4112 -0.0241  0.6812
  610MOL0     H84158  12.281   6.338   8.944  0.5228 -0.8843  2.1213
  610MOL0     H84159  12.422   6.361   9.023 -1.5201  0.5958  1.7609
  610MOL0     H84160  11.627   7.064   8.883 -0.9342  0.3787  0.0868
  610MOL0     H84161  11.434   7.191   8.928  2.2112 -1.5463  0.8867
  610MOL0     H84162  10.966   7.252   8.708 -2.6117 -4.2661 -0.1769
  610MOL0     H84163  10.727   7.322   8.750 -1.7824 -1.4093  0.2073
  610MOL0     H84164   9.026   7.215   8.945  3.8336 -1.0236  1.4484
  610MOL0     H84165   8.845   7.131   9.056  0.8371  0.0114 -0.1129
  610MOL0     H84166   8.496   6.824   9.026 -2.9457  0.3809 -0.5735
  610MOL0     H84167   8.283   6.777   9.083  0.4538  0.2101 -0.5745
  610MOL0     H84168   8.015   6.798   9.405 -0.1203  0.9770 -0.1102
  610MOL0     H84169   8.084   6.906   9.288 -1.1016  0.0548 -0.9844
  610MOL0     H84170   8.099   6.693   9.114 -0.6408 -1.3002 -0.4646
  610MOL0     H84171   7.941   6.760   9.153 -2.5379 -2.4739  0.4726
  610MOL0     H84172   7.992   6.481   9.187  0.2433 -0.5940  1.3695
  610MOL0     H84173   8.053   6.535   9.332  0.4666 -0.8067  0.5177
  610MOL0     H84174   7.831   6.641   9.384  3.2003 -0.4449  1.1449
  610MOL0     H84175   7.833   6.466   9.348 -1.8558 -0.5842  1.7625
  610MOL0     H84176   7.631   6.590   8.983 -1.5991 -0.2968  0.8801
  610MOL0     H84177   8.394   6.829   9.506  1.4320 -1.3856  0.3457
  610MOL0     H84178   8.583   6.863   9.587 -0.6754  1.4831 -0.8087
  610MOL0     H84179   8.696   6.772   9.508  1.6651  1.4440  4.3759
  610MOL0     H84180   8.696   6.951   9.478 -1.9622  1.1110  0.5052
  611MOL0     O84181   6.227   4.657   1.622  0.2184 -0.6744  0.3915
  611MOL0     C84182   6.162   4.557   1.611  0.5027  0.1810  0.0574
  611MOL0     O84183   6.207   4.428   1.625  0.0075 -0.2888  0.1244
  611MOL0     C84184   6.344   4.412   1.642  0.5024 -0.1467 -0.3926
  611MOL0     C84185   6.436   4.459   1.542  1.0679  0.1111 -0.0968
  611MOL0     C84186   6.569   4.413   1.548  0.5106  0.1816 -0.6135
  611MOL0     C84187   6.619   4.334   1.653  0.6132  1.0909 -0.2538
  611MOL0     O84188   6.740   4.279   1.652 -0.0522 -0.2678  0.9309
  611MOL0     C84189   6.829   4.300   1.546  0.9857  0.0552 -0.2547
  611MOL0     C84190   6.970   4.244   1.579  0.1940  0.2861 -0.5299
  611MOL0     C84191   6.985   4.094   1.575 -0.6341  0.3063  1.5654
  611MOL0     C84192   7.118   4.054   1.646  0.7511 -1.2262  0.5650
  611MOL0     C84193   7.140   3.901   1.656  0.7643 -0.6048  0.0433
  611MOL0     C84194   7.272   3.877   1.732 -0.1595 -0.0628  0.0311
  611MOL0     C84195   7.294   3.717   1.752 -0.7936 -0.0815  0.3772
  611MOL0     C84196   7.433   3.682   1.803  0.2060 -0.5801 -0.3391
  611MOL0     N84197   7.424   3.533   1.831 -0.2101 -0.7246  0.0208
  611MOL0     C84198   7.362   3.481   1.933  0.1499 -0.1319 -0.7036
  611MOL0     C84199   7.407   3.355   1.960  0.4811 -0.9246  0.6990
  611MOL0     C84200   7.359   3.261   2.061  0.3127  0.0952  0.0490
  611MOL0     C84201   7.258   3.164   1.997  0.7253  0.1290  0.6808
  611MOL0     C84202   7.184   3.070   2.095 -0.8783 -1.0856  0.7824
  611MOL0     C84203   7.287   2.999   2.190  0.0215  1.0373  0.1641
  611MOL0     O84204   7.379   2.924   2.113  0.2376  0.0161 -0.2856
  611MOL0     C84205   7.493   2.884   2.178  0.6209 -0.1247  0.3008
  611MOL0     C84206   7.520   2.908   2.314  0.5152 -0.1648 -0.4786
  611MOL0     C84207   7.632   2.857   2.380  0.6351 -0.2798  0.6354
  611MOL0     C84208   7.644   2.877   2.537  0.3660  0.0302  0.1106
  611MOL0     C84209   7.735   2.795   2.301 -0.4513 -0.6163 -0.4367
  611MOL0     C84210   7.869   2.754   2.354 -0.3692 -0.2000 -0.7028
  611MOL0     O84211   7.960   2.699   2.265 -0.5545 -0.0508  1.0256
  611MOL0     C84212   8.080   2.685   2.302 -1.0161 -0.9473 -0.3794
  611MOL0     C84213   8.162   2.800   2.316 -0.1755  0.0168 -0.1018
  611MOL0     C84214   8.299   2.785   2.355  0.4673  0.4722  0.6302
  611MOL0     C84215   8.345   2.654   2.386  0.6305 -0.0637 -0.1239
  611MOL0     O84216   8.478   2.635   2.414  0.5940  0.6421 -0.5077
  611MOL0     C84217   8.575   2.734   2.410 -0.2893  0.0476 -0.8095
  611MOL0     C84218   8.682   2.678   2.492  0.3603  0.5577  0.0287
  611MOL0     C84219   8.808   2.764   2.495 -0.0697  0.0197  0.1303
  611MOL0     C84220   8.939   2.683   2.511  0.6726  0.1213  0.0560
  611MOL0     C84221   9.064   2.741   2.446 -0.4124  0.3168 -0.3571
  611MOL0     C84222   9.061   2.776   2.306 -0.8858 -0.4922  0.4993
  611MOL0     C84223   9.192   2.826   2.247  0.5781  0.3750  1.0005
  611MOL0     C84224   9.310   2.727   2.239 -0.1010  0.9043 -0.4493
  611MOL0    Cl84225   9.257   2.571   2.159 -0.1136  0.1657  0.4409
  611MOL0     C84226   8.264   2.548   2.370  0.5088  0.1596  0.1164
  611MOL0     C84227   8.132   2.558   2.335  0.5515 -0.7748 -0.2761
  611MOL0     O84228   7.892   2.777   2.474  0.4807 -0.3501  0.9851
  611MOL0     C84229   7.708   2.778   2.158 -0.1527  0.6095 -0.6996
  611MOL0     C84230   7.588   2.817   2.099  0.0185  0.3831  0.1410
  611MOL0     N84231   7.501   3.332   1.857  0.4678  0.5903  0.4053
  611MOL0     N84232   7.494   3.432   1.777 -0.3320 -0.3494 -0.0699
  611MOL0     C84233   6.531   4.291   1.749 -0.4896  0.2720 -0.1234
  611MOL0     C84234   6.391   4.324   1.743  0.0001 -0.3525  0.4195
  611MOL0     C84235   6.007   4.570   1.588 -0.3670  1.2766 -0.2673
  611MOL0     C84236   5.928   4.461   1.626 -0.2256  0.0226  0.2942
  611MOL0     C84237   5.785   4.460   1.613 -0.2667  0.8329  0.9509
  611MOL0     C84238   5.718   4.575   1.564  1.2294 -0.1243 -0.2135
  611MOL0     O84239   5.582   4.578   1.553  1.0270  0.3244  0.0873
  611MOL0     C84240   5.517   4.703   1.574  0.5714 -1.7163  0.0327
  611MOL0     C84241   5.369   4.670   1.633 -0.1494  0.3422 -0.3423
  611MOL0     C84242   5.263   4.769   1.584  0.2549 -0.0451  0.2331
  611MOL0     C84243   5.118   4.740   1.634 -0.6892 -0.5201 -0.2617
  611MOL0     C84244   5.044   4.862   1.612  1.1213 -0.3828 -0.0052
  611MOL0     C84245   4.978   4.964   1.602 -0.1154 -0.5970  0.7947
  611MOL0     C84246   5.801   4.677   1.518 -0.4359  0.2246 -0.1003
  611MOL0     C84247   5.939   4.681   1.534  0.5190 -0.1583  0.1747
  611MOL0     C84248   6.015   4.799   1.478 -0.0890  0.7240 -0.7740
  611MOL0     H84249   6.390   4.531   1.476 -1.1470 -1.3150 -0.2015
  611MOL0     H84250   6.629   4.459   1.470  0.2776 -0.0062 -0.9072
  611MOL0     H84251   6.832   4.408   1.530 -0.9055  0.0370 -0.8835
  611MOL0     H84252   6.788   4.256   1.454  2.3617  0.0209 -0.8803
  611MOL0     H84253   7.037   4.281   1.501  1.5573  0.8886  0.8666
  611MOL0     H84254   7.002   4.275   1.679  3.1954 -2.5741 -0.4408
  611MOL0     H84255   6.907   4.038   1.628 -0.6647 -1.8825 -0.6227
  611MOL0     H84256   6.982   4.059   1.472 -1.5822 -3.1079  2.6307
  611MOL0     H84257   7.197   4.118   1.607 -2.2127  3.5078  1.5778
  611MOL0     H84258   7.108   4.093   1.748  2.6872  2.6515 -0.5370
  611MOL0     H84259   7.153   3.864   1.554  2.3551  3.3886 -1.4058
  611MOL0     H84260   7.066   3.851   1.719  0.8316 -0.9895 -0.1768
  611MOL0     H84261   7.352   3.919   1.670  1.0785  1.1434  2.3348
  611MOL0     H84262   7.279   3.922   1.831  1.3891 -3.1092  1.4382
  611MOL0     H84263   7.273   3.655   1.665 -0.2244  0.8590 -0.4555
  611MOL0     H84264   7.218   3.699   1.828  0.4636  0.5975  1.8507
  611MOL0     H84265   7.517   3.704   1.736  0.2436  0.0379 -0.0882
  611MOL0     H84266   7.444   3.739   1.896 -4.0767  1.0808 -0.6385
  611MOL0     H84267   7.288   3.527   1.998  3.0469 -0.2794  3.0647
  611MOL0     H84268   7.322   3.298   2.157  0.7194 -1.7514  0.9439
  611MOL0     H84269   7.448   3.198   2.069  1.4291  1.4517 -0.9534
  611MOL0     H84270   7.181   3.231   1.958  0.5275  0.9089  2.3105
  611MOL0     H84271   7.299   3.105   1.915 -1.2900  1.9408 -1.7875
  611MOL0     H84272   7.129   3.143   2.155 -0.9529 -1.4770  1.1901
  611MOL0     H84273   7.112   3.004   2.046  0.6309 -2.4017  0.2748
  611MOL0     H84274   7.328   3.073   2.260  1.0017  0.8713 -0.2190
  611MOL0     H84275   7.245   2.929   2.263 -0.0874 -0.3064 -1.1653
  611MOL0     H84276   7.457   2.951   2.391  3.0349  0.0416  1.6130
  611MOL0     H84277   7.549   2.905   2.583 -0.7746  1.7109 -2.9904
  611MOL0     H84278   7.704   2.967   2.554  3.4759 -1.9185  0.2849
  611MOL0     H84279   7.684   2.787   2.583  0.2726  0.3754  0.8917
  611MOL0     H84280   8.133   2.889   2.261 -1.0631 -0.8788 -1.1322
  611MOL0     H84281   8.365   2.870   2.347  0.4258  0.3338 -2.2407
  611MOL0     H84282   8.604   2.750   2.306 -2.0094 -0.7408 -1.4557
  611MOL0     H84283   8.537   2.824   2.460 -1.0484 -0.6357 -0.1119
  611MOL0     H84284   8.646   2.681   2.595  0.0141  3.2894 -0.0933
  611MOL0     H84285   8.698   2.573   2.465 -0.7098  0.4456 -0.2227
  611MOL0     H84286   8.791   2.840   2.572  1.8369  0.3799  0.2416
  611MOL0     H84287   8.820   2.808   2.396  0.0178 -0.9068 -0.2785
  611MOL0     H84288   8.927   2.584   2.466 -0.8137  0.2635  0.1038
  611MOL0     H84289   8.976   2.657   2.610 -1.5814  0.1579  0.9592
  611MOL0     H84290   9.099   2.831   2.496 -0.2589 -0.5321  1.1134
  611MOL0     H84291   9.144   2.668   2.454  1.0576  1.4924 -2.9725
  611MOL0     H84292   8.992   2.860   2.298 -1.0520 -0.4449  2.2225
  611MOL0     H84293   9.026   2.683   2.260  0.0265 -1.1131  1.0239
  611MOL0     H84294   9.226   2.919   2.295  2.8713  0.8436 -1.3234
  611MOL0     H84295   9.175   2.848   2.142 -1.0946 -1.1622  0.8921
  611MOL0     H84296   9.350   2.712   2.340 -2.0288 -1.2362  0.0851
  611MOL0     H84297   9.394   2.766   2.180  0.7930 -0.5678 -0.1841
  611MOL0     H84298   8.315   2.452   2.383 -1.2603 -0.5519  2.5450
  611MOL0     H84299   8.074   2.468   2.322 -1.5025  0.5392 -0.7423
  611MOL0     H84300   7.783   2.724   2.102 -0.9249 -0.8692 -0.3681
  611MOL0     H84301   7.552   2.782   2.003 -0.3944 -0.0003  0.4306
  611MOL0     H84302   6.548   4.226   1.834 -1.4744 -0.9764 -0.8644
  611MOL0     H84303   6.327   4.282   1.820  0.9098  0.0283  1.4133
  611MOL0     H84304   5.973   4.373   1.671  0.1880 -0.3964 -0.9154
  611MOL0     H84305   5.733   4.380   1.663 -2.0311  1.8650  0.8394
  611MOL0     H84306   5.563   4.771   1.646 -1.7140 -1.3612  1.2390
  611MOL0     H84307   5.505   4.750   1.476  0.9751  3.9560  2.3175
  611MOL0     H84308   5.377   4.662   1.742  0.2322  0.3618 -0.3679
  611MOL0     H84309   5.339   4.568   1.605  1.5782 -0.4682  0.5801
  611MOL0     H84310   5.288   4.867   1.626 -0.4984 -1.2967  3.9575
  611MOL0     H84311   5.273   4.767   1.475 -1.0344  1.1302  0.0509
  611MOL0     H84312   5.115   4.703   1.736 -2.0102 -1.4384 -0.6046
  611MOL0     H84313   5.078   4.657   1.576 -0.7040 -1.7685  1.4764
  611MOL0     H84314   4.921   5.055   1.599  0.9452  0.0635  0.1359
  611MOL0     H84315   5.765   4.751   1.448  2.6202  1.1074 -0.8857
  611MOL0     H84316   6.074   4.844   1.559 -1.4088  1.0974  0.0091
  611MOL0     H84317   6.075   4.759   1.396 -0.6204  0.2536 -0.9380
  611MOL0     H84318   5.953   4.875   1.428 -3.0632 -0.0937  1.3779
  612MOL0     O84319   0.722   3.293   5.355  0.2198  1.0481  0.0926
  612MOL0     C84320   0.763   3.363   5.266  0.1431 -0.0042  0.8559
  612MOL0     O84321   0.893   3.375   5.226  0.4681 -0.6179 -0.0761
  612MOL0     C84322   0.990   3.284   5.243 -0.3498  0.2880  0.6132
  612MOL0     C84323   0.981   3.153   5.284 -0.3573  1.0622 -0.6158
  612MOL0     C84324   1.088   3.069   5.309 -0.0896 -0.2491 -0.2214
  612MOL0     C84325   1.217   3.114   5.266 -0.1580  0.0998  0.2580
  612MOL0     O84326   1.332   3.047   5.282 -0.6531 -0.1642  0.1358
  612MOL0     C84327   1.357   2.986   5.408 -0.7038  0.1771 -0.0855
  612MOL0     C84328   1.502   3.001   5.448 -0.1774 -0.5045 -1.3539
  612MOL0     C84329   1.546   3.145   5.477  0.2460 -0.7312 -0.0810
  612MOL0     C84330   1.701   3.149   5.496  0.6331 -0.1139  0.2770
  612MOL0     C84331   1.751   3.287   5.473 -0.3914 -0.0347 -0.3848
  612MOL0     C84332   1.907   3.282   5.505  0.1046 -0.0715 -0.0199
  612MOL0     C84333   1.974   3.411   5.487  0.7035 -1.0547 -1.4628
  612MOL0     C84334   1.928   3.531   5.582 -0.3416  0.9507  0.0402
  612MOL0     N84335   2.040   3.625   5.625 -0.3033  0.1065  0.3015
  612MOL0     C84336   2.053   3.749   5.577  0.1747 -0.4341 -0.7046
  612MOL0     C84337   2.130   3.809   5.669 -0.3958  0.4422  0.5662
  612MOL0     C84338   2.179   3.950   5.664 -0.0344  0.6449  0.1314
  612MOL0     C84339   2.316   3.969   5.722 -0.1264 -0.5863 -0.9704
  612MOL0     C84340   2.360   4.113   5.693  0.2917  0.5568  0.6610
  612MOL0     C84341   2.482   4.141   5.777  0.2220  0.5765 -0.7566
  612MOL0     O84342   2.597   4.045   5.759  0.6070 -0.1324 -0.2450
  612MOL0     C84343   2.698   4.077   5.670 -0.9650 -0.2746  0.4514
  612MOL0     C84344   2.723   4.198   5.597  0.1285 -0.9740 -0.2916
  612MOL0     C84345   2.829   4.207   5.514  0.5384  0.0063  0.1661
  612MOL0     C84346   2.834   4.336   5.430 -0.4672  0.5385  0.0433
  612MOL0     C84347   2.912   4.101   5.489 -0.5688  0.0700  0.6662
  612MOL0     C84348   3.031   4.111   5.399 -1.3315  0.3261 -0.3207
  612MOL0     O84349   3.061   3.998   5.320 -0.1453  0.5909 -0.2406
  612MOL0     C84350   3.193   3.986   5.284  0.1488 -0.5249 -0.8978
  612MOL0     C84351   3.222   3.937   5.152  0.7768  0.5039 -0.2947
  612MOL0     C84352   3.352   3.908   5.109 -0.3325  1.0589  0.9167
  612MOL0     C84353   3.457   3.917   5.204 -0.8189  0.2425  0.9083
  612MOL0     O84354   3.591   3.884   5.180 -0.0614 -0.3466 -0.5964
  612MOL0     C84355   3.625   3.900   5.040  0.2596  0.2776 -0.0733
  612MOL0     C84356   3.777   3.867   5.006 -0.3309 -0.1794  0.4993
  612MOL0     C84357   3.828   3.914   4.862  0.0854 -0.2268  0.8829
  612MOL0     C84358   3.972   3.879   4.840 -0.1725 -0.2694 -0.6217
  612MOL0     C84359   3.998   3.874   4.682 -0.0002 -0.7465 -0.4288
  612MOL0     C84360   4.147   3.849   4.635 -0.1480  0.4848  0.4162
  612MOL0     C84361   4.155   3.788   4.492 -0.9731 -0.3649  0.2662
  612MOL0     C84362   4.301   3.773   4.449 -0.0039 -0.0137 -0.4238
  612MOL0    Cl84363   4.306   3.670   4.303 -0.2575  0.2010  0.0854
  612MOL0     C84364   3.433   3.956   5.331  0.8243  0.3708  0.0310
  612MOL0     C84365   3.303   3.994   5.371 -0.0756 -0.0292  0.3360
  612MOL0     O84366   3.097   4.218   5.400  0.2296  0.0456  0.5330
  612MOL0     C84367   2.889   3.975   5.545  0.7137  0.1527 -0.4121
  612MOL0     C84368   2.779   3.964   5.640  0.1873 -0.2836  0.4721
  612MOL0     N84369   2.156   3.717   5.763 -0.0639 -0.7793 -0.2620
  612MOL0     N84370   2.094   3.607   5.745  0.6941 -0.8649 -1.2640
  612MOL0     C84371   1.230   3.235   5.207 -0.2765 -0.5498  0.0770
  612MOL0     C84372   1.117   3.321   5.197  0.3238 -0.3190 -1.0282
  612MOL0     C84373   0.659   3.455   5.203  0.4561 -0.0011  0.4400
  612MOL0     C84374   0.537   3.480   5.279 -0.0709 -0.1165  0.3121
  612MOL0     C84375   0.442   3.565   5.221 -0.4711 -0.0770 -0.2945
  612MOL0     C84376   0.459   3.622   5.095  0.4309 -0.2742 -1.0292
  612MOL0     O84377   0.386   3.718   5.028  0.4349 -0.3211  0.8802
  612MOL0     C84378   0.289   3.796   5.095 -0.3545 -0.4840 -0.2675
  612MOL0     C84379   0.154   3.721   5.089  0.4593 -0.0900 -0.6452
  612MOL0     C84380   0.081   3.705   4.955  0.8824 -1.0027  0.8495
  612MOL0     C84381  -0.032   3.602   4.960  0.3607 -0.4936 -0.2370
  612MOL0     C84382  -0.150   3.653   5.030 -0.2964 -0.3241 -0.7863
  612MOL0     C84383  -0.244   3.695   5.093  0.1949  0.6511 -0.6269
  612MOL0     C84384   0.566   3.586   5.022 -0.6570 -0.2991 -0.4278
  612MOL0     C84385   0.671   3.508   5.069 -0.5472 -0.3811  0.0900
  612MOL0     C84386   0.779   3.463   4.967  0.5195  0.0947  0.5917
  612MOL0     H84387   0.886   3.110   5.316  0.1632  0.1624 -0.2483
  612MOL0     H84388   1.087   2.976   5.365  0.4435 -0.0157  0.1858
  612MOL0     H84389   1.341   2.877   5.411  1.4141 -0.1908 -0.5762
  612MOL0     H84390   1.296   3.025   5.490 -0.9385 -0.1474 -0.1017
  612MOL0     H84391   1.518   2.950   5.543  1.6500  0.6550 -0.9918
  612MOL0     H84392   1.565   2.951   5.374 -0.1732  1.0209 -2.4267
  612MOL0     H84393   1.511   3.211   5.398 -1.9036  1.8405  2.7513
  612MOL0     H84394   1.497   3.180   5.569  0.6114  0.1216 -0.1981
  612MOL0     H84395   1.720   3.125   5.601 -2.8626  1.5230  1.4053
  612MOL0     H84396   1.747   3.077   5.428 -1.6190 -2.1793  0.8081
  612MOL0     H84397   1.697   3.340   5.552 -1.2541 -1.2373 -0.1434
  612MOL0     H84398   1.716   3.330   5.379 -0.8213 -3.1508 -1.7774
  612MOL0     H84399   1.920   3.263   5.613  1.3202  0.9763  0.0457
  612MOL0     H84400   1.957   3.202   5.450 -1.2349 -1.1768  0.3114
  612MOL0     H84401   1.981   3.448   5.384 -0.6630  1.7908 -0.6467
  612MOL0     H84402   2.079   3.398   5.514  0.7116 -0.4782 -1.1860
  612MOL0     H84403   1.853   3.593   5.531 -2.6133  0.1705  2.2567
  612MOL0     H84404   1.877   3.489   5.669  0.1922 -1.1336 -0.5908
  612MOL0     H84405   2.030   3.795   5.481  0.8503 -0.2876 -0.8024
  612MOL0     H84406   2.112   4.018   5.717  2.4926  1.6889  2.2428
  612MOL0     H84407   2.180   3.984   5.560  0.0863  0.4328  0.0620
  612MOL0     H84408   2.309   3.954   5.830  0.9454 -2.7763 -1.1619
  612MOL0     H84409   2.385   3.902   5.671 -0.0548 -2.2358  1.1615
  612MOL0     H84410   2.381   4.126   5.586  1.8243 -2.1148  0.5479
  612MOL0     H84411   2.277   4.177   5.723  2.4043  1.9642  4.1348
  612MOL0     H84412   2.523   4.240   5.758  3.6433 -0.5829 -0.1616
  612MOL0     H84413   2.446   4.138   5.880 -0.4842 -0.8247 -1.0191
  612MOL0     H84414   2.644   4.273   5.597 -1.9426 -3.0399 -0.2096
  612MOL0     H84415   2.805   4.308   5.329 -3.3742  1.8621  0.4174
  612MOL0     H84416   2.931   4.381   5.455  0.3772 -2.2353  2.4904
  612MOL0     H84417   2.754   4.404   5.460 -0.2913  0.1113  1.6051
  612MOL0     H84418   3.137   3.943   5.085  0.8693  4.3144 -0.3100
  612MOL0     H84419   3.366   3.874   5.007 -2.6243  0.2322  0.8199
  612MOL0     H84420   3.574   3.830   4.973  0.6268 -0.6711  0.6131
  612MOL0     H84421   3.599   4.002   5.011  0.0939  0.2658  0.0317
  612MOL0     H84422   3.842   3.910   5.083 -0.5150  0.9234  0.0611
  612MOL0     H84423   3.785   3.758   5.006  1.9882 -0.1259 -2.2569
  612MOL0     H84424   3.819   4.022   4.848 -2.6439 -0.3354  1.3138
  612MOL0     H84425   3.771   3.861   4.785 -0.9052  1.3940  0.4526
  612MOL0     H84426   4.010   3.781   4.870  0.5834 -0.5065 -2.2506
  612MOL0     H84427   4.035   3.953   4.889  1.5357 -2.2357  0.3247
  612MOL0     H84428   3.933   3.799   4.635 -1.6819  1.0649 -1.1306
  612MOL0     H84429   3.958   3.969   4.645  2.1563  1.2896  2.1091
  612MOL0     H84430   4.190   3.779   4.707 -1.4070 -0.4035  0.3538
  612MOL0     H84431   4.210   3.937   4.642 -0.4475  0.7564 -0.2268
  612MOL0     H84432   4.108   3.858   4.422  0.2365  1.1983  0.9633
  612MOL0     H84433   4.099   3.694   4.482 -1.2040 -0.3257  1.1542
  612MOL0     H84434   4.343   3.710   4.528  0.4596 -2.2218 -2.3404
  612MOL0     H84435   4.348   3.872   4.448 -1.4233  0.7147  0.0940
  612MOL0     H84436   3.508   3.968   5.408 -0.0603  0.8268  0.8591
  612MOL0     H84437   3.296   4.022   5.476 -0.8953 -0.4373  0.3990
  612MOL0     H84438   2.947   3.886   5.524 -0.7744 -0.2798 -3.1690
  612MOL0     H84439   2.757   3.870   5.690 -2.2236  0.3525  0.7738
  612MOL0     H84440   1.332   3.265   5.182 -0.8530  1.8703  0.3993
  612MOL0     H84441   1.118   3.424   5.161  0.3864  0.5470  1.2450
  612MOL0     H84442   0.527   3.440   5.379 -0.7234  1.3047  0.8478
  612MOL0     H84443   0.353   3.594   5.274  0.2172  1.1102  0.2426
  612MOL0     H84444   0.309   3.791   5.203 -0.6107 -3.7987 -0.2588
  612MOL0     H84445   0.294   3.903   5.077  2.2506  0.0001  2.5133
  612MOL0     H84446   0.083   3.784   5.143 -1.5739 -0.5554 -2.6422
  612MOL0     H84447   0.158   3.627   5.146  2.1497  0.0561 -0.4579
  612MOL0     H84448   0.047   3.799   4.909  0.1124 -1.2999  0.8041
  612MOL0     H84449   0.152   3.668   4.880 -0.5535  1.4162 -1.9543
  612MOL0     H84450   0.003   3.512   5.012  3.0115  1.7077  2.1361
  612MOL0     H84451  -0.059   3.567   4.860 -3.4888  0.8990  0.1622
  612MOL0     H84452  -0.325   3.735   5.153 -0.2263 -0.1952 -0.6225
  612MOL0     H84453   0.574   3.627   4.922  2.9133 -1.3902 -0.7296
  612MOL0     H84454   0.760   3.360   4.937  1.1013  0.2680 -0.4144
  612MOL0     H84455   0.780   3.525   4.877  1.6969 -1.7354 -0.7073
  612MOL0     H84456   0.880   3.456   5.007  0.9049 -1.8127 -0.5992
  613MOL0     O84457   2.210   9.554   3.509  0.2861  0.1000  0.2831
  613MOL0     C84458   2.176   9.620   3.410 -0.2685  0.0901  0.7385
  613MOL0     O84459   2.255   9.714   3.355 -0.2914 -0.3337 -0.1212
  613MOL0     C84460   2.379   9.716   3.400 -0.2804 -0.4853 -0.3780
  613MOL0     C84461   2.417   9.823   3.478  0.2479  0.4129  0.3091
  613MOL0     C84462   2.549   9.834   3.523 -0.0666  0.1284 -0.7988
  613MOL0     C84463   2.644   9.736   3.499  0.3950 -0.9640 -0.1317
  613MOL0     O84464   2.774   9.736   3.548  0.3223 -0.1150  0.8346
  613MOL0     C84465   2.822   9.821   3.648  0.6060 -0.2752  0.2191
  613MOL0     C84466   2.965   9.790   3.682  0.4592 -0.0334  0.6132
  613MOL0     C84467   3.064   9.837   3.574 -0.1624 -0.7890 -0.6768
  613MOL0     C84468   3.207   9.831   3.625 -0.8323  0.0398 -0.2859
  613MOL0     C84469   3.314   9.855   3.512 -0.2380  1.5966  0.3173
  613MOL0     C84470   3.446   9.872   3.567  0.4926 -0.5326  0.4369
  613MOL0     C84471   3.502   9.744   3.623 -0.0552  0.6594 -0.9771
  613MOL0     C84472   3.645   9.738   3.680 -0.0915  0.2277 -0.2716
  613MOL0     N84473   3.665   9.842   3.786 -0.7911  0.4191  0.4764
  613MOL0     C84474   3.688   9.978   3.778  0.1566 -0.7282  0.2181
  613MOL0     C84475   3.679  10.030   3.907  0.4794 -0.0632 -0.3159
  613MOL0     C84476   3.679  10.171   3.948 -0.3677 -0.2348 -0.6881
  613MOL0     C84477   3.813  10.191   4.028  0.2576 -0.9913  0.1785
  613MOL0     C84478   3.838  10.343   4.060  0.1117  1.0010  0.5088
  613MOL0     C84479   3.741  10.418   4.139  1.0770  1.3698 -0.5978
  613MOL0     O84480   3.733  10.353   4.266 -0.4598 -0.3089 -0.2296
  613MOL0     C84481   3.842  10.367   4.351 -0.3943 -0.6579  0.8661
  613MOL0     C84482   3.905  10.490   4.378 -0.1087 -0.9352  0.5788
  613MOL0     C84483   4.014  10.498   4.457  0.4188  0.1018 -1.1564
  613MOL0     C84484   4.056  10.638   4.485  0.3049  0.2990  0.5061
  613MOL0     C84485   4.059  10.382   4.526 -0.7256  0.6119  0.4973
  613MOL0     C84486   4.188  10.375   4.603  0.5022  0.4962  0.8016
  613MOL0     O84487   4.298  10.443   4.553  0.2123 -0.7419  0.6524
  613MOL0     C84488   4.411  10.436   4.624 -0.2315  0.9864 -0.0629
  613MOL0     C84489   4.507  10.338   4.598  0.2200 -0.2789  1.0093
  613MOL0     C84490   4.637  10.337   4.667  0.3665  0.7391 -1.0659
  613MOL0     C84491   4.661  10.442   4.761  0.2900  1.0208  0.3123
  613MOL0     O84492   4.778  10.440   4.829 -0.3312 -0.3009  0.9500
  613MOL0     C84493   4.841  10.560   4.859 -0.1681 -0.6026  0.7325
  613MOL0     C84494   4.993  10.545   4.862  0.1405  0.4679  0.4981
  613MOL0     C84495   5.052  10.673   4.927 -0.1290  0.1921 -0.6733
  613MOL0     C84496   5.207  10.651   4.933  0.0542  0.6374  0.9993
  613MOL0     C84497   5.278  10.775   4.971 -1.3089  0.4628  0.0055
  613MOL0     C84498   5.426  10.764   5.003 -0.7581  0.4523 -0.1045
  613MOL0     C84499   5.484  10.905   5.024 -0.1638  0.2492 -0.5014
  613MOL0     C84500   5.628  10.921   5.086  1.1606 -0.6653  1.4116
  613MOL0    Cl84501   5.658  11.086   5.152 -0.2630 -0.2481  0.1197
  613MOL0     C84502   4.565  10.542   4.784  0.5128 -0.1744 -0.1445
  613MOL0     C84503   4.441  10.538   4.718  0.1653  0.3648 -0.2651
  613MOL0     O84504   4.188  10.297   4.687 -0.1559  0.1143 -0.6981
  613MOL0     C84505   3.990  10.254   4.493 -0.0371 -0.6180 -0.0948
  613MOL0     C84506   3.885  10.247   4.401  0.8381 -0.2592  0.4146
  613MOL0     N84507   3.643   9.927   3.989 -0.4057 -0.3153 -0.5342
  613MOL0     N84508   3.632   9.824   3.920  0.6841  0.0874 -0.1025
  613MOL0     C84509   2.599   9.626   3.424 -0.0930  0.1039  0.1661
  613MOL0     C84510   2.476   9.620   3.370 -0.0037 -0.2619  1.1739
  613MOL0     C84511   2.041   9.584   3.335  0.4328 -0.0946 -0.0452
  613MOL0     C84512   2.000   9.680   3.247  0.6477  0.1032  0.3854
  613MOL0     C84513   1.892   9.663   3.156 -1.0021  1.1237  0.0977
  613MOL0     C84514   1.807   9.547   3.174 -0.0964 -0.3593  0.4422
  613MOL0     O84515   1.696   9.530   3.100 -0.3924 -0.0359  0.2193
  613MOL0     C84516   1.663   9.615   2.984 -0.1919  0.1241 -0.7538
  613MOL0     C84517   1.562   9.554   2.880  0.3954 -0.1422  0.0594
  613MOL0     C84518   1.584   9.628   2.748 -0.7960 -0.3611 -0.4761
  613MOL0     C84519   1.484   9.585   2.637 -0.1326  0.9907 -0.4551
  613MOL0     C84520   1.471   9.668   2.519  0.4721 -0.1295  0.5950
  613MOL0     C84521   1.445   9.743   2.427  0.4078  0.3587  0.2153
  613MOL0     C84522   1.851   9.449   3.262 -0.5192 -0.4544 -0.2566
  613MOL0     C84523   1.968   9.464   3.341 -0.0926 -0.6577 -0.9083
  613MOL0     C84524   2.014   9.356   3.440 -0.3746 -0.8603  0.8900
  613MOL0     H84525   2.344   9.896   3.511  0.2234  0.5281  0.0058
  613MOL0     H84526   2.583   9.926   3.570  0.0218 -1.3116  2.1705
  613MOL0     H84527   2.755   9.804   3.733  1.0126  0.8300  0.7821
  613MOL0     H84528   2.803   9.926   3.625 -0.5988 -0.9339 -2.0569
  613MOL0     H84529   2.992   9.848   3.772  2.6799  0.6490 -0.4050
  613MOL0     H84530   2.983   9.683   3.692 -2.3714 -0.6134  0.2076
  613MOL0     H84531   3.040   9.774   3.488 -0.8681  0.3870 -1.3758
  613MOL0     H84532   3.048   9.941   3.544 -1.8519 -1.3493 -1.8358
  613MOL0     H84533   3.217   9.902   3.708  0.3613 -2.3336  1.7266
  613MOL0     H84534   3.213   9.733   3.671 -0.5471 -0.3369 -1.1021
  613MOL0     H84535   3.278   9.941   3.454 -0.9684  1.6329  0.8111
  613MOL0     H84536   3.306   9.768   3.446 -1.7806  2.1700 -0.2901
  613MOL0     H84537   3.509   9.904   3.484 -0.8469 -0.3932 -0.5609
  613MOL0     H84538   3.441   9.951   3.643 -3.0773 -1.6626  1.5806
  613MOL0     H84539   3.501   9.660   3.553  1.4390  2.0069 -2.6930
  613MOL0     H84540   3.439   9.722   3.711  2.6099 -0.3302  0.8294
  613MOL0     H84541   3.669   9.644   3.730 -0.1120  0.5703  0.3979
  613MOL0     H84542   3.714   9.751   3.596  2.1157  0.7330  1.5055
  613MOL0     H84543   3.703  10.041   3.691 -2.2926 -1.6148 -0.9635
  613MOL0     H84544   3.595  10.195   4.013 -0.7275 -0.1502 -1.1843
  613MOL0     H84545   3.682  10.240   3.863  1.7286 -1.5642 -1.7684
  613MOL0     H84546   3.801  10.132   4.119  0.5426 -0.8587  0.2993
  613MOL0     H84547   3.898  10.162   3.966 -0.9460 -0.9854 -1.5766
  613MOL0     H84548   3.936  10.354   4.107  0.1952  2.9852 -0.0480
  613MOL0     H84549   3.848  10.398   3.966 -1.5940 -2.9390 -2.2683
  613MOL0     H84550   3.791  10.514   4.155  2.3557  0.6815 -0.3257
  613MOL0     H84551   3.650  10.428   4.079  0.7161 -1.6267 -0.6718
  613MOL0     H84552   3.853  10.581   4.348  0.6104 -0.1776  1.5451
  613MOL0     H84553   4.134  10.636   4.562 -0.3883 -0.7242  1.2154
  613MOL0     H84554   3.973  10.695   4.528 -0.9302 -0.2021 -1.1225
  613MOL0     H84555   4.086  10.681   4.389 -4.4725  0.0365 -1.3835
  613MOL0     H84556   4.486  10.275   4.512  1.0913  2.6996 -1.6075
  613MOL0     H84557   4.715  10.264   4.648  0.3685  1.1178 -2.6596
  613MOL0     H84558   4.814  10.640   4.790 -0.1906 -3.5505 -2.9417
  613MOL0     H84559   4.807  10.589   4.959  0.6013  0.7891  0.6148
  613MOL0     H84560   5.005  10.453   4.921 -2.1039  0.5387  1.1613
  613MOL0     H84561   5.034  10.530   4.762  0.0517  0.0552  0.5190
  613MOL0     H84562   5.029  10.674   5.034  2.0455 -2.9769 -0.0553
  613MOL0     H84563   5.016  10.767   4.884  3.1491  1.7205 -0.3941
  613MOL0     H84564   5.234  10.613   4.834  0.1143  0.6310  1.0187
  613MOL0     H84565   5.227  10.574   5.007 -2.0080 -2.4630 -1.3738
  613MOL0     H84566   5.256  10.848   4.892  1.7618  1.8450  0.2874
  613MOL0     H84567   5.234  10.811   5.064 -0.4830 -0.3158  0.7094
  613MOL0     H84568   5.476  10.720   4.917  3.0117  1.5366  1.3112
  613MOL0     H84569   5.449  10.695   5.085 -1.7815 -1.0383 -1.0364
  613MOL0     H84570   5.414  10.962   5.085  2.4675  2.5017  0.6395
  613MOL0     H84571   5.492  10.966   4.933  2.3675  1.0803  0.1860
  613MOL0     H84572   5.696  10.901   5.002 -0.7344 -0.5868 -0.2156
  613MOL0     H84573   5.643  10.850   5.167 -0.3194 -0.2748  2.0524
  613MOL0     H84574   4.595  10.616   4.856 -0.8892 -1.5544  1.9918
  613MOL0     H84575   4.365  10.612   4.741  2.2575  2.8204 -0.8274
  613MOL0     H84576   4.041  10.168   4.534  2.4667  1.5990  1.8385
  613MOL0     H84577   3.839  10.152   4.376 -2.9580  1.8438 -1.6525
  613MOL0     H84578   2.663   9.539   3.420 -0.9449 -0.5538  0.3270
  613MOL0     H84579   2.452   9.544   3.297  0.0721  0.6089  0.2126
  613MOL0     H84580   2.059   9.771   3.241  0.2028  0.3245 -1.1495
  613MOL0     H84581   1.872   9.737   3.080  0.1970  3.8970  2.3009
  613MOL0     H84582   1.618   9.705   3.027  0.5271 -1.6678  4.4659
  613MOL0     H84583   1.761   9.638   2.940  0.5700 -1.0278  0.2607
  613MOL0     H84584   1.461   9.575   2.916 -0.3227 -0.1178 -1.8844
  613MOL0     H84585   1.567   9.446   2.865 -1.0433 -0.0770 -1.0295
  613MOL0     H84586   1.570   9.736   2.757  0.9604 -0.2710  3.6911
  613MOL0     H84587   1.683   9.606   2.706 -0.1021 -1.6065  1.6569
  613MOL0     H84588   1.384   9.584   2.682 -0.9680  0.5479 -2.2620
  613MOL0     H84589   1.508   9.485   2.600  2.7022  2.0158 -1.6562
  613MOL0     H84590   1.431   9.810   2.344 -0.3196  2.6930  2.1180
  613MOL0     H84591   1.802   9.354   3.276  0.1430 -0.9636 -1.2772
  613MOL0     H84592   1.936   9.279   3.451 -0.0231 -1.4225 -0.3823
  613MOL0     H84593   2.115   9.317   3.427 -0.6608 -1.4540  0.3363
  613MOL0     H84594   2.012   9.406   3.537 -1.8812  0.4667  0.2257
  614MOL0     O84595   1.557   4.193   3.421  0.7456  0.2335  0.2460
  614MOL0     C84596   1.566   4.116   3.517 -0.3726  0.0322  0.8743
  614MOL0     O84597   1.689   4.100   3.582 -0.3279  0.7731  0.2280
  614MOL0     C84598   1.798   4.174   3.544  0.0237 -0.0624  1.1485
  614MOL0     C84599   1.912   4.111   3.502 -0.4969 -0.0423 -0.1956
  614MOL0     C84600   2.038   4.173   3.474 -0.5140 -0.5106  0.2554
  614MOL0     C84601   2.035   4.320   3.480  0.7458  0.1842 -0.1205
  614MOL0     O84602   2.138   4.409   3.444  0.0626 -0.4176  0.3595
  614MOL0     C84603   2.261   4.341   3.444 -0.7818  0.1415 -0.0575
  614MOL0     C84604   2.367   4.432   3.367  0.2673 -0.0366  0.1015
  614MOL0     C84605   2.374   4.572   3.432 -0.4483  0.1299 -0.1358
  614MOL0     C84606   2.492   4.653   3.378  0.1844 -0.2668  0.2928
  614MOL0     C84607   2.477   4.699   3.236  0.2013  0.2604 -0.8058
  614MOL0     C84608   2.587   4.790   3.183 -0.1221 -1.2668  0.4500
  614MOL0     C84609   2.730   4.738   3.198  0.0224 -0.3620 -0.3621
  614MOL0     C84610   2.836   4.851   3.192  0.7274  0.7719 -0.1865
  614MOL0     N84611   2.967   4.795   3.178  0.6787 -0.3459  0.0903
  614MOL0     C84612   3.049   4.747   3.272  0.8223  0.0984 -1.3588
  614MOL0     C84613   3.137   4.657   3.221  0.1841 -0.1316 -0.4635
  614MOL0     C84614   3.248   4.583   3.294 -0.4649 -0.6562 -0.1052
  614MOL0     C84615   3.376   4.668   3.324  0.3887  0.5919 -0.4565
  614MOL0     C84616   3.438   4.746   3.204 -0.0329 -0.3694  0.2239
  614MOL0     C84617   3.567   4.814   3.239  0.1236  0.3581 -0.1272
  614MOL0     O84618   3.630   4.842   3.118  0.8790 -0.1957  0.0054
  614MOL0     C84619   3.758   4.898   3.111 -0.2237  1.3516  0.1889
  614MOL0     C84620   3.824   4.907   2.988 -0.0787 -0.2386  0.3882
  614MOL0     C84621   3.950   4.966   2.983 -0.8388  0.0565  0.2613
  614MOL0     C84622   4.021   4.963   2.843 -0.5745 -1.0149  0.5719
  614MOL0     C84623   4.018   5.015   3.096  0.3006 -0.2182  0.0069
  614MOL0     C84624   4.157   5.073   3.103  0.1213 -0.3079 -0.1194
  614MOL0     O84625   4.209   5.123   2.984 -0.2971 -1.3720  0.4178
  614MOL0     C84626   4.332   5.194   2.999  0.6623  0.7245  0.2750
  614MOL0     C84627   4.440   5.152   2.924  0.2226  0.7583 -0.5709
  614MOL0     C84628   4.562   5.226   2.909  0.0617 -0.4218 -0.2096
  614MOL0     C84629   4.577   5.343   2.988  0.6310  1.0686 -0.0973
  614MOL0     O84630   4.701   5.413   2.977 -0.1001  0.0953  0.0557
  614MOL0     C84631   4.706   5.550   3.017  1.0167  0.3877 -0.4917
  614MOL0     C84632   4.835   5.614   2.972  0.1322  0.5212  0.2342
  614MOL0     C84633   4.955   5.558   3.065  0.1938 -0.0129  0.1998
  614MOL0     C84634   5.074   5.663   3.086  0.0968  0.2697  0.1809
  614MOL0     C84635   5.161   5.645   2.966 -0.9792  0.0618  0.1615
  614MOL0     C84636   5.310   5.709   2.975  0.0216 -0.3356  0.0386
  614MOL0     C84637   5.393   5.687   2.848  0.2360  0.7443  0.3374
  614MOL0     C84638   5.521   5.766   2.865  0.4655 -0.1811 -0.2611
  614MOL0    Cl84639   5.628   5.688   2.999 -0.5351 -0.1885  0.4315
  614MOL0     C84640   4.470   5.377   3.079  0.0388 -0.8320 -0.2581
  614MOL0     C84641   4.345   5.315   3.068  0.6358  0.3281  0.2163
  614MOL0     O84642   4.209   5.064   3.212 -0.1273 -0.8683 -0.0154
  614MOL0     C84643   3.939   5.016   3.215 -0.5542  0.6911 -0.5602
  614MOL0     C84644   3.812   4.954   3.226  0.6903 -0.9367  0.4265
  614MOL0     N84645   3.105   4.665   3.085 -0.1564 -0.1912 -0.3345
  614MOL0     N84646   3.005   4.741   3.058  0.4135  0.0761  0.9608
  614MOL0     C84647   1.916   4.384   3.504  0.1687 -0.0674 -0.8018
  614MOL0     C84648   1.796   4.313   3.539 -0.5048  0.8123  0.4904
  614MOL0     C84649   1.464   4.011   3.535 -0.1555  0.0750 -0.8725
  614MOL0     C84650   1.492   3.903   3.624 -0.7889  1.2489 -0.3480
  614MOL0     C84651   1.395   3.809   3.653  0.6249 -0.0082 -0.0471
  614MOL0     C84652   1.264   3.817   3.599  0.1381  0.0861  0.7090
  614MOL0     O84653   1.163   3.728   3.620  0.0440  0.3092 -0.2632
  614MOL0     C84654   1.169   3.640   3.734  0.5617  0.2851  0.0317
  614MOL0     C84655   1.038   3.561   3.764 -0.2007  0.0392  0.3830
  614MOL0     C84656   0.922   3.664   3.787  0.6561 -0.7209 -0.5163
  614MOL0     C84657   0.904   3.698   3.934  0.3925  0.1773  0.5763
  614MOL0     C84658   1.006   3.788   3.997  0.0551  0.0106  0.4297
  614MOL0     C84659   1.082   3.866   4.048  0.1300 -0.9103 -0.1213
  614MOL0     C84660   1.239   3.926   3.514  0.0346 -0.9380 -0.0407
  614MOL0     C84661   1.332   4.028   3.481  0.6394  0.6320  0.7615
  614MOL0     C84662   1.270   4.142   3.393  1.8342 -0.6185 -0.0545
  614MOL0     H84663   1.915   4.004   3.483  0.0594 -0.3399  1.4338
  614MOL0     H84664   2.121   4.111   3.441 -1.9206 -0.9936 -2.6213
  614MOL0     H84665   2.261   4.250   3.384 -2.9485  0.4667 -0.6137
  614MOL0     H84666   2.303   4.317   3.542 -1.4453 -1.4760 -0.1483
  614MOL0     H84667   2.460   4.377   3.385  1.6867  1.6462 -1.7242
  614MOL0     H84668   2.341   4.444   3.262 -2.0465  0.8180  0.7093
  614MOL0     H84669   2.285   4.625   3.397  0.5691  1.4715 -0.8004
  614MOL0     H84670   2.385   4.576   3.541  0.9853  0.9228 -0.2835
  614MOL0     H84671   2.512   4.740   3.441  0.0099 -0.1021  0.1230
  614MOL0     H84672   2.583   4.594   3.390 -0.2156 -0.7577  0.9371
  614MOL0     H84673   2.382   4.752   3.227 -1.6429 -2.5288  1.0068
  614MOL0     H84674   2.475   4.616   3.165 -2.1119  1.8327 -2.7671
  614MOL0     H84675   2.564   4.813   3.078 -1.3211 -1.5775  0.6246
  614MOL0     H84676   2.580   4.886   3.233  2.8913 -0.0627 -1.1467
  614MOL0     H84677   2.751   4.662   3.123 -2.8103 -0.9401 -0.6614
  614MOL0     H84678   2.753   4.692   3.295  0.8728  0.3939 -0.1977
  614MOL0     H84679   2.821   4.918   3.107  4.2414  0.9713 -0.8015
  614MOL0     H84680   2.827   4.923   3.273 -2.2639 -0.2604  0.5170
  614MOL0     H84681   3.034   4.783   3.373  1.7826 -0.3256 -1.0531
  614MOL0     H84682   3.269   4.498   3.229 -0.5284  0.9526 -2.3544
  614MOL0     H84683   3.211   4.553   3.392 -3.5173 -0.8933 -1.2066
  614MOL0     H84684   3.362   4.721   3.419 -2.9969 -1.8102  0.5835
  614MOL0     H84685   3.441   4.582   3.345 -0.3740 -0.2980 -1.6158
  614MOL0     H84686   3.452   4.673   3.124 -0.3511  2.8965 -3.0901
  614MOL0     H84687   3.367   4.824   3.173  1.5666  2.8256  3.7699
  614MOL0     H84688   3.542   4.907   3.290 -1.0690  0.4442 -0.8491
  614MOL0     H84689   3.625   4.749   3.306 -2.4159 -1.4768  0.4443
  614MOL0     H84690   3.776   4.877   2.896 -2.7459  2.9433  0.5280
  614MOL0     H84691   4.040   5.065   2.809 -4.3898  1.3081  4.3075
  614MOL0     H84692   3.959   4.910   2.770 -1.3247 -0.3954  0.7414
  614MOL0     H84693   4.119   4.917   2.854 -0.5225 -0.6657  1.6938
  614MOL0     H84694   4.429   5.069   2.855  0.8091 -2.0459  2.4309
  614MOL0     H84695   4.646   5.190   2.850  0.7728 -1.0460  1.1436
  614MOL0     H84696   4.616   5.598   2.978  0.6468 -0.0986 -0.2465
  614MOL0     H84697   4.697   5.553   3.126  0.0485 -0.2976 -0.5390
  614MOL0     H84698   4.848   5.605   2.863  0.7373 -0.7758  0.3933
  614MOL0     H84699   4.828   5.721   2.991  1.9490  0.5657  0.8648
  614MOL0     H84700   5.002   5.470   3.020  3.7324  0.1418  3.0779
  614MOL0     H84701   4.911   5.537   3.163 -0.8291  0.5847 -0.1192
  614MOL0     H84702   5.135   5.642   3.174  1.9381  0.5402 -0.9706
  614MOL0     H84703   5.035   5.765   3.083 -0.6745 -0.0205  0.1367
  614MOL0     H84704   5.172   5.542   2.931 -0.0637  0.3369 -0.4185
  614MOL0     H84705   5.118   5.694   2.878  0.8627  2.0467  0.2847
  614MOL0     H84706   5.364   5.659   3.056 -1.6778 -0.8924  0.8753
  614MOL0     H84707   5.295   5.815   2.997 -0.9681 -0.1137 -1.5656
  614MOL0     H84708   5.341   5.724   2.759 -2.5083 -0.3797  1.3548
  614MOL0     H84709   5.409   5.581   2.827 -0.5940  1.0835 -2.4398
  614MOL0     H84710   5.491   5.870   2.885 -0.4642 -0.2676 -1.1139
  614MOL0     H84711   5.575   5.773   2.769  0.3151  1.5198 -0.2595
  614MOL0     H84712   4.464   5.454   3.156 -3.2697 -1.3697  0.1838
  614MOL0     H84713   4.263   5.339   3.134 -0.1456 -1.3912 -0.0687
  614MOL0     H84714   3.973   5.066   3.305  1.4877  0.6652 -1.2559
  614MOL0     H84715   3.761   4.958   3.322  1.6221  0.5704  0.8988
  614MOL0     H84716   1.913   4.492   3.516  0.3128 -0.0236 -1.1526
  614MOL0     H84717   1.708   4.370   3.567 -0.8355  0.7534 -0.3843
  614MOL0     H84718   1.589   3.893   3.672 -0.9514 -0.4813 -0.2918
  614MOL0     H84719   1.425   3.722   3.711  3.6514 -0.6149 -2.2409
  614MOL0     H84720   1.245   3.563   3.718 -0.0999 -0.0125 -1.8906
  614MOL0     H84721   1.194   3.700   3.822 -0.9543 -2.1178  2.2603
  614MOL0     H84722   1.042   3.487   3.844  0.9224  1.4963  1.7393
  614MOL0     H84723   0.999   3.503   3.679 -2.9607  0.0857  1.5041
  614MOL0     H84724   0.939   3.750   3.722 -0.6941  0.1430  0.2251
  614MOL0     H84725   0.828   3.618   3.756  0.2598 -1.0837  1.1046
  614MOL0     H84726   0.895   3.611   4.000 -1.1940  0.1519  0.3480
  614MOL0     H84727   0.804   3.739   3.948  0.5946  0.8109  0.1977
  614MOL0     H84728   1.154   3.925   4.102 -1.5459  0.2887  0.9084
  614MOL0     H84729   1.143   3.938   3.466 -1.2137 -0.1133  2.5213
  614MOL0     H84730   1.258   4.236   3.447  1.3262  1.2738 -3.1777
  614MOL0     H84731   1.332   4.173   3.309 -0.0090  1.2152 -0.8209
  614MOL0     H84732   1.173   4.113   3.351  2.4100 -1.5323 -0.8164
  615MOL0     O84733   3.199   2.911   4.053  0.9537  0.5005  0.3935
  615MOL0     C84734   3.098   2.987   4.063  0.7739 -0.6960 -0.0287
  615MOL0     O84735   3.099   3.119   4.017 -0.1344  0.5776 -0.6022
  615MOL0     C84736   3.205   3.169   3.946  0.1915  0.2738  0.4766
  615MOL0     C84737   3.294   3.102   3.862  0.2828  0.3825  0.8540
  615MOL0     C84738   3.403   3.170   3.801  0.0482  0.4671 -0.5066
  615MOL0     C84739   3.428   3.305   3.824 -0.2444 -0.1627  0.5602
  615MOL0     O84740   3.522   3.375   3.764 -0.5387  1.1912 -0.6233
  615MOL0     C84741   3.547   3.341   3.629 -0.2316 -0.0543 -1.0862
  615MOL0     C84742   3.633   3.448   3.567  0.7508  0.1964 -0.1482
  615MOL0     C84743   3.778   3.447   3.609 -0.0172  0.1554  0.0184
  615MOL0     C84744   3.867   3.499   3.498 -1.1732 -0.0906 -0.0654
  615MOL0     C84745   4.014   3.515   3.538  0.0837  0.7440 -0.0219
  615MOL0     C84746   4.080   3.379   3.572  0.1790  0.3637  0.7328
  615MOL0     C84747   4.096   3.278   3.459 -0.6719 -0.2422 -0.0472
  615MOL0     C84748   4.167   3.149   3.491 -0.4462 -0.2998 -0.1299
  615MOL0     N84749   4.302   3.168   3.477  0.3354 -0.7483  0.4320
  615MOL0     C84750   4.390   3.209   3.573  0.3630 -0.4955 -0.0354
  615MOL0     C84751   4.509   3.219   3.512 -0.0321  0.1030  0.5213
  615MOL0     C84752   4.643   3.246   3.580 -0.4217 -0.1118 -0.3217
  615MOL0     C84753   4.748   3.145   3.534  0.7337  0.4074 -0.3044
  615MOL0     C84754   4.755   3.030   3.634  0.5844 -0.0766  0.3030
  615MOL0     C84755   4.858   2.932   3.598  0.3650 -0.8518  0.2122
  615MOL0     O84756   4.886   2.838   3.712 -0.7291  0.1984  0.4731
  615MOL0     C84757   4.992   2.880   3.782 -0.5929 -0.5458  0.2326
  615MOL0     C84758   4.975   2.918   3.912 -0.6500  0.6513  0.2881
  615MOL0     C84759   5.088   2.957   3.993  0.0525  0.5164 -0.5441
  615MOL0     C84760   5.052   2.984   4.140 -0.4083  0.4629  0.5903
  615MOL0     C84761   5.219   2.973   3.935  0.3806  0.7867  0.7060
  615MOL0     C84762   5.339   3.019   4.013  0.4435 -0.1084 -0.5082
  615MOL0     O84763   5.455   2.995   3.942  0.2649  0.1420  0.8075
  615MOL0     C84764   5.575   3.051   3.992  0.7650 -0.5323  0.0421
  615MOL0     C84765   5.610   3.186   3.966 -0.2238 -1.2438 -0.1734
  615MOL0     C84766   5.742   3.228   4.001 -0.0297 -0.1129 -1.0009
  615MOL0     C84767   5.838   3.129   4.048  0.2729 -0.4149  0.1286
  615MOL0     O84768   5.969   3.159   4.047 -0.6260 -0.1216  0.9037
  615MOL0     C84769   6.066   3.096   4.128  0.7781 -0.7068 -0.0785
  615MOL0     C84770   6.209   3.114   4.083 -0.0693  0.5767  0.3737
  615MOL0     C84771   6.241   3.030   3.954  0.5901 -0.4144  0.3334
  615MOL0     C84772   6.379   3.065   3.901 -0.4275 -0.2218  0.8417
  615MOL0     C84773   6.496   2.974   3.961  0.2159 -0.4751 -0.1023
  615MOL0     C84774   6.631   3.023   3.898  0.5774 -0.9549  0.0434
  615MOL0     C84775   6.749   2.945   3.942 -0.5582 -0.3994  0.0578
  615MOL0     C84776   6.781   2.948   4.091  0.4262 -0.5210 -0.5984
  615MOL0    Cl84777   6.955   2.949   4.115  0.4119 -0.1444 -0.3386
  615MOL0     C84778   5.783   3.011   4.095 -0.2765 -0.2677 -0.3991
  615MOL0     C84779   5.660   2.962   4.059 -0.9972 -0.5566 -0.1935
  615MOL0     O84780   5.331   3.088   4.113 -0.4623  0.3215  0.1651
  615MOL0     C84781   5.228   2.929   3.796 -0.2770 -0.3560 -0.4257
  615MOL0     C84782   5.117   2.885   3.723  0.1087 -0.8983 -0.2440
  615MOL0     N84783   4.493   3.200   3.376 -0.5205  0.7038 -0.5185
  615MOL0     N84784   4.369   3.156   3.354  0.0899  0.4788  0.2296
  615MOL0     C84785   3.332   3.374   3.901  0.7305  0.4683 -0.2400
  615MOL0     C84786   3.228   3.302   3.963 -0.0390  0.3463 -0.0619
  615MOL0     C84787   2.962   2.929   4.098  0.3506  0.0732  0.5447
  615MOL0     C84788   2.856   3.014   4.095 -0.3999  0.1334 -0.4931
  615MOL0     C84789   2.732   2.971   4.148  0.4777  0.5960  0.2224
  615MOL0     C84790   2.707   2.847   4.202  0.2988 -0.4319 -0.7416
  615MOL0     O84791   2.580   2.832   4.259  0.1512 -0.3400 -0.6313
  615MOL0     C84792   2.560   2.713   4.332 -0.5005 -0.2460 -0.2840
  615MOL0     C84793   2.404   2.710   4.376 -0.0111 -0.4751  0.0788
  615MOL0     C84794   2.401   2.756   4.521 -0.2947  0.8425 -0.3110
  615MOL0     C84795   2.486   2.884   4.563 -0.6817  0.0555 -0.8882
  615MOL0     C84796   2.430   2.945   4.681  0.4642  0.7556  0.3909
  615MOL0     C84797   2.368   2.978   4.785 -0.3065  0.2149  0.1467
  615MOL0     C84798   2.812   2.760   4.212 -0.2796 -1.1695 -0.8667
  615MOL0     C84799   2.939   2.800   4.161 -0.4110  0.0307  0.2043
  615MOL0     C84800   3.048   2.693   4.175  0.1514  0.1520 -0.3487
  615MOL0     H84801   3.277   2.996   3.842  1.1968  0.4932 -0.6584
  615MOL0     H84802   3.469   3.104   3.745 -1.5689 -0.8919 -0.8995
  615MOL0     H84803   3.448   3.335   3.584 -1.7204  0.1122  1.9683
  615MOL0     H84804   3.599   3.245   3.619  0.8638  0.2976  0.7999
  615MOL0     H84805   3.627   3.417   3.462  0.6850 -0.3374  0.0091
  615MOL0     H84806   3.585   3.545   3.583  1.1580  0.0687  2.1774
  615MOL0     H84807   3.779   3.508   3.700  0.2277  0.8889 -0.4789
  615MOL0     H84808   3.812   3.345   3.633  2.4032  0.9519  0.2173
  615MOL0     H84809   3.870   3.427   3.416 -1.1345 -0.3099  0.1273
  615MOL0     H84810   3.829   3.594   3.460 -3.2856 -0.4645  1.0072
  615MOL0     H84811   4.019   3.589   3.619 -0.2755  0.0919  0.6080
  615MOL0     H84812   4.072   3.557   3.456  0.0253  0.4384 -0.2205
  615MOL0     H84813   4.183   3.398   3.605  1.2306 -0.8821 -1.6365
  615MOL0     H84814   4.032   3.326   3.655  1.1548  0.2232  1.2164
  615MOL0     H84815   4.145   3.330   3.376  0.0448  1.2423  1.2529
  615MOL0     H84816   3.996   3.247   3.428  0.3261 -2.4790 -1.2588
  615MOL0     H84817   4.146   3.118   3.594  0.3052  1.0466  0.4514
  615MOL0     H84818   4.141   3.073   3.417 -1.1094 -0.2525  0.0475
  615MOL0     H84819   4.366   3.217   3.679 -3.1616 -2.1918 -0.5593
  615MOL0     H84820   4.641   3.231   3.688 -0.4469 -0.7614 -0.4068
  615MOL0     H84821   4.682   3.344   3.551  0.4276 -0.2550  0.2939
  615MOL0     H84822   4.717   3.092   3.443  0.4175  3.2557 -1.9654
  615MOL0     H84823   4.846   3.191   3.523  2.9118 -3.4000  1.1320
  615MOL0     H84824   4.773   3.083   3.728  1.6315  1.6038 -0.7800
  615MOL0     H84825   4.659   2.978   3.641  1.6555 -2.1262  0.4165
  615MOL0     H84826   4.840   2.904   3.494  1.2247  1.3354 -0.5718
  615MOL0     H84827   4.949   2.991   3.586  0.5075 -1.2260 -0.6176
  615MOL0     H84828   4.874   2.916   3.951 -1.0979  1.0281 -0.8213
  615MOL0     H84829   5.052   3.092   4.156  2.4531  0.6274  0.0128
  615MOL0     H84830   5.136   2.950   4.202  1.0234  1.6539 -0.6230
  615MOL0     H84831   4.952   2.942   4.155  0.5423 -3.2160 -1.9481
  615MOL0     H84832   5.548   3.265   3.924  0.6970 -0.6162 -0.3859
  615MOL0     H84833   5.766   3.328   3.967 -1.1538  0.4794 -0.1294
  615MOL0     H84834   6.059   3.147   4.225 -0.3625 -1.6689  0.3687
  615MOL0     H84835   6.046   2.991   4.148 -3.3500  0.3239  2.4215
  615MOL0     H84836   6.236   3.217   4.059 -1.0474  0.6650 -0.4064
  615MOL0     H84837   6.281   3.083   4.160 -0.5226  0.0239  0.5834
  615MOL0     H84838   6.162   3.055   3.883 -0.2983  0.1008  1.4507
  615MOL0     H84839   6.234   2.922   3.971 -3.0424  0.0293  2.7666
  615MOL0     H84840   6.412   3.167   3.920 -0.2576 -0.4577  1.8674
  615MOL0     H84841   6.364   3.039   3.796 -2.4302  0.4657  0.9010
  615MOL0     H84842   6.506   2.996   4.068  0.8190 -0.5599 -0.1406
  615MOL0     H84843   6.467   2.871   3.938 -0.7021 -0.1716 -0.3505
  615MOL0     H84844   6.645   3.131   3.914  1.2557 -0.9017 -0.8298
  615MOL0     H84845   6.627   3.014   3.789 -0.2606 -2.1915  0.1573
  615MOL0     H84846   6.838   2.987   3.894 -1.5489  2.3869  0.4859
  615MOL0     H84847   6.739   2.841   3.912  0.2148 -0.6981  0.7967
  615MOL0     H84848   6.730   2.870   4.148  0.5646  0.1728  0.4999
  615MOL0     H84849   6.753   3.046   4.130  1.5116  0.3022 -1.8018
  615MOL0     H84850   5.847   2.946   4.154 -0.9193  0.4423  1.1354
  615MOL0     H84851   5.624   2.865   4.094 -2.4462  0.2166  0.5874
  615MOL0     H84852   5.331   2.926   3.760  0.0736  2.6010  0.0460
  615MOL0     H84853   5.131   2.858   3.619  4.0222  2.9996 -1.0382
  615MOL0     H84854   3.339   3.477   3.932 -0.0477 -0.4623  3.4913
  615MOL0     H84855   3.162   3.370   4.016 -0.7538 -0.8861  0.6643
  615MOL0     H84856   2.862   3.119   4.067  0.6507  0.3133  0.3768
  615MOL0     H84857   2.648   3.039   4.140  0.8420  0.8638 -2.3331
  615MOL0     H84858   2.583   2.624   4.274 -0.0645  0.5780 -1.4087
  615MOL0     H84859   2.639   2.707   4.407  1.8505  1.1780 -2.4961
  615MOL0     H84860   2.359   2.611   4.362 -1.0134 -0.2198  1.2951
  615MOL0     H84861   2.335   2.769   4.315  0.3712  0.0031  0.1046
  615MOL0     H84862   2.295   2.772   4.545 -0.5849 -1.9521  0.7295
  615MOL0     H84863   2.421   2.669   4.584  0.0600 -1.0001 -2.7708
  615MOL0     H84864   2.481   2.969   4.494  3.8440  3.4253  2.3576
  615MOL0     H84865   2.594   2.870   4.574 -0.7742  0.0072  0.0728
  615MOL0     H84866   2.325   3.010   4.878 -0.7408  0.0540  0.0023
  615MOL0     H84867   2.811   2.658   4.249  3.0683 -2.1872 -3.1057
  615MOL0     H84868   3.072   2.658   4.075 -0.2706  2.3898 -1.2828
  615MOL0     H84869   3.133   2.749   4.215  1.1648 -2.0230  0.7604
  615MOL0     H84870   3.027   2.600   4.229  3.0320 -0.3857  0.0047
  616MOL0     O84871   7.764   5.555   6.923  0.1114 -0.5475  0.0949
  616MOL0     C84872   7.656   5.615   6.914  0.8034  0.1948 -0.1385
  616MOL0     O84873   7.637   5.750   6.924 -0.0784  0.0703  0.1068
  616MOL0     C84874   7.739   5.836   6.954  0.9602  0.0608  1.3868
  616MOL0     C84875   7.861   5.825   6.870  0.7521 -0.8546 -0.1587
  616MOL0     C84876   7.965   5.912   6.891  0.2255 -0.7263  1.1289
  616MOL0     C84877   7.954   6.012   6.989  1.0921 -0.1352  0.2706
  616MOL0     O84878   8.051   6.106   7.024  0.3459 -0.5995 -0.5911
  616MOL0     C84879   8.145   6.142   6.930 -0.3351  0.5897 -0.1258
  616MOL0     C84880   8.231   6.260   6.976 -0.5097 -0.8098 -0.4435
  616MOL0     C84881   8.341   6.307   6.869 -0.0614 -0.6903 -0.4903
  616MOL0     C84882   8.426   6.182   6.849  0.2246 -0.0852 -0.0177
  616MOL0     C84883   8.559   6.224   6.785  0.2684  0.1958 -0.0361
  616MOL0     C84884   8.677   6.112   6.803  0.8442 -0.3563 -0.3535
  616MOL0     C84885   8.813   6.139   6.747 -0.5692  0.0572 -0.2970
  616MOL0     C84886   8.912   6.039   6.800  0.1743  0.1223 -0.4227
  616MOL0     N84887   9.027   6.033   6.716  0.0682 -0.0895  0.0306
  616MOL0     C84888   9.112   5.923   6.708  1.0084  0.4208  0.4863
  616MOL0     C84889   9.214   5.968   6.643  0.0430 -0.2449  0.4939
  616MOL0     C84890   9.332   5.880   6.607  0.1461  0.4226 -0.1899
  616MOL0     C84891   9.453   5.967   6.593  1.1200 -0.4484  0.0947
  616MOL0     C84892   9.586   5.893   6.604 -0.0525  0.2586 -0.2122
  616MOL0     C84893   9.711   5.981   6.575  0.7309 -0.9091 -0.4475
  616MOL0     O84894   9.822   5.900   6.552  0.6567 -0.2697  0.2447
  616MOL0     C84895   9.900   5.865   6.654  0.0455  0.1111  0.1416
  616MOL0     C84896   9.879   5.884   6.799 -0.2884 -1.0351 -0.0931
  616MOL0     C84897   9.973   5.836   6.898  0.1093 -0.8912  0.4622
  616MOL0     C84898   9.938   5.872   7.037  0.6328 -0.1798 -0.3435
  616MOL0     C84899  10.084   5.774   6.848  0.7942  0.1933  0.4980
  616MOL0     C84900  10.198   5.730   6.937 -0.0033 -0.7687  0.3498
  616MOL0     O84901  10.186   5.758   7.069  1.0313 -0.8028  0.4987
  616MOL0     C84902  10.267   5.716   7.175  0.0907 -0.0276 -0.2934
  616MOL0     C84903  10.348   5.600   7.177 -0.1840 -0.5421 -0.3821
  616MOL0     C84904  10.417   5.555   7.287  0.3656 -0.2011  0.0054
  616MOL0     C84905  10.427   5.634   7.401  0.3708  0.0436  0.0724
  616MOL0     O84906  10.503   5.606   7.508 -0.8349  0.4303  0.6682
  616MOL0     C84907  10.553   5.468   7.523  0.6548  0.4741  0.5413
  616MOL0     C84908  10.597   5.447   7.672 -0.3246 -0.5801 -0.2247
  616MOL0     C84909  10.609   5.292   7.696 -0.4312 -0.0788  0.1956
  616MOL0     C84910  10.753   5.258   7.678  0.0394  0.3162 -0.0261
  616MOL0     C84911  10.768   5.104   7.681 -0.4679  0.9744 -0.4030
  616MOL0     C84912  10.911   5.059   7.649 -0.4489 -0.1559  0.1898
  616MOL0     C84913  10.922   4.908   7.643  0.1391  0.8514 -0.2564
  616MOL0     C84914  11.044   4.875   7.563  0.6956 -0.7717  0.0760
  616MOL0    Cl84915  11.070   4.698   7.555 -0.0798 -0.3049 -0.0217
  616MOL0     C84916  10.335   5.744   7.411 -0.0249 -0.6608  0.5078
  616MOL0     C84917  10.260   5.787   7.301 -0.5077  0.7380 -0.0229
  616MOL0     O84918  10.295   5.680   6.885 -0.1390 -0.1499 -0.0758
  616MOL0     C84919  10.097   5.738   6.712 -0.1763  0.1085  0.1736
  616MOL0     C84920  10.005   5.785   6.615  0.3029  0.8047  0.6575
  616MOL0     N84921   9.193   6.101   6.612  0.1243  0.2447 -0.1730
  616MOL0     N84922   9.083   6.148   6.661 -0.0928 -0.7605 -0.2268
  616MOL0     C84923   7.831   6.021   7.061 -0.0685 -0.7477 -0.1574
  616MOL0     C84924   7.723   5.943   7.049  1.4396 -0.4430 -0.3183
  616MOL0     C84925   7.537   5.539   6.869  0.4394  0.0476  0.2713
  616MOL0     C84926   7.528   5.404   6.915 -0.4394  0.2784 -0.4035
  616MOL0     C84927   7.414   5.319   6.894  0.2273 -0.6630 -0.0693
  616MOL0     C84928   7.316   5.369   6.808 -0.4939 -0.5883  0.2338
  616MOL0     O84929   7.215   5.297   6.768 -1.0034  0.5964 -0.1019
  616MOL0     C84930   7.093   5.317   6.840 -0.4052  0.0426  0.3218
  616MOL0     C84931   6.999   5.211   6.781 -0.0239 -0.1687  0.0052
  616MOL0     C84932   6.985   5.237   6.626  0.2529 -0.4278 -0.0940
  616MOL0     C84933   6.881   5.142   6.562 -0.5311 -0.3240  0.1909
  616MOL0     C84934   6.864   5.169   6.418  0.4712  0.2015  0.3536
  616MOL0     C84935   6.834   5.186   6.298 -0.3590  0.1608 -1.3181
  616MOL0     C84936   7.323   5.497   6.753 -0.0873  1.2026 -0.0615
  616MOL0     C84937   7.428   5.584   6.779 -0.3305  0.8931 -1.1198
  616MOL0     C84938   7.418   5.723   6.720 -0.5229 -0.5754  0.6112
  616MOL0     H84939   7.867   5.754   6.788 -1.3591  0.1371 -1.2653
  616MOL0     H84940   8.059   5.902   6.837  1.4485  0.1844  2.9505
  616MOL0     H84941   8.086   6.175   6.845  1.1259  2.2708 -0.5572
  616MOL0     H84942   8.203   6.054   6.903 -0.5392  0.8779 -1.5663
  616MOL0     H84943   8.165   6.346   6.991  0.4998  0.0764 -0.9228
  616MOL0     H84944   8.277   6.235   7.072 -0.3394 -0.2701 -0.3811
  616MOL0     H84945   8.287   6.331   6.778  0.9097 -0.5014 -1.0272
  616MOL0     H84946   8.401   6.392   6.902  1.1471 -1.1749 -1.3735
  616MOL0     H84947   8.452   6.136   6.944  1.2494 -0.7196 -0.5890
  616MOL0     H84948   8.369   6.108   6.791  2.8402 -0.3856 -2.4220
  616MOL0     H84949   8.590   6.322   6.821  0.4489 -0.0780  0.5682
  616MOL0     H84950   8.537   6.227   6.678 -1.7467 -3.3041  0.1034
  616MOL0     H84951   8.679   6.087   6.909 -3.1364 -0.8731 -0.2451
  616MOL0     H84952   8.629   6.028   6.751 -0.4793  0.3091 -0.2631
  616MOL0     H84953   8.847   6.239   6.772  2.1107 -0.5817 -1.1582
  616MOL0     H84954   8.812   6.123   6.639 -0.0049 -2.8960  0.0502
  616MOL0     H84955   8.948   6.054   6.901  2.0323  0.5053 -1.1131
  616MOL0     H84956   8.853   5.947   6.800 -1.6816  1.1802 -3.1028
  616MOL0     H84957   9.091   5.821   6.739 -0.9067  0.5456 -0.2820
  616MOL0     H84958   9.313   5.816   6.520  5.4891 -0.9226 -0.6742
  616MOL0     H84959   9.345   5.805   6.685 -0.8423  0.6642  0.2263
  616MOL0     H84960   9.442   6.023   6.500 -2.9972  0.3178  0.8423
  616MOL0     H84961   9.455   6.041   6.674 -0.5898 -0.2694  0.0103
  616MOL0     H84962   9.597   5.859   6.707  2.0792  1.2793 -0.0430
  616MOL0     H84963   9.581   5.809   6.534 -0.4761 -0.1658  0.3172
  616MOL0     H84964   9.708   6.039   6.482  2.4862 -0.0717 -0.0253
  616MOL0     H84965   9.729   6.057   6.651  0.1086  0.7461 -1.8619
  616MOL0     H84966   9.798   5.946   6.837  1.8484  1.1255  1.2328
  616MOL0     H84967   9.860   5.948   7.031 -0.8273 -1.3140  2.5351
  616MOL0     H84968  10.017   5.916   7.099 -2.6018  1.1615  3.2587
  616MOL0     H84969   9.903   5.784   7.093 -0.9541  1.3261  1.1571
  616MOL0     H84970  10.336   5.551   7.081 -1.3140 -0.2934 -0.3789
  616MOL0     H84971  10.482   5.469   7.276 -0.5390 -1.1434  1.5796
  616MOL0     H84972  10.485   5.392   7.484 -1.1427  1.5851  1.3876
  616MOL0     H84973  10.637   5.440   7.459 -0.1405 -1.2330  0.1812
  616MOL0     H84974  10.691   5.492   7.705  0.6570 -2.0711 -0.8649
  616MOL0     H84975  10.520   5.481   7.742 -0.5679  0.9122 -1.1600
  616MOL0     H84976  10.552   5.226   7.630 -1.2385 -1.0897  1.8360
  616MOL0     H84977  10.582   5.280   7.801 -1.9205 -0.3242 -0.1915
  616MOL0     H84978  10.807   5.296   7.765 -1.8054  1.5474  0.6502
  616MOL0     H84979  10.793   5.304   7.587 -0.0132 -0.2998 -0.3693
  616MOL0     H84980  10.733   5.073   7.780  3.1556 -2.1743  0.0940
  616MOL0     H84981  10.698   5.053   7.615 -2.2637 -0.9377  2.7213
  616MOL0     H84982  10.981   5.094   7.725 -2.8638 -0.6130  2.7874
  616MOL0     H84983  10.940   5.100   7.552 -0.6831  0.5861  0.4315
  616MOL0     H84984  10.829   4.867   7.602 -0.3404  2.1867 -0.5289
  616MOL0     H84985  10.931   4.856   7.739 -1.3878 -1.3327 -1.2084
  616MOL0     H84986  11.136   4.913   7.608 -0.6605  2.2547  0.5451
  616MOL0     H84987  11.022   4.920   7.465 -1.2827  1.9865  1.6523
  616MOL0     H84988  10.327   5.804   7.501 -3.3290  1.5809 -1.0830
  616MOL0     H84989  10.183   5.861   7.315  0.1526  1.4205  0.0819
  616MOL0     H84990  10.171   5.672   6.669 -1.1748 -0.2434 -1.0621
  616MOL0     H84991  10.020   5.761   6.510 -0.8671  1.0342  0.4238
  616MOL0     H84992   7.824   6.098   7.136  1.7640 -2.0414  1.4560
  616MOL0     H84993   7.628   5.961   7.098  0.9678 -1.3832 -0.8521
  616MOL0     H84994   7.607   5.369   6.981 -0.5731 -0.0989 -0.4418
  616MOL0     H84995   7.409   5.223   6.944  0.3892 -0.4854  0.2947
  616MOL0     H84996   7.094   5.311   6.949 -3.5682 -0.6662  0.4117
  616MOL0     H84997   7.048   5.415   6.822  0.0632  0.1643 -0.2491
  616MOL0     H84998   6.893   5.216   6.809 -0.3869 -0.4917 -1.2120
  616MOL0     H84999   7.043   5.114   6.805 -1.0366 -2.0875 -4.7217
  616MOL0     H85000   6.953   5.340   6.605  1.7909 -0.1530 -1.3668
  616MOL0     H85001   7.084   5.221   6.581  2.4267  1.4517  3.4868
  616MOL0     H85002   6.782   5.163   6.604 -0.8127 -1.7271  0.2772
  616MOL0     H85003   6.913   5.042   6.593  2.6644  0.5722  0.1577
  616MOL0     H85004   6.802   5.190   6.196  1.5764 -0.0906 -1.9732
  616MOL0     H85005   7.246   5.520   6.681 -2.2926 -3.2061  0.5219
  616MOL0     H85006   7.474   5.731   6.627 -0.7590  0.3548  0.5363
  616MOL0     H85007   7.312   5.741   6.699 -0.6844 -1.6702  0.4343
  616MOL0     H85008   7.448   5.791   6.801 -0.3320 -2.6837  2.4294
  617MOL0     O85009   2.074  11.099   5.333 -0.2381 -0.0157 -0.2809
  617MOL0     C85010   1.953  11.077   5.329  0.3548 -0.1963 -0.2197
  617MOL0     O85011   1.891  10.963   5.274 -0.0811 -0.1855  0.6453
  617MOL0     C85012   1.974  10.872   5.212 -0.7507 -0.3503 -0.5336
  617MOL0     C85013   2.078  10.816   5.289  0.0082 -0.1583 -0.2967
  617MOL0     C85014   2.155  10.707   5.238  0.9427 -0.5258 -0.4321
  617MOL0     C85015   2.132  10.662   5.110  0.1622  0.2951  1.0560
  617MOL0     O85016   2.205  10.556   5.055 -0.0112 -0.0532  0.5180
  617MOL0     C85017   2.267  10.585   4.928 -0.4433  0.4768 -0.2960
  617MOL0     C85018   2.410  10.628   4.949 -0.6727  0.3927  0.0939
  617MOL0     C85019   2.502  10.507   4.985  0.3692 -0.4940  0.5860
  617MOL0     C85020   2.647  10.545   4.991  0.1696 -0.5915 -0.0747
  617MOL0     C85021   2.674  10.616   5.127  0.2523  0.1140  0.6557
  617MOL0     C85022   2.822  10.645   5.133 -0.2494  0.2282  0.1179
  617MOL0     C85023   2.849  10.717   5.265 -0.9336  0.8589  0.8482
  617MOL0     C85024   3.000  10.769   5.256 -0.3450 -0.2098 -0.0711
  617MOL0     N85025   3.106  10.668   5.247  0.6325 -0.3248 -0.3827
  617MOL0     C85026   3.222  10.660   5.169  0.9442  0.2010  0.8909
  617MOL0     C85027   3.260  10.525   5.193  0.2250  0.4004 -0.7201
  617MOL0     C85028   3.366  10.451   5.125  0.0248 -0.6317 -0.2776
  617MOL0     C85029   3.504  10.508   5.176  0.1177  1.5923  0.2985
  617MOL0     C85030   3.622  10.405   5.153  0.3069  0.3258 -0.3646
  617MOL0     C85031   3.752  10.461   5.206  0.2560 -0.5116 -0.0036
  617MOL0     O85032   3.795  10.557   5.112  0.4915  0.3740 -0.0363
  617MOL0     C85033   3.919  10.605   5.129  0.7195  0.2325  0.1862
  617MOL0     C85034   3.998  10.583   5.240 -1.1271  0.7504  0.0197
  617MOL0     C85035   4.128  10.640   5.240  0.3225  0.1637 -0.2371
  617MOL0     C85036   4.213  10.601   5.351 -0.3435  0.2494  0.3890
  617MOL0     C85037   4.181  10.715   5.123  0.5389 -0.0272 -0.3863
  617MOL0     C85038   4.316  10.782   5.112  0.4493 -0.0536 -0.2784
  617MOL0     O85039   4.347  10.839   4.993 -0.5668  0.2015  0.1895
  617MOL0     C85040   4.474  10.878   4.965 -0.5185  0.5484  0.8435
  617MOL0     C85041   4.600  10.832   5.019  0.4472  0.2201 -0.1502
  617MOL0     C85042   4.719  10.890   4.980 -0.2316  0.6498 -0.3874
  617MOL0     C85043   4.725  11.008   4.905 -0.2762  0.4966  0.5439
  617MOL0     O85044   4.844  11.066   4.873  0.1251 -0.4979  0.1037
  617MOL0     C85045   4.908  11.119   4.994  0.4577  0.4970 -0.1223
  617MOL0     C85046   5.053  11.166   4.973 -0.3521 -0.2181 -0.4490
  617MOL0     C85047   5.119  11.229   5.100  0.7426 -0.0664 -0.6718
  617MOL0     C85048   5.263  11.271   5.061 -0.4066 -0.0967 -0.8991
  617MOL0     C85049   5.355  11.299   5.178  0.0183 -0.4557  0.2851
  617MOL0     C85050   5.307  11.435   5.241 -0.2721  0.8730 -0.1652
  617MOL0     C85051   5.390  11.486   5.348 -0.2911  0.1509  0.4015
  617MOL0     C85052   5.545  11.500   5.321  0.3759  0.4525  0.4404
  617MOL0    Cl85053   5.620  11.583   5.454  0.0289 -0.2733 -0.7025
  617MOL0     C85054   4.607  11.046   4.847  0.4958 -0.0996  0.2434
  617MOL0     C85055   4.488  10.982   4.869  0.0816 -0.4403  0.2349
  617MOL0     O85056   4.384  10.800   5.213 -0.1176  0.2102  0.2660
  617MOL0     C85057   4.086  10.746   5.018  0.1772 -0.6016  0.0749
  617MOL0     C85058   3.963  10.684   5.021  0.3016  0.1407 -0.0526
  617MOL0     N85059   3.169  10.464   5.287 -0.2150 -0.3568  0.7838
  617MOL0     N85060   3.080  10.557   5.310 -0.4362 -0.3768 -0.3966
  617MOL0     C85061   2.021  10.722   5.039 -0.0464 -0.4773  0.1279
  617MOL0     C85062   1.947  10.830   5.088  0.3238 -0.0637  0.5652
  617MOL0     C85063   1.856  11.168   5.390  0.3884  0.6192  0.0560
  617MOL0     C85064   1.728  11.177   5.327  0.4209  0.3779 -0.2191
  617MOL0     C85065   1.630  11.257   5.376  0.2811 -0.6120 -0.3267
  617MOL0     C85066   1.648  11.332   5.492  0.4684 -0.7059  0.2164
  617MOL0     O85067   1.550  11.412   5.542 -0.8083 -0.6221  0.2341
  617MOL0     C85068   1.459  11.484   5.447 -0.5773  0.0008 -0.2745
  617MOL0     C85069   1.371  11.577   5.524  0.4344 -0.6661  0.2253
  617MOL0     C85070   1.245  11.595   5.437  0.0018  1.1680  0.2237
  617MOL0     C85071   1.142  11.673   5.515 -0.6130 -0.2230 -0.9535
  617MOL0     C85072   1.180  11.817   5.523 -0.0308  0.1295  0.4631
  617MOL0     C85073   1.197  11.936   5.519  0.4821  0.3857  0.4590
  617MOL0     C85074   1.772  11.320   5.558  0.8275 -0.1330 -0.2940
  617MOL0     C85075   1.881  11.249   5.507  0.6011 -0.3038  0.1492
  617MOL0     C85076   2.021  11.251   5.565  0.6608 -0.5708 -0.8245
  617MOL0     H85077   2.084  10.852   5.390  0.6991 -1.7875  0.2876
  617MOL0     H85078   2.238  10.670   5.297  1.1070 -0.7181 -0.7892
  617MOL0     H85079   2.211  10.666   4.879  1.0229  1.7420  0.0419
  617MOL0     H85080   2.260  10.498   4.863  0.4616  0.1920 -0.0271
  617MOL0     H85081   2.444  10.675   4.856  2.2282  0.3894  1.0709
  617MOL0     H85082   2.437  10.696   5.030  2.3065  0.9034 -1.1881
  617MOL0     H85083   2.482  10.465   5.084  2.3469  3.2696  2.8209
  617MOL0     H85084   2.489  10.434   4.904  1.6473  0.8250 -0.8684
  617MOL0     H85085   2.713  10.458   4.996  0.6588 -0.2005  0.6029
  617MOL0     H85086   2.678  10.611   4.910 -0.0489 -0.1021  0.2375
  617MOL0     H85087   2.650  10.547   5.208 -0.1436 -0.0146  0.4317
  617MOL0     H85088   2.616  10.708   5.138 -0.6706 -0.2393 -0.9541
  617MOL0     H85089   2.876  10.549   5.135 -0.1198  0.1903 -2.3464
  617MOL0     H85090   2.856  10.712   5.053  2.9529  0.6084  1.6392
  617MOL0     H85091   2.821  10.650   5.347 -0.5704 -1.2030 -0.6331
  617MOL0     H85092   2.783  10.804   5.269  0.7335  2.3589 -1.4631
  617MOL0     H85093   3.010  10.840   5.174 -2.3601 -0.1729 -0.3328
  617MOL0     H85094   3.010  10.820   5.352 -0.6275  0.9115 -0.6241
  617MOL0     H85095   3.264  10.737   5.105 -2.3635  0.7603 -0.8110
  617MOL0     H85096   3.348  10.470   5.019 -1.0068  0.5413  0.0787
  617MOL0     H85097   3.371  10.343   5.141  2.0133 -0.8163 -1.7605
  617MOL0     H85098   3.520  10.603   5.124 -2.9792  0.8639 -2.3040
  617MOL0     H85099   3.499  10.531   5.283  1.5245  2.4597  0.2062
  617MOL0     H85100   3.609  10.316   5.215 -0.3663 -0.6102 -1.7980
  617MOL0     H85101   3.632  10.379   5.048 -1.7492  2.6056 -1.2337
  617MOL0     H85102   3.726  10.512   5.299 -0.1944  0.0074 -0.4121
  617MOL0     H85103   3.824  10.380   5.220  1.3553  0.2192 -1.2035
  617MOL0     H85104   3.962  10.522   5.322  1.3725  1.1110  1.4924
  617MOL0     H85105   4.150  10.538   5.415 -0.2495 -0.5695 -0.2924
  617MOL0     H85106   4.242  10.688   5.409 -2.5209 -1.6159  4.7615
  617MOL0     H85107   4.299  10.545   5.313 -2.2388 -1.5391 -1.5849
  617MOL0     H85108   4.595  10.748   5.088  0.7459 -1.7170 -2.3263
  617MOL0     H85109   4.812  10.847   5.017  0.6645  1.0112 -2.1015
  617MOL0     H85110   4.851  11.206   5.030 -0.9152 -0.5243  0.2544
  617MOL0     H85111   4.907  11.039   5.069  0.6290 -1.1389 -1.7932
  617MOL0     H85112   5.115  11.085   4.934 -0.8598 -1.1873  0.6942
  617MOL0     H85113   5.036  11.233   4.889 -1.2800 -0.0900 -0.1757
  617MOL0     H85114   5.118  11.154   5.181 -1.4481 -0.1873 -0.7562
  617MOL0     H85115   5.063  11.317   5.133 -0.7692 -1.6285  1.2275
  617MOL0     H85116   5.261  11.358   4.995 -2.6244  0.4496 -0.1720
  617MOL0     H85117   5.302  11.184   5.006 -0.5134 -1.3911  0.9950
  617MOL0     H85118   5.374  11.218   5.248  0.1256 -0.8072 -0.1449
  617MOL0     H85119   5.452  11.316   5.131 -0.5693 -1.2911 -1.3159
  617MOL0     H85120   5.210  11.421   5.288  0.5614 -3.6900  0.6799
  617MOL0     H85121   5.309  11.506   5.158 -0.0730  2.0027  0.7760
  617MOL0     H85122   5.381  11.413   5.429  0.8663 -1.0332 -0.4978
  617MOL0     H85123   5.349  11.584   5.374 -1.3168 -0.0727 -0.2902
  617MOL0     H85124   5.562  11.565   5.234 -2.1107  1.6517  0.7688
  617MOL0     H85125   5.591  11.401   5.308  3.4731  1.6886  1.0595
  617MOL0     H85126   4.612  11.129   4.778 -1.8298 -2.1673 -2.6889
  617MOL0     H85127   4.399  11.011   4.815  1.4546  1.9789 -0.8696
  617MOL0     H85128   4.117  10.809   4.935 -0.3498 -0.0092  0.3185
  617MOL0     H85129   3.896  10.704   4.938  0.6153  2.2030  0.1325
  617MOL0     H85130   1.990  10.681   4.943 -0.8138  1.0926 -0.3392
  617MOL0     H85131   1.866  10.873   5.030  0.9456 -2.1449 -2.0676
  617MOL0     H85132   1.716  11.123   5.234  1.2019 -0.1260 -0.0357
  617MOL0     H85133   1.533  11.253   5.328  1.3722  2.7174 -3.3215
  617MOL0     H85134   1.523  11.540   5.378 -0.1260  1.9567  1.5991
  617MOL0     H85135   1.401  11.416   5.385  0.3642 -2.1398  1.0602
  617MOL0     H85136   1.421  11.674   5.535 -0.6485 -0.3279  2.9259
  617MOL0     H85137   1.347  11.536   5.623 -2.0047 -0.5122 -0.2495
  617MOL0     H85138   1.255  11.642   5.339 -1.7042  0.0931 -0.5081
  617MOL0     H85139   1.205  11.494   5.422 -0.2233  1.1499  0.8924
  617MOL0     H85140   1.139  11.629   5.615 -2.8296  0.2828 -0.7404
  617MOL0     H85141   1.041  11.666   5.474 -2.0624  2.5619  1.6802
  617MOL0     H85142   1.202  12.042   5.501 -0.0504  0.4283  0.5370
  617MOL0     H85143   1.792  11.375   5.649 -3.3909  0.2904  0.5722
  617MOL0     H85144   2.021  11.325   5.646  0.6862  2.6291 -3.5492
  617MOL0     H85145   2.050  11.152   5.600 -1.4734 -1.7447 -2.1618
  617MOL0     H85146   2.094  11.296   5.497  2.1174  1.1064  1.6893
  618MOL0     O85147   3.731   6.745   5.647 -0.5507 -0.3151  0.2351
  618MOL0     C85148   3.759   6.639   5.586  0.1483  0.6896  0.6004
  618MOL0     O85149   3.667   6.555   5.535  1.0105  0.2566  0.0034
  618MOL0     C85150   3.529   6.593   5.532  0.4561 -0.1523 -0.7134
  618MOL0     C85151   3.488   6.706   5.460  0.1289 -0.2127 -0.3541
  618MOL0     C85152   3.351   6.727   5.453  0.7334  0.0877  0.5366
  618MOL0     C85153   3.261   6.650   5.523 -0.5721 -0.2742 -0.0527
  618MOL0     O85154   3.137   6.695   5.499 -0.3321  0.6826 -0.6091
  618MOL0     C85155   3.035   6.649   5.578 -0.2805  0.9248 -0.0115
  618MOL0     C85156   2.968   6.525   5.509  0.5526  0.6986  0.3420
  618MOL0     C85157   2.907   6.572   5.372 -0.3790  0.2752 -0.3127
  618MOL0     C85158   2.754   6.607   5.392  0.0749 -0.5549  0.4886
  618MOL0     C85159   2.689   6.670   5.261  0.1178  0.1472 -0.6700
  618MOL0     C85160   2.672   6.548   5.157 -0.5133 -0.4866 -0.9176
  618MOL0     C85161   2.570   6.565   5.055  0.2575  0.4471  0.4380
  618MOL0     C85162   2.420   6.554   5.104  0.6075  0.3971  0.8742
  618MOL0     N85163   2.322   6.601   5.000  0.0838 -0.5660 -0.2376
  618MOL0     C85164   2.356   6.623   4.865 -0.6045  0.6244 -0.3067
  618MOL0     C85165   2.254   6.698   4.812 -0.1668  0.0199 -0.2932
  618MOL0     C85166   2.223   6.727   4.668 -0.0466  0.1719  0.9165
  618MOL0     C85167   2.337   6.675   4.576  0.3383  0.2164 -0.6256
  618MOL0     C85168   2.305   6.534   4.523 -0.0217 -0.4732 -0.2344
  618MOL0     C85169   2.420   6.472   4.441 -0.0636 -0.6919 -0.9081
  618MOL0     O85170   2.517   6.424   4.530  0.5900 -0.4732  0.6344
  618MOL0     C85171   2.631   6.500   4.566  0.4887 -0.2685 -0.1660
  618MOL0     C85172   2.685   6.599   4.487 -0.1519 -0.1395 -0.4374
  618MOL0     C85173   2.784   6.680   4.536 -0.5770 -0.3710 -0.9791
  618MOL0     C85174   2.815   6.797   4.452 -0.2844 -0.6442  0.9423
  618MOL0     C85175   2.847   6.651   4.662 -0.4968  0.2010  0.3342
  618MOL0     C85176   2.954   6.722   4.724  0.0319  0.6062 -0.3741
  618MOL0     O85177   2.973   6.717   4.863 -0.1589  0.1117 -0.0408
  618MOL0     C85178   3.059   6.792   4.929 -0.9582 -0.1849  0.6692
  618MOL0     C85179   3.095   6.753   5.057  0.9452  0.1381  0.1664
  618MOL0     C85180   3.164   6.836   5.144  0.9660  0.1738 -0.1732
  618MOL0     C85181   3.207   6.960   5.099 -0.2369 -0.6519  0.0486
  618MOL0     O85182   3.279   7.035   5.190  0.3468  0.4217  0.1112
  618MOL0     C85183   3.352   7.145   5.146 -0.0760  0.6017 -0.3048
  618MOL0     C85184   3.482   7.152   5.218 -0.2740 -0.0341  0.0126
  618MOL0     C85185   3.560   7.018   5.231  0.7018  0.6749 -0.2195
  618MOL0     C85186   3.708   7.033   5.202  0.1223 -0.7354 -0.0139
  618MOL0     C85187   3.775   6.900   5.213 -0.2114 -0.2866 -0.2150
  618MOL0     C85188   3.927   6.924   5.243  0.1823 -0.7500  0.4065
  618MOL0     C85189   3.992   6.787   5.238  0.1077 -0.0384  0.7898
  618MOL0     C85190   4.141   6.764   5.257  0.1347 -0.7104 -0.3739
  618MOL0    Cl85191   4.213   6.833   5.105 -0.1532  0.2485 -0.2096
  618MOL0     C85192   3.177   7.001   4.966  0.2536 -0.3419  0.0866
  618MOL0     C85193   3.092   6.920   4.892 -0.4562 -0.6547  0.8051
  618MOL0     O85194   3.046   6.767   4.653  0.1776 -0.5619 -1.0700
  618MOL0     C85195   2.804   6.546   4.731  0.2436  0.8116  0.1013
  618MOL0     C85196   2.695   6.469   4.685 -0.8778 -0.6432  0.4172
  618MOL0     N85197   2.159   6.712   4.911  1.0765 -0.7833  0.0722
  618MOL0     N85198   2.201   6.652   5.020  0.5474 -0.1224  0.6055
  618MOL0     C85199   3.303   6.542   5.588  0.6693 -0.4153 -0.2040
  618MOL0     C85200   3.438   6.511   5.601 -0.6025 -0.2363  0.5597
  618MOL0     C85201   3.903   6.611   5.555  0.4550 -0.6934  0.0441
  618MOL0     C85202   3.930   6.484   5.512  0.7434  0.2792 -0.3540
  618MOL0     C85203   4.056   6.443   5.488 -1.0831 -0.4348 -0.0650
  618MOL0     C85204   4.163   6.521   5.520  0.2538 -0.3943 -0.1213
  618MOL0     O85205   4.295   6.494   5.488 -0.4616  0.0998  0.0449
  618MOL0     C85206   4.341   6.358   5.473 -0.2026 -0.3933 -0.6498
  618MOL0     C85207   4.432   6.324   5.594  0.6613 -0.4543 -0.0638
  618MOL0     C85208   4.561   6.400   5.591 -0.1765 -0.4575 -0.9850
  618MOL0     C85209   4.657   6.370   5.699 -0.9375 -0.5003  0.5531
  618MOL0     C85210   4.665   6.239   5.765 -0.2166 -0.8600  0.3492
  618MOL0     C85211   4.686   6.132   5.821 -0.4388  0.4360  0.0843
  618MOL0     C85212   4.145   6.647   5.578 -0.6300  0.3957  0.0057
  618MOL0     C85213   4.009   6.698   5.591  0.1511 -0.0712 -1.2400
  618MOL0     C85214   3.996   6.827   5.658 -0.4610 -0.2412  0.0390
  618MOL0     H85215   3.552   6.771   5.401  1.7476 -1.0385  0.4111
  618MOL0     H85216   3.300   6.813   5.409 -0.3182  0.5786  2.5981
  618MOL0     H85217   2.966   6.733   5.591 -0.8041  1.3404 -4.0243
  618MOL0     H85218   3.069   6.610   5.674  1.6784 -1.2250 -1.4686
  618MOL0     H85219   3.050   6.456   5.487  0.8842  0.8363  1.1176
  618MOL0     H85220   2.889   6.480   5.569  0.0600  0.2129 -0.6382
  618MOL0     H85221   2.971   6.656   5.342 -1.1965  1.2650  0.6259
  618MOL0     H85222   2.912   6.494   5.296 -1.4227 -1.3180  1.1861
  618MOL0     H85223   2.699   6.521   5.430 -0.0136 -0.7353 -0.0393
  618MOL0     H85224   2.752   6.682   5.472  1.9541 -2.4710  2.4493
  618MOL0     H85225   2.765   6.742   5.231  0.7079  0.1556  0.7251
  618MOL0     H85226   2.593   6.715   5.288 -0.0378 -0.1875 -0.6517
  618MOL0     H85227   2.772   6.537   5.113  0.5869  0.6290  1.1279
  618MOL0     H85228   2.647   6.457   5.212  1.4328 -1.3551 -1.3841
  618MOL0     H85229   2.586   6.486   4.981  0.4885  1.0468 -0.1589
  618MOL0     H85230   2.598   6.652   4.996 -2.1078 -0.3765 -2.1471
  618MOL0     H85231   2.395   6.449   5.123 -0.9902  0.2526 -1.6215
  618MOL0     H85232   2.406   6.602   5.201  1.1653 -2.5155  2.5409
  618MOL0     H85233   2.452   6.590   4.828 -0.8916 -0.8291  0.1577
  618MOL0     H85234   2.229   6.836   4.660  1.1934  0.0214 -0.5451
  618MOL0     H85235   2.127   6.683   4.640  0.9356 -1.7582  0.3913
  618MOL0     H85236   2.343   6.739   4.487 -1.3652 -0.2590 -1.1129
  618MOL0     H85237   2.434   6.683   4.626  1.9085 -1.7891 -3.0722
  618MOL0     H85238   2.280   6.470   4.609 -0.7987  1.0110  0.6965
  618MOL0     H85239   2.216   6.534   4.459 -0.2464 -0.6049  0.0745
  618MOL0     H85240   2.381   6.388   4.384 -0.1952 -1.2454 -0.0133
  618MOL0     H85241   2.460   6.545   4.369  0.4623  2.8338  2.5899
  618MOL0     H85242   2.645   6.619   4.388  2.2802 -0.7249 -1.6031
  618MOL0     H85243   2.867   6.880   4.501  0.9699  1.2162 -3.0967
  618MOL0     H85244   2.721   6.841   4.420 -0.4673 -0.0568  2.2357
  618MOL0     H85245   2.872   6.761   4.365 -0.3248 -0.9765  1.0514
  618MOL0     H85246   3.057   6.665   5.107 -1.6042  0.9068 -0.3097
  618MOL0     H85247   3.185   6.809   5.247  0.4711 -2.3246 -0.6595
  618MOL0     H85248   3.377   7.148   5.040 -0.7951 -0.2400 -0.5172
  618MOL0     H85249   3.297   7.237   5.166  1.8086  1.8390 -0.6084
  618MOL0     H85250   3.544   7.216   5.155 -0.3344 -0.4641 -0.4934
  618MOL0     H85251   3.465   7.202   5.313 -0.6168  0.7591 -0.4595
  618MOL0     H85252   3.520   6.955   5.151 -0.5095  1.4340 -0.2306
  618MOL0     H85253   3.541   6.974   5.329 -2.0367 -1.2948 -1.4982
  618MOL0     H85254   3.750   7.104   5.273 -3.0662  0.2899  0.9955
  618MOL0     H85255   3.716   7.083   5.105 -2.2604  1.6315  0.9063
  618MOL0     H85256   3.741   6.835   5.295  1.5582 -1.3166 -0.2445
  618MOL0     H85257   3.756   6.852   5.117 -0.1176  0.2670 -0.5150
  618MOL0     H85258   3.929   6.972   5.341 -1.0905 -1.6530  0.8975
  618MOL0     H85259   3.968   6.991   5.168 -0.9015 -0.8499 -0.3046
  618MOL0     H85260   3.977   6.734   5.144 -2.1997  0.9893  0.4886
  618MOL0     H85261   3.948   6.733   5.323 -0.7114  0.3699  0.6335
  618MOL0     H85262   4.174   6.660   5.269  1.0263 -0.3001  1.0211
  618MOL0     H85263   4.176   6.820   5.345 -1.7891 -2.8276  1.8829
  618MOL0     H85264   3.204   7.101   4.935  0.2257  1.0920  4.1017
  618MOL0     H85265   3.061   6.960   4.797 -2.6848  0.5151  1.9414
  618MOL0     H85266   2.853   6.500   4.816  2.0668 -0.8556 -1.7397
  618MOL0     H85267   2.648   6.383   4.732 -0.9037 -1.9220 -1.8437
  618MOL0     H85268   3.239   6.467   5.633  1.2676 -1.3655 -0.8873
  618MOL0     H85269   3.475   6.431   5.663  1.5744  0.3770  0.1187
  618MOL0     H85270   3.844   6.418   5.510 -0.4825  1.8244 -0.7519
  618MOL0     H85271   4.068   6.343   5.448  2.3898  0.0525 -0.5401
  618MOL0     H85272   4.258   6.287   5.467  0.0458 -0.6149 -1.6162
  618MOL0     H85273   4.409   6.354   5.387  1.9887  0.9129  0.9247
  618MOL0     H85274   4.460   6.219   5.581 -1.5767 -0.9374 -1.6075
  618MOL0     H85275   4.376   6.334   5.687  1.0294 -1.4662  0.2880
  618MOL0     H85276   4.609   6.390   5.493  1.2596 -1.1875 -0.2423
  618MOL0     H85277   4.539   6.506   5.602 -2.4058 -1.0681  1.5609
  618MOL0     H85278   4.633   6.441   5.779 -1.6458 -0.5267  0.3661
  618MOL0     H85279   4.751   6.401   5.652  0.5192 -2.6931  1.8451
  618MOL0     H85280   4.714   6.041   5.870  1.5029  1.5914  1.2156
  618MOL0     H85281   4.230   6.709   5.603 -1.3263  1.1375  0.5822
  618MOL0     H85282   3.927   6.888   5.599  1.0946 -0.8260 -2.5702
  618MOL0     H85283   3.975   6.814   5.764 -1.2159  1.8385  0.1892
  618MOL0     H85284   4.089   6.883   5.646 -1.5531  1.2990 -1.8749
  619MOL0     O85285   8.780   8.543   3.713  0.2179 -0.4862  0.2299
  619MOL0     C85286   8.744   8.647   3.653 -0.2441  1.2321  0.5867
  619MOL0     O85287   8.779   8.683   3.530 -0.1017 -0.2631  0.5032
  619MOL0     C85288   8.829   8.591   3.444  0.4059 -0.0795 -0.1267
  619MOL0     C85289   8.768   8.571   3.316  0.3898  0.5284  0.0101
  619MOL0     C85290   8.814   8.466   3.238  1.2080  0.2778 -0.0944
  619MOL0     C85291   8.928   8.397   3.272 -0.8253 -0.6328  0.5020
  619MOL0     O85292   8.987   8.304   3.189  0.1014  0.0188  0.5727
  619MOL0     C85293   8.933   8.275   3.060  0.7458  0.0970  0.3547
  619MOL0     C85294   8.967   8.387   2.958 -0.6958  0.5514  0.0999
  619MOL0     C85295   9.107   8.452   2.977  0.4911 -0.5994  1.0297
  619MOL0     C85296   9.147   8.534   2.850 -0.1978 -0.0778  0.2946
  619MOL0     C85297   9.275   8.502   2.772  0.2455 -0.4403  0.2940
  619MOL0     C85298   9.287   8.592   2.645 -0.6671  0.8889  0.7260
  619MOL0     C85299   9.402   8.540   2.559  0.2065  0.5892  1.0449
  619MOL0     C85300   9.364   8.419   2.474  0.2338  0.1727  0.0695
  619MOL0     N85301   9.463   8.389   2.367  0.0467 -0.1525 -0.3135
  619MOL0     C85302   9.596   8.355   2.379 -0.0569  0.0022  0.3797
  619MOL0     C85303   9.632   8.308   2.255 -0.2880 -0.1825 -0.1381
  619MOL0     C85304   9.769   8.247   2.231  0.7900 -0.5277 -0.3723
  619MOL0     C85305   9.861   8.334   2.136 -0.4478  0.1760  0.2536
  619MOL0     C85306   9.898   8.470   2.197 -0.7165 -0.4958 -0.7176
  619MOL0     C85307  10.028   8.528   2.131  0.5717 -0.2707 -0.0621
  619MOL0     O85308  10.146   8.476   2.189  0.8497  0.2771 -1.0781
  619MOL0     C85309  10.238   8.573   2.204 -0.9828  0.6926 -0.2083
  619MOL0     C85310  10.284   8.650   2.089  0.8983  0.0639 -0.5039
  619MOL0     C85311  10.393   8.741   2.106 -0.8384  0.1816  1.1120
  619MOL0     C85312  10.441   8.824   1.986 -0.6301  0.3749 -0.3144
  619MOL0     C85313  10.450   8.762   2.237 -0.0233  0.2210  0.7712
  619MOL0     C85314  10.553   8.863   2.265  0.9848 -0.1883  0.1257
  619MOL0     O85315  10.644   8.901   2.167  0.0201 -0.1606  0.0224
  619MOL0     C85316  10.735   9.007   2.177 -0.7335 -0.4221 -0.2666
  619MOL0     C85317  10.715   9.115   2.274 -0.7654 -0.3952  0.1729
  619MOL0     C85318  10.823   9.203   2.284  0.4092 -0.0593 -0.4562
  619MOL0     C85319  10.942   9.191   2.210 -0.8503 -0.2544 -0.6801
  619MOL0     O85320  11.055   9.269   2.236 -0.4373  0.4101  0.2384
  619MOL0     C85321  11.089   9.293   2.371 -0.0807  0.4135 -0.4742
  619MOL0     C85322  11.225   9.366   2.365 -0.0218 -0.8028 -0.5358
  619MOL0     C85323  11.337   9.262   2.340 -0.1566  0.6152  1.1521
  619MOL0     C85324  11.478   9.331   2.369  0.8580  0.2994  0.1278
  619MOL0     C85325  11.591   9.242   2.355 -0.3104  1.0254 -0.0351
  619MOL0     C85326  11.713   9.309   2.418 -0.6841 -0.4644 -0.1315
  619MOL0     C85327  11.836   9.214   2.411 -0.4302  0.5277  0.8632
  619MOL0     C85328  11.926   9.232   2.538 -0.3727 -0.2624 -0.4103
  619MOL0    Cl85329  11.999   9.399   2.541  0.3520 -0.1278  0.4705
  619MOL0     C85330  10.954   9.081   2.115 -0.0959 -0.9505 -0.7112
  619MOL0     C85331  10.853   8.990   2.104  0.6643 -0.4181  0.0242
  619MOL0     O85332  10.538   8.908   2.382  0.6942  0.3443  0.4554
  619MOL0     C85333  10.398   8.684   2.342  0.0958 -0.8010  0.3197
  619MOL0     C85334  10.300   8.592   2.330  0.4217  0.0296 -0.7331
  619MOL0     N85335   9.521   8.318   2.175  0.4617 -0.4361  0.4053
  619MOL0     N85336   9.419   8.370   2.238  0.3751  0.6172  0.3808
  619MOL0     C85337   9.002   8.436   3.386 -0.7346 -0.7236  0.8186
  619MOL0     C85338   8.954   8.536   3.471  0.1424 -0.1873  0.1717
  619MOL0     C85339   8.658   8.744   3.717 -0.5453 -0.0054 -0.1263
  619MOL0     C85340   8.526   8.761   3.660 -0.7230  0.3726 -0.1581
  619MOL0     C85341   8.442   8.854   3.713  0.7787 -0.1174 -0.2294
  619MOL0     C85342   8.475   8.933   3.819  0.1590  0.0436 -0.6363
  619MOL0     O85343   8.386   9.016   3.873  0.3329  0.3906  0.4958
  619MOL0     C85344   8.373   9.029   4.016  0.2752  0.5976 -0.9880
  619MOL0     C85345   8.425   9.167   4.046  0.4740 -0.1589 -0.8679
  619MOL0     C85346   8.329   9.270   4.005  0.2137 -1.2094  0.2290
  619MOL0     C85347   8.387   9.409   4.025  0.1487 -0.6442  0.2671
  619MOL0     C85348   8.311   9.506   3.948  0.5481  0.5555  0.5237
  619MOL0     C85349   8.249   9.579   3.869  0.3119  0.0666  0.2004
  619MOL0     C85350   8.603   8.914   3.874  0.3730  0.1624 -0.4627
  619MOL0     C85351   8.705   8.822   3.823 -0.1994 -0.3045 -0.1160
  619MOL0     C85352   8.840   8.810   3.896  0.5121 -0.3149  0.7626
  619MOL0     H85353   8.678   8.618   3.279 -1.3353 -2.2578  0.3654
  619MOL0     H85354   8.750   8.442   3.154 -2.0737 -1.3007  2.6170
  619MOL0     H85355   8.830   8.241   3.074  1.0020  0.0866  2.6348
  619MOL0     H85356   8.976   8.178   3.031 -2.0104 -1.4864  1.1482
  619MOL0     H85357   8.983   8.337   2.862 -3.5715  2.0663 -1.3101
  619MOL0     H85358   8.893   8.468   2.957 -1.7043 -0.3142 -1.9603
  619MOL0     H85359   9.109   8.518   3.064 -2.0930  0.8506  0.1188
  619MOL0     H85360   9.177   8.368   2.986  0.8576 -0.7436 -1.9258
  619MOL0     H85361   9.062   8.540   2.782  0.7253 -1.4713 -1.0414
  619MOL0     H85362   9.152   8.640   2.877 -0.4751 -0.0302  0.1664
  619MOL0     H85363   9.276   8.396   2.745  0.5099 -0.2786 -0.3382
  619MOL0     H85364   9.366   8.502   2.833 -0.4250 -3.0975  1.4224
  619MOL0     H85365   9.196   8.598   2.584  0.2906  1.2185 -0.7210
  619MOL0     H85366   9.314   8.694   2.675  4.6729 -0.1910  0.6599
  619MOL0     H85367   9.487   8.520   2.624  0.0822  0.4253  1.1601
  619MOL0     H85368   9.430   8.626   2.498 -0.7038 -1.4598 -2.5596
  619MOL0     H85369   9.363   8.337   2.547  0.0206 -0.2464 -0.4031
  619MOL0     H85370   9.268   8.433   2.423 -0.1365 -2.1089  0.0070
  619MOL0     H85371   9.648   8.360   2.473 -3.3495  0.7939  2.3339
  619MOL0     H85372   9.753   8.147   2.190  1.3765 -0.8562  0.1688
  619MOL0     H85373   9.818   8.233   2.328  0.7844  2.8779  0.2372
  619MOL0     H85374   9.950   8.275   2.113  0.1092  0.9474  0.3978
  619MOL0     H85375   9.808   8.342   2.041 -3.3059 -1.6982  1.5365
  619MOL0     H85376   9.812   8.536   2.184  0.5542  1.0544 -1.5729
  619MOL0     H85377   9.916   8.454   2.304 -4.9116  0.4270  0.3127
  619MOL0     H85378  10.025   8.520   2.022 -1.0780  2.6310 -0.3283
  619MOL0     H85379  10.010   8.633   2.156  0.1039 -0.2875 -0.3131
  619MOL0     H85380  10.243   8.640   1.989  1.2089  2.3640 -0.9141
  619MOL0     H85381  10.414   8.930   1.997 -1.1960  0.3113 -1.0226
  619MOL0     H85382  10.383   8.772   1.910  1.8693 -0.2956 -1.8819
  619MOL0     H85383  10.544   8.807   1.954 -1.1533 -0.0184 -1.8790
  619MOL0     H85384  10.629   9.117   2.341 -0.8203 -0.9135  0.1254
  619MOL0     H85385  10.825   9.287   2.353  2.6592 -1.0098  0.7096
  619MOL0     H85386  11.012   9.358   2.412  1.5588  0.7742  2.3090
  619MOL0     H85387  11.099   9.202   2.431 -0.9117 -1.5797 -3.1843
  619MOL0     H85388  11.214   9.443   2.289  1.9182 -2.5074 -2.6808
  619MOL0     H85389  11.239   9.417   2.461 -3.0648 -1.3832  0.3455
  619MOL0     H85390  11.343   9.225   2.237  1.2248  5.7930 -0.9597
  619MOL0     H85391  11.333   9.178   2.410  1.1556  2.2412  3.3095
  619MOL0     H85392  11.477   9.366   2.473  0.4547 -3.1220  1.4066
  619MOL0     H85393  11.509   9.412   2.303  3.1888 -2.2110 -2.0762
  619MOL0     H85394  11.573   9.150   2.412 -0.4231  0.9405 -0.2054
  619MOL0     H85395  11.612   9.228   2.249 -0.2705  1.6243 -0.1079
  619MOL0     H85396  11.699   9.342   2.522  1.6152 -2.2955  0.8476
  619MOL0     H85397  11.742   9.396   2.358  0.4812  0.5991  1.8636
  619MOL0     H85398  11.907   9.229   2.329 -1.5994  1.1987 -0.0562
  619MOL0     H85399  11.804   9.110   2.406  3.9717 -0.9716 -1.5314
  619MOL0     H85400  12.003   9.154   2.544 -2.1251 -2.0783 -0.7405
  619MOL0     H85401  11.858   9.223   2.623 -0.1000  3.5135  0.3630
  619MOL0     H85402  11.034   9.083   2.041 -0.4084 -2.9333 -1.1518
  619MOL0     H85403  10.853   8.896   2.049  0.8407 -0.8990  0.8277
  619MOL0     H85404  10.436   8.687   2.444  3.7921  2.0947 -0.9239
  619MOL0     H85405  10.281   8.530   2.417  0.8344  1.1445  0.1957
  619MOL0     H85406   9.102   8.403   3.413 -0.5080  0.2986  1.2811
  619MOL0     H85407   9.006   8.568   3.561 -0.4829  1.8335 -0.1399
  619MOL0     H85408   8.488   8.695   3.583  1.2687  0.0765 -0.9501
  619MOL0     H85409   8.340   8.854   3.676 -0.0945  1.6416  1.9291
  619MOL0     H85410   8.265   9.023   4.034  0.2131 -0.3016 -1.5738
  619MOL0     H85411   8.413   8.943   4.071 -1.5738 -0.4695 -1.2003
  619MOL0     H85412   8.515   9.189   3.987 -1.1362  2.4460 -2.5541
  619MOL0     H85413   8.450   9.168   4.152  1.8523 -0.1578 -1.1807
  619MOL0     H85414   8.311   9.258   3.898  1.2656  2.6132 -0.5458
  619MOL0     H85415   8.238   9.258   4.064  0.9499 -1.5640  1.3384
  619MOL0     H85416   8.492   9.418   3.997 -0.3776 -1.4205 -2.2354
  619MOL0     H85417   8.378   9.435   4.131 -1.0902 -0.5234  0.1569
  619MOL0     H85418   8.200   9.652   3.808  1.7268  0.4145 -0.5710
  619MOL0     H85419   8.621   8.990   3.949 -1.6226 -0.0266  0.2807
  619MOL0     H85420   8.808   8.808   4.000 -0.9590 -0.8683  0.3286
  619MOL0     H85421   8.907   8.725   3.876  2.7098  1.1968  1.3234
  619MOL0     H85422   8.899   8.900   3.876 -0.4967  0.5379  1.5328
  620MOL0     O85423   2.918   9.461  10.664  0.4355 -0.0689 -0.8373
  620MOL0     C85424   2.865   9.550  10.597  0.2384  0.5351 -0.3579
  620MOL0     O85425   2.854   9.685  10.633 -0.0333 -0.0996 -0.8979
  620MOL0     C85426   2.889   9.724  10.762 -0.3420 -0.3595  0.6510
  620MOL0     C85427   2.806   9.792  10.846  0.5398 -0.5042  0.4812
  620MOL0     C85428   2.859   9.844  10.963 -0.4613 -1.2790 -0.1958
  620MOL0     C85429   2.986   9.836  11.008  0.3561 -0.2385  0.1485
  620MOL0     O85430   3.039   9.884  11.130  0.0558 -0.3730  0.6227
  620MOL0     C85431   2.950   9.977  11.195  0.7910 -0.1734  0.3002
  620MOL0     C85432   3.019  10.049  11.304 -0.2289  0.3023 -0.6008
  620MOL0     C85433   2.938  10.174  11.345  0.5782  0.1664  0.0567
  620MOL0     C85434   3.003  10.259  11.462  0.2578 -1.2478  0.1253
  620MOL0     C85435   3.153  10.287  11.446  0.4628 -0.4610  0.2864
  620MOL0     C85436   3.185  10.372  11.327 -0.2181 -0.0639  0.5894
  620MOL0     C85437   3.330  10.404  11.321 -0.4768 -0.5902 -0.2357
  620MOL0     C85438   3.361  10.507  11.207  0.7499 -0.0171 -0.1086
  620MOL0     N85439   3.507  10.510  11.196  0.1219  0.1967  0.0456
  620MOL0     C85440   3.594  10.604  11.246  0.2924 -1.1022  0.4532
  620MOL0     C85441   3.716  10.560  11.215  0.0434 -0.0079  0.1555
  620MOL0     C85442   3.841  10.643  11.222 -0.5109 -0.1205 -0.7119
  620MOL0     C85443   3.826  10.783  11.265  0.1894 -0.2099  0.2003
  620MOL0     C85444   3.954  10.867  11.254  0.9729  0.1473 -0.2529
  620MOL0     C85445   4.066  10.813  11.338  0.1639 -0.0887 -0.4236
  620MOL0     O85446   4.180  10.904  11.331  0.4762 -0.4208 -0.5814
  620MOL0     C85447   4.279  10.881  11.428  0.5257 -0.2916  0.1746
  620MOL0     C85448   4.393  10.961  11.434 -0.1677 -0.5689  0.5403
  620MOL0     C85449   4.499  10.945  11.527  0.6103 -0.9243 -1.1761
  620MOL0     C85450   4.613  11.050  11.500 -0.1216 -0.2460 -0.1579
  620MOL0     C85451   4.498  10.836  11.623 -0.7925  0.0153  1.0950
  620MOL0     C85452   4.605  10.816  11.732  0.1345  0.2850 -0.8582
  620MOL0     O85453   4.716  10.904  11.746 -0.7943 -0.1312 -1.2661
  620MOL0     C85454   4.797  10.902  11.852 -0.2357  0.2827 -0.6945
  620MOL0     C85455   4.930  10.899  11.819 -0.4712  0.1051  0.1547
  620MOL0     C85456   5.026  10.918  11.915 -0.3469 -0.3923 -0.3453
  620MOL0     C85457   4.992  10.937  12.047  0.6338  0.0257 -0.2347
  620MOL0     O85458   5.082  10.946  12.148 -0.2902 -0.0626  0.1498
  620MOL0     C85459   5.218  10.939  12.113  0.7476 -0.0726 -0.2383
  620MOL0     C85460   5.302  10.997  12.222  0.5488 -0.0341 -0.0384
  620MOL0     C85461   5.425  10.916  12.247  0.2270  0.0150  0.2548
  620MOL0     C85462   5.510  10.962  12.362 -0.0213 -0.9677  0.7730
  620MOL0     C85463   5.637  10.875  12.377  0.9313  0.2718  0.4194
  620MOL0     C85464   5.706  10.920  12.503 -0.2252 -0.1135  0.2940
  620MOL0     C85465   5.815  10.817  12.540 -0.2993  0.0560 -0.2818
  620MOL0     C85466   5.874  10.838  12.676 -0.6572 -0.3438  1.2292
  620MOL0    Cl85467   5.886  11.009  12.722  0.4472  0.1267  0.0521
  620MOL0     C85468   4.857  10.948  12.081 -0.0301 -0.3495 -0.2755
  620MOL0     C85469   4.754  10.934  11.982 -0.0683 -0.4220  0.0852
  620MOL0     O85470   4.581  10.726  11.811  0.2810  0.7010  0.3812
  620MOL0     C85471   4.387  10.752  11.600  0.2027 -0.2331  0.1234
  620MOL0     C85472   4.284  10.770  11.509  0.1382  0.2220  0.3153
  620MOL0     N85473   3.711  10.438  11.145 -0.3393  0.3848 -0.7863
  620MOL0     N85474   3.584  10.414  11.133  0.6147  0.4301 -0.4974
  620MOL0     C85475   3.071   9.761  10.930 -0.1714  0.1200  0.5921
  620MOL0     C85476   3.029   9.716  10.804 -0.5345  0.6028 -0.0823
  620MOL0     C85477   2.790   9.514  10.474  1.2303 -0.2407  0.3699
  620MOL0     C85478   2.708   9.612  10.413  0.1841 -0.0207 -0.4911
  620MOL0     C85479   2.638   9.580  10.300  0.6264  0.3277  0.7016
  620MOL0     C85480   2.639   9.459  10.233  0.1400  0.6540  0.4111
  620MOL0     O85481   2.552   9.443  10.131  0.6411 -0.2984  0.2327
  620MOL0     C85482   2.560   9.318  10.052  0.6227 -0.4182 -0.0053
  620MOL0     C85483   2.509   9.343   9.917 -0.5447  0.2467  0.5172
  620MOL0     C85484   2.601   9.434   9.832  0.5689  0.4427 -0.1986
  620MOL0     C85485   2.566   9.426   9.685  0.9316 -0.7262  1.2698
  620MOL0     C85486   2.662   9.499   9.590  0.1239  0.0043  0.3602
  620MOL0     C85487   2.741   9.555   9.518  1.6728 -0.6051  0.4682
  620MOL0     C85488   2.723   9.362  10.293  0.8677  0.5957 -0.2574
  620MOL0     C85489   2.792   9.390  10.413  0.4696 -0.0102  0.3525
  620MOL0     C85490   2.883   9.279  10.461  0.9817  0.4183  0.4392
  620MOL0     H85491   2.702   9.802  10.818  1.3428  0.6951 -2.5668
  620MOL0     H85492   2.790   9.897  11.028  1.9472 -1.7037  3.0111
  620MOL0     H85493   2.864   9.919  11.229  0.6776 -0.0439  0.2367
  620MOL0     H85494   2.917  10.050  11.120 -0.5166  1.1735  2.1053
  620MOL0     H85495   3.029   9.972  11.381  1.2568 -0.9618 -1.9734
  620MOL0     H85496   3.114  10.078  11.258 -0.7950  0.3318 -1.7748
  620MOL0     H85497   2.921  10.229  11.252 -1.2130  1.7143  1.2410
  620MOL0     H85498   2.834  10.152  11.370  0.7788 -1.8199 -0.6574
  620MOL0     H85499   2.955  10.357  11.470  0.7353 -1.0692  0.8673
  620MOL0     H85500   2.988  10.214  11.560  0.3955 -0.7279  0.3889
  620MOL0     H85501   3.213  10.195  11.439 -0.7194 -1.3160  1.0446
  620MOL0     H85502   3.182  10.339  11.538 -1.6218 -0.8784  1.2275
  620MOL0     H85503   3.160  10.323  11.233  0.4667  0.9730 -0.1615
  620MOL0     H85504   3.131  10.465  11.349 -1.9948 -0.9180  0.0174
  620MOL0     H85505   3.383  10.310  11.302 -0.8404 -0.5448 -1.5961
  620MOL0     H85506   3.362  10.444  11.417 -2.6610  0.3352  0.1798
  620MOL0     H85507   3.318  10.458  11.120  0.6892  0.8725 -0.5937
  620MOL0     H85508   3.327  10.608  11.232  1.6304  0.0570  0.8795
  620MOL0     H85509   3.563  10.703  11.275  2.4809 -0.2813  0.1651
  620MOL0     H85510   3.892  10.648  11.125 -0.4763  1.9465 -0.6297
  620MOL0     H85511   3.912  10.592  11.289 -3.0755 -0.0493  2.2662
  620MOL0     H85512   3.749  10.830  11.205 -0.3073 -2.7700 -1.3238
  620MOL0     H85513   3.796  10.788  11.370  2.0298  2.2536  0.6908
  620MOL0     H85514   3.984  10.881  11.150 -1.4253  1.5509 -0.8441
  620MOL0     H85515   3.926  10.963  11.299  1.7201  0.9099 -1.3802
  620MOL0     H85516   4.033  10.795  11.441  1.4401  2.4810  0.5296
  620MOL0     H85517   4.095  10.717  11.295 -0.4691 -0.1431 -0.7392
  620MOL0     H85518   4.399  11.048  11.369 -1.8224 -0.8543 -0.0645
  620MOL0     H85519   4.715  11.010  11.502  0.8701  1.0421 -6.0013
  620MOL0     H85520   4.601  11.137  11.565  3.4840  2.1844 -2.3713
  620MOL0     H85521   4.600  11.096  11.402 -1.0539 -0.4043 -0.1155
  620MOL0     H85522   4.952  10.887  11.713 -0.1193 -0.4554  0.2868
  620MOL0     H85523   5.130  10.903  11.886  0.4301  1.4145  1.3137
  620MOL0     H85524   5.250  10.835  12.099  1.7403  0.1112  0.5499
  620MOL0     H85525   5.249  11.000  12.028  0.4098  0.5976  0.1178
  620MOL0     H85526   5.331  11.101  12.203 -1.8128  1.0655  1.7946
  620MOL0     H85527   5.236  11.003  12.309 -0.3033  0.1767 -0.6885
  620MOL0     H85528   5.476  10.920  12.150 -1.2483 -2.3145 -0.6984
  620MOL0     H85529   5.404  10.809  12.261  2.3439 -0.3458  1.1186
  620MOL0     H85530   5.446  10.960  12.451 -0.8960  0.3582  0.2137
  620MOL0     H85531   5.540  11.062  12.331 -1.8577 -1.1547 -1.8814
  620MOL0     H85532   5.605  10.770  12.374  1.1399  0.2188 -0.0830
  620MOL0     H85533   5.699  10.885  12.287 -0.5907 -1.8333 -0.9611
  620MOL0     H85534   5.636  10.904  12.586 -1.3666 -1.4590 -0.8849
  620MOL0     H85535   5.745  11.022  12.504  0.3942 -0.3179  2.2728
  620MOL0     H85536   5.898  10.819  12.469  1.9529 -0.8761  2.1804
  620MOL0     H85537   5.780  10.713  12.545  2.3172 -1.0415 -2.3941
  620MOL0     H85538   5.976  10.801  12.690 -1.1315 -1.3524  2.1623
  620MOL0     H85539   5.808  10.792  12.751 -0.9137 -1.5362  0.3085
  620MOL0     H85540   4.824  10.964  12.183  0.4468  0.6755 -0.2689
  620MOL0     H85541   4.648  10.951  12.001 -0.6921  1.2550 -3.9996
  620MOL0     H85542   4.389  10.660  11.658  0.9927 -0.1688  0.2062
  620MOL0     H85543   4.212  10.690  11.498 -1.0969  1.3060  0.2372
  620MOL0     H85544   3.176   9.754  10.956  0.1475 -0.4468 -0.7626
  620MOL0     H85545   3.108   9.685  10.736  0.0455  1.4125  0.2030
  620MOL0     H85546   2.669   9.702  10.460  0.7601 -0.3703  0.6923
  620MOL0     H85547   2.577   9.657  10.254 -1.7434 -2.7218 -1.7812
  620MOL0     H85548   2.666   9.292  10.051  0.9894  0.9636 -0.2436
  620MOL0     H85549   2.504   9.236  10.098 -1.2556 -1.3108 -3.5254
  620MOL0     H85550   2.408   9.384   9.914 -1.1404 -1.2308 -1.5170
  620MOL0     H85551   2.508   9.245   9.867  0.5817  0.1077  0.7458
  620MOL0     H85552   2.574   9.539   9.853 -1.2409 -0.0880  0.3880
  620MOL0     H85553   2.705   9.414   9.857 -0.1920 -1.4016  1.8467
  620MOL0     H85554   2.463   9.463   9.673  1.1578 -0.4621 -0.0247
  620MOL0     H85555   2.556   9.323   9.650  0.5333 -0.0939 -0.6520
  620MOL0     H85556   2.818   9.600   9.458  0.3739  3.6522  1.6688
  620MOL0     H85557   2.724   9.258  10.262 -1.8288 -0.0135  1.3288
  620MOL0     H85558   2.985   9.310  10.484  0.9445  0.2539  0.8361
  620MOL0     H85559   2.839   9.256  10.558  1.8303  4.9620  2.1587
  620MOL0     H85560   2.880   9.187  10.402 -1.5517  0.8642 -0.2763
  621MOL0     O85561   3.552   5.652   9.480  0.1378 -0.3063  0.1997
  621MOL0     C85562   3.584   5.630   9.597  0.3179 -0.5360  0.2875
  621MOL0     O85563   3.704   5.587   9.634  0.4228  0.0526 -0.3989
  621MOL0     C85564   3.816   5.587   9.553  0.4810  0.7023 -1.0458
  621MOL0     C85565   3.827   5.519   9.430 -0.6788 -1.3023 -0.1712
  621MOL0     C85566   3.949   5.524   9.364 -0.3046 -0.1055  0.0616
  621MOL0     C85567   4.069   5.583   9.416  0.6475 -0.2032  0.0831
  621MOL0     O85568   4.190   5.598   9.346  0.1244 -0.8924  0.4679
  621MOL0     C85569   4.206   5.534   9.221  0.2079  0.2384 -0.5335
  621MOL0     C85570   4.348   5.525   9.152  1.1675 -0.3628  0.6307
  621MOL0     C85571   4.339   5.549   8.999  0.2087  0.5975 -0.1089
  621MOL0     C85572   4.468   5.507   8.930 -0.9769 -0.1122 -0.3226
  621MOL0     C85573   4.454   5.534   8.778  0.2625  0.5203 -0.6530
  621MOL0     C85574   4.469   5.679   8.730  0.1527 -0.0249 -0.4055
  621MOL0     C85575   4.467   5.669   8.570  0.6603 -0.7252 -0.1563
  621MOL0     C85576   4.486   5.804   8.504  0.0483  0.1614 -0.5400
  621MOL0     N85577   4.507   5.796   8.356  0.4043 -0.8382 -0.8268
  621MOL0     C85578   4.603   5.854   8.271  0.0082 -0.0731 -1.0925
  621MOL0     C85579   4.581   5.798   8.148  0.5150  0.2656 -0.3388
  621MOL0     C85580   4.662   5.833   8.021  0.7241  0.5218 -0.3593
  621MOL0     C85581   4.780   5.735   8.016 -0.5132  0.0705 -0.2324
  621MOL0     C85582   4.865   5.755   7.890  0.0172 -1.2652 -0.2523
  621MOL0     C85583   4.938   5.890   7.875 -0.3823 -0.8325  0.5347
  621MOL0     O85584   5.067   5.880   7.935 -0.4689  0.7115 -0.5666
  621MOL0     C85585   5.167   5.959   7.897 -0.0060  0.4868 -0.2760
  621MOL0     C85586   5.288   5.948   7.962 -0.0247 -0.5217  0.0130
  621MOL0     C85587   5.398   6.030   7.941  0.8188 -0.1062  0.6983
  621MOL0     C85588   5.524   6.015   8.033  1.1457  0.8391 -0.3716
  621MOL0     C85589   5.385   6.133   7.840 -0.4916  0.2291 -0.0904
  621MOL0     C85590   5.489   6.234   7.802 -0.6707 -0.6951  0.5988
  621MOL0     O85591   5.454   6.323   7.702 -0.4204 -0.0159 -0.4738
  621MOL0     C85592   5.544   6.420   7.670 -0.8289  0.2844  0.6146
  621MOL0     C85593   5.596   6.440   7.544 -0.2779  0.5121 -0.3155
  621MOL0     C85594   5.696   6.534   7.512 -0.4643 -0.3355  0.7514
  621MOL0     C85595   5.754   6.622   7.614 -0.2747  0.0933  0.0280
  621MOL0     O85596   5.851   6.706   7.576 -0.1765  0.3776  0.4113
  621MOL0     C85597   5.938   6.760   7.681 -0.4650  0.2847 -0.1965
  621MOL0     C85598   6.027   6.654   7.751  0.5015  1.2617  0.1134
  621MOL0     C85599   6.131   6.601   7.656 -0.1706  0.5194 -0.1485
  621MOL0     C85600   6.237   6.500   7.718  1.7514  0.5445 -0.4364
  621MOL0     C85601   6.364   6.492   7.638 -0.0146 -0.3816 -0.8034
  621MOL0     C85602   6.440   6.363   7.681  0.4275  0.5661 -0.5029
  621MOL0     C85603   6.541   6.324   7.578  0.7645 -0.2931 -0.0380
  621MOL0     C85604   6.616   6.188   7.590  0.5731  0.4205  0.4876
  621MOL0    Cl85605   6.746   6.199   7.711 -0.0909 -0.1305 -0.1949
  621MOL0     C85606   5.701   6.605   7.749 -0.1969  0.0222 -0.4868
  621MOL0     C85607   5.600   6.506   7.765  0.4793 -0.8647  0.2251
  621MOL0     O85608   5.599   6.236   7.854 -0.0398  0.4978 -0.3918
  621MOL0     C85609   5.264   6.138   7.766  0.4874 -0.1703 -0.1518
  621MOL0     C85610   5.160   6.060   7.796  0.3988  0.6893  0.0631
  621MOL0     N85611   4.466   5.723   8.155 -0.4093  0.0290 -0.1256
  621MOL0     N85612   4.428   5.711   8.281 -0.8564 -0.5477 -0.5298
  621MOL0     C85613   4.056   5.640   9.541 -0.7889 -0.1661 -0.1806
  621MOL0     C85614   3.929   5.652   9.607 -0.7066  0.5364 -0.3179
  621MOL0     C85615   3.477   5.596   9.700  0.4088  0.3502  0.2894
  621MOL0     C85616   3.528   5.557   9.828 -0.1038  0.8511  0.2000
  621MOL0     C85617   3.443   5.519   9.935  0.3433  0.2810 -0.1737
  621MOL0     C85618   3.308   5.528   9.920 -0.4414  1.0215 -1.0105
  621MOL0     O85619   3.212   5.510  10.021  0.3898  0.4386  0.5140
  621MOL0     C85620   3.263   5.480  10.152 -0.4117 -0.3680 -0.4810
  621MOL0     C85621   3.279   5.606  10.237  0.1971  0.2052  0.4534
  621MOL0     C85622   3.158   5.689  10.288  0.2025 -0.0088 -0.5553
  621MOL0     C85623   3.105   5.620  10.405 -0.3683  0.3459 -0.7088
  621MOL0     C85624   3.000   5.521  10.374  0.3956  0.0472 -0.1497
  621MOL0     C85625   2.912   5.445  10.353 -1.2438  0.9536 -0.1576
  621MOL0     C85626   3.256   5.559   9.792  0.3747 -0.2976  0.1305
  621MOL0     C85627   3.339   5.589   9.676 -0.1101  0.0821 -0.3992
  621MOL0     C85628   3.274   5.624   9.544  0.0308 -0.1776 -1.2889
  621MOL0     H85629   3.736   5.476   9.388 -1.9651  0.5698  0.5481
  621MOL0     H85630   3.963   5.480   9.266 -2.4625 -0.2325 -0.2255
  621MOL0     H85631   4.135   5.574   9.147 -2.1248  0.8081  1.8314
  621MOL0     H85632   4.180   5.431   9.248  0.5418  0.2572 -0.1409
  621MOL0     H85633   4.416   5.600   9.193 -1.7807  2.7380  0.3036
  621MOL0     H85634   4.395   5.428   9.172  3.8249 -0.1809 -3.4373
  621MOL0     H85635   4.256   5.485   8.968 -0.5449  1.1188  0.8051
  621MOL0     H85636   4.320   5.653   8.971  0.9468  0.7416 -0.1047
  621MOL0     H85637   4.543   5.574   8.971 -2.6253  2.0097 -0.6306
  621MOL0     H85638   4.491   5.401   8.946  3.1295  0.3778 -1.8989
  621MOL0     H85639   4.357   5.495   8.745  0.1379 -0.0832  0.3678
  621MOL0     H85640   4.533   5.476   8.731  0.7864 -0.6902  1.5972
  621MOL0     H85641   4.389   5.741   8.772 -0.5510 -0.9647 -0.3222
  621MOL0     H85642   4.564   5.721   8.763 -0.2525 -0.9209  2.0872
  621MOL0     H85643   4.367   5.631   8.546  0.3875 -0.6239  0.7928
  621MOL0     H85644   4.549   5.600   8.544 -0.2165 -2.5264  1.5846
  621MOL0     H85645   4.395   5.861   8.527 -0.6235 -0.9471 -0.3511
  621MOL0     H85646   4.568   5.853   8.557 -0.3518  2.5477 -1.9585
  621MOL0     H85647   4.680   5.926   8.299 -0.2747 -0.6228  1.3288
  621MOL0     H85648   4.695   5.936   8.035 -1.2427  1.2193 -0.7068
  621MOL0     H85649   4.596   5.819   7.936  1.9372 -3.3061 -0.8647
  621MOL0     H85650   4.841   5.747   8.106  0.1420 -1.3364 -0.4676
  621MOL0     H85651   4.739   5.634   8.010  0.3010 -0.1807 -2.2410
  621MOL0     H85652   4.940   5.676   7.885 -0.4962 -1.6739 -2.1846
  621MOL0     H85653   4.795   5.746   7.807 -0.2875 -3.5359  0.1870
  621MOL0     H85654   4.951   5.905   7.768  2.5844  1.9132  1.1082
  621MOL0     H85655   4.879   5.973   7.914 -0.8056 -1.3633  1.0581
  621MOL0     H85656   5.298   5.874   8.040 -1.6685  0.3400  1.0989
  621MOL0     H85657   5.608   6.006   7.964 -0.1976  1.4977 -2.1937
  621MOL0     H85658   5.517   5.935   8.107 -0.6532  0.1475 -1.2271
  621MOL0     H85659   5.529   6.101   8.100 -0.4582 -0.5123  1.6306
  621MOL0     H85660   5.558   6.363   7.477 -0.8108 -0.1511  0.7239
  621MOL0     H85661   5.747   6.535   7.417 -2.7468 -0.4309 -0.5587
  621MOL0     H85662   6.008   6.836   7.646 -0.7609  1.8364  2.3259
  621MOL0     H85663   5.874   6.812   7.753 -1.6975 -0.7037 -0.5525
  621MOL0     H85664   6.085   6.691   7.836 -1.2988  1.6053  1.2523
  621MOL0     H85665   5.964   6.569   7.779  0.4604  1.8669  1.9784
  621MOL0     H85666   6.184   6.683   7.606  0.0376  0.1520 -0.5417
  621MOL0     H85667   6.075   6.560   7.571  0.8748 -0.1230 -0.5471
  621MOL0     H85668   6.193   6.401   7.725  1.8936  0.5473  0.6303
  621MOL0     H85669   6.267   6.528   7.820  2.6360 -1.2670 -0.1627
  621MOL0     H85670   6.355   6.507   7.530  1.2795 -0.0561 -0.8815
  621MOL0     H85671   6.431   6.576   7.659  1.6035 -2.2095  1.9869
  621MOL0     H85672   6.363   6.285   7.689  0.7484  0.3059  0.1331
  621MOL0     H85673   6.492   6.379   7.776 -0.4235 -0.3946  0.1427
  621MOL0     H85674   6.608   6.410   7.586 -2.3741  2.1823  2.7478
  621MOL0     H85675   6.485   6.321   7.484  2.4077 -0.5282 -1.0418
  621MOL0     H85676   6.655   6.159   7.492 -0.8010 -1.5873  0.4861
  621MOL0     H85677   6.547   6.107   7.615 -0.7687  0.9533 -1.3163
  621MOL0     H85678   5.731   6.651   7.842 -0.2969 -0.3803 -0.2517
  621MOL0     H85679   5.551   6.518   7.861 -2.3942  1.2060 -1.3607
  621MOL0     H85680   5.255   6.205   7.681 -2.6519 -1.4792 -1.0222
  621MOL0     H85681   5.070   6.063   7.734 -0.6486 -0.0012  1.4963
  621MOL0     H85682   4.148   5.677   9.584 -1.4019  1.3654 -0.0943
  621MOL0     H85683   3.923   5.699   9.705 -0.2508  5.0158 -2.1989
  621MOL0     H85684   3.633   5.549   9.853 -0.5268 -2.1223  1.4805
  621MOL0     H85685   3.493   5.490  10.027 -0.2668  1.6977  0.6403
  621MOL0     H85686   3.185   5.418  10.197 -1.9909  1.4563 -0.5613
  621MOL0     H85687   3.350   5.415  10.146 -0.5472 -0.4338 -2.4199
  621MOL0     H85688   3.345   5.672  10.179 -0.6585  0.2291 -0.5278
  621MOL0     H85689   3.330   5.577  10.329 -1.5432 -4.1750  0.2600
  621MOL0     H85690   3.179   5.794  10.308 -1.6324  0.7231 -2.1803
  621MOL0     H85691   3.087   5.681  10.206 -0.3476 -1.7770  0.0474
  621MOL0     H85692   3.060   5.703  10.461  0.1558 -0.5721  1.1690
  621MOL0     H85693   3.186   5.575  10.463  0.9750  1.1025 -1.9296
  621MOL0     H85694   2.846   5.365  10.329 -0.8964  0.6964 -0.2584
  621MOL0     H85695   3.148   5.575   9.791  0.1452 -1.5581  1.1960
  621MOL0     H85696   3.270   5.732   9.525 -0.0494 -0.2446 -1.6693
  621MOL0     H85697   3.322   5.563   9.467  0.5857 -2.3024  0.6470
  621MOL0     H85698   3.169   5.595   9.534  0.2823 -0.9631 -1.7762
  622MOL0     O85699   6.616   8.542   7.284  0.2899 -0.3400 -0.3521
  622MOL0     C85700   6.519   8.525   7.206  0.5118  1.0978 -0.1467
  622MOL0     O85701   6.546   8.485   7.075  0.2889 -0.0045 -0.7527
  622MOL0     C85702   6.677   8.469   7.046  0.2937  0.3278 -0.1305
  622MOL0     C85703   6.752   8.575   6.990  0.6872  0.0264  0.1126
  622MOL0     C85704   6.882   8.557   6.953 -0.3926 -0.0299 -0.4340
  622MOL0     C85705   6.944   8.435   6.979 -1.3166 -0.5372 -0.0517
  622MOL0     O85706   7.078   8.430   6.937 -0.6575  0.2841 -0.8230
  622MOL0     C85707   7.167   8.481   7.036 -0.6296 -0.2168 -0.9676
  622MOL0     C85708   7.290   8.398   7.052  0.2908 -0.0226  0.0673
  622MOL0     C85709   7.380   8.387   6.929  0.0983 -0.1626  0.4863
  622MOL0     C85710   7.466   8.262   6.931  0.6747  0.1166 -0.4888
  622MOL0     C85711   7.554   8.237   6.806  0.3155  0.8352  0.0809
  622MOL0     C85712   7.647   8.357   6.777  0.2014 -0.3239  0.1110
  622MOL0     C85713   7.741   8.346   6.656  0.0707 -0.3058  0.3675
  622MOL0     C85714   7.747   8.204   6.589  0.3391  0.0940 -1.2311
  622MOL0     N85715   7.876   8.195   6.506 -0.0509 -0.0425  0.6492
  622MOL0     C85716   7.889   8.127   6.385  0.3890 -0.7566  0.4031
  622MOL0     C85717   8.013   8.138   6.350 -0.7341 -0.0029 -0.2047
  622MOL0     C85718   8.078   8.081   6.229 -0.6778 -0.7342 -0.7554
  622MOL0     C85719   8.151   8.189   6.146 -0.6497  0.2798 -0.5368
  622MOL0     C85720   8.247   8.119   6.044 -0.1137  0.5792 -0.0687
  622MOL0     C85721   8.330   8.234   5.988 -0.4641  0.8751  1.3280
  622MOL0     O85722   8.420   8.170   5.904 -0.5921 -0.4990 -0.4261
  622MOL0     C85723   8.520   8.232   5.830 -0.5969  0.3248 -0.5266
  622MOL0     C85724   8.581   8.154   5.732  0.2793 -0.3853  0.2650
  622MOL0     C85725   8.675   8.208   5.645  0.1189  0.6645 -0.4163
  622MOL0     C85726   8.747   8.113   5.556 -0.0204 -0.0185 -0.3006
  622MOL0     C85727   8.725   8.343   5.661  0.6312 -0.2305  0.1266
  622MOL0     C85728   8.843   8.399   5.585  0.2675 -0.0240 -0.6313
  622MOL0     O85729   8.930   8.319   5.514 -0.6103 -0.0134  0.0111
  622MOL0     C85730   9.028   8.369   5.432 -0.6031 -0.0842  0.1226
  622MOL0     C85731   9.040   8.300   5.309 -0.2292 -0.1376  0.5276
  622MOL0     C85732   9.146   8.333   5.228  0.1565 -0.2984  0.3678
  622MOL0     C85733   9.230   8.440   5.248 -0.1348 -0.5818  0.2365
  622MOL0     O85734   9.317   8.475   5.150  0.3832  0.2367  0.5211
  622MOL0     C85735   9.438   8.542   5.181  0.0428 -0.2618  0.2642
  622MOL0     C85736   9.545   8.433   5.202  0.2678 -0.0476  0.2586
  622MOL0     C85737   9.614   8.404   5.067 -0.9005  0.0650  0.4107
  622MOL0     C85738   9.740   8.317   5.104  0.0964  0.7880 -0.0168
  622MOL0     C85739   9.798   8.258   4.971 -0.1468  0.6406 -0.4245
  622MOL0     C85740   9.919   8.170   5.022  0.4761  0.5392 -0.8532
  622MOL0     C85741   9.969   8.074   4.910  0.2107 -0.7371 -0.3547
  622MOL0     C85742  10.064   7.967   4.962 -1.0916 -0.3017 -0.3587
  622MOL0    Cl85743  10.130   7.858   4.837 -0.4495 -0.3564 -0.1356
  622MOL0     C85744   9.216   8.504   5.370  0.5312  0.0873  0.7354
  622MOL0     C85745   9.113   8.480   5.455  0.0534 -0.1886 -0.1550
  622MOL0     O85746   8.842   8.519   5.593 -0.0775 -0.0264 -0.2676
  622MOL0     C85747   8.654   8.425   5.764  0.1869  0.3394  0.0432
  622MOL0     C85748   8.550   8.375   5.838 -1.0890  0.4357 -0.0783
  622MOL0     N85749   8.082   8.196   6.454  0.3172 -0.2753  0.1543
  622MOL0     N85750   8.002   8.238   6.542  0.5045  0.4988 -0.4880
  622MOL0     C85751   6.872   8.321   7.017 -0.8066  0.7066 -0.0919
  622MOL0     C85752   6.740   8.342   7.066 -0.4922  0.0487  0.3331
  622MOL0     C85753   6.382   8.560   7.246  0.4416 -0.7513  0.0776
  622MOL0     C85754   6.279   8.521   7.156  0.6597  0.9960 -0.8398
  622MOL0     C85755   6.147   8.555   7.188  0.1968 -0.0451 -0.7203
  622MOL0     C85756   6.110   8.614   7.308 -0.2537  0.5443  0.1813
  622MOL0     O85757   5.981   8.649   7.343 -0.3096 -0.1355 -0.1793
  622MOL0     C85758   5.896   8.534   7.361  0.1192 -0.2115 -0.3128
  622MOL0     C85759   5.757   8.569   7.414  0.3934 -0.2383  0.3045
  622MOL0     C85760   5.675   8.615   7.295 -0.4243 -0.4813 -1.5310
  622MOL0     C85761   5.534   8.656   7.342  0.5556 -0.2443  0.7380
  622MOL0     C85762   5.461   8.742   7.255  0.1733 -1.2971  0.8952
  622MOL0     C85763   5.400   8.829   7.196  0.2915  0.1174 -0.1267
  622MOL0     C85764   6.210   8.654   7.399  0.3992 -0.5638  1.1219
  622MOL0     C85765   6.351   8.635   7.368  0.0953  0.3355  0.5847
  622MOL0     C85766   6.456   8.684   7.473  0.5928 -0.4295  0.0508
  622MOL0     H85767   6.705   8.669   6.964  0.8748  0.0406 -0.1839
  622MOL0     H85768   6.919   8.649   6.908  0.3677 -0.8780 -1.5981
  622MOL0     H85769   7.121   8.498   7.134 -1.4310  3.0775 -1.7835
  622MOL0     H85770   7.192   8.581   6.998 -1.4025 -0.4037 -1.9915
  622MOL0     H85771   7.343   8.429   7.143 -0.1279 -1.1700  0.7094
  622MOL0     H85772   7.253   8.299   7.079 -0.2024  0.1090 -0.1108
  622MOL0     H85773   7.319   8.387   6.838 -2.0853 -1.4033  1.8780
  622MOL0     H85774   7.434   8.482   6.929 -1.5300  0.7978  1.1092
  622MOL0     H85775   7.526   8.271   7.022 -1.2459  1.1310  0.7454
  622MOL0     H85776   7.397   8.177   6.931 -1.3455  1.6363  1.7247
  622MOL0     H85777   7.483   8.229   6.724  1.0091 -0.0905 -0.4464
  622MOL0     H85778   7.605   8.143   6.830 -2.0561 -0.5967 -0.1457
  622MOL0     H85779   7.596   8.450   6.751  4.0492  1.0725 -3.5903
  622MOL0     H85780   7.702   8.384   6.867 -0.5383  0.0998  0.4405
  622MOL0     H85781   7.839   8.386   6.684  1.1132 -0.2946 -2.8726
  622MOL0     H85782   7.716   8.418   6.578 -0.5253 -0.9138 -0.0155
  622MOL0     H85783   7.755   8.138   6.676  0.9994  0.9339 -0.6395
  622MOL0     H85784   7.655   8.189   6.532  0.2342  0.9172 -1.2856
  622MOL0     H85785   7.811   8.083   6.324  0.4351 -0.9934  0.5125
  622MOL0     H85786   7.996   8.041   6.170 -1.7370  0.0845  0.1344
  622MOL0     H85787   8.145   8.001   6.264 -1.1502 -0.8663 -0.1425
  622MOL0     H85788   8.079   8.241   6.083 -0.6474  0.4869 -0.3642
  622MOL0     H85789   8.208   8.261   6.205  1.6628 -0.9253 -1.1743
  622MOL0     H85790   8.315   8.054   6.100  0.2879  2.4387  1.7220
  622MOL0     H85791   8.196   8.066   5.963 -0.4984 -0.6953  0.9865
  622MOL0     H85792   8.272   8.306   5.928 -1.2372 -0.2896  0.6363
  622MOL0     H85793   8.389   8.282   6.066 -0.1797 -0.7020  2.1249
  622MOL0     H85794   8.551   8.050   5.744 -0.2064 -0.1407  1.2570
  622MOL0     H85795   8.845   8.086   5.598  0.6599  0.1941 -1.6901
  622MOL0     H85796   8.759   8.157   5.457  0.9073 -1.1992 -0.7359
  622MOL0     H85797   8.685   8.024   5.546 -0.1063 -0.1567  1.1393
  622MOL0     H85798   8.977   8.213   5.296  1.7064 -1.6281  0.6386
  622MOL0     H85799   9.153   8.277   5.136 -1.6472  0.8347 -0.5215
  622MOL0     H85800   9.467   8.620   5.110 -0.7702  0.2270  0.4623
  622MOL0     H85801   9.431   8.605   5.270  0.8557  0.7649 -0.3784
  622MOL0     H85802   9.609   8.473   5.281  1.4827 -1.4395  0.0257
  622MOL0     H85803   9.502   8.345   5.252 -1.4654  1.3586  1.3880
  622MOL0     H85804   9.643   8.490   5.005 -1.4049  0.3497  0.5615
  622MOL0     H85805   9.547   8.344   5.005  0.0419 -1.4597  0.8380
  622MOL0     H85806   9.717   8.231   5.167 -0.0543  2.0858  1.7799
  622MOL0     H85807   9.813   8.370   5.166  1.7521 -0.8705 -0.4499
  622MOL0     H85808   9.721   8.188   4.937  0.2754  0.8104 -1.7721
  622MOL0     H85809   9.834   8.332   4.899  0.5120 -0.2115 -0.9752
  622MOL0     H85810   9.907   8.106   5.110  0.6341  0.7317 -0.6889
  622MOL0     H85811  10.001   8.238   5.047 -0.5640  1.3559  0.4660
  622MOL0     H85812  10.026   8.133   4.838  2.6911 -0.3724  1.7438
  622MOL0     H85813   9.885   8.030   4.856 -1.0388  1.5111 -0.3543
  622MOL0     H85814  10.024   7.911   5.046 -1.7237  0.1614 -0.3415
  622MOL0     H85815  10.153   8.016   5.003 -1.6786  0.4035  0.1003
  622MOL0     H85816   9.279   8.586   5.405 -0.9808  1.1339  1.0769
  622MOL0     H85817   9.093   8.531   5.549 -1.5331 -0.4215 -0.3330
  622MOL0     H85818   8.680   8.528   5.786  1.5853  0.1510 -0.6448
  622MOL0     H85819   8.492   8.429   5.912  0.5433  0.3929  1.2953
  622MOL0     H85820   6.915   8.222   7.023 -0.6786  0.8694  2.3588
  622MOL0     H85821   6.698   8.252   7.109  2.0199 -2.2341 -1.6077
  622MOL0     H85822   6.293   8.474   7.059 -0.0463 -1.4582  0.1692
  622MOL0     H85823   6.069   8.519   7.122  0.4520 -0.6820 -0.6827
  622MOL0     H85824   5.886   8.492   7.260 -0.8075  0.5494 -0.5441
  622MOL0     H85825   5.934   8.459   7.432 -2.0001 -1.1854 -0.1374
  622MOL0     H85826   5.760   8.643   7.495  0.2072  0.9263 -0.7245
  622MOL0     H85827   5.723   8.476   7.461  1.0714 -1.9002 -2.3166
  622MOL0     H85828   5.731   8.697   7.247 -0.4378  1.6345  1.7663
  622MOL0     H85829   5.667   8.535   7.221  1.1033 -0.9448 -1.2138
  622MOL0     H85830   5.549   8.729   7.422  2.9414  0.2852 -0.1250
  622MOL0     H85831   5.473   8.569   7.371 -1.7112  1.7903  2.5634
  622MOL0     H85832   5.352   8.913   7.151 -2.6107 -2.1374 -1.6110
  622MOL0     H85833   6.178   8.701   7.492 -2.0421  0.1264  0.0162
  622MOL0     H85834   6.534   8.743   7.424  0.2753 -0.7572 -0.8830
  622MOL0     H85835   6.415   8.752   7.547  1.3291 -0.3263  0.3690
  622MOL0     H85836   6.489   8.602   7.537 -1.0093 -1.2439 -0.0906
  623MOL0     O85837   2.377   8.505   6.913  0.1716 -0.6011  0.5153
  623MOL0     C85838   2.366   8.405   6.844  0.2159  0.0481 -0.0816
  623MOL0     O85839   2.458   8.352   6.760  0.3451  0.3806  0.8272
  623MOL0     C85840   2.564   8.429   6.767 -0.2173 -0.3110  0.6319
  623MOL0     C85841   2.675   8.387   6.837 -0.7234  0.1089  0.7114
  623MOL0     C85842   2.791   8.453   6.851 -0.4232 -0.0639 -0.1389
  623MOL0     C85843   2.807   8.576   6.790  0.3847  0.5923  0.1821
  623MOL0     O85844   2.911   8.656   6.784  0.1078  0.2701 -0.7459
  623MOL0     C85845   3.046   8.606   6.775 -0.0938  0.1418 -0.7729
  623MOL0     C85846   3.128   8.715   6.705  0.8010 -0.2962 -0.1537
  623MOL0     C85847   3.272   8.660   6.686 -0.0469  0.2802  0.2396
  623MOL0     C85848   3.338   8.749   6.571  0.5402 -0.6917 -0.0590
  623MOL0     C85849   3.466   8.697   6.517  0.2044  0.1092  0.8098
  623MOL0     C85850   3.582   8.729   6.621 -0.7077 -0.0039 -1.0082
  623MOL0     C85851   3.724   8.693   6.559 -0.3993  0.8934  0.0073
  623MOL0     C85852   3.833   8.736   6.650  0.2500  0.0184 -0.3385
  623MOL0     N85853   3.950   8.762   6.576  0.0086 -0.4238 -0.4845
  623MOL0     C85854   3.993   8.895   6.558 -0.2560 -0.2147  0.5658
  623MOL0     C85855   4.128   8.881   6.530  0.1769  0.8744  0.2327
  623MOL0     C85856   4.221   8.994   6.503  0.4023  0.1343  0.2240
  623MOL0     C85857   4.334   8.992   6.603  0.9375  0.1900  0.2907
  623MOL0     C85858   4.451   9.085   6.564  0.1638 -0.6614  0.2417
  623MOL0     C85859   4.561   9.065   6.671 -0.0126  0.1783 -0.2783
  623MOL0     O85860   4.675   9.152   6.645  0.0469  0.0144  0.0371
  623MOL0     C85861   4.787   9.107   6.701  0.2599 -0.8563 -0.6669
  623MOL0     C85862   4.797   9.016   6.811  0.3969 -0.7868  0.1343
  623MOL0     C85863   4.916   8.976   6.868 -0.6667  0.8562  0.2412
  623MOL0     C85864   4.905   8.884   6.991 -0.0764 -1.0103  0.7855
  623MOL0     C85865   5.038   9.033   6.814 -0.4582 -0.2066 -0.5367
  623MOL0     C85866   5.174   8.991   6.862  0.8772  0.7649  0.2322
  623MOL0     O85867   5.285   9.047   6.793  0.4948  0.7532 -0.0659
  623MOL0     C85868   5.408   9.033   6.855  0.4121  0.2335 -0.4795
  623MOL0     C85869   5.519   8.957   6.801  0.5547  0.5613  0.3658
  623MOL0     C85870   5.644   8.945   6.853  0.2468 -0.0195 -0.1950
  623MOL0     C85871   5.666   9.010   6.975 -0.1207  0.1769  0.4656
  623MOL0     O85872   5.796   9.000   7.029  0.8059 -0.3121  0.0786
  623MOL0     C85873   5.811   9.034   7.165  0.1357  0.2619 -0.1294
  623MOL0     C85874   5.948   9.003   7.228  0.2981 -0.3499  0.1896
  623MOL0     C85875   5.948   9.036   7.376  0.3827 -0.2201 -0.2905
  623MOL0     C85876   6.078   9.045   7.448 -0.5767 -0.6728  0.4287
  623MOL0     C85877   6.178   9.152   7.380 -0.6335 -1.0103  0.3905
  623MOL0     C85878   6.127   9.302   7.387  0.4507  0.0941  0.4194
  623MOL0     C85879   6.123   9.354   7.530  0.4363 -0.2387  0.1942
  623MOL0     C85880   6.092   9.506   7.539  0.3157 -1.3439  0.2397
  623MOL0    Cl85881   5.930   9.537   7.468 -0.0346  0.2896  0.2280
  623MOL0     C85882   5.563   9.094   7.025 -0.5172 -0.0103 -1.2523
  623MOL0     C85883   5.436   9.102   6.968  0.2805  0.0059 -0.2411
  623MOL0     O85884   5.183   8.915   6.957  0.1541  0.8033  0.0762
  623MOL0     C85885   5.029   9.131   6.710 -0.2836  0.0297  0.6912
  623MOL0     C85886   4.907   9.174   6.660  0.2405 -0.2486  1.1931
  623MOL0     N85887   4.161   8.744   6.530  0.2102  0.0191  0.3713
  623MOL0     N85888   4.051   8.676   6.560 -1.0260  0.3580  0.2355
  623MOL0     C85889   2.694   8.620   6.714  0.1095 -0.4020  0.8226
  623MOL0     C85890   2.571   8.552   6.705  0.1405  0.1497 -0.0570
  623MOL0     C85891   2.241   8.329   6.864 -0.3953 -0.1881  0.4870
  623MOL0     C85892   2.224   8.195   6.820 -0.3559  0.3747  0.9261
  623MOL0     C85893   2.109   8.118   6.841  0.6710 -0.0936 -0.3908
  623MOL0     C85894   1.999   8.171   6.903 -0.7141 -0.7214 -0.1179
  623MOL0     O85895   1.873   8.111   6.930  0.0516 -0.2171 -0.5983
  623MOL0     C85896   1.844   7.977   6.877  0.1822 -0.3656 -0.1514
  623MOL0     C85897   1.703   7.969   6.818 -1.2689 -0.8679  0.5991
  623MOL0     C85898   1.668   8.064   6.702 -0.2190 -0.1663  0.0438
  623MOL0     C85899   1.515   8.094   6.676  0.2137 -0.5392  0.3318
  623MOL0     C85900   1.440   7.971   6.685 -0.1315  0.3687  0.2609
  623MOL0     C85901   1.361   7.883   6.684  0.5979 -0.2454 -0.6436
  623MOL0     C85902   2.008   8.303   6.949  0.0288 -0.0906  0.2610
  623MOL0     C85903   2.119   8.382   6.929  0.1249  0.1440 -0.3782
  623MOL0     C85904   2.103   8.520   6.988 -1.1447 -0.7147 -0.6537
  623MOL0     H85905   2.674   8.289   6.885  1.8516 -0.9516 -1.1927
  623MOL0     H85906   2.868   8.407   6.911  2.3347  0.5742 -2.9554
  623MOL0     H85907   3.050   8.513   6.718 -0.4378  1.0810 -2.3782
  623MOL0     H85908   3.096   8.584   6.870  1.5489 -3.4905 -2.2902
  623MOL0     H85909   3.084   8.724   6.606 -0.0370 -0.7643  0.1622
  623MOL0     H85910   3.118   8.810   6.759 -0.4660  0.7587 -2.1346
  623MOL0     H85911   3.337   8.671   6.774 -0.1912 -0.1332  0.4022
  623MOL0     H85912   3.274   8.556   6.651  1.1112  0.3321  0.1143
  623MOL0     H85913   3.260   8.745   6.494 -2.9617 -1.1977  3.1812
  623MOL0     H85914   3.348   8.852   6.608  2.1027 -0.1628 -1.8282
  623MOL0     H85915   3.487   8.737   6.418 -0.8120 -0.1273  0.4894
  623MOL0     H85916   3.460   8.588   6.507 -1.5561  0.2619 -0.1417
  623MOL0     H85917   3.578   8.833   6.655 -1.0361  0.1257 -1.4352
  623MOL0     H85918   3.571   8.661   6.707 -0.4676  0.5144 -0.5604
  623MOL0     H85919   3.738   8.759   6.473  1.3069  1.2651  0.5318
  623MOL0     H85920   3.736   8.589   6.529  2.6991  0.8729  0.9886
  623MOL0     H85921   3.804   8.823   6.710  1.8159 -0.7852  1.7093
  623MOL0     H85922   3.853   8.652   6.717 -0.2223 -0.4236 -0.7479
  623MOL0     H85923   3.933   8.985   6.564 -0.5051 -0.1786 -1.6197
  623MOL0     H85924   4.173   9.092   6.515  1.4898  0.4929  1.9836
  623MOL0     H85925   4.260   8.993   6.401 -1.3445 -0.9772 -0.4691
  623MOL0     H85926   4.296   9.021   6.701 -0.6655  1.7418 -0.7191
  623MOL0     H85927   4.372   8.891   6.616 -0.4324 -0.0800  2.7871
  623MOL0     H85928   4.475   9.079   6.457 -1.5262  0.0063 -0.2067
  623MOL0     H85929   4.423   9.189   6.584  0.7838 -0.6456  1.0619
  623MOL0     H85930   4.515   9.085   6.767  0.5466 -1.7145  0.4261
  623MOL0     H85931   4.588   8.959   6.666  0.4481  0.3248 -1.1789
  623MOL0     H85932   4.703   8.979   6.849  0.4189 -1.7089 -0.6814
  623MOL0     H85933   4.800   8.876   7.020  0.1326  0.4856  2.0818
  623MOL0     H85934   4.949   8.949   7.067 -0.5374 -0.9511  1.0017
  623MOL0     H85935   4.959   8.788   6.984 -0.1519 -1.3277  3.4542
  623MOL0     H85936   5.500   8.907   6.707  1.1141  1.8020 -0.4349
  623MOL0     H85937   5.721   8.879   6.815  0.3756 -0.4589  0.8036
  623MOL0     H85938   5.798   9.143   7.171  1.3712  0.4324 -0.2501
  623MOL0     H85939   5.734   8.989   7.228  2.6401 -1.7100  1.7601
  623MOL0     H85940   5.958   8.894   7.220 -0.3238 -0.3155 -1.4138
  623MOL0     H85941   6.022   9.048   7.161 -0.1822 -1.6336 -1.2766
  623MOL0     H85942   5.889   8.954   7.419  0.2649  0.7044  1.3744
  623MOL0     H85943   5.885   9.123   7.396  0.4293 -0.7610  2.6661
  623MOL0     H85944   6.121   8.945   7.444  0.8880 -0.0264 -1.3202
  623MOL0     H85945   6.064   9.078   7.552  1.2731 -1.0176  0.8265
  623MOL0     H85946   6.274   9.138   7.430  0.4550  1.1507 -0.9525
  623MOL0     H85947   6.201   9.126   7.276 -0.3966 -2.6154  0.8118
  623MOL0     H85948   6.029   9.315   7.340  0.5897 -0.4231 -0.0163
  623MOL0     H85949   6.199   9.356   7.325  0.2363  0.9592  0.9066
  623MOL0     H85950   6.217   9.323   7.576 -0.7974 -2.9059  1.1460
  623MOL0     H85951   6.042   9.300   7.580 -0.5950 -0.8061 -1.9508
  623MOL0     H85952   6.163   9.570   7.486 -0.1788 -0.9312  0.0688
  623MOL0     H85953   6.104   9.536   7.644  1.6645  2.1775 -0.7660
  623MOL0     H85954   5.585   9.142   7.120 -2.2832  0.5959 -1.1147
  623MOL0     H85955   5.357   9.157   7.018 -0.9248 -2.4742  0.7748
  623MOL0     H85956   5.117   9.166   6.656  1.1795 -1.8132  1.7586
  623MOL0     H85957   4.897   9.260   6.594 -2.1237 -1.4164 -0.0939
  623MOL0     H85958   2.693   8.722   6.678  0.3907 -1.3388 -2.1530
  623MOL0     H85959   2.489   8.596   6.649 -1.0117 -2.6586 -0.7094
  623MOL0     H85960   2.301   8.140   6.767 -1.7449 -0.6447 -0.1124
  623MOL0     H85961   2.112   8.020   6.796  2.6991  0.1016 -0.7861
  623MOL0     H85962   1.906   7.946   6.793  1.3694  0.7873  0.2763
  623MOL0     H85963   1.834   7.908   6.962 -2.1679 -1.7710 -1.4539
  623MOL0     H85964   1.627   7.992   6.894 -1.1334  1.4865  0.1209
  623MOL0     H85965   1.693   7.864   6.790  0.4071 -1.0302  0.4775
  623MOL0     H85966   1.705   8.162   6.734 -0.9989 -0.5449  2.2471
  623MOL0     H85967   1.721   8.026   6.614  0.1399 -1.4474  0.7820
  623MOL0     H85968   1.507   8.141   6.578  0.9576 -1.3343 -0.1177
  623MOL0     H85969   1.472   8.159   6.753 -2.3682 -2.6050  0.7604
  623MOL0     H85970   1.278   7.815   6.686  0.4932 -0.1091 -0.0502
  623MOL0     H85971   1.928   8.346   7.009  0.1542 -0.7118  0.8767
  623MOL0     H85972   2.146   8.527   7.088  0.7116 -0.9805 -1.3906
  623MOL0     H85973   2.165   8.590   6.931  1.1500 -2.4391 -0.4170
  623MOL0     H85974   2.004   8.567   6.985  0.4968  3.1868 -0.6781
  624MOL0     O85975  10.710   3.754  10.271  0.7714 -0.1705  0.0417
  624MOL0     C85976  10.640   3.857  10.277  0.2402  0.5141 -0.6845
  624MOL0     O85977  10.656   3.941  10.384 -0.0780 -0.2065 -0.5893
  624MOL0     C85978  10.729   3.889  10.491  0.2064  0.7253  0.0738
  624MOL0     C85979  10.674   3.857  10.613 -0.6313 -0.2299  0.6017
  624MOL0     C85980  10.755   3.819  10.722  0.1887  1.1217 -0.1215
  624MOL0     C85981  10.889   3.814  10.708  0.1397  0.4750  0.3756
  624MOL0     O85982  10.979   3.782  10.801  0.4646 -0.0595  0.2518
  624MOL0     C85983  10.957   3.842  10.931  0.0057 -0.4386  0.4736
  624MOL0     C85984  11.073   3.869  11.011  0.5071 -0.0606 -0.1728
  624MOL0     C85985  11.143   3.741  11.053  0.4092 -0.3812  0.4193
  624MOL0     C85986  11.273   3.789  11.123  0.1278  1.1404  0.0872
  624MOL0     C85987  11.343   3.667  11.184 -0.2044  0.2341  0.5576
  624MOL0     C85988  11.481   3.712  11.230 -0.8417 -0.0640  1.0030
  624MOL0     C85989  11.531   3.643  11.349  0.5305  0.0547 -0.1314
  624MOL0     C85990  11.646   3.717  11.422  0.8405 -0.4124 -0.1076
  624MOL0     N85991  11.750   3.758  11.332  0.3199  0.1787  0.0532
  624MOL0     C85992  11.769   3.890  11.293  0.2655 -0.2078 -0.6281
  624MOL0     C85993  11.846   3.877  11.185  0.0710 -0.7208  0.3158
  624MOL0     C85994  11.899   3.998  11.109  0.5628  0.4121  0.2681
  624MOL0     C85995  11.784   4.092  11.080 -0.0235 -0.0612 -0.0311
  624MOL0     C85996  11.682   4.018  10.991  0.2897  0.1658 -0.3957
  624MOL0     C85997  11.555   4.102  10.968 -0.8416  0.2117 -1.2787
  624MOL0     O85998  11.561   4.236  10.926  0.2128 -0.3769 -0.4947
  624MOL0     C85999  11.623   4.259  10.805 -1.0809  0.1463  0.0219
  624MOL0     C86000  11.659   4.388  10.775 -0.4723  0.2296  0.5139
  624MOL0     C86001  11.733   4.415  10.654  0.2533 -0.5808  0.9979
  624MOL0     C86002  11.743   4.557  10.615  0.9413 -0.2315 -0.5594
  624MOL0     C86003  11.771   4.308  10.570  0.1638 -0.5792  0.4683
  624MOL0     C86004  11.858   4.319  10.454 -0.8225 -0.7406  0.0075
  624MOL0     O86005  11.941   4.424  10.446 -0.2842 -0.5028  0.2999
  624MOL0     C86006  12.049   4.425  10.358 -0.8412  0.8859 -1.1811
  624MOL0     C86007  12.162   4.348  10.391 -0.1109 -0.7392  0.6783
  624MOL0     C86008  12.275   4.346  10.311  0.5049  0.7173  0.8313
  624MOL0     C86009  12.287   4.436  10.197  0.1872  0.1240 -0.3340
  624MOL0     O86010  12.392   4.438  10.113  0.1981  0.3923 -0.5164
  624MOL0     C86011  12.493   4.344  10.134 -1.1660  0.0735 -0.7802
  624MOL0     C86012  12.481   4.204  10.078 -0.2125  0.3278  0.2534
  624MOL0     C86013  12.626   4.143  10.082 -0.3244  0.7732  0.6656
  624MOL0     C86014  12.635   4.004  10.013  0.2988 -0.6757 -0.4015
  624MOL0     C86015  12.572   3.991   9.870 -0.0229 -0.1739  0.3554
  624MOL0     C86016  12.639   4.086   9.769  0.3340  0.5120  0.9525
  624MOL0     C86017  12.584   4.054   9.622  0.0485  0.6859  0.1428
  624MOL0     C86018  12.655   4.132   9.512 -0.6991 -0.3517 -0.4172
  624MOL0    Cl86019  12.835   4.122   9.520 -0.1966 -0.2984 -0.3286
  624MOL0     C86020  12.185   4.529  10.181 -0.7499 -0.3197 -0.6056
  624MOL0     C86021  12.063   4.521  10.258 -0.5399 -0.5663 -0.2510
  624MOL0     O86022  11.867   4.225  10.377  0.5587 -0.0338  0.3820
  624MOL0     C86023  11.721   4.181  10.594  0.5425  0.6805 -0.0142
  624MOL0     C86024  11.643   4.159  10.712  0.1638 -0.1196  0.3836
  624MOL0     N86025  11.884   3.749  11.163  0.7783 -0.2536 -0.1040
  624MOL0     N86026  11.820   3.672  11.248 -0.4471 -0.4141  1.0603
  624MOL0     C86027  10.946   3.841  10.582  0.2984 -0.0568 -0.4491
  624MOL0     C86028  10.867   3.877  10.472  0.2025 -0.0367  0.5727
  624MOL0     C86029  10.528   3.860  10.182  0.5862 -0.7260 -0.0708
  624MOL0     C86030  10.520   3.762  10.084 -0.1214  0.0375 -0.5425
  624MOL0     C86031  10.414   3.753   9.989 -0.0718 -0.2904 -0.0757
  624MOL0     C86032  10.343   3.872   9.963 -0.5012 -0.1322 -1.2065
  624MOL0     O86033  10.269   3.885   9.850 -1.1417  0.4436 -0.1126
  624MOL0     C86034  10.289   4.004   9.772 -0.5432  0.1400 -0.2294
  624MOL0     C86035  10.418   3.983   9.688  0.8414 -0.0411 -0.4680
  624MOL0     C86036  10.445   4.094   9.580 -0.3271 -0.0344 -0.2551
  624MOL0     C86037  10.338   4.090   9.467 -0.3889  0.1043  0.2290
  624MOL0     C86038  10.393   4.165   9.352  0.1326  0.3345  0.4324
  624MOL0     C86039  10.435   4.245   9.277  0.4782 -0.1689  0.8695
  624MOL0     C86040  10.353   3.980  10.060 -0.1667  1.1208 -0.1522
  624MOL0     C86041  10.434   3.969  10.174  0.4267 -0.0104  0.2184
  624MOL0     C86042  10.418   4.078  10.283 -0.1436  0.9893  0.8525
  624MOL0     H86043  10.569   3.886  10.618 -0.9773 -1.2791 -0.1593
  624MOL0     H86044  10.717   3.818  10.823  1.8615  1.0664  0.5339
  624MOL0     H86045  10.884   3.775  10.978 -0.9994 -1.3038 -2.1159
  624MOL0     H86046  10.912   3.940  10.915 -2.1838 -1.3611  0.5185
  624MOL0     H86047  11.141   3.934  10.954 -0.4426  0.6962 -0.4704
  624MOL0     H86048  11.037   3.931  11.094 -1.2862 -0.0542 -0.9158
  624MOL0     H86049  11.076   3.697  11.128  0.1898  0.2129  0.5789
  624MOL0     H86050  11.167   3.678  10.967 -1.1409 -0.7208  0.2093
  624MOL0     H86051  11.340   3.833  11.048 -0.8093  3.5789  0.5844
  624MOL0     H86052  11.262   3.861  11.205  1.1544 -0.0459  1.3027
  624MOL0     H86053  11.337   3.580  11.119 -0.8593  1.0575 -0.5211
  624MOL0     H86054  11.275   3.643  11.265 -0.2935  2.0662  1.0690
  624MOL0     H86055  11.555   3.700  11.151 -2.9412 -2.4046 -0.7770
  624MOL0     H86056  11.485   3.819  11.249  0.3219  0.2607 -0.8853
  624MOL0     H86057  11.545   3.538  11.320  0.5408  1.2900 -5.7349
  624MOL0     H86058  11.444   3.648  11.415  0.4426 -0.9337 -0.1423
  624MOL0     H86059  11.603   3.805  11.471 -1.2150 -2.1744  1.4568
  624MOL0     H86060  11.689   3.659  11.504  1.1120 -1.4745 -0.9865
  624MOL0     H86061  11.730   3.981  11.338  0.0429 -0.0117 -1.2084
  624MOL0     H86062  11.934   3.957  11.014  0.7303 -0.6579  0.7644
  624MOL0     H86063  11.978   4.055  11.159  0.2920  0.6334  0.4461
  624MOL0     H86064  11.736   4.124  11.173 -0.1335  0.0860 -0.1374
  624MOL0     H86065  11.822   4.182  11.030  2.1027 -1.1656 -0.5079
  624MOL0     H86066  11.734   4.002  10.896  0.6167 -0.1893 -0.1581
  624MOL0     H86067  11.660   3.915  11.020  1.0764 -0.4331 -1.8177
  624MOL0     H86068  11.481   4.047  10.910 -3.4511  1.1887  0.8964
  624MOL0     H86069  11.520   4.113  11.071  1.1745  1.6473 -0.6768
  624MOL0     H86070  11.641   4.472  10.842 -0.1900  1.9310 -1.4644
  624MOL0     H86071  11.685   4.617  10.685 -0.2845 -2.7458  0.6941
  624MOL0     H86072  11.703   4.581  10.516 -1.2578 -1.2382  0.0188
  624MOL0     H86073  11.847   4.586  10.637  1.4707 -0.8353 -2.0950
  624MOL0     H86074  12.165   4.294  10.485  1.0598  1.8736  2.2637
  624MOL0     H86075  12.357   4.276  10.328  0.6741  0.9801  1.1050
  624MOL0     H86076  12.580   4.387  10.083 -0.5909  0.9808  0.8950
  624MOL0     H86077  12.513   4.347  10.242  0.7321  0.9001 -1.1155
  624MOL0     H86078  12.412   4.147  10.140 -1.7995 -0.9797 -2.5330
  624MOL0     H86079  12.437   4.214   9.979 -1.2516 -1.4858  0.4934
  624MOL0     H86080  12.664   4.125  10.183 -1.7104 -1.4659  0.8556
  624MOL0     H86081  12.698   4.201  10.024  0.3654 -0.4598  0.2554
  624MOL0     H86082  12.598   3.927  10.082  1.7883 -0.4721  0.6873
  624MOL0     H86083  12.742   3.985  10.004  0.9963  1.9277  1.2745
  624MOL0     H86084  12.568   3.888   9.833 -1.3056 -0.1134  0.2798
  624MOL0     H86085  12.466   4.016   9.878 -0.3248 -0.0535 -2.8479
  624MOL0     H86086  12.747   4.070   9.774  0.2659 -0.9535 -0.9980
  624MOL0     H86087  12.620   4.190   9.796  2.5469  0.8316  1.5031
  624MOL0     H86088  12.477   4.074   9.613  0.4776  2.2065 -4.7316
  624MOL0     H86089  12.606   3.948   9.607  1.4909  1.3261 -3.2199
  624MOL0     H86090  12.618   4.234   9.521 -2.9321 -1.0120 -1.3692
  624MOL0     H86091  12.614   4.099   9.415 -1.7341  1.6040 -0.6855
  624MOL0     H86092  12.199   4.603  10.102  2.1203  0.7250  0.7272
  624MOL0     H86093  11.985   4.595  10.243 -0.0498  0.4960  2.0391
  624MOL0     H86094  11.733   4.092  10.533 -0.5988  0.6912 -0.2827
  624MOL0     H86095  11.620   4.054  10.729 -0.2374 -0.0101  0.5260
  624MOL0     H86096  11.051   3.857  10.559  0.2413 -0.1536 -0.7810
  624MOL0     H86097  10.905   3.910  10.376 -0.8090 -1.5156 -0.3784
  624MOL0     H86098  10.576   3.669  10.085 -0.5239 -0.2526 -1.9591
  624MOL0     H86099  10.401   3.671   9.919 -1.9559  2.4731 -3.3233
  624MOL0     H86100  10.208   4.021   9.700  0.1280  1.6846 -0.6556
  624MOL0     H86101  10.301   4.090   9.837  1.2512 -1.8553  2.2794
  624MOL0     H86102  10.423   3.895   9.624 -1.2794 -0.9039  0.4402
  624MOL0     H86103  10.502   3.989   9.757  0.7624  2.9690 -0.5047
  624MOL0     H86104  10.455   4.193   9.625  1.7634 -0.2278 -0.1867
  624MOL0     H86105  10.541   4.065   9.536 -0.1370  1.9093 -1.2173
  624MOL0     H86106  10.236   4.122   9.491 -0.4492  0.6763 -0.7315
  624MOL0     H86107  10.323   3.983   9.451  1.7438 -0.3067  0.7601
  624MOL0     H86108  10.465   4.315   9.202 -4.3375  1.5756  0.1782
  624MOL0     H86109  10.296   4.072  10.050  0.5128  1.6887  1.0107
  624MOL0     H86110  10.408   4.021  10.375 -0.9832 -2.9284 -1.4417
  624MOL0     H86111  10.500   4.150  10.279 -0.1244  0.9443  0.2576
  624MOL0     H86112  10.321   4.127  10.274 -1.5708 -1.5453  1.5161
  625MOL0     O86113  11.280   9.695   8.344  0.5192 -0.3646 -0.6273
  625MOL0     C86114  11.311   9.574   8.339  0.5229  0.4911 -0.2296
  625MOL0     O86115  11.225   9.467   8.360 -0.0357 -0.1551  0.1640
  625MOL0     C86116  11.095   9.503   8.384 -0.2290  0.3025  0.1035
  625MOL0     C86117  10.996   9.472   8.294 -0.1928  0.2626  0.2606
  625MOL0     C86118  10.870   9.518   8.312  0.1588 -0.3377 -0.4136
  625MOL0     C86119  10.830   9.574   8.423 -0.0329 -0.4622 -0.1465
  625MOL0     O86120  10.699   9.606   8.427  0.3969  0.0881  0.4509
  625MOL0     C86121  10.664   9.704   8.524 -1.0347  0.0725  0.7587
  625MOL0     C86122  10.523   9.749   8.500 -0.2597 -0.4255  0.3520
  625MOL0     C86123  10.413   9.656   8.450 -0.7901 -0.2634  0.2253
  625MOL0     C86124  10.391   9.540   8.553  0.7293 -0.2294 -0.2286
  625MOL0     C86125  10.248   9.497   8.550 -0.2081 -0.6968 -0.5029
  625MOL0     C86126  10.149   9.595   8.613  0.0956  0.1827 -0.5772
  625MOL0     C86127  10.004   9.563   8.613  0.1332  0.0081  0.1818
  625MOL0     C86128   9.920   9.665   8.686 -0.6743 -0.1498  0.0505
  625MOL0     N86129   9.784   9.612   8.696  0.0819 -0.0193 -0.3956
  625MOL0     C86130   9.750   9.514   8.787  0.3780 -1.1480  0.4232
  625MOL0     C86131   9.618   9.492   8.758  0.3048  0.3233 -0.2276
  625MOL0     C86132   9.534   9.379   8.809 -0.0675  0.8842  0.7269
  625MOL0     C86133   9.426   9.421   8.904 -0.3239 -0.2968  0.0029
  625MOL0     C86134   9.348   9.300   8.970  0.1371 -0.1549  0.4599
  625MOL0     C86135   9.249   9.231   8.872  0.4114  0.4513  0.3672
  625MOL0     O86136   9.125   9.314   8.858 -0.0031 -0.3266 -0.1556
  625MOL0     C86137   9.026   9.285   8.945 -0.6875  0.2743 -0.2935
  625MOL0     C86138   9.028   9.346   9.067  0.3123  1.1936  0.1227
  625MOL0     C86139   8.925   9.334   9.157  0.1669  0.5655 -1.2130
  625MOL0     C86140   8.921   9.429   9.274  0.1020  0.8711 -0.1408
  625MOL0     C86141   8.818   9.246   9.135  0.4807 -0.8871  1.2451
  625MOL0     C86142   8.714   9.201   9.236  0.5282  0.4295 -0.1283
  625MOL0     O86143   8.605   9.144   9.183  0.0141 -0.2930 -0.0247
  625MOL0     C86144   8.497   9.094   9.253  0.0780 -0.7890  0.1911
  625MOL0     C86145   8.503   8.971   9.329 -0.3813  0.2037  0.3156
  625MOL0     C86146   8.387   8.912   9.389 -0.1555 -0.0068 -0.2091
  625MOL0     C86147   8.266   8.976   9.356  0.0175  0.7516  0.2589
  625MOL0     O86148   8.145   8.932   9.407  0.3226  0.4111 -0.2011
  625MOL0     C86149   8.120   8.797   9.381  0.2482  0.1985  0.1433
  625MOL0     C86150   7.977   8.772   9.406  0.9762  0.6007  0.0241
  625MOL0     C86151   7.946   8.623   9.416 -0.1826 -0.4650 -0.0075
  625MOL0     C86152   7.796   8.583   9.432 -0.1144  0.0126 -0.4854
  625MOL0     C86153   7.765   8.436   9.418  0.1970  0.0766  0.3261
  625MOL0     C86154   7.610   8.415   9.444 -1.0357  0.7694  0.7759
  625MOL0     C86155   7.565   8.270   9.437  0.3161 -0.0669  0.3492
  625MOL0     C86156   7.412   8.269   9.449  0.1467 -1.1438  0.1294
  625MOL0    Cl86157   7.358   8.103   9.429 -0.2217 -0.1297  0.3962
  625MOL0     C86158   8.259   9.099   9.287  0.4432  0.3184  0.5037
  625MOL0     C86159   8.373   9.153   9.232  0.0224 -0.4352 -0.1091
  625MOL0     O86160   8.739   9.210   9.358 -0.0262  0.7598  0.1240
  625MOL0     C86161   8.824   9.178   9.010  1.4556 -0.1011 -0.9512
  625MOL0     C86162   8.924   9.202   8.919  0.0228  0.2530  0.0494
  625MOL0     N86163   9.583   9.577   8.660  1.4028 -0.9938  0.4760
  625MOL0     N86164   9.683   9.644   8.617 -0.1726 -0.3146  0.0292
  625MOL0     C86165  10.920   9.605   8.521 -0.3587 -0.5050 -0.0278
  625MOL0     C86166  11.054   9.576   8.504  0.2195 -0.4975 -0.5112
  625MOL0     C86167  11.456   9.533   8.302  0.4318 -0.3078  0.7320
  625MOL0     C86168  11.522   9.626   8.215  0.6468 -0.0518  0.8598
  625MOL0     C86169  11.652   9.583   8.173 -0.2363  0.2442  0.8383
  625MOL0     C86170  11.717   9.472   8.220  0.1915  0.2194 -0.4906
  625MOL0     O86171  11.842   9.425   8.180  0.7966 -0.2142 -0.3331
  625MOL0     C86172  11.925   9.498   8.089 -0.2942  0.1307 -0.2766
  625MOL0     C86173  12.054   9.415   8.087 -0.2359 -0.6879  0.8928
  625MOL0     C86174  12.126   9.437   7.948  0.3877  0.0016 -0.6367
  625MOL0     C86175  12.267   9.376   7.943 -0.9373 -0.5638 -0.1382
  625MOL0     C86176  12.258   9.231   7.924 -0.3520 -0.2008 -0.2235
  625MOL0     C86177  12.250   9.106   7.902  0.2254  0.0376 -0.0161
  625MOL0     C86178  11.650   9.388   8.305 -0.4417  0.0787 -0.5204
  625MOL0     C86179  11.520   9.415   8.354  0.1040  0.6806 -0.5809
  625MOL0     C86180  11.457   9.297   8.432 -0.0600 -0.5311 -0.8315
  625MOL0     H86181  11.022   9.436   8.195 -1.6873  0.0224 -0.0657
  625MOL0     H86182  10.797   9.496   8.234 -0.7378  0.1638  0.2598
  625MOL0     H86183  10.726   9.792   8.502 -3.3214  1.4639 -0.5101
  625MOL0     H86184  10.679   9.660   8.623 -2.0338 -0.3808  0.7246
  625MOL0     H86185  10.488   9.804   8.587  1.6839  2.7188 -0.7118
  625MOL0     H86186  10.526   9.827   8.424 -0.6003  0.5325  1.3024
  625MOL0     H86187  10.319   9.711   8.439 -1.2307 -1.1104 -0.4007
  625MOL0     H86188  10.444   9.615   8.353 -1.4506 -1.4918  0.5033
  625MOL0     H86189  10.457   9.456   8.530  1.2218  0.2228 -0.4790
  625MOL0     H86190  10.423   9.559   8.656  2.0117 -2.0959 -0.2291
  625MOL0     H86191  10.250   9.403   8.606 -0.7976  0.3372  1.3389
  625MOL0     H86192  10.216   9.480   8.447  1.1256 -0.4511 -0.9806
  625MOL0     H86193  10.173   9.587   8.719 -0.6968 -2.5861 -0.5320
  625MOL0     H86194  10.153   9.690   8.559  2.2960  0.4078 -0.1179
  625MOL0     H86195   9.999   9.462   8.655 -0.5601  0.2412  0.6745
  625MOL0     H86196   9.968   9.566   8.510  1.1301  0.8199 -0.1579
  625MOL0     H86197   9.969   9.679   8.782 -0.1068  1.9732 -0.4972
  625MOL0     H86198   9.913   9.766   8.645  0.8309  0.5277  1.4030
  625MOL0     H86199   9.815   9.458   8.854 -0.9771 -2.0596  1.0235
  625MOL0     H86200   9.600   9.301   8.849 -0.9321 -2.1374 -3.1462
  625MOL0     H86201   9.487   9.316   8.733  0.3848 -1.7475  2.4952
  625MOL0     H86202   9.476   9.480   8.981 -0.6448  1.3299 -1.0000
  625MOL0     H86203   9.355   9.489   8.856 -1.9439 -1.4407  0.6454
  625MOL0     H86204   9.415   9.224   9.010  0.8469 -0.9680 -2.0729
  625MOL0     H86205   9.295   9.338   9.057  0.3941  0.7875  0.2149
  625MOL0     H86206   9.282   9.208   8.771 -2.2613  0.1183 -0.4950
  625MOL0     H86207   9.222   9.137   8.921 -3.4801  1.2920  0.1940
  625MOL0     H86208   9.114   9.410   9.085 -0.3565  1.3334  3.3047
  625MOL0     H86209   8.989   9.513   9.261  1.8691 -0.8205 -3.1699
  625MOL0     H86210   8.946   9.372   9.364 -2.6409 -0.0307  0.1271
  625MOL0     H86211   8.822   9.472   9.287 -0.6599 -0.2029 -1.9467
  625MOL0     H86212   8.597   8.926   9.360 -1.5519 -0.3777  3.3486
  625MOL0     H86213   8.396   8.822   9.448 -1.2966 -0.9791 -1.4652
  625MOL0     H86214   8.145   8.765   9.280  1.6642  0.1261  0.4837
  625MOL0     H86215   8.179   8.747   9.459  2.7761 -0.8775 -2.2858
  625MOL0     H86216   7.940   8.821   9.496 -1.9349 -2.6879  0.8417
  625MOL0     H86217   7.933   8.812   9.314  0.8355  0.5556  0.0730
  625MOL0     H86218   7.998   8.586   9.505 -3.2251 -1.1700  1.6093
  625MOL0     H86219   7.990   8.571   9.331  0.3317 -1.0162  0.5826
  625MOL0     H86220   7.735   8.637   9.359 -1.9536 -1.8055 -0.3649
  625MOL0     H86221   7.764   8.615   9.532 -0.1939  1.0590 -0.8389
  625MOL0     H86222   7.794   8.397   9.320 -1.1834  0.2863 -0.1844
  625MOL0     H86223   7.820   8.376   9.491  2.8026  3.0862  1.0598
  625MOL0     H86224   7.563   8.477   9.368 -0.3785 -0.1456 -0.4133
  625MOL0     H86225   7.592   8.447   9.547  0.9896  0.2368  1.3397
  625MOL0     H86226   7.610   8.214   9.519  1.3258  2.9439  2.0057
  625MOL0     H86227   7.607   8.240   9.341  0.2633  1.0624 -0.0469
  625MOL0     H86228   7.364   8.330   9.372 -3.7322 -1.7244  1.8178
  625MOL0     H86229   7.386   8.318   9.543  2.6777 -1.2436  0.9531
  625MOL0     H86230   8.162   9.146   9.271 -0.9565 -2.8336 -1.1239
  625MOL0     H86231   8.361   9.238   9.165 -2.1108  0.4369  1.2591
  625MOL0     H86232   8.750   9.100   8.998  1.7036 -1.1077  2.7547
  625MOL0     H86233   8.929   9.156   8.820  1.1913 -0.4237  0.4108
  625MOL0     H86234  10.895   9.663   8.609  0.8527  3.2401 -1.9548
  625MOL0     H86235  11.135   9.603   8.572  0.5889 -0.2728 -1.0322
  625MOL0     H86236  11.484   9.721   8.178  1.6872  0.4726  1.0967
  625MOL0     H86237  11.698   9.641   8.094  2.5280  0.5758  2.5754
  625MOL0     H86238  11.873   9.515   7.995 -2.6977 -2.2173  0.5074
  625MOL0     H86239  11.940   9.597   8.133 -3.6984 -0.9750  4.1641
  625MOL0     H86240  12.029   9.309   8.094  1.7596 -1.1128  2.3376
  625MOL0     H86241  12.113   9.438   8.176  1.8992 -2.8151  0.1240
  625MOL0     H86242  12.071   9.388   7.867  0.4718  0.5947 -1.0652
  625MOL0     H86243  12.131   9.546   7.936  0.6951  0.4483  2.6704
  625MOL0     H86244  12.322   9.408   8.032 -2.8441  2.9082 -0.0152
  625MOL0     H86245  12.318   9.415   7.855  0.3465  1.1062  1.2594
  625MOL0     H86246  12.243   9.006   7.865  0.2217  0.4741 -1.2652
  625MOL0     H86247  11.694   9.292   8.332 -2.3915 -0.4339  1.0747
  625MOL0     H86248  11.390   9.338   8.508  1.9496 -2.0234  1.9315
  625MOL0     H86249  11.398   9.229   8.370 -1.7291 -2.4753  2.5861
  625MOL0     H86250  11.533   9.236   8.481 -0.0980  0.2571  0.2547
  626MOL0     O86251   5.900   8.092   0.416  0.5620 -0.2328  0.0942
  626MOL0     C86252   5.853   8.202   0.393  0.1108 -0.4730  0.3960
  626MOL0     O86253   5.797   8.237   0.267  0.4375 -0.1144  0.0456
  626MOL0     C86254   5.803   8.147   0.168 -0.5263 -0.3285  0.4716
  626MOL0     C86255   5.919   8.127   0.088 -0.1831  0.0687 -0.2872
  626MOL0     C86256   5.924   8.026  -0.011  0.3085 -0.1565 -0.7331
  626MOL0     C86257   5.810   7.952  -0.024  0.3755 -0.3164  0.2516
  626MOL0     O86258   5.810   7.848  -0.119  0.6604 -0.1899 -0.3187
  626MOL0     C86259   5.748   7.898  -0.234 -0.1947 -0.0562 -0.0978
  626MOL0     C86260   5.764   7.798  -0.347  0.6381 -0.1716 -1.1750
  626MOL0     C86261   5.902   7.752  -0.372 -0.0428  0.8418 -0.4669
  626MOL0     C86262   5.918   7.635  -0.475 -1.1331  0.5283 -0.6565
  626MOL0     C86263   6.068   7.588  -0.472  0.1474 -0.0556 -0.7572
  626MOL0     C86264   6.099   7.501  -0.348 -0.5045 -0.8835  0.1340
  626MOL0     C86265   6.251   7.487  -0.311 -0.2444  0.1575  0.1371
  626MOL0     C86266   6.293   7.577  -0.199 -0.5661  0.0732 -0.4269
  626MOL0     N86267   6.437   7.591  -0.220 -0.0207  0.4637 -0.0618
  626MOL0     C86268   6.539   7.517  -0.158  0.0864 -0.6351  0.1209
  626MOL0     C86269   6.649   7.555  -0.232  0.3831  0.6944 -0.8122
  626MOL0     C86270   6.785   7.486  -0.216 -0.4678  0.4407  0.3624
  626MOL0     C86271   6.831   7.494  -0.075  0.3950 -0.2004  0.0186
  626MOL0     C86272   6.976   7.455  -0.060 -0.2856 -0.5102  0.9628
  626MOL0     C86273   7.015   7.442   0.094 -0.0503 -0.2418  0.4504
  626MOL0     O86274   7.006   7.575   0.150 -0.3234 -0.0525  0.2194
  626MOL0     C86275   6.928   7.590   0.258  0.7182  0.2164 -0.6220
  626MOL0     C86276   6.809   7.661   0.249 -0.7546 -0.1356 -0.5071
  626MOL0     C86277   6.710   7.655   0.345 -0.0972 -0.1495  0.2796
  626MOL0     C86278   6.591   7.744   0.333 -0.1978 -0.7871  0.4735
  626MOL0     C86279   6.745   7.595   0.472  0.4750 -0.0407  0.1091
  626MOL0     C86280   6.657   7.614   0.586  0.1151  0.2642  0.1844
  626MOL0     O86281   6.525   7.581   0.565  0.4529  0.5154 -0.2087
  626MOL0     C86282   6.433   7.643   0.645 -0.0286 -1.3925 -0.1605
  626MOL0     C86283   6.442   7.659   0.785  0.2567  0.0127  0.4007
  626MOL0     C86284   6.325   7.697   0.853  0.1313 -0.0558  0.5522
  626MOL0     C86285   6.212   7.743   0.788 -0.7817  0.8154  0.1505
  626MOL0     O86286   6.099   7.766   0.858 -0.4503  0.2669 -0.4347
  626MOL0     C86287   6.031   7.649   0.900  1.0870 -0.4349  0.5848
  626MOL0     C86288   5.897   7.699   0.961 -0.0396  0.1487  0.1629
  626MOL0     C86289   5.925   7.775   1.087  0.7466  0.1425  0.4292
  626MOL0     C86290   5.795   7.842   1.147 -0.0924  0.0845 -0.5187
  626MOL0     C86291   5.808   7.954   1.253 -0.4577  0.0087  0.2412
  626MOL0     C86292   5.885   7.921   1.374  0.3789  0.0709  0.1848
  626MOL0     C86293   5.923   8.057   1.434 -0.3422 -0.7190 -0.4122
  626MOL0     C86294   6.003   8.023   1.563 -0.7095  0.1185 -0.3407
  626MOL0    Cl86295   5.925   7.905   1.672 -0.0293  0.4292  0.1388
  626MOL0     C86296   6.213   7.732   0.650 -0.8695  0.4763  0.3223
  626MOL0     C86297   6.321   7.686   0.579  0.3450  0.1694  0.8829
  626MOL0     O86298   6.711   7.647   0.695  0.2679  0.6794  0.3793
  626MOL0     C86299   6.865   7.523   0.484 -0.2387  0.5708  0.1603
  626MOL0     C86300   6.950   7.514   0.380 -0.0692  0.2737 -0.2336
  626MOL0     N86301   6.622   7.656  -0.318 -0.3911  0.4537  0.2208
  626MOL0     N86302   6.490   7.673  -0.312 -0.1943  0.3824  0.0876
  626MOL0     C86303   5.692   7.975   0.049  0.2225 -0.0797 -0.8065
  626MOL0     C86304   5.691   8.081   0.138 -0.1883  0.1685  0.6988
  626MOL0     C86305   5.882   8.303   0.501  0.0281  1.0159  0.8067
  626MOL0     C86306   5.824   8.427   0.488  0.6458 -0.2902 -0.8940
  626MOL0     C86307   5.825   8.525   0.581 -0.8287  0.3130 -0.1410
  626MOL0     C86308   5.899   8.496   0.697 -0.5626 -0.6135 -0.5548
  626MOL0     O86309   5.919   8.601   0.789  0.0694 -0.2375 -0.0916
  626MOL0     C86310   5.797   8.649   0.847  0.4446 -0.4178 -0.2082
  626MOL0     C86311   5.830   8.767   0.939  0.0394 -0.1306  0.1916
  626MOL0     C86312   5.888   8.882   0.863  0.1816  1.3617 -0.4412
  626MOL0     C86313   5.953   8.983   0.961  0.2672  0.1809  0.2730
  626MOL0     C86314   6.031   9.074   0.884  0.8821  0.9722  0.5938
  626MOL0     C86315   6.102   9.153   0.826  0.1181 -0.0319 -0.2003
  626MOL0     C86316   5.972   8.379   0.716 -0.2395  0.2179 -0.0951
  626MOL0     C86317   5.965   8.278   0.612 -0.5603  0.5624  0.2253
  626MOL0     C86318   6.054   8.156   0.634 -0.1116 -0.0238  0.5539
  626MOL0     H86319   6.015   8.169   0.115  0.7981 -2.1731 -0.1174
  626MOL0     H86320   6.014   7.996  -0.065  2.7292  0.6576  2.4820
  626MOL0     H86321   5.792   7.991  -0.271  0.6032 -0.5287 -0.3610
  626MOL0     H86322   5.642   7.903  -0.209 -0.0086 -0.6688  0.8578
  626MOL0     H86323   5.704   7.713  -0.312 -0.9436  1.6340  0.7273
  626MOL0     H86324   5.705   7.834  -0.432 -0.4476  1.2186  0.1120
  626MOL0     H86325   5.962   7.837  -0.405  0.3124  0.9601  0.4341
  626MOL0     H86326   5.931   7.717  -0.272  0.4785  3.6011  0.4384
  626MOL0     H86327   5.833   7.568  -0.461  0.8491 -2.8365 -3.3083
  626MOL0     H86328   5.894   7.683  -0.570 -1.4099 -1.3419 -1.5783
  626MOL0     H86329   6.128   7.677  -0.454  0.1177  0.1592 -1.6358
  626MOL0     H86330   6.098   7.535  -0.563  1.4356 -1.0190  0.2070
  626MOL0     H86331   6.041   7.524  -0.258 -0.1742 -3.2484  1.0338
  626MOL0     H86332   6.074   7.400  -0.380  0.7640 -0.4837 -2.3104
  626MOL0     H86333   6.295   7.518  -0.406 -1.0172 -0.9399 -0.6201
  626MOL0     H86334   6.280   7.386  -0.278 -0.1059  0.2904  0.4264
  626MOL0     H86335   6.244   7.675  -0.207  1.0095  1.0790  1.3022
  626MOL0     H86336   6.278   7.533  -0.100  0.3090 -1.4504 -0.9494
  626MOL0     H86337   6.528   7.456  -0.069 -0.4477 -0.7484 -0.0165
  626MOL0     H86338   6.865   7.523  -0.280  2.2737 -3.5743  1.0557
  626MOL0     H86339   6.768   7.378  -0.222 -3.0235  0.4221  4.4103
  626MOL0     H86340   6.813   7.595  -0.036 -0.0671 -0.3577  0.2207
  626MOL0     H86341   6.766   7.424  -0.022 -0.4978  1.1923  0.8315
  626MOL0     H86342   6.994   7.362  -0.114  0.6460  0.0100  0.3545
  626MOL0     H86343   7.039   7.524  -0.116 -2.0543 -0.1073 -0.6329
  626MOL0     H86344   6.945   7.378   0.148 -0.2370 -1.0599 -0.7193
  626MOL0     H86345   7.118   7.405   0.104  0.3169  0.2881 -1.1156
  626MOL0     H86346   6.814   7.732   0.168  2.6510 -0.6793 -0.8944
  626MOL0     H86347   6.588   7.794   0.236  0.0734 -0.0877  0.8218
  626MOL0     H86348   6.594   7.820   0.411 -1.3124  0.3821 -0.5667
  626MOL0     H86349   6.502   7.683   0.315  0.5531 -1.0184 -3.2619
  626MOL0     H86350   6.531   7.624   0.837  0.9389 -1.3323 -1.5331
  626MOL0     H86351   6.316   7.701   0.961  1.7008  1.1537  0.6797
  626MOL0     H86352   6.012   7.583   0.815 -1.1096  2.8530 -1.7310
  626MOL0     H86353   6.083   7.594   0.978  0.5973 -1.0119  0.5054
  626MOL0     H86354   5.855   7.773   0.892  2.6017  1.7779  0.1737
  626MOL0     H86355   5.841   7.606   0.975  3.6123 -3.0550 -3.6667
  626MOL0     H86356   5.996   7.857   1.072  0.6195  0.0195 -0.9874
  626MOL0     H86357   5.979   7.706   1.152  2.0890  1.3467  0.6412
  626MOL0     H86358   5.742   7.754   1.185  0.7918 -0.1067  0.3306
  626MOL0     H86359   5.727   7.878   1.069  0.6842  2.0894 -0.3353
  626MOL0     H86360   5.866   8.034   1.206 -0.0292 -0.8351 -0.6983
  626MOL0     H86361   5.705   7.987   1.269 -1.2187 -1.1869 -1.7658
  626MOL0     H86362   5.979   7.867   1.364  0.2584 -0.2689  0.8106
  626MOL0     H86363   5.816   7.857   1.431  0.0362  0.1451 -0.1399
  626MOL0     H86364   5.835   8.118   1.458 -0.2821 -0.9686  0.5078
  626MOL0     H86365   5.997   8.111   1.374 -1.5094  2.0670  0.4554
  626MOL0     H86366   6.039   8.108   1.621  0.1809 -0.7493  0.4064
  626MOL0     H86367   6.096   7.974   1.530 -1.0854 -1.5894  0.9921
  626MOL0     H86368   6.118   7.752   0.601 -1.2926  1.0018  1.3235
  626MOL0     H86369   6.322   7.675   0.471 -0.2515  0.7542  0.8142
  626MOL0     H86370   6.905   7.488   0.579 -1.9570 -1.0363  0.3577
  626MOL0     H86371   7.040   7.454   0.382 -1.0334 -1.3282 -1.7525
  626MOL0     H86372   5.601   7.916   0.038  0.3322 -0.1778 -1.2014
  626MOL0     H86373   5.601   8.101   0.195 -0.7282 -0.0672 -0.0586
  626MOL0     H86374   5.763   8.467   0.408  0.9264  3.8673  0.7408
  626MOL0     H86375   5.780   8.622   0.562  0.4150  0.9727  0.1357
  626MOL0     H86376   5.720   8.668   0.771  1.2600  0.8016 -0.7616
  626MOL0     H86377   5.747   8.571   0.905  0.9597  1.0821  2.4113
  626MOL0     H86378   5.903   8.739   1.016 -1.2127 -0.7602  1.1899
  626MOL0     H86379   5.730   8.792   0.975 -1.0461 -2.0687 -1.2540
  626MOL0     H86380   5.962   8.851   0.790 -0.2906  2.2930 -1.3350
  626MOL0     H86381   5.804   8.929   0.811 -1.6575 -2.0239 -0.8457
  626MOL0     H86382   6.008   8.929   1.039  0.4524 -2.1738 -1.3852
  626MOL0     H86383   5.862   9.032   0.996 -0.9192 -2.2741  0.8295
  626MOL0     H86384   6.175   9.227   0.801 -1.3347  1.6581  0.3172
  626MOL0     H86385   6.029   8.359   0.806 -0.3048 -0.5062 -0.2118
  626MOL0     H86386   5.990   8.071   0.657  0.0438 -0.6787 -1.2883
  626MOL0     H86387   6.092   8.147   0.532 -5.2319 -0.0912 -1.6424
  626MOL0     H86388   6.139   8.168   0.702 -1.4000  1.8400  1.9409
  627MOL0     O86389   1.706   1.794   3.339  0.5025  0.7321  0.0405
  627MOL0     C86390   1.771   1.700   3.290 -0.7483  0.0691  0.5425
  627MOL0     O86391   1.773   1.572   3.342  0.0562 -0.3328 -0.0213
  627MOL0     C86392   1.700   1.529   3.453  0.8706 -0.4183  0.7275
  627MOL0     C86393   1.624   1.413   3.434  0.0145  0.6892 -0.2632
  627MOL0     C86394   1.530   1.376   3.532 -0.8956 -0.3270  0.1572
  627MOL0     C86395   1.517   1.446   3.653 -0.2267 -0.7880 -0.5467
  627MOL0     O86396   1.439   1.391   3.751  0.4376 -0.1448 -0.4124
  627MOL0     C86397   1.439   1.434   3.890  0.5211 -0.0617 -0.1239
  627MOL0     C86398   1.344   1.342   3.969 -0.1269  0.3833 -1.1817
  627MOL0     C86399   1.367   1.194   3.941 -0.6356  0.0683 -0.1312
  627MOL0     C86400   1.291   1.122   4.052 -0.4348 -0.9046  0.3248
  627MOL0     C86401   1.274   0.974   4.034  0.6338 -0.4330 -0.3370
  627MOL0     C86402   1.189   0.920   4.149  1.1328 -0.3284 -0.0533
  627MOL0     C86403   1.050   0.923   4.099  0.3434  0.7319  0.4116
  627MOL0     C86404   0.962   0.834   4.197  0.3716  0.8016 -0.2171
  627MOL0     N86405   0.821   0.891   4.209  0.2172 -0.0307 -0.1331
  627MOL0     C86406   0.716   0.857   4.122  0.9979 -0.5922 -0.4224
  627MOL0     C86407   0.602   0.892   4.184 -0.2230  0.4681 -0.4187
  627MOL0     C86408   0.464   0.894   4.129  0.3576 -0.5220  0.1398
  627MOL0     C86409   0.396   1.030   4.157 -1.2279  0.0809  0.1519
  627MOL0     C86410   0.484   1.149   4.122  0.5824  0.0719  0.5232
  627MOL0     C86411   0.518   1.158   3.972  0.8247  0.2464  0.8273
  627MOL0     O86412   0.431   1.251   3.904 -0.5072 -0.6962 -0.0884
  627MOL0     C86413   0.469   1.299   3.781 -0.3743 -0.8252 -0.8496
  627MOL0     C86414   0.389   1.400   3.723  0.2100  0.0560  0.5378
  627MOL0     C86415   0.418   1.449   3.596 -0.7409 -0.4714  0.4096
  627MOL0     C86416   0.320   1.549   3.531 -0.2452 -0.0801 -0.1482
  627MOL0     C86417   0.538   1.410   3.531 -0.0916 -0.3371 -0.3128
  627MOL0     C86418   0.603   1.474   3.404 -0.0201  0.9425 -0.4506
  627MOL0     O86419   0.664   1.386   3.320 -0.0044 -0.2274 -0.0236
  627MOL0     C86420   0.743   1.439   3.226  0.3742 -0.5988 -0.3859
  627MOL0     C86421   0.700   1.523   3.128 -0.1283  0.7575 -1.0771
  627MOL0     C86422   0.788   1.565   3.024  1.0450 -0.5635 -0.4226
  627MOL0     C86423   0.915   1.522   3.018 -0.0179 -1.1599  0.9004
  627MOL0     O86424   1.012   1.560   2.928  0.0629 -0.5230 -0.1805
  627MOL0     C86425   0.987   1.687   2.859 -0.2518  0.0204  0.6523
  627MOL0     C86426   1.112   1.748   2.821 -0.2954 -0.7183 -0.1066
  627MOL0     C86427   1.162   1.831   2.928  0.3865  0.7784  0.1508
  627MOL0     C86428   1.290   1.903   2.881  0.2947 -0.3149  0.4163
  627MOL0     C86429   1.352   1.983   2.995 -0.1021  0.4627  0.6702
  627MOL0     C86430   1.273   2.105   3.047 -0.6394  0.4944  0.2963
  627MOL0     C86431   1.355   2.195   3.134  0.2484 -0.3029 -0.2986
  627MOL0     C86432   1.296   2.339   3.168 -0.2854  0.4038 -0.1690
  627MOL0    Cl86433   1.373   2.410   3.322  0.0182 -0.1864  0.0426
  627MOL0     C86434   0.956   1.435   3.115 -0.9644 -0.2265 -0.2353
  627MOL0     C86435   0.871   1.397   3.216 -0.5868  0.4559 -0.3419
  627MOL0     O86436   0.604   1.597   3.397  0.3780 -0.3254  1.0580
  627MOL0     C86437   0.623   1.305   3.589  0.8208  0.6754  0.8310
  627MOL0     C86438   0.585   1.252   3.707  0.3875  0.2952  0.2809
  627MOL0     N86439   0.629   0.922   4.313 -0.2712  0.6247 -0.1138
  627MOL0     N86440   0.756   0.921   4.323 -0.0401 -0.5043 -0.1957
  627MOL0     C86441   1.596   1.566   3.671 -0.1373  0.9980  0.7556
  627MOL0     C86442   1.688   1.603   3.573  0.0618 -0.1274 -0.2347
  627MOL0     C86443   1.875   1.739   3.199  0.5716 -0.0514  0.5710
  627MOL0     C86444   2.006   1.701   3.239 -0.1633 -0.6434  0.0357
  627MOL0     C86445   2.112   1.731   3.152 -0.2728 -0.5486 -0.2378
  627MOL0     C86446   2.091   1.804   3.032  0.1510 -0.3912 -0.3655
  627MOL0     O86447   2.207   1.842   2.965  0.1046 -0.0655 -0.9162
  627MOL0     C86448   2.242   1.981   2.956 -0.7339 -0.3861  0.0706
  627MOL0     C86449   2.186   2.044   2.824 -0.7551  0.1394  0.1294
  627MOL0     C86450   2.291   2.136   2.754  0.4080 -0.1099 -0.5274
  627MOL0     C86451   2.306   2.102   2.602  0.5101  0.1464 -0.4394
  627MOL0     C86452   2.384   1.984   2.599  0.6063  0.2193 -0.9061
  627MOL0     C86453   2.442   1.878   2.599 -0.5631 -0.0136  0.4074
  627MOL0     C86454   1.955   1.851   3.009 -0.8029 -0.0393 -0.3209
  627MOL0     C86455   1.849   1.818   3.084  0.1679  0.6408  0.5866
  627MOL0     C86456   1.712   1.864   3.041 -0.1117 -0.1464  0.5475
  627MOL0     H86457   1.641   1.357   3.342  0.6545 -2.5125  1.6227
  627MOL0     H86458   1.471   1.286   3.522 -1.9216  0.4221 -0.8716
  627MOL0     H86459   1.398   1.535   3.889 -0.0276 -0.2835 -0.2016
  627MOL0     H86460   1.543   1.433   3.923  0.2161  2.6867  1.1270
  627MOL0     H86461   1.364   1.355   4.075 -0.1627 -3.9637 -0.4392
  627MOL0     H86462   1.238   1.366   3.955 -1.2570 -1.9529  2.0893
  627MOL0     H86463   1.338   1.165   3.840  0.2250  0.4499 -0.5002
  627MOL0     H86464   1.475   1.175   3.946 -0.6150  0.4253  1.4946
  627MOL0     H86465   1.344   1.144   4.144  1.0670  0.8614 -0.8895
  627MOL0     H86466   1.193   1.169   4.041  0.1018 -0.0218 -0.9291
  627MOL0     H86467   1.375   0.934   4.046  0.7114 -0.2344 -0.3316
  627MOL0     H86468   1.237   0.934   3.939 -1.7073  0.4829  0.1262
  627MOL0     H86469   1.208   0.813   4.163 -2.9694 -1.1276  0.7404
  627MOL0     H86470   1.189   0.974   4.244  0.8392 -1.3279  0.5333
  627MOL0     H86471   1.036   0.891   3.995 -0.3424  1.2794  0.3269
  627MOL0     H86472   1.003   1.022   4.096 -2.8560 -0.6745 -0.6643
  627MOL0     H86473   0.965   0.731   4.160 -0.1623  0.0918  1.6087
  627MOL0     H86474   1.004   0.826   4.298  0.3077 -0.5159 -0.2773
  627MOL0     H86475   0.722   0.834   4.016  0.8438 -1.0910 -0.3254
  627MOL0     H86476   0.396   0.827   4.181 -1.2666  1.5258  0.8066
  627MOL0     H86477   0.473   0.871   4.023  0.8289  0.4887 -0.0514
  627MOL0     H86478   0.309   1.019   4.093  0.1493 -2.4171 -1.4498
  627MOL0     H86479   0.358   1.032   4.260 -0.7979 -0.6098  0.3318
  627MOL0     H86480   0.430   1.238   4.155  1.8149  1.0175  0.0672
  627MOL0     H86481   0.575   1.146   4.183  0.3075 -4.4166  1.0512
  627MOL0     H86482   0.620   1.192   3.954  1.8318 -3.5499 -1.9995
  627MOL0     H86483   0.513   1.060   3.924 -2.0277  0.1709  1.0904
  627MOL0     H86484   0.299   1.438   3.771  0.2016  1.1594 -0.3205
  627MOL0     H86485   0.285   1.528   3.430 -0.8364  2.4925 -0.5414
  627MOL0     H86486   0.374   1.644   3.537 -1.7342  0.7448  0.7272
  627MOL0     H86487   0.227   1.559   3.588 -3.0779  1.7008 -4.5719
  627MOL0     H86488   0.600   1.565   3.135  0.8391  3.6204 -2.6860
  627MOL0     H86489   0.746   1.634   2.952 -0.5477 -0.4426  0.5761
  627MOL0     H86490   0.937   1.675   2.763  0.6074  0.1667  0.1784
  627MOL0     H86491   0.925   1.759   2.914 -1.6094 -1.0751  0.6273
  627MOL0     H86492   1.178   1.661   2.810  0.3332 -0.3473  0.6687
  627MOL0     H86493   1.099   1.810   2.732  0.2444  0.0685  0.3477
  627MOL0     H86494   1.192   1.776   3.018  0.8507  2.7171  1.2458
  627MOL0     H86495   1.093   1.913   2.954  0.3605  0.4204  1.2333
  627MOL0     H86496   1.272   1.971   2.797  1.9638 -1.4204 -0.9193
  627MOL0     H86497   1.356   1.821   2.850  4.3894  2.4871  0.8468
  627MOL0     H86498   1.387   1.923   3.080  3.1067  1.1417 -0.0363
  627MOL0     H86499   1.443   2.028   2.953 -0.5603  0.4081 -0.4155
  627MOL0     H86500   1.191   2.065   3.107  2.6013 -6.8576  0.9365
  627MOL0     H86501   1.227   2.150   2.959 -2.5405 -0.3005  0.8242
  627MOL0     H86502   1.439   2.229   3.071 -0.1122 -0.0474 -0.6446
  627MOL0     H86503   1.389   2.137   3.220  0.1461 -3.6979 -2.3558
  627MOL0     H86504   1.187   2.331   3.180 -0.2792  1.9111  1.0488
  627MOL0     H86505   1.306   2.404   3.080  0.5455 -0.1187 -0.4768
  627MOL0     H86506   1.057   1.396   3.113 -0.8256  0.1342 -0.5208
  627MOL0     H86507   0.904   1.339   3.301 -0.4455  0.2638 -0.5261
  627MOL0     H86508   0.720   1.277   3.549 -0.4954 -0.4250 -1.8317
  627MOL0     H86509   0.639   1.164   3.739  1.5577 -0.0017 -2.2970
  627MOL0     H86510   1.584   1.617   3.766  2.7743  3.1130  0.1320
  627MOL0     H86511   1.752   1.690   3.577  1.7129 -1.0720 -2.9969
  627MOL0     H86512   2.022   1.645   3.330  0.4819  0.4879  0.6436
  627MOL0     H86513   2.211   1.703   3.186 -1.4093 -2.1197  2.0590
  627MOL0     H86514   2.200   2.034   3.042 -1.1940 -0.6126 -0.0119
  627MOL0     H86515   2.351   1.977   2.958 -0.7454 -0.3986  1.2706
  627MOL0     H86516   2.096   2.103   2.846 -2.6486 -2.6543  0.3833
  627MOL0     H86517   2.162   1.963   2.754  0.8882 -0.4681  0.2219
  627MOL0     H86518   2.250   2.238   2.755  0.4854 -0.0006 -2.5972
  627MOL0     H86519   2.387   2.126   2.805 -1.0048 -2.0880  1.9252
  627MOL0     H86520   2.371   2.177   2.557  1.5163  2.1529  3.8205
  627MOL0     H86521   2.221   2.090   2.534  0.4876 -0.5643 -0.2935
  627MOL0     H86522   2.484   1.780   2.596  1.7583  0.9072 -0.4325
  627MOL0     H86523   1.937   1.895   2.912  0.7529 -0.4956 -0.8376
  627MOL0     H86524   1.635   1.804   3.089 -1.1086  1.2114  0.7281
  627MOL0     H86525   1.685   1.968   3.063 -1.7205  0.3401 -3.1250
  627MOL0     H86526   1.699   1.854   2.933  2.2394 -0.3538  0.2207
  628MOL0     O86527   5.980   3.550   4.169  0.3159  0.3081 -1.0333
  628MOL0     C86528   5.928   3.643   4.104  0.4045  0.0472  0.6921
  628MOL0     O86529   5.994   3.751   4.055 -0.2376  0.7664  0.3302
  628MOL0     C86530   6.128   3.775   4.070  0.1174  0.2141  0.5825
  628MOL0     C86531   6.210   3.721   4.169 -0.1511  0.5194 -0.3320
  628MOL0     C86532   6.350   3.733   4.164  0.2298  0.1594  0.3541
  628MOL0     C86533   6.397   3.802   4.054 -0.2497 -0.0036 -0.1553
  628MOL0     O86534   6.529   3.827   4.032 -0.2012 -0.0902 -0.2234
  628MOL0     C86535   6.598   3.751   3.927 -0.0422 -0.8675 -0.3864
  628MOL0     C86536   6.742   3.787   3.915 -0.6002 -0.1619  0.4955
  628MOL0     C86537   6.832   3.698   4.004  0.7293  0.7524 -0.4513
  628MOL0     C86538   6.965   3.768   4.035  1.3013  0.2027  0.5750
  628MOL0     C86539   7.055   3.689   4.129 -0.0179 -0.5669 -0.7263
  628MOL0     C86540   7.074   3.548   4.074  0.1002  0.9293  0.6326
  628MOL0     C86541   7.196   3.473   4.136  0.0196  0.4948 -0.3254
  628MOL0     C86542   7.321   3.529   4.087  0.5152 -0.3235 -0.2811
  628MOL0     N86543   7.432   3.482   4.164  0.2795  0.4568 -0.2623
  628MOL0     C86544   7.476   3.357   4.180 -0.1122 -0.2648  0.6071
  628MOL0     C86545   7.585   3.357   4.265  0.2926 -0.6324 -0.3627
  628MOL0     C86546   7.667   3.235   4.292 -0.2004  0.0853 -0.4844
  628MOL0     C86547   7.620   3.147   4.412 -0.6692  0.0565  0.2278
  628MOL0     C86548   7.695   3.017   4.415  0.4934  0.5005 -0.0368
  628MOL0     C86549   7.837   2.996   4.362  0.0802 -0.0026 -0.2053
  628MOL0     O86550   7.919   3.055   4.461  0.6745 -0.0909 -0.0261
  628MOL0     C86551   8.054   3.063   4.441 -0.7031 -0.1659  0.5124
  628MOL0     C86552   8.139   3.134   4.524 -0.1097  0.4376 -0.4436
  628MOL0     C86553   8.276   3.146   4.497 -0.1064 -0.1930  0.4961
  628MOL0     C86554   8.354   3.233   4.605 -0.1489 -0.1495  0.1152
  628MOL0     C86555   8.346   3.063   4.396  0.0460  0.1393 -0.0773
  628MOL0     C86556   8.497   3.061   4.366  0.6461 -0.1447  0.9671
  628MOL0     O86557   8.533   2.983   4.259 -0.1674  0.2922 -0.5643
  628MOL0     C86558   8.666   2.982   4.216 -0.9644 -0.6763  0.2814
  628MOL0     C86559   8.695   3.021   4.075 -0.2642  0.5269 -0.3260
  628MOL0     C86560   8.826   3.030   4.036 -0.7982  0.5718 -0.1695
  628MOL0     C86561   8.937   3.016   4.128 -0.6084 -0.2433  0.1852
  628MOL0     O86562   9.067   3.025   4.076  0.1372  0.1325  0.0656
  628MOL0     C86563   9.178   3.050   4.164  0.6187  0.2963 -0.6371
  628MOL0     C86564   9.289   3.125   4.107 -0.2897 -0.4965  1.2210
  628MOL0     C86565   9.382   3.193   4.206  0.0533  0.3150  1.1229
  628MOL0     C86566   9.446   3.098   4.308  0.8751  0.1206 -0.2334
  628MOL0     C86567   9.555   3.014   4.249 -0.8617  0.0186 -0.5570
  628MOL0     C86568   9.622   2.940   4.364 -0.6234  0.4645  0.6216
  628MOL0     C86569   9.729   2.841   4.323  0.1237 -0.1440  0.0388
  628MOL0     C86570   9.772   2.736   4.436 -0.6907  0.0530 -0.5346
  628MOL0    Cl86571   9.919   2.653   4.370  0.1546 -0.0843 -0.1115
  628MOL0     C86572   8.904   2.959   4.254 -0.8545  0.2936  0.2811
  628MOL0     C86573   8.774   2.953   4.299  0.1956 -0.7056 -0.6541
  628MOL0     O86574   8.579   3.124   4.438 -0.2397  0.2149 -0.5037
  628MOL0     C86575   8.262   2.991   4.318 -0.3669 -0.4295 -0.6163
  628MOL0     C86576   8.125   2.983   4.343  0.5026  0.8330 -0.6094
  628MOL0     N86577   7.613   3.481   4.299 -0.3111 -0.1308 -0.0709
  628MOL0     N86578   7.530   3.551   4.230 -0.0120  0.3316 -0.6626
  628MOL0     C86579   6.315   3.870   3.961  0.9365 -0.3708  0.4804
  628MOL0     C86580   6.181   3.853   3.963 -0.5167  0.2497  0.4684
  628MOL0     C86581   5.788   3.610   4.063  0.7215 -0.3544  0.3047
  628MOL0     C86582   5.712   3.540   4.157  0.5892 -0.5043  0.0702
  628MOL0     C86583   5.584   3.519   4.134  0.9584  1.1266  0.1067
  628MOL0     C86584   5.526   3.536   4.002  0.0801 -0.0403  0.3888
  628MOL0     O86585   5.403   3.501   3.957  0.1954  1.1428  0.3832
  628MOL0     C86586   5.315   3.449   4.065 -0.1387  1.1753  0.7945
  628MOL0     C86587   5.173   3.416   4.008 -0.1800  0.4456 -0.7468
  628MOL0     C86588   5.192   3.322   3.887  0.6444 -0.4058 -0.0324
  628MOL0     C86589   5.065   3.250   3.840  0.1151  0.1479 -0.6892
  628MOL0     C86590   4.968   3.352   3.793 -1.0126  0.5214 -0.4751
  628MOL0     C86591   4.893   3.435   3.758  0.6090  0.3062 -0.5540
  628MOL0     C86592   5.605   3.603   3.903 -0.1549  0.0265 -0.7823
  628MOL0     C86593   5.737   3.648   3.933 -0.7042  0.0672  0.0819
  628MOL0     C86594   5.805   3.722   3.826  0.3305 -0.3979 -0.0379
  628MOL0     H86595   6.191   3.667   4.262  1.0488  0.4559 -0.0974
  628MOL0     H86596   6.402   3.696   4.252  1.1137 -2.5422 -1.2130
  628MOL0     H86597   6.561   3.782   3.829 -1.7943 -0.9541  0.2029
  628MOL0     H86598   6.581   3.643   3.929 -1.2690 -0.7203  2.6194
  628MOL0     H86599   6.769   3.773   3.809  0.6346  0.1988  0.7461
  628MOL0     H86600   6.757   3.894   3.926  2.4466 -0.3401 -0.8930
  628MOL0     H86601   6.782   3.672   4.098 -0.4270  1.8106 -0.7350
  628MOL0     H86602   6.856   3.605   3.952 -0.3125  0.6051 -0.6905
  628MOL0     H86603   7.019   3.786   3.941 -0.9277  2.3803 -0.3909
  628MOL0     H86604   6.935   3.864   4.078 -0.6398 -1.1086  2.3675
  628MOL0     H86605   7.014   3.686   4.230  3.3149 -0.7116  0.7395
  628MOL0     H86606   7.149   3.744   4.129 -0.2490  0.0141 -3.8154
  628MOL0     H86607   6.981   3.492   4.086 -0.2340  1.1840 -0.6347
  628MOL0     H86608   7.088   3.557   3.966 -0.1298  2.7560  0.7208
  628MOL0     H86609   7.185   3.372   4.098  3.8903 -0.0598 -0.3283
  628MOL0     H86610   7.182   3.477   4.245 -1.6815  1.7380 -0.5431
  628MOL0     H86611   7.337   3.498   3.983  3.0973 -0.5736  0.1254
  628MOL0     H86612   7.324   3.638   4.096 -0.6339 -0.1610 -1.6876
  628MOL0     H86613   7.421   3.269   4.148 -1.4729  0.6930  0.1937
  628MOL0     H86614   7.772   3.264   4.300  0.6719 -3.0911  1.3551
  628MOL0     H86615   7.666   3.177   4.199  2.3369  0.4002 -0.7576
  628MOL0     H86616   7.634   3.187   4.513  0.6897  0.1507  0.0112
  628MOL0     H86617   7.513   3.126   4.402 -0.1078 -4.4935  1.7310
  628MOL0     H86618   7.698   2.982   4.519  0.2249 -2.5200 -0.9600
  628MOL0     H86619   7.626   2.948   4.367 -2.7958  2.6597  1.2141
  628MOL0     H86620   7.857   2.888   4.361 -0.8726 -0.2424  2.0671
  628MOL0     H86621   7.848   3.049   4.267  1.8832  1.1145  0.5538
  628MOL0     H86622   8.095   3.202   4.596  1.7157  3.0084 -1.5879
  628MOL0     H86623   8.419   3.301   4.549  1.0642 -1.2738  0.1263
  628MOL0     H86624   8.414   3.162   4.661  1.0131 -0.5839 -1.5941
  628MOL0     H86625   8.287   3.299   4.661  1.2462 -0.0314  1.7160
  628MOL0     H86626   8.609   3.034   4.009 -0.4463  1.7416  0.1240
  628MOL0     H86627   8.841   3.068   3.935  3.3638 -0.4339 -0.1399
  628MOL0     H86628   9.151   3.109   4.253  1.8380  0.2151 -0.1878
  628MOL0     H86629   9.206   2.950   4.198  0.5530  1.3156  2.9143
  628MOL0     H86630   9.351   3.062   4.043 -2.8644  0.3186 -2.4100
  628MOL0     H86631   9.242   3.200   4.043  1.1541 -1.1938 -0.7673
  628MOL0     H86632   9.324   3.269   4.259 -0.8804  0.4999 -0.1286
  628MOL0     H86633   9.461   3.246   4.152 -0.1446  0.6099  1.1183
  628MOL0     H86634   9.370   3.035   4.356  0.6502  0.3602 -0.2699
  628MOL0     H86635   9.483   3.157   4.392  0.9098 -2.1431  1.4131
  628MOL0     H86636   9.505   2.942   4.183 -3.3825  1.2701 -0.1452
  628MOL0     H86637   9.633   3.077   4.205 -0.9166  0.2864 -0.2729
  628MOL0     H86638   9.553   2.871   4.414  0.3753  0.9122  2.7467
  628MOL0     H86639   9.653   3.012   4.441  0.6008 -0.2431  0.8303
  628MOL0     H86640   9.826   2.887   4.302 -0.4143  0.5101 -1.1158
  628MOL0     H86641   9.699   2.786   4.232  0.5817 -1.1563  0.4837
  628MOL0     H86642   9.690   2.667   4.455  0.3366 -0.6822  1.4446
  628MOL0     H86643   9.801   2.786   4.529 -0.1029 -2.3036  0.6239
  628MOL0     H86644   8.984   2.918   4.316 -1.5398 -1.9662 -0.2469
  628MOL0     H86645   8.748   2.910   4.395  2.1665  1.2312  0.8130
  628MOL0     H86646   8.305   2.951   4.227  0.4758 -0.5856 -0.1529
  628MOL0     H86647   8.072   2.919   4.273 -2.9558 -0.3603  2.7449
  628MOL0     H86648   6.364   3.925   3.882  0.5156  0.3680  0.7222
  628MOL0     H86649   6.115   3.900   3.892  0.4409  1.0551  0.0815
  628MOL0     H86650   5.745   3.521   4.258  0.2918  0.7234  0.4181
  628MOL0     H86651   5.539   3.465   4.216  1.9983  2.0393  1.3126
  628MOL0     H86652   5.352   3.360   4.116  1.7313  0.8673 -0.9731
  628MOL0     H86653   5.302   3.531   4.136  0.8954 -0.2725  2.7371
  628MOL0     H86654   5.111   3.502   3.982 -1.8457  0.5106  2.9080
  628MOL0     H86655   5.123   3.360   4.087  1.7777  3.3669  2.8649
  628MOL0     H86656   5.208   3.382   3.797  1.2605 -0.2999  0.1432
  628MOL0     H86657   5.277   3.254   3.894  1.0191 -0.0918 -1.2994
  628MOL0     H86658   5.022   3.189   3.920  0.8584 -0.6270 -0.8563
  628MOL0     H86659   5.092   3.184   3.756  2.2761  3.5327 -2.8742
  628MOL0     H86660   4.807   3.488   3.723  0.9976  1.0884 -0.3585
  628MOL0     H86661   5.562   3.641   3.811 -0.5672  3.5109  0.7109
  628MOL0     H86662   5.831   3.823   3.861 -2.2858  0.9608 -1.6778
  628MOL0     H86663   5.897   3.671   3.794  1.5507  2.1767 -0.9415
  628MOL0     H86664   5.741   3.734   3.738  0.1135  1.9507  0.3804
  629MOL0     O86665   7.087   4.782   4.163  0.6865  0.1381  0.8188
  629MOL0     C86666   7.003   4.868   4.144 -0.3562 -0.5606 -0.2956
  629MOL0     O86667   6.870   4.849   4.120 -0.3890 -0.1716  0.4307
  629MOL0     C86668   6.805   4.725   4.137  0.0037  0.5312  0.7682
  629MOL0     C86669   6.869   4.604   4.107 -0.4180  0.1101 -0.4181
  629MOL0     C86670   6.785   4.488   4.106 -0.4760 -0.6125 -0.4433
  629MOL0     C86671   6.650   4.494   4.143 -0.5486  0.3040  0.6167
  629MOL0     O86672   6.564   4.393   4.136  0.4019  0.3672  0.6275
  629MOL0     C86673   6.600   4.252   4.134 -1.2441 -0.1761  0.1089
  629MOL0     C86674   6.644   4.216   4.275 -0.4010  0.3275  1.0281
  629MOL0     C86675   6.724   4.087   4.288  0.3861  0.5799  0.1700
  629MOL0     C86676   6.681   3.987   4.391  0.5379  0.4310 -0.0313
  629MOL0     C86677   6.786   3.867   4.374  0.1547 -0.7790  0.4950
  629MOL0     C86678   6.752   3.770   4.479 -0.0379  0.2186 -0.4503
  629MOL0     C86679   6.857   3.666   4.508 -0.0721 -0.0100  0.7522
  629MOL0     C86680   6.985   3.721   4.575  0.8800 -0.3297  1.2086
  629MOL0     N86681   7.064   3.607   4.618  0.4199 -0.1700  0.2801
  629MOL0     C86682   7.184   3.568   4.554  0.3705 -0.1303 -0.6552
  629MOL0     C86683   7.243   3.489   4.654 -0.4757 -0.9023 -0.2107
  629MOL0     C86684   7.365   3.421   4.616  0.4439 -0.6291  0.5337
  629MOL0     C86685   7.466   3.462   4.718 -0.2893 -0.5392 -0.3363
  629MOL0     C86686   7.594   3.370   4.700  0.3089 -0.6078  0.3171
  629MOL0     C86687   7.691   3.388   4.811 -0.3057 -0.2251 -0.2549
  629MOL0     O86688   7.813   3.311   4.789  0.2397 -0.0034  0.6413
  629MOL0     C86689   7.913   3.305   4.885 -0.5120 -0.0167  1.4498
  629MOL0     C86690   8.009   3.210   4.870  0.0915  0.1853  0.7431
  629MOL0     C86691   8.124   3.195   4.950  0.6093 -0.3621 -0.8258
  629MOL0     C86692   8.220   3.085   4.907 -0.7372  0.5452  0.0374
  629MOL0     C86693   8.142   3.288   5.058  0.2493  0.3687  0.0380
  629MOL0     C86694   8.257   3.271   5.154  0.7556  0.0781 -0.2272
  629MOL0     O86695   8.249   3.362   5.258 -0.4894 -0.2620 -0.0342
  629MOL0     C86696   8.353   3.366   5.347 -0.1633  0.8285 -0.2037
  629MOL0     C86697   8.341   3.285   5.464 -0.7795 -0.2975  0.4142
  629MOL0     C86698   8.451   3.267   5.548  0.5969 -0.9423 -0.5394
  629MOL0     C86699   8.566   3.336   5.540  0.3038 -0.1330  0.8163
  629MOL0     O86700   8.664   3.310   5.628  0.3185 -0.0682 -0.3950
  629MOL0     C86701   8.784   3.391   5.623  0.0789  0.4938  0.4453
  629MOL0     C86702   8.758   3.539   5.691 -0.0951  0.1896  0.2619
  629MOL0     C86703   8.894   3.598   5.697 -0.8043 -0.5106  0.1448
  629MOL0     C86704   8.981   3.546   5.809 -0.6895 -0.7927  0.4133
  629MOL0     C86705   9.114   3.619   5.801  0.2997  0.5570 -0.0483
  629MOL0     C86706   9.224   3.565   5.897 -0.4451 -0.3538 -0.3382
  629MOL0     C86707   9.358   3.614   5.853 -0.2639  0.4672 -0.8497
  629MOL0     C86708   9.464   3.543   5.948 -0.9452 -0.4064  0.6299
  629MOL0    Cl86709   9.467   3.358   5.914  0.0950  0.1227 -0.5503
  629MOL0     C86710   8.569   3.428   5.426 -0.0404 -0.5550 -0.5099
  629MOL0     C86711   8.469   3.446   5.333 -0.2097  0.1990 -0.4830
  629MOL0     O86712   8.341   3.183   5.142 -0.8671  0.4718 -0.1449
  629MOL0     C86713   8.044   3.387   5.076 -0.7374  0.0577  0.6471
  629MOL0     C86714   7.935   3.395   4.993  0.7633 -0.9518 -0.5262
  629MOL0     N86715   7.173   3.492   4.769 -0.1045  0.3648  0.1729
  629MOL0     N86716   7.069   3.554   4.742  0.1387 -0.6086  0.1105
  629MOL0     C86717   6.591   4.612   4.179 -0.7699  0.0588  0.2370
  629MOL0     C86718   6.671   4.724   4.179  0.3348 -0.0958 -0.3550
  629MOL0     C86719   7.043   5.009   4.145 -0.2418 -0.0732  0.4135
  629MOL0     C86720   6.944   5.104   4.146 -0.5622  0.3549 -0.4731
  629MOL0     C86721   6.977   5.241   4.162 -0.1906 -0.7027  0.3139
  629MOL0     C86722   7.115   5.279   4.165  0.2366  1.2454  0.2254
  629MOL0     O86723   7.158   5.407   4.195  0.2783  0.1636  0.3041
  629MOL0     C86724   7.153   5.453   4.334 -0.0257 -0.3344 -0.4584
  629MOL0     C86725   7.232   5.581   4.360 -0.3563 -0.3174  0.5221
  629MOL0     C86726   7.378   5.576   4.313  0.6719  0.5268 -0.5190
  629MOL0     C86727   7.448   5.703   4.365 -0.7467 -0.3853 -0.1347
  629MOL0     C86728   7.593   5.708   4.345 -0.8584 -0.0662 -0.5729
  629MOL0     C86729   7.714   5.710   4.332 -0.1547  0.5408  0.1655
  629MOL0     C86730   7.216   5.180   4.143  0.5126 -0.2783 -0.2983
  629MOL0     C86731   7.181   5.045   4.142 -0.6586 -0.1164  0.7529
  629MOL0     C86732   7.303   4.954   4.145 -0.1663 -0.2058 -0.1733
  629MOL0     H86733   6.967   4.599   4.061 -0.6092  0.2164 -0.8369
  629MOL0     H86734   6.829   4.390   4.086 -1.2755 -1.0175 -0.2761
  629MOL0     H86735   6.684   4.238   4.065 -2.5388 -0.5358 -1.4673
  629MOL0     H86736   6.517   4.195   4.091 -0.0570  2.0619 -6.4122
  629MOL0     H86737   6.709   4.295   4.315  0.5797 -0.7644  1.6597
  629MOL0     H86738   6.555   4.202   4.337 -2.7256  1.4232 -1.8285
  629MOL0     H86739   6.718   4.044   4.188  0.2580  2.0145 -0.4586
  629MOL0     H86740   6.829   4.117   4.294  0.2375  1.8658 -2.5503
  629MOL0     H86741   6.677   4.034   4.490 -0.4527  1.2780 -0.4547
  629MOL0     H86742   6.585   3.951   4.355 -0.0833  2.5793 -0.6926
  629MOL0     H86743   6.891   3.896   4.381  0.8882 -3.1174 -0.0781
  629MOL0     H86744   6.769   3.820   4.277  1.4279 -0.9646  0.3454
  629MOL0     H86745   6.740   3.821   4.575 -1.5694 -0.9447  0.0076
  629MOL0     H86746   6.656   3.725   4.454  0.3248 -0.8488  0.0075
  629MOL0     H86747   6.871   3.610   4.415 -2.7504 -3.5728  2.2400
  629MOL0     H86748   6.801   3.600   4.576  0.2631 -0.6273  0.4380
  629MOL0     H86749   7.047   3.775   4.503  2.3461 -0.2760  2.4546
  629MOL0     H86750   6.969   3.789   4.660  0.5821 -0.2564  1.0961
  629MOL0     H86751   7.220   3.591   4.454 -3.8460  0.7901 -2.1992
  629MOL0     H86752   7.404   3.450   4.519  0.1568 -0.1397  0.5579
  629MOL0     H86753   7.338   3.315   4.621 -0.3095 -0.5161 -0.8211
  629MOL0     H86754   7.488   3.565   4.692  4.0947 -2.0649 -4.0523
  629MOL0     H86755   7.429   3.447   4.820 -1.9427  0.3623 -0.7615
  629MOL0     H86756   7.573   3.263   4.710  0.2386 -0.4187  2.8352
  629MOL0     H86757   7.633   3.388   4.599  0.4182 -2.9730 -0.1245
  629MOL0     H86758   7.715   3.493   4.835  1.3128 -0.7368  0.4990
  629MOL0     H86759   7.653   3.337   4.900 -0.1961 -0.9104 -0.5949
  629MOL0     H86760   7.988   3.145   4.786 -0.2589  3.0939 -1.5943
  629MOL0     H86761   8.211   3.072   4.798  0.6421  1.4106 -0.2138
  629MOL0     H86762   8.216   2.991   4.962 -0.7441  0.1388 -0.6431
  629MOL0     H86763   8.322   3.122   4.923 -0.6653  0.4174 -0.1218
  629MOL0     H86764   8.250   3.227   5.475 -2.4960  1.7792 -1.6619
  629MOL0     H86765   8.439   3.192   5.625 -3.2625 -0.8933 -0.9082
  629MOL0     H86766   8.858   3.334   5.680  0.9242  0.2646 -0.8485
  629MOL0     H86767   8.836   3.384   5.527 -0.4543 -0.3033  0.2024
  629MOL0     H86768   8.674   3.588   5.640 -0.6919  1.6432  2.5316
  629MOL0     H86769   8.728   3.531   5.796  0.2987 -0.8603  0.3054
  629MOL0     H86770   8.873   3.705   5.706  2.3767  0.3916 -1.6237
  629MOL0     H86771   8.944   3.585   5.600 -0.9907  2.3324 -0.4227
  629MOL0     H86772   9.002   3.439   5.803 -0.2126 -0.6790 -0.0571
  629MOL0     H86773   8.927   3.573   5.900  1.2346  1.9316  0.8852
  629MOL0     H86774   9.156   3.600   5.702  0.6667 -0.5858  0.3031
  629MOL0     H86775   9.100   3.727   5.810 -0.9557  0.2890  1.7016
  629MOL0     H86776   9.212   3.457   5.881 -0.9099 -0.1206 -1.7868
  629MOL0     H86777   9.208   3.602   5.998  2.8870 -2.1159  0.9748
  629MOL0     H86778   9.348   3.721   5.871  0.7170  0.5636 -0.8042
  629MOL0     H86779   9.379   3.604   5.746  0.9273  0.8087 -0.6670
  629MOL0     H86780   9.452   3.559   6.056 -1.6601  1.0268  0.3663
  629MOL0     H86781   9.562   3.586   5.925 -0.4677 -0.5558  2.2298
  629MOL0     H86782   8.660   3.487   5.418  0.1279  0.1154  3.8681
  629MOL0     H86783   8.462   3.523   5.257 -0.8995 -1.1044 -1.7773
  629MOL0     H86784   8.056   3.460   5.156  2.1208 -0.6001  0.9276
  629MOL0     H86785   7.866   3.477   5.003  0.8859 -0.9597  0.5195
  629MOL0     H86786   6.488   4.616   4.211 -0.1563  1.2801  2.2217
  629MOL0     H86787   6.640   4.821   4.217  1.3201  0.7064 -1.5263
  629MOL0     H86788   6.839   5.077   4.158 -0.9647  1.8575 -0.4028
  629MOL0     H86789   6.906   5.319   4.184  0.2552 -0.1165 -0.2790
  629MOL0     H86790   7.048   5.479   4.347  0.1905  1.8328 -2.3840
  629MOL0     H86791   7.186   5.369   4.396  4.2010  1.0281 -0.5029
  629MOL0     H86792   7.224   5.613   4.465  0.1170 -2.9094  1.4036
  629MOL0     H86793   7.193   5.664   4.300 -1.2187 -1.4530 -0.5302
  629MOL0     H86794   7.438   5.494   4.356  1.5368  0.5158 -1.7020
  629MOL0     H86795   7.384   5.570   4.204  1.1320 -0.0695 -0.4680
  629MOL0     H86796   7.442   5.711   4.473  3.2106  1.6512  0.1241
  629MOL0     H86797   7.401   5.783   4.306  0.1794 -0.1890 -0.6317
  629MOL0     H86798   7.821   5.701   4.326 -0.0655  1.0367  0.9267
  629MOL0     H86799   7.320   5.209   4.149  0.0222  1.4195  0.9306
  629MOL0     H86800   7.305   4.911   4.246  1.7540 -0.9840 -0.5059
  629MOL0     H86801   7.298   4.873   4.073  0.4143 -0.0224 -0.4257
  629MOL0     H86802   7.398   5.008   4.135 -1.0413  1.0670 -2.4727
  630MOL0     O86803   8.511   7.246   5.672 -0.1305  0.5909  0.0852
  630MOL0     C86804   8.532   7.132   5.626  0.0030  0.0635 -0.1580
  630MOL0     O86805   8.605   7.039   5.691  0.2178 -0.2879 -0.3030
  630MOL0     C86806   8.662   7.073   5.807 -0.1886 -0.2968  0.2253
  630MOL0     C86807   8.590   7.093   5.925 -0.2813 -0.1408 -0.2487
  630MOL0     C86808   8.651   7.152   6.037 -1.1848 -0.5318 -0.5204
  630MOL0     C86809   8.786   7.172   6.037 -0.4625  0.0076  0.8675
  630MOL0     O86810   8.857   7.246   6.131 -0.0673  0.6548  0.3607
  630MOL0     C86811   8.787   7.284   6.252  0.0545  0.7978 -0.2706
  630MOL0     C86812   8.899   7.356   6.340 -0.2351  0.2699  0.4735
  630MOL0     C86813   9.014   7.259   6.384 -0.1150  0.1434  0.3418
  630MOL0     C86814   9.105   7.350   6.470  0.8487 -0.2356  0.4384
  630MOL0     C86815   9.242   7.286   6.513 -0.1213  0.3466  0.1448
  630MOL0     C86816   9.324   7.365   6.610  0.1846  0.6234  0.0162
  630MOL0     C86817   9.465   7.310   6.626  0.8644 -0.4240 -0.4181
  630MOL0     C86818   9.533   7.399   6.735 -0.3236  0.0845 -0.8637
  630MOL0     N86819   9.672   7.382   6.745 -0.3877 -0.6678  0.4991
  630MOL0     C86820   9.750   7.450   6.835 -0.3165 -0.0807  0.4782
  630MOL0     C86821   9.859   7.378   6.850 -0.0156  0.3404 -0.1488
  630MOL0     C86822   9.951   7.412   6.965 -0.1971  0.1093 -0.4126
  630MOL0     C86823   9.902   7.359   7.110 -0.1154  0.1173 -0.3836
  630MOL0     C86824   9.913   7.204   7.096  0.0324 -0.0266 -0.2709
  630MOL0     C86825   9.917   7.133   7.235 -0.2167 -0.4366 -0.5810
  630MOL0     O86826  10.059   7.117   7.275 -0.7665  0.0863 -0.8130
  630MOL0     C86827  10.091   7.025   7.366  0.1673 -0.4731  0.5779
  630MOL0     C86828  10.015   6.976   7.463 -0.5936 -0.4914  0.5148
  630MOL0     C86829  10.069   6.897   7.570 -0.2370  0.4069 -0.2628
  630MOL0     C86830   9.981   6.862   7.692  0.4220 -0.2193  0.2286
  630MOL0     C86831  10.202   6.843   7.563  0.7298 -0.1371  0.2395
  630MOL0     C86832  10.269   6.758   7.665 -0.3186 -0.2486 -0.2476
  630MOL0     O86833  10.367   6.678   7.621  0.6769 -0.1991 -0.2234
  630MOL0     C86834  10.439   6.608   7.712  0.2402 -0.2704 -1.0887
  630MOL0     C86835  10.543   6.659   7.795  0.7749  0.0976  0.0793
  630MOL0     C86836  10.623   6.568   7.872  0.7928  0.5955  0.1008
  630MOL0     C86837  10.595   6.425   7.872  0.7696 -0.5353  0.4033
  630MOL0     O86838  10.670   6.344   7.955 -0.3075 -0.4822 -0.3242
  630MOL0     C86839  10.619   6.206   7.967  0.1672  0.1115  0.3793
  630MOL0     C86840  10.716   6.107   8.033  0.4776 -0.2770  0.1751
  630MOL0     C86841  10.841   6.094   7.956 -0.5430 -0.1316  0.9130
  630MOL0     C86842  10.842   6.000   7.834  0.2027  0.1175 -0.3177
  630MOL0     C86843  10.861   5.863   7.892  0.1699  0.7764  0.0383
  630MOL0     C86844  10.887   5.751   7.784  0.1728  0.2480 -0.3424
  630MOL0     C86845  11.031   5.760   7.735 -0.3012 -0.0077  0.0697
  630MOL0     C86846  11.063   5.632   7.662 -0.2661  0.3484 -0.3395
  630MOL0    Cl86847  10.932   5.564   7.559  0.0383  0.0497  0.0570
  630MOL0     C86848  10.477   6.385   7.799 -0.0420 -0.0824  0.5046
  630MOL0     C86849  10.402   6.477   7.724  0.4438 -1.3721  0.0592
  630MOL0     O86850  10.239   6.770   7.784  0.0896 -0.0202  0.8471
  630MOL0     C86851  10.277   6.889   7.455  0.0433  0.1359 -0.0615
  630MOL0     C86852  10.228   6.981   7.360  0.1229  0.7363  0.4278
  630MOL0     N86853   9.844   7.259   6.774  0.4109  0.1478 -0.6906
  630MOL0     N86854   9.733   7.262   6.717  0.5684 -0.3111 -0.2367
  630MOL0     C86855   8.867   7.142   5.924  0.8105  0.3352 -0.0150
  630MOL0     C86856   8.808   7.098   5.809 -0.6737  0.8500  0.2447
  630MOL0     C86857   8.436   7.079   5.526 -1.0356 -0.3613  0.3836
  630MOL0     C86858   8.306   7.131   5.527 -0.1239  0.7983 -0.5262
  630MOL0     C86859   8.212   7.078   5.447  0.6415  0.8167 -0.1792
  630MOL0     C86860   8.249   6.993   5.347 -0.3728  0.1392  0.4520
  630MOL0     O86861   8.164   6.954   5.249 -0.6477  1.0188  0.4617
  630MOL0     C86862   8.148   7.046   5.145 -0.6130  0.2313  0.4296
  630MOL0     C86863   8.000   7.040   5.096 -0.7632 -0.6252  0.4552
  630MOL0     C86864   7.938   6.901   5.091  0.2352  0.8027  0.4433
  630MOL0     C86865   7.838   6.886   5.212  1.1321  0.5532 -0.4577
  630MOL0     C86866   7.761   6.759   5.201 -0.6910 -0.4528 -0.3636
  630MOL0     C86867   7.713   6.654   5.173  0.2408 -0.1215  0.0720
  630MOL0     C86868   8.382   6.935   5.344  0.8967 -0.4983  0.4022
  630MOL0     C86869   8.474   6.984   5.437 -0.0727 -0.0289 -1.2814
  630MOL0     C86870   8.607   6.932   5.437 -0.9366 -0.1691 -0.1312
  630MOL0     H86871   8.487   7.061   5.935 -1.0410  2.1417 -0.1698
  630MOL0     H86872   8.582   7.182   6.115  1.7530  2.1582  1.2523
  630MOL0     H86873   8.749   7.205   6.318  1.2717  0.0750 -0.4125
  630MOL0     H86874   8.707   7.348   6.213 -1.6552 -0.6842  0.6557
  630MOL0     H86875   8.931   7.443   6.281  0.6582  1.1107  2.1321
  630MOL0     H86876   8.861   7.396   6.434  2.6530  0.4619  1.6584
  630MOL0     H86877   8.990   7.173   6.446  1.4426  0.9061  2.0996
  630MOL0     H86878   9.070   7.224   6.297  0.4509  0.5038  0.5573
  630MOL0     H86879   9.134   7.440   6.414  3.9952 -1.0723  0.5270
  630MOL0     H86880   9.062   7.380   6.565 -0.6943  2.4431 -0.9957
  630MOL0     H86881   9.295   7.253   6.424 -0.4449  1.4867 -0.4879
  630MOL0     H86882   9.212   7.195   6.565 -1.7551  0.0952 -1.1740
  630MOL0     H86883   9.322   7.462   6.559 -2.5800  0.9003  0.5069
  630MOL0     H86884   9.264   7.371   6.701  1.7262  1.2024  1.0447
  630MOL0     H86885   9.513   7.326   6.529 -0.1368 -0.6363 -0.9705
  630MOL0     H86886   9.473   7.204   6.651 -2.8958 -0.8382 -0.2720
  630MOL0     H86887   9.515   7.503   6.709 -1.6934  0.1329  0.1477
  630MOL0     H86888   9.490   7.375   6.832  2.4180  0.5876  0.5707
  630MOL0     H86889   9.715   7.533   6.895 -0.0220  0.3658  0.0339
  630MOL0     H86890   9.953   7.522   6.971  2.4681  0.1960 -1.5419
  630MOL0     H86891  10.054   7.380   6.948 -0.6307 -3.6519  2.7509
  630MOL0     H86892   9.963   7.391   7.195 -1.4337 -2.0928  1.5275
  630MOL0     H86893   9.796   7.382   7.131 -0.8656 -3.2345 -0.0385
  630MOL0     H86894   9.826   7.174   7.037  0.6999  0.9647 -1.8273
  630MOL0     H86895  10.009   7.183   7.048 -0.9245 -1.8606 -1.5082
  630MOL0     H86896   9.868   7.200   7.306 -0.2190  0.3259 -1.2918
  630MOL0     H86897   9.861   7.039   7.225  0.0080 -0.5129 -1.1835
  630MOL0     H86898   9.910   7.007   7.465 -0.9203 -1.2159 -2.0332
  630MOL0     H86899   9.979   6.758   7.726  0.9120 -0.0702  0.7224
  630MOL0     H86900   9.881   6.891   7.657  1.1905  1.3183 -0.7584
  630MOL0     H86901  10.012   6.925   7.776 -2.0976  5.1276 -2.3772
  630MOL0     H86902  10.573   6.762   7.780  0.8351 -0.1291 -1.4935
  630MOL0     H86903  10.712   6.596   7.927  1.4516 -2.1748  0.6245
  630MOL0     H86904  10.524   6.207   8.021 -0.2596 -1.2539 -0.2751
  630MOL0     H86905  10.593   6.161   7.870  1.1906 -0.3187  0.2996
  630MOL0     H86906  10.732   6.132   8.138  0.9536 -0.0056  0.0425
  630MOL0     H86907  10.664   6.011   8.031  0.1848 -0.1070 -0.5505
  630MOL0     H86908  10.913   6.065   8.033 -0.2025  2.2177  1.5725
  630MOL0     H86909  10.870   6.194   7.921 -0.2753  0.3353  2.4128
  630MOL0     H86910  10.926   6.025   7.768 -1.0066  0.8851 -1.6381
  630MOL0     H86911  10.747   6.008   7.778  0.2216  1.1530 -0.2122
  630MOL0     H86912  10.948   5.864   7.958  0.7394 -1.8679 -0.5817
  630MOL0     H86913  10.766   5.832   7.937 -1.7351  2.0222 -2.8955
  630MOL0     H86914  10.820   5.762   7.698 -0.9272 -1.1943  0.2758
  630MOL0     H86915  10.859   5.653   7.824 -1.8023  1.5521  1.6918
  630MOL0     H86916  11.087   5.776   7.827 -2.2174 -2.3732  1.7692
  630MOL0     H86917  11.052   5.850   7.676  2.1923  0.1486  1.0613
  630MOL0     H86918  11.100   5.556   7.732  1.1100  0.7361 -0.6190
  630MOL0     H86919  11.149   5.658   7.601  1.4182 -1.1776  1.2575
  630MOL0     H86920  10.440   6.283   7.792 -0.8779  0.2809 -0.4492
  630MOL0     H86921  10.315   6.439   7.671  1.8773 -0.9419 -2.7618
  630MOL0     H86922  10.382   6.867   7.440 -0.0074 -0.9524  0.9830
  630MOL0     H86923  10.305   7.028   7.300  2.0972 -0.5541  1.8082
  630MOL0     H86924   8.975   7.150   5.933  1.0114 -1.7448 -0.2228
  630MOL0     H86925   8.868   7.099   5.719 -0.2066 -0.8094  0.5001
  630MOL0     H86926   8.278   7.207   5.598  0.7053  1.5167 -0.9513
  630MOL0     H86927   8.112   7.117   5.435 -0.5550 -1.6856  0.9958
  630MOL0     H86928   8.170   7.151   5.167 -0.3134  0.1710  0.4175
  630MOL0     H86929   8.213   7.016   5.062 -0.5633  3.9123 -1.0302
  630MOL0     H86930   7.983   7.094   5.002 -2.8746 -1.8265  0.0789
  630MOL0     H86931   7.948   7.100   5.172 -1.1713 -1.4798  0.8546
  630MOL0     H86932   7.892   6.872   4.997  0.5647 -1.4468  0.9265
  630MOL0     H86933   8.020   6.829   5.103 -0.3523  0.2298  1.1162
  630MOL0     H86934   7.759   6.961   5.200  0.2600 -0.3830 -0.7060
  630MOL0     H86935   7.883   6.910   5.309 -0.7977 -1.8943  1.1684
  630MOL0     H86936   7.665   6.559   5.169 -1.3763  0.5651  1.7884
  630MOL0     H86937   8.411   6.850   5.283  3.1281 -0.1527  0.8965
  630MOL0     H86938   8.686   7.003   5.459 -0.8035 -0.3429 -0.0441
  630MOL0     H86939   8.622   6.841   5.496 -0.0856 -0.3675 -0.6369
  630MOL0     H86940   8.622   6.895   5.334  0.4010  0.5450 -0.2179
  631MOL0     O86941   3.132   4.883   8.226  0.8955 -0.0327 -0.6042
  631MOL0     C86942   3.056   4.808   8.172 -1.2802  0.1772 -0.0063
  631MOL0     O86943   3.084   4.748   8.050 -0.1173 -0.2029  0.4622
  631MOL0     C86944   3.203   4.780   7.981 -0.0271  0.1444 -0.5234
  631MOL0     C86945   3.326   4.719   8.015 -0.3290 -0.1485 -0.7984
  631MOL0     C86946   3.439   4.746   7.936 -0.1060 -0.3012 -0.1540
  631MOL0     C86947   3.436   4.825   7.826  0.2453  0.3694  0.5628
  631MOL0     O86948   3.551   4.828   7.754 -0.5430  0.1970 -0.4675
  631MOL0     C86949   3.553   4.923   7.645  0.4107 -0.8674 -0.5395
  631MOL0     C86950   3.668   4.889   7.554  0.1612  0.4043  0.1489
  631MOL0     C86951   3.725   5.014   7.491 -0.2446 -0.0456 -0.3328
  631MOL0     C86952   3.834   4.979   7.386  0.6550 -0.4108 -0.1060
  631MOL0     C86953   3.936   4.869   7.425  0.1267  0.3048  0.1662
  631MOL0     C86954   4.030   4.916   7.540 -0.4512 -0.0020  0.0183
  631MOL0     C86955   4.173   4.860   7.531 -0.2934 -0.4863 -0.1800
  631MOL0     C86956   4.241   4.949   7.424 -0.3003  0.3927  0.2514
  631MOL0     N86957   4.371   4.889   7.371 -0.4157 -0.1257  0.2400
  631MOL0     C86958   4.368   4.780   7.289  0.0421  0.3857 -1.4731
  631MOL0     C86959   4.502   4.762   7.253  0.1780  0.1031 -0.7350
  631MOL0     C86960   4.557   4.664   7.150 -0.1511 -0.1014 -0.4068
  631MOL0     C86961   4.661   4.579   7.210 -0.4832  0.8581 -0.1885
  631MOL0     C86962   4.595   4.475   7.300 -0.1965 -0.1733 -0.0065
  631MOL0     C86963   4.531   4.356   7.219 -0.7954 -0.0261 -0.2668
  631MOL0     O86964   4.434   4.277   7.295 -0.0659  0.5348 -0.2844
  631MOL0     C86965   4.300   4.318   7.319  0.0463  0.1889  0.0792
  631MOL0     C86966   4.220   4.241   7.406  0.2155  0.6230  0.1079
  631MOL0     C86967   4.086   4.269   7.426 -1.0781 -0.5477 -1.0633
  631MOL0     C86968   4.016   4.169   7.513  0.0880  0.1537 -0.3231
  631MOL0     C86969   4.023   4.384   7.365 -0.2168 -0.1603 -0.5397
  631MOL0     C86970   3.885   4.425   7.392  0.2506  0.2731 -0.2464
  631MOL0     O86971   3.815   4.367   7.486 -0.3462  1.1836 -0.7793
  631MOL0     C86972   3.684   4.397   7.502 -0.3443  0.0085 -0.8852
  631MOL0     C86973   3.589   4.313   7.438 -0.6428  0.3398 -1.0124
  631MOL0     C86974   3.455   4.332   7.458 -0.4691 -0.4425  0.1099
  631MOL0     C86975   3.409   4.440   7.529  0.6224  0.4556  0.4232
  631MOL0     O86976   3.272   4.433   7.544 -0.4853 -0.3547  0.0461
  631MOL0     C86977   3.214   4.522   7.641  0.1640  0.7477  0.6561
  631MOL0     C86978   3.057   4.499   7.637  0.2827 -0.3144 -0.5770
  631MOL0     C86979   2.980   4.572   7.747 -0.2308  0.0128 -0.3965
  631MOL0     C86980   2.823   4.568   7.742  0.0191 -0.0036  0.0858
  631MOL0     C86981   2.770   4.435   7.804 -0.4982 -0.1371 -0.4353
  631MOL0     C86982   2.619   4.438   7.831 -0.3507 -0.7413  0.5700
  631MOL0     C86983   2.578   4.313   7.911  0.0997  0.1286 -0.7484
  631MOL0     C86984   2.428   4.313   7.923 -0.1614 -0.2045  0.2748
  631MOL0    Cl86985   2.351   4.311   7.772  0.4207  0.4111  0.3107
  631MOL0     C86986   3.504   4.534   7.590  0.5432  0.1518 -0.6932
  631MOL0     C86987   3.642   4.502   7.584 -0.3722 -0.2357  0.3668
  631MOL0     O86988   3.838   4.513   7.325  0.1618  0.5734  0.6576
  631MOL0     C86989   4.106   4.455   7.269  0.1980 -0.0091 -0.7090
  631MOL0     C86990   4.241   4.425   7.252  0.0495  0.7083  0.4580
  631MOL0     N86991   4.579   4.851   7.318  0.2520 -0.0689 -0.4782
  631MOL0     N86992   4.503   4.926   7.393  0.0231 -0.1877  0.4092
  631MOL0     C86993   3.310   4.885   7.794 -1.2031  0.6407  0.4559
  631MOL0     C86994   3.198   4.861   7.873  1.3183  0.2592  0.1694
  631MOL0     C86995   2.936   4.758   8.242 -0.1079  0.4997 -1.2681
  631MOL0     C86996   2.874   4.652   8.176 -0.2567 -0.3940  0.7724
  631MOL0     C86997   2.758   4.597   8.234 -0.2133 -0.3655  0.2697
  631MOL0     C86998   2.707   4.639   8.350 -0.2102  0.5344 -0.5791
  631MOL0     O86999   2.595   4.568   8.397 -0.1981 -0.2013  0.3984
  631MOL0     C87000   2.527   4.592   8.520 -0.1871  0.4363 -0.5160
  631MOL0     C87001   2.587   4.502   8.633 -0.8407  0.5252 -0.1912
  631MOL0     C87002   2.582   4.350   8.588 -0.0595 -0.2459 -0.2613
  631MOL0     C87003   2.648   4.263   8.693  1.6539  0.6647 -0.0721
  631MOL0     C87004   2.610   4.121   8.689  1.0131  0.3648  0.4476
  631MOL0     C87005   2.585   3.999   8.677  0.2888  0.5500  0.6294
  631MOL0     C87006   2.773   4.740   8.424  0.7090 -0.0437  0.7379
  631MOL0     C87007   2.885   4.801   8.371 -0.1796 -0.1066  0.9307
  631MOL0     C87008   2.956   4.898   8.455 -0.0428 -0.3249  0.0648
  631MOL0     H87009   3.329   4.635   8.084  0.4740  0.9775  0.5968
  631MOL0     H87010   3.535   4.702   7.962  1.5667  3.2981  0.2862
  631MOL0     H87011   3.548   5.022   7.692 -1.1211 -1.0063 -0.3402
  631MOL0     H87012   3.463   4.905   7.585 -0.1811 -0.3644  0.1747
  631MOL0     H87013   3.730   4.834   7.626 -0.1434  2.4112  2.0774
  631MOL0     H87014   3.635   4.817   7.479  0.0942  2.1338 -1.5660
  631MOL0     H87015   3.645   5.079   7.453 -1.9534 -1.7122  0.1973
  631MOL0     H87016   3.773   5.068   7.573 -2.1865  1.6676 -0.2319
  631MOL0     H87017   3.777   4.949   7.297 -3.2687  0.0631  1.9817
  631MOL0     H87018   3.884   5.074   7.368 -0.0979  0.1019  0.4436
  631MOL0     H87019   4.003   4.843   7.343  0.4753 -1.0606  0.8582
  631MOL0     H87020   3.886   4.775   7.450  0.6929  0.9040  4.4309
  631MOL0     H87021   4.041   5.025   7.548  0.4997 -0.1743  1.3595
  631MOL0     H87022   3.982   4.890   7.635  1.3970 -0.0273  0.9924
  631MOL0     H87023   4.169   4.758   7.493 -1.3880  0.3875 -2.7208
  631MOL0     H87024   4.211   4.874   7.632 -0.0687  1.2650 -0.4697
  631MOL0     H87025   4.176   4.968   7.337 -0.0103  1.3674  0.2340
  631MOL0     H87026   4.268   5.048   7.460 -1.9073  0.3293  1.7773
  631MOL0     H87027   4.274   4.730   7.265 -1.2224  1.6127  0.6528
  631MOL0     H87028   4.601   4.710   7.062  0.3010  0.1670 -0.0434
  631MOL0     H87029   4.482   4.596   7.109 -2.0560  3.0489 -2.5403
  631MOL0     H87030   4.718   4.526   7.133 -1.3760 -0.3381 -0.0633
  631MOL0     H87031   4.730   4.648   7.259  0.8443 -0.8012  0.3678
  631MOL0     H87032   4.673   4.434   7.365 -1.6113  1.7552  3.1450
  631MOL0     H87033   4.526   4.539   7.355 -1.1902 -0.3676 -0.9893
  631MOL0     H87034   4.496   4.404   7.128 -0.0048  0.3207 -0.3954
  631MOL0     H87035   4.607   4.291   7.173 -0.2458  1.5547 -1.6762
  631MOL0     H87036   4.269   4.154   7.449  0.8194  2.0826  2.5650
  631MOL0     H87037   3.946   4.108   7.456 -1.2873 -1.2566  2.6514
  631MOL0     H87038   3.965   4.216   7.598 -0.8035  0.3001 -0.9298
  631MOL0     H87039   4.087   4.101   7.561 -0.0946  2.2809  3.3806
  631MOL0     H87040   3.624   4.232   7.374 -1.4073  0.3845 -1.4964
  631MOL0     H87041   3.390   4.266   7.402 -0.2789  0.9778 -1.9018
  631MOL0     H87042   3.262   4.508   7.738 -0.2601 -2.4597  0.4876
  631MOL0     H87043   3.225   4.623   7.600  0.8567  0.6449  0.5704
  631MOL0     H87044   3.013   4.532   7.543  2.2023 -0.0430 -1.4294
  631MOL0     H87045   3.034   4.394   7.653  0.8367 -0.5045 -0.9867
  631MOL0     H87046   3.021   4.673   7.738  0.1797 -0.2997 -2.7883
  631MOL0     H87047   3.007   4.522   7.840 -1.3366 -1.6305 -0.9103
  631MOL0     H87048   2.790   4.582   7.639  0.8461 -2.5515 -0.5952
  631MOL0     H87049   2.787   4.653   7.801  0.6587  2.4009 -2.7905
  631MOL0     H87050   2.781   4.345   7.743 -2.2576 -0.0784 -0.9051
  631MOL0     H87051   2.823   4.416   7.898 -1.2829 -1.3088 -0.2104
  631MOL0     H87052   2.559   4.445   7.740  0.1301 -1.2469  0.2047
  631MOL0     H87053   2.586   4.522   7.892 -1.6222 -1.7801  1.3764
  631MOL0     H87054   2.617   4.312   8.013  1.0571  0.8167 -1.0930
  631MOL0     H87055   2.622   4.221   7.871 -0.1660  0.7798 -2.6415
  631MOL0     H87056   2.394   4.397   7.986 -0.6931  0.4636 -0.8638
  631MOL0     H87057   2.404   4.219   7.974 -0.2045 -0.9801 -1.1431
  631MOL0     H87058   3.462   4.618   7.644  2.0866 -0.4820  1.6433
  631MOL0     H87059   3.706   4.563   7.647 -1.2024 -2.8070  3.9774
  631MOL0     H87060   4.048   4.521   7.205  1.1707  0.4056 -1.1754
  631MOL0     H87061   4.294   4.481   7.177 -1.4521 -0.3605 -1.5033
  631MOL0     H87062   3.298   4.940   7.702 -1.0976 -2.0099 -1.2329
  631MOL0     H87063   3.095   4.883   7.844  1.0530  1.1794  1.7034
  631MOL0     H87064   2.907   4.607   8.082  1.5799  0.4087  0.9913
  631MOL0     H87065   2.713   4.513   8.182 -0.7790 -0.9238  1.6054
  631MOL0     H87066   2.546   4.697   8.546  3.5191 -0.4890  1.2665
  631MOL0     H87067   2.419   4.576   8.515 -0.5382  1.6437  1.9677
  631MOL0     H87068   2.533   4.508   8.727 -1.0264  1.3851 -0.3424
  631MOL0     H87069   2.685   4.549   8.646 -1.2054  0.7413  2.0604
  631MOL0     H87070   2.477   4.331   8.561 -0.2379  0.8198 -0.3693
  631MOL0     H87071   2.636   4.339   8.493  0.7380  2.7048 -0.2639
  631MOL0     H87072   2.627   4.314   8.787  0.1681 -0.7000  0.3786
  631MOL0     H87073   2.757   4.263   8.679  1.6033  0.2317 -0.4957
  631MOL0     H87074   2.565   3.894   8.679  2.5146 -0.0567 -2.2534
  631MOL0     H87075   2.737   4.753   8.526  1.1770  1.2357  0.7539
  631MOL0     H87076   2.964   4.994   8.403 -1.7719  0.3712  0.9942
  631MOL0     H87077   2.906   4.905   8.552  1.0621  0.2417  0.6098
  631MOL0     H87078   3.058   4.863   8.474  0.5468  1.0187 -0.4481
  632MOL0     O87079   2.637   7.275  10.110  0.5681 -0.3920  0.6343
  632MOL0     C87080   2.618   7.171  10.170 -0.6897  0.8195  0.5181
  632MOL0     O87081   2.698   7.057  10.150  0.0482 -0.5120  0.5370
  632MOL0     C87082   2.830   7.068  10.091 -0.1702  0.4474  1.3084
  632MOL0     C87083   2.895   6.945  10.068 -0.1112  0.9265 -0.2603
  632MOL0     C87084   3.018   6.931  10.020  0.7960 -0.3951  0.5368
  632MOL0     C87085   3.085   7.038   9.970  0.3055  0.0649  0.3572
  632MOL0     O87086   3.207   7.026   9.911 -0.8880  0.1197  0.1176
  632MOL0     C87087   3.283   6.915   9.946 -0.3849 -0.6835 -0.2066
  632MOL0     C87088   3.432   6.938   9.887  0.2960  0.2581  0.8072
  632MOL0     C87089   3.430   6.943   9.735 -0.1932  0.5334 -0.2865
  632MOL0     C87090   3.566   6.906   9.682  0.4999 -0.4451  0.7025
  632MOL0     C87091   3.556   6.876   9.530  0.3734 -0.0045  0.3891
  632MOL0     C87092   3.697   6.836   9.477 -0.0352  0.1353 -0.4405
  632MOL0     C87093   3.687   6.793   9.330  0.6949 -0.2143 -0.4626
  632MOL0     C87094   3.822   6.733   9.272 -0.5495  0.7866 -0.3105
  632MOL0     N87095   3.927   6.828   9.305 -0.2725  0.7626  0.2391
  632MOL0     C87096   3.939   6.944   9.234 -0.7369 -0.8568  1.0274
  632MOL0     C87097   4.030   7.019   9.304 -0.2433  0.9062 -0.8538
  632MOL0     C87098   4.081   7.147   9.239 -0.2083  0.1716 -0.8918
  632MOL0     C87099   4.110   7.253   9.346 -0.4165  0.6075 -0.4208
  632MOL0     C87100   4.230   7.217   9.435 -0.2485  0.1645  0.4696
  632MOL0     C87101   4.349   7.155   9.358  0.0556  0.9372  0.2357
  632MOL0     O87102   4.477   7.145   9.433  0.0372  0.0001  0.4044
  632MOL0     C87103   4.589   7.154   9.349  0.1189  1.6452 -0.2008
  632MOL0     C87104   4.700   7.224   9.387 -0.0115 -0.2004 -0.5478
  632MOL0     C87105   4.819   7.231   9.311  0.5348  0.2716  0.0689
  632MOL0     C87106   4.937   7.294   9.370  0.3657 -0.1995  1.2822
  632MOL0     C87107   4.813   7.169   9.184  0.1363  0.9406  0.6343
  632MOL0     C87108   4.929   7.184   9.090  0.2917 -0.7864  0.2943
  632MOL0     O87109   4.980   7.315   9.075  0.3008  0.2170 -0.7423
  632MOL0     C87110   5.073   7.349   8.981  0.4020  1.3209  0.0391
  632MOL0     C87111   5.047   7.321   8.849 -0.1468 -0.0141 -0.3107
  632MOL0     C87112   5.135   7.351   8.743  0.1791 -0.7012 -0.6845
  632MOL0     C87113   5.257   7.424   8.771 -0.0436 -0.3586 -0.0584
  632MOL0     O87114   5.349   7.462   8.672 -0.0740  0.7219 -0.0388
  632MOL0     C87115   5.489   7.469   8.702  0.6470  0.2244  0.1716
  632MOL0     C87116   5.556   7.510   8.576  0.1322 -0.3941  0.4537
  632MOL0     C87117   5.539   7.657   8.528  1.0750  0.5135 -0.5823
  632MOL0     C87118   5.602   7.760   8.616 -1.0381 -0.0709 -0.5999
  632MOL0     C87119   5.590   7.899   8.551  0.2033 -0.0668 -0.5305
  632MOL0     C87120   5.705   7.994   8.601 -0.0902  0.2668 -0.3324
  632MOL0     C87121   5.704   8.134   8.523  0.1051  0.5356  0.6375
  632MOL0     C87122   5.835   8.204   8.552 -0.1654 -0.9719  0.1454
  632MOL0    Cl87123   5.977   8.122   8.475  0.4524 -0.3384  0.1188
  632MOL0     C87124   5.275   7.456   8.904  0.3318 -0.1402 -0.2374
  632MOL0     C87125   5.189   7.419   9.007  0.0572 -0.4027  0.7324
  632MOL0     O87126   4.968   7.087   9.020 -0.3295  0.6207  0.2674
  632MOL0     C87127   4.702   7.095   9.144 -0.3998 -0.9839 -0.3757
  632MOL0     C87128   4.592   7.083   9.228 -0.4032  0.1333  0.8718
  632MOL0     N87129   4.071   6.946   9.416 -0.0256  0.4918  0.2913
  632MOL0     N87130   4.015   6.827   9.412  0.7923  0.2122 -0.1539
  632MOL0     C87131   3.034   7.169   9.982  0.2354 -0.2034  0.2417
  632MOL0     C87132   2.907   7.179  10.047  0.0603  0.4564  0.8008
  632MOL0     C87133   2.505   7.163  10.273 -0.1595  0.3798 -0.0132
  632MOL0     C87134   2.482   7.042  10.328 -0.3716  0.9826 -0.0276
  632MOL0     C87135   2.374   7.026  10.408 -0.2188  0.5372 -0.4002
  632MOL0     C87136   2.306   7.132  10.465 -0.5017 -0.3920  0.4653
  632MOL0     O87137   2.218   7.091  10.565 -0.3391 -0.5296 -0.3891
  632MOL0     C87138   2.120   7.184  10.614 -0.4988 -1.1001 -0.1220
  632MOL0     C87139   2.021   7.111  10.708  0.2213 -0.7699 -0.4166
  632MOL0     C87140   2.082   7.008  10.805  0.1783 -0.0737  0.1012
  632MOL0     C87141   1.977   6.964  10.908 -0.3098  1.3620  0.2464
  632MOL0     C87142   2.039   6.856  10.989 -1.0722  0.3096 -1.9728
  632MOL0     C87143   2.089   6.769  11.050 -1.0069  1.2687  0.0885
  632MOL0     C87144   2.340   7.260  10.434 -0.2736 -0.8738  0.2501
  632MOL0     C87145   2.439   7.279  10.330 -0.5760 -0.0040  0.0724
  632MOL0     C87146   2.480   7.419  10.290  0.1836 -0.3080 -0.0439
  632MOL0     H87147   2.853   6.850  10.100  0.5404  0.9658  0.7720
  632MOL0     H87148   3.070   6.836  10.012  3.2996  0.7288  2.1436
  632MOL0     H87149   3.237   6.823   9.908 -0.2354 -0.8609  0.0478
  632MOL0     H87150   3.290   6.915  10.055  1.6194  2.6365 -0.2193
  632MOL0     H87151   3.458   7.035   9.930 -1.8016  0.8739  0.8034
  632MOL0     H87152   3.491   6.856   9.929 -2.9146 -2.7897 -0.1771
  632MOL0     H87153   3.352   6.876   9.696 -1.9495  1.6897  1.0940
  632MOL0     H87154   3.399   7.042   9.699  0.1743  1.0057  0.6746
  632MOL0     H87155   3.647   6.976   9.703  2.3074 -1.2016 -3.0416
  632MOL0     H87156   3.602   6.814   9.729 -0.7117 -0.5202  1.5533
  632MOL0     H87157   3.542   6.972   9.480  1.4200  0.4441  0.9186
  632MOL0     H87158   3.478   6.802   9.508  0.6020 -0.4989  1.1844
  632MOL0     H87159   3.750   6.932   9.481  1.2658 -0.4668 -2.2889
  632MOL0     H87160   3.740   6.757   9.538  1.0767  1.1879  0.1907
  632MOL0     H87161   3.653   6.873   9.264 -1.2529  2.6110  3.5392
  632MOL0     H87162   3.614   6.713   9.311  1.3837 -0.8239 -0.5878
  632MOL0     H87163   3.830   6.637   9.323 -0.2429  2.2828  2.6307
  632MOL0     H87164   3.813   6.727   9.163  1.1632  2.6241 -0.6124
  632MOL0     H87165   3.896   6.969   9.138 -0.6365 -1.8918  0.7061
  632MOL0     H87166   4.002   7.176   9.169 -0.5766 -1.7662 -1.3370
  632MOL0     H87167   4.168   7.126   9.175 -0.1855 -0.1916 -0.7415
  632MOL0     H87168   4.141   7.349   9.304  0.9163  1.3899  2.1610
  632MOL0     H87169   4.014   7.266   9.396  0.4025  3.6377  0.5502
  632MOL0     H87170   4.257   7.305   9.494 -3.6773  1.3805  0.4210
  632MOL0     H87171   4.201   7.145   9.512 -2.8011  2.3854  1.7281
  632MOL0     H87172   4.327   7.056   9.318  0.2639  1.2876 -0.7850
  632MOL0     H87173   4.373   7.215   9.270  1.3179  0.2902  0.1113
  632MOL0     H87174   4.703   7.268   9.486  0.2559  0.0255 -0.6557
  632MOL0     H87175   5.031   7.262   9.325 -1.5827 -1.6959 -2.0411
  632MOL0     H87176   4.940   7.288   9.479  1.6387 -1.7182  1.1859
  632MOL0     H87177   4.925   7.401   9.347 -0.5762 -0.8751 -1.9231
  632MOL0     H87178   4.956   7.268   8.825 -1.1871  2.4530 -2.2531
  632MOL0     H87179   5.106   7.316   8.644 -3.6203 -1.0052  0.3940
  632MOL0     H87180   5.508   7.549   8.773 -0.6679  1.4230 -0.7693
  632MOL0     H87181   5.527   7.375   8.744 -1.2566 -0.0929  1.3225
  632MOL0     H87182   5.664   7.502   8.588 -0.1268 -3.0925  1.7775
  632MOL0     H87183   5.509   7.445   8.501  1.0638  0.8386 -1.2556
  632MOL0     H87184   5.431   7.676   8.525  1.2068  1.3037 -3.6191
  632MOL0     H87185   5.567   7.661   8.422  0.6550  0.8577 -0.6821
  632MOL0     H87186   5.709   7.733   8.621 -1.7918 -3.3140  1.3514
  632MOL0     H87187   5.562   7.754   8.717 -1.3844 -3.4283 -0.8139
  632MOL0     H87188   5.608   7.884   8.444  1.0910 -1.2442 -0.2372
  632MOL0     H87189   5.488   7.933   8.569  0.3730 -0.7318  2.0077
  632MOL0     H87190   5.802   7.948   8.583  0.0011 -0.0638  0.9515
  632MOL0     H87191   5.681   7.997   8.707 -3.8832 -1.1185 -0.9901
  632MOL0     H87192   5.622   8.190   8.570 -0.8548 -1.9952  2.1859
  632MOL0     H87193   5.686   8.125   8.415  3.4923  0.9857 -0.0704
  632MOL0     H87194   5.851   8.206   8.660  0.5497 -0.0159  0.0366
  632MOL0     H87195   5.826   8.306   8.513 -1.4393 -1.1176  0.0130
  632MOL0     H87196   5.364   7.515   8.920  1.1394 -0.6158 -2.6043
  632MOL0     H87197   5.213   7.455   9.107  0.3607  0.4462  0.3727
  632MOL0     H87198   4.694   7.048   9.047  1.7548 -1.1046 -0.5527
  632MOL0     H87199   4.516   7.014   9.194  1.8476 -0.7690 -2.9037
  632MOL0     H87200   3.089   7.248   9.931  1.2012 -0.1575  1.3197
  632MOL0     H87201   2.857   7.274  10.054 -0.1279  0.4466 -0.2499
  632MOL0     H87202   2.553   6.965  10.300  1.7583  0.8350  4.7123
  632MOL0     H87203   2.338   6.926  10.432  4.2650 -1.0204  0.7211
  632MOL0     H87204   2.174   7.270  10.654 -1.2938 -0.1615 -1.0166
  632MOL0     H87205   2.066   7.228  10.529  0.9717  0.5118 -0.2857
  632MOL0     H87206   1.951   7.053  10.647 -2.4328 -0.5666  2.1940
  632MOL0     H87207   1.969   7.195  10.755 -0.3928 -0.6310 -1.3164
  632MOL0     H87208   2.129   6.926  10.750  1.5940  2.0447 -2.0842
  632MOL0     H87209   2.173   7.055  10.845  0.4533  0.2910 -0.9132
  632MOL0     H87210   1.884   6.936  10.858 -0.2668 -0.6245  1.1920
  632MOL0     H87211   1.957   7.055  10.967  3.2724  2.7881 -0.4980
  632MOL0     H87212   2.146   6.686  11.088 -2.3973  0.1657 -0.1659
  632MOL0     H87213   2.308   7.352  10.482 -1.3078  0.0008 -1.9786
  632MOL0     H87214   2.458   7.437  10.184  2.4567 -1.5408 -0.7997
  632MOL0     H87215   2.428   7.485  10.361 -0.0935 -0.4648 -0.0966
  632MOL0     H87216   2.587   7.438  10.302  0.6948 -1.7753 -1.8655
  633MOL0     O87217   9.007  10.128   2.484 -0.2834  0.0012 -0.1868
  633MOL0     C87218   8.925  10.042   2.467 -0.0952 -0.7800 -0.3179
  633MOL0     O87219   8.948   9.934   2.398  0.2768  0.3693 -0.4238
  633MOL0     C87220   9.081   9.889   2.383 -0.4127  0.1827  1.0980
  633MOL0     C87221   9.188   9.901   2.469 -0.3028 -0.2730 -0.0131
  633MOL0     C87222   9.321   9.867   2.429  0.2861  0.4156  0.5235
  633MOL0     C87223   9.338   9.791   2.317 -0.2744 -0.0442  0.5904
  633MOL0     O87224   9.459   9.747   2.259  0.7856  0.2668  0.5623
  633MOL0     C87225   9.574   9.832   2.268 -0.2374  0.1816  0.0749
  633MOL0     C87226   9.581   9.920   2.149 -0.1978  0.8387 -0.1432
  633MOL0     C87227   9.574   9.848   2.013 -0.2578  0.2333  0.4948
  633MOL0     C87228   9.588   9.947   1.899  0.6922 -0.0590 -0.0674
  633MOL0     C87229   9.718   9.964   1.811  0.7325 -0.6287 -0.7931
  633MOL0     C87230   9.849   9.977   1.890  0.3126 -0.4004 -0.7382
  633MOL0     C87231   9.964  10.000   1.792  0.4080  0.2424  0.5811
  633MOL0     C87232   9.949  10.129   1.716  0.8470  0.2186  0.5171
  633MOL0     N87233  10.086  10.159   1.655  1.0796  0.3665  0.0526
  633MOL0     C87234  10.193  10.206   1.723 -0.4525 -0.4291  0.3755
  633MOL0     C87235  10.292  10.197   1.632  0.2774  1.1237  0.5613
  633MOL0     C87236  10.424  10.261   1.671  0.1487 -0.1407 -0.5336
  633MOL0     C87237  10.485  10.187   1.783 -0.1703  0.2121  0.2022
  633MOL0     C87238  10.478  10.026   1.761  0.2857  0.4634 -0.9015
  633MOL0     C87239  10.554   9.968   1.643  0.1232 -0.1063  0.1695
  633MOL0     O87240  10.681  10.031   1.630  0.0787  0.1626  0.2597
  633MOL0     C87241  10.794   9.972   1.664 -0.6300  0.8317 -0.4151
  633MOL0     C87242  10.811   9.847   1.731 -0.4402 -0.1809 -0.5568
  633MOL0     C87243  10.933   9.802   1.769 -0.2512  0.2700 -0.2827
  633MOL0     C87244  10.940   9.670   1.838  0.7472 -0.3922 -1.5180
  633MOL0     C87245  11.051   9.889   1.744 -0.1357 -0.3445  0.4747
  633MOL0     C87246  11.186   9.851   1.779  0.2230  1.3139  0.1651
  633MOL0     O87247  11.285   9.944   1.763  0.1755  0.6039  0.5259
  633MOL0     C87248  11.416   9.903   1.735 -0.1846 -0.3282  0.6204
  633MOL0     C87249  11.491  10.015   1.697 -0.3930 -0.7403  0.1327
  633MOL0     C87250  11.629  10.000   1.658 -0.1910 -0.3889 -0.2854
  633MOL0     C87251  11.694   9.879   1.653 -0.1574  0.2412  0.4903
  633MOL0     O87252  11.824   9.879   1.597  0.3798  0.2841 -0.2153
  633MOL0     C87253  11.886   9.741   1.590 -0.5971 -0.4363  0.3990
  633MOL0     C87254  12.022   9.742   1.521 -0.5885  0.0476 -0.1633
  633MOL0     C87255  12.117   9.844   1.582 -0.1355 -0.8425  0.3950
  633MOL0     C87256  12.206   9.908   1.471 -0.3545 -0.4610  0.4702
  633MOL0     C87257  12.285   9.803   1.393 -0.4264 -0.4082 -0.4310
  633MOL0     C87258  12.343   9.862   1.260  0.1239  0.1904  0.7965
  633MOL0     C87259  12.429   9.755   1.188 -0.7895  0.7514  0.0011
  633MOL0     C87260  12.347   9.635   1.143  0.4912 -0.0639  0.7593
  633MOL0    Cl87261  12.211   9.683   1.039 -0.4299 -0.2357 -0.2814
  633MOL0     C87262  11.619   9.768   1.689 -0.1650  0.2579 -0.4618
  633MOL0     C87263  11.484   9.781   1.735 -0.4301  0.3417  0.8969
  633MOL0     O87264  11.208   9.732   1.808 -0.5518  0.0130  0.0401
  633MOL0     C87265  11.028  10.026   1.694  0.0321  0.2048 -0.5666
  633MOL0     C87266  10.903  10.056   1.653  0.0066 -0.5760  1.0236
  633MOL0     N87267  10.254  10.146   1.508  0.3507 -0.6271  0.5301
  633MOL0     N87268  10.128  10.114   1.531  0.3305 -0.5541  0.0332
  633MOL0     C87269   9.229   9.778   2.233  0.7255 -0.6521 -0.4000
  633MOL0     C87270   9.104   9.826   2.267  0.7147  0.4200  1.3577
  633MOL0     C87271   8.796  10.048   2.535 -0.4335 -0.9358  0.3007
  633MOL0     C87272   8.723   9.924   2.544  0.5449 -0.4892 -0.5781
  633MOL0     C87273   8.591   9.923   2.586  0.0564  0.1675 -0.9252
  633MOL0     C87274   8.528  10.031   2.645  0.9558  0.6701 -1.2303
  633MOL0     O87275   8.402   9.998   2.693 -0.2807 -0.1985  1.1597
  633MOL0     C87276   8.337  10.088   2.785  0.6866  0.3321  0.2602
  633MOL0     C87277   8.262  10.203   2.711 -0.1487  0.4027 -0.5946
  633MOL0     C87278   8.146  10.151   2.639 -0.0963 -0.1780 -0.0300
  633MOL0     C87279   8.086  10.250   2.548  0.3127 -0.8906  0.0239
  633MOL0     C87280   8.007  10.190   2.443  0.0889  0.3853 -0.1647
  633MOL0     C87281   7.948  10.131   2.352 -0.1483  0.6378 -0.4945
  633MOL0     C87282   8.595  10.154   2.646  0.1990 -0.6671  0.2356
  633MOL0     C87283   8.725  10.166   2.592 -0.1158  0.4173 -0.2934
  633MOL0     C87284   8.773  10.301   2.584  0.1175 -0.1213  0.5737
  633MOL0     H87285   9.167   9.946   2.565 -2.4187  1.7178 -1.3204
  633MOL0     H87286   9.415   9.877   2.483  1.3040  1.2303 -1.3004
  633MOL0     H87287   9.657   9.761   2.257 -1.0203 -0.4303 -2.8568
  633MOL0     H87288   9.585   9.896   2.356 -1.0255 -1.9238  1.7875
  633MOL0     H87289   9.504   9.999   2.148 -2.1132 -0.8080  2.5661
  633MOL0     H87290   9.677   9.972   2.155 -0.0921  0.4503  3.2539
  633MOL0     H87291   9.649   9.769   2.004 -1.0219 -0.4543  0.0492
  633MOL0     H87292   9.475   9.806   1.995  0.5723 -1.3853 -0.5742
  633MOL0     H87293   9.525   9.923   1.812  2.5216  0.7231 -1.6903
  633MOL0     H87294   9.560  10.044   1.940 -1.6300 -0.4881 -0.5001
  633MOL0     H87295   9.707  10.052   1.747  0.8620  1.1811  1.5387
  633MOL0     H87296   9.748   9.879   1.749 -0.8115 -0.2545 -2.1153
  633MOL0     H87297   9.832  10.066   1.952 -0.5480 -2.5229  2.3319
  633MOL0     H87298   9.867   9.898   1.964 -2.1057 -0.1622  0.2163
  633MOL0     H87299   9.963   9.904   1.739 -0.6781 -0.0437  1.0834
  633MOL0     H87300  10.062   9.993   1.842 -0.7484 -4.2084  2.7498
  633MOL0     H87301   9.876  10.115   1.635  1.5938 -0.4889 -0.0572
  633MOL0     H87302   9.908  10.213   1.771  1.3511  0.4816  0.4967
  633MOL0     H87303  10.202  10.234   1.828 -0.0514 -1.6258  0.6783
  633MOL0     H87304  10.404  10.362   1.708  2.4519  0.2716 -0.2737
  633MOL0     H87305  10.499  10.258   1.592 -1.0942 -4.4619 -1.8201
  633MOL0     H87306  10.589  10.222   1.779 -0.8949  2.5640  0.7948
  633MOL0     H87307  10.445  10.208   1.883  1.1083  0.9183  0.5970
  633MOL0     H87308  10.519   9.967   1.843  1.2384 -0.1614 -1.7951
  633MOL0     H87309  10.373   9.994   1.770  0.7837 -0.7094  1.8579
  633MOL0     H87310  10.560   9.859   1.654 -1.4694 -0.1188  1.4415
  633MOL0     H87311  10.503   9.994   1.550  1.4780  1.5921 -0.1503
  633MOL0     H87312  10.733   9.771   1.737 -0.0396 -0.4756  2.0228
  633MOL0     H87313  10.842   9.622   1.843  1.1291 -1.0403  2.9103
  633MOL0     H87314  10.990   9.676   1.935  1.7651 -1.2367 -1.9764
  633MOL0     H87315  11.000   9.605   1.773 -1.6822 -2.2646 -2.0479
  633MOL0     H87316  11.441  10.111   1.707  0.1481 -0.4074 -0.3891
  633MOL0     H87317  11.672  10.096   1.628  1.1836 -1.0315 -0.4726
  633MOL0     H87318  11.913   9.698   1.687  1.1521 -0.2797  0.0082
  633MOL0     H87319  11.830   9.666   1.534 -0.6968  0.1101 -0.2425
  633MOL0     H87320  12.061   9.642   1.541 -0.7238 -0.5231 -2.4650
  633MOL0     H87321  12.003   9.765   1.416 -0.3029  2.7407  0.2932
  633MOL0     H87322  12.181   9.787   1.651  1.2069  0.4506  0.2745
  633MOL0     H87323  12.062   9.921   1.637 -1.0400 -1.4595  0.3762
  633MOL0     H87324  12.279   9.968   1.526  2.0713 -2.3527 -0.5165
  633MOL0     H87325  12.145   9.969   1.404  0.4025 -0.3136 -0.0964
  633MOL0     H87326  12.366   9.770   1.459 -2.0088  0.1152  1.9005
  633MOL0     H87327  12.224   9.717   1.366  2.7548 -2.4244 -1.8269
  633MOL0     H87328  12.420   9.938   1.278 -2.2926  3.3044 -1.0817
  633MOL0     H87329  12.264   9.900   1.195  1.3629  0.8571 -0.3770
  633MOL0     H87330  12.512   9.716   1.249 -0.4546 -1.9623 -1.9618
  633MOL0     H87331  12.480   9.794   1.100  0.2048 -1.2573 -0.3862
  633MOL0     H87332  12.318   9.575   1.230 -0.7513 -0.4233  0.1251
  633MOL0     H87333  12.412   9.572   1.082  0.7889  1.1670 -0.2350
  633MOL0     H87334  11.667   9.672   1.707 -0.3642  0.5587  2.0066
  633MOL0     H87335  11.441   9.691   1.777 -0.9920 -0.0799 -0.5340
  633MOL0     H87336  11.099  10.099   1.658  0.4043 -1.1859 -2.8471
  633MOL0     H87337  10.878  10.146   1.597  0.7454 -0.9468  0.0571
  633MOL0     H87338   9.242   9.715   2.145 -0.2717 -1.7345  0.1946
  633MOL0     H87339   9.022   9.806   2.199 -0.2599  0.1072  2.5820
  633MOL0     H87340   8.767   9.830   2.511 -1.2049 -1.1832 -1.0255
  633MOL0     H87341   8.536   9.830   2.585  1.5620 -0.8180  0.6610
  633MOL0     H87342   8.266  10.028   2.843 -1.0531  3.0981  1.2095
  633MOL0     H87343   8.402  10.137   2.858 -1.9792  0.6252  2.6112
  633MOL0     H87344   8.341  10.244   2.647  1.1299  0.0979  0.7258
  633MOL0     H87345   8.230  10.284   2.777 -0.2482 -1.0176  1.1885
  633MOL0     H87346   8.176  10.062   2.583  0.9639  2.0308 -3.2918
  633MOL0     H87347   8.063  10.127   2.706  0.5872 -0.1711  0.8348
  633MOL0     H87348   8.166  10.301   2.493 -0.3929 -0.6063 -0.7634
  633MOL0     H87349   8.030  10.329   2.600 -0.9649 -1.8045  0.0751
  633MOL0     H87350   7.880  10.074   2.292 -1.2478  1.2486  0.1321
  633MOL0     H87351   8.542  10.240   2.685  1.0050  1.3556 -2.7793
  633MOL0     H87352   8.816  10.331   2.488 -0.6227  0.8004  0.5203
  633MOL0     H87353   8.690  10.371   2.596 -2.7168 -2.8763 -1.2551
  633MOL0     H87354   8.853  10.313   2.657  1.0076 -0.6474 -0.2916
  634MOL0     O87355   1.130   7.303   5.464 -0.0360 -0.1688  0.1396
  634MOL0     C87356   1.077   7.413   5.432 -0.1909  0.6400 -0.0417
  634MOL0     O87357   1.144   7.521   5.377  0.2038  0.2745 -0.2438
  634MOL0     C87358   1.272   7.504   5.337 -0.0988  0.7335  0.5241
  634MOL0     C87359   1.381   7.556   5.414 -0.2051  0.5577  0.2752
  634MOL0     C87360   1.515   7.533   5.390 -1.0954  1.2399  0.6724
  634MOL0     C87361   1.551   7.437   5.292 -0.6569  0.9447  0.1476
  634MOL0     O87362   1.685   7.414   5.276 -0.4610  0.3611  0.6969
  634MOL0     C87363   1.726   7.294   5.221 -0.1045  0.3278 -0.6443
  634MOL0     C87364   1.883   7.299   5.201 -0.0062 -0.5833 -0.0837
  634MOL0     C87365   1.952   7.309   5.339  0.0503 -0.7528  0.5370
  634MOL0     C87366   2.104   7.291   5.336 -0.6844 -0.2520 -0.1328
  634MOL0     C87367   2.166   7.403   5.251 -0.0157 -0.8896 -1.1400
  634MOL0     C87368   2.319   7.379   5.236  0.1005 -0.3440 -0.1406
  634MOL0     C87369   2.400   7.399   5.371 -0.4801  0.1290 -0.3490
  634MOL0     C87370   2.552   7.392   5.357  0.7074 -0.1063 -1.2775
  634MOL0     N87371   2.612   7.459   5.476  0.7321  0.6618  0.4724
  634MOL0     C87372   2.653   7.396   5.591  0.0925  0.9518  0.1843
  634MOL0     C87373   2.707   7.500   5.661 -0.1304 -0.3555  0.0713
  634MOL0     C87374   2.787   7.506   5.789 -1.0526 -0.5604  0.8893
  634MOL0     C87375   2.924   7.438   5.784  1.1139  0.2510  0.4468
  634MOL0     C87376   3.001   7.450   5.920 -0.1865  0.0128 -0.3010
  634MOL0     C87377   3.140   7.398   5.914  0.7770 -0.2147 -0.7504
  634MOL0     O87378   3.219   7.496   5.852 -0.0705  0.5956  0.1923
  634MOL0     C87379   3.354   7.504   5.864 -0.6830  0.6583  0.3641
  634MOL0     C87380   3.427   7.381   5.892  0.1057 -0.4054  0.2382
  634MOL0     C87381   3.565   7.385   5.912 -0.5687  0.4235 -0.4863
  634MOL0     C87382   3.637   7.251   5.945 -0.4758 -1.7237 -0.0240
  634MOL0     C87383   3.635   7.512   5.887  0.1886  0.5143 -0.1907
  634MOL0     C87384   3.781   7.517   5.878  0.7030  0.0287  1.0012
  634MOL0     O87385   3.858   7.404   5.900 -0.2012 -0.2058  0.4367
  634MOL0     C87386   3.990   7.405   5.860  0.6809  0.2126  1.4693
  634MOL0     C87387   4.076   7.327   5.939  0.0636 -0.4466 -0.0594
  634MOL0     C87388   4.215   7.334   5.911  0.6995  0.7833 -0.5188
  634MOL0     C87389   4.260   7.400   5.811 -0.4806 -1.5733  0.3186
  634MOL0     O87390   4.393   7.391   5.792  0.4535  0.3596  0.0202
  634MOL0     C87391   4.444   7.454   5.664 -0.4277  0.3133 -0.7368
  634MOL0     C87392   4.592   7.417   5.653 -0.1737 -0.5958  0.0222
  634MOL0     C87393   4.631   7.267   5.660 -0.1488 -0.7473 -0.5314
  634MOL0     C87394   4.786   7.266   5.667  0.0504  0.8009  0.4536
  634MOL0     C87395   4.830   7.117   5.697 -1.1508 -0.8034 -0.2904
  634MOL0     C87396   4.972   7.096   5.650  0.5766  0.7115 -0.9394
  634MOL0     C87397   5.095   7.161   5.719 -0.2653  0.3741 -0.5958
  634MOL0     C87398   5.194   7.224   5.622  0.3345  1.3150  0.1968
  634MOL0    Cl87399   5.250   7.111   5.505 -0.2302  0.5222 -0.4361
  634MOL0     C87400   4.176   7.467   5.725  0.5437 -0.2411  0.0680
  634MOL0     C87401   4.040   7.471   5.747  0.0443  0.1231 -0.1220
  634MOL0     O87402   3.824   7.631   5.849 -0.2088  0.1863  0.1587
  634MOL0     C87403   3.556   7.631   5.867 -1.1023  0.7702 -0.1174
  634MOL0     C87404   3.422   7.622   5.860 -0.5135 -0.4269 -0.1752
  634MOL0     N87405   2.690   7.618   5.589 -0.4104  0.0884 -0.6446
  634MOL0     N87406   2.637   7.590   5.475  0.7751  0.1317 -0.8838
  634MOL0     C87407   1.448   7.378   5.218  0.1925  0.2349 -0.1385
  634MOL0     C87408   1.312   7.424   5.228 -0.4432 -0.1430 -0.2982
  634MOL0     C87409   0.928   7.425   5.433  0.4679 -0.0009 -0.6467
  634MOL0     C87410   0.876   7.551   5.390  0.2229  1.0091 -1.2033
  634MOL0     C87411   0.744   7.578   5.400 -0.2180 -0.2991  0.1108
  634MOL0     C87412   0.649   7.479   5.448 -0.0261  0.0458  0.0173
  634MOL0     O87413   0.514   7.495   5.458 -0.2285 -0.3357  0.5348
  634MOL0     C87414   0.442   7.601   5.386  0.2923  0.4929  0.0134
  634MOL0     C87415   0.457   7.590   5.236 -0.5960 -0.4517 -0.4184
  634MOL0     C87416   0.404   7.467   5.170 -0.6787  0.5240 -0.1881
  634MOL0     C87417   0.438   7.478   5.022 -0.2484 -0.2301 -0.4265
  634MOL0     C87418   0.579   7.437   4.987 -0.1947  0.5537 -0.6219
  634MOL0     C87419   0.699   7.405   4.979 -0.5423 -0.4251 -0.6837
  634MOL0     C87420   0.695   7.363   5.476  0.2725  0.2812  0.1752
  634MOL0     C87421   0.832   7.324   5.476  0.1698  0.5615 -0.1618
  634MOL0     C87422   0.868   7.191   5.521  0.1088  0.1473  0.1345
  634MOL0     H87423   1.359   7.613   5.503 -0.3279  1.6674 -0.4442
  634MOL0     H87424   1.593   7.586   5.444 -1.4878  2.7374 -0.1774
  634MOL0     H87425   1.693   7.273   5.119  1.9784  1.4623 -1.6141
  634MOL0     H87426   1.699   7.211   5.287  1.2525  0.7910  0.5609
  634MOL0     H87427   1.925   7.211   5.153  4.2502  0.3660  1.4871
  634MOL0     H87428   1.909   7.386   5.141 -4.2990 -0.7495 -2.6472
  634MOL0     H87429   1.927   7.407   5.380 -1.2113 -1.1383  0.7345
  634MOL0     H87430   1.920   7.238   5.416  1.5373 -0.6311  1.3188
  634MOL0     H87431   2.158   7.295   5.431  1.8453  0.4025 -1.4900
  634MOL0     H87432   2.128   7.197   5.287  3.1253  1.0262 -1.0837
  634MOL0     H87433   2.146   7.494   5.309  1.2818 -0.6683 -1.0087
  634MOL0     H87434   2.121   7.407   5.152 -1.2469  1.7300 -0.5689
  634MOL0     H87435   2.338   7.281   5.192 -2.0897 -0.9258  0.0834
  634MOL0     H87436   2.354   7.446   5.157 -0.4091 -1.9941 -1.8469
  634MOL0     H87437   2.373   7.313   5.431 -1.1369 -1.4260 -2.7218
  634MOL0     H87438   2.361   7.492   5.414 -1.3941  0.1001 -1.0828
  634MOL0     H87439   2.581   7.286   5.352 -1.0673 -0.6290 -1.2913
  634MOL0     H87440   2.599   7.441   5.272  4.1875  2.5774  1.8694
  634MOL0     H87441   2.642   7.290   5.613 -1.5661  1.1709  0.5448
  634MOL0     H87442   2.718   7.467   5.864  0.1942 -1.3190  1.6868
  634MOL0     H87443   2.803   7.611   5.816  2.1036 -1.0923  1.4727
  634MOL0     H87444   2.915   7.329   5.778 -0.9377  0.0197  4.2785
  634MOL0     H87445   2.991   7.484   5.711  0.5625 -3.1714 -2.4687
  634MOL0     H87446   2.995   7.552   5.960  2.7162  0.7548 -1.5500
  634MOL0     H87447   2.945   7.396   5.997 -1.1663  1.3847  0.0034
  634MOL0     H87448   3.186   7.368   6.008  0.8653  1.4785 -0.2297
  634MOL0     H87449   3.138   7.306   5.854 -0.4083  0.7397 -2.2534
  634MOL0     H87450   3.365   7.293   5.906 -0.8167  0.6339  3.5685
  634MOL0     H87451   3.584   7.166   5.987  1.5839 -3.4019 -0.6538
  634MOL0     H87452   3.710   7.279   6.022  0.1594  1.4153 -1.5870
  634MOL0     H87453   3.681   7.216   5.852 -2.8794 -2.8910 -0.7934
  634MOL0     H87454   4.050   7.270   6.027  1.5661 -0.1315  0.6244
  634MOL0     H87455   4.277   7.264   5.967 -1.3135  0.7875  1.8900
  634MOL0     H87456   4.398   7.415   5.573  1.8528 -1.4443 -1.2297
  634MOL0     H87457   4.433   7.562   5.658 -2.0965  0.3798  1.9194
  634MOL0     H87458   4.622   7.464   5.559 -0.6831  2.3975  1.2479
  634MOL0     H87459   4.649   7.461   5.736 -0.3569  0.5961 -0.4760
  634MOL0     H87460   4.602   7.217   5.567 -2.4077 -0.0086 -0.2667
  634MOL0     H87461   4.592   7.199   5.737 -0.6983 -1.6185 -1.5586
  634MOL0     H87462   4.822   7.323   5.753 -1.0868  1.1192  0.7375
  634MOL0     H87463   4.832   7.301   5.574  0.6985  1.0906  0.8734
  634MOL0     H87464   4.817   7.091   5.803  2.9162  0.3999  0.7062
  634MOL0     H87465   4.772   7.048   5.636 -2.2267  1.7239 -2.3305
  634MOL0     H87466   4.988   7.139   5.551  0.2092  0.0238 -1.3059
  634MOL0     H87467   4.987   6.987   5.652  2.6400  0.9466  0.6350
  634MOL0     H87468   5.137   7.097   5.797 -1.8373  1.0142  0.8552
  634MOL0     H87469   5.066   7.246   5.783  2.5030  1.1037 -0.1791
  634MOL0     H87470   5.285   7.256   5.673  1.2815 -0.5508 -0.2415
  634MOL0     H87471   5.141   7.310   5.580 -0.1599  0.8243 -0.1964
  634MOL0     H87472   4.213   7.507   5.631  0.2954  0.5975  0.3201
  634MOL0     H87473   3.972   7.532   5.688 -3.2021 -2.0904  1.0206
  634MOL0     H87474   3.607   7.727   5.865 -0.1857  0.5036  3.5497
  634MOL0     H87475   3.367   7.715   5.855 -0.8226 -0.6797 -2.6068
  634MOL0     H87476   1.477   7.301   5.146  1.8432 -1.8296  2.5487
  634MOL0     H87477   1.232   7.379   5.171  0.1856  0.0836 -1.3730
  634MOL0     H87478   0.942   7.631   5.356  1.0503  0.3425 -1.2050
  634MOL0     H87479   0.706   7.674   5.368  0.6569 -0.3130 -1.0263
  634MOL0     H87480   0.337   7.605   5.416 -0.3694  0.0596 -2.1032
  634MOL0     H87481   0.484   7.697   5.417 -2.2043  1.7332 -0.2101
  634MOL0     H87482   0.564   7.600   5.218 -0.1816 -1.8967  0.9342
  634MOL0     H87483   0.395   7.674   5.203 -4.6603 -1.6213  3.2518
  634MOL0     H87484   0.446   7.376   5.214 -0.2721  0.2977 -1.0179
  634MOL0     H87485   0.296   7.455   5.186 -0.2650 -0.0996  2.5887
  634MOL0     H87486   0.429   7.584   4.997  0.7739  0.1787  0.8378
  634MOL0     H87487   0.362   7.421   4.969 -1.0821 -0.0545  0.5637
  634MOL0     H87488   0.800   7.370   4.987 -0.2631  0.5978  0.6626
  634MOL0     H87489   0.619   7.289   5.498  0.8014 -0.2765  0.1867
  634MOL0     H87490   0.786   7.137   5.567 -0.5951 -0.0090 -1.2774
  634MOL0     H87491   0.915   7.130   5.444 -1.2205 -1.6647  0.7134
  634MOL0     H87492   0.947   7.209   5.595 -1.6052  0.5235  1.9511
  635MOL0     O87493   0.262   9.111   5.896 -0.8162 -0.3077  0.0566
  635MOL0     C87494   0.143   9.078   5.886  0.6055  0.4192 -0.7016
  635MOL0     O87495   0.103   8.954   5.830 -0.3169  0.0786  0.3873
  635MOL0     C87496   0.197   8.867   5.779  0.1034  0.0507 -0.4695
  635MOL0     C87497   0.218   8.882   5.637  0.6074 -0.2572  0.0472
  635MOL0     C87498   0.301   8.784   5.586 -0.2342 -0.7423 -0.3716
  635MOL0     C87499   0.357   8.671   5.664  0.0690 -1.2379 -0.6480
  635MOL0     O87500   0.419   8.569   5.608  0.1648  0.2325  0.4800
  635MOL0     C87501   0.540   8.599   5.533  0.3972 -0.2885 -0.3882
  635MOL0     C87502   0.604   8.463   5.494  0.6382  0.1929  0.6491
  635MOL0     C87503   0.737   8.487   5.433 -0.6552  0.5828  0.9979
  635MOL0     C87504   0.815   8.349   5.389 -0.0518 -0.3375  0.3845
  635MOL0     C87505   0.946   8.382   5.321  0.3652 -0.2469 -0.1570
  635MOL0     C87506   1.049   8.261   5.326  0.7059 -0.0921 -0.3364
  635MOL0     C87507   0.987   8.146   5.249 -0.4394  1.0817  0.2483
  635MOL0     C87508   1.093   8.033   5.236  0.3271  0.4932  0.1286
  635MOL0     N87509   1.055   7.941   5.126 -0.0625  0.1711 -0.0410
  635MOL0     C87510   1.036   7.958   4.988 -0.5169  0.3159 -0.1595
  635MOL0     C87511   1.032   7.825   4.952  1.2955  0.0524  1.0632
  635MOL0     C87512   1.027   7.780   4.806 -0.3140 -0.2911 -0.0321
  635MOL0     C87513   0.920   7.683   4.786 -0.5791  1.0140 -0.6228
  635MOL0     C87514   0.771   7.739   4.781  0.6582  0.2841  0.2644
  635MOL0     C87515   0.715   7.782   4.925  0.2895 -0.2756  0.0581
  635MOL0     O87516   0.571   7.817   4.907 -0.3685  0.2551 -0.0331
  635MOL0     C87517   0.518   7.910   4.993 -0.9965 -0.1334  0.5323
  635MOL0     C87518   0.589   7.930   5.115 -1.0390 -0.8434 -0.0732
  635MOL0     C87519   0.527   7.991   5.223 -0.7771  0.0436 -0.2800
  635MOL0     C87520   0.598   7.987   5.356  0.5178 -0.0117 -0.1591
  635MOL0     C87521   0.398   8.050   5.208 -0.8376 -0.5014 -0.0055
  635MOL0     C87522   0.322   8.132   5.307  1.3850  0.4551  0.2048
  635MOL0     O87523   0.217   8.212   5.254  0.4427 -0.6972 -0.0750
  635MOL0     C87524   0.148   8.275   5.353 -0.5210 -0.3173 -0.7378
  635MOL0     C87525   0.190   8.389   5.432  0.0370 -0.2179 -0.0557
  635MOL0     C87526   0.092   8.458   5.505  0.4582 -0.4746 -0.3014
  635MOL0     C87527  -0.036   8.395   5.530  0.4864 -0.7459  0.7403
  635MOL0     O87528  -0.126   8.447   5.613  0.1503 -1.1574 -0.6361
  635MOL0     C87529  -0.093   8.579   5.673  0.3763  0.6801  0.4565
  635MOL0     C87530  -0.222   8.621   5.748 -0.7891  0.3493 -0.3253
  635MOL0     C87531  -0.305   8.716   5.663 -0.5674  0.2108  0.6504
  635MOL0     C87532  -0.408   8.799   5.742  0.2681 -0.2823 -0.0079
  635MOL0     C87533  -0.503   8.872   5.638  0.6516 -0.6243  0.1305
  635MOL0     C87534  -0.606   8.960   5.709  0.5285  0.7585  0.3583
  635MOL0     C87535  -0.730   9.002   5.628  0.2364 -0.0622 -0.4324
  635MOL0     C87536  -0.835   9.081   5.710  0.4707  0.5896 -0.0852
  635MOL0    Cl87537  -0.932   8.969   5.807  0.2393 -0.1421  0.3045
  635MOL0     C87538  -0.067   8.278   5.460 -1.1058  0.3403  0.7138
  635MOL0     C87539   0.024   8.221   5.376  0.2633 -0.6171  0.2909
  635MOL0     O87540   0.342   8.119   5.424  0.0300 -0.6159  0.6811
  635MOL0     C87541   0.333   8.035   5.086 -0.0086  0.0624  0.0829
  635MOL0     C87542   0.396   7.966   4.982  0.7773  0.0282 -1.0071
  635MOL0     N87543   1.041   7.745   5.059 -0.3054  0.0835  0.0666
  635MOL0     N87544   1.060   7.811   5.163  0.7295  0.1871  0.4017
  635MOL0     C87545   0.334   8.666   5.802 -0.0402 -0.1132  0.1963
  635MOL0     C87546   0.260   8.774   5.854 -1.5226  0.3016  0.2579
  635MOL0     C87547   0.042   9.177   5.922  0.8057  0.4430 -0.0764
  635MOL0     C87548   0.077   9.263   6.028 -0.4796 -0.3321 -0.4976
  635MOL0     C87549  -0.013   9.346   6.088 -0.2671  0.1377 -0.4309
  635MOL0     C87550  -0.143   9.354   6.052 -0.2989  0.2744  0.2794
  635MOL0     O87551  -0.240   9.444   6.100 -0.2301 -0.8572 -0.2300
  635MOL0     C87552  -0.260   9.445   6.241  0.0352  0.4164 -0.9951
  635MOL0     C87553  -0.405   9.474   6.266 -0.0500 -0.0085  0.1445
  635MOL0     C87554  -0.502   9.366   6.202  0.0693  0.9597 -0.0814
  635MOL0     C87555  -0.642   9.369   6.267 -0.6842  0.4407  0.7686
  635MOL0     C87556  -0.704   9.236   6.264  0.1855 -0.6073  0.8031
  635MOL0     C87557  -0.761   9.134   6.251  0.1667  0.2209 -0.2413
  635MOL0     C87558  -0.181   9.256   5.953 -0.6304  0.0839 -0.2307
  635MOL0     C87559  -0.093   9.169   5.885  0.5090 -0.2637 -0.5247
  635MOL0     C87560  -0.156   9.070   5.794 -0.0601  0.2826  0.4242
  635MOL0     H87561   0.164   8.959   5.582  2.2913  1.2397  0.3891
  635MOL0     H87562   0.310   8.776   5.478  2.1422  0.5741 -0.3366
  635MOL0     H87563   0.615   8.648   5.596  1.4579  1.9164 -3.1500
  635MOL0     H87564   0.512   8.662   5.448  0.6519  1.0832  0.5127
  635MOL0     H87565   0.622   8.381   5.565  0.0417 -0.5187 -0.0009
  635MOL0     H87566   0.533   8.424   5.421  0.8396  0.6639  0.1943
  635MOL0     H87567   0.725   8.546   5.341  0.8413 -0.7733 -0.1233
  635MOL0     H87568   0.792   8.542   5.509 -1.4363  2.2087  0.4588
  635MOL0     H87569   0.830   8.271   5.464  0.5923 -0.1485  0.4556
  635MOL0     H87570   0.749   8.294   5.321 -1.0630 -1.5296  2.2446
  635MOL0     H87571   0.985   8.466   5.378  0.9771 -0.9262  0.4505
  635MOL0     H87572   0.936   8.401   5.214  2.4692  0.4276 -0.2871
  635MOL0     H87573   1.134   8.292   5.265 -1.8287  1.8075 -3.2096
  635MOL0     H87574   1.067   8.225   5.428 -1.5303 -0.9952 -0.2057
  635MOL0     H87575   0.940   8.177   5.156  0.4126  1.1415 -0.1734
  635MOL0     H87576   0.911   8.106   5.317 -0.8600  0.5899 -0.5035
  635MOL0     H87577   1.194   8.069   5.212  0.3946 -0.5411 -1.2422
  635MOL0     H87578   1.099   7.976   5.330 -2.1855  1.1966  0.7822
  635MOL0     H87579   1.040   8.049   4.928 -1.9898  1.5347  1.4700
  635MOL0     H87580   1.126   7.738   4.785 -1.3521 -1.8464 -2.1399
  635MOL0     H87581   1.008   7.862   4.737 -5.0483  2.0236  3.4504
  635MOL0     H87582   0.938   7.620   4.698 -0.3803  1.4673 -0.9086
  635MOL0     H87583   0.914   7.609   4.867  1.7276 -1.6440 -2.6884
  635MOL0     H87584   0.766   7.822   4.711  0.4087 -0.0488 -0.1175
  635MOL0     H87585   0.705   7.663   4.738  0.0029  2.3970 -2.8303
  635MOL0     H87586   0.727   7.701   4.998  0.1055  0.3801  0.8271
  635MOL0     H87587   0.774   7.867   4.960 -1.4172  0.6118  0.9020
  635MOL0     H87588   0.694   7.909   5.134 -1.2398 -0.1168  2.1218
  635MOL0     H87589   0.704   7.959   5.358  0.0115 -2.1031 -0.2000
  635MOL0     H87590   0.555   7.907   5.417  0.6325 -1.9202 -2.4024
  635MOL0     H87591   0.594   8.087   5.399  0.2131  1.0516 -2.4822
  635MOL0     H87592   0.284   8.442   5.426 -1.5146  3.1871  2.3763
  635MOL0     H87593   0.105   8.549   5.563  0.6286 -1.0263  0.5346
  635MOL0     H87594  -0.006   8.567   5.738  0.2905  0.6676  0.5691
  635MOL0     H87595  -0.079   8.664   5.607 -1.4328  1.3406  0.8822
  635MOL0     H87596  -0.277   8.540   5.796  1.1321  1.2819  3.9131
  635MOL0     H87597  -0.187   8.691   5.824  0.2715 -0.8575  0.3154
  635MOL0     H87598  -0.367   8.647   5.605 -1.4797 -0.0130  1.8482
  635MOL0     H87599  -0.243   8.774   5.593 -0.7159 -0.5652 -0.1517
  635MOL0     H87600  -0.368   8.874   5.812  0.4415  0.9090 -1.3282
  635MOL0     H87601  -0.477   8.722   5.778  0.1955  0.4606  1.5237
  635MOL0     H87602  -0.442   8.936   5.573  2.1112 -0.8145  1.2805
  635MOL0     H87603  -0.541   8.796   5.569  2.0354 -1.9817  0.8054
  635MOL0     H87604  -0.560   9.056   5.733 -0.0124  1.5851 -1.6576
  635MOL0     H87605  -0.643   8.925   5.806 -2.0404  0.0092 -0.7997
  635MOL0     H87606  -0.783   8.916   5.585 -1.5993 -0.3827  2.2427
  635MOL0     H87607  -0.695   9.071   5.550 -1.7911 -1.3184 -2.6136
  635MOL0     H87608  -0.894   9.131   5.632  0.7026 -0.6515 -1.1007
  635MOL0     H87609  -0.786   9.152   5.777  2.4278  0.5442 -1.3771
  635MOL0     H87610  -0.164   8.240   5.491 -1.6606 -0.2905 -1.6397
  635MOL0     H87611   0.001   8.131   5.321 -0.9752  0.4707 -1.0478
  635MOL0     H87612   0.228   8.061   5.077 -0.1039 -0.5600 -0.6218
  635MOL0     H87613   0.338   7.945   4.893  0.8473  1.4836 -1.4325
  635MOL0     H87614   0.376   8.583   5.858  1.0225  0.4661  0.2848
  635MOL0     H87615   0.246   8.767   5.962  0.8121  1.9813  0.7411
  635MOL0     H87616   0.178   9.265   6.069 -1.3052  0.5882  1.6764
  635MOL0     H87617   0.019   9.406   6.173  0.7277  0.4652 -1.0159
  635MOL0     H87618  -0.230   9.355   6.295  2.5097  0.8295 -1.5878
  635MOL0     H87619  -0.208   9.526   6.293  0.2858  0.5802 -1.4979
  635MOL0     H87620  -0.427   9.571   6.220 -0.0465 -0.8887 -1.7983
  635MOL0     H87621  -0.426   9.482   6.373  0.5422  1.4623  0.1718
  635MOL0     H87622  -0.496   9.361   6.093 -0.9337 -3.0737 -0.1344
  635MOL0     H87623  -0.464   9.264   6.219  2.8749  2.1130  1.1617
  635MOL0     H87624  -0.702   9.450   6.225 -3.4016 -0.5587  2.4410
  635MOL0     H87625  -0.630   9.398   6.372  1.7612 -0.1718  0.7266
  635MOL0     H87626  -0.819   9.044   6.259 -0.2805  0.6372  1.5224
  635MOL0     H87627  -0.283   9.248   5.918 -0.4074 -3.7826 -0.4743
  635MOL0     H87628  -0.201   8.984   5.844 -3.5517  0.9323 -1.2420
  635MOL0     H87629  -0.239   9.119   5.742 -1.3579  1.4051  3.3074
  635MOL0     H87630  -0.082   9.045   5.718  0.1363  2.9282 -0.3680
  636MOL0     O87631   2.611   0.291   7.146 -0.0186  0.1904  0.5391
  636MOL0     C87632   2.557   0.354   7.055  0.4096 -0.3755  0.1860
  636MOL0     O87633   2.576   0.490   7.044 -0.3796  0.4832  0.2722
  636MOL0     C87634   2.657   0.558   7.133 -0.6708  0.0953 -1.1587
  636MOL0     C87635   2.600   0.612   7.258 -0.7022 -0.6061  0.2784
  636MOL0     C87636   2.691   0.677   7.346 -0.1408 -0.6271 -0.5034
  636MOL0     C87637   2.830   0.694   7.316  0.2392 -0.0784 -0.6958
  636MOL0     O87638   2.934   0.754   7.378 -0.7500  0.0663 -0.2892
  636MOL0     C87639   2.899   0.826   7.497 -0.1376 -0.5685  0.7975
  636MOL0     C87640   3.007   0.912   7.553 -0.2788  0.2078  0.3121
  636MOL0     C87641   3.029   1.030   7.464  0.7638  0.0222 -0.0998
  636MOL0     C87642   3.113   1.138   7.530  0.0559  0.2335 -0.1660
  636MOL0     C87643   3.072   1.270   7.459  0.5121 -0.4935  0.8833
  636MOL0     C87644   3.166   1.277   7.339 -0.2712  0.4580  0.0885
  636MOL0     C87645   3.175   1.422   7.283  0.3057 -0.2898  0.0183
  636MOL0     C87646   3.311   1.489   7.301 -0.5765 -0.3123 -0.9507
  636MOL0     N87647   3.426   1.442   7.229  0.1725  0.5005  0.3237
  636MOL0     C87648   3.420   1.408   7.095  0.5069  0.5300  0.3759
  636MOL0     C87649   3.545   1.367   7.062 -1.2064 -0.3362  1.2823
  636MOL0     C87650   3.584   1.319   6.921  0.3945  0.5965 -0.5993
  636MOL0     C87651   3.663   1.424   6.849 -0.0989 -0.4606 -0.0976
  636MOL0     C87652   3.806   1.422   6.886 -1.2009  0.5935  0.1496
  636MOL0     C87653   3.883   1.540   6.835  0.2557 -0.2034  0.5740
  636MOL0     O87654   3.857   1.552   6.689  0.4847  0.4265 -0.2362
  636MOL0     C87655   3.942   1.622   6.619 -0.2902 -0.1567 -1.3670
  636MOL0     C87656   3.992   1.739   6.667  0.1985 -0.6637  0.9845
  636MOL0     C87657   4.087   1.817   6.586 -0.0121  0.1764 -0.6865
  636MOL0     C87658   4.126   1.944   6.651 -0.1164  0.5653  0.5457
  636MOL0     C87659   4.120   1.773   6.456 -0.8297  0.5403 -0.2620
  636MOL0     C87660   4.223   1.850   6.381 -0.6857 -0.4511 -0.9449
  636MOL0     O87661   4.324   1.911   6.443 -0.5957  0.4531 -0.4458
  636MOL0     C87662   4.442   1.919   6.375  0.4522 -0.1997 -0.0192
  636MOL0     C87663   4.521   1.814   6.320  0.6671  0.0159 -1.3642
  636MOL0     C87664   4.632   1.833   6.242  0.3789  0.2699  0.2103
  636MOL0     C87665   4.692   1.963   6.237 -0.4711  0.1475 -0.0954
  636MOL0     O87666   4.808   1.969   6.159 -0.0934  0.9004 -0.3064
  636MOL0     C87667   4.899   2.071   6.188 -0.7612 -0.4827 -0.1101
  636MOL0     C87668   5.036   2.048   6.119  0.0762  0.3572  0.0606
  636MOL0     C87669   5.143   2.125   6.178 -0.2862  0.5786 -0.7848
  636MOL0     C87670   5.277   2.107   6.096 -0.4322 -0.6579  0.4244
  636MOL0     C87671   5.406   2.155   6.169 -0.5076  0.4606  0.3205
  636MOL0     C87672   5.431   2.311   6.147  0.3994 -0.3941  0.4459
  636MOL0     C87673   5.435   2.357   5.997  0.1569 -0.1123  0.4181
  636MOL0     C87674   5.455   2.505   5.985  0.4116 -0.1159  0.1995
  636MOL0    Cl87675   5.348   2.606   6.092 -0.1420 -0.2783  0.0312
  636MOL0     C87676   4.616   2.070   6.293  0.5208 -0.1043  0.1300
  636MOL0     C87677   4.495   2.048   6.361  0.6782 -0.1898  0.2573
  636MOL0     O87678   4.223   1.832   6.261 -0.0883 -0.4957 -0.2075
  636MOL0     C87679   4.056   1.653   6.408 -0.0088 -0.5552  0.1666
  636MOL0     C87680   3.973   1.579   6.492  0.7201 -1.0603  1.3227
  636MOL0     N87681   3.630   1.394   7.169  0.4372 -0.3051 -0.1146
  636MOL0     N87682   3.563   1.440   7.262 -0.0993 -0.4760 -0.1382
  636MOL0     C87683   2.877   0.633   7.202  1.0995 -0.2453 -0.0004
  636MOL0     C87684   2.797   0.568   7.108  1.0153  0.1199 -0.1370
  636MOL0     C87685   2.455   0.292   6.970  0.5663 -0.0389 -0.0584
  636MOL0     C87686   2.363   0.379   6.907 -0.6452 -0.1853 -0.9987
  636MOL0     C87687   2.261   0.324   6.832 -0.1864  0.0477 -0.1361
  636MOL0     C87688   2.251   0.186   6.808  0.3355  0.2744  0.0026
  636MOL0     O87689   2.153   0.127   6.721 -0.5075  0.3061 -0.5393
  636MOL0     C87690   2.059   0.197   6.645 -0.4576 -0.3953 -0.2982
  636MOL0     C87691   2.122   0.272   6.536 -0.3856 -0.0644  0.1705
  636MOL0     C87692   2.030   0.331   6.426 -0.1807 -0.1502  0.8873
  636MOL0     C87693   1.901   0.248   6.399 -0.3412 -0.0997 -0.3346
  636MOL0     C87694   1.820   0.320   6.299 -0.4010 -0.1687  0.3880
  636MOL0     C87695   1.758   0.388   6.221 -0.7241 -0.2466  0.9184
  636MOL0     C87696   2.345   0.104   6.871  0.0913  0.2869 -0.0137
  636MOL0     C87697   2.446   0.154   6.954 -0.4413 -0.5415  0.1863
  636MOL0     C87698   2.546   0.058   7.006 -1.1648  0.1047  0.1319
  636MOL0     H87699   2.496   0.607   7.287 -0.7099  3.4177  1.5284
  636MOL0     H87700   2.651   0.716   7.440  1.2502  0.8231 -0.4768
  636MOL0     H87701   2.879   0.744   7.568  2.2950 -1.1236  0.9189
  636MOL0     H87702   2.816   0.895   7.482 -0.3372 -0.7919  0.8552
  636MOL0     H87703   2.978   0.943   7.653  1.7348 -1.1186  1.3682
  636MOL0     H87704   3.093   0.846   7.567 -0.2794  0.3991  1.2731
  636MOL0     H87705   3.058   0.996   7.364 -1.9340  1.3525 -1.4273
  636MOL0     H87706   2.931   1.079   7.465  1.5336  1.6653  0.9439
  636MOL0     H87707   3.090   1.152   7.636 -2.2732  3.5742 -0.9690
  636MOL0     H87708   3.221   1.129   7.511  0.1448  3.0660 -1.4626
  636MOL0     H87709   3.099   1.355   7.524 -0.5433 -0.8739  1.8500
  636MOL0     H87710   2.970   1.282   7.421  1.5844  0.2587 -1.9719
  636MOL0     H87711   3.268   1.245   7.365 -0.5962 -2.6530 -1.9021
  636MOL0     H87712   3.136   1.208   7.260  1.2615 -2.2351  1.6774
  636MOL0     H87713   3.104   1.491   7.329 -1.0574 -1.7050  0.1208
  636MOL0     H87714   3.149   1.425   7.177  1.5168  1.4601 -0.2651
  636MOL0     H87715   3.318   1.597   7.281  1.7489  0.6730  3.6873
  636MOL0     H87716   3.350   1.482   7.403 -0.3441  1.3416 -0.9001
  636MOL0     H87717   3.333   1.403   7.031  1.7816 -1.1153 -1.3483
  636MOL0     H87718   3.499   1.308   6.853  0.6661 -0.4920 -0.7753
  636MOL0     H87719   3.635   1.222   6.925 -2.4747 -1.1777 -2.7879
  636MOL0     H87720   3.651   1.413   6.741  1.2527  2.2493 -0.5889
  636MOL0     H87721   3.601   1.513   6.864 -3.1037 -2.2257 -0.9446
  636MOL0     H87722   3.817   1.419   6.995 -0.5124  4.5785  0.3564
  636MOL0     H87723   3.853   1.329   6.852  0.0350  1.2749 -0.0579
  636MOL0     H87724   3.855   1.627   6.895  0.5743 -1.3367  2.4453
  636MOL0     H87725   3.992   1.535   6.841  0.6226  2.4373 -1.6924
  636MOL0     H87726   3.962   1.774   6.766 -3.6358 -1.6964  0.3368
  636MOL0     H87727   4.231   1.948   6.679 -0.2763  0.3289  1.2102
  636MOL0     H87728   4.059   1.950   6.737 -2.4237  0.7187 -1.1676
  636MOL0     H87729   4.100   2.034   6.595 -0.3517  1.5721  2.2017
  636MOL0     H87730   4.486   1.713   6.336 -0.8772  0.8213  0.6879
  636MOL0     H87731   4.673   1.746   6.192  2.3211  2.0922 -1.5113
  636MOL0     H87732   4.855   2.163   6.149  0.0396  0.4651  1.1537
  636MOL0     H87733   4.915   2.091   6.294  0.6918 -0.5745 -0.2908
  636MOL0     H87734   5.049   1.940   6.117  0.4050  0.4077 -0.8557
  636MOL0     H87735   5.036   2.082   6.015 -0.4010 -0.8872 -0.3596
  636MOL0     H87736   5.161   2.069   6.270 -0.0107  0.2612 -1.0309
  636MOL0     H87737   5.092   2.220   6.198 -3.2929 -1.2691  1.1858
  636MOL0     H87738   5.264   2.158   6.000 -2.2149 -0.9201  0.4838
  636MOL0     H87739   5.294   2.002   6.074 -2.0602 -0.6607 -1.0588
  636MOL0     H87740   5.405   2.131   6.276  1.7430 -1.5067 -0.0198
  636MOL0     H87741   5.496   2.103   6.133  0.3718  1.5174  0.9067
  636MOL0     H87742   5.530   2.339   6.185  1.4482  0.0389 -2.3701
  636MOL0     H87743   5.352   2.360   6.205  0.1837  0.2286 -0.3580
  636MOL0     H87744   5.343   2.323   5.950 -0.8008 -1.3882  2.9946
  636MOL0     H87745   5.517   2.308   5.943 -0.9392 -0.6889 -0.7820
  636MOL0     H87746   5.449   2.528   5.878  1.2745  0.4530  0.2593
  636MOL0     H87747   5.557   2.537   6.010  0.9561 -0.8817 -0.9203
  636MOL0     H87748   4.663   2.168   6.285  1.1805 -0.5318 -1.8354
  636MOL0     H87749   4.438   2.131   6.403  0.4571 -1.0401  1.7390
  636MOL0     H87750   4.075   1.617   6.308  0.9039 -0.8837  0.4503
  636MOL0     H87751   3.919   1.493   6.454 -1.4046 -0.1323  2.1103
  636MOL0     H87752   2.980   0.639   7.167  0.5920  0.4923 -1.4536
  636MOL0     H87753   2.830   0.527   7.013 -0.0597 -0.1185 -0.4276
  636MOL0     H87754   2.373   0.486   6.924 -0.9384 -0.3892  0.6074
  636MOL0     H87755   2.190   0.392   6.786 -2.3404 -1.5151  0.7214
  636MOL0     H87756   1.992   0.116   6.615 -0.8578 -0.8481  1.6448
  636MOL0     H87757   2.003   0.263   6.712  0.8951 -0.1393  0.6190
  636MOL0     H87758   2.186   0.201   6.483 -1.6314 -1.1503  0.0756
  636MOL0     H87759   2.172   0.356   6.585 -1.1301  1.3366 -1.3449
  636MOL0     H87760   1.998   0.430   6.461 -0.5127  0.6761 -1.5576
  636MOL0     H87761   2.091   0.338   6.336 -1.5603 -0.5028 -0.0940
  636MOL0     H87762   1.847   0.239   6.494 -0.9231  2.4298 -0.3574
  636MOL0     H87763   1.934   0.149   6.365  2.0847  0.5694 -0.1359
  636MOL0     H87764   1.702   0.449   6.153  3.4983  2.2321 -0.6566
  636MOL0     H87765   2.334  -0.003   6.854  1.4290  0.2421 -0.7743
  636MOL0     H87766   2.568   0.062   7.113  0.7551 -0.1133 -0.2229
  636MOL0     H87767   2.501  -0.041   6.992 -3.1883  0.9462  0.2085
  636MOL0     H87768   2.641   0.073   6.954 -1.5754 -0.5037 -0.8218
  637MOL0     O87769   7.251   7.857   5.529 -0.0265 -0.1675  0.0488
  637MOL0     C87770   7.247   7.975   5.549  0.4154 -0.5757 -0.2322
  637MOL0     O87771   7.351   8.061   5.570 -0.0556  0.7983 -0.0088
  637MOL0     C87772   7.479   8.016   5.559  0.0439  0.2764 -0.0729
  637MOL0     C87773   7.564   8.094   5.488 -0.6294  0.1347  0.2680
  637MOL0     C87774   7.700   8.048   5.485  0.4665  0.0154  0.2759
  637MOL0     C87775   7.739   7.935   5.556 -0.3128 -0.2842 -0.1046
  637MOL0     O87776   7.880   7.909   5.568  0.4580  0.1457  0.4911
  637MOL0     C87777   7.927   7.781   5.618 -0.6119  0.0271  0.0451
  637MOL0     C87778   8.067   7.756   5.557 -0.5516 -0.6022  0.5698
  637MOL0     C87779   8.179   7.816   5.650  1.1725 -0.0402 -0.4030
  637MOL0     C87780   8.317   7.841   5.579 -0.4073 -0.6373  0.0372
  637MOL0     C87781   8.383   7.706   5.521 -0.2468  0.1271  0.4431
  637MOL0     C87782   8.528   7.726   5.463  0.5853 -0.4143 -0.6390
  637MOL0     C87783   8.572   7.614   5.372  0.2813 -0.6438  0.0207
  637MOL0     C87784   8.579   7.477   5.439  0.2583 -0.6651 -0.7976
  637MOL0     N87785   8.646   7.381   5.359 -0.1427  0.0150  0.3225
  637MOL0     C87786   8.585   7.281   5.280  0.0880 -0.0213 -0.1619
  637MOL0     C87787   8.681   7.202   5.243  1.1434 -0.0453 -0.0641
  637MOL0     C87788   8.666   7.095   5.133  0.0436 -0.3120  0.3377
  637MOL0     C87789   8.725   7.141   4.997  0.2150 -0.2328  0.4200
  637MOL0     C87790   8.639   7.266   4.949  0.4905  0.4272 -1.0473
  637MOL0     C87791   8.665   7.318   4.806 -0.6812 -0.0465  0.6603
  637MOL0     O87792   8.763   7.233   4.744 -0.1432 -0.2447 -0.2829
  637MOL0     C87793   8.831   7.274   4.639 -0.5186  0.1065 -0.0229
  637MOL0     C87794   8.792   7.377   4.557 -0.9053 -1.2584 -0.0171
  637MOL0     C87795   8.873   7.411   4.444  0.0918  0.6780 -0.1304
  637MOL0     C87796   8.814   7.530   4.362 -0.3035 -0.5255 -0.0875
  637MOL0     C87797   8.986   7.334   4.402  0.1651 -0.0383  1.3477
  637MOL0     C87798   9.072   7.355   4.280  0.6176  0.0869  0.9216
  637MOL0     O87799   9.145   7.256   4.234  0.5230  0.1330  0.0111
  637MOL0     C87800   9.206   7.261   4.110  0.1961 -0.1796  0.3407
  637MOL0     C87801   9.348   7.273   4.110 -0.3845 -0.4317  0.1897
  637MOL0     C87802   9.416   7.302   3.989 -0.6681  0.6121  0.8930
  637MOL0     C87803   9.347   7.273   3.868  0.2903  0.2226 -0.1356
  637MOL0     O87804   9.413   7.276   3.748 -0.5616  0.2452  0.3429
  637MOL0     C87805   9.552   7.246   3.749 -0.1684 -0.0322 -1.0525
  637MOL0     C87806   9.593   7.158   3.639  0.4704 -0.6763  0.5859
  637MOL0     C87807   9.578   7.222   3.496  0.8105 -0.0627 -0.1332
  637MOL0     C87808   9.456   7.158   3.430 -0.7075 -0.5228  0.0573
  637MOL0     C87809   9.431   7.211   3.289 -0.4036  0.2263  0.6591
  637MOL0     C87810   9.545   7.144   3.197  0.1608  0.4367  0.0572
  637MOL0     C87811   9.503   7.170   3.050 -0.3427  0.1548 -0.0875
  637MOL0     C87812   9.595   7.074   2.961 -0.2834 -0.1000 -0.0648
  637MOL0    Cl87813   9.598   7.105   2.780 -0.1194 -0.0028 -0.0723
  637MOL0     C87814   9.205   7.242   3.871 -0.4265  0.8562  0.5751
  637MOL0     C87815   9.136   7.252   3.992  0.4378  0.1594 -0.4565
  637MOL0     O87816   9.067   7.465   4.226  0.1284  0.1587  0.5813
  637MOL0     C87817   9.021   7.226   4.491 -0.1370 -0.1931 -0.2750
  637MOL0     C87818   8.945   7.202   4.606  0.9049  0.4380  0.4141
  637MOL0     N87819   8.797   7.242   5.312 -0.1221 -0.7172 -0.0327
  637MOL0     N87820   8.777   7.348   5.383  0.5855 -0.2783 -0.7171
  637MOL0     C87821   7.646   7.855   5.621 -0.8928 -0.0616 -0.4121
  637MOL0     C87822   7.517   7.898   5.622 -0.9370  0.6913 -0.6217
  637MOL0     C87823   7.109   8.029   5.591 -0.8998  0.3814 -0.0858
  637MOL0     C87824   7.013   7.936   5.638  0.6645  0.1248 -1.1080
  637MOL0     C87825   6.880   7.972   5.670  0.6479 -0.2335 -0.5944
  637MOL0     C87826   6.835   8.109   5.643 -0.2034 -0.0592  0.9122
  637MOL0     O87827   6.708   8.159   5.653  0.1401 -0.4584 -0.2175
  637MOL0     C87828   6.602   8.075   5.711  0.0964  0.1158  0.2007
  637MOL0     C87829   6.553   7.970   5.612  0.3379 -0.6527  0.2784
  637MOL0     C87830   6.428   7.893   5.664  0.0339 -0.1990 -0.5107
  637MOL0     C87831   6.412   7.761   5.587 -0.6101 -0.2780  0.5397
  637MOL0     C87832   6.382   7.783   5.441 -0.2170 -0.2461 -0.0491
  637MOL0     C87833   6.357   7.796   5.325  0.3727 -0.3921  0.7542
  637MOL0     C87834   6.934   8.203   5.601 -0.6279  0.1197  0.0894
  637MOL0     C87835   7.066   8.162   5.565  0.3020  0.4841  0.2710
  637MOL0     C87836   7.156   8.280   5.533  0.0820  0.6717 -0.3507
  637MOL0     H87837   7.540   8.193   5.450 -0.3945 -0.3859 -1.3147
  637MOL0     H87838   7.780   8.104   5.438  0.6472  0.0330  0.5990
  637MOL0     H87839   7.862   7.699   5.588 -1.7297  1.3179 -1.2073
  637MOL0     H87840   7.956   7.785   5.723  0.4461  1.6781 -0.2664
  637MOL0     H87841   8.077   7.648   5.542 -3.5266 -0.9296  0.3540
  637MOL0     H87842   8.076   7.804   5.459 -0.5693 -0.9215  0.4097
  637MOL0     H87843   8.143   7.911   5.690  1.0844 -0.5769  0.8283
  637MOL0     H87844   8.187   7.748   5.735 -1.1199 -1.4934 -1.2397
  637MOL0     H87845   8.309   7.919   5.503  0.8603 -1.9112 -1.4815
  637MOL0     H87846   8.386   7.876   5.657  0.9381 -2.3544 -0.3032
  637MOL0     H87847   8.330   7.678   5.429  2.0625  2.0764 -1.6466
  637MOL0     H87848   8.385   7.632   5.601  0.9712  0.7428  1.0042
  637MOL0     H87849   8.525   7.815   5.399  1.3988  2.3058  2.7805
  637MOL0     H87850   8.603   7.756   5.536  1.0201  0.9148 -1.5767
  637MOL0     H87851   8.676   7.634   5.344  1.1352 -3.7222  0.6356
  637MOL0     H87852   8.504   7.609   5.287  3.1104 -0.5371 -2.4422
  637MOL0     H87853   8.632   7.490   5.534 -1.0481  0.5380 -0.1944
  637MOL0     H87854   8.475   7.450   5.461  0.0131  2.0387  2.3306
  637MOL0     H87855   8.483   7.281   5.243  0.2483 -3.8063 -1.0614
  637MOL0     H87856   8.560   7.071   5.118  0.4471 -1.4027 -0.9867
  637MOL0     H87857   8.715   7.002   5.162  0.6166 -0.0762  0.1525
  637MOL0     H87858   8.832   7.155   5.016 -0.0351  1.7788  0.5794
  637MOL0     H87859   8.708   7.064   4.922 -1.6681 -1.9168  2.4518
  637MOL0     H87860   8.535   7.233   4.957  0.2372  1.3919 -0.2723
  637MOL0     H87861   8.638   7.344   5.026  1.3937 -1.0836  0.5820
  637MOL0     H87862   8.579   7.314   4.739  1.4732 -1.3387 -2.2336
  637MOL0     H87863   8.691   7.424   4.807 -0.4738 -0.0504 -1.0489
  637MOL0     H87864   8.700   7.431   4.573  0.1054  0.3763  0.4727
  637MOL0     H87865   8.758   7.501   4.273  1.7583  1.2519 -2.0852
  637MOL0     H87866   8.885   7.603   4.324 -1.2091 -0.1939 -1.1797
  637MOL0     H87867   8.765   7.598   4.433  2.4589  1.9191 -0.3290
  637MOL0     H87868   9.407   7.259   4.200 -0.1212  0.8180  0.2241
  637MOL0     H87869   9.522   7.322   3.987  0.1377 -2.8361 -2.4530
  637MOL0     H87870   9.619   7.332   3.751  1.0955 -0.9972 -1.0235
  637MOL0     H87871   9.585   7.192   3.838 -0.4661  1.6156  0.1064
  637MOL0     H87872   9.697   7.128   3.652  0.5929 -0.0646  1.0412
  637MOL0     H87873   9.536   7.065   3.652 -1.1843  0.3909  1.3482
  637MOL0     H87874   9.662   7.210   3.427 -0.7964  0.8088 -2.3473
  637MOL0     H87875   9.565   7.330   3.499 -1.4222 -0.1874 -2.3963
  637MOL0     H87876   9.363   7.169   3.487 -0.3829 -1.5352  0.8144
  637MOL0     H87877   9.475   7.050   3.431 -3.8944 -1.2730 -2.7064
  637MOL0     H87878   9.330   7.189   3.253  0.2731 -0.8990 -0.6198
  637MOL0     H87879   9.447   7.319   3.284  0.3717  0.2330  2.5763
  637MOL0     H87880   9.551   7.036   3.214  0.0215  0.3260 -0.5890
  637MOL0     H87881   9.638   7.196   3.220  0.0047  0.0818  1.6415
  637MOL0     H87882   9.504   7.275   3.019 -1.4278  0.0802 -0.4269
  637MOL0     H87883   9.400   7.138   3.034 -0.8732  1.6829  0.0668
  637MOL0     H87884   9.566   6.969   2.971  2.3231 -0.9804 -0.8483
  637MOL0     H87885   9.699   7.077   2.995 -0.0248 -1.0003 -0.7319
  637MOL0     H87886   9.146   7.220   3.782 -0.3297  2.6727  0.0125
  637MOL0     H87887   9.028   7.244   3.996  0.5359 -0.7460  0.8903
  637MOL0     H87888   9.111   7.167   4.478 -2.1681 -3.2559 -1.4196
  637MOL0     H87889   8.977   7.127   4.677  0.4539  0.5741  0.7632
  637MOL0     H87890   7.666   7.757   5.664 -1.7262 -0.5835 -1.1848
  637MOL0     H87891   7.451   7.836   5.681  0.6245 -3.2608 -2.6552
  637MOL0     H87892   7.037   7.836   5.671  2.3500  1.6262  2.8588
  637MOL0     H87893   6.813   7.894   5.703 -0.2820 -0.8310 -3.6391
  637MOL0     H87894   6.652   8.037   5.800 -0.8808  1.6427  1.4598
  637MOL0     H87895   6.515   8.141   5.720  0.5323  0.8301 -0.6547
  637MOL0     H87896   6.634   7.898   5.596  0.7436 -0.6671  2.1875
  637MOL0     H87897   6.524   8.011   5.514 -3.0373 -0.6436  1.1479
  637MOL0     H87898   6.437   7.886   5.773  2.3026  3.1646 -0.3357
  637MOL0     H87899   6.342   7.955   5.637  1.9450  2.9589  0.1615
  637MOL0     H87900   6.325   7.706   5.624 -1.5795  1.0788  0.3769
  637MOL0     H87901   6.495   7.694   5.611 -1.2631 -1.5290 -0.5860
  637MOL0     H87902   6.334   7.811   5.221 -2.2935 -0.8588  1.1829
  637MOL0     H87903   6.909   8.306   5.578 -2.0255 -0.4600 -1.1150
  637MOL0     H87904   7.110   8.375   5.502  1.4652  1.4760 -0.0527
  637MOL0     H87905   7.209   8.292   5.628  0.7476  1.2612 -0.7802
  637MOL0     H87906   7.232   8.255   5.458  0.2601 -1.4917  0.5060
  638MOL0     O87907  10.989   8.269   1.138  0.5995 -0.3333 -0.1039
  638MOL0     C87908  10.880   8.323   1.105  0.3794  0.2318  0.2400
  638MOL0     O87909  10.872   8.402   0.997  0.7322 -0.4376 -0.2628
  638MOL0     C87910  10.989   8.444   0.933 -0.3093  0.2772  0.4559
  638MOL0     C87911  11.106   8.503   0.990  0.6221  0.4625  1.0026
  638MOL0     C87912  11.218   8.529   0.911  0.1199 -0.7067 -0.2832
  638MOL0     C87913  11.228   8.505   0.775  0.1500 -0.4427 -0.1760
  638MOL0     O87914  11.347   8.537   0.711  0.6648  0.3017 -0.1291
  638MOL0     C87915  11.342   8.560   0.571  0.1211 -0.0689  0.4282
  638MOL0     C87916  11.476   8.635   0.543  0.1261 -0.1577 -0.3190
  638MOL0     C87917  11.547   8.614   0.408 -1.0925  0.5139  0.4579
  638MOL0     C87918  11.604   8.467   0.404 -0.6929  0.0726  0.9733
  638MOL0     C87919  11.670   8.430   0.271  1.4268  0.2431  0.4642
  638MOL0     C87920  11.795   8.513   0.245  0.6388 -0.2906 -0.0231
  638MOL0     C87921  11.851   8.456   0.115  0.2398 -0.0390  0.6772
  638MOL0     C87922  11.955   8.330   0.146 -0.3213 -0.2098 -0.6246
  638MOL0     N87923  12.077   8.367   0.216 -0.4599 -0.0969  0.6102
  638MOL0     C87924  12.188   8.439   0.180  0.7836  0.1948  0.6821
  638MOL0     C87925  12.280   8.409   0.280  0.1897 -0.6256  0.3589
  638MOL0     C87926  12.413   8.478   0.304 -1.0938 -0.0866  0.2090
  638MOL0     C87927  12.524   8.459   0.199  0.2055 -0.2874  0.4422
  638MOL0     C87928  12.575   8.316   0.196 -0.0429  0.0781  0.3900
  638MOL0     C87929  12.701   8.312   0.116 -0.4913 -0.5490  0.0478
  638MOL0     O87930  12.777   8.193   0.156 -0.3299 -0.0414  0.0114
  638MOL0     C87931  12.892   8.165   0.084  0.4550  0.4337  0.2373
  638MOL0     C87932  12.938   8.227  -0.037 -0.8023 -0.8931 -0.5050
  638MOL0     C87933  13.066   8.211  -0.092  0.4729 -0.0559  0.2244
  638MOL0     C87934  13.098   8.285  -0.220  0.2480 -0.6546  0.0988
  638MOL0     C87935  13.154   8.122  -0.022 -0.1963 -0.7222 -0.0904
  638MOL0     C87936  13.297   8.089  -0.062 -0.1928 -0.2374 -0.4503
  638MOL0     O87937  13.371   7.996   0.005  0.1043  0.0613  0.2359
  638MOL0     C87938  13.486   7.959  -0.060  0.1886 -0.6991  0.4690
  638MOL0     C87939  13.611   7.965   0.008  0.5872 -0.8629 -0.5847
  638MOL0     C87940  13.719   7.906  -0.053 -0.2626  0.0687 -0.9017
  638MOL0     C87941  13.709   7.833  -0.173 -0.2735  0.9279 -0.7075
  638MOL0     O87942  13.827   7.783  -0.226  0.0709 -0.0560 -0.1408
  638MOL0     C87943  13.868   7.860  -0.338  0.3259  0.3232 -0.6142
  638MOL0     C87944  13.986   7.954  -0.295 -0.2884  0.0656  0.3796
  638MOL0     C87945  14.119   7.881  -0.304  0.2011 -0.5155 -0.3567
  638MOL0     C87946  14.228   7.993  -0.298 -0.8686  0.0787 -0.3668
  638MOL0     C87947  14.367   7.941  -0.270 -0.3150 -0.7536  0.4285
  638MOL0     C87948  14.419   7.987  -0.127  0.4370 -0.0467 -0.2813
  638MOL0     C87949  14.551   7.921  -0.088 -0.1457  0.9267 -0.0418
  638MOL0     C87950  14.599   7.955   0.056  0.0794 -0.1695  0.1434
  638MOL0    Cl87951  14.484   7.869   0.165 -0.2445 -0.0491  0.3394
  638MOL0     C87952  13.587   7.845  -0.245 -0.3495  0.0046 -0.1662
  638MOL0     C87953  13.475   7.903  -0.188  0.3432  0.0815  0.0610
  638MOL0     O87954  13.345   8.168  -0.140  0.2916  0.1233 -0.0155
  638MOL0     C87955  13.100   8.049   0.091 -0.3200  0.6537 -0.0808
  638MOL0     C87956  12.977   8.075   0.144  0.4816  0.3040  0.3164
  638MOL0     N87957  12.224   8.313   0.359 -0.6103 -0.5475 -1.2040
  638MOL0     N87958  12.108   8.287   0.314 -0.8536  0.2576 -0.1739
  638MOL0     C87959  11.106   8.470   0.715 -0.1447 -0.0262  0.1067
  638MOL0     C87960  10.995   8.430   0.791  0.2813 -1.0087 -0.2204
  638MOL0     C87961  10.759   8.292   1.196  0.4853 -0.1617  0.1091
  638MOL0     C87962  10.634   8.329   1.152 -0.5730 -0.2362  0.3180
  638MOL0     C87963  10.523   8.312   1.234  0.5516  0.3590  0.0864
  638MOL0     C87964  10.535   8.265   1.363 -0.4785 -0.8561 -0.1380
  638MOL0     O87965  10.437   8.259   1.457 -0.1352  0.1249 -0.7334
  638MOL0     C87966  10.311   8.232   1.398 -0.1472 -0.2406  0.5278
  638MOL0     C87967  10.215   8.208   1.513  0.1731 -0.6474  0.0685
  638MOL0     C87968  10.064   8.195   1.474 -0.2161 -0.5349 -0.9142
  638MOL0     C87969   9.991   8.139   1.596 -0.2616  0.8466 -0.6820
  638MOL0     C87970   9.975   8.235   1.707  0.0731  0.1157 -0.2401
  638MOL0     C87971   9.946   8.303   1.800  0.3095  0.1027 -0.2095
  638MOL0     C87972  10.664   8.230   1.412  0.3734  1.0200  0.1579
  638MOL0     C87973  10.773   8.248   1.334 -1.1285 -0.1469  0.2296
  638MOL0     C87974  10.907   8.213   1.404  0.3702  0.3857  0.1115
  638MOL0     H87975  11.117   8.509   1.098  1.3115 -1.3642  1.0696
  638MOL0     H87976  11.313   8.553   0.957  0.8201 -4.0827  0.3081
  638MOL0     H87977  11.256   8.621   0.542  1.9340  2.7805  0.6477
  638MOL0     H87978  11.332   8.461   0.524  1.4709  0.0002 -0.0573
  638MOL0     H87979  11.442   8.739   0.544 -1.8423 -0.6777 -2.7517
  638MOL0     H87980  11.550   8.624   0.623  0.6502 -0.0541 -0.7748
  638MOL0     H87981  11.476   8.613   0.324  0.0436 -0.8191 -0.5390
  638MOL0     H87982  11.618   8.695   0.390 -1.5275  1.1494  1.5494
  638MOL0     H87983  11.673   8.455   0.487 -0.2208 -0.5326  0.4984
  638MOL0     H87984  11.515   8.404   0.414  0.4838 -1.4586  2.2068
  638MOL0     H87985  11.591   8.441   0.197  0.1320  2.3921  2.0323
  638MOL0     H87986  11.705   8.327   0.278  0.2287 -0.4300 -2.3396
  638MOL0     H87987  11.775   8.617   0.218  3.1604 -0.1917 -1.7653
  638MOL0     H87988  11.867   8.497   0.326 -0.7036 -1.3720  1.0278
  638MOL0     H87989  11.905   8.535   0.062 -3.5348  1.4424 -1.3499
  638MOL0     H87990  11.771   8.420   0.049  0.7258  2.4603 -1.4402
  638MOL0     H87991  11.908   8.255   0.210 -1.0123  0.5910 -0.1846
  638MOL0     H87992  11.973   8.291   0.046 -0.3849  0.6172 -0.9634
  638MOL0     H87993  12.189   8.503   0.093 -0.7617  3.2039  2.6769
  638MOL0     H87994  12.445   8.437   0.400 -1.8171 -0.4985  0.2856
  638MOL0     H87995  12.397   8.585   0.319 -2.9675 -0.7366  4.4268
  638MOL0     H87996  12.487   8.493   0.102 -1.9986 -2.3292  0.4900
  638MOL0     H87997  12.606   8.522   0.235  0.6840 -1.2490  1.0736
  638MOL0     H87998  12.593   8.276   0.296  0.8495 -2.6754 -0.7849
  638MOL0     H87999  12.511   8.245   0.143 -1.7464 -0.3846  2.8878
  638MOL0     H88000  12.673   8.314   0.010 -0.8956 -3.0993  0.0486
  638MOL0     H88001  12.758   8.405   0.129 -0.4828 -0.4375 -0.7632
  638MOL0     H88002  12.871   8.296  -0.087 -0.2745 -1.4958 -2.0886
  638MOL0     H88003  13.010   8.330  -0.268 -0.7046  0.5661  2.7912
  638MOL0     H88004  13.136   8.216  -0.296  0.2849  0.3758 -0.8475
  638MOL0     H88005  13.172   8.365  -0.207 -0.6408 -0.0392  1.6878
  638MOL0     H88006  13.625   8.000   0.110 -0.5359 -1.3573 -0.2376
  638MOL0     H88007  13.806   7.910   0.011 -1.7513 -0.1752  1.2631
  638MOL0     H88008  13.916   7.790  -0.407 -1.0696 -1.6571  0.3343
  638MOL0     H88009  13.780   7.908  -0.383 -1.4012 -1.5088  0.6382
  638MOL0     H88010  13.972   8.035  -0.367 -3.1145 -1.1526 -0.5916
  638MOL0     H88011  13.975   7.979  -0.189 -1.6874 -3.9862  1.3893
  638MOL0     H88012  14.127   7.835  -0.403 -1.4789  1.5671 -1.5524
  638MOL0     H88013  14.120   7.801  -0.229  1.6001 -0.1562  0.0428
  638MOL0     H88014  14.202   8.064  -0.219 -0.3694  0.2875 -0.3792
  638MOL0     H88015  14.228   8.049  -0.392 -4.1901 -4.9053 -3.7799
  638MOL0     H88016  14.368   7.832  -0.272 -1.3415 -0.7624 -0.7196
  638MOL0     H88017  14.424   7.983  -0.353  0.8095  0.2476  1.6513
  638MOL0     H88018  14.335   7.953  -0.066 -0.4693  0.6701 -1.0900
  638MOL0     H88019  14.425   8.096  -0.127  1.6060 -0.0831  0.3858
  638MOL0     H88020  14.629   7.949  -0.159 -0.0856  0.9551  0.0343
  638MOL0     H88021  14.549   7.812  -0.089  2.5810  0.8049 -0.6221
  638MOL0     H88022  14.594   8.063   0.070  1.1858 -0.1592  0.4754
  638MOL0     H88023  14.702   7.920   0.066  0.1237  0.4469  2.3139
  638MOL0     H88024  13.584   7.803  -0.345  1.0958  0.8387 -0.5963
  638MOL0     H88025  13.378   7.902  -0.236  0.4147  0.5491 -0.0963
  638MOL0     H88026  13.168   7.975   0.133 -0.7572 -0.7362 -1.6962
  638MOL0     H88027  12.952   8.019   0.233  2.3278 -1.2394 -0.0724
  638MOL0     H88028  11.094   8.448   0.609 -4.1121  2.3477 -0.1427
  638MOL0     H88029  10.903   8.405   0.737  1.1544 -0.1274 -2.1970
  638MOL0     H88030  10.613   8.367   1.053 -2.4344  1.6812  1.3528
  638MOL0     H88031  10.433   8.366   1.207  0.3400  0.2055  0.4805
  638MOL0     H88032  10.271   8.315   1.339 -0.4119 -0.2343  0.7161
  638MOL0     H88033  10.333   8.148   1.332  0.8415  0.7116 -0.3952
  638MOL0     H88034  10.228   8.294   1.579 -0.1257  1.7720 -2.8566
  638MOL0     H88035  10.250   8.117   1.562  3.0807  1.7987  2.9624
  638MOL0     H88036  10.029   8.293   1.441  2.4414 -0.2796 -3.4168
  638MOL0     H88037  10.037   8.128   1.391 -2.4259  0.1220 -0.7913
  638MOL0     H88038  10.044   8.054   1.640 -0.6500  1.1191  0.3391
  638MOL0     H88039   9.888   8.120   1.567  1.2984 -2.4525 -5.2931
  638MOL0     H88040   9.932   8.381   1.872  1.2809 -1.7631  2.1491
  638MOL0     H88041  10.672   8.194   1.514  1.4337  0.7253 -0.0146
  638MOL0     H88042  10.992   8.279   1.384  0.3332 -0.1420 -2.0418
  638MOL0     H88043  10.890   8.208   1.512  3.0714 -0.4762  0.5786
  638MOL0     H88044  10.939   8.111   1.380  1.6996  0.4522  1.4177
  639MOL0     O88045   1.421   3.495   2.293  0.1708  0.0946 -0.3386
  639MOL0     C88046   1.314   3.457   2.252  0.2446  0.1111 -0.4608
  639MOL0     O88047   1.266   3.475   2.126  0.0200 -0.1493 -0.2261
  639MOL0     C88048   1.333   3.572   2.045 -0.5358 -0.8211 -0.3786
  639MOL0     C88049   1.265   3.693   2.025 -0.2165  0.2419  0.4754
  639MOL0     C88050   1.322   3.788   1.944 -0.0352  0.1763 -0.4787
  639MOL0     C88051   1.450   3.775   1.884 -0.2984 -0.2742  0.1414
  639MOL0     O88052   1.507   3.876   1.809  0.1589 -0.2754 -0.3357
  639MOL0     C88053   1.569   3.985   1.886  0.9729  0.6606 -0.1721
  639MOL0     C88054   1.599   4.104   1.806  0.3404 -0.2183  0.4211
  639MOL0     C88055   1.683   4.202   1.876  0.1037 -0.2437 -0.5619
  639MOL0     C88056   1.828   4.146   1.897 -0.2007  1.0669  0.4240
  639MOL0     C88057   1.931   4.254   1.923  1.3057  0.3900  0.0097
  639MOL0     C88058   2.075   4.210   1.962  0.6994 -0.2207  0.4404
  639MOL0     C88059   2.137   4.312   2.060 -0.7183  0.1120  0.6575
  639MOL0     C88060   2.261   4.271   2.133 -0.2619 -0.1309  0.2062
  639MOL0     N88061   2.381   4.251   2.054 -0.4443 -0.5695 -0.2695
  639MOL0     C88062   2.403   4.144   1.972 -0.0274  0.3128 -0.5451
  639MOL0     C88063   2.527   4.157   1.923  0.1637 -0.2618 -0.6866
  639MOL0     C88064   2.597   4.057   1.829 -0.1261 -1.1944  0.4971
  639MOL0     C88065   2.702   4.140   1.748 -1.2569  1.2806 -0.5999
  639MOL0     C88066   2.764   4.062   1.635 -0.8230 -0.0490  0.2003
  639MOL0     C88067   2.875   4.136   1.555 -0.5588  0.5328 -0.4388
  639MOL0     O88068   2.991   4.152   1.646  0.3310  0.0742 -0.1822
  639MOL0     C88069   3.112   4.209   1.601 -0.4483 -0.0540  0.0458
  639MOL0     C88070   3.123   4.277   1.479  0.5016 -0.6430 -0.5141
  639MOL0     C88071   3.235   4.348   1.442  0.0126 -0.1917 -0.7995
  639MOL0     C88072   3.245   4.396   1.302 -0.1861 -0.7046 -0.3011
  639MOL0     C88073   3.350   4.356   1.534  0.2387  0.1554  0.2907
  639MOL0     C88074   3.481   4.411   1.496 -1.2542 -0.9348  0.0425
  639MOL0     O88075   3.553   4.472   1.592 -0.4026 -0.7131 -0.1177
  639MOL0     C88076   3.685   4.521   1.577  0.4401 -0.2759  0.8831
  639MOL0     C88077   3.778   4.494   1.478  0.3201 -0.5300  0.0058
  639MOL0     C88078   3.902   4.560   1.486  1.0229  0.4081  1.2120
  639MOL0     C88079   3.931   4.645   1.589  0.0793  0.7721  0.0769
  639MOL0     O88080   4.052   4.710   1.577 -0.1797  0.4354  0.2205
  639MOL0     C88081   4.067   4.843   1.627 -0.1346 -0.3512 -0.1145
  639MOL0     C88082   4.212   4.891   1.597  0.0498  0.6350  0.9950
  639MOL0     C88083   4.323   4.801   1.664  0.0818 -0.3592 -0.0856
  639MOL0     C88084   4.345   4.840   1.808  0.5765  0.4924 -1.2194
  639MOL0     C88085   4.489   4.799   1.856 -0.3971 -0.0970  0.1731
  639MOL0     C88086   4.500   4.640   1.842 -0.1569  0.3331  0.2658
  639MOL0     C88087   4.629   4.578   1.885 -0.5310  0.0125 -1.2694
  639MOL0     C88088   4.755   4.637   1.825  0.0859 -0.4438  0.2908
  639MOL0    Cl88089   4.900   4.580   1.907  0.0083 -0.7290  0.1334
  639MOL0     C88090   3.840   4.672   1.694  0.1600 -0.6633  0.7004
  639MOL0     C88091   3.720   4.609   1.683  0.9190 -0.4858  1.1230
  639MOL0     O88092   3.514   4.414   1.378  0.3469  0.2511  0.1430
  639MOL0     C88093   3.345   4.290   1.657 -0.7245  0.1320 -0.4214
  639MOL0     C88094   3.224   4.220   1.692  0.0201 -0.5756 -0.2572
  639MOL0     N88095   2.580   4.270   1.984 -0.0569  0.1796  0.0895
  639MOL0     N88096   2.495   4.329   2.060 -0.3470  0.6508 -0.5515
  639MOL0     C88097   1.521   3.659   1.909 -0.2193 -0.8382  0.2277
  639MOL0     C88098   1.467   3.557   1.994 -0.0751 -0.3860 -0.6856
  639MOL0     C88099   1.222   3.371   2.326 -0.0373 -1.4832 -0.6878
  639MOL0     C88100   1.282   3.265   2.393 -0.6992 -0.2858  0.6270
  639MOL0     C88101   1.207   3.157   2.448 -0.3698 -0.4300  0.2872
  639MOL0     C88102   1.071   3.157   2.431  0.6744  0.6251 -0.1035
  639MOL0     O88103   0.990   3.062   2.475  0.1309  0.5175 -1.0874
  639MOL0     C88104   1.044   2.932   2.494  0.2703 -0.3369  0.3525
  639MOL0     C88105   0.928   2.840   2.518  0.4163  0.8915 -0.0092
  639MOL0     C88106   0.824   2.850   2.402  0.4570  0.1660 -0.2437
  639MOL0     C88107   0.717   2.747   2.417  0.9681 -0.0111  0.7194
  639MOL0     C88108   0.611   2.772   2.310 -0.3001 -0.2114  0.2410
  639MOL0     C88109   0.530   2.786   2.222  0.1341 -0.0267 -0.3741
  639MOL0     C88110   1.010   3.259   2.366 -0.1967  0.3295  0.5291
  639MOL0     C88111   1.085   3.366   2.314 -0.2910 -0.3121  0.0043
  639MOL0     C88112   1.005   3.476   2.238 -0.1798 -0.2278 -0.1846
  639MOL0     H88113   1.163   3.696   2.062 -0.3000  0.5841  0.2251
  639MOL0     H88114   1.263   3.870   1.904 -1.4446 -1.0176 -0.9140
  639MOL0     H88115   1.659   3.942   1.932  0.7762  0.3121 -0.1088
  639MOL0     H88116   1.507   4.009   1.973  2.1485  0.1644  0.8275
  639MOL0     H88117   1.650   4.078   1.712 -0.3401  0.4875 -0.1607
  639MOL0     H88118   1.505   4.154   1.779 -0.2467 -1.6020 -0.2083
  639MOL0     H88119   1.692   4.293   1.817  1.2134 -1.7586 -2.8975
  639MOL0     H88120   1.630   4.235   1.965  1.1528  0.0596 -0.0339
  639MOL0     H88121   1.837   4.082   1.986  1.2889  0.5857 -0.0416
  639MOL0     H88122   1.851   4.074   1.819 -0.5456  1.7574 -0.3290
  639MOL0     H88123   1.888   4.314   2.003  1.1733  1.0980 -0.5801
  639MOL0     H88124   1.931   4.317   1.833  3.6899 -0.5325 -0.7438
  639MOL0     H88125   2.056   4.112   2.008 -0.3775 -0.2152  0.0265
  639MOL0     H88126   2.134   4.189   1.872 -2.5028 -3.7772 -1.0900
  639MOL0     H88127   2.069   4.352   2.135  1.2985  1.5115  1.8376
  639MOL0     H88128   2.159   4.405   2.006 -0.2284  0.4882  1.4894
  639MOL0     H88129   2.279   4.331   2.223 -1.8199 -1.7878  1.7137
  639MOL0     H88130   2.246   4.174   2.183  0.0394 -0.5381 -0.4823
  639MOL0     H88131   2.347   4.053   1.953  1.6718 -0.8701 -0.0218
  639MOL0     H88132   2.524   4.016   1.759  0.2437  1.1542 -1.3887
  639MOL0     H88133   2.632   3.968   1.882  1.4113 -0.0412  1.5029
  639MOL0     H88134   2.655   4.227   1.699 -0.4844  0.9645 -1.9598
  639MOL0     H88135   2.783   4.179   1.810 -0.2797 -1.1322 -0.2620
  639MOL0     H88136   2.806   3.969   1.677  2.5101 -0.2291 -3.0365
  639MOL0     H88137   2.699   4.038   1.551 -0.3240 -0.3962 -0.0911
  639MOL0     H88138   2.905   4.068   1.475  3.5422 -0.2836  1.4967
  639MOL0     H88139   2.838   4.232   1.518 -0.0844  1.1553  0.6221
  639MOL0     H88140   3.048   4.280   1.401 -1.6229  0.1725  1.4306
  639MOL0     H88141   3.154   4.394   1.242  0.4789 -0.5093 -1.3365
  639MOL0     H88142   3.325   4.339   1.254  3.4668  2.4335  1.4791
  639MOL0     H88143   3.276   4.501   1.298 -0.8458 -0.5469 -3.8946
  639MOL0     H88144   3.750   4.433   1.392  0.0875 -2.0639  1.1215
  639MOL0     H88145   3.981   4.555   1.411  0.7484 -0.2608  0.9592
  639MOL0     H88146   3.998   4.916   1.584  2.0422  2.0295  0.1512
  639MOL0     H88147   4.055   4.834   1.736 -0.2004 -0.9512 -0.1656
  639MOL0     H88148   4.229   4.875   1.490  2.4469  0.5573  1.3192
  639MOL0     H88149   4.231   4.998   1.613 -0.0331  0.5488  1.7336
  639MOL0     H88150   4.416   4.818   1.611 -1.5261  4.7876 -1.7893
  639MOL0     H88151   4.307   4.693   1.655  1.3003 -0.4970 -0.7767
  639MOL0     H88152   4.263   4.793   1.863  0.5551  2.0961  0.2068
  639MOL0     H88153   4.318   4.946   1.817 -3.8455 -0.5631  0.8511
  639MOL0     H88154   4.571   4.852   1.806 -0.0325  0.2288  1.0991
  639MOL0     H88155   4.495   4.830   1.961 -1.6727  0.0797  0.2120
  639MOL0     H88156   4.510   4.627   1.734 -1.5003  0.9715  0.0360
  639MOL0     H88157   4.409   4.594   1.882 -0.0687  0.6777  0.8899
  639MOL0     H88158   4.616   4.472   1.861 -0.1175 -0.1239 -0.8944
  639MOL0     H88159   4.632   4.588   1.994  1.2027 -0.0474 -1.2878
  639MOL0     H88160   4.742   4.746   1.826 -1.0885 -0.4753 -2.4169
  639MOL0     H88161   4.760   4.603   1.722  1.7106  1.9210 -0.4955
  639MOL0     H88162   3.870   4.751   1.762  0.6165  1.5157 -1.8850
  639MOL0     H88163   3.647   4.617   1.764  2.4796 -2.4459  2.8446
  639MOL0     H88164   3.429   4.299   1.725  0.7184 -0.9039 -2.0006
  639MOL0     H88165   3.216   4.176   1.791  0.9767 -0.5622 -0.1624
  639MOL0     H88166   1.620   3.655   1.865 -0.2975 -3.1397  0.1706
  639MOL0     H88167   1.532   3.470   1.993 -0.0235 -0.3573 -0.0155
  639MOL0     H88168   1.387   3.278   2.418 -0.6563 -2.4653  1.8821
  639MOL0     H88169   1.260   3.074   2.494  0.8917  0.0987 -0.1775
  639MOL0     H88170   1.103   2.908   2.405  0.7142  1.5375  0.1090
  639MOL0     H88171   1.115   2.923   2.577  0.6835 -1.0643 -0.0624
  639MOL0     H88172   0.877   2.878   2.608 -0.9113  0.2656 -0.4641
  639MOL0     H88173   0.958   2.737   2.537 -0.5572  0.7044  0.5854
  639MOL0     H88174   0.787   2.952   2.392  2.5972  1.0181 -0.0676
  639MOL0     H88175   0.889   2.829   2.316  2.3458 -0.8099  1.3442
  639MOL0     H88176   0.665   2.752   2.512  0.7359 -1.1374  0.6672
  639MOL0     H88177   0.759   2.646   2.409  1.6015  0.3766 -1.8239
  639MOL0     H88178   0.461   2.775   2.141  0.2954 -0.9089 -0.3972
  639MOL0     H88179   0.904   3.245   2.346 -0.5729 -0.1107  2.5911
  639MOL0     H88180   0.994   3.446   2.133 -3.0686 -1.3800  0.3504
  639MOL0     H88181   0.905   3.492   2.280  0.1265  0.1345  0.4199
  639MOL0     H88182   1.072   3.563   2.243  2.0768 -1.9410  1.0335
  640MOL0     O88183   5.877   3.495  10.643 -0.3437  0.0448  0.3197
  640MOL0     C88184   5.784   3.419  10.643  0.2885  0.8503 -1.2290
  640MOL0     O88185   5.755   3.324  10.742  0.2137 -0.3023  0.2383
  640MOL0     C88186   5.816   3.324  10.876  0.6047  0.7715  0.0856
  640MOL0     C88187   5.874   3.441  10.927  0.2913 -0.1939  0.0261
  640MOL0     C88188   5.943   3.420  11.049  0.7221  0.0137  0.5968
  640MOL0     C88189   5.936   3.301  11.123 -0.1444  0.3309 -0.9178
  640MOL0     O88190   5.958   3.281  11.258 -0.3749  0.0213  0.4601
  640MOL0     C88191   5.996   3.400  11.333 -0.2525  0.1306 -0.6796
  640MOL0     C88192   6.011   3.367  11.472 -0.3334 -0.2537 -0.7802
  640MOL0     C88193   6.122   3.266  11.504 -0.8332  0.1795 -0.1284
  640MOL0     C88194   6.133   3.257  11.655  0.1098 -0.6912 -0.2619
  640MOL0     C88195   6.228   3.147  11.711  0.9281 -0.2542 -0.1236
  640MOL0     C88196   6.219   3.005  11.649 -0.0529  0.2558 -0.3410
  640MOL0     C88197   6.313   2.898  11.710 -0.1917 -0.5382 -0.1899
  640MOL0     C88198   6.265   2.757  11.692 -0.5685 -0.2445 -0.7395
  640MOL0     N88199   6.333   2.694  11.588 -0.2593  0.5240 -0.0229
  640MOL0     C88200   6.338   2.716  11.451 -0.5686  0.5488 -0.3693
  640MOL0     C88201   6.442   2.645  11.405  0.1665  0.7615 -0.4740
  640MOL0     C88202   6.466   2.635  11.256 -0.8504  0.2110  0.9446
  640MOL0     C88203   6.378   2.526  11.188 -0.3862  0.0389 -0.9366
  640MOL0     C88204   6.385   2.537  11.037  0.2647 -0.1679  0.4068
  640MOL0     C88205   6.489   2.448  10.969  0.1986  0.9973  0.2072
  640MOL0     O88206   6.627   2.479  11.006 -0.0435  0.3827 -0.0012
  640MOL0     C88207   6.729   2.400  10.951 -0.2585  0.6412  0.1518
  640MOL0     C88208   6.854   2.412  11.021  0.0225  0.2462 -0.3859
  640MOL0     C88209   6.970   2.344  10.979  0.0230  0.8724 -0.4589
  640MOL0     C88210   7.079   2.331  11.080 -0.5183  0.0937 -0.3100
  640MOL0     C88211   6.959   2.285  10.849  0.3521  0.2902 -0.4931
  640MOL0     C88212   7.081   2.239  10.780  0.1085 -0.6563  0.6854
  640MOL0     O88213   7.068   2.200  10.650 -0.2285 -0.2639  0.1190
  640MOL0     C88214   7.185   2.159  10.586  0.1768  1.1360 -1.1793
  640MOL0     C88215   7.301   2.234  10.571 -0.4507 -0.2039 -0.3831
  640MOL0     C88216   7.402   2.183  10.494 -0.1489 -0.0306 -0.3598
  640MOL0     C88217   7.390   2.055  10.434 -0.2809 -0.7833  0.1386
  640MOL0     O88218   7.494   1.999  10.358  0.5887 -0.0568 -0.0062
  640MOL0     C88219   7.570   2.087  10.273 -0.0167  0.7274  0.1108
  640MOL0     C88220   7.673   1.995  10.207  1.1495  0.7600 -0.2233
  640MOL0     C88221   7.802   2.070  10.175 -0.9065  0.0454  0.1669
  640MOL0     C88222   7.901   1.973  10.100  0.2412  0.1550 -0.8676
  640MOL0     C88223   7.957   1.851  10.177  0.6651  0.0807 -0.0890
  640MOL0     C88224   8.034   1.764  10.086  0.2737  0.0293  0.1525
  640MOL0     C88225   8.105   1.648  10.157 -0.1783 -0.2206  0.4080
  640MOL0     C88226   8.160   1.535  10.068  0.2240 -0.5725 -0.5042
  640MOL0    Cl88227   8.285   1.579   9.954  0.5318  0.0460  0.6084
  640MOL0     C88228   7.280   1.976  10.452  0.7208  0.0988  0.8285
  640MOL0     C88229   7.168   2.033  10.522 -0.3238 -0.0151  0.0107
  640MOL0     O88230   7.190   2.227  10.842  0.1709 -0.2541 -0.0590
  640MOL0     C88231   6.836   2.268  10.785 -0.5466  0.5471  0.7057
  640MOL0     C88232   6.722   2.328  10.831 -0.0178 -0.1983  0.0708
  640MOL0     N88233   6.507   2.580  11.512 -0.6679  0.2422 -0.6700
  640MOL0     N88234   6.448   2.616  11.613  0.3600 -0.2499 -0.0829
  640MOL0     C88235   5.877   3.192  11.057 -0.6137 -0.1981 -0.9376
  640MOL0     C88236   5.819   3.203  10.938  0.5396 -0.3454 -0.2054
  640MOL0     C88237   5.690   3.441  10.526  1.0370 -0.2217  0.9067
  640MOL0     C88238   5.576   3.353  10.519  0.2462  0.1981  0.5202
  640MOL0     C88239   5.477   3.373  10.418  0.0088  0.0099 -0.0907
  640MOL0     C88240   5.481   3.476  10.332  1.2234  0.3415  0.0499
  640MOL0     O88241   5.394   3.473  10.232 -0.2169  0.4959  0.0251
  640MOL0     C88242   5.388   3.584  10.137 -0.2925  0.2101  0.2976
  640MOL0     C88243   5.297   3.542  10.023  1.1690 -0.0361 -0.3647
  640MOL0     C88244   5.145   3.509  10.048  1.0503 -0.1519 -0.3179
  640MOL0     C88245   5.057   3.597   9.963  0.3646 -0.0257  0.0811
  640MOL0     C88246   4.929   3.527   9.942  0.4693 -0.9805  0.3637
  640MOL0     C88247   4.819   3.480   9.918  0.2028  0.1810 -0.6545
  640MOL0     C88248   5.587   3.564  10.342 -0.0236 -0.6622 -0.2420
  640MOL0     C88249   5.698   3.548  10.430  1.2561  0.2811  0.2940
  640MOL0     C88250   5.801   3.654  10.428  0.5402  0.3602 -0.1521
  640MOL0     H88251   5.885   3.536  10.877  1.0269  0.5831  1.5708
  640MOL0     H88252   5.982   3.516  11.082  0.4669  0.5128 -0.5149
  640MOL0     H88253   5.925   3.483  11.326 -1.2683 -0.6322  0.3226
  640MOL0     H88254   6.095   3.431  11.297 -0.5329 -0.0311 -1.6380
  640MOL0     H88255   6.032   3.467  11.511  0.0082 -0.7000  0.2164
  640MOL0     H88256   5.914   3.333  11.509  0.4159  0.1682  1.7645
  640MOL0     H88257   6.097   3.170  11.456 -0.5070 -0.3723  0.7746
  640MOL0     H88258   6.216   3.294  11.456  0.3104 -0.5583  1.5599
  640MOL0     H88259   6.165   3.352  11.699 -1.6709 -0.4474  0.5891
  640MOL0     H88260   6.030   3.243  11.688  0.4203 -0.1786  1.0167
  640MOL0     H88261   6.203   3.154  11.818  1.5083  2.4870 -0.1043
  640MOL0     H88262   6.332   3.175  11.692  0.5977 -0.6112 -2.8078
  640MOL0     H88263   6.115   2.973  11.661  0.4142 -1.7259 -1.2025
  640MOL0     H88264   6.248   3.018  11.544  3.0645  1.3797  0.5494
  640MOL0     H88265   6.303   2.928  11.815  1.8360 -0.2145 -0.0509
  640MOL0     H88266   6.418   2.914  11.683  0.6535 -2.9208  1.3701
  640MOL0     H88267   6.284   2.706  11.787 -1.1394  0.9098  0.0093
  640MOL0     H88268   6.156   2.759  11.682 -0.7794  2.7957  0.9365
  640MOL0     H88269   6.258   2.772  11.404 -2.8306 -2.1959 -0.0995
  640MOL0     H88270   6.571   2.606  11.253 -1.7643 -3.5616  1.1055
  640MOL0     H88271   6.456   2.731  11.205 -2.4657 -1.0600 -1.2637
  640MOL0     H88272   6.418   2.426  11.210 -1.1722  0.0127  0.4812
  640MOL0     H88273   6.274   2.532  11.221 -0.4181 -2.4503 -0.3936
  640MOL0     H88274   6.288   2.507  10.996  1.1337 -0.9333 -1.2168
  640MOL0     H88275   6.403   2.636  10.994  1.5964 -1.9905 -3.8157
  640MOL0     H88276   6.475   2.345  11.004  0.5217  0.6154 -0.7569
  640MOL0     H88277   6.475   2.453  10.861  0.8510 -2.7059 -0.1695
  640MOL0     H88278   6.854   2.469  11.114 -0.4518 -0.9075  0.3472
  640MOL0     H88279   7.087   2.222  11.092 -1.6614 -0.3981 -3.1640
  640MOL0     H88280   7.054   2.386  11.171  1.8024 -0.3033  0.6312
  640MOL0     H88281   7.171   2.379  11.045 -2.2481  3.5795 -0.4570
  640MOL0     H88282   7.311   2.327  10.625 -2.8980 -0.0210 -0.1239
  640MOL0     H88283   7.493   2.238  10.476 -0.4313  0.4616 -0.2918
  640MOL0     H88284   7.507   2.144  10.204 -0.3671 -0.7230 -0.8204
  640MOL0     H88285   7.621   2.166  10.329  1.7260  0.9835 -1.6912
  640MOL0     H88286   7.689   1.904  10.266 -1.8896  0.8242  0.8347
  640MOL0     H88287   7.627   1.968  10.111 -1.4314  1.0434  0.8525
  640MOL0     H88288   7.854   2.108  10.264  1.3804  0.2578 -1.1599
  640MOL0     H88289   7.789   2.157  10.110  2.3835  0.2434 -0.4196
  640MOL0     H88290   7.989   2.031  10.070  0.0170  1.8393  1.4615
  640MOL0     H88291   7.843   1.938  10.014 -2.4250  1.0513  0.4712
  640MOL0     H88292   8.010   1.891  10.264 -2.4479  5.0809 -0.1001
  640MOL0     H88293   7.873   1.794  10.220  0.5168  0.7357  0.4999
  640MOL0     H88294   8.090   1.836  10.026 -0.0182  1.1324  1.1604
  640MOL0     H88295   7.958   1.718  10.022  0.2343  1.2181 -0.6818
  640MOL0     H88296   8.040   1.600  10.231 -1.1151 -0.8182 -0.7530
  640MOL0     H88297   8.196   1.687  10.201  0.4067  1.3490 -2.0082
  640MOL0     H88298   8.080   1.480  10.018 -0.3650 -1.9551  1.8173
  640MOL0     H88299   8.204   1.460  10.134 -0.4057  0.9465  1.7747
  640MOL0     H88300   7.278   1.878  10.406 -1.1853  0.7787 -0.6564
  640MOL0     H88301   7.074   1.980  10.539 -0.6030  0.3132 -0.4983
  640MOL0     H88302   6.836   2.204  10.698  0.6384 -1.3515  2.0254
  640MOL0     H88303   6.630   2.332  10.775 -0.0555 -2.0986 -0.0865
  640MOL0     H88304   5.871   3.101  11.116  3.7644 -0.1652 -0.1001
  640MOL0     H88305   5.769   3.120  10.888 -0.5438  0.3322 -0.2912
  640MOL0     H88306   5.585   3.262  10.577  1.9373 -0.9221 -1.3824
  640MOL0     H88307   5.387   3.314  10.405  0.7633 -1.5599  1.3350
  640MOL0     H88308   5.368   3.684  10.178  1.8026  0.8835 -0.1689
  640MOL0     H88309   5.486   3.603  10.091  0.0308  2.6273  1.7868
  640MOL0     H88310   5.343   3.465   9.959  2.3117  0.2555  0.0800
  640MOL0     H88311   5.287   3.631   9.960 -3.5345 -0.5641 -0.7530
  640MOL0     H88312   5.135   3.403  10.024 -2.2967 -0.1002  0.3920
  640MOL0     H88313   5.113   3.534  10.149  0.4915  1.0190 -0.7612
  640MOL0     H88314   5.092   3.617   9.861 -2.1618 -0.5106 -0.9406
  640MOL0     H88315   5.034   3.694  10.008 -0.1353  0.2263 -0.6887
  640MOL0     H88316   4.719   3.460   9.887 -0.6800  1.5691  1.0781
  640MOL0     H88317   5.579   3.654  10.282  0.3242  0.9850  2.0476
  640MOL0     H88318   5.774   3.712  10.517 -0.0098 -1.1542  0.7135
  640MOL0     H88319   5.906   3.623  10.436  1.9189  4.4223 -0.2530
  640MOL0     H88320   5.787   3.728  10.349 -2.4738  0.2100  0.1247
  641MOL0     O88321   3.032  10.626   4.621 -0.1999 -0.0222 -0.0729
  641MOL0     C88322   3.031  10.553   4.718  0.4807 -0.0107  0.4215
  641MOL0     O88323   3.119  10.558   4.812  0.0001  0.4811 -0.4625
  641MOL0     C88324   3.219  10.657   4.820  0.2096  1.4862  0.0760
  641MOL0     C88325   3.178  10.786   4.852  0.1184  0.7243 -0.3566
  641MOL0     C88326   3.290  10.879   4.857  1.0380  0.0486  0.3745
  641MOL0     C88327   3.420  10.844   4.833 -0.4419  0.4301  1.1965
  641MOL0     O88328   3.514  10.939   4.828  0.7162 -0.2944  0.2646
  641MOL0     C88329   3.650  10.919   4.801 -0.8078  0.6786  0.5682
  641MOL0     C88330   3.733  11.041   4.836  0.2949  0.3412 -0.9272
  641MOL0     C88331   3.706  11.094   4.976 -0.6308  0.2965  0.1734
  641MOL0     C88332   3.812  11.195   5.031 -0.8222  0.1095 -0.0642
  641MOL0     C88333   3.793  11.252   5.168  0.4615  0.3159 -0.2015
  641MOL0     C88334   3.914  11.337   5.223 -0.1490  0.9524 -0.1561
  641MOL0     C88335   3.932  11.461   5.132 -0.3666 -0.3682 -0.2223
  641MOL0     C88336   4.052  11.539   5.199  0.2538  0.2067  0.0192
  641MOL0     N88337   4.096  11.665   5.129 -0.0914  0.0656  0.2844
  641MOL0     C88338   4.108  11.782   5.195 -0.8986 -0.1067  0.1010
  641MOL0     C88339   4.173  11.867   5.113 -0.7183  1.0841  0.0252
  641MOL0     C88340   4.238  11.998   5.149 -0.4475  0.3380  0.1181
  641MOL0     C88341   4.394  11.979   5.178  1.4493  0.0948 -0.2919
  641MOL0     C88342   4.448  12.118   5.202 -0.6392 -0.2777  0.5328
  641MOL0     C88343   4.491  12.186   5.077 -0.1749  0.2244  0.4844
  641MOL0     O88344   4.616  12.132   5.038 -0.3181  0.3012 -1.2921
  641MOL0     C88345   4.737  12.187   5.072 -0.2664 -0.6430  0.3899
  641MOL0     C88346   4.752  12.287   5.170  0.9549 -0.4192 -0.0559
  641MOL0     C88347   4.879  12.334   5.203  0.0519 -0.1832 -0.3195
  641MOL0     C88348   4.909  12.433   5.307 -1.1632 -0.3777  0.9381
  641MOL0     C88349   4.993  12.305   5.116 -0.3872  0.4635 -0.5275
  641MOL0     C88350   5.140  12.357   5.125  0.1489 -0.4555  0.2024
  641MOL0     O88351   5.213  12.347   5.007 -0.5764  0.5138  0.1749
  641MOL0     C88352   5.333  12.409   4.992 -0.7825  0.3137 -0.0717
  641MOL0     C88353   5.366  12.545   5.013  0.1004 -0.0348 -0.7043
  641MOL0     C88354   5.489  12.594   4.975 -1.1031 -0.2529 -0.8620
  641MOL0     C88355   5.588  12.505   4.936 -0.1275  0.1523 -0.5588
  641MOL0     O88356   5.711  12.564   4.935  0.1967 -0.0785 -0.8223
  641MOL0     C88357   5.823  12.483   4.906 -0.5173  0.3833 -0.2147
  641MOL0     C88358   5.947  12.569   4.903 -0.3848 -0.0213 -0.5852
  641MOL0     C88359   6.025  12.563   5.036 -0.1122 -0.2887 -0.4919
  641MOL0     C88360   6.176  12.588   5.024 -0.0219 -0.3096  0.5093
  641MOL0     C88361   6.247  12.620   5.153  0.0540  0.4129  0.0296
  641MOL0     C88362   6.369  12.703   5.135 -0.1884 -0.9318  0.5249
  641MOL0     C88363   6.457  12.677   5.260 -0.1396  0.2625  0.5546
  641MOL0     C88364   6.556  12.563   5.243  0.1643  0.2688 -0.5489
  641MOL0    Cl88365   6.633  12.521   5.400  0.4235  0.3247  0.3775
  641MOL0     C88366   5.559  12.370   4.918  0.2266 -0.4119 -0.3774
  641MOL0     C88367   5.433  12.321   4.940  0.1449 -0.0717 -0.8617
  641MOL0     O88368   5.184  12.403   5.225  0.0296  0.3117 -0.0846
  641MOL0     C88369   4.970  12.211   5.019  0.1790 -0.0088 -0.1860
  641MOL0     C88370   4.846  12.155   4.996  0.4307  0.4353 -0.2329
  641MOL0     N88371   4.192  11.794   4.998 -0.2667 -0.0344  0.1467
  641MOL0     N88372   4.143  11.675   5.004 -0.1778 -0.5878  0.3162
  641MOL0     C88373   3.454  10.706   4.814  0.3971 -0.2230  0.6699
  641MOL0     C88374   3.352  10.614   4.802 -0.2725 -0.3380  0.1376
  641MOL0     C88375   2.923  10.446   4.729  0.3239 -0.4612 -0.1674
  641MOL0     C88376   2.825  10.429   4.621 -0.1813 -0.5607 -0.7585
  641MOL0     C88377   2.723  10.330   4.617  0.1720  0.2281  0.3255
  641MOL0     C88378   2.718  10.237   4.720  0.2035 -1.0913 -0.5081
  641MOL0     O88379   2.627  10.139   4.720 -0.5447 -0.1330 -0.0659
  641MOL0     C88380   2.667  10.018   4.795  0.0246  0.9228  0.5984
  641MOL0     C88381   2.591   9.896   4.738  0.4436  0.0245  0.9502
  641MOL0     C88382   2.441   9.927   4.716  1.0488  0.7349 -0.2586
  641MOL0     C88383   2.348   9.802   4.689 -0.1225 -0.1981  0.6555
  641MOL0     C88384   2.349   9.745   4.551  0.1426 -0.2036  0.9110
  641MOL0     C88385   2.351   9.713   4.430 -0.4237 -0.7326  1.0049
  641MOL0     C88386   2.809  10.249   4.823 -0.4750  0.0185  0.0272
  641MOL0     C88387   2.913  10.346   4.828  0.0556  0.8600 -0.1100
  641MOL0     C88388   3.009  10.327   4.940 -0.2967 -0.0955  0.0587
  641MOL0     H88389   3.074  10.809   4.871 -0.5707 -0.9919 -1.8199
  641MOL0     H88390   3.266  10.984   4.865  0.4997 -0.0100 -0.3202
  641MOL0     H88391   3.668  10.871   4.705  2.5632  1.5442  0.6550
  641MOL0     H88392   3.682  10.839   4.869 -1.8917  0.8739  1.3494
  641MOL0     H88393   3.840  11.016   4.828  0.1171  0.1771 -4.1175
  641MOL0     H88394   3.705  11.111   4.757 -2.8584 -1.2725 -1.3948
  641MOL0     H88395   3.611  11.145   4.990  0.8526  2.3513  4.1281
  641MOL0     H88396   3.707  11.002   5.036 -3.1257 -0.8624 -1.3875
  641MOL0     H88397   3.907  11.140   5.020  0.3733  2.4305 -2.4250
  641MOL0     H88398   3.822  11.276   4.958  2.1237 -0.1059 -0.0593
  641MOL0     H88399   3.760  11.169   5.232 -3.4687  1.7609 -0.0908
  641MOL0     H88400   3.701  11.310   5.156  0.7179  1.0820  1.2963
  641MOL0     H88401   3.891  11.360   5.327  2.8727 -1.5208  1.2058
  641MOL0     H88402   4.007  11.279   5.221 -0.4657  0.2447  2.2838
  641MOL0     H88403   3.840  11.519   5.124  1.3222  2.3631 -1.3137
  641MOL0     H88404   3.957  11.426   5.032 -0.1124  0.1566 -0.3466
  641MOL0     H88405   4.040  11.567   5.304  0.4459  2.1494 -0.4377
  641MOL0     H88406   4.143  11.479   5.187  0.0650  0.1211 -1.1399
  641MOL0     H88407   4.081  11.794   5.299  1.1916  0.3819  0.6433
  641MOL0     H88408   4.187  12.052   5.230 -0.2081  1.2357 -0.3213
  641MOL0     H88409   4.236  12.066   5.064  0.3375  0.1181 -0.0834
  641MOL0     H88410   4.405  11.933   5.276  1.1839 -0.1608 -0.3794
  641MOL0     H88411   4.452  11.932   5.098  2.2533  3.7349 -2.0199
  641MOL0     H88412   4.367  12.180   5.243 -0.2170 -1.0192  2.6192
  641MOL0     H88413   4.528  12.114   5.276  1.2166  0.9869 -1.3121
  641MOL0     H88414   4.423  12.169   4.993  2.4416  0.7507 -1.8673
  641MOL0     H88415   4.498  12.294   5.090  0.0274 -0.0016  2.6386
  641MOL0     H88416   4.665  12.306   5.232  1.5667  1.7159  0.2169
  641MOL0     H88417   4.941  12.520   5.249 -0.2818 -0.0049  1.9533
  641MOL0     H88418   4.993  12.401   5.369  0.8377  1.1290 -0.8660
  641MOL0     H88419   4.827  12.469   5.370 -0.1475  0.8209  1.6276
  641MOL0     H88420   5.292  12.606   5.063  0.1810 -1.0416  0.7221
  641MOL0     H88421   5.511  12.699   4.990 -1.3887 -0.6245  3.2397
  641MOL0     H88422   5.838  12.402   4.977 -1.0358 -0.4822 -1.0730
  641MOL0     H88423   5.808  12.439   4.807  1.1675 -1.1757  0.1883
  641MOL0     H88424   6.015  12.530   4.826  0.6353 -2.5489  1.4549
  641MOL0     H88425   5.920  12.672   4.875  2.6769  1.4992  1.4633
  641MOL0     H88426   6.019  12.461   5.073  3.0379 -0.3444  0.1293
  641MOL0     H88427   5.980  12.622   5.117 -0.2492  0.4122 -1.0636
  641MOL0     H88428   6.177  12.670   4.952 -1.8497 -2.4370 -2.1431
  641MOL0     H88429   6.223  12.503   4.973  1.5097  1.6848 -1.5874
  641MOL0     H88430   6.177  12.670   5.221  0.1449 -0.6875  0.9599
  641MOL0     H88431   6.270  12.521   5.193  0.3083 -1.0671 -3.4327
  641MOL0     H88432   6.330  12.805   5.135 -0.2492 -0.9442 -0.4003
  641MOL0     H88433   6.413  12.694   5.035  0.6408 -0.6443  0.8621
  641MOL0     H88434   6.405  12.658   5.354 -1.5524 -1.4929 -0.5264
  641MOL0     H88435   6.524  12.762   5.277  0.2419 -0.1214  0.9799
  641MOL0     H88436   6.640  12.586   5.177  2.1338  0.7626  1.9646
  641MOL0     H88437   6.506  12.478   5.196  1.3477 -0.0265 -1.3272
  641MOL0     H88438   5.634  12.298   4.889  0.3920 -0.1528 -0.6044
  641MOL0     H88439   5.399  12.220   4.918 -1.4112  0.2808 -0.2328
  641MOL0     H88440   5.054  12.183   4.957 -0.3718  1.8130 -1.8410
  641MOL0     H88441   4.825  12.096   4.908  0.6950 -3.1919  1.9164
  641MOL0     H88442   3.559  10.686   4.791 -0.3001 -0.2496 -3.2123
  641MOL0     H88443   3.392  10.515   4.781 -1.0665 -0.6875  0.2479
  641MOL0     H88444   2.826  10.507   4.546 -4.0638 -0.7281 -1.1694
  641MOL0     H88445   2.640  10.329   4.547 -1.3690  2.0946  2.0005
  641MOL0     H88446   2.772   9.987   4.794 -0.5869 -1.6182  2.4971
  641MOL0     H88447   2.637  10.033   4.899 -0.1677 -0.1792  0.7139
  641MOL0     H88448   2.600   9.799   4.790 -0.3996 -0.5101  0.1322
  641MOL0     H88449   2.625   9.870   4.638 -1.6130  2.2998 -0.4249
  641MOL0     H88450   2.400   9.965   4.810 -1.0083  0.4736 -1.0082
  641MOL0     H88451   2.420  10.012   4.650  0.4404  0.7557 -0.0415
  641MOL0     H88452   2.243   9.821   4.714  0.3117  2.1717  0.8757
  641MOL0     H88453   2.383   9.733   4.767 -1.8876 -1.2592  0.5466
  641MOL0     H88454   2.337   9.667   4.334  1.5311 -0.6792  0.6671
  641MOL0     H88455   2.801  10.176   4.903  0.7922 -1.9328 -1.5461
  641MOL0     H88456   3.004  10.225   4.978 -2.7226 -0.7660 -1.8309
  641MOL0     H88457   3.115  10.334   4.912 -0.5158  0.8331 -0.5880
  641MOL0     H88458   2.982  10.396   5.020 -2.1202 -1.2810  0.5138
  642MOL0     O88459   3.295   6.577   2.865  0.3487  0.5022 -0.1903
  642MOL0     C88460   3.268   6.637   2.760  0.1202  0.1268 -0.9109
  642MOL0     O88461   3.346   6.636   2.650  0.1278 -0.1854 -0.3360
  642MOL0     C88462   3.458   6.554   2.636  0.2703  1.0852  0.2828
  642MOL0     C88463   3.569   6.607   2.562  0.4949  0.3473  0.1440
  642MOL0     C88464   3.680   6.530   2.553  0.3076  0.1114  0.3637
  642MOL0     C88465   3.681   6.400   2.597 -0.4780 -0.0291  0.1061
  642MOL0     O88466   3.805   6.335   2.602  0.4567  0.1462 -0.0327
  642MOL0     C88467   3.859   6.295   2.726 -0.7495  0.1250 -0.2487
  642MOL0     C88468   4.014   6.290   2.710  0.9834 -0.1705 -0.5996
  642MOL0     C88469   4.069   6.189   2.611 -0.0343  0.4522 -0.7876
  642MOL0     C88470   4.218   6.177   2.620  0.1312 -0.4687  0.1679
  642MOL0     C88471   4.278   6.116   2.487 -0.0846 -0.0010 -0.0767
  642MOL0     C88472   4.432   6.138   2.488 -1.3167 -0.5505 -0.3274
  642MOL0     C88473   4.489   6.088   2.353 -0.3530  0.3171 -0.3513
  642MOL0     C88474   4.625   6.154   2.310  0.1004  0.3126 -0.4817
  642MOL0     N88475   4.729   6.112   2.405  0.0828  0.0280 -0.3966
  642MOL0     C88476   4.739   5.993   2.476 -0.3326 -0.0187 -0.2754
  642MOL0     C88477   4.867   5.995   2.529  0.5527 -0.5062 -0.1781
  642MOL0     C88478   4.943   5.888   2.618  0.0649 -0.2185 -0.4616
  642MOL0     C88479   5.075   5.840   2.567  0.9051 -0.0177  0.4665
  642MOL0     C88480   5.062   5.785   2.418 -0.5955 -0.0647 -0.4991
  642MOL0     C88481   5.195   5.726   2.374  0.5246  0.1579 -0.0301
  642MOL0     O88482   5.290   5.831   2.381 -0.5821  0.0416 -0.2669
  642MOL0     C88483   5.426   5.796   2.388  0.7605 -0.6040 -0.1510
  642MOL0     C88484   5.506   5.867   2.307 -0.7365  0.1766 -0.4525
  642MOL0     C88485   5.638   5.824   2.274 -0.3398 -0.2255 -0.7462
  642MOL0     C88486   5.722   5.921   2.185 -0.4501  0.5612 -0.1387
  642MOL0     C88487   5.693   5.710   2.338  0.3092 -0.7478  0.4223
  642MOL0     C88488   5.834   5.669   2.325  0.4035 -0.2168 -0.2282
  642MOL0     O88489   5.871   5.562   2.401  0.8885  0.7324  0.0227
  642MOL0     C88490   6.002   5.550   2.438 -0.2892  0.2115  0.3542
  642MOL0     C88491   6.086   5.655   2.465 -0.0410  0.4008  0.8031
  642MOL0     C88492   6.226   5.621   2.493 -0.2579 -0.0695 -0.0512
  642MOL0     C88493   6.276   5.497   2.475  0.7888  0.0376  0.4302
  642MOL0     O88494   6.411   5.486   2.491 -0.1573  0.2098  0.2358
  642MOL0     C88495   6.460   5.355   2.466 -0.6186  0.1379  0.0154
  642MOL0     C88496   6.613   5.370   2.459 -0.2294 -0.5802 -0.4740
  642MOL0     C88497   6.680   5.346   2.596  0.1516  0.0679 -0.1725
  642MOL0     C88498   6.824   5.398   2.592  0.1719  0.1612  0.4061
  642MOL0     C88499   6.893   5.408   2.729  0.0064  0.8369 -0.0998
  642MOL0     C88500   7.039   5.466   2.711  0.1125 -0.6865 -1.0064
  642MOL0     C88501   7.102   5.473   2.845  0.0745  0.2200  0.1957
  642MOL0     C88502   7.035   5.570   2.939 -0.3173  0.2053  0.1329
  642MOL0    Cl88503   7.101   5.550   3.106 -0.0105  0.3032 -0.2916
  642MOL0     C88504   6.179   5.394   2.452  0.1773 -0.0404 -0.1684
  642MOL0     C88505   6.049   5.418   2.435  0.7806  0.7711  0.5393
  642MOL0     O88506   5.906   5.732   2.259  0.0894  0.3763 -0.1683
  642MOL0     C88507   5.606   5.630   2.410  0.3139  0.0289  0.4592
  642MOL0     C88508   5.471   5.679   2.438  0.3008  0.7152 -1.0248
  642MOL0     N88509   4.916   6.124   2.510 -0.1765 -0.2695  0.3201
  642MOL0     N88510   4.836   6.188   2.432 -0.2830  0.3296 -1.0650
  642MOL0     C88511   3.571   6.349   2.657  0.4901 -0.6370 -0.3807
  642MOL0     C88512   3.454   6.419   2.679 -0.5142 -0.2461  0.4786
  642MOL0     C88513   3.139   6.718   2.757 -0.1879 -0.1646 -0.0153
  642MOL0     C88514   3.078   6.740   2.632  0.1041  0.0154  0.4709
  642MOL0     C88515   2.965   6.807   2.627  0.7001 -0.1219  0.6641
  642MOL0     C88516   2.890   6.848   2.736 -0.2601  0.1375  0.0790
  642MOL0     O88517   2.775   6.910   2.719 -0.2266  0.4842 -0.6136
  642MOL0     C88518   2.740   7.029   2.796 -0.1182  0.0808 -0.4859
  642MOL0     C88519   2.595   7.011   2.830 -0.3083 -0.8622 -0.0427
  642MOL0     C88520   2.509   7.078   2.724  0.5004  0.5645  0.1202
  642MOL0     C88521   2.361   7.072   2.749  0.0690 -0.2170  0.0681
  642MOL0     C88522   2.287   7.136   2.630 -0.9483 -0.3016 -0.0402
  642MOL0     C88523   2.226   7.200   2.545 -0.3357  0.7458 -0.6704
  642MOL0     C88524   2.943   6.826   2.866  0.4506  0.7527  0.7611
  642MOL0     C88525   3.064   6.759   2.873  0.3726 -0.7811 -0.5799
  642MOL0     C88526   3.116   6.745   3.015 -0.0679  1.2231  0.5863
  642MOL0     H88527   3.564   6.709   2.525  0.0934  0.4239  0.4044
  642MOL0     H88528   3.762   6.566   2.492 -1.4911  0.8900 -1.7211
  642MOL0     H88529   3.821   6.197   2.757  1.3336 -0.5126  0.4218
  642MOL0     H88530   3.846   6.361   2.813 -1.6392 -0.4147  0.0513
  642MOL0     H88531   4.053   6.388   2.682  3.1631 -1.1949 -1.4260
  642MOL0     H88532   4.053   6.269   2.810  1.6941  0.0054 -0.8320
  642MOL0     H88533   4.017   6.095   2.632 -1.1410  1.0538 -0.7865
  642MOL0     H88534   4.034   6.217   2.511 -1.8600 -0.6446 -0.5079
  642MOL0     H88535   4.252   6.281   2.618  1.0852 -0.7748  0.0788
  642MOL0     H88536   4.243   6.130   2.715 -1.1386  4.3281  3.1895
  642MOL0     H88537   4.242   6.180   2.405 -0.8682 -0.7279 -0.3170
  642MOL0     H88538   4.238   6.014   2.482 -0.5161  0.1811 -0.4687
  642MOL0     H88539   4.454   6.239   2.524  4.2188 -2.3070  2.3763
  642MOL0     H88540   4.475   6.077   2.567  1.4373  1.2408 -0.2914
  642MOL0     H88541   4.419   6.115   2.274 -0.6132 -2.4489 -1.1549
  642MOL0     H88542   4.504   5.980   2.345 -0.0740  0.3863 -0.7879
  642MOL0     H88543   4.639   6.107   2.212 -0.1220  0.9307 -0.8191
  642MOL0     H88544   4.627   6.261   2.290 -1.2344  0.1256 -1.8147
  642MOL0     H88545   4.670   5.910   2.488 -1.3549  0.8634  0.0299
  642MOL0     H88546   4.871   5.806   2.628  0.9525 -0.9563  0.1075
  642MOL0     H88547   4.972   5.936   2.712 -0.2848  0.5856 -0.7584
  642MOL0     H88548   5.150   5.920   2.567 -0.5877  1.5250 -2.0617
  642MOL0     H88549   5.110   5.756   2.628  1.9277 -0.9465 -1.2851
  642MOL0     H88550   4.993   5.700   2.409  2.6843 -2.9439 -0.3815
  642MOL0     H88551   5.052   5.866   2.345  3.4207 -0.0876 -1.3023
  642MOL0     H88552   5.224   5.640   2.436 -1.6889  0.6744  1.8948
  642MOL0     H88553   5.188   5.689   2.272  2.0264  3.5320 -1.5010
  642MOL0     H88554   5.461   5.952   2.256 -2.2369 -1.1019 -1.3371
  642MOL0     H88555   5.808   5.961   2.240 -0.7374  1.3457 -0.2458
  642MOL0     H88556   5.675   6.014   2.153  2.6510  3.2009  2.1681
  642MOL0     H88557   5.757   5.863   2.100  1.4336  1.7373 -0.2381
  642MOL0     H88558   6.052   5.757   2.455 -1.2176  0.0735  1.3375
  642MOL0     H88559   6.294   5.701   2.520  0.4255  0.2456 -2.4699
  642MOL0     H88560   6.447   5.282   2.547 -0.7892  0.6196  0.4260
  642MOL0     H88561   6.420   5.309   2.375  0.1979  2.1659 -1.4414
  642MOL0     H88562   6.652   5.301   2.383 -0.0021  0.5976 -1.4743
  642MOL0     H88563   6.629   5.474   2.427  1.5855 -0.0753  1.7779
  642MOL0     H88564   6.673   5.243   2.634 -1.8222  0.8148  1.7489
  642MOL0     H88565   6.623   5.401   2.673 -2.0033 -1.4285 -0.5930
  642MOL0     H88566   6.835   5.493   2.539 -0.5819 -0.0235 -0.0959
  642MOL0     H88567   6.881   5.330   2.529  0.3952 -0.3581  1.1474
  642MOL0     H88568   6.828   5.455   2.803 -0.5883 -1.5415  0.9910
  642MOL0     H88569   6.906   5.308   2.771 -0.0882  0.3959 -1.0880
  642MOL0     H88570   7.035   5.563   2.660 -2.9028 -1.3100 -2.1654
  642MOL0     H88571   7.090   5.404   2.637  1.8215  0.3957 -0.7963
  642MOL0     H88572   7.206   5.509   2.845 -0.7141  2.6625 -0.4579
  642MOL0     H88573   7.113   5.374   2.890  0.5677 -0.7830 -2.0287
  642MOL0     H88574   6.928   5.553   2.956 -0.3679 -1.5421 -1.6127
  642MOL0     H88575   7.061   5.671   2.905  1.1945 -0.4494 -0.7164
  642MOL0     H88576   6.222   5.295   2.446  1.5980  0.4754  0.9065
  642MOL0     H88577   5.983   5.334   2.417 -0.7728  1.3343  3.0422
  642MOL0     H88578   5.638   5.537   2.457 -1.6248 -1.1479 -0.4201
  642MOL0     H88579   5.412   5.613   2.501  0.6451 -1.1245 -2.5394
  642MOL0     H88580   3.567   6.247   2.695 -0.3800 -2.1768 -4.1332
  642MOL0     H88581   3.369   6.384   2.738 -1.5232  1.1590 -0.0849
  642MOL0     H88582   3.130   6.707   2.542  0.8763  0.7001  0.6544
  642MOL0     H88583   2.923   6.827   2.529  2.3040 -2.2957 -0.5568
  642MOL0     H88584   2.805   7.038   2.883  0.3953 -1.2897 -0.7001
  642MOL0     H88585   2.756   7.112   2.727  0.0405 -0.1818 -0.7673
  642MOL0     H88586   2.575   7.054   2.928 -0.0330  2.1880 -1.2143
  642MOL0     H88587   2.572   6.905   2.836 -2.0000 -0.4361  2.0597
  642MOL0     H88588   2.543   7.181   2.710 -0.0556  0.9757  1.6246
  642MOL0     H88589   2.517   7.025   2.629 -0.2705  1.3419 -0.3893
  642MOL0     H88590   2.326   7.114   2.843 -2.3769 -1.7066 -0.0791
  642MOL0     H88591   2.336   6.966   2.747 -2.2732  0.2307  1.9808
  642MOL0     H88592   2.176   7.241   2.460  0.3796 -0.2192 -1.5869
  642MOL0     H88593   2.894   6.863   2.956 -1.5080 -1.4708  0.7027
  642MOL0     H88594   3.133   6.848   3.048  0.7962  1.4589 -0.5386
  642MOL0     H88595   3.030   6.701   3.066  1.3776 -1.6747  0.7571
  642MOL0     H88596   3.206   6.687   3.040  0.2583  2.2896  1.9801
  643MOL0     O88597   7.993   5.245   3.446 -0.1137  0.4684 -0.0586
  643MOL0     C88598   7.919   5.156   3.408 -0.1478  1.1252 -0.8797
  643MOL0     O88599   7.953   5.026   3.394 -0.3154 -0.8081 -0.1060
  643MOL0     C88600   8.077   4.973   3.438 -0.2902 -0.4012  0.3195
  643MOL0     C88601   8.106   4.844   3.385 -0.1345 -0.1195 -0.3371
  643MOL0     C88602   8.224   4.786   3.413  0.3428 -0.0085  0.7156
  643MOL0     C88603   8.319   4.852   3.497 -0.2997  0.2121  1.1248
  643MOL0     O88604   8.427   4.777   3.538  0.7468  0.0870 -0.4479
  643MOL0     C88605   8.546   4.850   3.569 -0.1821 -0.6219  0.1598
  643MOL0     C88606   8.652   4.739   3.599 -0.2829  0.0040  0.1443
  643MOL0     C88607   8.781   4.805   3.649 -0.5947  0.2363  0.6524
  643MOL0     C88608   8.897   4.766   3.557  0.2302 -0.0246  0.0375
  643MOL0     C88609   9.033   4.828   3.598  0.5746  0.5698  0.3016
  643MOL0     C88610   9.129   4.798   3.486 -0.2827 -0.3273 -0.0781
  643MOL0     C88611   9.263   4.876   3.510 -0.0328  0.8274 -0.0816
  643MOL0     C88612   9.240   5.027   3.501 -0.5375  0.1558 -0.0649
  643MOL0     N88613   9.204   5.075   3.370 -0.0002 -0.0991  0.0734
  643MOL0     C88614   9.079   5.072   3.318  0.0734 -0.8561  0.5008
  643MOL0     C88615   9.087   5.121   3.194  0.6496  0.4997  0.8489
  643MOL0     C88616   8.964   5.164   3.113  0.3104  0.0885  0.4842
  643MOL0     C88617   8.912   5.286   3.192  0.2291 -0.2305  0.7478
  643MOL0     C88618   8.801   5.365   3.102 -0.8282 -0.2809 -0.1326
  643MOL0     C88619   8.726   5.461   3.195 -0.2756 -0.1252  0.4388
  643MOL0     O88620   8.615   5.517   3.128 -1.0703  0.0096 -0.3318
  643MOL0     C88621   8.552   5.615   3.193 -0.3817  0.5563 -0.7095
  643MOL0     C88622   8.439   5.658   3.127 -0.1064 -0.4840  0.2269
  643MOL0     C88623   8.368   5.766   3.182  0.2326 -0.4092 -0.0101
  643MOL0     C88624   8.248   5.806   3.107  0.3887 -0.2042  0.0766
  643MOL0     C88625   8.398   5.815   3.311  0.4452 -0.8089  0.2556
  643MOL0     C88626   8.335   5.934   3.369 -0.3591 -0.3667  1.7718
  643MOL0     O88627   8.320   5.933   3.503  0.6182  0.5721  0.0690
  643MOL0     C88628   8.224   6.021   3.557 -0.0637  0.3744 -0.6403
  643MOL0     C88629   8.250   6.101   3.673  0.2354 -0.0610  0.0151
  643MOL0     C88630   8.166   6.206   3.710  0.0225  1.1587  0.1322
  643MOL0     C88631   8.039   6.218   3.648 -0.5380 -0.0999  0.1627
  643MOL0     O88632   7.939   6.312   3.671 -0.2095  0.0548  0.0180
  643MOL0     C88633   7.958   6.390   3.787  0.4973  0.1828 -0.0123
  643MOL0     C88634   7.815   6.446   3.834  0.6922  0.7138 -0.0971
  643MOL0     C88635   7.826   6.543   3.958 -0.1238  0.0842 -0.2271
  643MOL0     C88636   7.691   6.591   4.013  0.3144 -0.1951 -0.2500
  643MOL0     C88637   7.688   6.657   4.151  0.2806  0.6160 -0.3405
  643MOL0     C88638   7.548   6.703   4.202  0.6538  0.5299 -0.6893
  643MOL0     C88639   7.446   6.591   4.216  0.1793 -0.2759 -0.0534
  643MOL0     C88640   7.312   6.644   4.271  1.6732 -0.3440 -0.0395
  643MOL0    Cl88641   7.176   6.521   4.282  0.0448 -0.2374  0.0151
  643MOL0     C88642   8.016   6.132   3.537 -0.3426 -0.1466  0.3520
  643MOL0     C88643   8.104   6.039   3.492  0.2104 -0.1691  0.6461
  643MOL0     O88644   8.332   6.034   3.298  0.0816 -0.5657  0.0414
  643MOL0     C88645   8.491   5.749   3.383 -0.4460  0.0739  0.7956
  643MOL0     C88646   8.572   5.656   3.325  0.3382 -0.1149 -0.1417
  643MOL0     N88647   9.226   5.157   3.173  0.5221 -1.2675 -0.0856
  643MOL0     N88648   9.293   5.122   3.276  1.1543 -0.2108 -0.4047
  643MOL0     C88649   8.293   4.977   3.550  0.0400  0.0824 -0.0021
  643MOL0     C88650   8.168   5.037   3.524  0.9102 -0.0391 -0.0570
  643MOL0     C88651   7.774   5.171   3.389 -1.0584 -0.6044 -0.1183
  643MOL0     C88652   7.693   5.057   3.407  0.0018  0.0353 -0.1475
  643MOL0     C88653   7.551   5.065   3.396 -0.5466  0.5334 -0.4670
  643MOL0     C88654   7.488   5.182   3.395  0.2103 -0.6184 -0.0113
  643MOL0     O88655   7.348   5.181   3.389 -0.1479  0.8783 -0.7249
  643MOL0     C88656   7.269   5.298   3.419 -0.1471 -0.9367 -0.2147
  643MOL0     C88657   7.120   5.259   3.463 -0.1232 -0.0137  1.0662
  643MOL0     C88658   7.058   5.388   3.508  0.0880 -0.9017 -0.3789
  643MOL0     C88659   6.908   5.366   3.563 -0.3047  0.3103 -0.5157
  643MOL0     C88660   6.919   5.290   3.692 -0.8849  0.2263 -0.6853
  643MOL0     C88661   6.918   5.230   3.791 -0.2762  1.1680  0.0264
  643MOL0     C88662   7.568   5.301   3.386  0.1403 -1.1937  0.1851
  643MOL0     C88663   7.710   5.297   3.388  0.4077 -0.1875  0.9414
  643MOL0     C88664   7.784   5.432   3.376 -1.1150  0.4403  0.5210
  643MOL0     H88665   8.038   4.792   3.317 -1.3388 -0.6393  1.2141
  643MOL0     H88666   8.252   4.686   3.383  1.2851  0.1370  1.0625
  643MOL0     H88667   8.526   4.904   3.661 -1.9672 -0.1276 -0.4761
  643MOL0     H88668   8.568   4.928   3.496  1.3413  0.1553  1.4071
  643MOL0     H88669   8.612   4.666   3.669 -1.7138  0.3521 -0.2812
  643MOL0     H88670   8.680   4.687   3.507  0.7584  1.0105 -0.1393
  643MOL0     H88671   8.762   4.912   3.650  0.7389  0.4928  1.4242
  643MOL0     H88672   8.790   4.769   3.753 -1.5492  0.1780  0.7284
  643MOL0     H88673   8.902   4.656   3.558 -3.5330 -0.2957  0.6536
  643MOL0     H88674   8.874   4.780   3.451  2.0220 -2.7265 -0.8377
  643MOL0     H88675   9.056   4.780   3.693  2.0803 -0.8766 -0.7217
  643MOL0     H88676   9.023   4.936   3.604 -3.1504  0.3600  0.4958
  643MOL0     H88677   9.161   4.693   3.483  1.0382  0.0150  0.8884
  643MOL0     H88678   9.091   4.820   3.386  1.2112  0.3615 -0.5211
  643MOL0     H88679   9.340   4.849   3.437  0.3906  1.5516  0.0906
  643MOL0     H88680   9.294   4.848   3.611 -2.4177 -1.3267  0.1553
  643MOL0     H88681   9.178   5.066   3.582  1.2873  3.7789 -0.1907
  643MOL0     H88682   9.337   5.076   3.516 -0.5687  2.1841 -4.7441
  643MOL0     H88683   8.992   5.044   3.377 -0.6060 -2.2010 -1.0886
  643MOL0     H88684   8.885   5.087   3.114 -0.5614  0.9417 -0.7617
  643MOL0     H88685   8.980   5.191   3.009 -1.9916  1.1779  0.3524
  643MOL0     H88686   8.874   5.240   3.284  2.1994  0.1181  1.7860
  643MOL0     H88687   8.989   5.357   3.223  2.0120 -2.1223  0.8719
  643MOL0     H88688   8.841   5.425   3.020 -0.4795  1.8142  1.4926
  643MOL0     H88689   8.731   5.297   3.052 -1.1157 -0.8587  1.0379
  643MOL0     H88690   8.689   5.410   3.284 -2.2603 -0.9670 -0.8111
  643MOL0     H88691   8.787   5.547   3.226  0.7932 -1.3658  1.9321
  643MOL0     H88692   8.411   5.617   3.030  1.0033  2.5457 -1.5272
  643MOL0     H88693   8.270   5.897   3.050 -0.4456 -0.0170  0.0406
  643MOL0     H88694   8.167   5.817   3.180  0.9626 -2.1093  1.0784
  643MOL0     H88695   8.213   5.737   3.029 -0.3091 -0.4514  0.5941
  643MOL0     H88696   8.336   6.085   3.737 -0.5106  1.1806  1.3997
  643MOL0     H88697   8.188   6.265   3.799 -0.9216 -0.3346  1.4042
  643MOL0     H88698   7.998   6.329   3.867  1.2769 -0.2878 -0.7484
  643MOL0     H88699   8.036   6.465   3.771  1.2086  0.0784  2.6183
  643MOL0     H88700   7.771   6.499   3.749 -0.2865 -1.0653 -0.7482
  643MOL0     H88701   7.745   6.366   3.862  0.2522  1.2468  0.3378
  643MOL0     H88702   7.889   6.627   3.930 -1.6823  0.6885 -2.1371
  643MOL0     H88703   7.875   6.487   4.038  2.0106  1.4514 -0.4938
  643MOL0     H88704   7.629   6.501   4.025 -0.2664  0.2744  0.3600
  643MOL0     H88705   7.646   6.656   3.938 -0.4678  1.4603  1.5433
  643MOL0     H88706   7.722   6.591   4.231 -0.5595 -0.2090 -0.6536
  643MOL0     H88707   7.749   6.748   4.148  1.8768 -0.4482 -2.4128
  643MOL0     H88708   7.509   6.782   4.137 -1.4416 -0.0910 -0.2754
  643MOL0     H88709   7.570   6.749   4.299  1.7120 -0.4994 -0.4177
  643MOL0     H88710   7.472   6.512   4.287  1.4440 -0.8973 -1.1682
  643MOL0     H88711   7.417   6.546   4.121 -1.4086  1.1968 -0.3182
  643MOL0     H88712   7.272   6.726   4.209 -0.8800 -1.5998 -0.1859
  643MOL0     H88713   7.326   6.678   4.374  0.5149 -0.4208  0.1566
  643MOL0     H88714   7.916   6.133   3.495 -0.4594 -3.2728  0.3394
  643MOL0     H88715   8.078   5.983   3.402 -1.2661  1.0085  0.3017
  643MOL0     H88716   8.524   5.776   3.482  1.6058  0.2694  0.1041
  643MOL0     H88717   8.660   5.627   3.381  0.1531 -0.2537  0.0798
  643MOL0     H88718   8.355   5.034   3.619  0.4457  0.0973 -0.3746
  643MOL0     H88719   8.150   5.132   3.575  1.7749 -0.3961  0.9425
  643MOL0     H88720   7.733   4.957   3.418 -2.3720 -0.8211  1.6188
  643MOL0     H88721   7.484   4.981   3.410  0.9799 -0.6190  0.1136
  643MOL0     H88722   7.322   5.359   3.493  0.0241  2.9760 -3.2716
  643MOL0     H88723   7.264   5.362   3.330 -0.0367  0.2517  0.6107
  643MOL0     H88724   7.117   5.187   3.546 -0.0285 -1.4120 -0.1182
  643MOL0     H88725   7.070   5.224   3.373  1.0472  2.4345 -0.6520
  643MOL0     H88726   7.106   5.444   3.588  0.5591 -0.3625 -1.0303
  643MOL0     H88727   7.052   5.453   3.421  2.1129 -2.2475 -1.6146
  643MOL0     H88728   6.842   5.315   3.492 -0.1314 -1.0519  0.2603
  643MOL0     H88729   6.860   5.460   3.593 -1.5698  0.4430 -2.7295
  643MOL0     H88730   6.917   5.175   3.883  1.5435  0.1325 -0.5284
  643MOL0     H88731   7.536   5.403   3.364  3.3997 -0.4402 -1.7206
  643MOL0     H88732   7.849   5.433   3.289  0.0787 -0.1361  1.3699
  643MOL0     H88733   7.713   5.514   3.366 -0.9405  0.8295  2.0791
  643MOL0     H88734   7.846   5.443   3.466  2.0716 -1.5339 -1.2377
  644MOL0     O88735   6.866   2.201  10.163  0.8349  0.0755 -0.5367
  644MOL0     C88736   6.826   2.092  10.213 -0.3536  0.2414  0.2432
  644MOL0     O88737   6.886   1.972  10.186  0.0527 -0.1612  0.0236
  644MOL0     C88738   6.992   1.969  10.100 -0.1072 -0.2862 -0.6750
  644MOL0     C88739   6.973   1.913   9.978  0.5664  0.0341 -0.2918
  644MOL0     C88740   7.076   1.887   9.892 -0.3738 -0.2451 -0.8002
  644MOL0     C88741   7.207   1.918   9.926  0.5397 -0.0706 -0.3452
  644MOL0     O88742   7.306   1.873   9.842 -0.1866  0.0856  0.0004
  644MOL0     C88743   7.442   1.866   9.888  0.0823  0.1318 -0.3036
  644MOL0     C88744   7.545   1.810   9.786  1.0836  0.6490 -0.6152
  644MOL0     C88745   7.698   1.831   9.804 -1.2339  0.2102  0.9262
  644MOL0     C88746   7.784   1.794   9.674 -0.6879  0.0358 -0.2891
  644MOL0     C88747   7.929   1.788   9.713 -0.3346  0.4382 -0.2472
  644MOL0     C88748   7.998   1.926   9.735  0.0639 -0.4195 -0.2679
  644MOL0     C88749   8.150   1.920   9.737  0.0952 -0.3541  0.1377
  644MOL0     C88750   8.214   1.819   9.642 -0.6111 -0.0856 -0.2605
  644MOL0     N88751   8.360   1.822   9.632  0.2474  0.3131 -0.0489
  644MOL0     C88752   8.438   1.899   9.553 -0.0717  0.0671  0.2450
  644MOL0     C88753   8.565   1.859   9.568  0.2258 -0.4574  0.1269
  644MOL0     C88754   8.681   1.918   9.505 -0.0132 -0.1471 -0.7480
  644MOL0     C88755   8.705   2.061   9.572 -0.1863  0.3005 -0.9637
  644MOL0     C88756   8.768   2.060   9.717 -0.7130  0.2568  0.7497
  644MOL0     C88757   8.900   1.980   9.731 -0.0452 -0.8230 -0.3788
  644MOL0     O88758   8.967   2.009   9.609  0.0882 -0.5156  1.0666
  644MOL0     C88759   9.101   2.015   9.597  0.1553 -0.2952 -0.7241
  644MOL0     C88760   9.159   2.044   9.471 -0.1073 -0.1305 -0.5128
  644MOL0     C88761   9.303   2.060   9.449 -0.1130  0.1583 -0.6170
  644MOL0     C88762   9.345   2.101   9.307 -0.8472  0.1265 -0.5370
  644MOL0     C88763   9.396   2.034   9.561 -0.4058  0.2491  0.2169
  644MOL0     C88764   9.543   2.040   9.546  0.3004  0.3377 -0.4471
  644MOL0     O88765   9.585   2.052   9.416 -0.5882 -0.2073 -0.3734
  644MOL0     C88766   9.714   2.092   9.410  0.9231 -0.6064 -0.0243
  644MOL0     C88767   9.815   2.004   9.432  0.5702 -0.4037 -0.7077
  644MOL0     C88768   9.948   2.050   9.431 -0.4844 -0.3184 -0.5045
  644MOL0     C88769   9.978   2.177   9.389 -0.1196  0.2395 -0.6252
  644MOL0     O88770  10.107   2.228   9.382  0.1665  0.1918  0.3417
  644MOL0     C88771  10.219   2.154   9.444  0.2899 -0.0922 -0.1723
  644MOL0     C88772  10.332   2.257   9.463 -0.4734 -0.2245 -0.3257
  644MOL0     C88773  10.307   2.351   9.579 -0.7445  0.8211 -0.3242
  644MOL0     C88774  10.400   2.474   9.582  0.2804 -0.3522  0.2140
  644MOL0     C88775  10.374   2.536   9.720  0.3496  0.7319  0.4675
  644MOL0     C88776  10.468   2.651   9.749  0.0398  0.3770  0.3024
  644MOL0     C88777  10.434   2.738   9.872  0.6935  0.8603 -0.8042
  644MOL0     C88778  10.512   2.864   9.868  0.3945  0.0423  0.0189
  644MOL0    Cl88779  10.503   2.939  10.027 -0.1252  0.2101 -0.4463
  644MOL0     C88780   9.876   2.250   9.340  0.9685 -0.0708  0.4284
  644MOL0     C88781   9.744   2.218   9.362  0.0030  0.6500 -0.6094
  644MOL0     O88782   9.613   2.053   9.647  0.2034  0.5312  0.3680
  644MOL0     C88783   9.325   2.006   9.683  0.7062  0.1411 -0.0139
  644MOL0     C88784   9.186   1.999   9.704 -0.2941  0.4060 -0.6831
  644MOL0     N88785   8.569   1.767   9.673  0.6060 -0.0250  0.5861
  644MOL0     N88786   8.445   1.740   9.699  0.9871 -0.6382  0.2246
  644MOL0     C88787   7.235   1.973  10.053 -0.1531 -0.0591  0.8354
  644MOL0     C88788   7.125   1.994  10.138  0.3637  0.4600 -0.4674
  644MOL0     C88789   6.720   2.086  10.311  0.3197  0.3506 -0.4385
  644MOL0     C88790   6.725   1.991  10.410 -0.6145  0.2219  0.4836
  644MOL0     C88791   6.628   1.972  10.511 -0.4819  0.1953  0.4839
  644MOL0     C88792   6.513   2.054  10.514 -0.3711  0.7458  0.3405
  644MOL0     O88793   6.410   2.035  10.604 -0.3683 -0.0632  0.1076
  644MOL0     C88794   6.400   1.921  10.693 -0.4898  0.5238 -0.2268
  644MOL0     C88795   6.494   1.919  10.815 -0.6352 -0.9344  0.1346
  644MOL0     C88796   6.463   2.040  10.904  0.4022 -0.0706  0.1567
  644MOL0     C88797   6.339   2.012  10.982 -0.2068  0.4046 -0.4866
  644MOL0     C88798   6.256   2.136  11.013 -0.4483  1.2191 -0.1395
  644MOL0     C88799   6.206   2.245  11.029 -1.3270  0.1570  0.1646
  644MOL0     C88800   6.511   2.162  10.417  0.4138 -0.7997 -0.1114
  644MOL0     C88801   6.612   2.180  10.319 -0.6898  0.5028  0.9565
  644MOL0     C88802   6.590   2.301  10.225  0.4305  0.2087 -0.0339
  644MOL0     H88803   6.872   1.883   9.954  0.2146  1.1605 -0.3167
  644MOL0     H88804   7.062   1.845   9.793  0.9089 -0.2923 -0.9717
  644MOL0     H88805   7.443   1.804   9.979 -1.0437 -0.9666 -1.0066
  644MOL0     H88806   7.479   1.963   9.922  2.4928 -0.9832  0.5250
  644MOL0     H88807   7.527   1.703   9.784  0.6107  0.7406 -1.9562
  644MOL0     H88808   7.520   1.846   9.686 -0.8835  0.0892 -0.3718
  644MOL0     H88809   7.727   1.929   9.843  1.3579  0.5957 -1.6048
  644MOL0     H88810   7.730   1.757   9.877 -1.1777  0.3282  1.0210
  644MOL0     H88811   7.759   1.693   9.641  0.9899 -1.2863  2.1271
  644MOL0     H88812   7.762   1.863   9.592 -1.7213  2.7515  2.0877
  644MOL0     H88813   7.972   1.757   9.617  0.0784  0.9814 -0.2432
  644MOL0     H88814   7.949   1.716   9.794 -0.1829  2.7884  1.9548
  644MOL0     H88815   7.967   1.993   9.654 -1.0674  1.7668  1.8639
  644MOL0     H88816   7.970   1.992   9.817  2.8134  0.5910 -0.0433
  644MOL0     H88817   8.184   1.899   9.838 -2.7090  0.3603  1.3442
  644MOL0     H88818   8.194   2.016   9.707  0.6969 -0.8783 -0.7123
  644MOL0     H88819   8.188   1.716   9.670 -0.8312 -0.3660 -1.4642
  644MOL0     H88820   8.173   1.824   9.541 -0.0326 -0.3768 -0.5118
  644MOL0     H88821   8.411   1.982   9.489 -3.7313 -0.0469  1.4408
  644MOL0     H88822   8.655   1.927   9.399  1.7580 -2.2661 -1.4401
  644MOL0     H88823   8.773   1.861   9.512 -1.8535 -3.1283  1.2120
  644MOL0     H88824   8.772   2.116   9.505 -0.8227 -0.8566 -2.6290
  644MOL0     H88825   8.615   2.123   9.567  0.7791  1.7041 -1.9928
  644MOL0     H88826   8.779   2.166   9.744 -0.2394 -0.0337  1.7549
  644MOL0     H88827   8.708   2.015   9.797  0.4992 -2.0571  0.4248
  644MOL0     H88828   8.948   2.024   9.818 -2.9594  3.6649 -0.7091
  644MOL0     H88829   8.880   1.873   9.743  0.3857 -0.8789 -0.1323
  644MOL0     H88830   9.095   2.059   9.385  0.7313 -2.2688 -1.5676
  644MOL0     H88831   9.394   2.020   9.251 -1.1290 -1.3951  1.3297
  644MOL0     H88832   9.407   2.191   9.307 -0.6801  0.0129 -0.5882
  644MOL0     H88833   9.256   2.126   9.249 -1.1072  3.7347  1.1495
  644MOL0     H88834   9.798   1.904   9.470  2.2384 -0.1185  0.9371
  644MOL0     H88835  10.027   1.982   9.460  0.1854  1.5483  2.4806
  644MOL0     H88836  10.188   2.110   9.539 -0.5368 -0.7797 -0.7415
  644MOL0     H88837  10.257   2.067   9.389 -2.1323 -1.9554  0.8959
  644MOL0     H88838  10.430   2.212   9.484 -1.4674 -1.6403  1.6477
  644MOL0     H88839  10.346   2.324   9.378  2.7837 -0.0893  0.1540
  644MOL0     H88840  10.315   2.289   9.668 -2.2433  1.0507  0.0121
  644MOL0     H88841  10.201   2.379   9.584 -1.2849 -1.0353  4.6728
  644MOL0     H88842  10.376   2.540   9.498  3.5290 -0.9733 -1.3288
  644MOL0     H88843  10.502   2.438   9.566 -0.0295 -0.0264 -3.2107
  644MOL0     H88844  10.269   2.567   9.721  0.4971  1.2536  1.7183
  644MOL0     H88845  10.389   2.462   9.799  0.2346 -0.4998 -0.6327
  644MOL0     H88846  10.458   2.711   9.658  2.1545  0.5442  0.1381
  644MOL0     H88847  10.572   2.619   9.755 -0.1062 -0.1368  0.1989
  644MOL0     H88848  10.455   2.685   9.966  1.8351  2.1070 -0.3213
  644MOL0     H88849  10.327   2.758   9.873  0.0101 -1.5517  3.5579
  644MOL0     H88850  10.483   2.932   9.788 -0.0569  1.6724  1.4920
  644MOL0     H88851  10.619   2.843   9.862  0.7258  1.3541  0.9326
  644MOL0     H88852   9.899   2.344   9.291  0.9406  0.4468  1.3881
  644MOL0     H88853   9.660   2.280   9.334 -3.0113 -3.8090 -2.6088
  644MOL0     H88854   9.392   1.997   9.768  2.3048 -0.3105 -1.2708
  644MOL0     H88855   9.152   1.995   9.807 -1.5909  0.2907 -1.0976
  644MOL0     H88856   7.336   1.991  10.089  0.6557 -3.0029  0.3636
  644MOL0     H88857   7.140   2.042  10.234 -2.2468  1.8098 -0.6539
  644MOL0     H88858   6.810   1.925  10.421  0.2058  0.7868 -1.9324
  644MOL0     H88859   6.639   1.890  10.581 -0.3126  2.0368  2.7495
  644MOL0     H88860   6.297   1.917  10.730 -0.2455 -2.6006  0.3490
  644MOL0     H88861   6.425   1.836  10.629  1.2088  1.6491 -1.1323
  644MOL0     H88862   6.597   1.924  10.779 -0.2877 -2.0213  0.9481
  644MOL0     H88863   6.486   1.826  10.872  0.5092 -0.9104  0.3603
  644MOL0     H88864   6.551   2.057  10.966  1.2554 -1.7154 -0.5415
  644MOL0     H88865   6.442   2.126  10.839  1.1834  0.0046 -0.0081
  644MOL0     H88866   6.370   1.968  11.077 -0.3748 -3.5374 -2.0795
  644MOL0     H88867   6.274   1.939  10.933 -0.2159 -0.0964  0.2622
  644MOL0     H88868   6.167   2.343  11.050 -0.8543  1.1388 -3.0053
  644MOL0     H88869   6.433   2.237  10.419  0.8586 -0.1653 -2.8906
  644MOL0     H88870   6.523   2.274  10.143  1.7305 -1.5704 -0.5830
  644MOL0     H88871   6.541   2.391  10.263 -3.0450 -0.6529 -2.0284
  644MOL0     H88872   6.681   2.338  10.176  0.0242 -2.2245 -2.9069
  645MOL0     O88873  10.176   2.794   0.639 -0.2837  0.3595 -0.3490
  645MOL0     C88874  10.111   2.850   0.730  0.6430 -1.3480  0.5199
  645MOL0     O88875  10.176   2.898   0.839 -0.1300  0.1345  0.1605
  645MOL0     C88876  10.306   2.876   0.861 -0.6880  0.2265 -0.1182
  645MOL0     C88877  10.384   2.977   0.906  0.0037  0.4663  0.1734
  645MOL0     C88878  10.521   2.960   0.940 -0.3180 -0.4383 -0.8474
  645MOL0     C88879  10.575   2.836   0.924 -0.0919  0.7856 -0.8819
  645MOL0     O88880  10.701   2.802   0.967 -0.4606 -1.1302 -0.3419
  645MOL0     C88881  10.814   2.880   0.923  0.5486 -0.4614 -0.0698
  645MOL0     C88882  10.844   2.829   0.782 -0.4201  0.3128  0.3403
  645MOL0     C88883  10.909   2.690   0.783 -1.1050 -0.0884 -0.7260
  645MOL0     C88884  10.985   2.664   0.652 -0.3225  0.7924 -0.0416
  645MOL0     C88885  11.094   2.556   0.657 -0.6021 -0.5347 -0.3730
  645MOL0     C88886  11.201   2.559   0.772 -0.6462  0.4733 -0.0781
  645MOL0     C88887  11.307   2.447   0.772  0.5898 -0.0082 -0.3220
  645MOL0     C88888  11.246   2.307   0.765  0.3028  0.2481 -0.6483
  645MOL0     N88889  11.330   2.207   0.821 -1.5477  0.0471 -0.0302
  645MOL0     C88890  11.468   2.192   0.824 -0.2825  0.3795  0.3790
  645MOL0     C88891  11.499   2.076   0.890  0.5222  0.3608 -0.5318
  645MOL0     C88892  11.629   2.007   0.905  0.1401 -0.4269 -0.4701
  645MOL0     C88893  11.663   1.956   1.051  0.0168 -0.9380 -1.1618
  645MOL0     C88894  11.696   2.086   1.125  0.0046  1.0372 -0.6641
  645MOL0     C88895  11.770   2.068   1.259 -1.1227  0.3641  0.1797
  645MOL0     O88896  11.909   2.029   1.257 -0.3375  0.4164  0.1728
  645MOL0     C88897  12.014   2.113   1.233 -0.4577 -0.1197  0.2683
  645MOL0     C88898  12.142   2.062   1.208  0.6115 -0.4455 -0.1820
  645MOL0     C88899  12.254   2.138   1.176  0.4707 -0.4907  0.1721
  645MOL0     C88900  12.386   2.077   1.144 -0.0110  0.8323  0.2058
  645MOL0     C88901  12.241   2.278   1.174 -0.2942  0.3545  0.5996
  645MOL0     C88902  12.355   2.372   1.160  0.1747  0.3488 -0.4367
  645MOL0     O88903  12.311   2.496   1.116 -0.3914  0.7522  0.6236
  645MOL0     C88904  12.395   2.605   1.117 -0.6405  0.0932  0.1730
  645MOL0     C88905  12.478   2.624   1.004 -0.2711  0.0056 -0.4659
  645MOL0     C88906  12.547   2.745   0.997 -0.4182 -1.0618  0.1727
  645MOL0     C88907  12.533   2.849   1.088  0.5259 -0.1677  0.4482
  645MOL0     O88908  12.595   2.971   1.070 -0.6094 -0.4796  0.5021
  645MOL0     C88909  12.701   2.995   1.156 -0.0697 -0.6746 -1.1366
  645MOL0     C88910  12.815   3.074   1.074 -0.5973  0.5288 -0.1543
  645MOL0     C88911  12.929   3.131   1.165 -0.2337  0.1390  0.3711
  645MOL0     C88912  12.977   3.275   1.139  0.1762 -0.9305  0.4084
  645MOL0     C88913  13.107   3.309   1.209  0.0730 -0.4759  0.7655
  645MOL0     C88914  13.178   3.403   1.114  0.2991 -0.3543 -1.4127
  645MOL0     C88915  13.291   3.471   1.189 -0.1134 -0.3711  0.2580
  645MOL0     C88916  13.386   3.535   1.086 -0.3178  0.2617 -0.0120
  645MOL0    Cl88917  13.503   3.429   1.026  0.3191  0.6250  0.1358
  645MOL0     C88918  12.460   2.823   1.199  1.0328  0.1234 -0.4215
  645MOL0     C88919  12.390   2.702   1.213  0.0975  0.2833 -0.0879
  645MOL0     O88920  12.467   2.337   1.194  0.3596 -0.1212 -0.3313
  645MOL0     C88921  12.110   2.332   1.189  0.4164  0.2260  0.1812
  645MOL0     C88922  11.997   2.251   1.222 -0.9081 -0.6293  0.3008
  645MOL0     N88923  11.378   2.014   0.908  0.0519 -0.3071 -0.2743
  645MOL0     N88924  11.284   2.087   0.866  0.4950 -0.0813  0.1241
  645MOL0     C88925  10.499   2.728   0.869 -0.3642  0.3995 -0.7324
  645MOL0     C88926  10.366   2.748   0.837  0.2317  0.4537  0.1032
  645MOL0     C88927   9.962   2.861   0.734 -0.0721 -0.3054 -0.1167
  645MOL0     C88928   9.887   2.796   0.632  0.3111  0.1261 -0.8541
  645MOL0     C88929   9.741   2.816   0.622 -0.0708  0.3658  0.3705
  645MOL0     C88930   9.677   2.898   0.708 -0.2473  0.1190  0.1134
  645MOL0     O88931   9.541   2.894   0.726  1.0576  0.5340 -0.3771
  645MOL0     C88932   9.440   2.821   0.642 -0.3728  0.8616  0.5383
  645MOL0     C88933   9.300   2.873   0.662  1.0360  0.1789 -1.2649
  645MOL0     C88934   9.194   2.779   0.598  0.1353 -0.5467 -0.2139
  645MOL0     C88935   9.064   2.856   0.572  0.2729 -0.4297  0.4864
  645MOL0     C88936   9.003   2.887   0.702 -0.3772 -0.4341 -0.1144
  645MOL0     C88937   8.954   2.924   0.809 -0.3855  0.2200  0.4927
  645MOL0     C88938   9.749   2.956   0.814 -0.0496  0.3612 -0.2286
  645MOL0     C88939   9.890   2.948   0.818 -0.1889 -0.2076 -0.9764
  645MOL0     C88940   9.961   3.051   0.914  0.0473 -0.4272  0.3683
  645MOL0     H88941  10.331   3.069   0.929 -1.3972 -0.1587 -0.4145
  645MOL0     H88942  10.584   3.032   0.992  1.0470 -0.9103 -1.8059
  645MOL0     H88943  10.897   2.866   0.992  1.3360  0.6918 -0.7635
  645MOL0     H88944  10.796   2.988   0.927 -0.3934 -0.6237  0.6061
  645MOL0     H88945  10.758   2.835   0.714  1.3202 -0.0038 -2.0178
  645MOL0     H88946  10.931   2.891   0.755  0.6609 -0.3057  2.2377
  645MOL0     H88947  10.975   2.676   0.869 -0.3189 -0.9076 -1.4422
  645MOL0     H88948  10.825   2.621   0.797  0.9978 -2.4585  1.2617
  645MOL0     H88949  10.914   2.635   0.574 -0.2445  0.5637 -0.0277
  645MOL0     H88950  11.039   2.754   0.620 -0.1699  0.1985 -1.5374
  645MOL0     H88951  11.144   2.558   0.560  0.9744 -0.5248  0.4086
  645MOL0     H88952  11.030   2.467   0.657 -1.1501 -0.1496 -1.0572
  645MOL0     H88953  11.247   2.658   0.772  0.4813 -0.0060  1.7937
  645MOL0     H88954  11.147   2.554   0.867 -1.9632  1.0777 -0.7711
  645MOL0     H88955  11.359   2.449   0.868 -3.7670 -1.3806  2.3261
  645MOL0     H88956  11.378   2.462   0.690  0.4237  1.0904 -0.2794
  645MOL0     H88957  11.149   2.297   0.813 -0.5357 -1.2532 -2.5001
  645MOL0     H88958  11.216   2.282   0.663  1.1338  0.3677 -0.9306
  645MOL0     H88959  11.546   2.244   0.771  0.1096  0.1115  0.6892
  645MOL0     H88960  11.705   2.073   0.864  0.9643 -0.6261  0.7008
  645MOL0     H88961  11.618   1.919   0.840 -0.0612 -0.6685 -0.1141
  645MOL0     H88962  11.573   1.905   1.089 -0.3587  0.6809  0.2480
  645MOL0     H88963  11.746   1.885   1.050 -0.4974 -1.5817 -0.2716
  645MOL0     H88964  11.750   2.145   1.050  1.1215  1.3410  0.3535
  645MOL0     H88965  11.609   2.150   1.145  1.1573  2.3531  0.2854
  645MOL0     H88966  11.769   2.156   1.323  3.7097  1.9058 -1.4277
  645MOL0     H88967  11.708   1.998   1.315 -1.8701  0.1195 -0.9287
  645MOL0     H88968  12.159   1.955   1.212  1.5859 -0.2461  1.5430
  645MOL0     H88969  12.432   2.123   1.056  1.7085  0.7481  1.0206
  645MOL0     H88970  12.365   1.973   1.120  0.0117  1.1215 -1.1229
  645MOL0     H88971  12.463   2.078   1.222  1.3600 -0.8203 -1.0602
  645MOL0     H88972  12.478   2.546   0.929 -1.4786  1.1647 -1.7197
  645MOL0     H88973  12.607   2.768   0.909 -0.1709  2.6194  1.1813
  645MOL0     H88974  12.662   3.054   1.240 -0.8651 -1.5728 -0.8670
  645MOL0     H88975  12.745   2.904   1.197  2.9043  0.2419 -1.9632
  645MOL0     H88976  12.866   3.009   1.003  0.5485  0.3582  0.7979
  645MOL0     H88977  12.767   3.157   1.021  0.9411  1.1352 -0.6530
  645MOL0     H88978  13.012   3.063   1.143 -1.8621 -2.1793  1.0267
  645MOL0     H88979  12.907   3.118   1.271  2.5507 -0.5325  0.9618
  645MOL0     H88980  12.896   3.341   1.169  0.9964  1.1754 -1.7469
  645MOL0     H88981  12.989   3.287   1.031 -0.5578  1.1726  0.5339
  645MOL0     H88982  13.085   3.356   1.305  0.4452 -1.6106  1.4250
  645MOL0     H88983  13.174   3.224   1.221 -1.3892 -2.1132 -1.6276
  645MOL0     H88984  13.102   3.472   1.077  1.9686  1.8167 -1.0347
  645MOL0     H88985  13.219   3.353   1.025  1.7467  0.1106 -1.0425
  645MOL0     H88986  13.340   3.388   1.240  1.1088 -0.5873 -1.1794
  645MOL0     H88987  13.247   3.541   1.260  1.6154  1.9456 -0.8109
  645MOL0     H88988  13.423   3.629   1.128 -1.8577 -0.0785  2.3037
  645MOL0     H88989  13.329   3.557   0.996 -3.4006  0.4255  1.8258
  645MOL0     H88990  12.436   2.895   1.276  0.5007 -3.9786  3.7152
  645MOL0     H88991  12.315   2.687   1.290 -0.5260 -2.0258 -1.0617
  645MOL0     H88992  12.090   2.439   1.193 -2.0983 -0.2224  1.7433
  645MOL0     H88993  11.906   2.308   1.241 -2.2387 -1.2644 -3.3643
  645MOL0     H88994  10.547   2.630   0.865 -2.0668 -0.5072 -0.0863
  645MOL0     H88995  10.303   2.667   0.803  0.2124  0.8330 -0.7963
  645MOL0     H88996   9.933   2.733   0.557  1.3339 -1.5128  1.0604
  645MOL0     H88997   9.694   2.772   0.535  1.4439  1.4841 -1.0744
  645MOL0     H88998   9.470   2.832   0.538  1.3384 -2.1380  0.5930
  645MOL0     H88999   9.445   2.717   0.675 -1.1295  1.1760  1.7265
  645MOL0     H89000   9.291   2.965   0.604 -0.3159  0.8395 -0.0737
  645MOL0     H89001   9.270   2.897   0.764 -1.5751 -1.6191 -1.5316
  645MOL0     H89002   9.237   2.747   0.503  0.4839 -0.8488  0.0402
  645MOL0     H89003   9.168   2.696   0.665  0.7743 -0.2810  0.3778
  645MOL0     H89004   8.992   2.803   0.509  1.5215 -1.8073  0.1608
  645MOL0     H89005   9.080   2.947   0.514  1.6681  0.1263  1.6717
  645MOL0     H89006   8.917   2.969   0.899 -0.5261  1.9424 -0.3851
  645MOL0     H89007   9.694   3.018   0.884 -0.3387 -0.7601  0.5670
  645MOL0     H89008  10.015   3.000   0.994  2.3574 -0.9098 -1.4174
  645MOL0     H89009  10.021   3.126   0.862  1.2720  0.0586  2.3673
  645MOL0     H89010   9.884   3.104   0.971  0.4210  1.3826 -0.7336
  646MOL0     O89011   9.548   2.340   8.825 -0.1682  0.4022 -0.2413
  646MOL0     C89012   9.504   2.289   8.724 -0.0245 -1.1263 -0.2383
  646MOL0     O89013   9.579   2.276   8.614  0.5706  0.2096 -0.7642
  646MOL0     C89014   9.710   2.269   8.631  0.4510  0.1513 -0.1339
  646MOL0     C89015   9.794   2.376   8.656 -0.6115  0.6719 -0.2332
  646MOL0     C89016   9.936   2.361   8.665  0.2775 -0.4603 -0.0187
  646MOL0     C89017   9.999   2.240   8.642 -0.1211  0.6967 -0.0973
  646MOL0     O89018  10.133   2.217   8.643 -0.2264 -0.5771 -0.4812
  646MOL0     C89019  10.215   2.310   8.718 -0.6693  0.1749  0.7759
  646MOL0     C89020  10.361   2.270   8.758 -0.0757  0.7627  0.1649
  646MOL0     C89021  10.448   2.266   8.633 -0.0984  0.1968  0.4513
  646MOL0     C89022  10.586   2.205   8.657 -1.0021 -1.1501 -0.2399
  646MOL0     C89023  10.577   2.049   8.666 -0.0944  0.1558 -0.6623
  646MOL0     C89024  10.723   1.997   8.687 -0.5385 -0.1704  0.5433
  646MOL0     C89025  10.735   1.846   8.657 -0.6874 -0.0557  0.1043
  646MOL0     C89026  10.884   1.815   8.648  0.5394 -0.5469  0.4118
  646MOL0     N89027  10.911   1.669   8.618 -0.4652  0.2082 -0.0930
  646MOL0     C89028  10.843   1.564   8.675 -0.5820 -1.4234  0.2001
  646MOL0     C89029  10.900   1.455   8.628  0.3659  0.3151 -0.4951
  646MOL0     C89030  10.868   1.312   8.661 -0.0995 -0.8983  0.2002
  646MOL0     C89031  10.801   1.298   8.798  0.0291  0.6916  0.0367
  646MOL0     C89032  10.722   1.159   8.807  1.0486 -0.2690  0.1644
  646MOL0     C89033  10.709   1.106   8.951 -0.9955  0.7251  0.4858
  646MOL0     O89034  10.699   0.964   8.950 -0.1372  0.8261 -0.4645
  646MOL0     C89035  10.585   0.890   8.922 -0.3457 -0.1656  0.3337
  646MOL0     C89036  10.611   0.755   8.905 -0.1900 -0.1487  0.8222
  646MOL0     C89037  10.497   0.668   8.890 -0.0733  0.9059 -0.2694
  646MOL0     C89038  10.529   0.520   8.880 -0.4465  0.3568 -0.1374
  646MOL0     C89039  10.363   0.714   8.877  0.4441  0.5588 -0.4794
  646MOL0     C89040  10.241   0.625   8.844  0.3934 -0.6682  0.4088
  646MOL0     O89041  10.152   0.689   8.767  0.9687  0.1822 -0.0917
  646MOL0     C89042  10.033   0.624   8.747 -0.6330  0.0873 -0.8695
  646MOL0     C89043   9.992   0.603   8.621  0.7162 -0.0885 -0.0131
  646MOL0     C89044   9.862   0.556   8.595  0.6514 -0.0528  0.1587
  646MOL0     C89045   9.771   0.527   8.694 -0.2094 -0.0011  0.5868
  646MOL0     O89046   9.648   0.470   8.661 -0.3609  0.2795 -0.1816
  646MOL0     C89047   9.531   0.508   8.727 -1.4951  0.3528  0.1995
  646MOL0     C89048   9.461   0.613   8.654  0.1159 -0.0153 -0.7439
  646MOL0     C89049   9.316   0.637   8.713 -1.0077 -0.2449  0.1997
  646MOL0     C89050   9.251   0.753   8.637 -0.1903  0.2809 -0.6532
  646MOL0     C89051   9.108   0.773   8.693 -0.3021  0.8249  0.0982
  646MOL0     C89052   9.034   0.878   8.600 -0.5221 -0.0736 -0.7501
  646MOL0     C89053   8.885   0.893   8.625  0.0266  0.2878 -0.1241
  646MOL0     C89054   8.811   0.771   8.570  0.4524 -0.1779 -0.3980
  646MOL0    Cl89055   8.646   0.797   8.597  0.7063  0.1023 -0.2613
  646MOL0     C89056   9.818   0.548   8.826  0.3909  0.4307  0.2502
  646MOL0     C89057   9.947   0.593   8.850  0.3588 -0.3656  0.1601
  646MOL0     O89058  10.234   0.505   8.875  0.1469 -0.2381  0.7870
  646MOL0     C89059  10.348   0.853   8.891  0.6816  0.2550  0.3217
  646MOL0     C89060  10.455   0.942   8.913  0.0183 -0.1323 -0.2147
  646MOL0     N89061  11.002   1.490   8.549  0.1755 -0.1675  0.1278
  646MOL0     N89062  11.013   1.616   8.544 -0.3867 -1.3158  0.5018
  646MOL0     C89063   9.914   2.146   8.584 -0.2162 -0.2021 -0.6390
  646MOL0     C89064   9.771   2.151   8.587 -0.3311  0.5394 -0.5995
  646MOL0     C89065   9.354   2.284   8.711 -0.1207  0.2484  0.4615
  646MOL0     C89066   9.304   2.280   8.577 -0.5306  0.0681 -0.0984
  646MOL0     C89067   9.175   2.271   8.553  0.0730  0.6604  0.0500
  646MOL0     C89068   9.083   2.259   8.648 -0.0421  0.4792  0.3460
  646MOL0     O89069   8.950   2.267   8.613  1.0211  0.0740  0.2199
  646MOL0     C89070   8.845   2.228   8.712 -0.0475 -0.6430  0.5980
  646MOL0     C89071   8.713   2.195   8.636 -0.3044 -0.0493 -0.8084
  646MOL0     C89072   8.587   2.161   8.715  0.5013 -0.6965 -0.2766
  646MOL0     C89073   8.554   2.280   8.800 -0.3948  0.1892 -0.4488
  646MOL0     C89074   8.432   2.264   8.879 -0.3659 -1.1798  0.3071
  646MOL0     C89075   8.341   2.221   8.939 -0.0235 -0.5884 -0.0792
  646MOL0     C89076   9.124   2.257   8.783 -0.1997  0.0835  0.6724
  646MOL0     C89077   9.262   2.271   8.818  0.2639 -0.4425  0.0560
  646MOL0     C89078   9.290   2.255   8.966  0.6214 -0.9752 -0.1403
  646MOL0     H89079   9.755   2.477   8.671  0.8743  1.3810 -0.8841
  646MOL0     H89080   9.993   2.451   8.685  1.4905 -1.4081  0.8988
  646MOL0     H89081  10.164   2.341   8.809 -0.5616 -1.4714  1.4201
  646MOL0     H89082  10.217   2.399   8.654 -0.7689 -0.8106 -0.6367
  646MOL0     H89083  10.394   2.341   8.834  1.1587  1.1038 -0.6550
  646MOL0     H89084  10.358   2.169   8.800  0.0024  0.1328 -1.2814
  646MOL0     H89085  10.399   2.209   8.554  0.1453 -0.5466  0.8294
  646MOL0     H89086  10.468   2.368   8.598  3.2203  0.1445  1.8139
  646MOL0     H89087  10.644   2.241   8.572 -1.2307  0.3921  0.2251
  646MOL0     H89088  10.626   2.262   8.742 -3.5751  2.9426 -1.4861
  646MOL0     H89089  10.528   2.009   8.577 -0.8125 -0.8762  0.1635
  646MOL0     H89090  10.513   2.018   8.749  2.9555  1.0466  2.2179
  646MOL0     H89091  10.789   2.055   8.622  0.1001 -1.1870  0.2678
  646MOL0     H89092  10.748   2.007   8.793  1.3681 -3.4819  0.5293
  646MOL0     H89093  10.688   1.828   8.560  1.4450 -0.6816 -0.8723
  646MOL0     H89094  10.695   1.781   8.735 -0.2530  2.0336  2.1701
  646MOL0     H89095  10.923   1.880   8.570 -0.0904 -2.5137 -1.6723
  646MOL0     H89096  10.944   1.850   8.733 -1.0481 -0.9895  1.7784
  646MOL0     H89097  10.758   1.578   8.742  0.9604  2.5338  1.6144
  646MOL0     H89098  10.967   1.268   8.674  0.2559  0.2511  1.6244
  646MOL0     H89099  10.811   1.258   8.585 -2.7366 -0.3626  1.6980
  646MOL0     H89100  10.867   1.315   8.883 -1.9988  0.6795  1.7123
  646MOL0     H89101  10.726   1.376   8.811 -1.1505 -0.7055  2.2005
  646MOL0     H89102  10.623   1.180   8.766  1.0285  0.6727  0.6651
  646MOL0     H89103  10.778   1.086   8.748  1.6428  1.9335 -2.1682
  646MOL0     H89104  10.793   1.146   9.009 -2.2375  1.7123  1.6906
  646MOL0     H89105  10.624   1.148   9.006 -0.9014  0.5674  0.7557
  646MOL0     H89106  10.711   0.712   8.914  0.3623  0.1324 -2.4835
  646MOL0     H89107  10.501   0.487   8.780  2.7068 -0.6670 -0.7950
  646MOL0     H89108  10.478   0.452   8.949  1.6695 -0.4021  0.7743
  646MOL0     H89109  10.635   0.502   8.901 -1.3521 -0.6899  4.8008
  646MOL0     H89110  10.056   0.628   8.536  4.9408 -1.8458  2.3150
  646MOL0     H89111   9.837   0.546   8.489  0.0833  1.7198  0.0982
  646MOL0     H89112   9.471   0.417   8.730  0.0294 -0.7452 -1.1715
  646MOL0     H89113   9.550   0.554   8.825  0.1408  2.7252 -1.1101
  646MOL0     H89114   9.527   0.700   8.663 -0.2621  0.1047  1.4996
  646MOL0     H89115   9.456   0.592   8.547  3.1255  1.8068 -1.3601
  646MOL0     H89116   9.323   0.663   8.819  0.7920  0.1949  0.0134
  646MOL0     H89117   9.257   0.548   8.689 -2.6448  1.0308 -0.7282
  646MOL0     H89118   9.251   0.713   8.535  0.5699 -0.2638 -0.4489
  646MOL0     H89119   9.303   0.848   8.653 -0.6760  0.3908  0.3059
  646MOL0     H89120   9.052   0.680   8.685  2.8255 -1.4244  2.2578
  646MOL0     H89121   9.100   0.805   8.797  0.6632  0.2298  0.3684
  646MOL0     H89122   9.059   0.859   8.496  0.7528  0.2895 -0.5358
  646MOL0     H89123   9.066   0.979   8.630  1.3238 -1.5114  2.7915
  646MOL0     H89124   8.852   0.969   8.554  0.1490  0.4885  0.0334
  646MOL0     H89125   8.859   0.933   8.724 -3.0802  0.4963 -0.9450
  646MOL0     H89126   8.843   0.679   8.618  0.4917 -0.0857 -0.2479
  646MOL0     H89127   8.829   0.763   8.462 -0.5908 -1.5427 -0.4992
  646MOL0     H89128   9.754   0.527   8.911 -0.4119  1.7961  0.0008
  646MOL0     H89129   9.974   0.615   8.953 -1.0378  0.8097  0.3007
  646MOL0     H89130  10.259   0.914   8.879  0.3336 -0.0812  1.0850
  646MOL0     H89131  10.435   1.047   8.932 -2.0653 -0.6522  0.9466
  646MOL0     H89132   9.965   2.060   8.542  1.0318  0.7526 -1.1364
  646MOL0     H89133   9.714   2.064   8.555 -0.4977 -0.2476  1.6435
  646MOL0     H89134   9.385   2.289   8.506  1.8928 -1.8354  2.2148
  646MOL0     H89135   9.140   2.274   8.450  0.7564  2.2167 -0.1654
  646MOL0     H89136   8.877   2.139   8.767  1.8426 -2.2810 -2.7713
  646MOL0     H89137   8.833   2.312   8.780 -2.7712  0.7076 -1.3318
  646MOL0     H89138   8.738   2.099   8.589 -1.2204  0.1460 -1.7220
  646MOL0     H89139   8.688   2.271   8.562 -1.6073  0.3621  0.0045
  646MOL0     H89140   8.503   2.137   8.650  0.0931  2.2459 -0.9742
  646MOL0     H89141   8.599   2.076   8.783  0.1629  0.8589  1.8395
  646MOL0     H89142   8.556   2.372   8.740  3.6928  1.6541  1.5809
  646MOL0     H89143   8.637   2.299   8.868  0.3085  1.6531 -1.6470
  646MOL0     H89144   8.258   2.180   8.993 -0.0199  1.6189  1.7436
  646MOL0     H89145   9.050   2.241   8.860 -0.1928 -0.7895  0.5100
  646MOL0     H89146   9.352   2.335   9.007 -0.4980 -0.7626  1.2465
  646MOL0     H89147   9.202   2.267   9.030  1.1335 -1.3010  0.6360
  646MOL0     H89148   9.344   2.161   8.980  2.8890  0.0579 -1.5271
  647MOL0     O89149   2.118   1.252   1.059  0.1165 -1.3090 -0.3679
  647MOL0     C89150   2.191   1.159   1.041 -0.2720 -1.0276  0.1482
  647MOL0     O89151   2.290   1.158   0.944 -0.5288  0.8945 -0.1709
  647MOL0     C89152   2.363   1.281   0.940  0.0446  0.0054  0.0631
  647MOL0     C89153   2.367   1.344   0.815 -0.5990  0.2548  0.0800
  647MOL0     C89154   2.440   1.464   0.805  0.0331 -0.1343  0.9005
  647MOL0     C89155   2.513   1.523   0.912  0.5441  0.6041  0.7675
  647MOL0     O89156   2.577   1.642   0.895 -0.2508 -0.3335 -0.6404
  647MOL0     C89157   2.565   1.741   0.988 -0.2222 -1.3091 -0.2321
  647MOL0     C89158   2.611   1.879   0.933 -0.3079 -0.2448 -0.0779
  647MOL0     C89159   2.761   1.890   0.907  0.7961 -0.2700  0.0603
  647MOL0     C89160   2.793   2.036   0.878  0.8848 -0.4228  0.1239
  647MOL0     C89161   2.804   2.070   0.730  0.0190  0.6326  0.5264
  647MOL0     C89162   2.858   2.214   0.727  0.1978  0.1888 -0.3356
  647MOL0     C89163   2.866   2.269   0.587 -0.0460  0.4609 -0.5674
  647MOL0     C89164   2.894   2.414   0.594  0.0274  0.6451  0.5165
  647MOL0     N89165   3.014   2.462   0.658 -0.2634  0.9454  0.0100
  647MOL0     C89166   3.145   2.445   0.617 -0.0715  0.2192 -0.2853
  647MOL0     C89167   3.225   2.505   0.709  0.0488 -0.0475  0.4788
  647MOL0     C89168   3.377   2.501   0.713  0.8425 -0.4351  0.1613
  647MOL0     C89169   3.431   2.357   0.715 -0.2060 -0.2751  0.8950
  647MOL0     C89170   3.571   2.351   0.763  0.3079 -0.3879 -0.5606
  647MOL0     C89171   3.667   2.325   0.650  0.2658 -0.1409  0.6919
  647MOL0     O89172   3.798   2.335   0.698  0.0085 -0.6249 -0.4898
  647MOL0     C89173   3.895   2.377   0.608  0.0467 -0.7131 -0.6251
  647MOL0     C89174   4.002   2.449   0.662  0.0674 -0.1164 -0.3256
  647MOL0     C89175   4.112   2.496   0.588  0.2974  0.4474  1.6490
  647MOL0     C89176   4.218   2.577   0.655 -0.2992  0.0629 -0.6161
  647MOL0     C89177   4.107   2.470   0.448 -0.1589 -0.0211 -0.3311
  647MOL0     C89178   4.212   2.514   0.354  0.1042 -0.4710  0.5408
  647MOL0     O89179   4.168   2.589   0.245  0.5207 -0.0370 -0.2093
  647MOL0     C89180   4.262   2.627   0.150 -0.2738  0.5954 -0.2873
  647MOL0     C89181   4.327   2.523   0.077  0.1816  1.0696 -0.7267
  647MOL0     C89182   4.421   2.561  -0.024 -1.1313  0.1189  0.2173
  647MOL0     C89183   4.455   2.700  -0.044  0.0282 -0.2139 -0.2627
  647MOL0     O89184   4.545   2.737  -0.135  0.3965  0.3064  0.5312
  647MOL0     C89185   4.684   2.713  -0.118 -0.3366  0.3237  0.2977
  647MOL0     C89186   4.762   2.839  -0.158 -0.7596  0.2195  0.0663
  647MOL0     C89187   4.918   2.829  -0.128  0.8314 -0.2740  0.4882
  647MOL0     C89188   4.993   2.933  -0.206  1.0650 -0.5171 -0.7044
  647MOL0     C89189   5.139   2.911  -0.202 -0.1643 -0.0705 -0.3877
  647MOL0     C89190   5.219   2.935  -0.072  0.6650 -0.0682  0.5760
  647MOL0     C89191   5.196   3.079  -0.024 -0.6102  0.4404 -0.5488
  647MOL0     C89192   5.251   3.091   0.111 -0.2861  0.2587  0.0415
  647MOL0    Cl89193   5.239   3.256   0.189  0.0340 -0.0374 -0.3151
  647MOL0     C89194   4.390   2.799   0.029  0.0479 -1.0708 -0.1510
  647MOL0     C89195   4.295   2.758   0.119  0.4406  0.2812 -0.0652
  647MOL0     O89196   4.328   2.491   0.382 -0.4027  0.4648  0.5396
  647MOL0     C89197   3.986   2.417   0.397 -0.0270  1.0691  0.0982
  647MOL0     C89198   3.890   2.360   0.468  1.0666 -0.1050  0.5014
  647MOL0     N89199   3.143   2.551   0.810  0.1021 -0.2403  0.3339
  647MOL0     N89200   3.021   2.532   0.775 -0.3312  0.1913  0.0367
  647MOL0     C89201   2.495   1.464   1.040  0.4060  0.7238 -0.8720
  647MOL0     C89202   2.423   1.343   1.052  0.4428  0.3710  0.7397
  647MOL0     C89203   2.160   1.037   1.114 -0.6411 -0.0333 -0.3779
  647MOL0     C89204   2.028   1.002   1.134 -0.4698  0.5397  0.4529
  647MOL0     C89205   1.988   0.886   1.191 -0.4777 -1.2510  0.2697
  647MOL0     C89206   2.075   0.812   1.256  0.7214 -0.5641 -0.0252
  647MOL0     O89207   2.026   0.712   1.330  0.7790  0.1535 -0.1429
  647MOL0     C89208   2.106   0.656   1.436 -0.2167  0.2358  0.4725
  647MOL0     C89209   2.012   0.579   1.532  1.1464 -0.2058 -0.4398
  647MOL0     C89210   1.967   0.447   1.460  0.0961 -0.0031  0.4268
  647MOL0     C89211   1.850   0.365   1.530 -0.1967 -0.4129  0.8461
  647MOL0     C89212   1.735   0.451   1.572 -0.2791  0.3162 -0.8150
  647MOL0     C89213   1.656   0.532   1.617  0.7299  0.2484 -0.5775
  647MOL0     C89214   2.207   0.844   1.238  0.4372 -0.1748 -0.6155
  647MOL0     C89215   2.252   0.945   1.160 -0.4642 -0.0033 -0.4862
  647MOL0     C89216   2.400   0.967   1.147  0.9906 -0.4040 -0.5961
  647MOL0     H89217   2.328   1.308   0.721  4.9471  1.5944 -3.1942
  647MOL0     H89218   2.471   1.497   0.706  4.7441 -0.5180  1.9925
  647MOL0     H89219   2.621   1.715   1.079 -2.6881 -2.0105  1.1970
  647MOL0     H89220   2.460   1.746   1.021  0.3962  1.9160  1.6778
  647MOL0     H89221   2.557   1.899   0.840  0.9077  3.2131 -0.1608
  647MOL0     H89222   2.574   1.949   1.008 -1.5178  1.1674 -1.9037
  647MOL0     H89223   2.811   1.854   0.998 -2.4009 -2.0868  1.2804
  647MOL0     H89224   2.787   1.828   0.821 -1.7898 -0.3203 -0.7745
  647MOL0     H89225   2.710   2.096   0.914 -1.4452 -2.8905 -0.7488
  647MOL0     H89226   2.884   2.065   0.932  1.1412 -1.9289  0.5612
  647MOL0     H89227   2.712   2.063   0.671  0.5006 -0.0118 -0.1616
  647MOL0     H89228   2.878   2.006   0.680 -1.2617  1.5709 -2.8146
  647MOL0     H89229   2.787   2.270   0.787  0.5024 -0.9799  1.1933
  647MOL0     H89230   2.962   2.209   0.763  0.2960 -4.2260 -0.6004
  647MOL0     H89231   2.772   2.253   0.533 -2.7396  2.8386  2.9507
  647MOL0     H89232   2.945   2.218   0.531 -0.4881  1.6462 -2.3844
  647MOL0     H89233   2.893   2.444   0.489 -1.5986 -3.2135 -0.7438
  647MOL0     H89234   2.804   2.453   0.643 -0.1919  0.9980 -0.1448
  647MOL0     H89235   3.168   2.377   0.536 -2.8270  0.0905 -1.0545
  647MOL0     H89236   3.425   2.560   0.791  0.4834 -1.4530  1.1831
  647MOL0     H89237   3.411   2.535   0.615 -3.3873  1.9131 -0.7240
  647MOL0     H89238   3.374   2.285   0.775  1.9854 -1.3253  1.8339
  647MOL0     H89239   3.429   2.325   0.610 -0.6621  2.2986  0.0603
  647MOL0     H89240   3.597   2.444   0.816 -1.3740 -0.5242  0.5681
  647MOL0     H89241   3.589   2.274   0.838  2.1818 -0.3457 -0.9172
  647MOL0     H89242   3.661   2.222   0.613 -2.5844 -0.0226  0.5625
  647MOL0     H89243   3.652   2.380   0.556  1.1903 -1.0862 -0.0380
  647MOL0     H89244   4.008   2.462   0.770 -1.2072 -2.1964  0.0547
  647MOL0     H89245   4.170   2.640   0.730 -2.6780  1.3191 -3.0019
  647MOL0     H89246   4.261   2.651   0.586 -2.0117  0.2849 -1.4953
  647MOL0     H89247   4.297   2.521   0.705 -0.3051  2.0428  1.8024
  647MOL0     H89248   4.310   2.419   0.104 -3.1817  2.3056  2.7246
  647MOL0     H89249   4.464   2.483  -0.086  1.5337  2.5728 -1.2684
  647MOL0     H89250   4.710   2.687  -0.015 -1.2633  0.1616  0.5045
  647MOL0     H89251   4.717   2.634  -0.186  0.7596 -1.1290  2.4311
  647MOL0     H89252   4.743   2.864  -0.263 -0.1816  0.4854  0.0215
  647MOL0     H89253   4.721   2.926  -0.105  2.0185  1.3889  0.4658
  647MOL0     H89254   4.949   2.732  -0.170 -0.7293 -0.8777  0.6638
  647MOL0     H89255   4.932   2.835  -0.020  2.9877  0.3622  0.2131
  647MOL0     H89256   4.960   3.031  -0.168  1.0165 -0.7561 -0.1185
  647MOL0     H89257   4.956   2.932  -0.309 -0.1364  5.7003 -0.7482
  647MOL0     H89258   5.156   2.808  -0.237 -1.2135 -0.3547 -0.1117
  647MOL0     H89259   5.173   2.980  -0.280 -1.2939 -0.6031 -1.4020
  647MOL0     H89260   5.326   2.927  -0.096  0.0071  1.4406 -3.7883
  647MOL0     H89261   5.196   2.869   0.012 -2.2138  2.6834  2.1575
  647MOL0     H89262   5.090   3.104  -0.013 -0.8971 -0.8027 -0.3733
  647MOL0     H89263   5.237   3.158  -0.087 -1.7390  2.0967  0.7257
  647MOL0     H89264   5.354   3.053   0.103 -0.8601 -1.4480  0.3498
  647MOL0     H89265   5.193   3.024   0.176 -1.0879 -1.6116 -2.4527
  647MOL0     H89266   4.410   2.901  -0.001 -1.4550 -1.1335 -1.4800
  647MOL0     H89267   4.246   2.838   0.175 -2.9710 -0.1429 -2.2174
  647MOL0     H89268   3.981   2.423   0.289  0.7792 -3.5847 -0.3878
  647MOL0     H89269   3.798   2.327   0.422  1.5926  0.4412 -0.9931
  647MOL0     H89270   2.535   1.494   1.136  0.3438 -2.3309  0.2158
  647MOL0     H89271   2.411   1.293   1.147 -4.8721  1.0772  0.7238
  647MOL0     H89272   1.955   1.066   1.085 -1.1672 -2.1057 -2.2682
  647MOL0     H89273   1.880   0.882   1.202 -0.5539 -0.8510 -0.2589
  647MOL0     H89274   2.188   0.596   1.395 -1.0964  0.2121 -1.3509
  647MOL0     H89275   2.154   0.739   1.489  1.0925  0.8856 -1.6249
  647MOL0     H89276   1.929   0.642   1.565  1.1787  0.3539 -1.3891
  647MOL0     H89277   2.070   0.560   1.624  1.4531 -0.3248 -0.6543
  647MOL0     H89278   1.939   0.476   1.358 -0.3701  3.3671  1.3871
  647MOL0     H89279   2.053   0.379   1.462 -0.1349 -0.2796  1.9223
  647MOL0     H89280   1.890   0.315   1.618  1.0786  0.7101  0.9330
  647MOL0     H89281   1.816   0.291   1.457 -0.8340  1.0028 -0.3620
  647MOL0     H89282   1.589   0.602   1.662 -1.1709 -0.6254 -1.9020
  647MOL0     H89283   2.282   0.789   1.296  0.7717  1.3952  0.5090
  647MOL0     H89284   2.414   0.953   1.040  0.4179  0.6637 -0.8278
  647MOL0     H89285   2.430   1.060   1.196 -0.6997 -1.7410  3.3782
  647MOL0     H89286   2.451   0.886   1.199  0.0597 -2.3584 -2.5722
  648MOL0     O89287   4.275   6.352  10.702 -0.2755 -0.6745 -0.3227
  648MOL0     C89288   4.290   6.235  10.657 -0.0299 -0.0325 -0.1440
  648MOL0     O89289   4.400   6.190  10.593  0.0420  0.3866 -0.4195
  648MOL0     C89290   4.506   6.276  10.580 -0.5027 -0.1411 -0.2954
  648MOL0     C89291   4.607   6.295  10.675  0.3174  1.4291  0.1949
  648MOL0     C89292   4.714   6.375  10.637 -0.5322 -0.0634  0.6413
  648MOL0     C89293   4.730   6.438  10.513  0.6196  0.0186  0.1654
  648MOL0     O89294   4.847   6.492  10.469 -0.3400  0.2967  0.3050
  648MOL0     C89295   4.937   6.389  10.431  0.0928 -0.7834  0.2725
  648MOL0     C89296   5.083   6.430  10.410  0.2472  0.3942  0.1251
  648MOL0     C89297   5.086   6.557  10.325  0.2127  0.5699 -0.8019
  648MOL0     C89298   5.224   6.599  10.287 -0.0522  0.1489 -1.0581
  648MOL0     C89299   5.221   6.723  10.203  0.1424 -0.9179  0.1998
  648MOL0     C89300   5.355   6.762  10.154 -0.2434 -0.7041 -0.5115
  648MOL0     C89301   5.413   6.663  10.045  0.2766  0.2518  0.3551
  648MOL0     C89302   5.546   6.724   9.985  0.0142 -1.2152 -0.1245
  648MOL0     N89303   5.607   6.639   9.888 -0.0181 -0.2964 -0.1469
  648MOL0     C89304   5.560   6.628   9.757 -0.0678 -0.3642 -0.0264
  648MOL0     C89305   5.636   6.530   9.697 -0.9850 -0.1870 -0.8032
  648MOL0     C89306   5.629   6.473   9.556  0.3988  0.0145  0.7396
  648MOL0     C89307   5.678   6.594   9.467  0.0308 -0.5336 -0.5285
  648MOL0     C89308   5.812   6.549   9.410 -0.6844 -0.2920 -0.1561
  648MOL0     C89309   5.891   6.650   9.320  0.8117  0.6907 -0.1218
  648MOL0     O89310   5.928   6.775   9.386  0.0560  0.3834  0.2977
  648MOL0     C89311   6.006   6.864   9.316  0.6096 -0.3023  0.3660
  648MOL0     C89312   6.069   6.971   9.379 -0.1164 -0.1105 -0.0586
  648MOL0     C89313   6.128   7.086   9.304  0.4875 -0.1008 -0.1977
  648MOL0     C89314   6.179   7.203   9.387  0.2808 -0.3964  0.4725
  648MOL0     C89315   6.153   7.069   9.166 -0.9859  0.1604 -0.0845
  648MOL0     C89316   6.232   7.157   9.080  0.1461  0.4917  0.4103
  648MOL0     O89317   6.305   7.253   9.131  0.3357 -0.8354  0.5863
  648MOL0     C89318   6.386   7.330   9.049 -0.2233 -0.7258 -0.9821
  648MOL0     C89319   6.522   7.291   9.031  0.5465  0.4018 -0.4431
  648MOL0     C89320   6.610   7.359   8.942  0.5237  0.2746  0.2667
  648MOL0     C89321   6.563   7.470   8.875 -0.2755  0.1059 -0.6922
  648MOL0     O89322   6.642   7.550   8.780  0.6980  0.5334 -0.1921
  648MOL0     C89323   6.773   7.590   8.811  0.6986 -0.1510 -0.0867
  648MOL0     C89324   6.756   7.676   8.948 -0.0441  0.8519  0.3905
  648MOL0     C89325   6.672   7.801   8.938  0.3958 -0.1422 -0.5632
  648MOL0     C89326   6.717   7.915   8.848 -0.7444  0.0574 -0.1871
  648MOL0     C89327   6.615   8.030   8.828  0.2802  0.3692  0.4357
  648MOL0     C89328   6.664   8.130   8.725  0.1483 -1.3754 -0.5623
  648MOL0     C89329   6.570   8.249   8.726 -0.1251 -0.5723 -0.0567
  648MOL0     C89330   6.443   8.229   8.646 -0.1580  0.8495  0.3521
  648MOL0    Cl89331   6.460   8.185   8.479 -0.2417 -0.2032  0.2295
  648MOL0     C89332   6.423   7.508   8.894 -0.8898  0.1520 -0.2595
  648MOL0     C89333   6.340   7.442   8.987  0.0798 -0.0049  0.1785
  648MOL0     O89334   6.212   7.146   8.959  0.3438 -0.0782 -0.3964
  648MOL0     C89335   6.103   6.951   9.107 -0.0891  0.1337  0.4228
  648MOL0     C89336   6.017   6.864   9.172  0.3786  0.4868  0.1060
  648MOL0     N89337   5.738   6.498   9.801  0.3838 -0.5902  0.4962
  648MOL0     N89338   5.719   6.565   9.908 -0.5273 -0.2961  0.4677
  648MOL0     C89339   4.623   6.432  10.430 -0.5841  0.7460 -0.6783
  648MOL0     C89340   4.514   6.346  10.454  0.6089 -0.0651 -0.2857
  648MOL0     C89341   4.189   6.138  10.681  0.2192 -0.2229 -0.3873
  648MOL0     C89342   4.161   6.043  10.581  0.7223  0.3379  0.3649
  648MOL0     C89343   4.043   5.966  10.582 -0.3413 -0.0612  0.1389
  648MOL0     C89344   3.957   5.978  10.687  0.8979  0.2364 -0.4948
  648MOL0     O89345   3.833   5.918  10.684  0.3023 -0.2080  0.1411
  648MOL0     C89346   3.773   5.933  10.553  0.1976 -0.0110  0.6621
  648MOL0     C89347   3.623   5.888  10.543 -0.7677 -0.3947 -1.3053
  648MOL0     C89348   3.553   5.920  10.678 -0.8971  0.2868  0.6735
  648MOL0     C89349   3.417   5.836  10.681 -0.2818  0.0697 -0.0165
  648MOL0     C89350   3.293   5.903  10.640 -0.5240 -1.1496  0.0228
  648MOL0     C89351   3.196   5.979  10.609 -0.6705 -0.1014  0.5567
  648MOL0     C89352   3.990   6.064  10.794 -0.2732  1.0561 -0.2872
  648MOL0     C89353   4.101   6.144  10.802 -0.4808  0.2967  0.7597
  648MOL0     C89354   4.123   6.232  10.921  0.3489  0.2029 -0.7806
  648MOL0     H89355   4.617   6.230  10.761 -0.5761  1.2215  0.1519
  648MOL0     H89356   4.794   6.376  10.710 -0.7077 -1.1763  0.8694
  648MOL0     H89357   4.900   6.354  10.334  1.1334 -2.7354  0.5285
  648MOL0     H89358   4.925   6.306  10.502 -3.2145 -1.7162 -1.1673
  648MOL0     H89359   5.131   6.439  10.508 -0.2900 -2.5892  0.7438
  648MOL0     H89360   5.137   6.352  10.356  0.5090 -0.0004  0.9405
  648MOL0     H89361   5.025   6.538  10.236 -1.9786  0.4599  0.6468
  648MOL0     H89362   5.045   6.638  10.387 -0.5338 -1.0782  0.9634
  648MOL0     H89363   5.285   6.622  10.375 -1.8890  2.1574 -0.2256
  648MOL0     H89364   5.278   6.515  10.242  1.2923  0.3041  0.1723
  648MOL0     H89365   5.171   6.808  10.252 -1.6466 -1.7113 -0.1692
  648MOL0     H89366   5.166   6.693  10.113  1.5299  0.7027 -1.2793
  648MOL0     H89367   5.335   6.860  10.111  1.0978 -0.3561 -0.3972
  648MOL0     H89368   5.425   6.773  10.238 -1.7918 -1.4812  0.9391
  648MOL0     H89369   5.347   6.640   9.961  2.7392 -0.6845 -1.4478
  648MOL0     H89370   5.435   6.574  10.105 -2.4314 -0.9063 -0.2358
  648MOL0     H89371   5.531   6.826   9.950  0.4141 -1.2280 -0.3407
  648MOL0     H89372   5.609   6.724  10.075 -1.0398  2.3911  0.7664
  648MOL0     H89373   5.479   6.679   9.705 -1.0023 -0.5713  1.1807
  648MOL0     H89374   5.529   6.450   9.519  0.2273  1.4376  0.2492
  648MOL0     H89375   5.688   6.381   9.551 -1.9055 -1.4530 -3.3816
  648MOL0     H89376   5.611   6.615   9.383 -0.8328 -1.2078 -0.0219
  648MOL0     H89377   5.688   6.681   9.532  1.0863 -0.9445 -0.1198
  648MOL0     H89378   5.879   6.519   9.491 -1.3080 -0.8677  0.1617
  648MOL0     H89379   5.793   6.460   9.350  2.8758  0.7573 -3.2469
  648MOL0     H89380   5.979   6.601   9.278  0.6750 -1.3710  1.7715
  648MOL0     H89381   5.825   6.669   9.235 -0.7243  1.3507  1.1759
  648MOL0     H89382   6.071   6.966   9.487  0.1648 -1.0443 -0.0968
  648MOL0     H89383   6.141   7.299   9.351  0.5100 -0.8987 -1.1577
  648MOL0     H89384   6.288   7.210   9.389  0.5001 -2.4934  3.3875
  648MOL0     H89385   6.142   7.185   9.489 -2.5684 -2.0623 -0.7202
  648MOL0     H89386   6.559   7.208   9.091  1.3274  1.3735  0.4723
  648MOL0     H89387   6.707   7.315   8.925  0.3268  0.1323 -0.5541
  648MOL0     H89388   6.825   7.493   8.806 -0.1173 -0.7225  1.6950
  648MOL0     H89389   6.809   7.653   8.730  0.8383 -1.8271 -1.3870
  648MOL0     H89390   6.708   7.607   9.019 -1.3874 -1.5561 -2.6208
  648MOL0     H89391   6.862   7.687   8.973  1.4472  0.9340 -4.8118
  648MOL0     H89392   6.656   7.847   9.036  0.3246  2.9496 -1.8943
  648MOL0     H89393   6.575   7.766   8.902 -0.0701  0.2148  0.3094
  648MOL0     H89394   6.739   7.878   8.747 -1.1509 -0.7390  0.0115
  648MOL0     H89395   6.812   7.948   8.892  1.4139 -4.9505 -0.3889
  648MOL0     H89396   6.519   7.986   8.800  0.2162 -0.3298  1.6913
  648MOL0     H89397   6.611   8.085   8.922 -0.1021  2.7348 -0.9095
  648MOL0     H89398   6.668   8.089   8.623  1.4157 -0.7589 -0.7757
  648MOL0     H89399   6.762   8.175   8.744 -0.6728 -0.1311  0.9269
  648MOL0     H89400   6.616   8.340   8.686 -3.8768  2.4614  1.9053
  648MOL0     H89401   6.529   8.274   8.824 -0.5395 -0.6194 -0.2171
  648MOL0     H89402   6.373   8.309   8.671 -1.9157 -1.3029  2.8799
  648MOL0     H89403   6.399   8.141   8.692  1.5377 -0.5029 -0.4779
  648MOL0     H89404   6.385   7.591   8.836 -0.5295  1.1182  0.8410
  648MOL0     H89405   6.240   7.482   8.993  0.3163  0.3260  2.4817
  648MOL0     H89406   6.109   6.934   9.000 -1.2150 -2.1881  0.6671
  648MOL0     H89407   5.968   6.780   9.124  1.2437  0.5444 -0.9050
  648MOL0     H89408   4.637   6.494  10.342 -2.0543 -0.6811 -1.9931
  648MOL0     H89409   4.433   6.357  10.383 -0.2350  0.6834  0.7599
  648MOL0     H89410   4.228   6.023  10.499 -1.4483 -2.8684 -0.8459
  648MOL0     H89411   4.028   5.896  10.500  1.8259  2.5030 -2.6597
  648MOL0     H89412   3.782   6.038  10.522  0.0698  0.4930  2.2438
  648MOL0     H89413   3.826   5.879  10.474  0.4314  1.5529 -0.2892
  648MOL0     H89414   3.621   5.782  10.515 -0.1625 -0.2908 -1.7680
  648MOL0     H89415   3.565   5.944  10.468 -2.2955  1.0170  0.8282
  648MOL0     H89416   3.617   5.886  10.759  1.0733  2.9137  0.3406
  648MOL0     H89417   3.532   6.027  10.686 -3.2675  0.1609 -1.9844
  648MOL0     H89418   3.398   5.812  10.787  2.7959  0.0055  0.6073
  648MOL0     H89419   3.429   5.748  10.618 -0.2775 -0.6628  0.9707
  648MOL0     H89420   3.120   6.043  10.570 -1.1784 -1.5524 -0.9235
  648MOL0     H89421   3.916   6.060  10.873 -1.8166 -0.2184 -1.7393
  648MOL0     H89422   4.100   6.334  10.888  1.5925  1.1362  1.0200
  648MOL0     H89423   4.064   6.220  11.013  3.0373 -0.5593  0.9573
  648MOL0     H89424   4.225   6.222  10.958 -0.4668 -0.6264  1.4879
  649MOL0     O89425   4.313   7.555   7.948  0.3643 -0.2080 -0.0500
  649MOL0     C89426   4.264   7.664   7.971  0.2033  0.1213 -0.4734
  649MOL0     O89427   4.330   7.784   7.963 -0.0758  0.2559  0.2458
  649MOL0     C89428   4.461   7.802   7.911  0.2527  1.0951 -0.3406
  649MOL0     C89429   4.512   7.723   7.810 -0.3911 -0.2689  0.3448
  649MOL0     C89430   4.636   7.744   7.757 -0.2164 -0.0001  0.4648
  649MOL0     C89431   4.716   7.847   7.800  0.0249 -0.1131 -0.2694
  649MOL0     O89432   4.852   7.867   7.768  0.7143  0.5440 -0.6100
  649MOL0     C89433   4.943   7.753   7.784 -0.2551 -0.1622 -0.8090
  649MOL0     C89434   5.064   7.819   7.857 -0.2854 -0.0067 -0.2059
  649MOL0     C89435   5.031   7.860   8.010 -0.0187  0.3566  0.7465
  649MOL0     C89436   5.169   7.875   8.082 -0.4525  0.0082 -0.0159
  649MOL0     C89437   5.171   7.909   8.233  0.1693 -0.8061 -0.1140
  649MOL0     C89438   5.088   8.042   8.259 -0.0089 -0.4307 -0.1140
  649MOL0     C89439   5.106   8.090   8.402  0.0685 -0.6422 -0.4241
  649MOL0     C89440   5.256   8.102   8.447  0.1256 -0.3300  0.1846
  649MOL0     N89441   5.345   8.184   8.362  0.1440  0.2422 -1.1021
  649MOL0     C89442   5.325   8.324   8.353  0.2256  0.1680 -0.4769
  649MOL0     C89443   5.431   8.366   8.275  1.0206  0.5597 -0.3761
  649MOL0     C89444   5.459   8.511   8.240  0.7415  0.5660 -0.8904
  649MOL0     C89445   5.586   8.557   8.326 -0.3233 -0.5217 -0.0007
  649MOL0     C89446   5.578   8.536   8.477 -0.7663 -0.1389 -0.4585
  649MOL0     C89447   5.661   8.628   8.563  0.1602  0.1722 -0.1752
  649MOL0     O89448   5.795   8.581   8.539  0.0445  0.3069 -0.1566
  649MOL0     C89449   5.880   8.632   8.447  0.8232  0.7857 -0.0337
  649MOL0     C89450   6.000   8.556   8.435  0.6226 -0.3775 -1.1049
  649MOL0     C89451   6.100   8.604   8.351  0.6966  1.0202 -0.2504
  649MOL0     C89452   6.226   8.529   8.326 -0.0679  0.3992  0.8080
  649MOL0     C89453   6.093   8.726   8.291  0.6507 -0.3047  0.2573
  649MOL0     C89454   6.194   8.779   8.198 -0.7022 -0.6867  0.3177
  649MOL0     O89455   6.242   8.694   8.105 -0.2318 -0.6627  1.1081
  649MOL0     C89456   6.304   8.760   7.994  0.9849 -0.2188  0.1476
  649MOL0     C89457   6.443   8.777   7.981 -0.4511  0.4838 -0.1412
  649MOL0     C89458   6.496   8.860   7.883  0.5319  0.1926 -0.2661
  649MOL0     C89459   6.408   8.934   7.804  0.7683 -0.6909 -0.2649
  649MOL0     O89460   6.441   9.023   7.703  0.1905  0.3507  0.4539
  649MOL0     C89461   6.576   9.050   7.679 -0.1476 -0.5902 -0.0596
  649MOL0     C89462   6.600   9.145   7.566  0.7674 -0.5045  0.0897
  649MOL0     C89463   6.744   9.166   7.546 -1.3615  0.6545  0.2556
  649MOL0     C89464   6.753   9.278   7.433  0.1957  0.5812  0.1932
  649MOL0     C89465   6.901   9.290   7.396 -0.3141  0.4732 -0.5276
  649MOL0     C89466   6.945   9.399   7.298  0.2624 -0.0079 -0.2581
  649MOL0     C89467   6.868   9.395   7.168  0.1234 -0.2690  0.2322
  649MOL0     C89468   6.908   9.515   7.082  1.0643 -0.3380 -1.0299
  649MOL0    Cl89469   6.875   9.667   7.162 -0.1455  0.3078 -0.1180
  649MOL0     C89470   6.271   8.920   7.820 -0.2356 -0.1775 -0.8735
  649MOL0     C89471   6.216   8.833   7.915  0.3034  0.5188  0.4409
  649MOL0     O89472   6.221   8.899   8.207  0.2402  0.1496 -0.0083
  649MOL0     C89473   5.971   8.793   8.298  0.2386  0.4949 -0.0921
  649MOL0     C89474   5.865   8.754   8.375  0.0014  0.4839 -0.3294
  649MOL0     N89475   5.497   8.252   8.227 -0.8963  0.0683 -0.2370
  649MOL0     N89476   5.442   8.145   8.279 -0.1500 -0.4276  0.2031
  649MOL0     C89477   4.667   7.920   7.912  0.4375  0.1462 -0.6206
  649MOL0     C89478   4.543   7.897   7.957 -0.1630 -0.2758  0.1770
  649MOL0     C89479   4.120   7.664   8.003  0.0162 -0.0299  0.1007
  649MOL0     C89480   4.032   7.556   7.950 -0.9170 -0.1838 -0.8967
  649MOL0     C89481   3.895   7.576   7.964 -0.0899 -0.0437 -0.3122
  649MOL0     C89482   3.846   7.678   8.045 -0.3487 -0.2413 -0.1912
  649MOL0     O89483   3.714   7.682   8.068 -0.0385 -0.2593  0.2348
  649MOL0     C89484   3.670   7.556   8.133  0.3754  0.3463  1.2511
  649MOL0     C89485   3.537   7.567   8.200 -0.5202 -0.2326 -0.4368
  649MOL0     C89486   3.413   7.607   8.109 -0.4581  0.9285  0.4210
  649MOL0     C89487   3.285   7.608   8.194  0.4253  0.1521 -1.0037
  649MOL0     C89488   3.253   7.478   8.264 -0.0164 -0.6843  0.7218
  649MOL0     C89489   3.221   7.375   8.322  1.2593 -1.1937 -0.7183
  649MOL0     C89490   3.924   7.770   8.103 -0.1955  0.7068 -0.8757
  649MOL0     C89491   4.059   7.768   8.078  0.2601 -0.0996  0.3674
  649MOL0     C89492   4.132   7.869   8.153 -0.5857 -0.2367 -0.2265
  649MOL0     H89493   4.449   7.646   7.766  0.8411 -1.7291  1.0401
  649MOL0     H89494   4.666   7.668   7.685 -0.0453  0.0159  0.5186
  649MOL0     H89495   4.980   7.725   7.685  0.3223 -0.1964 -0.5891
  649MOL0     H89496   4.909   7.666   7.841 -0.0230  0.3107  0.0748
  649MOL0     H89497   5.156   7.759   7.850 -0.3763 -0.1221 -0.4323
  649MOL0     H89498   5.085   7.910   7.800  1.3513 -1.1870 -1.5846
  649MOL0     H89499   4.966   7.947   8.022 -1.5588 -0.3131 -1.8962
  649MOL0     H89500   4.977   7.778   8.057  1.5652 -0.2349  1.5940
  649MOL0     H89501   5.228   7.787   8.057 -3.6974 -2.0447 -1.0344
  649MOL0     H89502   5.214   7.965   8.039  2.3776 -1.5238 -0.5118
  649MOL0     H89503   5.277   7.900   8.257  0.4506 -1.1626 -1.4595
  649MOL0     H89504   5.116   7.832   8.288 -0.5059  0.1823  0.6230
  649MOL0     H89505   5.123   8.115   8.185  1.6693 -1.4773 -0.4200
  649MOL0     H89506   4.981   8.020   8.251 -0.3224  0.1895  1.8641
  649MOL0     H89507   5.048   8.021   8.464  0.2236 -2.6540 -2.3895
  649MOL0     H89508   5.054   8.186   8.410  2.3967  1.0926 -3.8430
  649MOL0     H89509   5.258   8.150   8.546 -0.0505 -0.2864  0.1670
  649MOL0     H89510   5.301   8.003   8.459 -1.7873 -1.0810  1.6329
  649MOL0     H89511   5.248   8.387   8.396 -1.3519 -1.8733 -0.1702
  649MOL0     H89512   5.370   8.568   8.265 -0.5220 -2.3204  1.8050
  649MOL0     H89513   5.468   8.524   8.132 -1.4934 -0.0824 -1.2056
  649MOL0     H89514   5.663   8.494   8.280 -2.7728 -2.1143 -2.2438
  649MOL0     H89515   5.604   8.664   8.312  0.1966 -0.7134 -0.8264
  649MOL0     H89516   5.473   8.541   8.505 -0.7970  0.0571 -0.6028
  649MOL0     H89517   5.620   8.436   8.484  1.5400  0.7376 -0.8275
  649MOL0     H89518   5.648   8.735   8.546  0.0151  0.3055  0.7487
  649MOL0     H89519   5.649   8.610   8.670 -2.7542 -1.2451 -0.6428
  649MOL0     H89520   6.009   8.460   8.486  2.1042  1.6794  2.9494
  649MOL0     H89521   6.225   8.487   8.225  2.2722  0.8094  0.5422
  649MOL0     H89522   6.238   8.444   8.394  0.3364 -0.2077  0.0018
  649MOL0     H89523   6.319   8.587   8.332  0.9430 -0.0972 -4.7500
  649MOL0     H89524   6.525   8.735   8.039 -1.6145 -1.4038  0.1914
  649MOL0     H89525   6.602   8.880   7.887  0.2454  1.6128  1.2988
  649MOL0     H89526   6.605   9.102   7.771 -0.7217  1.7366 -1.0970
  649MOL0     H89527   6.633   8.959   7.663  0.0879  0.0111 -3.2230
  649MOL0     H89528   6.564   9.100   7.473  3.3346 -2.9780  0.1811
  649MOL0     H89529   6.562   9.245   7.591  3.1205 -0.0274  2.1196
  649MOL0     H89530   6.792   9.072   7.518 -0.9468  0.8136  0.4119
  649MOL0     H89531   6.797   9.226   7.621 -1.0339  2.0220 -0.9994
  649MOL0     H89532   6.726   9.373   7.482  0.1605  1.4547 -1.4538
  649MOL0     H89533   6.701   9.269   7.338  1.6378  2.5536 -0.8602
  649MOL0     H89534   6.956   9.291   7.490 -1.3963 -0.8504  0.1560
  649MOL0     H89535   6.934   9.198   7.347 -1.9396 -0.0492 -0.7123
  649MOL0     H89536   7.052   9.382   7.284  0.2945 -0.5969  0.5997
  649MOL0     H89537   6.932   9.491   7.356  0.8126 -0.7852  1.1474
  649MOL0     H89538   6.760   9.392   7.186  0.0741  0.4006  0.0877
  649MOL0     H89539   6.891   9.309   7.104 -0.0850  2.4524 -3.8519
  649MOL0     H89540   6.845   9.509   6.993  1.1407  3.5142 -1.5084
  649MOL0     H89541   7.013   9.516   7.052  1.5793 -1.0748  0.6397
  649MOL0     H89542   6.213   8.990   7.761 -0.4844  1.4764  1.2119
  649MOL0     H89543   6.110   8.831   7.937  0.4012 -1.8439  0.9752
  649MOL0     H89544   5.954   8.876   8.231 -2.1781 -1.1163 -1.6517
  649MOL0     H89545   5.771   8.808   8.376  1.0869  2.4509 -0.1815
  649MOL0     H89546   4.725   8.000   7.956  1.2503 -0.1152 -1.1985
  649MOL0     H89547   4.486   7.966   8.019 -1.6734 -0.3104 -1.1022
  649MOL0     H89548   4.066   7.469   7.896  1.6942 -1.4651  2.4424
  649MOL0     H89549   3.828   7.503   7.920 -0.2050 -0.2495  0.1996
  649MOL0     H89550   3.669   7.476   8.058 -0.9724  1.2815  0.2048
  649MOL0     H89551   3.740   7.516   8.207  0.9921 -2.9261 -0.8854
  649MOL0     H89552   3.549   7.642   8.280  3.5928 -0.5955 -0.4702
  649MOL0     H89553   3.501   7.479   8.254 -0.5609  1.4397  2.5405
  649MOL0     H89554   3.433   7.710   8.081 -0.5758  1.6891  2.8560
  649MOL0     H89555   3.410   7.540   8.023  1.3633 -0.1082  1.1033
  649MOL0     H89556   3.207   7.634   8.121 -1.7051  3.0918  2.0379
  649MOL0     H89557   3.286   7.686   8.270 -2.9979  0.7985 -1.4307
  649MOL0     H89558   3.220   7.283   8.378  2.0745  1.0214  3.3137
  649MOL0     H89559   3.891   7.858   8.158  2.0889 -0.7201  3.1431
  649MOL0     H89560   4.106   7.875   8.259  3.5804 -0.9644  1.0247
  649MOL0     H89561   4.238   7.845   8.167 -0.7308 -0.6747  0.1505
  649MOL0     H89562   4.123   7.968   8.107 -0.8850  0.2320  0.8227
  650MOL0     O89563   6.717   3.917   3.609 -0.2441 -0.0470  0.1444
  650MOL0     C89564   6.688   3.947   3.493 -0.1585  0.9410  0.7336
  650MOL0     O89565   6.764   4.022   3.411 -1.2935  0.6122 -0.5611
  650MOL0     C89566   6.899   4.041   3.439  0.4099 -0.7417  0.6704
  650MOL0     C89567   6.978   3.972   3.529 -0.2247  0.1370  0.3316
  650MOL0     C89568   7.105   4.018   3.566  0.6554 -0.4173 -0.5723
  650MOL0     C89569   7.165   4.133   3.512  0.0740  0.9799  1.3374
  650MOL0     O89570   7.286   4.182   3.549 -0.0311 -0.1398  0.3883
  650MOL0     C89571   7.361   4.128   3.664  0.2792 -0.7105 -0.1303
  650MOL0     C89572   7.466   4.027   3.631 -0.6633  0.5005  0.8316
  650MOL0     C89573   7.579   4.096   3.551 -0.0140  0.1188  0.2806
  650MOL0     C89574   7.691   3.992   3.537 -0.1990 -0.9824 -1.1257
  650MOL0     C89575   7.819   4.063   3.501  0.2605 -0.5291 -0.2773
  650MOL0     C89576   7.944   3.974   3.528 -0.1097 -1.4338 -0.2469
  650MOL0     C89577   7.989   3.995   3.678 -0.9560 -0.2649  0.7214
  650MOL0     C89578   8.112   3.905   3.711 -0.1251 -0.2798  0.4326
  650MOL0     N89579   8.164   3.938   3.846 -0.5816  0.5324 -0.7264
  650MOL0     C89580   8.283   4.013   3.885  0.2661  0.0190  0.8075
  650MOL0     C89581   8.304   3.983   4.019 -0.0773  0.5988 -0.4241
  650MOL0     C89582   8.409   4.036   4.107 -0.3434  0.1081  0.4603
  650MOL0     C89583   8.546   3.969   4.076  1.1021  0.4919 -0.1011
  650MOL0     C89584   8.633   3.994   4.194 -0.5194 -0.4200 -0.1508
  650MOL0     C89585   8.768   3.928   4.173 -0.2730 -0.2023  0.4535
  650MOL0     O89586   8.861   3.998   4.256  0.2246 -0.2869 -0.4765
  650MOL0     C89587   8.975   3.941   4.300  0.6058  0.8512 -0.2345
  650MOL0     C89588   9.075   4.033   4.319 -0.4219 -0.3768 -0.6129
  650MOL0     C89589   9.202   3.994   4.362  0.6392 -0.5305 -0.3861
  650MOL0     C89590   9.303   4.109   4.368 -0.4791  0.2123 -0.5101
  650MOL0     C89591   9.230   3.859   4.383 -0.1471  0.3237  0.1329
  650MOL0     C89592   9.360   3.802   4.430  0.4741  0.7154 -0.1172
  650MOL0     O89593   9.377   3.666   4.408  0.0868 -0.0356  0.4557
  650MOL0     C89594   9.480   3.596   4.465 -0.6219  0.6040 -0.4753
  650MOL0     C89595   9.524   3.612   4.595 -0.2363 -0.1065 -1.1646
  650MOL0     C89596   9.624   3.523   4.639 -0.9066 -0.3873 -0.2320
  650MOL0     C89597   9.669   3.415   4.568  0.6797 -0.3793 -0.4244
  650MOL0     O89598   9.767   3.342   4.641  0.4873  0.2208 -0.7369
  650MOL0     C89599   9.814   3.223   4.575 -0.6199  0.3340  0.3931
  650MOL0     C89600   9.911   3.165   4.671  0.7268 -0.0365  0.1172
  650MOL0     C89601   9.951   3.023   4.642  0.4365 -0.7119 -0.3521
  650MOL0     C89602  10.069   2.980   4.728  0.3008  0.1609  0.2398
  650MOL0     C89603  10.104   2.830   4.728 -0.3421 -0.1445 -0.5918
  650MOL0     C89604  10.241   2.799   4.797 -0.6174  0.3693 -0.0532
  650MOL0     C89605  10.275   2.652   4.831  0.2049  0.2768  0.0367
  650MOL0     C89606  10.222   2.552   4.730  0.4616  0.4127 -1.2485
  650MOL0    Cl89607  10.235   2.385   4.807  0.0914 -0.1992  0.5688
  650MOL0     C89608   9.623   3.396   4.434 -0.1774  0.2242  0.4899
  650MOL0     C89609   9.529   3.480   4.388  0.4570 -0.3464  0.6157
  650MOL0     O89610   9.447   3.876   4.483  1.0216 -0.0319 -0.4664
  650MOL0     C89611   9.128   3.765   4.356  1.0683  0.1814  0.2501
  650MOL0     C89612   8.999   3.805   4.328  0.7510  0.4561 -1.4537
  650MOL0     N89613   8.200   3.900   4.063  0.0554 -0.0506  0.2292
  650MOL0     N89614   8.120   3.877   3.961  0.6334 -0.6838 -0.2377
  650MOL0     C89615   7.096   4.196   3.407  1.1451 -0.5269 -0.5114
  650MOL0     C89616   6.965   4.152   3.370  0.3643 -0.4325  0.5000
  650MOL0     C89617   6.547   3.921   3.443 -0.5263  0.4779 -0.0549
  650MOL0     C89618   6.453   3.848   3.534 -0.8727  0.3970 -0.0238
  650MOL0     C89619   6.326   3.813   3.495  1.1996 -0.7764 -0.4731
  650MOL0     C89620   6.281   3.871   3.372 -1.1328  0.4985  0.4920
  650MOL0     O89621   6.147   3.856   3.336 -0.1086 -0.6087  0.1669
  650MOL0     C89622   6.121   3.722   3.304 -0.5176 -0.7555  0.1537
  650MOL0     C89623   5.977   3.690   3.321  1.0512 -0.5429  0.0078
  650MOL0     C89624   5.932   3.557   3.268  0.1359 -0.3398 -0.3065
  650MOL0     C89625   5.795   3.525   3.323 -0.2272 -0.6320 -0.1568
  650MOL0     C89626   5.751   3.386   3.296  0.1026 -1.0590 -0.1190
  650MOL0     C89627   5.724   3.266   3.288  0.2863  0.3567 -0.3307
  650MOL0     C89628   6.368   3.925   3.283  0.6497 -0.3177 -0.7767
  650MOL0     C89629   6.493   3.960   3.317  0.1784 -0.3543 -1.0582
  650MOL0     C89630   6.573   4.041   3.224  0.9017 -0.3356 -0.9975
  650MOL0     H89631   6.935   3.883   3.574 -1.9070  0.6396 -0.1896
  650MOL0     H89632   7.162   3.959   3.637 -0.5537 -0.2728  0.5610
  650MOL0     H89633   7.300   4.092   3.748 -1.7933  0.2895 -1.1332
  650MOL0     H89634   7.405   4.219   3.705 -0.0374  0.3957 -2.1637
  650MOL0     H89635   7.507   3.996   3.727  0.4976 -3.3372 -0.7218
  650MOL0     H89636   7.424   3.943   3.575  0.5884 -0.1741  0.8857
  650MOL0     H89637   7.535   4.136   3.459 -0.1081  0.3919  0.4418
  650MOL0     H89638   7.611   4.185   3.606 -0.7554  2.4889 -2.8156
  650MOL0     H89639   7.704   3.935   3.630  4.3188 -1.4481 -1.8063
  650MOL0     H89640   7.670   3.923   3.456 -1.2639  1.0323 -2.6498
  650MOL0     H89641   7.826   4.158   3.555 -0.4698 -0.8705  0.4391
  650MOL0     H89642   7.811   4.094   3.397  0.1922 -1.6803 -0.6262
  650MOL0     H89643   7.908   3.872   3.513 -7.2004 -0.1762  3.7783
  650MOL0     H89644   8.026   3.999   3.460 -1.4385  3.3586 -0.4942
  650MOL0     H89645   7.906   3.967   3.744 -0.2009  1.9394  2.7592
  650MOL0     H89646   8.016   4.096   3.709  0.2098 -0.7246  1.2935
  650MOL0     H89647   8.081   3.800   3.714  0.3881 -0.4144  2.2726
  650MOL0     H89648   8.192   3.923   3.639 -1.4966  3.6699 -0.3362
  650MOL0     H89649   8.357   4.055   3.818  1.9620 -1.6667  1.5039
  650MOL0     H89650   8.377   4.031   4.211  2.0400  0.7192  1.2896
  650MOL0     H89651   8.417   4.144   4.089 -0.9063  0.1539  0.4503
  650MOL0     H89652   8.541   3.861   4.063  0.4001  0.4799  0.2209
  650MOL0     H89653   8.581   4.014   3.983 -0.2866  0.2861 -0.7424
  650MOL0     H89654   8.652   4.102   4.197 -2.1517 -0.0865 -1.0668
  650MOL0     H89655   8.588   3.958   4.287 -0.2834 -1.8148 -0.5520
  650MOL0     H89656   8.775   3.822   4.202  1.0613 -0.1544  0.3687
  650MOL0     H89657   8.803   3.937   4.070  1.2667 -1.5359  0.8283
  650MOL0     H89658   9.045   4.137   4.306 -2.0087 -0.6417  0.6217
  650MOL0     H89659   9.279   4.152   4.465 -1.7946  1.5921 -1.4045
  650MOL0     H89660   9.289   4.184   4.289 -0.1266  0.4998 -0.3015
  650MOL0     H89661   9.405   4.069   4.369 -1.1310 -1.5453 -0.0726
  650MOL0     H89662   9.472   3.683   4.657  0.7738 -0.8760  0.6427
  650MOL0     H89663   9.651   3.531   4.744 -0.9598  0.4533 -0.2748
  650MOL0     H89664   9.731   3.154   4.556 -0.6422  0.3136  0.5693
  650MOL0     H89665   9.862   3.245   4.479  0.8323 -1.8726  0.5386
  650MOL0     H89666   9.993   3.235   4.682  0.1754  0.5340  0.7021
  650MOL0     H89667   9.867   3.163   4.772  0.1955  0.1579 -0.1043
  650MOL0     H89668   9.978   3.010   4.537 -0.3528  2.0292 -0.9589
  650MOL0     H89669   9.868   2.956   4.665  2.2697 -2.7958  0.6717
  650MOL0     H89670  10.040   3.005   4.831 -4.4896  0.6571 -0.9973
  650MOL0     H89671  10.155   3.041   4.698  0.1249 -0.0792 -0.7632
  650MOL0     H89672  10.024   2.769   4.771  0.5755 -1.3351 -0.5246
  650MOL0     H89673  10.112   2.796   4.625  1.1501 -1.9217  0.0484
  650MOL0     H89674  10.247   2.853   4.891 -0.6451 -2.0296  1.4150
  650MOL0     H89675  10.319   2.841   4.733  0.1554 -0.8368  0.0500
  650MOL0     H89676  10.233   2.626   4.929 -0.6935 -0.4404 -0.5256
  650MOL0     H89677  10.382   2.642   4.850  0.3018 -1.6140 -1.3265
  650MOL0     H89678  10.269   2.539   4.632 -2.1693 -1.2491 -2.3953
  650MOL0     H89679  10.117   2.574   4.711 -0.5340  0.2256  2.9386
  650MOL0     H89680   9.644   3.306   4.377  0.2131  1.3483 -1.2083
  650MOL0     H89681   9.491   3.483   4.286  2.2328  0.9208 -0.0665
  650MOL0     H89682   9.137   3.658   4.373 -2.1022 -0.0313  1.1940
  650MOL0     H89683   8.925   3.727   4.333  2.4526 -1.1588  0.1095
  650MOL0     H89684   7.134   4.289   3.366 -0.7260 -0.2985 -1.8812
  650MOL0     H89685   6.929   4.206   3.283  0.8605  0.0866  0.6089
  650MOL0     H89686   6.495   3.811   3.626 -1.5612  0.7226  0.4338
  650MOL0     H89687   6.259   3.749   3.552  1.4521 -1.9674 -1.4708
  650MOL0     H89688   6.161   3.699   3.205 -1.3638 -4.4812  0.5149
  650MOL0     H89689   6.175   3.645   3.360  0.2748 -0.6318 -0.4279
  650MOL0     H89690   5.918   3.765   3.269  0.0106 -2.6697 -2.0391
  650MOL0     H89691   5.958   3.702   3.429  3.9586  1.7653  0.3954
  650MOL0     H89692   5.943   3.562   3.159  0.8626  0.9896 -0.2003
  650MOL0     H89693   6.007   3.487   3.306  1.2991  1.0438  0.0487
  650MOL0     H89694   5.712   3.586   3.286 -0.6211  0.5415  2.4418
  650MOL0     H89695   5.799   3.538   3.431 -1.6085 -0.1464 -0.1503
  650MOL0     H89696   5.685   3.167   3.296  1.6647 -0.1705  0.0404
  650MOL0     H89697   6.337   3.944   3.181 -1.5721 -0.2710 -0.1431
  650MOL0     H89698   6.668   3.991   3.201  2.2593  1.9893 -0.8034
  650MOL0     H89699   6.524   4.064   3.129 -1.6762 -0.6979  0.1702
  650MOL0     H89700   6.594   4.136   3.274 -0.7726  1.2556 -3.1230
  651MOL0     O89701  11.042   4.811   6.111 -0.3660  0.6805 -0.5055
  651MOL0     C89702  11.001   4.727   6.030  0.2081  0.1544 -0.2340
  651MOL0     O89703  11.082   4.655   5.944  1.0253  0.4961 -0.6467
  651MOL0     C89704  11.207   4.673   5.971 -0.1003  1.4382 -0.7692
  651MOL0     C89705  11.268   4.608   6.090  0.2486  0.1411  0.2016
  651MOL0     C89706  11.401   4.624   6.110 -0.0614  0.3290 -0.2747
  651MOL0     C89707  11.489   4.702   6.026 -0.5256  0.2225 -1.0876
  651MOL0     O89708  11.610   4.740   6.075 -0.5397 -0.2155 -0.0504
  651MOL0     C89709  11.714   4.778   5.983 -0.4082  0.1932 -0.1559
  651MOL0     C89710  11.836   4.819   6.062 -0.0658  0.5905  0.0649
  651MOL0     C89711  11.961   4.820   5.972 -0.7660 -0.1578 -0.2877
  651MOL0     C89712  12.025   4.682   5.944 -0.0156 -0.1025  0.5417
  651MOL0     C89713  12.184   4.695   5.920  0.2240 -0.1915  0.2409
  651MOL0     C89714  12.239   4.569   5.851  0.3862  0.0611 -0.7125
  651MOL0     C89715  12.258   4.460   5.957  0.0912  0.2745 -0.0087
  651MOL0     C89716  12.397   4.464   6.019  0.7663  0.4312  0.2255
  651MOL0     N89717  12.407   4.387   6.148  0.3396 -0.3032 -0.1302
  651MOL0     C89718  12.310   4.364   6.238 -0.2535  0.7491 -0.5568
  651MOL0     C89719  12.371   4.293   6.341 -0.5395 -1.1534  0.2414
  651MOL0     C89720  12.308   4.211   6.446 -0.4924  0.1896  0.1156
  651MOL0     C89721  12.341   4.247   6.588  0.0891  0.8388  0.3248
  651MOL0     C89722  12.315   4.400   6.604 -1.1056 -0.1090 -0.2205
  651MOL0     C89723  12.306   4.428   6.748 -0.1568 -0.5850  0.2997
  651MOL0     O89724  12.416   4.367   6.820 -0.5850 -0.5512 -0.1336
  651MOL0     C89725  12.542   4.430   6.810 -0.3125  0.1535 -0.9747
  651MOL0     C89726  12.586   4.553   6.761  0.2805  0.4769 -0.3796
  651MOL0     C89727  12.719   4.604   6.755  0.4939 -0.1288  0.5714
  651MOL0     C89728  12.746   4.731   6.685 -1.0143  0.5289  0.0960
  651MOL0     C89729  12.828   4.516   6.795 -0.2397 -1.2896  0.1695
  651MOL0     C89730  12.975   4.537   6.771  0.6785 -0.2681  0.6394
  651MOL0     O89731  13.021   4.670   6.774 -0.0138  0.4665 -0.9821
  651MOL0     C89732  13.146   4.713   6.793  0.6871 -0.0809  0.1322
  651MOL0     C89733  13.260   4.633   6.815  1.1028  1.3838 -0.6653
  651MOL0     C89734  13.382   4.692   6.855  0.4700  0.0859 -0.1054
  651MOL0     C89735  13.399   4.824   6.858 -0.1401 -0.2216  0.9184
  651MOL0     O89736  13.514   4.883   6.895 -0.8064  0.0617 -0.6464
  651MOL0     C89737  13.562   4.858   7.022  0.1293 -0.4752 -0.3150
  651MOL0     C89738  13.662   4.958   7.071 -0.6547 -0.0329 -0.8588
  651MOL0     C89739  13.721   4.945   7.210  0.3667 -0.6219  0.4790
  651MOL0     C89740  13.826   5.061   7.231  0.2231 -0.0159  0.2609
  651MOL0     C89741  13.949   5.071   7.138  0.2910 -0.4208  0.4303
  651MOL0     C89742  14.022   4.940   7.119 -0.3160  0.7040  0.0955
  651MOL0     C89743  14.080   4.878   7.251 -0.6349 -0.1114 -0.1148
  651MOL0     C89744  14.140   4.740   7.216 -0.4980  0.2357 -0.4740
  651MOL0    Cl89745  14.254   4.752   7.083  0.3297 -0.6362  0.2024
  651MOL0     C89746  13.283   4.901   6.831 -0.3514  0.6793  0.0132
  651MOL0     C89747  13.160   4.845   6.803 -0.0331  0.8163 -0.3814
  651MOL0     O89748  13.046   4.434   6.756 -0.2015  0.5502 -0.1096
  651MOL0     C89749  12.787   4.393   6.844  0.0572  0.2857 -0.0196
  651MOL0     C89750  12.652   4.351   6.862  0.6522 -0.7306 -0.3669
  651MOL0     N89751  12.492   4.255   6.298 -0.2858 -0.0746  0.6625
  651MOL0     N89752  12.518   4.309   6.179 -0.2737  0.4232  0.0818
  651MOL0     C89753  11.426   4.765   5.915  0.0737  0.1855  0.6872
  651MOL0     C89754  11.291   4.741   5.888 -0.7385 -0.6805 -0.0809
  651MOL0     C89755  10.857   4.674   6.033 -0.4817 -1.0752  0.1394
  651MOL0     C89756  10.829   4.550   5.975  0.3891  0.5140  0.5246
  651MOL0     C89757  10.697   4.504   5.958 -0.9398  0.1158  0.3688
  651MOL0     C89758  10.596   4.567   6.023  0.1388  0.2931  0.0645
  651MOL0     O89759  10.466   4.533   6.037  0.7055 -0.1131 -0.4952
  651MOL0     C89760  10.418   4.437   5.953 -0.5010  0.2010  0.1232
  651MOL0     C89761  10.276   4.427   5.954  0.1797 -0.4070 -1.0291
  651MOL0     C89762  10.207   4.356   5.845  0.3150 -0.2132  0.1769
  651MOL0     C89763  10.054   4.369   5.854 -0.4329 -0.5858 -0.9075
  651MOL0     C89764  10.009   4.270   5.750 -0.1921  0.2160 -1.2143
  651MOL0     C89765   9.983   4.203   5.655  0.3564  0.7217  0.9999
  651MOL0     C89766  10.630   4.687   6.091  0.4136  0.9656 -0.2715
  651MOL0     C89767  10.757   4.742   6.097 -0.9230  0.7122 -0.1285
  651MOL0     C89768  10.758   4.868   6.177  0.1480  0.0675  1.0494
  651MOL0     H89769  11.202   4.547   6.151 -0.2340  1.1676  0.7309
  651MOL0     H89770  11.453   4.574   6.191 -3.2132 -0.4555  1.3973
  651MOL0     H89771  11.680   4.861   5.920 -0.7352  0.5147  0.4305
  651MOL0     H89772  11.758   4.688   5.938  2.2100 -0.4444  3.1878
  651MOL0     H89773  11.825   4.921   6.099  0.3687  0.2970  1.0477
  651MOL0     H89774  11.858   4.753   6.147 -2.8703 -0.8712 -0.2224
  651MOL0     H89775  11.933   4.874   5.881 -1.0884  0.3833  0.1258
  651MOL0     H89776  12.045   4.873   6.017 -1.3581  0.5183  0.0382
  651MOL0     H89777  12.012   4.602   6.017  1.8477 -0.0926  0.9262
  651MOL0     H89778  11.977   4.650   5.851  0.5612  1.7552 -0.4511
  651MOL0     H89779  12.234   4.715   6.015  0.9167  0.5980 -0.2775
  651MOL0     H89780  12.204   4.782   5.857  3.0129  0.3921  1.7453
  651MOL0     H89781  12.171   4.537   5.772  0.7978 -0.4914 -0.8511
  651MOL0     H89782  12.333   4.597   5.802  0.5812 -1.0275 -0.9895
  651MOL0     H89783  12.254   4.363   5.907  2.0694  0.4577 -0.6000
  651MOL0     H89784  12.180   4.466   6.034  0.5964  0.9266  0.4686
  651MOL0     H89785  12.450   4.406   5.944 -0.3805 -0.0487 -0.2433
  651MOL0     H89786  12.446   4.561   6.028 -0.0591  0.8837 -0.0308
  651MOL0     H89787  12.204   4.385   6.242 -0.5769 -0.8545  0.9735
  651MOL0     H89788  12.349   4.113   6.422  1.2134  0.5403  1.4346
  651MOL0     H89789  12.199   4.204   6.437 -0.4722  0.0335  0.0078
  651MOL0     H89790  12.292   4.188   6.666  0.1083  1.8965  1.1596
  651MOL0     H89791  12.449   4.235   6.592  0.2270  1.4628 -0.8913
  651MOL0     H89792  12.399   4.456   6.562 -1.3455  0.2917 -0.1765
  651MOL0     H89793  12.227   4.430   6.546 -0.9509 -1.9350 -1.4966
  651MOL0     H89794  12.312   4.534   6.775  3.1562 -0.4710 -0.4614
  651MOL0     H89795  12.211   4.401   6.796  0.8673 -2.6262  1.2974
  651MOL0     H89796  12.508   4.608   6.711 -1.9072 -3.0509 -1.2503
  651MOL0     H89797  12.803   4.705   6.595  0.5049 -4.4025  2.1577
  651MOL0     H89798  12.797   4.801   6.752  1.3380 -0.6790 -0.3412
  651MOL0     H89799  12.657   4.789   6.659 -3.1904 -0.0524  5.0657
  651MOL0     H89800  13.258   4.525   6.807 -2.5439  1.2083  0.4752
  651MOL0     H89801  13.460   4.626   6.892 -0.8290  0.1917  3.2090
  651MOL0     H89802  13.478   4.863   7.091 -0.2028 -0.3456 -0.7269
  651MOL0     H89803  13.604   4.758   7.033  1.8920  0.4238  2.1799
  651MOL0     H89804  13.746   4.959   7.001  0.2975  0.6207  0.2507
  651MOL0     H89805  13.615   5.057   7.062 -0.7596  0.2552  1.8631
  651MOL0     H89806  13.773   4.850   7.221  1.0435 -0.8128 -3.1346
  651MOL0     H89807  13.642   4.950   7.286 -0.8866  2.6087 -0.8474
  651MOL0     H89808  13.865   5.037   7.331  1.5142 -3.0750 -0.8623
  651MOL0     H89809  13.765   5.151   7.240 -1.1978 -1.0117  1.1815
  651MOL0     H89810  13.907   5.100   7.041 -1.2503 -2.1342  0.5262
  651MOL0     H89811  14.024   5.145   7.169  1.0849 -0.9499 -0.1902
  651MOL0     H89812  14.111   4.964   7.061 -0.3135  0.5131  0.0205
  651MOL0     H89813  13.961   4.875   7.055 -1.2188  1.3336  0.2846
  651MOL0     H89814  13.996   4.870   7.320 -3.5982  0.6506 -3.3497
  651MOL0     H89815  14.160   4.938   7.294 -0.6892  1.8033 -2.4555
  651MOL0     H89816  14.057   4.674   7.189 -0.5994  0.7479 -1.4605
  651MOL0     H89817  14.193   4.694   7.300 -2.3908 -1.4051 -0.0933
  651MOL0     H89818  13.289   5.009   6.829  0.9802  0.6581  1.1869
  651MOL0     H89819  13.065   4.895   6.783 -0.3625 -0.2672 -1.6785
  651MOL0     H89820  12.850   4.307   6.865 -1.6308 -0.8983  0.3984
  651MOL0     H89821  12.623   4.254   6.901 -0.9884 -2.6538 -5.5077
  651MOL0     H89822  11.479   4.840   5.857  1.7950 -0.9549  0.7169
  651MOL0     H89823  11.251   4.800   5.806  2.7374  0.1828 -1.3009
  651MOL0     H89824  10.912   4.503   5.923  2.3248  0.7590  3.1988
  651MOL0     H89825  10.689   4.419   5.892  1.4395 -0.3304  0.5587
  651MOL0     H89826  10.443   4.465   5.850  0.9380 -1.8147 -0.1314
  651MOL0     H89827  10.466   4.344   5.985  0.8037  1.4563  2.0163
  651MOL0     H89828  10.232   4.525   5.971 -1.6637 -1.2828 -0.5286
  651MOL0     H89829  10.252   4.381   6.050 -2.9976 -1.0917 -2.0528
  651MOL0     H89830  10.247   4.401   5.754  0.6125  1.9804  1.3472
  651MOL0     H89831  10.241   4.252   5.833  1.2325  0.4050 -4.5733
  651MOL0     H89832  10.022   4.472   5.835  0.5389 -0.2083 -0.5551
  651MOL0     H89833  10.035   4.340   5.958 -0.1325 -6.3487 -2.1125
  651MOL0     H89834   9.963   4.141   5.570 -3.7284  1.0143  1.5824
  651MOL0     H89835  10.547   4.737   6.140  0.8197  2.7402 -1.2908
  651MOL0     H89836  10.837   4.870   6.253 -1.6788  1.0372  3.0362
  651MOL0     H89837  10.773   4.954   6.111 -3.4913  1.1724  1.4270
  651MOL0     H89838  10.666   4.886   6.234 -0.8793 -3.3523  0.6973
  652MOL0     O89839   7.270   5.758  10.566  0.1391  0.2896  0.7872
  652MOL0     C89840   7.215   5.811  10.468 -0.2298  0.4079 -0.6751
  652MOL0     O89841   7.248   5.780  10.338  0.1859 -0.4363 -0.4744
  652MOL0     C89842   7.354   5.701  10.305 -0.9180  0.1589  0.3891
  652MOL0     C89843   7.388   5.585  10.374 -0.7168  0.3921  0.4460
  652MOL0     C89844   7.501   5.510  10.335 -0.3294 -0.5983  0.3459
  652MOL0     C89845   7.577   5.540  10.226  0.2044  0.4911  0.7981
  652MOL0     O89846   7.674   5.442  10.193 -0.6554  0.4366 -0.1164
  652MOL0     C89847   7.759   5.458  10.075  0.4191 -0.8083 -0.0883
  652MOL0     C89848   7.887   5.373  10.097 -0.2504 -0.2294 -0.4290
  652MOL0     C89849   7.977   5.433  10.202  0.1235 -0.8883  0.4543
  652MOL0     C89850   8.027   5.317  10.284  0.1449 -0.2876 -0.4221
  652MOL0     C89851   8.096   5.377  10.410 -0.0129 -0.2088  0.5147
  652MOL0     C89852   8.199   5.291  10.480  0.1877  0.1089  0.3260
  652MOL0     C89853   8.271   5.364  10.594 -0.2220 -0.1196 -0.9048
  652MOL0     C89854   8.351   5.251  10.676 -0.6559 -0.2723 -0.4256
  652MOL0     N89855   8.441   5.314  10.781 -0.7916 -0.1203 -0.6016
  652MOL0     C89856   8.529   5.420  10.779  0.5398  0.1095  0.0211
  652MOL0     C89857   8.588   5.409  10.896  0.6181 -0.9597 -0.0494
  652MOL0     C89858   8.701   5.503  10.934  0.0412  0.5166  0.5091
  652MOL0     C89859   8.823   5.476  10.857 -0.1099  0.4592  0.1501
  652MOL0     C89860   8.906   5.364  10.912  0.3745  0.2266  0.3117
  652MOL0     C89861   9.025   5.410  10.998 -0.7731  0.0501 -0.4620
  652MOL0     O89862   9.118   5.478  10.910 -0.0891  0.4091  0.5291
  652MOL0     C89863   9.220   5.551  10.962 -0.0782  0.2619 -0.3031
  652MOL0     C89864   9.292   5.628  10.876 -0.1916  0.3113 -0.4162
  652MOL0     C89865   9.406   5.700  10.912 -0.2198  0.6668 -0.2356
  652MOL0     C89866   9.461   5.798  10.808 -1.0005  0.1992  0.4593
  652MOL0     C89867   9.440   5.700  11.053  0.1685  0.6293  0.1191
  652MOL0     C89868   9.555   5.783  11.111 -0.3516 -1.0096  0.1859
  652MOL0     O89869   9.543   5.838  11.231 -0.1158  0.6471  0.7743
  652MOL0     C89870   9.644   5.910  11.285 -0.9525 -0.0535 -0.0767
  652MOL0     C89871   9.666   6.051  11.281 -0.4541 -0.4867 -0.4244
  652MOL0     C89872   9.778   6.115  11.338  0.3052 -0.1042 -0.2816
  652MOL0     C89873   9.869   6.038  11.409 -0.0788 -0.4345 -0.7220
  652MOL0     O89874   9.974   6.107  11.460  0.2141 -0.1334 -0.5453
  652MOL0     C89875  10.078   6.027  11.529  0.0791  0.7354 -0.9371
  652MOL0     C89876  10.206   6.103  11.554 -0.0661 -0.0819  0.0732
  652MOL0     C89877  10.305   6.013  11.633  0.0456 -0.5172  0.1788
  652MOL0     C89878  10.409   6.111  11.691 -0.7472  0.1503  0.1041
  652MOL0     C89879  10.530   6.032  11.744 -0.3155  0.4441 -0.1806
  652MOL0     C89880  10.640   6.134  11.789 -0.6617 -0.9888  0.9965
  652MOL0     C89881  10.743   6.059  11.860 -0.1007 -0.0048 -0.4037
  652MOL0     C89882  10.876   6.136  11.886  0.7244  0.2134  0.3770
  652MOL0    Cl89883  10.987   6.026  11.978 -0.2440  0.5115 -0.2834
  652MOL0     C89884   9.842   5.901  11.428 -0.0008 -0.1405 -0.1581
  652MOL0     C89885   9.729   5.836  11.366  0.0508  0.3049  0.4484
  652MOL0     O89886   9.650   5.798  11.032 -0.3432  0.0534 -0.1721
  652MOL0     C89887   9.378   5.609  11.143 -0.3363  0.5283 -0.9481
  652MOL0     C89888   9.259   5.542  11.099 -0.0312 -0.4073 -0.7969
  652MOL0     N89889   8.538   5.308  10.973 -0.1123  0.6324 -0.5051
  652MOL0     N89890   8.447   5.253  10.901 -0.0604 -0.4259 -0.7856
  652MOL0     C89891   7.531   5.648  10.145 -0.0273 -0.8251 -0.4458
  652MOL0     C89892   7.423   5.732  10.183 -0.0190 -0.2406 -0.3125
  652MOL0     C89893   7.103   5.911  10.505  0.0574  1.2256  0.6126
  652MOL0     C89894   7.004   5.933  10.404  0.1877 -0.1924 -0.2001
  652MOL0     C89895   6.896   6.022  10.414 -0.4200 -0.6723  0.3499
  652MOL0     C89896   6.880   6.099  10.532 -0.2086  0.2033  0.0258
  652MOL0     O89897   6.775   6.178  10.559 -0.1611  0.1987 -0.4061
  652MOL0     C89898   6.680   6.198  10.463 -0.4970  0.0433 -0.6061
  652MOL0     C89899   6.584   6.287  10.542 -0.4298  0.4279 -0.4502
  652MOL0     C89900   6.516   6.233  10.662  0.4349 -1.0587 -0.7471
  652MOL0     C89901   6.370   6.288  10.682  0.0335 -0.6875  0.7012
  652MOL0     C89902   6.321   6.221  10.806 -0.1004 -1.1160 -0.6676
  652MOL0     C89903   6.286   6.183  10.917  0.4642  0.1766  0.0595
  652MOL0     C89904   6.978   6.069  10.636  0.0054 -0.1344 -0.3532
  652MOL0     C89905   7.090   5.977  10.629  0.1855 -0.5526  0.3213
  652MOL0     C89906   7.183   5.965  10.742  0.7103  0.1798  0.1964
  652MOL0     H89907   7.320   5.543  10.448 -0.8523  2.6191  1.6880
  652MOL0     H89908   7.525   5.425  10.397 -0.7732 -1.3431 -0.4821
  652MOL0     H89909   7.779   5.564  10.056 -0.4791  0.3443  4.3641
  652MOL0     H89910   7.709   5.433   9.981 -0.6819  3.5378 -0.8925
  652MOL0     H89911   7.855   5.270  10.116  2.1104 -1.3621 -2.0322
  652MOL0     H89912   7.949   5.367  10.007  0.2262  0.0305 -0.1191
  652MOL0     H89913   8.057   5.486  10.150 -2.5313  2.3739 -0.6252
  652MOL0     H89914   7.925   5.507  10.264  1.5131  2.3763 -1.9644
  652MOL0     H89915   7.949   5.248  10.320  0.2969 -0.2836 -0.0765
  652MOL0     H89916   8.101   5.262  10.225  0.3436 -0.2577 -0.2023
  652MOL0     H89917   8.021   5.411  10.483 -0.6763 -0.7433  0.0907
  652MOL0     H89918   8.163   5.457  10.377 -1.2926 -0.0824 -1.9864
  652MOL0     H89919   8.142   5.213  10.531  2.2191 -0.2157  2.2539
  652MOL0     H89920   8.275   5.247  10.415  2.2641  2.1263  1.2547
  652MOL0     H89921   8.197   5.416  10.655  2.8402  1.5307  1.7324
  652MOL0     H89922   8.340   5.431  10.542 -1.4625  0.3559 -1.9820
  652MOL0     H89923   8.280   5.183  10.725 -1.4619  2.2068  2.1051
  652MOL0     H89924   8.411   5.189  10.609 -0.4178  0.3180 -0.7664
  652MOL0     H89925   8.542   5.507  10.716  0.0667 -0.9376 -1.5729
  652MOL0     H89926   8.719   5.517  11.041 -0.0935  0.0664  0.5949
  652MOL0     H89927   8.673   5.602  10.899  1.5865 -0.3781 -3.8093
  652MOL0     H89928   8.795   5.445  10.755  1.5654 -0.4698 -0.0511
  652MOL0     H89929   8.879   5.569  10.846  0.4179  0.2483  1.0292
  652MOL0     H89930   8.835   5.299  10.964  0.0163  0.4873  0.1478
  652MOL0     H89931   8.951   5.307  10.830  0.1797 -2.1293  1.7341
  652MOL0     H89932   8.980   5.460  11.083 -0.2953  0.1342 -0.2508
  652MOL0     H89933   9.081   5.337  11.059  0.3120  1.5678  0.4273
  652MOL0     H89934   9.260   5.632  10.772  2.6640  1.4191 -1.3535
  652MOL0     H89935   9.380   5.844  10.751 -3.0497 -1.0135  2.2560
  652MOL0     H89936   9.545   5.762  10.748 -0.0361  0.8999  1.3521
  652MOL0     H89937   9.510   5.879  10.862  0.0796 -0.3291  0.3125
  652MOL0     H89938   9.591   6.115  11.236  1.5440  1.0051 -1.8126
  652MOL0     H89939   9.797   6.222  11.330  1.4859 -0.3883 -1.5458
  652MOL0     H89940  10.045   5.979  11.622  0.7848  2.3495  0.1870
  652MOL0     H89941  10.112   5.946  11.464  4.2220  0.1848  1.5222
  652MOL0     H89942  10.253   6.137  11.461  1.3175  0.2004  0.8393
  652MOL0     H89943  10.184   6.195  11.608 -0.6433 -0.0208 -0.2647
  652MOL0     H89944  10.359   5.952  11.560 -0.5299  0.0824 -0.7689
  652MOL0     H89945  10.266   5.954  11.717 -0.5221 -0.3092  0.0653
  652MOL0     H89946  10.375   6.162  11.781  4.1105 -0.3336  2.5594
  652MOL0     H89947  10.439   6.182  11.613  0.5818  0.2009  0.6314
  652MOL0     H89948  10.498   5.982  11.835 -1.7172  2.6932  0.6382
  652MOL0     H89949  10.581   5.959  11.680  2.2475  0.1751  1.9976
  652MOL0     H89950  10.591   6.203  11.859 -2.3744 -0.9331 -0.1973
  652MOL0     H89951  10.684   6.201  11.714 -0.8835 -0.2539  1.5041
  652MOL0     H89952  10.766   5.968  11.804  2.6085 -0.1611  0.8126
  652MOL0     H89953  10.715   6.033  11.962  1.2312 -2.4823 -0.5963
  652MOL0     H89954  10.858   6.228  11.943 -2.5256 -0.6461  0.9359
  652MOL0     H89955  10.917   6.162  11.788 -2.6289 -0.5200 -1.3411
  652MOL0     H89956   9.914   5.844  11.485 -0.5636  0.7659  1.5183
  652MOL0     H89957   9.723   5.727  11.366  2.2418  0.1272 -0.7202
  652MOL0     H89958   9.417   5.577  11.239 -0.4200 -0.1464 -1.1279
  652MOL0     H89959   9.221   5.478  11.178  2.2326  0.1686  0.8527
  652MOL0     H89960   7.586   5.694  10.064 -1.4022  0.3174 -0.7731
  652MOL0     H89961   7.387   5.818  10.128 -0.9310  1.9635  3.4001
  652MOL0     H89962   7.007   5.877  10.311 -0.3893  1.9704 -1.5983
  652MOL0     H89963   6.831   6.023  10.327  1.5497 -2.0574 -1.2343
  652MOL0     H89964   6.718   6.256  10.378  1.7436 -3.1017 -1.9070
  652MOL0     H89965   6.633   6.104  10.433  2.7163 -1.3278 -1.7317
  652MOL0     H89966   6.522   6.324  10.460  1.0010 -2.1653 -2.8974
  652MOL0     H89967   6.642   6.371  10.581 -1.1160 -0.4077  2.6501
  652MOL0     H89968   6.521   6.124  10.652  3.9749 -1.0320 -0.4618
  652MOL0     H89969   6.574   6.252  10.752  2.0129 -0.5347 -1.8347
  652MOL0     H89970   6.311   6.266  10.593 -1.3896 -0.0456  1.4569
  652MOL0     H89971   6.374   6.397  10.693  3.6209 -0.6301  0.2164
  652MOL0     H89972   6.266   6.168  11.021 -1.3652  3.0147  0.2167
  652MOL0     H89973   6.981   6.138  10.720 -0.3486 -1.8038  1.0746
  652MOL0     H89974   7.222   5.867  10.770  0.7879  0.9235  2.8930
  652MOL0     H89975   7.272   6.029  10.734  0.2947  0.9981  1.7638
  652MOL0     H89976   7.131   6.010  10.827 -2.7653 -0.3850 -1.4858
  653MOL0     O89977   6.281  11.088   2.270  0.1908 -0.0865  0.4398
  653MOL0     C89978   6.388  11.151   2.276  0.0228 -0.4538  1.0168
  653MOL0     O89979   6.514  11.101   2.255 -0.1450 -0.2292 -1.0088
  653MOL0     C89980   6.512  10.971   2.210 -0.6585 -0.2716  0.2223
  653MOL0     C89981   6.504  10.852   2.290  0.4773  0.5229 -0.1141
  653MOL0     C89982   6.503  10.724   2.231  0.0507 -0.5596  0.0382
  653MOL0     C89983   6.525  10.707   2.093 -0.0840 -1.1976 -0.1735
  653MOL0     O89984   6.543  10.572   2.055  1.1811 -0.1760  0.0983
  653MOL0     C89985   6.661  10.557   1.975 -0.3162 -0.0740 -0.4658
  653MOL0     C89986   6.675  10.413   1.957 -0.8571 -0.9553 -0.4733
  653MOL0     C89987   6.816  10.377   1.914  0.3804 -0.7195  0.1386
  653MOL0     C89988   6.858  10.445   1.780  1.0337 -0.0552  0.5412
  653MOL0     C89989   6.767  10.433   1.657  0.4975 -0.5650  0.4055
  653MOL0     C89990   6.817  10.525   1.544  0.6541 -0.2074  0.0269
  653MOL0     C89991   6.724  10.511   1.431 -0.5234  0.1877  0.6135
  653MOL0     C89992   6.747  10.621   1.323  0.2283  0.7105  0.1828
  653MOL0     N89993   6.877  10.611   1.265 -0.1726  0.4930  0.3339
  653MOL0     C89994   6.886  10.626   1.128 -0.3691 -0.8359  0.0010
  653MOL0     C89995   7.021  10.651   1.116 -0.2044  0.0295  0.7583
  653MOL0     C89996   7.094  10.659   0.984  0.1424 -0.0907  0.1665
  653MOL0     C89997   7.133  10.511   0.955 -0.9321  0.5018 -0.0267
  653MOL0     C89998   7.239  10.491   0.848 -0.2295  0.0098 -0.0318
  653MOL0     C89999   7.379  10.528   0.895 -0.3358  0.8112 -0.2687
  653MOL0     O90000   7.476  10.449   0.825 -0.2779  0.3349  0.2691
  653MOL0     C90001   7.602  10.493   0.837  0.4007 -0.3987 -0.0849
  653MOL0     C90002   7.668  10.478   0.713  0.5016 -0.3816  0.3242
  653MOL0     C90003   7.801  10.523   0.699 -0.0440  1.1725  0.4424
  653MOL0     C90004   7.866  10.494   0.566 -0.3527  0.1771 -0.9383
  653MOL0     C90005   7.868  10.593   0.806 -0.0093 -0.8058  0.5111
  653MOL0     C90006   8.002  10.655   0.800 -0.9384 -0.2075  0.1613
  653MOL0     O90007   8.066  10.651   0.682 -0.5173  0.1229  0.5599
  653MOL0     C90008   8.196  10.684   0.680  0.0758 -0.2411 -0.3144
  653MOL0     C90009   8.263  10.791   0.744 -0.2074 -0.6302  0.3544
  653MOL0     C90010   8.404  10.805   0.726 -0.1073  0.8811 -0.1349
  653MOL0     C90011   8.484  10.713   0.638 -0.1541 -0.0105  0.0026
  653MOL0     O90012   8.625  10.707   0.640 -0.1836 -0.3202 -0.5624
  653MOL0     C90013   8.687  10.761   0.754  0.2250 -0.4526  0.5855
  653MOL0     C90014   8.836  10.719   0.752  0.8260 -0.6072  0.3373
  653MOL0     C90015   8.905  10.755   0.884 -1.0227  0.1341 -0.3889
  653MOL0     C90016   9.055  10.744   0.868 -1.4747  0.0464  0.2533
  653MOL0     C90017   9.134  10.786   0.988 -0.2431 -0.3481 -0.1803
  653MOL0     C90018   9.280  10.724   0.985 -0.5574 -0.4828  0.0574
  653MOL0     C90019   9.375  10.811   1.072  0.0046 -0.1040  0.3430
  653MOL0     C90020   9.520  10.768   1.086 -0.6432 -0.2410 -0.1017
  653MOL0    Cl90021   9.534  10.632   1.205 -0.1539  0.1049  0.0353
  653MOL0     C90022   8.408  10.624   0.568 -0.0884 -0.2510  0.3479
  653MOL0     C90023   8.273  10.602   0.599 -0.0540  0.1257  0.4998
  653MOL0     O90024   8.054  10.679   0.907 -0.2059 -0.0203 -0.1194
  653MOL0     C90025   7.800  10.612   0.921  0.9070 -1.0501 -0.1962
  653MOL0     C90026   7.667  10.567   0.942  0.1802 -0.1523 -0.7257
  653MOL0     N90027   7.086  10.660   1.236 -0.2516 -0.2988 -0.4975
  653MOL0     N90028   6.998  10.631   1.328 -0.2158 -0.0178 -0.8984
  653MOL0     C90029   6.545  10.825   2.011  0.6063  0.3117 -0.2453
  653MOL0     C90030   6.531  10.949   2.070  0.1927  0.3117 -0.0217
  653MOL0     C90031   6.388  11.298   2.304 -0.4029 -0.8714 -0.2380
  653MOL0     C90032   6.498  11.347   2.389 -0.4979  0.2949  0.7075
  653MOL0     C90033   6.510  11.479   2.422  0.9952  0.6106 -1.4674
  653MOL0     C90034   6.412  11.569   2.379 -0.8599 -0.1338 -0.1028
  653MOL0     O90035   6.440  11.697   2.414  0.0153 -0.2901  0.0277
  653MOL0     C90036   6.381  11.804   2.347 -0.4403  0.0583  0.2953
  653MOL0     C90037   6.479  11.924   2.333  0.5191  0.2074 -0.2010
  653MOL0     C90038   6.561  11.963   2.457  0.4597 -0.7095 -0.6411
  653MOL0     C90039   6.461  12.029   2.551  0.0304 -0.7595  0.0345
  653MOL0     C90040   6.522  12.083   2.666  0.1946  0.1484  0.0031
  653MOL0     C90041   6.568  12.127   2.770  0.1713  0.0672  0.4197
  653MOL0     C90042   6.307  11.525   2.302  0.5735  0.0376 -1.3552
  653MOL0     C90043   6.292  11.394   2.262 -0.2053 -0.1842  0.5935
  653MOL0     C90044   6.170  11.350   2.177  0.1355  0.2430 -0.2863
  653MOL0     H90045   6.505  10.855   2.399  1.4916  0.5717 -0.1148
  653MOL0     H90046   6.515  10.641   2.300  1.3702 -0.4063  0.0119
  653MOL0     H90047   6.753  10.601   2.015  1.1218 -1.2525 -2.3393
  653MOL0     H90048   6.652  10.599   1.874 -1.7335 -0.8419 -0.6760
  653MOL0     H90049   6.658  10.366   2.055  0.3762 -2.6634 -1.0399
  653MOL0     H90050   6.601  10.375   1.886  1.5800 -2.2373 -2.4857
  653MOL0     H90051   6.894  10.388   1.989  1.0683  0.3290 -0.7113
  653MOL0     H90052   6.826  10.270   1.893  1.2720 -0.7612  0.7673
  653MOL0     H90053   6.887  10.550   1.780  0.8167  0.0191 -0.3819
  653MOL0     H90054   6.950  10.393   1.751  0.8556 -0.8734  1.3843
  653MOL0     H90055   6.667  10.472   1.676  0.4312  0.0831 -1.1443
  653MOL0     H90056   6.752  10.330   1.623  1.7104  0.1936 -2.8028
  653MOL0     H90057   6.808  10.629   1.576 -2.2615  0.0853 -1.4572
  653MOL0     H90058   6.920  10.496   1.518  0.5446  0.4124 -1.1595
  653MOL0     H90059   6.618  10.528   1.453 -0.4786 -0.3743  1.3081
  653MOL0     H90060   6.738  10.409   1.392  0.0940  0.4438  0.1477
  653MOL0     H90061   6.670  10.611   1.246 -1.5113 -1.0945  2.0138
  653MOL0     H90062   6.720  10.721   1.358 -0.2000  0.3917  0.7904
  653MOL0     H90063   6.798  10.611   1.067 -1.6879 -0.9150  1.8512
  653MOL0     H90064   7.181  10.723   1.000 -0.2877  0.3635  0.7376
  653MOL0     H90065   7.038  10.704   0.902  0.0396 -2.8585 -1.4138
  653MOL0     H90066   7.174  10.465   1.045 -3.1812  0.6215  1.1335
  653MOL0     H90067   7.048  10.448   0.929 -0.8163  0.3914 -0.1345
  653MOL0     H90068   7.220  10.387   0.822 -1.4295  0.3837 -0.7583
  653MOL0     H90069   7.206  10.551   0.762 -1.3737  0.2043  0.5194
  653MOL0     H90070   7.388  10.637   0.886 -1.7779  0.9778  0.0620
  653MOL0     H90071   7.395  10.508   1.002  1.9567  2.5764 -0.2062
  653MOL0     H90072   7.613  10.438   0.628 -0.1483 -0.2545  0.6800
  653MOL0     H90073   7.798  10.452   0.491  0.3530 -1.1085 -0.8948
  653MOL0     H90074   7.947  10.426   0.593 -0.4152  0.7793  0.8377
  653MOL0     H90075   7.909  10.576   0.507  1.1370 -1.8603 -2.8887
  653MOL0     H90076   8.203  10.859   0.803 -1.0625 -2.4751  1.7030
  653MOL0     H90077   8.465  10.883   0.771  0.5494  0.1023  0.3690
  653MOL0     H90078   8.679  10.870   0.767  0.0268 -0.4467  0.4140
  653MOL0     H90079   8.643  10.723   0.847 -0.9480  1.3140  0.8007
  653MOL0     H90080   8.833  10.610   0.749 -0.8127 -0.6095  0.9393
  653MOL0     H90081   8.889  10.768   0.670  1.0499  2.5217  2.2022
  653MOL0     H90082   8.871  10.701   0.973 -1.2253  0.2239 -0.4101
  653MOL0     H90083   8.882  10.862   0.890 -0.2983  0.5099 -3.1486
  653MOL0     H90084   9.080  10.795   0.774 -0.0054  0.7085  0.9822
  653MOL0     H90085   9.076  10.639   0.846 -2.4661 -0.0425 -0.3255
  653MOL0     H90086   9.136  10.895   0.989 -1.9336 -0.2834 -0.5204
  653MOL0     H90087   9.087  10.749   1.079 -0.6867  1.7664  0.5076
  653MOL0     H90088   9.323  10.738   0.885  3.8225  1.9783  1.9955
  653MOL0     H90089   9.288  10.620   1.019 -3.9797 -0.8119  0.1823
  653MOL0     H90090   9.337  10.817   1.174 -2.8051  0.3424 -0.6429
  653MOL0     H90091   9.365  10.913   1.034  0.6428  0.1274  0.7684
  653MOL0     H90092   9.575  10.857   1.118 -1.7873  0.5430 -0.2648
  653MOL0     H90093   9.562  10.747   0.987 -0.1167  3.4504 -0.8197
  653MOL0     H90094   8.468  10.562   0.501 -3.2965 -2.8863 -0.3337
  653MOL0     H90095   8.239  10.505   0.565  3.6149 -0.3854 -2.3638
  653MOL0     H90096   7.828  10.673   1.006 -1.4846  1.3870 -1.0463
  653MOL0     H90097   7.620  10.602   1.034  3.2210  0.9419  0.5544
  653MOL0     H90098   6.546  10.829   1.903 -2.7552 -1.4828 -0.4767
  653MOL0     H90099   6.528  11.043   2.016 -1.1366  2.1805  3.0402
  653MOL0     H90100   6.567  11.272   2.427  0.6237  0.8465 -0.1917
  653MOL0     H90101   6.582  11.510   2.497 -1.0268 -2.2524  1.9550
  653MOL0     H90102   6.363  11.780   2.242 -1.5915  1.4857  0.1289
  653MOL0     H90103   6.284  11.835   2.386  0.2827  0.4862  1.8115
  653MOL0     H90104   6.425  12.011   2.295  2.9259  1.3497 -1.2193
  653MOL0     H90105   6.554  11.896   2.259  1.3672 -0.8835  1.0210
  653MOL0     H90106   6.617  11.888   2.514  0.4882  0.5346  1.0715
  653MOL0     H90107   6.645  12.030   2.435  0.3477  0.3204  1.7197
  653MOL0     H90108   6.395  11.949   2.588 -2.9911  0.9419 -1.3219
  653MOL0     H90109   6.393  12.105   2.512  0.5124  0.4086  1.3958
  653MOL0     H90110   6.610  12.148   2.866 -1.3344 -0.4240  1.2114
  653MOL0     H90111   6.240  11.608   2.285  2.3428  1.8312 -0.0332
  653MOL0     H90112   6.114  11.440   2.150  0.5617  1.1151  1.5751
  653MOL0     H90113   6.209  11.301   2.087 -0.1352  1.1158 -0.8901
  653MOL0     H90114   6.104  11.286   2.237 -0.4281 -0.3906 -1.5524
  654MOL0     O90115   4.457   7.235  11.073  0.0478 -0.9128 -0.1816
  654MOL0     C90116   4.357   7.256  11.141  1.0106 -0.4294  0.3746
  654MOL0     O90117   4.356   7.278  11.272  0.2571 -0.4403  0.2424
  654MOL0     C90118   4.471   7.309  11.327 -0.0293  0.4845  0.2073
  654MOL0     C90119   4.520   7.442  11.329  0.8061  0.6136  0.2283
  654MOL0     C90120   4.642   7.469  11.384  0.5109 -0.2036  0.0871
  654MOL0     C90121   4.723   7.369  11.445 -0.1816 -0.4196  1.0309
  654MOL0     O90122   4.843   7.392  11.498 -0.6144 -0.4674  0.0069
  654MOL0     C90123   4.864   7.510  11.577  0.0795  0.2345 -0.2692
  654MOL0     C90124   4.920   7.461  11.716 -0.0277 -0.4325  0.7336
  654MOL0     C90125   4.965   7.573  11.802 -0.7805 -1.2279  0.4349
  654MOL0     C90126   5.066   7.517  11.908  0.1151 -0.2722  0.4255
  654MOL0     C90127   5.100   7.617  12.024  0.1383 -0.1923 -0.0364
  654MOL0     C90128   5.201   7.540  12.121  0.7030 -0.2786 -0.2322
  654MOL0     C90129   5.346   7.551  12.072 -0.2398  0.1212  0.6124
  654MOL0     C90130   5.447   7.488  12.156 -0.4231  0.5399  0.0461
  654MOL0     N90131   5.452   7.554  12.292 -0.5909  0.5136  0.9061
  654MOL0     C90132   5.434   7.681  12.329  0.8330 -0.1977  0.6056
  654MOL0     C90133   5.482   7.688  12.454  0.8741 -0.7108 -0.7171
  654MOL0     C90134   5.472   7.813  12.536  0.8780 -0.0721 -0.0427
  654MOL0     C90135   5.324   7.842  12.591 -0.7116 -0.6624  0.4023
  654MOL0     C90136   5.224   7.874  12.481 -0.4775  0.0851 -1.3358
  654MOL0     C90137   5.094   7.920  12.544 -1.3033  0.1310  0.9749
  654MOL0     O90138   5.111   8.038  12.627 -1.1483  0.6419 -0.1731
  654MOL0     C90139   5.149   8.156  12.572  0.0598 -0.5310 -0.2725
  654MOL0     C90140   5.143   8.174  12.426  0.2263 -0.0217  0.5230
  654MOL0     C90141   5.183   8.295  12.373 -0.0098  0.1453 -0.7434
  654MOL0     C90142   5.168   8.316  12.225 -0.4326 -0.1540  0.1101
  654MOL0     C90143   5.229   8.408  12.458  0.4929  0.2430 -0.4511
  654MOL0     C90144   5.271   8.537  12.399  0.4508 -0.2361  0.5112
  654MOL0     O90145   5.234   8.654  12.460  0.4654  0.0058 -0.2402
  654MOL0     C90146   5.286   8.783  12.428 -1.0158  0.0162  0.3713
  654MOL0     C90147   5.202   8.885  12.429 -0.2822 -0.2605 -0.1100
  654MOL0     C90148   5.241   9.016  12.395  0.3777 -1.1061 -0.5503
  654MOL0     C90149   5.370   9.039  12.359 -0.6276 -0.2305 -0.1217
  654MOL0     O90150   5.427   9.165  12.325  0.6831 -0.3399 -0.5127
  654MOL0     C90151   5.354   9.292  12.342 -0.0736  0.5753  0.2096
  654MOL0     C90152   5.416   9.362  12.469  0.1477 -0.4255  0.4694
  654MOL0     C90153   5.455   9.507  12.446  0.4036 -0.5211 -0.6052
  654MOL0     C90154   5.476   9.572  12.584 -0.1711  0.8937 -0.5714
  654MOL0     C90155   5.603   9.515  12.650  0.1323  0.4838  0.2842
  654MOL0     C90156   5.635   9.590  12.786  0.3537  0.7608 -0.6153
  654MOL0     C90157   5.751   9.531  12.860 -0.0482  0.1373 -0.9222
  654MOL0     C90158   5.815   9.641  12.946 -0.1601  0.0256  0.7131
  654MOL0    Cl90159   5.899   9.761  12.852 -0.0870  0.1190  0.1248
  654MOL0     C90160   5.459   8.933  12.356  0.2354 -0.1608  0.6911
  654MOL0     C90161   5.421   8.800  12.388  0.6969 -0.2331  0.4967
  654MOL0     O90162   5.356   8.527  12.305  0.4586 -0.2199 -0.6317
  654MOL0     C90163   5.232   8.394  12.594  0.0923 -0.3474 -0.1921
  654MOL0     C90164   5.186   8.267  12.645 -0.3944  0.3212 -0.2506
  654MOL0     N90165   5.518   7.564  12.497 -0.4988 -0.2101  0.6366
  654MOL0     N90166   5.493   7.478  12.397 -0.3736  0.3246 -0.4715
  654MOL0     C90167   4.682   7.238  11.429  0.8259 -0.3637 -0.8540
  654MOL0     C90168   4.556   7.207  11.370 -0.1040  0.2742 -0.4778
  654MOL0     C90169   4.231   7.252  11.072  0.2282  0.6464  0.0385
  654MOL0     C90170   4.128   7.328  11.124 -0.3183  0.2396 -0.6105
  654MOL0     C90171   4.006   7.318  11.056 -0.0243 -1.2390 -0.5607
  654MOL0     C90172   3.980   7.244  10.942 -0.0012  0.1710 -1.1705
  654MOL0     O90173   3.864   7.222  10.869  0.2160 -0.0185  0.4752
  654MOL0     C90174   3.744   7.275  10.922  0.1851 -0.3887 -0.1671
  654MOL0     C90175   3.724   7.416  10.871 -0.8436  0.1300 -0.7425
  654MOL0     C90176   3.588   7.475  10.908 -0.5043  1.2086  0.2448
  654MOL0     C90177   3.473   7.421  10.818 -0.0637  0.0987  0.3671
  654MOL0     C90178   3.483   7.449  10.673  0.0179  0.8240  0.3590
  654MOL0     C90179   3.491   7.473  10.552  0.1629  0.1444  0.4027
  654MOL0     C90180   4.086   7.167  10.897  0.4159  0.9191 -0.3285
  654MOL0     C90181   4.211   7.163  10.960  0.4966  0.2845  0.2655
  654MOL0     C90182   4.308   7.053  10.916  1.3286 -0.9183 -0.4363
  654MOL0     H90183   4.455   7.521  11.292 -0.5952 -0.8441 -0.5360
  654MOL0     H90184   4.657   7.576  11.380 -1.4886  0.2896  2.6472
  654MOL0     H90185   4.773   7.567  11.600 -0.1028 -1.1985  3.3474
  654MOL0     H90186   4.939   7.572  11.528  0.6918 -0.0635  0.2693
  654MOL0     H90187   4.846   7.394  11.762 -1.3750  1.6258  1.7311
  654MOL0     H90188   5.009   7.401  11.697  0.2463 -1.6569  4.9628
  654MOL0     H90189   5.011   7.656  11.748 -2.0261 -1.2125 -0.6362
  654MOL0     H90190   4.874   7.613  11.848 -0.2397 -0.7957  1.1422
  654MOL0     H90191   5.019   7.427  11.948 -2.2237  0.5690 -0.2311
  654MOL0     H90192   5.144   7.491  11.836 -1.0359  2.4102 -2.0072
  654MOL0     H90193   5.010   7.623  12.085  0.7796  1.0956  0.8436
  654MOL0     H90194   5.137   7.717  11.997 -1.0317  0.1993 -0.2503
  654MOL0     H90195   5.186   7.583  12.221  0.7031 -0.5333 -0.1215
  654MOL0     H90196   5.177   7.434  12.133 -0.4300 -0.0253 -0.2080
  654MOL0     H90197   5.356   7.660  12.069 -2.1948  0.3201 -0.2514
  654MOL0     H90198   5.363   7.519  11.969 -2.3968 -1.2640  0.6131
  654MOL0     H90199   5.443   7.381  12.177  2.8299  0.4946  0.9571
  654MOL0     H90200   5.541   7.512  12.105 -1.7322  0.0526 -2.8004
  654MOL0     H90201   5.389   7.767  12.280  1.4176  0.8252  1.8169
  654MOL0     H90202   5.512   7.894  12.474  1.3158  0.2281  0.6179
  654MOL0     H90203   5.542   7.796  12.618 -1.0888  2.1707  2.2731
  654MOL0     H90204   5.302   7.747  12.640 -3.0845 -0.0679  0.5936
  654MOL0     H90205   5.328   7.922  12.666  3.2186  0.9759 -1.2926
  654MOL0     H90206   5.268   7.951  12.418 -1.4356  1.7716 -0.0475
  654MOL0     H90207   5.201   7.782  12.427 -0.8642 -0.9211  0.4496
  654MOL0     H90208   5.032   7.937  12.456  1.3058  0.5029 -0.8948
  654MOL0     H90209   5.065   7.834  12.606  2.3611  0.3454  3.3315
  654MOL0     H90210   5.120   8.102  12.348 -0.9389  1.2363 -0.3464
  654MOL0     H90211   5.151   8.423  12.206 -0.7760  0.1669  2.0026
  654MOL0     H90212   5.089   8.255  12.180  0.4170  0.2295 -2.0095
  654MOL0     H90213   5.264   8.284  12.184 -0.5945  0.1978 -0.5538
  654MOL0     H90214   5.101   8.858  12.457 -0.3856 -0.8103 -0.9679
  654MOL0     H90215   5.163   9.091  12.400  1.0927 -0.4231  1.0618
  654MOL0     H90216   5.352   9.350  12.249 -0.4990 -0.3336 -0.3577
  654MOL0     H90217   5.249   9.271  12.360 -0.4893  1.8784 -0.5674
  654MOL0     H90218   5.329   9.357  12.534 -0.2350  0.2426  0.0227
  654MOL0     H90219   5.496   9.294  12.498  0.3449 -0.3228  0.1720
  654MOL0     H90220   5.369   9.560  12.404 -0.4635 -2.8788 -2.0485
  654MOL0     H90221   5.543   9.520  12.382  2.4931 -0.5380  2.0474
  654MOL0     H90222   5.389   9.564  12.650 -0.2448 -0.5974 -0.8209
  654MOL0     H90223   5.478   9.681  12.569  3.2081  0.6754 -2.7493
  654MOL0     H90224   5.592   9.412  12.685  1.9045  0.4908  0.9474
  654MOL0     H90225   5.692   9.536  12.590  0.9054  1.8064  1.8104
  654MOL0     H90226   5.542   9.579  12.842  0.9557  1.4369  0.5527
  654MOL0     H90227   5.639   9.698  12.768 -2.4697  1.0441  0.0223
  654MOL0     H90228   5.818   9.488  12.786  0.0514 -0.3147 -0.5746
  654MOL0     H90229   5.709   9.448  12.917 -0.0429  1.2521  0.8037
  654MOL0     H90230   5.874   9.583  13.017 -0.1400 -0.4431  0.3166
  654MOL0     H90231   5.735   9.686  13.005  0.4545  2.5790 -0.2389
  654MOL0     H90232   5.560   8.950  12.318  0.0354 -0.6358 -0.0829
  654MOL0     H90233   5.486   8.715  12.377 -0.9381 -1.7497  1.9966
  654MOL0     H90234   5.264   8.466  12.669 -0.3021 -1.1229  0.7443
  654MOL0     H90235   5.203   8.254  12.752  5.4402  1.1347 -0.7247
  654MOL0     H90236   4.740   7.153  11.465  1.4457 -0.4555 -2.0083
  654MOL0     H90237   4.529   7.102  11.376 -0.1247  0.3713  2.1322
  654MOL0     H90238   4.148   7.384  11.216  0.0910  0.1050 -0.6149
  654MOL0     H90239   3.926   7.372  11.105  1.8798  0.1081  1.2383
  654MOL0     H90240   3.665   7.206  10.889  1.3001 -1.7714 -0.0292
  654MOL0     H90241   3.740   7.262  11.030  0.0703  0.7223 -0.0265
  654MOL0     H90242   3.742   7.423  10.763 -0.6589 -3.7787 -1.1120
  654MOL0     H90243   3.802   7.472  10.924 -0.5376 -0.9292 -0.0470
  654MOL0     H90244   3.578   7.440  11.011  0.7536  0.3682  0.1037
  654MOL0     H90245   3.595   7.584  10.905 -1.0844  1.2392 -0.0607
  654MOL0     H90246   3.383   7.472  10.852 -0.4521 -0.8682  0.8235
  654MOL0     H90247   3.455   7.315  10.835 -2.3256  0.7094  2.3705
  654MOL0     H90248   3.471   7.476  10.447  0.1590  0.8946  0.4193
  654MOL0     H90249   4.071   7.085  10.828  2.5831  1.8152 -1.9751
  654MOL0     H90250   4.400   7.096  10.876  0.6699 -0.5744 -1.6358
  654MOL0     H90251   4.327   6.985  11.000  0.0746  2.8743  3.2845
  654MOL0     H90252   4.258   7.003  10.832 -1.1685  1.2354 -0.3726
  655MOL0     O90253   9.591   3.289   0.824 -0.1273  0.1516 -0.3006
  655MOL0     C90254   9.526   3.378   0.868 -0.5518 -0.3262 -0.0953
  655MOL0     O90255   9.552   3.450   0.979  0.4507  0.3825 -0.3542
  655MOL0     C90256   9.661   3.414   1.051  0.2380 -1.0063 -0.3655
  655MOL0     C90257   9.676   3.285   1.105 -0.0989 -0.1397 -0.1057
  655MOL0     C90258   9.771   3.262   1.203 -0.5430  0.4604  0.5900
  655MOL0     C90259   9.869   3.358   1.238 -0.0594 -0.6235  0.0996
  655MOL0     O90260   9.959   3.320   1.332 -0.2801 -0.0014  0.2886
  655MOL0     C90261  10.085   3.278   1.279  0.4082 -0.0172 -0.2483
  655MOL0     C90262  10.170   3.384   1.197 -0.4425 -0.0001 -0.0411
  655MOL0     C90263  10.293   3.321   1.127  0.1772 -0.6530 -0.3115
  655MOL0     C90264  10.418   3.408   1.109  1.2565  0.7790 -0.6146
  655MOL0     C90265  10.542   3.324   1.070  0.0587  0.0436  0.0631
  655MOL0     C90266  10.610   3.271   1.192  0.3041 -0.5060 -0.1650
  655MOL0     C90267  10.751   3.220   1.165  0.4049  0.5103  0.4815
  655MOL0     C90268  10.827   3.204   1.302 -0.1179 -0.4708 -0.0456
  655MOL0     N90269  10.959   3.147   1.281  0.3510  0.2763  0.3842
  655MOL0     C90270  11.069   3.216   1.249 -0.3238 -0.0442  0.3014
  655MOL0     C90271  11.164   3.126   1.207 -0.1686  0.4485  0.1995
  655MOL0     C90272  11.307   3.147   1.163  0.1730 -0.0582  0.0772
  655MOL0     C90273  11.340   3.118   1.014  0.0110  0.0468 -0.5737
  655MOL0     C90274  11.367   2.965   0.986  0.2387  0.3310 -1.3007
  655MOL0     C90275  11.422   2.943   0.841 -0.6003 -0.1461  0.8244
  655MOL0     O90276  11.451   2.810   0.819  0.5512  0.3392 -0.4370
  655MOL0     C90277  11.543   2.779   0.723  0.1767  0.5806 -1.4194
  655MOL0     C90278  11.583   2.855   0.618 -0.6837 -0.4076 -0.4164
  655MOL0     C90279  11.677   2.817   0.521 -0.0511  0.4305  0.1301
  655MOL0     C90280  11.704   2.911   0.400 -0.4005  0.1657 -0.1778
  655MOL0     C90281  11.729   2.679   0.526  0.1080 -0.3651  0.6110
  655MOL0     C90282  11.813   2.618   0.418  0.4519  0.1736  0.2138
  655MOL0     O90283  11.834   2.478   0.428  0.5910 -0.0967  0.1178
  655MOL0     C90284  11.940   2.422   0.357 -0.0782  0.2381 -1.1156
  655MOL0     C90285  12.072   2.476   0.377  0.3526  0.1287 -0.1791
  655MOL0     C90286  12.181   2.402   0.330  0.3884 -0.2809  0.6195
  655MOL0     C90287  12.159   2.276   0.266 -1.0747  0.0141 -0.9112
  655MOL0     O90288  12.262   2.189   0.227  0.1229  0.9900  0.3014
  655MOL0     C90289  12.370   2.246   0.162 -0.2943 -0.5650 -0.0773
  655MOL0     C90290  12.466   2.137   0.102  1.0086 -0.3615 -0.2156
  655MOL0     C90291  12.577   2.208   0.033  0.7676  1.2156 -0.1440
  655MOL0     C90292  12.662   2.107  -0.047  0.2747  0.0482  0.5997
  655MOL0     C90293  12.752   2.161  -0.159  0.2131 -0.2930 -0.2363
  655MOL0     C90294  12.877   2.230  -0.095  0.5776  0.4899 -0.0719
  655MOL0     C90295  12.965   2.290  -0.201  0.2924  0.6061  1.3210
  655MOL0     C90296  13.092   2.357  -0.145 -0.3822 -0.8497 -0.7274
  655MOL0    Cl90297  13.064   2.484  -0.019 -0.3260  0.1680  0.5941
  655MOL0     C90298  12.039   2.223   0.248  0.3571 -0.8595  0.9505
  655MOL0     C90299  11.922   2.296   0.289 -0.7117 -0.3052  0.8262
  655MOL0     O90300  11.856   2.688   0.331  0.3279 -0.2495 -0.0865
  655MOL0     C90301  11.683   2.598   0.629 -0.0819  0.3485  0.3000
  655MOL0     C90302  11.591   2.644   0.725 -0.3509 -0.9389  0.4903
  655MOL0     N90303  11.100   3.002   1.207 -0.4966 -0.1333  1.0909
  655MOL0     N90304  10.984   3.011   1.255 -0.1208  0.0526  0.7581
  655MOL0     C90305   9.869   3.482   1.179  1.3792 -0.3273 -0.3771
  655MOL0     C90306   9.761   3.511   1.088  0.8678 -0.6458  0.7989
  655MOL0     C90307   9.417   3.435   0.787  0.5438  0.5339  0.5381
  655MOL0     C90308   9.426   3.580   0.766  0.4934  0.5648 -0.2927
  655MOL0     C90309   9.338   3.641   0.681 -0.2391  0.0345  0.0587
  655MOL0     C90310   9.244   3.565   0.610 -0.8585 -0.6330  0.8129
  655MOL0     O90311   9.160   3.618   0.514 -0.5858 -0.6430 -0.6955
  655MOL0     C90312   9.074   3.723   0.575  0.3203  1.1914 -0.0902
  655MOL0     C90313   9.054   3.825   0.462 -0.1893  0.3707  0.2229
  655MOL0     C90314   9.175   3.919   0.480  0.1465 -0.3434  0.2194
  655MOL0     C90315   9.193   4.003   0.361 -0.4934 -0.0621 -0.4884
  655MOL0     C90316   9.317   4.078   0.371 -0.3600 -0.2776  0.4416
  655MOL0     C90317   9.420   4.139   0.381  0.5918  0.0187  0.4690
  655MOL0     C90318   9.234   3.427   0.641  0.3947 -0.7297 -0.0182
  655MOL0     C90319   9.310   3.360   0.735  0.2903  0.4121  0.1134
  655MOL0     C90320   9.294   3.214   0.743  0.1419 -0.1628 -0.4663
  655MOL0     H90321   9.611   3.203   1.075  0.8154 -0.9459  0.0978
  655MOL0     H90322   9.792   3.159   1.231 -0.5922  0.1603 -0.4392
  655MOL0     H90323  10.069   3.198   1.205 -1.2489 -0.6216  0.6988
  655MOL0     H90324  10.143   3.238   1.362  0.6167  3.4690  1.4562
  655MOL0     H90325  10.107   3.431   1.122  1.9672 -0.6958 -2.6762
  655MOL0     H90326  10.205   3.464   1.263 -0.0630  1.8012 -2.3401
  655MOL0     H90327  10.317   3.229   1.181 -1.4014 -1.4716 -0.9642
  655MOL0     H90328  10.258   3.288   1.029  1.0517  1.1910 -1.3075
  655MOL0     H90329  10.394   3.482   1.032  0.3455 -0.3159 -1.4133
  655MOL0     H90330  10.426   3.464   1.203 -1.6053  0.3886 -0.0486
  655MOL0     H90331  10.614   3.391   1.022 -2.0943  2.3591 -0.0892
  655MOL0     H90332  10.509   3.243   1.004 -0.2986 -0.1942  0.5343
  655MOL0     H90333  10.620   3.346   1.271  2.8978 -0.5189 -0.4255
  655MOL0     H90334  10.550   3.189   1.234  0.1311 -0.6662 -0.7177
  655MOL0     H90335  10.797   3.294   1.099  1.0768 -0.0425  0.3228
  655MOL0     H90336  10.764   3.132   1.103 -1.9511 -0.1187  0.7926
  655MOL0     H90337  10.838   3.304   1.346  3.2886 -0.1480 -1.2746
  655MOL0     H90338  10.754   3.149   1.362 -1.3233 -1.0200 -1.9352
  655MOL0     H90339  11.084   3.323   1.250 -1.6839  0.1687 -0.4304
  655MOL0     H90340  11.377   3.086   1.221  0.2051  0.9646  1.1633
  655MOL0     H90341  11.325   3.254   1.176 -0.9994  0.5100 -2.3518
  655MOL0     H90342  11.262   3.145   0.942  0.0107  1.6075 -0.0423
  655MOL0     H90343  11.431   3.179   1.004 -0.2029  0.8501  1.6879
  655MOL0     H90344  11.438   2.922   1.057 -2.1543 -0.0130  1.0025
  655MOL0     H90345  11.277   2.904   0.996  1.7369 -1.5970  1.7308
  655MOL0     H90346  11.346   2.976   0.770  0.7536 -1.3912 -1.2874
  655MOL0     H90347  11.509   3.004   0.819 -0.0846 -0.5109  1.7645
  655MOL0     H90348  11.546   2.954   0.594 -0.0997  0.1528  0.8528
  655MOL0     H90349  11.809   2.941   0.390 -0.6077  1.5383  1.4211
  655MOL0     H90350  11.653   3.007   0.413  0.8934  0.6238  1.9420
  655MOL0     H90351  11.676   2.862   0.306 -0.0044  0.4524 -0.4467
  655MOL0     H90352  12.078   2.573   0.425 -0.2097  1.5999 -2.8806
  655MOL0     H90353  12.284   2.435   0.340  1.9284 -3.3357 -2.8028
  655MOL0     H90354  12.332   2.312   0.084 -0.4763 -1.0565 -0.4084
  655MOL0     H90355  12.424   2.304   0.237 -1.0780 -1.4114  1.1790
  655MOL0     H90356  12.493   2.066   0.181 -0.8083 -2.8081 -1.6134
  655MOL0     H90357  12.411   2.071   0.035 -2.0744  1.8140 -0.0510
  655MOL0     H90358  12.652   2.229   0.110  0.7699 -2.2042  0.9736
  655MOL0     H90359  12.553   2.295  -0.028  1.6703  1.5754 -0.0099
  655MOL0     H90360  12.598   2.033  -0.095  0.0289 -0.1489  1.2241
  655MOL0     H90361  12.730   2.057   0.022  1.4060 -0.6341 -0.9334
  655MOL0     H90362  12.791   2.082  -0.223  1.9635  0.6192 -0.3804
  655MOL0     H90363  12.690   2.227  -0.221 -0.9774 -0.5180  0.6948
  655MOL0     H90364  12.922   2.145  -0.043  0.5303  1.2783  1.3053
  655MOL0     H90365  12.850   2.305  -0.020  0.8226  0.0322  0.4801
  655MOL0     H90366  12.909   2.373  -0.245 -1.1348 -0.2401  1.4921
  655MOL0     H90367  12.991   2.215  -0.276 -1.3068  1.6304 -0.3482
  655MOL0     H90368  13.158   2.401  -0.221 -0.7670  1.2822  0.0945
  655MOL0     H90369  13.150   2.281  -0.091  0.6558  1.4266  1.5533
  655MOL0     H90370  12.036   2.120   0.215  1.2004 -1.3475  2.2851
  655MOL0     H90371  11.821   2.259   0.273 -1.2180  2.1767 -3.3212
  655MOL0     H90372  11.700   2.491   0.634  0.2178  0.3944  0.3051
  655MOL0     H90373  11.548   2.576   0.799 -2.3658  0.1797  0.4027
  655MOL0     H90374   9.947   3.549   1.212  1.6315  0.0829 -1.7151
  655MOL0     H90375   9.749   3.609   1.042 -0.6047 -1.5277 -0.8117
  655MOL0     H90376   9.493   3.638   0.828 -0.3763 -0.3047  1.5429
  655MOL0     H90377   9.358   3.745   0.658  1.0665  0.2085  1.8057
  655MOL0     H90378   8.977   3.677   0.600  1.5811 -2.3338 -1.0729
  655MOL0     H90379   9.121   3.764   0.665  0.5078 -0.0152  0.3874
  655MOL0     H90380   8.954   3.868   0.468 -1.0335 -1.4134 -0.3210
  655MOL0     H90381   9.060   3.773   0.367  1.7014  2.6527 -1.0160
  655MOL0     H90382   9.159   3.981   0.569  1.2290 -2.2113  1.8042
  655MOL0     H90383   9.272   3.873   0.498  0.1130  0.3145  2.3167
  655MOL0     H90384   9.101   4.061   0.349 -0.5584 -0.2789 -1.0749
  655MOL0     H90385   9.212   3.945   0.271  0.4296 -2.5361  1.1777
  655MOL0     H90386   9.508   4.195   0.409 -0.4924  0.7228  2.7791
  655MOL0     H90387   9.168   3.357   0.590  2.9934 -2.8485 -0.7037
  655MOL0     H90388   9.383   3.154   0.762  1.1703  0.9236 -1.5771
  655MOL0     H90389   9.217   3.194   0.818  1.6155  0.6813  1.3323
  655MOL0     H90390   9.266   3.164   0.650 -0.8096 -0.9170  0.2086
  656MOL0     O90391   2.330   9.453   1.897 -0.4491 -0.5503 -0.3077
  656MOL0     C90392   2.223   9.490   1.930 -0.2772 -0.4831 -0.3124
  656MOL0     O90393   2.196   9.617   1.973  0.0077 -0.2590  0.1165
  656MOL0     C90394   2.293   9.716   1.939  0.1050 -0.6780  0.7326
  656MOL0     C90395   2.350   9.734   1.808  0.3769  0.1965  0.4161
  656MOL0     C90396   2.450   9.831   1.782 -0.1257 -0.5782 -0.2232
  656MOL0     C90397   2.462   9.935   1.879  1.0999 -0.0761  0.1995
  656MOL0     O90398   2.561  10.029   1.865 -0.2067 -0.2462  0.6221
  656MOL0     C90399   2.601  10.065   1.738  0.0912  0.8076  0.1862
  656MOL0     C90400   2.677  10.198   1.733  0.8778  0.2390  0.6106
  656MOL0     C90401   2.795  10.183   1.832  1.2570 -0.7094 -0.2400
  656MOL0     C90402   2.886  10.304   1.828 -0.3292 -0.3103  0.3930
  656MOL0     C90403   3.017  10.278   1.903  0.2751  0.5191  0.5617
  656MOL0     C90404   3.118  10.398   1.900 -0.3885  0.9885  0.1050
  656MOL0     C90405   3.068  10.528   1.939  0.1005 -0.6219 -0.3369
  656MOL0     C90406   3.176  10.625   1.965  0.0670 -0.6364  0.4048
  656MOL0     N90407   3.117  10.758   1.998 -0.5723  0.0395  0.8050
  656MOL0     C90408   3.147  10.842   2.108 -0.1999  0.3242 -0.3470
  656MOL0     C90409   3.081  10.949   2.080 -0.0836  0.9440 -0.5478
  656MOL0     C90410   3.091  11.083   2.152  1.0624 -0.2205 -0.2900
  656MOL0     C90411   3.148  11.187   2.060 -0.2919  0.1998  0.0014
  656MOL0     C90412   3.079  11.319   2.086  0.5762 -0.0701  0.3491
  656MOL0     C90413   3.147  11.436   2.013 -0.6053  0.0203 -0.5204
  656MOL0     O90414   3.168  11.414   1.873  0.1251  0.0407  0.2361
  656MOL0     C90415   3.220  11.509   1.788 -0.1652  0.9531 -0.3618
  656MOL0     C90416   3.265  11.636   1.839 -1.1885 -0.1033 -0.2058
  656MOL0     C90417   3.340  11.718   1.753 -0.0388  0.4844 -0.2443
  656MOL0     C90418   3.410  11.836   1.813 -0.2395  0.5629 -0.0217
  656MOL0     C90419   3.366  11.677   1.621  0.6527  0.1402  0.4495
  656MOL0     C90420   3.439  11.752   1.518 -0.2807 -0.2326  0.3586
  656MOL0     O90421   3.389  11.758   1.385  0.3230  0.3372 -0.5686
  656MOL0     C90422   3.479  11.804   1.295 -0.3290 -0.2310 -0.5442
  656MOL0     C90423   3.538  11.708   1.216  0.6442 -0.2156  0.4472
  656MOL0     C90424   3.631  11.747   1.121  0.4888 -0.4187 -1.0632
  656MOL0     C90425   3.659  11.887   1.104  0.0294  0.8513 -0.6848
  656MOL0     O90426   3.733  11.926   0.990 -0.0617  0.6012 -0.2251
  656MOL0     C90427   3.742  12.065   0.949  0.0016  0.3888  0.2306
  656MOL0     C90428   3.801  12.095   0.808  0.2256 -0.1980 -0.1974
  656MOL0     C90429   3.814  12.249   0.782  0.1400 -0.4144  0.2334
  656MOL0     C90430   3.957  12.274   0.740 -0.0379  0.6648  0.0700
  656MOL0     C90431   4.011  12.210   0.610  0.0516 -0.1472  0.4087
  656MOL0     C90432   3.927  12.249   0.483  0.3749 -0.4448 -0.8234
  656MOL0     C90433   3.993  12.189   0.364  0.0482 -0.0791  0.1824
  656MOL0     C90434   3.919  12.209   0.239  0.6543 -0.0947 -0.5323
  656MOL0    Cl90435   3.983  12.104   0.106 -0.3733 -0.0232  0.0050
  656MOL0     C90436   3.593  11.982   1.179 -0.4301 -0.3160 -0.1792
  656MOL0     C90437   3.499  11.942   1.265  0.3200 -0.2818  0.8193
  656MOL0     O90438   3.549  11.798   1.551  0.1598  0.6771 -0.9911
  656MOL0     C90439   3.312  11.558   1.583 -0.5889 -0.0250  0.4035
  656MOL0     C90440   3.244  11.469   1.663  0.7857  0.8172  0.5853
  656MOL0     N90441   3.013  10.931   1.965 -0.3296  0.5171 -0.3030
  656MOL0     N90442   3.032  10.819   1.904 -0.0747 -0.4733  0.0199
  656MOL0     C90443   2.401   9.915   2.005  0.0788 -0.6360  1.0354
  656MOL0     C90444   2.317   9.808   2.034 -0.0134  0.3512  0.2508
  656MOL0     C90445   2.117   9.387   1.939 -0.3759  0.4437  0.2198
  656MOL0     C90446   1.989   9.437   1.954  0.5172  0.0493  0.1527
  656MOL0     C90447   1.878   9.354   1.970  0.4983  0.3577  0.3775
  656MOL0     C90448   1.893   9.209   1.967  0.0500 -0.1513  1.3975
  656MOL0     O90449   1.777   9.134   1.982  0.1728  0.1832  0.0889
  656MOL0     C90450   1.780   9.009   1.918  0.3483 -0.3395 -0.8969
  656MOL0     C90451   1.635   8.956   1.908 -0.6758 -0.1329  0.8134
  656MOL0     C90452   1.556   9.019   1.798 -0.4277 -0.2745  0.4944
  656MOL0     C90453   1.415   8.959   1.800  0.5383 -0.6516 -0.6397
  656MOL0     C90454   1.346   8.983   1.674 -0.7732 -0.3323 -0.4415
  656MOL0     C90455   1.307   9.016   1.562  0.4118 -0.1598  0.3451
  656MOL0     C90456   2.026   9.161   1.943  0.0320 -0.2777  0.2655
  656MOL0     C90457   2.132   9.248   1.913 -0.0928  0.3506 -0.2398
  656MOL0     C90458   2.247   9.190   1.838 -0.2036 -0.8601 -0.0021
  656MOL0     H90459   2.334   9.664   1.726  1.3575 -0.4396  0.7665
  656MOL0     H90460   2.509   9.821   1.692 -0.5542  1.1263 -0.7224
  656MOL0     H90461   2.520  10.069   1.664 -0.9762  0.7624  1.3279
  656MOL0     H90462   2.669   9.988   1.701  0.9824  1.8330 -0.4054
  656MOL0     H90463   2.725  10.211   1.635  0.7871  2.1081  0.7810
  656MOL0     H90464   2.596  10.264   1.763  3.5649  2.5871  3.3322
  656MOL0     H90465   2.765  10.172   1.937  0.0275  3.7888  0.1039
  656MOL0     H90466   2.853  10.098   1.795  0.2965 -1.2840 -0.4487
  656MOL0     H90467   2.918  10.331   1.727 -0.8652  1.3618  0.6381
  656MOL0     H90468   2.842  10.389   1.881  0.7302  1.1188 -0.9299
  656MOL0     H90469   3.067  10.190   1.862  1.4104  1.1559  0.5458
  656MOL0     H90470   2.993  10.257   2.008 -0.6553  2.9847  0.9047
  656MOL0     H90471   3.202  10.375   1.967 -1.7433 -0.5562  1.3723
  656MOL0     H90472   3.162  10.393   1.800 -0.2834 -1.0456  0.2108
  656MOL0     H90473   3.012  10.514   2.032  4.6005 -1.9112  2.4751
  656MOL0     H90474   2.993  10.553   1.863 -2.3757 -3.2736  1.0241
  656MOL0     H90475   3.243  10.596   2.046 -0.1233 -0.8754  0.4786
  656MOL0     H90476   3.233  10.632   1.872 -2.1791 -1.4010 -1.1326
  656MOL0     H90477   3.203  10.819   2.198 -2.6648 -1.5506  0.8121
  656MOL0     H90478   3.146  11.080   2.247  1.9191  4.4446 -0.3687
  656MOL0     H90479   2.991  11.117   2.179  2.5060  2.3366  2.4743
  656MOL0     H90480   3.254  11.198   2.086  0.0084  1.1799 -1.5006
  656MOL0     H90481   3.141  11.153   1.956 -0.4156 -0.7687  0.3136
  656MOL0     H90482   2.977  11.326   2.045 -0.8430  1.4084  3.7241
  656MOL0     H90483   3.065  11.344   2.192 -0.8374 -0.7091  0.3385
  656MOL0     H90484   3.087  11.527   2.027 -0.4408 -0.0245  0.6176
  656MOL0     H90485   3.244  11.442   2.062 -0.6418  0.0153 -0.4474
  656MOL0     H90486   3.255  11.669   1.942  1.6204 -0.9780  0.4409
  656MOL0     H90487   3.364  11.876   1.904 -1.5893  0.2671 -0.5501
  656MOL0     H90488   3.403  11.916   1.738 -0.4786  2.5092  1.9478
  656MOL0     H90489   3.519  11.823   1.819 -0.0467  0.6953 -2.2796
  656MOL0     H90490   3.515  11.602   1.219 -0.9051  0.0893  0.2285
  656MOL0     H90491   3.684  11.673   1.062  0.1199 -1.2940 -0.3286
  656MOL0     H90492   3.638  12.097   0.943  0.2626  1.0260 -1.8741
  656MOL0     H90493   3.801  12.115   1.025  3.4418 -1.0192 -1.2913
  656MOL0     H90494   3.899  12.048   0.803 -1.7058 -4.6966 -1.1133
  656MOL0     H90495   3.739  12.042   0.735  0.3686 -1.6749  0.7089
  656MOL0     H90496   3.770  12.306   0.864 -0.4654 -0.9922  0.3178
  656MOL0     H90497   3.754  12.276   0.694  1.5736 -1.5703 -1.1512
  656MOL0     H90498   4.015  12.242   0.828 -0.0405  1.3394  0.3236
  656MOL0     H90499   3.967  12.381   0.726  1.5947  0.4800 -0.4088
  656MOL0     H90500   4.117  12.232   0.594  0.1026 -2.0392 -2.6112
  656MOL0     H90501   4.005  12.101   0.623 -2.3289  0.1158  2.1591
  656MOL0     H90502   3.933  12.357   0.474  1.1671 -0.5642 -1.7642
  656MOL0     H90503   3.826  12.207   0.488 -0.6756  1.9944 -0.1141
  656MOL0     H90504   3.994  12.081   0.375 -1.4462 -0.0063  1.3817
  656MOL0     H90505   4.097  12.224   0.358  0.2604 -0.5448  1.0350
  656MOL0     H90506   3.949  12.306   0.198  0.1875  1.2648  2.0980
  656MOL0     H90507   3.810  12.204   0.249  0.6696  1.5706  0.9761
  656MOL0     H90508   3.603  12.086   1.148 -0.5712 -0.0469  0.6456
  656MOL0     H90509   3.441  12.023   1.307  1.5592  2.3156 -2.0808
  656MOL0     H90510   3.341  11.522   1.485  0.3452  0.7399  0.3843
  656MOL0     H90511   3.210  11.382   1.607 -1.8222  2.8185 -1.2147
  656MOL0     H90512   2.409   9.995   2.078  0.9190 -0.3591  0.6530
  656MOL0     H90513   2.277   9.808   2.134  3.7384 -1.5942  1.9604
  656MOL0     H90514   1.984   9.543   1.975 -2.3198 -0.2873  1.6906
  656MOL0     H90515   1.776   9.389   1.974 -0.5371 -2.3500 -0.5244
  656MOL0     H90516   1.822   9.012   1.817 -0.3809  2.1619 -1.1891
  656MOL0     H90517   1.845   8.945   1.977 -1.7537 -1.8554 -0.1393
  656MOL0     H90518   1.583   8.970   2.004 -0.4252 -0.1495  0.9523
  656MOL0     H90519   1.636   8.851   1.876 -1.3482  0.5393 -1.6410
  656MOL0     H90520   1.551   9.128   1.814 -1.5960 -0.0663 -1.0430
  656MOL0     H90521   1.584   8.994   1.696 -3.6718 -0.4246 -0.4790
  656MOL0     H90522   1.354   9.014   1.872  4.6666 -1.5630  4.1433
  656MOL0     H90523   1.419   8.854   1.832  0.9418  0.1833  2.3236
  656MOL0     H90524   1.284   9.041   1.460  0.2147  0.4867  0.5413
  656MOL0     H90525   2.043   9.053   1.940  0.5892 -0.2102  0.8193
  656MOL0     H90526   2.221   9.100   1.781 -3.3884 -0.6598  0.9886
  656MOL0     H90527   2.277   9.248   1.750 -2.0401 -1.2197 -0.9086
  656MOL0     H90528   2.337   9.168   1.898 -0.1621  2.4579  1.3429
  657MOL0     O90529   8.055   9.010   0.225 -0.1500 -0.4374  0.4346
  657MOL0     C90530   8.059   8.889   0.203 -0.0081  0.2657  0.5681
  657MOL0     O90531   8.152   8.814   0.118 -0.2321  0.1621  0.4117
  657MOL0     C90532   8.245   8.894   0.051  0.1157  0.1833 -0.1681
  657MOL0     C90533   8.234   8.928  -0.081 -1.4747  0.4675  0.2730
  657MOL0     C90534   8.348   8.994  -0.143 -0.0966 -0.3118 -0.3247
  657MOL0     C90535   8.459   9.037  -0.072 -0.2558  1.1193 -0.0826
  657MOL0     O90536   8.560   9.107  -0.133  0.5200  0.4020 -0.3460
  657MOL0     C90537   8.571   9.115  -0.274  0.4819  0.4831 -0.3311
  657MOL0     C90538   8.693   9.181  -0.331  0.5412 -0.1728  0.0882
  657MOL0     C90539   8.828   9.114  -0.323 -0.1014  0.1479  0.6557
  657MOL0     C90540   8.940   9.201  -0.392 -0.2498  0.6157  0.2332
  657MOL0     C90541   9.081   9.150  -0.376  0.5678  0.6882 -0.3176
  657MOL0     C90542   9.173   9.233  -0.464  0.8055 -0.4016 -0.0708
  657MOL0     C90543   9.324   9.193  -0.455 -0.6863 -0.7614  0.7335
  657MOL0     C90544   9.403   9.274  -0.546 -0.4945  0.1383  0.7071
  657MOL0     N90545   9.413   9.418  -0.521 -0.2634 -0.6005  0.6757
  657MOL0     C90546   9.503   9.467  -0.451  0.4864  0.9688  0.5101
  657MOL0     C90547   9.478   9.598  -0.445 -0.2159 -0.0933 -0.6191
  657MOL0     C90548   9.567   9.696  -0.370 -0.6861  0.0989  0.8380
  657MOL0     C90549   9.692   9.739  -0.459 -0.3259  0.1028 -0.0509
  657MOL0     C90550   9.634   9.791  -0.590  0.2304  0.8038  0.1989
  657MOL0     C90551   9.736   9.798  -0.698  0.2523  0.3408 -0.4535
  657MOL0     O90552   9.747   9.669  -0.753  0.0607  0.0771  0.4178
  657MOL0     C90553   9.866   9.631  -0.804  0.3536 -0.5094 -0.3339
  657MOL0     C90554   9.966   9.710  -0.859 -0.0649  0.0612 -0.2937
  657MOL0     C90555  10.084   9.665  -0.919 -1.1142 -0.0299 -0.0029
  657MOL0     C90556  10.190   9.761  -0.972  0.1235 -0.2791 -0.4850
  657MOL0     C90557  10.100   9.524  -0.923  0.1252 -0.3910 -1.4386
  657MOL0     C90558  10.209   9.453  -0.996 -0.3075 -0.1978 -0.5928
  657MOL0     O90559  10.315   9.524  -1.027  0.3523 -0.0610 -0.0327
  657MOL0     C90560  10.407   9.476  -1.120 -0.1080  0.0348  0.1605
  657MOL0     C90561  10.533   9.418  -1.085 -0.5803  0.0969 -0.0865
  657MOL0     C90562  10.618   9.369  -1.174  0.4513 -0.2167 -0.3312
  657MOL0     C90563  10.584   9.375  -1.310 -0.7810  0.8761 -0.6387
  657MOL0     O90564  10.657   9.288  -1.396 -0.2783  0.2233  0.2641
  657MOL0     C90565  10.658   9.318  -1.534 -0.3154 -1.3920  0.1922
  657MOL0     C90566  10.775   9.256  -1.609 -0.1387 -0.3095  0.2937
  657MOL0     C90567  10.767   9.101  -1.617 -0.1420  0.4114 -0.0228
  657MOL0     C90568  10.912   9.051  -1.610 -0.3865  0.8276  0.6589
  657MOL0     C90569  11.006   9.113  -1.709  0.3493  0.1840 -0.9811
  657MOL0     C90570  11.141   9.055  -1.696  0.1571 -0.1482  0.1690
  657MOL0     C90571  11.226   9.075  -1.828  0.3831 -0.4081  0.3526
  657MOL0     C90572  11.169   9.000  -1.939 -0.5059 -0.8360 -0.2749
  657MOL0    Cl90573  11.175   8.826  -1.904 -0.3343 -0.3981  0.0166
  657MOL0     C90574  10.460   9.427  -1.352  0.0524  0.1531 -0.2620
  657MOL0     C90575  10.374   9.477  -1.257 -0.2988 -0.2554  0.3526
  657MOL0     O90576  10.189   9.336  -1.042  0.0609 -1.0333  0.2441
  657MOL0     C90577  10.004   9.439  -0.868 -0.2537 -0.8147  0.8296
  657MOL0     C90578   9.888   9.497  -0.819  0.5227  0.3785  0.3632
  657MOL0     N90579   9.355   9.630  -0.511 -0.1273  0.2533  0.0765
  657MOL0     N90580   9.330   9.516  -0.567  0.0274  0.7978  0.6090
  657MOL0     C90581   8.460   9.005   0.064  1.2356 -0.2924  0.8274
  657MOL0     C90582   8.360   8.930   0.121 -0.5075 -0.6290 -0.9011
  657MOL0     C90583   7.955   8.818   0.271 -0.5127  0.5615 -0.2195
  657MOL0     C90584   7.940   8.826   0.408 -0.2463  0.3323 -0.0963
  657MOL0     C90585   7.861   8.743   0.488  0.2088  0.0102 -0.0787
  657MOL0     C90586   7.773   8.659   0.424  1.0845 -0.1134 -0.6486
  657MOL0     O90587   7.690   8.588   0.504 -0.1080  0.2888  0.1747
  657MOL0     C90588   7.576   8.524   0.448  0.0492 -0.5880  0.1243
  657MOL0     C90589   7.469   8.475   0.542  0.5440 -0.0453  0.5507
  657MOL0     C90590   7.534   8.375   0.642 -0.5265 -1.2534  0.7659
  657MOL0     C90591   7.446   8.322   0.760  0.1580 -1.2147  0.4155
  657MOL0     C90592   7.343   8.234   0.704  0.3284 -1.3463  0.6291
  657MOL0     C90593   7.247   8.182   0.656  0.7476  0.1458 -0.2010
  657MOL0     C90594   7.775   8.654   0.284 -0.0482 -0.5760  0.2440
  657MOL0     C90595   7.870   8.719   0.208  0.1422 -0.8229 -0.3387
  657MOL0     C90596   7.866   8.709   0.054  0.5423 -0.0663 -0.1582
  657MOL0     H90597   8.147   8.897  -0.139  0.4546 -2.7789 -1.1763
  657MOL0     H90598   8.330   9.030  -0.244 -0.8867 -0.0043 -0.0754
  657MOL0     H90599   8.486   9.177  -0.304  0.8539  0.9659 -0.4053
  657MOL0     H90600   8.572   9.014  -0.316  1.2841  0.0304  0.7245
  657MOL0     H90601   8.671   9.204  -0.436  1.5290  1.2826  0.1633
  657MOL0     H90602   8.698   9.272  -0.270 -0.9554 -0.8218  1.2534
  657MOL0     H90603   8.848   9.102  -0.216 -0.8756  2.2739  1.0932
  657MOL0     H90604   8.815   9.014  -0.365 -0.0668 -0.4716  2.0772
  657MOL0     H90605   8.911   9.218  -0.496 -1.9423 -0.5971  0.4682
  657MOL0     H90606   8.942   9.304  -0.354  0.8950  1.7098 -2.5392
  657MOL0     H90607   9.083   9.044  -0.400  1.2735  0.8957 -1.2747
  657MOL0     H90608   9.112   9.160  -0.272 -1.4739  2.4274  0.1819
  657MOL0     H90609   9.132   9.202  -0.560 -0.9079 -1.1020  0.8473
  657MOL0     H90610   9.164   9.339  -0.435  2.5067 -0.9867  3.1019
  657MOL0     H90611   9.344   9.086  -0.465  1.4242 -0.3210 -0.3984
  657MOL0     H90612   9.359   9.213  -0.353  0.4083  0.0769  0.2130
  657MOL0     H90613   9.503   9.230  -0.536  0.1202  1.3550  0.1487
  657MOL0     H90614   9.356   9.264  -0.644  0.2451  3.2147 -0.0704
  657MOL0     H90615   9.590   9.424  -0.402  0.4375  0.7118  0.3683
  657MOL0     H90616   9.593   9.664  -0.268 -1.0186 -0.3302  0.7912
  657MOL0     H90617   9.499   9.781  -0.366 -1.2651 -0.3431  0.4991
  657MOL0     H90618   9.759   9.809  -0.409 -1.6751  1.4088  0.0107
  657MOL0     H90619   9.750   9.648  -0.480 -0.6402 -0.1525  0.1944
  657MOL0     H90620   9.557   9.720  -0.621  2.5563 -1.6710 -0.2625
  657MOL0     H90621   9.585   9.889  -0.583 -1.7437  0.0280 -1.7246
  657MOL0     H90622   9.705   9.859  -0.783 -0.8959 -2.8759 -2.4817
  657MOL0     H90623   9.834   9.832  -0.661  1.1034 -1.8013 -0.6008
  657MOL0     H90624   9.963   9.817  -0.845  0.6071  0.5613 -3.2784
  657MOL0     H90625  10.178   9.765  -1.081  2.2105  1.0841 -0.7085
  657MOL0     H90626  10.291   9.749  -0.934 -0.5162 -1.8892  0.8816
  657MOL0     H90627  10.162   9.861  -0.939 -0.9172 -0.0793 -1.8454
  657MOL0     H90628  10.551   9.423  -0.978 -1.8585  1.9825  0.0912
  657MOL0     H90629  10.707   9.315  -1.143  1.0469  0.3693 -0.9655
  657MOL0     H90630  10.565   9.292  -1.584  0.5334 -0.4957 -2.0006
  657MOL0     H90631  10.659   9.427  -1.547 -0.5238 -0.9820  3.0017
  657MOL0     H90632  10.783   9.290  -1.713  0.2901  1.0787  0.7619
  657MOL0     H90633  10.858   9.300  -1.554  3.1170 -1.2667 -3.4082
  657MOL0     H90634  10.704   9.074  -1.702  0.5892  1.8579 -1.0643
  657MOL0     H90635  10.714   9.054  -1.533 -2.0675  2.9863  0.3087
  657MOL0     H90636  10.907   8.942  -1.608  1.2368  0.6959 -0.4791
  657MOL0     H90637  10.956   9.072  -1.512  0.4029  2.6747 -0.0445
  657MOL0     H90638  10.961   9.097  -1.808  1.7413 -0.5509 -1.5168
  657MOL0     H90639  11.017   9.221  -1.692  2.0707 -0.1312  0.1420
  657MOL0     H90640  11.125   8.953  -1.658 -1.3564 -1.4039 -3.4223
  657MOL0     H90641  11.186   9.108  -1.612 -0.2186 -1.7798  1.4544
  657MOL0     H90642  11.328   9.040  -1.818  0.8506  0.2600 -1.6666
  657MOL0     H90643  11.226   9.182  -1.854 -2.3505 -0.5377 -0.5482
  657MOL0     H90644  11.235   9.021  -2.024  1.3190  1.3156  1.5390
  657MOL0     H90645  11.066   9.022  -1.970 -1.4529 -1.2022  2.3266
  657MOL0     H90646  10.434   9.435  -1.457  0.3727 -1.0318 -0.4480
  657MOL0     H90647  10.277   9.514  -1.289 -0.5916 -1.1253  0.1774
  657MOL0     H90648  10.001   9.330  -0.869 -2.7890 -0.8047  0.6394
  657MOL0     H90649   9.818   9.424  -0.780  1.6547 -0.9012  0.0561
  657MOL0     H90650   8.547   9.029   0.125  0.9851  0.7010  0.8103
  657MOL0     H90651   8.356   8.900   0.225  0.3057 -0.6605 -0.8722
  657MOL0     H90652   7.996   8.907   0.455 -3.9352  2.2777  1.3744
  657MOL0     H90653   7.863   8.760   0.595  0.8526  1.3834 -0.2923
  657MOL0     H90654   7.520   8.595   0.387  1.6480  0.9491  0.3636
  657MOL0     H90655   7.609   8.441   0.385 -1.0077  0.3331 -1.7069
  657MOL0     H90656   7.395   8.428   0.476  1.4563 -0.7548  0.0135
  657MOL0     H90657   7.418   8.555   0.597  1.1161 -0.5031  1.7721
  657MOL0     H90658   7.589   8.297   0.588 -1.0534 -0.5627 -0.8651
  657MOL0     H90659   7.606   8.434   0.700  0.3909 -1.3390 -0.2516
  657MOL0     H90660   7.402   8.407   0.813  1.0061 -0.8960  0.6240
  657MOL0     H90661   7.503   8.265   0.834 -0.6362 -3.1564 -0.3898
  657MOL0     H90662   7.152   8.138   0.631  0.2627 -0.1136  1.8932
  657MOL0     H90663   7.708   8.584   0.234 -2.3394  2.2135 -0.9194
  657MOL0     H90664   7.777   8.651   0.028  0.6447  1.1944 -4.0213
  657MOL0     H90665   7.863   8.809   0.009 -0.5480 -0.4252 -0.9224
  657MOL0     H90666   7.957   8.653   0.032  1.0698 -0.5737  2.8218
  658MOL0     O90667   1.135   6.627   1.306  0.5313  0.2089  0.5830
  658MOL0     C90668   1.105   6.695   1.402  0.3392  0.2533 -0.3656
  658MOL0     O90669   1.192   6.790   1.448 -0.3259 -0.2387 -0.1909
  658MOL0     C90670   1.324   6.783   1.414  0.8304 -0.0063 -0.1690
  658MOL0     C90671   1.421   6.787   1.512 -0.1610  0.4423  0.0646
  658MOL0     C90672   1.557   6.808   1.485  0.1313 -0.3995  0.5084
  658MOL0     C90673   1.602   6.818   1.355  0.0529 -0.7830 -0.3620
  658MOL0     O90674   1.737   6.848   1.342  0.3436 -0.4669 -0.1013
  658MOL0     C90675   1.773   6.912   1.217 -0.0615  1.0706 -0.3884
  658MOL0     C90676   1.925   6.924   1.250 -0.3319 -0.2596 -0.1110
  658MOL0     C90677   1.984   6.990   1.126  0.9297  0.3694 -1.1072
  658MOL0     C90678   2.136   7.003   1.135 -0.3781 -0.8058 -0.1211
  658MOL0     C90679   2.198   7.046   1.004 -0.9368  0.0062 -0.7732
  658MOL0     C90680   2.349   7.080   1.008  0.2507  0.6652  1.4536
  658MOL0     C90681   2.405   7.150   0.885  0.7147  0.1467  0.5414
  658MOL0     C90682   2.423   7.065   0.759 -0.7644  0.0107 -0.3301
  658MOL0     N90683   2.464   7.128   0.638 -0.2318 -0.0399  0.0835
  658MOL0     C90684   2.594   7.158   0.609  0.4593 -0.2939 -0.3407
  658MOL0     C90685   2.586   7.222   0.490  0.2640 -0.3954 -0.1775
  658MOL0     C90686   2.703   7.276   0.415 -0.0693  0.4078 -0.1416
  658MOL0     C90687   2.688   7.265   0.262 -0.3884  0.0227  0.6688
  658MOL0     C90688   2.806   7.325   0.187  0.3206  0.4541  1.0171
  658MOL0     C90689   2.861   7.220   0.090  0.5110  0.1904 -0.0323
  658MOL0     O90690   2.973   7.292   0.034  0.4886 -0.4289 -0.1634
  658MOL0     C90691   3.082   7.323   0.104  0.4354 -0.0874 -0.3284
  658MOL0     C90692   3.162   7.429   0.058 -0.3191  0.2431  0.3135
  658MOL0     C90693   3.271   7.476   0.139 -0.5999  0.3709 -0.0278
  658MOL0     C90694   3.325   7.612   0.101 -0.9513  0.1096 -0.0413
  658MOL0     C90695   3.311   7.401   0.251 -0.0038  0.0975  0.0962
  658MOL0     C90696   3.424   7.452   0.329 -1.1188 -0.1287 -0.2151
  658MOL0     O90697   3.534   7.490   0.257 -0.5174  0.0537 -0.5072
  658MOL0     C90698   3.635   7.552   0.334 -0.2665 -0.8704  0.0953
  658MOL0     C90699   3.753   7.476   0.367 -0.5250  0.2893 -0.3383
  658MOL0     C90700   3.850   7.522   0.455 -0.6920  0.5164 -0.4013
  658MOL0     C90701   3.836   7.662   0.500 -0.9442 -0.0924  0.2408
  658MOL0     O90702   3.929   7.721   0.581  0.6110 -0.3659  0.9323
  658MOL0     C90703   4.053   7.668   0.623  0.1534  0.4738  0.0685
  658MOL0     C90704   4.057   7.639   0.775 -0.2396 -0.6087  0.8219
  658MOL0     C90705   4.186   7.571   0.822  0.4790  0.3222 -0.3483
  658MOL0     C90706   4.294   7.667   0.876 -0.1276  0.6710  0.2948
  658MOL0     C90707   4.411   7.582   0.929 -0.0614 -0.1880  0.6507
  658MOL0     C90708   4.387   7.548   1.078  0.2004 -0.4612 -0.5837
  658MOL0     C90709   4.508   7.482   1.162  1.3576  0.3674 -0.5111
  658MOL0     C90710   4.553   7.349   1.093 -0.1101  0.3141  1.0752
  658MOL0    Cl90711   4.445   7.208   1.100  0.1557 -0.4662  0.2411
  658MOL0     C90712   3.728   7.731   0.450  0.1007  0.4713 -0.0711
  658MOL0     C90713   3.625   7.689   0.374  0.6436 -0.6338 -0.2703
  658MOL0     O90714   3.418   7.442   0.452  0.2197 -0.0344  0.0048
  658MOL0     C90715   3.231   7.297   0.297 -0.0826  0.5299  0.2543
  658MOL0     C90716   3.121   7.257   0.220  0.0892  0.2579  0.2372
  658MOL0     N90717   2.451   7.214   0.446  0.1704 -0.3834  0.0593
  658MOL0     N90718   2.385   7.152   0.531  0.5366  0.0278  0.0549
  658MOL0     C90719   1.504   6.804   1.257  0.4735 -0.2682  0.1619
  658MOL0     C90720   1.362   6.795   1.280 -0.4304 -0.2529  0.4812
  658MOL0     C90721   0.972   6.695   1.471  0.4900 -0.4494 -0.4815
  658MOL0     C90722   0.964   6.771   1.587  1.2585  0.2293  0.0414
  658MOL0     C90723   0.836   6.790   1.653 -0.6978 -0.7058  0.2622
  658MOL0     C90724   0.725   6.730   1.600 -0.3297  0.1954  0.5632
  658MOL0     O90725   0.603   6.758   1.672 -0.5566 -0.6975 -0.3265
  658MOL0     C90726   0.475   6.715   1.619 -0.2717  0.6585 -0.7239
  658MOL0     C90727   0.360   6.787   1.681  0.1318 -0.5185  0.3372
  658MOL0     C90728   0.225   6.737   1.644  0.1755 -0.4204  0.2489
  658MOL0     C90729   0.148   6.849   1.564 -0.1633 -0.0235 -0.1138
  658MOL0     C90730   0.215   6.870   1.434 -0.7442 -0.1967 -0.3595
  658MOL0     C90731   0.275   6.877   1.325 -0.0952 -0.9299  0.6748
  658MOL0     C90732   0.735   6.649   1.486  0.4301  0.3319  0.1308
  658MOL0     C90733   0.854   6.628   1.427  0.6377 -0.2598  0.1424
  658MOL0     C90734   0.867   6.528   1.311  0.1836 -1.0273 -0.0711
  658MOL0     H90735   1.391   6.785   1.616  0.8218  1.1589  0.3782
  658MOL0     H90736   1.629   6.810   1.565 -0.8612  0.7574  1.4118
  658MOL0     H90737   1.715   7.003   1.201 -0.9440  0.3357 -1.6104
  658MOL0     H90738   1.756   6.849   1.129 -1.0248 -0.1783  0.6426
  658MOL0     H90739   1.945   6.984   1.339  1.8039 -1.2032  0.1292
  658MOL0     H90740   1.973   6.826   1.261  2.6379  1.2411  1.6866
  658MOL0     H90741   1.947   6.926   1.046 -1.5406 -0.5161  0.6385
  658MOL0     H90742   1.945   7.090   1.106  0.4254  0.4696  0.2687
  658MOL0     H90743   2.163   7.068   1.218 -1.0032 -0.9135  0.1750
  658MOL0     H90744   2.178   6.905   1.161  3.5173  1.2757  2.4693
  658MOL0     H90745   2.142   7.135   0.972 -0.8617 -0.4920 -2.3743
  658MOL0     H90746   2.184   6.965   0.932 -0.4626  0.7431 -1.7187
  658MOL0     H90747   2.369   7.143   1.095  1.9820 -0.3183  1.8121
  658MOL0     H90748   2.402   6.987   1.030 -1.3932 -0.3656  1.2079
  658MOL0     H90749   2.505   7.195   0.893  0.5338  0.1799  3.3189
  658MOL0     H90750   2.345   7.241   0.871 -1.3348 -1.1764  0.3958
  658MOL0     H90751   2.505   6.993   0.769 -0.5320  0.0692 -1.6566
  658MOL0     H90752   2.326   7.014   0.751 -1.8222  1.9431 -0.5025
  658MOL0     H90753   2.674   7.132   0.677 -0.9877  1.9119  2.3954
  658MOL0     H90754   2.797   7.224   0.430 -0.5619 -1.0806 -1.8980
  658MOL0     H90755   2.723   7.378   0.449  0.4816  0.5700 -0.9306
  658MOL0     H90756   2.666   7.165   0.225 -1.3729  0.0983  1.0142
  658MOL0     H90757   2.599   7.323   0.237 -0.0183 -0.5490 -2.2584
  658MOL0     H90758   2.776   7.406   0.120 -1.2048 -0.8487  0.0449
  658MOL0     H90759   2.875   7.364   0.262 -0.0580  0.2589  1.4653
  658MOL0     H90760   2.894   7.123   0.128  0.5988 -0.2885 -1.2762
  658MOL0     H90761   2.792   7.191   0.010  0.5795  1.4657 -0.5722
  658MOL0     H90762   3.124   7.482  -0.029  0.9648  2.2383  0.8906
  658MOL0     H90763   3.257   7.666   0.035 -0.4560  0.7419 -0.0505
  658MOL0     H90764   3.414   7.603   0.038  0.1734 -1.1151  1.6190
  658MOL0     H90765   3.339   7.679   0.187  0.7419 -0.8781  0.5085
  658MOL0     H90766   3.773   7.374   0.334  0.5695  1.4409 -3.6868
  658MOL0     H90767   3.926   7.458   0.498  1.0848  1.9362 -1.2800
  658MOL0     H90768   4.069   7.570   0.578  3.3775 -1.2172  4.1658
  658MOL0     H90769   4.139   7.733   0.602  0.9705 -0.3022  0.9116
  658MOL0     H90770   4.034   7.732   0.827 -2.3837 -1.3322  1.2844
  658MOL0     H90771   3.971   7.576   0.799 -2.3017  0.3999 -2.9316
  658MOL0     H90772   4.216   7.497   0.748  0.6620 -2.2515  2.1147
  658MOL0     H90773   4.150   7.505   0.902  0.0654  1.6243  0.5800
  658MOL0     H90774   4.264   7.748   0.942  1.7396  1.1338  0.6183
  658MOL0     H90775   4.320   7.714   0.781 -2.2197  1.6933  0.1710
  658MOL0     H90776   4.409   7.486   0.878 -2.3756 -0.9122  1.9829
  658MOL0     H90777   4.508   7.630   0.910 -0.1627 -1.0973 -2.6499
  658MOL0     H90778   4.299   7.482   1.082  1.1936 -1.9631 -2.1862
  658MOL0     H90779   4.367   7.637   1.139  0.2674 -1.2868  0.6853
  658MOL0     H90780   4.481   7.464   1.266  1.1083 -0.2674 -0.6776
  658MOL0     H90781   4.599   7.543   1.163  3.6115 -2.6432 -2.3639
  658MOL0     H90782   4.638   7.323   1.157 -0.3712 -1.1502  0.8530
  658MOL0     H90783   4.586   7.359   0.989 -1.8135 -0.2942  0.4406
  658MOL0     H90784   3.718   7.830   0.492  0.3611  0.3416  0.3038
  658MOL0     H90785   3.541   7.752   0.344 -0.6544 -1.4093  1.5716
  658MOL0     H90786   3.259   7.240   0.385  0.2913 -0.2941 -0.3816
  658MOL0     H90787   3.069   7.176   0.270 -0.2865 -0.2785 -0.9782
  658MOL0     H90788   1.531   6.811   1.153 -1.8879 -3.4676 -0.8184
  658MOL0     H90789   1.292   6.783   1.197 -1.6960  1.8524  1.1457
  658MOL0     H90790   1.051   6.826   1.621  0.8197  1.4144 -0.6835
  658MOL0     H90791   0.825   6.851   1.742 -0.1089  0.2424 -0.2987
  658MOL0     H90792   0.471   6.712   1.510  3.6882 -1.4523 -0.9969
  658MOL0     H90793   0.465   6.610   1.648 -0.1508  0.3214 -1.8342
  658MOL0     H90794   0.375   6.890   1.647  0.3831 -0.6155  0.1553
  658MOL0     H90795   0.364   6.777   1.790 -0.5817  0.9188  0.5293
  658MOL0     H90796   0.234   6.654   1.574 -2.9888 -1.7935  1.3069
  658MOL0     H90797   0.173   6.722   1.739 -1.8584  0.3408 -0.6854
  658MOL0     H90798   0.136   6.945   1.614  0.3758  1.0347 -1.9352
  658MOL0     H90799   0.045   6.827   1.533 -0.5086  1.5838 -0.1935
  658MOL0     H90800   0.336   6.904   1.241 -2.1271 -0.2987 -0.6762
  658MOL0     H90801   0.644   6.602   1.450  0.3030  0.8678 -0.2556
  658MOL0     H90802   0.915   6.579   1.227 -1.2117 -0.1938 -0.3887
  658MOL0     H90803   0.935   6.444   1.331  1.3208 -0.1685 -0.2199
  658MOL0     H90804   0.776   6.483   1.272  0.9838 -0.9660 -2.1223
  659MOL0     O90805   7.764   6.118   2.034  0.4517 -0.4580 -0.1728
  659MOL0     C90806   7.753   6.074   1.926 -0.2395  0.2111 -0.6530
  659MOL0     O90807   7.810   6.127   1.808  0.0764 -0.2524  0.1092
  659MOL0     C90808   7.914   6.214   1.833 -0.4450 -0.6556 -0.3258
  659MOL0     C90809   8.040   6.184   1.890 -0.1064 -0.6393 -0.5165
  659MOL0     C90810   8.137   6.286   1.898 -0.2171 -0.7545 -0.1102
  659MOL0     C90811   8.102   6.420   1.867 -0.4744  0.1956 -0.9997
  659MOL0     O90812   8.189   6.521   1.880  0.3946 -1.0642  0.1556
  659MOL0     C90813   8.324   6.505   1.844  0.0553 -0.3484  0.6116
  659MOL0     C90814   8.385   6.647   1.855 -0.2412 -1.1791  0.3050
  659MOL0     C90815   8.542   6.653   1.855  0.2946  0.6436  0.4073
  659MOL0     C90816   8.599   6.794   1.838  0.9271  0.6821  0.3006
  659MOL0     C90817   8.736   6.804   1.908  0.6297 -0.5698 -0.8723
  659MOL0     C90818   8.806   6.932   1.876  0.1721 -0.8296  0.2094
  659MOL0     C90819   8.741   7.057   1.943  0.3161  0.8040  0.2468
  659MOL0     C90820   8.820   7.186   1.909 -0.1596 -0.0335  0.6978
  659MOL0     N90821   8.813   7.226   1.761 -0.1064  0.0207 -0.6943
  659MOL0     C90822   8.889   7.170   1.661  0.0635 -0.5334  0.6633
  659MOL0     C90823   8.878   7.254   1.559  0.4824  0.3626  0.2315
  659MOL0     C90824   8.929   7.246   1.420 -0.0481  0.1131  0.7401
  659MOL0     C90825   9.071   7.310   1.397 -0.0102 -0.6233  0.3114
  659MOL0     C90826   9.130   7.285   1.255 -0.2679 -0.1774  1.1161
  659MOL0     C90827   9.088   7.396   1.161 -0.0674 -0.7668  0.5606
  659MOL0     O90828   9.183   7.501   1.168  0.9778 -0.2371 -0.8202
  659MOL0     C90829   9.288   7.499   1.082 -1.3129  0.0481 -0.3656
  659MOL0     C90830   9.333   7.385   1.015 -0.1477 -0.3234  0.0464
  659MOL0     C90831   9.454   7.388   0.942 -0.4719  0.3067  0.2483
  659MOL0     C90832   9.488   7.267   0.864 -0.5199  0.3190 -0.0104
  659MOL0     C90833   9.537   7.500   0.945  0.2843 -0.0708  0.1486
  659MOL0     C90834   9.663   7.521   0.869  0.4126  0.0523  0.0439
  659MOL0     O90835   9.764   7.583   0.931  0.1996 -0.0410 -0.0858
  659MOL0     C90836   9.869   7.632   0.858  0.0332 -0.0453 -0.1258
  659MOL0     C90837   9.968   7.674   0.943  0.3412 -0.6421  0.4895
  659MOL0     C90838  10.096   7.715   0.903  0.6583 -0.5312  0.9133
  659MOL0     C90839  10.120   7.727   0.762  0.3814  0.2026  1.0469
  659MOL0     O90840  10.237   7.765   0.704 -0.1274 -0.2823  0.0786
  659MOL0     C90841  10.359   7.740   0.771 -1.0058 -0.4607  0.3731
  659MOL0     C90842  10.467   7.715   0.668  0.7010  0.8829  0.4161
  659MOL0     C90843  10.607   7.724   0.728  0.2334  0.1840 -0.2342
  659MOL0     C90844  10.702   7.662   0.628  0.5551 -0.5701 -0.3406
  659MOL0     C90845  10.845   7.682   0.660 -0.7114 -0.3877  0.3527
  659MOL0     C90846  10.938   7.664   0.540  0.7416 -0.1365 -0.7640
  659MOL0     C90847  10.934   7.768   0.426 -0.2974 -0.0744 -0.0881
  659MOL0     C90848  11.061   7.792   0.349  0.5833 -0.3806 -0.8935
  659MOL0    Cl90849  11.201   7.849   0.450  0.2322 -0.0123 -0.4150
  659MOL0     C90850  10.016   7.702   0.674  0.1671  0.4753 -0.9976
  659MOL0     C90851   9.890   7.654   0.723 -0.4798 -0.5221  0.2285
  659MOL0     O90852   9.674   7.471   0.757  0.4761 -0.4715  0.1485
  659MOL0     C90853   9.493   7.614   1.011  0.4253 -0.6824 -0.2126
  659MOL0     C90854   9.372   7.609   1.078 -0.5188  0.4190  0.4851
  659MOL0     N90855   8.785   7.355   1.594 -0.6398 -0.5441 -0.4177
  659MOL0     N90856   8.743   7.333   1.714  0.4768 -0.0668  0.0168
  659MOL0     C90857   7.973   6.454   1.824 -0.4527  0.4864  0.2210
  659MOL0     C90858   7.887   6.347   1.797  0.1578  0.3846 -0.0844
  659MOL0     C90859   7.645   5.967   1.903  0.3862  0.7960 -0.2638
  659MOL0     C90860   7.592   5.946   1.769 -0.1005  0.0235 -0.3769
  659MOL0     C90861   7.491   5.853   1.743 -0.7543 -0.5979 -0.2050
  659MOL0     C90862   7.443   5.777   1.849  1.0960  0.1538 -0.4845
  659MOL0     O90863   7.347   5.680   1.817 -0.3753 -0.2654 -0.0209
  659MOL0     C90864   7.213   5.725   1.826  0.7533 -0.4619  0.5600
  659MOL0     C90865   7.135   5.624   1.910  0.6058 -1.1638 -0.6920
  659MOL0     C90866   6.985   5.655   1.896 -0.3598  0.0750  0.1973
  659MOL0     C90867   6.927   5.648   1.751  0.1419  0.2842 -0.0989
  659MOL0     C90868   6.784   5.667   1.751 -0.3285 -1.0387  0.9900
  659MOL0     C90869   6.666   5.696   1.755  0.5896 -0.9824 -0.0778
  659MOL0     C90870   7.503   5.786   1.978 -0.3611 -0.7370  0.1858
  659MOL0     C90871   7.605   5.874   2.007  0.3609  0.3656 -0.3614
  659MOL0     C90872   7.677   5.857   2.139 -0.3455  0.4533  0.6968
  659MOL0     H90873   8.053   6.083   1.929 -0.1582 -0.5770 -0.3352
  659MOL0     H90874   8.231   6.267   1.948 -0.6438 -1.8933  0.2958
  659MOL0     H90875   8.329   6.472   1.740  1.3291 -0.4298  0.6807
  659MOL0     H90876   8.371   6.430   1.909 -1.4773 -2.7623 -0.9042
  659MOL0     H90877   8.343   6.702   1.771 -1.2963 -0.7330  1.0938
  659MOL0     H90878   8.357   6.687   1.953  0.4574 -2.4056  1.0319
  659MOL0     H90879   8.563   6.612   1.954 -3.0024 -0.7932  0.6532
  659MOL0     H90880   8.588   6.588   1.779  0.1372  0.3787  0.5357
  659MOL0     H90881   8.610   6.809   1.730  1.7637 -0.7881  0.1539
  659MOL0     H90882   8.530   6.860   1.892  0.2113 -1.0857  1.6441
  659MOL0     H90883   8.796   6.720   1.871  0.9282 -0.7908  0.0941
  659MOL0     H90884   8.725   6.781   2.014  1.2507 -2.6349 -1.2078
  659MOL0     H90885   8.913   6.929   1.902 -0.0535 -2.6674  1.0935
  659MOL0     H90886   8.802   6.942   1.767 -2.2860  2.6228  0.4475
  659MOL0     H90887   8.752   7.038   2.050 -0.7824 -0.3811  0.1696
  659MOL0     H90888   8.634   7.070   1.926  0.5926 -0.2048 -2.9555
  659MOL0     H90889   8.778   7.273   1.962 -2.2359 -0.8462  0.4642
  659MOL0     H90890   8.926   7.178   1.935  0.1505 -0.1468 -0.5595
  659MOL0     H90891   8.961   7.089   1.666 -1.3819 -1.9514 -0.5291
  659MOL0     H90892   8.851   7.283   1.353  0.7889  0.7546  0.0928
  659MOL0     H90893   8.931   7.144   1.383 -1.8428  0.4777 -0.4803
  659MOL0     H90894   9.066   7.417   1.415  0.0296 -0.1516 -2.0712
  659MOL0     H90895   9.134   7.259   1.470  2.6708 -1.1669 -2.1816
  659MOL0     H90896   9.239   7.272   1.254 -0.5315 -3.0740  0.3703
  659MOL0     H90897   9.093   7.188   1.221  0.9765  0.3620 -2.2107
  659MOL0     H90898   9.076   7.362   1.057 -2.6977 -2.0439  1.1744
  659MOL0     H90899   8.992   7.441   1.188 -1.0264 -2.1189 -0.3937
  659MOL0     H90900   9.283   7.289   1.018 -0.3044 -0.2332  0.3218
  659MOL0     H90901   9.403   7.198   0.863  1.8602 -2.7759 -0.3438
  659MOL0     H90902   9.578   7.215   0.898  1.9393  1.9478 -3.4519
  659MOL0     H90903   9.507   7.286   0.758 -1.1837 -0.7280 -0.3296
  659MOL0     H90904   9.932   7.671   1.046 -0.7242  0.7648  0.1854
  659MOL0     H90905  10.181   7.739   0.966  0.7522 -0.5551  0.7960
  659MOL0     H90906  10.390   7.836   0.812  0.3379 -0.1474 -1.2860
  659MOL0     H90907  10.355   7.662   0.848  1.3707  0.2676  1.3049
  659MOL0     H90908  10.445   7.615   0.630 -0.3792  1.6153 -0.9496
  659MOL0     H90909  10.460   7.782   0.582  0.9283 -0.0734 -0.3612
  659MOL0     H90910  10.626   7.673   0.823  1.1128 -0.6992 -0.8696
  659MOL0     H90911  10.636   7.829   0.737 -0.8190  0.5228 -0.6442
  659MOL0     H90912  10.679   7.705   0.530 -1.8133 -0.6077  0.1445
  659MOL0     H90913  10.685   7.554   0.623  0.5323 -0.6677  1.2868
  659MOL0     H90914  10.851   7.786   0.693  1.8177 -0.5086  0.5084
  659MOL0     H90915  10.859   7.618   0.747 -0.8063 -0.8021  0.0666
  659MOL0     H90916  10.907   7.565   0.505  1.0714  0.3368 -2.5203
  659MOL0     H90917  11.043   7.667   0.571 -0.1998  1.2952  2.6962
  659MOL0     H90918  10.921   7.861   0.482  1.8551  1.0216 -1.3058
  659MOL0     H90919  10.854   7.750   0.354 -0.0975 -0.6904 -0.1646
  659MOL0     H90920  11.061   7.850   0.256 -0.6977 -1.9991 -1.9861
  659MOL0     H90921  11.097   7.693   0.319 -0.1036 -1.2460  0.9703
  659MOL0     H90922  10.044   7.724   0.571  3.5390 -3.3523 -1.1384
  659MOL0     H90923   9.815   7.636   0.647 -1.3876 -1.5123  1.3239
  659MOL0     H90924   9.556   7.702   1.014 -0.6789  0.1989 -1.7727
  659MOL0     H90925   9.332   7.693   1.133 -0.9696 -0.1642  1.0682
  659MOL0     H90926   7.950   6.560   1.820  0.7165  0.7767  0.9170
  659MOL0     H90927   7.785   6.366   1.766 -1.5704  0.5218  4.7378
  659MOL0     H90928   7.603   6.015   1.685 -2.5970 -0.1164 -0.8908
  659MOL0     H90929   7.461   5.837   1.640  0.6385  1.0789 -0.9280
  659MOL0     H90930   7.204   5.819   1.880 -0.6808 -0.1384 -0.1984
  659MOL0     H90931   7.179   5.737   1.723 -1.3744  0.2878  1.3192
  659MOL0     H90932   7.164   5.629   2.016 -2.8309 -2.4196  0.4800
  659MOL0     H90933   7.155   5.520   1.884 -1.6072 -1.6567 -0.6569
  659MOL0     H90934   6.922   5.585   1.953 -0.2482 -1.6416 -1.6940
  659MOL0     H90935   6.969   5.760   1.922 -1.2509 -0.1368  0.5651
  659MOL0     H90936   6.939   5.545   1.715  0.5746  0.2821  0.0394
  659MOL0     H90937   6.978   5.714   1.680  2.8537 -1.3247  0.1836
  659MOL0     H90938   6.563   5.715   1.778  1.2309  2.8267  0.2011
  659MOL0     H90939   7.469   5.720   2.058 -2.2973  1.4186  1.2377
  659MOL0     H90940   7.681   5.755   2.179  4.9795  0.2534  0.3395
  659MOL0     H90941   7.780   5.892   2.129  0.0320 -1.2186 -2.1724
  659MOL0     H90942   7.624   5.907   2.220 -1.3798 -0.6566  0.7364
  660MOL0     O90943   6.913   9.369   9.008  0.0183  0.3950 -0.5140
  660MOL0     C90944   6.883   9.309   9.109 -0.1861  0.3999 -0.4979
  660MOL0     O90945   6.763   9.320   9.171  0.1554 -0.5478 -0.3322
  660MOL0     C90946   6.680   9.424   9.144 -0.5776  0.2900 -1.0404
  660MOL0     C90947   6.679   9.519   9.249 -0.2203 -0.7266  0.3219
  660MOL0     C90948   6.604   9.641   9.224 -0.4501  0.1869 -0.3081
  660MOL0     C90949   6.524   9.655   9.109  0.7845  0.4373 -0.1372
  660MOL0     O90950   6.446   9.770   9.111 -0.7531  0.4405  0.2161
  660MOL0     C90951   6.337   9.762   9.017 -0.3983 -0.4156 -0.5973
  660MOL0     C90952   6.218   9.857   9.063 -0.2330 -0.0630  0.3027
  660MOL0     C90953   6.100   9.819   8.968 -0.4148 -0.1291 -0.1501
  660MOL0     C90954   6.015   9.947   8.952  0.9728 -0.7120 -0.0612
  660MOL0     C90955   5.893   9.920   8.862  0.1257  0.3105 -0.4607
  660MOL0     C90956   5.818  10.047   8.836  0.8818 -0.0414 -0.0162
  660MOL0     C90957   5.902  10.162   8.769  0.1284 -0.2780  0.1072
  660MOL0     C90958   5.830  10.242   8.672  0.5615 -0.2020  1.0014
  660MOL0     N90959   5.899  10.364   8.620  0.3901  0.2186  0.0832
  660MOL0     C90960   5.929  10.475   8.687 -0.2862 -0.7264 -0.9886
  660MOL0     C90961   5.989  10.558   8.598  0.1141  0.0131 -0.1442
  660MOL0     C90962   6.071  10.679   8.625  0.4653 -0.2090  0.0025
  660MOL0     C90963   6.225  10.646   8.613  0.2602  0.0330  0.1848
  660MOL0     C90964   6.274  10.576   8.743  0.0825 -0.1963  0.3431
  660MOL0     C90965   6.394  10.487   8.691  0.3591  0.1627  0.3186
  660MOL0     O90966   6.524  10.525   8.738  0.2024  0.8458 -0.1943
  660MOL0     C90967   6.637  10.452   8.706 -0.1425  0.1087 -0.1530
  660MOL0     C90968   6.742  10.475   8.794 -0.4580 -0.8724  0.4415
  660MOL0     C90969   6.857  10.404   8.765 -0.5095  0.8254  0.2640
  660MOL0     C90970   6.968  10.438   8.864 -0.2461  0.4074  0.6333
  660MOL0     C90971   6.872  10.303   8.665  0.5460 -0.3308  0.6390
  660MOL0     C90972   6.985  10.211   8.643 -0.5302 -0.1922  0.3342
  660MOL0     O90973   7.012  10.169   8.514 -0.4501  0.0807 -0.2791
  660MOL0     C90974   7.115  10.078   8.500 -0.0402  0.2226 -0.2257
  660MOL0     C90975   7.237  10.112   8.440 -1.0206  0.4189 -0.5934
  660MOL0     C90976   7.337  10.010   8.440  0.2075 -0.0222  0.0045
  660MOL0     C90977   7.316   9.883   8.483 -0.4318  0.0631  1.1298
  660MOL0     O90978   7.424   9.801   8.474 -0.5793  0.8830  0.1588
  660MOL0     C90979   7.428   9.681   8.555  0.1132  0.1254  1.1611
  660MOL0     C90980   7.547   9.589   8.522 -0.0016  1.4512 -0.5808
  660MOL0     C90981   7.672   9.674   8.516 -0.2253  0.6356  0.4836
  660MOL0     C90982   7.807   9.589   8.522 -0.2306  0.2043 -0.4022
  660MOL0     C90983   7.928   9.676   8.481 -0.4666  0.2294 -0.9988
  660MOL0     C90984   8.051   9.589   8.471 -0.4415  0.0392 -0.1937
  660MOL0     C90985   8.168   9.683   8.449 -0.0530 -0.3711  0.6127
  660MOL0     C90986   8.284   9.614   8.375  0.1379 -0.2304  0.3776
  660MOL0    Cl90987   8.232   9.565   8.207  0.2073 -0.2129  0.6579
  660MOL0     C90988   7.193   9.848   8.538  0.1341  0.0593  0.1810
  660MOL0     C90989   7.097   9.951   8.554  0.8128  0.7264  0.2199
  660MOL0     O90990   7.043  10.173   8.745 -0.7705  0.6436 -0.1258
  660MOL0     C90991   6.770  10.294   8.572  0.3377 -0.8851 -0.3660
  660MOL0     C90992   6.647  10.362   8.596 -0.0932 -0.3061 -0.1058
  660MOL0     N90993   5.973  10.503   8.470 -0.6892 -0.3894 -0.1192
  660MOL0     N90994   5.918  10.387   8.486  0.2202 -0.2424  0.3396
  660MOL0     C90995   6.522   9.555   9.015 -0.2351  0.9061  0.0747
  660MOL0     C90996   6.602   9.442   9.029  0.1812  0.4507 -1.6491
  660MOL0     C90997   6.987   9.215   9.161  0.0382  0.0807  0.0324
  660MOL0     C90998   7.104   9.197   9.090 -0.5184  0.2978  0.5342
  660MOL0     C90999   7.205   9.106   9.129  0.2786 -0.6495  0.2048
  660MOL0     C91000   7.188   9.031   9.251 -0.0189  0.5645  0.2768
  660MOL0     O91001   7.285   8.935   9.273  0.0092 -0.7614 -0.7190
  660MOL0     C91002   7.283   8.871   9.400  0.6544  0.2212 -0.2208
  660MOL0     C91003   7.333   8.979   9.501 -0.0986 -0.1505  0.4526
  660MOL0     C91004   7.390   8.923   9.627  0.0050 -0.0210 -0.3955
  660MOL0     C91005   7.294   8.850   9.714  0.8046 -0.2885  1.0178
  660MOL0     C91006   7.290   8.704   9.686  0.9029  0.1793 -0.1736
  660MOL0     C91007   7.295   8.584   9.653 -0.1900  0.5445  0.5742
  660MOL0     C91008   7.070   9.054   9.327 -0.2510 -0.2958 -0.7321
  660MOL0     C91009   6.975   9.151   9.286  0.1237 -0.4775  0.4983
  660MOL0     C91010   6.850   9.143   9.361 -0.1544 -0.4357 -0.1041
  660MOL0     H91011   6.749   9.516   9.331  2.4132  1.6626 -1.6612
  660MOL0     H91012   6.628   9.725   9.289  2.6635 -1.7822  1.3767
  660MOL0     H91013   6.294   9.662   9.022 -1.1243 -0.2157 -2.2549
  660MOL0     H91014   6.369   9.789   8.916  0.5298  0.8069 -0.0074
  660MOL0     H91015   6.186   9.839   9.165  1.7899 -2.1595  0.6537
  660MOL0     H91016   6.246   9.963   9.052  1.5428 -0.3240  1.8321
  660MOL0     H91017   6.130   9.782   8.870  0.6139  2.5798 -0.9619
  660MOL0     H91018   6.028   9.747   9.008  0.9940 -0.6223  1.6354
  660MOL0     H91019   5.980   9.986   9.048  0.9670  1.4673 -0.8930
  660MOL0     H91020   6.087  10.013   8.904  2.6577 -2.1354  0.3743
  660MOL0     H91021   5.822   9.848   8.904  0.0870  1.0694  0.8232
  660MOL0     H91022   5.923   9.875   8.766 -0.5707 -1.7165  0.2036
  660MOL0     H91023   5.734  10.030   8.769 -0.3743  2.2014  0.9043
  660MOL0     H91024   5.770  10.084   8.927 -1.7119 -1.1525 -0.8369
  660MOL0     H91025   5.984  10.114   8.714 -0.9556 -0.0777 -1.7871
  660MOL0     H91026   5.941  10.213   8.857  0.7239 -0.5145 -0.0108
  660MOL0     H91027   5.808  10.170   8.592 -2.3265 -0.0538  1.5744
  660MOL0     H91028   5.741  10.276   8.725  0.0403 -0.3474  0.2315
  660MOL0     H91029   5.909  10.502   8.790  0.0344 -1.4811 -0.7236
  660MOL0     H91030   6.042  10.708   8.726 -1.2744 -0.1334 -0.4782
  660MOL0     H91031   6.037  10.762   8.563 -1.5078 -2.2995 -1.9210
  660MOL0     H91032   6.238  10.575   8.531 -0.9634  0.8894 -0.7984
  660MOL0     H91033   6.273  10.739   8.581 -1.6171  0.3676 -1.8990
  660MOL0     H91034   6.298  10.651   8.818 -2.5828 -0.9628  2.1123
  660MOL0     H91035   6.202  10.505   8.785 -0.4385  0.6529  0.9022
  660MOL0     H91036   6.371  10.382   8.709 -2.0710  0.3092 -1.4390
  660MOL0     H91037   6.407  10.496   8.583 -0.7008  1.0347  0.2516
  660MOL0     H91038   6.738  10.554   8.868  0.6113  2.4138 -2.7011
  660MOL0     H91039   6.989  10.350   8.926  0.3087 -1.5585 -2.1484
  660MOL0     H91040   6.947  10.529   8.921 -2.1698  1.6706 -1.9176
  660MOL0     H91041   7.052  10.465   8.800 -1.0568  0.2784 -0.5130
  660MOL0     H91042   7.256  10.215   8.412 -2.8238  1.3427  1.3611
  660MOL0     H91043   7.434  10.035   8.399  0.4659  0.9193  1.1499
  660MOL0     H91044   7.444   9.704   8.661  2.1693  1.6597  0.5863
  660MOL0     H91045   7.342   9.614   8.548  0.4665 -0.1727 -0.8594
  660MOL0     H91046   7.553   9.505   8.593  0.3274  2.8857  1.1595
  660MOL0     H91047   7.530   9.540   8.426  0.4540 -2.3499  1.0509
  660MOL0     H91048   7.684   9.750   8.593  2.8056 -0.0002  0.7883
  660MOL0     H91049   7.671   9.733   8.424 -0.1031  0.1505  0.1636
  660MOL0     H91050   7.809   9.504   8.453 -0.5098 -0.4171  0.3378
  660MOL0     H91051   7.833   9.544   8.619 -0.4949 -0.1553 -0.5009
  660MOL0     H91052   7.914   9.720   8.382 -0.1483  1.3880 -0.5423
  660MOL0     H91053   7.956   9.758   8.548  1.1931 -0.1839 -1.1462
  660MOL0     H91054   8.040   9.514   8.392 -3.5174  1.1014 -0.8999
  660MOL0     H91055   8.076   9.542   8.567  2.9956  1.7828 -0.0852
  660MOL0     H91056   8.201   9.701   8.551  1.0963 -0.2730  0.2398
  660MOL0     H91057   8.141   9.781   8.409 -1.0168 -0.5491  0.7932
  660MOL0     H91058   8.302   9.515   8.419  1.3761 -0.0363  0.3496
  660MOL0     H91059   8.373   9.679   8.374 -1.8557  2.6764 -0.6972
  660MOL0     H91060   7.178   9.742   8.558  1.2407 -0.6180 -2.2110
  660MOL0     H91061   6.999   9.918   8.588  1.5292 -0.1670  1.5258
  660MOL0     H91062   6.776  10.223   8.490  2.2297 -1.4374  0.1931
  660MOL0     H91063   6.557  10.358   8.536  0.2751  2.3087 -0.9862
  660MOL0     H91064   6.467   9.563   8.922 -2.0784  0.8929  1.1260
  660MOL0     H91065   6.620   9.369   8.950  0.7612 -1.3310  0.0385
  660MOL0     H91066   7.126   9.239   8.992 -1.5204  0.3375  0.3155
  660MOL0     H91067   7.292   9.096   9.064 -1.1253  0.2703 -1.9375
  660MOL0     H91068   7.191   8.835   9.446  2.9831 -1.3617  3.7053
  660MOL0     H91069   7.355   8.789   9.396 -1.3683 -1.5966 -3.1132
  660MOL0     H91070   7.253   9.049   9.528  0.1822  0.5813 -0.5541
  660MOL0     H91071   7.419   9.029   9.455  1.6809 -0.3582  3.3307
  660MOL0     H91072   7.483   8.865   9.614 -0.1860 -0.4234  0.0249
  660MOL0     H91073   7.420   9.015   9.677 -1.1731  1.7184 -2.7264
  660MOL0     H91074   7.192   8.884   9.693 -0.3005 -3.8290 -0.0217
  660MOL0     H91075   7.328   8.847   9.818 -0.2519 -2.0303  1.3632
  660MOL0     H91076   7.299   8.479   9.628 -1.6878  0.7415 -0.6255
  660MOL0     H91077   7.061   9.001   9.421  0.3863 -0.1278 -0.5736
  660MOL0     H91078   6.824   9.246   9.387  2.5328  0.7786 -1.8466
  660MOL0     H91079   6.772   9.089   9.306 -0.8784  1.5445 -1.1250
  660MOL0     H91080   6.848   9.079   9.450 -3.4909 -1.7930 -0.9843
  661MOL0     O91081   0.423   2.148   8.478  0.3718  0.4439  0.0256
  661MOL0     C91082   0.445   2.260   8.526  0.6990  0.2929 -0.9435
  661MOL0     O91083   0.523   2.349   8.474 -0.6856 -0.2226 -0.5481
  661MOL0     C91084   0.584   2.330   8.355  0.9987  0.4244 -0.4079
  661MOL0     C91085   0.717   2.339   8.364  0.5745  0.5694  0.4190
  661MOL0     C91086   0.794   2.338   8.245 -0.0194 -0.8201  0.9736
  661MOL0     C91087   0.737   2.340   8.115 -0.7394  0.7905 -0.0541
  661MOL0     O91088   0.830   2.364   8.009  0.4555 -0.2096  0.1831
  661MOL0     C91089   0.767   2.363   7.879 -0.3519  0.0519  0.1452
  661MOL0     C91090   0.868   2.332   7.761 -0.6192  0.7864  0.4559
  661MOL0     C91091   0.988   2.426   7.746 -0.4193  0.5318  0.2508
  661MOL0     C91092   1.095   2.358   7.661  0.6983  0.5902  0.1924
  661MOL0     C91093   1.204   2.457   7.622  0.0758 -0.1452 -0.3478
  661MOL0     C91094   1.313   2.397   7.533  1.1772 -0.6136  0.5111
  661MOL0     C91095   1.433   2.491   7.540  0.8179  1.1573 -0.0400
  661MOL0     C91096   1.423   2.627   7.470 -0.7626  1.1915  0.3867
  661MOL0     N91097   1.448   2.614   7.323 -0.3360 -0.5400 -0.3668
  661MOL0     C91098   1.357   2.581   7.235  0.3455 -0.4531  0.7622
  661MOL0     C91099   1.429   2.586   7.119 -0.0318 -0.1660  0.9988
  661MOL0     C91100   1.374   2.584   6.987  0.2045 -0.1133 -0.2056
  661MOL0     C91101   1.401   2.453   6.902 -0.5124  0.0276  0.5252
  661MOL0     C91102   1.548   2.438   6.861 -0.9191  0.1153 -0.6697
  661MOL0     C91103   1.579   2.326   6.770  1.3157  0.5268 -0.1826
  661MOL0     O91104   1.719   2.338   6.750  0.0531 -0.1967  0.6306
  661MOL0     C91105   1.767   2.309   6.623  0.2193 -0.1640 -1.0860
  661MOL0     C91106   1.901   2.349   6.614  1.3066 -0.2903  0.0446
  661MOL0     C91107   1.974   2.334   6.501 -0.8100  0.3646 -0.2041
  661MOL0     C91108   2.120   2.363   6.512 -0.1660 -0.2602 -0.8473
  661MOL0     C91109   1.911   2.288   6.384  0.0048  0.3480  0.9608
  661MOL0     C91110   1.970   2.271   6.243  0.1004  0.1875 -0.0271
  661MOL0     O91111   1.882   2.242   6.139  0.1445 -0.2032 -0.1871
  661MOL0     C91112   1.925   2.234   6.010  0.3851  1.0044 -0.1042
  661MOL0     C91113   1.870   2.138   5.922 -0.7730  1.0449 -0.6215
  661MOL0     C91114   1.903   2.124   5.790 -0.1629 -0.0223 -0.2438
  661MOL0     C91115   1.990   2.213   5.729 -0.3166 -0.8687  0.3689
  661MOL0     O91116   2.026   2.193   5.598 -0.9539 -0.0158  0.5608
  661MOL0     C91117   2.105   2.280   5.516 -0.4874  0.5125 -0.9242
  661MOL0     C91118   2.134   2.203   5.383  0.3435  0.9161 -0.3088
  661MOL0     C91119   2.091   2.293   5.269  0.7515 -0.4071  1.1198
  661MOL0     C91120   2.082   2.219   5.137 -0.1710 -0.3695 -0.0347
  661MOL0     C91121   2.001   2.300   5.028  0.6818  0.1481  0.5010
  661MOL0     C91122   2.093   2.418   4.982  0.1163 -0.8553 -0.5011
  661MOL0     C91123   2.010   2.529   4.915  0.7925  0.6066 -0.1127
  661MOL0     C91124   1.943   2.464   4.784  1.0984 -0.5639 -0.6612
  661MOL0    Cl91125   2.054   2.389   4.661 -0.3475  0.4138 -0.0282
  661MOL0     C91126   2.027   2.326   5.803  0.5919  0.1886  0.0950
  661MOL0     C91127   2.000   2.338   5.944  0.4481  1.2935  0.2146
  661MOL0     O91128   2.092   2.274   6.234  0.3804  0.1339 -0.3676
  661MOL0     C91129   1.769   2.259   6.393 -0.1389  0.4219  0.6717
  661MOL0     C91130   1.699   2.256   6.514  0.4087 -0.4330  0.0763
  661MOL0     N91131   1.559   2.594   7.144 -0.7814  1.0132 -0.9118
  661MOL0     N91132   1.572   2.617   7.268  0.2247 -0.6548 -0.0516
  661MOL0     C91133   0.601   2.340   8.111 -0.1880 -0.0195 -0.4232
  661MOL0     C91134   0.518   2.327   8.233  0.0243 -0.2550  0.4965
  661MOL0     C91135   0.357   2.294   8.647  0.3137 -0.5816  0.1804
  661MOL0     C91136   0.338   2.432   8.669 -0.0124 -0.0482 -0.7800
  661MOL0     C91137   0.272   2.483   8.777  0.2555  0.3209  0.1309
  661MOL0     C91138   0.211   2.396   8.865 -0.1531 -0.0835 -0.0346
  661MOL0     O91139   0.147   2.437   8.987  0.3853 -0.3200 -0.1171
  661MOL0     C91140   0.122   2.577   9.008  0.1009  0.2781  0.5442
  661MOL0     C91141   0.066   2.595   9.145  0.1017  0.0349  0.1115
  661MOL0     C91142  -0.059   2.517   9.171 -0.1483 -0.1092 -0.5199
  661MOL0     C91143  -0.111   2.525   9.310 -0.2287 -0.4448 -0.4183
  661MOL0     C91144  -0.026   2.462   9.409 -0.0695  0.4533  0.7777
  661MOL0     C91145   0.042   2.401   9.494 -0.3458  0.0855 -0.6152
  661MOL0     C91146   0.219   2.262   8.842  0.2081  0.9982 -0.6100
  661MOL0     C91147   0.293   2.209   8.736 -0.3853  0.0103  0.9252
  661MOL0     C91148   0.298   2.065   8.731 -0.7448 -0.0077  0.2267
  661MOL0     H91149   0.760   2.339   8.463  1.5589 -2.4351  0.1068
  661MOL0     H91150   0.903   2.333   8.253  0.0058 -0.8034  0.6375
  661MOL0     H91151   0.715   2.459   7.870  0.7058  0.7522  1.1546
  661MOL0     H91152   0.691   2.285   7.875  1.1900 -1.6981  2.2324
  661MOL0     H91153   0.918   2.238   7.787  2.8629  2.0356 -0.9899
  661MOL0     H91154   0.805   2.319   7.673 -0.2766 -0.5812  0.3919
  661MOL0     H91155   0.954   2.513   7.689 -0.4523  0.4433  0.1343
  661MOL0     H91156   1.025   2.462   7.843  0.3232  0.0313  0.1562
  661MOL0     H91157   1.139   2.276   7.720 -1.1980 -0.1736  0.6187
  661MOL0     H91158   1.056   2.315   7.569  0.5239  1.1814 -0.0077
  661MOL0     H91159   1.253   2.511   7.703 -0.0417  0.0024 -0.3734
  661MOL0     H91160   1.163   2.533   7.555  1.4532  0.6997 -0.2639
  661MOL0     H91161   1.334   2.303   7.585  0.1734 -1.7888 -1.1068
  661MOL0     H91162   1.271   2.379   7.433 -2.6194 -1.3843  2.0630
  661MOL0     H91163   1.515   2.431   7.498  0.6263 -0.6618  1.9954
  661MOL0     H91164   1.461   2.506   7.645 -0.9911  0.1893  0.6325
  661MOL0     H91165   1.329   2.678   7.492 -0.9802  0.9197  0.1150
  661MOL0     H91166   1.502   2.684   7.520  2.6163 -1.3026 -1.6469
  661MOL0     H91167   1.250   2.591   7.249  0.0015 -1.7159 -0.6481
  661MOL0     H91168   1.414   2.674   6.940  0.5870  1.3419  2.7106
  661MOL0     H91169   1.266   2.593   6.995  0.1219  3.5270 -2.9685
  661MOL0     H91170   1.378   2.364   6.960  1.7619 -0.0910  1.3423
  661MOL0     H91171   1.341   2.465   6.811 -0.4015 -1.7591  0.1723
  661MOL0     H91172   1.578   2.534   6.816 -0.6030 -0.1630 -1.0612
  661MOL0     H91173   1.611   2.411   6.947 -0.5899  0.2952 -0.8497
  661MOL0     H91174   1.552   2.233   6.823  2.2524 -0.0197 -0.6444
  661MOL0     H91175   1.519   2.339   6.680 -0.5803  1.3253  1.1211
  661MOL0     H91176   1.944   2.381   6.708 -1.1636 -0.9779  1.4861
  661MOL0     H91177   2.155   2.414   6.602 -1.0888  0.4388 -0.8716
  661MOL0     H91178   2.146   2.426   6.427 -2.7570  0.2623 -1.3232
  661MOL0     H91179   2.176   2.268   6.511  2.5906  1.2618 -0.5325
  661MOL0     H91180   1.817   2.056   5.969  1.6770  0.0045  0.4720
  661MOL0     H91181   1.857   2.038   5.742 -0.6393 -0.8745  1.6453
  661MOL0     H91182   2.050   2.373   5.496 -2.4238  0.0434  1.7258
  661MOL0     H91183   2.201   2.296   5.565  0.1160 -2.4266 -0.9570
  661MOL0     H91184   2.239   2.172   5.380  0.0636 -0.2497  1.0365
  661MOL0     H91185   2.079   2.109   5.385  1.3116  0.3322  1.1511
  661MOL0     H91186   2.151   2.384   5.262  0.3441 -0.1688  0.6588
  661MOL0     H91187   1.989   2.329   5.289  0.7529  0.2467  0.0419
  661MOL0     H91188   2.030   2.124   5.154  1.1892 -1.0294  0.5871
  661MOL0     H91189   2.178   2.193   5.093  0.5038  2.3977 -0.4178
  661MOL0     H91190   1.977   2.231   4.947 -1.8651  3.1675 -1.5845
  661MOL0     H91191   1.908   2.345   5.065  0.0305 -2.1057  1.7560
  661MOL0     H91192   2.161   2.382   4.904 -1.6721  2.9225 -4.2209
  661MOL0     H91193   2.154   2.447   5.068  0.3970 -3.2832  0.1848
  661MOL0     H91194   2.077   2.611   4.886  0.9184  0.4007 -0.4073
  661MOL0     H91195   1.929   2.568   4.978  0.2263  1.3822 -1.2714
  661MOL0     H91196   1.889   2.548   4.740 -0.4174 -0.5780  1.0870
  661MOL0     H91197   1.871   2.384   4.805  1.2257 -0.7504 -0.9319
  661MOL0     H91198   2.076   2.415   5.765 -1.2659  1.0902 -0.2732
  661MOL0     H91199   2.039   2.422   6.000  1.4365 -0.5213  2.4433
  661MOL0     H91200   1.713   2.232   6.304 -1.4391  1.5306  1.1154
  661MOL0     H91201   1.598   2.217   6.521 -0.1713  1.1541  5.7031
  661MOL0     H91202   0.540   2.351   8.021 -2.8302 -2.9792  0.7724
  661MOL0     H91203   0.409   2.327   8.237 -0.1866  0.0175 -2.7071
  661MOL0     H91204   0.360   2.518   8.607 -0.9010  3.3621  3.2412
  661MOL0     H91205   0.258   2.590   8.781  2.8646  0.9189 -2.7816
  661MOL0     H91206   0.215   2.635   9.010 -0.4223  1.1597 -0.1657
  661MOL0     H91207   0.055   2.625   8.937  1.2340 -0.9882 -1.4943
  661MOL0     H91208   0.032   2.699   9.145 -0.2357 -0.0599 -1.1454
  661MOL0     H91209   0.139   2.551   9.212  0.1035 -2.7524 -1.5520
  661MOL0     H91210  -0.136   2.565   9.110  0.2829  0.1956 -0.8228
  661MOL0     H91211  -0.048   2.414   9.137  1.9569  0.1814 -0.8062
  661MOL0     H91212  -0.205   2.471   9.302  0.0952 -1.2540  0.9113
  661MOL0     H91213  -0.129   2.627   9.346 -0.7418 -1.0694  1.1954
  661MOL0     H91214   0.097   2.371   9.580  0.3758  1.2609 -0.6488
  661MOL0     H91215   0.171   2.199   8.916  2.9462 -1.8488 -1.0858
  661MOL0     H91216   0.282   2.013   8.826  0.2942 -2.0546 -0.6419
  661MOL0     H91217   0.239   2.022   8.649 -1.5944 -1.8562  1.7108
  661MOL0     H91218   0.400   2.033   8.709  0.4573  2.2723  2.0263
  662MOL0     O91219   5.614  10.810   3.000  0.1750  0.8823 -0.0773
  662MOL0     C91220   5.547  10.890   3.060 -0.1915  0.3659  0.1734
  662MOL0     O91221   5.603  10.985   3.143 -0.3213  0.1239  0.7532
  662MOL0     C91222   5.744  10.995   3.152  0.4239  0.3839  0.3049
  662MOL0     C91223   5.811  11.069   3.050 -0.6787 -0.4925  0.3681
  662MOL0     C91224   5.952  11.076   3.060 -0.3946 -0.4785  0.0344
  662MOL0     C91225   6.025  11.002   3.153 -0.2000 -0.1477  0.4690
  662MOL0     O91226   6.158  10.992   3.165  0.0064 -1.0699  0.1495
  662MOL0     C91227   6.217  11.122   3.191 -0.0935  0.5159  0.6261
  662MOL0     C91228   6.371  11.106   3.201 -0.0236  0.1009 -0.3198
  662MOL0     C91229   6.421  11.249   3.222  0.0356 -0.1083 -0.8413
  662MOL0     C91230   6.571  11.260   3.225 -0.0227  0.2293 -0.2076
  662MOL0     C91231   6.608  11.399   3.222 -0.1820 -0.1081 -0.7729
  662MOL0     C91232   6.756  11.423   3.226  0.1602  0.2937  0.2671
  662MOL0     C91233   6.792  11.571   3.228 -1.3503 -0.5991 -0.2813
  662MOL0     C91234   6.936  11.602   3.267 -0.6818 -0.2404  0.2790
  662MOL0     N91235   7.031  11.545   3.170  0.3208  0.4758 -0.1666
  662MOL0     C91236   7.099  11.618   3.070  0.0187 -0.3513  0.4878
  662MOL0     C91237   7.182  11.516   3.016  0.1949 -0.5974  0.2307
  662MOL0     C91238   7.273  11.549   2.903  0.5373  0.0903  0.2876
  662MOL0     C91239   7.265  11.445   2.796  0.8486 -0.3310 -0.5006
  662MOL0     C91240   7.344  11.315   2.831 -0.3857 -0.5924  0.6152
  662MOL0     C91241   7.346  11.226   2.701  0.0070 -0.2559 -0.4276
  662MOL0     O91242   7.417  11.103   2.728 -0.3742  0.2170 -0.3666
  662MOL0     C91243   7.547  11.100   2.740  0.1540 -0.9138 -0.5548
  662MOL0     C91244   7.599  11.017   2.832 -1.2990 -0.5128 -0.4717
  662MOL0     C91245   7.738  11.011   2.870  0.5072 -0.2591  0.7865
  662MOL0     C91246   7.782  10.908   2.978  0.3754  0.4893 -0.4888
  662MOL0     C91247   7.827  11.097   2.795 -0.3377  0.5382  1.1037
  662MOL0     C91248   7.974  11.108   2.831  0.5388 -0.7025  0.3430
  662MOL0     O91249   8.016  11.069   2.950 -0.5851  0.0945  0.0764
  662MOL0     C91250   8.149  11.090   2.988 -0.4123  0.2258  0.0947
  662MOL0     C91251   8.198  11.010   3.084  0.1799  0.2443  0.0690
  662MOL0     C91252   8.321  11.025   3.147 -0.7016 -0.4642 -0.0510
  662MOL0     C91253   8.402  11.131   3.108  0.3132 -0.9738  0.2655
  662MOL0     O91254   8.517  11.145   3.176 -0.1136  0.1556  0.0042
  662MOL0     C91255   8.606  11.253   3.137 -0.3308  0.1816 -0.0604
  662MOL0     C91256   8.749  11.223   3.186  0.2167  0.0846 -0.7251
  662MOL0     C91257   8.837  11.345   3.152 -0.0005  0.9593 -0.3841
  662MOL0     C91258   8.955  11.348   3.248  0.3177 -0.1786  1.2766
  662MOL0     C91259   9.050  11.468   3.223 -0.7649 -0.3584  0.6110
  662MOL0     C91260   9.177  11.460   3.303 -0.0942 -0.2425  0.6256
  662MOL0     C91261   9.247  11.600   3.301 -0.2490 -0.6629 -0.1223
  662MOL0     C91262   9.385  11.593   3.375 -0.2718 -0.4507 -0.1179
  662MOL0    Cl91263   9.492  11.494   3.293 -0.0190 -0.4854  0.3515
  662MOL0     C91264   8.357  11.217   3.001  0.9193  0.0913 -0.1489
  662MOL0     C91265   8.229  11.196   2.941 -0.7919 -0.0338  0.3218
  662MOL0     O91266   8.043  11.123   2.731 -0.0042 -0.0187 -0.3461
  662MOL0     C91267   7.775  11.165   2.685  0.2524 -0.6505  0.3030
  662MOL0     C91268   7.635  11.174   2.666 -0.0160  0.0470  1.5413
  662MOL0     N91269   7.176  11.403   3.087  0.2967  0.0367 -0.0320
  662MOL0     N91270   7.091  11.423   3.183 -0.4273  0.2129 -0.0872
  662MOL0     C91271   5.952  10.927   3.250 -0.7529 -0.0012 -0.5612
  662MOL0     C91272   5.806  10.915   3.251 -0.3768 -0.5810  0.4021
  662MOL0     C91273   5.398  10.904   3.036 -0.1945 -0.1894  0.0831
  662MOL0     C91274   5.331  11.026   3.051 -0.4895 -0.5152 -0.7659
  662MOL0     C91275   5.206  11.047   3.026  0.2810  0.9909 -0.7718
  662MOL0     C91276   5.116  10.936   2.984  0.3494 -0.1279 -0.7633
  662MOL0     O91277   4.999  10.954   2.916  0.6784 -0.7895  0.5195
  662MOL0     C91278   4.904  11.055   2.978 -1.2286  0.2865 -0.3492
  662MOL0     C91279   4.762  11.022   2.938  0.6183  0.1351  0.2481
  662MOL0     C91280   4.725  11.019   2.786  0.2420  0.3608 -0.1294
  662MOL0     C91281   4.751  11.157   2.717  0.0347 -0.1604  0.0111
  662MOL0     C91282   4.729  11.152   2.573 -0.0893  0.4974 -0.1039
  662MOL0     C91283   4.683  11.146   2.460 -0.4831  0.6002 -0.2723
  662MOL0     C91284   5.183  10.820   2.958  0.4492  0.1294 -0.2193
  662MOL0     C91285   5.316  10.795   2.998 -0.1065  0.6598  0.5862
  662MOL0     C91286   5.355  10.649   2.993 -0.3056 -0.8223  0.1647
  662MOL0     H91287   5.757  11.124   2.974 -0.5006  1.7078  1.7394
  662MOL0     H91288   6.008  11.131   2.985  2.7167 -2.0290  1.0813
  662MOL0     H91289   6.180  11.159   3.287  2.6006  0.3349  1.8111
  662MOL0     H91290   6.195  11.196   3.114  0.4010  0.3788  0.3506
  662MOL0     H91291   6.394  11.048   3.290 -1.5200  0.7641  0.5327
  662MOL0     H91292   6.421  11.069   3.111  2.2570  3.4115 -0.6235
  662MOL0     H91293   6.387  11.310   3.138  0.2634 -0.3976 -1.1463
  662MOL0     H91294   6.371  11.276   3.315 -0.0241  0.3111 -0.9927
  662MOL0     H91295   6.606  11.212   3.316  3.1016  0.2780 -1.2525
  662MOL0     H91296   6.604  11.201   3.138 -3.4278  1.2191 -2.3772
  662MOL0     H91297   6.570  11.430   3.320 -0.3537 -4.9033  0.9603
  662MOL0     H91298   6.560  11.455   3.141 -0.3634  0.8087 -0.0509
  662MOL0     H91299   6.808  11.374   3.309  1.5355 -3.2147 -2.4080
  662MOL0     H91300   6.800  11.387   3.133  0.1386 -3.3176  1.4935
  662MOL0     H91301   6.727  11.628   3.295 -0.2607  0.4700 -0.0980
  662MOL0     H91302   6.773  11.609   3.128  0.8220  1.4873  0.0008
  662MOL0     H91303   6.954  11.709   3.276  0.1386 -0.4832  1.8658
  662MOL0     H91304   6.953  11.568   3.369  2.3281 -0.2069 -0.1381
  662MOL0     H91305   7.087  11.722   3.041 -1.4258 -0.6571 -0.0964
  662MOL0     H91306   7.371  11.565   2.948 -0.0811  0.3385  1.6239
  662MOL0     H91307   7.250  11.644   2.856  0.5608 -0.9948 -2.0476
  662MOL0     H91308   7.162  11.415   2.778  0.1054  0.4677  2.0576
  662MOL0     H91309   7.296  11.490   2.701  2.4719  0.1922  0.2282
  662MOL0     H91310   7.446  11.343   2.860 -1.5959  4.0111  1.2768
  662MOL0     H91311   7.309  11.252   2.912  1.9087 -1.6297  0.8807
  662MOL0     H91312   7.250  11.212   2.651 -1.1411  0.2319  1.5249
  662MOL0     H91313   7.398  11.284   2.624 -1.7922  0.5674 -1.0746
  662MOL0     H91314   7.536  10.950   2.889 -0.3934 -0.6671  0.3867
  662MOL0     H91315   7.862  10.844   2.939 -0.9550 -1.0003 -0.9152
  662MOL0     H91316   7.700  10.838   2.998 -2.1940  3.2620 -0.5093
  662MOL0     H91317   7.818  10.976   3.056  0.3853  1.0475 -0.9770
  662MOL0     H91318   8.131  10.933   3.120  0.6010 -0.6741 -1.0716
  662MOL0     H91319   8.346  10.959   3.230  0.7645 -0.8807 -0.8006
  662MOL0     H91320   8.605  11.240   3.028  0.9758 -2.7221  0.1643
  662MOL0     H91321   8.567  11.349   3.171  2.6271  1.8632 -1.0073
  662MOL0     H91322   8.735  11.203   3.292 -1.1895 -0.0811 -0.9274
  662MOL0     H91323   8.790  11.137   3.133  0.0914 -0.8992  0.7143
  662MOL0     H91324   8.775  11.434   3.168 -0.0555  0.6256  1.5680
  662MOL0     H91325   8.871  11.341   3.048 -0.5637 -0.5521 -0.5281
  662MOL0     H91326   9.009  11.254   3.237 -0.2032 -0.2668 -0.8804
  662MOL0     H91327   8.921  11.369   3.351 -0.7845 -3.2959  1.6500
  662MOL0     H91328   9.074  11.461   3.116  1.7803 -1.3220  1.1654
  662MOL0     H91329   8.999  11.561   3.246 -1.0959 -0.2558 -0.4731
  662MOL0     H91330   9.237  11.380   3.259 -0.0372  0.9631 -1.6154
  662MOL0     H91331   9.146  11.449   3.408  0.6514  0.6462  0.9555
  662MOL0     H91332   9.180  11.674   3.346 -0.1973 -1.1074  0.7016
  662MOL0     H91333   9.259  11.647   3.203  1.0972  2.1176  1.2370
  662MOL0     H91334   9.354  11.550   3.470 -0.9010 -3.4236 -1.5508
  662MOL0     H91335   9.434  11.691   3.379 -1.5300  0.2452 -0.9113
  662MOL0     H91336   8.415  11.302   2.966 -0.0030  1.6513  1.9154
  662MOL0     H91337   8.202  11.272   2.868  1.4555 -0.2078 -0.7602
  662MOL0     H91338   7.837  11.226   2.619 -2.9445 -0.2536 -2.5760
  662MOL0     H91339   7.604  11.226   2.576 -1.1802 -1.1515  1.2138
  662MOL0     H91340   6.014  10.880   3.325 -1.9187  2.4498  2.1422
  662MOL0     H91341   5.754  10.852   3.321 -0.5360 -0.1356  0.6887
  662MOL0     H91342   5.393  11.107   3.089 -2.8123  0.7066  0.6430
  662MOL0     H91343   5.171  11.150   3.031  0.1565  0.8906  1.1265
  662MOL0     H91344   4.910  11.042   3.086 -0.8006  0.9014 -0.2968
  662MOL0     H91345   4.927  11.159   2.952 -2.2275  1.0190  1.5335
  662MOL0     H91346   4.691  11.095   2.976 -0.9686 -0.0040 -2.1701
  662MOL0     H91347   4.737  10.925   2.982 -3.0460 -0.5469 -2.8023
  662MOL0     H91348   4.779  10.938   2.737 -0.5054  0.9383 -2.0026
  662MOL0     H91349   4.618  11.000   2.774 -0.9534  3.4261  3.4218
  662MOL0     H91350   4.852  11.189   2.742 -0.0826 -0.6973  1.2481
  662MOL0     H91351   4.688  11.240   2.751 -1.5080 -1.9027  1.6977
  662MOL0     H91352   4.643  11.128   2.363  1.4789 -0.1919 -0.9929
  662MOL0     H91353   5.122  10.749   2.905  0.7230 -0.7089  0.5692
  662MOL0     H91354   5.378  10.626   2.889  0.8084 -0.0329  0.2119
  662MOL0     H91355   5.438  10.622   3.060  0.5200 -2.1406 -1.3226
  662MOL0     H91356   5.276  10.582   3.028  0.0844  0.0671  3.0740
  663MOL0     O91357   9.515  11.064   0.152  0.8768 -0.4838  0.0568
  663MOL0     C91358   9.498  11.123   0.045  1.1443 -0.4148  0.3820
  663MOL0     O91359   9.592  11.173  -0.036  0.4298 -0.4013 -0.4928
  663MOL0     C91360   9.723  11.157   0.007  0.5171  0.5903  1.1645
  663MOL0     C91361   9.772  11.031   0.035  0.8956 -0.0197 -0.4262
  663MOL0     C91362   9.908  11.014   0.041 -0.4036 -0.6618 -0.3253
  663MOL0     C91363   9.996  11.118   0.028 -0.6415 -0.1938 -0.4547
  663MOL0     O91364  10.128  11.091   0.014 -0.8057  0.0506  0.1246
  663MOL0     C91365  10.190  11.024   0.128  0.5179 -0.1129 -0.0414
  663MOL0     C91366  10.292  11.114   0.211 -0.0141 -0.4261  0.7862
  663MOL0     C91367  10.428  11.151   0.145  0.0922 -0.0733  0.6298
  663MOL0     C91368  10.538  11.076   0.212 -0.0761 -0.0127 -0.7338
  663MOL0     C91369  10.681  11.115   0.157  0.4927  0.4894  0.2888
  663MOL0     C91370  10.786  11.065   0.261 -0.0423 -0.2602  0.7428
  663MOL0     C91371  10.933  11.084   0.217  0.0419  0.3822 -0.3544
  663MOL0     C91372  10.963  11.235   0.201  0.5169 -0.2610 -0.3207
  663MOL0     N91373  11.099  11.251   0.151 -0.0453 -0.6466  0.2652
  663MOL0     C91374  11.214  11.255   0.231 -0.7062 -0.3909  0.5423
  663MOL0     C91375  11.314  11.274   0.135  0.9406  0.7680  0.9046
  663MOL0     C91376  11.463  11.295   0.161  0.7361  0.3601 -0.5150
  663MOL0     C91377  11.504  11.429   0.125  0.6492 -0.6885 -0.4514
  663MOL0     C91378  11.653  11.462   0.157  0.6034 -0.2913  0.3440
  663MOL0     C91379  11.713  11.555   0.050  0.0721 -0.1161  0.0054
  663MOL0     O91380  11.856  11.584   0.072 -0.4376 -0.8269 -0.5927
  663MOL0     C91381  11.896  11.682   0.162 -0.0628  0.6970 -0.6201
  663MOL0     C91382  11.838  11.812   0.154 -0.6176  0.7259  0.1113
  663MOL0     C91383  11.854  11.913   0.252 -0.9502 -0.4365  0.6762
  663MOL0     C91384  11.776  12.048   0.258 -0.2190 -0.0068  0.8461
  663MOL0     C91385  11.950  11.882   0.350 -0.9639  0.1583 -0.7905
  663MOL0     C91386  11.986  11.965   0.473 -0.1834  0.4461 -0.4341
  663MOL0     O91387  12.110  11.992   0.512  0.0440 -1.0517  0.2302
  663MOL0     C91388  12.130  12.035   0.645 -0.2626  0.6899  0.3220
  663MOL0     C91389  12.062  12.146   0.704 -0.5033 -0.2719  1.2364
  663MOL0     C91390  12.091  12.197   0.832 -0.2046  0.1322  0.2439
  663MOL0     C91391  12.189  12.135   0.908  0.1539  0.0323 -0.5578
  663MOL0     O91392  12.224  12.157   1.034  0.3381 -0.7526 -0.4275
  663MOL0     C91393  12.108  12.170   1.126  0.6015  0.0642  0.2633
  663MOL0     C91394  12.049  12.037   1.162  0.7665 -0.4842 -0.0778
  663MOL0     C91395  11.959  12.043   1.290  0.2655 -0.7877  0.0545
  663MOL0     C91396  11.850  11.929   1.291 -0.5762  0.7515  0.0021
  663MOL0     C91397  11.750  11.948   1.404 -0.5205 -0.8718  0.4525
  663MOL0     C91398  11.639  11.847   1.415 -0.5566 -0.8471  0.0193
  663MOL0     C91399  11.530  11.911   1.504 -0.2909 -0.3147  0.5171
  663MOL0     C91400  11.421  11.815   1.551 -0.0580  0.4465  0.2987
  663MOL0    Cl91401  11.453  11.752   1.715 -0.2279 -0.4293  0.0277
  663MOL0     C91402  12.268  12.034   0.849  0.0537 -0.2394  0.0759
  663MOL0     C91403  12.239  11.982   0.722 -0.1621 -0.5084  0.1567
  663MOL0     O91404  11.884  11.996   0.533 -0.4316 -0.0993 -0.2607
  663MOL0     C91405  12.021  11.762   0.349 -0.1642  0.2831 -0.1286
  663MOL0     C91406  11.993  11.658   0.258  0.6468 -0.3469 -0.7049
  663MOL0     N91407  11.260  11.259   0.008 -0.6027 -0.0562 -0.8242
  663MOL0     N91408  11.135  11.239   0.018  0.4720 -0.3765  0.0275
  663MOL0     C91409   9.951  11.244   0.007 -0.7107 -1.1144 -0.2797
  663MOL0     C91410   9.815  11.265  -0.001  0.8371 -0.3902  0.7932
  663MOL0     C91411   9.359  11.147  -0.008  0.0078  0.8921 -0.2241
  663MOL0     C91412   9.346  11.245  -0.104 -0.7828 -0.8657 -0.3523
  663MOL0     C91413   9.228  11.279  -0.152 -0.1859  0.0581 -0.1890
  663MOL0     C91414   9.110  11.227  -0.105  0.1962 -0.2925 -0.3728
  663MOL0     O91415   8.983  11.267  -0.166  0.3914  0.5692 -0.3042
  663MOL0     C91416   8.959  11.202  -0.302 -0.0050  0.1783  0.3772
  663MOL0     C91417   8.858  11.292  -0.359  0.6570 -0.3357  0.6963
  663MOL0     C91418   8.928  11.419  -0.419 -0.0561  0.5845 -1.0981
  663MOL0     C91419   8.831  11.490  -0.521  0.1386 -0.3088  0.0563
  663MOL0     C91420   8.701  11.540  -0.466 -0.5745  0.0586 -0.0610
  663MOL0     C91421   8.594  11.591  -0.428  0.2117  1.0368  0.1170
  663MOL0     C91422   9.116  11.117  -0.021 -0.0982  0.2286 -0.0327
  663MOL0     C91423   9.242  11.077   0.033  0.9076  1.0463  0.4282
  663MOL0     C91424   9.239  10.960   0.130  0.0741 -0.0337  0.0775
  663MOL0     H91425   9.701  10.951   0.051 -1.8855  2.2514 -0.5939
  663MOL0     H91426   9.937  10.910   0.055 -1.7774 -1.4348 -2.5965
  663MOL0     H91427  10.241  10.941   0.079  1.1779 -0.0346  0.4919
  663MOL0     H91428  10.117  10.987   0.201 -1.0086 -1.7700 -2.2859
  663MOL0     H91429  10.240  11.208   0.233  0.2165 -0.2315  0.5179
  663MOL0     H91430  10.309  11.070   0.309  0.3646  0.1330  0.9770
  663MOL0     H91431  10.431  11.130   0.038  1.5098  1.4462  0.3283
  663MOL0     H91432  10.446  11.258   0.160  1.4613 -0.1239 -0.4669
  663MOL0     H91433  10.529  11.092   0.319  1.1936 -3.1857 -0.0595
  663MOL0     H91434  10.519  10.969   0.202  0.3584 -0.1793  0.1842
  663MOL0     H91435  10.687  11.224   0.144 -3.0276  1.1126  2.5633
  663MOL0     H91436  10.692  11.066   0.060 -2.7060  0.0254  0.0556
  663MOL0     H91437  10.767  11.127   0.349 -1.5751  1.4225 -0.6948
  663MOL0     H91438  10.776  10.959   0.289  1.8555 -0.2658  1.5420
  663MOL0     H91439  10.940  11.033   0.121 -0.3178 -4.8683  2.0709
  663MOL0     H91440  11.007  11.049   0.290  1.5236  2.4558 -0.7695
  663MOL0     H91441  10.895  11.276   0.126 -1.4434 -2.0955  0.3416
  663MOL0     H91442  10.942  11.293   0.291  0.2812  2.9687 -2.2883
  663MOL0     H91443  11.218  11.271   0.339  0.7847  2.1066  0.2132
  663MOL0     H91444  11.523  11.214   0.119  1.1792  0.2653  0.2872
  663MOL0     H91445  11.479  11.287   0.269 -1.0654  3.1099  0.0585
  663MOL0     H91446  11.492  11.439   0.017  2.4452 -4.8376 -1.2343
  663MOL0     H91447  11.450  11.511   0.173 -1.9849 -2.7618  0.3535
  663MOL0     H91448  11.667  11.503   0.257 -0.0600 -0.4824  0.5204
  663MOL0     H91449  11.713  11.371   0.146  3.7484  1.9362 -3.5770
  663MOL0     H91450  11.695  11.501  -0.043 -1.3995 -0.8391  0.6751
  663MOL0     H91451  11.644  11.640   0.055  0.2456  0.1326 -1.5348
  663MOL0     H91452  11.771  11.833   0.071 -1.1058  0.4164  0.4211
  663MOL0     H91453  11.839  12.129   0.295 -1.6288  1.4802  0.1257
  663MOL0     H91454  11.691  12.028   0.324 -0.3659  0.9789  0.9702
  663MOL0     H91455  11.745  12.076   0.157  0.9683 -0.4814  0.3339
  663MOL0     H91456  11.982  12.201   0.656  2.1165  3.8266  0.9984
  663MOL0     H91457  12.041  12.279   0.884  0.9862  1.0063  0.0512
  663MOL0     H91458  12.132  12.225   1.217  1.6786 -0.2647  0.1900
  663MOL0     H91459  12.028  12.222   1.072 -1.4320 -1.6713  1.4407
  663MOL0     H91460  11.997  11.992   1.076 -3.2474  0.8484  1.4006
  663MOL0     H91461  12.136  11.973   1.179 -0.1124 -2.4591 -2.4282
  663MOL0     H91462  11.906  12.138   1.291  2.3858  0.5097 -1.2723
  663MOL0     H91463  12.028  12.041   1.375  1.5367  2.1326 -0.7890
  663MOL0     H91464  11.897  11.831   1.309  0.9145  1.2369 -1.0359
  663MOL0     H91465  11.788  11.925   1.201  0.0483 -3.7994 -0.4913
  663MOL0     H91466  11.815  11.947   1.492  0.8068  0.6171 -0.4608
  663MOL0     H91467  11.711  12.050   1.395  0.4601 -0.3821  1.5472
  663MOL0     H91468  11.666  11.745   1.444  0.5888 -0.5273  0.1494
  663MOL0     H91469  11.599  11.851   1.313 -0.7862  1.1186  0.1518
  663MOL0     H91470  11.485  11.992   1.446 -0.6065 -0.6450  0.2993
  663MOL0     H91471  11.581  11.952   1.592 -0.6101  2.0234 -0.3024
  663MOL0     H91472  11.399  11.733   1.482  0.0217  1.0756 -0.4935
  663MOL0     H91473  11.328  11.873   1.549 -0.5495 -0.3213 -1.0328
  663MOL0     H91474  12.345  11.983   0.905  1.0555  2.5521  1.4563
  663MOL0     H91475  12.296  11.903   0.676 -1.0199  0.2352 -2.3405
  663MOL0     H91476  12.096  11.738   0.424 -1.0063 -0.6935  0.4348
  663MOL0     H91477  12.032  11.560   0.281 -0.9169 -0.4288  1.9782
  663MOL0     H91478  10.020  11.327  -0.001  0.4808 -1.2639  4.9183
  663MOL0     H91479   9.784  11.368  -0.016  0.6279 -0.5938 -0.2486
  663MOL0     H91480   9.432  11.293  -0.151  0.2996 -2.6259 -0.2493
  663MOL0     H91481   9.219  11.365  -0.218  0.3919 -1.5648 -2.5032
  663MOL0     H91482   9.048  11.206  -0.366 -0.4229  2.6008 -0.1522
  663MOL0     H91483   8.927  11.099  -0.288 -1.1254  0.3776 -0.5643
  663MOL0     H91484   8.794  11.322  -0.275 -0.9531 -1.8530  0.0752
  663MOL0     H91485   8.805  11.251  -0.445  0.8082  1.9039 -0.5401
  663MOL0     H91486   8.934  11.490  -0.336 -4.3804  0.8423 -0.7704
  663MOL0     H91487   9.025  11.389  -0.461  0.0643 -1.0433  0.2584
  663MOL0     H91488   8.814  11.410  -0.594  0.1702 -1.1644  0.9621
  663MOL0     H91489   8.881  11.574  -0.570 -0.4328  0.0801  0.1311
  663MOL0     H91490   8.495  11.625  -0.405  0.1002  0.8502 -0.0735
  663MOL0     H91491   9.028  11.066   0.018  1.7513 -2.0946  1.4247
  663MOL0     H91492   9.152  10.896   0.112 -2.7229  3.4441  0.1840
  663MOL0     H91493   9.333  10.907   0.108  1.0329  1.6785 -0.1445
  663MOL0     H91494   9.243  11.001   0.231  1.7067 -1.4024  0.6109
  664MOL0     O91495   1.066   5.491   8.907 -0.5664 -0.4083 -0.0365
  664MOL0     C91496   0.991   5.530   8.990  0.7823 -0.2666 -0.4299
  664MOL0     O91497   0.997   5.645   9.062  0.0431 -0.3817 -0.2342
  664MOL0     C91498   1.107   5.734   9.066  0.2312 -0.3887 -0.6206
  664MOL0     C91499   1.210   5.740   8.973  0.0331  0.2685  0.1787
  664MOL0     C91500   1.303   5.852   8.976  0.1972  0.0578 -0.4379
  664MOL0     C91501   1.304   5.951   9.073  0.1369  0.6194  0.0404
  664MOL0     O91502   1.393   6.045   9.079 -0.1202 -1.1460  0.3526
  664MOL0     C91503   1.392   6.154   9.178 -0.1269  0.9218  0.0453
  664MOL0     C91504   1.515   6.238   9.133  0.5910  0.8036  0.4065
  664MOL0     C91505   1.648   6.170   9.133 -0.3791  0.2928  0.2043
  664MOL0     C91506   1.693   6.130   8.986  0.5137  0.3132  0.4225
  664MOL0     C91507   1.836   6.075   8.979 -0.6291  0.0866  0.1754
  664MOL0     C91508   1.900   6.099   8.836  0.2383 -0.3071  0.5287
  664MOL0     C91509   2.028   6.018   8.822 -0.6045 -0.0324  0.2489
  664MOL0     C91510   2.143   6.096   8.889 -0.2237 -0.4757  0.2476
  664MOL0     N91511   2.278   6.049   8.850  0.5636  0.5680  0.3266
  664MOL0     C91512   2.356   6.095   8.741 -0.7004 -0.1067  0.6470
  664MOL0     C91513   2.468   6.031   8.745  0.5258  0.2201 -0.6307
  664MOL0     C91514   2.582   6.046   8.652  0.2760 -0.0934  0.5729
  664MOL0     C91515   2.647   5.913   8.598  0.5537 -0.7602 -0.0973
  664MOL0     C91516   2.790   5.929   8.570  0.6781  0.1520 -0.4501
  664MOL0     C91517   2.867   5.795   8.541  0.0457 -0.7407 -0.4787
  664MOL0     O91518   2.900   5.724   8.662 -0.4693  0.6286  0.2788
  664MOL0     C91519   3.025   5.671   8.702 -0.0353 -0.2965 -0.9500
  664MOL0     C91520   3.139   5.650   8.622 -0.1242  1.0603  1.7671
  664MOL0     C91521   3.263   5.599   8.664  0.9416  0.8741 -0.1761
  664MOL0     C91522   3.365   5.571   8.559  0.1294 -0.2719  1.0194
  664MOL0     C91523   3.265   5.550   8.803 -0.0809  0.2853  0.6231
  664MOL0     C91524   3.387   5.486   8.872 -0.5058 -0.4843 -0.1736
  664MOL0     O91525   3.362   5.422   8.991  0.2061 -0.1119 -0.2043
  664MOL0     C91526   3.463   5.353   9.054 -0.9426  0.2588 -0.2478
  664MOL0     C91527   3.473   5.366   9.193 -0.7923 -0.0701 -0.0463
  664MOL0     C91528   3.579   5.300   9.270  0.6590 -0.0885  0.1491
  664MOL0     C91529   3.670   5.220   9.204 -0.3423  0.4701  0.4688
  664MOL0     O91530   3.761   5.148   9.279  0.4178  0.5622  0.2826
  664MOL0     C91531   3.897   5.162   9.238 -0.4925  0.2567  1.2278
  664MOL0     C91532   3.975   5.049   9.313 -0.0532  0.6324  0.1500
  664MOL0     C91533   4.119   5.034   9.283  0.4486  0.1444  0.3011
  664MOL0     C91534   4.165   4.926   9.375  0.3623 -0.5000 -0.4210
  664MOL0     C91535   4.309   4.892   9.350  0.3553 -0.5406 -0.5883
  664MOL0     C91536   4.375   4.824   9.477 -0.3222  0.0886 -0.7658
  664MOL0     C91537   4.315   4.695   9.520  0.5664 -0.5933  0.2409
  664MOL0     C91538   4.357   4.566   9.436 -0.6203 -0.0999 -0.2913
  664MOL0    Cl91539   4.250   4.427   9.480  0.3063  0.1407  0.0040
  664MOL0     C91540   3.655   5.208   9.066 -0.3227  0.3235  0.4026
  664MOL0     C91541   3.557   5.277   8.987 -0.4292  0.8053 -0.7739
  664MOL0     O91542   3.503   5.524   8.833  0.9168  0.2980  0.2331
  664MOL0     C91543   3.145   5.550   8.873 -0.0052 -0.7035 -0.0970
  664MOL0     C91544   3.033   5.615   8.826 -0.7579 -0.3406 -0.0485
  664MOL0     N91545   2.464   5.947   8.857  1.1287 -0.1193  0.3736
  664MOL0     N91546   2.351   5.960   8.917  0.9366 -0.6859  0.2957
  664MOL0     C91547   1.206   5.943   9.170  0.7361 -0.3873  0.2569
  664MOL0     C91548   1.107   5.832   9.165 -0.3518 -1.0116  0.7241
  664MOL0     C91549   0.863   5.451   9.016 -0.4821 -0.5106 -0.6825
  664MOL0     C91550   0.852   5.321   8.970 -0.4690  0.7154  1.2429
  664MOL0     C91551   0.744   5.235   8.983  1.0148 -0.5731 -0.8253
  664MOL0     C91552   0.631   5.284   9.048 -0.0526 -0.4467  0.7820
  664MOL0     O91553   0.512   5.224   9.082  0.1567 -0.6285 -0.2289
  664MOL0     C91554   0.495   5.081   9.060 -0.1227 -0.2124  0.2452
  664MOL0     C91555   0.572   4.985   9.160  0.3342 -0.5656  0.8729
  664MOL0     C91556   0.540   5.027   9.308 -0.2947 -0.3621  0.1054
  664MOL0     C91557   0.545   4.909   9.400  0.1616 -0.0398 -0.7735
  664MOL0     C91558   0.418   4.838   9.389 -0.2310  0.1828  0.2416
  664MOL0     C91559   0.313   4.775   9.361 -0.2346  0.6006 -0.9895
  664MOL0     C91560   0.634   5.422   9.088 -0.6809  0.1552 -0.7862
  664MOL0     C91561   0.749   5.503   9.083  0.9132  0.1724 -0.3617
  664MOL0     C91562   0.736   5.633   9.153  0.4791 -0.3799  0.7615
  664MOL0     H91563   1.213   5.680   8.883  0.1497 -1.1548  1.1155
  664MOL0     H91564   1.385   5.852   8.905  0.3724  1.7420 -0.2704
  664MOL0     H91565   1.410   6.122   9.282  0.1394  1.8517  0.2953
  664MOL0     H91566   1.300   6.211   9.189  0.8502  2.0894  3.5139
  664MOL0     H91567   1.489   6.275   9.033  1.0140 -2.1881 -0.9057
  664MOL0     H91568   1.515   6.320   9.205 -0.5314 -0.4851  1.9314
  664MOL0     H91569   1.719   6.235   9.186 -0.4666 -0.7225  1.6214
  664MOL0     H91570   1.643   6.078   9.191 -1.9319 -0.7650 -1.4957
  664MOL0     H91571   1.626   6.055   8.943  0.8293 -0.1817  0.7864
  664MOL0     H91572   1.683   6.223   8.929 -3.0067 -0.1963 -0.0139
  664MOL0     H91573   1.827   5.967   8.989  0.7161 -0.2354 -1.6147
  664MOL0     H91574   1.898   6.120   9.057  0.6017  2.3140 -1.9268
  664MOL0     H91575   1.837   6.064   8.753  0.1508  2.6811 -0.8079
  664MOL0     H91576   1.911   6.206   8.815 -5.4430  0.3264 -0.6837
  664MOL0     H91577   2.056   6.006   8.717 -1.5545 -2.4125  0.2234
  664MOL0     H91578   2.024   5.914   8.853  1.3265 -0.7288 -1.6223
  664MOL0     H91579   2.143   6.201   8.858  3.4916 -0.2932  0.4045
  664MOL0     H91580   2.127   6.088   8.997  0.5514 -0.8705  0.3424
  664MOL0     H91581   2.322   6.165   8.665 -2.8883  0.6933  2.2643
  664MOL0     H91582   2.659   6.106   8.700  2.4029 -2.2180  0.0134
  664MOL0     H91583   2.541   6.094   8.562  1.4379 -0.0702  0.0431
  664MOL0     H91584   2.634   5.836   8.675  2.7029 -1.3166 -0.2342
  664MOL0     H91585   2.597   5.870   8.511 -1.2637  1.5565 -0.3029
  664MOL0     H91586   2.796   5.992   8.481 -1.4107  0.3721 -0.4840
  664MOL0     H91587   2.841   5.967   8.659  2.5874 -1.8043 -0.6279
  664MOL0     H91588   2.806   5.734   8.474 -0.0956 -1.2963  0.1390
  664MOL0     H91589   2.955   5.837   8.491  1.1200  1.0304  2.5665
  664MOL0     H91590   3.119   5.674   8.518 -0.3475  0.6247  1.7074
  664MOL0     H91591   3.439   5.650   8.571 -2.1866  1.7282  3.1852
  664MOL0     H91592   3.321   5.575   8.459  1.8075  2.4831  0.2707
  664MOL0     H91593   3.408   5.471   8.573  2.8008  0.0491 -3.0263
  664MOL0     H91594   3.404   5.425   9.252 -2.2164  1.3814 -2.9755
  664MOL0     H91595   3.582   5.319   9.376 -2.6171  4.2222 -0.2705
  664MOL0     H91596   3.903   5.137   9.132 -2.0270 -2.3072  1.6533
  664MOL0     H91597   3.944   5.258   9.261  0.5880  0.7778 -2.5333
  664MOL0     H91598   3.963   5.070   9.420 -3.8422 -1.5808  0.3427
  664MOL0     H91599   3.922   4.953   9.313 -1.4191  1.2937  2.4410
  664MOL0     H91600   4.169   5.131   9.289 -0.5625  0.6161  1.4721
  664MOL0     H91601   4.144   4.999   9.182 -0.1154 -0.6881  0.4444
  664MOL0     H91602   4.101   4.838   9.360 -0.4480  0.3354 -2.1562
  664MOL0     H91603   4.156   4.965   9.477 -1.9291  5.0482 -2.3529
  664MOL0     H91604   4.303   4.818   9.269 -0.0073 -0.1098 -0.9587
  664MOL0     H91605   4.362   4.978   9.308 -2.1828  1.0544 -0.7193
  664MOL0     H91606   4.374   4.890   9.564 -2.8682 -2.3223  1.2388
  664MOL0     H91607   4.484   4.816   9.464 -0.1664  0.3227  0.2960
  664MOL0     H91608   4.206   4.704   9.520  0.4040 -0.2449 -4.1914
  664MOL0     H91609   4.346   4.672   9.622 -0.5649 -4.8054 -0.1667
  664MOL0     H91610   4.457   4.527   9.456  0.1341 -0.2937 -3.9369
  664MOL0     H91611   4.350   4.583   9.329 -0.0244 -1.6736 -0.5990
  664MOL0     H91612   3.729   5.148   9.013 -0.7684  0.9527 -0.9484
  664MOL0     H91613   3.554   5.271   8.879 -0.9801  0.7182 -0.7565
  664MOL0     H91614   3.135   5.507   8.972  0.1570 -0.5710 -0.0230
  664MOL0     H91615   2.942   5.626   8.884 -0.5204 -2.5059  0.8169
  664MOL0     H91616   1.184   6.012   9.251 -0.5596 -1.1877  0.6343
  664MOL0     H91617   1.028   5.840   9.238 -1.4415 -0.0319 -0.5082
  664MOL0     H91618   0.933   5.272   8.918 -0.9774  1.2569 -0.0954
  664MOL0     H91619   0.749   5.131   8.951  1.7413 -0.7524 -0.1813
  664MOL0     H91620   0.389   5.055   9.063 -0.1123 -0.2672  0.1204
  664MOL0     H91621   0.538   5.056   8.963  0.2415  0.4564  0.2246
  664MOL0     H91622   0.681   4.985   9.145  0.2584  2.9704 -0.8155
  664MOL0     H91623   0.539   4.883   9.136  0.6298  0.1245 -3.2354
  664MOL0     H91624   0.616   5.101   9.336 -0.2765 -1.1585  2.3626
  664MOL0     H91625   0.441   5.072   9.308  0.9543  2.6120  0.2685
  664MOL0     H91626   0.570   4.937   9.503 -0.1821 -0.6544 -0.5180
  664MOL0     H91627   0.621   4.846   9.352  0.9322  0.9242 -0.8603
  664MOL0     H91628   0.216   4.729   9.356 -1.4893  2.6204  1.7248
  664MOL0     H91629   0.540   5.460   9.128 -0.6734 -0.2333 -0.3901
  664MOL0     H91630   0.648   5.638   9.218 -0.4997 -3.3255 -0.1731
  664MOL0     H91631   0.818   5.648   9.224  1.1981  0.3529 -0.2006
  664MOL0     H91632   0.734   5.718   9.084 -1.4030 -0.2385  0.9292
  665MOL0     O91633   8.378  10.115   4.551 -0.9004  0.3220  0.5711
  665MOL0     C91634   8.398  10.213   4.473  0.2232  0.3774  0.0265
  665MOL0     O91635   8.504  10.302   4.474  0.3540 -0.0972 -0.1526
  665MOL0     C91636   8.596  10.282   4.580  1.7138 -0.3254 -0.1225
  665MOL0     C91637   8.726  10.243   4.546 -0.0055 -1.5996 -0.1314
  665MOL0     C91638   8.831  10.230   4.643  0.5419  0.3632  0.0113
  665MOL0     C91639   8.795  10.242   4.781 -0.4563  0.7399 -0.2813
  665MOL0     O91640   8.903  10.234   4.876 -0.7776 -0.1635  0.3612
  665MOL0     C91641   8.871  10.256   5.011  0.6499 -0.4375 -0.0334
  665MOL0     C91642   8.973  10.211   5.108  0.2503 -0.6573  0.3616
  665MOL0     C91643   9.116  10.260   5.083  0.6357 -0.2906 -0.7377
  665MOL0     C91644   9.224  10.198   5.176 -0.4423  0.1563  0.3904
  665MOL0     C91645   9.365  10.263   5.147 -1.0706 -1.0212 -0.1470
  665MOL0     C91646   9.466  10.238   5.265 -0.2117 -0.5797  0.4497
  665MOL0     C91647   9.497  10.091   5.266 -1.1933  0.5328  0.1659
  665MOL0     C91648   9.614  10.052   5.353 -0.9259 -0.2750 -1.0861
  665MOL0     N91649   9.738  10.131   5.346  0.3033 -0.2133  0.2473
  665MOL0     C91650   9.759  10.250   5.414 -0.1200 -0.6932  0.3572
  665MOL0     C91651   9.884  10.270   5.371  0.1077  0.2004 -0.2559
  665MOL0     C91652   9.963  10.393   5.406  0.6564 -0.1581  0.1644
  665MOL0     C91653  10.070  10.356   5.516 -0.5741 -0.0608 -0.9406
  665MOL0     C91654  10.164  10.470   5.548 -0.5456 -0.5303  0.2747
  665MOL0     C91655  10.251  10.445   5.668  0.3471 -0.3850  0.0296
  665MOL0     O91656  10.302  10.572   5.704 -0.5390  0.7697  0.4430
  665MOL0     C91657  10.393  10.574   5.811  1.1051 -0.5898 -0.3129
  665MOL0     C91658  10.475  10.686   5.818  0.1650  0.2508  0.5279
  665MOL0     C91659  10.576  10.688   5.916 -0.7752  0.0784 -0.3426
  665MOL0     C91660  10.657  10.811   5.920  0.3623 -0.0995  0.4658
  665MOL0     C91661  10.592  10.583   6.005  0.1636 -0.3238 -0.0470
  665MOL0     C91662  10.679  10.579   6.131  0.3441 -0.0480  0.1412
  665MOL0     O91663  10.685  10.461   6.204  0.3775  0.5887 -0.0209
  665MOL0     C91664  10.800  10.418   6.271  1.5132 -0.1938  0.0408
  665MOL0     C91665  10.791  10.309   6.356 -0.1444 -0.5260 -0.2642
  665MOL0     C91666  10.907  10.246   6.405  0.3068 -0.5805 -0.5341
  665MOL0     C91667  11.036  10.299   6.376  0.3240 -0.4171  0.2318
  665MOL0     O91668  11.138  10.235   6.435  0.1726  0.2497 -0.3040
  665MOL0     C91669  11.261  10.303   6.473 -0.2561 -0.6222  0.1776
  665MOL0     C91670  11.344  10.228   6.582 -0.5940 -0.2361 -0.2746
  665MOL0     C91671  11.465  10.164   6.521 -0.4099 -0.3775  0.3481
  665MOL0     C91672  11.511  10.046   6.602 -0.2575 -0.1769 -0.0646
  665MOL0     C91673  11.653   9.997   6.569 -0.0209 -0.0997 -0.1768
  665MOL0     C91674  11.761  10.102   6.588 -0.7398  0.1327 -0.4972
  665MOL0     C91675  11.893  10.031   6.602 -0.1346 -0.0592 -1.0850
  665MOL0     C91676  11.951   9.980   6.475 -0.8640 -0.0074 -0.5208
  665MOL0    Cl91677  12.093   9.885   6.525 -0.3021 -0.3839 -0.1286
  665MOL0     C91678  11.048  10.413   6.300 -0.4797 -0.2882  0.1238
  665MOL0     C91679  10.931  10.462   6.237 -0.5190 -0.0240  0.4238
  665MOL0     O91680  10.729  10.686   6.171 -0.0610  0.7845  0.4643
  665MOL0     C91681  10.514  10.470   5.988 -0.7534 -0.0562 -0.0662
  665MOL0     C91682  10.428  10.462   5.885  0.6295 -0.1054 -0.1012
  665MOL0     N91683   9.939  10.167   5.301 -0.4388 -0.2856 -0.1130
  665MOL0     N91684   9.854  10.081   5.291  0.5320  0.3944  0.5824
  665MOL0     C91685   8.666  10.287   4.810 -0.7005  0.0575 -0.2357
  665MOL0     C91686   8.563  10.317   4.712 -0.7403  0.5388 -0.5589
  665MOL0     C91687   8.297  10.244   4.377  0.4308 -0.2639 -0.6804
  665MOL0     C91688   8.344  10.275   4.248  0.1231  0.5160 -0.2976
  665MOL0     C91689   8.264  10.326   4.146  0.1038  0.1474 -0.3334
  665MOL0     C91690   8.129  10.335   4.173  0.4300  0.1512 -0.5270
  665MOL0     O91691   8.042  10.403   4.090  0.2225 -0.0685  0.2181
  665MOL0     C91692   8.088  10.465   3.966 -0.3059  0.0838  0.4685
  665MOL0     C91693   7.990  10.569   3.893  0.4543  0.2737 -0.0954
  665MOL0     C91694   7.858  10.519   3.825 -0.0187  0.1982 -0.0185
  665MOL0     C91695   7.772  10.630   3.767  0.1743  0.1073 -0.6420
  665MOL0     C91696   7.672  10.564   3.678 -0.6295 -0.9802  0.1517
  665MOL0     C91697   7.601  10.503   3.601 -0.2353 -0.5712  0.3285
  665MOL0     C91698   8.079  10.291   4.293  0.0978  0.0639  0.3418
  665MOL0     C91699   8.159  10.243   4.399  0.3541 -0.0703 -0.1907
  665MOL0     C91700   8.087  10.218   4.529  0.3768  0.9206  0.0032
  665MOL0     H91701   8.760  10.241   4.443 -0.2191 -0.4107 -0.2430
  665MOL0     H91702   8.933  10.212   4.612  0.8386 -1.1695  1.6632
  665MOL0     H91703   8.778  10.206   5.041 -0.6524  0.3491 -2.4361
  665MOL0     H91704   8.849  10.362   5.026 -1.1083 -0.4722 -1.9007
  665MOL0     H91705   8.950  10.252   5.207  1.4484 -2.3973  1.4146
  665MOL0     H91706   8.980  10.102   5.112 -1.5636 -0.8572 -0.7708
  665MOL0     H91707   9.149  10.244   4.980 -0.3873 -1.2757 -0.9299
  665MOL0     H91708   9.108  10.367   5.106  0.3011 -0.6725  1.0880
  665MOL0     H91709   9.195  10.211   5.281  0.1671 -0.3730  0.6268
  665MOL0     H91710   9.238  10.094   5.144 -1.1200  0.0507  0.4165
  665MOL0     H91711   9.356  10.371   5.128 -3.3183 -0.7385  1.9338
  665MOL0     H91712   9.406  10.229   5.052  1.7307  1.0110  0.2128
  665MOL0     H91713   9.560  10.292   5.251 -0.7683  0.5389  0.9655
  665MOL0     H91714   9.434  10.269   5.364  0.0546  2.1800 -0.2481
  665MOL0     H91715   9.507  10.063   5.161 -0.0167  0.5335  0.2634
  665MOL0     H91716   9.410  10.033   5.298 -0.7254 -0.4213 -0.2648
  665MOL0     H91717   9.581  10.072   5.456 -0.2067  1.2712 -1.1257
  665MOL0     H91718   9.624   9.944   5.341 -0.9841 -0.8246  2.4972
  665MOL0     H91719   9.703  10.316   5.479  0.1325 -0.6134  0.4959
  665MOL0     H91720   9.897  10.471   5.443  3.3819  2.5105 -0.1881
  665MOL0     H91721  10.002  10.433   5.311 -1.4564  4.1257  0.8549
  665MOL0     H91722  10.013  10.316   5.600 -1.5722 -1.3426 -2.1800
  665MOL0     H91723  10.130  10.274   5.474 -0.9195 -1.3799  1.0110
  665MOL0     H91724  10.225  10.496   5.461 -2.6184 -0.9027 -1.3813
  665MOL0     H91725  10.096  10.554   5.566  2.2739  2.9639 -3.4740
  665MOL0     H91726  10.192  10.398   5.747  1.0968 -0.3230  0.6299
  665MOL0     H91727  10.333  10.385   5.628  0.9624  1.3909 -1.5649
  665MOL0     H91728  10.460  10.766   5.747  2.3085  0.8264  0.6375
  665MOL0     H91729  10.654  10.861   5.823 -1.6905 -0.6782  0.1884
  665MOL0     H91730  10.763  10.793   5.937  0.7968 -0.7309 -2.4304
  665MOL0     H91731  10.617  10.888   5.987  0.2899 -1.4076  1.9957
  665MOL0     H91732  10.692  10.274   6.382  0.7099 -2.8919  0.0655
  665MOL0     H91733  10.891  10.163   6.473 -2.9727 -0.2632 -0.7194
  665MOL0     H91734  11.323  10.321   6.385 -1.1124 -1.6324 -0.6666
  665MOL0     H91735  11.226  10.395   6.519 -4.0780 -0.5804 -2.3664
  665MOL0     H91736  11.371  10.299   6.661 -2.1762 -0.3378  0.3907
  665MOL0     H91737  11.282  10.150   6.628 -0.7284 -1.1386 -1.8871
  665MOL0     H91738  11.544  10.239   6.529 -0.2922 -0.6690  3.1127
  665MOL0     H91739  11.444  10.135   6.418 -2.6332  0.0764  0.6337
  665MOL0     H91740  11.440   9.965   6.580 -2.2212  1.4299  0.0675
  665MOL0     H91741  11.508  10.064   6.710  2.5499  0.8718 -0.0923
  665MOL0     H91742  11.682   9.908   6.626  1.9124 -1.0127 -2.3989
  665MOL0     H91743  11.657   9.961   6.466 -0.8806 -0.1682 -0.1895
  665MOL0     H91744  11.750  10.149   6.686 -0.9844 -0.5161 -0.2100
  665MOL0     H91745  11.763  10.179   6.510 -0.7497  0.1863 -0.4442
  665MOL0     H91746  11.904   9.948   6.672  0.5213 -0.7963 -2.0209
  665MOL0     H91747  11.967  10.104   6.634 -1.2447  1.7246 -2.3849
  665MOL0     H91748  11.985  10.059   6.407  0.1595  0.4652  0.5179
  665MOL0     H91749  11.889   9.902   6.430 -1.5087 -0.7882  1.6106
  665MOL0     H91750  11.144  10.458   6.275 -0.5859  0.5968  1.2398
  665MOL0     H91751  10.935  10.541   6.163 -1.1614 -1.3097 -1.0316
  665MOL0     H91752  10.514  10.388   6.059 -0.5462 -2.8539 -3.0506
  665MOL0     H91753  10.364  10.375   5.871  0.6369 -0.1604  0.2013
  665MOL0     H91754   8.633  10.307   4.912 -1.9186  1.1562 -0.8201
  665MOL0     H91755   8.466  10.359   4.737 -4.0545 -5.5338 -1.2342
  665MOL0     H91756   8.448  10.266   4.218  0.5007  2.2514  0.3174
  665MOL0     H91757   8.303  10.367   4.054 -4.1941  1.1686 -1.8969
  665MOL0     H91758   8.176  10.528   3.984 -0.4375  0.3131  0.3151
  665MOL0     H91759   8.114  10.390   3.891  1.0346  0.2007  0.7877
  665MOL0     H91760   8.043  10.628   3.817 -3.5191  2.3880 -1.5112
  665MOL0     H91761   7.953  10.642   3.966 -1.4480 -2.1054  1.4740
  665MOL0     H91762   7.891  10.456   3.742  0.0794  1.5936 -1.0801
  665MOL0     H91763   7.800  10.456   3.892  0.4249 -1.9098 -1.5269
  665MOL0     H91764   7.831  10.697   3.703  0.1778  2.9571  2.0835
  665MOL0     H91765   7.717  10.696   3.836  1.0139  1.5066 -1.2660
  665MOL0     H91766   7.530  10.448   3.543 -1.0278 -1.9672  2.4951
  665MOL0     H91767   7.972  10.280   4.306  0.3245 -3.8848 -0.0762
  665MOL0     H91768   8.068  10.110   4.537 -5.1110  0.9712 -4.8984
  665MOL0     H91769   8.148  10.256   4.611  0.7099 -1.0114  0.6931
  665MOL0     H91770   7.987  10.260   4.543 -0.2900  1.0422 -3.8173
  666MOL0     O91771   6.289   8.541   9.599  0.4951 -0.6956 -0.2229
  666MOL0     C91772   6.193   8.487   9.539 -0.5889 -0.1578 -0.2171
  666MOL0     O91773   6.205   8.359   9.491  0.0320  0.0293 -0.3447
  666MOL0     C91774   6.323   8.295   9.464 -0.9328 -1.2042  0.3357
  666MOL0     C91775   6.315   8.154   9.471 -0.3569 -0.7737  0.1331
  666MOL0     C91776   6.433   8.079   9.432  0.1369 -0.1289  0.0382
  666MOL0     C91777   6.544   8.139   9.374 -0.4529  0.0876  0.4652
  666MOL0     O91778   6.639   8.051   9.324  0.2501 -0.4790  0.8374
  666MOL0     C91779   6.744   8.103   9.247 -0.0029 -1.2001  0.5028
  666MOL0     C91780   6.852   8.001   9.241 -0.7269  0.1677 -0.1492
  666MOL0     C91781   6.986   8.070   9.204 -0.0694  0.0692  0.3661
  666MOL0     C91782   7.041   8.047   9.063  0.4408 -0.4662  0.9602
  666MOL0     C91783   7.178   8.109   9.034  0.2574  0.3951  0.2610
  666MOL0     C91784   7.285   8.001   9.060  0.7894 -0.0793  0.0713
  666MOL0     C91785   7.424   8.051   9.003  0.4765  0.2926  0.2604
  666MOL0     C91786   7.492   8.141   9.113 -0.0730 -0.1407 -0.4570
  666MOL0     N91787   7.608   8.198   9.056 -0.3341  0.6650  0.0917
  666MOL0     C91788   7.629   8.321   8.994  0.2922  0.6651  0.4739
  666MOL0     C91789   7.760   8.311   8.955  0.2691  0.3612  0.3561
  666MOL0     C91790   7.840   8.411   8.872 -0.3995 -0.3778 -0.3367
  666MOL0     C91791   7.980   8.434   8.929  0.3374  0.8759  0.2510
  666MOL0     C91792   8.045   8.557   8.868  0.1633  0.3908 -0.2446
  666MOL0     C91793   8.180   8.611   8.920 -0.2965  0.7513  0.0487
  666MOL0     O91794   8.278   8.509   8.936 -1.0270  0.4697  0.2652
  666MOL0     C91795   8.409   8.538   8.947  0.6318  0.7067  0.3532
  666MOL0     C91796   8.484   8.440   9.008  0.4888  0.0002 -0.0186
  666MOL0     C91797   8.625   8.445   9.013 -0.2838 -0.0718  0.0391
  666MOL0     C91798   8.694   8.336   9.080 -0.2150 -0.7316  0.1268
  666MOL0     C91799   8.691   8.568   8.982  0.0781  0.6408 -0.2359
  666MOL0     C91800   8.833   8.591   8.985 -0.3700 -0.0752 -0.3120
  666MOL0     O91801   8.858   8.724   9.000 -0.0487 -0.0952  0.1650
  666MOL0     C91802   8.986   8.768   8.998  0.2428 -0.6137  0.3355
  666MOL0     C91803   9.092   8.712   9.069  0.0262  0.2765 -0.5987
  666MOL0     C91804   9.223   8.758   9.048  0.1234 -0.8442 -0.0251
  666MOL0     C91805   9.259   8.853   8.949  0.2782  0.6833 -0.2251
  666MOL0     O91806   9.377   8.903   8.917 -0.0781  1.1013  0.4665
  666MOL0     C91807   9.482   8.835   8.990 -0.3063  0.2790  0.0588
  666MOL0     C91808   9.621   8.844   8.928  0.3959 -0.7432  0.0142
  666MOL0     C91809   9.660   8.992   8.898  0.2249  0.2335 -0.2223
  666MOL0     C91810   9.800   8.996   8.836  1.3225  0.0239  0.4456
  666MOL0     C91811   9.832   9.136   8.795 -0.8401  0.9608  0.8556
  666MOL0     C91812   9.976   9.143   8.736  0.0813 -0.0435 -0.5560
  666MOL0     C91813  10.086   9.123   8.856  0.3779  0.6259 -0.0325
  666MOL0     C91814  10.184   9.234   8.883  0.4248 -0.3181 -0.4617
  666MOL0    Cl91815  10.094   9.389   8.944 -0.1278 -0.2909 -0.3189
  666MOL0     C91816   9.155   8.896   8.867 -0.1315 -0.7012 -0.3024
  666MOL0     C91817   9.014   8.864   8.896 -0.5313 -0.3043  0.3535
  666MOL0     O91818   8.917   8.501   8.978  0.4979 -0.3679  1.0528
  666MOL0     C91819   8.603   8.672   8.943 -0.3397  0.6640 -0.0820
  666MOL0     C91820   8.469   8.658   8.927  0.5571  0.1331 -0.7803
  666MOL0     N91821   7.808   8.184   8.973 -0.2374  0.5428  0.0099
  666MOL0     N91822   7.716   8.121   9.030 -0.3267 -0.3572  0.7489
  666MOL0     C91823   6.547   8.274   9.371  0.3973  0.0361 -1.5177
  666MOL0     C91824   6.442   8.352   9.416 -0.1259  0.1328 -0.7213
  666MOL0     C91825   6.077   8.574   9.494  0.3295  0.0626 -0.2080
  666MOL0     C91826   6.006   8.540   9.380  0.1826 -0.0601  0.3814
  666MOL0     C91827   5.895   8.617   9.341  0.6192 -1.1047  0.4445
  666MOL0     C91828   5.846   8.713   9.428 -0.0840 -0.2234 -0.0866
  666MOL0     O91829   5.733   8.791   9.415 -0.6322 -0.7827  0.3960
  666MOL0     C91830   5.638   8.770   9.302  0.3791 -0.8161 -0.4640
  666MOL0     C91831   5.509   8.845   9.348 -0.5314 -0.1747  0.2068
  666MOL0     C91832   5.454   8.815   9.488 -0.7404  0.3220  0.1062
  666MOL0     C91833   5.509   8.931   9.589  0.3417 -0.1326  1.1792
  666MOL0     C91834   5.457   8.932   9.716  0.3845 -0.7773 -0.6267
  666MOL0     C91835   5.391   8.933   9.818  0.3026 -0.6880 -0.7687
  666MOL0     C91836   5.915   8.751   9.545 -0.0379  0.9782  0.3618
  666MOL0     C91837   6.031   8.674   9.585  0.6447 -0.0587  0.7153
  666MOL0     C91838   6.088   8.700   9.720  0.1043 -0.2533 -0.2035
  666MOL0     H91839   6.223   8.114   9.512 -1.7384  0.7047 -1.3700
  666MOL0     H91840   6.445   7.973   9.450  0.3179 -0.1831 -0.3823
  666MOL0     H91841   6.793   8.181   9.307 -2.1039  0.5442  0.0759
  666MOL0     H91842   6.722   8.139   9.146 -0.5102 -1.7527  0.4134
  666MOL0     H91843   6.857   7.957   9.341 -1.8801  0.9936  0.2977
  666MOL0     H91844   6.828   7.919   9.173  0.4654  0.4361 -0.9196
  666MOL0     H91845   6.981   8.177   9.227 -1.2447 -0.2779  1.8734
  666MOL0     H91846   7.056   8.017   9.268 -1.5293 -0.1084  1.8928
  666MOL0     H91847   7.047   7.939   9.044 -0.5802 -0.4890  0.7340
  666MOL0     H91848   6.964   8.080   8.993  0.3019 -1.7252  0.4813
  666MOL0     H91849   7.194   8.199   9.094  0.1987  0.9130 -0.4872
  666MOL0     H91850   7.161   8.133   8.929  0.3243 -0.0189  0.1548
  666MOL0     H91851   7.291   7.967   9.164  0.6028  0.0328  0.1187
  666MOL0     H91852   7.256   7.909   9.008  0.7372 -0.6773  1.1379
  666MOL0     H91853   7.420   8.109   8.911  0.9923 -2.8109 -1.8519
  666MOL0     H91854   7.482   7.961   8.980 -0.8006 -0.6132  0.5194
  666MOL0     H91855   7.420   8.221   9.134 -1.0822 -0.4687 -2.4611
  666MOL0     H91856   7.510   8.092   9.209  0.1900 -0.1905 -0.5309
  666MOL0     H91857   7.564   8.406   8.976 -1.0037 -0.9066 -3.2197
  666MOL0     H91858   7.779   8.501   8.873  1.6156  1.1065  2.4177
  666MOL0     H91859   7.859   8.369   8.772  0.5997 -0.1911 -0.2385
  666MOL0     H91860   7.979   8.443   9.038 -1.2074 -0.6885  0.4028
  666MOL0     H91861   8.035   8.342   8.911  1.8196  1.3945  1.8779
  666MOL0     H91862   8.052   8.542   8.760  1.1368  1.7601 -0.3971
  666MOL0     H91863   7.971   8.636   8.884  1.4113  1.3545  0.9787
  666MOL0     H91864   8.210   8.695   8.858 -0.1767  0.1653 -0.7032
  666MOL0     H91865   8.170   8.649   9.022  1.1399 -0.8227  0.8174
  666MOL0     H91866   8.440   8.349   9.048  0.6363 -0.9919 -1.9906
  666MOL0     H91867   8.743   8.277   9.002  0.7921  0.5638 -0.2448
  666MOL0     H91868   8.632   8.257   9.123 -1.1202 -1.0011 -1.5552
  666MOL0     H91869   8.770   8.376   9.147 -1.3590 -0.0937  1.0883
  666MOL0     H91870   9.072   8.628   9.134  0.8201  2.2045  2.3534
  666MOL0     H91871   9.287   8.713   9.124  0.4288 -0.6277 -0.1513
  666MOL0     H91872   9.476   8.871   9.094  1.1428 -2.8192  1.3240
  666MOL0     H91873   9.462   8.730   9.008 -1.3352  0.4894  0.2004
  666MOL0     H91874   9.694   8.797   8.994 -1.2660  0.5197  3.0088
  666MOL0     H91875   9.605   8.783   8.839  0.4565 -2.7489  1.3030
  666MOL0     H91876   9.651   9.053   8.988 -0.6001  0.7765 -0.6629
  666MOL0     H91877   9.591   9.040   8.828 -0.4906 -0.6479 -0.1420
  666MOL0     H91878   9.806   8.928   8.750  2.3980  0.7030 -0.0393
  666MOL0     H91879   9.879   8.964   8.905  2.8635 -3.6029 -2.6080
  666MOL0     H91880   9.757   9.167   8.722 -2.1626 -2.0535  0.7792
  666MOL0     H91881   9.820   9.201   8.882  1.2032  0.5298  1.5216
  666MOL0     H91882   9.985   9.235   8.678  0.3771  0.4883  0.3241
  666MOL0     H91883   9.991   9.059   8.668  4.3237 -0.3166  0.4277
  666MOL0     H91884  10.147   9.035   8.835 -1.5650 -0.8855  0.3224
  666MOL0     H91885  10.030   9.103   8.947  0.4595 -1.2013 -0.3496
  666MOL0     H91886  10.236   9.263   8.791 -2.5005 -0.1764 -2.2203
  666MOL0     H91887  10.254   9.196   8.958 -0.9813  0.3371  1.2462
  666MOL0     H91888   9.178   8.966   8.787 -0.1119 -1.0244 -0.5814
  666MOL0     H91889   8.928   8.905   8.844 -0.7737  0.2399  1.1589
  666MOL0     H91890   8.638   8.769   8.908 -0.0845  0.0894 -1.5247
  666MOL0     H91891   8.405   8.742   8.900  0.0301 -0.2238 -0.6511
  666MOL0     H91892   6.642   8.319   9.345  2.2865 -3.2790 -0.9689
  666MOL0     H91893   6.448   8.460   9.409  1.3959  0.2344  1.2584
  666MOL0     H91894   6.050   8.467   9.314 -0.0129  1.1251 -1.1178
  666MOL0     H91895   5.845   8.593   9.248 -1.6345  0.0120  1.3101
  666MOL0     H91896   5.683   8.813   9.212 -0.7735 -3.1523 -2.2797
  666MOL0     H91897   5.611   8.665   9.287  2.8158 -1.2911 -2.2400
  666MOL0     H91898   5.432   8.836   9.271  1.3138 -1.5658 -1.5959
  666MOL0     H91899   5.534   8.951   9.350 -0.7024 -0.1230 -0.3016
  666MOL0     H91900   5.344   8.821   9.487 -0.8057 -0.4210  1.2071
  666MOL0     H91901   5.483   8.715   9.522 -2.2703 -0.7103 -1.4197
  666MOL0     H91902   5.488   9.029   9.545  2.5619  0.9713  2.4139
  666MOL0     H91903   5.617   8.917   9.600 -0.0714 -2.3684  2.9515
  666MOL0     H91904   5.333   8.950   9.907  0.9981  1.4926 -0.6756
  666MOL0     H91905   5.872   8.826   9.610  1.2223  0.7169  1.5644
  666MOL0     H91906   6.180   8.760   9.725 -0.4509  0.6026 -0.0540
  666MOL0     H91907   6.018   8.768   9.769  1.1842  1.3708 -0.8122
  666MOL0     H91908   6.105   8.605   9.770 -0.0843 -0.4421 -0.4943
  667MOL0     O91909   9.377   6.633   0.046  0.4727  0.0475  0.4832
  667MOL0     C91910   9.357   6.695  -0.056 -0.0586 -0.4842 -0.3229
  667MOL0     O91911   9.396   6.818  -0.077  0.5948  0.6782 -0.1986
  667MOL0     C91912   9.504   6.869  -0.009  1.0847  0.2545 -0.0370
  667MOL0     C91913   9.623   6.885  -0.078  0.2821 -0.3381 -0.0866
  667MOL0     C91914   9.734   6.936  -0.011  0.6391 -0.1669  0.8736
  667MOL0     C91915   9.734   6.962   0.124 -0.2453  0.6023 -0.5782
  667MOL0     O91916   9.843   7.015   0.197 -0.0365  0.4491 -0.4682
  667MOL0     C91917   9.928   6.920   0.266  0.7246  0.9883  0.5145
  667MOL0     C91918  10.016   7.005   0.361  0.2463 -0.2685 -0.7660
  667MOL0     C91919  10.129   7.067   0.274  0.3096  0.0976  0.5165
  667MOL0     C91920  10.251   6.970   0.273 -0.1573 -0.0795 -1.2152
  667MOL0     C91921  10.385   7.030   0.242 -0.5386 -0.4804 -0.1416
  667MOL0     C91922  10.493   6.927   0.221  0.8165  0.3294 -0.4791
  667MOL0     C91923  10.627   6.982   0.179  0.5021 -0.4268 -0.2832
  667MOL0     C91924  10.740   6.874   0.198  0.7597 -0.0093 -0.1562
  667MOL0     N91925  10.867   6.926   0.148  0.7138  0.4924  0.4301
  667MOL0     C91926  10.989   6.922   0.220 -0.2152  1.2081  0.0580
  667MOL0     C91927  11.069   6.994   0.148  0.5238  0.8115 -0.8712
  667MOL0     C91928  11.205   7.040   0.179  0.6226 -0.4818  0.1228
  667MOL0     C91929  11.305   6.974   0.085  0.8056 -0.3153 -0.1826
  667MOL0     C91930  11.442   6.996   0.134 -0.4322  0.0995 -0.1869
  667MOL0     C91931  11.540   6.969   0.015 -0.3196 -0.3484  0.1207
  667MOL0     O91932  11.674   6.966   0.063 -0.4360  0.5004 -0.4802
  667MOL0     C91933  11.782   6.981  -0.027  0.0020  0.0260 -0.8295
  667MOL0     C91934  11.909   6.990   0.027  0.4041 -0.6499  0.2794
  667MOL0     C91935  12.026   6.975  -0.057 -0.2504 -1.3049 -0.0398
  667MOL0     C91936  12.155   6.974   0.025  0.2772 -0.1222 -0.8679
  667MOL0     C91937  12.020   6.985  -0.198 -0.5359 -0.5626 -0.2673
  667MOL0     C91938  12.139   6.990  -0.291  1.1338  0.2126  0.8462
  667MOL0     O91939  12.108   6.961  -0.425  0.0240  0.1654  0.2180
  667MOL0     C91940  12.215   6.987  -0.507 -0.4239  0.3390  0.1696
  667MOL0     C91941  12.294   6.884  -0.558  0.3204  0.1183  0.1007
  667MOL0     C91942  12.396   6.920  -0.650  0.0327 -0.0454  0.1525
  667MOL0     C91943  12.412   7.050  -0.690  0.1758  0.3657  0.2423
  667MOL0     O91944  12.516   7.086  -0.767  0.9779  0.3012  0.3989
  667MOL0     C91945  12.500   7.041  -0.904  0.7806  0.4425 -0.6511
  667MOL0     C91946  12.382   7.109  -0.970 -1.4115 -0.4701 -0.0280
  667MOL0     C91947  12.381   7.086  -1.120 -0.3744  0.1097  0.2629
  667MOL0     C91948  12.276   7.178  -1.183  0.1939 -1.1983  0.0185
  667MOL0     C91949  12.292   7.196  -1.335 -0.1529  0.0874 -0.4338
  667MOL0     C91950  12.195   7.302  -1.399 -0.2001 -0.1037 -0.8693
  667MOL0     C91951  12.222   7.312  -1.548  0.0034 -0.4007 -0.5470
  667MOL0     C91952  12.160   7.201  -1.642  0.0118  0.6586 -0.4260
  667MOL0    Cl91953  11.995   7.182  -1.610  0.3750 -0.2359  0.0059
  667MOL0     C91954  12.326   7.147  -0.644 -1.3835 -0.5184 -0.3193
  667MOL0     C91955  12.227   7.113  -0.556 -0.1197 -0.3333 -0.5625
  667MOL0     O91956  12.249   7.019  -0.253 -0.5108  0.5914  0.0337
  667MOL0     C91957  11.886   6.978  -0.248  0.2006 -0.4038 -0.3134
  667MOL0     C91958  11.775   6.967  -0.169  0.3677 -0.6258 -0.1823
  667MOL0     N91959  11.016   7.025   0.026  0.1551 -0.1574 -0.0429
  667MOL0     N91960  10.892   6.984   0.030 -0.0142 -0.1308  0.6184
  667MOL0     C91961   9.613   6.932   0.193  0.9553  0.9117  0.8412
  667MOL0     C91962   9.499   6.890   0.124 -1.2623 -1.0118  0.1309
  667MOL0     C91963   9.264   6.630  -0.163  0.3297  0.3459  0.3950
  667MOL0     C91964   9.226   6.494  -0.149 -0.3839 -0.3522  0.1817
  667MOL0     C91965   9.120   6.435  -0.225  0.5364 -0.5814 -0.4214
  667MOL0     C91966   9.066   6.509  -0.328  0.3961  0.1668  0.8745
  667MOL0     O91967   8.965   6.462  -0.417 -0.7832  0.2518 -0.6481
  667MOL0     C91968   8.907   6.329  -0.398 -0.0717  1.2437 -0.6422
  667MOL0     C91969   8.765   6.308  -0.452 -0.2297  0.2431  1.2368
  667MOL0     C91970   8.741   6.371  -0.589 -0.1574 -0.6221  0.3743
  667MOL0     C91971   8.619   6.313  -0.660 -0.0591 -0.2520 -0.2046
  667MOL0     C91972   8.497   6.302  -0.573  0.7425 -0.0906  0.0834
  667MOL0     C91973   8.396   6.290  -0.505 -0.2507  0.6093  0.5332
  667MOL0     C91974   9.121   6.637  -0.358  0.0469 -0.4130 -0.3993
  667MOL0     C91975   9.211   6.707  -0.278 -0.1573  0.4070  0.4173
  667MOL0     C91976   9.254   6.852  -0.306  1.3302  0.4394 -0.1339
  667MOL0     H91977   9.628   6.868  -0.185 -0.7492 -0.6291 -0.0959
  667MOL0     H91978   9.829   6.942  -0.064  0.1481  0.1323  0.0126
  667MOL0     H91979   9.993   6.871   0.194 -0.2412  1.2939 -0.5921
  667MOL0     H91980   9.867   6.848   0.322  1.6877 -0.6222 -0.4436
  667MOL0     H91981   9.948   7.068   0.418  1.6922 -0.6954  1.5948
  667MOL0     H91982  10.062   6.947   0.443 -0.7938  3.6746  2.9865
  667MOL0     H91983  10.093   7.093   0.174  2.0741 -0.2737 -0.2390
  667MOL0     H91984  10.148   7.168   0.312 -3.1990  1.4446 -0.8633
  667MOL0     H91985  10.252   6.915   0.368  3.8221  2.5598  0.5534
  667MOL0     H91986  10.228   6.893   0.199 -0.8491 -2.7244  1.5158
  667MOL0     H91987  10.413   7.094   0.326 -0.2662  0.3594 -0.8520
  667MOL0     H91988  10.364   7.103   0.162 -0.4873  1.0259  1.1640
  667MOL0     H91989  10.510   6.885   0.320  1.1908 -3.1143 -1.8508
  667MOL0     H91990  10.465   6.850   0.148 -0.0666  1.6237 -1.5509
  667MOL0     H91991  10.644   7.083   0.214 -0.7708 -0.5149  0.6659
  667MOL0     H91992  10.629   7.005   0.072  0.0879  2.5088  0.2587
  667MOL0     H91993  10.755   6.845   0.303  3.1464  2.4371  0.2980
  667MOL0     H91994  10.718   6.782   0.144  0.8159  0.2785 -0.6802
  667MOL0     H91995  11.017   6.872   0.312 -1.8560 -0.7022 -0.4291
  667MOL0     H91996  11.229   7.008   0.281 -1.2284 -1.0431  0.4228
  667MOL0     H91997  11.208   7.149   0.174  0.2471 -0.4276  0.8148
  667MOL0     H91998  11.283   6.868   0.072  0.3310 -0.1561 -0.7433
  667MOL0     H91999  11.292   7.018  -0.015  1.3284 -0.7228 -0.4345
  667MOL0     H92000  11.450   7.101   0.164  0.7490  0.0147 -0.1696
  667MOL0     H92001  11.473   6.941   0.223  0.9716  2.3961  0.8474
  667MOL0     H92002  11.507   6.872  -0.023 -1.7389 -0.7422  2.1539
  667MOL0     H92003  11.539   7.044  -0.065  2.0775  1.2648  1.4853
  667MOL0     H92004  11.935   7.008   0.131  3.6488 -1.0172 -0.3556
  667MOL0     H92005  12.209   6.884  -0.006  0.0634 -0.6156  0.1500
  667MOL0     H92006  12.138   6.972   0.133  0.6478 -0.5692 -0.8150
  667MOL0     H92007  12.214   7.064   0.007  0.7707 -0.5904 -1.6403
  667MOL0     H92008  12.283   6.779  -0.533 -3.2091  0.1945 -0.6234
  667MOL0     H92009  12.463   6.850  -0.699  2.4199  2.0404  0.2704
  667MOL0     H92010  12.594   7.075  -0.947  1.3022 -0.1273  0.0262
  667MOL0     H92011  12.498   6.932  -0.903  2.3039  0.4101  0.1461
  667MOL0     H92012  12.292   7.075  -0.919 -1.2036  1.3556  1.7053
  667MOL0     H92013  12.383   7.216  -0.947 -1.8695 -0.4957  0.1197
  667MOL0     H92014  12.367   6.980  -1.142 -2.6192  0.6469 -1.2812
  667MOL0     H92015  12.483   7.102  -1.157 -0.4083 -0.1182  0.0700
  667MOL0     H92016  12.287   7.282  -1.149  0.9786 -0.3103 -2.6766
  667MOL0     H92017  12.178   7.143  -1.151 -0.9088  0.1729 -1.6685
  667MOL0     H92018  12.394   7.212  -1.371 -0.0867 -0.4464 -0.5026
  667MOL0     H92019  12.267   7.102  -1.385  1.9482  0.7563 -2.9295
  667MOL0     H92020  12.205   7.400  -1.352  0.3011 -0.1827 -0.8079
  667MOL0     H92021  12.091   7.273  -1.383  0.2166 -2.1394 -1.5118
  667MOL0     H92022  12.329   7.333  -1.558 -0.4721  1.7129 -1.9492
  667MOL0     H92023  12.182   7.404  -1.593  0.2426  0.0441  0.1456
  667MOL0     H92024  12.201   7.100  -1.641 -1.8783 -0.1623 -1.2025
  667MOL0     H92025  12.164   7.237  -1.745  2.9965 -3.0851 -1.8136
  667MOL0     H92026  12.340   7.250  -0.675 -4.1018  1.3221  3.7192
  667MOL0     H92027  12.160   7.188  -0.517  2.0093  0.7714  1.1993
  667MOL0     H92028  11.867   6.981  -0.355 -1.0464 -0.6952 -0.1127
  667MOL0     H92029  11.679   6.948  -0.217  0.8292  2.9735 -2.9963
  667MOL0     H92030   9.623   6.959   0.297  3.4353 -0.3976  1.0319
  667MOL0     H92031   9.415   6.877   0.192 -1.9152 -0.0202 -0.4515
  667MOL0     H92032   9.260   6.441  -0.061  0.1748 -1.2150 -0.5329
  667MOL0     H92033   9.096   6.330  -0.208 -0.5566  0.1249  3.1621
  667MOL0     H92034   8.975   6.251  -0.434  1.0549  0.6610  2.4441
  667MOL0     H92035   8.903   6.304  -0.292 -0.1873  0.6791 -0.7749
  667MOL0     H92036   8.695   6.352  -0.380  0.9405 -0.3548  2.7848
  667MOL0     H92037   8.734   6.203  -0.455  0.8041 -0.0723  1.1077
  667MOL0     H92038   8.727   6.479  -0.583  1.9681 -0.2034 -1.0387
  667MOL0     H92039   8.831   6.364  -0.651 -0.4106  5.0692 -1.1930
  667MOL0     H92040   8.642   6.215  -0.703 -1.3557 -0.8222  0.3415
  667MOL0     H92041   8.598   6.370  -0.752 -2.1154 -1.4406 -0.5429
  667MOL0     H92042   8.308   6.266  -0.450  0.3511 -0.0159  1.2438
  667MOL0     H92043   9.083   6.687  -0.446  1.2348  2.7390  0.7657
  667MOL0     H92044   9.362   6.864  -0.319  1.5786  0.0298  1.3260
  667MOL0     H92045   9.199   6.873  -0.398  0.5745 -2.8296 -0.5669
  667MOL0     H92046   9.216   6.921  -0.229 -2.1542 -0.1580 -1.1214
  668MOL0     O92047   1.604   6.952   4.263 -0.4067  0.0315  0.9882
  668MOL0     C92048   1.541   6.992   4.357  0.0569  0.8054  0.2905
  668MOL0     O92049   1.600   7.060   4.459  0.1430  0.3227 -0.2590
  668MOL0     C92050   1.740   7.056   4.466 -0.3066 -0.2088  0.8724
  668MOL0     C92051   1.814   6.965   4.541 -0.4107  0.9049 -0.4206
  668MOL0     C92052   1.954   6.978   4.527  0.7423 -0.3605 -0.4306
  668MOL0     C92053   2.016   7.071   4.451 -1.0398 -0.0697 -0.5454
  668MOL0     O92054   2.156   7.052   4.458  0.0119  0.2936  0.6839
  668MOL0     C92055   2.226   7.137   4.363  0.0434  0.8175  0.5869
  668MOL0     C92056   2.383   7.125   4.373  1.1705  0.5588 -0.1719
  668MOL0     C92057   2.439   7.127   4.514 -0.1587 -0.7027 -0.1110
  668MOL0     C92058   2.583   7.171   4.509  0.8005 -0.5497  0.1654
  668MOL0     C92059   2.633   7.200   4.654 -0.1181  0.0068 -0.8984
  668MOL0     C92060   2.628   7.075   4.744 -0.0547  0.1736 -0.0592
  668MOL0     C92061   2.666   7.114   4.887  0.3983 -0.6328  0.4875
  668MOL0     C92062   2.640   6.999   4.985  0.7249 -0.7139  0.3232
  668MOL0     N92063   2.655   7.028   5.126  0.0184 -0.1576 -0.9463
  668MOL0     C92064   2.769   7.077   5.189 -0.9791 -0.1638 -0.1074
  668MOL0     C92065   2.740   7.072   5.317 -0.0902 -0.0244 -0.2943
  668MOL0     C92066   2.839   7.124   5.423  1.0711 -1.4241  0.7388
  668MOL0     C92067   2.920   7.003   5.464  0.4243 -0.4595 -0.1644
  668MOL0     C92068   3.024   7.043   5.563  0.3280  0.0575  0.1545
  668MOL0     C92069   3.155   7.089   5.509 -0.3218 -0.4777 -0.4543
  668MOL0     O92070   3.229   7.148   5.623 -0.0920  0.5592 -0.3427
  668MOL0     C92071   3.358   7.183   5.591  0.6464  0.3483  0.4731
  668MOL0     C92072   3.396   7.317   5.560  0.1088  0.1413  0.0575
  668MOL0     C92073   3.535   7.350   5.550 -0.3796  0.1521 -0.5379
  668MOL0     C92074   3.560   7.485   5.501 -1.0487  0.0693 -0.1358
  668MOL0     C92075   3.632   7.250   5.566 -0.1776  0.2423 -0.4967
  668MOL0     C92076   3.783   7.271   5.567  0.4974  0.6280 -0.1451
  668MOL0     O92077   3.866   7.165   5.582 -0.5546 -0.5027  0.0021
  668MOL0     C92078   3.994   7.187   5.538  0.6931  0.5967 -0.5771
  668MOL0     C92079   4.022   7.220   5.408  0.0113 -0.6303  0.2502
  668MOL0     C92080   4.145   7.240   5.361 -0.2602 -0.0418  0.1372
  668MOL0     C92081   4.255   7.194   5.428 -0.5105  0.2003  0.0147
  668MOL0     O92082   4.381   7.188   5.374  0.4670  0.1769 -0.7745
  668MOL0     C92083   4.405   7.235   5.239  0.1644  0.4267 -0.3657
  668MOL0     C92084   4.544   7.225   5.190  0.6616 -0.1128 -0.3236
  668MOL0     C92085   4.632   7.311   5.269 -0.2621  0.2304  0.4133
  668MOL0     C92086   4.775   7.277   5.231 -0.4663  0.3202  0.4620
  668MOL0     C92087   4.885   7.379   5.280 -0.0643  1.1765  0.3375
  668MOL0     C92088   5.025   7.319   5.274 -0.1892  0.1549  0.9451
  668MOL0     C92089   5.132   7.431   5.308 -0.0458 -0.2580  0.5316
  668MOL0     C92090   5.280   7.396   5.275 -0.7564 -0.3982 -0.5250
  668MOL0    Cl92091   5.394   7.511   5.322  0.1081  0.3187  0.0846
  668MOL0     C92092   4.238   7.142   5.559  0.5170 -0.3371  0.1876
  668MOL0     C92093   4.105   7.142   5.610 -0.3284  0.0897 -0.0739
  668MOL0     O92094   3.819   7.385   5.556 -0.1715  0.0766  0.6870
  668MOL0     C92095   3.595   7.114   5.590  0.4983 -0.5757 -0.3656
  668MOL0     C92096   3.457   7.084   5.592  0.6194 -0.1832 -0.3893
  668MOL0     N92097   2.614   7.029   5.332  0.2725  0.8954  0.0617
  668MOL0     N92098   2.563   6.993   5.217 -0.6252 -0.6098 -0.6021
  668MOL0     C92099   1.944   7.164   4.386  0.1570 -0.3039 -0.2117
  668MOL0     C92100   1.808   7.155   4.398 -0.6227  0.5493  0.4894
  668MOL0     C92101   1.393   6.993   4.346 -0.4116  0.0621 -0.0133
  668MOL0     C92102   1.333   7.018   4.469 -1.1065 -0.3976  0.1636
  668MOL0     C92103   1.199   6.994   4.486  0.5046 -0.0755  0.7761
  668MOL0     C92104   1.124   6.955   4.379 -0.2395 -0.2843  0.0618
  668MOL0     O92105   0.993   6.952   4.399  1.2230  0.7719 -0.5752
  668MOL0     C92106   0.909   6.977   4.286  0.0647  1.2845 -0.3676
  668MOL0     C92107   0.768   6.990   4.326  0.2187  0.0233  0.0816
  668MOL0     C92108   0.760   7.117   4.410  0.7539 -0.6985 -0.2121
  668MOL0     C92109   0.606   7.159   4.416  0.1925 -0.2315  0.5837
  668MOL0     C92110   0.559   7.257   4.510 -0.5030 -0.4113  0.4791
  668MOL0     C92111   0.547   7.328   4.609 -0.3764  0.4775  0.7890
  668MOL0     C92112   1.182   6.929   4.249  0.1197  0.5352 -0.1835
  668MOL0     C92113   1.319   6.952   4.227  0.1197  0.1051  0.5862
  668MOL0     C92114   1.369   6.940   4.089 -0.8421 -0.4096  0.3064
  668MOL0     H92115   1.761   6.892   4.600  1.1035  0.5143  0.5293
  668MOL0     H92116   2.016   6.903   4.576  1.2410  0.2824 -0.0615
  668MOL0     H92117   2.206   7.243   4.384 -0.2438  0.6632  1.1119
  668MOL0     H92118   2.200   7.113   4.259  2.6543 -1.6100  0.3876
  668MOL0     H92119   2.403   7.029   4.324 -1.8391  0.2364 -1.0064
  668MOL0     H92120   2.433   7.204   4.318  0.8553 -1.2625 -3.2771
  668MOL0     H92121   2.378   7.196   4.573 -2.2436 -1.2767 -1.5056
  668MOL0     H92122   2.429   7.030   4.565 -0.1686 -0.9244 -0.5315
  668MOL0     H92123   2.641   7.090   4.465 -1.3588 -1.8368 -0.4551
  668MOL0     H92124   2.595   7.266   4.456 -2.5988  0.6427  1.2467
  668MOL0     H92125   2.586   7.291   4.693 -1.0815 -1.0854  0.6296
  668MOL0     H92126   2.735   7.239   4.652 -0.8281  1.9104 -1.9778
  668MOL0     H92127   2.524   7.042   4.742 -0.0843  0.0038  2.1144
  668MOL0     H92128   2.700   6.998   4.715  1.8569  1.4039  1.2277
  668MOL0     H92129   2.604   7.200   4.915 -0.3386 -1.8095  2.7578
  668MOL0     H92130   2.773   7.136   4.892  0.8340 -2.7724  2.9478
  668MOL0     H92131   2.543   6.953   4.967 -0.1318 -0.2088  3.1701
  668MOL0     H92132   2.690   6.906   4.958 -4.4269 -2.9709 -2.9984
  668MOL0     H92133   2.860   7.087   5.129 -1.8437 -2.6786 -2.0267
  668MOL0     H92134   2.782   7.161   5.509  1.1665  0.9767 -0.1593
  668MOL0     H92135   2.905   7.201   5.381  0.2079 -1.2599 -0.3383
  668MOL0     H92136   2.853   6.930   5.510  0.4637  0.1224  0.8203
  668MOL0     H92137   2.960   6.958   5.372  0.4136 -0.7203 -0.0429
  668MOL0     H92138   2.976   7.127   5.613 -0.2710  0.3203 -0.8432
  668MOL0     H92139   3.054   6.961   5.630  1.1425 -0.4797 -0.8409
  668MOL0     H92140   3.206   7.000   5.470  3.0307  2.0085 -2.2268
  668MOL0     H92141   3.143   7.162   5.428 -0.6878 -1.7917 -1.6306
  668MOL0     H92142   3.331   7.404   5.557  0.5179  0.4964  1.0413
  668MOL0     H92143   3.610   7.545   5.578  0.4327  0.3059 -1.2380
  668MOL0     H92144   3.470   7.542   5.473 -0.6135  0.3517 -0.9886
  668MOL0     H92145   3.619   7.486   5.409 -0.2339  0.6937  0.3748
  668MOL0     H92146   3.939   7.246   5.343  0.4832  1.0420  0.2738
  668MOL0     H92147   4.165   7.289   5.266 -0.5995  2.4223  1.2363
  668MOL0     H92148   4.340   7.178   5.172 -2.3480  0.9773  1.4559
  668MOL0     H92149   4.366   7.337   5.238 -1.6752 -0.2355  0.0185
  668MOL0     H92150   4.570   7.119   5.203 -1.2795 -0.5974 -0.0746
  668MOL0     H92151   4.548   7.252   5.084  1.8400  0.0605 -0.2499
  668MOL0     H92152   4.616   7.306   5.377  1.3528  0.3103  0.6705
  668MOL0     H92153   4.600   7.412   5.240 -2.1749 -0.7568 -1.2018
  668MOL0     H92154   4.796   7.255   5.126  1.3830  1.0588  0.6247
  668MOL0     H92155   4.803   7.182   5.278 -0.5865 -1.1102 -2.2005
  668MOL0     H92156   4.887   7.467   5.214 -0.8423  1.3579  0.5362
  668MOL0     H92157   4.850   7.413   5.378 -2.3024  1.4951 -0.5060
  668MOL0     H92158   5.052   7.281   5.175 -1.5865  0.5135  0.4030
  668MOL0     H92159   5.037   7.231   5.337  0.1715 -0.7507 -0.3497
  668MOL0     H92160   5.136   7.439   5.417 -0.0312  1.5584  0.4321
  668MOL0     H92161   5.112   7.526   5.258  0.8428 -1.7838 -3.0807
  668MOL0     H92162   5.284   7.378   5.167 -0.2134  3.7945 -1.3576
  668MOL0     H92163   5.324   7.305   5.317  1.8063  0.0566 -2.0395
  668MOL0     H92164   4.318   7.107   5.623  0.0124 -1.9347 -0.0270
  668MOL0     H92165   4.085   7.088   5.702 -2.3686 -2.4121 -1.8257
  668MOL0     H92166   3.665   7.036   5.620  0.4818 -0.5047 -0.1420
  668MOL0     H92167   3.427   6.984   5.621  1.2444 -0.0873  0.6636
  668MOL0     H92168   1.987   7.254   4.343 -3.2638  2.1471  1.0327
  668MOL0     H92169   1.753   7.234   4.348  1.2072  0.7728 -1.3031
  668MOL0     H92170   1.391   7.043   4.557 -2.3666  5.0209 -0.1953
  668MOL0     H92171   1.163   7.029   4.582 -1.2706  1.8976 -0.5293
  668MOL0     H92172   0.940   7.057   4.218  2.3076  0.1634 -0.7457
  668MOL0     H92173   0.909   6.885   4.228 -0.5560  0.2559  1.1826
  668MOL0     H92174   0.725   6.902   4.375 -3.2887  2.1125  1.0156
  668MOL0     H92175   0.706   7.004   4.237 -1.5340 -1.1440  1.0804
  668MOL0     H92176   0.794   7.101   4.513  1.3970  0.3240 -0.2529
  668MOL0     H92177   0.815   7.198   4.360 -0.0733  1.5903  2.3546
  668MOL0     H92178   0.549   7.068   4.435  3.1336 -2.5366 -0.8063
  668MOL0     H92179   0.582   7.198   4.316  0.7702 -0.6093  0.2920
  668MOL0     H92180   0.547   7.403   4.686  1.6637  2.3232 -0.8629
  668MOL0     H92181   1.130   6.892   4.161  0.8758  0.9464 -0.8171
  668MOL0     H92182   1.418   6.844   4.069  1.3095  0.7999 -0.5733
  668MOL0     H92183   1.278   6.944   4.027 -1.4781  0.1675  1.2523
  668MOL0     H92184   1.434   7.023   4.060  0.8368 -1.4411  0.9904
  669MOL0     O92185  10.217  10.312   7.590 -0.1727 -0.3316 -0.2192
  669MOL0     C92186  10.172  10.215   7.533 -0.4197 -0.5647 -0.4322
  669MOL0     O92187  10.227  10.089   7.531 -0.1944  0.1396  0.0479
  669MOL0     C92188  10.364  10.075   7.549 -0.1506 -0.5047 -0.1952
  669MOL0     C92189  10.456  10.155   7.476  0.0259  0.7678  0.4252
  669MOL0     C92190  10.592  10.128   7.494  0.0584 -0.2066  1.0893
  669MOL0     C92191  10.644  10.032   7.581 -0.1756 -0.1167  0.0564
  669MOL0     O92192  10.775   9.996   7.597 -0.6856  0.0088  0.5142
  669MOL0     C92193  10.880  10.055   7.517  0.1768 -1.0142  0.2637
  669MOL0     C92194  11.013   9.996   7.574 -0.6199 -0.4105  0.8369
  669MOL0     C92195  11.149  10.073   7.529 -0.0207  0.9046  0.5475
  669MOL0     C92196  11.267   9.981   7.546 -0.0142  0.5253 -0.5625
  669MOL0     C92197  11.388  10.041   7.489 -0.4281 -0.6829  0.5407
  669MOL0     C92198  11.519   9.969   7.515 -0.5362 -0.0708 -0.3684
  669MOL0     C92199  11.635  10.061   7.466  0.6959  0.3495 -0.3327
  669MOL0     C92200  11.771  10.013   7.529  0.0571  0.0266  0.0410
  669MOL0     N92201  11.883  10.092   7.479 -0.6775  0.0739  0.1203
  669MOL0     C92202  11.914  10.219   7.525  0.4677  0.2861  0.0597
  669MOL0     C92203  12.028  10.247   7.464 -0.4693 -0.0311  0.2331
  669MOL0     C92204  12.106  10.379   7.466 -0.6581 -0.3458  0.5741
  669MOL0     C92205  12.241  10.381   7.543  0.1185  0.4048  0.2812
  669MOL0     C92206  12.230  10.334   7.695 -0.6522 -0.9105 -0.1878
  669MOL0     C92207  12.359  10.318   7.772 -0.2270  0.0993 -0.0967
  669MOL0     O92208  12.456  10.234   7.709 -0.2261 -0.0860  0.5289
  669MOL0     C92209  12.592  10.236   7.738  0.4962 -0.1702 -0.4484
  669MOL0     C92210  12.646  10.287   7.857 -0.6279 -0.3490  0.1158
  669MOL0     C92211  12.784  10.291   7.888  0.6828 -0.5298 -0.0343
  669MOL0     C92212  12.840  10.376   8.000 -0.5624 -0.0520 -0.1108
  669MOL0     C92213  12.877  10.222   7.793 -0.0711  0.6736 -0.5653
  669MOL0     C92214  13.023  10.211   7.799  0.3505 -0.2320  0.0994
  669MOL0     O92215  13.086  10.143   7.698  0.7054 -0.5507 -0.1772
  669MOL0     C92216  13.220  10.141   7.681 -0.4936 -0.2341  0.0681
  669MOL0     C92217  13.283  10.238   7.598 -1.1371  0.4146 -0.0138
  669MOL0     C92218  13.424  10.239   7.583  0.6229 -0.6693 -0.2929
  669MOL0     C92219  13.505  10.151   7.655  0.9080 -0.1264  1.1209
  669MOL0     O92220  13.643  10.163   7.667 -0.0097  0.1749  1.4664
  669MOL0     C92221  13.716  10.276   7.625  0.1057 -0.2415 -0.3198
  669MOL0     C92222  13.844  10.282   7.720 -0.4153 -0.7716 -0.0145
  669MOL0     C92223  13.955  10.366   7.656 -0.1543  0.3116  0.1262
  669MOL0     C92224  14.040  10.275   7.559  0.3419  0.1134  0.2957
  669MOL0     C92225  14.174  10.342   7.545 -0.2009 -0.7258  0.1647
  669MOL0     C92226  14.258  10.296   7.429 -1.0610  0.3870  0.4916
  669MOL0     C92227  14.392  10.370   7.402 -0.5359 -0.0044  0.1133
  669MOL0     C92228  14.499  10.350   7.517  0.0675 -0.2987  0.0712
  669MOL0    Cl92229  14.458  10.465   7.651 -0.6121  0.1950  0.1275
  669MOL0     C92230  13.439  10.055   7.733  0.1800 -0.3055 -0.1134
  669MOL0     C92231  13.304  10.056   7.754  0.2337  0.4531  0.2721
  669MOL0     O92232  13.081  10.276   7.889  0.0344  0.4513  0.2409
  669MOL0     C92233  12.816  10.164   7.680  0.3655 -0.2071  0.3881
  669MOL0     C92234  12.678  10.178   7.652 -0.2382  0.2752 -0.2197
  669MOL0     N92235  12.066  10.149   7.385 -0.0978 -0.3706  0.5350
  669MOL0     N92236  11.980  10.050   7.398 -0.1296  0.2997  0.3101
  669MOL0     C92237  10.554   9.956   7.657 -0.5079 -0.7765  0.0966
  669MOL0     C92238  10.417   9.974   7.630 -0.8467 -0.4037 -0.1392
  669MOL0     C92239  10.045  10.221   7.466  0.1536 -0.4934 -0.5699
  669MOL0     C92240   9.941  10.149   7.527  0.4655  0.1431 -0.2716
  669MOL0     C92241   9.809  10.152   7.480 -0.0229  0.0141  0.5180
  669MOL0     C92242   9.776  10.233   7.371  0.0942  0.3384  0.0604
  669MOL0     O92243   9.659  10.232   7.297 -0.0151  0.2058  0.3351
  669MOL0     C92244   9.574  10.124   7.326 -0.1776  1.0288  0.1651
  669MOL0     C92245   9.450  10.142   7.231  0.2315 -0.5030 -0.4588
  669MOL0     C92246   9.383  10.278   7.262  0.1847 -0.1258  0.0645
  669MOL0     C92247   9.242  10.294   7.192 -0.2892  0.2330 -0.2003
  669MOL0     C92248   9.143  10.212   7.255  0.1228 -0.8790  0.0596
  669MOL0     C92249   9.070  10.161   7.333  0.6547 -0.7571  0.2465
  669MOL0     C92250   9.880  10.306   7.310 -0.7589  0.1880 -0.3110
  669MOL0     C92251  10.013  10.304   7.359 -0.0696  0.2786 -0.7615
  669MOL0     C92252  10.099  10.414   7.305  0.0738 -0.0819  0.3822
  669MOL0     H92253  10.414  10.232   7.411 -3.0296 -0.1405  1.1683
  669MOL0     H92254  10.656  10.183   7.426 -0.2703 -0.1206  0.8449
  669MOL0     H92255  10.892  10.163   7.531  0.8932 -1.0085 -0.3025
  669MOL0     H92256  10.870  10.039   7.409 -0.2541  0.1810  0.1115
  669MOL0     H92257  11.009   9.994   7.683 -4.0316 -2.1297  0.8110
  669MOL0     H92258  11.016   9.895   7.532 -0.6031  0.2831 -0.9032
  669MOL0     H92259  11.140  10.102   7.424 -2.3158  2.3437  1.0695
  669MOL0     H92260  11.164  10.160   7.593 -0.0907  0.8232  0.6760
  669MOL0     H92261  11.280   9.961   7.652  0.0630 -0.2674 -0.7149
  669MOL0     H92262  11.243   9.891   7.488  1.3738  0.4383 -1.0377
  669MOL0     H92263  11.410  10.138   7.535  0.3333  0.5509 -2.2038
  669MOL0     H92264  11.379  10.053   7.380  1.7572 -2.6704  0.0581
  669MOL0     H92265  11.525   9.956   7.624 -0.9400  0.5215 -0.2672
  669MOL0     H92266  11.526   9.870   7.469  2.0683  0.1752 -0.6559
  669MOL0     H92267  11.620  10.168   7.480  0.0632  0.2777 -0.4185
  669MOL0     H92268  11.643  10.064   7.357  0.1724  1.6986 -0.3585
  669MOL0     H92269  11.775  10.013   7.638  1.1827  0.8077  0.0255
  669MOL0     H92270  11.776   9.911   7.490  2.5454  0.1279 -0.0418
  669MOL0     H92271  11.865  10.288   7.594  0.8083 -0.5990  1.2270
  669MOL0     H92272  12.049  10.459   7.512 -2.8120 -1.8561  0.6823
  669MOL0     H92273  12.120  10.412   7.362 -0.4181  1.1864  1.0811
  669MOL0     H92274  12.314  10.313   7.499  2.8557  2.7553  0.9242
  669MOL0     H92275  12.293  10.477   7.542 -0.0474  0.6505 -3.8666
  669MOL0     H92276  12.159  10.394   7.752  1.5466  1.9208 -0.1888
  669MOL0     H92277  12.194  10.233   7.676 -1.2147 -0.9036  0.7903
  669MOL0     H92278  12.392  10.420   7.793 -1.6394  0.7286 -0.7725
  669MOL0     H92279  12.352  10.259   7.864  0.3147 -0.3615 -0.3438
  669MOL0     H92280  12.570  10.338   7.915 -2.8276 -3.3805  0.1574
  669MOL0     H92281  12.770  10.443   8.051 -2.0527 -1.0646 -0.7743
  669MOL0     H92282  12.927  10.435   7.968 -1.1699  1.3932  0.7764
  669MOL0     H92283  12.870  10.310   8.082 -0.9385  1.1078  0.9981
  669MOL0     H92284  13.224  10.302   7.533  0.9868 -0.7191 -3.3709
  669MOL0     H92285  13.457  10.320   7.519 -4.1548  2.7938  1.1103
  669MOL0     H92286  13.733  10.271   7.517  0.8015  3.3146 -0.4794
  669MOL0     H92287  13.659  10.368   7.640  0.4620 -0.0631 -0.0686
  669MOL0     H92288  13.803  10.331   7.808 -2.1220 -5.4569  2.1369
  669MOL0     H92289  13.867  10.178   7.745  0.0600 -0.9040 -0.9325
  669MOL0     H92290  14.014  10.401   7.742 -3.5953  1.3679  2.2366
  669MOL0     H92291  13.918  10.457   7.608  3.3513  1.6301 -0.4079
  669MOL0     H92292  13.991  10.277   7.461  2.0727 -2.8209 -0.7592
  669MOL0     H92293  14.039  10.173   7.599 -0.4543 -0.3457 -0.8170
  669MOL0     H92294  14.166  10.449   7.525 -0.0324 -0.8370 -0.5257
  669MOL0     H92295  14.233  10.322   7.635  1.3577  3.1286  0.1852
  669MOL0     H92296  14.194  10.300   7.340  0.8031 -0.0645 -0.9557
  669MOL0     H92297  14.281  10.191   7.449 -1.7856  0.4306  1.6119
  669MOL0     H92298  14.368  10.475   7.382  0.3156 -0.0255 -1.1367
  669MOL0     H92299  14.429  10.325   7.309  0.4278 -1.4130  1.1289
  669MOL0     H92300  14.601  10.377   7.488  0.6018 -2.3854 -0.2042
  669MOL0     H92301  14.500  10.250   7.561 -2.3140 -0.4007 -0.0114
  669MOL0     H92302  13.498   9.978   7.781  0.2529 -0.2766 -0.1562
  669MOL0     H92303  13.251   9.988   7.820 -0.7384 -0.8302 -1.7246
  669MOL0     H92304  12.880  10.128   7.601 -1.0522  1.4210 -1.6230
  669MOL0     H92305  12.626  10.135   7.567 -0.1688 -0.8516  0.2899
  669MOL0     H92306  10.583   9.874   7.722  1.7041  0.1557  0.3894
  669MOL0     H92307  10.353   9.900   7.677  0.1092  0.1205  2.1362
  669MOL0     H92308   9.968  10.082   7.608  0.1967  1.9676  1.4033
  669MOL0     H92309   9.742  10.086   7.533  1.7096 -0.7709  1.8505
  669MOL0     H92310   9.629  10.030   7.320 -1.5591  0.1036  1.2799
  669MOL0     H92311   9.550  10.132   7.432 -1.1543 -0.8179  0.1227
  669MOL0     H92312   9.385  10.057   7.252 -0.5070 -0.0917 -1.0538
  669MOL0     H92313   9.490  10.129   7.130  0.2147 -0.2966 -0.4931
  669MOL0     H92314   9.371  10.295   7.369 -2.0068 -2.7036  0.3252
  669MOL0     H92315   9.463  10.345   7.229  0.4019  0.4958  1.7708
  669MOL0     H92316   9.263  10.273   7.087 -0.4357  0.3362 -0.2502
  669MOL0     H92317   9.212  10.398   7.209  0.5993  0.4111  0.3628
  669MOL0     H92318   9.005  10.134   7.414  0.7140 -2.1191 -0.1367
  669MOL0     H92319   9.845  10.365   7.226  0.2835 -0.1235 -0.9827
  669MOL0     H92320  10.089  10.509   7.358  0.0823  0.3884 -0.4386
  669MOL0     H92321  10.202  10.382   7.323  0.0959  0.0935  0.5590
  669MOL0     H92322  10.075  10.429   7.199  2.1226 -0.2800 -0.1655
  670MOL0     O92323   3.102   3.867   2.931  0.3996  0.7981  0.4501
  670MOL0     C92324   3.019   3.793   2.876 -0.4389  0.4952  0.3779
  670MOL0     O92325   3.039   3.707   2.769 -0.1831  0.7436 -0.7150
  670MOL0     C92326   3.142   3.705   2.681  0.6513 -0.3496 -0.3942
  670MOL0     C92327   3.271   3.658   2.722 -0.4922  0.4358 -0.3914
  670MOL0     C92328   3.364   3.663   2.621 -0.6424 -1.0993  0.6227
  670MOL0     C92329   3.335   3.700   2.486 -0.3491  0.0885 -0.2777
  670MOL0     O92330   3.430   3.676   2.391  0.2553  0.1697  0.0892
  670MOL0     C92331   3.520   3.782   2.364  1.0533  0.1528 -0.7987
  670MOL0     C92332   3.640   3.723   2.283  0.1589  0.1264  0.8601
  670MOL0     C92333   3.730   3.612   2.336  0.2989  0.2869 -0.5043
  670MOL0     C92334   3.847   3.586   2.252 -0.0518 -0.0440 -0.5361
  670MOL0     C92335   3.922   3.461   2.284 -0.4619 -0.4457 -0.7087
  670MOL0     C92336   3.994   3.461   2.424 -0.4096 -0.2405  0.6075
  670MOL0     C92337   3.906   3.386   2.515  0.1009  0.1149  0.4502
  670MOL0     C92338   3.954   3.385   2.660  0.0641 -0.6933  0.3382
  670MOL0     N92339   4.075   3.311   2.689  0.0534  0.4805  0.6203
  670MOL0     C92340   4.203   3.355   2.677 -0.6249  0.3684  0.7870
  670MOL0     C92341   4.282   3.255   2.707 -0.7302 -0.4187  0.3233
  670MOL0     C92342   4.436   3.277   2.733  0.3367  0.3386  0.5963
  670MOL0     C92343   4.471   3.289   2.884  0.3259 -0.8697 -0.1440
  670MOL0     C92344   4.610   3.346   2.910 -0.7053 -0.0700 -0.4789
  670MOL0     C92345   4.635   3.383   3.061  0.7683 -0.4759 -0.0020
  670MOL0     O92346   4.766   3.433   3.086 -0.1892  0.1535  0.8165
  670MOL0     C92347   4.843   3.334   3.150  0.2604  0.4528  0.0873
  670MOL0     C92348   4.845   3.194   3.118  0.1320  0.0320  0.7379
  670MOL0     C92349   4.941   3.110   3.172  0.7116 -0.4729 -0.4378
  670MOL0     C92350   4.975   2.979   3.103 -0.3403  0.1440 -0.1298
  670MOL0     C92351   5.020   3.154   3.285  1.1269 -0.2042 -0.2898
  670MOL0     C92352   5.126   3.072   3.331 -0.0482  0.0129  0.0524
  670MOL0     O92353   5.237   3.144   3.364  0.5695 -0.4917 -0.7721
  670MOL0     C92354   5.348   3.088   3.420 -0.5474  0.4049 -0.4101
  670MOL0     C92355   5.414   3.149   3.527 -0.2832 -0.5822  0.1612
  670MOL0     C92356   5.529   3.091   3.582 -0.3365 -0.6919  0.1495
  670MOL0     C92357   5.576   2.965   3.537  0.3185  0.3462  0.0197
  670MOL0     O92358   5.673   2.901   3.610 -1.0424 -0.5588 -0.3714
  670MOL0     C92359   5.777   2.978   3.672  0.2891  0.8545 -0.3318
  670MOL0     C92360   5.841   3.093   3.588  0.1489 -0.0184  0.3691
  670MOL0     C92361   5.943   3.162   3.685 -0.8068  0.1919  0.0019
  670MOL0     C92362   5.989   3.299   3.637  0.2928  0.2677  0.8784
  670MOL0     C92363   6.102   3.346   3.730  0.1159 -0.4433  0.1613
  670MOL0     C92364   6.162   3.475   3.690  0.1852  0.3083 -0.9977
  670MOL0     C92365   6.245   3.531   3.804 -0.1183  0.1106  0.7311
  670MOL0     C92366   6.370   3.455   3.841  0.2201 -0.5948 -0.0106
  670MOL0    Cl92367   6.456   3.418   3.696  0.0550  0.3421 -0.2911
  670MOL0     C92368   5.507   2.898   3.431 -0.5417 -0.4396 -0.1142
  670MOL0     C92369   5.405   2.967   3.371 -1.2583 -0.6815  0.5283
  670MOL0     O92370   5.110   2.955   3.357  0.3883  0.2601 -0.0620
  670MOL0     C92371   4.998   3.292   3.331 -0.1096 -0.2096 -0.5668
  670MOL0     C92372   4.918   3.377   3.261  1.1254  0.3655 -0.2493
  670MOL0     N92373   4.200   3.149   2.744 -0.6758 -1.0093  0.6873
  670MOL0     N92374   4.079   3.186   2.728 -0.3675  0.2528 -0.6877
  670MOL0     C92375   3.201   3.729   2.450  1.1750 -0.2764  0.1167
  670MOL0     C92376   3.104   3.732   2.554  0.2220  0.8174 -0.0971
  670MOL0     C92377   2.883   3.784   2.933  0.0209  0.8250  0.0527
  670MOL0     C92378   2.848   3.902   3.011 -0.0389 -0.8477  0.0368
  670MOL0     C92379   2.718   3.916   3.063  0.1375 -0.4003 -0.3234
  670MOL0     C92380   2.615   3.822   3.045 -0.3183  0.5835  0.3327
  670MOL0     O92381   2.500   3.836   3.104  0.2716 -0.3672  0.4482
  670MOL0     C92382   2.415   3.725   3.122 -0.3978 -0.3248 -0.3844
  670MOL0     C92383   2.451   3.657   3.257  0.0791  0.2234  0.8385
  670MOL0     C92384   2.372   3.529   3.291  0.4555 -0.7377 -0.6687
  670MOL0     C92385   2.446   3.388   3.265  0.1135 -0.8992 -0.1790
  670MOL0     C92386   2.469   3.380   3.121  0.3191  0.0560  0.2812
  670MOL0     C92387   2.486   3.376   2.996 -0.3018 -0.2909  0.4315
  670MOL0     C92388   2.656   3.699   2.980 -0.0831  0.3170 -0.0746
  670MOL0     C92389   2.785   3.676   2.918 -0.1236 -0.0455  0.6064
  670MOL0     C92390   2.819   3.539   2.867 -0.4587  1.1113  0.1830
  670MOL0     H92391   3.284   3.618   2.821 -1.6298 -0.2646 -0.5077
  670MOL0     H92392   3.464   3.624   2.640 -0.0041 -0.3662 -1.0305
  670MOL0     H92393   3.555   3.800   2.466  0.6550 -1.7533 -0.2950
  670MOL0     H92394   3.481   3.869   2.310  0.5141  0.8594  0.6467
  670MOL0     H92395   3.599   3.688   2.188  0.1198  0.7458  0.6454
  670MOL0     H92396   3.703   3.809   2.257  0.3573  0.0407  1.0528
  670MOL0     H92397   3.770   3.652   2.429 -0.9745 -1.5032  0.8824
  670MOL0     H92398   3.675   3.522   2.365 -1.4944  1.8969  1.3879
  670MOL0     H92399   3.820   3.581   2.146  2.1759  0.9620 -1.1977
  670MOL0     H92400   3.913   3.671   2.267 -0.1118 -0.0839 -0.0291
  670MOL0     H92401   4.006   3.457   2.214  1.9440 -3.0640  2.0610
  670MOL0     H92402   3.857   3.375   2.266 -2.8501  0.8928  0.9464
  670MOL0     H92403   4.085   3.401   2.412  0.2232  0.9766 -1.1640
  670MOL0     H92404   4.013   3.557   2.474 -0.1456 -0.6877  1.3763
  670MOL0     H92405   3.883   3.283   2.486  1.2640 -0.1797  0.5173
  670MOL0     H92406   3.811   3.439   2.526  0.9525  1.8419 -0.2597
  670MOL0     H92407   3.960   3.487   2.697  0.0795 -0.1688 -1.0472
  670MOL0     H92408   3.866   3.334   2.700 -2.5453 -0.5428 -4.4323
  670MOL0     H92409   4.229   3.457   2.651 -1.3022  0.1294 -1.0003
  670MOL0     H92410   4.460   3.367   2.675 -2.4792  0.0695 -1.1890
  670MOL0     H92411   4.490   3.188   2.698 -0.3350 -0.2474  1.0145
  670MOL0     H92412   4.394   3.358   2.919  2.3340  1.1426  0.5444
  670MOL0     H92413   4.464   3.195   2.939 -0.5031 -0.3324  0.6919
  670MOL0     H92414   4.688   3.275   2.883 -2.0692 -3.1627  2.9023
  670MOL0     H92415   4.619   3.444   2.863 -0.2785 -0.9782 -2.3758
  670MOL0     H92416   4.570   3.465   3.093  2.8560  0.8727  0.9599
  670MOL0     H92417   4.606   3.298   3.123 -0.4583 -1.1084 -1.3748
  670MOL0     H92418   4.785   3.155   3.036  1.8256 -2.3406  0.5374
  670MOL0     H92419   4.927   2.892   3.149  0.5429  1.0542  2.7115
  670MOL0     H92420   5.084   2.965   3.093 -0.6116 -1.3791 -1.4208
  670MOL0     H92421   4.934   2.991   3.002 -1.0388  0.3242  0.1756
  670MOL0     H92422   5.386   3.241   3.578  1.2420 -0.4473  0.7882
  670MOL0     H92423   5.574   3.140   3.668 -1.6443  1.3756 -0.2822
  670MOL0     H92424   5.727   3.010   3.763 -2.2046 -5.0441  0.8558
  670MOL0     H92425   5.852   2.903   3.697 -0.5295 -0.2926 -1.1900
  670MOL0     H92426   5.891   3.055   3.498  2.2504  1.8674  0.6872
  670MOL0     H92427   5.765   3.161   3.549  0.8990  1.2568  1.0888
  670MOL0     H92428   6.027   3.093   3.697 -1.0327 -0.4791 -1.9760
  670MOL0     H92429   5.895   3.176   3.782 -2.7653 -2.9831 -0.3788
  670MOL0     H92430   5.909   3.373   3.637 -0.5649 -0.6276  1.9668
  670MOL0     H92431   6.028   3.284   3.535  0.3432 -1.6829  1.1453
  670MOL0     H92432   6.062   3.350   3.831  1.0591  0.4752  0.5210
  670MOL0     H92433   6.188   3.278   3.736  1.9799  1.8621  1.7420
  670MOL0     H92434   6.088   3.554   3.672 -0.2836  0.2044  0.3712
  670MOL0     H92435   6.217   3.448   3.599  0.0880 -4.9225  0.1611
  670MOL0     H92436   6.189   3.556   3.894  0.8506  2.9031  0.6597
  670MOL0     H92437   6.269   3.631   3.765  0.4617  0.0043  0.8098
  670MOL0     H92438   6.345   3.365   3.897 -1.1696 -0.1758  0.0700
  670MOL0     H92439   6.437   3.524   3.893  0.0631  0.1580 -0.7807
  670MOL0     H92440   5.527   2.798   3.395 -3.5960 -1.5444  0.9280
  670MOL0     H92441   5.352   2.916   3.291 -0.9386 -1.3587  0.7390
  670MOL0     H92442   5.047   3.323   3.422 -1.1418 -0.5387  0.1135
  670MOL0     H92443   4.912   3.482   3.289  2.3181 -0.0155  1.6389
  670MOL0     H92444   3.169   3.754   2.349 -1.6033 -2.2117  0.3968
  670MOL0     H92445   3.001   3.743   2.523  0.2700 -2.6621 -2.0474
  670MOL0     H92446   2.921   3.983   3.014  0.2997 -1.1704  0.8144
  670MOL0     H92447   2.682   3.994   3.129  0.0413 -1.3999  0.8381
  670MOL0     H92448   2.313   3.761   3.140 -0.0522 -0.0767  1.2162
  670MOL0     H92449   2.417   3.653   3.040  2.3290 -0.5502 -0.2072
  670MOL0     H92450   2.444   3.734   3.335 -1.9756  1.5795 -0.5806
  670MOL0     H92451   2.555   3.626   3.260 -0.6653 -2.5032  1.6841
  670MOL0     H92452   2.340   3.541   3.395 -0.3474 -0.3538 -0.9538
  670MOL0     H92453   2.279   3.526   3.234  0.6947 -0.6909 -1.0579
  670MOL0     H92454   2.380   3.308   3.299 -1.8690  1.2661  1.4356
  670MOL0     H92455   2.539   3.388   3.322  0.5019 -1.5542 -0.7959
  670MOL0     H92456   2.492   3.364   2.890 -0.8084 -0.0962  0.3798
  670MOL0     H92457   2.595   3.612   2.960 -1.5429  0.8956  1.6227
  670MOL0     H92458   2.903   3.531   2.797 -1.7300 -0.6350 -1.2531
  670MOL0     H92459   2.837   3.472   2.951 -2.0760 -2.3953 -2.0353
  670MOL0     H92460   2.729   3.501   2.817 -1.1646  2.5841  0.2756
  671MOL0     O92461   1.338   5.868   4.384 -0.0565 -0.0481  0.4971
  671MOL0     C92462   1.302   5.966   4.441 -0.4552 -0.2959 -0.3332
  671MOL0     O92463   1.387   6.052   4.513  0.5980 -0.2864 -0.5672
  671MOL0     C92464   1.522   6.030   4.520 -0.2778 -0.3657 -0.7624
  671MOL0     C92465   1.590   5.989   4.639 -0.8677  0.3367  0.4688
  671MOL0     C92466   1.729   5.971   4.647 -0.0385 -0.6651  0.0731
  671MOL0     C92467   1.808   5.999   4.540 -1.1926 -0.4656  0.2239
  671MOL0     O92468   1.942   5.991   4.557 -0.0796 -0.4019  0.0273
  671MOL0     C92469   2.007   5.869   4.519 -0.1612  0.3961  1.1567
  671MOL0     C92470   2.141   5.867   4.603  0.1216 -0.3126  0.3541
  671MOL0     C92471   2.238   5.771   4.544  0.4696  0.1187 -0.3350
  671MOL0     C92472   2.362   5.752   4.629 -0.5378  0.1769  0.0277
  671MOL0     C92473   2.326   5.656   4.749  0.3113 -0.4791  0.8927
  671MOL0     C92474   2.433   5.640   4.853 -0.8488  0.3643  0.6494
  671MOL0     C92475   2.551   5.554   4.833 -0.1747  1.1875  0.3836
  671MOL0     C92476   2.566   5.438   4.933  0.3612  0.9623 -0.4867
  671MOL0     N92477   2.698   5.375   4.943  0.3242  0.0239  0.4116
  671MOL0     C92478   2.812   5.438   4.985  0.3979  0.0024 -1.3651
  671MOL0     C92479   2.905   5.334   4.984 -0.9692 -0.1617 -0.6697
  671MOL0     C92480   3.041   5.353   5.047 -0.6621  0.7076 -0.1500
  671MOL0     C92481   3.155   5.352   4.944  0.8242 -0.5827  0.0012
  671MOL0     C92482   3.299   5.379   5.001 -0.5877  0.4329  0.5389
  671MOL0     C92483   3.411   5.330   4.900  0.3557 -1.0336  0.1861
  671MOL0     O92484   3.410   5.185   4.887 -0.2676  0.7580  0.1014
  671MOL0     C92485   3.499   5.131   4.800  0.4133 -0.0116  0.6736
  671MOL0     C92486   3.492   4.987   4.803 -0.3493 -1.2587 -0.5343
  671MOL0     C92487   3.588   4.908   4.725  0.3673  0.6952 -0.4817
  671MOL0     C92488   3.597   4.765   4.768 -0.2109  1.0375  0.5941
  671MOL0     C92489   3.677   4.970   4.642 -0.2425  0.0061  1.0743
  671MOL0     C92490   3.790   4.905   4.574  0.3119 -0.4156 -0.1750
  671MOL0     O92491   3.902   4.982   4.549  0.1592  0.0096  0.7331
  671MOL0     C92492   4.013   4.924   4.481 -0.4340 -0.3265  0.5485
  671MOL0     C92493   4.057   4.972   4.356  0.1327 -1.1057 -0.3538
  671MOL0     C92494   4.169   4.920   4.297 -0.2740  0.4380  0.0542
  671MOL0     C92495   4.237   4.806   4.353  0.3169 -1.0735  0.2193
  671MOL0     O92496   4.335   4.740   4.285 -0.2723 -0.2006  0.3072
  671MOL0     C92497   4.412   4.818   4.188  1.0991  0.3973 -0.2683
  671MOL0     C92498   4.553   4.763   4.197 -0.4191 -0.3250  0.5287
  671MOL0     C92499   4.634   4.804   4.323  1.1687 -0.6127  0.1249
  671MOL0     C92500   4.767   4.732   4.323  0.1818  1.7401 -0.3295
  671MOL0     C92501   4.856   4.761   4.452  0.2392 -0.4406  0.7425
  671MOL0     C92502   4.992   4.689   4.425  1.1672  0.3006 -0.1048
  671MOL0     C92503   5.076   4.682   4.547 -0.5095 -0.4481  0.6048
  671MOL0     C92504   5.205   4.614   4.504 -0.5685  0.5657 -0.3762
  671MOL0    Cl92505   5.276   4.556   4.654 -0.6715 -0.0557  0.3672
  671MOL0     C92506   4.198   4.751   4.470  0.4936 -0.7465 -0.7370
  671MOL0     C92507   4.091   4.818   4.540  1.5221 -0.4637  0.2357
  671MOL0     O92508   3.788   4.788   4.535  0.6352 -0.5110 -0.4222
  671MOL0     C92509   3.657   5.105   4.617  0.5946 -0.1532 -0.8504
  671MOL0     C92510   3.587   5.194   4.704  0.5954 -0.3428 -0.2446
  671MOL0     N92511   2.846   5.218   4.937 -0.0426 -0.3617  0.1899
  671MOL0     N92512   2.727   5.249   4.910 -0.3476 -0.1994  0.2717
  671MOL0     C92513   1.748   6.050   4.416 -0.7635 -0.4763 -0.0889
  671MOL0     C92514   1.612   6.065   4.411  1.2217 -0.6596  0.4217
  671MOL0     C92515   1.162   5.998   4.416 -0.4813  0.2027  0.4501
  671MOL0     C92516   1.124   6.137   4.417  0.3651  0.1892 -0.5280
  671MOL0     C92517   0.993   6.171   4.398 -0.7223  0.3029 -0.7849
  671MOL0     C92518   0.903   6.074   4.357  0.0158  0.1549  0.3246
  671MOL0     O92519   0.782   6.126   4.332 -0.1416 -0.0171 -0.3001
  671MOL0     C92520   0.677   6.056   4.264 -0.3463 -0.6110  0.0769
  671MOL0     C92521   0.697   6.063   4.112 -0.2745  0.2897 -0.0554
  671MOL0     C92522   0.588   5.993   4.032  0.2895  0.2243 -0.3226
  671MOL0     C92523   0.462   6.087   4.003  0.5149  0.4885 -0.4310
  671MOL0     C92524   0.389   6.116   4.124  0.1136  1.0449  0.1745
  671MOL0     C92525   0.326   6.135   4.222 -0.3442  0.7070  0.3547
  671MOL0     C92526   0.943   5.941   4.363  1.0607 -0.4229  0.3988
  671MOL0     C92527   1.071   5.895   4.397  0.0841  0.4599  0.8143
  671MOL0     C92528   1.091   5.748   4.426 -0.1949 -0.1175  0.1442
  671MOL0     H92529   1.535   5.960   4.728 -3.7232 -0.3691 -1.4009
  671MOL0     H92530   1.776   5.956   4.743  0.3079  0.8310  0.1621
  671MOL0     H92531   2.024   5.885   4.412 -0.4737  1.7792  1.2965
  671MOL0     H92532   1.940   5.785   4.535 -0.5837 -0.5113 -3.6995
  671MOL0     H92533   2.183   5.967   4.616 -3.5353  1.3730  0.6322
  671MOL0     H92534   2.113   5.839   4.705  3.7551  0.9956  1.8898
  671MOL0     H92535   2.195   5.673   4.518 -0.1566  1.0019 -2.9679
  671MOL0     H92536   2.261   5.814   4.446  1.5927 -0.7774 -0.4925
  671MOL0     H92537   2.446   5.718   4.567 -0.4797 -1.3967  0.9213
  671MOL0     H92538   2.395   5.853   4.658  3.4482 -1.6161  2.6682
  671MOL0     H92539   2.300   5.557   4.708 -2.5308 -1.4863  4.5798
  671MOL0     H92540   2.227   5.683   4.788 -0.0799 -1.7385  0.8350
  671MOL0     H92541   2.471   5.732   4.898  1.0991 -0.0087 -0.1171
  671MOL0     H92542   2.376   5.596   4.935  1.2929 -2.3247  0.8397
  671MOL0     H92543   2.637   5.621   4.848  1.4735 -0.9539  0.9458
  671MOL0     H92544   2.555   5.512   4.732 -1.5907 -0.4808  0.9799
  671MOL0     H92545   2.538   5.472   5.034 -0.5128 -0.2758 -0.2784
  671MOL0     H92546   2.491   5.361   4.910 -0.7165  1.7993  0.0984
  671MOL0     H92547   2.844   5.532   5.030  2.9188 -1.1849 -0.5109
  671MOL0     H92548   3.058   5.276   5.122  0.9289 -1.7169 -2.7652
  671MOL0     H92549   3.040   5.456   5.083  0.5999  0.5553  0.3859
  671MOL0     H92550   3.148   5.261   4.883  3.4475 -1.7878  1.2778
  671MOL0     H92551   3.149   5.434   4.872  1.4595  0.1425  0.7605
  671MOL0     H92552   3.310   5.486   5.025  1.3043  0.0641  1.5159
  671MOL0     H92553   3.308   5.326   5.097  2.0756 -1.9836 -0.8970
  671MOL0     H92554   3.375   5.384   4.812  2.2007 -0.4463 -0.2491
  671MOL0     H92555   3.513   5.360   4.927  2.4999 -3.5547 -4.0896
  671MOL0     H92556   3.433   4.948   4.886 -1.2711  1.1071 -0.0105
  671MOL0     H92557   3.682   4.756   4.836  0.7828  2.2749 -0.4154
  671MOL0     H92558   3.620   4.692   4.689  0.1006  0.8304  0.8746
  671MOL0     H92559   3.505   4.735   4.817  0.1618 -0.6391  0.3458
  671MOL0     H92560   4.012   5.058   4.308 -1.6265 -0.2077  2.6438
  671MOL0     H92561   4.207   4.971   4.209  2.5905 -0.5208  0.6210
  671MOL0     H92562   4.367   4.797   4.091 -0.2964 -0.5579  0.5470
  671MOL0     H92563   4.420   4.927   4.186  0.6680  0.4243 -0.5609
  671MOL0     H92564   4.555   4.654   4.203 -0.4409 -0.2583  4.0893
  671MOL0     H92565   4.608   4.806   4.113 -0.8828  0.8530  0.8000
  671MOL0     H92566   4.582   4.782   4.416 -1.1641 -2.1725 -1.4541
  671MOL0     H92567   4.658   4.911   4.325  1.7087 -0.6893  3.1211
  671MOL0     H92568   4.827   4.763   4.237  0.2420 -1.0434 -1.3584
  671MOL0     H92569   4.755   4.624   4.332  2.7633  1.0803 -3.2170
  671MOL0     H92570   4.874   4.866   4.480  1.7728 -0.9879  2.0019
  671MOL0     H92571   4.815   4.704   4.535 -2.0279 -3.1919 -2.0453
  671MOL0     H92572   5.051   4.745   4.352  1.2031 -0.9327 -1.0516
  671MOL0     H92573   4.971   4.591   4.382 -0.0801 -0.1601  1.4307
  671MOL0     H92574   5.023   4.624   4.622 -1.4102 -0.7288 -0.2203
  671MOL0     H92575   5.100   4.782   4.584 -2.4035 -0.1833  1.2277
  671MOL0     H92576   5.272   4.673   4.441 -1.0778  1.3195 -0.2200
  671MOL0     H92577   5.177   4.532   4.437  1.1269 -0.0277 -0.3992
  671MOL0     H92578   4.253   4.665   4.508  1.1783  1.2490  3.3327
  671MOL0     H92579   4.068   4.779   4.639  1.1786 -1.4544 -0.2203
  671MOL0     H92580   3.710   5.148   4.533 -0.6199  0.4434 -1.3315
  671MOL0     H92581   3.589   5.302   4.692  3.6025 -0.4461 -1.4679
  671MOL0     H92582   1.808   6.070   4.328  0.6547  0.1118  0.9751
  671MOL0     H92583   1.561   6.094   4.320  0.2646  1.2884  1.5021
  671MOL0     H92584   1.197   6.215   4.436  1.4750 -0.7341 -0.9156
  671MOL0     H92585   0.950   6.271   4.399  1.1532  1.1638  0.3393
  671MOL0     H92586   0.683   5.953   4.299  0.7528 -0.3157  0.8051
  671MOL0     H92587   0.579   6.087   4.302  1.3571  1.6904  3.0921
  671MOL0     H92588   0.791   6.010   4.094  1.2618  2.1426  2.0366
  671MOL0     H92589   0.714   6.163   4.071  3.0102 -0.5410 -1.0148
  671MOL0     H92590   0.639   5.968   3.938  0.6733 -0.3950  0.0455
  671MOL0     H92591   0.566   5.896   4.077  1.6321 -0.5921 -1.3493
  671MOL0     H92592   0.396   6.037   3.932  1.2220 -1.7177  0.3707
  671MOL0     H92593   0.508   6.180   3.968  1.9089  0.3997  1.0603
  671MOL0     H92594   0.270   6.156   4.310 -0.5657 -0.4178  0.4944
  671MOL0     H92595   0.858   5.873   4.365  1.2911 -0.7166  0.2405
  671MOL0     H92596   1.144   5.745   4.522 -0.4437  0.5681  0.3122
  671MOL0     H92597   0.995   5.701   4.451 -0.4316  1.5370  2.7458
  671MOL0     H92598   1.140   5.692   4.347  1.5537  1.3761  0.1064
  672MOL0     O92599   9.782  11.091   5.078 -0.3498 -0.4172  0.0380
  672MOL0     C92600   9.745  11.197   5.034  0.8017 -0.5530  0.4129
  672MOL0     O92601   9.796  11.320   5.062 -0.2823 -0.2999 -0.7495
  672MOL0     C92602   9.920  11.323   5.131  0.3272  0.2108 -0.5369
  672MOL0     C92603   9.943  11.269   5.262  0.5537 -0.3540 -0.5060
  672MOL0     C92604  10.064  11.268   5.317 -0.1566  0.1016 -0.8384
  672MOL0     C92605  10.173  11.317   5.244  0.5679 -0.8006  0.3823
  672MOL0     O92606  10.298  11.301   5.305 -0.8376  0.6561  0.8063
  672MOL0     C92607  10.417  11.338   5.236  0.3252  0.2238  0.3532
  672MOL0     C92608  10.542  11.287   5.308  0.5581  0.0119 -0.1257
  672MOL0     C92609  10.673  11.348   5.245  0.4097 -0.8501 -0.4092
  672MOL0     C92610  10.798  11.291   5.315  0.2629 -0.4896  0.2712
  672MOL0     C92611  10.927  11.330   5.255 -0.9927  0.0774  0.6943
  672MOL0     C92612  11.050  11.296   5.342 -0.4539  0.0438 -0.3835
  672MOL0     C92613  11.183  11.336   5.262  0.2249 -0.0799  0.0108
  672MOL0     C92614  11.304  11.336   5.370  1.0377  0.0343  0.6143
  672MOL0     N92615  11.424  11.374   5.298 -0.1410 -0.2638  1.1200
  672MOL0     C92616  11.450  11.489   5.232 -0.1011 -1.0850  0.2932
  672MOL0     C92617  11.585  11.490   5.211  0.8835  1.4360 -0.2556
  672MOL0     C92618  11.671  11.594   5.149 -0.0541 -0.4937 -0.5261
  672MOL0     C92619  11.811  11.578   5.210 -0.1296  0.3282 -1.1729
  672MOL0     C92620  11.897  11.699   5.153  0.5549  0.4117 -0.7244
  672MOL0     C92621  12.040  11.681   5.161  0.0857 -0.1186  0.2149
  672MOL0     O92622  12.124  11.785   5.105  0.4996  0.1698  0.4242
  672MOL0     C92623  12.260  11.758   5.095  0.1331  0.7424 -0.4558
  672MOL0     C92624  12.336  11.842   5.017  0.1563  0.0604  0.0988
  672MOL0     C92625  12.473  11.811   4.980 -0.2051  0.3496  0.2081
  672MOL0     C92626  12.532  11.900   4.873  0.3921  0.5627 -0.3067
  672MOL0     C92627  12.532  11.700   5.045 -0.0673 -0.4738  0.4279
  672MOL0     C92628  12.665  11.641   5.002  0.9084  0.3317 -0.1577
  672MOL0     O92629  12.715  11.668   4.881 -0.2759 -0.2954  0.1265
  672MOL0     C92630  12.842  11.620   4.844  0.0690 -0.0396  0.0940
  672MOL0     C92631  12.871  11.594   4.705 -0.2766  0.1039 -0.9358
  672MOL0     C92632  12.994  11.530   4.665  0.2603  0.9905  0.4711
  672MOL0     C92633  13.092  11.506   4.760  0.3709  0.0240 -0.3349
  672MOL0     O92634  13.213  11.460   4.704 -0.0578 -0.0636  0.7526
  672MOL0     C92635  13.319  11.425   4.789  0.0170 -0.7123  0.1573
  672MOL0     C92636  13.403  11.334   4.702 -0.0664 -0.0148 -0.1855
  672MOL0     C92637  13.491  11.245   4.790  0.2259 -0.0840  0.2238
  672MOL0     C92638  13.606  11.197   4.695  0.8208  0.1607  0.2306
  672MOL0     C92639  13.703  11.098   4.763 -0.1098  0.0941  0.0830
  672MOL0     C92640  13.766  11.171   4.879 -1.4278  0.7354 -0.4736
  672MOL0     C92641  13.835  11.067   4.970  0.1255 -0.2071  0.4955
  672MOL0     C92642  13.943  11.125   5.061  0.1282 -0.5346  0.4693
  672MOL0    Cl92643  14.030  11.006   5.148 -0.2452 -0.3815  0.0320
  672MOL0     C92644  13.071  11.540   4.892  0.3033 -0.3878  0.6855
  672MOL0     C92645  12.953  11.604   4.932  0.6982 -1.0675 -0.3934
  672MOL0     O92646  12.722  11.581   5.089 -0.3363  0.2535 -0.0589
  672MOL0     C92647  12.465  11.637   5.154 -0.1987 -0.3847 -0.4187
  672MOL0     C92648  12.329  11.670   5.174 -1.2879 -0.1451  0.6237
  672MOL0     N92649  11.633  11.374   5.268 -0.0532  0.0198  0.5057
  672MOL0     N92650  11.536  11.302   5.307 -0.3522  0.6299  0.2914
  672MOL0     C92651  10.152  11.386   5.124  0.4222  0.2661  0.2092
  672MOL0     C92652  10.023  11.386   5.068 -0.5745 -0.2681  0.4126
  672MOL0     C92653   9.610  11.203   4.965 -0.6867 -0.1649 -0.0785
  672MOL0     C92654   9.553  11.324   4.927 -0.8639 -0.6607 -0.5626
  672MOL0     C92655   9.433  11.337   4.860  0.1832 -0.4567 -0.2700
  672MOL0     C92656   9.348  11.228   4.838 -0.1313  0.2299 -0.2574
  672MOL0     O92657   9.231  11.236   4.778  0.3536  0.4017  0.0900
  672MOL0     C92658   9.243  11.287   4.641  0.6314  0.1510 -0.9271
  672MOL0     C92659   9.106  11.282   4.588  0.2792  0.1778  0.4441
  672MOL0     C92660   9.065  11.143   4.572 -0.2113  0.3898 -0.5795
  672MOL0     C92661   8.930  11.135   4.510  0.1793 -0.8543  0.0503
  672MOL0     C92662   8.817  11.166   4.600  0.4126  0.2795 -0.1624
  672MOL0     C92663   8.719  11.191   4.667  0.0743  0.0917  0.4702
  672MOL0     C92664   9.399  11.108   4.885 -0.2460  0.7960  0.5871
  672MOL0     C92665   9.526  11.092   4.945  0.5491 -0.5415  0.6387
  672MOL0     C92666   9.559  10.942   4.975  1.0055  0.3712  0.7782
  672MOL0     H92667   9.858  11.224   5.312  1.0426 -2.5547 -1.5521
  672MOL0     H92668  10.074  11.238   5.421 -2.2092 -1.9714 -1.1383
  672MOL0     H92669  10.429  11.447   5.234  3.0845 -0.0053  0.4096
  672MOL0     H92670  10.416  11.289   5.138  1.5142  0.3281  0.2720
  672MOL0     H92671  10.553  11.327   5.409  0.1224  0.3321 -0.2014
  672MOL0     H92672  10.547  11.178   5.315  2.5033  0.1337  0.8242
  672MOL0     H92673  10.680  11.312   5.142  2.3178 -3.7249  0.6142
  672MOL0     H92674  10.683  11.456   5.259  3.0777 -1.2964  2.0798
  672MOL0     H92675  10.807  11.317   5.421  4.3016  2.5326 -0.5318
  672MOL0     H92676  10.787  11.182   5.313 -3.7342 -0.4376  4.0402
  672MOL0     H92677  10.932  11.439   5.246 -2.2539  0.0200 -1.1274
  672MOL0     H92678  10.926  11.297   5.151 -2.1799  2.8237 -0.2528
  672MOL0     H92679  11.046  11.353   5.435 -0.8341  1.6182 -1.3320
  672MOL0     H92680  11.060  11.190   5.366  2.0179  0.1240 -0.8306
  672MOL0     H92681  11.163  11.436   5.224 -0.3351  0.0801  0.7021
  672MOL0     H92682  11.225  11.263   5.192  2.2214  0.8327  0.1625
  672MOL0     H92683  11.283  11.396   5.459 -2.6797 -1.0242  0.6243
  672MOL0     H92684  11.317  11.235   5.409 -2.1738 -0.7160  0.0004
  672MOL0     H92685  11.385  11.574   5.213  1.7930 -0.0276 -1.9312
  672MOL0     H92686  11.641  11.692   5.184  1.1457 -0.0428 -0.7014
  672MOL0     H92687  11.679  11.587   5.040  0.0808 -2.0829 -0.4421
  672MOL0     H92688  11.814  11.566   5.318 -0.5570  1.3062 -1.0508
  672MOL0     H92689  11.857  11.489   5.165 -1.7499 -0.9655 -0.3789
  672MOL0     H92690  11.863  11.711   5.050 -4.7362 -0.3192  0.6226
  672MOL0     H92691  11.877  11.794   5.205  1.5661  0.8627 -1.1432
  672MOL0     H92692  12.058  11.656   5.266 -2.0229 -2.0276  0.1823
  672MOL0     H92693  12.061  11.589   5.106 -1.5822 -1.0615  1.0603
  672MOL0     H92694  12.281  11.931   4.988 -1.1417 -0.6603  0.3087
  672MOL0     H92695  12.511  11.865   4.772  1.7879  1.0539 -0.7878
  672MOL0     H92696  12.640  11.917   4.883  0.1989  1.8763 -0.2699
  672MOL0     H92697  12.476  11.994   4.875 -1.6165 -0.5934  0.2005
  672MOL0     H92698  12.793  11.607   4.631  0.3268 -0.1355 -1.6155
  672MOL0     H92699  13.028  11.492   4.570  3.5951  0.4049  1.7768
  672MOL0     H92700  13.367  11.516   4.828 -0.3987 -1.2387  1.9771
  672MOL0     H92701  13.275  11.370   4.872 -2.1164 -0.8608 -1.0068
  672MOL0     H92702  13.344  11.278   4.630 -0.2788 -0.7089  0.5073
  672MOL0     H92703  13.464  11.398   4.637 -1.7263 -1.9251 -3.8971
  672MOL0     H92704  13.429  11.160   4.822 -1.1829  1.5768  2.1392
  672MOL0     H92705  13.523  11.300   4.879 -0.4917 -3.0054  2.4390
  672MOL0     H92706  13.674  11.270   4.649  4.3475 -1.9257  1.6495
  672MOL0     H92707  13.567  11.139   4.611 -0.3548  1.2406 -0.0003
  672MOL0     H92708  13.653  11.006   4.796  0.9155 -0.7240 -0.5604
  672MOL0     H92709  13.775  11.058   4.690  1.6274  2.0829  0.6028
  672MOL0     H92710  13.703  11.219   4.954  0.3365  1.9296  0.3191
  672MOL0     H92711  13.842  11.242   4.847  1.9784 -2.0371  0.7223
  672MOL0     H92712  13.875  10.982   4.914 -0.4311 -1.2518  1.6491
  672MOL0     H92713  13.754  11.028   5.032 -0.6024 -1.6081 -1.2634
  672MOL0     H92714  13.906  11.197   5.135  0.3140  0.9416 -0.8159
  672MOL0     H92715  14.019  11.170   4.997  0.1450 -0.7414  0.3458
  672MOL0     H92716  13.148  11.525   4.967  0.3044  1.6809  1.1709
  672MOL0     H92717  12.950  11.624   5.038  2.5166  0.0412 -0.5081
  672MOL0     H92718  12.515  11.562   5.215 -0.1518  2.2786  3.1361
  672MOL0     H92719  12.267  11.634   5.255 -0.5804 -0.0573  1.2167
  672MOL0     H92720  10.233  11.428   5.065  0.4745 -0.2144 -0.0722
  672MOL0     H92721  10.011  11.428   4.969  0.5581 -2.7843 -0.8773
  672MOL0     H92722   9.614  11.414   4.929 -1.2365 -0.4086 -0.3753
  672MOL0     H92723   9.410  11.438   4.830  1.5936  0.7435  2.3200
  672MOL0     H92724   9.264  11.395   4.647  2.5293 -0.2343  1.0310
  672MOL0     H92725   9.307  11.235   4.570  2.1594  3.6094 -2.3449
  672MOL0     H92726   9.113  11.321   4.486  1.8464 -2.6948 -0.6752
  672MOL0     H92727   9.039  11.349   4.642 -0.7345  1.8994 -2.7204
  672MOL0     H92728   9.144  11.091   4.516  0.3096 -0.1306  0.5926
  672MOL0     H92729   9.060  11.097   4.671 -2.0089  0.8341 -0.4415
  672MOL0     H92730   8.919  11.034   4.469 -1.5323 -1.3078  1.5573
  672MOL0     H92731   8.933  11.211   4.431 -0.6147  0.6973  1.4526
  672MOL0     H92732   8.633  11.181   4.730 -0.6477  0.1082 -0.4926
  672MOL0     H92733   9.348  11.012   4.888  2.9557 -1.0309  2.2539
  672MOL0     H92734   9.539  10.916   5.079 -0.4280  3.7338  1.4875
  672MOL0     H92735   9.507  10.870   4.911  1.8558 -0.0190  0.5073
  672MOL0     H92736   9.666  10.937   4.951  1.3630  0.3129  2.2747
  673MOL0     O92737   3.688  10.048   3.419 -0.3243 -0.6874 -0.3921
  673MOL0     C92738   3.772  10.066   3.336 -0.3972  0.1607  0.8284
  673MOL0     O92739   3.896  10.093   3.363 -1.1412  0.2838  0.7257
  673MOL0     C92740   3.934  10.089   3.493 -0.1971  0.0736 -0.5917
  673MOL0     C92741   4.008  10.192   3.546 -0.9403  0.4497  0.5549
  673MOL0     C92742   4.067  10.179   3.677 -0.6503 -0.4123  0.5795
  673MOL0     C92743   4.051  10.066   3.751 -0.5248 -0.5241 -0.0431
  673MOL0     O92744   4.106  10.072   3.875 -0.3948  0.0243 -0.7733
  673MOL0     C92745   4.068   9.969   3.972  0.2452 -0.8329  0.7904
  673MOL0     C92746   4.128   9.998   4.110  1.0044 -0.3399  0.8882
  673MOL0     C92747   4.279  10.008   4.112  0.5600  0.1566 -0.6085
  673MOL0     C92748   4.309  10.040   4.263 -1.0272 -0.3110  0.4273
  673MOL0     C92749   4.459  10.015   4.301 -0.1345  0.2487 -0.8252
  673MOL0     C92750   4.510   9.866   4.291  0.7793  1.7596  0.2700
  673MOL0     C92751   4.434   9.742   4.360  0.7306  0.2348  0.8345
  673MOL0     C92752   4.510   9.618   4.347  0.7331 -0.0695 -0.7755
  673MOL0     N92753   4.409   9.516   4.396 -0.6316 -0.4863  0.6041
  673MOL0     C92754   4.358   9.496   4.524  0.4136  0.2474  0.0893
  673MOL0     C92755   4.287   9.386   4.514  0.0279  0.4655  0.9965
  673MOL0     C92756   4.195   9.338   4.622 -0.3963  0.0946 -0.2088
  673MOL0     C92757   4.113   9.210   4.596  0.3907  0.2878  0.8733
  673MOL0     C92758   4.195   9.071   4.578  0.6154  0.7043 -0.1943
  673MOL0     C92759   4.104   8.949   4.554 -0.8726  0.0177 -0.1087
  673MOL0     O92760   4.005   8.973   4.451  0.4972  0.8066  0.8705
  673MOL0     C92761   3.915   8.872   4.422  0.6424 -0.9535  0.1681
  673MOL0     C92762   3.813   8.905   4.330 -0.4144 -0.6473  0.0512
  673MOL0     C92763   3.713   8.814   4.289  0.0576 -0.8103 -1.0537
  673MOL0     C92764   3.614   8.877   4.193 -0.0527  0.2967  0.2152
  673MOL0     C92765   3.723   8.681   4.334 -1.2976  0.2220 -0.6915
  673MOL0     C92766   3.640   8.567   4.283  1.0075 -1.1119 -0.5929
  673MOL0     O92767   3.686   8.439   4.306  0.0254 -0.7872 -0.7129
  673MOL0     C92768   3.615   8.327   4.272  0.0014  0.2301 -0.2823
  673MOL0     C92769   3.599   8.285   4.141  0.6485 -0.1815 -0.0860
  673MOL0     C92770   3.526   8.171   4.116  0.2709 -0.0997 -0.1142
  673MOL0     C92771   3.480   8.082   4.212  0.8143 -0.4258 -1.0426
  673MOL0     O92772   3.413   7.964   4.183 -0.5329 -0.2935  0.0213
  673MOL0     C92773   3.284   7.983   4.113 -0.0768 -0.6048 -0.9737
  673MOL0     C92774   3.221   7.846   4.102  0.7396 -0.7065 -0.0406
  673MOL0     C92775   3.080   7.842   4.030  0.2208  0.5213  0.6300
  673MOL0     C92776   3.100   7.840   3.880  0.3794 -0.1713  0.5477
  673MOL0     C92777   2.968   7.860   3.805  0.2366  0.0609 -0.9479
  673MOL0     C92778   2.984   7.860   3.654 -0.3098  0.4988 -0.3512
  673MOL0     C92779   2.851   7.828   3.564 -0.0330 -0.2682 -0.2390
  673MOL0     C92780   2.743   7.939   3.598 -0.2892  0.0299  0.0142
  673MOL0    Cl92781   2.804   8.104   3.579  0.0908 -0.4400  0.1725
  673MOL0     C92782   3.502   8.120   4.347  0.2422 -0.1035 -0.0991
  673MOL0     C92783   3.564   8.240   4.375  1.0849 -0.3918  0.0994
  673MOL0     O92784   3.534   8.592   4.222  0.3696 -0.2189 -0.0837
  673MOL0     C92785   3.817   8.653   4.439 -0.1386 -0.7827  0.6154
  673MOL0     C92786   3.911   8.748   4.485 -0.1161 -0.2111 -0.1606
  673MOL0     N92787   4.293   9.337   4.388 -0.0735  0.4472 -0.7717
  673MOL0     N92788   4.364   9.412   4.321  0.7340  0.6800  0.1493
  673MOL0     C92789   3.990   9.957   3.698 -0.4386 -0.0893 -0.4347
  673MOL0     C92790   3.927   9.965   3.569 -0.0340 -0.8133 -0.0022
  673MOL0     C92791   3.739  10.057   3.188  0.0067 -0.0538  0.0148
  673MOL0     C92792   3.841  10.050   3.093 -0.7060  0.2269  0.9276
  673MOL0     C92793   3.806  10.051   2.957  0.1589 -0.5348  0.5814
  673MOL0     C92794   3.673  10.028   2.912 -0.7395  0.1369 -0.0842
  673MOL0     O92795   3.627  10.007   2.785 -0.0738 -0.0207  0.0893
  673MOL0     C92796   3.723  10.000   2.678  0.3549  0.2354 -0.3073
  673MOL0     C92797   3.750  10.138   2.629 -0.4919  0.2124 -0.4346
  673MOL0     C92798   3.628  10.201   2.556 -0.6881 -0.0872  0.2870
  673MOL0     C92799   3.654  10.351   2.503  0.1451  0.8078  0.2528
  673MOL0     C92800   3.718  10.451   2.598  0.2476  0.1710 -0.4185
  673MOL0     C92801   3.771  10.525   2.679 -0.8406 -0.2843  0.4238
  673MOL0     C92802   3.575  10.026   3.008  0.2992 -0.4672 -0.3131
  673MOL0     C92803   3.604  10.053   3.140  0.4658  0.0010 -1.2676
  673MOL0     C92804   3.480  10.087   3.230 -0.1632  1.2607  0.0282
  673MOL0     H92805   4.032  10.281   3.489  0.3952 -1.9867 -3.0628
  673MOL0     H92806   4.114  10.268   3.717 -2.4125  0.7460  0.1660
  673MOL0     H92807   4.101   9.869   3.941 -0.4363 -0.9254  0.3339
  673MOL0     H92808   3.960   9.959   3.986 -0.0063  0.8562  0.2169
  673MOL0     H92809   4.085  10.082   4.165 -2.2939 -0.4395 -1.2941
  673MOL0     H92810   4.103   9.902   4.157  1.0894 -0.7808  0.0688
  673MOL0     H92811   4.305   9.906   4.085  2.0357  0.5379 -0.7341
  673MOL0     H92812   4.325  10.084   4.047 -0.9916  0.4240 -1.4580
  673MOL0     H92813   4.288  10.145   4.283  0.8113 -0.1809  1.9235
  673MOL0     H92814   4.233   9.993   4.327 -3.5907 -0.2473 -2.3638
  673MOL0     H92815   4.464  10.042   4.407 -1.7668 -2.0223 -0.0797
  673MOL0     H92816   4.525  10.081   4.245  0.6753 -0.1367 -0.3390
  673MOL0     H92817   4.520   9.839   4.185  0.7836 -5.4776  1.5997
  673MOL0     H92818   4.611   9.870   4.333  1.4919  0.7660 -1.2365
  673MOL0     H92819   4.335   9.726   4.317  1.5203 -2.0325 -0.3224
  673MOL0     H92820   4.420   9.776   4.463  1.6973  0.5759  0.8595
  673MOL0     H92821   4.523   9.592   4.242 -0.5158 -1.3555 -0.6428
  673MOL0     H92822   4.602   9.609   4.405  2.3587 -0.2156 -3.2632
  673MOL0     H92823   4.359   9.568   4.605  0.4169  0.7999 -0.3906
  673MOL0     H92824   4.122   9.420   4.631 -0.4199 -0.0785  1.2907
  673MOL0     H92825   4.255   9.326   4.712  0.3155  0.2976 -0.6442
  673MOL0     H92826   4.052   9.189   4.685 -0.2935 -0.1619  0.3085
  673MOL0     H92827   4.049   9.226   4.509  0.7028 -0.0041  0.5941
  673MOL0     H92828   4.263   9.074   4.493  1.2284  0.2086  0.2748
  673MOL0     H92829   4.248   9.054   4.671 -1.1024 -0.4402  0.6319
  673MOL0     H92830   4.171   8.867   4.528 -0.7246 -0.2950  1.1830
  673MOL0     H92831   4.052   8.926   4.648 -0.3486 -0.9223 -0.0370
  673MOL0     H92832   3.826   9.003   4.285 -1.1045 -1.0589 -1.0754
  673MOL0     H92833   3.510   8.875   4.228  0.0865  0.4212  0.6377
  673MOL0     H92834   3.621   8.814   4.104  0.8504 -2.7275  2.2663
  673MOL0     H92835   3.636   8.980   4.166  0.1826  0.4436  0.9678
  673MOL0     H92836   3.640   8.349   4.063 -2.2081  1.5692 -0.3201
  673MOL0     H92837   3.521   8.143   4.011 -2.2371  0.9616 -0.3680
  673MOL0     H92838   3.225   8.059   4.164  1.7997  0.7714 -0.7481
  673MOL0     H92839   3.309   8.007   4.009  1.6910  0.0058 -0.4393
  673MOL0     H92840   3.290   7.780   4.050  0.3540 -1.1485  0.0011
  673MOL0     H92841   3.205   7.805   4.202 -0.8708  3.2456  1.5148
  673MOL0     H92842   3.031   7.935   4.059 -0.8376 -0.0828  0.8475
  673MOL0     H92843   3.019   7.755   4.057  1.0024 -0.3624 -0.4024
  673MOL0     H92844   3.140   7.747   3.839  0.8297  1.6670 -3.6737
  673MOL0     H92845   3.168   7.921   3.854  1.1521 -1.0590 -0.2564
  673MOL0     H92846   2.905   7.773   3.824 -3.0794  2.2347 -1.2930
  673MOL0     H92847   2.923   7.954   3.839  1.7996  0.0421  1.4130
  673MOL0     H92848   3.052   7.777   3.632 -2.1906 -1.2075 -0.1595
  673MOL0     H92849   3.036   7.949   3.619  1.0749 -0.6127 -1.2044
  673MOL0     H92850   2.817   7.732   3.603  0.1002  0.5164  1.9508
  673MOL0     H92851   2.861   7.825   3.455  1.0764 -0.9184 -0.1357
  673MOL0     H92852   2.688   7.927   3.691  0.5495  0.4640  0.5787
  673MOL0     H92853   2.659   7.925   3.529 -1.5293  0.2461  1.4308
  673MOL0     H92854   3.463   8.061   4.429 -0.0552 -1.6586 -1.3077
  673MOL0     H92855   3.580   8.275   4.477  1.7962  2.1742 -0.8201
  673MOL0     H92856   3.825   8.562   4.499 -1.2246 -0.1379  1.7939
  673MOL0     H92857   3.968   8.720   4.573  1.6274  2.1155 -0.4335
  673MOL0     H92858   3.995   9.860   3.747 -1.2362 -0.0168 -0.1849
  673MOL0     H92859   3.889   9.874   3.523 -2.3512  0.4579 -0.7571
  673MOL0     H92860   3.947  10.063   3.113 -0.4859 -0.5346  0.3148
  673MOL0     H92861   3.887  10.045   2.885 -2.8625 -1.2334 -3.0552
  673MOL0     H92862   3.811   9.941   2.707  0.5580  1.3771  1.5324
  673MOL0     H92863   3.674   9.952   2.593 -1.8626 -0.5154  1.3205
  673MOL0     H92864   3.835  10.139   2.560  0.5418 -0.3868  0.8087
  673MOL0     H92865   3.785  10.201   2.711  0.6571 -0.4923 -0.3636
  673MOL0     H92866   3.599  10.143   2.468 -1.0160  0.8958 -0.2777
  673MOL0     H92867   3.540  10.212   2.620 -0.9858 -0.6118 -0.0261
  673MOL0     H92868   3.560  10.396   2.471  0.9497  2.1235 -0.3599
  673MOL0     H92869   3.712  10.341   2.410 -1.1200  0.2504 -0.5047
  673MOL0     H92870   3.809  10.597   2.749  2.0988 -0.4688 -0.8279
  673MOL0     H92871   3.472  10.015   2.977  1.1557 -1.8975 -2.9621
  673MOL0     H92872   3.490  10.191   3.260 -5.0173  2.1967 -0.8091
  673MOL0     H92873   3.383  10.088   3.179 -0.3423  1.8474  0.3696
  673MOL0     H92874   3.471  10.015   3.313 -1.5189 -0.4248 -1.5067
  674MOL0     O92875   6.806   4.161   1.148  0.0201  0.2332  0.6437
  674MOL0     C92876   6.826   4.193   1.026 -0.1367 -0.2981  0.6522
  674MOL0     O92877   6.933   4.152   0.947  0.1304  0.3289  0.7078
  674MOL0     C92878   7.042   4.088   0.998  0.1419  0.4021  0.5644
  674MOL0     C92879   7.091   4.111   1.127 -0.3262  1.0333  0.6018
  674MOL0     C92880   7.216   4.055   1.177 -0.1458 -0.8149  0.1900
  674MOL0     C92881   7.292   3.973   1.089 -0.0150  0.1947 -0.1220
  674MOL0     O92882   7.402   3.906   1.132 -0.4838  0.0316 -0.4400
  674MOL0     C92883   7.516   3.888   1.044  0.1600 -0.3015 -0.1981
  674MOL0     C92884   7.651   3.869   1.114 -0.5956 -1.0079  0.0583
  674MOL0     C92885   7.692   3.975   1.215 -0.6740 -0.0104  0.2206
  674MOL0     C92886   7.811   3.938   1.296 -0.9662 -0.1307  0.5976
  674MOL0     C92887   7.860   4.051   1.384  0.6901 -0.4929  0.1818
  674MOL0     C92888   7.751   4.086   1.483  0.3141  0.2678 -0.4705
  674MOL0     C92889   7.802   4.175   1.598  0.6798  0.4095  0.7237
  674MOL0     C92890   7.688   4.199   1.700  0.5455 -0.8077 -0.0072
  674MOL0     N92891   7.750   4.259   1.824  0.1310 -0.1429 -0.2614
  674MOL0     C92892   7.811   4.377   1.828 -0.0807 -0.3835  0.0867
  674MOL0     C92893   7.865   4.382   1.950  0.3341 -0.3502 -0.0871
  674MOL0     C92894   7.959   4.491   1.993  0.4760 -0.4975  0.0886
  674MOL0     C92895   7.981   4.491   2.141 -0.3537 -0.1215  0.3016
  674MOL0     C92896   8.034   4.623   2.202 -0.4462 -0.4108 -0.0086
  674MOL0     C92897   8.140   4.712   2.125 -0.7459 -0.0248 -0.4250
  674MOL0     O92898   8.223   4.634   2.043 -0.5253  0.1802  0.2537
  674MOL0     C92899   8.313   4.544   2.092 -0.2415  0.2162  0.2801
  674MOL0     C92900   8.396   4.499   1.992 -0.0638  0.5273 -0.6546
  674MOL0     C92901   8.486   4.400   2.020 -0.7588  0.1310 -0.4700
  674MOL0     C92902   8.549   4.335   1.901 -1.0661  0.5300 -0.1943
  674MOL0     C92903   8.520   4.355   2.152 -0.3169 -0.0921 -0.0549
  674MOL0     C92904   8.645   4.285   2.184  0.8585  0.1621  0.0972
  674MOL0     O92905   8.655   4.250   2.316 -0.1387  0.2094 -0.5625
  674MOL0     C92906   8.773   4.226   2.382 -0.7065 -0.0654  0.0833
  674MOL0     C92907   8.762   4.183   2.519  0.3948  1.0532 -0.3935
  674MOL0     C92908   8.871   4.159   2.600 -1.0946 -0.0284 -0.7686
  674MOL0     C92909   8.993   4.132   2.531 -0.1872 -0.2395 -0.5235
  674MOL0     O92910   9.089   4.077   2.605  0.7136  0.6138 -0.2457
  674MOL0     C92911   9.203   4.028   2.536 -1.0203 -0.1443 -1.0379
  674MOL0     C92912   9.260   3.905   2.603  0.1368 -0.2223 -0.2331
  674MOL0     C92913   9.271   3.938   2.751  0.2279  0.4610 -0.1292
  674MOL0     C92914   9.381   3.849   2.828 -0.2516 -0.4304  0.1434
  674MOL0     C92915   9.421   3.903   2.966 -0.0063  0.4198  0.5407
  674MOL0     C92916   9.526   3.827   3.046  0.2147 -0.7056  0.4394
  674MOL0     C92917   9.662   3.833   2.970  0.7063  0.1761  0.0345
  674MOL0     C92918   9.778   3.782   3.053 -0.8651  0.0833  0.5381
  674MOL0    Cl92919   9.806   3.888   3.198  0.2131  0.1300  0.2299
  674MOL0     C92920   9.013   4.172   2.393  0.8873 -0.2225  0.6941
  674MOL0     C92921   8.900   4.211   2.317 -0.0557 -0.3258  0.0584
  674MOL0     O92922   8.723   4.258   2.093  0.3160 -0.2377  0.0360
  674MOL0     C92923   8.438   4.405   2.254 -0.5232 -0.4034  0.1986
  674MOL0     C92924   8.339   4.501   2.223 -0.1263  0.0369 -1.2140
  674MOL0     N92925   7.821   4.276   2.026  0.2107 -0.8017  0.4388
  674MOL0     N92926   7.759   4.192   1.944  0.5428  0.2760 -0.5951
  674MOL0     C92927   7.245   3.959   0.961 -0.1844 -0.5032  0.4350
  674MOL0     C92928   7.120   4.010   0.915  0.4061 -0.2021  0.1531
  674MOL0     C92929   6.722   4.269   0.952 -0.1216  0.0418  0.5306
  674MOL0     C92930   6.745   4.303   0.815  0.0183  0.2419 -0.5757
  674MOL0     C92931   6.652   4.374   0.736  0.8863 -0.9137  0.4616
  674MOL0     C92932   6.537   4.418   0.792  0.0072  0.2957 -0.0631
  674MOL0     O92933   6.461   4.485   0.700  0.0287 -0.0593  0.3355
  674MOL0     C92934   6.343   4.551   0.750  0.5307  0.3307 -0.8069
  674MOL0     C92935   6.269   4.620   0.627 -0.4035 -0.6495  0.2674
  674MOL0     C92936   6.127   4.674   0.672 -0.1689  0.4946 -0.6875
  674MOL0     C92937   6.075   4.769   0.574  0.1889 -0.6152  0.0691
  674MOL0     C92938   5.930   4.763   0.562  0.3164 -0.0712 -0.8755
  674MOL0     C92939   5.814   4.776   0.549  0.1685 -0.3953  0.1789
  674MOL0     C92940   6.518   4.391   0.929 -0.8583  0.4364  0.0952
  674MOL0     C92941   6.612   4.325   1.017  0.4553 -0.3204  1.1791
  674MOL0     C92942   6.575   4.301   1.156 -0.3503 -0.9224 -0.3438
  674MOL0     H92943   7.038   4.184   1.188 -1.4880 -0.9219  2.0621
  674MOL0     H92944   7.261   4.072   1.274 -1.9322 -1.2822  1.1484
  674MOL0     H92945   7.521   3.977   0.981 -1.2411  2.1137  2.8361
  674MOL0     H92946   7.502   3.799   0.982 -2.2314  0.4299 -0.8279
  674MOL0     H92947   7.641   3.771   1.161  0.7092 -2.2982 -2.1641
  674MOL0     H92948   7.732   3.845   1.044 -0.4473 -0.7293  0.1307
  674MOL0     H92949   7.705   4.071   1.166 -2.9902  0.1392 -0.2389
  674MOL0     H92950   7.610   3.981   1.288  0.8401  0.3237  1.9418
  674MOL0     H92951   7.791   3.854   1.363  0.2515 -0.4731  0.5588
  674MOL0     H92952   7.896   3.910   1.233  0.6136 -0.0172  2.5478
  674MOL0     H92953   7.887   4.134   1.319  1.0712 -2.0883 -1.8006
  674MOL0     H92954   7.943   4.005   1.439  0.4987 -2.9147 -1.3699
  674MOL0     H92955   7.664   4.131   1.435 -0.4060 -3.6073 -3.2229
  674MOL0     H92956   7.723   3.996   1.538  1.1325  0.1847 -0.1770
  674MOL0     H92957   7.821   4.275   1.557 -3.2070  2.2723  2.9599
  674MOL0     H92958   7.897   4.134   1.635  0.5943 -0.2970  0.1938
  674MOL0     H92959   7.609   4.264   1.662  0.1939 -1.5816 -0.6053
  674MOL0     H92960   7.649   4.102   1.731  0.1006 -0.1650  1.6000
  674MOL0     H92961   7.834   4.450   1.750  1.5962  0.1262  1.0089
  674MOL0     H92962   7.927   4.587   1.953  1.4758  0.9457  2.5279
  674MOL0     H92963   8.053   4.472   1.940  0.4020 -2.9582  0.6887
  674MOL0     H92964   7.889   4.468   2.195 -1.1524  5.0492  1.6526
  674MOL0     H92965   8.040   4.403   2.170 -1.1399 -1.0343 -0.7754
  674MOL0     H92966   7.945   4.686   2.215 -2.2571 -3.0669  1.5435
  674MOL0     H92967   8.067   4.601   2.304 -4.2581  0.7169  1.6823
  674MOL0     H92968   8.092   4.792   2.067  2.0799  4.2300  2.5552
  674MOL0     H92969   8.193   4.760   2.207 -5.0961 -1.4581  3.6834
  674MOL0     H92970   8.387   4.541   1.893  1.3990 -0.1526 -1.1043
  674MOL0     H92971   8.494   4.334   1.806 -1.0758  0.3418 -0.1873
  674MOL0     H92972   8.560   4.227   1.917 -2.8992  0.1372 -1.2787
  674MOL0     H92973   8.641   4.389   1.877 -2.4099  1.7448 -3.1212
  674MOL0     H92974   8.661   4.183   2.557 -0.1431 -0.1135 -1.7133
  674MOL0     H92975   8.866   4.139   2.706  2.2332  1.5269 -0.1987
  674MOL0     H92976   9.189   3.991   2.434  0.5704  2.1796 -2.1921
  674MOL0     H92977   9.271   4.114   2.537 -1.4491  0.2618  1.7257
  674MOL0     H92978   9.198   3.817   2.588 -0.2550 -0.1422  0.8207
  674MOL0     H92979   9.360   3.884   2.564  0.7065  0.5548  0.7579
  674MOL0     H92980   9.174   3.923   2.800 -0.2432 -2.3948 -1.7595
  674MOL0     H92981   9.311   4.037   2.776  1.1630 -0.0838  0.5979
  674MOL0     H92982   9.469   3.838   2.764  0.2932 -0.7399  0.9365
  674MOL0     H92983   9.340   3.749   2.838 -5.2754  1.1907 -1.1799
  674MOL0     H92984   9.452   4.008   2.966 -2.5515  1.2581 -0.5402
  674MOL0     H92985   9.329   3.905   3.026  0.0528 -0.5513  0.6744
  674MOL0     H92986   9.500   3.720   3.046 -1.2141 -0.3788  0.4513
  674MOL0     H92987   9.531   3.855   3.151 -0.6779 -1.4586  0.6979
  674MOL0     H92988   9.674   3.934   2.928  2.5752  0.4915  1.2231
  674MOL0     H92989   9.663   3.757   2.892  2.2569 -2.4248  2.4149
  674MOL0     H92990   9.871   3.764   2.998 -0.6327  0.8887  0.6508
  674MOL0     H92991   9.759   3.679   3.086 -0.0098 -0.1693  0.2753
  674MOL0     H92992   9.106   4.176   2.338  0.5203  1.0725  0.1360
  674MOL0     H92993   8.920   4.222   2.211  1.8743 -1.6973  0.2388
  674MOL0     H92994   8.446   4.362   2.353 -1.3662 -1.0428  0.0045
  674MOL0     H92995   8.277   4.524   2.309 -2.5561 -4.7786 -1.3296
  674MOL0     H92996   7.302   3.901   0.889  1.4660 -0.2186  1.4425
  674MOL0     H92997   7.088   3.996   0.812  0.4991  1.2999 -0.1029
  674MOL0     H92998   6.839   4.276   0.770 -1.4354 -0.0357 -3.6907
  674MOL0     H92999   6.679   4.414   0.639  1.8632  1.7215  1.6947
  674MOL0     H93000   6.282   4.472   0.795  3.5267 -0.7224  1.7540
  674MOL0     H93001   6.366   4.625   0.827 -1.1316  0.6780 -0.6157
  674MOL0     H93002   6.259   4.562   0.535  1.2797 -0.2178 -0.2308
  674MOL0     H93003   6.331   4.708   0.605  0.2428 -0.6081  2.0680
  674MOL0     H93004   6.060   4.588   0.670 -1.6316  1.5191  1.1532
  674MOL0     H93005   6.130   4.719   0.771  2.4603  0.8605 -0.8529
  674MOL0     H93006   6.106   4.740   0.473  2.8961 -0.4923  0.7669
  674MOL0     H93007   6.108   4.872   0.589  2.4931 -1.1540 -0.8784
  674MOL0     H93008   5.708   4.791   0.558  0.3078  0.0624  1.1851
  674MOL0     H93009   6.421   4.416   0.972 -0.5190 -0.4984  1.4953
  674MOL0     H93010   6.489   4.360   1.189 -2.2192 -4.1681  1.0227
  674MOL0     H93011   6.544   4.197   1.160 -1.1447 -0.7329 -1.1100
  674MOL0     H93012   6.646   4.328   1.235 -1.8457  0.9740  0.4552
  675MOL0     O93013   7.221   5.696   6.432 -0.0199  0.6095 -0.5435
  675MOL0     C93014   7.212   5.698   6.307  0.4532  0.3785 -0.1260
  675MOL0     O93015   7.305   5.747   6.228  0.9557 -0.3054  0.2562
  675MOL0     C93016   7.425   5.791   6.275 -0.3085 -0.1058 -0.6269
  675MOL0     C93017   7.529   5.751   6.192  0.0086 -0.1303  0.0104
  675MOL0     C93018   7.658   5.787   6.230 -0.4035 -0.7150 -0.4931
  675MOL0     C93019   7.686   5.858   6.350  0.7362 -0.2665 -0.8782
  675MOL0     O93020   7.823   5.873   6.383  1.0018 -0.2820  0.1829
  675MOL0     C93021   7.865   5.855   6.515  0.3388 -0.9543 -0.7843
  675MOL0     C93022   8.017   5.818   6.514  0.1176  0.4452  0.9031
  675MOL0     C93023   8.102   5.948   6.476 -0.4118 -0.2644 -1.0338
  675MOL0     C93024   8.239   5.924   6.546 -0.2951  0.1003 -1.3233
  675MOL0     C93025   8.315   5.816   6.469 -0.6452 -0.2546 -0.3856
  675MOL0     C93026   8.448   5.781   6.539  0.3380 -0.2767 -0.3137
  675MOL0     C93027   8.523   5.654   6.491  1.2837 -0.5778  0.6836
  675MOL0     C93028   8.668   5.640   6.545  0.1990 -0.4709  0.4225
  675MOL0     N93029   8.745   5.750   6.484 -0.3014 -0.4691 -0.0611
  675MOL0     C93030   8.770   5.774   6.352  0.0952  1.0462  0.2798
  675MOL0     C93031   8.818   5.896   6.330  0.4256  0.4282 -0.2096
  675MOL0     C93032   8.852   5.948   6.195 -0.1197  0.2921  0.0431
  675MOL0     C93033   8.896   6.088   6.200 -0.5978 -0.0394  0.2545
  675MOL0     C93034   9.017   6.112   6.300 -0.3328  0.2284  0.0232
  675MOL0     C93035   9.102   6.233   6.252  0.1459 -0.4161  0.0566
  675MOL0     O93036   9.167   6.219   6.113 -0.4342  0.6545  0.0227
  675MOL0     C93037   9.301   6.179   6.114  0.4733  0.7186  0.7914
  675MOL0     C93038   9.363   6.184   5.990 -0.4122  0.7334  0.7537
  675MOL0     C93039   9.503   6.164   5.975 -0.5229 -0.1891 -0.3573
  675MOL0     C93040   9.547   6.177   5.828 -0.3518 -0.7875 -1.0307
  675MOL0     C93041   9.583   6.122   6.089  0.2815  0.0913  0.2865
  675MOL0     C93042   9.737   6.104   6.083  0.5906 -0.7615 -0.0637
  675MOL0     O93043   9.783   6.009   6.170  0.1995 -0.7279  0.8027
  675MOL0     C93044   9.915   6.005   6.197  0.1551  0.4192 -0.2404
  675MOL0     C93045   9.955   6.072   6.316  0.7619  0.0079  0.0696
  675MOL0     C93046  10.088   6.062   6.350  0.0270 -0.1250  0.3469
  675MOL0     C93047  10.188   6.003   6.269  0.8571 -0.0121  0.6329
  675MOL0     O93048  10.318   5.996   6.297 -0.3841  0.3815 -0.1342
  675MOL0     C93049  10.385   6.121   6.333  0.2749  0.5226 -0.0343
  675MOL0     C93050  10.536   6.104   6.371 -0.1497  0.3797 -0.9160
  675MOL0     C93051  10.566   6.001   6.481  0.0032  1.0097  0.4359
  675MOL0     C93052  10.687   6.027   6.571 -0.9841  0.8679  0.7657
  675MOL0     C93053  10.816   6.001   6.482  0.0760  0.7536 -0.0682
  675MOL0     C93054  10.933   6.045   6.564 -0.2972 -0.5864  0.3854
  675MOL0     C93055  11.048   5.945   6.571 -0.4548 -0.1248  0.4283
  675MOL0     C93056  11.027   5.823   6.661  0.4486 -0.1342 -0.2767
  675MOL0    Cl93057  11.177   5.742   6.707 -0.6458 -0.5167  0.4295
  675MOL0     C93058  10.146   5.938   6.150 -0.7432 -0.7817 -0.0008
  675MOL0     C93059  10.012   5.941   6.109 -0.9077  1.5902  0.1109
  675MOL0     O93060   9.799   6.167   5.999 -0.0386 -0.3868  0.0491
  675MOL0     C93061   9.517   6.116   6.214 -0.8657  0.3844  0.6953
  675MOL0     C93062   9.379   6.143   6.223 -0.0393 -0.7769 -1.0490
  675MOL0     N93063   8.823   5.950   6.458 -0.5386  0.3757  0.1430
  675MOL0     N93064   8.778   5.869   6.542 -0.8633  0.3657  0.7351
  675MOL0     C93065   7.581   5.903   6.431  0.4256  0.1487  0.9846
  675MOL0     C93066   7.451   5.861   6.399 -0.3890 -0.3467  0.2382
  675MOL0     C93067   7.086   5.640   6.250 -0.3805  0.8160 -0.1840
  675MOL0     C93068   6.988   5.590   6.341  1.2423 -0.4719 -0.2613
  675MOL0     C93069   6.863   5.547   6.305 -0.2699 -0.0240  0.3308
  675MOL0     C93070   6.843   5.534   6.170  0.7072 -0.0791 -0.8092
  675MOL0     O93071   6.721   5.474   6.135  0.4200  0.0512  0.7826
  675MOL0     C93072   6.654   5.507   6.008 -0.1661  0.2107  0.2499
  675MOL0     C93073   6.681   5.399   5.903  0.1425 -0.3194 -0.5981
  675MOL0     C93074   6.611   5.262   5.926 -0.0402  0.1772  0.0143
  675MOL0     C93075   6.596   5.171   5.806  0.1923  0.4156 -0.5717
  675MOL0     C93076   6.500   5.216   5.708  0.6791 -0.8164 -0.4431
  675MOL0     C93077   6.407   5.250   5.637 -0.2250 -0.1870 -0.2826
  675MOL0     C93078   6.943   5.567   6.075 -0.8109 -0.0983  0.5477
  675MOL0     C93079   7.062   5.630   6.115 -0.3472  0.4637 -0.4627
  675MOL0     C93080   7.155   5.671   6.000  0.5550 -0.6936 -1.2236
  675MOL0     H93081   7.523   5.680   6.109  0.9026 -1.5034  1.0731
  675MOL0     H93082   7.747   5.767   6.171  0.8803  0.1746  1.0371
  675MOL0     H93083   7.808   5.786   6.578  0.4558  0.9787  1.5728
  675MOL0     H93084   7.849   5.947   6.572  1.3624 -1.6514  0.6821
  675MOL0     H93085   8.044   5.790   6.616  4.1191  0.3057 -0.0313
  675MOL0     H93086   8.041   5.728   6.456 -0.7108  1.3527 -0.9430
  675MOL0     H93087   8.114   5.960   6.368  0.7690  0.4986 -0.8371
  675MOL0     H93088   8.053   6.038   6.514 -0.2883 -0.6028 -0.0662
  675MOL0     H93089   8.304   6.012   6.549  3.3165 -2.3455  2.2523
  675MOL0     H93090   8.229   5.888   6.649  1.2520  1.5051 -0.6434
  675MOL0     H93091   8.331   5.857   6.368 -1.7142  0.7226 -0.1771
  675MOL0     H93092   8.254   5.725   6.476  0.0669 -0.8712 -1.7164
  675MOL0     H93093   8.521   5.862   6.530  0.2903 -0.3096 -0.9904
  675MOL0     H93094   8.413   5.778   6.643 -0.1703  2.1797 -0.3365
  675MOL0     H93095   8.524   5.652   6.382 -1.0464  1.3241  0.5315
  675MOL0     H93096   8.457   5.573   6.525  1.8627 -1.7712 -0.9343
  675MOL0     H93097   8.658   5.633   6.653 -2.6577  1.0419  0.3578
  675MOL0     H93098   8.715   5.548   6.511  0.2594 -0.6701  1.0409
  675MOL0     H93099   8.751   5.711   6.266  1.7585 -0.8686  1.2119
  675MOL0     H93100   8.764   5.944   6.130 -0.3353 -0.6635  0.3787
  675MOL0     H93101   8.936   5.887   6.164 -0.5148 -0.2962  0.1208
  675MOL0     H93102   8.922   6.112   6.096 -0.8046 -1.0735 -0.0454
  675MOL0     H93103   8.820   6.163   6.223 -0.2461  0.7211 -0.9086
  675MOL0     H93104   8.996   6.111   6.408  1.5273 -2.6088  0.4698
  675MOL0     H93105   9.083   6.025   6.290 -2.1875 -1.0950 -1.5534
  675MOL0     H93106   9.030   6.315   6.239 -1.8783 -2.1287 -0.0837
  675MOL0     H93107   9.167   6.271   6.331  0.9255 -0.0252 -0.7635
  675MOL0     H93108   9.308   6.203   5.898  1.2522  0.8019 -0.2757
  675MOL0     H93109   9.479   6.121   5.762  0.5788 -1.4415 -1.4554
  675MOL0     H93110   9.642   6.125   5.815  1.2914  1.9801 -0.8173
  675MOL0     H93111   9.560   6.283   5.806 -2.6251 -0.4531 -1.0360
  675MOL0     H93112   9.876   6.127   6.365 -0.1943 -0.6907 -0.6361
  675MOL0     H93113  10.114   6.116   6.441 -0.9570  0.7627  0.1206
  675MOL0     H93114  10.376   6.182   6.242 -1.3246  1.2744  0.5840
  675MOL0     H93115  10.339   6.167   6.421  1.2618 -1.2144  1.4531
  675MOL0     H93116  10.592   6.065   6.286  1.9191 -1.6467  1.2251
  675MOL0     H93117  10.574   6.202   6.401  2.2709 -0.2272 -1.8180
  675MOL0     H93118  10.576   5.905   6.430  0.4410  0.5122  1.4333
  675MOL0     H93119  10.474   6.004   6.541  0.6602  0.2111  1.5114
  675MOL0     H93120  10.685   5.957   6.656  0.2536 -2.7736 -1.9659
  675MOL0     H93121  10.683   6.131   6.604 -2.2190  0.4349  2.1174
  675MOL0     H93122  10.821   5.895   6.455  1.4311  1.4973 -3.2662
  675MOL0     H93123  10.815   6.052   6.386  2.2174 -0.1320 -0.6347
  675MOL0     H93124  10.902   6.058   6.668 -0.9587  1.0202  0.0179
  675MOL0     H93125  10.962   6.143   6.525 -1.0251 -1.1040 -1.5512
  675MOL0     H93126  11.125   6.016   6.603 -0.4881  1.1554 -2.0883
  675MOL0     H93127  11.079   5.912   6.472  0.3407  2.5104 -0.2941
  675MOL0     H93128  10.955   5.758   6.612 -0.6004  1.4756 -0.9693
  675MOL0     H93129  10.973   5.863   6.748 -0.4453 -0.3609 -0.7219
  675MOL0     H93130  10.224   5.905   6.083 -0.6152 -1.8498  0.6607
  675MOL0     H93131   9.984   5.881   6.023  0.9345  1.8680 -0.7221
  675MOL0     H93132   9.570   6.085   6.303 -2.5796 -2.0247  0.9723
  675MOL0     H93133   9.340   6.140   6.324 -0.5573 -1.5391 -1.2633
  675MOL0     H93134   7.600   5.952   6.525 -1.5853  0.0300  1.4981
  675MOL0     H93135   7.362   5.894   6.452 -0.1646  0.4572  0.1308
  675MOL0     H93136   7.009   5.594   6.448 -1.0517 -0.6622  0.2356
  675MOL0     H93137   6.791   5.528   6.384  0.4093 -0.6227  0.8056
  675MOL0     H93138   6.546   5.516   6.027 -0.6610 -2.4495 -0.7836
  675MOL0     H93139   6.679   5.603   5.962  0.2883 -0.4477 -0.9149
  675MOL0     H93140   6.786   5.377   5.887 -0.0852 -1.8629 -0.1135
  675MOL0     H93141   6.631   5.441   5.815  0.7561  1.1441 -0.2753
  675MOL0     H93142   6.668   5.220   6.010  3.2377  1.3934 -1.4552
  675MOL0     H93143   6.516   5.282   5.976 -0.6339  2.5157 -1.8684
  675MOL0     H93144   6.567   5.072   5.840 -0.0639 -0.6489 -3.5968
  675MOL0     H93145   6.693   5.156   5.758  0.8089 -1.4986  1.1907
  675MOL0     H93146   6.326   5.290   5.579 -0.8122 -1.1112 -0.1099
  675MOL0     H93147   6.930   5.541   5.970  1.5753  1.9598 -0.3314
  675MOL0     H93148   7.113   5.616   5.916  1.5502 -0.2534 -2.0365
  675MOL0     H93149   7.152   5.779   5.983 -0.4055 -0.3964  0.6195
  675MOL0     H93150   7.258   5.635   6.009  0.5467 -0.4489  0.0994
  676MOL0     O93151   3.783   5.890   0.348 -0.2864 -0.0132 -0.0667
  676MOL0     C93152   3.746   5.983   0.272  0.2678  0.5340  0.4087
  676MOL0     O93153   3.809   6.103   0.262  0.4646  0.3415 -0.3737
  676MOL0     C93154   3.930   6.104   0.317  0.1694  0.6191 -0.1493
  676MOL0     C93155   3.953   6.141   0.454  0.8535 -0.8291  0.5278
  676MOL0     C93156   4.089   6.157   0.495  0.0530 -0.0379  0.5336
  676MOL0     C93157   4.200   6.123   0.409 -0.2701 -0.4475 -0.0081
  676MOL0     O93158   4.330   6.130   0.438 -0.3112  0.4451 -0.2579
  676MOL0     C93159   4.373   6.181   0.573  0.2036  0.2005  0.2234
  676MOL0     C93160   4.522   6.153   0.582 -0.5567 -0.7289 -0.1652
  676MOL0     C93161   4.593   6.256   0.676  0.5013 -0.0910  0.9899
  676MOL0     C93162   4.724   6.198   0.733  0.0038 -0.5353 -0.2916
  676MOL0     C93163   4.819   6.304   0.803  0.1861  1.0166 -0.4949
  676MOL0     C93164   4.776   6.346   0.943 -0.2830 -0.1905 -0.1140
  676MOL0     C93165   4.866   6.454   1.007 -0.0477 -0.5607 -0.3572
  676MOL0     C93166   5.007   6.415   1.036 -0.3264  0.8502  0.4575
  676MOL0     N93167   5.094   6.524   1.104 -0.1979  0.7741 -0.2919
  676MOL0     C93168   5.056   6.652   1.146  0.0310  0.5387  0.1292
  676MOL0     C93169   5.163   6.708   1.209 -0.1648 -0.4589 -0.2851
  676MOL0     C93170   5.167   6.832   1.298  0.1671 -0.2503 -1.2795
  676MOL0     C93171   5.186   6.957   1.213 -0.2539 -0.0130  0.9586
  676MOL0     C93172   5.173   7.077   1.305  0.0124  0.1261  0.4396
  676MOL0     C93173   5.297   7.095   1.387 -1.1253 -0.0848  0.0978
  676MOL0     O93174   5.403   7.143   1.290 -0.2636  0.4935 -0.1698
  676MOL0     C93175   5.528   7.174   1.343 -0.4998  0.5113  0.8828
  676MOL0     C93176   5.610   7.253   1.259  0.7553  0.7503 -0.2202
  676MOL0     C93177   5.744   7.292   1.288  0.4034  0.0738  0.8706
  676MOL0     C93178   5.806   7.363   1.174  0.6010 -0.9142  0.5234
  676MOL0     C93179   5.791   7.266   1.415 -0.5906  0.1360 -1.3110
  676MOL0     C93180   5.928   7.317   1.460 -0.2144 -0.7089 -0.4243
  676MOL0     O93181   5.941   7.314   1.592  0.5191  0.3367 -0.4535
  676MOL0     C93182   6.052   7.364   1.658 -0.1897 -0.1473  0.1457
  676MOL0     C93183   6.101   7.494   1.642  0.3759 -0.5918 -1.1286
  676MOL0     C93184   6.215   7.539   1.709 -0.1793  0.1499 -0.6844
  676MOL0     C93185   6.284   7.448   1.792 -0.3797  0.6927 -0.9427
  676MOL0     O93186   6.399   7.486   1.859  0.5989  0.3830  0.0699
  676MOL0     C93187   6.486   7.408   1.938  0.0363  0.2691 -0.2496
  676MOL0     C93188   6.613   7.497   1.969  0.5020  0.1544 -0.0753
  676MOL0     C93189   6.671   7.570   1.844  0.1177 -0.2539  0.2203
  676MOL0     C93190   6.821   7.546   1.822  0.1538  0.1015  1.0896
  676MOL0     C93191   6.873   7.601   1.687  0.1957 -0.2862 -0.1210
  676MOL0     C93192   6.909   7.739   1.716 -0.3830  0.2595 -0.2937
  676MOL0     C93193   6.962   7.834   1.598 -0.1236 -0.2107  0.5263
  676MOL0     C93194   6.871   7.821   1.475 -0.0371 -0.4165 -0.2106
  676MOL0    Cl93195   6.698   7.863   1.517 -0.0730  0.2670  0.1497
  676MOL0     C93196   6.238   7.319   1.808  1.1874  0.2882 -0.1273
  676MOL0     C93197   6.127   7.282   1.744  0.3516 -0.4489 -0.4706
  676MOL0     O93198   6.020   7.357   1.383  0.2742  0.3763  0.2775
  676MOL0     C93199   5.709   7.186   1.502  0.4997 -0.1388 -0.2946
  676MOL0     C93200   5.579   7.137   1.468 -0.7327 -0.1117 -0.4528
  676MOL0     N93201   5.261   6.609   1.214  0.0935 -0.3769  0.8819
  676MOL0     N93202   5.224   6.503   1.147 -1.3851 -0.7523 -0.2144
  676MOL0     C93203   4.165   6.082   0.283 -0.6406 -0.6348 -0.9411
  676MOL0     C93204   4.036   6.072   0.231 -1.1363  0.1957 -0.3695
  676MOL0     C93205   3.624   5.948   0.194  0.2269  0.8133 -0.9682
  676MOL0     C93206   3.607   6.008   0.070  0.1439  0.2538 -0.1095
  676MOL0     C93207   3.485   6.004  -0.000  0.1397 -0.2835  1.0526
  676MOL0     C93208   3.383   5.925   0.046 -0.3190  0.1408 -0.3080
  676MOL0     O93209   3.270   5.913  -0.037 -0.0817  0.6148  0.1074
  676MOL0     C93210   3.145   5.861   0.009  0.2349  0.2504 -0.3783
  676MOL0     C93211   3.045   5.914  -0.091 -0.4229 -0.2999 -0.2052
  676MOL0     C93212   2.904   5.859  -0.051  0.6634 -0.0269 -0.1384
  676MOL0     C93213   2.841   5.954   0.051 -0.2779  0.5273 -0.5402
  676MOL0     C93214   2.698   5.927   0.064 -0.5003  0.2188 -0.7485
  676MOL0     C93215   2.581   5.905   0.077 -0.6479  0.0806 -0.6370
  676MOL0     C93216   3.392   5.874   0.179  1.0312 -0.3493 -0.5876
  676MOL0     C93217   3.507   5.883   0.253 -0.6260 -0.5215 -0.8302
  676MOL0     C93218   3.498   5.811   0.386 -0.8649  0.7550 -0.1149
  676MOL0     H93219   3.866   6.160   0.516  0.2725 -0.8309 -0.2756
  676MOL0     H93220   4.097   6.202   0.593  0.3863  0.6088  0.2152
  676MOL0     H93221   4.311   6.132   0.648 -2.3562  0.1259 -1.7990
  676MOL0     H93222   4.361   6.288   0.594  1.1967  0.0446  1.7509
  676MOL0     H93223   4.552   6.059   0.628 -1.4764 -0.0044  1.9986
  676MOL0     H93224   4.571   6.176   0.486  2.3620 -0.8371  1.1841
  676MOL0     H93225   4.605   6.351   0.623 -1.7659 -0.9229 -1.2491
  676MOL0     H93226   4.526   6.271   0.762 -1.5027 -1.5454 -0.2305
  676MOL0     H93227   4.694   6.129   0.812  1.5596  1.2991  2.0606
  676MOL0     H93228   4.780   6.149   0.653  2.0193  0.0347  0.7006
  676MOL0     H93229   4.820   6.395   0.742  1.5200  2.3878  1.4542
  676MOL0     H93230   4.922   6.268   0.793 -0.3224 -0.1185 -2.1485
  676MOL0     H93231   4.670   6.372   0.933 -0.7248 -2.0796 -0.6825
  676MOL0     H93232   4.780   6.264   1.015  0.1091 -0.3472 -0.3152
  676MOL0     H93233   4.820   6.483   1.102  1.0299  1.0862 -0.3002
  676MOL0     H93234   4.872   6.544   0.946 -0.2343  0.2232  0.7478
  676MOL0     H93235   5.019   6.314   1.075  1.3968  0.9949  0.3486
  676MOL0     H93236   5.051   6.390   0.939  0.0824  2.1951  0.2638
  676MOL0     H93237   4.954   6.690   1.136 -0.2551  1.6082  4.6376
  676MOL0     H93238   5.254   6.815   1.362  0.0592  0.6203 -0.8883
  676MOL0     H93239   5.073   6.840   1.354 -1.5500  1.2330 -4.0938
  676MOL0     H93240   5.276   6.960   1.151 -1.5717  1.2480 -1.0009
  676MOL0     H93241   5.102   6.964   1.142 -0.4828  0.1210  1.2396
  676MOL0     H93242   5.163   7.168   1.246 -1.8906  0.2458  0.8632
  676MOL0     H93243   5.085   7.074   1.370 -0.2847  3.4089  0.3823
  676MOL0     H93244   5.297   7.170   1.466 -0.7101  1.7226 -1.5535
  676MOL0     H93245   5.328   7.004   1.440  2.2840  0.4910 -0.6620
  676MOL0     H93246   5.561   7.264   1.163 -0.7537 -0.6607  0.3456
  676MOL0     H93247   5.754   7.331   1.084 -1.4547  2.0900  0.4883
  676MOL0     H93248   5.916   7.365   1.166  0.4655  0.3953 -1.8916
  676MOL0     H93249   5.780   7.469   1.179 -0.8910 -0.9948 -2.9461
  676MOL0     H93250   6.037   7.560   1.585 -2.8549 -0.3281  2.4384
  676MOL0     H93251   6.252   7.641   1.709 -2.2474  0.9583  0.0757
  676MOL0     H93252   6.449   7.370   2.034 -2.0721 -0.9019 -1.4668
  676MOL0     H93253   6.519   7.325   1.874  2.4719 -0.2880  1.5450
  676MOL0     H93254   6.595   7.577   2.042  2.2942  1.6962 -1.2446
  676MOL0     H93255   6.690   7.424   1.994  1.9176  1.3422 -0.8069
  676MOL0     H93256   6.646   7.676   1.854  1.6774  0.2234 -0.5931
  676MOL0     H93257   6.627   7.554   1.745 -1.2620  0.7911  0.6403
  676MOL0     H93258   6.832   7.437   1.821 -2.5316 -0.3201 -2.6082
  676MOL0     H93259   6.887   7.576   1.904 -1.4181  0.4346  2.2619
  676MOL0     H93260   6.958   7.535   1.667 -0.9033 -1.6689 -0.4126
  676MOL0     H93261   6.792   7.591   1.614  0.5136 -0.5769 -0.4355
  676MOL0     H93262   6.989   7.742   1.791  0.0626  0.3382 -0.7651
  676MOL0     H93263   6.832   7.795   1.769  0.6510  1.0170  0.4483
  676MOL0     H93264   7.056   7.802   1.553 -1.5131 -1.8748 -1.3512
  676MOL0     H93265   6.967   7.937   1.636  1.1241 -0.5509  1.3472
  676MOL0     H93266   6.889   7.724   1.427  2.5522  0.9073 -2.1685
  676MOL0     H93267   6.893   7.900   1.402 -0.3848  0.7574  0.9142
  676MOL0     H93268   6.293   7.255   1.876  2.0258  3.5194  2.4572
  676MOL0     H93269   6.099   7.181   1.772  1.9718 -0.2023  2.3736
  676MOL0     H93270   5.739   7.177   1.606 -0.7666  1.9859  0.3113
  676MOL0     H93271   5.514   7.081   1.534 -0.1699  0.8707  0.9696
  676MOL0     H93272   4.248   6.058   0.217 -1.6068 -0.5260 -2.2330
  676MOL0     H93273   4.008   6.050   0.128  0.2028  2.1348 -1.2185
  676MOL0     H93274   3.698   6.056   0.035  0.4665 -0.0558  0.3115
  676MOL0     H93275   3.473   6.051  -0.097 -2.0070  0.3826  1.5988
  676MOL0     H93276   3.143   5.754   0.030 -0.5543  0.7415  2.5281
  676MOL0     H93277   3.130   5.901   0.110  2.7654 -0.0333  0.1700
  676MOL0     H93278   3.088   5.874  -0.184  0.8269 -2.8504  1.3499
  676MOL0     H93279   3.052   6.022  -0.103  3.6882 -0.3027  0.5666
  676MOL0     H93280   2.837   5.838  -0.135  0.7176  0.9538 -0.4303
  676MOL0     H93281   2.908   5.762   0.000 -0.0032 -1.4921 -2.6719
  676MOL0     H93282   2.863   6.057   0.021  0.0641  0.5122 -0.3526
  676MOL0     H93283   2.892   5.935   0.146  2.6737 -1.9356 -2.4115
  676MOL0     H93284   2.478   5.875   0.077 -1.4159  2.4873  0.4056
  676MOL0     H93285   3.303   5.830   0.221  2.4685  0.0574  3.3040
  676MOL0     H93286   3.392   5.805   0.411 -0.8258 -0.8871 -0.2463
  676MOL0     H93287   3.537   5.711   0.367 -1.3750  0.4985  0.1712
  676MOL0     H93288   3.549   5.848   0.475  0.7634 -2.2855  0.3679
  677MOL0     O93289   7.697   6.408   2.978  0.6096  0.0452 -0.1919
  677MOL0     C93290   7.700   6.383   3.095 -0.1113 -0.2722  0.4440
  677MOL0     O93291   7.802   6.318   3.160 -0.1964 -0.1046 -0.0960
  677MOL0     C93292   7.910   6.256   3.091  1.0715  0.0984 -0.5382
  677MOL0     C93293   7.896   6.186   2.971 -0.5124 -1.0371 -0.1979
  677MOL0     C93294   8.000   6.131   2.904  0.2460  0.0814  0.0779
  677MOL0     C93295   8.129   6.144   2.959  0.0015 -0.8648 -0.5259
  677MOL0     O93296   8.239   6.098   2.892 -0.1045  0.2396 -0.2050
  677MOL0     C93297   8.259   6.141   2.756 -0.4696 -0.1461  0.0648
  677MOL0     C93298   8.400   6.106   2.718 -0.9969 -0.2250 -0.5394
  677MOL0     C93299   8.415   5.956   2.712  0.0379  1.1965  0.5759
  677MOL0     C93300   8.569   5.923   2.675  0.3914  0.7905 -0.0099
  677MOL0     C93301   8.592   5.775   2.643  0.1872  0.5548  0.3733
  677MOL0     C93302   8.740   5.742   2.660 -0.1401  0.2000  0.3962
  677MOL0     C93303   8.776   5.613   2.592  0.0995 -0.0660 -0.2103
  677MOL0     C93304   8.925   5.575   2.629 -0.1476  0.7078  0.0769
  677MOL0     N93305   8.985   5.468   2.541  0.3416 -0.5827 -0.3096
  677MOL0     C93306   9.006   5.479   2.409  0.6886  0.2181 -0.3675
  677MOL0     C93307   9.047   5.355   2.371  0.1585  0.9606 -0.1596
  677MOL0     C93308   9.100   5.313   2.241 -0.4986 -0.5679  0.5303
  677MOL0     C93309   9.250   5.302   2.242  0.4185  0.3312 -0.5834
  677MOL0     C93310   9.299   5.256   2.100  0.3467  0.5371  0.1397
  677MOL0     C93311   9.448   5.265   2.093 -0.0836 -0.1208  0.0114
  677MOL0     O93312   9.491   5.199   1.970 -0.1067  0.5190 -0.0147
  677MOL0     C93313   9.627   5.185   1.940  0.4227  0.5115  0.0368
  677MOL0     C93314   9.666   5.162   1.811  0.2383  0.5594  0.5028
  677MOL0     C93315   9.804   5.150   1.771  0.6565  0.1256 -0.2046
  677MOL0     C93316   9.835   5.108   1.628 -0.0195  0.4576  0.8848
  677MOL0     C93317   9.907   5.182   1.868 -0.3930  0.0609  0.0168
  677MOL0     C93318  10.047   5.188   1.825  0.3093 -0.1833  0.2144
  677MOL0     O93319  10.090   5.275   1.733 -0.1463 -0.4786  0.4032
  677MOL0     C93320  10.219   5.325   1.736 -1.0413 -0.3705  0.7637
  677MOL0     C93321  10.293   5.345   1.612  0.1989 -0.6619 -0.0167
  677MOL0     C93322  10.426   5.390   1.615 -0.7068  0.7109  0.5746
  677MOL0     C93323  10.492   5.417   1.737 -0.0017  0.9414  0.1991
  677MOL0     O93324  10.622   5.478   1.729  0.8720  0.6779  0.0514
  677MOL0     C93325  10.694   5.490   1.854  0.1033  0.1495 -1.5714
  677MOL0     C93326  10.842   5.536   1.826  0.0542  0.3703  0.0705
  677MOL0     C93327  10.913   5.454   1.718 -1.2903 -0.7542 -0.0341
  677MOL0     C93328  11.045   5.516   1.684  0.2761 -0.2215  0.7751
  677MOL0     C93329  11.139   5.408   1.612 -0.5585 -0.0099  0.9308
  677MOL0     C93330  11.265   5.476   1.561 -0.6915  0.2691  0.6846
  677MOL0     C93331  11.335   5.383   1.465 -0.3167  0.2301  0.1186
  677MOL0     C93332  11.492   5.400   1.453  0.2241  0.0599  1.5044
  677MOL0    Cl93333  11.530   5.573   1.388  0.2516 -0.2812  0.2728
  677MOL0     C93334  10.430   5.391   1.858  0.5932 -0.1057 -0.2812
  677MOL0     C93335  10.291   5.339   1.861 -0.0193  0.2498  0.1852
  677MOL0     O93336  10.116   5.112   1.887  0.7127  0.2431  0.3043
  677MOL0     C93337   9.863   5.205   2.001 -0.4097 -0.0605 -0.7937
  677MOL0     C93338   9.731   5.203   2.041 -0.5857  0.1201  0.5510
  677MOL0     N93339   9.047   5.282   2.486 -0.1424  0.4161  0.5143
  677MOL0     N93340   9.019   5.348   2.587  0.3027 -0.2919 -0.3560
  677MOL0     C93341   8.149   6.199   3.084 -0.5504  1.0448 -1.1695
  677MOL0     C93342   8.033   6.250   3.149 -1.1246  0.6095  0.3049
  677MOL0     C93343   7.593   6.430   3.182  0.7292  0.1022 -0.4539
  677MOL0     C93344   7.614   6.435   3.327  0.9588 -0.4821 -0.1878
  677MOL0     C93345   7.513   6.450   3.421 -0.0155 -0.0348 -0.0855
  677MOL0     C93346   7.376   6.468   3.374 -0.2053  1.3034  0.6276
  677MOL0     O93347   7.263   6.456   3.457  0.5980  0.2129  0.2267
  677MOL0     C93348   7.288   6.491   3.597  0.1467 -0.6778 -0.2917
  677MOL0     C93349   7.165   6.498   3.678  0.0649 -0.0311  0.0762
  677MOL0     C93350   7.167   6.450   3.826 -0.1348 -0.3928  0.2075
  677MOL0     C93351   7.153   6.579   3.915 -0.5248  0.2225 -0.2596
  677MOL0     C93352   7.276   6.660   3.903 -0.4807  0.1961  0.3026
  677MOL0     C93353   7.381   6.728   3.901  0.4371  0.0646  0.3912
  677MOL0     C93354   7.358   6.457   3.240  0.2628  0.0825  1.0673
  677MOL0     C93355   7.456   6.448   3.142 -0.1686 -0.3885  0.4603
  677MOL0     C93356   7.408   6.438   2.996  0.2768  0.1842 -0.1030
  677MOL0     H93357   7.798   6.179   2.925  0.5281 -0.9063 -2.5799
  677MOL0     H93358   7.977   6.080   2.811  0.3411 -0.2693  0.2444
  677MOL0     H93359   8.246   6.250   2.762  1.6444  0.0474  3.0103
  677MOL0     H93360   8.180   6.096   2.694 -1.0779 -0.2745  0.9253
  677MOL0     H93361   8.425   6.147   2.620 -1.2826 -0.3876 -0.6827
  677MOL0     H93362   8.465   6.135   2.801 -0.4580 -1.9145 -0.3232
  677MOL0     H93363   8.401   5.902   2.806  1.5809  0.7841  0.5965
  677MOL0     H93364   8.353   5.916   2.631  1.6049 -0.9439  0.3410
  677MOL0     H93365   8.584   5.983   2.585 -1.7491  3.7348  1.4270
  677MOL0     H93366   8.638   5.956   2.754 -0.5558  1.0418  0.7296
  677MOL0     H93367   8.559   5.753   2.541 -1.0753 -1.7695  1.2018
  677MOL0     H93368   8.522   5.717   2.704  0.1049 -0.5690 -0.7369
  677MOL0     H93369   8.798   5.822   2.614  2.0823 -2.5189 -1.8859
  677MOL0     H93370   8.768   5.728   2.765  2.8504  0.4660 -0.2808
  677MOL0     H93371   8.760   5.623   2.484 -3.6355 -1.8660  0.0161
  677MOL0     H93372   8.702   5.537   2.618 -0.1089  0.3634  0.4969
  677MOL0     H93373   8.985   5.665   2.612  0.4470  0.2939 -0.0142
  677MOL0     H93374   8.931   5.553   2.735  1.7438 -0.3288 -0.2048
  677MOL0     H93375   8.999   5.565   2.343 -0.8350  0.4346  0.0343
  677MOL0     H93376   9.076   5.384   2.162 -0.7964  0.5696  1.5979
  677MOL0     H93377   9.049   5.220   2.216 -1.6009 -0.3484  1.8259
  677MOL0     H93378   9.295   5.397   2.273  0.4425 -0.4265  1.9243
  677MOL0     H93379   9.281   5.228   2.316  2.1098 -1.5719 -3.0501
  677MOL0     H93380   9.274   5.154   2.070  0.5376  1.3441 -3.1850
  677MOL0     H93381   9.260   5.332   2.031  0.6916  1.9379  1.4498
  677MOL0     H93382   9.482   5.368   2.104  2.2702 -0.4302 -2.9551
  677MOL0     H93383   9.481   5.200   2.174 -0.0362 -0.9700 -0.6708
  677MOL0     H93384   9.586   5.138   1.742 -0.0667 -0.1269  1.0856
  677MOL0     H93385   9.874   5.189   1.567 -1.7348 -0.6222 -1.8308
  677MOL0     H93386   9.763   5.041   1.580  0.5908  0.4813 -0.0737
  677MOL0     H93387   9.914   5.033   1.636 -0.6419 -0.8185 -2.8354
  677MOL0     H93388  10.233   5.334   1.523 -0.7772 -1.0844  0.6773
  677MOL0     H93389  10.472   5.416   1.520 -0.6431  3.7574  1.3248
  677MOL0     H93390  10.655   5.568   1.920 -1.5125 -1.2351 -0.8276
  677MOL0     H93391  10.700   5.393   1.904  2.5329  0.8850 -0.2672
  677MOL0     H93392  10.824   5.636   1.786 -1.2914  0.5012  0.9163
  677MOL0     H93393  10.899   5.550   1.918  0.1205 -1.5964  0.3797
  677MOL0     H93394  10.847   5.449   1.631 -1.4530  0.9922 -0.0361
  677MOL0     H93395  10.937   5.354   1.756 -0.9368 -1.0320 -0.9610
  677MOL0     H93396  11.089   5.558   1.776  2.0664 -1.1052  0.3608
  677MOL0     H93397  11.037   5.605   1.620  0.4945 -0.1557  0.8397
  677MOL0     H93398  11.165   5.336   1.690  0.4863 -0.1377  0.4728
  677MOL0     H93399  11.083   5.361   1.530 -3.1028  0.7225  2.1301
  677MOL0     H93400  11.337   5.498   1.640  1.6781 -0.0808 -1.2886
  677MOL0     H93401  11.241   5.572   1.514  0.0080  1.0402  1.8432
  677MOL0     H93402  11.301   5.395   1.362 -1.1162 -2.3592  0.0191
  677MOL0     H93403  11.306   5.282   1.495  0.0502  0.2286  0.4841
  677MOL0     H93404  11.538   5.330   1.381 -1.3965  0.5665 -0.1098
  677MOL0     H93405  11.539   5.378   1.549 -1.1992  1.6396  2.6214
  677MOL0     H93406  10.467   5.404   1.959 -1.8882  0.2300  0.6611
  677MOL0     H93407  10.230   5.321   1.949 -0.7457  3.6340  0.4847
  677MOL0     H93408   9.940   5.230   2.074  3.5207  0.4901 -4.6435
  677MOL0     H93409   9.715   5.216   2.147  0.9824  1.3137  0.6704
  677MOL0     H93410   8.251   6.197   3.121 -1.4003 -1.6468  1.4902
  677MOL0     H93411   8.036   6.288   3.251  0.7134 -1.3452  1.0455
  677MOL0     H93412   7.713   6.421   3.370  0.3736 -1.6952  0.8674
  677MOL0     H93413   7.527   6.430   3.527 -0.0616 -1.2497 -0.2962
  677MOL0     H93414   7.358   6.420   3.643  1.5940  1.4206  0.9484
  677MOL0     H93415   7.342   6.586   3.601 -2.4374  0.9613 -1.8379
  677MOL0     H93416   7.087   6.441   3.626 -2.7415  1.9686  1.7973
  677MOL0     H93417   7.142   6.603   3.658  1.4368  0.2071 -0.3867
  677MOL0     H93418   7.079   6.390   3.849 -1.2562  1.7852  1.9417
  677MOL0     H93419   7.262   6.401   3.852  1.5148  3.1441  1.5580
  677MOL0     H93420   7.136   6.557   4.021  2.7222  1.4516  0.6533
  677MOL0     H93421   7.069   6.641   3.884 -1.1531 -0.2233  0.5276
  677MOL0     H93422   7.470   6.785   3.887  0.7100 -0.6868 -1.1494
  677MOL0     H93423   7.256   6.439   3.204  0.4007 -0.3259  0.8740
  677MOL0     H93424   7.300   6.420   2.986  0.0866  2.0128 -2.0097
  677MOL0     H93425   7.426   6.535   2.948  2.6340 -0.1366  0.0110
  677MOL0     H93426   7.460   6.362   2.938 -1.8363 -0.8581 -0.7422
  678MOL0     O93427  10.855   7.876   2.608 -0.1040 -0.2898 -0.6153
  678MOL0     C93428  10.890   7.764   2.645  0.3692 -0.2997  0.2455
  678MOL0     O93429  11.010   7.707   2.613 -0.4158 -0.1989  0.5635
  678MOL0     C93430  11.108   7.781   2.551  0.0192 -0.8588 -0.5184
  678MOL0     C93431  11.183   7.867   2.628  0.8890  0.5169 -0.2549
  678MOL0     C93432  11.284   7.946   2.574 -0.2312  0.0072  0.0740
  678MOL0     C93433  11.302   7.943   2.434 -0.6649  0.3771  0.0099
  678MOL0     O93434  11.370   8.044   2.371 -0.7859  0.1434  0.8048
  678MOL0     C93435  11.310   8.173   2.398 -1.5051 -0.1416 -0.7564
  678MOL0     C93436  11.348   8.262   2.276 -1.0112 -0.6254  0.7295
  678MOL0     C93437  11.504   8.301   2.273  0.0052  0.2027 -0.0135
  678MOL0     C93438  11.536   8.408   2.161  0.0515  0.5759  0.2562
  678MOL0     C93439  11.676   8.401   2.093 -0.1075  0.6648 -0.1407
  678MOL0     C93440  11.773   8.438   2.198 -0.2410 -0.6167 -0.0373
  678MOL0     C93441  11.922   8.443   2.150  0.2872 -0.5935 -0.1446
  678MOL0     C93442  12.032   8.440   2.256  0.5528 -0.2478 -0.8801
  678MOL0     N93443  12.167   8.412   2.196  0.2519 -0.0999  0.6722
  678MOL0     C93444  12.223   8.283   2.190 -0.1360  0.4530 -0.8383
  678MOL0     C93445  12.366   8.300   2.194  0.2835 -0.3754  0.4048
  678MOL0     C93446  12.468   8.184   2.203  0.4019  0.6901 -0.5950
  678MOL0     C93447  12.561   8.165   2.087 -0.3952 -0.8724 -0.3962
  678MOL0     C93448  12.670   8.270   2.085 -0.0177 -0.0886 -0.0327
  678MOL0     C93449  12.789   8.230   2.167 -0.9765  1.1003 -0.5186
  678MOL0     O93450  12.898   8.320   2.148  0.5029  0.2134  0.5736
  678MOL0     C93451  13.016   8.265   2.104  0.2125 -0.2113 -0.4113
  678MOL0     C93452  13.089   8.177   2.188 -0.1160 -0.5137  0.6194
  678MOL0     C93453  13.212   8.129   2.154  0.0176 -0.1347  0.2502
  678MOL0     C93454  13.283   8.054   2.263 -0.1593  0.2519 -0.1813
  678MOL0     C93455  13.265   8.158   2.026 -0.4566  0.8191  0.1014
  678MOL0     C93456  13.397   8.109   1.979  0.5454 -0.0970  0.1667
  678MOL0     O93457  13.471   8.020   2.054  0.2988  0.9221 -1.3359
  678MOL0     C93458  13.601   7.999   2.014  0.0598  0.1176  0.4805
  678MOL0     C93459  13.632   7.892   1.929  0.8671 -0.2990  0.0131
  678MOL0     C93460  13.769   7.873   1.900 -0.1148 -0.1585  0.2536
  678MOL0     C93461  13.874   7.960   1.937  0.7342  0.0832 -0.9369
  678MOL0     O93462  13.996   7.928   1.901 -0.9606  0.1542 -0.3120
  678MOL0     C93463  14.103   8.005   1.950 -0.5476  0.7914 -0.6888
  678MOL0     C93464  14.246   7.941   1.925  0.3236  0.3563 -0.4497
  678MOL0     C93465  14.243   7.793   1.903 -0.1266  0.6383  0.1131
  678MOL0     C93466  14.226   7.751   1.749 -0.4287 -0.5225  0.7092
  678MOL0     C93467  14.279   7.611   1.731  0.1948 -0.2972 -0.4381
  678MOL0     C93468  14.435   7.606   1.740  0.3685 -0.6190 -0.5537
  678MOL0     C93469  14.488   7.474   1.682 -0.3125  0.0586  0.0429
  678MOL0     C93470  14.642   7.467   1.681 -0.1376  0.3630 -0.1136
  678MOL0    Cl93471  14.716   7.479   1.842 -0.5728  0.1204  0.3721
  678MOL0     C93472  13.837   8.072   2.019  0.1610  0.4176  0.5469
  678MOL0     C93473  13.702   8.091   2.060 -0.6003  0.1971  0.0107
  678MOL0     O93474  13.421   8.146   1.867 -0.2396  0.0335  0.7964
  678MOL0     C93475  13.193   8.245   1.948 -0.0755 -0.3091  0.3779
  678MOL0     C93476  13.070   8.301   1.984 -0.0283  0.7086  0.0072
  678MOL0     N93477  12.381   8.440   2.206 -0.7530  0.4779  0.3693
  678MOL0     N93478  12.268   8.497   2.208  0.0568  0.2459 -0.8041
  678MOL0     C93479  11.227   7.853   2.357 -0.2205 -0.1565 -0.3858
  678MOL0     C93480  11.126   7.775   2.411  0.4390  0.3112  0.2015
  678MOL0     C93481  10.792   7.690   2.723 -0.1930  0.3448 -0.5485
  678MOL0     C93482  10.811   7.550   2.735 -0.1416  0.8672  0.6394
  678MOL0     C93483  10.714   7.464   2.787  0.4170 -0.2765 -0.2664
  678MOL0     C93484  10.598   7.516   2.842  0.9612  0.0457  0.0010
  678MOL0     O93485  10.496   7.429   2.882 -0.2633  0.2737 -0.1703
  678MOL0     C93486  10.439   7.346   2.781  0.8795 -0.1340 -0.3041
  678MOL0     C93487  10.300   7.305   2.833 -0.7174  0.8522  0.1111
  678MOL0     C93488  10.213   7.221   2.739 -0.6271  0.6752  0.0488
  678MOL0     C93489  10.057   7.250   2.747 -0.0652 -0.4650 -0.2095
  678MOL0     C93490   9.994   7.226   2.876 -0.2247  0.1277 -0.0593
  678MOL0     C93491   9.941   7.208   2.984 -0.5110 -0.0709 -0.0589
  678MOL0     C93492  10.586   7.656   2.855 -0.4284  0.9539 -0.3065
  678MOL0     C93493  10.683   7.747   2.793  0.6605  0.1360 -0.1590
  678MOL0     C93494  10.650   7.889   2.804 -0.0339 -0.3997  0.1549
  678MOL0     H93495  11.162   7.867   2.734  2.0513 -1.7410  0.0284
  678MOL0     H93496  11.329   8.024   2.635 -1.6557  2.0808 -1.4053
  678MOL0     H93497  11.358   8.206   2.491 -2.2231  0.1114 -0.4749
  678MOL0     H93498  11.202   8.164   2.405 -1.6477 -0.8846 -3.1354
  678MOL0     H93499  11.317   8.222   2.179  2.7282  0.8984 -1.3166
  678MOL0     H93500  11.297   8.359   2.285  0.2593  0.6274 -3.2739
  678MOL0     H93501  11.543   8.330   2.371  1.9027  3.2590 -1.5277
  678MOL0     H93502  11.571   8.216   2.262 -1.0606 -0.7877  0.8352
  678MOL0     H93503  11.465   8.411   2.078 -1.2874 -3.4055  1.0665
  678MOL0     H93504  11.520   8.507   2.205 -0.2942  0.7613 -0.2812
  678MOL0     H93505  11.681   8.463   2.003  1.3191 -1.3628 -1.5607
  678MOL0     H93506  11.691   8.299   2.056  2.5812  1.6735 -2.2022
  678MOL0     H93507  11.735   8.536   2.229 -1.7938 -0.3489 -2.4646
  678MOL0     H93508  11.763   8.367   2.280 -0.1925  1.1231  1.5448
  678MOL0     H93509  11.928   8.523   2.076  2.5295  0.7722  1.4006
  678MOL0     H93510  11.924   8.359   2.080 -2.0822  0.1355 -1.2122
  678MOL0     H93511  12.039   8.539   2.303 -1.8807 -0.2314 -0.4300
  678MOL0     H93512  12.009   8.368   2.335  0.0412  0.1858 -0.6299
  678MOL0     H93513  12.166   8.192   2.205 -3.6812  2.2823 -1.9515
  678MOL0     H93514  12.397   8.101   2.194 -2.6793  3.3030 -2.8988
  678MOL0     H93515  12.515   8.186   2.302 -1.3553  0.0943  0.2959
  678MOL0     H93516  12.615   8.071   2.102 -0.2549 -1.1422 -2.3367
  678MOL0     H93517  12.502   8.178   1.996 -1.3792 -0.0127  0.3471
  678MOL0     H93518  12.690   8.295   1.980  3.2200 -2.2968 -0.1120
  678MOL0     H93519  12.629   8.362   2.126 -1.7388  0.3355 -2.4774
  678MOL0     H93520  12.763   8.231   2.273  1.3207 -0.2892  0.1425
  678MOL0     H93521  12.823   8.128   2.142  0.9422  0.2330  4.4867
  678MOL0     H93522  13.051   8.153   2.287  0.9629 -0.9433  0.9462
  678MOL0     H93523  13.234   8.039   2.360  1.2095 -3.2597  0.1359
  678MOL0     H93524  13.382   8.095   2.285 -0.5952  0.2016  2.0682
  678MOL0     H93525  13.289   7.952   2.223 -0.6193 -1.0700  2.8194
  678MOL0     H93526  13.557   7.822   1.893 -0.7814  2.3387 -2.1005
  678MOL0     H93527  13.785   7.789   1.833 -2.8684 -1.9027  1.5853
  678MOL0     H93528  14.092   8.099   1.894 -1.2390 -0.7229 -3.2747
  678MOL0     H93529  14.095   8.029   2.056  3.6556  0.2792 -0.0527
  678MOL0     H93530  14.278   7.988   1.831  0.6590  1.6214  0.2772
  678MOL0     H93531  14.323   7.958   2.001  0.3223 -0.6645 -0.2016
  678MOL0     H93532  14.168   7.744   1.965 -1.4507  2.5890  0.1562
  678MOL0     H93533  14.340   7.757   1.939 -1.4259 -1.6869  1.5313
  678MOL0     H93534  14.282   7.812   1.677  0.6395 -0.9065  1.1976
  678MOL0     H93535  14.123   7.776   1.721  0.2499  2.6441  0.7304
  678MOL0     H93536  14.230   7.550   1.807 -1.5940  0.9616 -0.5309
  678MOL0     H93537  14.255   7.587   1.627  0.3681 -1.1861 -0.2806
  678MOL0     H93538  14.468   7.598   1.844 -0.5079  0.4597 -0.1688
  678MOL0     H93539  14.484   7.689   1.689 -0.8751  0.3976 -0.1524
  678MOL0     H93540  14.451   7.467   1.579  2.4191  0.7811 -1.0552
  678MOL0     H93541  14.449   7.388   1.738  1.2834 -0.5470  0.2651
  678MOL0     H93542  14.686   7.547   1.621 -0.1221  0.5729  0.1770
  678MOL0     H93543  14.673   7.375   1.630 -1.9135  0.0427 -0.6858
  678MOL0     H93544  13.915   8.142   2.049 -0.9006  0.4141  3.6767
  678MOL0     H93545  13.670   8.182   2.110 -4.2440 -1.3523  0.8278
  678MOL0     H93546  13.230   8.288   1.855  1.7329 -1.3070  0.5846
  678MOL0     H93547  13.024   8.378   1.923 -1.1343 -0.1772 -0.3109
  678MOL0     H93548  11.265   7.835   2.257 -0.0416 -2.2781  0.0118
  678MOL0     H93549  11.074   7.697   2.356  4.1423 -1.8199 -0.6386
  678MOL0     H93550  10.899   7.501   2.694 -1.6095 -0.8894 -0.5761
  678MOL0     H93551  10.728   7.357   2.779  0.4108 -0.3104  0.1379
  678MOL0     H93552  10.428   7.390   2.682  1.1785  0.0562 -0.2527
  678MOL0     H93553  10.501   7.256   2.783  5.4316  2.6842  0.6505
  678MOL0     H93554  10.252   7.402   2.851 -3.0538 -0.3174  0.6133
  678MOL0     H93555  10.313   7.260   2.931  2.4530  0.3373 -0.4481
  678MOL0     H93556  10.237   7.241   2.635 -0.1329 -0.1715 -0.0047
  678MOL0     H93557  10.235   7.118   2.766 -0.5413  0.6238 -0.2191
  678MOL0     H93558   9.992   7.197   2.676  0.3775 -0.3068 -0.7336
  678MOL0     H93559  10.035   7.353   2.718 -1.3036 -0.2055  1.4905
  678MOL0     H93560   9.884   7.210   3.075 -1.1826 -0.3962 -0.4644
  678MOL0     H93561  10.502   7.694   2.913  1.0919  0.9077  2.0463
  678MOL0     H93562  10.603   7.902   2.902  2.1336 -1.0645  1.3486
  678MOL0     H93563  10.734   7.958   2.814 -2.1244  2.5822 -1.4057
  678MOL0     H93564  10.593   7.920   2.716  4.5530  2.2359 -2.2338
  679MOL0     O93565   5.438   6.552   3.009  0.1631  0.6367  0.2213
  679MOL0     C93566   5.393   6.530   2.898 -0.9277 -0.1079  0.9437
  679MOL0     O93567   5.469   6.530   2.783  0.0361 -1.4172  0.4864
  679MOL0     C93568   5.603   6.534   2.802  0.2425 -0.4235 -0.0181
  679MOL0     C93569   5.676   6.644   2.859 -0.6404  0.0961 -0.2380
  679MOL0     C93570   5.810   6.652   2.865  0.2242  0.1742 -0.3648
  679MOL0     C93571   5.879   6.540   2.833  0.1536  0.2361  0.9728
  679MOL0     O93572   6.016   6.539   2.851  0.0881  0.1598 -0.2219
  679MOL0     C93573   6.093   6.421   2.835  0.2095 -0.4627 -0.0712
  679MOL0     C93574   6.103   6.332   2.961  0.2394 -0.2224 -0.6353
  679MOL0     C93575   6.214   6.230   2.937 -0.6641  0.1533 -1.0712
  679MOL0     C93576   6.348   6.286   2.980  1.1632 -0.2592 -0.5868
  679MOL0     C93577   6.458   6.180   2.961  0.4408 -0.7183  0.7674
  679MOL0     C93578   6.572   6.221   3.048 -0.5159 -0.6440 -0.2999
  679MOL0     C93579   6.697   6.139   3.015 -0.0732  0.5954  0.2396
  679MOL0     C93580   6.776   6.208   2.905 -0.7432 -0.6970  1.5374
  679MOL0     N93581   6.849   6.332   2.943  0.0521  0.5115  0.7780
  679MOL0     C93582   6.844   6.454   2.896  0.4864  0.3134  0.1357
  679MOL0     C93583   6.953   6.516   2.949  0.3181 -0.5403 -0.8841
  679MOL0     C93584   6.975   6.659   2.932  0.6334 -1.0762  0.7046
  679MOL0     C93585   6.993   6.728   3.067 -0.1620  0.5299  0.2276
  679MOL0     C93586   7.131   6.704   3.136  0.2266  0.2192  0.7116
  679MOL0     C93587   7.259   6.745   3.062  0.8940 -0.0478  1.0289
  679MOL0     O93588   7.252   6.888   3.058 -0.0737  0.2369 -0.4006
  679MOL0     C93589   7.369   6.954   3.022 -0.3619 -1.1071  0.6774
  679MOL0     C93590   7.348   7.093   3.022  0.1039  0.3500  0.5833
  679MOL0     C93591   7.453   7.180   3.005 -0.1165 -0.0519 -0.9073
  679MOL0     C93592   7.416   7.333   3.002  0.6418  0.8509 -0.3578
  679MOL0     C93593   7.584   7.127   2.983 -0.1000 -0.5867  0.8844
  679MOL0     C93594   7.709   7.209   2.965 -0.3699 -0.4378  0.4696
  679MOL0     O93595   7.825   7.147   3.009 -0.3930  0.3872 -0.5371
  679MOL0     C93596   7.942   7.192   2.949  0.0274  0.1026  0.2577
  679MOL0     C93597   8.021   7.289   3.007  0.0199  1.4289 -0.0660
  679MOL0     C93598   8.138   7.334   2.954 -0.1858  0.3143  0.2756
  679MOL0     C93599   8.182   7.283   2.835  0.3756  0.3156  0.4018
  679MOL0     O93600   8.293   7.317   2.768  0.8513  0.7609  0.3862
  679MOL0     C93601   8.394   7.395   2.837 -0.0145 -0.6297  0.3304
  679MOL0     C93602   8.523   7.403   2.758 -0.6459 -0.0028  0.1119
  679MOL0     C93603   8.596   7.263   2.772  0.5047 -0.5915  0.4247
  679MOL0     C93604   8.543   7.163   2.670  0.1053  0.8586  0.4973
  679MOL0     C93605   8.636   7.045   2.656  0.3294 -0.7802  0.3145
  679MOL0     C93606   8.594   6.936   2.564  0.6910 -0.2965 -0.1408
  679MOL0     C93607   8.492   6.978   2.454  1.0014  0.5855 -0.0213
  679MOL0     C93608   8.501   6.881   2.332 -1.0854 -0.4196 -0.6942
  679MOL0    Cl93609   8.648   6.898   2.231 -0.4065 -0.2661 -0.0179
  679MOL0     C93610   8.106   7.191   2.771 -0.2175 -0.1714 -0.2537
  679MOL0     C93611   7.989   7.151   2.821  0.1692  0.2460  0.4658
  679MOL0     O93612   7.703   7.327   2.930  0.1995 -0.2100  0.3436
  679MOL0     C93613   7.603   6.992   2.977 -0.0160 -0.0320  0.1903
  679MOL0     C93614   7.497   6.902   2.993  0.3060  0.0057  0.2425
  679MOL0     N93615   7.036   6.427   3.016 -0.2015  0.0280 -0.0384
  679MOL0     N93616   6.967   6.318   3.003 -0.1464  0.0095 -0.1118
  679MOL0     C93617   5.810   6.426   2.777 -1.2775  0.8709 -0.4667
  679MOL0     C93618   5.679   6.427   2.762  0.0308  0.0638 -0.0507
  679MOL0     C93619   5.255   6.481   2.882 -0.0491 -0.1348 -0.6112
  679MOL0     C93620   5.216   6.420   2.764  0.6707 -0.1427  0.5863
  679MOL0     C93621   5.088   6.367   2.737  0.2027  0.4732 -0.3914
  679MOL0     C93622   4.987   6.378   2.837  0.2509  0.7503 -0.2338
  679MOL0     O93623   4.851   6.344   2.815  0.0528 -0.2713  0.3048
  679MOL0     C93624   4.792   6.426   2.707  0.0749 -0.1920  0.1652
  679MOL0     C93625   4.638   6.396   2.704 -0.5079 -0.0237  0.3117
  679MOL0     C93626   4.585   6.448   2.831  0.7595 -0.0763 -0.8752
  679MOL0     C93627   4.436   6.427   2.833 -0.6795 -0.2495 -0.2491
  679MOL0     C93628   4.362   6.516   2.921  0.9495 -0.6088 -0.6440
  679MOL0     C93629   4.308   6.575   3.011  1.0550  0.2295  0.6526
  679MOL0     C93630   5.028   6.426   2.961 -0.3097 -0.2692 -0.3279
  679MOL0     C93631   5.158   6.475   2.986  1.0478  0.5392  0.1873
  679MOL0     C93632   5.196   6.504   3.126  0.1510 -0.2073  0.0588
  679MOL0     H93633   5.628   6.739   2.879  1.6533  1.2012  0.2606
  679MOL0     H93634   5.860   6.743   2.896 -0.0104  0.4204 -0.7065
  679MOL0     H93635   6.192   6.461   2.813  0.0088  0.1065  0.0425
  679MOL0     H93636   6.059   6.368   2.745 -3.3612  1.5002 -0.0707
  679MOL0     H93637   6.120   6.388   3.054 -3.2238  0.1672 -0.0967
  679MOL0     H93638   6.011   6.281   2.992 -1.7840  1.6497 -3.1208
  679MOL0     H93639   6.190   6.145   3.001 -1.2851  0.1401 -1.3196
  679MOL0     H93640   6.219   6.203   2.831  0.1470  0.7970 -1.2149
  679MOL0     H93641   6.373   6.384   2.938 -0.7321  1.1062  1.2256
  679MOL0     H93642   6.336   6.308   3.087 -1.7225  1.5842 -1.1730
  679MOL0     H93643   6.488   6.196   2.857 -1.6548 -1.3144  0.0190
  679MOL0     H93644   6.416   6.081   2.978 -0.3504 -0.6928 -0.8910
  679MOL0     H93645   6.595   6.325   3.022 -3.3612 -0.2472 -1.6216
  679MOL0     H93646   6.558   6.204   3.155 -0.3248 -1.3800 -0.3915
  679MOL0     H93647   6.666   6.044   2.970 -0.5296  1.3687 -1.1799
  679MOL0     H93648   6.761   6.121   3.102  0.5900  0.6252 -0.2328
  679MOL0     H93649   6.849   6.142   2.857 -2.0495  1.5173 -4.5012
  679MOL0     H93650   6.702   6.231   2.827  0.9989 -1.9690 -0.6348
  679MOL0     H93651   6.761   6.496   2.841  0.9582 -0.6207 -1.3230
  679MOL0     H93652   6.888   6.716   2.895  1.4968  0.2684  0.6800
  679MOL0     H93653   7.065   6.687   2.878  0.8026  1.6296  2.2197
  679MOL0     H93654   6.973   6.835   3.058 -3.7322 -0.0831 -0.6585
  679MOL0     H93655   6.913   6.693   3.132  0.6709  2.0953  2.1927
  679MOL0     H93656   7.119   6.756   3.232 -0.2184  1.1803  0.1547
  679MOL0     H93657   7.132   6.597   3.157  0.2516 -0.1814 -1.1698
  679MOL0     H93658   7.347   6.716   3.121  1.7716 -1.4289 -0.8304
  679MOL0     H93659   7.259   6.698   2.963  1.4049  0.7957  0.6201
  679MOL0     H93660   7.245   7.122   3.039 -0.4162 -1.1756  0.1562
  679MOL0     H93661   7.490   7.387   3.061  1.7426 -1.6387  0.6765
  679MOL0     H93662   7.313   7.350   3.035 -1.0674  0.9485 -4.9324
  679MOL0     H93663   7.430   7.363   2.898  2.2980 -3.7544 -1.7202
  679MOL0     H93664   8.002   7.323   3.109  2.0706  3.8589 -0.3874
  679MOL0     H93665   8.192   7.409   3.011  0.2503  0.2706 -0.0742
  679MOL0     H93666   8.368   7.498   2.861  3.0421 -0.2251  2.7083
  679MOL0     H93667   8.412   7.362   2.940 -1.3677  0.6553  1.0174
  679MOL0     H93668   8.501   7.435   2.656  1.8946  1.3093 -0.0960
  679MOL0     H93669   8.591   7.477   2.801 -0.1632  1.2051 -2.4932
  679MOL0     H93670   8.574   7.225   2.872 -1.1352  0.2397  0.4077
  679MOL0     H93671   8.702   7.277   2.748  1.2397 -2.4192  2.3553
  679MOL0     H93672   8.540   7.216   2.575 -1.8741  1.0597  0.6443
  679MOL0     H93673   8.449   7.116   2.699  0.1317  0.0385 -0.6687
  679MOL0     H93674   8.735   7.081   2.625  0.2846 -1.7124 -1.0236
  679MOL0     H93675   8.642   7.006   2.758 -0.3114 -2.2850 -0.1937
  679MOL0     H93676   8.535   6.861   2.617  2.0121  0.3764  2.4194
  679MOL0     H93677   8.680   6.876   2.531  0.0003 -1.5427  0.2671
  679MOL0     H93678   8.501   7.083   2.422 -1.3663  1.6027  2.2720
  679MOL0     H93679   8.396   6.975   2.506  1.5992  3.7948  1.5362
  679MOL0     H93680   8.416   6.890   2.263  0.3365  1.7818 -2.2705
  679MOL0     H93681   8.504   6.778   2.370 -3.5372 -0.3874 -0.2471
  679MOL0     H93682   8.145   7.149   2.679  2.6410 -1.2048  1.3270
  679MOL0     H93683   7.929   7.081   2.765  3.6489 -2.2056 -0.5526
  679MOL0     H93684   7.700   6.949   2.955 -1.3429 -2.0479 -2.3393
  679MOL0     H93685   7.513   6.795   3.000  1.6138  0.1299 -0.4306
  679MOL0     H93686   5.858   6.331   2.755  0.4804  1.6804 -0.2748
  679MOL0     H93687   5.639   6.334   2.723  1.2851 -0.0548 -1.1137
  679MOL0     H93688   5.292   6.418   2.687  1.3205 -1.3622  1.2314
  679MOL0     H93689   5.070   6.314   2.644 -0.3964 -1.1768  0.6136
  679MOL0     H93690   4.807   6.532   2.729  3.5323 -0.9550  2.2614
  679MOL0     H93691   4.848   6.405   2.616  2.5333 -1.7402  1.9197
  679MOL0     H93692   4.618   6.290   2.688 -0.4364 -0.1027  0.7318
  679MOL0     H93693   4.589   6.464   2.634  1.0498  0.1065 -0.6958
  679MOL0     H93694   4.631   6.391   2.912  3.2052  1.8348 -0.7636
  679MOL0     H93695   4.608   6.555   2.836 -0.9778  0.4547 -2.8322
  679MOL0     H93696   4.403   6.329   2.870  1.4869 -1.2989 -0.8891
  679MOL0     H93697   4.404   6.441   2.729  1.5786  1.3928 -0.7995
  679MOL0     H93698   4.253   6.627   3.087 -0.0830  0.0915 -0.0543
  679MOL0     H93699   4.959   6.409   3.043 -0.4451 -1.4091 -0.6606
  679MOL0     H93700   5.114   6.526   3.194  1.9159 -0.0727  2.2441
  679MOL0     H93701   5.247   6.418   3.171 -0.8466 -0.3213  1.0118
  679MOL0     H93702   5.252   6.597   3.140 -1.0098  0.4805  0.1970
  680MOL0     O93703   9.712   6.800   6.737 -0.4188  0.5060 -0.2473
  680MOL0     C93704   9.643   6.785   6.833  0.8228  0.6644 -0.2988
  680MOL0     O93705   9.674   6.719   6.949  0.2633 -0.3922  0.4125
  680MOL0     C93706   9.802   6.701   6.988  0.1122 -0.0768  0.5913
  680MOL0     C93707   9.828   6.581   7.051  0.0360 -0.7231 -0.6624
  680MOL0     C93708   9.952   6.557   7.116 -0.3917 -0.1101  0.1472
  680MOL0     C93709  10.058   6.653   7.096 -0.4294  1.1589 -0.1116
  680MOL0     O93710  10.183   6.645   7.154  0.7432 -0.5721  0.0081
  680MOL0     C93711  10.257   6.518   7.162  0.5321 -0.3361  0.1724
  680MOL0     C93712  10.407   6.537   7.202  0.9317  0.4055  0.0034
  680MOL0     C93713  10.486   6.412   7.184 -0.5292  0.2688  0.0759
  680MOL0     C93714  10.564   6.377   7.310 -0.6862 -0.3213  0.0773
  680MOL0     C93715  10.632   6.242   7.306  0.4318 -0.1501  0.3953
  680MOL0     C93716  10.699   6.214   7.448  0.6303  0.2487  0.0156
  680MOL0     C93717  10.610   6.167   7.563 -0.3780 -0.1516  0.0924
  680MOL0     C93718  10.556   6.027   7.534  0.8558 -0.5444  0.0764
  680MOL0     N93719  10.468   5.972   7.634  0.4133  0.2604 -0.6091
  680MOL0     C93720  10.494   5.865   7.723 -0.6415  0.3586  0.6741
  680MOL0     C93721  10.375   5.847   7.793 -0.2475  0.0192  0.1007
  680MOL0     C93722  10.352   5.737   7.899  0.6152  0.1346  0.2976
  680MOL0     C93723  10.460   5.748   8.006  0.1899  0.4938  0.1947
  680MOL0     C93724  10.426   5.659   8.129  0.1789 -0.2961  0.3822
  680MOL0     C93725  10.513   5.691   8.243 -0.0349  0.0183 -0.5487
  680MOL0     O93726  10.647   5.681   8.210 -0.1730  0.6670  0.4167
  680MOL0     C93727  10.699   5.559   8.184 -0.0045  0.4170 -0.9306
  680MOL0     C93728  10.833   5.558   8.131  0.1562 -0.3790 -0.1277
  680MOL0     C93729  10.904   5.442   8.099  0.0275 -0.4238 -0.3715
  680MOL0     C93730  11.056   5.461   8.077  0.0725 -0.0102  0.0576
  680MOL0     C93731  10.838   5.314   8.114  0.4021 -0.4504 -0.5330
  680MOL0     C93732  10.897   5.187   8.079  0.5602 -0.3026 -0.2432
  680MOL0     O93733  10.816   5.079   8.114  0.4500 -0.4908 -0.6363
  680MOL0     C93734  10.841   4.954   8.071  0.3386 -1.6675  0.1059
  680MOL0     C93735  10.965   4.907   8.023  0.0889 -0.6287 -0.2641
  680MOL0     C93736  10.980   4.783   7.983  0.0048 -0.6118 -0.1702
  680MOL0     C93737  10.879   4.692   7.983  1.3512 -0.2437 -0.3552
  680MOL0     O93738  10.910   4.560   7.943  0.3435  0.5004  0.2209
  680MOL0     C93739  10.817   4.463   7.970  1.1521 -0.0303  0.0795
  680MOL0     C93740  10.867   4.326   7.945 -0.4409 -0.5537 -0.3085
  680MOL0     C93741  10.746   4.228   7.966 -0.3811 -0.7004 -0.1924
  680MOL0     C93742  10.772   4.076   7.947 -0.0998 -0.1445 -0.7835
  680MOL0     C93743  10.644   3.988   7.951 -0.2541 -0.6033 -0.3871
  680MOL0     C93744  10.684   3.833   7.964  0.2041 -0.7565 -0.0764
  680MOL0     C93745  10.565   3.745   7.993  0.5134  1.2503 -0.8830
  680MOL0     C93746  10.442   3.749   7.893 -0.1807  0.1825  0.3476
  680MOL0    Cl93747  10.458   3.689   7.717 -0.7811 -0.7785  0.2108
  680MOL0     C93748  10.752   4.730   8.016 -0.3013 -0.2911  0.7551
  680MOL0     C93749  10.732   4.860   8.073 -0.1014  0.4738  0.6393
  680MOL0     O93750  10.989   5.181   8.004  0.0739 -0.1752 -0.1370
  680MOL0     C93751  10.710   5.320   8.173  0.5073 -1.1146  0.7887
  680MOL0     C93752  10.635   5.435   8.201  0.2230  0.0294  0.5299
  680MOL0     N93753  10.283   5.940   7.749  0.7037  0.4738  0.0571
  680MOL0     N93754  10.332   6.011   7.654 -0.4770 -0.0605 -0.8625
  680MOL0     C93755  10.032   6.766   7.024  0.1629  0.5823 -0.4102
  680MOL0     C93756   9.903   6.797   6.969  0.6123  0.6537 -0.4923
  680MOL0     C93757   9.492   6.812   6.816 -0.5708 -0.3065  0.0044
  680MOL0     C93758   9.404   6.782   6.925 -0.2079  0.4013  0.2000
  680MOL0     C93759   9.263   6.798   6.917  0.5061 -0.0440  0.4763
  680MOL0     C93760   9.209   6.859   6.804 -0.3438  0.5740  0.1910
  680MOL0     O93761   9.068   6.888   6.799  0.2445  0.1540  0.4218
  680MOL0     C93762   9.009   6.972   6.695 -0.5193 -1.2256 -0.6480
  680MOL0     C93763   8.863   6.982   6.724 -1.1337 -0.3241 -0.0087
  680MOL0     C93764   8.798   6.861   6.678  0.4305  0.4416 -0.4149
  680MOL0     C93765   8.655   6.861   6.743 -0.1615  0.7189 -0.0405
  680MOL0     C93766   8.585   6.749   6.697 -0.6606 -1.3140 -1.0949
  680MOL0     C93767   8.535   6.649   6.663 -0.3763 -0.5298  0.0648
  680MOL0     C93768   9.297   6.894   6.701 -0.6760  0.3611  0.6002
  680MOL0     C93769   9.439   6.867   6.697  0.8757  1.1858  0.0197
  680MOL0     C93770   9.522   6.908   6.568  0.4673 -0.0262 -0.3548
  680MOL0     H93771   9.748   6.508   7.057  1.9802 -3.0142 -1.0879
  680MOL0     H93772   9.973   6.481   7.191  3.1448 -1.1659 -1.6566
  680MOL0     H93773  10.254   6.463   7.067  0.4598 -1.7274  0.9555
  680MOL0     H93774  10.209   6.452   7.236 -0.1714 -0.3131 -0.2507
  680MOL0     H93775  10.468   6.607   7.143  2.3125  1.7829  2.8273
  680MOL0     H93776  10.422   6.575   7.303  1.3753  1.0273 -0.2856
  680MOL0     H93777  10.423   6.328   7.155 -3.2697  1.9622  0.7234
  680MOL0     H93778  10.552   6.431   7.099 -0.0473 -0.6923  0.2224
  680MOL0     H93779  10.632   6.462   7.326 -0.8004 -0.6965  3.0721
  680MOL0     H93780  10.494   6.374   7.394  0.6043 -0.8393  1.1734
  680MOL0     H93781  10.720   6.248   7.241  0.4238 -2.6133  0.0713
  680MOL0     H93782  10.559   6.171   7.266 -0.2060  2.0584 -2.7797
  680MOL0     H93783  10.763   6.129   7.420 -1.0656 -0.8006 -0.8983
  680MOL0     H93784  10.764   6.295   7.481  0.1343  1.9166 -2.8023
  680MOL0     H93785  10.529   6.241   7.567  0.1335  0.4387 -0.2656
  680MOL0     H93786  10.671   6.158   7.654  2.4546 -3.4469 -1.8759
  680MOL0     H93787  10.489   6.027   7.447  0.3786 -0.0323  0.4298
  680MOL0     H93788  10.640   5.959   7.523  0.8382 -0.8934  1.8430
  680MOL0     H93789  10.593   5.823   7.732  0.5181  2.7379 -0.1517
  680MOL0     H93790  10.347   5.637   7.854  1.0535  0.1066  0.3150
  680MOL0     H93791  10.250   5.754   7.937 -0.0181 -0.4004 -1.0880
  680MOL0     H93792  10.558   5.720   7.966  0.6357 -0.7300  1.9510
  680MOL0     H93793  10.464   5.853   8.036 -2.3920  0.7568 -0.1370
  680MOL0     H93794  10.325   5.690   8.159 -0.7787  0.8826 -3.5433
  680MOL0     H93795  10.418   5.554   8.100  0.3339  0.3415 -2.2082
  680MOL0     H93796  10.500   5.797   8.271  0.9033 -0.2903  1.2316
  680MOL0     H93797  10.490   5.633   8.333 -2.1409 -0.8930 -1.6275
  680MOL0     H93798  10.878   5.655   8.109 -0.9710  0.1128 -0.3065
  680MOL0     H93799  11.102   5.437   8.173 -1.9055  0.2598  1.1240
  680MOL0     H93800  11.063   5.567   8.052 -0.5638 -0.1714 -0.8552
  680MOL0     H93801  11.106   5.401   8.000  2.6422 -2.1979  3.1503
  680MOL0     H93802  11.056   4.966   8.013 -0.4349  0.1264 -0.7673
  680MOL0     H93803  11.081   4.757   7.953 -0.1309 -0.8200 -0.4556
  680MOL0     H93804  10.798   4.468   8.078  0.5105 -1.1186  0.0291
  680MOL0     H93805  10.724   4.470   7.913  0.3905 -1.0301  1.1437
  680MOL0     H93806  10.910   4.338   7.846  2.1727  2.0936  0.9997
  680MOL0     H93807  10.949   4.304   8.015 -0.1072 -0.9222 -0.8098
  680MOL0     H93808  10.664   4.251   7.898 -1.8792 -1.9688  1.1256
  680MOL0     H93809  10.711   4.254   8.066  1.6999  1.0294  0.1585
  680MOL0     H93810  10.849   4.041   8.016 -0.3394 -0.9706 -0.9252
  680MOL0     H93811  10.811   4.061   7.846  0.9665  1.4155 -0.6489
  680MOL0     H93812  10.583   4.020   8.035  1.1685 -0.0045  0.4607
  680MOL0     H93813  10.592   4.003   7.856  0.1123 -3.8214 -1.2202
  680MOL0     H93814  10.747   3.833   8.053  1.0952  3.0938 -0.5130
  680MOL0     H93815  10.738   3.792   7.879  2.5796 -0.7719  1.3641
  680MOL0     H93816  10.537   3.761   8.098  0.1270 -0.1374 -0.7551
  680MOL0     H93817  10.602   3.642   7.991 -0.6997  0.6483  2.0286
  680MOL0     H93818  10.414   3.854   7.880 -4.1745 -0.6694  0.7703
  680MOL0     H93819  10.361   3.695   7.943  2.5388 -2.3078  2.4214
  680MOL0     H93820  10.661   4.672   8.009 -0.2943 -0.0731 -2.0214
  680MOL0     H93821  10.636   4.892   8.110 -1.2172 -1.8729 -0.0478
  680MOL0     H93822  10.653   5.231   8.201  0.2857 -0.5109  2.3690
  680MOL0     H93823  10.538   5.433   8.250 -0.2606  0.7011 -0.3755
  680MOL0     H93824  10.113   6.838   7.026  3.1683 -2.5334  0.1669
  680MOL0     H93825   9.877   6.891   6.920 -0.6961 -0.5005 -2.1173
  680MOL0     H93826   9.439   6.743   7.020  3.3197  2.6418  0.0061
  680MOL0     H93827   9.195   6.770   6.997 -1.1238 -0.7832 -1.0929
  680MOL0     H93828   9.056   7.071   6.704 -0.2837 -1.4977  2.2003
  680MOL0     H93829   9.033   6.926   6.599  1.9606  1.0547 -1.2594
  680MOL0     H93830   8.821   7.065   6.667  0.5334  0.7643  0.2936
  680MOL0     H93831   8.850   7.001   6.831  3.5448 -0.0883  0.7100
  680MOL0     H93832   8.798   6.871   6.569 -2.1501  2.5149 -0.3339
  680MOL0     H93833   8.842   6.764   6.701  2.9758  1.5048 -0.4778
  680MOL0     H93834   8.614   6.959   6.718 -0.7310  0.5299  0.1395
  680MOL0     H93835   8.667   6.838   6.849  2.2909 -0.4090 -0.4775
  680MOL0     H93836   8.514   6.548   6.634  1.3092 -1.7224  2.6240
  680MOL0     H93837   9.244   6.925   6.613 -0.4401  0.9108  0.6503
  680MOL0     H93838   9.556   6.821   6.510 -2.0392 -0.0310 -1.9551
  680MOL0     H93839   9.464   6.970   6.499  2.3141  0.6829 -1.3323
  680MOL0     H93840   9.608   6.963   6.608 -0.4823 -0.7205  2.9842
  681MOL0     O93841   6.281   2.723   3.652  0.0345 -0.0019 -0.6112
  681MOL0     C93842   6.276   2.629   3.573  0.4985  0.5608  0.0802
  681MOL0     O93843   6.388   2.564   3.528  0.5839 -0.0786 -0.5458
  681MOL0     C93844   6.508   2.604   3.570  0.0050 -0.2052  0.0981
  681MOL0     C93845   6.576   2.566   3.689  1.1513  0.2534 -0.2279
  681MOL0     C93846   6.709   2.602   3.711  1.3327 -0.7201 -0.0182
  681MOL0     C93847   6.770   2.693   3.623  0.4824  0.6637  0.4316
  681MOL0     O93848   6.900   2.738   3.643 -0.5257  0.3138 -0.1335
  681MOL0     C93849   6.971   2.709   3.764 -0.1396 -0.5371 -0.7100
  681MOL0     C93850   7.092   2.797   3.774 -0.1410  0.5152 -0.9302
  681MOL0     C93851   7.190   2.810   3.658  0.7095 -0.4849  0.2679
  681MOL0     C93852   7.277   2.687   3.631  0.7879  0.3808 -0.2201
  681MOL0     C93853   7.371   2.713   3.510 -0.4229 -0.6010 -0.5925
  681MOL0     C93854   7.472   2.828   3.517  0.2809 -0.3833  0.1958
  681MOL0     C93855   7.564   2.850   3.644  0.3273 -0.2021 -0.3382
  681MOL0     C93856   7.635   2.718   3.687  0.6670 -0.1756 -0.2263
  681MOL0     N93857   7.727   2.661   3.592  0.3758  0.1882  0.1925
  681MOL0     C93858   7.863   2.681   3.597 -0.4763  0.1055  0.0375
  681MOL0     C93859   7.905   2.597   3.491 -0.3721  0.5370 -0.3908
  681MOL0     C93860   8.050   2.572   3.449  0.7373  0.8090 -0.3252
  681MOL0     C93861   8.114   2.504   3.575  0.4322  0.4052 -0.8099
  681MOL0     C93862   8.258   2.480   3.528 -0.0305  0.5093 -0.4762
  681MOL0     C93863   8.347   2.436   3.638  0.6280 -0.7552 -0.2078
  681MOL0     O93864   8.482   2.425   3.592  0.6005  0.3056 -0.0882
  681MOL0     C93865   8.582   2.371   3.666  1.5800  0.2057  0.2530
  681MOL0     C93866   8.562   2.326   3.799 -0.4239  0.6664 -0.1158
  681MOL0     C93867   8.666   2.271   3.874  1.1892 -0.8368 -0.1891
  681MOL0     C93868   8.622   2.209   4.003 -0.4425  0.8493  0.2934
  681MOL0     C93869   8.796   2.277   3.824 -0.1316  0.1471  0.2847
  681MOL0     C93870   8.922   2.233   3.896 -0.0733 -0.0791  0.6318
  681MOL0     O93871   9.034   2.290   3.847 -0.0107  0.4884 -0.3349
  681MOL0     C93872   9.158   2.255   3.895 -0.1248  0.5231  0.2722
  681MOL0     C93873   9.253   2.266   3.789 -0.3702  1.2971 -0.1860
  681MOL0     C93874   9.383   2.224   3.819  0.0163  0.7237  0.7220
  681MOL0     C93875   9.423   2.178   3.943  0.3094  0.3387 -0.0635
  681MOL0     O93876   9.551   2.139   3.951 -0.4227  0.5055  0.0327
  681MOL0     C93877   9.608   2.175   4.077 -0.0513  0.2934 -0.4821
  681MOL0     C93878   9.760   2.145   4.067  0.3835 -0.3270 -0.4535
  681MOL0     C93879   9.780   1.996   4.085  0.6433 -0.8515 -0.5297
  681MOL0     C93880   9.932   1.970   4.056  0.1540  0.0129  0.2518
  681MOL0     C93881   9.968   1.820   4.063 -0.4464  0.0357  0.8262
  681MOL0     C93882  10.119   1.803   4.027 -0.3412 -0.0329  0.1770
  681MOL0     C93883  10.174   1.657   4.033  0.3432 -0.2224  0.7335
  681MOL0     C93884  10.309   1.639   3.984 -0.8607  0.2663  0.1017
  681MOL0    Cl93885  10.303   1.652   3.808 -0.3781  0.3172  0.2073
  681MOL0     C93886   9.329   2.177   4.048 -0.6903 -0.1141  0.0788
  681MOL0     C93887   9.198   2.220   4.026 -0.5896  0.5261 -0.8398
  681MOL0     O93888   8.914   2.163   4.001  0.2404  0.3309  0.2261
  681MOL0     C93889   8.818   2.344   3.703  0.1003  0.6657  0.7755
  681MOL0     C93890   8.709   2.383   3.613 -1.0838  0.6534 -0.4283
  681MOL0     N93891   7.800   2.522   3.450 -0.3147  0.5205  0.2697
  681MOL0     N93892   7.696   2.558   3.515  0.4525 -0.3927 -0.2990
  681MOL0     C93893   6.701   2.737   3.510 -1.1101  0.5287 -0.1662
  681MOL0     C93894   6.573   2.693   3.481 -0.7055 -0.0251  0.4242
  681MOL0     C93895   6.141   2.599   3.524 -0.3674  1.0310  0.8260
  681MOL0     C93896   6.025   2.663   3.572 -0.5399 -0.8138  0.1707
  681MOL0     C93897   5.892   2.632   3.530  0.3862 -0.4624 -0.2121
  681MOL0     C93898   5.873   2.537   3.428  0.5346  0.1816 -0.6360
  681MOL0     O93899   5.755   2.511   3.370  0.3645 -0.0297 -0.1727
  681MOL0     C93900   5.707   2.378   3.375 -0.0335 -0.7536  0.0043
  681MOL0     C93901   5.577   2.360   3.299  0.1192 -0.5933 -0.6467
  681MOL0     C93902   5.551   2.219   3.247  0.3255 -0.2990  1.1750
  681MOL0     C93903   5.409   2.202   3.186 -0.4507 -0.2600 -0.1742
  681MOL0     C93904   5.406   2.074   3.103  0.4984 -0.2466  0.2108
  681MOL0     C93905   5.387   1.965   3.049 -0.1297  0.1281 -0.3781
  681MOL0     C93906   5.984   2.471   3.371 -0.4977  1.0747 -0.2664
  681MOL0     C93907   6.115   2.493   3.428 -0.0777 -0.1941 -0.1532
  681MOL0     C93908   6.224   2.399   3.400 -0.3666 -0.2263 -0.0685
  681MOL0     H93909   6.533   2.498   3.762  1.2709 -1.2770 -1.5276
  681MOL0     H93910   6.764   2.558   3.794  3.4533 -1.6766 -1.8393
  681MOL0     H93911   7.004   2.604   3.766 -0.0318 -0.6093 -3.4753
  681MOL0     H93912   6.914   2.737   3.853  0.8332  1.4414 -0.6507
  681MOL0     H93913   7.060   2.899   3.796 -1.5989  0.1314 -1.1034
  681MOL0     H93914   7.147   2.756   3.859  0.9776  0.1722 -1.8030
  681MOL0     H93915   7.146   2.836   3.562  2.7529 -0.7513 -0.7840
  681MOL0     H93916   7.257   2.892   3.686 -0.5777  0.1001  1.7900
  681MOL0     H93917   7.330   2.658   3.723  2.0623  2.2825 -0.3136
  681MOL0     H93918   7.208   2.612   3.591 -0.8038  1.3843  0.5547
  681MOL0     H93919   7.309   2.729   3.421 -0.1757  2.7932 -0.2922
  681MOL0     H93920   7.424   2.620   3.486 -2.4191 -1.5670 -1.5353
  681MOL0     H93921   7.539   2.821   3.431 -0.8289 -2.2982 -0.5836
  681MOL0     H93922   7.409   2.917   3.516  1.9555  1.0286  3.6512
  681MOL0     H93923   7.507   2.882   3.731  0.2159 -0.2347 -0.3982
  681MOL0     H93924   7.642   2.924   3.625  1.6438 -1.4009  0.2493
  681MOL0     H93925   7.679   2.740   3.785 -2.8154  0.1543  1.4231
  681MOL0     H93926   7.549   2.653   3.708 -0.6344  2.0108  1.6351
  681MOL0     H93927   7.927   2.746   3.655 -0.8037  1.4130 -0.9959
  681MOL0     H93928   8.092   2.668   3.419  2.6471  0.0994 -0.0977
  681MOL0     H93929   8.052   2.521   3.352  0.1609  0.0382  0.0541
  681MOL0     H93930   8.115   2.568   3.663  1.1393 -0.6753  0.0075
  681MOL0     H93931   8.071   2.405   3.595  0.2358  0.8820  1.3731
  681MOL0     H93932   8.268   2.399   3.455  2.0441  0.3994 -0.1438
  681MOL0     H93933   8.299   2.575   3.490 -1.0505 -0.3915 -4.1818
  681MOL0     H93934   8.353   2.517   3.711  0.2981 -0.9572  0.0457
  681MOL0     H93935   8.310   2.346   3.687 -1.0544 -0.1367 -0.3023
  681MOL0     H93936   8.461   2.313   3.836 -0.0644  0.6998  0.9095
  681MOL0     H93937   8.631   2.100   4.003 -1.4516  0.7546  0.9811
  681MOL0     H93938   8.524   2.253   4.025  0.8659  2.4648  3.5130
  681MOL0     H93939   8.692   2.248   4.078  3.8592 -1.8020 -1.9485
  681MOL0     H93940   9.236   2.297   3.687  1.4580 -0.4885 -1.1049
  681MOL0     H93941   9.462   2.229   3.745 -1.5625 -1.6642 -1.3143
  681MOL0     H93942   9.590   2.281   4.095 -1.3376  0.1519 -0.8294
  681MOL0     H93943   9.561   2.104   4.145  0.3174 -0.7522 -1.2796
  681MOL0     H93944   9.785   2.181   3.967  2.3155 -0.3443 -0.0150
  681MOL0     H93945   9.820   2.191   4.147 -2.3842 -3.7588  4.0744
  681MOL0     H93946   9.717   1.930   4.025 -1.3622  2.5921 -2.5262
  681MOL0     H93947   9.762   1.974   4.191 -1.2788  0.0381 -0.6319
  681MOL0     H93948   9.999   2.029   4.120  1.0179  0.0315 -0.6458
  681MOL0     H93949   9.945   2.010   3.955 -2.1128 -0.7885 -0.4202
  681MOL0     H93950   9.949   1.784   4.165  0.8726 -0.0494  1.0575
  681MOL0     H93951   9.897   1.766   3.999 -0.2992  1.7073 -0.8398
  681MOL0     H93952  10.171   1.868   4.097  0.1058  2.4253 -2.2719
  681MOL0     H93953  10.146   1.843   3.929  0.3031 -1.2124 -0.1552
  681MOL0     H93954  10.114   1.591   3.969 -0.0014  2.7402 -2.2819
  681MOL0     H93955  10.156   1.622   4.135 -0.6770  0.5738  0.8496
  681MOL0     H93956  10.347   1.539   4.008  1.7283  0.4365 -2.6398
  681MOL0     H93957  10.385   1.711   4.017  0.2918 -0.7925 -0.1555
  681MOL0     H93958   9.369   2.147   4.144  1.4344  0.7050 -0.4957
  681MOL0     H93959   9.131   2.207   4.110  1.3693 -1.2613  0.5650
  681MOL0     H93960   8.914   2.348   3.654 -0.5200 -2.9505 -1.1213
  681MOL0     H93961   8.734   2.433   3.520 -2.3492  0.9749 -0.6148
  681MOL0     H93962   6.751   2.811   3.447 -0.7664 -0.6726 -1.3450
  681MOL0     H93963   6.520   2.723   3.391  0.0848  4.5498  1.2359
  681MOL0     H93964   6.038   2.738   3.650 -0.9391 -1.4746  0.8895
  681MOL0     H93965   5.801   2.671   3.574  0.0343 -1.6527  0.1489
  681MOL0     H93966   5.782   2.315   3.325 -0.1054  1.4005 -3.0826
  681MOL0     H93967   5.693   2.358   3.482  2.8900 -0.7293  0.4806
  681MOL0     H93968   5.570   2.436   3.220  3.7568 -2.0288 -2.6383
  681MOL0     H93969   5.498   2.388   3.369  0.4832  0.0837 -0.4963
  681MOL0     H93970   5.621   2.212   3.163  0.4005  4.2246  0.5750
  681MOL0     H93971   5.562   2.143   3.324  1.3863 -0.7997  0.5532
  681MOL0     H93972   5.393   2.290   3.123  0.4049  0.7405  0.9642
  681MOL0     H93973   5.334   2.206   3.266  0.2895  1.0032  0.4932
  681MOL0     H93974   5.378   1.878   2.988 -0.5191 -1.7474  2.1707
  681MOL0     H93975   5.956   2.397   3.297 -0.8507  0.4556  0.4748
  681MOL0     H93976   6.255   2.356   3.495  3.9466  0.7759 -0.8053
  681MOL0     H93977   6.195   2.321   3.329  0.3377  1.5279 -2.4451
  681MOL0     H93978   6.310   2.446   3.352  0.1012 -1.9456 -0.9926
  682MOL0     O93979   3.068   8.443   6.050  0.5107  0.7405 -0.7742
  682MOL0     C93980   3.035   8.477   6.164  0.3644 -0.5851 -1.2065
  682MOL0     O93981   3.111   8.541   6.254  0.9102  0.1136 -0.6811
  682MOL0     C93982   3.245   8.558   6.234  0.0361  0.5438 -0.5793
  682MOL0     C93983   3.322   8.453   6.279 -0.1772 -0.3555 -0.1993
  682MOL0     C93984   3.459   8.461   6.272 -0.1948  0.0204 -0.1264
  682MOL0     C93985   3.529   8.562   6.201  0.0260 -0.2609  0.7244
  682MOL0     O93986   3.668   8.578   6.197 -0.1708  0.8534  0.1279
  682MOL0     C93987   3.742   8.470   6.250  0.0162  0.6598  0.4151
  682MOL0     C93988   3.885   8.513   6.256 -0.1646  0.2681 -0.5611
  682MOL0     C93989   3.945   8.561   6.115  0.4350  0.2387 -0.3316
  682MOL0     C93990   4.093   8.596   6.122 -0.6637  0.7587  0.1598
  682MOL0     C93991   4.168   8.594   5.993 -0.4957  0.6046  0.8096
  682MOL0     C93992   4.145   8.468   5.909  0.4881 -0.6793 -0.1334
  682MOL0     C93993   4.240   8.430   5.794 -0.0787  0.0790 -0.3298
  682MOL0     C93994   4.256   8.535   5.694  0.6154 -0.1735  0.1433
  682MOL0     N93995   4.375   8.500   5.610  0.2840 -0.1573 -0.0660
  682MOL0     C93996   4.370   8.409   5.504  0.3660 -0.7572 -0.7545
  682MOL0     C93997   4.501   8.376   5.490 -0.2331 -0.7200  0.0296
  682MOL0     C93998   4.574   8.277   5.407  0.4168  0.1765 -0.1713
  682MOL0     C93999   4.655   8.335   5.287  0.0617  0.2626  0.0459
  682MOL0     C94000   4.744   8.231   5.227 -0.2407 -0.2241 -0.1323
  682MOL0     C94001   4.840   8.293   5.123 -0.0745 -0.0048  0.0723
  682MOL0     O94002   4.937   8.360   5.203  0.0795  0.0500 -0.4675
  682MOL0     C94003   5.065   8.394   5.154 -0.1570  0.4492 -0.0078
  682MOL0     C94004   5.122   8.360   5.026  0.3641  0.4372  0.5160
  682MOL0     C94005   5.259   8.388   4.987 -0.0886 -0.1563  0.2265
  682MOL0     C94006   5.298   8.349   4.847  0.4918  0.6929 -0.0083
  682MOL0     C94007   5.332   8.463   5.078 -0.4006 -0.3088  0.7148
  682MOL0     C94008   5.470   8.518   5.057  0.6274  0.4064  0.3382
  682MOL0     O94009   5.521   8.592   5.159 -0.0712 -0.0768  0.6823
  682MOL0     C94010   5.643   8.646   5.145  0.2831 -0.3388  0.1247
  682MOL0     C94011   5.762   8.575   5.183  0.1945  0.0896  0.0865
  682MOL0     C94012   5.888   8.632   5.168  0.2556 -0.1696 -0.2428
  682MOL0     C94013   5.910   8.761   5.110 -0.5357  0.7839  0.1537
  682MOL0     O94014   6.039   8.807   5.094 -0.1912 -0.0947 -0.0646
  682MOL0     C94015   6.068   8.875   4.966 -0.4108  0.1617  0.5587
  682MOL0     C94016   6.211   8.842   4.903  0.2761  0.2098 -1.1313
  682MOL0     C94017   6.316   8.892   4.991  0.3898  0.9124 -0.0705
  682MOL0     C94018   6.456   8.848   4.952  0.4362  0.4360 -0.1857
  682MOL0     C94019   6.559   8.940   4.997 -0.7184  1.1231  0.7478
  682MOL0     C94020   6.696   8.882   4.959 -0.0618  0.0270 -0.3864
  682MOL0     C94021   6.742   8.910   4.818  0.1744 -0.1831 -0.0981
  682MOL0     C94022   6.768   9.059   4.774 -0.1221  0.5076  0.5558
  682MOL0    Cl94023   6.607   9.140   4.734 -0.1688  0.3159  0.0515
  682MOL0     C94024   5.794   8.823   5.071 -0.7356 -0.3315 -0.4222
  682MOL0     C94025   5.662   8.773   5.091  0.0246 -0.4642 -0.1744
  682MOL0     O94026   5.526   8.487   4.951 -1.0160  0.5839  0.1629
  682MOL0     C94027   5.273   8.497   5.203 -0.6835  0.1017  1.0604
  682MOL0     C94028   5.147   8.461   5.243  0.6313 -0.8885  0.1257
  682MOL0     N94029   4.582   8.445   5.578  0.0456 -0.5979  1.0048
  682MOL0     N94030   4.500   8.514   5.657  0.5454 -0.2529 -0.0754
  682MOL0     C94031   3.446   8.661   6.147 -0.7234 -0.4626 -0.5489
  682MOL0     C94032   3.302   8.656   6.156 -0.1652  0.6740 -0.7084
  682MOL0     C94033   2.889   8.463   6.206  1.1027 -0.6039  0.1350
  682MOL0     C94034   2.796   8.452   6.102 -0.0764  1.0296 -0.5025
  682MOL0     C94035   2.655   8.434   6.129 -0.5810 -0.3868  0.1203
  682MOL0     C94036   2.607   8.451   6.259 -0.4468 -0.5999 -0.2365
  682MOL0     O94037   2.471   8.442   6.300 -0.6116  0.4102  0.1575
  682MOL0     C94038   2.368   8.453   6.202 -0.6237 -0.3695 -0.4830
  682MOL0     C94039   2.236   8.467   6.276 -0.4041 -0.2267 -0.0999
  682MOL0     C94040   2.174   8.337   6.318 -0.8920 -0.0047  0.1886
  682MOL0     C94041   2.065   8.360   6.429 -1.0028 -0.1741  0.7887
  682MOL0     C94042   2.018   8.236   6.483 -0.2427 -0.5583 -0.1306
  682MOL0     C94043   1.962   8.142   6.524  0.1975  0.6438  0.2162
  682MOL0     C94044   2.702   8.453   6.359 -0.5290  0.2791 -0.0526
  682MOL0     C94045   2.843   8.454   6.337 -0.0069  0.1008 -1.2526
  682MOL0     C94046   2.930   8.490   6.453 -0.8661 -0.1265  0.1293
  682MOL0     H94047   3.297   8.359   6.326  1.3758  0.6590  2.9512
  682MOL0     H94048   3.508   8.367   6.298 -1.1441 -0.7775 -1.1093
  682MOL0     H94049   3.734   8.387   6.179  1.3846  1.2120 -0.4445
  682MOL0     H94050   3.705   8.439   6.348 -1.8092  0.3293 -0.3374
  682MOL0     H94051   3.894   8.584   6.338  1.2063 -1.2191  0.6320
  682MOL0     H94052   3.945   8.424   6.279 -1.9640 -1.5278 -2.3296
  682MOL0     H94053   3.925   8.484   6.040  0.8561 -1.9341  1.6382
  682MOL0     H94054   3.890   8.650   6.087  0.3836  0.8553  1.5819
  682MOL0     H94055   4.116   8.697   6.158  0.0540  0.6568  0.0093
  682MOL0     H94056   4.141   8.517   6.180  1.7342  0.9798 -1.3808
  682MOL0     H94057   4.272   8.599   6.026  0.3745 -0.7724 -1.4472
  682MOL0     H94058   4.135   8.685   5.942 -0.8944  0.6189  1.0932
  682MOL0     H94059   4.151   8.388   5.983 -0.1168 -0.8292 -0.2380
  682MOL0     H94060   4.045   8.481   5.867  0.7407  4.7195  0.1460
  682MOL0     H94061   4.214   8.339   5.738  1.7210 -0.7665  0.1282
  682MOL0     H94062   4.340   8.414   5.834  0.4654  0.3938 -1.5059
  682MOL0     H94063   4.172   8.531   5.624 -0.8602  0.4662  1.8055
  682MOL0     H94064   4.257   8.635   5.739  3.9722 -0.8254  1.8686
  682MOL0     H94065   4.282   8.371   5.454  0.2899 -0.8264 -0.5714
  682MOL0     H94066   4.500   8.203   5.376 -0.2902 -0.0621  1.9037
  682MOL0     H94067   4.646   8.237   5.479 -0.2906 -0.2892  0.2918
  682MOL0     H94068   4.587   8.361   5.206  0.4065 -0.4469 -0.4761
  682MOL0     H94069   4.712   8.424   5.315  0.2171 -0.0402  0.7181
  682MOL0     H94070   4.807   8.195   5.309  0.5377  2.5210  0.5772
  682MOL0     H94071   4.681   8.155   5.180 -0.8487  0.3617 -0.2739
  682MOL0     H94072   4.879   8.207   5.068 -0.8924 -0.9722  0.9470
  682MOL0     H94073   4.782   8.354   5.054  0.4402 -2.0058 -2.2829
  682MOL0     H94074   5.059   8.303   4.959 -0.6694  3.5265 -1.3675
  682MOL0     H94075   5.353   8.429   4.795 -0.5553  0.5432 -1.3966
  682MOL0     H94076   5.208   8.314   4.797 -1.1221  3.4754  0.7126
  682MOL0     H94077   5.377   8.273   4.842  0.6375  0.8538 -0.2294
  682MOL0     H94078   5.756   8.481   5.236  2.8109 -0.4815 -0.5155
  682MOL0     H94079   5.973   8.572   5.196  0.3920  0.2164  0.1916
  682MOL0     H94080   5.981   8.871   4.900 -0.2009  2.0520  0.1241
  682MOL0     H94081   6.076   8.982   4.987 -0.8209 -0.0291  1.7956
  682MOL0     H94082   6.217   8.733   4.912 -1.9051  0.2091  1.6905
  682MOL0     H94083   6.228   8.879   4.802 -0.6846  1.0397 -1.0023
  682MOL0     H94084   6.297   8.858   5.093 -1.9029  1.4359 -0.2603
  682MOL0     H94085   6.314   9.002   4.993  1.7889  0.9419  1.1292
  682MOL0     H94086   6.469   8.833   4.844 -0.7474 -1.4396 -0.1252
  682MOL0     H94087   6.473   8.747   4.991 -0.4672  0.7660  1.1478
  682MOL0     H94088   6.539   9.037   4.950 -0.3011  0.0435 -1.7779
  682MOL0     H94089   6.563   8.956   5.105 -0.6976 -0.3814  0.9840
  682MOL0     H94090   6.697   8.777   4.990  2.1460  0.1361  0.0385
  682MOL0     H94091   6.761   8.941   5.024 -1.3104  0.6538  0.3361
  682MOL0     H94092   6.669   8.871   4.746  0.4852 -0.1125 -0.4575
  682MOL0     H94093   6.835   8.854   4.805  1.9458  2.4196  0.7760
  682MOL0     H94094   6.838   9.060   4.689  0.4935  1.4595  1.0607
  682MOL0     H94095   6.826   9.117   4.847  1.6950 -1.8832  1.1417
  682MOL0     H94096   5.800   8.924   5.032  0.3838 -1.1237 -2.4763
  682MOL0     H94097   5.574   8.828   5.058 -0.5737  0.6617  2.9287
  682MOL0     H94098   5.325   8.563   5.272  1.0247  1.3773 -1.2770
  682MOL0     H94099   5.100   8.497   5.334 -3.5578 -1.7923 -1.4089
  682MOL0     H94100   3.495   8.746   6.101  0.4896 -0.3234  0.9159
  682MOL0     H94101   3.250   8.746   6.122 -0.8298 -0.0342 -1.6213
  682MOL0     H94102   2.838   8.447   6.002  2.8412 -0.3585  0.6866
  682MOL0     H94103   2.580   8.409   6.054 -1.7672 -2.4234  1.8843
  682MOL0     H94104   2.389   8.548   6.152  0.2454 -1.1717 -1.6907
  682MOL0     H94105   2.368   8.365   6.137 -2.1509 -1.6044  1.0727
  682MOL0     H94106   2.169   8.523   6.211 -0.2212  0.0259 -0.0754
  682MOL0     H94107   2.243   8.524   6.370 -3.6916  0.5055 -0.1635
  682MOL0     H94108   2.120   8.292   6.234 -2.9576  2.3606  0.1168
  682MOL0     H94109   2.251   8.269   6.356 -1.2127  1.1223  3.0991
  682MOL0     H94110   1.986   8.415   6.376 -0.5449  1.7521  1.9977
  682MOL0     H94111   2.099   8.420   6.514  0.2505  0.9523 -0.4434
  682MOL0     H94112   1.913   8.059   6.570 -0.7430  0.3054 -1.3294
  682MOL0     H94113   2.669   8.457   6.462  1.7554 -0.0001  0.7300
  682MOL0     H94114   2.939   8.599   6.452 -2.3805  0.0294  0.3473
  682MOL0     H94115   2.874   8.454   6.540 -2.0870  0.5575 -0.3364
  682MOL0     H94116   3.028   8.444   6.445 -0.7373  0.4826 -3.7629
  683MOL0     O94117   6.063   1.965   5.993  0.2603  0.3564 -0.3292
  683MOL0     C94118   6.048   1.931   5.878 -1.2178  0.6406  0.2881
  683MOL0     O94119   6.145   1.863   5.800 -0.8318  0.7478 -0.1018
  683MOL0     C94120   6.264   1.861   5.867 -0.7042  0.2028 -0.0391
  683MOL0     C94121   6.295   1.757   5.956 -0.2451  0.2809 -0.4558
  683MOL0     C94122   6.415   1.754   6.023  0.1173 -0.3021 -0.3841
  683MOL0     C94123   6.515   1.852   6.002  0.0772 -0.8699 -0.2882
  683MOL0     O94124   6.629   1.858   6.064 -0.2324  1.2039  0.9504
  683MOL0     C94125   6.649   1.789   6.198 -0.4757 -1.2437 -0.1552
  683MOL0     C94126   6.739   1.863   6.292  0.8462 -0.5225 -1.2724
  683MOL0     C94127   6.885   1.863   6.244 -0.4569  1.1176  1.3064
  683MOL0     C94128   6.979   1.849   6.363  0.0675 -0.0434 -0.4632
  683MOL0     C94129   7.006   1.981   6.432  0.7763  0.0110  0.4851
  683MOL0     C94130   7.096   2.068   6.338  0.1325  0.6278  0.2313
  683MOL0     C94131   7.174   2.176   6.408 -0.5295  0.6034 -0.3468
  683MOL0     C94132   7.089   2.293   6.436  0.0221 -0.3030  0.2275
  683MOL0     N94133   7.166   2.406   6.496  0.1623  0.5438 -0.2690
  683MOL0     C94134   7.247   2.503   6.439 -1.0932  0.1970  0.3065
  683MOL0     C94135   7.272   2.592   6.541 -0.2071  0.0173  0.3551
  683MOL0     C94136   7.351   2.717   6.545  0.8419 -0.9396 -0.0404
  683MOL0     C94137   7.479   2.708   6.624 -0.0754 -0.9322  0.1797
  683MOL0     C94138   7.540   2.844   6.652 -0.0355 -0.7044  0.0303
  683MOL0     C94139   7.659   2.816   6.742  0.6870 -0.0701 -0.9062
  683MOL0     O94140   7.737   2.940   6.740  0.4871  0.3066 -0.5832
  683MOL0     C94141   7.833   2.951   6.837  0.4245  0.0563 -0.1301
  683MOL0     C94142   7.861   2.861   6.943 -0.6899 -0.3529  0.6617
  683MOL0     C94143   7.970   2.887   7.032 -0.4525 -0.9178 -1.0354
  683MOL0     C94144   8.001   2.781   7.138  0.0490  0.4619 -0.3411
  683MOL0     C94145   8.042   3.011   7.024 -0.5768 -0.4086  0.4211
  683MOL0     C94146   8.159   3.042   7.116  0.4089 -0.1195  0.7827
  683MOL0     O94147   8.249   2.939   7.117 -0.4212 -0.3010  0.4226
  683MOL0     C94148   8.378   2.967   7.164 -0.0490 -0.2423  0.1352
  683MOL0     C94149   8.452   3.089   7.152 -0.4186  0.1002 -0.1662
  683MOL0     C94150   8.587   3.103   7.173  0.0346  0.2085 -0.1045
  683MOL0     C94151   8.652   2.981   7.207  0.0325 -0.1544 -0.5021
  683MOL0     O94152   8.787   2.971   7.217  0.1115 -0.4341  0.5086
  683MOL0     C94153   8.888   3.071   7.190  0.0691 -0.1818 -0.9452
  683MOL0     C94154   8.898   3.123   7.040  0.6013  0.5876  0.0232
  683MOL0     C94155   9.008   3.224   7.011 -0.0081  0.2772  0.3364
  683MOL0     C94156   9.132   3.150   7.036 -1.2896 -0.4609 -0.2160
  683MOL0     C94157   9.268   3.220   6.984  0.0455 -0.8328  0.4773
  683MOL0     C94158   9.407   3.153   7.021 -0.6937 -0.7530 -0.2250
  683MOL0     C94159   9.461   3.194   7.162  0.1970  1.0877 -0.0718
  683MOL0     C94160   9.587   3.118   7.204 -0.2497  0.4060 -1.1368
  683MOL0    Cl94161   9.716   3.111   7.080 -0.9728 -0.1626 -0.3493
  683MOL0     C94162   8.588   2.862   7.243 -0.2809  0.4261  0.2254
  683MOL0     C94163   8.451   2.856   7.219  0.9930 -0.2247  0.3391
  683MOL0     O94164   8.153   3.150   7.183  0.3432 -0.1103  0.1167
  683MOL0     C94165   8.025   3.093   6.907  0.0619 -0.8409 -0.4439
  683MOL0     C94166   7.917   3.069   6.822  0.8178  0.0810  0.1309
  683MOL0     N94167   7.209   2.549   6.656  0.0966  0.1356  0.5298
  683MOL0     N94168   7.155   2.435   6.628  0.0772  0.7700  0.0593
  683MOL0     C94169   6.488   1.956   5.915  0.3446 -0.2133 -1.1817
  683MOL0     C94170   6.360   1.953   5.849 -0.5526 -0.8700  0.5744
  683MOL0     C94171   5.927   1.981   5.812  0.1599  0.1577 -0.0939
  683MOL0     C94172   5.936   2.040   5.692  0.2110 -0.2684  0.2727
  683MOL0     C94173   5.821   2.087   5.626 -0.1194 -0.4752 -0.1813
  683MOL0     C94174   5.699   2.068   5.683 -0.3256  0.1589  0.7431
  683MOL0     O94175   5.587   2.112   5.607  0.5018  0.0526  0.0972
  683MOL0     C94176   5.450   2.087   5.663  0.1198 -0.2659  1.2747
  683MOL0     C94177   5.399   1.941   5.648 -0.1897  0.4623  0.5706
  683MOL0     C94178   5.405   1.911   5.500  0.6028 -0.3167  0.3059
  683MOL0     C94179   5.385   1.757   5.491 -0.7361 -0.2406  0.2713
  683MOL0     C94180   5.251   1.715   5.505  0.2078 -0.0381 -0.4443
  683MOL0     C94181   5.129   1.702   5.520 -0.9459 -0.7957 -0.0748
  683MOL0     C94182   5.692   2.003   5.804  0.4037 -0.0913  0.0111
  683MOL0     C94183   5.801   1.959   5.869  0.5809 -0.9327 -0.2145
  683MOL0     C94184   5.783   1.901   6.013  0.1422 -0.5843 -0.6617
  683MOL0     H94185   6.210   1.705   5.999  0.0430  2.4316  3.1690
  683MOL0     H94186   6.433   1.666   6.084 -0.4775  1.3635  2.4205
  683MOL0     H94187   6.685   1.686   6.184 -0.5291 -1.2163 -0.5081
  683MOL0     H94188   6.553   1.780   6.249 -0.3684 -0.6797  0.1423
  683MOL0     H94189   6.706   1.967   6.295  2.0509 -0.0986 -1.9654
  683MOL0     H94190   6.715   1.829   6.393 -2.7220 -0.7329 -2.0583
  683MOL0     H94191   6.905   1.781   6.174 -0.2289  0.3247  2.2829
  683MOL0     H94192   6.897   1.959   6.192 -0.5968  0.2206 -0.4693
  683MOL0     H94193   6.940   1.778   6.437  1.1671 -1.6432 -1.3747
  683MOL0     H94194   7.075   1.809   6.332 -0.2488 -0.2945 -1.1311
  683MOL0     H94195   7.054   1.986   6.530  1.6957  2.3533 -0.0092
  683MOL0     H94196   6.914   2.038   6.450 -0.3655 -2.4576  3.3172
  683MOL0     H94197   7.167   1.999   6.292 -1.9960 -1.4771 -0.0736
  683MOL0     H94198   7.027   2.115   6.266 -1.3339 -0.9604  0.5383
  683MOL0     H94199   7.248   2.212   6.336  0.6527  2.4023  1.6462
  683MOL0     H94200   7.228   2.138   6.495 -0.4863  0.2252 -0.5367
  683MOL0     H94201   7.040   2.339   6.350  0.5556  1.2527  0.7044
  683MOL0     H94202   7.006   2.262   6.500  0.0653 -1.4374 -0.2546
  683MOL0     H94203   7.281   2.504   6.336 -2.1374 -0.9009 -0.0723
  683MOL0     H94204   7.290   2.796   6.589  0.4187 -0.9384 -0.6277
  683MOL0     H94205   7.373   2.758   6.447  1.9009 -0.2840  0.4533
  683MOL0     H94206   7.452   2.663   6.720  0.2139  1.9583  1.7386
  683MOL0     H94207   7.547   2.652   6.559 -0.4790 -0.6644 -0.4835
  683MOL0     H94208   7.572   2.902   6.565 -1.9959 -1.5380 -1.3275
  683MOL0     H94209   7.470   2.911   6.703 -0.2507 -1.2147  0.4137
  683MOL0     H94210   7.620   2.786   6.839 -0.9357  1.2476 -1.1127
  683MOL0     H94211   7.712   2.730   6.700 -0.6658 -2.6684  2.3103
  683MOL0     H94212   7.802   2.771   6.949  0.4172 -1.1655 -0.2230
  683MOL0     H94213   8.017   2.828   7.235  1.6469 -1.4775  0.3992
  683MOL0     H94214   8.088   2.718   7.116 -2.4565 -2.9366 -1.4128
  683MOL0     H94215   7.915   2.713   7.136  1.2924 -1.2373  0.9749
  683MOL0     H94216   8.400   3.174   7.109  0.8169 -0.2874 -2.6060
  683MOL0     H94217   8.647   3.192   7.158 -4.1139  3.0225 -2.0681
  683MOL0     H94218   8.867   3.156   7.256  1.4247 -0.4876 -0.0696
  683MOL0     H94219   8.985   3.027   7.216 -0.7050 -1.8506 -0.7724
  683MOL0     H94220   8.912   3.036   6.975  2.6538  1.2014 -0.4121
  683MOL0     H94221   8.802   3.163   7.004  0.1087 -1.6160 -1.2882
  683MOL0     H94222   9.005   3.317   7.068  1.8773 -0.2408  1.3762
  683MOL0     H94223   9.011   3.248   6.904  1.9582 -0.3950  0.1950
  683MOL0     H94224   9.137   3.049   6.994  1.9528  0.6360 -2.9518
  683MOL0     H94225   9.141   3.133   7.144 -1.2408 -3.1902 -0.5779
  683MOL0     H94226   9.256   3.219   6.875  1.9386 -2.3196  0.2316
  683MOL0     H94227   9.272   3.327   7.007 -0.6897 -0.0018 -2.7240
  683MOL0     H94228   9.483   3.172   6.945 -0.8546  0.7993 -0.0322
  683MOL0     H94229   9.390   3.045   7.018 -1.1186 -0.6637 -1.0643
  683MOL0     H94230   9.381   3.173   7.234  0.4441 -0.0791 -0.1225
  683MOL0     H94231   9.477   3.302   7.172 -0.5489  1.1617  0.4389
  683MOL0     H94232   9.569   3.013   7.228 -2.0642  1.3292  2.1079
  683MOL0     H94233   9.640   3.171   7.283 -0.9890  0.5130 -0.6989
  683MOL0     H94234   8.638   2.778   7.289  0.3382 -0.8497 -2.5654
  683MOL0     H94235   8.398   2.765   7.244  0.5072 -0.5020 -1.5519
  683MOL0     H94236   8.076   3.186   6.888 -1.0114 -0.9243 -4.8206
  683MOL0     H94237   7.897   3.117   6.726 -1.9559 -1.8623 -0.3518
  683MOL0     H94238   6.558   2.039   5.921 -0.5743  0.5146  0.1747
  683MOL0     H94239   6.325   2.030   5.781  1.5015 -0.9830 -0.7000
  683MOL0     H94240   6.033   2.061   5.649  1.3480  0.4581  2.9871
  683MOL0     H94241   5.832   2.136   5.530  3.9104 -0.7724 -0.0521
  683MOL0     H94242   5.444   2.110   5.770  0.9128  0.4926  1.1791
  683MOL0     H94243   5.380   2.159   5.618  0.1388 -0.8057  0.3578
  683MOL0     H94244   5.301   1.920   5.692 -0.5015  2.6696  1.0447
  683MOL0     H94245   5.476   1.891   5.708  2.3051  2.0068 -1.1445
  683MOL0     H94246   5.325   1.962   5.445  0.7375 -1.2785 -0.8352
  683MOL0     H94247   5.498   1.935   5.446 -0.5486 -0.4499 -1.8641
  683MOL0     H94248   5.459   1.714   5.559 -0.6149  1.0230  0.9871
  683MOL0     H94249   5.409   1.737   5.387 -0.7740  4.7522 -0.9656
  683MOL0     H94250   5.023   1.707   5.535 -0.9439  2.2377 -0.4977
  683MOL0     H94251   5.595   1.990   5.850 -0.1780  2.6232 -0.3013
  683MOL0     H94252   5.859   1.825   6.033  1.4764  0.6476 -0.8888
  683MOL0     H94253   5.779   1.980   6.089  0.1187  1.8368 -3.0270
  683MOL0     H94254   5.685   1.852   6.017  0.7245 -1.7478  2.7332
  684MOL0     O94255  10.222   2.902   1.235  0.1089  0.8145 -0.1161
  684MOL0     C94256  10.173   2.790   1.239  0.5187  0.0197  0.3521
  684MOL0     O94257  10.233   2.672   1.266  0.0041 -0.5672 -0.2930
  684MOL0     C94258  10.366   2.680   1.309  0.3090  0.0413  0.1226
  684MOL0     C94259  10.468   2.752   1.243 -0.0433  0.2028 -0.1812
  684MOL0     C94260  10.606   2.752   1.282 -0.6296  0.0335  1.0362
  684MOL0     C94261  10.643   2.669   1.381 -0.5664 -0.0378  0.2049
  684MOL0     O94262  10.780   2.670   1.417  0.1136  0.1909 -0.1158
  684MOL0     C94263  10.802   2.718   1.550  0.8082  0.2905  0.0865
  684MOL0     C94264  10.950   2.734   1.572  0.5417 -0.0867  0.4495
  684MOL0     C94265  10.977   2.783   1.717 -0.2746 -0.0526  0.0253
  684MOL0     C94266  11.123   2.832   1.731 -0.4617 -0.1199 -0.5772
  684MOL0     C94267  11.179   2.874   1.881  0.8335 -0.1911  0.7599
  684MOL0     C94268  11.332   2.899   1.879  0.3183  0.8398  0.0500
  684MOL0     C94269  11.427   2.774   1.856  0.1385  1.1376  0.6384
  684MOL0     C94270  11.440   2.683   1.980  0.5593  0.5736 -0.5471
  684MOL0     N94271  11.563   2.610   1.983 -0.4321  0.6191  0.1421
  684MOL0     C94272  11.613   2.518   1.881  0.0075 -0.1873 -0.6611
  684MOL0     C94273  11.728   2.480   1.932 -0.3514  0.9141  0.0388
  684MOL0     C94274  11.834   2.398   1.854 -0.7734  0.1338 -0.8060
  684MOL0     C94275  11.815   2.253   1.878  0.3230 -0.4107 -0.9308
  684MOL0     C94276  11.913   2.149   1.810  0.5777 -0.2078  0.1707
  684MOL0     C94277  11.859   2.117   1.673 -0.0474 -0.0927  1.0474
  684MOL0     O94278  11.876   2.222   1.582  0.3483 -0.1097  0.1662
  684MOL0     C94279  12.004   2.266   1.554  0.1266 -0.6283 -0.3016
  684MOL0     C94280  12.112   2.190   1.539 -0.7901  0.0178  0.1256
  684MOL0     C94281  12.245   2.239   1.516  0.2276 -0.0806 -0.3256
  684MOL0     C94282  12.367   2.142   1.504 -0.1409 -0.7294 -0.0579
  684MOL0     C94283  12.269   2.379   1.528  0.1104  0.4859 -0.4173
  684MOL0     C94284  12.406   2.447   1.558 -0.1164 -0.6559 -0.3254
  684MOL0     O94285  12.406   2.581   1.550 -0.0698 -0.5593 -0.0207
  684MOL0     C94286  12.518   2.657   1.522  0.3059  0.3934  0.9149
  684MOL0     C94287  12.535   2.786   1.582 -0.1013 -0.1883  0.6673
  684MOL0     C94288  12.644   2.867   1.548  0.5140 -1.4081 -0.2927
  684MOL0     C94289  12.742   2.813   1.469  0.1384 -1.1340  0.6351
  684MOL0     O94290  12.850   2.889   1.428  0.8716  0.1850 -0.0740
  684MOL0     C94291  12.972   2.834   1.498  0.2502 -0.2776  1.1897
  684MOL0     C94292  13.101   2.922   1.456  1.0869 -0.7361 -0.1324
  684MOL0     C94293  13.236   2.864   1.492 -0.2964  0.6387 -0.5148
  684MOL0     C94294  13.355   2.900   1.404  0.1929 -1.2803 -0.1286
  684MOL0     C94295  13.491   2.833   1.448 -0.0866  0.5512  0.4765
  684MOL0     C94296  13.591   2.825   1.334 -0.0248 -0.5624  0.9366
  684MOL0     C94297  13.719   2.771   1.379  0.0073  0.6235  0.1659
  684MOL0     C94298  13.801   2.732   1.258  0.4848  0.2158  0.1757
  684MOL0    Cl94299  13.873   2.873   1.182  0.1803 -0.5559 -0.1295
  684MOL0     C94300  12.731   2.685   1.410  0.5507 -0.2561  0.5821
  684MOL0     C94301  12.619   2.611   1.423 -0.2858  0.3155 -0.2420
  684MOL0     O94302  12.503   2.384   1.604 -0.2925  0.6404  0.1110
  684MOL0     C94303  12.157   2.458   1.523  0.1640  0.2197  0.3092
  684MOL0     C94304  12.026   2.402   1.534  0.5656  0.2953 -0.3498
  684MOL0     N94305  11.756   2.546   2.051 -0.1496 -0.0395  0.4701
  684MOL0     N94306  11.656   2.620   2.085  0.1994  0.5708  0.8880
  684MOL0     C94307  10.544   2.595   1.449  0.5397  0.1396 -0.1069
  684MOL0     C94308  10.415   2.601   1.409 -0.2210 -0.5109 -1.3839
  684MOL0     C94309  10.035   2.783   1.207 -0.0579 -0.7459  0.3602
  684MOL0     C94310   9.952   2.873   1.281  0.1614 -0.0838 -0.9914
  684MOL0     C94311   9.816   2.865   1.249  0.8029  0.9346 -0.3058
  684MOL0     C94312   9.749   2.785   1.156  0.1094 -0.1717  0.1643
  684MOL0     O94313   9.611   2.800   1.130 -0.1954 -0.7026  0.5363
  684MOL0     C94314   9.540   2.723   1.030 -0.1327 -0.6059  0.0487
  684MOL0     C94315   9.389   2.750   1.063 -0.9060 -0.4680  0.0349
  684MOL0     C94316   9.346   2.901   1.074 -0.0964  0.6613  0.0543
  684MOL0     C94317   9.200   2.911   1.085 -0.5116  0.0714  0.2605
  684MOL0     C94318   9.147   2.857   1.212  0.1887  0.3199  0.6098
  684MOL0     C94319   9.096   2.808   1.311  0.0925 -0.2508  0.6288
  684MOL0     C94320   9.833   2.700   1.081  0.1659 -0.4478 -0.5162
  684MOL0     C94321   9.975   2.688   1.109  0.1139 -0.7425 -1.0760
  684MOL0     C94322  10.059   2.598   1.027  0.4208  0.0612  0.2903
  684MOL0     H94323  10.441   2.812   1.156  0.8757 -1.7437 -1.8902
  684MOL0     H94324  10.681   2.822   1.244  1.9025 -1.4087  3.0587
  684MOL0     H94325  10.758   2.645   1.618 -2.0424  1.6679 -0.1289
  684MOL0     H94326  10.755   2.816   1.569  0.9990  0.4406 -0.2088
  684MOL0     H94327  11.000   2.642   1.542  0.3651  0.6751 -2.5566
  684MOL0     H94328  10.995   2.814   1.513  1.7219 -0.6948  0.5043
  684MOL0     H94329  10.921   2.875   1.736  1.4858  0.7559  1.6405
  684MOL0     H94330  10.931   2.712   1.786 -3.3641 -1.1338 -2.9113
  684MOL0     H94331  11.179   2.746   1.692 -3.1408 -1.7640 -1.0239
  684MOL0     H94332  11.135   2.920   1.666  0.5614  0.2040  0.0252
  684MOL0     H94333  11.158   2.790   1.949  0.9161 -1.2789 -0.5240
  684MOL0     H94334  11.123   2.959   1.921  2.0979  0.9333  0.2068
  684MOL0     H94335  11.338   2.969   1.795 -1.7460 -0.5012 -1.3206
  684MOL0     H94336  11.363   2.950   1.970 -1.2846 -2.1557  2.4399
  684MOL0     H94337  11.525   2.812   1.828  0.4959  0.7235  1.2732
  684MOL0     H94338  11.389   2.717   1.771  1.1182  1.3314  0.0609
  684MOL0     H94339  11.431   2.739   2.074  1.8410 -0.1282  0.0190
  684MOL0     H94340  11.355   2.614   1.988 -0.3183  1.6889  0.2284
  684MOL0     H94341  11.572   2.484   1.787  1.9936  1.1401 -2.0786
  684MOL0     H94342  11.934   2.430   1.886 -1.2970  0.1717  0.8904
  684MOL0     H94343  11.823   2.418   1.747 -3.7031 -3.8597 -1.4761
  684MOL0     H94344  11.842   2.232   1.981 -0.8016 -2.0673 -0.9439
  684MOL0     H94345  11.712   2.220   1.861 -0.8871  1.0633  2.6682
  684MOL0     H94346  12.018   2.181   1.808  0.6252 -0.0181  2.5678
  684MOL0     H94347  11.909   2.056   1.868  0.7149 -0.5387 -0.3453
  684MOL0     H94348  11.903   2.023   1.639  2.6072  1.0506  1.1130
  684MOL0     H94349  11.751   2.099   1.676 -0.0921 -0.3849 -1.0455
  684MOL0     H94350  12.105   2.083   1.553 -1.4660  0.2410  1.6872
  684MOL0     H94351  12.395   2.108   1.604  1.5213  0.4722 -0.0840
  684MOL0     H94352  12.445   2.192   1.446  0.1275 -2.6069 -1.4268
  684MOL0     H94353  12.331   2.054   1.449 -2.3384 -1.4382  2.3156
  684MOL0     H94354  12.471   2.829   1.659  0.6479  1.6122  0.3341
  684MOL0     H94355  12.651   2.970   1.582 -1.7351 -1.7417  1.4130
  684MOL0     H94356  12.961   2.846   1.606  0.1158 -2.4704  1.4687
  684MOL0     H94357  12.987   2.728   1.472  2.9800 -0.2434  2.3845
  684MOL0     H94358  13.101   2.914   1.347  1.2976  0.6273 -0.2461
  684MOL0     H94359  13.078   3.025   1.483 -0.9126  0.2303 -4.5145
  684MOL0     H94360  13.226   2.755   1.493  2.8020  0.2701 -0.9884
  684MOL0     H94361  13.263   2.889   1.594 -1.6930 -2.5954  0.7809
  684MOL0     H94362  13.364   3.009   1.408  1.9106 -1.4408  2.7945
  684MOL0     H94363  13.339   2.868   1.300  0.6865 -0.1735 -0.5594
  684MOL0     H94364  13.542   2.870   1.538  3.1368 -0.9700 -0.5810
  684MOL0     H94365  13.462   2.733   1.480 -0.6881  0.4837 -0.2655
  684MOL0     H94366  13.601   2.928   1.301 -0.9805 -0.5617  0.6308
  684MOL0     H94367  13.546   2.769   1.252 -0.8720  2.7395 -1.0296
  684MOL0     H94368  13.696   2.683   1.440  3.1355 -1.9966 -2.1050
  684MOL0     H94369  13.776   2.841   1.442 -1.9819  1.4763  1.1212
  684MOL0     H94370  13.745   2.688   1.174 -0.7497  3.0041 -0.5765
  684MOL0     H94371  13.882   2.659   1.269 -0.4369 -1.3861 -2.6476
  684MOL0     H94372  12.811   2.666   1.340  0.6354  2.3059 -0.1189
  684MOL0     H94373  12.605   2.516   1.371  0.4093  1.4602 -2.6503
  684MOL0     H94374  12.157   2.566   1.529 -1.8231  0.2301  0.9040
  684MOL0     H94375  11.936   2.461   1.535  1.6723  2.1863 -2.4525
  684MOL0     H94376  10.570   2.520   1.523  1.7070 -0.1773 -0.8089
  684MOL0     H94377  10.348   2.546   1.474  0.4590  2.5448  2.2520
  684MOL0     H94378   9.975   2.954   1.349 -2.2307 -0.5248  0.4534
  684MOL0     H94379   9.755   2.932   1.308 -1.6628 -1.5485  0.1519
  684MOL0     H94380   9.572   2.770   0.936  3.3439 -0.7225  1.0592
  684MOL0     H94381   9.556   2.615   1.035 -1.2071 -0.7324  1.1437
  684MOL0     H94382   9.351   2.711   1.158 -1.8692  1.3774  0.4531
  684MOL0     H94383   9.333   2.688   0.993 -1.4494 -2.3642  2.0167
  684MOL0     H94384   9.393   2.955   1.158  0.7731  0.2294 -0.1447
  684MOL0     H94385   9.380   2.965   0.992  3.0439  0.9111  1.3711
  684MOL0     H94386   9.154   2.843   1.012 -3.8784  1.6733  0.7373
  684MOL0     H94387   9.162   3.012   1.072  0.0599  0.5559  2.0854
  684MOL0     H94388   9.026   2.766   1.381 -1.3565 -0.9930 -1.1995
  684MOL0     H94389   9.782   2.636   1.010  0.2459 -1.5647  0.4031
  684MOL0     H94390  10.024   2.579   0.925  2.1852  1.3823 -0.6238
  684MOL0     H94391  10.158   2.639   1.005  0.6491 -0.8742 -0.5060
  684MOL0     H94392  10.086   2.511   1.087  1.5297  1.2946  1.6710
  685MOL0     O94393   4.368   4.953   5.755 -0.0652 -0.1127  0.2027
  685MOL0     C94394   4.316   5.067   5.747 -0.9043  0.9380 -0.4686
  685MOL0     O94395   4.386   5.180   5.736 -0.8755 -0.2112 -0.5431
  685MOL0     C94396   4.521   5.167   5.711 -0.2641  0.5843 -0.2343
  685MOL0     C94397   4.559   5.136   5.577 -0.0119 -0.4143 -0.4257
  685MOL0     C94398   4.693   5.113   5.545  0.4911 -0.6581  0.2121
  685MOL0     C94399   4.791   5.118   5.651  0.3365 -0.4013  0.5110
  685MOL0     O94400   4.923   5.115   5.613  0.0131  0.1352  0.6181
  685MOL0     C94401   5.027   5.123   5.713  1.1203  0.3991  0.0481
  685MOL0     C94402   5.042   4.978   5.766 -1.0187  0.0656 -0.7200
  685MOL0     C94403   5.101   4.890   5.656  0.7549  0.2776  0.1913
  685MOL0     C94404   5.242   4.923   5.612  0.4522  0.9808  0.3823
  685MOL0     C94405   5.350   4.951   5.715  1.4963 -0.8928  0.8686
  685MOL0     C94406   5.376   4.836   5.807  0.0623  0.5599  0.0070
  685MOL0     C94407   5.484   4.855   5.911 -0.1181 -0.5998  0.0125
  685MOL0     C94408   5.625   4.840   5.853  0.2262 -0.7459 -0.6485
  685MOL0     N94409   5.724   4.913   5.934  0.2676 -0.2261 -1.3789
  685MOL0     C94410   5.718   4.952   6.063 -0.6382  0.7655  0.0779
  685MOL0     C94411   5.832   5.018   6.080 -0.3051  0.7630 -0.3062
  685MOL0     C94412   5.897   5.066   6.207 -0.4428  0.0360 -0.2048
  685MOL0     C94413   6.042   5.016   6.219 -1.2101 -0.2779  0.1387
  685MOL0     C94414   6.154   5.095   6.136  1.6023 -0.5751  0.5519
  685MOL0     C94415   6.260   4.989   6.083  0.0931 -0.3142  0.3475
  685MOL0     O94416   6.377   4.997   6.169  0.1447 -0.3106  0.0560
  685MOL0     C94417   6.493   4.942   6.119 -0.2933  0.4241 -0.1783
  685MOL0     C94418   6.508   4.883   5.996  0.4371  0.2391 -0.1715
  685MOL0     C94419   6.627   4.815   5.963  0.6968  0.0659  0.3518
  685MOL0     C94420   6.640   4.757   5.831  0.0183  0.0999 -0.5144
  685MOL0     C94421   6.740   4.821   6.049  0.1754  0.2573 -0.3605
  685MOL0     C94422   6.871   4.766   6.026 -0.1855  0.1937  0.2030
  685MOL0     O94423   6.928   4.683   6.117 -0.4358  0.5951 -0.0008
  685MOL0     C94424   7.066   4.680   6.124 -0.5864 -0.2577 -0.3101
  685MOL0     C94425   7.139   4.792   6.141  0.1713  0.5967  0.3959
  685MOL0     C94426   7.279   4.777   6.152 -1.1147  0.3264 -0.1301
  685MOL0     C94427   7.344   4.647   6.149 -0.0264 -0.2388 -0.3079
  685MOL0     O94428   7.474   4.634   6.163 -0.4047  0.2027 -1.0345
  685MOL0     C94429   7.523   4.698   6.284  0.5901 -0.1088 -0.3632
  685MOL0     C94430   7.624   4.609   6.344 -0.0513 -0.8696 -0.1450
  685MOL0     C94431   7.564   4.478   6.379 -0.6261  0.8846 -0.4018
  685MOL0     C94432   7.478   4.478   6.508 -0.2484  0.1987  0.1592
  685MOL0     C94433   7.434   4.334   6.546 -0.0228  0.2083  0.1053
  685MOL0     C94434   7.323   4.333   6.651  0.2928 -0.1442 -0.0185
  685MOL0     C94435   7.294   4.190   6.719  0.0746 -0.5300  0.7903
  685MOL0     C94436   7.186   4.210   6.825  0.3129 -0.4072  0.8055
  685MOL0    Cl94437   7.253   4.244   6.986 -0.0935  0.3289  1.0123
  685MOL0     C94438   7.270   4.542   6.126 -0.7092 -0.0903  0.3406
  685MOL0     C94439   7.133   4.560   6.116  0.3827  0.0084 -0.5529
  685MOL0     O94440   6.924   4.802   5.917  0.0835  1.1705 -0.4647
  685MOL0     C94441   6.730   4.896   6.172  0.1107 -0.0630  0.4441
  685MOL0     C94442   6.604   4.951   6.205 -0.4092 -0.5727  0.2561
  685MOL0     N94443   5.898   5.028   5.955 -0.0060  0.1793 -0.4055
  685MOL0     N94444   5.822   4.980   5.865  0.5690  0.4517 -0.0692
  685MOL0     C94445   4.756   5.149   5.782  0.5771  0.5221 -0.7067
  685MOL0     C94446   4.620   5.181   5.808  0.0427  0.6546  0.4997
  685MOL0     C94447   4.168   5.068   5.763  0.3622  0.1154 -1.0997
  685MOL0     C94448   4.114   4.986   5.868 -0.1432 -1.5410  0.1812
  685MOL0     C94449   3.981   4.983   5.894  0.1055 -0.5022 -0.2806
  685MOL0     C94450   3.896   5.069   5.820  0.0346 -0.4081  0.4902
  685MOL0     O94451   3.763   5.068   5.846 -0.0150 -0.1100  0.8281
  685MOL0     C94452   3.683   5.053   5.728 -0.0626  0.1319  0.3451
  685MOL0     C94453   3.554   4.982   5.784  0.2387 -0.0080  0.3107
  685MOL0     C94454   3.450   4.950   5.672 -0.5257 -0.8835  0.4772
  685MOL0     C94455   3.325   4.879   5.739 -0.1595 -0.7495  0.5195
  685MOL0     C94456   3.212   4.901   5.647 -0.2336 -0.9918 -0.5974
  685MOL0     C94457   3.131   4.913   5.559 -0.1124 -0.1784  0.1284
  685MOL0     C94458   3.950   5.155   5.719 -0.0006  0.1877 -0.0341
  685MOL0     C94459   4.094   5.154   5.694  0.0577 -0.0561 -0.1066
  685MOL0     C94460   4.144   5.239   5.577  0.3862  0.2129  0.2087
  685MOL0     H94461   4.485   5.125   5.499 -0.5033  2.9753 -0.6013
  685MOL0     H94462   4.715   5.081   5.443  0.7462 -1.3766  0.4905
  685MOL0     H94463   5.002   5.188   5.797  2.0204  2.1778 -1.0097
  685MOL0     H94464   5.117   5.166   5.668 -0.1879  0.8611 -2.2207
  685MOL0     H94465   5.116   4.985   5.846 -1.6796  1.5899 -0.1903
  685MOL0     H94466   4.955   4.937   5.819  1.7484 -2.0328  2.6645
  685MOL0     H94467   5.104   4.784   5.684 -0.8165  0.4201  1.0349
  685MOL0     H94468   5.033   4.900   5.571  0.6679  0.9920  0.3374
  685MOL0     H94469   5.280   4.834   5.561  1.4584  1.0129  1.0442
  685MOL0     H94470   5.245   5.009   5.544  0.4870  1.1292  0.5709
  685MOL0     H94471   5.325   5.048   5.759  0.3010  0.8983 -3.2715
  685MOL0     H94472   5.441   4.964   5.656 -0.7137 -2.4897 -3.2921
  685MOL0     H94473   5.285   4.838   5.868 -1.1314 -1.6651 -1.5811
  685MOL0     H94474   5.393   4.735   5.768  0.1521 -1.1904  4.0769
  685MOL0     H94475   5.474   4.783   5.993 -0.6357 -0.5333  0.0135
  685MOL0     H94476   5.474   4.959   5.942 -2.8200  0.1783 -2.8632
  685MOL0     H94477   5.647   4.733   5.850 -3.3837 -1.6503  0.0591
  685MOL0     H94478   5.639   4.881   5.752  1.9685  1.7263  0.5156
  685MOL0     H94479   5.651   4.922   6.143  0.7228  0.6482  1.2279
  685MOL0     H94480   5.837   5.054   6.297  1.2034 -0.8616  0.8136
  685MOL0     H94481   5.893   5.175   6.215 -2.0130 -0.1024  1.5071
  685MOL0     H94482   6.074   5.031   6.323  1.4896  2.1175 -0.8999
  685MOL0     H94483   6.052   4.909   6.197  1.1491  0.3690 -2.6273
  685MOL0     H94484   6.094   5.142   6.057 -2.2513 -3.3333  1.5417
  685MOL0     H94485   6.196   5.182   6.187  0.3610  0.3094  0.1067
  685MOL0     H94486   6.208   4.894   6.082 -0.3132 -0.1108  1.2899
  685MOL0     H94487   6.274   5.039   5.986 -1.8503  4.0330  2.0256
  685MOL0     H94488   6.431   4.901   5.922  0.6496  1.0526 -0.2052
  685MOL0     H94489   6.712   4.675   5.844 -1.5109 -0.9856  1.5702
  685MOL0     H94490   6.682   4.832   5.763  0.5735  1.4046  1.1988
  685MOL0     H94491   6.546   4.709   5.805 -0.7585  1.3499 -0.0940
  685MOL0     H94492   7.098   4.892   6.157  3.7993  2.2858  0.0168
  685MOL0     H94493   7.340   4.866   6.161  0.5562 -0.4076 -2.9896
  685MOL0     H94494   7.570   4.794   6.261 -0.4518  0.9213  1.5681
  685MOL0     H94495   7.437   4.721   6.347  1.2303  0.7925  0.2073
  685MOL0     H94496   7.707   4.585   6.276  0.1785 -0.9800  0.1687
  685MOL0     H94497   7.670   4.653   6.433  2.1728  0.5013 -1.8404
  685MOL0     H94498   7.646   4.408   6.393 -1.2786  0.3085  0.7624
  685MOL0     H94499   7.514   4.435   6.292 -1.7924 -0.0085  0.6551
  685MOL0     H94500   7.388   4.536   6.490  0.5674  1.0741 -1.2663
  685MOL0     H94501   7.526   4.528   6.594 -1.2398  2.1422 -0.3485
  685MOL0     H94502   7.392   4.284   6.459 -0.8441  3.7616 -1.7387
  685MOL0     H94503   7.520   4.274   6.578 -0.1275 -0.9619 -1.6799
  685MOL0     H94504   7.236   4.382   6.604  0.9158  0.7051 -0.3036
  685MOL0     H94505   7.348   4.398   6.734  0.7234 -4.0264  3.1986
  685MOL0     H94506   7.385   4.160   6.771  0.2148  1.1378  1.5630
  685MOL0     H94507   7.265   4.120   6.640 -0.9028  1.5618 -0.8230
  685MOL0     H94508   7.131   4.116   6.835  0.4030 -0.5054  0.3706
  685MOL0     H94509   7.112   4.285   6.795  1.0638  0.0694  0.1140
  685MOL0     H94510   7.315   4.445   6.106  1.3919  1.3419 -2.4871
  685MOL0     H94511   7.073   4.471   6.103  0.2085  0.3386 -2.2579
  685MOL0     H94512   6.810   4.916   6.242  0.9656  1.0769 -0.7900
  685MOL0     H94513   6.593   4.998   6.302  2.4484  0.1656  0.3232
  685MOL0     H94514   4.818   5.147   5.871  0.9350 -2.0548 -0.9494
  685MOL0     H94515   4.591   5.205   5.910  1.2793  0.2403  0.9640
  685MOL0     H94516   4.177   4.917   5.922  1.3707 -0.1719  0.2429
  685MOL0     H94517   3.952   4.911   5.970 -0.6041  1.3342  1.2940
  685MOL0     H94518   3.665   5.157   5.702  0.3683 -0.3376 -2.0701
  685MOL0     H94519   3.728   4.998   5.645  1.2417  0.4268  0.8271
  685MOL0     H94520   3.510   5.048   5.859  0.6466 -1.7632  2.1979
  685MOL0     H94521   3.583   4.889   5.833  1.8755  1.6185  2.6027
  685MOL0     H94522   3.424   5.041   5.618 -0.9134 -1.6055 -0.5791
  685MOL0     H94523   3.488   4.884   5.594 -2.8029 -1.0622 -0.5572
  685MOL0     H94524   3.305   4.913   5.841 -0.7332  3.3319 -0.7457
  685MOL0     H94525   3.351   4.773   5.739 -1.2750 -1.0774 -1.7887
  685MOL0     H94526   3.062   4.936   5.480 -0.8400 -0.6253  0.6344
  685MOL0     H94527   3.887   5.225   5.665 -1.1162 -0.1181  0.8246
  685MOL0     H94528   4.172   5.340   5.606  3.4811  0.0812 -1.8997
  685MOL0     H94529   4.235   5.205   5.528  0.3530  1.2831 -0.6150
  685MOL0     H94530   4.062   5.255   5.506 -2.3940 -0.2485  3.0653
  686MOL0     O94531   5.366   7.750   9.127 -0.2776 -0.6731 -0.2336
  686MOL0     C94532   5.242   7.753   9.128 -1.1514 -0.1160  0.5607
  686MOL0     O94533   5.163   7.735   9.238  0.4866 -0.0409  0.3836
  686MOL0     C94534   5.225   7.716   9.356  0.0420  0.0955 -0.5624
  686MOL0     C94535   5.293   7.602   9.385 -0.0664  1.2339 -0.2860
  686MOL0     C94536   5.372   7.591   9.505 -0.2073 -0.2877 -0.4267
  686MOL0     C94537   5.359   7.698   9.596  0.7197 -0.1952 -0.2492
  686MOL0     O94538   5.417   7.696   9.718 -0.8228  0.1850  0.5258
  686MOL0     C94539   5.528   7.608   9.740 -0.1025  0.0786 -0.2265
  686MOL0     C94540   5.607   7.658   9.857  0.0344 -0.3232  0.3643
  686MOL0     C94541   5.690   7.553   9.932  0.1745  0.0681 -0.4034
  686MOL0     C94542   5.816   7.623   9.986 -0.8833  0.6612  0.0193
  686MOL0     C94543   5.878   7.535  10.097  0.4814  0.5715  0.0766
  686MOL0     C94544   5.923   7.400  10.053 -0.0392  1.0473  0.9672
  686MOL0     C94545   6.044   7.414   9.962  0.2033  0.3524  0.3705
  686MOL0     C94546   6.113   7.285   9.940 -0.1328  0.1345 -0.2883
  686MOL0     N94547   6.250   7.309   9.892  0.6186  0.1754  0.5927
  686MOL0     C94548   6.368   7.335   9.961  0.5015  0.3213 -0.5162
  686MOL0     C94549   6.463   7.363   9.864  0.1336 -0.6038  0.4155
  686MOL0     C94550   6.612   7.393   9.892 -0.4663  0.1493 -0.3097
  686MOL0     C94551   6.697   7.430   9.782 -0.4185 -0.2495 -0.9195
  686MOL0     C94552   6.682   7.587   9.748  0.7634  0.5648 -0.6729
  686MOL0     C94553   6.791   7.640   9.650 -0.1933  0.0535  0.7067
  686MOL0     O94554   6.922   7.640   9.704  0.2210 -0.0153  0.5949
  686MOL0     C94555   7.025   7.666   9.628  0.2354 -0.3621 -0.4093
  686MOL0     C94556   7.040   7.634   9.485 -0.3664 -0.5404 -0.7344
  686MOL0     C94557   7.159   7.668   9.417  0.0184  0.5284 -0.2850
  686MOL0     C94558   7.160   7.645   9.273 -0.6778  0.3483  0.4035
  686MOL0     C94559   7.274   7.705   9.485 -0.4884 -1.3091 -0.1201
  686MOL0     C94560   7.414   7.713   9.433  0.4288 -1.4940  0.1815
  686MOL0     O94561   7.498   7.779   9.515 -0.0911 -0.0996  0.4467
  686MOL0     C94562   7.608   7.850   9.468  0.6243 -0.0215 -0.2123
  686MOL0     C94563   7.650   7.867   9.336  0.2789 -0.0460 -0.6097
  686MOL0     C94564   7.752   7.956   9.314  0.0549  0.2499  0.2973
  686MOL0     C94565   7.827   8.022   9.421  0.2378 -0.3960  0.5323
  686MOL0     O94566   7.946   8.094   9.412 -0.5414 -0.0448  0.1280
  686MOL0     C94567   8.015   8.119   9.287 -0.3046  0.2101  0.4430
  686MOL0     C94568   8.157   8.164   9.318 -1.4863  0.0304 -0.1910
  686MOL0     C94569   8.167   8.279   9.415  0.1662 -0.0102  0.3636
  686MOL0     C94570   8.314   8.313   9.450 -0.7545 -0.4813  0.1385
  686MOL0     C94571   8.351   8.440   9.374 -0.0263  0.1972  0.0895
  686MOL0     C94572   8.498   8.476   9.373 -0.1484  0.3980  0.1059
  686MOL0     C94573   8.556   8.533   9.503  0.3734  0.2519 -0.1008
  686MOL0     C94574   8.656   8.638   9.457 -0.3284 -0.3557  0.6929
  686MOL0    Cl94575   8.769   8.577   9.329 -0.2960  0.0356 -0.0535
  686MOL0     C94576   7.784   7.994   9.551 -1.0074  1.5255  0.0842
  686MOL0     C94577   7.669   7.918   9.575  0.4485  0.4387 -0.0629
  686MOL0     O94578   7.442   7.667   9.326 -0.5129 -0.2856  0.5659
  686MOL0     C94579   7.248   7.760   9.612  0.1279  0.4115 -0.0574
  686MOL0     C94580   7.131   7.735   9.684 -0.2532  0.0163  0.0656
  686MOL0     N94581   6.404   7.334   9.743  0.6406  0.2499 -0.7308
  686MOL0     N94582   6.283   7.301   9.758 -0.0373  1.0553  0.1027
  686MOL0     C94583   5.270   7.804   9.570 -0.0015  0.1712  0.8998
  686MOL0     C94584   5.202   7.816   9.452  0.0792  0.0724  0.5849
  686MOL0     C94585   5.180   7.789   8.995 -0.1298  0.2426 -0.1249
  686MOL0     C94586   5.264   7.798   8.886 -0.0694 -0.4225  0.1051
  686MOL0     C94587   5.224   7.802   8.751 -0.5367  0.3079 -0.4221
  686MOL0     C94588   5.087   7.787   8.727  0.8959 -0.5289 -1.0887
  686MOL0     O94589   5.044   7.758   8.600 -0.8588  0.0816  0.1067
  686MOL0     C94590   4.929   7.677   8.590  0.3138 -0.3138  0.1090
  686MOL0     C94591   4.891   7.664   8.446 -0.0793 -0.1990 -0.3868
  686MOL0     C94592   4.823   7.800   8.408  0.6429 -0.0338  0.6334
  686MOL0     C94593   4.737   7.783   8.278 -0.5309  0.3638 -0.1032
  686MOL0     C94594   4.657   7.902   8.276 -1.1070 -0.1783  0.4249
  686MOL0     C94595   4.588   7.993   8.282  0.4772 -1.4035 -0.8930
  686MOL0     C94596   5.001   7.784   8.843 -0.8913  0.7444  0.3433
  686MOL0     C94597   5.043   7.784   8.970  0.3635  0.0352 -0.1881
  686MOL0     C94598   4.936   7.753   9.085 -0.1707 -0.2864  0.2688
  686MOL0     H94599   5.308   7.518   9.317 -0.5299 -0.2972  1.4151
  686MOL0     H94600   5.444   7.511   9.520  2.7397  2.1806 -0.6500
  686MOL0     H94601   5.593   7.599   9.653 -1.1404  0.5830 -1.0774
  686MOL0     H94602   5.494   7.505   9.755  0.8721 -0.2862 -0.4748
  686MOL0     H94603   5.667   7.733   9.806 -2.9612  2.4350  0.5720
  686MOL0     H94604   5.534   7.701   9.927  2.5026  1.5447  1.9368
  686MOL0     H94605   5.634   7.497  10.007 -0.5500 -1.3463 -1.9205
  686MOL0     H94606   5.717   7.475   9.860  0.3155  1.6532 -2.1506
  686MOL0     H94607   5.890   7.642   9.908 -1.4511  1.4213 -0.3443
  686MOL0     H94608   5.785   7.721  10.022 -2.9290  0.4325 -0.9744
  686MOL0     H94609   5.793   7.523  10.165  1.4200 -0.5548  1.1067
  686MOL0     H94610   5.953   7.579  10.163  1.3342 -2.1822  1.0968
  686MOL0     H94611   5.948   7.337  10.139  1.4454 -0.4898 -0.5174
  686MOL0     H94612   5.839   7.352  10.003  2.0271 -2.9448  0.9124
  686MOL0     H94613   6.109   7.486  10.012 -0.2878  1.2862 -0.2975
  686MOL0     H94614   6.012   7.453   9.864  0.4038 -3.3098 -1.2983
  686MOL0     H94615   6.116   7.222  10.029  0.2651 -3.3815 -2.6010
  686MOL0     H94616   6.052   7.218   9.879 -1.3838 -1.8790  2.9071
  686MOL0     H94617   6.375   7.340  10.069 -0.7142  2.4678 -0.4748
  686MOL0     H94618   6.647   7.298   9.933 -2.1693 -1.0254 -1.4642
  686MOL0     H94619   6.626   7.468   9.970  2.0745 -1.4076  0.8588
  686MOL0     H94620   6.804   7.415   9.803 -0.3461 -0.0926 -1.1701
  686MOL0     H94621   6.687   7.372   9.691 -2.3944  1.1395 -1.6603
  686MOL0     H94622   6.583   7.604   9.705 -0.6846 -4.7164 -0.1209
  686MOL0     H94623   6.686   7.632   9.847  1.1072  0.1930 -0.5139
  686MOL0     H94624   6.790   7.576   9.561 -0.8792  0.4494  0.4279
  686MOL0     H94625   6.777   7.738   9.604  3.9301  0.2587 -0.5354
  686MOL0     H94626   6.950   7.603   9.433 -0.6671 -1.6560  0.3906
  686MOL0     H94627   7.201   7.546   9.253  1.4576  1.4016 -0.8013
  686MOL0     H94628   7.221   7.720   9.221 -0.7920 -0.5321 -1.0575
  686MOL0     H94629   7.060   7.649   9.228  0.6573 -0.2798 -2.8888
  686MOL0     H94630   7.602   7.833   9.245 -2.7382  2.4233 -0.0953
  686MOL0     H94631   7.778   7.972   9.210  2.8213  0.5308  0.9496
  686MOL0     H94632   8.009   8.034   9.219 -2.3508  1.7397 -1.4546
  686MOL0     H94633   7.960   8.205   9.246  1.3989  2.0700  1.8495
  686MOL0     H94634   8.219   8.080   9.350  0.1162  1.5815  0.9369
  686MOL0     H94635   8.198   8.200   9.223 -2.7168  0.8887 -0.4276
  686MOL0     H94636   8.124   8.241   9.508  1.7958  0.9042  1.5280
  686MOL0     H94637   8.116   8.365   9.371  0.9640  1.2545  1.8244
  686MOL0     H94638   8.382   8.235   9.416 -1.5920 -0.3796 -1.8686
  686MOL0     H94639   8.327   8.330   9.558  3.2873  3.8765 -0.6866
  686MOL0     H94640   8.324   8.420   9.270  1.6164  2.3379 -0.8161
  686MOL0     H94641   8.282   8.518   9.409  0.4143  1.0544 -0.9226
  686MOL0     H94642   8.516   8.545   9.290  3.1691  0.4341  0.7369
  686MOL0     H94643   8.558   8.389   9.346  0.6674  0.5666  1.2960
  686MOL0     H94644   8.605   8.454   9.561  1.5808  0.0506 -1.3600
  686MOL0     H94645   8.477   8.583   9.561  0.9893  1.4959 -0.3048
  686MOL0     H94646   8.717   8.678   9.538 -0.5199  1.6454 -0.0964
  686MOL0     H94647   8.600   8.723   9.416  1.3996  0.0358 -0.9986
  686MOL0     H94648   7.839   8.039   9.634 -0.5442  1.3861 -0.1441
  686MOL0     H94649   7.634   7.901   9.677  1.5075  0.0996  0.2583
  686MOL0     H94650   7.325   7.811   9.668 -0.3202  1.4597 -0.3633
  686MOL0     H94651   7.118   7.772   9.786  1.0747  1.8745 -0.3737
  686MOL0     H94652   5.246   7.888   9.635  2.5724  2.3462 -0.7627
  686MOL0     H94653   5.148   7.909   9.436 -0.3714 -0.6541 -3.0747
  686MOL0     H94654   5.369   7.818   8.903 -0.6713  1.1162  2.4234
  686MOL0     H94655   5.282   7.795   8.659  0.1846 -4.0811  0.1383
  686MOL0     H94656   4.946   7.580   8.636 -1.5731  0.4947  2.7678
  686MOL0     H94657   4.844   7.724   8.640 -1.9514 -0.9438 -2.8832
  686MOL0     H94658   4.818   7.583   8.432  1.5085 -1.5761 -1.0440
  686MOL0     H94659   4.982   7.641   8.391 -1.2042 -2.0717 -1.6096
  686MOL0     H94660   4.749   7.821   8.487 -1.2928 -0.7567 -0.9002
  686MOL0     H94661   4.899   7.879   8.407  2.1405 -1.3395  2.7446
  686MOL0     H94662   4.677   7.692   8.280 -0.2543  0.1718 -0.4301
  686MOL0     H94663   4.803   7.780   8.191  1.1502  2.4712  1.0097
  686MOL0     H94664   4.515   8.072   8.286  0.5096 -1.3061 -1.8313
  686MOL0     H94665   4.894   7.771   8.833 -0.5089 -1.4625 -1.7063
  686MOL0     H94666   4.836   7.750   9.041 -0.0557 -0.5539  0.0246
  686MOL0     H94667   4.951   7.650   9.121  0.2391 -0.0754  0.7104
  686MOL0     H94668   4.936   7.825   9.168 -1.9042  2.1336 -1.6692
  687MOL0     O94669   2.086  10.061   9.292  0.7551 -0.5170 -0.3882
  687MOL0     C94670   2.033  10.001   9.384  0.5383  0.5356 -0.0364
  687MOL0     O94671   2.098   9.919   9.473  0.1578  0.6046 -0.0240
  687MOL0     C94672   2.235   9.920   9.463 -0.0264 -0.0590  0.0660
  687MOL0     C94673   2.310  10.038   9.496 -0.4047  0.7443  0.5742
  687MOL0     C94674   2.446  10.035   9.496  1.1242  0.1811  0.9832
  687MOL0     C94675   2.515   9.913   9.469 -0.2083 -0.6553  0.7211
  687MOL0     O94676   2.645   9.895   9.476  0.2468  0.7467 -0.4849
  687MOL0     C94677   2.742   9.995   9.503  1.0338 -0.8758 -0.4420
  687MOL0     C94678   2.876   9.969   9.434  0.4843  0.1485 -0.0278
  687MOL0     C94679   2.983  10.073   9.471  0.0439  0.2060  0.6894
  687MOL0     C94680   3.105  10.073   9.369 -0.2027  0.6347  1.1897
  687MOL0     C94681   3.203  10.186   9.391  0.3671  0.5694 -0.2414
  687MOL0     C94682   3.308  10.177   9.280 -0.1319 -0.3107  0.4220
  687MOL0     C94683   3.418  10.273   9.319 -0.5247 -0.4438 -0.1040
  687MOL0     C94684   3.522  10.270   9.211 -0.8111 -0.4327  0.0995
  687MOL0     N94685   3.644  10.342   9.252 -0.4557  0.4800  0.4178
  687MOL0     C94686   3.658  10.477   9.277  0.0790  0.1549  0.5533
  687MOL0     C94687   3.790  10.495   9.280 -0.0559 -0.6583  0.3508
  687MOL0     C94688   3.849  10.625   9.326 -1.2784  0.9596  0.5191
  687MOL0     C94689   3.995  10.656   9.305 -0.2320  0.3523  0.7212
  687MOL0     C94690   4.016  10.708   9.167 -0.8110 -0.9563  0.3413
  687MOL0     C94691   4.168  10.728   9.128 -0.0674 -0.4975 -0.7322
  687MOL0     O94692   4.213  10.833   9.208 -0.3622 -0.5782 -0.8965
  687MOL0     C94693   4.351  10.839   9.221 -1.0570 -0.1244  0.1333
  687MOL0     C94694   4.432  10.937   9.145  1.2006 -0.2636 -0.4498
  687MOL0     C94695   4.570  10.944   9.146  0.9717 -0.3828  0.2240
  687MOL0     C94696   4.654  11.036   9.054  0.2597 -0.5443  0.4603
  687MOL0     C94697   4.636  10.854   9.226  0.1474 -0.3737  0.7901
  687MOL0     C94698   4.783  10.851   9.238 -0.8015 -0.0086 -0.2439
  687MOL0     O94699   4.828  10.856   9.365 -0.6724 -0.0022 -0.3584
  687MOL0     C94700   4.961  10.836   9.385  0.1991 -0.2319  0.2636
  687MOL0     C94701   5.050  10.941   9.368  0.4671 -0.4266 -0.5910
  687MOL0     C94702   5.187  10.925   9.403  0.2394 -0.2788  0.6340
  687MOL0     C94703   5.229  10.805   9.456 -0.8616 -0.1049  1.0602
  687MOL0     O94704   5.358  10.783   9.492 -0.2028  0.2703  0.2721
  687MOL0     C94705   5.453  10.891   9.509  0.0581 -0.7597 -0.8442
  687MOL0     C94706   5.419  10.990   9.626  0.1324  0.2782 -0.4973
  687MOL0     C94707   5.543  11.052   9.699 -0.1617  0.5111  0.0746
  687MOL0     C94708   5.630  11.151   9.616 -0.1679 -0.1275 -0.6454
  687MOL0     C94709   5.761  11.155   9.696 -0.6898  0.3876  0.1429
  687MOL0     C94710   5.867  11.241   9.635 -0.3271 -1.1127 -0.5278
  687MOL0     C94711   5.999  11.248   9.725  0.7242  0.3282 -0.1996
  687MOL0     C94712   6.084  11.123   9.717  0.0865  0.1606 -0.3583
  687MOL0    Cl94713   6.199  11.150   9.844  0.0395  0.2919  0.0956
  687MOL0     C94714   5.134  10.696   9.464  0.1225  0.2345 -0.0154
  687MOL0     C94715   5.004  10.717   9.435  0.1836 -0.1538 -0.2131
  687MOL0     O94716   4.854  10.835   9.135  0.6246  0.2370 -1.0596
  687MOL0     C94717   4.566  10.767   9.307  0.5666 -0.3669 -0.4719
  687MOL0     C94718   4.426  10.751   9.297 -0.7580  0.0759  0.2208
  687MOL0     N94719   3.861  10.375   9.259  0.2618  0.1103 -0.0850
  687MOL0     N94720   3.765  10.287   9.239  0.0520  0.6444 -0.0347
  687MOL0     C94721   2.448   9.795   9.433  0.2269  0.5947 -0.5314
  687MOL0     C94722   2.305   9.799   9.429  0.1176  0.0938 -0.5083
  687MOL0     C94723   1.881  10.014   9.389 -0.3618 -0.0250  0.8107
  687MOL0     C94724   1.810  10.041   9.273  0.6318  0.5274  0.9846
  687MOL0     C94725   1.675  10.057   9.274  0.2704 -0.6297  0.8634
  687MOL0     C94726   1.599  10.023   9.389 -0.4877 -0.1606  0.6315
  687MOL0     O94727   1.461  10.033   9.387 -0.5303 -0.4234 -0.6762
  687MOL0     C94728   1.401   9.909   9.363 -0.4367 -0.1640  0.0868
  687MOL0     C94729   1.249   9.934   9.346 -0.4702 -0.2084 -0.4517
  687MOL0     C94730   1.180   9.944   9.481  0.1300 -0.2758 -0.2641
  687MOL0     C94731   1.053  10.031   9.464  1.1253 -0.4114  0.4309
  687MOL0     C94732   0.953  10.001   9.354  0.5495  0.2537 -0.1071
  687MOL0     C94733   0.856   9.981   9.283 -0.3559 -0.5906  0.4122
  687MOL0     C94734   1.667   9.989   9.506  0.1198 -0.9482  0.0960
  687MOL0     C94735   1.813   9.989   9.511  0.0171 -0.7015 -0.1059
  687MOL0     C94736   1.881   9.977   9.654 -0.2288  0.9944 -0.3914
  687MOL0     H94737   2.244  10.122   9.517 -0.0454  1.4130 -0.8828
  687MOL0     H94738   2.500  10.125   9.521 -0.8595  1.4269  1.0349
  687MOL0     H94739   2.755   9.998   9.611 -0.0316 -0.0551 -0.3269
  687MOL0     H94740   2.712  10.093   9.466  1.3575 -0.8149 -0.5498
  687MOL0     H94741   2.918   9.872   9.459  0.1780  0.2142  0.7611
  687MOL0     H94742   2.847   9.966   9.328  0.6289 -0.9571 -0.0428
  687MOL0     H94743   2.934  10.171   9.462 -0.5131  0.1623  2.8279
  687MOL0     H94744   3.022  10.057   9.572  1.4467 -1.6796 -0.0979
  687MOL0     H94745   3.146   9.972   9.375 -4.2416 -1.3710 -0.9522
  687MOL0     H94746   3.066  10.081   9.267  2.8838 -0.4769 -0.2185
  687MOL0     H94747   3.239  10.185   9.494 -1.8873 -1.6316  0.6129
  687MOL0     H94748   3.139  10.274   9.385  0.2962  0.8329  2.7748
  687MOL0     H94749   3.352  10.077   9.277  1.2115  0.1319  2.5741
  687MOL0     H94750   3.256  10.206   9.188 -2.8109 -2.8350  0.9929
  687MOL0     H94751   3.459  10.234   9.412 -1.4515 -0.9636  0.0915
  687MOL0     H94752   3.383  10.377   9.326  1.1799  0.1787 -0.1668
  687MOL0     H94753   3.544  10.166   9.184  0.5104  0.3963 -2.4014
  687MOL0     H94754   3.493  10.323   9.120  0.2706  5.5029  2.7811
  687MOL0     H94755   3.579  10.552   9.282 -0.2989 -0.3004  1.7000
  687MOL0     H94756   3.833  10.628   9.434 -0.2084 -1.9404  0.8470
  687MOL0     H94757   3.805  10.711   9.274  0.7880  2.4678  1.1148
  687MOL0     H94758   4.015  10.730   9.383 -1.3958 -0.0536  1.4347
  687MOL0     H94759   4.056  10.567   9.317  0.1015  0.4105 -0.3869
  687MOL0     H94760   3.977  10.625   9.107 -1.8631  0.5102 -1.0835
  687MOL0     H94761   3.963  10.801   9.145 -0.1127 -0.6610 -0.0926
  687MOL0     H94762   4.231  10.641   9.148 -0.0435 -0.0896  1.1091
  687MOL0     H94763   4.171  10.750   9.021 -1.9160 -0.2150 -0.7537
  687MOL0     H94764   4.375  11.011   9.089  3.1813  1.1515 -0.7258
  687MOL0     H94765   4.727  10.983   8.992 -2.8634 -0.3357 -3.9359
  687MOL0     H94766   4.716  11.098   9.119  0.3078  1.2312 -1.1724
  687MOL0     H94767   4.586  11.098   8.993 -0.0138 -1.0628  0.2344
  687MOL0     H94768   5.010  11.039   9.341  2.7351  0.7410  0.0087
  687MOL0     H94769   5.257  11.005   9.382 -1.4090  1.0290 -0.0965
  687MOL0     H94770   5.556  10.859   9.522  1.1654  3.0302  1.5055
  687MOL0     H94771   5.453  10.949   9.416  3.2857  0.3218 -0.3026
  687MOL0     H94772   5.359  11.073   9.589  0.3483  1.5557  1.8140
  687MOL0     H94773   5.361  10.946   9.707 -0.3745 -1.6895 -1.8561
  687MOL0     H94774   5.606  10.975   9.744 -1.0502 -0.0939  0.3227
  687MOL0     H94775   5.501  11.119   9.774 -0.0384  1.1801 -0.4490
  687MOL0     H94776   5.588  11.252   9.608 -0.1193 -0.1313 -0.9678
  687MOL0     H94777   5.644  11.120   9.512  1.7702  1.1765 -0.8207
  687MOL0     H94778   5.735  11.197   9.794 -2.2434 -0.4181  0.1078
  687MOL0     H94779   5.809  11.059   9.713 -0.9638  0.5769  2.3259
  687MOL0     H94780   5.841  11.346   9.620  1.6598 -0.4360  0.4149
  687MOL0     H94781   5.902  11.216   9.534  0.5998  0.8064 -0.7174
  687MOL0     H94782   5.966  11.257   9.829 -1.0275  0.6288 -0.7453
  687MOL0     H94783   6.061  11.337   9.708  1.2900  0.3624  1.7027
  687MOL0     H94784   6.138  11.126   9.622  1.9887 -0.0011  0.6564
  687MOL0     H94785   6.022  11.034   9.728  1.4177 -0.7181  0.2728
  687MOL0     H94786   5.166  10.603   9.511  0.4492  0.0265 -0.6415
  687MOL0     H94787   4.930  10.638   9.443 -0.2447  0.2235 -0.3771
  687MOL0     H94788   4.613  10.700   9.378 -0.9751 -0.8074  0.1715
  687MOL0     H94789   4.380  10.680   9.365  0.9536  0.4789  1.8858
  687MOL0     H94790   2.496   9.699   9.417 -3.6116 -1.7450  0.7591
  687MOL0     H94791   2.244   9.713   9.403  2.1562 -1.6386  0.1768
  687MOL0     H94792   1.856  10.051   9.175  0.2853  0.1255  0.7815
  687MOL0     H94793   1.627  10.078   9.179  0.7958 -0.2609  0.6754
  687MOL0     H94794   1.449   9.864   9.275  1.3705 -0.7937  1.3397
  687MOL0     H94795   1.415   9.836   9.443 -3.0248 -0.5119  0.3180
  687MOL0     H94796   1.196   9.852   9.298 -1.9447 -0.1187  0.9372
  687MOL0     H94797   1.236  10.026   9.287  2.3987  1.9408  1.9620
  687MOL0     H94798   1.146   9.848   9.520  0.7645  0.6282  2.8408
  687MOL0     H94799   1.237   9.999   9.557 -0.2910 -1.6020  1.0699
  687MOL0     H94800   1.098  10.126   9.434  0.7355 -1.2169 -3.1293
  687MOL0     H94801   0.997  10.047   9.557 -0.6137  1.6004 -0.8750
  687MOL0     H94802   0.773   9.965   9.217 -1.2370  0.5739  1.1929
  687MOL0     H94803   1.606   9.974   9.595 -0.8531 -0.1717 -0.4255
  687MOL0     H94804   1.806  10.022   9.720 -2.3830 -1.7262 -0.8384
  687MOL0     H94805   1.915   9.876   9.677  3.3482  1.6092 -2.2298
  687MOL0     H94806   1.970  10.041   9.662  2.4378 -2.5421  1.1803
  688MOL0     O94807   4.407   2.593   4.778 -0.2966 -0.2953 -0.1057
  688MOL0     C94808   4.442   2.520   4.869 -0.5362 -0.6842  0.5710
  688MOL0     O94809   4.568   2.488   4.893 -0.1368 -0.3340  0.0706
  688MOL0     C94810   4.676   2.516   4.806 -0.3494 -0.7160  0.0617
  688MOL0     C94811   4.678   2.515   4.668  0.8987 -0.2298 -1.1205
  688MOL0     C94812   4.782   2.552   4.595  0.7788  0.2426 -0.0880
  688MOL0     C94813   4.897   2.609   4.657  0.4128  0.1243 -0.0028
  688MOL0     O94814   4.994   2.655   4.579  0.2874  0.6669  0.6320
  688MOL0     C94815   5.097   2.747   4.625  0.3493  0.5731  0.2138
  688MOL0     C94816   5.163   2.829   4.508  0.3757  0.1354  0.9425
  688MOL0     C94817   5.273   2.913   4.554 -0.2603 -0.7269  0.0815
  688MOL0     C94818   5.344   2.991   4.445 -0.3930  0.2608  0.1777
  688MOL0     C94819   5.436   3.103   4.493  0.3387  0.2654  0.5434
  688MOL0     C94820   5.534   3.150   4.379 -0.5376 -0.1739  0.8043
  688MOL0     C94821   5.648   3.232   4.439  0.5788 -0.1016 -0.2647
  688MOL0     C94822   5.727   3.170   4.556 -1.4401  0.1358 -0.1371
  688MOL0     N94823   5.845   3.253   4.583  0.2796  0.6895 -0.1675
  688MOL0     C94824   5.933   3.290   4.490 -0.5057  0.1253  0.4286
  688MOL0     C94825   6.030   3.362   4.558  0.1945 -0.1502 -0.5738
  688MOL0     C94826   6.142   3.431   4.502 -0.6266 -0.3123  0.0613
  688MOL0     C94827   6.252   3.330   4.465 -0.3240 -0.5779 -0.1039
  688MOL0     C94828   6.381   3.401   4.422 -0.5829 -0.1539 -0.4620
  688MOL0     C94829   6.508   3.309   4.398  1.0432 -0.8900 -0.1066
  688MOL0     O94830   6.626   3.387   4.363  0.6830  0.1765 -0.0326
  688MOL0     C94831   6.743   3.330   4.395 -0.4885  0.4794  0.4889
  688MOL0     C94832   6.781   3.297   4.528  0.1212 -0.2216  0.5022
  688MOL0     C94833   6.904   3.241   4.556 -0.0157  0.3391  0.0092
  688MOL0     C94834   6.933   3.215   4.699 -0.0260 -0.3123 -0.0749
  688MOL0     C94835   6.985   3.211   4.443  0.9616  0.4114 -1.0622
  688MOL0     C94836   7.113   3.135   4.473  0.1563  0.4896 -0.5578
  688MOL0     O94837   7.109   3.023   4.556  0.0399 -0.8463  0.0322
  688MOL0     C94838   7.233   2.973   4.592  0.2050  0.5498 -0.1440
  688MOL0     C94839   7.290   3.023   4.708  0.5022 -0.3229 -0.6367
  688MOL0     C94840   7.406   2.968   4.748  0.5226 -0.6915  0.4821
  688MOL0     C94841   7.469   2.868   4.683  0.2937 -0.5008 -0.5169
  688MOL0     O94842   7.597   2.832   4.714  0.1620  0.2109  0.1191
  688MOL0     C94843   7.628   2.776   4.837  0.7508  0.3335  0.3320
  688MOL0     C94844   7.774   2.799   4.864  0.7139  0.1898  0.6209
  688MOL0     C94845   7.879   2.718   4.766  0.7309 -0.9852 -0.6619
  688MOL0     C94846   8.019   2.776   4.793  0.0048 -0.9388 -0.0121
  688MOL0     C94847   8.110   2.726   4.680  1.0589 -0.3603 -0.8487
  688MOL0     C94848   8.248   2.746   4.718 -0.0848 -0.5589  0.0945
  688MOL0     C94849   8.355   2.744   4.607  0.5966  0.1139  0.4663
  688MOL0     C94850   8.383   2.600   4.573  0.3154  0.3201 -0.4086
  688MOL0    Cl94851   8.547   2.582   4.501 -0.3738  0.1683 -0.1331
  688MOL0     C94852   7.417   2.825   4.557  0.4098  0.5361 -0.9512
  688MOL0     C94853   7.292   2.870   4.520  0.0315  0.1082  0.2557
  688MOL0     O94854   7.203   3.168   4.402 -0.2727  0.3510  0.3670
  688MOL0     C94855   6.949   3.239   4.306 -0.4771 -0.3635 -0.1694
  688MOL0     C94856   6.823   3.304   4.283 -0.2709  0.4451  0.0509
  688MOL0     N94857   5.989   3.371   4.691 -0.1807  0.1706 -0.7789
  688MOL0     N94858   5.879   3.314   4.705 -0.3025  0.1281  0.0644
  688MOL0     C94859   4.905   2.604   4.794 -0.0885  0.3911  0.4046
  688MOL0     C94860   4.794   2.554   4.867 -0.4998 -0.1849  0.5662
  688MOL0     C94861   4.339   2.468   4.970 -0.1401  0.4124 -0.0965
  688MOL0     C94862   4.389   2.430   5.096 -0.9437 -0.1450  0.0438
  688MOL0     C94863   4.309   2.362   5.184  0.2966  0.1667  0.2152
  688MOL0     C94864   4.173   2.350   5.164  0.2429  0.4621 -0.1849
  688MOL0     O94865   4.100   2.275   5.254 -0.6422 -0.2243  0.0359
  688MOL0     C94866   3.958   2.263   5.249 -0.3568 -0.5802 -0.7924
  688MOL0     C94867   3.927   2.167   5.362 -0.0130  0.4512 -0.3526
  688MOL0     C94868   3.918   2.217   5.512 -0.9848 -1.0863  0.0882
  688MOL0     C94869   3.971   2.116   5.617  0.2024  0.3341 -0.5602
  688MOL0     C94870   3.937   1.977   5.601 -0.5541 -0.4684  0.2479
  688MOL0     C94871   3.901   1.859   5.587  0.7088  0.3378  0.2907
  688MOL0     C94872   4.117   2.408   5.053 -0.0288 -0.0376 -0.0960
  688MOL0     C94873   4.201   2.464   4.957 -0.0624 -0.7773  0.2072
  688MOL0     C94874   4.137   2.526   4.834  0.2850 -0.9115  0.2657
  688MOL0     H94875   4.588   2.479   4.619  0.2161 -1.9596  1.1996
  688MOL0     H94876   4.791   2.558   4.487  4.4742  3.0673  0.1911
  688MOL0     H94877   5.164   2.684   4.685 -1.1958  2.0165  3.7457
  688MOL0     H94878   5.061   2.819   4.700 -0.3634 -0.2154  0.6468
  688MOL0     H94879   5.199   2.770   4.423  2.4384  0.6433  1.4200
  688MOL0     H94880   5.083   2.892   4.468 -0.6795 -1.6612  0.0941
  688MOL0     H94881   5.243   2.975   4.639 -1.3156 -1.4075  0.2262
  688MOL0     H94882   5.349   2.845   4.594  1.6584  1.4617  0.3667
  688MOL0     H94883   5.413   2.925   4.392 -1.0080  0.1780 -0.5362
  688MOL0     H94884   5.274   3.028   4.370  0.4313  0.7570 -0.3540
  688MOL0     H94885   5.499   3.063   4.574  1.2241  0.0839 -0.2227
  688MOL0     H94886   5.382   3.192   4.528 -2.1094  1.2971 -4.8976
  688MOL0     H94887   5.575   3.061   4.331 -2.4757 -0.1600 -0.9944
  688MOL0     H94888   5.480   3.202   4.300  0.4236  1.8723  1.4084
  688MOL0     H94889   5.610   3.330   4.469  2.3454 -0.0580  2.0699
  688MOL0     H94890   5.723   3.246   4.360 -0.1728  0.1852 -0.9455
  688MOL0     H94891   5.668   3.161   4.647  2.5054 -2.3356  2.5096
  688MOL0     H94892   5.769   3.075   4.521  2.7031  1.5657  0.4579
  688MOL0     H94893   5.936   3.255   4.387  1.0987  1.4244  0.0001
  688MOL0     H94894   6.167   3.503   4.580  0.7854 -1.3631  0.6309
  688MOL0     H94895   6.108   3.487   4.414  0.5086 -0.5171 -0.5324
  688MOL0     H94896   6.275   3.282   4.560  0.4762 -0.1128 -0.0513
  688MOL0     H94897   6.225   3.251   4.395 -1.9566 -1.0574  1.0130
  688MOL0     H94898   6.359   3.439   4.322 -1.5725 -2.8017 -1.3255
  688MOL0     H94899   6.398   3.491   4.483  1.8528 -0.4748 -0.5787
  688MOL0     H94900   6.521   3.242   4.483  1.1697 -0.0480  0.5493
  688MOL0     H94901   6.487   3.233   4.323  2.0618 -0.7386 -0.5541
  688MOL0     H94902   6.710   3.319   4.607  1.2816  0.7441  1.3235
  688MOL0     H94903   7.041   3.216   4.716  0.2771 -1.1616 -1.7179
  688MOL0     H94904   6.912   3.110   4.722 -2.1327 -0.4956 -2.4295
  688MOL0     H94905   6.888   3.285   4.770  1.6170  0.5826  0.1445
  688MOL0     H94906   7.242   3.103   4.764  1.4007 -0.1749 -0.0493
  688MOL0     H94907   7.441   3.002   4.845  1.3744 -1.7976  0.5891
  688MOL0     H94908   7.560   2.808   4.916 -2.2513 -2.4770 -0.8969
  688MOL0     H94909   7.609   2.668   4.844 -4.2471  0.9043 -0.6926
  688MOL0     H94910   7.800   2.905   4.860 -2.6334  1.0928 -1.3707
  688MOL0     H94911   7.796   2.762   4.964 -1.2060 -0.5360  0.8113
  688MOL0     H94912   7.861   2.734   4.659  1.7583 -0.1794 -0.7280
  688MOL0     H94913   7.883   2.613   4.798 -2.8146 -0.7664  0.9135
  688MOL0     H94914   8.055   2.740   4.890  2.8912 -0.5188 -0.8484
  688MOL0     H94915   8.011   2.885   4.789 -0.7852 -0.9974 -3.0742
  688MOL0     H94916   8.078   2.624   4.657  0.4738 -0.4535  0.3440
  688MOL0     H94917   8.084   2.789   4.594 -0.5087  0.3473  0.1013
  688MOL0     H94918   8.280   2.684   4.802  1.6205  0.1492 -0.0037
  688MOL0     H94919   8.263   2.840   4.771 -1.2417 -0.8316  0.9453
  688MOL0     H94920   8.435   2.808   4.645 -0.9336  2.0844  0.5270
  688MOL0     H94921   8.315   2.794   4.518 -0.3732 -1.8234 -0.2380
  688MOL0     H94922   8.314   2.553   4.503  1.8851 -1.6938 -0.6987
  688MOL0     H94923   8.378   2.539   4.663 -4.5146 -0.1714 -0.7165
  688MOL0     H94924   7.478   2.756   4.498 -0.4343 -0.8651 -0.2524
  688MOL0     H94925   7.256   2.842   4.422 -3.1918  0.5880  1.1782
  688MOL0     H94926   7.012   3.196   4.229 -0.6074 -0.3237 -0.2992
  688MOL0     H94927   6.798   3.318   4.179  4.0282 -0.8033 -1.3897
  688MOL0     H94928   4.988   2.640   4.854  0.9335 -2.5778  0.9452
  688MOL0     H94929   4.804   2.543   4.974 -2.7781  1.2403  0.9900
  688MOL0     H94930   4.493   2.455   5.114 -0.6176 -0.8250 -0.7877
  688MOL0     H94931   4.355   2.319   5.273  0.7399  1.6094  0.7209
  688MOL0     H94932   3.917   2.361   5.277  2.3334  0.1179  1.1742
  688MOL0     H94933   3.921   2.223   5.155  0.6685  1.5463 -2.1803
  688MOL0     H94934   4.006   2.091   5.351  1.4152  1.8012  0.1867
  688MOL0     H94935   3.837   2.113   5.330  1.4420 -1.1524 -2.0032
  688MOL0     H94936   3.984   2.303   5.532 -3.0329  0.4953  0.4109
  688MOL0     H94937   3.820   2.259   5.535 -0.7604  0.5786 -1.7437
  688MOL0     H94938   3.930   2.142   5.716  0.0378  2.2795 -1.0962
  688MOL0     H94939   4.080   2.125   5.618  0.3179 -0.6082 -1.9974
  688MOL0     H94940   3.856   1.762   5.593  0.9079 -0.0283 -2.5372
  688MOL0     H94941   4.008   2.408   5.050 -0.1160 -1.7968  1.2251
  688MOL0     H94942   4.168   2.631   4.835 -2.3027 -0.0426 -1.4479
  688MOL0     H94943   4.176   2.482   4.742  1.1309  1.6584 -0.6918
  688MOL0     H94944   4.028   2.535   4.837  0.2608 -0.0181 -1.7418
  689MOL0     O94945   9.384   5.778   7.855 -0.3175 -0.3699  0.0860
  689MOL0     C94946   9.494   5.799   7.915  0.5681  0.2615  0.1174
  689MOL0     O94947   9.548   5.716   8.003  0.1940  0.5986 -0.3036
  689MOL0     C94948   9.481   5.610   8.052 -0.6471  0.5984 -0.4980
  689MOL0     C94949   9.474   5.480   7.986 -0.1830 -0.0478 -0.8436
  689MOL0     C94950   9.418   5.365   8.048  0.2761  0.2256  0.3498
  689MOL0     C94951   9.361   5.375   8.175  0.1946  0.2738 -0.4728
  689MOL0     O94952   9.314   5.272   8.251  0.0067 -0.1498  0.0697
  689MOL0     C94953   9.384   5.152   8.221  0.0398  0.8340  0.3388
  689MOL0     C94954   9.341   5.053   8.338 -0.7947  0.7756  0.3316
  689MOL0     C94955   9.432   4.930   8.333  0.3218  0.1319  0.1257
  689MOL0     C94956   9.579   4.957   8.313  0.2609  0.0080 -0.1171
  689MOL0     C94957   9.663   4.840   8.356  0.5682 -1.0606 -0.0168
  689MOL0     C94958   9.809   4.885   8.347  0.7651  0.4829  0.4530
  689MOL0     C94959   9.901   4.771   8.404 -0.0590  0.7294  0.6416
  689MOL0     C94960   9.904   4.644   8.310  0.2579 -0.0021  0.6802
  689MOL0     N94961   9.998   4.542   8.355 -0.1133 -0.0897 -0.0053
  689MOL0     C94962  10.118   4.565   8.405  0.4948 -0.1172  0.5113
  689MOL0     C94963  10.165   4.435   8.446 -0.4361 -0.6861  0.0744
  689MOL0     C94964  10.311   4.420   8.487 -0.3576 -0.6701  0.6117
  689MOL0     C94965  10.412   4.474   8.393 -0.6610  0.5293  0.1163
  689MOL0     C94966  10.544   4.508   8.469 -1.0162 -0.0072 -0.7954
  689MOL0     C94967  10.648   4.574   8.371 -0.2752  0.0499  0.0531
  689MOL0     O94968  10.756   4.648   8.431 -0.4297 -0.0403  0.2010
  689MOL0     C94969  10.879   4.587   8.443 -0.1913 -0.0907  1.3446
  689MOL0     C94970  10.953   4.548   8.331 -1.1059  0.8727  0.4927
  689MOL0     C94971  11.079   4.488   8.350 -0.8516  0.1850  0.4096
  689MOL0     C94972  11.149   4.470   8.218  0.3494  0.5235  0.2395
  689MOL0     C94973  11.135   4.460   8.480 -0.0936 -0.0781 -0.9987
  689MOL0     C94974  11.259   4.387   8.504  0.0042  0.1769  0.3176
  689MOL0     O94975  11.289   4.347   8.630  0.2706  0.1178  0.1913
  689MOL0     C94976  11.411   4.307   8.660 -0.7379 -0.3949 -0.4575
  689MOL0     C94977  11.446   4.173   8.670 -0.2773 -0.1120  0.3788
  689MOL0     C94978  11.571   4.140   8.717  0.6902  0.3299 -0.8880
  689MOL0     C94979  11.660   4.236   8.774 -0.3249 -0.6325  0.4190
  689MOL0     O94980  11.778   4.214   8.833 -0.1586  0.5928  0.4458
  689MOL0     C94981  11.857   4.107   8.783 -0.0154  0.5984  0.2701
  689MOL0     C94982  11.928   4.140   8.658  0.1311  0.4744  0.7380
  689MOL0     C94983  12.013   4.016   8.594  0.5175 -0.1043 -0.4116
  689MOL0     C94984  12.045   4.054   8.443  0.5887 -0.2564 -0.2652
  689MOL0     C94985  12.121   3.950   8.364  0.1185  0.5711 -0.6855
  689MOL0     C94986  12.166   3.996   8.227 -0.4109 -0.4019  0.2287
  689MOL0     C94987  12.314   4.040   8.209  0.2316  0.8456 -0.2376
  689MOL0     C94988  12.329   4.187   8.250  0.2776  0.2458  0.0681
  689MOL0    Cl94989  12.433   4.287   8.138 -0.1551  0.0016  0.2642
  689MOL0     C94990  11.613   4.369   8.765  0.1760  0.4133 -0.2495
  689MOL0     C94991  11.497   4.402   8.714  0.7334  0.3769 -0.2120
  689MOL0     O94992  11.334   4.370   8.409  0.0765 -0.1915 -0.0929
  689MOL0     C94993  11.057   4.508   8.585  0.2341 -0.0093 -0.0194
  689MOL0     C94994  10.932   4.564   8.567 -0.0823  0.2357  0.0885
  689MOL0     N94995  10.070   4.339   8.407  0.4936  0.2817 -0.2968
  689MOL0     N94996   9.968   4.405   8.355  0.1087 -0.5603  0.3867
  689MOL0     C94997   9.346   5.505   8.229 -0.3453  0.4194 -0.3569
  689MOL0     C94998   9.407   5.621   8.173 -0.7188 -0.3330 -0.3072
  689MOL0     C94999   9.578   5.911   7.872 -0.3347 -0.4170 -0.6219
  689MOL0     C95000   9.712   5.881   7.858  0.0145 -0.5297  0.9111
  689MOL0     C95001   9.793   5.981   7.800  0.9075  0.0885  0.1728
  689MOL0     C95002   9.744   6.115   7.771  0.0573  0.1301  0.0879
  689MOL0     O95003   9.812   6.217   7.727 -1.1008 -0.9843 -0.1992
  689MOL0     C95004   9.929   6.182   7.654 -0.3595  0.7439  0.0540
  689MOL0     C95005   9.984   6.296   7.585 -0.0536 -0.5689  0.2660
  689MOL0     C95006  10.106   6.281   7.481  0.0566 -0.3651  0.2656
  689MOL0     C95007  10.060   6.191   7.374  0.7330 -0.5147  0.6131
  689MOL0     C95008  10.159   6.175   7.267 -0.2108  0.3374  0.2845
  689MOL0     C95009  10.245   6.159   7.183  0.2367 -0.1951  0.3736
  689MOL0     C95010   9.603   6.137   7.786  0.3301  0.1756 -0.1591
  689MOL0     C95011   9.524   6.036   7.842 -0.0922 -0.1470  0.3973
  689MOL0     C95012   9.373   6.064   7.875 -0.4518  0.3641 -0.1446
  689MOL0     H95013   9.521   5.467   7.889  0.7252  1.6579 -0.6673
  689MOL0     H95014   9.421   5.274   7.989 -0.6422 -0.0047  0.6395
  689MOL0     H95015   9.489   5.180   8.223 -0.0659  1.2194  0.6323
  689MOL0     H95016   9.367   5.112   8.120 -2.1664  4.3741 -0.8606
  689MOL0     H95017   9.361   5.110   8.429  0.5086  0.9906 -0.0717
  689MOL0     H95018   9.236   5.022   8.344 -0.6010 -0.4825 -1.9404
  689MOL0     H95019   9.419   4.886   8.432 -3.7472  3.3014  1.2832
  689MOL0     H95020   9.400   4.854   8.261  0.9055 -0.2728  0.2903
  689MOL0     H95021   9.603   4.981   8.208  4.2467 -3.4565 -0.2663
  689MOL0     H95022   9.599   5.043   8.377 -1.1877 -0.8312  1.5195
  689MOL0     H95023   9.642   4.758   8.287  1.4068  0.9794 -2.8778
  689MOL0     H95024   9.639   4.805   8.457  0.7613  3.6480  1.8998
  689MOL0     H95025   9.834   4.901   8.241 -2.4884 -0.4472 -0.5712
  689MOL0     H95026   9.825   4.982   8.395  0.2687  0.7376  0.1258
  689MOL0     H95027   9.878   4.727   8.501  0.6441 -1.6885 -0.2109
  689MOL0     H95028  10.002   4.813   8.415  0.2681 -0.5669  3.2934
  689MOL0     H95029   9.804   4.604   8.326  0.9605 -1.2263  2.3500
  689MOL0     H95030   9.915   4.667   8.204 -0.4418 -1.5088  0.2725
  689MOL0     H95031  10.165   4.661   8.424 -2.3249  1.3368  0.6480
  689MOL0     H95032  10.336   4.319   8.521 -0.7447 -1.1034 -0.3720
  689MOL0     H95033  10.311   4.485   8.575 -1.1887 -1.8914  1.5602
  689MOL0     H95034  10.433   4.390   8.327  0.0494  1.0903 -0.3896
  689MOL0     H95035  10.374   4.552   8.327 -3.3498  0.0261  0.9575
  689MOL0     H95036  10.523   4.583   8.546  3.4340  2.5638 -1.6864
  689MOL0     H95037  10.592   4.418   8.509 -0.0406 -0.5821 -3.1005
  689MOL0     H95038  10.680   4.497   8.299 -0.8286 -0.5621  0.4500
  689MOL0     H95039  10.582   4.640   8.314  0.1140 -1.0802 -1.8007
  689MOL0     H95040  10.897   4.572   8.242  0.5131 -0.4284 -0.9513
  689MOL0     H95041  11.082   4.484   8.133 -2.4768 -3.0900  1.6027
  689MOL0     H95042  11.175   4.365   8.199  0.5182  1.0728 -3.0640
  689MOL0     H95043  11.227   4.545   8.204 -0.5130  1.4278  0.1991
  689MOL0     H95044  11.390   4.087   8.634  1.2966 -0.7844 -0.6210
  689MOL0     H95045  11.599   4.035   8.713  0.6238  0.2524  0.1702
  689MOL0     H95046  11.930   4.076   8.859  1.2617 -1.5465 -1.7259
  689MOL0     H95047  11.792   4.019   8.786 -1.4296  1.6208  0.8877
  689MOL0     H95048  11.844   4.151   8.590  0.7495 -1.5039 -0.4365
  689MOL0     H95049  11.994   4.227   8.670  0.5771  0.6177 -2.0548
  689MOL0     H95050  11.951   3.926   8.588 -1.2816  0.8178  2.2787
  689MOL0     H95051  12.101   3.988   8.653  2.1314  0.2945 -2.5122
  689MOL0     H95052  12.104   4.146   8.445 -0.6073  0.6594 -2.4989
  689MOL0     H95053  11.952   4.070   8.387 -1.6396 -0.8410  3.0244
  689MOL0     H95054  12.208   3.919   8.423 -1.8650  0.5174  2.4783
  689MOL0     H95055  12.056   3.864   8.346 -1.2120  1.9585 -3.0792
  689MOL0     H95056  12.101   4.082   8.206 -0.0572  1.1412  4.4735
  689MOL0     H95057  12.144   3.923   8.149  0.3516  0.8974 -1.2558
  689MOL0     H95058  12.350   4.016   8.108 -0.7017  2.2336 -0.9422
  689MOL0     H95059  12.373   3.976   8.275  1.4092 -0.0655 -2.0793
  689MOL0     H95060  12.377   4.192   8.348  1.4850 -0.7257 -0.4532
  689MOL0     H95061  12.230   4.233   8.261 -0.0405 -0.7061  1.5611
  689MOL0     H95062  11.678   4.447   8.802  0.9465 -1.2462  2.1533
  689MOL0     H95063  11.458   4.501   8.735 -2.1142 -0.9250  1.1832
  689MOL0     H95064  11.095   4.498   8.686  2.5004 -2.5417 -1.0087
  689MOL0     H95065  10.884   4.590   8.661 -2.2576 -1.1510 -0.5579
  689MOL0     H95066   9.305   5.521   8.328 -1.1824 -3.3131  0.0479
  689MOL0     H95067   9.415   5.724   8.205  0.4748 -1.2584  2.6471
  689MOL0     H95068   9.767   5.793   7.891  3.1287  1.3742  1.2974
  689MOL0     H95069   9.900   5.962   7.790  1.6442  3.7195 -0.1613
  689MOL0     H95070  10.002   6.143   7.726 -0.4756 -0.4283 -0.4483
  689MOL0     H95071   9.900   6.105   7.583  0.5999 -2.8610  3.2741
  689MOL0     H95072  10.017   6.370   7.659 -1.1381  0.2172  0.0010
  689MOL0     H95073   9.902   6.340   7.527  0.9473  3.1746  1.3869
  689MOL0     H95074  10.129   6.377   7.434 -1.1865  0.5335  1.4072
  689MOL0     H95075  10.193   6.237   7.530  1.4325  1.9187 -0.0246
  689MOL0     H95076   9.967   6.223   7.325  1.0305  0.0599  0.4164
  689MOL0     H95077  10.033   6.093   7.414  0.7004 -0.4388  0.7765
  689MOL0     H95078  10.315   6.140   7.103  0.8718 -1.4054  1.1719
  689MOL0     H95079   9.551   6.227   7.754 -0.2680 -0.0073  0.2839
  689MOL0     H95080   9.309   6.054   7.787 -0.3903 -0.6830 -0.0763
  689MOL0     H95081   9.332   6.001   7.954 -0.1590 -0.8047 -0.8939
  689MOL0     H95082   9.352   6.165   7.910 -1.9631  0.0750 -0.1720
  690MOL0     O95083   9.415  11.274   1.632 -0.0893  0.7649  0.8629
  690MOL0     C95084   9.347  11.211   1.552  0.8785 -0.1746  0.2084
  690MOL0     O95085   9.379  11.102   1.485 -0.5080 -0.3819  0.2909
  690MOL0     C95086   9.507  11.088   1.458 -0.2582 -0.8092 -0.7518
  690MOL0     C95087   9.585  11.200   1.424 -0.3337  0.5848  0.5642
  690MOL0     C95088   9.717  11.189   1.384 -0.7232 -0.3402 -0.2795
  690MOL0     C95089   9.779  11.068   1.386 -0.3249 -0.5843  0.7716
  690MOL0     O95090   9.916  11.047   1.362  0.5086  0.0207  0.0509
  690MOL0     C95091   9.998  11.161   1.322  0.0093  0.2080 -0.0821
  690MOL0     C95092  10.144  11.112   1.302 -0.4782  0.4227 -0.3207
  690MOL0     C95093  10.247  11.130   1.413  0.3685  0.6763 -0.2138
  690MOL0     C95094  10.303  11.263   1.434 -0.1338 -0.2201 -0.1217
  690MOL0     C95095  10.407  11.257   1.554 -0.2143 -0.1285  0.4928
  690MOL0     C95096  10.342  11.295   1.685 -0.2775 -0.2630 -0.2367
  690MOL0     C95097  10.438  11.283   1.805 -0.6913 -0.7803 -0.4064
  690MOL0     C95098  10.370  11.301   1.941  0.4483  0.1006  0.0580
  690MOL0     N95099  10.315  11.436   1.969  0.2246  0.2708 -0.2394
  690MOL0     C95100  10.390  11.549   1.966  0.4976 -0.0712 -0.8508
  690MOL0     C95101  10.314  11.650   2.025 -0.4166  0.6564 -0.1069
  690MOL0     C95102  10.365  11.787   2.069  0.7604  0.2720  0.4316
  690MOL0     C95103  10.337  11.811   2.214  0.5383  0.0156 -0.2935
  690MOL0     C95104  10.421  11.713   2.302 -0.7869  0.2630 -1.2086
  690MOL0     C95105  10.392  11.711   2.453 -0.1303  0.1065 -0.0680
  690MOL0     O95106  10.253  11.658   2.463  0.2779 -0.9522  0.3335
  690MOL0     C95107  10.155  11.725   2.541  0.1089 -0.1188 -0.5533
  690MOL0     C95108  10.161  11.860   2.585  0.2002  0.1278  0.3076
  690MOL0     C95109  10.068  11.912   2.676 -0.7142  0.0317  0.4670
  690MOL0     C95110  10.099  12.056   2.722 -0.5503  0.1709  0.1356
  690MOL0     C95111   9.959  11.834   2.718 -0.7087 -0.5892 -0.0412
  690MOL0     C95112   9.861  11.875   2.817 -0.1168 -0.1791 -0.5457
  690MOL0     O95113   9.743  11.808   2.812  0.6535  0.3797  0.2369
  690MOL0     C95114   9.629  11.864   2.869  0.0764  0.3836 -0.1469
  690MOL0     C95115   9.542  11.773   2.926 -0.3130  0.3525 -0.0027
  690MOL0     C95116   9.420  11.824   2.975  0.2183  0.1939  0.2148
  690MOL0     C95117   9.383  11.958   2.983  0.1819 -0.6663 -0.1045
  690MOL0     O95118   9.254  11.971   3.026 -0.0326 -0.3175 -0.1489
  690MOL0     C95119   9.202  12.105   3.037 -0.3799  0.3160 -0.1851
  690MOL0     C95120   9.076  12.106   3.123 -1.0793  0.0693  0.1098
  690MOL0     C95121   8.959  12.041   3.057 -0.5834 -0.1803 -0.1354
  690MOL0     C95122   8.830  12.061   3.135 -0.1675  0.0484  0.2232
  690MOL0     C95123   8.710  11.983   3.089 -0.0749 -0.5276  0.9583
  690MOL0     C95124   8.706  11.837   3.145 -0.4614 -0.6381  0.3756
  690MOL0     C95125   8.604  11.734   3.090 -0.1972  0.3459 -0.5399
  690MOL0     C95126   8.456  11.740   3.139 -0.1613  0.0000 -0.1324
  690MOL0    Cl95127   8.379  11.591   3.078 -0.5475  0.1364 -0.5879
  690MOL0     C95128   9.487  12.047   2.945 -0.1320 -0.2239  0.1634
  690MOL0     C95129   9.604  11.998   2.890 -0.2237  0.3175  0.3058
  690MOL0     O95130   9.902  11.944   2.911 -0.4043 -0.4396  0.1091
  690MOL0     C95131   9.946  11.708   2.658  0.7003 -0.3495 -0.3816
  690MOL0     C95132  10.038  11.657   2.571  0.5338 -0.2789 -0.0682
  690MOL0     N95133  10.193  11.596   2.057  0.1954 -0.3325 -0.4490
  690MOL0     N95134  10.196  11.464   2.030 -0.8494 -1.0752  0.2457
  690MOL0     C95135   9.705  10.957   1.432  0.1052 -0.2228  0.1141
  690MOL0     C95136   9.571  10.966   1.461 -0.3741 -0.5735 -0.2775
  690MOL0     C95137   9.210  11.262   1.542 -0.1677  0.4850 -0.0951
  690MOL0     C95138   9.175  11.395   1.554  0.0020 -0.1810 -0.1007
  690MOL0     C95139   9.044  11.442   1.540  0.4887  0.1513 -0.5716
  690MOL0     C95140   8.933  11.357   1.524 -0.9449  1.3401  0.4363
  690MOL0     O95141   8.813  11.416   1.513 -0.4705 -0.5940 -0.1989
  690MOL0     C95142   8.696  11.341   1.483  0.3780 -0.3685 -0.0725
  690MOL0     C95143   8.695  11.336   1.330 -0.0040  1.1082  0.3719
  690MOL0     C95144   8.637  11.455   1.252 -0.2270 -0.3333 -0.3082
  690MOL0     C95145   8.529  11.416   1.143 -0.1918  0.4383  0.5637
  690MOL0     C95146   8.422  11.326   1.199 -0.5665  0.2370  0.7058
  690MOL0     C95147   8.328  11.261   1.241 -0.4438  0.5013  0.0025
  690MOL0     C95148   8.963  11.221   1.525 -0.0551  0.2901 -0.3781
  690MOL0     C95149   9.097  11.170   1.537  0.3900  0.7727  0.9804
  690MOL0     C95150   9.108  11.017   1.535  0.0992 -0.0469 -0.4558
  690MOL0     H95151   9.549  11.302   1.414 -2.3179 -0.2875 -3.5829
  690MOL0     H95152   9.773  11.278   1.358 -1.4108  0.2477  0.2151
  690MOL0     H95153   9.998  11.241   1.396  2.3231 -0.1080  0.3534
  690MOL0     H95154   9.963  11.217   1.235 -0.4492  2.5114  1.4992
  690MOL0     H95155  10.150  11.006   1.274  0.9074  0.3930 -0.0073
  690MOL0     H95156  10.197  11.161   1.220  1.1950  2.2889  1.7676
  690MOL0     H95157  10.210  11.095   1.509  1.0668  0.7020  0.0655
  690MOL0     H95158  10.326  11.060   1.386 -0.9151 -1.2279  0.7277
  690MOL0     H95159  10.355  11.315   1.352  0.8752  0.5147  0.9479
  690MOL0     H95160  10.223  11.330   1.467 -0.1707 -0.4287  0.2114
  690MOL0     H95161  10.486  11.330   1.536  0.2891 -0.7067  0.3064
  690MOL0     H95162  10.449  11.156   1.555  1.0926  0.1797 -3.6012
  690MOL0     H95163  10.309  11.399   1.675  1.1738  0.1304 -1.1451
  690MOL0     H95164  10.259  11.225   1.704 -0.4016 -0.3146 -0.9425
  690MOL0     H95165  10.526  11.345   1.788  0.7227 -2.6289 -0.1154
  690MOL0     H95166  10.484  11.184   1.806  1.1760  0.0515  0.1841
  690MOL0     H95167  10.304  11.215   1.951  1.8036 -1.0740 -0.6071
  690MOL0     H95168  10.451  11.280   2.012 -0.5244 -2.2447  0.5529
  690MOL0     H95169  10.494  11.539   1.936  1.1281 -0.0057  1.1915
  690MOL0     H95170  10.312  11.866   2.015 -2.3370 -0.3460  2.3345
  690MOL0     H95171  10.473  11.790   2.048  0.5581 -0.1570 -0.7590
  690MOL0     H95172  10.360  11.913   2.246 -2.9852  0.4602  1.3780
  690MOL0     H95173  10.229  11.797   2.231  0.7485 -1.5290 -0.0125
  690MOL0     H95174  10.388  11.618   2.258 -0.4918  1.3751 -4.0339
  690MOL0     H95175  10.530  11.713   2.291 -0.8025 -1.4830 -1.7333
  690MOL0     H95176  10.467  11.651   2.505  0.6775  0.4661 -0.7936
  690MOL0     H95177  10.404  11.810   2.496 -0.5316 -0.6272  1.8069
  690MOL0     H95178  10.248  11.915   2.550  2.6810 -2.9544  1.1742
  690MOL0     H95179  10.196  12.084   2.679 -1.2197 -0.7047 -2.1087
  690MOL0     H95180  10.094  12.086   2.827  0.1602  2.9380 -0.5218
  690MOL0     H95181  10.029  12.121   2.668  0.6270  0.4956 -1.0704
  690MOL0     H95182   9.564  11.667   2.936 -1.5479  0.2434  2.5434
  690MOL0     H95183   9.351  11.750   3.013  1.0865 -1.0602 -0.5466
  690MOL0     H95184   9.279  12.172   3.076  0.4819  0.1469 -1.5458
  690MOL0     H95185   9.164  12.137   2.940 -1.3755 -1.4450 -0.4293
  690MOL0     H95186   9.095  12.052   3.216 -0.1615 -0.0820 -0.1492
  690MOL0     H95187   9.059  12.207   3.161 -0.9939 -0.0732  0.5299
  690MOL0     H95188   8.977  11.934   3.042  0.0010 -0.2882  1.1596
  690MOL0     H95189   8.945  12.079   2.956 -1.5860  0.4662  0.2398
  690MOL0     H95190   8.804  12.167   3.138  0.4644  0.3597 -2.5472
  690MOL0     H95191   8.842  12.021   3.236  0.7185 -2.9054 -0.9199
  690MOL0     H95192   8.621  12.039   3.120  1.9088  3.6613 -0.1730
  690MOL0     H95193   8.715  11.992   2.980  0.1859 -1.3815  0.8928
  690MOL0     H95194   8.690  11.849   3.252 -1.4069  0.1330  0.1583
  690MOL0     H95195   8.809  11.799   3.135  0.9160  2.6799  0.7823
  690MOL0     H95196   8.646  11.634   3.098 -0.2295  0.3415 -0.4295
  690MOL0     H95197   8.610  11.764   2.984  5.2491  0.1677 -0.5801
  690MOL0     H95198   8.403  11.825   3.094  0.6929  0.4576 -0.2876
  690MOL0     H95199   8.448  11.747   3.248 -0.2409  0.6948 -0.1762
  690MOL0     H95200   9.473  12.155   2.950 -0.4876 -0.1885 -1.1270
  690MOL0     H95201   9.676  12.070   2.852 -0.6174 -0.6344 -2.4615
  690MOL0     H95202   9.858  11.647   2.673 -0.0437 -0.0476 -2.9938
  690MOL0     H95203  10.024  11.561   2.523 -1.2709 -1.1937  2.1247
  690MOL0     H95204   9.748  10.857   1.438  1.2266  0.1344 -1.4992
  690MOL0     H95205   9.500  10.886   1.480 -2.2123  0.9350 -0.4844
  690MOL0     H95206   9.254  11.470   1.560 -0.4379  0.3089 -0.3786
  690MOL0     H95207   9.008  11.544   1.544  0.1480  0.0003  1.0877
  690MOL0     H95208   8.702  11.245   1.534  2.5221  0.2992  1.0380
  690MOL0     H95209   8.606  11.395   1.517 -0.4816  1.1604 -4.1690
  690MOL0     H95210   8.639  11.244   1.308 -1.0934  1.4032  1.7605
  690MOL0     H95211   8.799  11.318   1.301 -0.6345  0.1802 -1.5161
  690MOL0     H95212   8.577  11.519   1.318  1.1473  1.3262 -0.5904
  690MOL0     H95213   8.712  11.526   1.217 -1.3911  2.5104  2.4469
  690MOL0     H95214   8.582  11.362   1.064 -1.0367 -0.5608  0.6532
  690MOL0     H95215   8.490  11.508   1.100 -2.6186 -1.4852 -1.6978
  690MOL0     H95216   8.246  11.205   1.281 -0.0586 -0.3101 -0.3337
  690MOL0     H95217   8.894  11.138   1.527 -0.8971  0.9494 -1.2869
  690MOL0     H95218   9.015  10.969   1.564  2.0561 -2.7105  2.0118
  690MOL0     H95219   9.135  10.975   1.437  0.9819  0.9141 -0.6420
  690MOL0     H95220   9.177  10.983   1.613  1.6885  2.8925 -0.4276
  691MOL0     O95221   7.047   3.126   2.443  0.2579 -0.1702 -0.1250
  691MOL0     C95222   6.937   3.182   2.423  0.5211  0.1219  0.1936
  691MOL0     O95223   6.884   3.283   2.492  0.7386 -0.0905 -1.0980
  691MOL0     C95224   6.938   3.303   2.616  1.0439 -0.4146 -0.3149
  691MOL0     C95225   7.056   3.366   2.634  0.2495 -0.5868  0.1623
  691MOL0     C95226   7.115   3.376   2.763  0.0904 -0.6506 -0.0058
  691MOL0     C95227   7.046   3.328   2.869  0.1468 -0.2270 -0.1297
  691MOL0     O95228   7.091   3.339   2.994 -0.3357  0.5762  0.3735
  691MOL0     C95229   7.240   3.308   3.012 -0.0060  0.4882 -0.3385
  691MOL0     C95230   7.273   3.276   3.160 -0.2590 -0.5103  0.4459
  691MOL0     C95231   7.224   3.149   3.222 -0.5481  0.8687  0.0060
  691MOL0     C95232   7.261   3.024   3.144  0.3191  0.2836 -0.0747
  691MOL0     C95233   7.203   2.908   3.223 -0.0401  0.4750 -0.0616
  691MOL0     C95234   7.189   2.776   3.155 -0.0351 -0.9346  0.7508
  691MOL0     C95235   7.083   2.684   3.220 -0.6185 -0.2629  0.2653
  691MOL0     C95236   7.080   2.547   3.143  0.7508  0.4730  0.9889
  691MOL0     N95237   7.154   2.440   3.203  0.5836 -0.6837  0.1257
  691MOL0     C95238   7.192   2.322   3.136 -0.3936 -0.2891 -0.1865
  691MOL0     C95239   7.283   2.262   3.226 -0.0945  0.1277 -0.4410
  691MOL0     C95240   7.361   2.145   3.208  0.3497  1.2828 -0.5397
  691MOL0     C95241   7.512   2.167   3.187  0.5908 -0.1173 -0.3390
  691MOL0     C95242   7.577   2.248   3.304  0.0047 -0.3989  1.0542
  691MOL0     C95243   7.581   2.181   3.432 -0.5338  0.6321  0.0714
  691MOL0     O95244   7.648   2.050   3.435  0.0341  0.0108 -0.5170
  691MOL0     C95245   7.779   2.035   3.416 -0.2597 -0.4494 -0.4058
  691MOL0     C95246   7.823   1.900   3.396  0.0863 -1.1389 -1.3179
  691MOL0     C95247   7.961   1.875   3.375  0.7347  0.4991 -0.6052
  691MOL0     C95248   8.001   1.724   3.389  1.0413 -0.3830  0.2688
  691MOL0     C95249   8.053   1.978   3.361 -0.5896  0.4113 -0.0497
  691MOL0     C95250   8.196   1.966   3.331 -1.0037  0.4334 -0.4769
  691MOL0     O95251   8.274   2.081   3.329 -0.4719 -0.3199 -0.0432
  691MOL0     C95252   8.407   2.081   3.288  1.7063  0.8248  0.1811
  691MOL0     C95253   8.443   2.036   3.165 -0.9668  0.6280 -0.0245
  691MOL0     C95254   8.583   2.043   3.138 -0.0397 -0.1110  0.9937
  691MOL0     C95255   8.679   2.090   3.225 -0.0878  0.0192 -0.8211
  691MOL0     O95256   8.806   2.098   3.188 -0.3030 -0.8687 -0.1826
  691MOL0     C95257   8.898   2.053   3.296 -0.0492  0.3172  0.1965
  691MOL0     C95258   8.998   2.172   3.323  0.4102 -0.2342  0.3685
  691MOL0     C95259   9.122   2.171   3.229 -1.1687 -0.4890  0.5226
  691MOL0     C95260   9.229   2.063   3.259  0.1421  0.3182  0.4875
  691MOL0     C95261   9.298   2.066   3.392 -0.8477 -0.0528  0.2120
  691MOL0     C95262   9.372   2.192   3.428 -0.0593  0.1727 -0.5334
  691MOL0     C95263   9.479   2.220   3.325  0.0730 -0.2862 -0.3432
  691MOL0     C95264   9.579   2.320   3.379  0.2373 -0.9903  0.2054
  691MOL0    Cl95265   9.689   2.367   3.252  0.3604 -0.0650 -0.5560
  691MOL0     C95266   8.629   2.152   3.330 -1.3716  0.2781  0.2273
  691MOL0     C95267   8.504   2.141   3.365  1.2223  0.4334 -0.3652
  691MOL0     O95268   8.240   1.856   3.302 -0.2210  0.4316  0.3938
  691MOL0     C95269   8.008   2.116   3.384 -0.7309  1.3577  0.6772
  691MOL0     C95270   7.878   2.142   3.413  0.0577  0.0864 -0.5291
  691MOL0     N95271   7.276   2.329   3.345  0.2046 -0.0787  0.4325
  691MOL0     N95272   7.210   2.440   3.329 -0.0947  1.1005  0.5271
  691MOL0     C95273   6.929   3.264   2.854 -0.0808  0.4418  0.5133
  691MOL0     C95274   6.868   3.252   2.728 -0.2378 -0.3768  0.0449
  691MOL0     C95275   6.864   3.162   2.293 -0.0192 -0.4072  0.2133
  691MOL0     C95276   6.801   3.271   2.231 -0.6303  0.2043 -0.8925
  691MOL0     C95277   6.721   3.255   2.120  0.2230  0.4494 -0.3566
  691MOL0     C95278   6.692   3.134   2.062  0.3666 -0.1043  0.3163
  691MOL0     O95279   6.586   3.123   1.980  0.9447  0.0647  0.3402
  691MOL0     C95280   6.624   3.144   1.843  0.7748 -0.0623 -0.2236
  691MOL0     C95281   6.557   3.041   1.750  1.0393  0.5046  0.0333
  691MOL0     C95282   6.404   3.061   1.760  0.0410  0.1531  0.3822
  691MOL0     C95283   6.361   3.171   1.673  0.1217  0.5879 -0.4729
  691MOL0     C95284   6.416   3.186   1.537  0.4204 -0.0088 -0.0240
  691MOL0     C95285   6.463   3.186   1.428  0.4918 -0.8390 -0.4193
  691MOL0     C95286   6.762   3.024   2.116 -0.5629 -0.7436 -0.2448
  691MOL0     C95287   6.852   3.033   2.227  0.7099  0.1783 -0.4713
  691MOL0     C95288   6.898   2.901   2.286  0.2479 -0.2391  0.2608
  691MOL0     H95289   7.097   3.411   2.544 -1.2313 -1.1449 -0.8272
  691MOL0     H95290   7.209   3.430   2.765 -0.2851  0.3184 -3.0375
  691MOL0     H95291   7.295   3.398   2.985 -1.4766  1.4720 -0.1372
  691MOL0     H95292   7.258   3.221   2.947 -3.0466 -0.2200 -0.4233
  691MOL0     H95293   7.382   3.281   3.163 -0.2134  1.7759  5.3171
  691MOL0     H95294   7.237   3.362   3.218 -1.4198 -0.3036 -0.5280
  691MOL0     H95295   7.254   3.141   3.327  0.6692  0.5089 -0.3491
  691MOL0     H95296   7.115   3.152   3.217 -0.4994  1.4722 -1.3440
  691MOL0     H95297   7.222   3.034   3.043 -0.8821 -0.5549  0.2909
  691MOL0     H95298   7.371   3.025   3.147  0.3900  1.2042 -1.7675
  691MOL0     H95299   7.101   2.936   3.251  0.2074 -2.1548  4.4308
  691MOL0     H95300   7.258   2.908   3.317 -0.5593 -1.4117  0.2794
  691MOL0     H95301   7.166   2.782   3.048 -1.2421  0.2164  1.0515
  691MOL0     H95302   7.286   2.726   3.167  1.6632  1.8572 -0.3665
  691MOL0     H95303   6.979   2.716   3.205 -0.4834  0.8234  1.5324
  691MOL0     H95304   7.102   2.665   3.326 -0.2694 -1.9598 -0.0617
  691MOL0     H95305   6.976   2.519   3.128  0.6601  1.5236 -0.7140
  691MOL0     H95306   7.127   2.570   3.047  0.2324 -0.4108  0.5210
  691MOL0     H95307   7.170   2.294   3.033  1.5285  0.4241 -0.8341
  691MOL0     H95308   7.322   2.109   3.112 -4.7656  0.0023  1.6809
  691MOL0     H95309   7.331   2.068   3.279  0.8130  2.0274  0.4799
  691MOL0     H95310   7.557   2.067   3.192  2.2051  0.6289  1.7698
  691MOL0     H95311   7.529   2.209   3.088 -2.2742  5.3040  1.1105
  691MOL0     H95312   7.681   2.270   3.278 -0.5530  0.9658 -0.1814
  691MOL0     H95313   7.536   2.349   3.304 -0.3541 -0.5412  1.7078
  691MOL0     H95314   7.633   2.248   3.502 -0.7401 -0.5605  1.4153
  691MOL0     H95315   7.477   2.160   3.458 -0.0144 -0.1736  1.6660
  691MOL0     H95316   7.750   1.820   3.399 -2.1623  0.7994  1.1435
  691MOL0     H95317   8.085   1.713   3.459 -0.5734  1.2717  2.6321
  691MOL0     H95318   8.022   1.677   3.293 -0.0485  1.2007 -0.7906
  691MOL0     H95319   7.914   1.679   3.436 -0.4569  1.4125 -0.6380
  691MOL0     H95320   8.379   1.980   3.098  1.5856 -0.8779 -1.3727
  691MOL0     H95321   8.617   2.004   3.043  1.3837 -1.0697  1.8672
  691MOL0     H95322   8.833   2.023   3.379 -3.4202 -0.1285 -2.3634
  691MOL0     H95323   8.944   1.958   3.271 -0.8347  0.1193 -0.5581
  691MOL0     H95324   8.945   2.265   3.302 -0.1124 -0.8110 -0.9528
  691MOL0     H95325   9.030   2.172   3.428 -2.5145  1.5008  1.3845
  691MOL0     H95326   9.173   2.266   3.248 -2.8913  0.3612  1.1592
  691MOL0     H95327   9.076   2.167   3.129 -0.1914 -0.1292  0.0444
  691MOL0     H95328   9.302   2.069   3.177 -1.1830 -0.7039 -0.8182
  691MOL0     H95329   9.168   1.973   3.254  0.6978 -0.0991  1.0150
  691MOL0     H95330   9.215   2.055   3.464 -2.0794 -1.3168 -1.3263
  691MOL0     H95331   9.370   1.985   3.401  0.8825  1.5850  2.3682
  691MOL0     H95332   9.409   2.188   3.531 -0.3487 -2.1553 -0.4824
  691MOL0     H95333   9.299   2.274   3.432 -0.0322  0.1668  0.5463
  691MOL0     H95334   9.434   2.260   3.235  1.3459  0.4367 -0.6861
  691MOL0     H95335   9.525   2.126   3.292 -2.2187 -1.7573  0.4278
  691MOL0     H95336   9.634   2.288   3.467  0.3390  0.4694  0.7045
  691MOL0     H95337   9.520   2.409   3.404  1.8660 -0.1969  1.3457
  691MOL0     H95338   8.706   2.211   3.377 -0.3091  0.4986 -1.6871
  691MOL0     H95339   8.473   2.184   3.460  0.8413 -1.8639  0.6026
  691MOL0     H95340   8.075   2.200   3.369  0.2255  0.6121  0.7152
  691MOL0     H95341   7.849   2.243   3.439  0.3219 -0.4278  1.9755
  691MOL0     H95342   6.867   3.225   2.935 -0.9540 -2.6546 -1.4936
  691MOL0     H95343   6.766   3.219   2.710 -1.1561  3.1580 -2.3369
  691MOL0     H95344   6.831   3.365   2.278 -0.2435 -0.6079  0.5387
  691MOL0     H95345   6.679   3.345   2.077  1.8085  0.5362 -1.8503
  691MOL0     H95346   6.594   3.244   1.811 -2.8751 -0.9417 -0.0083
  691MOL0     H95347   6.733   3.143   1.829  0.7775  1.4795 -0.3989
  691MOL0     H95348   6.581   2.939   1.781 -2.0333 -0.2446  0.2738
  691MOL0     H95349   6.593   3.049   1.647 -0.2708 -1.2239 -0.6133
  691MOL0     H95350   6.346   2.974   1.729 -1.8359  0.5552  2.4944
  691MOL0     H95351   6.378   3.077   1.865  0.8205  1.6288  0.3757
  691MOL0     H95352   6.380   3.266   1.724 -1.2920  0.4305  0.4164
  691MOL0     H95353   6.252   3.166   1.679  0.0542  2.2625  0.4808
  691MOL0     H95354   6.504   3.183   1.329  3.3192 -0.2549  0.6446
  691MOL0     H95355   6.742   2.924   2.078 -1.5992 -0.6099 -0.0934
  691MOL0     H95356   7.006   2.913   2.302  0.4412 -4.0658  2.9925
  691MOL0     H95357   6.850   2.875   2.380 -1.0016 -0.3613 -0.3902
  691MOL0     H95358   6.886   2.819   2.215  1.5176  0.6782 -1.0812
  692MOL0     O95359   3.487   3.596   6.515  0.4730  0.3204  0.2846
  692MOL0     C95360   3.478   3.482   6.463  1.2068 -0.1468 -0.8330
  692MOL0     O95361   3.577   3.401   6.434 -0.5786 -0.9359 -0.3637
  692MOL0     C95362   3.705   3.444   6.456 -0.4919 -0.4192  0.6020
  692MOL0     C95363   3.792   3.350   6.507  0.1850  0.8054  0.0858
  692MOL0     C95364   3.928   3.383   6.540  0.8909 -0.0182 -0.1153
  692MOL0     C95365   3.983   3.503   6.489 -0.9095 -0.7764 -0.4152
  692MOL0     O95366   4.122   3.529   6.499  0.1251  0.1514  0.2156
  692MOL0     C95367   4.164   3.667   6.498 -0.4662 -0.5087 -0.1769
  692MOL0     C95368   4.313   3.679   6.539  0.0257 -0.1605  0.0471
  692MOL0     C95369   4.335   3.834   6.556  0.4966  0.2358  0.1886
  692MOL0     C95370   4.342   3.912   6.422  0.0619  0.0092  0.6033
  692MOL0     C95371   4.486   3.897   6.359  0.4312 -0.1848 -0.1213
  692MOL0     C95372   4.478   3.957   6.222 -0.5627 -0.2223 -0.2127
  692MOL0     C95373   4.600   3.925   6.143 -0.2948  0.0576 -0.4701
  692MOL0     C95374   4.727   3.991   6.190 -0.8839  1.5375 -0.0035
  692MOL0     N95375   4.842   3.938   6.114  0.3807 -0.1001  0.4390
  692MOL0     C95376   4.901   4.008   6.012  0.5818  0.9817 -0.1567
  692MOL0     C95377   5.008   3.934   5.979  0.2681  0.3350 -0.4989
  692MOL0     C95378   5.100   3.955   5.869  0.5801  0.4464  0.5480
  692MOL0     C95379   5.242   3.957   5.926 -0.9237 -0.2219  0.6179
  692MOL0     C95380   5.340   4.019   5.819 -0.1871 -0.0050 -0.8549
  692MOL0     C95381   5.363   3.909   5.705  0.8769 -0.7300  0.9394
  692MOL0     O95382   5.469   3.824   5.747  0.3595  0.1912  0.5804
  692MOL0     C95383   5.597   3.855   5.706 -0.2604  0.3737  0.0868
  692MOL0     C95384   5.639   3.974   5.649 -0.6561  0.8752  0.0346
  692MOL0     C95385   5.773   4.000   5.617  0.3815  0.7465  0.2105
  692MOL0     C95386   5.800   4.141   5.574  0.3900  0.1766 -0.0616
  692MOL0     C95387   5.867   3.897   5.623 -0.9454 -1.6795 -0.3786
  692MOL0     C95388   6.012   3.920   5.575  0.4131 -0.1633 -0.7535
  692MOL0     O95389   6.090   3.811   5.579  0.7104  0.5257  0.5329
  692MOL0     C95390   6.226   3.813   5.571  0.9690  0.0304  0.0565
  692MOL0     C95391   6.286   3.712   5.496  0.1508  0.2705  0.3815
  692MOL0     C95392   6.419   3.695   5.498 -0.8611 -0.2875  0.0647
  692MOL0     C95393   6.498   3.775   5.580  0.4915 -0.2790  0.5988
  692MOL0     O95394   6.631   3.749   5.583  0.4289  0.4281 -0.2444
  692MOL0     C95395   6.705   3.832   5.489  0.0058 -0.1286 -0.1270
  692MOL0     C95396   6.856   3.793   5.494  0.3881 -0.8636  0.7235
  692MOL0     C95397   6.909   3.800   5.639  0.0188 -0.2446  0.0850
  692MOL0     C95398   7.047   3.735   5.633  0.7287 -0.0999  0.5229
  692MOL0     C95399   7.099   3.731   5.766  0.0156 -0.0935 -0.8901
  692MOL0     C95400   7.255   3.714   5.775 -0.1248 -0.5852  0.5423
  692MOL0     C95401   7.298   3.672   5.912 -0.0972  0.3054  0.2252
  692MOL0     C95402   7.450   3.642   5.919  0.7391 -0.2738  0.4990
  692MOL0    Cl95403   7.502   3.654   6.085  0.0937  0.0308 -0.3588
  692MOL0     C95404   6.444   3.884   5.653  0.7542  0.5895  0.0553
  692MOL0     C95405   6.305   3.899   5.651 -0.9967 -0.6399 -0.1084
  692MOL0     O95406   6.052   4.031   5.558  0.4296 -0.3282 -0.6441
  692MOL0     C95407   5.832   3.779   5.674  0.3223  0.4935  0.1627
  692MOL0     C95408   5.695   3.754   5.724  0.2946  0.0615  0.1434
  692MOL0     N95409   5.005   3.817   6.051 -0.6192  0.3039 -0.3578
  692MOL0     N95410   4.917   3.824   6.140  0.0369  0.0510  0.3483
  692MOL0     C95411   3.897   3.589   6.420  0.4291  0.4479  0.1037
  692MOL0     C95412   3.760   3.564   6.410 -0.2700 -0.4549 -0.2288
  692MOL0     C95413   3.347   3.448   6.421  0.1632 -0.4329  0.6453
  692MOL0     C95414   3.258   3.541   6.361 -0.3265  0.5315 -0.3463
  692MOL0     C95415   3.132   3.515   6.312 -1.1465 -0.2011 -0.7287
  692MOL0     C95416   3.092   3.375   6.316 -0.5410 -0.6048  0.5379
  692MOL0     O95417   2.969   3.328   6.274  0.4190 -0.0193 -0.0110
  692MOL0     C95418   2.876   3.426   6.224 -1.1600  0.3407  0.8067
  692MOL0     C95419   2.752   3.340   6.174  0.0335 -0.0997 -0.1258
  692MOL0     C95420   2.783   3.222   6.084 -0.7480 -0.2745  0.1610
  692MOL0     C95421   2.656   3.158   6.033 -0.2442  1.0403 -0.2168
  692MOL0     C95422   2.692   3.043   5.949  0.7933 -0.6638 -0.6239
  692MOL0     C95423   2.733   2.945   5.893  0.2521 -0.0558  0.6690
  692MOL0     C95424   3.181   3.280   6.361 -0.2604 -0.2262  0.0134
  692MOL0     C95425   3.303   3.310   6.420  0.3148  0.3177 -0.2354
  692MOL0     C95426   3.381   3.198   6.488  0.2363  0.2305  0.8085
  692MOL0     H95427   3.747   3.252   6.518  3.6326 -0.8785  0.4341
  692MOL0     H95428   3.994   3.306   6.578 -1.4927 -2.2497 -0.1968
  692MOL0     H95429   4.106   3.728   6.568 -1.9982 -1.4533 -0.5686
  692MOL0     H95430   4.148   3.718   6.403  1.7099 -0.5023 -0.5738
  692MOL0     H95431   4.334   3.621   6.630  0.2317 -2.7997 -1.5832
  692MOL0     H95432   4.377   3.632   6.464  2.4812  1.1928  1.1408
  692MOL0     H95433   4.257   3.871   6.624 -2.3334 -3.3243 -0.7834
  692MOL0     H95434   4.430   3.857   6.604  2.0187 -1.3552 -1.8861
  692MOL0     H95435   4.266   3.900   6.344  1.6378 -0.0588 -0.9726
  692MOL0     H95436   4.342   4.016   6.457  2.3045  0.5910 -0.9179
  692MOL0     H95437   4.523   3.795   6.362 -0.5549 -0.5589 -0.3456
  692MOL0     H95438   4.550   3.967   6.414 -2.2275  3.1301 -0.8878
  692MOL0     H95439   4.398   3.904   6.169  0.0429 -1.4030  0.0111
  692MOL0     H95440   4.451   4.063   6.222  1.8097  0.5044 -2.9101
  692MOL0     H95441   4.569   3.968   6.048 -0.3414  1.0629 -0.0069
  692MOL0     H95442   4.610   3.816   6.143 -0.7414 -0.0979  2.9978
  692MOL0     H95443   4.721   4.100   6.182  1.5925  1.6710 -0.9217
  692MOL0     H95444   4.752   3.965   6.293  2.3863  2.2469 -0.5097
  692MOL0     H95445   4.870   4.106   5.978 -1.5180 -0.1884 -1.9374
  692MOL0     H95446   5.072   4.052   5.827  0.1253 -0.4078 -1.2035
  692MOL0     H95447   5.078   3.878   5.795  0.2430  0.2403  0.8567
  692MOL0     H95448   5.243   4.032   6.006  2.5196  1.4513 -0.7917
  692MOL0     H95449   5.266   3.857   5.964 -1.8257 -1.3194 -1.5375
  692MOL0     H95450   5.299   4.105   5.766 -0.7827  0.4635  0.3299
  692MOL0     H95451   5.435   4.049   5.865  0.3935 -0.6080 -1.6228
  692MOL0     H95452   5.272   3.850   5.695 -0.3244  0.2321  4.6626
  692MOL0     H95453   5.391   3.953   5.609 -2.2932 -0.5788 -0.0267
  692MOL0     H95454   5.564   4.053   5.658 -0.4795  0.7927  3.6803
  692MOL0     H95455   5.848   4.142   5.476  2.8625  1.5418  1.0922
  692MOL0     H95456   5.871   4.192   5.638 -0.8703  2.7573 -0.5898
  692MOL0     H95457   5.707   4.198   5.580  0.1580 -0.2908  0.9313
  692MOL0     H95458   6.228   3.649   5.429 -0.6074  0.7189  0.6107
  692MOL0     H95459   6.464   3.609   5.449  0.9379 -0.6250  2.1661
  692MOL0     H95460   6.669   3.801   5.390 -0.0250  0.3529 -0.2672
  692MOL0     H95461   6.693   3.939   5.511 -0.2022  0.3017 -2.1725
  692MOL0     H95462   6.862   3.693   5.450  1.0220  0.0897 -1.5225
  692MOL0     H95463   6.920   3.855   5.431  0.2408 -3.4091 -2.1592
  692MOL0     H95464   6.836   3.764   5.712 -0.4659 -0.4446 -0.4920
  692MOL0     H95465   6.925   3.905   5.666  1.6604 -1.0377  2.5377
  692MOL0     H95466   7.116   3.805   5.585  0.2756  1.1767  1.6288
  692MOL0     H95467   7.052   3.636   5.587 -2.6762 -0.0757 -0.1920
  692MOL0     H95468   7.067   3.817   5.826 -0.3761 -0.9932  0.2213
  692MOL0     H95469   7.046   3.651   5.819 -2.4366  1.3316 -1.0377
  692MOL0     H95470   7.289   3.811   5.737 -1.6309 -0.6188 -0.9915
  692MOL0     H95471   7.294   3.637   5.707 -1.0229 -1.2391  0.7533
  692MOL0     H95472   7.243   3.583   5.946 -1.0047 -0.3821 -2.7707
  692MOL0     H95473   7.273   3.748   5.986  2.3114 -0.7731  2.3432
  692MOL0     H95474   7.495   3.725   5.865 -0.1851  0.0827  0.2481
  692MOL0     H95475   7.469   3.542   5.879 -1.9922 -1.1088  1.0275
  692MOL0     H95476   6.505   3.945   5.719  0.1331  1.6544 -0.3390
  692MOL0     H95477   6.260   3.978   5.711  0.5096 -0.0559  0.2928
  692MOL0     H95478   5.909   3.705   5.695  0.2507 -0.1317 -1.5984
  692MOL0     H95479   5.657   3.664   5.771  0.9165  0.0174  0.5852
  692MOL0     H95480   3.935   3.678   6.372  0.4857 -0.1004 -0.9000
  692MOL0     H95481   3.697   3.643   6.369  2.1330  1.2125 -0.8937
  692MOL0     H95482   3.313   3.635   6.361  2.1556 -0.8336 -0.2982
  692MOL0     H95483   3.078   3.590   6.254  0.1391  1.0538 -0.3432
  692MOL0     H95484   2.850   3.508   6.291  0.4601  1.8192 -0.3125
  692MOL0     H95485   2.934   3.466   6.141 -0.1156 -1.6243  0.5195
  692MOL0     H95486   2.679   3.409   6.130 -0.4585 -0.4714  0.0887
  692MOL0     H95487   2.699   3.299   6.261  1.4653 -0.8953  0.4068
  692MOL0     H95488   2.846   3.267   6.007  1.6800  1.2211  2.7953
  692MOL0     H95489   2.845   3.161   6.149 -1.9272  0.4547  2.0732
  692MOL0     H95490   2.595   3.226   5.972 -1.4369  1.4743  1.4026
  692MOL0     H95491   2.595   3.126   6.118  0.3203 -0.4175 -0.3299
  692MOL0     H95492   2.737   2.874   5.813 -0.7373  1.4638 -0.7979
  692MOL0     H95493   3.147   3.177   6.363  1.1788 -0.7820 -1.2745
  692MOL0     H95494   3.463   3.152   6.432  0.7891  0.7021  1.2117
  692MOL0     H95495   3.429   3.247   6.574  2.0938  0.9858 -0.5812
  692MOL0     H95496   3.317   3.115   6.519 -0.9543  0.4788 -0.8713
  693MOL0     O95497   7.639   4.363   4.920 -0.1512 -0.0656 -0.3841
  693MOL0     C95498   7.666   4.351   4.806 -0.3744  0.2039  0.4047
  693MOL0     O95499   7.791   4.300   4.762  0.4231  0.0076 -0.2133
  693MOL0     C95500   7.902   4.328   4.837  0.3583  0.6289 -1.6536
  693MOL0     C95501   7.944   4.453   4.879 -0.0031  0.1038  0.2110
  693MOL0     C95502   8.065   4.463   4.958  0.1524  0.1402 -0.8630
  693MOL0     C95503   8.134   4.345   5.009 -0.4451  0.0706  0.2795
  693MOL0     O95504   8.252   4.350   5.084  0.1737  0.1163  0.3661
  693MOL0     C95505   8.295   4.478   5.133 -0.7050 -0.9398 -0.4261
  693MOL0     C95506   8.443   4.457   5.184  0.0642  0.4718  0.6174
  693MOL0     C95507   8.489   4.583   5.250  0.8268 -0.3110  0.4689
  693MOL0     C95508   8.626   4.558   5.316  0.3513 -0.0823 -0.1702
  693MOL0     C95509   8.722   4.684   5.301  0.1480  1.2750 -0.1398
  693MOL0     C95510   8.841   4.659   5.383 -0.9061  0.8576 -0.5937
  693MOL0     C95511   8.922   4.785   5.408 -0.6181  0.2083  0.2867
  693MOL0     C95512   9.051   4.756   5.483  0.0201  0.1878  0.3608
  693MOL0     N95513   9.120   4.881   5.527  0.4043 -0.4318  0.7548
  693MOL0     C95514   9.131   5.000   5.450 -0.3927  0.0615 -0.0356
  693MOL0     C95515   9.188   5.090   5.541  0.6223  0.3657 -0.3338
  693MOL0     C95516   9.239   5.232   5.505  0.0946 -0.7036 -0.0339
  693MOL0     C95517   9.269   5.319   5.637  0.9603 -0.0163  0.5085
  693MOL0     C95518   9.298   5.465   5.591  0.0214  0.6249 -0.8208
  693MOL0     C95519   9.270   5.549   5.718 -0.0131 -0.0024 -0.2468
  693MOL0     O95520   9.331   5.513   5.845  0.1522 -0.4044 -0.6653
  693MOL0     C95521   9.462   5.515   5.840  0.1065  0.2876  0.1834
  693MOL0     C95522   9.529   5.637   5.811 -0.7714 -0.0228 -0.2271
  693MOL0     C95523   9.668   5.641   5.828  0.1938 -0.7467 -0.0301
  693MOL0     C95524   9.730   5.778   5.827  0.4282 -1.4142  0.0348
  693MOL0     C95525   9.740   5.525   5.847  0.2285  0.4607 -0.9917
  693MOL0     C95526   9.890   5.512   5.858 -0.1350 -0.4225  0.1329
  693MOL0     O95527   9.933   5.396   5.926  0.6505  0.1054  0.6512
  693MOL0     C95528  10.057   5.328   5.920 -0.4622 -1.1327  0.2858
  693MOL0     C95529  10.059   5.200   5.863 -0.9712  0.1419 -0.3470
  693MOL0     C95530  10.177   5.123   5.841  0.1231 -0.4267  0.1030
  693MOL0     C95531  10.294   5.184   5.877 -0.2244  0.2754  0.1211
  693MOL0     O95532  10.419   5.127   5.856  0.6803  0.4572  0.1367
  693MOL0     C95533  10.435   5.005   5.922  0.1237  0.4522 -0.6844
  693MOL0     C95534  10.542   4.924   5.837 -0.3196  0.2710 -0.2754
  693MOL0     C95535  10.486   4.797   5.781 -0.3854  0.5451 -0.4420
  693MOL0     C95536  10.368   4.815   5.684 -0.7113  0.1859  0.6636
  693MOL0     C95537  10.311   4.681   5.624  0.2931 -0.0317  0.7341
  693MOL0     C95538  10.197   4.708   5.520  0.3036  0.0442 -0.3591
  693MOL0     C95539  10.089   4.809   5.568 -0.1668 -0.4952 -0.6444
  693MOL0     C95540  10.011   4.771   5.701 -0.0647 -0.4923 -0.2749
  693MOL0    Cl95541   9.896   4.634   5.646  0.0851  0.1744 -0.3940
  693MOL0     C95542  10.298   5.308   5.945  0.3792  0.1871  0.3341
  693MOL0     C95543  10.182   5.388   5.959  1.0113  0.5202 -0.5593
  693MOL0     O95544   9.964   5.600   5.827  0.1763 -0.1992  1.1950
  693MOL0     C95545   9.671   5.399   5.870  0.9612  0.2784  0.2891
  693MOL0     C95546   9.531   5.398   5.866 -1.5267  0.1505  0.1239
  693MOL0     N95547   9.198   5.026   5.666 -0.4559 -0.0180  0.8109
  693MOL0     N95548   9.151   4.908   5.654 -0.3049 -0.3878  0.2459
  693MOL0     C95549   8.091   4.222   4.961  0.4377  0.1413  0.5215
  693MOL0     C95550   7.974   4.211   4.880 -0.4584  0.2660  0.3916
  693MOL0     C95551   7.570   4.369   4.698 -0.5040 -0.3156  0.1976
  693MOL0     C95552   7.613   4.413   4.569  0.6009  0.3206  0.2155
  693MOL0     C95553   7.517   4.430   4.466  0.1057 -0.3978  0.4507
  693MOL0     C95554   7.387   4.401   4.487 -0.2766 -0.0543 -0.0397
  693MOL0     O95555   7.299   4.408   4.383  0.0748 -0.0218  0.0206
  693MOL0     C95556   7.215   4.523   4.379 -0.0510  0.3899  0.8127
  693MOL0     C95557   7.081   4.492   4.316 -1.1356  0.3596 -1.0112
  693MOL0     C95558   6.988   4.404   4.397  0.2914 -0.4312 -0.1680
  693MOL0     C95559   6.918   4.491   4.504  0.5774 -0.4568  0.0534
  693MOL0     C95560   6.851   4.408   4.605  0.4432  0.3414 -0.2043
  693MOL0     C95561   6.796   4.348   4.702 -0.3673 -0.0361 -0.1477
  693MOL0     C95562   7.344   4.359   4.612 -0.6973  0.7737  0.3614
  693MOL0     C95563   7.435   4.344   4.717 -0.0917 -0.2206  0.6035
  693MOL0     C95564   7.364   4.338   4.854 -0.1699  0.7917 -0.2116
  693MOL0     H95565   7.886   4.537   4.839 -2.4329  0.1410  3.3944
  693MOL0     H95566   8.094   4.565   4.982 -0.0858 -0.0333  0.2101
  693MOL0     H95567   8.233   4.510   5.217 -1.3867  0.5560 -1.4605
  693MOL0     H95568   8.293   4.553   5.053  0.4916  1.6402  1.8128
  693MOL0     H95569   8.438   4.387   5.268  2.4663 -2.4221 -1.4197
  693MOL0     H95570   8.505   4.409   5.108 -2.2347 -3.7292  1.1353
  693MOL0     H95571   8.492   4.656   5.168  2.0258 -0.1815  0.6134
  693MOL0     H95572   8.413   4.623   5.317 -0.4708 -0.0582 -1.0974
  693MOL0     H95573   8.610   4.534   5.421  3.0501  1.7233  0.7673
  693MOL0     H95574   8.680   4.480   5.262  3.8694  1.5820  0.6715
  693MOL0     H95575   8.674   4.776   5.337 -1.9942  0.7118 -1.4036
  693MOL0     H95576   8.761   4.697   5.199  2.4869  0.1465  0.5299
  693MOL0     H95577   8.811   4.626   5.483  0.3383 -1.5641 -0.9305
  693MOL0     H95578   8.899   4.581   5.334 -1.3815  0.8567 -1.1730
  693MOL0     H95579   8.858   4.856   5.460  0.0088  1.2922 -0.3797
  693MOL0     H95580   8.942   4.837   5.314 -2.2087  2.4658  1.0979
  693MOL0     H95581   9.033   4.686   5.566  2.4605  0.8734  1.5602
  693MOL0     H95582   9.117   4.705   5.412  0.0327  1.3182 -0.4628
  693MOL0     H95583   9.114   5.020   5.345  3.8919 -2.1229 -1.3892
  693MOL0     H95584   9.167   5.280   5.438  0.0399  0.7471  1.0235
  693MOL0     H95585   9.326   5.226   5.439  0.8175 -0.6624  0.9071
  693MOL0     H95586   9.187   5.305   5.709 -1.4827  2.2580 -1.6239
  693MOL0     H95587   9.362   5.292   5.687  1.3255  0.4928  0.1159
  693MOL0     H95588   9.403   5.481   5.563  0.3303  3.4692  1.5263
  693MOL0     H95589   9.241   5.497   5.503  0.5597  1.2619 -0.9519
  693MOL0     H95590   9.278   5.655   5.693  2.2653 -0.0791 -0.0150
  693MOL0     H95591   9.165   5.530   5.743  0.7891 -2.1262  1.8575
  693MOL0     H95592   9.474   5.728   5.789  1.2601  0.7159 -2.6075
  693MOL0     H95593   9.754   5.802   5.723 -0.3965 -0.1815  0.1083
  693MOL0     H95594   9.819   5.768   5.890  1.1149 -5.4619 -1.2883
  693MOL0     H95595   9.659   5.855   5.861  2.4336  0.4044  0.3401
  693MOL0     H95596   9.965   5.153   5.835 -0.8155 -0.7568  0.5910
  693MOL0     H95597  10.174   5.019   5.808 -4.4029 -1.2343  2.2299
  693MOL0     H95598  10.469   5.026   6.024 -3.6138 -2.0877  1.3395
  693MOL0     H95599  10.341   4.949   5.928 -0.3265  0.9748 -2.3914
  693MOL0     H95600  10.570   4.992   5.756 -2.6021  0.0978 -1.2953
  693MOL0     H95601  10.632   4.914   5.898 -0.6245 -1.3077 -0.0477
  693MOL0     H95602  10.448   4.732   5.860 -0.4818  0.8843 -0.2080
  693MOL0     H95603  10.571   4.749   5.731 -0.7082 -0.8486  0.3072
  693MOL0     H95604  10.397   4.872   5.596  0.4827 -0.3138  0.7093
  693MOL0     H95605  10.286   4.869   5.733 -2.7173 -1.7894 -0.3198
  693MOL0     H95606  10.382   4.616   5.572  0.6113 -0.0262  1.1553
  693MOL0     H95607  10.267   4.619   5.703  0.9868  0.0040  1.1608
  693MOL0     H95608  10.138   4.617   5.502 -1.7678  1.7514 -3.2180
  693MOL0     H95609  10.248   4.739   5.429  1.1028  0.0588  0.0903
  693MOL0     H95610  10.013   4.824   5.491 -0.0543 -0.4852 -0.7546
  693MOL0     H95611  10.133   4.907   5.588 -0.2446 -0.6644  0.3994
  693MOL0     H95612   9.957   4.857   5.741 -1.4640 -2.2328  1.8167
  693MOL0     H95613  10.076   4.732   5.780 -1.3307 -3.1922 -0.4492
  693MOL0     H95614  10.400   5.338   5.965  0.6971  0.1389 -1.0860
  693MOL0     H95615  10.193   5.483   6.010  0.9132 -0.5612  1.5640
  693MOL0     H95616   9.720   5.304   5.890  2.7106  0.9467 -0.5549
  693MOL0     H95617   9.480   5.305   5.889  1.3301 -1.4204  0.5513
  693MOL0     H95618   8.140   4.136   5.005  0.1285  1.0323  2.7533
  693MOL0     H95619   7.940   4.113   4.846 -0.2068  0.0202  0.8340
  693MOL0     H95620   7.716   4.446   4.555  0.7600 -0.1551  0.2382
  693MOL0     H95621   7.563   4.462   4.373  0.4907 -2.2603 -0.0362
  693MOL0     H95622   7.211   4.567   4.479 -2.2733  1.8716  0.1256
  693MOL0     H95623   7.271   4.601   4.325  0.2277  0.2831  0.9441
  693MOL0     H95624   7.098   4.438   4.223  2.2850  0.1674 -0.3874
  693MOL0     H95625   7.027   4.582   4.285 -0.8595 -0.8513 -5.6926
  693MOL0     H95626   6.922   4.347   4.332 -2.2416  1.8061  0.3017
  693MOL0     H95627   7.040   4.332   4.461 -1.9038  0.4540  2.8565
  693MOL0     H95628   6.848   4.557   4.452  1.4671  0.8961  0.5447
  693MOL0     H95629   6.987   4.556   4.558  0.0646 -0.8629  1.2161
  693MOL0     H95630   6.754   4.306   4.791 -0.5886  0.0548 -0.2068
  693MOL0     H95631   7.242   4.322   4.609  0.1030 -1.7715 -3.7299
  693MOL0     H95632   7.411   4.254   4.906  2.2927  0.8696 -2.0600
  693MOL0     H95633   7.382   4.426   4.915  4.8066 -0.7371  1.0565
  693MOL0     H95634   7.258   4.319   4.835 -0.0881  0.2810 -0.1824
  694MOL0     O95635   7.584   8.974   5.057 -0.1712  0.0918 -0.4644
  694MOL0     C95636   7.515   8.962   5.158  0.5854  0.1200 -0.3415
  694MOL0     O95637   7.557   8.917   5.279  0.5505  0.3416 -0.2010
  694MOL0     C95638   7.689   8.883   5.313 -0.8453  0.3776  0.3099
  694MOL0     C95639   7.777   8.805   5.228  0.8214  0.2962  0.0193
  694MOL0     C95640   7.908   8.771   5.276  0.4858  1.0042  0.5516
  694MOL0     C95641   7.937   8.783   5.415 -0.5395 -1.1595  0.6719
  694MOL0     O95642   8.054   8.736   5.473 -0.5044 -0.3309 -0.1679
  694MOL0     C95643   8.134   8.642   5.394 -0.5901 -0.1081  0.5364
  694MOL0     C95644   8.246   8.701   5.311  1.3669 -0.6918  1.0055
  694MOL0     C95645   8.365   8.730   5.405  0.7476  0.8488 -0.5685
  694MOL0     C95646   8.483   8.782   5.321  0.1662  0.3618 -0.7293
  694MOL0     C95647   8.612   8.788   5.400  0.1346  0.5213 -0.2133
  694MOL0     C95648   8.728   8.841   5.308  0.0670  0.6250 -0.0365
  694MOL0     C95649   8.866   8.838   5.373 -0.2673  0.2320  0.0402
  694MOL0     C95650   8.975   8.880   5.274 -0.3052  1.0853  0.0076
  694MOL0     N95651   9.112   8.858   5.329  0.3263 -0.7764  0.9248
  694MOL0     C95652   9.166   8.907   5.444  0.3389 -0.7377  0.1728
  694MOL0     C95653   9.297   8.897   5.424 -0.6315 -0.6757  0.7160
  694MOL0     C95654   9.402   8.957   5.522  0.6062  0.9929  0.1989
  694MOL0     C95655   9.545   8.937   5.470 -0.1979  0.6429  0.6311
  694MOL0     C95656   9.635   9.013   5.564 -0.2487 -0.0634 -0.3550
  694MOL0     C95657   9.780   8.956   5.583 -1.5529 -0.2000 -0.1895
  694MOL0     O95658   9.838   8.992   5.454  0.5407 -0.0468  0.2062
  694MOL0     C95659   9.969   8.982   5.427 -0.0061  0.0505 -0.2602
  694MOL0     C95660  10.061   8.892   5.494  0.0303  0.4856 -0.1100
  694MOL0     C95661  10.180   8.857   5.444  0.3277  0.7387 -0.3423
  694MOL0     C95662  10.263   8.774   5.542  0.0957  0.8361  0.4811
  694MOL0     C95663  10.219   8.912   5.320 -0.2180 -0.0990  0.1340
  694MOL0     C95664  10.350   8.887   5.260 -0.0626  0.3364  0.9687
  694MOL0     O95665  10.342   8.874   5.125 -0.0628  0.6169  0.5908
  694MOL0     C95666  10.456   8.836   5.049  0.0013  0.0369  0.5692
  694MOL0     C95667  10.543   8.930   4.999  0.2784  0.4758 -0.1687
  694MOL0     C95668  10.658   8.901   4.929 -0.2122  0.2925 -0.7703
  694MOL0     C95669  10.690   8.761   4.909  0.1512  0.7023  0.2007
  694MOL0     O95670  10.803   8.719   4.839  0.5951  0.9827 -0.5438
  694MOL0     C95671  10.905   8.809   4.823 -0.0589  0.4102  0.5866
  694MOL0     C95672  11.024   8.735   4.780  0.4557 -0.2135  0.0023
  694MOL0     C95673  11.145   8.835   4.792 -0.0507 -0.2337 -0.5120
  694MOL0     C95674  11.275   8.754   4.756  0.0209  0.3259 -0.5320
  694MOL0     C95675  11.404   8.836   4.761  0.7754 -0.5349  0.7154
  694MOL0     C95676  11.523   8.739   4.758  0.6441 -0.1799  0.1872
  694MOL0     C95677  11.654   8.810   4.745 -0.2871 -0.4275  1.1652
  694MOL0     C95678  11.757   8.715   4.708  0.6130 -0.1570  0.4665
  694MOL0    Cl95679  11.908   8.810   4.754  0.1465  0.2083 -0.0530
  694MOL0     C95680  10.593   8.667   4.939  0.2434 -1.2352  1.1605
  694MOL0     C95681  10.480   8.702   5.009  0.2604  0.3890  0.4160
  694MOL0     O95682  10.455   8.905   5.319  0.2994  0.6393  0.4084
  694MOL0     C95683  10.134   9.003   5.257  0.6669  0.6162  0.5479
  694MOL0     C95684  10.013   9.042   5.316 -0.0552  0.7698 -0.9319
  694MOL0     N95685   9.322   8.822   5.308 -0.0421  0.0507  0.3938
  694MOL0     N95686   9.213   8.796   5.257 -0.3736 -0.4813  0.1309
  694MOL0     C95687   7.847   8.856   5.494 -0.7642 -0.3043 -0.7891
  694MOL0     C95688   7.725   8.902   5.448 -0.4672  0.5153  0.3455
  694MOL0     C95689   7.376   9.020   5.152  0.1813  0.7222 -0.2013
  694MOL0     C95690   7.344   9.084   5.030 -0.1347 -0.9068  0.3511
  694MOL0     C95691   7.211   9.123   5.004 -0.2625 -0.2214 -0.4580
  694MOL0     C95692   7.111   9.110   5.102  0.5660  0.2232  1.0433
  694MOL0     O95693   6.988   9.164   5.065  0.1413  0.8240  0.0541
  694MOL0     C95694   6.892   9.162   5.167 -0.2925  0.0073 -0.1979
  694MOL0     C95695   6.769   9.234   5.107 -0.7846 -0.8656 -0.5202
  694MOL0     C95696   6.766   9.365   5.025 -0.2892  0.2407 -0.3601
  694MOL0     C95697   6.810   9.492   5.095 -0.1019 -0.0983 -0.4001
  694MOL0     C95698   6.948   9.510   5.051 -0.0086 -0.3338  0.0932
  694MOL0     C95699   7.063   9.518   5.011 -0.8119  0.3758  0.3837
  694MOL0     C95700   7.143   9.046   5.216  0.4106  0.7279 -0.5159
  694MOL0     C95701   7.274   9.004   5.255  0.4086 -0.6423  0.2833
  694MOL0     C95702   7.278   8.949   5.396 -0.0101  0.6972 -0.7345
  694MOL0     H95703   7.737   8.794   5.128  2.1810  2.2910 -0.8143
  694MOL0     H95704   7.983   8.742   5.203  0.1222  2.7539 -0.5978
  694MOL0     H95705   8.070   8.583   5.327  2.0127 -1.8741 -0.5574
  694MOL0     H95706   8.175   8.581   5.474  1.8703  0.5914 -0.1153
  694MOL0     H95707   8.275   8.624   5.239 -0.3579 -2.4777  2.1346
  694MOL0     H95708   8.219   8.786   5.247 -0.1351  0.3234  2.8889
  694MOL0     H95709   8.336   8.802   5.482  2.1344  0.5980  0.2268
  694MOL0     H95710   8.390   8.638   5.459 -0.6695  0.1528 -1.0425
  694MOL0     H95711   8.492   8.715   5.235  0.0880  1.2407 -1.4278
  694MOL0     H95712   8.459   8.879   5.278  1.7489  1.4133  0.6075
  694MOL0     H95713   8.646   8.692   5.441  5.2708  1.5014 -1.4492
  694MOL0     H95714   8.612   8.853   5.488  5.5108 -1.0675  1.3453
  694MOL0     H95715   8.735   8.791   5.211 -2.3688  0.6833 -0.3068
  694MOL0     H95716   8.700   8.945   5.289  4.6102  2.2723  0.9348
  694MOL0     H95717   8.873   8.739   5.419  0.3034  0.2881  0.0753
  694MOL0     H95718   8.873   8.908   5.457  2.9765 -0.6145  0.6011
  694MOL0     H95719   8.974   8.820   5.183 -1.6322 -0.2671  0.8590
  694MOL0     H95720   8.957   8.983   5.245 -4.2395  0.9775  1.4252
  694MOL0     H95721   9.109   8.962   5.518  2.7451  2.1764  0.0552
  694MOL0     H95722   9.395   8.911   5.621  0.0511 -0.1315 -0.3451
  694MOL0     H95723   9.389   9.066   5.529  0.8101  1.1489 -1.4245
  694MOL0     H95724   9.567   8.831   5.487  3.4324  1.4276  1.6964
  694MOL0     H95725   9.544   8.971   5.365  1.5144  0.4896  0.5459
  694MOL0     H95726   9.634   9.120   5.542 -0.4435 -0.3129 -1.5942
  694MOL0     H95727   9.597   8.993   5.665  0.1530 -0.5061 -0.2871
  694MOL0     H95728   9.839   9.005   5.661  1.1374  0.8963 -2.7196
  694MOL0     H95729   9.783   8.848   5.599 -1.8369 -0.3832 -1.3162
  694MOL0     H95730  10.028   8.849   5.588 -1.2650 -0.2790 -0.8753
  694MOL0     H95731  10.274   8.826   5.638  1.0293  1.8801 -0.1719
  694MOL0     H95732  10.365   8.753   5.509  0.1410  0.4448  0.8559
  694MOL0     H95733  10.216   8.680   5.570 -1.5311  1.8013  1.1303
  694MOL0     H95734  10.522   9.030   5.039  0.6903  0.1637  0.8758
  694MOL0     H95735  10.726   8.983   4.907  0.3644  0.3797  1.1587
  694MOL0     H95736  10.891   8.889   4.750 -0.7856  0.3378  0.6397
  694MOL0     H95737  10.928   8.847   4.923 -1.1194 -1.9002  1.7754
  694MOL0     H95738  11.034   8.641   4.835  0.4377 -1.0940 -1.4374
  694MOL0     H95739  11.007   8.715   4.673 -0.9666  0.8079  0.0017
  694MOL0     H95740  11.158   8.883   4.889  3.5655 -0.2464 -0.8483
  694MOL0     H95741  11.142   8.906   4.709  1.1251  0.2073 -0.1929
  694MOL0     H95742  11.252   8.719   4.655 -0.4862 -1.9718  0.3180
  694MOL0     H95743  11.272   8.659   4.808 -0.3196 -1.6170 -3.8096
  694MOL0     H95744  11.404   8.899   4.672 -6.5239 -0.0037  0.4868
  694MOL0     H95745  11.402   8.895   4.853 -0.3805  1.9275 -0.7891
  694MOL0     H95746  11.509   8.672   4.673 -0.6286 -2.3100  1.9544
  694MOL0     H95747  11.524   8.683   4.853  0.2181 -1.4310 -0.5154
  694MOL0     H95748  11.675   8.863   4.839  0.4254 -1.8466  1.8352
  694MOL0     H95749  11.634   8.879   4.662 -0.8459  1.9348  3.1537
  694MOL0     H95750  11.752   8.689   4.602 -0.8918 -0.8528  0.6758
  694MOL0     H95751  11.745   8.629   4.776  0.5041  1.7590  3.0043
  694MOL0     H95752  10.608   8.565   4.906 -1.4070 -1.2337  0.2946
  694MOL0     H95753  10.411   8.620   5.029 -0.2106  0.9078  0.9621
  694MOL0     H95754  10.154   9.014   5.150 -0.5329  2.6963  0.4794
  694MOL0     H95755   9.934   9.095   5.264 -2.0779  0.9387  2.0486
  694MOL0     H95756   7.872   8.875   5.598 -1.3817 -1.0191 -0.4997
  694MOL0     H95757   7.654   8.952   5.514 -0.8549  3.0079 -1.7711
  694MOL0     H95758   7.409   9.107   4.947 -1.3615  1.2225 -0.1058
  694MOL0     H95759   7.189   9.179   4.914 -2.3601  0.1951  0.2556
  694MOL0     H95760   6.874   9.060   5.204  2.1122 -0.8615 -1.2483
  694MOL0     H95761   6.913   9.228   5.251 -0.6462  0.9719 -0.8560
  694MOL0     H95762   6.703   9.264   5.189 -3.3660 -1.5710 -2.1876
  694MOL0     H95763   6.716   9.167   5.039  0.5875 -0.0353 -2.4921
  694MOL0     H95764   6.825   9.350   4.934  1.4833  2.2406  0.3529
  694MOL0     H95765   6.662   9.371   4.991  0.1967 -0.6140 -2.0854
  694MOL0     H95766   6.794   9.489   5.203  0.8688 -2.1716 -0.2555
  694MOL0     H95767   6.758   9.582   5.061  0.6538 -0.4960 -2.8390
  694MOL0     H95768   7.158   9.525   4.961 -0.8932  0.8693  0.2926
  694MOL0     H95769   7.075   9.022   5.297 -0.3829  2.1722 -0.7348
  694MOL0     H95770   7.220   9.007   5.467  0.7713 -2.1338  2.5199
  694MOL0     H95771   7.232   8.850   5.397  0.4747  0.4295 -2.0323
  694MOL0     H95772   7.378   8.944   5.440 -0.8120 -1.7384  1.0152
  695MOL0     O95773  10.240   9.640   1.880 -0.6938 -0.0584  0.3620
  695MOL0     C95774  10.139   9.655   1.805  0.4855  0.0451 -0.3950
  695MOL0     O95775  10.144   9.686   1.672  0.3676 -0.4392  0.2090
  695MOL0     C95776  10.261   9.676   1.609 -0.0655  0.6464 -0.0296
  695MOL0     C95777  10.290   9.763   1.509  0.3472  0.5195 -1.2418
  695MOL0     C95778  10.403   9.743   1.425  0.8441 -0.2194  0.2244
  695MOL0     C95779  10.482   9.632   1.433 -0.0156  0.7742  0.7075
  695MOL0     O95780  10.593   9.644   1.359 -0.0583 -0.0699  0.4403
  695MOL0     C95781  10.696   9.549   1.361  0.1133  0.2613 -0.4402
  695MOL0     C95782  10.826   9.596   1.293 -0.4834  0.1671 -0.1485
  695MOL0     C95783  10.873   9.733   1.336  0.3766 -0.1801 -0.3561
  695MOL0     C95784  11.003   9.795   1.266 -0.1498 -0.9757  0.3134
  695MOL0     C95785  11.136   9.782   1.334 -0.2105  0.1295  0.4308
  695MOL0     C95786  11.170   9.631   1.364 -0.4254  0.2428 -0.1157
  695MOL0     C95787  11.327   9.608   1.379  1.3461 -0.2899  0.1141
  695MOL0     C95788  11.414   9.619   1.252 -0.2138  0.1159 -0.8274
  695MOL0     N95789  11.543   9.569   1.271  0.1131 -0.8532 -0.0965
  695MOL0     C95790  11.642   9.585   1.174 -0.2383 -0.4622  0.0140
  695MOL0     C95791  11.750   9.527   1.222 -0.1611 -0.1544 -0.7210
  695MOL0     C95792  11.883   9.543   1.173  1.1776  0.3627 -0.0344
  695MOL0     C95793  11.978   9.455   1.253 -0.2117 -0.8144  0.7113
  695MOL0     C95794  11.971   9.310   1.205 -0.3209  1.1367  0.7489
  695MOL0     C95795  12.063   9.208   1.289  0.5232  0.1200 -0.3259
  695MOL0     O95796  12.193   9.246   1.253  0.0662 -0.4305  0.1927
  695MOL0     C95797  12.293   9.158   1.227  0.4753 -0.4451 -0.2197
  695MOL0     C95798  12.304   9.035   1.286  0.4522 -0.2761 -0.5726
  695MOL0     C95799  12.417   8.962   1.285 -0.2099 -0.0811 -0.7394
  695MOL0     C95800  12.423   8.834   1.359 -0.1403  0.4410 -0.7592
  695MOL0     C95801  12.512   8.993   1.192 -0.6301 -0.3648  0.7976
  695MOL0     C95802  12.621   8.901   1.148 -0.9296 -0.2748 -0.5979
  695MOL0     O95803  12.732   8.960   1.110 -0.3290 -0.1649 -0.5583
  695MOL0     C95804  12.802   8.904   1.002  0.4240 -0.5014 -0.3315
  695MOL0     C95805  12.874   8.791   1.019 -0.2111  1.2820  0.0022
  695MOL0     C95806  12.951   8.746   0.905 -1.0230 -0.1100  0.1549
  695MOL0     C95807  12.977   8.831   0.793  0.3599 -0.1426  1.1764
  695MOL0     O95808  13.060   8.809   0.686 -0.6265 -0.1384 -0.2083
  695MOL0     C95809  13.159   8.700   0.682  1.1243  0.5066  0.2259
  695MOL0     C95810  13.274   8.752   0.777  0.8027  0.4308  0.1881
  695MOL0     C95811  13.376   8.835   0.700  0.1795 -0.2599  0.7018
  695MOL0     C95812  13.393   8.977   0.749 -0.1141  0.5033  0.0656
  695MOL0     C95813  13.486   9.069   0.663 -0.3204 -0.7624  0.8498
  695MOL0     C95814  13.635   9.024   0.666 -0.0221  0.4550  0.3883
  695MOL0     C95815  13.704   9.060   0.533 -0.3610 -0.6360 -0.2959
  695MOL0     C95816  13.753   9.206   0.508 -0.2226 -0.5894 -0.4723
  695MOL0    Cl95817  13.815   9.286   0.661  0.3705 -0.3553 -0.1410
  695MOL0     C95818  12.899   8.946   0.786 -0.6962 -0.1159  1.0203
  695MOL0     C95819  12.816   8.981   0.895 -0.4972  0.3216  0.0136
  695MOL0     O95820  12.601   8.777   1.145  0.1224 -0.2134  0.5786
  695MOL0     C95821  12.512   9.128   1.152  0.0352  0.1311  0.3171
  695MOL0     C95822  12.403   9.211   1.167  0.4076  0.4254 -0.4595
  695MOL0     N95823  11.719   9.468   1.343  0.0567 -0.4228  0.8154
  695MOL0     N95824  11.591   9.489   1.376 -0.8990  0.3837 -0.4863
  695MOL0     C95825  10.452   9.535   1.533  0.3213  0.1992 -0.0341
  695MOL0     C95826  10.341   9.558   1.619  0.5429 -0.7573  0.2886
  695MOL0     C95827  10.008   9.618   1.866 -0.7080  0.5158  0.0425
  695MOL0     C95828   9.912   9.562   1.778  0.0451  0.1271 -0.6482
  695MOL0     C95829   9.780   9.527   1.816 -0.6768 -0.4653  0.1846
  695MOL0     C95830   9.751   9.522   1.946 -0.2200 -0.3349  0.8470
  695MOL0     O95831   9.628   9.473   1.980  1.0122 -0.2665 -0.0687
  695MOL0     C95832   9.592   9.477   2.118 -0.2875  0.3581  0.1684
  695MOL0     C95833   9.437   9.464   2.122 -0.5280 -0.0309  0.2436
  695MOL0     C95834   9.389   9.335   2.043 -0.4279  0.6282  0.1071
  695MOL0     C95835   9.337   9.221   2.128 -0.5582 -0.6176 -0.4871
  695MOL0     C95836   9.445   9.152   2.195  0.8223  0.3823 -0.9219
  695MOL0     C95837   9.533   9.097   2.269  0.5390 -1.0086 -0.1720
  695MOL0     C95838   9.846   9.572   2.042 -1.1594  0.4728  0.2526
  695MOL0     C95839   9.967   9.632   2.001 -0.4193  0.2478  0.1070
  695MOL0     C95840  10.059   9.690   2.111 -0.6860  0.2910 -0.3018
  695MOL0     H95841  10.218   9.843   1.500 -0.5744 -0.1290 -0.1145
  695MOL0     H95842  10.426   9.820   1.353  0.1880 -0.0294  0.2061
  695MOL0     H95843  10.660   9.461   1.306 -0.9605  2.3296 -3.2219
  695MOL0     H95844  10.729   9.523   1.463  0.7736  2.5646 -0.0257
  695MOL0     H95845  10.906   9.526   1.322 -0.3487 -0.4320 -1.8198
  695MOL0     H95846  10.816   9.588   1.184  0.8135 -1.2292 -0.2031
  695MOL0     H95847  10.786   9.797   1.321 -0.8021 -1.6435 -0.0819
  695MOL0     H95848  10.883   9.725   1.445  0.2504  0.9809 -0.2441
  695MOL0     H95849  11.004   9.754   1.165  1.0551 -0.1762 -0.0123
  695MOL0     H95850  10.996   9.904   1.258  1.2069 -0.9594 -1.1102
  695MOL0     H95851  11.139   9.836   1.429  1.1004 -2.1481  1.7550
  695MOL0     H95852  11.208   9.824   1.262 -0.9698  0.8109  0.0575
  695MOL0     H95853  11.107   9.605   1.449 -2.4588  0.3369 -1.5220
  695MOL0     H95854  11.130   9.565   1.286  1.7273 -1.7491  0.3473
  695MOL0     H95855  11.344   9.513   1.432  2.8292  0.3633  0.8802
  695MOL0     H95856  11.361   9.688   1.446  2.4366  3.3848 -4.3479
  695MOL0     H95857  11.367   9.577   1.163 -1.5548  1.0306 -0.5713
  695MOL0     H95858  11.413   9.727   1.239 -5.2626  0.9131  3.2896
  695MOL0     H95859  11.638   9.640   1.080  0.9237 -0.3164  0.0424
  695MOL0     H95860  11.920   9.646   1.173  2.4928 -0.0868 -0.2304
  695MOL0     H95861  11.882   9.508   1.069  1.8790  1.9110 -0.5856
  695MOL0     H95862  12.077   9.487   1.221 -1.7942  1.4501 -2.5450
  695MOL0     H95863  11.964   9.464   1.361 -1.6181  0.3133  0.4717
  695MOL0     H95864  11.868   9.276   1.220  0.5841 -1.8646  0.8499
  695MOL0     H95865  11.996   9.298   1.099 -0.4728  1.7111  0.6466
  695MOL0     H95866  12.051   9.228   1.396 -1.6019  0.3831 -0.5841
  695MOL0     H95867  12.036   9.107   1.259 -0.3882  0.6120 -1.2327
  695MOL0     H95868  12.225   8.994   1.348  0.6593  0.5691  0.2780
  695MOL0     H95869  12.376   8.748   1.311 -1.3593  0.4994  0.2908
  695MOL0     H95870  12.347   8.849   1.436 -0.9721 -0.9079 -1.2895
  695MOL0     H95871  12.518   8.810   1.407 -2.1051 -3.3710  1.6706
  695MOL0     H95872  12.852   8.730   1.107  1.7240  0.4978 -0.0258
  695MOL0     H95873  12.994   8.646   0.909  0.9638  0.7169  3.8903
  695MOL0     H95874  13.116   8.604   0.713 -0.5549  1.5597  1.2922
  695MOL0     H95875  13.188   8.683   0.578 -1.0155 -1.9142 -0.0912
  695MOL0     H95876  13.217   8.802   0.855  0.6114 -0.0901  0.3889
  695MOL0     H95877  13.322   8.667   0.827  0.9523 -1.4165 -2.8367
  695MOL0     H95878  13.344   8.848   0.596 -0.6638  0.7045  1.0649
  695MOL0     H95879  13.474   8.786   0.700  0.7880  0.8223  2.3601
  695MOL0     H95880  13.434   8.994   0.849  2.9433 -1.0152 -0.8154
  695MOL0     H95881  13.296   9.029   0.755  0.3134  1.4438 -0.9017
  695MOL0     H95882  13.446   9.070   0.561  0.9413  0.7398  0.3264
  695MOL0     H95883  13.490   9.173   0.697  0.8749  0.1468 -1.7889
  695MOL0     H95884  13.642   8.916   0.678 -2.2733  0.2652  0.3413
  695MOL0     H95885  13.684   9.076   0.749 -0.0164  0.7262  0.2180
  695MOL0     H95886  13.649   9.032   0.443 -0.7625 -2.1937  0.4087
  695MOL0     H95887  13.793   8.996   0.532  0.1325  0.0237 -1.2605
  695MOL0     H95888  13.670   9.273   0.486  0.5531  1.0040  1.2256
  695MOL0     H95889  13.825   9.204   0.425 -0.8336 -2.7043 -1.0205
  695MOL0     H95890  12.914   9.006   0.697 -1.6881 -0.5458  0.5520
  695MOL0     H95891  12.758   9.071   0.878  1.9650  1.7073 -1.7938
  695MOL0     H95892  12.602   9.174   1.113  0.3226  0.5646  1.4443
  695MOL0     H95893  12.401   9.313   1.130 -2.1523 -0.2096 -2.3359
  695MOL0     H95894  10.513   9.447   1.551  0.0457 -0.1789 -0.8849
  695MOL0     H95895  10.297   9.486   1.687 -1.7594  0.6578  0.4053
  695MOL0     H95896   9.928   9.553   1.671  0.1488 -0.7441 -0.5697
  695MOL0     H95897   9.706   9.486   1.748 -0.8402 -0.0507  0.1120
  695MOL0     H95898   9.638   9.388   2.161  1.5417  0.1503 -2.0519
  695MOL0     H95899   9.627   9.566   2.171 -1.5836  0.8342  0.2650
  695MOL0     H95900   9.391   9.548   2.069 -1.3453 -1.9496 -2.3279
  695MOL0     H95901   9.397   9.460   2.223  1.1624  2.6816  1.1353
  695MOL0     H95902   9.307   9.368   1.979  1.8839  2.1349 -2.2582
  695MOL0     H95903   9.462   9.296   1.971 -1.4933  1.5108 -1.5196
  695MOL0     H95904   9.279   9.154   2.065 -1.3699  2.7395 -3.6673
  695MOL0     H95905   9.263   9.259   2.200 -1.3639 -0.1454 -1.5251
  695MOL0     H95906   9.600   9.061   2.345 -0.3334 -1.8685  0.2088
  695MOL0     H95907   9.821   9.546   2.145  1.2473  0.4117  0.8875
  695MOL0     H95908  10.002   9.729   2.197 -2.2863  0.7269 -1.5043
  695MOL0     H95909  10.140   9.625   2.145  1.1072  1.4956 -2.0312
  695MOL0     H95910  10.105   9.778   2.065  1.0815  0.5198  1.7655
  696MOL0     O95911   5.478   5.237   7.947  0.0697  0.5239  0.2282
  696MOL0     C95912   5.555   5.209   7.856  0.2148 -0.5746  0.3928
  696MOL0     O95913   5.690   5.225   7.870  0.0910  0.6262  0.3147
  696MOL0     C95914   5.743   5.188   7.981  0.3936 -0.3481  0.3519
  696MOL0     C95915   5.716   5.081   8.062 -0.1841 -0.1650 -0.1604
  696MOL0     C95916   5.797   5.044   8.171 -0.1421  0.3933  0.8475
  696MOL0     C95917   5.909   5.122   8.216  0.2631 -0.1540 -0.3004
  696MOL0     O95918   5.984   5.078   8.328 -0.1395 -0.0648  0.6412
  696MOL0     C95919   6.077   5.171   8.377  0.2431  0.4781  0.5264
  696MOL0     C95920   6.142   5.104   8.501 -0.2124 -0.3078 -0.1899
  696MOL0     C95921   6.232   5.209   8.570 -0.7368  0.5174 -0.4576
  696MOL0     C95922   6.328   5.140   8.666  0.9892  0.8318 -0.6353
  696MOL0     C95923   6.417   5.254   8.732  0.1646  0.3804 -0.2933
  696MOL0     C95924   6.349   5.322   8.853  0.0329 -0.9770 -1.1050
  696MOL0     C95925   6.456   5.406   8.932  0.0515 -0.0018 -0.0281
  696MOL0     C95926   6.397   5.456   9.067  0.6255  0.0742 -0.4834
  696MOL0     N95927   6.504   5.512   9.156 -0.1983 -0.2305 -0.2700
  696MOL0     C95928   6.568   5.636   9.138 -0.3831 -0.6429  0.3016
  696MOL0     C95929   6.674   5.634   9.224  0.1509  0.0245 -0.5950
  696MOL0     C95930   6.775   5.748   9.230 -0.2094 -0.3526  0.6816
  696MOL0     C95931   6.912   5.699   9.261 -0.2055  0.1686 -0.2719
  696MOL0     C95932   7.012   5.818   9.296 -0.0170  0.3571 -0.0618
  696MOL0     C95933   7.003   5.861   9.455  0.2054 -0.5905  0.3825
  696MOL0     O95934   7.089   5.787   9.540  0.3206  0.0925  0.6864
  696MOL0     C95935   7.226   5.808   9.551  0.1237 -0.9004  0.3499
  696MOL0     C95936   7.302   5.722   9.632  0.2244 -0.3008 -0.3620
  696MOL0     C95937   7.438   5.742   9.663 -0.0917 -0.0594 -0.7429
  696MOL0     C95938   7.502   5.645   9.760  0.7111 -0.0040 -0.0642
  696MOL0     C95939   7.510   5.834   9.583  0.1010  0.5984  0.0513
  696MOL0     C95940   7.658   5.854   9.590  0.5378 -0.8469 -0.5221
  696MOL0     O95941   7.737   5.750   9.574 -0.8182  0.1522  0.2645
  696MOL0     C95942   7.869   5.774   9.585 -0.3906 -0.4453 -0.2624
  696MOL0     C95943   7.951   5.808   9.472 -0.5097  0.5082 -0.2410
  696MOL0     C95944   8.086   5.832   9.488  0.3049  1.0124  0.0467
  696MOL0     C95945   8.152   5.841   9.613 -0.3383  0.8228  0.1608
  696MOL0     O95946   8.288   5.864   9.637  0.1631 -0.1966 -0.3887
  696MOL0     C95947   8.339   5.964   9.554  0.2584 -0.6408  0.7263
  696MOL0     C95948   8.494   5.948   9.558 -0.6091 -0.3865  0.2412
  696MOL0     C95949   8.535   5.988   9.698 -0.2020  0.0800  0.4222
  696MOL0     C95950   8.682   6.033   9.709  0.2445 -0.5151  0.2819
  696MOL0     C95951   8.787   5.921   9.704 -0.5708 -0.7748  0.2013
  696MOL0     C95952   8.920   5.984   9.682 -0.5776 -0.4072  0.0147
  696MOL0     C95953   8.964   6.075   9.803  0.1085  1.2674  0.1430
  696MOL0     C95954   8.995   5.986   9.927  0.0760 -0.3144 -0.1353
  696MOL0    Cl95955   9.152   5.889   9.914 -0.1968 -0.1486  0.1533
  696MOL0     C95956   8.072   5.790   9.716 -0.2512  0.2756 -1.2666
  696MOL0     C95957   7.934   5.770   9.705 -0.0563  0.8345  0.3168
  696MOL0     O95958   7.693   5.974   9.598 -1.0368  0.3639 -0.0427
  696MOL0     C95959   7.438   5.902   9.490  0.1947 -1.1414 -0.6027
  696MOL0     C95960   7.299   5.904   9.473 -0.3910  0.8660 -0.6796
  696MOL0     N95961   6.671   5.514   9.292  0.5087  0.3244 -0.5821
  696MOL0     N95962   6.569   5.447   9.255  0.2825 -1.1876  0.5158
  696MOL0     C95963   5.934   5.240   8.136  0.2668  0.5613  0.3972
  696MOL0     C95964   5.853   5.268   8.025  0.2597  0.4017  0.1552
  696MOL0     C95965   5.493   5.164   7.722 -0.6101 -0.3239  0.1421
  696MOL0     C95966   5.583   5.141   7.618  0.5745 -1.0647 -0.3747
  696MOL0     C95967   5.545   5.085   7.496  0.5588 -0.3340  0.1131
  696MOL0     C95968   5.411   5.053   7.477  0.2117  0.2376  0.6142
  696MOL0     O95969   5.376   5.001   7.356  0.0013 -1.0997 -0.0759
  696MOL0     C95970   5.353   4.853   7.361  1.0093  0.4748 -0.0434
  696MOL0     C95971   5.308   4.788   7.232  0.7263  0.5236  0.8332
  696MOL0     C95972   5.161   4.825   7.197  0.0043 -0.0209 -0.0533
  696MOL0     C95973   5.126   4.746   7.068  0.3819  0.2671  0.0277
  696MOL0     C95974   4.989   4.733   7.027  0.2974 -1.1137 -0.6964
  696MOL0     C95975   4.875   4.738   6.992 -0.4382 -0.7484 -0.2970
  696MOL0     C95976   5.319   5.071   7.581  0.1935  0.2815  0.2892
  696MOL0     C95977   5.355   5.123   7.703 -0.4010  0.5166 -0.7225
  696MOL0     C95978   5.248   5.141   7.810 -0.5288  0.4293 -0.2831
  696MOL0     H95979   5.633   5.022   8.025 -0.5527  1.0629 -1.3606
  696MOL0     H95980   5.773   4.953   8.225  3.3060  0.3263  2.4731
  696MOL0     H95981   6.029   5.259   8.420  0.9235  1.0734  0.0999
  696MOL0     H95982   6.140   5.208   8.295 -1.1617 -0.7195 -1.1618
  696MOL0     H95983   6.066   5.073   8.572 -0.5572 -1.3335 -0.9863
  696MOL0     H95984   6.210   5.022   8.473 -0.5675 -0.3491 -0.9749
  696MOL0     H95985   6.286   5.253   8.486 -3.4252 -0.5191 -2.8531
  696MOL0     H95986   6.177   5.290   8.618 -0.9842  0.6461 -0.9544
  696MOL0     H95987   6.272   5.087   8.743  0.5915  1.7831 -0.2649
  696MOL0     H95988   6.381   5.059   8.614  0.6605  0.6709 -0.7192
  696MOL0     H95989   6.452   5.327   8.658 -1.6057  2.3747  0.7418
  696MOL0     H95990   6.505   5.202   8.771 -1.4571 -3.6591 -1.4949
  696MOL0     H95991   6.266   5.389   8.829 -1.2957 -0.7995  3.2160
  696MOL0     H95992   6.313   5.243   8.920  1.8478 -1.5626 -0.7552
  696MOL0     H95993   6.489   5.495   8.878  0.9191  0.7432  1.6707
  696MOL0     H95994   6.540   5.337   8.949 -1.5818 -2.6408 -1.8342
  696MOL0     H95995   6.328   5.541   9.058  0.9428  0.3111 -0.6798
  696MOL0     H95996   6.349   5.368   9.110  1.9240 -0.5737 -0.3194
  696MOL0     H95997   6.547   5.717   9.069 -0.8918 -0.2602  0.8882
  696MOL0     H95998   6.734   5.813   9.307 -2.4579 -0.5011 -0.3123
  696MOL0     H95999   6.776   5.806   9.138 -1.4734  1.5112  1.7844
  696MOL0     H96000   6.906   5.628   9.343 -2.2633 -1.5913 -1.8297
  696MOL0     H96001   6.935   5.643   9.170 -3.1752 -1.1273 -0.3052
  696MOL0     H96002   7.113   5.788   9.265 -0.0340  0.8814 -0.6442
  696MOL0     H96003   6.985   5.908   9.240  2.6228  1.8946  0.9178
  696MOL0     H96004   7.023   5.969   9.462 -0.9421 -0.4635  2.5008
  696MOL0     H96005   6.902   5.847   9.496  0.8266  1.5244  2.9260
  696MOL0     H96006   7.251   5.650   9.694  0.9281 -1.0575 -0.6430
  696MOL0     H96007   7.598   5.680   9.801  1.5839  0.8630 -2.6602
  696MOL0     H96008   7.508   5.557   9.695  0.8335 -0.2006  0.2093
  696MOL0     H96009   7.435   5.624   9.844 -0.4312  0.3537 -0.8806
  696MOL0     H96010   7.900   5.820   9.377  1.1104  2.8472 -0.8939
  696MOL0     H96011   8.154   5.843   9.404 -0.0065  2.8281 -0.0204
  696MOL0     H96012   8.318   5.943   9.448  0.8732 -2.1061  0.8587
  696MOL0     H96013   8.305   6.066   9.572  1.6078  0.3417 -1.6868
  696MOL0     H96014   8.521   5.843   9.543  0.3562 -0.1578  0.3446
  696MOL0     H96015   8.538   6.012   9.482 -0.6637  1.9487  2.0657
  696MOL0     H96016   8.525   5.898   9.759 -1.5241 -0.5284 -0.6507
  696MOL0     H96017   8.479   6.071   9.740  0.2116  1.6338 -1.9195
  696MOL0     H96018   8.682   6.079   9.808 -3.2171  0.1602  0.0630
  696MOL0     H96019   8.703   6.111   9.635 -0.2299 -1.1512 -0.5367
  696MOL0     H96020   8.785   5.862   9.796  0.0841  0.9052  1.3453
  696MOL0     H96021   8.756   5.864   9.616 -0.2648  0.5689 -0.8096
  696MOL0     H96022   8.918   6.042   9.590  1.2932 -2.6794 -1.5896
  696MOL0     H96023   8.998   5.908   9.673 -0.8721 -0.5207 -1.9669
  696MOL0     H96024   8.877   6.140   9.815 -0.4967  0.2337  1.6570
  696MOL0     H96025   9.053   6.132   9.778 -0.7085  1.9655 -1.3169
  696MOL0     H96026   8.912   5.919   9.952  1.8836 -1.4151  3.6174
  696MOL0     H96027   9.013   6.064  10.002  1.8157 -1.2740  0.4982
  696MOL0     H96028   8.120   5.769   9.811 -1.2899 -0.4145 -0.8751
  696MOL0     H96029   7.867   5.741   9.786  1.7110 -1.0151  1.1852
  696MOL0     H96030   7.481   5.977   9.425 -0.5004  0.0163  0.2332
  696MOL0     H96031   7.260   5.966   9.392 -0.2331  0.8375 -0.7771
  696MOL0     H96032   6.025   5.296   8.154 -0.5382  1.6594  1.1757
  696MOL0     H96033   5.889   5.356   7.972 -0.3248  0.2215 -0.5652
  696MOL0     H96034   5.686   5.168   7.638 -0.5234  3.0821  0.5155
  696MOL0     H96035   5.615   5.074   7.414  0.1969 -1.9872 -0.0089
  696MOL0     H96036   5.440   4.799   7.400 -0.9305 -2.2816  0.7927
  696MOL0     H96037   5.272   4.826   7.430 -0.9016 -1.7015 -2.9309
  696MOL0     H96038   5.306   4.679   7.238 -0.0413  0.4984  0.2561
  696MOL0     H96039   5.369   4.815   7.145 -0.8617 -1.0576 -0.8556
  696MOL0     H96040   5.101   4.782   7.277  0.3778 -1.1076 -0.3414
  696MOL0     H96041   5.155   4.933   7.180  3.5407  0.2750 -0.2691
  696MOL0     H96042   5.173   4.647   7.070  1.2616  0.6617  2.1209
  696MOL0     H96043   5.182   4.783   6.982  1.9682 -1.7557  0.0898
  696MOL0     H96044   4.779   4.749   6.945 -0.1533  0.5765 -0.6062
  696MOL0     H96045   5.219   5.034   7.561  0.7123 -3.7181  3.7204
  696MOL0     H96046   5.145   5.115   7.783 -1.7978  0.1883  4.1350
  696MOL0     H96047   5.268   5.081   7.899 -0.0967 -0.1345 -0.7445
  696MOL0     H96048   5.253   5.248   7.832 -0.5550  0.1726  1.0354
  697MOL0     O96049   5.391   4.850   5.048 -0.4476 -0.3336  0.5509
  697MOL0     C96050   5.318   4.895   5.134  0.8438  0.8310  0.2953
  697MOL0     O96051   5.344   4.889   5.273  0.3511  0.4280  0.5092
  697MOL0     C96052   5.460   4.834   5.317 -0.7712  0.7226  0.2685
  697MOL0     C96053   5.547   4.909   5.398  0.3110 -0.0289  0.0001
  697MOL0     C96054   5.669   4.859   5.443 -0.1795  0.3379 -0.2108
  697MOL0     C96055   5.713   4.726   5.419  0.5749  0.7415 -0.6041
  697MOL0     O96056   5.841   4.693   5.465  0.1753  0.1228  0.0879
  697MOL0     C96057   5.907   4.585   5.392 -0.2857 -0.7721 -0.5695
  697MOL0     C96058   6.057   4.612   5.404 -0.5135  0.4506  0.1464
  697MOL0     C96059   6.140   4.503   5.346 -0.6983 -0.2096 -0.0854
  697MOL0     C96060   6.179   4.393   5.451 -0.1417 -1.3089 -1.0144
  697MOL0     C96061   6.253   4.445   5.570 -0.4640 -0.3511 -0.1407
  697MOL0     C96062   6.336   4.345   5.636  0.8761 -0.0454 -0.2450
  697MOL0     C96063   6.393   4.416   5.765 -0.5418  0.2924  0.1156
  697MOL0     C96064   6.458   4.298   5.849 -0.2759 -0.5047  0.2703
  697MOL0     N96065   6.590   4.278   5.802  0.0307  0.2226  0.9379
  697MOL0     C96066   6.704   4.350   5.837 -0.0648  0.1997  0.0607
  697MOL0     C96067   6.798   4.302   5.748 -0.6476 -0.4751 -0.3558
  697MOL0     C96068   6.943   4.322   5.727  0.6015 -0.0674 -0.3522
  697MOL0     C96069   6.972   4.470   5.730  0.2364 -0.4682 -0.4457
  697MOL0     C96070   7.124   4.495   5.724  0.2309  0.5795  0.4513
  697MOL0     C96071   7.166   4.645   5.688 -0.4357  1.5720  0.4033
  697MOL0     O96072   7.302   4.653   5.650  0.8689  0.2476  0.1974
  697MOL0     C96073   7.391   4.729   5.723  0.3455 -0.5900 -0.4935
  697MOL0     C96074   7.529   4.722   5.681 -0.2774 -0.4011 -0.0829
  697MOL0     C96075   7.630   4.802   5.739  0.3953 -0.2796 -0.0282
  697MOL0     C96076   7.769   4.782   5.691  0.8064  0.1493 -0.0116
  697MOL0     C96077   7.597   4.893   5.842  0.4407  0.1838 -0.2991
  697MOL0     C96078   7.697   4.966   5.914 -0.0762 -0.2823  0.4729
  697MOL0     O96079   7.813   4.912   5.941 -0.5670  0.1083 -0.2904
  697MOL0     C96080   7.878   4.956   6.053 -0.1746 -0.4577 -0.2829
  697MOL0     C96081   7.993   5.036   6.043  0.3491 -0.0766  0.3737
  697MOL0     C96082   8.065   5.082   6.157 -0.5563  0.7073  0.2985
  697MOL0     C96083   8.023   5.038   6.285 -0.2772 -0.0720  0.0068
  697MOL0     O96084   8.106   5.058   6.395 -0.3974 -0.4374  0.3244
  697MOL0     C96085   8.099   4.971   6.510  0.2842  0.9195 -0.2285
  697MOL0     C96086   8.204   5.002   6.612 -0.0263  0.5407 -0.0411
  697MOL0     C96087   8.339   4.962   6.551 -0.3532  0.2368 -0.8335
  697MOL0     C96088   8.374   4.814   6.547 -0.2312  0.4724 -0.0662
  697MOL0     C96089   8.491   4.792   6.456 -0.1407  0.2162 -1.1638
  697MOL0     C96090   8.486   4.646   6.417 -1.1907  0.9068  0.0804
  697MOL0     C96091   8.623   4.595   6.358  0.4650 -0.4605  0.3156
  697MOL0     C96092   8.595   4.457   6.302  0.1598 -0.7280  0.5470
  697MOL0    Cl96093   8.496   4.477   6.140  0.4137 -0.7013 -0.3918
  697MOL0     C96094   7.907   4.960   6.295 -0.2066 -0.4136 -1.6081
  697MOL0     C96095   7.835   4.926   6.181 -0.0421  0.3839 -0.9828
  697MOL0     O96096   7.656   5.073   5.961 -0.3730 -0.2150  0.6504
  697MOL0     C96097   7.463   4.899   5.884 -0.1843  0.5382 -0.7041
  697MOL0     C96098   7.363   4.821   5.828 -0.0263  0.3466 -0.4697
  697MOL0     N96099   6.736   4.213   5.665 -0.1696  0.1842 -0.9129
  697MOL0     N96100   6.615   4.197   5.694 -0.6466  0.4704 -0.4918
  697MOL0     C96101   5.627   4.649   5.340  0.0192  0.3057 -0.9108
  697MOL0     C96102   5.503   4.705   5.286  0.7521  0.6367  0.4455
  697MOL0     C96103   5.177   4.928   5.105 -0.2326  0.0759  0.6409
  697MOL0     C96104   5.082   4.940   5.210  0.6645  0.1656 -0.0419
  697MOL0     C96105   4.950   4.973   5.186  0.3176 -0.0660  1.2954
  697MOL0     C96106   4.904   4.995   5.054 -0.6063 -0.4961 -0.3886
  697MOL0     O96107   4.778   5.044   5.029 -0.6444  0.2572  0.6080
  697MOL0     C96108   4.689   5.078   5.132  0.5399 -0.1921  0.5853
  697MOL0     C96109   4.553   5.114   5.074  0.2438  0.5134  0.2449
  697MOL0     C96110   4.439   5.131   5.172 -0.3852 -0.2409 -0.1711
  697MOL0     C96111   4.309   5.181   5.097 -0.4519 -0.2843 -0.0539
  697MOL0     C96112   4.198   5.188   5.185  0.2260 -0.2584 -0.0491
  697MOL0     C96113   4.089   5.190   5.253 -0.4878  0.2141  0.1989
  697MOL0     C96114   4.994   4.998   4.947  0.3311  0.0676 -0.4084
  697MOL0     C96115   5.125   4.964   4.974 -0.0255  0.0074  0.2033
  697MOL0     C96116   5.213   4.972   4.852 -0.3987  0.0627 -0.4111
  697MOL0     H96117   5.514   5.010   5.423 -1.9589 -0.9381  0.9679
  697MOL0     H96118   5.730   4.924   5.505 -0.2968  2.2375 -1.9707
  697MOL0     H96119   5.879   4.581   5.286  0.7385 -0.6361 -0.8607
  697MOL0     H96120   5.886   4.489   5.439 -2.0385 -0.8761 -1.4751
  697MOL0     H96121   6.075   4.701   5.344  0.3870  1.4158  1.7616
  697MOL0     H96122   6.081   4.648   5.505 -2.4531  2.5569 -0.0703
  697MOL0     H96123   6.096   4.467   5.253  0.1883 -0.4754 -0.4102
  697MOL0     H96124   6.235   4.538   5.306 -2.3799  0.7301 -3.6385
  697MOL0     H96125   6.097   4.333   5.492  0.1711 -0.5451  0.8032
  697MOL0     H96126   6.252   4.329   5.401  2.4539 -0.5078  1.5317
  697MOL0     H96127   6.184   4.490   5.642  0.8167 -0.1699  1.0037
  697MOL0     H96128   6.316   4.525   5.532 -1.7641  0.5066 -0.5874
  697MOL0     H96129   6.278   4.254   5.656  2.3679 -0.8555  0.5816
  697MOL0     H96130   6.410   4.307   5.564  2.4513 -0.1787  1.3810
  697MOL0     H96131   6.307   4.458   5.820  0.0152 -0.1404  1.3452
  697MOL0     H96132   6.461   4.497   5.735 -0.0658 -0.1256  0.0634
  697MOL0     H96133   6.458   4.318   5.957 -0.7850 -0.9566  0.3558
  697MOL0     H96134   6.417   4.197   5.850  2.8701 -1.9306  2.0042
  697MOL0     H96135   6.724   4.425   5.913  1.3921  0.5542 -0.6358
  697MOL0     H96136   6.986   4.273   5.639 -0.6477  1.9266 -2.1727
  697MOL0     H96137   6.999   4.279   5.811  2.0052  2.6483  0.2215
  697MOL0     H96138   6.926   4.512   5.641  1.1330 -0.7322 -1.0523
  697MOL0     H96139   6.930   4.523   5.816 -0.7951 -0.2201 -1.0957
  697MOL0     H96140   7.180   4.468   5.814 -0.0885 -0.9868  0.2142
  697MOL0     H96141   7.151   4.435   5.636 -1.0117  2.3338 -1.1976
  697MOL0     H96142   7.107   4.688   5.607  0.1494 -0.4568 -1.1761
  697MOL0     H96143   7.146   4.701   5.779 -1.1243  1.4640  0.3223
  697MOL0     H96144   7.569   4.665   5.598  2.2562 -0.0920  0.8340
  697MOL0     H96145   7.819   4.731   5.775  1.7475  3.8268  1.8792
  697MOL0     H96146   7.814   4.878   5.665  0.8374  0.2186  0.2967
  697MOL0     H96147   7.764   4.722   5.600 -1.1927  1.6235 -0.9443
  697MOL0     H96148   8.033   5.059   5.945  0.0212  1.5884  0.5954
  697MOL0     H96149   8.162   5.126   6.137 -0.5476  0.5146 -0.1182
  697MOL0     H96150   8.001   4.975   6.558 -0.4423  3.6210 -1.7168
  697MOL0     H96151   8.123   4.871   6.473  0.8236  1.1348 -0.4690
  697MOL0     H96152   8.212   5.110   6.632  2.1922  0.4456 -0.1319
  697MOL0     H96153   8.184   4.946   6.704 -1.9146  1.0840 -0.0725
  697MOL0     H96154   8.414   5.022   6.602 -0.8505  1.9945 -2.0662
  697MOL0     H96155   8.343   5.000   6.448 -1.3874 -3.4924 -2.4399
  697MOL0     H96156   8.292   4.755   6.504 -0.7892  1.0332  0.2200
  697MOL0     H96157   8.396   4.775   6.647  1.0310 -0.3878 -0.6552
  697MOL0     H96158   8.479   4.852   6.365  1.7433 -0.9164 -2.2263
  697MOL0     H96159   8.586   4.812   6.504 -0.0864 -0.9188 -0.7539
  697MOL0     H96160   8.410   4.637   6.339  0.2315  1.5800 -1.4343
  697MOL0     H96161   8.464   4.588   6.507 -1.4568  3.0804  1.5013
  697MOL0     H96162   8.692   4.600   6.442 -0.4457  2.1554  1.0087
  697MOL0     H96163   8.665   4.653   6.275  0.3673 -0.8977 -0.0470
  697MOL0     H96164   8.550   4.398   6.382  0.7014  2.0189  3.0817
  697MOL0     H96165   8.686   4.401   6.278  0.3721 -1.1137  2.1193
  697MOL0     H96166   7.863   4.926   6.389  0.0541  0.5602 -1.1226
  697MOL0     H96167   7.758   4.849   6.186  1.0120 -0.6804 -0.7243
  697MOL0     H96168   7.433   4.957   5.970 -1.8384 -0.8040 -0.3325
  697MOL0     H96169   7.262   4.840   5.863  0.2853 -0.6483  1.1101
  697MOL0     H96170   5.655   4.545   5.330  0.7451  0.2533  1.1087
  697MOL0     H96171   5.446   4.642   5.218  3.4115  0.5751 -1.9514
  697MOL0     H96172   5.102   4.908   5.312 -3.7535  2.5774  1.8864
  697MOL0     H96173   4.879   4.972   5.269 -0.2799  1.7625  0.8560
  697MOL0     H96174   4.670   4.991   5.195 -0.1924  0.7061  1.6380
  697MOL0     H96175   4.729   5.167   5.182  0.0827  1.9227 -2.5411
  697MOL0     H96176   4.529   5.039   4.998 -0.5034  1.0457 -0.0577
  697MOL0     H96177   4.557   5.207   5.017 -0.9851 -0.2824 -1.2085
  697MOL0     H96178   4.408   5.038   5.221 -0.3117 -0.3727 -0.3725
  697MOL0     H96179   4.463   5.210   5.244 -0.7869 -1.8693  1.8552
  697MOL0     H96180   4.285   5.116   5.012 -1.8836  3.6494 -2.9808
  697MOL0     H96181   4.320   5.275   5.042  1.7062 -2.0315 -2.9418
  697MOL0     H96182   3.995   5.208   5.301  0.1770  0.8764  1.2915
  697MOL0     H96183   4.962   5.043   4.853 -2.0258 -0.6658 -0.0246
  697MOL0     H96184   5.252   4.876   4.818  0.9937 -0.0757  1.4496
  697MOL0     H96185   5.163   5.020   4.767 -0.4748  0.7189 -0.0044
  697MOL0     H96186   5.307   5.025   4.871 -2.2091  3.5760 -0.4179
  698MOL0     O96187   4.678   4.601   3.689  0.2360  0.0612  0.3847
  698MOL0     C96188   4.586   4.603   3.770 -1.0220  0.3211  0.6101
  698MOL0     O96189   4.602   4.618   3.910  0.4328 -0.3913  0.6541
  698MOL0     C96190   4.732   4.599   3.939  0.6683  0.0652  0.4343
  698MOL0     C96191   4.807   4.716   3.940 -0.2697  0.3137  0.1603
  698MOL0     C96192   4.943   4.711   3.979 -0.6194  0.2404 -0.3279
  698MOL0     C96193   5.003   4.590   4.022 -0.6265  0.4706  0.9404
  698MOL0     O96194   5.132   4.581   4.069 -0.2834 -0.0008 -0.5302
  698MOL0     C96195   5.242   4.657   4.019  0.1621  0.4363  0.3614
  698MOL0     C96196   5.369   4.623   4.111  0.2556  0.5280 -0.1695
  698MOL0     C96197   5.481   4.712   4.061 -0.4652  0.7478  0.0917
  698MOL0     C96198   5.593   4.627   3.995  0.2348  0.2512 -0.1511
  698MOL0     C96199   5.727   4.704   4.013 -0.9832 -0.4334 -0.0239
  698MOL0     C96200   5.729   4.830   3.928 -0.1326 -0.6633 -0.3597
  698MOL0     C96201   5.872   4.854   3.888  0.5195  0.4335  0.6204
  698MOL0     C96202   5.887   4.997   3.835 -0.4594 -0.0520 -0.2095
  698MOL0     N96203   5.876   5.094   3.944 -0.2076  0.0721  0.3888
  698MOL0     C96204   5.982   5.165   3.994  0.5917 -0.1008 -0.5644
  698MOL0     C96205   5.935   5.259   4.080 -0.4624 -0.3953 -0.1093
  698MOL0     C96206   6.022   5.339   4.178 -0.5137  0.8528 -0.2659
  698MOL0     C96207   6.072   5.460   4.108 -0.5079  0.0595 -0.2260
  698MOL0     C96208   6.146   5.549   4.209 -0.2763 -0.1994 -0.0005
  698MOL0     C96209   6.210   5.654   4.122  0.2874  0.1474 -0.0403
  698MOL0     O96210   6.266   5.754   4.215  0.0084 -0.0340 -0.3591
  698MOL0     C96211   6.405   5.764   4.216 -0.2415  0.7240  0.1240
  698MOL0     C96212   6.492   5.655   4.203  0.4373 -0.2929  0.2032
  698MOL0     C96213   6.636   5.660   4.214  0.4502 -0.9710 -0.0936
  698MOL0     C96214   6.706   5.531   4.230 -0.3295  1.2745  0.0929
  698MOL0     C96215   6.688   5.795   4.215  0.0883  1.0603  0.5178
  698MOL0     C96216   6.827   5.819   4.185  0.0126  0.3349 -0.4597
  698MOL0     O96217   6.852   5.924   4.106  0.1491 -0.7318 -0.3895
  698MOL0     C96218   6.982   5.960   4.074 -0.6619 -0.3079 -0.7211
  698MOL0     C96219   7.011   6.092   4.064 -0.4805 -0.0455  0.3312
  698MOL0     C96220   7.145   6.138   4.071 -0.3508  0.2209 -0.4675
  698MOL0     C96221   7.252   6.041   4.087 -0.3446 -0.5561  0.2678
  698MOL0     O96222   7.382   6.083   4.098 -0.2002 -0.6825 -0.4009
  698MOL0     C96223   7.409   6.196   4.174 -0.9138 -0.2195  0.3274
  698MOL0     C96224   7.550   6.190   4.225  0.0634 -0.5049  0.5838
  698MOL0     C96225   7.651   6.188   4.108 -0.3440  0.1836 -0.0620
  698MOL0     C96226   7.781   6.111   4.154 -0.4806 -0.1344  0.4610
  698MOL0     C96227   7.895   6.118   4.044 -0.1515  0.3760  0.3821
  698MOL0     C96228   8.027   6.043   4.069  0.1977 -0.0525 -0.2739
  698MOL0     C96229   8.110   6.075   4.196 -0.4842  0.6385  0.2301
  698MOL0     C96230   8.144   6.226   4.206  0.3347 -0.3770 -0.6205
  698MOL0    Cl96231   8.254   6.279   4.080  0.2100  0.2416  0.3708
  698MOL0     C96232   7.218   5.908   4.066 -0.4112  0.0357 -0.3829
  698MOL0     C96233   7.083   5.869   4.057 -1.1460 -1.1512  0.3048
  698MOL0     O96234   6.914   5.748   4.240  0.0257  0.3121  0.3865
  698MOL0     C96235   6.597   5.908   4.225 -0.7610 -0.0394  0.4138
  698MOL0     C96236   6.461   5.886   4.237 -0.2555 -0.4034  0.3222
  698MOL0     N96237   5.801   5.237   4.102  0.9796  0.0324  0.2555
  698MOL0     N96238   5.766   5.142   4.013  0.4161 -0.0276  1.1881
  698MOL0     C96239   4.919   4.477   4.035  0.1212  0.2801  0.0858
  698MOL0     C96240   4.790   4.481   3.986  0.5495 -0.8887  0.4846
  698MOL0     C96241   4.451   4.580   3.721  0.2182  0.4309  0.2033
  698MOL0     C96242   4.351   4.564   3.818 -0.6058  0.7111 -0.2443
  698MOL0     C96243   4.218   4.537   3.785 -0.7814  0.5357  0.8978
  698MOL0     C96244   4.179   4.519   3.657  0.1792 -0.2883 -0.9688
  698MOL0     O96245   4.050   4.473   3.612 -0.8337  0.0500  0.9101
  698MOL0     C96246   3.940   4.468   3.709 -0.4916 -0.0019  0.4048
  698MOL0     C96247   3.824   4.401   3.640  0.1062 -0.8280  0.1677
  698MOL0     C96248   3.748   4.320   3.739  0.2016 -0.2294  0.1092
  698MOL0     C96249   3.652   4.402   3.826 -0.1485 -0.4367 -0.0040
  698MOL0     C96250   3.564   4.308   3.888 -0.1299  0.7687 -0.5611
  698MOL0     C96251   3.493   4.244   3.960 -0.3503  0.2638 -0.5699
  698MOL0     C96252   4.274   4.543   3.553  0.7850  0.0952 -0.1527
  698MOL0     C96253   4.407   4.577   3.583  0.0460  0.6004 -0.0482
  698MOL0     C96254   4.495   4.608   3.464 -0.1947  0.3473 -1.0161
  698MOL0     H96255   4.761   4.809   3.910  0.1972  0.7706  0.8394
  698MOL0     H96256   5.004   4.801   3.980 -2.9941  1.9367 -0.6298
  698MOL0     H96257   5.209   4.761   4.029  1.9599  1.1351 -0.5171
  698MOL0     H96258   5.259   4.639   3.912  0.7504  1.3296  0.3008
  698MOL0     H96259   5.341   4.651   4.213  1.6191  0.0351  0.3585
  698MOL0     H96260   5.383   4.515   4.105  3.5032  0.7115  1.6794
  698MOL0     H96261   5.451   4.780   3.982 -2.0699 -1.6952 -1.5384
  698MOL0     H96262   5.519   4.768   4.148  1.5310  0.7476 -0.7238
  698MOL0     H96263   5.609   4.534   4.049  1.8476  0.6583  0.1240
  698MOL0     H96264   5.574   4.608   3.889  0.5368 -1.0581  0.0218
  698MOL0     H96265   5.803   4.639   3.970  1.2743  0.5182  2.2727
  698MOL0     H96266   5.758   4.704   4.118  0.2647 -1.8637 -0.3635
  698MOL0     H96267   5.673   4.821   3.835  0.2169 -1.0325 -0.5378
  698MOL0     H96268   5.683   4.918   3.975  2.3298 -0.2369  1.4920
  698MOL0     H96269   5.891   4.774   3.815 -0.7346  1.8485 -1.3729
  698MOL0     H96270   5.942   4.840   3.970  1.7386  0.3378 -0.4113
  698MOL0     H96271   5.990   5.012   3.799 -0.6990 -0.3738 -1.0446
  698MOL0     H96272   5.814   5.018   3.757 -0.5821  1.7324  0.3440
  698MOL0     H96273   6.088   5.144   3.986  0.4880 -0.6817 -0.5206
  698MOL0     H96274   6.096   5.275   4.225 -1.6502 -0.4514 -0.1999
  698MOL0     H96275   5.951   5.361   4.258 -3.1510 -0.6131 -2.0347
  698MOL0     H96276   6.141   5.432   4.027  0.6202  4.2530 -0.9331
  698MOL0     H96277   5.990   5.517   4.065  0.0331  1.7842  0.9221
  698MOL0     H96278   6.073   5.595   4.276  0.4284  3.1222 -1.2841
  698MOL0     H96279   6.218   5.502   4.276  1.2499 -0.7263 -1.9210
  698MOL0     H96280   6.284   5.616   4.052 -1.5820 -1.3851 -1.3066
  698MOL0     H96281   6.130   5.701   4.063  0.1632  0.9691  0.7616
  698MOL0     H96282   6.448   5.556   4.202 -1.0299  0.2573  2.0387
  698MOL0     H96283   6.688   5.464   4.145 -1.1071  0.1419  1.1243
  698MOL0     H96284   6.670   5.476   4.317  0.8332 -3.6901 -2.2005
  698MOL0     H96285   6.815   5.526   4.227 -0.3888  0.0607 -0.6230
  698MOL0     H96286   6.929   6.161   4.086  1.6855  2.5084  0.9492
  698MOL0     H96287   7.156   6.244   4.091 -1.6736  0.6760 -1.8814
  698MOL0     H96288   7.395   6.284   4.110 -0.3917 -0.0144  0.4891
  698MOL0     H96289   7.345   6.207   4.262  0.9285  1.1478  1.5887
  698MOL0     H96290   7.563   6.281   4.284 -0.9614 -0.2491  0.4401
  698MOL0     H96291   7.552   6.102   4.290  1.4858 -0.0394  1.2207
  698MOL0     H96292   7.668   6.294   4.089  0.2656  0.1172  0.0962
  698MOL0     H96293   7.620   6.143   4.013  0.9067 -0.2422 -0.2939
  698MOL0     H96294   7.766   6.008   4.190  1.4833 -0.6755 -0.1553
  698MOL0     H96295   7.818   6.160   4.244 -1.5578  1.0040  0.3094
  698MOL0     H96296   7.856   6.086   3.947  0.6152  2.5913 -0.7029
  698MOL0     H96297   7.922   6.223   4.037 -2.6821  1.1149  0.7894
  698MOL0     H96298   8.088   6.072   3.984 -0.2603  1.7833 -0.0212
  698MOL0     H96299   8.011   5.935   4.074 -0.1304  0.0361  3.3854
  698MOL0     H96300   8.204   6.019   4.197 -1.3540 -0.9060 -0.1539
  698MOL0     H96301   8.040   6.053   4.278 -1.4808  3.5041  0.2619
  698MOL0     H96302   8.183   6.243   4.307  1.7478 -0.9218 -1.0503
  698MOL0     H96303   8.053   6.286   4.209  2.5508  3.2479  0.2796
  698MOL0     H96304   7.297   5.834   4.067 -0.9015 -0.5517 -1.7664
  698MOL0     H96305   7.051   5.766   4.042 -0.3705 -1.4702  0.7979
  698MOL0     H96306   6.630   6.011   4.221  0.2642 -0.3948 -1.2274
  698MOL0     H96307   6.394   5.969   4.253 -0.5751 -0.7628  0.8802
  698MOL0     H96308   4.961   4.385   4.074  0.5565  0.0209 -0.9495
  698MOL0     H96309   4.724   4.395   3.987 -0.8252  0.1301  0.5332
  698MOL0     H96310   4.369   4.587   3.923 -2.9271  0.4482  0.2753
  698MOL0     H96311   4.158   4.522   3.874  2.8738 -2.9395  3.0784
  698MOL0     H96312   3.979   4.420   3.800  0.9492 -2.3957 -1.3532
  698MOL0     H96313   3.921   4.570   3.744  0.9153  1.0689 -1.7677
  698MOL0     H96314   3.868   4.343   3.558  2.9185  1.5431 -0.1805
  698MOL0     H96315   3.776   4.480   3.581  1.1801  0.3784  0.8675
  698MOL0     H96316   3.686   4.248   3.684 -0.5216  0.0891  0.4969
  698MOL0     H96317   3.821   4.257   3.791  2.4387  1.5052 -0.7532
  698MOL0     H96318   3.591   4.469   3.765 -0.1363 -0.7430 -0.3520
  698MOL0     H96319   3.694   4.459   3.910  0.3010  0.8979 -1.1008
  698MOL0     H96320   3.434   4.168   4.006 -0.7371  0.4709 -0.7160
  698MOL0     H96321   4.234   4.539   3.452 -1.4555  0.0409  0.6687
  698MOL0     H96322   4.578   4.537   3.458 -0.7216 -0.8325  2.8327
  698MOL0     H96323   4.461   4.616   3.360 -1.8887  0.4574 -0.4847
  698MOL0     H96324   4.530   4.710   3.482 -0.5743  0.7868 -2.6002
  699MOL0     O96325  10.454   6.822   1.076 -0.1182  0.9145  0.6474
  699MOL0     C96326  10.491   6.872   1.181 -0.3440 -0.0897  0.4445
  699MOL0     O96327  10.612   6.905   1.213 -0.1912  0.0501  0.1889
  699MOL0     C96328  10.713   6.866   1.130 -0.1567  0.4712 -0.6634
  699MOL0     C96329  10.775   6.975   1.062 -0.0120  0.7960  0.2264
  699MOL0     C96330  10.899   6.956   0.988 -0.2409 -0.3579 -0.7928
  699MOL0     C96331  10.963   6.832   0.991 -1.2284  0.3299  0.2789
  699MOL0     O96332  11.078   6.810   0.924  0.2600 -0.0449  0.1418
  699MOL0     C96333  11.122   6.910   0.829 -0.6473  0.5930  0.1325
  699MOL0     C96334  11.231   6.841   0.750  0.0328  0.1374  0.0130
  699MOL0     C96335  11.277   6.926   0.640  0.1032  0.1948  0.0229
  699MOL0     C96336  11.372   6.849   0.542 -0.3446  0.5903 -0.1707
  699MOL0     C96337  11.522   6.870   0.571 -0.2959  0.1251 -1.0742
  699MOL0     C96338  11.617   6.831   0.465 -0.1100 -0.2287 -0.0180
  699MOL0     C96339  11.762   6.870   0.503 -0.0277  0.4900  0.0613
  699MOL0     C96340  11.864   6.827   0.394  0.3835  0.9064 -0.1577
  699MOL0     N96341  11.878   6.681   0.384 -0.5679  0.3592  0.1405
  699MOL0     C96342  11.857   6.584   0.475 -0.4523  0.5105 -0.2183
  699MOL0     C96343  11.885   6.471   0.406 -0.5307  0.2525 -0.0659
  699MOL0     C96344  11.870   6.318   0.453 -0.9943  0.3942 -0.4282
  699MOL0     C96345  11.996   6.251   0.518 -0.6047 -0.1111 -0.0813
  699MOL0     C96346  12.035   6.310   0.652  0.1244 -0.5915 -0.4173
  699MOL0     C96347  12.169   6.254   0.711 -0.1516  0.0728  0.4405
  699MOL0     O96348  12.227   6.352   0.800  0.4764 -0.0332 -0.6544
  699MOL0     C96349  12.323   6.438   0.768 -0.2713 -0.2509 -0.2498
  699MOL0     C96350  12.350   6.529   0.878 -0.0318  0.3759  0.3826
  699MOL0     C96351  12.434   6.639   0.855 -0.0932  0.4292  0.1503
  699MOL0     C96352  12.456   6.729   0.974  0.6153 -0.5009  0.2489
  699MOL0     C96353  12.506   6.656   0.724 -0.4675  0.1341 -0.0745
  699MOL0     C96354  12.599   6.768   0.699  0.3145  0.1475  0.3949
  699MOL0     O96355  12.619   6.801   0.565  0.1251  0.0498 -0.4885
  699MOL0     C96356  12.701   6.911   0.532 -0.8351  0.7249 -0.2786
  699MOL0     C96357  12.650   7.012   0.453 -0.1956 -1.0885 -1.5809
  699MOL0     C96358  12.725   7.128   0.416 -0.6276  0.6292 -0.2428
  699MOL0     C96359  12.858   7.139   0.456  0.2756 -0.0254 -0.0457
  699MOL0     O96360  12.933   7.246   0.427 -0.2251  0.1732 -0.1414
  699MOL0     C96361  12.887   7.349   0.342  0.6759 -0.0829 -0.0370
  699MOL0     C96362  12.999   7.450   0.315  0.2352  0.1734 -0.2713
  699MOL0     C96363  13.087   7.403   0.202 -0.1466  0.3766 -1.0008
  699MOL0     C96364  13.201   7.311   0.252  0.6884 -0.1629 -0.4466
  699MOL0     C96365  13.301   7.272   0.149 -0.4190  0.1415 -0.5682
  699MOL0     C96366  13.387   7.163   0.216  0.6002 -0.9308  0.9304
  699MOL0     C96367  13.481   7.102   0.113 -0.6864 -0.0437 -0.2940
  699MOL0     C96368  13.562   6.987   0.188  0.8651 -0.3796  0.0708
  699MOL0    Cl96369  13.468   6.857   0.258  0.0548  0.3114 -0.3963
  699MOL0     C96370  12.913   7.041   0.546 -0.2002 -0.4414  0.1920
  699MOL0     C96371  12.830   6.929   0.579 -0.5109  0.7935  0.7486
  699MOL0     O96372  12.667   6.803   0.794  0.0076  1.2148 -0.8314
  699MOL0     C96373  12.466   6.574   0.622  0.0945 -0.1361 -1.2904
  699MOL0     C96374  12.374   6.469   0.640  0.2847 -0.2743 -0.1168
  699MOL0     N96375  11.942   6.495   0.290  0.5091  0.1203 -0.2069
  699MOL0     N96376  11.931   6.625   0.272 -0.0330 -0.4900  0.3985
  699MOL0     C96377  10.902   6.724   1.063  1.2119  1.0737 -0.4858
  699MOL0     C96378  10.774   6.739   1.120 -0.8040 -0.7674 -0.3070
  699MOL0     C96379  10.388   6.908   1.272 -0.2174  0.4080  0.0198
  699MOL0     C96380  10.440   7.037   1.428  0.3260  0.8175 -0.3570
  699MOL0     C96381  10.284   7.123   1.554  0.1477  0.6870  0.6162
  699MOL0     C96382  10.082   7.075   1.510 -0.5843  1.1915  0.2346
  699MOL0     O96383   9.984   7.140   1.570 -0.3709  0.3436  0.5143
  699MOL0     C96384   9.856   7.096   1.528  0.1149 -1.2315 -0.1703
  699MOL0     C96385   9.755   7.172   1.618 -0.3724  0.6769  0.5474
  699MOL0     C96386   9.783   7.134   1.763 -0.0011 -0.7468 -0.6328
  699MOL0     C96387   9.678   7.196   1.852 -0.3359 -0.6119  0.5709
  699MOL0     C96388   9.539   7.176   1.813 -0.2087  0.1851  0.0500
  699MOL0     C96389   9.427   7.175   1.763 -0.5310  0.2056  0.1595
  699MOL0     C96390  10.037   6.950   1.349 -0.0533  0.3513  1.4909
  699MOL0     C96391  10.190   6.867   1.228  0.4684 -0.8347 -1.2268
  699MOL0     C96392  10.154   6.790   1.110  0.5124 -0.2207  0.5189
  699MOL0     H96393  10.748   7.080   1.070 -1.2614  0.7577 -2.4344
  699MOL0     H96394  10.958   7.037   0.947  2.3035 -1.4019  0.5985
  699MOL0     H96395  11.155   6.986   0.899  1.7920 -0.5474  0.3331
  699MOL0     H96396  11.047   6.957   0.764 -1.2476 -0.8901 -0.3136
  699MOL0     H96397  11.314   6.820   0.818  3.2739 -0.9206 -3.8588
  699MOL0     H96398  11.189   6.749   0.707  3.4640 -1.3699 -0.4604
  699MOL0     H96399  11.195   6.969   0.581  0.5325  1.0522  0.0273
  699MOL0     H96400  11.327   7.013   0.684 -0.0403  0.1597  0.2539
  699MOL0     H96401  11.362   6.740   0.545  1.4863  0.3859 -0.5545
  699MOL0     H96402  11.345   6.874   0.439 -2.1561 -1.1500 -0.1850
  699MOL0     H96403  11.545   6.815   0.663 -2.2257  3.8137  1.8724
  699MOL0     H96404  11.533   6.976   0.592 -0.6068  0.1866 -1.2139
  699MOL0     H96405  11.608   6.722   0.456 -1.4978  0.0273 -2.9277
  699MOL0     H96406  11.598   6.870   0.364  0.7386  0.0822 -0.0683
  699MOL0     H96407  11.791   6.835   0.602 -1.9016  0.3996  0.6027
  699MOL0     H96408  11.752   6.979   0.505 -1.2687  0.3779  1.8839
  699MOL0     H96409  11.824   6.863   0.299  0.6835  0.7307 -0.3506
  699MOL0     H96410  11.949   6.892   0.417 -0.5367  2.1535 -0.1738
  699MOL0     H96411  11.814   6.593   0.574 -1.6850  0.7169 -0.7568
  699MOL0     H96412  11.834   6.267   0.363 -2.1084 -0.5696  0.5372
  699MOL0     H96413  11.794   6.316   0.532 -1.5182  1.6414 -0.8768
  699MOL0     H96414  11.999   6.143   0.538  3.6998  0.3680  3.5162
  699MOL0     H96415  12.084   6.276   0.459 -1.0544  1.4088 -0.1327
  699MOL0     H96416  12.029   6.419   0.651 -1.9385 -0.6708 -0.4020
  699MOL0     H96417  11.966   6.278   0.730 -0.1990 -0.3843 -0.6183
  699MOL0     H96418  12.146   6.155   0.751  0.5712 -1.5657 -2.8459
  699MOL0     H96419  12.238   6.238   0.628  2.9459  2.6402  2.3145
  699MOL0     H96420  12.307   6.508   0.975 -1.8814  1.3479 -0.1638
  699MOL0     H96421  12.377   6.703   1.045 -1.4530 -2.7330 -2.6419
  699MOL0     H96422  12.448   6.836   0.953 -1.4562 -0.2587  1.9235
  699MOL0     H96423  12.555   6.723   1.020  1.0676  0.6118 -0.5239
  699MOL0     H96424  12.551   7.001   0.410  0.0756 -0.3316 -2.4176
  699MOL0     H96425  12.679   7.209   0.360 -0.2346  0.8586 -0.2373
  699MOL0     H96426  12.850   7.323   0.243  1.9940  3.2339 -1.5380
  699MOL0     H96427  12.815   7.409   0.398  0.7562 -0.1219  0.1085
  699MOL0     H96428  12.951   7.542   0.280 -0.2696 -0.5406 -1.5407
  699MOL0     H96429  13.059   7.465   0.405  1.8011 -1.5574 -0.9677
  699MOL0     H96430  13.121   7.488   0.141 -1.0015  0.8305 -0.8622
  699MOL0     H96431  13.031   7.343   0.129  0.4956 -0.1609 -1.0517
  699MOL0     H96432  13.149   7.224   0.293  0.5087  1.7191  3.8580
  699MOL0     H96433  13.250   7.363   0.334  1.2365  0.4678 -1.1565
  699MOL0     H96434  13.244   7.224   0.069  0.8923  0.0262 -1.4610
  699MOL0     H96435  13.365   7.357   0.125  1.7538 -1.0572  0.6666
  699MOL0     H96436  13.320   7.095   0.269  0.6263 -0.5076  1.5142
  699MOL0     H96437  13.455   7.208   0.289  2.3048  1.2810 -1.7971
  699MOL0     H96438  13.559   7.164   0.069  1.2983 -0.0866  2.8417
  699MOL0     H96439  13.417   7.060   0.034 -0.4507 -0.5648 -0.2168
  699MOL0     H96440  13.628   7.030   0.264  1.0374  1.3475 -0.9812
  699MOL0     H96441  13.620   6.932   0.113 -0.2841 -0.0486 -1.0842
  699MOL0     H96442  13.015   7.058   0.578  1.2048  0.7499 -4.1989
  699MOL0     H96443  12.871   6.851   0.643 -2.5673 -0.9670  0.0385
  699MOL0     H96444  12.496   6.585   0.518 -1.8482  0.0538 -1.8802
  699MOL0     H96445  12.358   6.408   0.552  1.0731 -0.4625 -0.1381
  699MOL0     H96446  10.959   6.633   1.079  1.4964  1.4724  0.8863
  699MOL0     H96447  10.727   6.653   1.167  0.8461 -0.7090  1.6173
  699MOL0     H96448  10.544   7.068   1.442  0.5828  0.1925 -0.8420
  699MOL0     H96449  10.297   7.190   1.639  0.9738  1.3767 -0.0420
  699MOL0     H96450   9.841   7.114   1.421  1.4927 -1.4874 -0.4205
  699MOL0     H96451   9.848   6.988   1.542 -0.3797 -1.1623  0.1272
  699MOL0     H96452   9.653   7.149   1.586 -0.3632  0.8138  0.4168
  699MOL0     H96453   9.767   7.280   1.604  1.9905  0.1933 -2.0039
  699MOL0     H96454   9.773   7.025   1.769 -4.2356 -0.8286 -4.1575
  699MOL0     H96455   9.888   7.158   1.782  0.4870 -3.4838  0.6727
  699MOL0     H96456   9.692   7.304   1.846  0.4821 -0.5714  2.7109
  699MOL0     H96457   9.692   7.164   1.955  1.2175  0.1200  0.6038
  699MOL0     H96458   9.326   7.162   1.732 -0.5539  3.2746 -1.4188
  699MOL0     H96459   9.938   6.920   1.317 -0.3873  2.5670  0.2630
  699MOL0     H96460  10.192   6.840   1.020  3.8021 -1.2293  1.2103
  699MOL0     H96461  10.196   6.690   1.095  0.4802 -0.2172  0.4033
  699MOL0     H96462  10.045   6.781   1.108  0.3612  1.0372  1.6352
  700MOL0     O96463   8.010   9.248   8.684  1.2129 -0.7508 -0.3896
  700MOL0     C96464   7.912   9.237   8.616  0.9108  0.1944  0.0104
  700MOL0     O96465   7.915   9.227   8.478  0.1517  0.4948  0.6461
  700MOL0     C96466   8.031   9.237   8.406  0.0559 -0.3315 -0.0829
  700MOL0     C96467   8.023   9.284   8.272 -0.8179 -0.6383  0.5229
  700MOL0     C96468   8.141   9.285   8.185  0.6866 -0.3661  0.8432
  700MOL0     C96469   8.264   9.239   8.230  1.6902  0.6209  0.0845
  700MOL0     O96470   8.374   9.223   8.156  0.1385  0.1250 -0.0060
  700MOL0     C96471   8.509   9.225   8.217  0.7186 -1.1553 -0.2195
  700MOL0     C96472   8.588   9.269   8.097 -0.1966  0.2117  0.1538
  700MOL0     C96473   8.741   9.251   8.117  0.2882  0.8498 -0.0901
  700MOL0     C96474   8.809   9.290   7.983 -0.4983 -0.4290 -0.4628
  700MOL0     C96475   8.962   9.254   7.979  1.1971  0.3855  0.0907
  700MOL0     C96476   8.974   9.105   7.934 -0.2341 -0.5775  0.8628
  700MOL0     C96477   9.123   9.054   7.947  0.3405 -0.3911 -1.0826
  700MOL0     C96478   9.232   9.163   7.945  0.8377  0.2053 -0.1791
  700MOL0     N96479   9.365   9.107   7.973 -0.7754 -0.2017  0.4650
  700MOL0     C96480   9.447   9.040   7.885  0.6661 -0.1217  0.7611
  700MOL0     C96481   9.552   9.001   7.950  0.4557  0.0335  0.1597
  700MOL0     C96482   9.673   8.932   7.885 -0.0180 -0.4817  0.4949
  700MOL0     C96483   9.815   8.958   7.961 -0.3192  0.2016 -0.0120
  700MOL0     C96484   9.918   8.870   7.882 -0.5526 -0.8307 -0.8399
  700MOL0     C96485  10.065   8.897   7.929 -0.3042 -0.8086 -0.1561
  700MOL0     O96486  10.118   9.027   7.893 -0.2905  0.5959  0.5250
  700MOL0     C96487  10.233   9.077   7.945 -0.6140 -0.3669  0.5504
  700MOL0     C96488  10.241   9.213   7.969 -0.1855 -1.3797  0.6771
  700MOL0     C96489  10.358   9.271   8.027 -0.5642  0.4040  0.8157
  700MOL0     C96490  10.341   9.412   8.072 -0.4105  0.5062 -0.7221
  700MOL0     C96491  10.475   9.181   8.043  0.1884 -0.0633  0.3368
  700MOL0     C96492  10.616   9.222   8.092  1.1316 -1.0979 -0.5308
  700MOL0     O96493  10.708   9.122   8.129  0.1569  0.1549  0.4289
  700MOL0     C96494  10.837   9.167   8.121 -0.1911  0.2758  0.5924
  700MOL0     C96495  10.928   9.134   8.224 -0.0353 -0.5897  0.1402
  700MOL0     C96496  11.067   9.130   8.192 -1.4568 -0.1147  0.0033
  700MOL0     C96497  11.122   9.176   8.066  0.4992  0.0266  0.1523
  700MOL0     O96498  11.258   9.160   8.042  0.1752  0.3266 -0.1434
  700MOL0     C96499  11.324   9.246   7.956 -0.6782 -0.2865  0.1605
  700MOL0     C96500  11.485   9.238   7.975  0.3709 -0.3982  0.0538
  700MOL0     C96501  11.571   9.304   7.868 -0.0155  0.1804 -0.3998
  700MOL0     C96502  11.711   9.240   7.857  0.1420  0.2326  0.1052
  700MOL0     C96503  11.795   9.320   7.756  0.5242  0.4113 -0.0723
  700MOL0     C96504  11.914   9.234   7.707 -0.4080  0.8657  0.0453
  700MOL0     C96505  11.886   9.139   7.585  0.3315 -0.1144 -0.8349
  700MOL0     C96506  12.009   9.067   7.542  0.3559 -0.6783 -0.6392
  700MOL0    Cl96507  12.107   9.166   7.431  0.1662  0.4261 -0.3247
  700MOL0     C96508  11.030   9.207   7.971 -0.0587 -0.0679  0.8587
  700MOL0     C96509  10.895   9.205   8.000 -0.5935 -0.3555 -0.4089
  700MOL0     O96510  10.637   9.343   8.093 -0.3909  0.2018 -0.7676
  700MOL0     C96511  10.468   9.047   7.999 -0.5929 -0.5217 -0.3829
  700MOL0     C96512  10.351   8.994   7.962  0.7762  0.0827  1.0354
  700MOL0     N96513   9.539   9.029   8.083  0.1730  0.4116  0.6397
  700MOL0     N96514   9.426   9.091   8.098  1.0597 -0.1390 -0.3621
  700MOL0     C96515   8.267   9.188   8.364 -0.3722 -0.0620  0.4174
  700MOL0     C96516   8.156   9.188   8.443  1.4087 -0.1117  0.0216
  700MOL0     C96517   7.771   9.245   8.683  0.2382 -0.2776  1.1775
  700MOL0     C96518   7.666   9.200   8.600  0.4890  0.0201 -0.3422
  700MOL0     C96519   7.536   9.216   8.645 -0.0000 -0.1827  0.5526
  700MOL0     C96520   7.510   9.261   8.772 -0.0302  0.8635  0.4007
  700MOL0     O96521   7.392   9.258   8.829  0.1997 -0.5047 -0.8877
  700MOL0     C96522   7.315   9.383   8.797 -0.0453 -0.9747  0.0658
  700MOL0     C96523   7.228   9.367   8.674 -0.4393 -0.6236 -0.1795
  700MOL0     C96524   7.129   9.245   8.698 -0.6826 -0.6447  0.1105
  700MOL0     C96525   7.057   9.208   8.564 -0.7122 -0.2826 -1.2040
  700MOL0     C96526   6.945   9.128   8.592  0.4113 -0.0406  0.2390
  700MOL0     C96527   6.856   9.056   8.624  0.0717  0.4547 -0.6953
  700MOL0     C96528   7.611   9.292   8.856  0.3484  0.9218  0.1216
  700MOL0     C96529   7.746   9.287   8.815  0.3538 -0.1083  0.3083
  700MOL0     C96530   7.848   9.327   8.915  0.0478 -0.1599  0.4270
  700MOL0     H96531   7.929   9.298   8.219 -2.7385 -2.1909  3.2366
  700MOL0     H96532   8.143   9.318   8.081 -1.0047 -2.2668  0.1323
  700MOL0     H96533   8.536   9.124   8.250 -1.0149 -1.3607  0.7096
  700MOL0     H96534   8.520   9.298   8.298  3.4933 -1.1708 -0.4757
  700MOL0     H96535   8.576   9.198   8.015  2.3839 -0.8143  0.5564
  700MOL0     H96536   8.560   9.373   8.079 -0.3432  0.6831  2.6865
  700MOL0     H96537   8.782   9.300   8.206  1.2403  1.2255 -0.7174
  700MOL0     H96538   8.754   9.144   8.133 -0.2541  0.7104 -0.5368
  700MOL0     H96539   8.767   9.242   7.894  1.6917 -1.9870 -0.7171
  700MOL0     H96540   8.795   9.398   7.968  0.5233  0.1938  2.3341
  700MOL0     H96541   9.008   9.262   8.078 -0.5553 -1.2878  1.1174
  700MOL0     H96542   9.004   9.319   7.902 -0.7570 -2.0855 -3.3578
  700MOL0     H96543   8.910   9.044   7.998  0.6992 -2.1136  0.3718
  700MOL0     H96544   8.952   9.092   7.828 -0.7107 -1.1601  1.0292
  700MOL0     H96545   9.133   8.976   7.871  0.2969 -1.6769  0.1836
  700MOL0     H96546   9.125   9.007   8.046 -0.8673  0.7916 -0.4577
  700MOL0     H96547   9.225   9.214   7.848 -3.2288  0.0341 -0.1342
  700MOL0     H96548   9.220   9.241   8.021  0.1094  1.0808 -1.1546
  700MOL0     H96549   9.429   9.026   7.779 -1.2417  0.3542  0.9744
  700MOL0     H96550   9.692   8.976   7.786 -0.3799  3.1002  1.8841
  700MOL0     H96551   9.650   8.825   7.891 -1.8362 -0.0291  3.8811
  700MOL0     H96552   9.828   9.066   7.969 -2.7793  0.4884  0.7048
  700MOL0     H96553   9.810   8.927   8.066  2.1259  3.4480  1.2411
  700MOL0     H96554   9.897   8.765   7.903 -0.4646 -0.3096  2.5243
  700MOL0     H96555   9.918   8.878   7.773  0.5688 -0.7313 -0.8454
  700MOL0     H96556  10.077   8.882   8.036 -2.1857  0.4209  0.2785
  700MOL0     H96557  10.127   8.822   7.879  0.0845  0.6546 -1.9953
  700MOL0     H96558  10.153   9.277   7.972  0.6596 -0.2461  1.9447
  700MOL0     H96559  10.386   9.482   8.001  0.0555 -1.9426 -2.9788
  700MOL0     H96560  10.394   9.427   8.167 -1.3491 -3.5535  0.6248
  700MOL0     H96561  10.235   9.434   8.084 -0.6102  0.4750 -2.2422
  700MOL0     H96562  10.870   9.094   8.306 -3.7994  0.6276 -1.6993
  700MOL0     H96563  11.143   9.092   8.259  1.5971  2.2246 -1.8222
  700MOL0     H96564  11.291   9.224   7.854 -0.5662 -1.6999  0.4191
  700MOL0     H96565  11.298   9.351   7.973  0.9838  0.3804 -1.0083
  700MOL0     H96566  11.514   9.277   8.072  1.7110  0.4158 -0.6445
  700MOL0     H96567  11.518   9.134   7.975 -2.0108 -1.2125  0.0067
  700MOL0     H96568  11.587   9.409   7.894 -0.3618  0.0574  0.3065
  700MOL0     H96569  11.524   9.299   7.769  0.5780  1.6976 -0.7795
  700MOL0     H96570  11.712   9.133   7.838  3.7997 -0.1471  1.5569
  700MOL0     H96571  11.756   9.257   7.956 -1.9569  0.0661  1.1313
  700MOL0     H96572  11.735   9.342   7.668 -0.8055  0.3165  0.7870
  700MOL0     H96573  11.822   9.410   7.812 -0.4270  0.7216 -0.1027
  700MOL0     H96574  11.960   9.182   7.792  1.7488  2.6375  0.0620
  700MOL0     H96575  11.985   9.309   7.669  0.6063 -0.3968 -0.6332
  700MOL0     H96576  11.844   9.205   7.509  0.3301  1.8079  0.7520
  700MOL0     H96577  11.806   9.070   7.616  1.2732 -0.1098  1.8990
  700MOL0     H96578  11.976   8.976   7.491  0.3421 -1.0340  0.0030
  700MOL0     H96579  12.077   9.036   7.622  0.1288  1.6834  0.5651
  700MOL0     H96580  11.064   9.233   7.871 -1.6019 -1.4393 -0.0922
  700MOL0     H96581  10.828   9.213   7.915 -1.5927 -3.7170 -0.1001
  700MOL0     H96582  10.557   8.985   7.997  1.1391  1.8058  0.2591
  700MOL0     H96583  10.357   8.889   7.934  0.0332  0.7403 -1.8869
  700MOL0     H96584   8.362   9.164   8.410 -0.3762 -0.2216  0.3430
  700MOL0     H96585   8.164   9.126   8.532  1.8918 -1.0858 -0.6823
  700MOL0     H96586   7.683   9.161   8.500  1.8329  1.7733 -0.8648
  700MOL0     H96587   7.443   9.198   8.591 -2.0204 -0.2989  3.7867
  700MOL0     H96588   7.242   9.396   8.878 -1.9164 -1.2778 -1.5010
  700MOL0     H96589   7.388   9.464   8.789 -0.4791 -0.7064 -1.6454
  700MOL0     H96590   7.292   9.348   8.587  1.5713  0.4148  1.0143
  700MOL0     H96591   7.176   9.463   8.665 -2.2327 -0.8090  5.0032
  700MOL0     H96592   7.178   9.148   8.714  0.3512  0.1930  2.3843
  700MOL0     H96593   7.061   9.269   8.781 -2.9842 -0.6753 -1.6820
  700MOL0     H96594   7.129   9.154   8.501  3.3288 -0.7574  3.2809
  700MOL0     H96595   7.024   9.304   8.523 -0.9788  1.2455  2.2369
  700MOL0     H96596   6.791   8.977   8.655  0.1527 -0.0835 -1.8615
  700MOL0     H96597   7.579   9.323   8.955 -2.7899  0.5749 -0.6831
  700MOL0     H96598   7.927   9.389   8.871 -0.2487  1.1642  1.6711
  700MOL0     H96599   7.798   9.381   8.996 -0.2644  0.0653  0.0815
  700MOL0     H96600   7.892   9.235   8.956 -0.1829 -1.2894 -1.7161
  701MOL0     O96601   2.903  10.732   9.118 -0.1984 -0.5255  0.0192
  701MOL0     C96602   2.833  10.670   9.032  0.1514  0.1209 -0.8301
  701MOL0     O96603   2.885  10.586   8.940  0.5376  0.3104 -0.4440
  701MOL0     C96604   3.020  10.572   8.922 -0.3051  1.3013 -0.7143
  701MOL0     C96605   3.079  10.579   8.796  0.0617  0.5711 -0.4983
  701MOL0     C96606   3.218  10.552   8.778  0.8413  0.1138 -0.0139
  701MOL0     C96607   3.305  10.513   8.880 -0.0481  0.2675  0.8193
  701MOL0     O96608   3.436  10.511   8.862 -0.2551  0.4285  0.0316
  701MOL0     C96609   3.512  10.632   8.890  0.9285 -0.3481  0.2411
  701MOL0     C96610   3.664  10.619   8.867 -0.4907  0.5601  0.1303
  701MOL0     C96611   3.725  10.761   8.858 -0.2864  0.5305 -0.2165
  701MOL0     C96612   3.868  10.740   8.796 -0.6040 -0.3870  0.0272
  701MOL0     C96613   3.951  10.874   8.782 -0.3643 -0.3604  0.0313
  701MOL0     C96614   4.052  10.871   8.664 -0.3528 -0.4225  0.1025
  701MOL0     C96615   4.141  10.999   8.675  0.3103 -0.3294 -0.5375
  701MOL0     C96616   4.246  10.999   8.792 -0.2658  0.2482 -0.5551
  701MOL0     N96617   4.256  11.128   8.856  0.4621 -0.1669 -0.2254
  701MOL0     C96618   4.377  11.197   8.874 -0.6476 -0.9478  0.1020
  701MOL0     C96619   4.349  11.273   8.980 -0.5991 -0.4060  0.0408
  701MOL0     C96620   4.452  11.370   9.029 -0.9080  0.3095 -0.4108
  701MOL0     C96621   4.407  11.514   9.022 -0.0383 -0.0759 -0.8164
  701MOL0     C96622   4.460  11.598   9.132 -0.6393  0.5511 -0.1514
  701MOL0     C96623   4.610  11.595   9.139 -0.3935  0.4506  0.5921
  701MOL0     O96624   4.646  11.679   9.251  0.0218  0.4065 -0.4017
  701MOL0     C96625   4.762  11.748   9.226  0.4800  0.4522  0.3034
  701MOL0     C96626   4.781  11.837   9.118  0.0437  0.6524 -1.8696
  701MOL0     C96627   4.903  11.915   9.107 -0.6332 -0.7413  0.0630
  701MOL0     C96628   4.900  12.024   9.002 -0.4414 -1.1374  0.2746
  701MOL0     C96629   5.005  11.890   9.203 -0.3084  0.1053  0.5678
  701MOL0     C96630   5.139  11.957   9.198 -0.4768 -0.4372  1.2453
  701MOL0     O96631   5.225  11.906   9.289 -0.2522 -0.3489 -0.3455
  701MOL0     C96632   5.357  11.957   9.297  0.5941  0.6761 -0.4013
  701MOL0     C96633   5.453  11.941   9.195 -0.3776  0.1931 -0.4577
  701MOL0     C96634   5.586  11.976   9.210  0.1132 -0.1648  0.6960
  701MOL0     C96635   5.626  12.021   9.340 -0.2093 -0.5303 -0.6605
  701MOL0     O96636   5.757  12.026   9.363 -0.6168 -0.5361 -0.2777
  701MOL0     C96637   5.804  12.066   9.493  0.0786  0.2484 -0.2784
  701MOL0     C96638   5.947  12.102   9.490  0.1493  0.4280 -0.2162
  701MOL0     C96639   5.985  12.172   9.624  0.3578 -0.1006 -0.1775
  701MOL0     C96640   6.136  12.197   9.623  0.5779 -0.3969  0.4065
  701MOL0     C96641   6.155  12.280   9.749  0.4319  0.3703  0.9140
  701MOL0     C96642   6.306  12.286   9.788 -0.1707 -0.3449  0.3237
  701MOL0     C96643   6.311  12.387   9.897  0.6003  0.2787  0.4125
  701MOL0     C96644   6.459  12.421   9.929  0.9659  0.8954 -1.1170
  701MOL0    Cl96645   6.553  12.479   9.798  0.1242 -0.3984  0.4589
  701MOL0     C96646   5.534  12.036   9.444 -0.6699  0.5836 -0.8061
  701MOL0     C96647   5.399  12.010   9.420  1.2608 -0.1058  0.3212
  701MOL0     O96648   5.169  12.043   9.116  0.5461 -0.3721 -0.8674
  701MOL0     C96649   4.986  11.793   9.303 -0.5817 -0.0983 -0.0128
  701MOL0     C96650   4.867  11.717   9.312  0.8808  0.5736  0.1846
  701MOL0     N96651   4.221  11.260   9.021  0.4151 -0.4598  0.5431
  701MOL0     N96652   4.168  11.160   8.957 -0.0686  0.6275 -0.4522
  701MOL0     C96653   3.240  10.495   9.000  0.2734  0.4317  0.1234
  701MOL0     C96654   3.105  10.522   9.024  0.0062  0.2669  0.5583
  701MOL0     C96655   2.688  10.681   9.035 -0.3172 -0.0238  0.2297
  701MOL0     C96656   2.609  10.644   8.929  0.1936  0.0569 -0.5717
  701MOL0     C96657   2.473  10.681   8.913 -0.6238  0.3073 -0.0488
  701MOL0     C96658   2.402  10.732   9.016 -0.2608 -0.8890 -1.1435
  701MOL0     O96659   2.265  10.737   9.021  0.2441  0.2116  0.0916
  701MOL0     C96660   2.183  10.697   8.912 -0.5596  0.2788  0.5880
  701MOL0     C96661   2.029  10.693   8.963 -0.5073  0.6670  0.2695
  701MOL0     C96662   1.985  10.842   8.973  0.7129  0.1279 -0.7556
  701MOL0     C96663   1.853  10.865   9.067  0.5821 -1.5477  0.7788
  701MOL0     C96664   1.750  10.768   9.022  0.3027  0.6802 -0.8427
  701MOL0     C96665   1.673  10.684   9.015 -0.2768 -0.0631  0.3458
  701MOL0     C96666   2.476  10.764   9.126 -1.0801 -0.2559 -0.4875
  701MOL0     C96667   2.616  10.747   9.137  0.4548 -0.4562 -0.3866
  701MOL0     C96668   2.670  10.809   9.265 -0.5670  0.2254 -0.3744
  701MOL0     H96669   3.024  10.620   8.712 -0.4746 -1.4779 -1.2169
  701MOL0     H96670   3.259  10.566   8.679  1.0051  2.1018  0.2955
  701MOL0     H96671   3.497  10.669   8.992  0.1153 -3.0203  1.1763
  701MOL0     H96672   3.469  10.707   8.823  1.0293 -0.1645  0.3823
  701MOL0     H96673   3.714  10.581   8.956  1.0910  1.5952 -0.2885
  701MOL0     H96674   3.682  10.565   8.773 -1.0340  4.3391 -2.3756
  701MOL0     H96675   3.664  10.816   8.785 -2.0021 -2.1292 -0.8870
  701MOL0     H96676   3.740  10.804   8.957 -0.7047 -1.1925  0.6235
  701MOL0     H96677   3.918  10.664   8.857 -1.6785 -0.1055  1.3054
  701MOL0     H96678   3.848  10.689   8.701  1.4784 -0.5271 -0.3828
  701MOL0     H96679   3.990  10.904   8.879  2.2329  1.2588 -1.4208
  701MOL0     H96680   3.879  10.947   8.742 -2.3730 -2.9782 -1.5113
  701MOL0     H96681   4.118  10.785   8.678  2.2738  1.6533  1.3622
  701MOL0     H96682   3.997  10.873   8.570 -0.3218  2.1624  0.0801
  701MOL0     H96683   4.071  11.082   8.691 -0.7229 -1.7192  3.2595
  701MOL0     H96684   4.190  11.024   8.580  3.8535 -1.3452  0.8547
  701MOL0     H96685   4.226  10.927   8.872  2.8898  0.8275  0.9358
  701MOL0     H96686   4.339  10.957   8.752  0.0834  0.4472  0.0270
  701MOL0     H96687   4.476  11.192   8.829 -0.9379  1.6464 -1.0290
  701MOL0     H96688   4.546  11.356   8.976 -1.5727 -0.7842 -1.3393
  701MOL0     H96689   4.458  11.353   9.137 -2.6907  3.2259  0.2601
  701MOL0     H96690   4.423  11.554   8.922 -0.2968  2.5298  0.1061
  701MOL0     H96691   4.298  11.518   9.026 -0.0636 -0.4679  2.5614
  701MOL0     H96692   4.420  11.698   9.113 -1.4846  0.5263  1.3398
  701MOL0     H96693   4.422  11.557   9.225  2.5621 -3.0125 -0.1617
  701MOL0     H96694   4.632  11.495   9.177  0.1736  0.3975  0.1402
  701MOL0     H96695   4.663  11.620   9.047 -1.2530  0.7370  0.1570
  701MOL0     H96696   4.698  11.855   9.050  2.0545  3.5125 -3.8501
  701MOL0     H96697   4.971  12.010   8.920 -0.2835  0.2981  0.1366
  701MOL0     H96698   4.943  12.118   9.039  1.6178 -1.8121 -0.2570
  701MOL0     H96699   4.801  12.036   8.957  0.3701 -1.8949 -1.8411
  701MOL0     H96700   5.433  11.896   9.098 -0.3979 -1.5764  0.3245
  701MOL0     H96701   5.657  11.953   9.132  0.5623  3.1809 -0.0606
  701MOL0     H96702   5.749  12.151   9.533 -0.0047 -0.3468  0.8975
  701MOL0     H96703   5.797  11.983   9.564 -2.5529 -0.1830 -0.9659
  701MOL0     H96704   6.001  12.007   9.486 -2.1867 -1.0513  0.9150
  701MOL0     H96705   5.968  12.167   9.405  1.4988  1.4562  0.8693
  701MOL0     H96706   5.956  12.112   9.711  1.0411 -1.8114 -1.0809
  701MOL0     H96707   5.927  12.264   9.627  1.3930  0.5793 -0.5404
  701MOL0     H96708   6.161  12.252   9.532  1.2238 -0.8362  0.3125
  701MOL0     H96709   6.187  12.101   9.610  0.2309 -0.2958 -2.4964
  701MOL0     H96710   6.111  12.379   9.734  2.0411  1.3745  2.3842
  701MOL0     H96711   6.104  12.224   9.828  0.1364 -2.7161 -1.2539
  701MOL0     H96712   6.365  12.319   9.703  0.7924 -1.3475  0.5848
  701MOL0     H96713   6.350  12.193   9.827 -0.2193 -1.2451 -1.6597
  701MOL0     H96714   6.245  12.365   9.981 -0.1884  0.7549 -0.0702
  701MOL0     H96715   6.280  12.484   9.857 -1.0171 -0.6484 -0.7309
  701MOL0     H96716   6.503  12.330   9.971  3.9832  3.0023  0.7070
  701MOL0     H96717   6.465  12.487  10.016 -0.3372 -1.0409  0.5356
  701MOL0     H96718   5.566  12.067   9.543  0.2361 -2.2806 -0.1280
  701MOL0     H96719   5.336  12.016   9.508  0.7751  1.0842 -0.0960
  701MOL0     H96720   5.062  11.766   9.376 -1.0424 -1.1630  0.0964
  701MOL0     H96721   4.858  11.644   9.392 -0.2910  0.7456  0.2291
  701MOL0     H96722   3.293  10.469   9.090 -0.2936  0.1450  0.3780
  701MOL0     H96723   3.064  10.501   9.122 -2.2105  0.2117 -0.3166
  701MOL0     H96724   2.647  10.603   8.836  1.0341  3.9352 -2.1293
  701MOL0     H96725   2.429  10.656   8.817  0.8356 -2.4319 -0.0965
  701MOL0     H96726   2.190  10.765   8.826  0.0736 -1.9138 -1.2000
  701MOL0     H96727   2.217  10.596   8.886 -0.4374  0.8346 -1.5841
  701MOL0     H96728   2.019  10.640   9.058 -0.8034 -2.2607 -1.2562
  701MOL0     H96729   1.971  10.634   8.891  1.1830 -0.8980  0.1159
  701MOL0     H96730   2.061  10.898   9.029  0.2206 -0.5511  0.6472
  701MOL0     H96731   1.975  10.871   8.868 -1.0075 -3.0544 -1.6007
  701MOL0     H96732   1.812  10.966   9.059 -1.0183 -2.2647 -1.1468
  701MOL0     H96733   1.872  10.844   9.173  1.8365 -0.3543  0.8155
  701MOL0     H96734   1.600  10.606   9.018  0.7973 -1.0595  1.5267
  701MOL0     H96735   2.417  10.801   9.209 -0.9297 -1.0706 -0.0128
  701MOL0     H96736   2.738  10.893   9.257  0.2973 -0.3096  1.0289
  701MOL0     H96737   2.586  10.852   9.322  1.5144  1.4583  1.9786
  701MOL0     H96738   2.726  10.737   9.326 -0.5556  1.9859  1.8119
  702MOL0     O96739   2.097   8.821   2.578 -0.5872 -0.1479  0.0166
  702MOL0     C96740   2.089   8.724   2.653 -0.5000 -0.4695  0.4786
  702MOL0     O96741   2.199   8.652   2.704 -0.1125 -0.9683 -0.0631
  702MOL0     C96742   2.321   8.710   2.690  0.2106  0.2447 -0.9059
  702MOL0     C96743   2.355   8.831   2.754  0.0965  0.2873 -0.6133
  702MOL0     C96744   2.482   8.886   2.733  0.1952  0.0988 -0.6323
  702MOL0     C96745   2.584   8.811   2.664  0.9814  1.3461 -1.2026
  702MOL0     O96746   2.721   8.834   2.677  0.2422 -0.1464  0.5826
  702MOL0     C96747   2.765   8.970   2.707 -0.4028  0.0551 -0.4423
  702MOL0     C96748   2.916   8.979   2.741 -0.0511  0.4418 -0.7437
  702MOL0     C96749   3.000   8.920   2.632 -0.3465 -0.3653  0.8646
  702MOL0     C96750   3.157   8.936   2.648  0.5801 -0.8640 -0.2341
  702MOL0     C96751   3.236   8.880   2.527 -0.5382 -0.4275 -0.3154
  702MOL0     C96752   3.394   8.919   2.535 -0.6580  0.3119 -0.2358
  702MOL0     C96753   3.464   8.873   2.677  0.0732  0.4526 -0.1868
  702MOL0     C96754   3.619   8.854   2.666  0.8009  0.3601 -0.1225
  702MOL0     N96755   3.689   8.816   2.790 -0.5862 -0.4384 -0.5207
  702MOL0     C96756   3.659   8.872   2.913 -1.0611 -0.1215  0.2836
  702MOL0     C96757   3.742   8.803   3.004 -0.0947 -0.3260  1.0895
  702MOL0     C96758   3.743   8.814   3.153  1.1397  1.0526 -0.2990
  702MOL0     C96759   3.604   8.859   3.214  0.5106 -0.4982  0.1250
  702MOL0     C96760   3.522   8.748   3.280  0.6935 -0.0301 -0.3939
  702MOL0     C96761   3.395   8.796   3.351  0.1908  1.4369 -0.3383
  702MOL0     O96762   3.339   8.681   3.422 -0.3147 -0.0042  0.5856
  702MOL0     C96763   3.219   8.693   3.480 -0.3110 -0.1395  0.4462
  702MOL0     C96764   3.139   8.585   3.514  0.3954  0.5763 -0.4148
  702MOL0     C96765   3.020   8.590   3.591 -1.3864  0.7175  0.0573
  702MOL0     C96766   2.948   8.452   3.618 -0.8618  0.2498 -0.3930
  702MOL0     C96767   2.975   8.710   3.631  0.3839 -0.2947  0.2253
  702MOL0     C96768   2.854   8.732   3.714 -0.4619  0.0820  0.6863
  702MOL0     O96769   2.806   8.621   3.790 -0.1966 -0.0285  0.4231
  702MOL0     C96770   2.708   8.655   3.880 -0.0881 -0.0845 -0.7084
  702MOL0     C96771   2.742   8.721   3.995  0.8219 -0.6278  0.4276
  702MOL0     C96772   2.644   8.760   4.086  0.8747 -0.2976 -0.4437
  702MOL0     C96773   2.509   8.728   4.066 -0.2700  0.6165 -0.3558
  702MOL0     O96774   2.403   8.766   4.148 -0.0032 -0.1959  0.0719
  702MOL0     C96775   2.423   8.843   4.262  0.0494 -0.0051 -0.1482
  702MOL0     C96776   2.309   8.797   4.349  0.5115  0.6172  0.0679
  702MOL0     C96777   2.181   8.869   4.295  0.1624 -0.7180  0.1254
  702MOL0     C96778   2.050   8.826   4.371 -0.9256  0.5263  0.4209
  702MOL0     C96779   1.926   8.897   4.337  0.4938 -0.0779  0.0515
  702MOL0     C96780   1.865   8.979   4.444  0.6128 -0.1409 -0.0368
  702MOL0     C96781   1.959   9.092   4.487 -0.7259  0.4511  0.8578
  702MOL0     C96782   1.895   9.176   4.589  0.4032  0.2935  0.0817
  702MOL0    Cl96783   1.890   9.081   4.748 -0.0358 -0.0546 -0.2882
  702MOL0     C96784   2.476   8.659   3.953 -0.0380  0.1709  0.2090
  702MOL0     C96785   2.576   8.620   3.862  0.4620 -0.9357  0.4005
  702MOL0     O96786   2.806   8.845   3.707 -0.0102 -0.4203  0.4482
  702MOL0     C96787   3.059   8.822   3.597 -0.4400 -0.4918  0.3127
  702MOL0     C96788   3.177   8.816   3.522  0.2216  0.1844  0.0857
  702MOL0     N96789   3.817   8.711   2.943  0.3826  0.9334  0.0769
  702MOL0     N96790   3.778   8.716   2.819 -0.5884 -0.5345 -0.0598
  702MOL0     C96791   2.545   8.690   2.600  0.3476 -0.4509 -0.0795
  702MOL0     C96792   2.414   8.646   2.607  0.7644  0.0180 -0.1727
  702MOL0     C96793   1.957   8.667   2.682  0.1729 -0.2145 -0.4546
  702MOL0     C96794   1.961   8.539   2.732  0.5106  0.0246 -0.0414
  702MOL0     C96795   1.844   8.470   2.772 -0.2441  0.7870 -0.9608
  702MOL0     C96796   1.726   8.534   2.787 -0.2368 -0.1667  0.0400
  702MOL0     O96797   1.610   8.474   2.833  0.6579 -0.4302 -0.0315
  702MOL0     C96798   1.630   8.359   2.913 -0.0851  0.7055 -0.5424
  702MOL0     C96799   1.495   8.336   2.981  0.2921 -0.2566  0.3141
  702MOL0     C96800   1.418   8.460   3.041 -0.1644  0.3672  0.6361
  702MOL0     C96801   1.512   8.533   3.140  0.2080 -0.0003 -0.8336
  702MOL0     C96802   1.441   8.637   3.221 -0.5002 -0.3834  0.1820
  702MOL0     C96803   1.393   8.723   3.292  0.5171 -0.0895  0.4345
  702MOL0     C96804   1.716   8.665   2.729 -0.5129  0.5415  1.0414
  702MOL0     C96805   1.832   8.736   2.679  0.2733 -0.3670  0.1918
  702MOL0     C96806   1.804   8.877   2.659 -0.1472  0.3781 -0.0497
  702MOL0     H96807   2.282   8.882   2.816  0.7210  0.8656 -0.3361
  702MOL0     H96808   2.506   8.973   2.792  1.4924  0.1445 -1.1867
  702MOL0     H96809   2.708   9.021   2.786  3.2716  1.3614  1.6727
  702MOL0     H96810   2.743   9.018   2.611 -0.3981 -0.5680 -0.7540
  702MOL0     H96811   2.927   9.087   2.754 -1.6419  0.3350  2.5356
  702MOL0     H96812   2.939   8.944   2.842  0.7602  2.0716 -0.3465
  702MOL0     H96813   2.981   8.813   2.640  1.2350 -0.7215  0.3003
  702MOL0     H96814   2.967   8.961   2.536  1.2351  2.0380  1.2389
  702MOL0     H96815   3.178   9.043   2.659  2.0284 -1.3285  2.1801
  702MOL0     H96816   3.192   8.893   2.742  0.7069  1.4502  0.8341
  702MOL0     H96817   3.200   8.911   2.429 -0.6644 -0.6414 -0.3364
  702MOL0     H96818   3.237   8.771   2.527  0.3957 -0.4386  0.4600
  702MOL0     H96819   3.443   8.876   2.447  2.3350  1.8437  0.5285
  702MOL0     H96820   3.404   9.028   2.537  1.2013  0.1662  0.3521
  702MOL0     H96821   3.417   8.782   2.714 -2.0412  1.6265  0.1659
  702MOL0     H96822   3.442   8.953   2.748 -0.2079  0.3651 -0.1725
  702MOL0     H96823   3.638   8.782   2.586 -3.2550 -0.0891 -0.8780
  702MOL0     H96824   3.665   8.945   2.627  0.4720  1.9015  2.7867
  702MOL0     H96825   3.590   8.949   2.945 -0.9379 -0.6864  2.0084
  702MOL0     H96826   3.817   8.893   3.172  1.5920  0.4694  0.4235
  702MOL0     H96827   3.768   8.716   3.193 -2.2263  1.1027  2.3360
  702MOL0     H96828   3.639   8.924   3.294  0.2344 -1.3350  0.9332
  702MOL0     H96829   3.539   8.916   3.147 -0.1095 -2.2555 -0.8461
  702MOL0     H96830   3.482   8.673   3.212  1.2684  1.0095 -1.9589
  702MOL0     H96831   3.578   8.679   3.343  0.6166 -0.1294 -0.4350
  702MOL0     H96832   3.416   8.873   3.426 -2.6639 -0.2630  2.4314
  702MOL0     H96833   3.320   8.830   3.278 -1.5491 -1.1678  0.0870
  702MOL0     H96834   3.161   8.488   3.472 -0.4398  1.0857 -2.1076
  702MOL0     H96835   2.852   8.446   3.565 -0.8555  0.1923 -0.3982
  702MOL0     H96836   2.940   8.432   3.725 -1.1172  2.1197 -0.0363
  702MOL0     H96837   3.014   8.368   3.593  0.2234 -0.5916  4.2824
  702MOL0     H96838   2.847   8.746   4.008  0.8702 -0.6944  0.1656
  702MOL0     H96839   2.664   8.812   4.180  2.7363 -0.8362 -0.5066
  702MOL0     H96840   2.516   8.836   4.318 -1.3336  2.3398  2.6875
  702MOL0     H96841   2.426   8.951   4.242  2.4489  0.0903  0.4373
  702MOL0     H96842   2.299   8.688   4.353 -3.8143  0.8574  0.7552
  702MOL0     H96843   2.317   8.830   4.453 -1.4851  0.7434  0.2289
  702MOL0     H96844   2.166   8.840   4.191  1.9184  0.4096 -0.4945
  702MOL0     H96845   2.182   8.978   4.305 -2.0637 -0.7641  1.3555
  702MOL0     H96846   2.064   8.829   4.480 -0.8301 -2.3566  0.5651
  702MOL0     H96847   2.039   8.719   4.349 -0.8863  0.6954 -0.4667
  702MOL0     H96848   1.929   8.939   4.236  0.1271 -0.0290  0.0583
  702MOL0     H96849   1.850   8.819   4.335 -0.3989  0.7667  0.2775
  702MOL0     H96850   1.826   8.925   4.532 -0.5428  2.8982  1.4402
  702MOL0     H96851   1.771   9.022   4.408 -0.8886  0.1611  3.7772
  702MOL0     H96852   1.980   9.151   4.397 -1.2491  2.4486  2.0076
  702MOL0     H96853   2.053   9.054   4.528 -0.5430  1.7498  1.6836
  702MOL0     H96854   1.794   9.199   4.554  0.0792  0.9267  1.3554
  702MOL0     H96855   1.942   9.274   4.600  0.1434  0.5633 -1.0813
  702MOL0     H96856   2.372   8.643   3.925 -0.1544  2.2847 -0.7690
  702MOL0     H96857   2.546   8.567   3.772 -1.3796  0.3342  0.2154
  702MOL0     H96858   3.041   8.922   3.636 -0.4956  0.5478 -2.1872
  702MOL0     H96859   3.224   8.913   3.511 -0.7968  0.8062  1.0984
  702MOL0     H96860   2.613   8.634   2.538 -1.3134 -2.1742 -0.4237
  702MOL0     H96861   2.395   8.554   2.553  1.0339  0.1372 -0.4779
  702MOL0     H96862   2.054   8.484   2.725  1.0475  0.7583  0.9784
  702MOL0     H96863   1.846   8.364   2.792 -3.8811  0.3532 -2.1226
  702MOL0     H96864   1.662   8.268   2.861 -0.7720  0.9771 -1.4619
  702MOL0     H96865   1.696   8.386   2.996 -1.9784 -0.6474  1.5151
  702MOL0     H96866   1.505   8.261   3.060  1.6959  0.9482  1.3231
  702MOL0     H96867   1.424   8.298   2.907 -0.7858  1.3237  0.4938
  702MOL0     H96868   1.380   8.521   2.958 -0.8435 -1.7071 -0.6378
  702MOL0     H96869   1.342   8.413   3.105  2.5845 -1.1755  3.0374
  702MOL0     H96870   1.585   8.589   3.081  0.3918  1.1658  0.4336
  702MOL0     H96871   1.559   8.464   3.211  1.3317  0.2414 -1.3318
  702MOL0     H96872   1.342   8.806   3.336  0.8047  0.9540 -1.1109
  702MOL0     H96873   1.615   8.703   2.739 -1.1683 -0.1266 -1.9901
  702MOL0     H96874   1.857   8.927   2.741  0.5586 -1.4536  0.6666
  702MOL0     H96875   1.835   8.911   2.560  0.0950  0.8116  0.1668
  702MOL0     H96876   1.700   8.904   2.674 -0.0081  0.6628  0.4458
  703MOL0     O96877   6.520   3.450   3.373 -0.6692  0.1636  0.2352
  703MOL0     C96878   6.593   3.387   3.292 -0.0231 -0.2263 -0.5651
  703MOL0     O96879   6.726   3.378   3.294  0.1683  0.1516 -0.4109
  703MOL0     C96880   6.806   3.439   3.386  0.4805 -0.1641  0.4960
  703MOL0     C96881   6.941   3.393   3.364  0.6115  0.6202  0.5404
  703MOL0     C96882   7.042   3.432   3.456  0.6271 -0.2855 -0.4384
  703MOL0     C96883   7.012   3.518   3.566  0.1039 -0.7138  0.6561
  703MOL0     O96884   7.098   3.580   3.649 -0.0038 -0.4466 -0.0417
  703MOL0     C96885   7.240   3.549   3.633  0.2133 -0.0492  0.2213
  703MOL0     C96886   7.335   3.634   3.719  0.4879 -0.4324  0.5467
  703MOL0     C96887   7.472   3.576   3.726 -0.9405 -0.0883 -0.9092
  703MOL0     C96888   7.573   3.693   3.729  0.3466  0.0415  0.3255
  703MOL0     C96889   7.727   3.655   3.758  0.1914  0.7085 -0.4125
  703MOL0     C96890   7.730   3.611   3.905 -0.1001 -0.2326 -0.3483
  703MOL0     C96891   7.863   3.574   3.965  0.3696 -0.2754  0.2868
  703MOL0     C96892   7.862   3.517   4.110 -0.4080 -0.2547 -0.2952
  703MOL0     N96893   7.997   3.472   4.146 -0.6061  0.0355 -0.8077
  703MOL0     C96894   8.111   3.548   4.146  0.9295  0.1058 -0.6596
  703MOL0     C96895   8.210   3.456   4.165  0.0135  0.4621  0.3917
  703MOL0     C96896   8.355   3.501   4.170  0.4403 -1.2326  0.5912
  703MOL0     C96897   8.409   3.529   4.307  1.0736  0.6571  0.4160
  703MOL0     C96898   8.348   3.652   4.364  0.8442 -0.1075  0.6257
  703MOL0     C96899   8.420   3.674   4.492  0.1358 -0.2807  0.0785
  703MOL0     O96900   8.542   3.757   4.465  0.1928  0.3613 -0.0319
  703MOL0     C96901   8.659   3.732   4.533  0.0617  0.2276 -0.3219
  703MOL0     C96902   8.710   3.609   4.578  0.5388  0.3660 -0.3027
  703MOL0     C96903   8.834   3.594   4.655  0.3423  0.2214  0.0242
  703MOL0     C96904   8.853   3.459   4.727 -0.7770 -0.2803  0.1954
  703MOL0     C96905   8.910   3.712   4.664  0.4072 -0.0193 -0.8511
  703MOL0     C96906   9.042   3.713   4.738  0.3554 -0.0903 -0.3450
  703MOL0     O96907   9.061   3.627   4.829  0.3062 -0.0328 -0.3837
  703MOL0     C96908   9.185   3.583   4.865  0.2135 -0.9915 -0.3492
  703MOL0     C96909   9.288   3.679   4.883 -0.5015  0.0757 -0.2782
  703MOL0     C96910   9.419   3.637   4.912  0.9880 -0.5980  0.4406
  703MOL0     C96911   9.439   3.506   4.963  0.0025  0.6710  0.9326
  703MOL0     O96912   9.560   3.452   5.010 -0.3052 -0.5588 -0.0294
  703MOL0     C96913   9.648   3.540   5.087 -0.2945 -0.3986  0.2928
  703MOL0     C96914   9.781   3.461   5.109 -0.8951  0.0058 -0.4071
  703MOL0     C96915   9.861   3.435   4.977 -0.5494 -0.6801  0.1690
  703MOL0     C96916  10.007   3.407   5.016  0.2383 -0.5934  0.3058
  703MOL0     C96917  10.026   3.258   5.039  0.1258 -0.1500  0.3125
  703MOL0     C96918  10.176   3.220   5.047  0.0778 -0.0692 -0.1194
  703MOL0     C96919  10.229   3.250   5.179 -0.1109 -0.1339  0.1371
  703MOL0     C96920  10.347   3.147   5.223  0.2176  0.4487 -0.1664
  703MOL0    Cl96921  10.424   3.232   5.359 -0.2820  0.0236 -0.1739
  703MOL0     C96922   9.334   3.411   4.943 -0.5755  0.2575  0.2074
  703MOL0     C96923   9.215   3.452   4.896 -0.4844  0.1234 -0.3331
  703MOL0     O96924   9.131   3.781   4.681  0.2515 -0.3370  0.1984
  703MOL0     C96925   8.854   3.829   4.606 -0.1800 -0.0288 -1.1936
  703MOL0     C96926   8.739   3.847   4.541  0.8857  0.9902  1.0530
  703MOL0     N96927   8.152   3.329   4.174 -0.6117 -0.5895 -0.0953
  703MOL0     N96928   8.025   3.337   4.149  0.2274 -0.2490 -0.1491
  703MOL0     C96929   6.884   3.567   3.578 -0.5912  0.2991 -0.3668
  703MOL0     C96930   6.776   3.523   3.493 -0.2540  0.4621 -0.5227
  703MOL0     C96931   6.531   3.319   3.177  0.6554 -1.0109 -0.7415
  703MOL0     C96932   6.616   3.264   3.081 -0.3421  0.6893  0.2170
  703MOL0     C96933   6.568   3.189   2.976  1.1940 -0.1946 -0.2245
  703MOL0     C96934   6.433   3.162   2.957 -0.1319  0.0272  0.0069
  703MOL0     O96935   6.384   3.067   2.872  0.2242 -0.1272 -0.1525
  703MOL0     C96936   6.384   2.925   2.908  0.0099 -0.4118 -1.2858
  703MOL0     C96937   6.261   2.885   2.991 -0.0891 -0.6296  0.0030
  703MOL0     C96938   6.134   2.905   2.910  0.1491 -0.1786  0.5878
  703MOL0     C96939   6.015   2.809   2.940  0.1194 -0.3183 -0.4994
  703MOL0     C96940   5.956   2.813   3.075 -0.0163  0.3186 -0.8369
  703MOL0     C96941   5.903   2.813   3.191 -0.8411  0.2020  0.0577
  703MOL0     C96942   6.348   3.235   3.044  0.6373  0.7326  0.6614
  703MOL0     C96943   6.394   3.310   3.150  0.4000  0.1364  0.0708
  703MOL0     C96944   6.291   3.385   3.231  0.3311  0.1105 -0.3698
  703MOL0     H96945   6.949   3.315   3.290 -0.6783 -1.1312  2.1299
  703MOL0     H96946   7.143   3.391   3.453  0.4265 -0.8351  0.1154
  703MOL0     H96947   7.263   3.554   3.526  1.1845 -0.4414  0.3989
  703MOL0     H96948   7.247   3.443   3.658 -3.3911 -0.2521  0.9158
  703MOL0     H96949   7.340   3.732   3.671  1.6335 -2.1207 -3.0919
  703MOL0     H96950   7.294   3.649   3.820  1.3952  3.0627  0.5395
  703MOL0     H96951   7.479   3.499   3.803  0.7039 -1.7953 -2.6468
  703MOL0     H96952   7.499   3.519   3.636  1.2600 -0.5502 -0.0384
  703MOL0     H96953   7.572   3.737   3.629 -1.3156 -1.9164 -0.5903
  703MOL0     H96954   7.540   3.772   3.797 -0.4216  0.2089 -0.2282
  703MOL0     H96955   7.799   3.734   3.737 -0.2259  0.7105 -1.9343
  703MOL0     H96956   7.761   3.572   3.694  2.6313  0.5075  1.0164
  703MOL0     H96957   7.681   3.695   3.956 -1.3117 -0.6020 -0.8591
  703MOL0     H96958   7.665   3.524   3.914 -1.1483  0.5647 -0.0599
  703MOL0     H96959   7.929   3.661   3.971  2.8912 -2.1423  1.6388
  703MOL0     H96960   7.900   3.498   3.896 -1.9158 -2.3533  1.1874
  703MOL0     H96961   7.820   3.596   4.173 -0.8040 -1.8900  1.5930
  703MOL0     H96962   7.799   3.428   4.115  0.0329 -0.5129  0.6839
  703MOL0     H96963   8.117   3.656   4.132 -2.2794  0.1923 -2.4532
  703MOL0     H96964   8.361   3.584   4.099 -0.1940 -1.2207  0.5414
  703MOL0     H96965   8.416   3.427   4.118  0.4784 -1.1059  0.4548
  703MOL0     H96966   8.374   3.443   4.364 -0.7709  0.8163 -0.3976
  703MOL0     H96967   8.518   3.523   4.306  1.0440 -0.6383 -2.1604
  703MOL0     H96968   8.371   3.736   4.298  0.6164  0.0467  0.7402
  703MOL0     H96969   8.240   3.639   4.379  0.1121  3.2584 -0.9794
  703MOL0     H96970   8.369   3.745   4.558  3.3531 -0.1893  2.7574
  703MOL0     H96971   8.438   3.583   4.552 -0.5438 -0.6052 -0.2022
  703MOL0     H96972   8.661   3.516   4.553 -0.3609  0.4407  1.0818
  703MOL0     H96973   8.841   3.479   4.834 -1.4278  0.8150 -0.0651
  703MOL0     H96974   8.956   3.431   4.705 -1.0911 -1.7589  0.4747
  703MOL0     H96975   8.779   3.387   4.690  0.1119 -0.5683 -1.0816
  703MOL0     H96976   9.281   3.786   4.867  3.4388  0.4478 -0.3230
  703MOL0     H96977   9.497   3.713   4.913 -1.1349  1.7458  0.5121
  703MOL0     H96978   9.659   3.639   5.042 -2.4860  0.2640  1.1135
  703MOL0     H96979   9.602   3.561   5.184 -2.4275  0.0398 -0.7613
  703MOL0     H96980   9.833   3.515   5.189  1.6690  2.9591 -3.7247
  703MOL0     H96981   9.757   3.363   5.151  1.3658 -0.6036 -0.3688
  703MOL0     H96982   9.866   3.527   4.918  1.0760 -0.3689  0.7512
  703MOL0     H96983   9.819   3.355   4.914 -1.9773 -1.1061  1.5922
  703MOL0     H96984  10.028   3.469   5.104 -3.3358  2.4631 -0.7085
  703MOL0     H96985  10.066   3.443   4.932 -1.7869 -1.0365 -1.3773
  703MOL0     H96986   9.967   3.219   5.122 -3.6980  0.6174 -1.8348
  703MOL0     H96987   9.978   3.208   4.954  1.5684  0.0092 -0.6497
  703MOL0     H96988  10.228   3.270   4.965 -0.6747  2.3967  0.8209
  703MOL0     H96989  10.192   3.113   5.031  0.0304  0.1274 -1.6437
  703MOL0     H96990  10.149   3.242   5.253  1.8266  0.2595  2.3839
  703MOL0     H96991  10.260   3.355   5.182 -3.2928  0.9823 -1.0989
  703MOL0     H96992  10.414   3.138   5.137 -0.6030 -0.7057 -0.7127
  703MOL0     H96993  10.314   3.047   5.250 -1.6872  1.1887  0.4153
  703MOL0     H96994   9.361   3.309   4.967  0.8498  1.0090  2.0339
  703MOL0     H96995   9.136   3.381   4.876 -0.6386 -0.0242  0.7478
  703MOL0     H96996   8.920   3.915   4.613 -0.5599  0.1297  1.8415
  703MOL0     H96997   8.707   3.940   4.497 -0.5579  0.4662  0.9493
  703MOL0     H96998   6.858   3.626   3.665 -0.9915 -0.4545  0.0333
  703MOL0     H96999   6.673   3.547   3.519 -0.6304 -0.8477 -0.7064
  703MOL0     H97000   6.722   3.271   3.101 -0.0389  0.0772 -1.0908
  703MOL0     H97001   6.636   3.133   2.912 -0.3440 -0.6596 -1.5170
  703MOL0     H97002   6.395   2.868   2.815 -0.3399 -0.0108 -1.5773
  703MOL0     H97003   6.477   2.911   2.963  0.5163 -1.6180 -2.3933
  703MOL0     H97004   6.258   2.939   3.086  0.7986  0.7311 -0.7114
  703MOL0     H97005   6.258   2.777   3.011 -1.0626 -1.1016 -2.4182
  703MOL0     H97006   6.090   3.003   2.931  0.5045 -0.0901  0.9410
  703MOL0     H97007   6.156   2.901   2.803  3.8488 -0.5379  1.2400
  703MOL0     H97008   6.036   2.706   2.911  1.1169 -0.2096 -0.2230
  703MOL0     H97009   5.930   2.836   2.877 -0.8492 -0.9827  0.4959
  703MOL0     H97010   5.855   2.814   3.287  1.0476  0.3650  1.0476
  703MOL0     H97011   6.240   3.227   3.033  0.9868 -0.4440 -4.3459
  703MOL0     H97012   6.304   3.492   3.248  2.1966 -0.2760  0.9392
  703MOL0     H97013   6.191   3.363   3.192  0.0538 -0.3634  0.5760
  703MOL0     H97014   6.292   3.334   3.327 -0.5628  0.9949  0.1319
  704MOL0     O97015   1.264   2.716   8.722  0.0324 -0.7189  0.5628
  704MOL0     C97016   1.249   2.687   8.837  0.6266  0.7512 -0.7758
  704MOL0     O97017   1.335   2.597   8.904  0.4282  0.2857  0.6259
  704MOL0     C97018   1.446   2.536   8.851  0.3112 -0.1355 -0.1208
  704MOL0     C97019   1.505   2.447   8.942 -0.9807 -0.3081 -0.5238
  704MOL0     C97020   1.629   2.385   8.918 -0.1517  0.8339  0.7424
  704MOL0     C97021   1.692   2.406   8.799  0.3296 -0.7085 -0.6306
  704MOL0     O97022   1.805   2.326   8.781 -0.2714 -0.1296 -0.2245
  704MOL0     C97023   1.900   2.352   8.676 -0.1943 -0.4851  0.5704
  704MOL0     C97024   2.013   2.265   8.683 -1.2083 -0.6040 -0.3530
  704MOL0     C97025   2.106   2.294   8.563  0.0687  0.5348  0.4534
  704MOL0     C97026   2.247   2.221   8.568  0.0246 -0.2290 -0.5361
  704MOL0     C97027   2.338   2.239   8.449 -0.0462  0.0754 -1.0206
  704MOL0     C97028   2.274   2.198   8.319 -0.2805 -1.0451  0.4566
  704MOL0     C97029   2.385   2.230   8.215 -0.3675  0.1492  0.3111
  704MOL0     C97030   2.343   2.196   8.068  0.1736 -0.4035  0.1828
  704MOL0     N97031   2.431   2.264   7.969 -0.3191  0.8388 -0.1576
  704MOL0     C97032   2.458   2.404   7.969 -0.0680 -0.3768 -1.0148
  704MOL0     C97033   2.572   2.415   7.893 -0.5674  0.0120  0.7090
  704MOL0     C97034   2.634   2.555   7.857  0.8891  1.1124 -0.3048
  704MOL0     C97035   2.775   2.543   7.809  0.0668  0.0813 -0.3834
  704MOL0     C97036   2.866   2.495   7.921 -0.3101 -0.0938 -0.4109
  704MOL0     C97037   2.874   2.591   8.044 -0.4578  0.3092 -0.8485
  704MOL0     O97038   2.980   2.543   8.133  0.1902  0.3757  0.0033
  704MOL0     C97039   3.110   2.561   8.091 -0.5430 -0.1346  0.7679
  704MOL0     C97040   3.148   2.654   7.989 -0.4952 -0.0898 -0.3084
  704MOL0     C97041   3.281   2.692   7.965  0.3440  0.0927  0.3040
  704MOL0     C97042   3.314   2.794   7.846 -0.1080  0.7461 -0.0849
  704MOL0     C97043   3.386   2.627   8.037  0.4589 -0.3154 -0.8060
  704MOL0     C97044   3.523   2.651   8.022 -0.3571 -0.4576  0.0632
  704MOL0     O97045   3.553   2.781   7.994 -0.6284 -0.3482 -0.4653
  704MOL0     C97046   3.685   2.784   7.960 -0.8008 -0.1386 -0.0525
  704MOL0     C97047   3.732   2.762   7.830 -0.4042 -0.6805  0.1932
  704MOL0     C97048   3.867   2.775   7.797 -0.3202  0.0947 -0.7477
  704MOL0     C97049   3.955   2.797   7.899  0.9064 -0.7004 -0.7677
  704MOL0     O97050   4.082   2.819   7.864 -0.5644 -0.0140  0.2369
  704MOL0     C97051   4.157   2.936   7.908  0.7255  0.9075  1.4712
  704MOL0     C97052   4.266   2.950   7.795 -0.1032  0.5122  0.3971
  704MOL0     C97053   4.365   3.059   7.826 -0.2658 -0.7241 -0.7153
  704MOL0     C97054   4.469   3.086   7.717  0.8412 -0.3298 -0.6526
  704MOL0     C97055   4.449   3.214   7.647  0.0706 -0.1523  0.4223
  704MOL0     C97056   4.345   3.213   7.539  1.0017 -1.2187 -0.5042
  704MOL0     C97057   4.351   3.341   7.450  0.4184  0.5333  0.2023
  704MOL0     C97058   4.465   3.358   7.358 -0.3537  0.2664 -0.0738
  704MOL0    Cl97059   4.600   3.435   7.449 -0.3021  0.3117 -0.3340
  704MOL0     C97060   3.909   2.811   8.031 -0.4500 -0.0344  0.2273
  704MOL0     C97061   3.779   2.803   8.063  0.3468 -0.2656 -0.1541
  704MOL0     O97062   3.597   2.554   8.021  0.4861  0.3108  0.3120
  704MOL0     C97063   3.346   2.534   8.132 -0.3604  0.6411  0.5547
  704MOL0     C97064   3.214   2.501   8.150  0.2079 -0.4262 -0.5226
  704MOL0     N97065   2.603   2.292   7.843 -0.3964  0.4292 -0.6834
  704MOL0     N97066   2.522   2.202   7.888  0.0534 -0.2978 -0.1505
  704MOL0     C97067   1.629   2.494   8.703  0.7741  0.1288  0.2927
  704MOL0     C97068   1.509   2.559   8.730 -0.2987 -0.4839  0.9388
  704MOL0     C97069   1.139   2.738   8.927 -0.4942 -0.1731 -0.3684
  704MOL0     C97070   1.119   2.677   9.059  0.7922 -0.0706 -0.7075
  704MOL0     C97071   1.004   2.722   9.137 -0.4176  0.2951  0.9104
  704MOL0     C97072   0.927   2.834   9.098  0.4074  0.0434  0.0591
  704MOL0     O97073   0.839   2.895   9.184  0.8197 -0.6033  0.4286
  704MOL0     C97074   0.784   2.835   9.301  0.3930 -1.2569  0.2572
  704MOL0     C97075   0.637   2.889   9.292 -1.2048 -0.8617 -0.3540
  704MOL0     C97076   0.545   2.867   9.410 -0.2726 -0.2893  0.2858
  704MOL0     C97077   0.476   2.728   9.419  0.5926  0.4823 -0.3157
  704MOL0     C97078   0.384   2.722   9.536 -0.5012 -0.2887 -0.1646
  704MOL0     C97079   0.300   2.705   9.624 -0.0909 -0.3734  0.0198
  704MOL0     C97080   0.970   2.894   8.984  0.6193  0.0948 -0.0318
  704MOL0     C97081   1.069   2.851   8.895 -0.1614  0.3711 -0.4384
  704MOL0     C97082   1.081   2.938   8.764  0.4340  0.4583 -0.4160
  704MOL0     H97083   1.470   2.424   9.042  1.4684 -0.3355  0.3918
  704MOL0     H97084   1.667   2.319   8.996  0.5090 -0.4393 -0.5995
  704MOL0     H97085   1.931   2.456   8.681 -0.3008 -0.3707 -0.7978
  704MOL0     H97086   1.839   2.342   8.586  0.5681  2.8882 -0.4493
  704MOL0     H97087   2.065   2.275   8.779 -1.0792 -2.0195 -0.2430
  704MOL0     H97088   1.981   2.160   8.678  1.7790 -1.5729 -2.2695
  704MOL0     H97089   2.053   2.264   8.472  0.5207 -1.5728  0.8347
  704MOL0     H97090   2.115   2.402   8.549 -3.0072  0.6068 -2.1536
  704MOL0     H97091   2.294   2.262   8.659 -0.0784 -2.6214  0.6738
  704MOL0     H97092   2.229   2.114   8.581  0.9658 -0.3231  0.1490
  704MOL0     H97093   2.427   2.179   8.466 -1.8677 -2.7233 -0.7821
  704MOL0     H97094   2.377   2.342   8.447  0.1455  0.0191 -0.3251
  704MOL0     H97095   2.247   2.092   8.321  1.5886 -1.5725 -0.3176
  704MOL0     H97096   2.186   2.261   8.300  0.5475 -0.2138 -0.7525
  704MOL0     H97097   2.474   2.177   8.249  0.4239  1.2072 -0.0521
  704MOL0     H97098   2.399   2.338   8.226  0.5256  0.0032  0.7015
  704MOL0     H97099   2.352   2.088   8.053  0.2323 -0.3924  0.1398
  704MOL0     H97100   2.239   2.229   8.053  0.3923  2.1624  3.2002
  704MOL0     H97101   2.395   2.480   8.014 -0.8614 -1.9413  0.6594
  704MOL0     H97102   2.614   2.627   7.937 -4.5467 -0.7954  0.4668
  704MOL0     H97103   2.585   2.612   7.777  1.5664 -1.2990 -2.6050
  704MOL0     H97104   2.772   2.473   7.724  0.7992 -0.0980 -0.2661
  704MOL0     H97105   2.813   2.638   7.771 -0.5600 -0.5130 -2.7085
  704MOL0     H97106   2.842   2.391   7.943 -0.1668  0.3808  2.2524
  704MOL0     H97107   2.964   2.487   7.874  0.6018 -1.7605  1.6513
  704MOL0     H97108   2.891   2.697   8.020 -0.0655  0.2172 -0.9961
  704MOL0     H97109   2.781   2.587   8.101  1.5612 -0.7804  2.6368
  704MOL0     H97110   3.080   2.716   7.932 -0.6413  0.5976  0.5989
  704MOL0     H97111   3.309   2.891   7.896 -2.6280  0.0563  1.1905
  704MOL0     H97112   3.251   2.788   7.756  2.4928 -1.5040 -1.9151
  704MOL0     H97113   3.418   2.785   7.813  0.6472 -1.0752  2.5125
  704MOL0     H97114   3.653   2.747   7.757 -2.0737  0.4345  1.6732
  704MOL0     H97115   3.898   2.763   7.694  1.7157 -1.7054 -0.0126
  704MOL0     H97116   4.093   3.025   7.911 -1.6882 -0.7760  2.5279
  704MOL0     H97117   4.200   2.908   8.005 -0.1895 -2.0906  1.0997
  704MOL0     H97118   4.313   2.851   7.799 -2.2476 -0.6583 -1.2583
  704MOL0     H97119   4.238   2.973   7.692  2.5254  0.7550 -0.3342
  704MOL0     H97120   4.414   3.034   7.921 -0.2656  0.1526 -0.4741
  704MOL0     H97121   4.316   3.153   7.852 -0.3614 -1.2825  1.2804
  704MOL0     H97122   4.506   3.012   7.645  2.8429  0.0280 -0.0499
  704MOL0     H97123   4.557   3.097   7.781 -1.0092 -3.2761  2.7736
  704MOL0     H97124   4.417   3.295   7.713 -1.3003  0.2207 -0.6489
  704MOL0     H97125   4.547   3.238   7.605 -1.2660  2.6530 -1.3874
  704MOL0     H97126   4.247   3.209   7.589  0.5418 -1.8617 -1.4221
  704MOL0     H97127   4.358   3.125   7.476  0.0090 -0.2109 -2.1947
  704MOL0     H97128   4.337   3.435   7.505 -2.2989  1.7714 -2.3376
  704MOL0     H97129   4.262   3.341   7.386  1.0602  2.1527 -0.7867
  704MOL0     H97130   4.440   3.413   7.268  0.7022 -0.5809 -0.9167
  704MOL0     H97131   4.498   3.262   7.317 -3.2469  0.0538 -2.1735
  704MOL0     H97132   3.986   2.818   8.108 -0.5857 -2.3612  0.6456
  704MOL0     H97133   3.751   2.827   8.165 -0.1184  1.5278 -0.6696
  704MOL0     H97134   3.420   2.478   8.189  0.5275  0.4524 -0.7408
  704MOL0     H97135   3.195   2.431   8.231  0.1865 -1.5702 -1.4751
  704MOL0     H97136   1.646   2.482   8.597 -0.9769 -0.3369  0.0333
  704MOL0     H97137   1.475   2.624   8.649  0.2846  0.1798  1.2120
  704MOL0     H97138   1.183   2.600   9.101  0.0179  1.5115  3.9346
  704MOL0     H97139   0.983   2.656   9.221  0.2327  0.0385  0.8812
  704MOL0     H97140   0.776   2.726   9.295 -3.1399 -1.1028  0.5249
  704MOL0     H97141   0.843   2.862   9.390  0.5232  3.7447 -1.0297
  704MOL0     H97142   0.589   2.848   9.202  0.5507 -1.8333 -0.9019
  704MOL0     H97143   0.652   2.996   9.272  0.1354 -1.1510 -0.9951
  704MOL0     H97144   0.601   2.883   9.503  2.6732  0.1378 -1.4776
  704MOL0     H97145   0.465   2.942   9.407 -0.1253 -0.1678 -1.2858
  704MOL0     H97146   0.549   2.648   9.433  0.3682 -0.3113 -3.0108
  704MOL0     H97147   0.432   2.698   9.323  1.1481 -1.3327 -0.0467
  704MOL0     H97148   0.221   2.686   9.693 -0.8715 -1.0418 -1.0242
  704MOL0     H97149   0.903   2.978   8.969  0.2261  0.1343  1.6730
  704MOL0     H97150   1.182   2.979   8.750  0.4240  0.0934 -1.6836
  704MOL0     H97151   1.051   2.883   8.675  0.1054  0.6963 -0.4526
  704MOL0     H97152   1.029   3.034   8.772  2.6924  1.6699  1.0899
  705MOL0     O97153   1.276   1.220   8.995  0.6995  0.1672 -0.2933
  705MOL0     C97154   1.353   1.235   9.090 -0.1202  0.1363  0.0851
  705MOL0     O97155   1.320   1.213   9.224  0.5565 -0.0166  0.0024
  705MOL0     C97156   1.184   1.188   9.249 -0.4518 -0.3582 -0.6746
  705MOL0     C97157   1.135   1.057   9.241 -0.1181 -0.7056 -0.9627
  705MOL0     C97158   1.001   1.039   9.272  1.1315 -0.2296  0.3699
  705MOL0     C97159   0.912   1.147   9.310 -0.8044  0.6847  0.6053
  705MOL0     O97160   0.782   1.120   9.341 -0.1272 -0.2359  0.3159
  705MOL0     C97161   0.689   1.223   9.362 -0.1777  0.6879  0.4979
  705MOL0     C97162   0.545   1.170   9.364  0.5195 -0.5519  0.4302
  705MOL0     C97163   0.449   1.288   9.340  1.3315  0.1600 -0.7902
  705MOL0     C97164   0.312   1.223   9.319  0.4924 -0.3107  0.0571
  705MOL0     C97165   0.191   1.316   9.353 -0.4275 -0.5085  0.2186
  705MOL0     C97166   0.184   1.411   9.229 -0.3428 -0.3003  0.5362
  705MOL0     C97167   0.117   1.549   9.266  0.0907  0.1394 -0.4472
  705MOL0     C97168   0.065   1.638   9.153  0.0544 -0.1263 -0.5289
  705MOL0     N97169   0.180   1.701   9.082  0.0889  0.1445  0.6676
  705MOL0     C97170   0.276   1.778   9.137 -0.0468  0.0353  0.6442
  705MOL0     C97171   0.373   1.802   9.041 -0.5503  0.3230  0.0635
  705MOL0     C97172   0.488   1.902   9.043 -0.5926  0.2731 -0.5176
  705MOL0     C97173   0.616   1.831   8.991  0.4539  0.8502 -1.2858
  705MOL0     C97174   0.744   1.898   9.047 -0.9806  0.4454 -0.1296
  705MOL0     C97175   0.748   2.049   9.003 -0.4055 -0.4303  0.4664
  705MOL0     O97176   0.712   2.078   8.864  0.2487 -0.2714  0.2477
  705MOL0     C97177   0.818   2.121   8.783 -0.3427  0.4836  0.3413
  705MOL0     C97178   0.917   2.213   8.815 -0.6427  0.6634 -0.1781
  705MOL0     C97179   1.010   2.265   8.719  0.1705 -0.8564 -0.5321
  705MOL0     C97180   1.104   2.367   8.770  0.7091 -0.7304  0.0226
  705MOL0     C97181   1.011   2.221   8.589 -0.0503  0.7397  0.1349
  705MOL0     C97182   1.110   2.265   8.490 -0.6261 -0.1132  0.2394
  705MOL0     O97183   1.207   2.359   8.514  0.2762  0.1568 -0.1203
  705MOL0     C97184   1.299   2.388   8.422  0.3752 -0.0323 -0.0940
  705MOL0     C97185   1.323   2.525   8.420 -0.0497  0.3088 -0.0873
  705MOL0     C97186   1.427   2.578   8.348  0.3214 -0.1776 -0.3115
  705MOL0     C97187   1.519   2.493   8.284 -0.3822  0.6421 -0.0591
  705MOL0     O97188   1.641   2.535   8.237 -0.1053 -0.0055 -0.3126
  705MOL0     C97189   1.754   2.453   8.280  0.7386  0.6728 -0.5280
  705MOL0     C97190   1.881   2.535   8.288  0.6565 -0.7666 -0.1512
  705MOL0     C97191   1.937   2.557   8.149 -0.3816 -0.9455 -0.2763
  705MOL0     C97192   2.079   2.618   8.161 -0.1955 -0.6194  0.6682
  705MOL0     C97193   2.108   2.726   8.049 -0.6072 -0.7259 -0.4520
  705MOL0     C97194   2.097   2.659   7.917  0.2134  0.1626 -0.2868
  705MOL0     C97195   2.180   2.736   7.816  0.2244 -0.2506 -0.1817
  705MOL0     C97196   2.329   2.717   7.820 -0.6962  0.0478 -0.4359
  705MOL0    Cl97197   2.409   2.795   7.680  0.0810  0.2518  0.2916
  705MOL0     C97198   1.492   2.353   8.281  0.1283 -0.2602  0.5329
  705MOL0     C97199   1.381   2.300   8.353  1.0419 -0.2002 -0.3022
  705MOL0     O97200   1.097   2.201   8.383  0.1116  0.3192  0.1486
  705MOL0     C97201   0.912   2.122   8.554 -0.6486 -0.0149 -0.0136
  705MOL0     C97202   0.818   2.079   8.650  0.1044 -0.2617  0.0708
  705MOL0     N97203   0.342   1.713   8.937  0.6467  0.5196  0.4057
  705MOL0     N97204   0.222   1.666   8.958  0.3984  0.2197  1.0813
  705MOL0     C97205   0.971   1.276   9.317  0.6562 -0.0690 -0.2786
  705MOL0     C97206   1.110   1.297   9.283  0.9886 -0.7330  0.2117
  705MOL0     C97207   1.494   1.263   9.053 -0.6848  0.0458  0.4898
  705MOL0     C97208   1.593   1.219   9.145 -0.1363 -0.4316  0.1543
  705MOL0     C97209   1.729   1.233   9.117 -0.4815 -0.1897 -0.4321
  705MOL0     C97210   1.770   1.290   8.992  0.0506  0.4112 -0.5218
  705MOL0     O97211   1.899   1.299   8.961 -0.3438  0.4468 -0.2010
  705MOL0     C97212   1.955   1.378   8.857 -0.0156 -0.1729  0.0669
  705MOL0     C97213   2.109   1.349   8.842  0.4018  0.0139 -0.1196
  705MOL0     C97214   2.129   1.210   8.788  0.1476  0.1328  0.0781
  705MOL0     C97215   2.275   1.179   8.764 -1.5814 -0.1498 -0.6807
  705MOL0     C97216   2.352   1.280   8.701 -1.2982 -0.6731  0.1953
  705MOL0     C97217   2.401   1.371   8.631  0.3149  0.0438  0.1155
  705MOL0     C97218   1.671   1.343   8.902 -0.2586  0.2975  0.2838
  705MOL0     C97219   1.534   1.328   8.927 -0.1740 -0.3899  0.0010
  705MOL0     C97220   1.433   1.377   8.820 -0.0071  1.6268 -0.7959
  705MOL0     H97221   1.197   0.977   9.201  0.7460  0.5584 -2.2489
  705MOL0     H97222   0.965   0.937   9.266 -0.5141  0.0555  3.2691
  705MOL0     H97223   0.705   1.295   9.282  3.1529 -1.7549 -1.2928
  705MOL0     H97224   0.707   1.263   9.463 -0.8044 -2.7087  2.1226
  705MOL0     H97225   0.523   1.089   9.294  0.5908  1.4411 -2.0089
  705MOL0     H97226   0.526   1.137   9.467 -2.0135 -0.6273  0.0075
  705MOL0     H97227   0.447   1.341   9.435 -0.9806 -0.0374 -0.6915
  705MOL0     H97228   0.478   1.349   9.254 -0.5091  1.6057 -0.4435
  705MOL0     H97229   0.304   1.195   9.213  2.8955  0.9818 -0.5364
  705MOL0     H97230   0.300   1.146   9.396 -1.2118  0.0695  0.2112
  705MOL0     H97231   0.217   1.379   9.438 -1.8847  1.5265 -0.7623
  705MOL0     H97232   0.094   1.265   9.367 -2.3572  2.8325  0.0514
  705MOL0     H97233   0.283   1.432   9.187  0.1968 -0.0984  1.8347
  705MOL0     H97234   0.120   1.371   9.150 -1.5566 -0.4022  1.5478
  705MOL0     H97235   0.194   1.594   9.329  0.6294 -2.5277  0.9106
  705MOL0     H97236   0.029   1.518   9.323  0.7858  0.1679  0.6688
  705MOL0     H97237   0.002   1.573   9.092  1.1403 -2.5290  0.7689
  705MOL0     H97238   0.004   1.721   9.189  0.4743  1.0737 -2.4516
  705MOL0     H97239   0.255   1.814   9.237  0.2394  0.2614  0.6256
  705MOL0     H97240   0.507   1.918   9.150  0.2492  0.1589 -0.6489
  705MOL0     H97241   0.466   1.996   8.991  0.6545 -0.0099 -1.6036
  705MOL0     H97242   0.610   1.729   9.031 -0.9312  1.2784 -0.3424
  705MOL0     H97243   0.613   1.830   8.882 -2.9032  1.3078 -1.2836
  705MOL0     H97244   0.769   1.905   9.154  2.9346 -0.2099 -0.8562
  705MOL0     H97245   0.831   1.838   9.018 -0.4776 -0.0898  2.2732
  705MOL0     H97246   0.688   2.119   9.062 -2.1268 -1.7427  0.3505
  705MOL0     H97247   0.855   2.067   9.020 -0.7058  0.1790  1.8388
  705MOL0     H97248   0.913   2.258   8.914 -2.0103 -1.0633  0.6186
  705MOL0     H97249   1.079   2.384   8.875 -2.5788  0.8154 -0.8625
  705MOL0     H97250   1.092   2.465   8.723 -2.2497 -2.2348 -2.7477
  705MOL0     H97251   1.204   2.325   8.757  1.2060 -0.3327  2.2369
  705MOL0     H97252   1.257   2.598   8.466  0.9055  1.5613 -0.6483
  705MOL0     H97253   1.437   2.686   8.354 -1.6207  0.0050  0.3664
  705MOL0     H97254   1.732   2.413   8.380  0.7651 -3.0189 -1.8531
  705MOL0     H97255   1.777   2.365   8.219 -1.7716 -0.0187 -0.5877
  705MOL0     H97256   1.849   2.629   8.334  0.0975  1.1073 -3.9857
  705MOL0     H97257   1.952   2.482   8.352 -0.5287 -2.1142  0.1025
  705MOL0     H97258   1.872   2.627   8.096 -2.6642 -2.8596 -0.2274
  705MOL0     H97259   1.937   2.460   8.097 -0.3010 -1.2807  0.3365
  705MOL0     H97260   2.160   2.544   8.163  0.4471  0.0281 -0.3927
  705MOL0     H97261   2.084   2.681   8.251  1.6075  2.0699 -1.1426
  705MOL0     H97262   2.024   2.797   8.049 -0.2966 -0.3422 -1.6480
  705MOL0     H97263   2.205   2.771   8.068  0.1712 -0.6735 -3.9541
  705MOL0     H97264   1.993   2.643   7.888 -0.6466  0.0406  2.5786
  705MOL0     H97265   2.135   2.556   7.924 -1.3852 -0.6513 -2.4596
  705MOL0     H97266   2.159   2.842   7.833 -0.6049 -0.2910 -0.8764
  705MOL0     H97267   2.143   2.695   7.722 -4.7302 -1.9245  2.1432
  705MOL0     H97268   2.351   2.610   7.828  1.9396  0.6564  2.5271
  705MOL0     H97269   2.368   2.775   7.905  1.9121  0.5327 -1.8571
  705MOL0     H97270   1.560   2.282   8.234  0.0910  0.0094  0.0611
  705MOL0     H97271   1.358   2.195   8.366  0.9423 -0.2739 -1.0136
  705MOL0     H97272   0.894   2.089   8.452  0.7952 -2.9392  0.5619
  705MOL0     H97273   0.745   2.009   8.611  2.4573 -2.6662 -0.3410
  705MOL0     H97274   0.905   1.361   9.334 -0.4608 -1.1934  1.3224
  705MOL0     H97275   1.156   1.395   9.286  3.7966 -1.9378 -0.0240
  705MOL0     H97276   1.558   1.179   9.240 -0.3454 -3.1992 -0.9963
  705MOL0     H97277   1.803   1.206   9.191  0.0331 -2.6495 -1.7261
  705MOL0     H97278   1.911   1.356   8.759  0.5827 -1.6532  0.0952
  705MOL0     H97279   1.935   1.483   8.877  1.0057  0.0153  0.1707
  705MOL0     H97280   2.157   1.363   8.940 -0.1144 -2.8064  0.6440
  705MOL0     H97281   2.146   1.420   8.767 -1.5239 -0.0312 -1.1636
  705MOL0     H97282   2.093   1.134   8.857 -0.7752  2.2663  2.0787
  705MOL0     H97283   2.074   1.203   8.693  1.9257 -1.3880 -0.9123
  705MOL0     H97284   2.285   1.091   8.700 -0.4369 -0.3643 -0.2174
  705MOL0     H97285   2.326   1.141   8.853 -2.4644 -1.7198 -0.8132
  705MOL0     H97286   2.453   1.452   8.583  0.6565 -2.1337 -3.5592
  705MOL0     H97287   1.698   1.370   8.800 -1.4705  0.9039  0.1060
  705MOL0     H97288   1.482   1.469   8.786  2.4477  1.1998  1.1863
  705MOL0     H97289   1.414   1.302   8.743 -0.7232  0.5419  0.3870
  705MOL0     H97290   1.339   1.417   8.859 -2.1390 -0.3432 -3.5024
  706MOL0     O97291   4.116   4.774   0.664 -0.1240  0.2591 -1.0144
  706MOL0     C97292   4.031   4.770   0.576 -0.6590  0.2066  0.7249
  706MOL0     O97293   4.045   4.702   0.455  0.0037  0.8153  0.9640
  706MOL0     C97294   4.146   4.611   0.430  0.2427 -0.7103  0.3286
  706MOL0     C97295   4.187   4.593   0.301 -0.3992 -0.1985 -0.2885
  706MOL0     C97296   4.274   4.494   0.266  0.1039 -1.3124 -0.0783
  706MOL0     C97297   4.339   4.418   0.371 -0.3380 -0.0501  0.8101
  706MOL0     O97298   4.424   4.317   0.353  0.1253  1.0763  0.5836
  706MOL0     C97299   4.504   4.302   0.233 -0.5743  0.9446 -0.0633
  706MOL0     C97300   4.635   4.235   0.266 -0.0944  0.4021  0.1874
  706MOL0     C97301   4.727   4.233   0.143  0.5903 -0.2561  0.2833
  706MOL0     C97302   4.844   4.132   0.167  0.0715  0.8450 -0.9003
  706MOL0     C97303   4.952   4.202   0.254  0.2343  0.0671  0.6411
  706MOL0     C97304   5.054   4.091   0.289  0.5614  0.4172 -0.9025
  706MOL0     C97305   5.149   4.128   0.411 -0.0421 -0.1164  0.0361
  706MOL0     C97306   5.242   4.019   0.465 -0.5812 -0.1872  0.3861
  706MOL0     N97307   5.294   4.061   0.596 -0.6213  0.0213  0.1653
  706MOL0     C97308   5.419   4.108   0.621  0.4477 -0.3138  0.5397
  706MOL0     C97309   5.410   4.181   0.731  0.1458 -0.4040  0.2397
  706MOL0     C97310   5.528   4.258   0.785 -0.9952  0.3562 -0.2345
  706MOL0     C97311   5.582   4.356   0.679  0.8555 -0.6668 -0.1101
  706MOL0     C97312   5.682   4.457   0.736 -0.0996 -0.0925  0.7518
  706MOL0     C97313   5.811   4.393   0.790 -0.2663  0.5593 -0.0535
  706MOL0     O97314   5.892   4.359   0.683 -0.5215  0.3276  0.1940
  706MOL0     C97315   6.024   4.308   0.692  0.9960 -0.1452 -0.1979
  706MOL0     C97316   6.064   4.231   0.801  1.9088  1.0497 -0.3881
  706MOL0     C97317   6.183   4.159   0.804  0.1439  1.2232  1.2296
  706MOL0     C97318   6.216   4.096   0.941  0.3215  0.4102  0.0004
  706MOL0     C97319   6.264   4.159   0.690  0.7924 -0.3757 -0.6324
  706MOL0     C97320   6.388   4.084   0.668  0.3632 -0.1673  0.5151
  706MOL0     O97321   6.422   4.004   0.770 -0.3194  0.1430  0.1901
  706MOL0     C97322   6.543   3.945   0.763  0.0947  0.9516 -0.9292
  706MOL0     C97323   6.610   3.954   0.884  0.3766 -0.2178 -0.1832
  706MOL0     C97324   6.724   3.874   0.904  1.1190  0.7231 -0.0958
  706MOL0     C97325   6.765   3.782   0.801  0.4019  0.0987  0.3936
  706MOL0     O97326   6.871   3.693   0.816  0.0445  0.6115  0.3797
  706MOL0     C97327   6.887   3.651   0.957  0.3182 -0.0811  0.8905
  706MOL0     C97328   6.981   3.531   0.973  0.2847  0.2956  0.4046
  706MOL0     C97329   7.110   3.560   0.895 -0.1442 -0.2750 -0.0519
  706MOL0     C97330   7.223   3.462   0.921 -0.3191 -0.3262  0.2347
  706MOL0     C97331   7.353   3.483   0.831  0.7002  0.2837  0.7275
  706MOL0     C97332   7.317   3.466   0.681  0.2238 -0.3841 -0.6666
  706MOL0     C97333   7.447   3.433   0.608 -0.2444  0.1061  0.3286
  706MOL0     C97334   7.443   3.489   0.467  0.2137  0.2140  0.3374
  706MOL0    Cl97335   7.438   3.673   0.483  0.1793 -0.0189 -0.3208
  706MOL0     C97336   6.694   3.777   0.684 -0.1783  0.4787 -1.0105
  706MOL0     C97337   6.579   3.854   0.664  0.3991  1.2235  0.2019
  706MOL0     O97338   6.447   4.092   0.560  0.1793  0.3366  0.2154
  706MOL0     C97339   6.225   4.247   0.593  0.2317 -0.2059  0.4180
  706MOL0     C97340   6.101   4.307   0.581 -0.3686  0.3098 -0.6434
  706MOL0     N97341   5.278   4.179   0.780 -0.5168 -0.2071  0.1385
  706MOL0     N97342   5.216   4.094   0.697 -0.1056 -0.4821 -0.0306
  706MOL0     C97343   4.278   4.430   0.499 -0.3417 -0.0392  0.6399
  706MOL0     C97344   4.187   4.529   0.531 -0.4969  0.1700 -0.2073
  706MOL0     C97345   3.889   4.827   0.607  0.0784 -0.1094 -0.0583
  706MOL0     C97346   3.780   4.781   0.527  0.3955  0.4772 -0.2516
  706MOL0     C97347   3.651   4.819   0.555  0.7757  0.6861  0.2350
  706MOL0     C97348   3.612   4.910   0.657 -0.5129  0.0758  0.0662
  706MOL0     O97349   3.479   4.936   0.664 -0.3253  0.6449  0.1218
  706MOL0     C97350   3.420   5.040   0.736  0.6017 -0.5866  0.0235
  706MOL0     C97351   3.280   5.060   0.680  0.4999  0.1504 -0.4209
  706MOL0     C97352   3.293   5.148   0.551  0.1445  0.2970  0.4607
  706MOL0     C97353   3.146   5.181   0.499 -0.1066  0.0494  0.8031
  706MOL0     C97354   3.073   5.275   0.598 -0.2272  1.1040  1.0274
  706MOL0     C97355   3.007   5.336   0.681  0.7394  0.0951  0.2636
  706MOL0     C97356   3.711   4.960   0.742 -0.3948  0.3531 -0.4078
  706MOL0     C97357   3.843   4.912   0.715  0.3536  0.2243 -0.0729
  706MOL0     C97358   3.933   4.971   0.815  0.3126 -0.2215  0.4917
  706MOL0     H97359   4.148   4.664   0.229  0.6062  2.4023  1.6027
  706MOL0     H97360   4.290   4.491   0.159 -1.8862  2.3930 -0.6494
  706MOL0     H97361   4.524   4.399   0.185 -0.1730  0.2623 -1.3235
  706MOL0     H97362   4.450   4.242   0.160 -0.5342  1.1055 -0.2285
  706MOL0     H97363   4.683   4.288   0.348  0.5568 -0.8725  0.6567
  706MOL0     H97364   4.618   4.128   0.283 -0.2907 -0.1138 -2.6919
  706MOL0     H97365   4.672   4.206   0.053  2.6351  0.5857 -1.3072
  706MOL0     H97366   4.761   4.332   0.112 -1.3324  0.2238 -0.4129
  706MOL0     H97367   4.811   4.048   0.228  1.4832  1.2903  0.5394
  706MOL0     H97368   4.880   4.102   0.068 -0.0206  0.2780 -0.7645
  706MOL0     H97369   4.907   4.241   0.345  1.8948  0.8885  1.1428
  706MOL0     H97370   5.004   4.287   0.209 -0.8187  0.6409  0.4797
  706MOL0     H97371   4.999   3.998   0.307  1.1222  0.5513  1.9768
  706MOL0     H97372   5.121   4.076   0.204  0.9042  0.7394 -0.6892
  706MOL0     H97373   5.098   4.169   0.498  1.0680 -1.3584  1.3283
  706MOL0     H97374   5.209   4.218   0.391 -0.5676 -0.0533 -1.3579
  706MOL0     H97375   5.192   3.923   0.476 -0.1741 -0.3742  0.6255
  706MOL0     H97376   5.314   4.006   0.384 -2.9213 -1.0469 -1.7085
  706MOL0     H97377   5.504   4.109   0.553 -1.2957 -0.4075 -1.7646
  706MOL0     H97378   5.606   4.187   0.813 -0.1325  0.7505 -1.5560
  706MOL0     H97379   5.497   4.305   0.878 -0.1930 -1.2709  0.8982
  706MOL0     H97380   5.628   4.296   0.599 -3.0095  0.5688 -3.6523
  706MOL0     H97381   5.497   4.413   0.640 -0.0125 -1.4720  0.5680
  706MOL0     H97382   5.717   4.521   0.655 -1.8963  1.1175  0.8794
  706MOL0     H97383   5.642   4.525   0.812 -2.3895  0.7896 -1.1208
  706MOL0     H97384   5.875   4.468   0.838  1.4268  0.0242 -1.3604
  706MOL0     H97385   5.789   4.313   0.861  3.1221  0.5431  1.2032
  706MOL0     H97386   5.999   4.232   0.888  1.8652  1.8295 -0.4218
  706MOL0     H97387   6.129   4.091   1.007 -0.5707 -0.7183 -1.2239
  706MOL0     H97388   6.285   4.162   0.995 -2.9238  1.9662  2.6092
  706MOL0     H97389   6.251   3.992   0.938 -3.3849 -1.1404  2.6773
  706MOL0     H97390   6.567   4.012   0.964 -0.6974 -1.3122  0.0547
  706MOL0     H97391   6.780   3.889   0.996  2.0016 -0.1278 -0.4778
  706MOL0     H97392   6.929   3.736   1.011  0.8977 -0.6411  1.3250
  706MOL0     H97393   6.792   3.606   0.987  0.9774 -2.6226 -0.5655
  706MOL0     H97394   7.010   3.525   1.078 -2.0659  0.4077  1.1341
  706MOL0     H97395   6.931   3.438   0.942 -1.6224  0.8625  1.6202
  706MOL0     H97396   7.141   3.663   0.914  0.2679  0.0649 -2.3114
  706MOL0     H97397   7.085   3.560   0.789 -0.5308  1.8255 -0.0106
  706MOL0     H97398   7.190   3.360   0.900  0.5023 -0.1744 -2.1116
  706MOL0     H97399   7.253   3.463   1.026  0.7105 -2.1121 -0.0047
  706MOL0     H97400   7.394   3.582   0.853  0.5965  0.2130  1.2453
  706MOL0     H97401   7.438   3.421   0.862  3.4175  2.2827 -2.0682
  706MOL0     H97402   7.280   3.562   0.642  0.6832  1.0893  2.1865
  706MOL0     H97403   7.243   3.387   0.664  0.9289 -1.0292 -0.7762
  706MOL0     H97404   7.457   3.327   0.583 -1.6263  0.4463 -2.0564
  706MOL0     H97405   7.536   3.467   0.661 -0.2329 -0.8118  0.9095
  706MOL0     H97406   7.354   3.461   0.410  1.7395 -0.6924 -1.7117
  706MOL0     H97407   7.533   3.454   0.415  0.5036 -0.2156  1.1204
  706MOL0     H97408   6.722   3.704   0.608  0.1202 -1.3590  0.7967
  706MOL0     H97409   6.507   3.858   0.583 -1.2211  1.6164  1.6073
  706MOL0     H97410   6.301   4.266   0.517  1.0942 -0.1308  1.2780
  706MOL0     H97411   6.070   4.362   0.493 -1.9151 -1.0215 -0.9748
  706MOL0     H97412   4.318   4.357   0.569 -0.9092  0.1076  1.1212
  706MOL0     H97413   4.145   4.527   0.631 -1.2791  1.9422 -0.4666
  706MOL0     H97414   3.794   4.707   0.450 -0.8961  0.5164 -0.5536
  706MOL0     H97415   3.570   4.787   0.490  2.1231 -0.2484 -1.0370
  706MOL0     H97416   3.407   5.013   0.841  0.4741 -1.6787 -0.2580
  706MOL0     H97417   3.490   5.124   0.733  1.3180 -1.1982 -1.1296
  706MOL0     H97418   3.223   5.093   0.766  2.7754 -2.4628  2.3216
  706MOL0     H97419   3.239   4.962   0.657  1.9458 -0.9803  1.5059
  706MOL0     H97420   3.336   5.245   0.579 -2.6595  2.0548 -0.8707
  706MOL0     H97421   3.351   5.084   0.484 -1.1163 -0.8060  0.3840
  706MOL0     H97422   3.099   5.083   0.491 -0.5577  0.2404  1.0742
  706MOL0     H97423   3.160   5.223   0.399 -2.1432 -1.7833 -0.3158
  706MOL0     H97424   2.939   5.383   0.748 -0.6417 -0.7264 -0.5231
  706MOL0     H97425   3.692   5.029   0.824 -1.1325  0.9543 -1.0655
  706MOL0     H97426   4.021   4.908   0.831  0.8057 -0.5814 -2.8032
  706MOL0     H97427   3.977   5.065   0.782  0.2933 -0.5114 -0.3933
  706MOL0     H97428   3.885   4.983   0.912  0.5346  0.3381  0.5365
  707MOL0     O97429   2.259   9.126   3.583  0.0765  0.1813 -0.2592
  707MOL0     C97430   2.373   9.153   3.627  0.4656 -0.1775 -0.3279
  707MOL0     O97431   2.397   9.185   3.765  0.0934 -0.4571 -0.4411
  707MOL0     C97432   2.290   9.226   3.844 -0.0538  0.2025 -0.1192
  707MOL0     C97433   2.181   9.313   3.810 -0.2905  0.0939 -0.0834
  707MOL0     C97434   2.093   9.355   3.916 -0.7563  1.2114 -0.4805
  707MOL0     C97435   2.117   9.307   4.049  0.2103 -0.4268  0.6152
  707MOL0     O97436   2.036   9.338   4.155  1.2579  0.3879  0.1451
  707MOL0     C97437   1.971   9.467   4.161  0.7176 -0.1560  0.1835
  707MOL0     C97438   1.951   9.485   4.310 -0.4185 -0.3339  0.3111
  707MOL0     C97439   1.893   9.618   4.355 -0.4386 -1.0527 -0.5628
  707MOL0     C97440   1.916   9.652   4.502 -0.1992 -0.3843  0.9215
  707MOL0     C97441   1.843   9.775   4.555  0.4025  0.0422 -0.0024
  707MOL0     C97442   1.876   9.909   4.483 -0.4518 -0.6650 -0.0823
  707MOL0     C97443   2.025   9.939   4.454  0.0428 -0.0789  0.1804
  707MOL0     C97444   2.037  10.074   4.381 -0.9497 -0.6900  0.1707
  707MOL0     N97445   2.179  10.115   4.375 -0.5011  0.2344  0.3993
  707MOL0     C97446   2.291  10.056   4.313  0.3198 -0.3397  0.6087
  707MOL0     C97447   2.402  10.135   4.329 -1.0545 -0.7330  0.7470
  707MOL0     C97448   2.549  10.116   4.275 -0.1564 -0.5234 -0.6659
  707MOL0     C97449   2.606   9.978   4.313 -0.1117 -0.3402 -0.1680
  707MOL0     C97450   2.763   9.974   4.320 -1.2008  0.4602  0.2420
  707MOL0     C97451   2.812  10.015   4.462  0.2441 -0.8941  0.5552
  707MOL0     O97452   2.952  10.048   4.437  0.4071  0.6151 -0.2370
  707MOL0     C97453   3.025  10.065   4.552  0.1145  0.9679 -0.3852
  707MOL0     C97454   3.025   9.961   4.651  0.0561  0.0809 -0.0657
  707MOL0     C97455   3.105   9.968   4.768 -0.0424  0.5755  0.4728
  707MOL0     C97456   3.094   9.849   4.868  0.6312 -0.2997  0.3776
  707MOL0     C97457   3.205  10.069   4.780 -0.2896  0.6725  0.1130
  707MOL0     C97458   3.317  10.072   4.886  1.0566  0.1693 -0.3800
  707MOL0     O97459   3.288   9.997   4.998  1.0283  0.4370  0.0254
  707MOL0     C97460   3.370  10.006   5.104 -0.5238 -0.3835 -0.0826
  707MOL0     C97461   3.312  10.058   5.220 -0.4398 -0.8085 -0.7656
  707MOL0     C97462   3.395  10.082   5.329 -0.2233 -0.6663  0.2954
  707MOL0     C97463   3.537  10.058   5.322  0.5442  0.2305 -0.6509
  707MOL0     O97464   3.627  10.058   5.422 -0.3546  0.0738  0.0550
  707MOL0     C97465   3.633  10.175   5.501  0.2859  0.1595 -0.0012
  707MOL0     C97466   3.751  10.149   5.597 -0.8542  0.1906 -0.6108
  707MOL0     C97467   3.892  10.192   5.547  0.1503  0.9698  0.6217
  707MOL0     C97468   3.996  10.208   5.662 -0.0526 -0.6627 -0.0399
  707MOL0     C97469   4.136  10.245   5.602 -0.6704 -0.1196 -0.3591
  707MOL0     C97470   4.224  10.311   5.707 -1.2298  0.5873 -0.2276
  707MOL0     C97471   4.335  10.391   5.638  0.0395 -0.0384  0.5018
  707MOL0     C97472   4.425  10.336   5.518  0.3456  0.1454  0.4752
  707MOL0    Cl97473   4.529  10.480   5.470 -0.1336 -0.1069 -0.3872
  707MOL0     C97474   3.591   9.999   5.206  0.9995  0.2189 -0.6129
  707MOL0     C97475   3.503   9.968   5.098 -0.1698 -0.1992  0.4400
  707MOL0     O97476   3.423  10.129   4.860  0.0510 -0.5740  0.1856
  707MOL0     C97477   3.199  10.168   4.676  0.1893 -0.0411  1.9233
  707MOL0     C97478   3.105  10.175   4.574  0.0803 -0.0541 -0.1397
  707MOL0     N97479   2.356  10.241   4.404 -0.3650 -0.1873 -0.3894
  707MOL0     N97480   2.221  10.230   4.426 -0.1914 -0.0637 -0.0003
  707MOL0     C97481   2.227   9.225   4.077 -0.7127  0.1582 -0.6785
  707MOL0     C97482   2.312   9.186   3.977 -0.5354 -0.1894 -0.4603
  707MOL0     C97483   2.493   9.151   3.537  0.2855 -0.1647 -0.3679
  707MOL0     C97484   2.608   9.108   3.596 -0.1276  0.3238  0.8210
  707MOL0     C97485   2.734   9.105   3.532  0.5689 -0.1901 -0.1034
  707MOL0     C97486   2.740   9.144   3.396  0.4401 -0.2063  0.4693
  707MOL0     O97487   2.857   9.142   3.324 -0.8833 -0.6041  1.0003
  707MOL0     C97488   2.953   9.044   3.353 -0.0589  0.0497  0.6271
  707MOL0     C97489   3.008   8.987   3.217  0.3413 -0.1489 -0.0894
  707MOL0     C97490   3.136   9.076   3.157  0.1493 -0.2562  0.3820
  707MOL0     C97491   3.192   9.009   3.035  0.0554  0.4100 -0.6176
  707MOL0     C97492   3.304   9.075   2.982 -0.7540  0.4368  1.2102
  707MOL0     C97493   3.395   9.129   2.914 -0.1739  0.2599 -0.2944
  707MOL0     C97494   2.622   9.184   3.330  0.6857 -0.6733 -0.2558
  707MOL0     C97495   2.491   9.184   3.400  0.1113  0.2598 -0.2252
  707MOL0     C97496   2.364   9.240   3.329  0.3652 -0.7214  0.2621
  707MOL0     H97497   2.173   9.343   3.706 -1.2503  4.1978  0.9861
  707MOL0     H97498   2.017   9.425   3.882 -0.1705  2.0213 -0.1221
  707MOL0     H97499   1.878   9.465   4.104  1.0089  0.5408 -0.3226
  707MOL0     H97500   2.034   9.551   4.133  0.5297  0.4594  1.5388
  707MOL0     H97501   1.892   9.406   4.357  1.3254 -0.9939  1.4968
  707MOL0     H97502   2.051   9.495   4.355 -0.3798 -3.6911  1.2424
  707MOL0     H97503   1.932   9.703   4.298 -0.0581  1.0878  2.6107
  707MOL0     H97504   1.788   9.609   4.327 -0.7547  1.6271 -0.4924
  707MOL0     H97505   1.879   9.565   4.556 -1.4903 -1.2602 -1.2783
  707MOL0     H97506   2.022   9.667   4.522  0.2724 -2.1379 -0.1043
  707MOL0     H97507   1.857   9.788   4.662 -0.1825 -1.0899  0.2235
  707MOL0     H97508   1.736   9.771   4.531  0.1094  1.1558  1.0236
  707MOL0     H97509   1.828   9.904   4.385  1.0705  1.5822 -1.0250
  707MOL0     H97510   1.836   9.996   4.536 -1.5439 -1.1248 -0.1248
  707MOL0     H97511   2.065   9.873   4.377  0.5260  2.6499 -2.0880
  707MOL0     H97512   2.084   9.939   4.546 -0.6712  3.8043  0.8387
  707MOL0     H97513   1.997  10.062   4.280 -0.6791 -2.3374  0.2231
  707MOL0     H97514   1.981  10.140   4.448  0.5017  0.2028  0.5605
  707MOL0     H97515   2.279   9.966   4.253 -3.0436 -0.4896  1.3596
  707MOL0     H97516   2.617  10.192   4.317  1.4031 -0.9348 -2.3225
  707MOL0     H97517   2.549  10.126   4.166 -0.3106 -0.7997 -0.6907
  707MOL0     H97518   2.572   9.949   4.413 -2.3972  0.3361 -0.6930
  707MOL0     H97519   2.570   9.894   4.254  2.2090 -1.4332 -0.1308
  707MOL0     H97520   2.808   9.874   4.315  2.2759  1.8978  0.5616
  707MOL0     H97521   2.815  10.044   4.255  1.7616 -1.6860  0.0977
  707MOL0     H97522   2.750  10.101   4.490 -1.4954 -1.8782 -0.0952
  707MOL0     H97523   2.794   9.937   4.537 -0.0873  0.5286  2.0346
  707MOL0     H97524   2.954   9.883   4.627 -3.9308  2.5011  2.5486
  707MOL0     H97525   3.175   9.778   4.845  1.6944  1.1247 -0.5143
  707MOL0     H97526   3.004   9.796   4.837  0.4179  0.4809 -0.3742
  707MOL0     H97527   3.076   9.870   4.973 -2.5802 -1.1201  0.0967
  707MOL0     H97528   3.205  10.075   5.215 -0.6721 -1.4351  1.2174
  707MOL0     H97529   3.345  10.130   5.412 -0.6524  1.6211 -1.1596
  707MOL0     H97530   3.661  10.255   5.431  2.9533 -2.2856 -1.9606
  707MOL0     H97531   3.541  10.199   5.554  1.7215  0.5435  2.4815
  707MOL0     H97532   3.737  10.202   5.692  2.7436  0.8080 -0.2699
  707MOL0     H97533   3.753  10.041   5.616 -1.0409  0.0912 -1.1554
  707MOL0     H97534   3.882  10.287   5.493  0.5047 -0.9612 -3.1386
  707MOL0     H97535   3.924  10.121   5.470 -1.6339 -2.9330  3.1745
  707MOL0     H97536   3.999  10.112   5.714 -2.8246 -1.0800 -0.5307
  707MOL0     H97537   3.963  10.284   5.733  1.9193 -0.0715  0.3182
  707MOL0     H97538   4.183  10.159   5.554  1.5297  0.9671 -0.2898
  707MOL0     H97539   4.126  10.318   5.521 -1.8917  1.4666  1.1343
  707MOL0     H97540   4.273  10.238   5.773 -0.2998 -0.0607 -1.5859
  707MOL0     H97541   4.168  10.372   5.778  0.6375 -0.5593  2.3865
  707MOL0     H97542   4.406  10.425   5.714  0.8080 -1.1482  0.3020
  707MOL0     H97543   4.282  10.483   5.612 -1.9427 -0.7023  1.9995
  707MOL0     H97544   4.367  10.301   5.433  0.5389 -0.0663  0.4303
  707MOL0     H97545   4.481  10.245   5.542 -0.7854 -0.4892  0.7821
  707MOL0     H97546   3.697   9.985   5.193  1.2507  2.0682 -0.8901
  707MOL0     H97547   3.520   9.927   4.999 -1.4209  1.3104 -0.4442
  707MOL0     H97548   3.267  10.252   4.678  1.7946 -1.2101  0.0542
  707MOL0     H97549   3.107  10.258   4.504  1.5056  0.8957  0.9463
  707MOL0     H97550   2.237   9.178   4.174 -0.6399 -0.8688 -1.1688
  707MOL0     H97551   2.397   9.121   3.997 -0.5120  0.0908  0.3981
  707MOL0     H97552   2.604   9.075   3.699  0.0989 -1.6999  0.2415
  707MOL0     H97553   2.819   9.083   3.595  0.8301  2.8673  0.7825
  707MOL0     H97554   3.035   9.075   3.417  0.4390 -0.0357  0.0418
  707MOL0     H97555   2.911   8.960   3.409  2.3278 -2.9574 -1.7452
  707MOL0     H97556   2.927   8.985   3.144 -0.5825 -1.1912  0.9271
  707MOL0     H97557   3.040   8.884   3.231  1.3415 -0.1820 -2.2091
  707MOL0     H97558   3.103   9.172   3.116  1.2600  0.5228  1.2678
  707MOL0     H97559   3.213   9.086   3.233  0.6019  1.4521 -0.2686
  707MOL0     H97560   3.114   9.006   2.958  0.6376 -3.0062 -1.2140
  707MOL0     H97561   3.196   8.903   3.061 -1.6984  0.6740  0.9819
  707MOL0     H97562   3.453   9.190   2.847  0.0060 -0.8081 -1.1305
  707MOL0     H97563   2.609   9.207   3.225  1.4404 -0.5918 -0.3376
  707MOL0     H97564   2.346   9.343   3.362  1.1811 -0.3941 -0.3036
  707MOL0     H97565   2.372   9.233   3.220  0.0016  1.0779  0.0825
  707MOL0     H97566   2.273   9.181   3.346 -0.1770 -0.6820 -2.1650
  708MOL0     O97567   1.155   2.364   9.834 -0.6881  0.5694 -0.4767
  708MOL0     C97568   1.090   2.265   9.869  0.2789 -0.5985 -0.0798
  708MOL0     O97569   1.141   2.142   9.888 -0.4884  0.2277  0.5742
  708MOL0     C97570   1.254   2.114   9.824 -0.2502  0.1713  0.9438
  708MOL0     C97571   1.258   2.066   9.691 -0.2036  0.6977  0.7841
  708MOL0     C97572   1.373   2.025   9.634 -0.4887  0.5157 -0.2604
  708MOL0     C97573   1.492   2.027   9.707  0.1061  0.7671 -0.1059
  708MOL0     O97574   1.611   1.978   9.663 -0.6081 -0.8222  0.2840
  708MOL0     C97575   1.601   1.896   9.548  0.5665 -0.2144  0.6701
  708MOL0     C97576   1.733   1.825   9.527 -0.5154  0.3782  1.1292
  708MOL0     C97577   1.862   1.909   9.531 -0.3195  0.2304  0.5770
  708MOL0     C97578   1.978   1.818   9.527  0.5288 -0.1255  0.4967
  708MOL0     C97579   2.116   1.882   9.517 -0.4253 -0.4307  0.0534
  708MOL0     C97580   2.225   1.781   9.485  0.5232 -0.6530 -0.0825
  708MOL0     C97581   2.353   1.863   9.450  0.2296 -0.3783 -0.0200
  708MOL0     C97582   2.472   1.770   9.411 -0.9359  0.9532  0.1557
  708MOL0     N97583   2.436   1.689   9.292 -0.0125  0.4008 -0.0718
  708MOL0     C97584   2.530   1.606   9.230 -0.7692 -0.7488  0.5884
  708MOL0     C97585   2.464   1.550   9.133 -0.2218 -0.9298 -0.5374
  708MOL0     C97586   2.511   1.438   9.051  0.1033 -0.1997 -0.0630
  708MOL0     C97587   2.664   1.439   9.021 -0.2934 -0.5227 -0.2561
  708MOL0     C97588   2.710   1.322   8.935 -0.6845 -0.6197  0.1048
  708MOL0     C97589   2.868   1.295   8.938  0.4739  0.4053 -0.2668
  708MOL0     O97590   2.913   1.257   9.069 -0.3044  0.2760  1.4200
  708MOL0     C97591   3.042   1.208   9.084 -0.0695 -0.1332  0.1824
  708MOL0     C97592   3.158   1.222   8.993  0.2248 -0.3263  0.0499
  708MOL0     C97593   3.281   1.183   9.039 -0.0346 -0.4776  0.2745
  708MOL0     C97594   3.384   1.217   8.933  0.1134  0.2372 -0.0845
  708MOL0     C97595   3.304   1.112   9.160 -0.7617  0.2781  0.5213
  708MOL0     C97596   3.433   1.059   9.196 -0.5636  0.5398  0.1505
  708MOL0     O97597   3.459   1.042   9.327  0.0587 -0.3652 -0.6076
  708MOL0     C97598   3.557   0.950   9.368  0.1572 -0.5425 -0.2294
  708MOL0     C97599   3.602   0.837   9.294  0.2888 -0.4538  0.4520
  708MOL0     C97600   3.700   0.753   9.345  0.1689 -0.0290 -0.3086
  708MOL0     C97601   3.738   0.770   9.477  0.0813  0.6344 -0.1458
  708MOL0     O97602   3.844   0.686   9.513  0.0965 -0.4510  0.2346
  708MOL0     C97603   3.881   0.677   9.652  0.3306 -0.2667 -0.3069
  708MOL0     C97604   4.018   0.743   9.679 -0.1593 -0.2161  0.4247
  708MOL0     C97605   4.123   0.690   9.573  0.5880 -0.2712  0.2673
  708MOL0     C97606   4.261   0.758   9.589  0.4556  0.4144 -0.8488
  708MOL0     C97607   4.363   0.687   9.501  0.0134 -0.5993 -0.0638
  708MOL0     C97608   4.498   0.755   9.492  0.8875 -0.3998  0.7798
  708MOL0     C97609   4.619   0.673   9.499  0.1755 -0.5956 -0.5239
  708MOL0     C97610   4.751   0.745   9.486 -0.1687  0.0074  0.4954
  708MOL0    Cl97611   4.787   0.793   9.326 -0.1901 -0.2710  0.0032
  708MOL0     C97612   3.691   0.876   9.555  0.6567 -0.4186  1.0361
  708MOL0     C97613   3.606   0.971   9.491 -0.3602  0.0528 -0.4554
  708MOL0     O97614   3.515   1.033   9.109  0.2976 -0.1283  0.2792
  708MOL0     C97615   3.203   1.102   9.256  0.6046 -0.1962  0.1863
  708MOL0     C97616   3.071   1.147   9.210  0.4837 -0.1646  0.0638
  708MOL0     N97617   2.336   1.606   9.136 -0.1442  0.2612 -0.0766
  708MOL0     N97618   2.322   1.701   9.219  0.1382 -0.1661  0.7305
  708MOL0     C97619   1.491   2.057   9.838 -0.1366 -1.1452 -0.1273
  708MOL0     C97620   1.370   2.099   9.892  0.5535  0.4209  0.0020
  708MOL0     C97621   0.953   2.286   9.915 -0.3016 -0.9256 -0.0674
  708MOL0     C97622   0.915   2.416   9.965 -0.0679  0.0113 -0.0854
  708MOL0     C97623   0.781   2.444  10.000 -0.1246 -0.4544  0.3318
  708MOL0     C97624   0.691   2.342   9.992  0.3340  1.4283 -0.0543
  708MOL0     O97625   0.568   2.373  10.043 -0.2959 -0.3233  0.5424
  708MOL0     C97626   0.478   2.283  10.116  0.1203  0.6245  0.1246
  708MOL0     C97627   0.351   2.344  10.183  0.2973 -0.1574 -0.2154
  708MOL0     C97628   0.353   2.498  10.180  0.0911  0.2714 -0.2615
  708MOL0     C97629   0.238   2.557  10.273  0.0645  0.3534 -0.5430
  708MOL0     C97630   0.236   2.695  10.311  0.6240  0.3126 -0.8802
  708MOL0     C97631   0.212   2.810  10.341  0.2722  0.0920 -0.8305
  708MOL0     C97632   0.726   2.216   9.951 -1.6813 -0.7054 -0.2736
  708MOL0     C97633   0.860   2.191   9.911 -0.2152  0.6940 -0.2310
  708MOL0     C97634   0.875   2.049   9.857 -0.3511 -0.3450 -0.5025
  708MOL0     H97635   1.176   2.063   9.620  0.3674 -1.0831  0.1588
  708MOL0     H97636   1.368   1.988   9.532 -0.1359 -1.0205  0.2467
  708MOL0     H97637   1.556   1.956   9.467 -0.9887 -0.0928  1.5741
  708MOL0     H97638   1.520   1.822   9.552  1.7212 -1.4968  0.8244
  708MOL0     H97639   1.725   1.749   9.605  0.5090 -0.6401  0.2861
  708MOL0     H97640   1.731   1.779   9.427 -1.8197  1.0384  0.8278
  708MOL0     H97641   1.860   1.970   9.440 -1.8247  1.0191  1.0962
  708MOL0     H97642   1.864   1.976   9.618 -0.7303 -2.3789  2.7371
  708MOL0     H97643   1.978   1.748   9.611  0.5342 -2.6101 -1.4607
  708MOL0     H97644   1.969   1.759   9.435 -2.4250 -0.2822  0.8054
  708MOL0     H97645   2.131   1.934   9.612 -0.7778  2.5600 -1.3922
  708MOL0     H97646   2.110   1.962   9.442  4.8419 -0.2700 -0.5672
  708MOL0     H97647   2.231   1.712   9.570  0.3241 -0.2458  0.2624
  708MOL0     H97648   2.187   1.725   9.399 -1.3969  1.0947 -0.4412
  708MOL0     H97649   2.392   1.918   9.536  1.9426  0.0886 -1.0450
  708MOL0     H97650   2.341   1.937   9.371 -5.2563 -2.2506 -1.3977
  708MOL0     H97651   2.556   1.833   9.380  0.6698 -1.4394 -0.6573
  708MOL0     H97652   2.505   1.708   9.494 -1.1629  0.9951  0.2772
  708MOL0     H97653   2.630   1.578   9.261 -0.3382 -0.2461 -0.3236
  708MOL0     H97654   2.457   1.444   8.956 -0.1574 -0.9383  0.0329
  708MOL0     H97655   2.478   1.347   9.102 -1.5745  2.3170  3.7845
  708MOL0     H97656   2.683   1.530   8.963 -1.5726 -1.4990 -2.3277
  708MOL0     H97657   2.723   1.436   9.113 -0.2459  0.9917 -0.2166
  708MOL0     H97658   2.660   1.233   8.974  0.2173 -0.9569  0.5191
  708MOL0     H97659   2.685   1.346   8.831 -0.8809 -0.4407  0.1920
  708MOL0     H97660   2.903   1.215   8.871 -0.3541  1.8713 -2.5964
  708MOL0     H97661   2.927   1.380   8.901 -0.0046  2.2802  2.9167
  708MOL0     H97662   3.133   1.264   8.896  0.2700 -1.8955 -0.6894
  708MOL0     H97663   3.486   1.225   8.972  1.7410  2.7297 -4.1444
  708MOL0     H97664   3.359   1.306   8.874  3.3433  0.8871 -0.6928
  708MOL0     H97665   3.379   1.148   8.848 -2.8038  1.3221 -0.9032
  708MOL0     H97666   3.550   0.811   9.202 -0.6959 -4.5389  1.9551
  708MOL0     H97667   3.737   0.662   9.297 -0.0191 -2.0273  3.0133
  708MOL0     H97668   3.808   0.722   9.720  1.0679 -1.0646  1.0453
  708MOL0     H97669   3.899   0.572   9.675  1.7350  0.3428  1.5671
  708MOL0     H97670   4.006   0.851   9.676  2.4099  0.1223 -0.0002
  708MOL0     H97671   4.040   0.715   9.783 -2.3584  0.3664  1.0996
  708MOL0     H97672   4.088   0.702   9.470  1.5374 -2.6400 -0.3976
  708MOL0     H97673   4.143   0.583   9.583  1.0815 -0.4611 -2.1472
  708MOL0     H97674   4.292   0.756   9.693  0.0816  0.1595 -0.7401
  708MOL0     H97675   4.259   0.863   9.558  1.7627  1.3493  1.9291
  708MOL0     H97676   4.387   0.595   9.556  1.5439 -0.3523 -0.2703
  708MOL0     H97677   4.329   0.665   9.400 -1.8546 -3.4356  1.0540
  708MOL0     H97678   4.505   0.832   9.570 -0.6073  2.2292 -1.4985
  708MOL0     H97679   4.482   0.819   9.404 -2.2061 -2.6226 -0.4649
  708MOL0     H97680   4.610   0.585   9.434 -1.0796 -0.9025  0.0370
  708MOL0     H97681   4.617   0.632   9.600  2.7065  2.0138  0.7321
  708MOL0     H97682   4.837   0.690   9.527  1.0382  2.9741  2.2843
  708MOL0     H97683   4.743   0.835   9.547 -0.4951  0.7142 -0.5695
  708MOL0     H97684   3.706   0.897   9.660 -1.4395 -0.6550  1.4215
  708MOL0     H97685   3.570   1.056   9.548  2.2705  3.2777 -3.1385
  708MOL0     H97686   3.217   1.049   9.349 -1.0951  0.9681  1.1484
  708MOL0     H97687   2.991   1.129   9.280  2.3493 -2.1034  1.8429
  708MOL0     H97688   1.586   2.055   9.892  0.4756 -0.4029 -1.1542
  708MOL0     H97689   1.376   2.095  10.000 -0.3403 -4.7683  0.1346
  708MOL0     H97690   0.995   2.488   9.954  2.3673 -2.3703  0.8461
  708MOL0     H97691   0.752   2.542  10.039  0.7234  0.8676 -2.1228
  708MOL0     H97692   0.445   2.195  10.060 -0.3108  2.0856 -2.0491
  708MOL0     H97693   0.539   2.243  10.198 -1.7771 -5.8650 -1.0732
  708MOL0     H97694   0.349   2.312  10.288 -1.0204  0.4972 -0.0261
  708MOL0     H97695   0.265   2.298  10.136 -0.0125 -1.6426  1.6618
  708MOL0     H97696   0.448   2.538  10.217  0.6051  1.0590 -2.3079
  708MOL0     H97697   0.346   2.535  10.077 -0.8922 -2.4000 -1.2634
  708MOL0     H97698   0.243   2.499  10.366 -0.1803  0.7683 -0.2682
  708MOL0     H97699   0.141   2.541  10.226 -0.6969 -0.6320  1.2374
  708MOL0     H97700   0.204   2.913  10.369  1.9376  0.4768 -1.6586
  708MOL0     H97701   0.635   2.158   9.938 -3.3278  1.2632  1.7464
  708MOL0     H97702   0.950   2.003   9.922 -0.9583  1.4114  1.6007
  708MOL0     H97703   0.789   1.982   9.863  0.5013 -1.5682 -1.5677
  708MOL0     H97704   0.915   2.047   9.756  2.0316 -2.5576  0.3791
  709MOL0     O97705   9.124   9.653   7.240 -0.8458 -0.0427 -0.2078
  709MOL0     C97706   9.082   9.664   7.125  1.2483  0.2535  0.0245
  709MOL0     O97707   9.162   9.676   7.016  0.5479  0.0415 -0.5270
  709MOL0     C97708   9.301   9.666   7.040 -0.1427 -0.5874  0.4233
  709MOL0     C97709   9.372   9.754   7.123  0.9737  0.2850  0.4471
  709MOL0     C97710   9.512   9.753   7.117  0.0157  0.0063  0.3856
  709MOL0     C97711   9.591   9.672   7.032  1.1037  0.7965 -0.1100
  709MOL0     O97712   9.722   9.665   7.030 -0.1515  0.2910 -0.0009
  709MOL0     C97713   9.809   9.556   6.980 -0.4605 -0.2307 -0.5477
  709MOL0     C97714   9.955   9.581   7.020 -0.1672 -0.7912  0.1545
  709MOL0     C97715   9.979   9.572   7.170 -0.0245 -0.1029 -0.4970
  709MOL0     C97716  10.127   9.600   7.211  0.0381  1.1343 -0.4105
  709MOL0     C97717  10.219   9.473   7.204  0.0887 -0.4994 -0.6931
  709MOL0     C97718  10.360   9.518   7.164 -0.2445  0.3906 -0.1086
  709MOL0     C97719  10.462   9.404   7.166 -0.0227 -1.0031 -0.3736
  709MOL0     C97720  10.606   9.440   7.163  0.3897 -0.8122  0.8734
  709MOL0     N97721  10.700   9.330   7.190  0.7149  0.2896 -0.4686
  709MOL0     C97722  10.764   9.245   7.099 -0.4967  0.6716  0.6531
  709MOL0     C97723  10.841   9.163   7.175  0.4851  0.0510 -0.0295
  709MOL0     C97724  10.935   9.050   7.135  0.6156  0.3359 -0.0584
  709MOL0     C97725  11.066   9.095   7.080  0.6240  0.4671 -0.4505
  709MOL0     C97726  11.157   9.145   7.189 -0.5625  0.5627 -0.4134
  709MOL0     C97727  11.289   9.202   7.130  0.2936 -0.4712  1.0149
  709MOL0     O97728  11.271   9.313   7.034  0.7817  0.6135 -0.1137
  709MOL0     C97729  11.382   9.345   6.959 -0.0501  0.3784 -0.3365
  709MOL0     C97730  11.501   9.270   6.933 -0.9912  0.4153  0.4177
  709MOL0     C97731  11.607   9.326   6.864  0.4109  0.3519  0.3740
  709MOL0     C97732  11.728   9.236   6.854  0.0067  0.8280 -0.1091
  709MOL0     C97733  11.600   9.463   6.816  0.7115  0.4006  0.1014
  709MOL0     C97734  11.701   9.541   6.743  0.1902 -0.1033 -0.4154
  709MOL0     O97735  11.804   9.472   6.682 -0.0656  0.5440 -0.3026
  709MOL0     C97736  11.924   9.528   6.664 -0.3667 -0.1984 -0.5739
  709MOL0     C97737  11.999   9.500   6.552  0.6636 -0.0137 -0.1738
  709MOL0     C97738  12.130   9.537   6.535  0.8613 -0.4038 -0.1944
  709MOL0     C97739  12.192   9.627   6.621 -0.4821  0.2162 -0.2402
  709MOL0     O97740  12.316   9.672   6.588 -0.2846  1.2770  0.4705
  709MOL0     C97741  12.388   9.753   6.685 -0.3998 -0.2493  0.3781
  709MOL0     C97742  12.529   9.771   6.644 -0.0299  0.7038  0.2025
  709MOL0     C97743  12.533   9.840   6.499  0.2913 -0.3159 -0.1565
  709MOL0     C97744  12.676   9.875   6.465  0.6975  0.1796 -0.0175
  709MOL0     C97745  12.751   9.761   6.396 -0.4030  0.2021 -0.2595
  709MOL0     C97746  12.909   9.790   6.399 -0.3299 -0.4294  0.8565
  709MOL0     C97747  12.992   9.687   6.319 -0.2396  0.5386 -0.3877
  709MOL0     C97748  13.140   9.731   6.314 -0.4918 -0.2785 -0.4896
  709MOL0    Cl97749  13.231   9.604   6.238  0.4385  0.5465 -0.1747
  709MOL0     C97750  12.131   9.650   6.743 -0.1615  0.5705 -0.0120
  709MOL0     C97751  11.995   9.600   6.768  0.1986 -0.4400 -0.2172
  709MOL0     O97752  11.706   9.662   6.770 -1.0065  0.1448  0.1077
  709MOL0     C97753  11.490   9.532   6.840  0.5776  0.0919  0.1278
  709MOL0     C97754  11.380   9.475   6.912 -0.0877  0.1147 -0.6283
  709MOL0     N97755  10.824   9.201   7.310  0.1357  0.2953  0.1402
  709MOL0     N97756  10.739   9.305   7.314  0.3332  0.2658 -0.8568
  709MOL0     C97757   9.513   9.576   6.960 -0.8275  0.9368 -0.3183
  709MOL0     C97758   9.373   9.582   6.959 -0.2847  0.4561  0.2043
  709MOL0     C97759   8.932   9.668   7.098 -0.9037 -0.8101  0.3818
  709MOL0     C97760   8.884   9.601   6.978 -0.0554  0.3858  0.5813
  709MOL0     C97761   8.752   9.600   6.962  0.3364  0.0681  0.4821
  709MOL0     C97762   8.657   9.651   7.045  0.6022  0.4095 -0.0683
  709MOL0     O97763   8.525   9.645   6.997  1.0280  0.0704  0.1773
  709MOL0     C97764   8.423   9.655   7.095  1.0935  0.0780 -0.0333
  709MOL0     C97765   8.291   9.597   7.053  0.9481  0.4181 -0.3126
  709MOL0     C97766   8.223   9.686   6.953  0.6871 -0.4617  1.0917
  709MOL0     C97767   8.072   9.662   6.938  0.5864  0.2852 -0.4372
  709MOL0     C97768   8.015   9.702   6.815 -0.7778  0.9095  0.0788
  709MOL0     C97769   7.968   9.738   6.707  0.1891 -0.1270 -0.8661
  709MOL0     C97770   8.705   9.717   7.161  0.1917 -0.7492 -0.0321
  709MOL0     C97771   8.843   9.730   7.192  0.4709 -0.5800  0.3554
  709MOL0     C97772   8.886   9.816   7.305 -0.0130 -0.2763 -0.6047
  709MOL0     H97773   9.306   9.810   7.189  1.6119  0.2638  1.1185
  709MOL0     H97774   9.563   9.831   7.174 -2.9670  0.9755  1.9289
  709MOL0     H97775   9.809   9.551   6.871 -1.4634 -2.4652 -0.4923
  709MOL0     H97776   9.784   9.457   7.019  2.0463 -0.7750 -0.1630
  709MOL0     H97777  10.023   9.503   6.987 -1.5372 -2.4873  1.1319
  709MOL0     H97778   9.973   9.683   6.984 -0.8667 -0.7441 -0.0820
  709MOL0     H97779   9.924   9.660   7.204 -1.8785 -1.3355 -0.1221
  709MOL0     H97780   9.946   9.484   7.227 -1.3088  1.6294  1.5952
  709MOL0     H97781  10.175   9.674   7.146 -1.3573 -1.0407 -4.2445
  709MOL0     H97782  10.125   9.633   7.315 -1.3021  0.5024 -0.2050
  709MOL0     H97783  10.182   9.395   7.135 -1.2419 -1.2257  0.7659
  709MOL0     H97784  10.229   9.426   7.302 -0.2999 -1.1796 -0.9648
  709MOL0     H97785  10.358   9.555   7.061 -0.6924  0.9451  0.0910
  709MOL0     H97786  10.395   9.587   7.242  1.4627 -3.4565  2.8549
  709MOL0     H97787  10.446   9.346   7.074  3.3922 -0.0662 -1.7145
  709MOL0     H97788  10.446   9.345   7.257 -0.1706  1.2974  1.1580
  709MOL0     H97789  10.636   9.492   7.071 -1.7146  0.5676  0.8915
  709MOL0     H97790  10.613   9.520   7.237 -1.2062  3.7314 -3.3102
  709MOL0     H97791  10.758   9.246   6.990  0.1130 -2.8243  0.4932
  709MOL0     H97792  10.885   8.986   7.062  1.0245 -2.8522  2.2082
  709MOL0     H97793  10.946   8.978   7.217 -1.4405 -1.1629 -1.0114
  709MOL0     H97794  11.108   9.008   7.029 -2.2504 -0.6926 -1.0741
  709MOL0     H97795  11.045   9.174   7.007  0.4555 -0.3387 -1.2871
  709MOL0     H97796  11.121   9.239   7.234 -0.0010  0.9442 -0.7456
  709MOL0     H97797  11.179   9.067   7.263 -0.3785  0.6408 -0.3822
  709MOL0     H97798  11.369   9.224   7.201  2.3097 -0.9918 -0.9654
  709MOL0     H97799  11.315   9.115   7.070 -0.1205  1.5883 -2.4728
  709MOL0     H97800  11.506   9.174   6.984  0.6642  1.0813  1.5975
  709MOL0     H97801  11.704   9.133   6.826 -0.6752  0.0342  2.9762
  709MOL0     H97802  11.772   9.229   6.955  1.5554  2.1946 -0.6315
  709MOL0     H97803  11.810   9.270   6.790  0.6593  0.9632  0.7663
  709MOL0     H97804  11.954   9.435   6.477  0.3057 -1.4038  1.2027
  709MOL0     H97805  12.183   9.512   6.443 -1.8668 -1.4136 -1.5846
  709MOL0     H97806  12.341   9.851   6.689  0.7462  0.2724  2.0265
  709MOL0     H97807  12.387   9.703   6.783 -0.1198 -0.8116  0.1045
  709MOL0     H97808  12.566   9.851   6.709 -1.0290  1.1779  0.2062
  709MOL0     H97809  12.585   9.677   6.646 -2.0264 -0.5348  1.8903
  709MOL0     H97810  12.469   9.928   6.499 -1.1759 -1.3557 -0.5795
  709MOL0     H97811  12.490   9.778   6.420 -1.2777 -0.8455  1.0718
  709MOL0     H97812  12.734   9.911   6.550  0.9841  1.2813 -0.6500
  709MOL0     H97813  12.674   9.955   6.390 -0.5908  0.4464  0.2683
  709MOL0     H97814  12.720   9.674   6.455 -2.8947  1.0860 -0.1532
  709MOL0     H97815  12.728   9.742   6.290  2.1375 -0.3378 -0.7943
  709MOL0     H97816  12.954   9.806   6.497  0.7286  1.3010  0.1345
  709MOL0     H97817  12.922   9.889   6.354 -1.1131 -0.3487  0.7779
  709MOL0     H97818  12.972   9.673   6.213  0.9317 -2.3812 -0.3171
  709MOL0     H97819  12.979   9.588   6.364 -0.6682  0.4486 -0.7053
  709MOL0     H97820  13.172   9.759   6.415 -1.5931  3.6360 -1.0470
  709MOL0     H97821  13.150   9.822   6.253  0.1444 -0.3827 -0.5416
  709MOL0     H97822  12.180   9.707   6.821  1.5576 -1.2333  0.2872
  709MOL0     H97823  11.948   9.611   6.865  1.1375  1.6923  0.0387
  709MOL0     H97824  11.485   9.627   6.789  0.9522 -1.6768 -3.4785
  709MOL0     H97825  11.303   9.545   6.941  2.1117  1.7148  1.7638
  709MOL0     H97826   9.545   9.503   6.887 -1.3187 -0.5023  0.8651
  709MOL0     H97827   9.321   9.512   6.894  3.9920 -1.5412 -1.4441
  709MOL0     H97828   8.941   9.561   6.894 -1.2171 -1.0536  0.4505
  709MOL0     H97829   8.715   9.549   6.873  1.5479 -1.5904  0.8823
  709MOL0     H97830   8.458   9.594   7.178  4.0547  0.0639 -1.1885
  709MOL0     H97831   8.411   9.758   7.128 -2.2655 -1.1026  3.0502
  709MOL0     H97832   8.218   9.589   7.134 -0.0256 -3.1034 -1.3596
  709MOL0     H97833   8.289   9.493   7.018  0.5527  0.3690 -0.1520
  709MOL0     H97834   8.238   9.788   6.989  1.7200 -0.1891 -0.0588
  709MOL0     H97835   8.272   9.670   6.857 -1.7450 -0.2869 -0.2710
  709MOL0     H97836   8.028   9.714   7.024  1.8986  0.8455 -0.0671
  709MOL0     H97837   8.048   9.556   6.947 -0.8614  0.5233 -1.2406
  709MOL0     H97838   7.938   9.785   6.615  1.2016  1.3356 -0.4780
  709MOL0     H97839   8.634   9.769   7.224 -1.1207  1.5668 -3.1454
  709MOL0     H97840   8.887   9.769   7.404  0.4823  1.0503  0.0511
  709MOL0     H97841   8.988   9.852   7.289 -0.5090  1.8467  0.5372
  709MOL0     H97842   8.826   9.906   7.321 -0.9302 -1.2464  1.7922
  710MOL0     O97843   2.257   4.815   1.090  0.6753  0.0537 -0.3605
  710MOL0     C97844   2.347   4.889   1.119  0.3016 -0.6015 -0.8853
  710MOL0     O97845   2.455   4.938   1.044  0.3057  0.6733 -0.6014
  710MOL0     C97846   2.450   4.934   0.900 -0.0145 -0.2434  0.0041
  710MOL0     C97847   2.557   4.987   0.828 -0.9120  0.5397  0.5279
  710MOL0     C97848   2.571   4.987   0.691 -0.1518  0.4811  1.4852
  710MOL0     C97849   2.475   4.928   0.615  0.4703 -0.3441 -0.8239
  710MOL0     O97850   2.492   4.915   0.483  0.2076 -0.0897  0.1437
  710MOL0     C97851   2.395   4.843   0.408  0.3637  0.1921 -0.3038
  710MOL0     C97852   2.469   4.803   0.274  0.5194 -0.3824 -0.0896
  710MOL0     C97853   2.563   4.687   0.295 -0.0977 -0.6748 -0.1641
  710MOL0     C97854   2.611   4.657   0.151  0.7296 -0.7298 -0.0856
  710MOL0     C97855   2.699   4.524   0.152  0.5727  0.0213  1.4775
  710MOL0     C97856   2.839   4.534   0.209 -0.1145 -0.2373  1.0014
  710MOL0     C97857   2.898   4.390   0.213 -0.3270 -1.5577 -0.4638
  710MOL0     C97858   3.048   4.395   0.264 -0.2191  0.0739 -0.0668
  710MOL0     N97859   3.145   4.421   0.160 -0.4911  0.0707  0.8171
  710MOL0     C97860   3.180   4.540   0.109 -0.0754 -0.6821  0.7895
  710MOL0     C97861   3.268   4.522   0.002  0.4054  0.3683  0.0420
  710MOL0     C97862   3.319   4.633  -0.073  0.1284 -0.0170  0.7037
  710MOL0     C97863   3.415   4.594  -0.191  1.7919 -0.4686  0.0645
  710MOL0     C97864   3.542   4.520  -0.147  0.0939 -0.1000 -0.1953
  710MOL0     C97865   3.656   4.537  -0.255 -0.8329 -0.2485  0.0615
  710MOL0     O97866   3.659   4.667  -0.305 -0.2301 -0.3020  0.3968
  710MOL0     C97867   3.778   4.723  -0.356 -0.1406  0.6282  0.6515
  710MOL0     C97868   3.823   4.847  -0.321  0.0640 -0.0730  0.7314
  710MOL0     C97869   3.943   4.894  -0.377 -0.0169  0.7279  0.4914
  710MOL0     C97870   3.978   5.035  -0.328 -0.3669  0.0106 -0.2573
  710MOL0     C97871   4.024   4.819  -0.465 -0.4754 -0.2707  0.3537
  710MOL0     C97872   4.151   4.874  -0.517  0.3113  0.3965  0.5500
  710MOL0     O97873   4.259   4.785  -0.521  0.6982 -0.0592 -0.1567
  710MOL0     C97874   4.389   4.831  -0.512 -0.7015 -0.5914  0.9151
  710MOL0     C97875   4.491   4.735  -0.544  0.1327  0.1896  0.0874
  710MOL0     C97876   4.625   4.774  -0.535 -0.7265  0.2529  0.5501
  710MOL0     C97877   4.661   4.900  -0.480 -1.0062 -0.2263  0.3982
  710MOL0     O97878   4.790   4.936  -0.450  0.3081  0.2110 -0.2893
  710MOL0     C97879   4.908   4.848  -0.496  0.7003  0.2024  0.6425
  710MOL0     C97880   5.031   4.939  -0.484 -0.4338 -0.6366 -0.6520
  710MOL0     C97881   5.164   4.879  -0.552  0.5309  0.9786 -0.3610
  710MOL0     C97882   5.206   4.762  -0.469 -0.0328 -0.7014 -0.4079
  710MOL0     C97883   5.339   4.704  -0.516  0.3245 -0.6721  0.2714
  710MOL0     C97884   5.377   4.578  -0.429 -0.1727 -0.6893 -0.1686
  710MOL0     C97885   5.295   4.456  -0.467 -0.2480  0.7443  0.7665
  710MOL0     C97886   5.315   4.329  -0.379 -0.0133 -0.6601 -0.6987
  710MOL0    Cl97887   5.498   4.294  -0.390 -0.1527  0.0945 -0.5698
  710MOL0     C97888   4.560   4.992  -0.453 -1.3318  0.9280 -0.2073
  710MOL0     C97889   4.429   4.963  -0.476  0.7294  0.8176 -0.3500
  710MOL0     O97890   4.151   4.996  -0.549 -0.1279 -0.1445  0.4345
  710MOL0     C97891   3.973   4.699  -0.510 -0.7481  0.0416 -0.6355
  710MOL0     C97892   3.856   4.651  -0.447  0.5375 -0.7184  0.3289
  710MOL0     N97893   3.276   4.383  -0.019  0.8429 -0.3871 -0.2456
  710MOL0     N97894   3.200   4.331   0.070 -0.0239  0.3832 -0.0996
  710MOL0     C97895   2.364   4.875   0.688 -0.5399  0.6465 -0.1358
  710MOL0     C97896   2.347   4.880   0.826 -0.6778 -1.1615 -0.6988
  710MOL0     C97897   2.356   4.927   1.269  0.0471 -0.0937  0.3754
  710MOL0     C97898   2.456   5.016   1.303  0.8204 -0.2980  0.2738
  710MOL0     C97899   2.474   5.039   1.438  0.8947  0.3185  0.5440
  710MOL0     C97900   2.403   4.979   1.540  0.4357  0.1427  0.3993
  710MOL0     O97901   2.431   4.998   1.671  0.1690 -0.3734  0.3631
  710MOL0     C97902   2.473   4.886   1.740 -0.2863 -0.0263 -0.0314
  710MOL0     C97903   2.535   4.930   1.875  0.2540  0.0158  1.1148
  710MOL0     C97904   2.666   5.002   1.860  0.3347  0.6221 -0.7225
  710MOL0     C97905   2.723   5.031   2.001  0.3436 -0.5785 -0.4394
  710MOL0     C97906   2.868   5.042   1.997 -0.4959 -0.3682  0.6282
  710MOL0     C97907   2.990   5.018   1.991  0.1156 -0.3229 -0.1817
  710MOL0     C97908   2.293   4.904   1.503 -0.0929  0.3005  0.1732
  710MOL0     C97909   2.274   4.867   1.375  0.3709 -0.1358 -0.0534
  710MOL0     C97910   2.170   4.764   1.349 -0.7247 -0.7158  0.2521
  710MOL0     H97911   2.633   5.043   0.883 -1.6434  1.0254  1.0581
  710MOL0     H97912   2.658   5.025   0.638 -1.0578 -0.1740 -0.5346
  710MOL0     H97913   2.317   4.917   0.388 -2.3668 -2.0068  1.5634
  710MOL0     H97914   2.354   4.754   0.457 -3.0513  0.9910 -1.4566
  710MOL0     H97915   2.396   4.770   0.199  0.6074  0.4197 -0.5400
  710MOL0     H97916   2.515   4.888   0.222 -1.7909 -0.1129 -1.8719
  710MOL0     H97917   2.646   4.707   0.363 -0.6205  0.8231  0.0838
  710MOL0     H97918   2.503   4.603   0.331 -0.2257 -0.9783 -1.0553
  710MOL0     H97919   2.526   4.637   0.086  0.3053  2.2963 -0.5990
  710MOL0     H97920   2.666   4.732   0.094 -0.8090 -0.3458 -1.1125
  710MOL0     H97921   2.709   4.496   0.046  1.5632 -2.7790  2.2285
  710MOL0     H97922   2.635   4.453   0.205  0.6595 -1.9257 -0.8460
  710MOL0     H97923   2.898   4.606   0.151 -0.5588 -0.1944  0.5899
  710MOL0     H97924   2.836   4.582   0.307 -0.5256  1.6567  0.1107
  710MOL0     H97925   2.900   4.357   0.109  1.3764  1.4413 -1.5042
  710MOL0     H97926   2.842   4.319   0.275 -2.7809 -1.0778 -2.0009
  710MOL0     H97927   3.056   4.470   0.343 -2.9804 -0.8142  1.1619
  710MOL0     H97928   3.089   4.299   0.298 -1.2552 -1.1845 -2.1537
  710MOL0     H97929   3.140   4.633   0.148 -0.9510 -0.6092 -0.2411
  710MOL0     H97930   3.368   4.697   0.001 -1.8460  0.1403  1.9713
  710MOL0     H97931   3.235   4.683  -0.122  1.7622 -0.5680 -2.9860
  710MOL0     H97932   3.363   4.538  -0.270  1.8239  1.8788 -1.7152
  710MOL0     H97933   3.437   4.690  -0.237  0.0710  1.4539  2.9118
  710MOL0     H97934   3.566   4.557  -0.047 -0.5241  3.0222 -1.1059
  710MOL0     H97935   3.524   4.412  -0.150  1.4125 -0.5018  3.0691
  710MOL0     H97936   3.753   4.493  -0.229 -0.0393  2.5578  2.4910
  710MOL0     H97937   3.618   4.485  -0.343 -1.9768  3.7762 -2.0925
  710MOL0     H97938   3.768   4.906  -0.248  0.1277 -3.2344  3.5444
  710MOL0     H97939   4.075   5.050  -0.281  1.2871  2.1836 -3.8967
  710MOL0     H97940   3.899   5.062  -0.257 -3.3557 -2.2360 -2.4460
  710MOL0     H97941   3.953   5.110  -0.404 -2.5816 -0.0360  0.3458
  710MOL0     H97942   4.452   4.634  -0.557 -4.0541  1.7156 -0.6324
  710MOL0     H97943   4.700   4.696  -0.541 -1.4923 -0.6870  2.3355
  710MOL0     H97944   4.912   4.773  -0.417  0.7408 -2.3139 -1.6112
  710MOL0     H97945   4.895   4.798  -0.592 -1.2289 -0.1166  1.0266
  710MOL0     H97946   5.006   5.033  -0.533  0.6967 -0.4378 -0.8748
  710MOL0     H97947   5.055   4.974  -0.383  0.3610 -1.9363 -0.3614
  710MOL0     H97948   5.246   4.951  -0.545  0.6125  0.9732 -1.1580
  710MOL0     H97949   5.153   4.848  -0.656  2.2479 -0.6371 -0.1170
  710MOL0     H97950   5.126   4.688  -0.480 -1.0098  0.4700 -1.4469
  710MOL0     H97951   5.214   4.805  -0.368 -1.6285  1.4788 -1.1384
  710MOL0     H97952   5.314   4.666  -0.616 -1.5188  1.0355  0.0123
  710MOL0     H97953   5.426   4.768  -0.528  1.6149 -2.8487 -5.7646
  710MOL0     H97954   5.351   4.605  -0.327 -0.7669 -0.1253 -0.4610
  710MOL0     H97955   5.486   4.569  -0.427 -0.0059  0.9806 -0.2744
  710MOL0     H97956   5.324   4.432  -0.570 -2.6633  0.7184  0.0349
  710MOL0     H97957   5.191   4.487  -0.460 -0.3942  1.4770 -2.8156
  710MOL0     H97958   5.248   4.257  -0.425 -2.7258  0.8481  0.6592
  710MOL0     H97959   5.276   4.344  -0.278  0.2091 -4.3885  0.0949
  710MOL0     H97960   4.582   5.089  -0.408  1.0760  0.9969 -1.3451
  710MOL0     H97961   4.359   5.044  -0.459 -2.6951 -2.5465  3.5333
  710MOL0     H97962   4.029   4.638  -0.580 -2.0301 -1.9928  0.0067
  710MOL0     H97963   3.815   4.556  -0.476 -0.3308 -0.7407  1.5550
  710MOL0     H97964   2.288   4.842   0.619 -1.2519  1.4514  0.2421
  710MOL0     H97965   2.251   4.841   0.859  1.3436 -6.3877 -0.0742
  710MOL0     H97966   2.522   5.072   1.239 -0.2536  1.1324  0.3630
  710MOL0     H97967   2.548   5.114   1.467 -0.6802  1.9675  0.4769
  710MOL0     H97968   2.399   4.808   1.760 -0.4148  0.5317  1.8040
  710MOL0     H97969   2.552   4.841   1.679  1.0587  1.7053  0.3552
  710MOL0     H97970   2.548   4.834   1.926  1.1595 -0.5818 -0.1780
  710MOL0     H97971   2.457   4.985   1.928 -1.9137  0.0016 -1.8225
  710MOL0     H97972   2.725   4.922   1.815  0.1015 -0.4800  0.8330
  710MOL0     H97973   2.659   5.094   1.802 -1.6165  0.9706 -0.0165
  710MOL0     H97974   2.691   4.945   2.060  0.4744 -1.7478 -2.0002
  710MOL0     H97975   2.673   5.118   2.044  0.1743  0.9423 -3.4383
  710MOL0     H97976   3.093   4.998   1.973 -0.0173  0.2434 -1.7693
  710MOL0     H97977   2.230   4.863   1.581  0.2310  0.3006  0.4372
  710MOL0     H97978   2.210   4.671   1.307  0.8065  1.5375 -3.8075
  710MOL0     H97979   2.114   4.749   1.442  0.7957  0.9168  1.4753
  710MOL0     H97980   2.105   4.819   1.280  2.3817  2.8521 -0.0993
  711MOL0     O97981   9.175   1.166   5.435  0.5799 -1.1008 -0.8207
  711MOL0     C97982   9.075   1.207   5.374 -0.3765 -0.3505  0.8302
  711MOL0     O97983   9.091   1.268   5.250  0.5583 -0.1415  0.3190
  711MOL0     C97984   9.201   1.223   5.183 -0.2096 -0.6595 -0.3083
  711MOL0     C97985   9.202   1.107   5.113  0.6833 -0.1828 -0.5096
  711MOL0     C97986   9.315   1.068   5.043  0.5616  0.9206 -0.0591
  711MOL0     C97987   9.430   1.152   5.048  0.2785  0.9502  0.4940
  711MOL0     O97988   9.535   1.099   4.972 -0.3021 -0.2745  0.0682
  711MOL0     C97989   9.653   1.177   4.954  0.5349  0.1544 -0.5865
  711MOL0     C97990   9.737   1.122   4.839 -0.7930  1.0646  0.2583
  711MOL0     C97991   9.884   1.143   4.852  0.2072  0.2377 -0.1953
  711MOL0     C97992   9.949   1.068   4.740  0.0203 -0.1022 -0.1087
  711MOL0     C97993  10.090   1.114   4.715  0.7621  1.1715  0.0402
  711MOL0     C97994  10.145   1.058   4.586  0.3548  0.6982 -0.8533
  711MOL0     C97995  10.300   1.092   4.583 -0.0186 -0.6927  0.4686
  711MOL0     C97996  10.385   1.010   4.673 -0.8547  0.5046 -0.0937
  711MOL0     N97997  10.528   1.040   4.649  0.1836 -0.6813  0.7238
  711MOL0     C97998  10.580   1.034   4.521 -0.6289 -0.1951 -0.3423
  711MOL0     C97999  10.715   1.043   4.545  0.0703  0.1981 -0.0885
  711MOL0     C98000  10.822   1.048   4.449 -0.0464  0.0503  0.4365
  711MOL0     C98001  10.812   0.937   4.337 -0.1842 -0.8806 -0.1540
  711MOL0     C98002  10.788   0.797   4.395 -0.8284  0.5212 -0.2071
  711MOL0     C98003  10.723   0.720   4.283  0.0753 -0.1181 -0.5766
  711MOL0     O98004  10.593   0.761   4.244  0.3102 -0.1798 -0.0680
  711MOL0     C98005  10.481   0.723   4.310  0.3939  0.7564 -0.0139
  711MOL0     C98006  10.368   0.789   4.282 -0.5699 -0.3207 -0.4812
  711MOL0     C98007  10.239   0.750   4.316  0.0122 -0.0742 -1.0052
  711MOL0     C98008  10.119   0.840   4.263 -0.3399 -0.6399 -0.1563
  711MOL0     C98009  10.231   0.642   4.409  0.0492 -0.1520  0.1926
  711MOL0     C98010  10.107   0.579   4.458  0.6051 -0.0426  1.1925
  711MOL0     O98011   9.998   0.601   4.378 -0.7617 -0.2129 -0.5381
  711MOL0     C98012   9.876   0.550   4.408  0.2306  0.7572 -0.8319
  711MOL0     C98013   9.789   0.625   4.492 -0.3201 -0.0759 -0.5592
  711MOL0     C98014   9.658   0.584   4.501 -0.1558  0.0619 -0.0153
  711MOL0     C98015   9.605   0.465   4.438  0.1144  0.5069 -0.4750
  711MOL0     O98016   9.477   0.417   4.447 -0.3150  0.4513 -0.4901
  711MOL0     C98017   9.425   0.421   4.580 -0.7230  0.4495  0.0699
  711MOL0     C98018   9.312   0.317   4.600 -1.1419  0.8968 -0.2516
  711MOL0     C98019   9.184   0.330   4.518 -1.3595  0.2333 -0.1236
  711MOL0     C98020   9.123   0.468   4.538  0.5361  0.6929 -0.2796
  711MOL0     C98021   9.020   0.505   4.439  0.4459 -0.4245 -0.4569
  711MOL0     C98022   9.066   0.493   4.296  0.0181 -0.7172 -0.9468
  711MOL0     C98023   8.967   0.525   4.187 -0.8768 -0.1510  0.1441
  711MOL0     C98024   8.903   0.661   4.187 -0.3462  0.7217 -0.0489
  711MOL0    Cl98025   9.020   0.794   4.153 -0.0378  0.0341 -0.0732
  711MOL0     C98026   9.689   0.393   4.362 -0.2749  0.1434 -0.6661
  711MOL0     C98027   9.826   0.434   4.351  0.1251 -0.3683 -0.7163
  711MOL0     O98028  10.106   0.523   4.562  0.3910  0.0781 -0.0419
  711MOL0     C98029  10.353   0.578   4.458 -0.0934 -0.8053  0.3422
  711MOL0     C98030  10.469   0.614   4.397 -0.4506 -0.0714  0.0434
  711MOL0     N98031  10.740   1.060   4.684 -0.0992 -0.5076  0.7277
  711MOL0     N98032  10.625   1.050   4.741 -0.7285 -0.3735  0.3551
  711MOL0     C98033   9.425   1.274   5.116  0.4453  0.0344 -0.9968
  711MOL0     C98034   9.314   1.310   5.188  0.0139  0.7333 -0.9103
  711MOL0     C98035   8.944   1.223   5.435 -0.1488 -0.3417 -0.8243
  711MOL0     C98036   8.840   1.296   5.376 -0.2927  0.6359  0.5880
  711MOL0     C98037   8.710   1.315   5.437  0.7977 -0.4459  0.5601
  711MOL0     C98038   8.677   1.261   5.559 -0.2736 -0.0214 -1.1913
  711MOL0     O98039   8.548   1.254   5.615  0.1389  0.0835  0.2371
  711MOL0     C98040   8.441   1.252   5.523  0.4766 -0.2737  0.6320
  711MOL0     C98041   8.310   1.195   5.553 -0.3975  0.0380 -0.3230
  711MOL0     C98042   8.248   1.255   5.684  0.6271  0.4264 -0.0156
  711MOL0     C98043   8.191   1.402   5.669  0.5138 -0.6320  0.9469
  711MOL0     C98044   8.107   1.448   5.778  0.1970  0.5114 -0.3380
  711MOL0     C98045   8.037   1.477   5.872  0.3138  0.0665 -0.4007
  711MOL0     C98046   8.778   1.188   5.622 -0.7615 -0.0358 -0.6529
  711MOL0     C98047   8.909   1.168   5.565  0.8686 -0.0070  0.5570
  711MOL0     C98048   9.002   1.091   5.649 -0.2329  0.0895  0.0493
  711MOL0     H98049   9.106   1.057   5.102  0.4342  0.1913 -0.0904
  711MOL0     H98050   9.309   0.983   4.976  4.2823  2.1030 -2.1752
  711MOL0     H98051   9.712   1.184   5.045  0.3736 -1.7665 -0.2964
  711MOL0     H98052   9.622   1.272   4.910 -2.7002 -1.3374 -1.9243
  711MOL0     H98053   9.708   1.019   4.819  1.0675  0.7096 -0.7640
  711MOL0     H98054   9.705   1.179   4.752  1.1535  1.1958 -0.4121
  711MOL0     H98055   9.914   1.248   4.848  0.5113  0.3429  2.6776
  711MOL0     H98056   9.911   1.105   4.951 -2.2119  0.9972  0.8374
  711MOL0     H98057   9.931   0.962   4.764 -2.6332  0.5304  1.1461
  711MOL0     H98058   9.886   1.086   4.652 -0.6863  0.3174  0.4654
  711MOL0     H98059  10.152   1.079   4.799  0.9055 -1.5875 -1.1129
  711MOL0     H98060  10.095   1.223   4.708 -0.9779  1.7285  4.2376
  711MOL0     H98061  10.137   0.949   4.595 -3.8348  0.9923  1.3157
  711MOL0     H98062  10.083   1.092   4.502 -0.4602  0.3871 -0.3911
  711MOL0     H98063  10.314   1.200   4.596  0.2041 -0.8496  1.5620
  711MOL0     H98064  10.325   1.078   4.477 -3.6183  0.1170 -0.6278
  711MOL0     H98065  10.354   1.009   4.778 -0.6263  2.5427  0.0329
  711MOL0     H98066  10.386   0.903   4.652  1.8765  0.8986 -2.6162
  711MOL0     H98067  10.532   1.038   4.424 -1.6583 -2.1589  0.0326
  711MOL0     H98068  10.920   1.045   4.498 -0.4913  0.9646  1.4251
  711MOL0     H98069  10.817   1.145   4.399  3.0189  0.2778  0.4098
  711MOL0     H98070  10.727   0.967   4.275 -0.1991 -0.4521  0.0650
  711MOL0     H98071  10.904   0.930   4.279 -0.3699  1.1243 -0.7593
  711MOL0     H98072  10.880   0.745   4.423 -1.1358 -1.1506 -2.1112
  711MOL0     H98073  10.716   0.801   4.478 -0.4638  1.4737  0.0788
  711MOL0     H98074  10.789   0.727   4.196  2.2087  2.1475  1.0596
  711MOL0     H98075  10.714   0.614   4.308 -1.7677  0.4485  1.5191
  711MOL0     H98076  10.380   0.867   4.207  0.7750 -0.4734 -0.4448
  711MOL0     H98077  10.045   0.777   4.213 -1.2751 -1.5476  2.2292
  711MOL0     H98078  10.161   0.909   4.189  2.1704 -0.8835  0.9169
  711MOL0     H98079  10.073   0.897   4.343  0.2350 -0.1181 -0.1917
  711MOL0     H98080   9.803   0.724   4.535  1.4190 -0.1959 -0.7793
  711MOL0     H98081   9.593   0.640   4.566 -0.7365 -1.4246  0.7404
  711MOL0     H98082   9.496   0.376   4.650 -0.6132 -1.7209 -1.3591
  711MOL0     H98083   9.393   0.522   4.607  0.2908  0.5789  0.8574
  711MOL0     H98084   9.353   0.217   4.579 -4.4815 -1.1764  2.0808
  711MOL0     H98085   9.294   0.311   4.707  3.2709  0.1533  0.6782
  711MOL0     H98086   9.097   0.268   4.542 -1.9726  1.2628  0.3907
  711MOL0     H98087   9.209   0.309   4.413 -0.6304 -0.5881  0.2003
  711MOL0     H98088   9.201   0.542   4.519  1.0762  0.1909 -0.0489
  711MOL0     H98089   9.084   0.479   4.639  3.0584  1.3493  0.7039
  711MOL0     H98090   8.932   0.441   4.449 -1.3752  2.1002  0.9537
  711MOL0     H98091   8.976   0.603   4.462  0.1222 -0.5087 -0.7127
  711MOL0     H98092   9.111   0.398   4.266 -0.7317 -1.2040 -0.5749
  711MOL0     H98093   9.139   0.574   4.284  0.0711 -0.4398  0.9908
  711MOL0     H98094   8.883   0.455   4.183 -2.1845  1.0667  3.2678
  711MOL0     H98095   9.023   0.507   4.095 -1.0181 -0.6306  0.1523
  711MOL0     H98096   8.850   0.679   4.281 -1.8030 -3.0322  0.0551
  711MOL0     H98097   8.827   0.656   4.108 -0.5899 -0.6853  0.2469
  711MOL0     H98098   9.654   0.295   4.331 -0.7348 -0.4524  1.5121
  711MOL0     H98099   9.893   0.371   4.294  0.7482  1.8342 -2.5371
  711MOL0     H98100  10.352   0.488   4.518 -0.6220 -2.2922 -1.7898
  711MOL0     H98101  10.558   0.556   4.421  1.1357  1.3999 -1.9548
  711MOL0     H98102   9.509   1.343   5.117  1.2083 -0.6152  3.9593
  711MOL0     H98103   9.298   1.405   5.237  0.4623  0.2261  0.2666
  711MOL0     H98104   8.861   1.338   5.277  0.2080  0.1486  0.4859
  711MOL0     H98105   8.626   1.356   5.382  1.3249  0.0675  0.1057
  711MOL0     H98106   8.427   1.355   5.490  1.0319  0.0189  1.2851
  711MOL0     H98107   8.467   1.201   5.430 -1.2360 -0.0432 -0.0022
  711MOL0     H98108   8.318   1.086   5.563 -0.0344  0.1415  0.6666
  711MOL0     H98109   8.235   1.217   5.477 -0.0921 -0.5634 -0.8070
  711MOL0     H98110   8.160   1.194   5.707 -0.5801  1.6675 -1.2333
  711MOL0     H98111   8.326   1.245   5.760  3.7027 -0.0956 -2.9912
  711MOL0     H98112   8.133   1.416   5.578  0.4968  0.9639  1.1737
  711MOL0     H98113   8.271   1.475   5.656  0.1873 -0.4598 -0.2118
  711MOL0     H98114   7.969   1.492   5.954  0.7672 -2.3643  0.5105
  711MOL0     H98115   8.753   1.129   5.710 -1.0559  0.8488 -0.1325
  711MOL0     H98116   8.971   1.055   5.748  3.0617 -1.2146  0.7245
  711MOL0     H98117   9.027   0.996   5.601 -0.5066 -0.6205  1.2541
  711MOL0     H98118   9.088   1.156   5.664  0.5095 -1.0364  0.8196
  712MOL0     O98119   4.695   5.456   1.949  0.5523  0.1009 -0.2530
  712MOL0     C98120   4.688   5.351   1.884 -0.2576  0.3925  0.6859
  712MOL0     O98121   4.793   5.282   1.839 -0.4032  0.1641 -0.2440
  712MOL0     C98122   4.918   5.306   1.899  0.4727  0.7485  0.0697
  712MOL0     C98123   4.939   5.342   2.036  0.3630 -0.1561  0.8110
  712MOL0     C98124   5.065   5.367   2.085 -0.0704  0.4364  0.1092
  712MOL0     C98125   5.185   5.346   2.010  0.1799 -1.0218 -0.3870
  712MOL0     O98126   5.318   5.369   2.051  0.1582 -0.0026  0.2151
  712MOL0     C98127   5.353   5.507   2.031  0.1389  0.1150  0.0819
  712MOL0     C98128   5.496   5.533   2.071  0.2035 -0.8815 -1.1197
  712MOL0     C98129   5.591   5.457   1.976  0.3115  0.0834  0.4180
  712MOL0     C98130   5.745   5.500   2.000 -0.1877  0.4394  0.7284
  712MOL0     C98131   5.835   5.427   1.903  0.3178  0.0383 -0.0319
  712MOL0     C98132   5.987   5.470   1.934  0.4243 -0.0490  0.4447
  712MOL0     C98133   6.034   5.431   2.072 -0.8621  0.8831  0.0004
  712MOL0     C98134   6.186   5.434   2.087 -0.2418 -0.2753 -1.2147
  712MOL0     N98135   6.246   5.564   2.055  0.0803 -0.2342  0.4690
  712MOL0     C98136   6.292   5.661   2.135  1.0212  0.0802  0.0844
  712MOL0     C98137   6.377   5.736   2.073  0.1269 -0.0684 -0.2015
  712MOL0     C98138   6.456   5.849   2.130  0.2621 -0.5028  1.0537
  712MOL0     C98139   6.606   5.816   2.137  0.2883 -0.2778  0.1842
  712MOL0     C98140   6.680   5.903   2.228  0.0548 -0.0045 -0.4928
  712MOL0     C98141   6.828   5.883   2.234 -0.4300  0.0086 -0.2181
  712MOL0     O98142   6.856   5.748   2.242 -0.3186 -0.7452 -0.8115
  712MOL0     C98143   6.991   5.726   2.285  0.4126 -0.2969  0.1427
  712MOL0     C98144   7.101   5.813   2.298 -0.4021 -0.7826  0.2542
  712MOL0     C98145   7.229   5.768   2.327  0.6382  0.5170 -0.3043
  712MOL0     C98146   7.343   5.865   2.348 -0.1151  0.1410 -0.1770
  712MOL0     C98147   7.251   5.633   2.345 -0.1640 -0.5382  0.1907
  712MOL0     C98148   7.389   5.584   2.374  0.8830  0.5204 -0.0503
  712MOL0     O98149   7.392   5.464   2.440 -0.5851 -0.5970  0.1871
  712MOL0     C98150   7.520   5.426   2.480  0.1092 -0.8469  0.3126
  712MOL0     C98151   7.586   5.473   2.592 -0.6017 -0.1672  0.0144
  712MOL0     C98152   7.710   5.425   2.642 -0.5586  0.7050 -0.3854
  712MOL0     C98153   7.766   5.314   2.571 -0.6197  0.0557 -0.2425
  712MOL0     O98154   7.891   5.273   2.609 -0.1494  0.0270  0.2380
  712MOL0     C98155   7.920   5.133   2.579  0.2831  0.1360 -0.8854
  712MOL0     C98156   8.053   5.103   2.646  0.6907 -0.6866  0.0666
  712MOL0     C98157   8.086   4.949   2.629  0.4547  0.0671 -0.1215
  712MOL0     C98158   8.211   4.923   2.707  0.2141  0.1680 -0.0963
  712MOL0     C98159   8.250   4.784   2.739  0.9515 -0.4076 -0.4729
  712MOL0     C98160   8.302   4.716   2.612 -0.0406 -0.8400  0.6462
  712MOL0     C98161   8.358   4.569   2.639  0.7246 -0.2064  0.3314
  712MOL0     C98162   8.500   4.547   2.609 -0.1431  0.3505  0.2374
  712MOL0    Cl98163   8.600   4.622   2.740 -0.2299 -0.0008  0.6170
  712MOL0     C98164   7.698   5.264   2.464  0.0290  0.0043 -0.5763
  712MOL0     C98165   7.578   5.318   2.417  0.5108 -0.4648  1.2218
  712MOL0     O98166   7.487   5.632   2.314 -0.0536 -0.2012 -0.7886
  712MOL0     C98167   7.141   5.552   2.346 -0.4249 -1.0549  0.2009
  712MOL0     C98168   7.015   5.595   2.317  0.1734 -0.2462  0.4993
  712MOL0     N98169   6.389   5.684   1.951 -0.4874 -0.6335 -0.3451
  712MOL0     N98170   6.320   5.580   1.940  0.0468  0.3965  0.6170
  712MOL0     C98171   5.169   5.308   1.877 -0.4141 -0.9205 -0.9400
  712MOL0     C98172   5.037   5.284   1.825  0.0358 -0.1292  0.0334
  712MOL0     C98173   4.555   5.316   1.835  0.2598 -0.0945 -0.5584
  712MOL0     C98174   4.444   5.399   1.884 -0.2705  0.5315 -0.3531
  712MOL0     C98175   4.320   5.371   1.838  0.0633 -0.1781 -0.1478
  712MOL0     C98176   4.287   5.282   1.733  0.9934 -0.2350 -0.5835
  712MOL0     O98177   4.164   5.274   1.675  0.4310  0.3733 -0.5266
  712MOL0     C98178   4.059   5.373   1.716 -0.7690  0.7875  0.0482
  712MOL0     C98179   3.946   5.352   1.619 -0.2351 -0.4593 -0.0845
  712MOL0     C98180   3.851   5.242   1.658  0.0322 -0.7743 -0.3987
  712MOL0     C98181   3.771   5.188   1.536  0.0136 -0.4579 -0.1235
  712MOL0     C98182   3.669   5.282   1.492  0.0580  0.4233 -0.4958
  712MOL0     C98183   3.569   5.346   1.484 -0.4502 -0.7224 -0.3761
  712MOL0     C98184   4.398   5.209   1.675 -0.6386  0.1594  0.6064
  712MOL0     C98185   4.530   5.223   1.728  0.2094 -0.2412  0.4227
  712MOL0     C98186   4.628   5.129   1.661  0.0591 -0.1068  0.7760
  712MOL0     H98187   4.848   5.342   2.095 -1.1877  1.4565 -1.3983
  712MOL0     H98188   5.064   5.396   2.190 -0.8189 -0.2655  0.3067
  712MOL0     H98189   5.283   5.578   2.075 -0.8583 -1.2576  0.7591
  712MOL0     H98190   5.347   5.510   1.922 -1.4332 -3.2289 -0.0495
  712MOL0     H98191   5.528   5.636   2.091  1.5451 -2.0255  4.2734
  712MOL0     H98192   5.513   5.498   2.174 -1.2828 -2.1906 -1.2839
  712MOL0     H98193   5.576   5.350   1.994  1.0475  0.0901  1.1310
  712MOL0     H98194   5.554   5.479   1.876  2.0247 -1.9526 -0.7667
  712MOL0     H98195   5.765   5.608   1.994 -0.2164  0.4494  0.8240
  712MOL0     H98196   5.775   5.467   2.100  0.7755 -0.0353  0.3052
  712MOL0     H98197   5.816   5.464   1.802 -1.7706  1.2676  0.7318
  712MOL0     H98198   5.815   5.320   1.916 -0.7255  0.2751  0.3877
  712MOL0     H98199   6.048   5.418   1.859 -1.6116 -1.6762 -0.2035
  712MOL0     H98200   6.006   5.576   1.920  4.0009 -0.5136  0.9278
  712MOL0     H98201   5.993   5.336   2.108 -0.5158  1.8800  3.3249
  712MOL0     H98202   5.992   5.502   2.144 -2.3631  1.7908 -1.6992
  712MOL0     H98203   6.221   5.404   2.187  1.9648  1.3596 -1.4205
  712MOL0     H98204   6.235   5.360   2.024 -1.9521  0.1745 -3.1850
  712MOL0     H98205   6.273   5.667   2.242 -1.8526 -0.1565 -0.3380
  712MOL0     H98206   6.414   5.887   2.224  0.5063  1.0095  0.5760
  712MOL0     H98207   6.453   5.939   2.068 -0.4708 -2.1039 -1.4363
  712MOL0     H98208   6.619   5.713   2.170 -3.6971 -0.5050  1.5083
  712MOL0     H98209   6.656   5.834   2.041  1.3033 -3.2275  0.0554
  712MOL0     H98210   6.672   6.003   2.185 -0.4596  2.2320  4.1403
  712MOL0     H98211   6.645   5.899   2.332 -0.0072 -0.6027 -0.5354
  712MOL0     H98212   6.876   5.925   2.145 -0.8822  2.3891  0.6015
  712MOL0     H98213   6.876   5.936   2.316 -0.2009  1.5518 -1.2988
  712MOL0     H98214   7.110   5.920   2.286  0.6657 -0.7729  0.9624
  712MOL0     H98215   7.413   5.835   2.427  2.5047  0.7914 -2.1204
  712MOL0     H98216   7.301   5.961   2.376 -0.0089  0.4147 -0.9395
  712MOL0     H98217   7.408   5.867   2.260  2.6286 -1.3141  1.6492
  712MOL0     H98218   7.550   5.554   2.655  0.4854  1.1917 -1.0218
  712MOL0     H98219   7.764   5.476   2.721 -1.4251  1.9672 -0.5834
  712MOL0     H98220   7.836   5.072   2.613 -0.1440  2.1611  2.0601
  712MOL0     H98221   7.932   5.123   2.471 -1.0237 -3.5669 -0.8396
  712MOL0     H98222   8.130   5.160   2.592  2.6116 -2.3405  0.9199
  712MOL0     H98223   8.054   5.130   2.752  0.4696 -0.5060  0.0236
  712MOL0     H98224   8.103   4.935   2.521  1.4916  0.0155  0.0388
  712MOL0     H98225   8.003   4.887   2.664  1.3372 -1.6450 -0.9286
  712MOL0     H98226   8.204   4.969   2.806 -0.6403  1.3658 -0.6878
  712MOL0     H98227   8.295   4.968   2.652  0.2182 -1.0252 -1.1076
  712MOL0     H98228   8.329   4.793   2.814  2.7107  0.1669 -2.3255
  712MOL0     H98229   8.167   4.725   2.780  1.8025 -2.6466 -1.7869
  712MOL0     H98230   8.379   4.782   2.571 -0.1809  1.5298  3.7870
  712MOL0     H98231   8.213   4.704   2.550 -0.3676 -0.9254  1.1280
  712MOL0     H98232   8.306   4.500   2.572 -0.9095 -0.6235  1.9502
  712MOL0     H98233   8.342   4.529   2.739  1.4435 -1.0776  0.1150
  712MOL0     H98234   8.517   4.590   2.510  0.5161 -0.1987  0.1058
  712MOL0     H98235   8.515   4.439   2.598 -0.3823  0.2108  1.1626
  712MOL0     H98236   7.735   5.176   2.413  0.0406 -0.0438 -0.4861
  712MOL0     H98237   7.528   5.290   2.325  1.8975  2.4697 -0.5551
  712MOL0     H98238   7.152   5.446   2.367 -0.9479 -1.0640  0.4308
  712MOL0     H98239   6.932   5.526   2.312  0.1206 -0.2129  0.8723
  712MOL0     H98240   5.260   5.293   1.819  0.3298  1.0801 -0.3829
  712MOL0     H98241   5.037   5.254   1.720  1.5132 -0.7661  0.1826
  712MOL0     H98242   4.464   5.472   1.962  1.5430 -0.4726  0.1866
  712MOL0     H98243   4.250   5.438   1.886  0.9094 -0.3596  1.4064
  712MOL0     H98244   4.021   5.359   1.818  0.0960 -2.8584  0.0027
  712MOL0     H98245   4.099   5.474   1.702 -0.4386  0.3272 -3.1315
  712MOL0     H98246   3.984   5.329   1.519 -1.5603 -2.1949 -0.2312
  712MOL0     H98247   3.880   5.439   1.621 -1.8936 -1.6499 -0.3305
  712MOL0     H98248   3.912   5.159   1.697  0.0750  1.3156  4.8713
  712MOL0     H98249   3.796   5.284   1.743  0.4486  0.5485 -0.7679
  712MOL0     H98250   3.730   5.096   1.578 -1.9262  0.4737  0.1230
  712MOL0     H98251   3.846   5.164   1.460 -1.1606  0.6138 -1.6669
  712MOL0     H98252   3.487   5.415   1.483  1.2263  1.3843  0.0315
  712MOL0     H98253   4.375   5.150   1.587 -2.1575  0.2922  0.8840
  712MOL0     H98254   4.583   5.039   1.618  0.3823  0.0353  0.1358
  712MOL0     H98255   4.689   5.178   1.585  0.8340 -1.5642  0.4042
  712MOL0     H98256   4.703   5.089   1.730  2.0771  1.1712 -0.5806
  713MOL0     O98257   9.732   4.398   9.982  0.1712 -0.1356  0.6473
  713MOL0     C98258   9.636   4.467   9.995  0.3674 -0.2334  0.2920
  713MOL0     O98259   9.629   4.591   9.953  0.8265 -0.0579 -0.1310
  713MOL0     C98260   9.739   4.655   9.909 -0.9916 -0.1448  0.5399
  713MOL0     C98261   9.732   4.713   9.773  0.3666  0.4370  0.1024
  713MOL0     C98262   9.842   4.787   9.727  0.2436 -1.0540  0.0186
  713MOL0     C98263   9.952   4.813   9.806 -1.5287 -0.3452  0.3988
  713MOL0     O98264  10.057   4.893   9.758  0.1815  0.2817  0.8996
  713MOL0     C98265  10.131   4.968   9.855 -0.0318 -0.8338 -0.5597
  713MOL0     C98266  10.228   5.068   9.792 -1.0099  0.5824  0.1715
  713MOL0     C98267  10.358   4.999   9.757 -0.8337  0.3939 -0.1436
  713MOL0     C98268  10.475   5.094   9.785  0.0855  0.3098  0.0205
  713MOL0     C98269  10.601   5.017   9.759  0.8310  0.7461 -0.8931
  713MOL0     C98270  10.722   5.092   9.817 -0.6835 -0.5940  1.3921
  713MOL0     C98271  10.840   4.999   9.787 -1.0061  0.1900  0.4504
  713MOL0     C98272  10.917   5.025   9.659  0.3114  0.0725  0.1159
  713MOL0     N98273  10.980   5.157   9.673 -0.8007 -0.2097 -0.1315
  713MOL0     C98274  11.070   5.187   9.767  0.0947 -0.3668 -0.9245
  713MOL0     C98275  11.094   5.325   9.753 -0.1654 -0.3786 -0.2136
  713MOL0     C98276  11.196   5.426   9.820 -0.0003 -0.1736  0.3904
  713MOL0     C98277  11.337   5.432   9.743  0.2719 -0.2044 -0.2810
  713MOL0     C98278  11.408   5.563   9.771 -0.3044 -0.1570  0.9211
  713MOL0     C98279  11.544   5.564   9.700 -0.1088 -0.3590  0.7360
  713MOL0     O98280  11.597   5.693   9.736 -0.3316  1.0060  0.0877
  713MOL0     C98281  11.716   5.718   9.677 -0.4081 -0.0071  0.2288
  713MOL0     C98282  11.719   5.814   9.576 -0.1767 -0.8482 -0.6405
  713MOL0     C98283  11.840   5.847   9.509  0.1061 -1.0219 -0.5666
  713MOL0     C98284  11.830   5.952   9.395 -0.8576  0.2682 -0.9609
  713MOL0     C98285  11.964   5.802   9.563  0.0143  0.6793  0.1811
  713MOL0     C98286  12.101   5.831   9.513 -0.3976  0.0514  0.2309
  713MOL0     O98287  12.187   5.752   9.577  0.0612  0.7373 -0.7213
  713MOL0     C98288  12.328   5.754   9.563  0.5700  0.1193  0.4367
  713MOL0     C98289  12.405   5.876   9.581  0.9416 -0.5259  0.0594
  713MOL0     C98290  12.540   5.883   9.561  0.5190  0.5817  0.1872
  713MOL0     C98291  12.609   5.760   9.537  0.8301  0.2832 -0.5714
  713MOL0     O98292  12.747   5.747   9.528 -0.2108  0.7001  0.8252
  713MOL0     C98293  12.827   5.825   9.619  0.1936  0.1478  0.2932
  713MOL0     C98294  12.976   5.791   9.606  0.2432 -0.1103 -1.0145
  713MOL0     C98295  13.034   5.790   9.469 -0.6654  0.3683  0.2888
  713MOL0     C98296  13.179   5.840   9.469  0.0746 -0.0437 -0.1171
  713MOL0     C98297  13.243   5.828   9.330 -1.4574  0.3663 -0.5539
  713MOL0     C98298  13.356   5.724   9.343  0.0724 -0.4399 -0.4494
  713MOL0     C98299  13.451   5.737   9.229  0.0814  0.6305  0.4458
  713MOL0     C98300  13.589   5.666   9.257  0.6044 -0.5002  0.0794
  713MOL0    Cl98301  13.668   5.625   9.106  0.3435  0.2005 -0.1736
  713MOL0     C98302  12.533   5.649   9.511  0.0162  0.1459 -0.0842
  713MOL0     C98303  12.392   5.640   9.525  0.1111  0.5233 -0.3524
  713MOL0     O98304  12.130   5.899   9.418 -0.8935 -0.2593  0.4858
  713MOL0     C98305  11.961   5.708   9.673 -0.6788  0.0019  0.1454
  713MOL0     C98306  11.837   5.662   9.722  0.0859 -0.3538  0.9282
  713MOL0     N98307  11.018   5.365   9.645 -0.1215 -0.3165  0.4635
  713MOL0     N98308  10.943   5.268   9.601  0.2213 -0.7551  0.3526
  713MOL0     C98309   9.966   4.761   9.939  0.9465 -0.5024 -0.0570
  713MOL0     C98310   9.861   4.681   9.987  0.1733 -0.8918  0.2612
  713MOL0     C98311   9.512   4.409  10.068 -0.3487 -0.5683 -0.0581
  713MOL0     C98312   9.405   4.498  10.078  1.1130  0.1508 -0.3047
  713MOL0     C98313   9.281   4.462  10.143 -0.7613  0.0886  0.7374
  713MOL0     C98314   9.272   4.344  10.210 -0.3942  0.0692 -0.3523
  713MOL0     O98315   9.162   4.322  10.291  0.0749  0.1907  0.1148
  713MOL0     C98316   9.154   4.213  10.375 -0.2807  0.3113  0.9043
  713MOL0     C98317   9.007   4.193  10.411  0.4255  0.7073 -0.2444
  713MOL0     C98318   8.996   4.092  10.526  0.7515 -0.8211 -0.1415
  713MOL0     C98319   8.843   4.049  10.559 -0.0172 -0.2432 -0.3074
  713MOL0     C98320   8.741   4.066  10.459  0.6459 -0.0899 -0.2291
  713MOL0     C98321   8.652   4.078  10.372 -0.6014 -0.1105 -0.7958
  713MOL0     C98322   9.377   4.253  10.200  0.0192 -0.1059  0.7239
  713MOL0     C98323   9.497   4.280  10.132  0.5388 -0.0549 -0.2401
  713MOL0     C98324   9.606   4.178  10.130 -0.2966 -0.1472 -0.2467
  713MOL0     H98325   9.658   4.704   9.694  0.7842  1.0657 -0.3753
  713MOL0     H98326   9.851   4.811   9.621 -0.8850 -0.4527  0.0497
  713MOL0     H98327  10.187   4.903   9.922  1.3975  3.7463  3.2245
  713MOL0     H98328  10.059   5.022   9.917  0.0141 -1.2301 -0.1574
  713MOL0     H98329  10.191   5.116   9.701 -2.0681  0.5557  0.5746
  713MOL0     H98330  10.255   5.153   9.856 -1.6466 -0.0153  1.2518
  713MOL0     H98331  10.373   4.904   9.808 -0.0485  0.8386  0.4847
  713MOL0     H98332  10.359   4.973   9.651  0.7818  1.9620 -0.5652
  713MOL0     H98333  10.473   5.180   9.717  0.0830  1.5369  1.5228
  713MOL0     H98334  10.470   5.126   9.889  0.2005 -0.0474  0.1374
  713MOL0     H98335  10.612   4.988   9.654  1.6676  0.7899 -0.8213
  713MOL0     H98336  10.588   4.920   9.809  0.6494  0.0442 -2.2771
  713MOL0     H98337  10.737   5.190   9.773 -3.3010 -0.8003 -0.1105
  713MOL0     H98338  10.711   5.109   9.925 -3.3228  3.0839  0.7124
  713MOL0     H98339  10.804   4.896   9.782 -0.4199 -0.0974  1.6265
  713MOL0     H98340  10.909   4.997   9.872 -0.5189  0.4634  0.0644
  713MOL0     H98341  10.983   4.947   9.620 -0.3675 -0.4504 -0.0033
  713MOL0     H98342  10.837   5.034   9.585 -0.6213  0.7376  1.1663
  713MOL0     H98343  11.117   5.114   9.832 -1.7525 -1.3600 -0.6417
  713MOL0     H98344  11.204   5.387   9.922 -0.0701  1.4595  1.0525
  713MOL0     H98345  11.151   5.526   9.821 -1.6355 -0.8345 -1.3114
  713MOL0     H98346  11.403   5.346   9.760  1.2528  0.6047  0.0960
  713MOL0     H98347  11.311   5.425   9.637 -1.9718 -1.1427  0.2771
  713MOL0     H98348  11.341   5.638   9.728  1.4282  0.2395 -1.2073
  713MOL0     H98349  11.413   5.589   9.877  0.3530  2.7480  0.2550
  713MOL0     H98350  11.608   5.481   9.732 -1.3697 -2.7071 -2.3000
  713MOL0     H98351  11.526   5.546   9.593 -0.8269  1.8873  0.4291
  713MOL0     H98352  11.623   5.860   9.555 -0.7895 -0.7253  2.0796
  713MOL0     H98353  11.727   5.987   9.383  0.0893  2.6667 -3.1179
  713MOL0     H98354  11.857   5.908   9.299  1.0138 -1.3231  0.2163
  713MOL0     H98355  11.904   6.032   9.413 -1.4046  0.4453  0.6852
  713MOL0     H98356  12.356   5.969   9.608  0.9263  0.2542 -2.3547
  713MOL0     H98357  12.596   5.975   9.574  0.4948  0.4871  1.0112
  713MOL0     H98358  12.804   5.929   9.596 -1.1520 -0.5693 -1.9269
  713MOL0     H98359  12.793   5.805   9.721 -0.3721  0.8480  0.2426
  713MOL0     H98360  13.030   5.868   9.661 -0.6770  0.4896 -0.9355
  713MOL0     H98361  13.004   5.703   9.664 -3.1364  0.4722  1.8312
  713MOL0     H98362  12.977   5.853   9.400 -2.0906 -0.6375  0.5082
  713MOL0     H98363  13.025   5.688   9.432  0.4504  0.6202 -0.7603
  713MOL0     H98364  13.232   5.787   9.548  1.8287  2.9315  0.8277
  713MOL0     H98365  13.175   5.945   9.498 -0.0587  0.8239 -2.9921
  713MOL0     H98366  13.173   5.792   9.254 -0.8628 -1.0193 -0.4699
  713MOL0     H98367  13.273   5.929   9.298  0.4359  0.1661  0.4345
  713MOL0     H98368  13.309   5.627   9.358 -0.6360  0.0950  1.0064
  713MOL0     H98369  13.412   5.748   9.434  0.7719  1.2938 -1.2763
  713MOL0     H98370  13.454   5.842   9.199 -0.8507  0.2352 -1.1329
  713MOL0     H98371  13.409   5.677   9.148 -3.0967  0.6365  1.9273
  713MOL0     H98372  13.585   5.571   9.310  1.8058 -0.8020 -0.3520
  713MOL0     H98373  13.652   5.729   9.320 -0.4735 -0.5556  1.2658
  713MOL0     H98374  12.583   5.555   9.488 -0.8005 -0.6639  1.2685
  713MOL0     H98375  12.334   5.549   9.510  2.1767 -1.1538  1.1389
  713MOL0     H98376  12.041   5.660   9.728 -1.1191 -0.3449  0.4884
  713MOL0     H98377  11.823   5.597   9.808 -0.6890  0.0649  1.1313
  713MOL0     H98378  10.055   4.782   9.998  0.9079  1.0291 -0.4996
  713MOL0     H98379   9.857   4.657  10.093  2.0562  0.7466  0.7711
  713MOL0     H98380   9.402   4.591  10.022  0.0311  0.4766  0.2837
  713MOL0     H98381   9.203   4.537  10.140 -0.5694  0.3339  1.7072
  713MOL0     H98382   9.186   4.120  10.328 -1.8878 -0.0364  0.4520
  713MOL0     H98383   9.214   4.227  10.466 -1.1252  0.9864  1.3698
  713MOL0     H98384   8.945   4.167  10.325  0.2405 -0.7052  0.2860
  713MOL0     H98385   8.959   4.280  10.456 -1.8951 -0.1045 -1.0293
  713MOL0     H98386   9.056   4.004  10.504  0.6570 -0.7738 -0.5968
  713MOL0     H98387   9.045   4.129  10.617  0.7917 -0.2212 -0.3996
  713MOL0     H98388   8.809   4.119  10.636 -2.2931 -1.7284  0.1128
  713MOL0     H98389   8.827   3.953  10.608  1.2432 -0.5798 -0.5078
  713MOL0     H98390   8.572   4.103  10.305 -0.8641  1.2236 -0.0369
  713MOL0     H98391   9.380   4.157  10.252  1.7325 -1.6659 -2.0231
  713MOL0     H98392   9.698   4.220  10.171 -1.8570  2.3227  0.9805
  713MOL0     H98393   9.586   4.089  10.191 -0.6693  0.0528 -0.0737
  713MOL0     H98394   9.612   4.138  10.028  0.9586 -0.4897 -0.0500
  714MOL0     O98395  10.664   8.263   9.705 -0.8953  0.0663 -0.5410
  714MOL0     C98396  10.597   8.191   9.625  0.1636 -0.1199 -0.2812
  714MOL0     O98397  10.621   8.058   9.601  0.5341 -0.2905  0.2825
  714MOL0     C98398  10.728   8.014   9.670  0.5145  0.0856 -0.7960
  714MOL0     C98399  10.852   8.012   9.608 -0.6311 -0.3454 -0.3976
  714MOL0     C98400  10.967   7.979   9.688  0.2628 -0.1829  0.3775
  714MOL0     C98401  10.956   7.940   9.822 -0.4379  0.3381  0.6709
  714MOL0     O98402  11.056   7.914   9.903 -0.7263  0.0404 -0.2991
  714MOL0     C98403  11.191   7.895   9.846 -0.0768 -0.2481 -0.1047
  714MOL0     C98404  11.292   7.867   9.957 -0.3264 -0.0873  0.7433
  714MOL0     C98405  11.432   7.871   9.893 -0.0428 -0.1334  0.9097
  714MOL0     C98406  11.529   7.828   9.998 -0.4325  0.4687  0.4147
  714MOL0     C98407  11.677   7.835   9.954  0.0504 -0.3615  0.4338
  714MOL0     C98408  11.769   7.749  10.040 -0.1938 -0.8461 -0.0662
  714MOL0     C98409  11.807   7.613   9.988 -0.2375  0.7754  0.0068
  714MOL0     C98410  11.871   7.612   9.854 -0.0118 -0.7773  0.0896
  714MOL0     N98411  11.970   7.725   9.836  0.2058  0.2855  0.2981
  714MOL0     C98412  11.956   7.812   9.732 -0.4219 -0.3448  1.7232
  714MOL0     C98413  12.074   7.885   9.739  1.0730  0.1642 -0.0866
  714MOL0     C98414  12.112   7.991   9.637 -1.2353  1.2430 -0.2194
  714MOL0     C98415  12.096   8.140   9.676  0.3251 -0.6850 -0.3478
  714MOL0     C98416  12.112   8.231   9.548 -0.2235  0.8226 -0.3181
  714MOL0     C98417  12.157   8.374   9.592  0.6249  0.4725 -0.9111
  714MOL0     O98418  12.282   8.375   9.660  0.2616  0.5570 -0.5840
  714MOL0     C98419  12.386   8.455   9.618  0.5325 -0.2182  0.3302
  714MOL0     C98420  12.515   8.397   9.610 -0.4041  0.0696  0.8314
  714MOL0     C98421  12.632   8.465   9.571 -0.0633  0.3425 -0.3037
  714MOL0     C98422  12.764   8.396   9.564 -0.6350  0.5806  0.0202
  714MOL0     C98423  12.621   8.610   9.553  1.1148  0.5510 -0.7883
  714MOL0     C98424  12.733   8.697   9.524 -0.6452  0.2165  0.1621
  714MOL0     O98425  12.863   8.649   9.534 -0.7079  0.2541 -0.3664
  714MOL0     C98426  12.964   8.665   9.446 -0.2790  0.3073  1.0167
  714MOL0     C98427  12.948   8.704   9.310 -0.5596  0.3402 -0.4306
  714MOL0     C98428  13.048   8.728   9.223 -0.7637 -0.2937  0.4427
  714MOL0     C98429  13.181   8.713   9.268  0.1342  0.8208  0.2953
  714MOL0     O98430  13.299   8.739   9.196  0.8811  0.3530  0.7583
  714MOL0     C98431  13.290   8.779   9.060 -0.2183  0.0740 -0.2514
  714MOL0     C98432  13.264   8.659   8.964  0.5636  0.0953  0.3660
  714MOL0     C98433  13.394   8.572   8.960  0.7603 -0.1585 -0.9419
  714MOL0     C98434  13.369   8.454   8.866  0.5238 -0.4672  0.5871
  714MOL0     C98435  13.505   8.376   8.847  0.1757  0.4015 -0.0862
  714MOL0     C98436  13.638   8.452   8.830  0.8861  0.4635 -0.5814
  714MOL0     C98437  13.740   8.378   8.763 -0.4189  0.4334 -0.3004
  714MOL0     C98438  13.876   8.453   8.769  0.4757  0.1665 -0.2842
  714MOL0    Cl98439  13.969   8.429   8.932  0.1223 -0.3865  0.3283
  714MOL0     C98440  13.203   8.670   9.398  0.1602  0.2722 -0.3488
  714MOL0     C98441  13.101   8.646   9.487  0.5644 -0.1112 -1.1372
  714MOL0     O98442  12.706   8.809   9.478 -0.0608  0.0416 -0.2333
  714MOL0     C98443  12.489   8.669   9.577 -1.0588  0.2372 -0.5051
  714MOL0     C98444  12.369   8.587   9.591 -0.7799 -0.0297  0.6471
  714MOL0     N98445  12.148   7.837   9.848  0.6727  0.6788 -1.0982
  714MOL0     N98446  12.087   7.735   9.900 -0.4940  0.7063 -0.3162
  714MOL0     C98447  10.835   7.928   9.874  0.8761  0.1443 -0.1261
  714MOL0     C98448  10.718   7.975   9.810 -0.6751  0.4885  0.1728
  714MOL0     C98449  10.473   8.249   9.565 -0.2556  0.8825 -0.4732
  714MOL0     C98450  10.418   8.366   9.628  0.4774 -0.0851 -0.2838
  714MOL0     C98451  10.296   8.423   9.583 -0.9572  0.7107 -0.3722
  714MOL0     C98452  10.225   8.365   9.488  0.5383  1.1004  0.5668
  714MOL0     O98453  10.109   8.435   9.459  0.3258 -0.5560 -0.0025
  714MOL0     C98454  10.110   8.507   9.331 -0.3564  0.1709  0.7253
  714MOL0     C98455  10.069   8.653   9.347  0.4989 -0.2123  0.5682
  714MOL0     C98456   9.919   8.671   9.376 -0.2190  0.4152  0.2798
  714MOL0     C98457   9.816   8.591   9.292 -0.2586  0.0601 -0.4157
  714MOL0     C98458   9.680   8.638   9.302 -0.1263  0.2768 -0.7775
  714MOL0     C98459   9.562   8.668   9.318 -0.3791 -0.4508  0.1458
  714MOL0     C98460  10.283   8.260   9.409  0.3330  0.4832  0.2952
  714MOL0     C98461  10.407   8.203   9.452  0.8566  1.0419  0.2844
  714MOL0     C98462  10.463   8.094   9.366  0.5537  0.4632 -0.5340
  714MOL0     H98463  10.866   8.043   9.506  0.2056  0.2870 -0.1044
  714MOL0     H98464  11.063   7.997   9.641 -0.4224  0.6779 -0.7403
  714MOL0     H98465  11.220   7.982   9.786  0.1636  0.3164  0.8170
  714MOL0     H98466  11.182   7.807   9.781 -0.1455 -1.0833  0.9965
  714MOL0     H98467  11.290   7.945  10.034  0.8000 -1.0613  1.8207
  714MOL0     H98468  11.274   7.770  10.004  2.6622 -0.6978  0.8604
  714MOL0     H98469  11.436   7.817   9.798 -0.5502  3.0822 -1.0878
  714MOL0     H98470  11.449   7.977   9.871 -1.5054  0.5341  2.6735
  714MOL0     H98471  11.519   7.883  10.092  1.7032  2.3590 -0.3656
  714MOL0     H98472  11.511   7.725  10.027  2.7805 -0.0793  0.8714
  714MOL0     H98473  11.707   7.939   9.967 -0.1175 -0.3625  0.8557
  714MOL0     H98474  11.691   7.812   9.848  1.2970 -0.2249  0.5531
  714MOL0     H98475  11.857   7.806  10.070  0.2485 -1.6781  0.2420
  714MOL0     H98476  11.713   7.734  10.132 -0.2873 -2.6915 -0.3884
  714MOL0     H98477  11.711   7.562   9.976 -1.3492  2.9836 -1.1215
  714MOL0     H98478  11.866   7.565  10.066 -2.0745  0.9780  1.5968
  714MOL0     H98479  11.927   7.520   9.835  1.4109  0.4174 -1.9585
  714MOL0     H98480  11.791   7.630   9.782 -1.5864  0.1456  1.9924
  714MOL0     H98481  11.871   7.829   9.665  2.9613  2.9632 -2.3502
  714MOL0     H98482  12.076   7.982   9.535 -1.4166 -5.5619 -0.0274
  714MOL0     H98483  12.217   7.968   9.616 -0.8988  1.6493  0.9248
  714MOL0     H98484  12.006   8.159   9.735 -0.7738  0.8830 -2.3940
  714MOL0     H98485  12.184   8.161   9.736 -0.4816  0.6377  0.4183
  714MOL0     H98486  12.200   8.201   9.491  2.6306  1.1204  3.4925
  714MOL0     H98487  12.019   8.241   9.492  0.3231  1.0224 -1.2117
  714MOL0     H98488  12.153   8.449   9.511  2.4795  3.4143  1.5058
  714MOL0     H98489  12.076   8.409   9.657  0.4726  1.3057 -1.5242
  714MOL0     H98490  12.531   8.291   9.627  1.5122  0.0918 -0.5758
  714MOL0     H98491  12.749   8.289   9.579  0.3485  0.3183 -0.7780
  714MOL0     H98492  12.833   8.426   9.644 -1.0432  2.5229 -0.3055
  714MOL0     H98493  12.806   8.402   9.463 -2.6695  1.5664 -0.8149
  714MOL0     H98494  12.846   8.722   9.278 -0.7662 -2.2640 -1.5291
  714MOL0     H98495  13.029   8.751   9.119  1.1708  1.8783  0.4876
  714MOL0     H98496  13.212   8.854   9.039 -0.3195 -0.0189 -0.2090
  714MOL0     H98497  13.379   8.836   9.030 -0.0361  0.2933  0.6776
  714MOL0     H98498  13.187   8.597   9.010  1.2709 -0.1082  1.3112
  714MOL0     H98499  13.234   8.696   8.865 -0.5830  0.6772  0.9144
  714MOL0     H98500  13.419   8.535   9.060 -1.4505 -0.3243 -0.3991
  714MOL0     H98501  13.484   8.623   8.926 -0.4015  2.9724  0.3147
  714MOL0     H98502  13.328   8.487   8.770 -0.6951 -4.4577 -0.4367
  714MOL0     H98503  13.287   8.388   8.898 -2.1410  1.5159 -1.6351
  714MOL0     H98504  13.517   8.306   8.930 -0.2707 -1.0561 -1.1910
  714MOL0     H98505  13.491   8.311   8.760 -0.6655 -0.4812  0.6811
  714MOL0     H98506  13.679   8.486   8.925  2.5765 -0.2474 -1.0178
  714MOL0     H98507  13.613   8.534   8.762 -1.0486  0.8880  0.5596
  714MOL0     H98508  13.699   8.349   8.666 -1.4788 -2.1087  0.7987
  714MOL0     H98509  13.770   8.284   8.810  0.2549  0.7172 -0.1489
  714MOL0     H98510  13.864   8.560   8.749 -0.7722  0.0351 -0.3581
  714MOL0     H98511  13.937   8.392   8.701  0.6923 -0.3055  0.3280
  714MOL0     H98512  13.308   8.664   9.422  0.5850  1.9914 -1.5363
  714MOL0     H98513  13.121   8.615   9.589 -2.1356  1.8633  0.1152
  714MOL0     H98514  12.474   8.776   9.569 -2.3354 -0.0194 -1.8234
  714MOL0     H98515  12.272   8.635   9.600  0.5424  2.4350  3.2330
  714MOL0     H98516  10.821   7.894   9.976  1.6223 -0.9320 -0.3653
  714MOL0     H98517  10.622   7.978   9.860 -0.9862 -2.3788 -0.0714
  714MOL0     H98518  10.473   8.413   9.710 -1.2735  2.8949 -0.6800
  714MOL0     H98519  10.251   8.512   9.626  0.1961  0.7506  0.7892
  714MOL0     H98520  10.213   8.514   9.294  0.1061  2.5854  2.2398
  714MOL0     H98521  10.040   8.459   9.263 -0.8244 -0.6260  1.7437
  714MOL0     H98522  10.097   8.696   9.251  0.3550  0.5625  0.8687
  714MOL0     H98523  10.132   8.703   9.421 -1.0952  1.1411  1.0788
  714MOL0     H98524   9.915   8.649   9.484 -0.5792 -1.3640 -0.0721
  714MOL0     H98525   9.902   8.779   9.370  3.0266  1.1604  1.8601
  714MOL0     H98526   9.826   8.484   9.310  1.9947  0.6054  2.1580
  714MOL0     H98527   9.843   8.604   9.186 -2.0877 -1.4209 -1.1250
  714MOL0     H98528   9.459   8.686   9.341  0.1037 -1.0201  3.1337
  714MOL0     H98529  10.221   8.229   9.325 -0.3319  0.4152  0.7976
  714MOL0     H98530  10.458   8.007   9.432 -2.1292  0.7575 -0.2476
  714MOL0     H98531  10.400   8.074   9.279 -0.0153  0.6327 -0.1634
  714MOL0     H98532  10.564   8.113   9.328  2.3677 -1.0763  2.9996
  715MOL0     O98533   5.099   3.939  11.368 -0.2367 -0.2557 -0.9525
  715MOL0     C98534   5.186   3.910  11.291  0.1555  0.2937  0.6820
  715MOL0     O98535   5.305   3.853  11.329 -0.2929  0.3537  0.0980
  715MOL0     C98536   5.308   3.798  11.448  0.3875 -0.0607 -0.3392
  715MOL0     C98537   5.406   3.834  11.536 -0.4894  0.1622 -0.1035
  715MOL0     C98538   5.415   3.791  11.667  0.2759 -0.7625 -0.2388
  715MOL0     C98539   5.322   3.698  11.718 -0.0156  0.0472  0.7418
  715MOL0     O98540   5.318   3.641  11.851  0.4468 -0.9425  0.9398
  715MOL0     C98541   5.443   3.619  11.918  0.1439 -0.3142 -0.1531
  715MOL0     C98542   5.456   3.743  12.017 -0.5122  0.2982 -0.1709
  715MOL0     C98543   5.577   3.725  12.120  0.7809 -0.1320 -0.0377
  715MOL0     C98544   5.581   3.837  12.227 -0.3626  0.6685 -0.1914
  715MOL0     C98545   5.684   3.823  12.348 -0.3750 -0.2884  0.6611
  715MOL0     C98546   5.827   3.823  12.293  0.8059 -0.3730  0.5184
  715MOL0     C98547   5.920   3.777  12.408 -0.2881  0.2829  0.0735
  715MOL0     C98548   6.053   3.725  12.347  1.0126  0.3050 -0.1229
  715MOL0     N98549   6.133   3.688  12.456  0.1759 -0.3931 -0.4460
  715MOL0     C98550   6.106   3.592  12.554  0.1667  0.3059 -0.1267
  715MOL0     C98551   6.217   3.585  12.637 -0.1357  0.0007  1.1860
  715MOL0     C98552   6.227   3.484  12.749 -0.4852  0.3362 -0.5499
  715MOL0     C98553   6.169   3.557  12.875 -0.3940 -0.7199  0.2380
  715MOL0     C98554   6.225   3.505  13.004  0.1374 -0.6263  0.2202
  715MOL0     C98555   6.375   3.536  13.025  0.5372  0.3747  0.4069
  715MOL0     O98556   6.403   3.537  13.163 -0.8607  0.2788 -0.1446
  715MOL0     C98557   6.533   3.556  13.210  0.5721 -0.0125 -0.0014
  715MOL0     C98558   6.546   3.593  13.345 -0.6264  0.2660  0.5711
  715MOL0     C98559   6.670   3.609  13.401  1.4288 -0.0992 -0.1930
  715MOL0     C98560   6.673   3.649  13.552 -0.5721  0.1353 -0.1213
  715MOL0     C98561   6.785   3.585  13.318  0.4183  0.8126 -0.2758
  715MOL0     C98562   6.916   3.567  13.376 -0.8339 -0.9088  0.9698
  715MOL0     O98563   6.923   3.559  13.509  1.1290  0.5314 -0.6342
  715MOL0     C98564   7.047   3.598  13.551  0.0921  0.5973 -0.7571
  715MOL0     C98565   7.079   3.729  13.556  0.3867 -0.5631  0.0753
  715MOL0     C98566   7.209   3.765  13.593  0.5819  0.4561 -1.1849
  715MOL0     C98567   7.304   3.681  13.636  0.7939  0.5046 -0.2435
  715MOL0     O98568   7.424   3.732  13.666 -0.4513  0.1432 -0.1508
  715MOL0     C98569   7.532   3.641  13.706 -0.1651  0.0403  0.3665
  715MOL0     C98570   7.662   3.720  13.677  0.0286  1.3298 -0.0062
  715MOL0     C98571   7.786   3.664  13.729 -0.8275  0.3793  0.2859
  715MOL0     C98572   7.895   3.763  13.677 -0.5446 -0.3176 -0.8014
  715MOL0     C98573   8.033   3.714  13.713 -0.6210 -0.9533  0.1818
  715MOL0     C98574   8.100   3.779  13.843  0.5289  0.1099  0.3013
  715MOL0     C98575   8.185   3.683  13.921  0.6103  0.5701  0.8248
  715MOL0     C98576   8.291   3.757  14.008  0.0292 -0.0552  0.9581
  715MOL0    Cl98577   8.408   3.634  14.066  0.1623 -0.0790 -0.3665
  715MOL0     C98578   7.260   3.543  13.646 -0.2060 -0.6137 -0.9874
  715MOL0     C98579   7.139   3.500  13.602 -0.1013 -0.1077 -0.0610
  715MOL0     O98580   7.011   3.559  13.296 -0.3992 -0.5006 -0.0834
  715MOL0     C98581   6.774   3.559  13.181  0.2306 -0.7898  0.3918
  715MOL0     C98582   6.650   3.544  13.128 -0.2981 -0.2312  0.7958
  715MOL0     N98583   6.306   3.680  12.587 -0.8660 -0.2698  0.1824
  715MOL0     N98584   6.252   3.750  12.491 -0.6232  0.3504 -0.2208
  715MOL0     C98585   5.227   3.658  11.622 -1.0119 -0.4985 -0.2714
  715MOL0     C98586   5.223   3.703  11.491 -0.3985 -0.6335  0.5618
  715MOL0     C98587   5.166   3.945  11.147 -1.0244 -0.6769 -0.0699
  715MOL0     C98588   5.280   3.953  11.063 -0.4047 -0.3724 -0.4186
  715MOL0     C98589   5.264   4.001  10.928 -0.4124  0.3767 -0.1969
  715MOL0     C98590   5.138   4.036  10.877  0.3699 -0.1174  0.2432
  715MOL0     O98591   5.135   4.085  10.745 -0.1510  0.2190  0.0666
  715MOL0     C98592   5.010   4.076  10.659 -0.2591 -0.7517 -0.8450
  715MOL0     C98593   4.911   4.197  10.677  0.7308  0.3156  0.1099
  715MOL0     C98594   4.983   4.331  10.702 -0.5636  0.2193 -0.2469
  715MOL0     C98595   4.881   4.434  10.718  0.0886 -0.8555 -0.4248
  715MOL0     C98596   4.736   4.408  10.716  0.1632 -0.0314 -0.5665
  715MOL0     C98597   4.621   4.398  10.721  0.7324  0.1833 -0.1580
  715MOL0     C98598   5.027   4.008  10.949 -0.0445 -0.2137 -0.2833
  715MOL0     C98599   5.039   3.971  11.088 -0.3336 -0.3687  0.0219
  715MOL0     C98600   4.905   3.956  11.155 -0.2873  0.0014  0.1831
  715MOL0     H98601   5.485   3.900  11.499  0.1214 -0.6065 -0.2044
  715MOL0     H98602   5.498   3.827  11.726 -0.8136  2.7106 -0.6091
  715MOL0     H98603   5.527   3.610  11.849  0.9066  1.9231  0.3886
  715MOL0     H98604   5.440   3.526  11.976 -3.6313 -0.9467 -1.0677
  715MOL0     H98605   5.464   3.840  11.968  0.3761  2.0777  3.2278
  715MOL0     H98606   5.362   3.753  12.072 -2.5369  1.4315 -3.5260
  715MOL0     H98607   5.552   3.629  12.166 -1.8628  0.1683 -0.6842
  715MOL0     H98608   5.664   3.719  12.054  1.5256 -0.5391  0.9654
  715MOL0     H98609   5.577   3.936  12.181 -0.6078  0.6502 -0.2126
  715MOL0     H98610   5.479   3.825  12.265 -0.8184  0.1893 -1.4788
  715MOL0     H98611   5.661   3.731  12.403  0.4086 -1.1046 -0.3095
  715MOL0     H98612   5.671   3.908  12.415 -1.0084 -0.0638  0.2670
  715MOL0     H98613   5.836   3.752  12.210  0.3185 -0.1569  0.2759
  715MOL0     H98614   5.859   3.921  12.256 -0.4269 -0.5383 -1.0758
  715MOL0     H98615   5.867   3.700  12.465 -0.2022  0.4859  0.4320
  715MOL0     H98616   5.941   3.862  12.474 -1.0134  0.9983 -0.5983
  715MOL0     H98617   6.040   3.640  12.280 -2.2889  2.1107 -2.0003
  715MOL0     H98618   6.100   3.805  12.289  0.4835  1.9064  1.5800
  715MOL0     H98619   6.015   3.536  12.573 -0.5766  1.4143 -0.3044
  715MOL0     H98620   6.330   3.457  12.774 -0.5422  2.3191  2.3006
  715MOL0     H98621   6.154   3.403  12.738 -2.6350  1.9286  1.0120
  715MOL0     H98622   6.181   3.665  12.866 -2.8464 -0.4440 -0.5858
  715MOL0     H98623   6.061   3.538  12.880 -0.0919 -2.3040  4.5881
  715MOL0     H98624   6.170   3.550  13.087 -1.3067 -2.4273  0.2863
  715MOL0     H98625   6.208   3.400  13.026  0.3636  0.0035  4.0898
  715MOL0     H98626   6.434   3.465  12.966  3.3246  3.3578 -0.7629
  715MOL0     H98627   6.390   3.633  12.975 -1.7664  0.9140  0.6716
  715MOL0     H98628   6.452   3.587  13.398 -1.0613  2.4643  0.1618
  715MOL0     H98629   6.754   3.722  13.563  1.3259 -2.0832  1.9348
  715MOL0     H98630   6.694   3.565  13.620 -0.1864 -0.5822 -1.1038
  715MOL0     H98631   6.584   3.703  13.584  1.4325  3.9800 -0.4086
  715MOL0     H98632   7.018   3.808  13.513  0.6726  0.3678  1.3428
  715MOL0     H98633   7.223   3.873  13.590 -1.4524  0.8782  1.2342
  715MOL0     H98634   7.523   3.616  13.812 -3.0402 -2.9482 -0.4064
  715MOL0     H98635   7.536   3.556  13.637 -3.4634  1.2132 -1.4552
  715MOL0     H98636   7.673   3.725  13.568 -0.1597 -1.1265 -0.2006
  715MOL0     H98637   7.661   3.819  13.723 -0.5542  1.1729  0.3230
  715MOL0     H98638   7.805   3.568  13.680 -4.4462  0.1187 -0.8958
  715MOL0     H98639   7.787   3.645  13.837  0.2802 -0.2100  0.1845
  715MOL0     H98640   7.875   3.855  13.734 -1.2886 -0.5083 -0.7468
  715MOL0     H98641   7.891   3.774  13.568 -1.2441  2.6227 -0.5749
  715MOL0     H98642   8.026   3.605  13.723 -0.4993 -0.8925  0.9929
  715MOL0     H98643   8.104   3.745  13.636  0.9075 -2.5586  0.8884
  715MOL0     H98644   8.028   3.821  13.914 -1.8195  2.1657 -3.0240
  715MOL0     H98645   8.165   3.863  13.818  0.1728  0.3942  0.3372
  715MOL0     H98646   8.236   3.612  13.854 -1.9802 -1.8667  1.2440
  715MOL0     H98647   8.122   3.629  13.993 -2.0647  2.6998  0.2378
  715MOL0     H98648   8.249   3.802  14.098 -0.7947 -1.6238  1.3934
  715MOL0     H98649   8.341   3.830  13.943  0.0368 -0.8262  0.0622
  715MOL0     H98650   7.320   3.469  13.698 -0.3586 -0.3498 -0.4229
  715MOL0     H98651   7.103   3.399  13.614 -0.3280 -0.0067  0.1169
  715MOL0     H98652   6.863   3.549  13.121 -0.1764  1.2903 -0.6561
  715MOL0     H98653   6.648   3.540  13.020 -1.4814  2.3570  0.6370
  715MOL0     H98654   5.150   3.592  11.662 -1.0257 -0.0827  0.4024
  715MOL0     H98655   5.139   3.676  11.427  0.6771 -2.6350 -0.0733
  715MOL0     H98656   5.375   3.942  11.115 -1.2016  3.1855  2.1729
  715MOL0     H98657   5.358   4.018  10.875  1.4370  2.0518  3.2243
  715MOL0     H98658   5.045   4.069  10.555 -0.1128  0.7048 -0.9268
  715MOL0     H98659   4.950   3.986  10.673 -1.8887  0.7065  2.4683
  715MOL0     H98660   4.843   4.172  10.759 -2.4607  2.0188 -1.8151
  715MOL0     H98661   4.861   4.192  10.580  2.8144  0.9617 -1.0645
  715MOL0     H98662   5.032   4.320  10.798  0.5814 -0.6615 -0.9036
  715MOL0     H98663   5.051   4.353  10.619  0.4500  2.8196  1.1848
  715MOL0     H98664   4.899   4.513  10.645 -0.2103  1.0502  1.4721
  715MOL0     H98665   4.898   4.482  10.815  1.3232 -2.2974  0.1122
  715MOL0     H98666   4.514   4.398  10.725  0.7126  1.6784 -0.0911
  715MOL0     H98667   4.925   4.032  10.922  0.0192  1.9889  1.1443
  715MOL0     H98668   4.896   3.864  11.214 -0.4413 -0.7552 -0.9774
  715MOL0     H98669   4.876   4.049  11.203  0.0805  0.2450 -0.0633
  715MOL0     H98670   4.835   3.940  11.072 -1.0326  2.9440  0.1528
  716MOL0     O98671  11.309   0.263   9.457  0.4354  0.4425  0.4022
  716MOL0     C98672  11.189   0.242   9.443  0.3197 -0.8333 -0.7718
  716MOL0     O98673  11.134   0.147   9.367  0.0617  0.0737 -0.3678
  716MOL0     C98674  11.216   0.065   9.287  0.7048 -0.9742 -0.4989
  716MOL0     C98675  11.268  -0.043   9.358  0.1681 -0.8547 -0.5230
  716MOL0     C98676  11.353  -0.130   9.294  0.4331 -0.1233  0.3203
  716MOL0     C98677  11.371  -0.135   9.150 -0.3669  0.2788 -0.4587
  716MOL0     O98678  11.437  -0.246   9.108  0.2546  0.3280 -0.0184
  716MOL0     C98679  11.426  -0.278   8.971 -0.3487 -0.1086  0.0904
  716MOL0     C98680  11.509  -0.405   8.959 -0.3357  0.2623 -0.5283
  716MOL0     C98681  11.447  -0.520   9.025 -0.0554 -0.2139  0.6223
  716MOL0     C98682  11.510  -0.666   9.003  0.7437 -1.0680 -0.3828
  716MOL0     C98683  11.416  -0.768   9.056  0.4128  0.1514  0.2045
  716MOL0     C98684  11.455  -0.917   9.038 -0.3002  0.5789 -0.1387
  716MOL0     C98685  11.355  -1.005   9.112 -0.0428  0.9114  0.0330
  716MOL0     C98686  11.373  -1.157   9.084  0.3831  0.2488 -0.1087
  716MOL0     N98687  11.512  -1.196   9.129  0.2701 -0.1846 -0.1740
  716MOL0     C98688  11.561  -1.210   9.252  0.0658 -0.0146  0.2596
  716MOL0     C98689  11.679  -1.271   9.244  0.0498 -0.3363  0.1866
  716MOL0     C98690  11.767  -1.302   9.358 -0.2449  0.6918  0.2111
  716MOL0     C98691  11.890  -1.204   9.385  0.3237  1.2971 -0.3924
  716MOL0     C98692  11.983  -1.204   9.260  0.3211 -0.2667  0.5328
  716MOL0     C98693  12.109  -1.112   9.275  0.0343  0.2940  0.1461
  716MOL0     O98694  12.194  -1.144   9.169  0.4935 -0.8921  0.1599
  716MOL0     C98695  12.315  -1.082   9.167 -0.1821  0.4060 -0.6735
  716MOL0     C98696  12.395  -1.117   9.059 -0.5166 -1.2749 -0.4512
  716MOL0     C98697  12.530  -1.078   9.054  0.1806  0.5211 -0.7652
  716MOL0     C98698  12.607  -1.115   8.931 -0.2593 -0.1627 -0.6048
  716MOL0     C98699  12.587  -1.002   9.165  0.8367 -0.8143 -0.4743
  716MOL0     C98700  12.731  -0.954   9.176 -0.1604  0.2928 -0.0482
  716MOL0     O98701  12.784  -0.886   9.281  0.1215  0.2119  0.3261
  716MOL0     C98702  12.919  -0.897   9.306  1.2325 -0.2619 -0.6158
  716MOL0     C98703  12.990  -1.020   9.302 -0.8796  0.1125 -0.5408
  716MOL0     C98704  13.128  -1.011   9.330 -0.1715  0.5242 -0.1115
  716MOL0     C98705  13.200  -0.904   9.377  0.1324  0.4337 -0.0021
  716MOL0     O98706  13.322  -0.903   9.423 -0.2282  0.0365 -0.0710
  716MOL0     C98707  13.411  -0.975   9.344 -0.4758  1.0611 -0.4608
  716MOL0     C98708  13.555  -0.939   9.378  0.1069  0.6675 -0.0826
  716MOL0     C98709  13.658  -1.036   9.311  1.0345 -0.9995 -0.7782
  716MOL0     C98710  13.701  -0.989   9.177  0.4703  0.6760 -0.1109
  716MOL0     C98711  13.849  -1.027   9.153 -1.0146 -0.8975 -0.0256
  716MOL0     C98712  13.894  -1.170   9.188  0.1651  0.9458  0.1499
  716MOL0     C98713  14.047  -1.180   9.209  0.6189  0.5883 -0.1921
  716MOL0     C98714  14.120  -1.130   9.089  0.7615 -0.1951  0.4110
  716MOL0    Cl98715  14.297  -1.134   9.119  0.0048  0.1611  0.0414
  716MOL0     C98716  13.124  -0.791   9.398  0.8513  0.8603  0.3167
  716MOL0     C98717  12.989  -0.785   9.355 -0.5481 -0.2539  0.1427
  716MOL0     O98718  12.804  -0.988   9.084 -0.1694 -0.0374  0.0906
  716MOL0     C98719  12.504  -0.969   9.279 -0.4213 -0.2811  0.6874
  716MOL0     C98720  12.375  -1.009   9.274  1.1888  0.5759 -0.0875
  716MOL0     N98721  11.706  -1.305   9.112  1.1757 -0.2070 -0.3405
  716MOL0     N98722  11.593  -1.272   9.046 -0.0664  0.5099 -0.1965
  716MOL0     C98723  11.318  -0.028   9.082 -0.8294 -0.0596  0.4086
  716MOL0     C98724  11.245   0.074   9.143 -0.4632  0.8273  0.7190
  716MOL0     C98725  11.092   0.337   9.519 -0.1545  0.2357  0.2624
  716MOL0     C98726  10.958   0.292   9.526 -0.3610 -0.1104 -0.5855
  716MOL0     C98727  10.857   0.375   9.573  0.4509 -0.7539 -0.2442
  716MOL0     C98728  10.881   0.510   9.614  0.3411  0.5836 -0.7070
  716MOL0     O98729  10.770   0.578   9.665  0.4879  0.3192 -0.3877
  716MOL0     C98730  10.732   0.695   9.589 -0.6802 -0.1824 -0.5023
  716MOL0     C98731  10.587   0.737   9.618 -1.2945 -0.4669 -0.4187
  716MOL0     C98732  10.561   0.761   9.768  0.0700  0.6726 -0.3258
  716MOL0     C98733  10.421   0.794   9.795 -0.7241 -0.3762 -0.2769
  716MOL0     C98734  10.398   0.899   9.886 -0.2497  0.6452  0.1572
  716MOL0     C98735  10.363   0.987   9.961 -0.4608  0.2671 -0.6622
  716MOL0     C98736  11.007   0.561   9.595 -0.2114  0.5507  0.2440
  716MOL0     C98737  11.113   0.478   9.548  0.1583  0.6679  0.0543
  716MOL0     C98738  11.237   0.554   9.514  0.5503 -0.2782 -0.1777
  716MOL0     H98739  11.256  -0.054   9.465 -0.0772 -1.0177 -0.5672
  716MOL0     H98740  11.403  -0.209   9.350  0.5629  0.9358  1.7413
  716MOL0     H98741  11.477  -0.197   8.919  1.5436  0.7533  3.0121
  716MOL0     H98742  11.322  -0.294   8.941 -0.6434 -0.4329  1.2273
  716MOL0     H98743  11.519  -0.421   8.851  1.0705  0.2620 -0.4193
  716MOL0     H98744  11.611  -0.392   8.997 -0.5551  3.8492 -0.7672
  716MOL0     H98745  11.464  -0.502   9.132 -1.3725  2.7773  0.4347
  716MOL0     H98746  11.341  -0.527   9.001  0.1494  0.7552 -0.6408
  716MOL0     H98747  11.540  -0.679   8.898  3.2001  0.1459  0.1060
  716MOL0     H98748  11.605  -0.673   9.057 -2.5473 -3.1786  6.1288
  716MOL0     H98749  11.321  -0.760   9.002  0.5826 -1.4718 -0.3834
  716MOL0     H98750  11.419  -0.738   9.161  2.6905  2.0624 -0.3009
  716MOL0     H98751  11.458  -0.943   8.931 -0.6893 -1.1892  0.2491
  716MOL0     H98752  11.555  -0.930   9.080 -0.2904  0.9772 -0.0386
  716MOL0     H98753  11.249  -0.985   9.096 -0.4044 -0.0644  1.0102
  716MOL0     H98754  11.370  -0.993   9.220 -1.6937 -1.4059  0.6064
  716MOL0     H98755  11.298  -1.193   9.155  1.1170  2.2712  1.7959
  716MOL0     H98756  11.355  -1.175   8.978  0.3839  1.6289 -0.3653
  716MOL0     H98757  11.528  -1.162   9.344 -0.9874  4.9177 -2.3198
  716MOL0     H98758  11.802  -1.404   9.343 -0.4540  0.2918  2.1822
  716MOL0     H98759  11.707  -1.298   9.450 -1.9689  2.3084 -0.8841
  716MOL0     H98760  11.849  -1.104   9.397  0.1582  1.3603 -1.3700
  716MOL0     H98761  11.947  -1.244   9.470  0.4232  3.6266  0.7145
  716MOL0     H98762  12.020  -1.305   9.239 -0.0582 -0.2402 -0.3144
  716MOL0     H98763  11.924  -1.173   9.173  1.5648 -1.3926 -0.7669
  716MOL0     H98764  12.074  -1.009   9.286  1.1166  0.4229  3.1503
  716MOL0     H98765  12.147  -1.139   9.374  0.8007 -0.9967 -0.4760
  716MOL0     H98766  12.356  -1.175   8.976  1.4050 -1.0727 -1.5545
  716MOL0     H98767  12.700  -1.166   8.956  0.9492  1.4172 -1.7017
  716MOL0     H98768  12.622  -1.025   8.871  1.6175  0.6645  1.0139
  716MOL0     H98769  12.567  -1.196   8.869  2.6269 -0.7365 -1.8849
  716MOL0     H98770  12.949  -1.116   9.272  2.4996 -1.6161 -0.0229
  716MOL0     H98771  13.183  -1.105   9.330  0.8879  1.1238 -0.5189
  716MOL0     H98772  13.388  -1.082   9.353 -0.8232  1.3021  2.4276
  716MOL0     H98773  13.393  -0.937   9.243  2.1097  2.0769 -0.6234
  716MOL0     H98774  13.571  -0.837   9.341 -1.9822  0.9238 -0.4075
  716MOL0     H98775  13.572  -0.935   9.486  0.7944 -1.1758 -0.0898
  716MOL0     H98776  13.606  -1.132   9.308 -2.0703  0.4953  0.5213
  716MOL0     H98777  13.745  -1.036   9.378 -0.2710 -1.5576  1.0175
  716MOL0     H98778  13.695  -0.880   9.170 -0.3780  0.6250 -0.2539
  716MOL0     H98779  13.632  -1.033   9.104 -1.5566  1.4160  1.2598
  716MOL0     H98780  13.875  -1.003   9.050 -1.1748 -1.6453 -0.2446
  716MOL0     H98781  13.909  -0.962   9.218 -0.4475  0.0195 -1.4229
  716MOL0     H98782  13.867  -1.242   9.111  1.4342  0.5346  0.0737
  716MOL0     H98783  13.846  -1.201   9.282  0.5270  1.6069  0.5633
  716MOL0     H98784  14.076  -1.283   9.231  2.4659  0.7674 -1.5522
  716MOL0     H98785  14.079  -1.120   9.296  0.5015  0.6118 -0.1651
  716MOL0     H98786  14.086  -1.028   9.070 -1.2322 -0.4111  2.4199
  716MOL0     H98787  14.095  -1.188   9.000 -0.5913  0.0572  0.6097
  716MOL0     H98788  13.180  -0.707   9.439  1.6440  0.0658  0.8787
  716MOL0     H98789  12.949  -0.684   9.351  0.1345  0.0597  0.7557
  716MOL0     H98790  12.544  -0.916   9.366 -0.0936  1.5482 -0.5102
  716MOL0     H98791  12.319  -0.997   9.367  1.1151 -0.8947  0.0846
  716MOL0     H98792  11.346  -0.018   8.978 -1.5519  0.9426  0.3002
  716MOL0     H98793  11.211   0.163   9.090  0.5544  0.0422 -1.3805
  716MOL0     H98794  10.933   0.190   9.497  0.9738 -1.4577  2.5170
  716MOL0     H98795  10.752   0.347   9.568  0.0217  0.8614 -0.8420
  716MOL0     H98796  10.802   0.776   9.607 -1.4639  0.8008 -1.7121
  716MOL0     H98797  10.748   0.688   9.481  1.1300  1.8630 -0.4176
  716MOL0     H98798  10.523   0.656   9.582 -1.1539 -0.5282 -0.5295
  716MOL0     H98799  10.569   0.828   9.560  1.1335  1.6477  1.8472
  716MOL0     H98800  10.581   0.671   9.827  0.0715  0.4737 -0.6279
  716MOL0     H98801  10.632   0.839   9.798  0.1277  0.3443  0.4220
  716MOL0     H98802  10.377   0.699   9.826 -4.5409  0.9257 -1.0467
  716MOL0     H98803  10.381   0.820   9.696 -1.0677  0.2126  0.0107
  716MOL0     H98804  10.322   1.057  10.032 -0.0591 -0.6575  0.5167
  716MOL0     H98805  11.027   0.668   9.590  0.4015  0.4180 -4.1668
  716MOL0     H98806  11.225   0.588   9.410  1.1516 -1.5946 -0.7074
  716MOL0     H98807  11.256   0.631   9.588  0.9067 -0.4253 -0.1114
  716MOL0     H98808  11.328   0.492   9.513  0.4271 -0.4629 -0.5252
  717MOL0     O98809   7.282   6.333   6.160 -0.5143 -0.5212  0.2304
  717MOL0     C98810   7.238   6.219   6.175 -0.0053 -0.4023 -0.4743
  717MOL0     O98811   7.317   6.115   6.218 -0.2407  0.1905  0.5231
  717MOL0     C98812   7.443   6.158   6.250 -0.3399 -0.5767 -0.2556
  717MOL0     C98813   7.556   6.131   6.162  0.6781  0.7184 -0.0686
  717MOL0     C98814   7.682   6.184   6.191 -0.0398 -0.1499 -0.1931
  717MOL0     C98815   7.699   6.263   6.311  0.3899  1.4250 -0.0811
  717MOL0     O98816   7.825   6.310   6.341  0.4060 -0.4239 -0.1071
  717MOL0     C98817   7.905   6.237   6.433 -0.0952  0.0418 -0.4542
  717MOL0     C98818   8.010   6.327   6.494  0.8952 -0.3552 -0.3732
  717MOL0     C98819   7.954   6.432   6.585  0.3791  0.6068 -0.7808
  717MOL0     C98820   7.920   6.392   6.734  0.4170 -1.7091  0.8286
  717MOL0     C98821   7.876   6.508   6.821 -0.0974 -0.4013 -1.0588
  717MOL0     C98822   7.759   6.581   6.767  0.3067 -0.0791 -0.2800
  717MOL0     C98823   7.694   6.674   6.871  1.1725  0.6545 -0.2698
  717MOL0     C98824   7.600   6.772   6.799 -0.0941  0.5652  0.1535
  717MOL0     N98825   7.482   6.712   6.752  0.5774 -0.0344 -0.2991
  717MOL0     C98826   7.433   6.751   6.627  0.5845  0.7374  0.0024
  717MOL0     C98827   7.321   6.678   6.607 -0.4772  0.6667 -0.2875
  717MOL0     C98828   7.245   6.692   6.476 -0.5647  0.7844 -0.3138
  717MOL0     C98829   7.221   6.557   6.410 -0.8183 -0.7690  0.2486
  717MOL0     C98830   7.112   6.471   6.477  0.0905  1.1729  0.1690
  717MOL0     C98831   6.985   6.555   6.491  0.3272  0.4296 -0.4211
  717MOL0     O98832   6.884   6.464   6.532  0.1893 -0.0281  0.0328
  717MOL0     C98833   6.780   6.438   6.442  0.6453  0.1002  0.0082
  717MOL0     C98834   6.731   6.517   6.333  0.8158  0.4041  0.5562
  717MOL0     C98835   6.614   6.480   6.262  0.7899  0.1898 -0.0873
  717MOL0     C98836   6.570   6.575   6.144  0.2349  0.8638 -0.1751
  717MOL0     C98837   6.540   6.363   6.296  0.5213  0.2337  0.7415
  717MOL0     C98838   6.410   6.327   6.221  0.1794  0.8415 -0.6610
  717MOL0     O98839   6.371   6.385   6.114  0.4828 -0.0435  0.2196
  717MOL0     C98840   6.241   6.353   6.068 -0.2739 -0.6345  0.4765
  717MOL0     C98841   6.138   6.436   6.078  0.9507 -0.2629  0.0956
  717MOL0     C98842   6.006   6.418   6.019 -0.1471  0.8143  0.0220
  717MOL0     C98843   5.976   6.302   5.949  0.2492  0.0607  0.1180
  717MOL0     O98844   5.851   6.291   5.889  0.2284  0.1811  0.0388
  717MOL0     C98845   5.803   6.156   5.875  0.3745 -0.2357 -0.4131
  717MOL0     C98846   5.658   6.155   5.850  0.4598 -0.2226 -0.7292
  717MOL0     C98847   5.615   6.242   5.731 -0.2138  0.6356  0.1694
  717MOL0     C98848   5.461   6.228   5.684  0.0154  1.1420  0.1232
  717MOL0     C98849   5.363   6.239   5.801 -0.1047  0.0277  0.8054
  717MOL0     C98850   5.219   6.280   5.780  0.4133 -0.2992  0.0744
  717MOL0     C98851   5.130   6.266   5.908 -0.1675 -1.5945 -0.2931
  717MOL0     C98852   4.982   6.313   5.883  0.2709 -0.0429  0.9973
  717MOL0    Cl98853   4.963   6.489   5.858 -0.1059 -0.1401 -0.2152
  717MOL0     C98854   6.083   6.207   5.937 -0.5024 -0.2733 -0.0834
  717MOL0     C98855   6.210   6.236   6.000 -0.0772 -0.0055 -0.3800
  717MOL0     O98856   6.345   6.234   6.266 -0.0207  0.6717 -0.6175
  717MOL0     C98857   6.584   6.286   6.404  0.0132 -0.3653 -0.0521
  717MOL0     C98858   6.702   6.321   6.476 -0.5856  0.5148  0.2214
  717MOL0     N98859   7.299   6.601   6.721 -0.7853  0.8781  0.0425
  717MOL0     N98860   7.395   6.622   6.808 -0.3695 -0.1187  0.0643
  717MOL0     C98861   7.585   6.283   6.398  0.2683  0.0946  0.1099
  717MOL0     C98862   7.458   6.230   6.368 -0.4217 -0.1898 -0.4773
  717MOL0     C98863   7.094   6.192   6.173  1.3015  0.0126  0.6689
  717MOL0     C98864   7.057   6.061   6.202  0.4050 -0.6873  0.6440
  717MOL0     C98865   6.921   6.027   6.202 -0.1209 -0.5256  0.8889
  717MOL0     C98866   6.826   6.115   6.160  0.4402 -0.2880  0.9950
  717MOL0     O98867   6.693   6.069   6.167 -0.1524 -0.0088 -0.3912
  717MOL0     C98868   6.595   6.076   6.062  0.6048 -0.8324 -0.5197
  717MOL0     C98869   6.643   6.039   5.929 -0.1396 -0.0320 -0.6042
  717MOL0     C98870   6.697   5.894   5.940  0.0613 -0.1224 -0.1314
  717MOL0     C98871   6.793   5.860   5.821  0.7281 -0.1190 -0.2751
  717MOL0     C98872   6.923   5.935   5.833  0.1548 -0.4896 -0.2297
  717MOL0     C98873   7.031   5.997   5.843  0.0074 -0.6020  0.7553
  717MOL0     C98874   6.858   6.247   6.138  0.4493 -0.1897 -0.2634
  717MOL0     C98875   6.989   6.291   6.137 -0.5145 -0.0012 -0.2592
  717MOL0     C98876   7.020   6.422   6.077 -0.3488  0.3650  0.2484
  717MOL0     H98877   7.549   6.073   6.071  2.6844  1.7006 -0.9092
  717MOL0     H98878   7.773   6.166   6.135 -0.0314 -2.2320  0.3851
  717MOL0     H98879   7.962   6.162   6.378 -0.9658  0.7530 -2.4284
  717MOL0     H98880   7.853   6.193   6.518 -2.7834  1.7179 -1.1168
  717MOL0     H98881   8.077   6.253   6.539  0.0871 -0.0979  1.3367
  717MOL0     H98882   8.066   6.378   6.415  2.5818 -1.0673  0.3322
  717MOL0     H98883   8.030   6.511   6.578  2.8167 -1.5212  0.0496
  717MOL0     H98884   7.863   6.474   6.540  0.0132  2.1649  1.2136
  717MOL0     H98885   7.849   6.308   6.728 -0.9604 -0.5169 -0.5839
  717MOL0     H98886   8.015   6.358   6.776  1.1150 -1.0420 -0.1596
  717MOL0     H98887   7.953   6.586   6.825 -0.3670 -0.1135 -1.4296
  717MOL0     H98888   7.859   6.476   6.925 -0.5960  1.9390 -0.3557
  717MOL0     H98889   7.794   6.654   6.693 -0.1624  0.4843  0.0404
  717MOL0     H98890   7.684   6.519   6.717 -2.1596  2.9305 -0.6158
  717MOL0     H98891   7.768   6.743   6.912  2.4148 -0.7410 -0.1040
  717MOL0     H98892   7.636   6.608   6.935  0.0278 -0.5581 -2.4284
  717MOL0     H98893   7.574   6.854   6.868 -0.3566 -0.9271  1.9016
  717MOL0     H98894   7.653   6.829   6.723  0.3001 -0.3792 -0.2928
  717MOL0     H98895   7.489   6.814   6.559  3.1079  0.4999  1.7243
  717MOL0     H98896   7.308   6.753   6.411  4.1840  0.3680  3.3564
  717MOL0     H98897   7.155   6.751   6.496 -1.7855 -0.7262 -1.1239
  717MOL0     H98898   7.185   6.565   6.307 -1.3453 -2.6903  0.2375
  717MOL0     H98899   7.313   6.498   6.405  0.1852  0.2997  3.5251
  717MOL0     H98900   7.078   6.385   6.419 -2.8169  2.1879  0.2244
  717MOL0     H98901   7.143   6.442   6.578 -1.8162  0.5166  0.6093
  717MOL0     H98902   6.990   6.639   6.561 -1.1129  0.6420 -0.5322
  717MOL0     H98903   6.977   6.611   6.398 -0.0317  1.5892  0.2807
  717MOL0     H98904   6.793   6.597   6.293 -1.0091  0.6510 -2.0406
  717MOL0     H98905   6.574   6.530   6.045 -1.7728  1.9435 -0.8013
  717MOL0     H98906   6.643   6.656   6.138 -1.5251  2.6074  0.7240
  717MOL0     H98907   6.470   6.616   6.165 -0.1853 -0.2475  0.0881
  717MOL0     H98908   6.164   6.530   6.126 -0.6807  1.3668 -1.9990
  717MOL0     H98909   5.932   6.497   6.028  0.0166  0.9487  0.2307
  717MOL0     H98910   5.853   6.105   5.792  1.2007 -0.4121  0.1794
  717MOL0     H98911   5.831   6.091   5.959 -1.0464 -0.4416 -0.0764
  717MOL0     H98912   5.624   6.054   5.823 -1.0642 -0.0086  0.2272
  717MOL0     H98913   5.596   6.184   5.936  1.9961 -1.6519  0.9363
  717MOL0     H98914   5.678   6.233   5.642 -0.3207  0.3061  0.1269
  717MOL0     H98915   5.627   6.349   5.753  1.2252  0.0989  2.2092
  717MOL0     H98916   5.456   6.137   5.625  0.2342  0.8458  0.5547
  717MOL0     H98917   5.443   6.318   5.624  1.1845  2.2168  1.3050
  717MOL0     H98918   5.349   6.142   5.849 -3.1857  0.6271  1.2908
  717MOL0     H98919   5.415   6.310   5.866 -1.2136 -0.2936  2.1020
  717MOL0     H98920   5.169   6.223   5.700  0.1225  0.7357 -0.4982
  717MOL0     H98921   5.214   6.385   5.752 -2.3838 -0.4762 -0.4375
  717MOL0     H98922   5.168   6.337   5.981 -1.0125 -2.8650  1.4459
  717MOL0     H98923   5.122   6.163   5.943 -2.9268 -1.6263 -0.7935
  717MOL0     H98924   4.916   6.267   5.956 -1.9159 -0.7290 -1.2695
  717MOL0     H98925   4.935   6.274   5.792  1.2851  2.9031 -0.9608
  717MOL0     H98926   6.056   6.110   5.894 -0.3450 -0.0311 -0.7380
  717MOL0     H98927   6.293   6.166   5.991 -1.2034 -1.2852 -1.1936
  717MOL0     H98928   6.545   6.191   6.439 -0.0826  0.2078  1.4610
  717MOL0     H98929   6.729   6.264   6.565  1.7132  1.8641  0.4520
  717MOL0     H98930   7.603   6.346   6.484  1.7572  2.0227 -1.5143
  717MOL0     H98931   7.370   6.256   6.425  0.0387 -0.6724  0.4829
  717MOL0     H98932   7.126   5.979   6.221  1.2590 -0.2146 -0.3624
  717MOL0     H98933   6.885   5.933   6.242 -0.5926 -0.5549  0.4049
  717MOL0     H98934   6.507   6.018   6.091 -1.3377  1.8364 -0.6128
  717MOL0     H98935   6.552   6.177   6.060 -0.6795 -1.3396  0.1527
  717MOL0     H98936   6.723   6.100   5.885 -1.0853  0.2641 -1.9796
  717MOL0     H98937   6.560   6.052   5.859 -1.0369  0.4039  0.5094
  717MOL0     H98938   6.739   5.866   6.037 -0.8659 -0.3427  0.2186
  717MOL0     H98939   6.608   5.831   5.934 -0.3050  0.1427  1.8858
  717MOL0     H98940   6.744   5.891   5.728  1.2898 -0.0380 -0.5520
  717MOL0     H98941   6.784   5.751   5.812 -2.2539  0.0427 -0.3026
  717MOL0     H98942   7.123   6.051   5.846 -0.5018  0.2687  1.2299
  717MOL0     H98943   6.775   6.314   6.117  1.1314  0.9742  0.6420
  717MOL0     H98944   6.929   6.473   6.044 -0.2418 -0.2602 -1.0444
  717MOL0     H98945   7.059   6.484   6.159 -0.8674 -0.6187  1.2654
  717MOL0     H98946   7.090   6.413   5.994 -1.7423  1.7653 -1.1356
  718MOL0     O98947   5.823   2.662   5.209 -0.1388 -0.1320 -0.7671
  718MOL0     C98948   5.738   2.597   5.143  0.1925  0.6131 -0.7686
  718MOL0     O98949   5.663   2.652   5.050  0.3854  0.2361  0.6455
  718MOL0     C98950   5.656   2.790   5.035 -0.3378 -1.0013 -0.0667
  718MOL0     C98951   5.764   2.861   4.973 -0.0056  0.8469  0.1087
  718MOL0     C98952   5.752   2.992   4.942 -0.2741 -1.0943  0.5873
  718MOL0     C98953   5.638   3.067   4.957  0.1335  1.0103  0.5584
  718MOL0     O98954   5.646   3.193   4.914 -0.3549  0.2757  0.2040
  718MOL0     C98955   5.534   3.274   4.935  0.5537  0.0858 -0.1442
  718MOL0     C98956   5.572   3.414   4.905 -0.4929  0.0286 -0.2464
  718MOL0     C98957   5.679   3.463   5.008  0.6066 -0.9069  0.0631
  718MOL0     C98958   5.738   3.606   4.966 -0.2928 -0.8407 -0.4669
  718MOL0     C98959   5.869   3.634   5.042 -1.0279  0.2937  0.6852
  718MOL0     C98960   5.985   3.531   5.032  0.4437 -0.1935 -0.3654
  718MOL0     C98961   6.119   3.590   5.085 -0.1154  0.3321 -0.3066
  718MOL0     C98962   6.219   3.476   5.063 -0.0551  0.3459  0.1398
  718MOL0     N98963   6.348   3.527   5.092  0.7869  0.0228  0.5162
  718MOL0     C98964   6.437   3.591   5.017  0.4176 -0.4646 -0.4548
  718MOL0     C98965   6.539   3.625   5.097 -0.5319  0.9476 -0.6172
  718MOL0     C98966   6.648   3.722   5.062 -0.0106  0.0681  0.3639
  718MOL0     C98967   6.791   3.659   5.062  0.7865  0.0242 -0.2414
  718MOL0     C98968   6.892   3.773   5.034 -0.6149 -0.3595  0.7786
  718MOL0     C98969   7.030   3.711   5.035 -0.3028 -0.4632  0.2106
  718MOL0     O98970   7.063   3.712   5.177 -0.2423  1.0086  0.8533
  718MOL0     C98971   7.196   3.668   5.199 -0.3838  0.0890  0.3207
  718MOL0     C98972   7.299   3.671   5.103  0.0960  0.5082  0.4609
  718MOL0     C98973   7.429   3.624   5.129  0.4053  0.1652  0.1865
  718MOL0     C98974   7.531   3.650   5.016 -0.4554  0.7421  0.0921
  718MOL0     C98975   7.459   3.560   5.252  0.5083  0.2118  0.0006
  718MOL0     C98976   7.597   3.516   5.291 -0.0042 -0.5914  0.0827
  718MOL0     O98977   7.610   3.499   5.430 -0.9484  0.3325  0.5097
  718MOL0     C98978   7.747   3.500   5.472 -0.0103  0.3993  1.1714
  718MOL0     C98979   7.814   3.623   5.460  0.0471  0.3415  0.5415
  718MOL0     C98980   7.948   3.635   5.501 -0.6444 -0.5283 -0.1043
  718MOL0     C98981   8.016   3.520   5.549  0.9334  0.3026 -0.6880
  718MOL0     O98982   8.150   3.520   5.577 -0.0991 -0.9354  0.5031
  718MOL0     C98983   8.209   3.642   5.621  0.1477  0.0143  1.0339
  718MOL0     C98984   8.334   3.614   5.718  0.5371  0.7299  0.1370
  718MOL0     C98985   8.291   3.536   5.852 -0.2175  0.5789 -0.1409
  718MOL0     C98986   8.420   3.481   5.918 -0.1213 -0.2668  1.0336
  718MOL0     C98987   8.512   3.589   5.970 -0.2177  0.2878  0.3653
  718MOL0     C98988   8.628   3.540   6.053 -0.0852 -0.2880  0.6963
  718MOL0     C98989   8.609   3.581   6.194 -0.1637  0.1183  1.0535
  718MOL0     C98990   8.698   3.514   6.298 -0.1040  0.1341 -0.5370
  718MOL0    Cl98991   8.866   3.525   6.246 -0.0914  0.3882  0.1207
  718MOL0     C98992   7.946   3.391   5.557  0.1231 -0.4434  0.2929
  718MOL0     C98993   7.809   3.384   5.519  0.1114 -1.3687  0.7872
  718MOL0     O98994   7.684   3.494   5.203 -0.0599  0.6384  0.2033
  718MOL0     C98995   7.350   3.548   5.350 -0.7604  0.4241  0.7523
  718MOL0     C98996   7.220   3.596   5.311 -0.1861  0.3149  0.1125
  718MOL0     N98997   6.520   3.573   5.226  0.6380  0.5133  0.2535
  718MOL0     N98998   6.406   3.508   5.215  1.0832 -0.1625 -0.1141
  718MOL0     C98999   5.528   2.990   5.003  0.1196 -0.2736  0.5918
  718MOL0     C99000   5.538   2.856   5.047 -0.1791 -0.2578 -0.0775
  718MOL0     C99001   5.727   2.448   5.172  0.3228  0.1773  0.2609
  718MOL0     C99002   5.838   2.384   5.231 -0.1993 -0.1640 -0.3712
  718MOL0     C99003   5.832   2.250   5.275 -0.0676  0.3410  0.5414
  718MOL0     C99004   5.720   2.167   5.249 -0.2428  0.2571  0.4598
  718MOL0     O99005   5.708   2.035   5.264  0.1060 -0.4493 -0.4822
  718MOL0     C99006   5.814   1.955   5.295 -0.4640 -0.3847 -0.8747
  718MOL0     C99007   5.761   1.813   5.317 -1.1388  0.1281  0.3853
  718MOL0     C99008   5.714   1.747   5.188 -0.2411 -0.1084  0.1135
  718MOL0     C99009   5.667   1.604   5.211 -0.1704  0.1041  0.2373
  718MOL0     C99010   5.783   1.512   5.211  0.0503 -0.2220  0.4770
  718MOL0     C99011   5.882   1.444   5.208 -0.5127  0.2149  0.8152
  718MOL0     C99012   5.604   2.234   5.195  0.7519 -0.8555  0.6795
  718MOL0     C99013   5.614   2.367   5.161 -0.0502 -0.4801  0.2500
  718MOL0     C99014   5.483   2.438   5.121  0.6778 -0.3953  0.2779
  718MOL0     H99015   5.845   2.794   4.946  0.0356  0.8931  0.1188
  718MOL0     H99016   5.834   3.052   4.902 -2.0754  2.0811  1.2526
  718MOL0     H99017   5.498   3.263   5.037  0.2800  1.7675 -0.0310
  718MOL0     H99018   5.457   3.245   4.863  0.5690 -2.0251  0.6058
  718MOL0     H99019   5.615   3.416   4.805  0.1778  0.2794  0.0443
  718MOL0     H99020   5.486   3.481   4.892 -0.7385 -0.5581 -1.8992
  718MOL0     H99021   5.628   3.467   5.105  1.5732  2.3463  0.5564
  718MOL0     H99022   5.763   3.394   5.019  2.5710  1.1220 -1.1438
  718MOL0     H99023   5.759   3.615   4.859 -0.2937  1.7896 -0.3159
  718MOL0     H99024   5.675   3.692   4.993  0.9277  0.3752 -1.3298
  718MOL0     H99025   5.851   3.657   5.148 -2.4205 -0.5006  0.6431
  718MOL0     H99026   5.916   3.722   4.998  1.3229 -0.6663  1.0999
  718MOL0     H99027   5.965   3.443   5.094  0.4443  0.8119  1.0974
  718MOL0     H99028   5.995   3.501   4.927 -1.6316 -0.0631 -0.6296
  718MOL0     H99029   6.108   3.621   5.189 -0.4332  1.3335 -0.6299
  718MOL0     H99030   6.142   3.681   5.029 -0.9257  1.8480  1.7203
  718MOL0     H99031   6.199   3.389   5.126 -1.2398 -1.0450 -2.0274
  718MOL0     H99032   6.223   3.432   4.963  0.5518 -1.7910  1.0434
  718MOL0     H99033   6.419   3.636   4.920  3.8761 -2.7451 -2.3357
  718MOL0     H99034   6.639   3.803   5.134  1.8825 -0.0357  0.7810
  718MOL0     H99035   6.636   3.755   4.959  1.5491  0.2925  0.2315
  718MOL0     H99036   6.802   3.626   5.166 -0.3163  0.7000  0.1038
  718MOL0     H99037   6.799   3.582   4.984  2.7935  0.6901 -0.7318
  718MOL0     H99038   6.866   3.806   4.933  1.1191 -3.5247 -0.8822
  718MOL0     H99039   6.886   3.853   5.107  0.0042  0.0799  0.3629
  718MOL0     H99040   7.020   3.614   4.986  0.4498 -0.9818  1.0495
  718MOL0     H99041   7.094   3.782   4.981 -2.8318  1.8611  0.0668
  718MOL0     H99042   7.283   3.715   5.005  0.4528 -0.1793  0.0896
  718MOL0     H99043   7.493   3.712   4.935 -0.8906  0.7144  0.2748
  718MOL0     H99044   7.554   3.551   4.975 -0.4844  0.1535  1.4296
  718MOL0     H99045   7.625   3.693   5.054  0.9985 -0.2744 -2.1347
  718MOL0     H99046   7.768   3.708   5.410  0.9378 -0.5900 -2.0665
  718MOL0     H99047   8.001   3.729   5.512 -2.6060  0.7045 -0.6525
  718MOL0     H99048   8.246   3.694   5.532  0.5230 -0.3258  0.9924
  718MOL0     H99049   8.131   3.698   5.675 -1.2240 -0.7664 -0.0603
  718MOL0     H99050   8.410   3.550   5.673  0.5288 -0.3243  1.5483
  718MOL0     H99051   8.376   3.711   5.744 -2.2371  2.3756 -1.0264
  718MOL0     H99052   8.234   3.446   5.824  0.2222 -0.1809  1.3019
  718MOL0     H99053   8.232   3.598   5.920 -0.2663 -0.5059  0.8349
  718MOL0     H99054   8.476   3.415   5.851  2.3720  1.4259  1.3194
  718MOL0     H99055   8.386   3.415   5.999 -2.1853  1.0384  1.2951
  718MOL0     H99056   8.554   3.657   5.894  0.5214 -0.7950 -0.2217
  718MOL0     H99057   8.454   3.657   6.033 -0.6335 -2.3821  3.0312
  718MOL0     H99058   8.726   3.577   6.020  0.4639 -2.1266  0.1594
  718MOL0     H99059   8.632   3.432   6.036  2.4689  0.0734 -1.8611
  718MOL0     H99060   8.511   3.539   6.221  1.1214 -2.0872  2.6205
  718MOL0     H99061   8.606   3.690   6.205  2.9453  0.3799  0.2172
  718MOL0     H99062   8.648   3.420   6.321 -2.9877  1.9372  1.3676
  718MOL0     H99063   8.700   3.569   6.393 -2.7319  2.8767 -1.9114
  718MOL0     H99064   7.986   3.298   5.596 -1.4311  0.1287  3.6503
  718MOL0     H99065   7.769   3.284   5.505  1.9107 -2.0801  0.4967
  718MOL0     H99066   7.375   3.496   5.442 -4.6105 -1.5390  0.8599
  718MOL0     H99067   7.136   3.588   5.379  0.4446  2.2284  1.2011
  718MOL0     H99068   5.437   3.045   5.023 -0.0880 -0.1488 -0.6035
  718MOL0     H99069   5.448   2.802   5.073  0.5007 -0.9049  0.9976
  718MOL0     H99070   5.930   2.440   5.244  0.1520 -0.2901 -2.1044
  718MOL0     H99071   5.923   2.210   5.319 -1.1814  0.2957  2.9736
  718MOL0     H99072   5.883   1.960   5.210 -1.4176  1.5538 -1.5837
  718MOL0     H99073   5.870   1.977   5.386  0.5296  0.1551 -1.6018
  718MOL0     H99074   5.681   1.814   5.392 -0.2878  0.4623  1.3021
  718MOL0     H99075   5.844   1.757   5.361  0.6521  2.9284  0.8010
  718MOL0     H99076   5.625   1.803   5.158 -2.7459 -3.0792  1.5034
  718MOL0     H99077   5.801   1.742   5.123  1.6145  1.8388  2.2373
  718MOL0     H99078   5.607   1.572   5.126 -0.3635  0.4804  0.2316
  718MOL0     H99079   5.610   1.590   5.304  2.4275 -0.9175  1.7838
  718MOL0     H99080   5.977   1.396   5.216 -0.0881  1.2256  2.5575
  718MOL0     H99081   5.506   2.188   5.185 -0.7153  2.2557 -0.5959
  718MOL0     H99082   5.481   2.445   5.012  1.1379 -0.3864  0.2674
  718MOL0     H99083   5.389   2.387   5.144  0.9304 -1.8267 -1.6144
  718MOL0     H99084   5.472   2.538   5.163 -0.4581 -0.1429 -0.5719
  719MOL0     O99085   5.485   4.333   5.404  0.1407  0.6501  0.2835
  719MOL0     C99086   5.432   4.224   5.410  0.2895  0.5864  0.6736
  719MOL0     O99087   5.489   4.112   5.353 -0.1425  0.0865 -0.3009
  719MOL0     C99088   5.613   4.105   5.289 -0.1010  1.2528  0.5785
  719MOL0     C99089   5.664   3.977   5.275  0.4455  0.4752  0.6338
  719MOL0     C99090   5.796   3.945   5.233 -0.0319 -0.6586 -0.7247
  719MOL0     C99091   5.873   4.059   5.183  0.0189  0.0755  0.0163
  719MOL0     O99092   5.997   4.062   5.123  0.4009 -0.1096 -0.1346
  719MOL0     C99093   6.066   3.957   5.188 -0.4653 -0.8452 -0.3983
  719MOL0     C99094   6.224   3.977   5.145  0.2879  0.1072  0.4154
  719MOL0     C99095   6.291   4.090   5.228 -0.0591  0.2736 -0.0606
  719MOL0     C99096   6.445   4.092   5.191  0.3456 -0.7915  0.2511
  719MOL0     C99097   6.493   4.223   5.259 -0.3819 -0.4427 -0.2346
  719MOL0     C99098   6.642   4.223   5.266  0.5000  0.1760  0.7039
  719MOL0     C99099   6.701   4.346   5.334 -0.0985  0.0617 -0.1175
  719MOL0     C99100   6.819   4.394   5.248  0.7986  0.0130 -0.4032
  719MOL0     N99101   6.913   4.287   5.213  0.2147  0.8823  0.4087
  719MOL0     C99102   6.999   4.213   5.294 -0.0786  0.6084  0.4490
  719MOL0     C99103   7.079   4.144   5.203  0.5487 -0.1268 -0.6845
  719MOL0     C99104   7.176   4.029   5.229  0.0904 -0.1153  0.3422
  719MOL0     C99105   7.319   4.081   5.220  0.1192 -0.4068  0.4335
  719MOL0     C99106   7.426   3.983   5.161  0.2646 -1.0639  0.0648
  719MOL0     C99107   7.567   4.043   5.184  0.3457 -0.6336  0.0696
  719MOL0     O99108   7.660   3.944   5.144  0.1086 -0.0966  0.6037
  719MOL0     C99109   7.796   3.966   5.181 -0.0345 -0.2620  0.2872
  719MOL0     C99110   7.886   3.868   5.144 -0.7609 -0.7075  0.1037
  719MOL0     C99111   8.026   3.880   5.194  0.2480  0.0829  0.2357
  719MOL0     C99112   8.119   3.769   5.157  0.2698  0.7408 -0.1313
  719MOL0     C99113   8.071   4.001   5.260  0.0299  0.3052 -0.0800
  719MOL0     C99114   8.203   4.010   5.309  0.0423  0.2788 -0.2990
  719MOL0     O99115   8.305   3.992   5.225 -0.7012 -0.2932  0.1319
  719MOL0     C99116   8.428   3.974   5.282  0.2098  0.1161  0.7795
  719MOL0     C99117   8.525   4.069   5.263  0.2633 -0.4238 -0.0449
  719MOL0     C99118   8.651   4.046   5.314 -0.8220 -0.4507  0.3799
  719MOL0     C99119   8.682   3.926   5.379 -0.6117  0.7162  0.5647
  719MOL0     O99120   8.802   3.886   5.439 -0.1447 -0.2352 -0.5815
  719MOL0     C99121   8.914   3.972   5.429  0.9421 -0.0792 -0.1920
  719MOL0     C99122   9.020   3.926   5.531  0.8140 -0.0993 -0.2248
  719MOL0     C99123   9.139   4.018   5.540  0.6563 -0.4660 -0.7221
  719MOL0     C99124   9.236   3.969   5.648  0.4022  0.6157  0.2657
  719MOL0     C99125   9.328   4.086   5.689 -0.1611 -0.2330  0.0370
  719MOL0     C99126   9.427   4.057   5.804 -0.1381  0.2218  1.4491
  719MOL0     C99127   9.496   4.180   5.861  0.4315  0.5946  0.2626
  719MOL0     C99128   9.643   4.167   5.890 -0.6155 -0.0299 -0.1385
  719MOL0    Cl99129   9.689   4.332   5.950  0.0265 -0.5720 -0.2770
  719MOL0     C99130   8.579   3.828   5.394 -1.2285 -0.0913 -0.5212
  719MOL0     C99131   8.453   3.857   5.348 -0.4127  0.6936 -0.3143
  719MOL0     O99132   8.211   4.066   5.419  0.3224 -0.1936  0.3629
  719MOL0     C99133   7.979   4.098   5.284  0.3968  0.5581 -0.3615
  719MOL0     C99134   7.846   4.080   5.245 -0.0306 -0.1728  0.3259
  719MOL0     N99135   7.036   4.174   5.073  0.7063  0.1702  0.0842
  719MOL0     N99136   6.941   4.259   5.077 -0.0557  0.3148 -0.6436
  719MOL0     C99137   5.813   4.186   5.182  0.7446 -0.4864  0.2378
  719MOL0     C99138   5.685   4.209   5.241  0.2071  0.3035  0.2787
  719MOL0     C99139   5.293   4.216   5.469 -0.7919  1.4950  0.0696
  719MOL0     C99140   5.231   4.086   5.465  0.3236 -0.1929 -0.2852
  719MOL0     C99141   5.100   4.074   5.516  0.1669  0.2180 -0.0325
  719MOL0     C99142   5.033   4.184   5.573  0.2446 -0.1423  0.3912
  719MOL0     O99143   4.910   4.169   5.622 -0.2040  0.0947  0.4985
  719MOL0     C99144   4.813   4.274   5.646 -0.5647  0.2247  0.0818
  719MOL0     C99145   4.672   4.226   5.661 -0.0503 -0.7337  0.8669
  719MOL0     C99146   4.579   4.335   5.710  0.6970  0.2951  0.3753
  719MOL0     C99147   4.440   4.276   5.738 -0.3005 -0.4671 -0.3230
  719MOL0     C99148   4.354   4.399   5.771  0.2627  0.2670 -1.2153
  719MOL0     C99149   4.283   4.495   5.796 -0.2379  0.0430 -0.1011
  719MOL0     C99150   5.094   4.311   5.583 -0.1341  1.1806 -0.2799
  719MOL0     C99151   5.228   4.326   5.532  0.4936 -0.2870  0.4559
  719MOL0     C99152   5.285   4.476   5.548  0.1928  0.6476 -0.8479
  719MOL0     H99153   5.610   3.891   5.314  0.2251  0.7136  0.8625
  719MOL0     H99154   5.844   3.848   5.231  1.4492  0.0331  0.0083
  719MOL0     H99155   6.042   3.857   5.151  2.7413 -0.5629 -3.9024
  719MOL0     H99156   6.062   3.966   5.297 -0.3059 -3.7739 -0.0790
  719MOL0     H99157   6.283   3.885   5.150 -2.0611 -1.4129  2.7354
  719MOL0     H99158   6.220   4.000   5.038 -1.2106 -0.6047  0.2941
  719MOL0     H99159   6.242   4.184   5.200 -1.1247 -1.1186 -3.5186
  719MOL0     H99160   6.273   4.062   5.332  0.3871  1.3702  0.3163
  719MOL0     H99161   6.488   4.000   5.230 -1.2927 -1.5015  0.4731
  719MOL0     H99162   6.460   4.098   5.083 -1.3240  1.6986  0.0532
  719MOL0     H99163   6.446   4.229   5.357  0.9505  0.5230  0.3748
  719MOL0     H99164   6.457   4.312   5.206 -0.1400 -0.0182  0.3054
  719MOL0     H99165   6.671   4.134   5.323  1.0537  1.5954  2.7339
  719MOL0     H99166   6.672   4.209   5.161 -2.1432 -1.0584  0.0233
  719MOL0     H99167   6.745   4.321   5.431  0.5070  0.7703 -0.2080
  719MOL0     H99168   6.629   4.428   5.333  1.3485  1.4437  1.6029
  719MOL0     H99169   6.792   4.429   5.148  0.0754  0.3703 -0.0938
  719MOL0     H99170   6.859   4.477   5.307  1.3006 -1.4545  1.4215
  719MOL0     H99171   7.012   4.205   5.402  1.2489 -3.2598  0.1323
  719MOL0     H99172   7.149   3.955   5.153  2.4287 -0.7121  0.0052
  719MOL0     H99173   7.153   3.990   5.328 -1.0845 -2.8062 -0.8742
  719MOL0     H99174   7.328   4.176   5.167  0.2587 -1.3030 -1.1893
  719MOL0     H99175   7.352   4.098   5.324 -3.7516 -0.3367  1.8098
  719MOL0     H99176   7.423   3.879   5.196 -0.1106 -1.8645 -2.1985
  719MOL0     H99177   7.407   3.981   5.053  2.1828  0.3076 -0.3465
  719MOL0     H99178   7.595   4.140   5.141  0.0605 -1.0777 -1.1683
  719MOL0     H99179   7.561   4.056   5.292 -1.3259  2.5761 -0.2906
  719MOL0     H99180   7.852   3.783   5.086  0.7295 -2.0307  1.0787
  719MOL0     H99181   8.198   3.754   5.231  0.1409 -1.0234 -0.3062
  719MOL0     H99182   8.154   3.797   5.056 -1.9814 -0.9430 -1.4626
  719MOL0     H99183   8.062   3.676   5.148  2.6816 -1.0163  1.4628
  719MOL0     H99184   8.506   4.167   5.219 -1.7995  0.6727  2.9873
  719MOL0     H99185   8.734   4.113   5.297  1.7669 -3.6878 -1.0620
  719MOL0     H99186   8.956   3.971   5.328  0.3151  1.0097 -0.4794
  719MOL0     H99187   8.885   4.074   5.456  0.3844 -0.1719 -0.4235
  719MOL0     H99188   8.979   3.923   5.632  4.8490  0.4547  1.6098
  719MOL0     H99189   9.043   3.821   5.507 -1.1972  0.0704 -3.5884
  719MOL0     H99190   9.112   4.121   5.565  6.1675  0.6386  2.4034
  719MOL0     H99191   9.187   4.020   5.441 -1.1626 -1.5768 -1.6901
  719MOL0     H99192   9.291   3.879   5.619 -1.7770 -0.4217 -0.9098
  719MOL0     H99193   9.174   3.951   5.737 -0.1108  0.1668 -0.1716
  719MOL0     H99194   9.387   4.115   5.601  2.4294 -0.6278  1.5340
  719MOL0     H99195   9.270   4.174   5.717  1.4981  0.9653 -0.1399
  719MOL0     H99196   9.509   4.003   5.756  0.0460  0.9408  0.9473
  719MOL0     H99197   9.381   3.988   5.875 -1.7003 -0.3838 -0.0762
  719MOL0     H99198   9.452   4.177   5.961  1.7963 -3.2428  0.9312
  719MOL0     H99199   9.466   4.266   5.801 -0.6895  1.1884  1.6218
  719MOL0     H99200   9.699   4.131   5.803 -0.7882  3.2648 -1.7817
  719MOL0     H99201   9.658   4.089   5.964 -0.6625 -0.5399 -0.6565
  719MOL0     H99202   8.600   3.731   5.438  1.4666  1.4227  1.8064
  719MOL0     H99203   8.369   3.788   5.349  1.1099 -1.2790 -0.9501
  719MOL0     H99204   8.005   4.192   5.331 -2.1891  1.3022 -0.2963
  719MOL0     H99205   7.784   4.164   5.274  1.4639  0.4568  1.8936
  719MOL0     H99206   5.867   4.273   5.146 -1.1337  0.8963  0.5766
  719MOL0     H99207   5.641   4.307   5.261  0.5655 -0.1813  4.2547
  719MOL0     H99208   5.281   4.002   5.418 -1.7405 -1.0788 -0.9993
  719MOL0     H99209   5.043   3.982   5.511 -2.3337  1.6568  0.2043
  719MOL0     H99210   4.838   4.313   5.745  0.3958 -1.2485  0.4431
  719MOL0     H99211   4.807   4.357   5.574 -0.2299  0.3900  0.2445
  719MOL0     H99212   4.678   4.151   5.740 -1.6704 -0.4755  1.2663
  719MOL0     H99213   4.636   4.185   5.567  2.1068 -0.2199 -0.2543
  719MOL0     H99214   4.631   4.361   5.803 -0.8920 -0.3569  1.4786
  719MOL0     H99215   4.572   4.425   5.648 -1.3181  0.2818  0.5193
  719MOL0     H99216   4.438   4.210   5.825 -0.9248  0.0659  0.0731
  719MOL0     H99217   4.401   4.222   5.651 -2.6868  0.1433  0.3083
  719MOL0     H99218   4.229   4.584   5.823 -1.3722 -0.0644 -1.8455
  719MOL0     H99219   5.034   4.395   5.614 -0.3276  0.7154  0.6243
  719MOL0     H99220   5.209   4.540   5.595  0.3501 -0.6219  1.2951
  719MOL0     H99221   5.386   4.486   5.588 -0.1533 -1.2103  0.6581
  719MOL0     H99222   5.291   4.517   5.447 -0.2924  0.4632 -0.9546
  720MOL0     O99223   5.160   8.091   4.665  0.3210 -0.4162 -0.6248
  720MOL0     C99224   5.178   8.013   4.576 -0.4869 -0.6021 -0.2200
  720MOL0     O99225   5.281   8.014   4.493 -0.5379 -0.3890  0.8377
  720MOL0     C99226   5.383   8.104   4.525 -0.2576 -0.3989 -0.3795
  720MOL0     C99227   5.401   8.224   4.451 -0.4948  0.6833 -0.2803
  720MOL0     C99228   5.497   8.317   4.492 -0.4864 -0.7906  0.8947
  720MOL0     C99229   5.590   8.286   4.597 -0.2465  0.6717 -0.6028
  720MOL0     O99230   5.677   8.388   4.633 -0.5122 -0.6147 -0.2934
  720MOL0     C99231   5.766   8.362   4.739 -0.1196  0.1257  0.6623
  720MOL0     C99232   5.844   8.497   4.764 -0.2040  0.4530  0.4764
  720MOL0     C99233   5.976   8.509   4.679 -1.0555  0.2481  0.3761
  720MOL0     C99234   5.949   8.559   4.537 -0.0262 -0.3936  0.1432
  720MOL0     C99235   6.061   8.548   4.434 -0.8694  0.2328 -0.4881
  720MOL0     C99236   6.044   8.622   4.303 -0.0969 -0.6400 -0.0128
  720MOL0     C99237   6.155   8.588   4.204 -0.6630 -0.0553 -0.1426
  720MOL0     C99238   6.183   8.439   4.170  0.9545  0.2235  0.3232
  720MOL0     N99239   6.287   8.413   4.062 -0.1355  0.0438 -1.0107
  720MOL0     C99240   6.422   8.445   4.084  0.5359 -0.1751 -0.5349
  720MOL0     C99241   6.479   8.424   3.966  0.0382 -1.1713  1.4849
  720MOL0     C99242   6.629   8.458   3.944 -0.1279  0.1030  0.0309
  720MOL0     C99243   6.684   8.399   3.808  0.3701  0.7582 -0.3367
  720MOL0     C99244   6.725   8.250   3.816  0.0382  0.0837 -0.0897
  720MOL0     C99245   6.872   8.222   3.872 -0.6151 -0.2523  0.5725
  720MOL0     O99246   6.956   8.260   3.765 -0.4127 -0.6627  0.5992
  720MOL0     C99247   7.076   8.198   3.734  0.9532  0.1899 -0.2317
  720MOL0     C99248   7.108   8.067   3.763 -0.0094  0.6604 -0.1026
  720MOL0     C99249   7.214   7.999   3.710  0.5457  0.2985 -0.4088
  720MOL0     C99250   7.224   7.848   3.732 -0.1761 -0.4813  0.5217
  720MOL0     C99251   7.291   8.072   3.617  0.0449 -0.0780 -0.1756
  720MOL0     C99252   7.403   8.023   3.538 -0.0439 -0.0307  1.1872
  720MOL0     O99253   7.437   8.095   3.427  0.3044  0.2216  0.0430
  720MOL0     C99254   7.537   8.040   3.356 -0.2731 -0.4148 -0.0991
  720MOL0     C99255   7.658   8.110   3.360  0.6863 -0.4548  0.2311
  720MOL0     C99256   7.758   8.071   3.277 -0.6468 -0.4813 -0.4022
  720MOL0     C99257   7.752   7.953   3.201  0.1139  0.4675 -0.4146
  720MOL0     O99258   7.864   7.909   3.129 -0.2576 -0.6410  0.3150
  720MOL0     C99259   7.838   7.848   3.001 -0.5144  0.0029 -0.7809
  720MOL0     C99260   7.870   7.947   2.893 -0.0814 -0.5966 -0.6970
  720MOL0     C99261   7.738   8.020   2.855 -1.2723 -0.2198  0.3883
  720MOL0     C99262   7.772   8.086   2.720  0.1575  0.3239  0.2734
  720MOL0     C99263   7.660   8.182   2.678 -0.0237 -0.1130 -0.3393
  720MOL0     C99264   7.700   8.266   2.554  0.5045 -1.3278 -0.0030
  720MOL0     C99265   7.595   8.379   2.530 -0.3969 -0.4098 -0.1291
  720MOL0     C99266   7.638   8.458   2.406 -0.1235  0.0752  0.1811
  720MOL0    Cl99267   7.786   8.548   2.446  0.0324  0.0187 -0.5267
  720MOL0     C99268   7.626   7.881   3.202  0.4982 -0.0464  0.3064
  720MOL0     C99269   7.520   7.932   3.274  0.7326  0.0343 -0.4184
  720MOL0     O99270   7.466   7.924   3.574  0.0738  0.2258 -0.3514
  720MOL0     C99271   7.260   8.208   3.590 -0.0028 -0.1652 -1.2075
  720MOL0     C99272   7.153   8.269   3.652 -0.6411 -0.5747  0.4956
  720MOL0     N99273   6.380   8.379   3.872 -0.6287 -0.3282 -0.0258
  720MOL0     N99274   6.264   8.369   3.932 -0.1059 -0.6827 -0.6797
  720MOL0     C99275   5.579   8.158   4.656  0.5324  0.2343 -0.2489
  720MOL0     C99276   5.480   8.066   4.616 -0.3336 -0.2063 -0.2155
  720MOL0     C99277   5.080   7.909   4.569  0.3284  0.0938 -0.0280
  720MOL0     C99278   5.117   7.784   4.525  0.2041  0.0098 -0.1483
  720MOL0     C99279   5.017   7.684   4.519 -0.0452  0.3702 -0.3969
  720MOL0     C99280   4.883   7.712   4.531 -0.6708  0.6468  0.3871
  720MOL0     O99281   4.793   7.615   4.522  0.1494 -0.6028 -0.1173
  720MOL0     C99282   4.826   7.473   4.527  0.6152  0.8617  0.1460
  720MOL0     C99283   4.699   7.385   4.534  0.0178  0.0503 -0.4110
  720MOL0     C99284   4.598   7.411   4.427  0.1625  0.5572  0.4741
  720MOL0     C99285   4.642   7.382   4.281 -0.3533  1.1571  0.8763
  720MOL0     C99286   4.706   7.505   4.227 -0.3734 -0.1239  0.2693
  720MOL0     C99287   4.757   7.600   4.184  0.1233 -0.4425 -0.1784
  720MOL0     C99288   4.852   7.837   4.563  0.6151 -0.3166 -0.1161
  720MOL0     C99289   4.943   7.946   4.580  0.5502 -0.6751 -0.3863
  720MOL0     C99290   4.901   8.080   4.606  0.8310 -0.1995 -0.4059
  720MOL0     H99291   5.333   8.260   4.374  0.3077  3.9107  0.3642
  720MOL0     H99292   5.501   8.415   4.446 -0.6080 -0.1783  2.1603
  720MOL0     H99293   5.832   8.277   4.720  0.8474  0.1217  3.5850
  720MOL0     H99294   5.713   8.337   4.832 -0.9121  0.5941  0.3472
  720MOL0     H99295   5.782   8.586   4.756  0.1387  0.7720  1.2579
  720MOL0     H99296   5.870   8.492   4.870  0.3057 -2.2294  0.3176
  720MOL0     H99297   6.044   8.573   4.734  0.3892 -2.2431  1.6784
  720MOL0     H99298   6.018   8.408   4.669  0.4949  0.8782  0.3829
  720MOL0     H99299   5.850   8.522   4.508 -0.1344  0.4032 -0.5135
  720MOL0     H99300   5.940   8.667   4.547 -0.4555 -0.1604 -2.1465
  720MOL0     H99301   6.070   8.442   4.408 -0.8097  0.1245 -0.0343
  720MOL0     H99302   6.158   8.586   4.468 -0.2887 -0.4230 -1.3814
  720MOL0     H99303   5.945   8.586   4.273  0.0325  0.0147 -1.2926
  720MOL0     H99304   6.040   8.730   4.319 -1.0856 -0.7654  0.6761
  720MOL0     H99305   6.244   8.628   4.254 -0.8944  0.2500  0.0285
  720MOL0     H99306   6.151   8.642   4.109  0.1846  1.5411  0.6837
  720MOL0     H99307   6.215   8.385   4.260 -0.3468  1.7062  1.7375
  720MOL0     H99308   6.094   8.398   4.122 -0.1399  2.5309  0.2849
  720MOL0     H99309   6.469   8.486   4.173  1.2681  0.3000 -1.1232
  720MOL0     H99310   6.687   8.440   4.035 -0.7794  0.4134  0.5199
  720MOL0     H99311   6.638   8.567   3.931 -0.0372 -0.0520 -1.3584
  720MOL0     H99312   6.604   8.404   3.733 -0.0647 -3.0371 -0.3439
  720MOL0     H99313   6.766   8.462   3.774  0.7437 -0.0346 -0.9464
  720MOL0     H99314   6.649   8.189   3.866  0.3387 -1.5195 -1.4851
  720MOL0     H99315   6.733   8.206   3.717 -2.6118 -1.0185  0.0999
  720MOL0     H99316   6.899   8.280   3.961  0.6089 -0.5978  0.4452
  720MOL0     H99317   6.872   8.115   3.893 -0.3018 -0.8724 -2.1456
  720MOL0     H99318   7.045   8.013   3.833  1.8314  0.0188  1.1191
  720MOL0     H99319   7.321   7.812   3.767  1.2666  0.2930 -2.3326
  720MOL0     H99320   7.217   7.785   3.642  2.7233 -1.1371  0.6685
  720MOL0     H99321   7.153   7.812   3.807  1.4182 -1.6811  1.5326
  720MOL0     H99322   7.656   8.197   3.423 -0.2861  1.6315 -2.4743
  720MOL0     H99323   7.848   8.130   3.293 -1.2247  0.4643 -0.5675
  720MOL0     H99324   7.910   7.765   3.001  0.0096  0.2143  3.3409
  720MOL0     H99325   7.739   7.807   2.985 -0.3137  0.2297 -2.9242
  720MOL0     H99326   7.938   8.023   2.931 -0.2312 -1.0972  0.6421
  720MOL0     H99327   7.923   7.894   2.813  1.0488  0.6930 -0.8347
  720MOL0     H99328   7.710   8.082   2.941  1.3654  0.7078  0.6547
  720MOL0     H99329   7.659   7.948   2.832 -0.4064 -1.1641  0.3533
  720MOL0     H99330   7.795   8.004   2.652 -0.3192 -1.4058  2.1130
  720MOL0     H99331   7.855   8.158   2.721 -1.1639  2.0110 -1.3024
  720MOL0     H99332   7.568   8.127   2.656  0.5181 -1.5593  0.7982
  720MOL0     H99333   7.641   8.259   2.753  0.6471 -0.5452  0.2961
  720MOL0     H99334   7.705   8.203   2.465  1.0925 -0.9363 -0.2490
  720MOL0     H99335   7.797   8.312   2.576  0.0611 -0.7915  0.9129
  720MOL0     H99336   7.597   8.455   2.609 -1.7540  0.5314 -0.9698
  720MOL0     H99337   7.494   8.338   2.522 -0.2723 -0.5572 -1.0667
  720MOL0     H99338   7.558   8.531   2.389  0.9252  1.8950  2.3965
  720MOL0     H99339   7.645   8.400   2.314 -4.3666 -1.3796  0.5611
  720MOL0     H99340   7.609   7.785   3.155 -0.1337  0.4776 -0.5652
  720MOL0     H99341   7.424   7.881   3.273  0.4255  0.5195  1.3959
  720MOL0     H99342   7.324   8.262   3.521  0.1181  1.0106 -0.2152
  720MOL0     H99343   7.129   8.373   3.629 -0.2117 -0.3318  1.1130
  720MOL0     H99344   5.656   8.131   4.727  1.1485  1.8114 -0.2850
  720MOL0     H99345   5.490   7.965   4.656  0.8627  0.2219  0.6523
  720MOL0     H99346   5.224   7.765   4.519  0.2519 -0.5986  1.7400
  720MOL0     H99347   5.048   7.582   4.495  0.0671  0.2083  0.3947
  720MOL0     H99348   4.883   7.432   4.444  0.0033 -1.1624  0.6735
  720MOL0     H99349   4.885   7.439   4.613  1.1660 -3.7619 -1.7637
  720MOL0     H99350   4.649   7.412   4.628  1.5625  0.3636  0.3411
  720MOL0     H99351   4.727   7.279   4.528 -3.2084 -0.8153 -3.5337
  720MOL0     H99352   4.506   7.354   4.444  1.0607 -1.4617 -0.9692
  720MOL0     H99353   4.575   7.518   4.428  2.3582  1.1027  2.8629
  720MOL0     H99354   4.553   7.372   4.219  0.1375  0.5710  0.2474
  720MOL0     H99355   4.710   7.297   4.266 -0.8781  0.7352  0.8833
  720MOL0     H99356   4.781   7.694   4.138 -4.2082 -1.1652 -4.7463
  720MOL0     H99357   4.744   7.850   4.571  0.8385  1.9891 -0.2001
  720MOL0     H99358   4.792   8.076   4.607  0.7908 -4.4028 -1.6478
  720MOL0     H99359   4.934   8.103   4.708  0.1418 -1.5280  0.1409
  720MOL0     H99360   4.933   8.149   4.527  0.4450  2.0980  1.3450
  721MOL0     O99361   0.023   4.672   0.404 -0.0301  0.7348 -0.5030
  721MOL0     C99362   0.083   4.773   0.432 -0.2168 -0.7952  0.0390
  721MOL0     O99363   0.025   4.900   0.450  0.2304  0.2306 -0.4988
  721MOL0     C99364  -0.115   4.899   0.451 -0.3047  0.4047 -0.2007
  721MOL0     C99365  -0.195   4.915   0.339 -0.6025 -0.9726 -0.6116
  721MOL0     C99366  -0.337   4.905   0.342 -0.8171  0.2742  0.0907
  721MOL0     C99367  -0.397   4.895   0.467 -0.7621 -0.3551 -0.5176
  721MOL0     O99368  -0.531   4.904   0.483  0.5569  0.0192  0.2863
  721MOL0     C99369  -0.621   4.888   0.365 -0.9899 -0.1518 -0.1029
  721MOL0     C99370  -0.762   4.870   0.409  0.7343 -0.0686  0.5040
  721MOL0     C99371  -0.855   4.839   0.284 -0.4026  0.8007  0.2213
  721MOL0     C99372  -0.992   4.828   0.333  0.4624 -0.3483 -0.0713
  721MOL0     C99373  -1.078   4.757   0.232 -0.1472  0.6971 -0.3477
  721MOL0     C99374  -1.064   4.820   0.093 -0.8948 -0.7475  0.5433
  721MOL0     C99375  -1.186   4.762   0.007  0.1880  0.2462  0.5781
  721MOL0     C99376  -1.312   4.848   0.007  0.1991  0.5544  0.0491
  721MOL0     N99377  -1.295   4.987  -0.035 -0.2945 -0.3398  0.2364
  721MOL0     C99378  -1.254   5.022  -0.161 -0.1663 -0.1014 -0.3066
  721MOL0     C99379  -1.248   5.155  -0.156 -0.2838 -0.3462 -0.4258
  721MOL0     C99380  -1.214   5.237  -0.276 -0.3119  1.1204 -0.8552
  721MOL0     C99381  -1.110   5.196  -0.372 -1.1038  0.4618  0.2777
  721MOL0     C99382  -0.970   5.198  -0.315 -0.4832 -0.5523 -0.4979
  721MOL0     C99383  -0.859   5.149  -0.412  0.5954 -0.5515 -0.7078
  721MOL0     O99384  -0.829   5.259  -0.503  0.1221  0.5203 -0.2863
  721MOL0     C99385  -0.703   5.276  -0.546 -0.2712 -0.5434 -0.1780
  721MOL0     C99386  -0.666   5.401  -0.604  0.6151  0.1924  0.7984
  721MOL0     C99387  -0.544   5.426  -0.664  0.3559  0.2832  0.5388
  721MOL0     C99388  -0.528   5.560  -0.728  0.4452  0.7688 -0.3592
  721MOL0     C99389  -0.443   5.332  -0.657 -0.5600 -0.4291 -0.2896
  721MOL0     C99390  -0.302   5.348  -0.702 -0.1303 -0.8090 -0.1129
  721MOL0     O99391  -0.232   5.241  -0.724 -0.6615  0.6259  0.1067
  721MOL0     C99392  -0.099   5.252  -0.761 -0.0880  1.0435 -0.9246
  721MOL0     C99393  -0.000   5.257  -0.663 -0.0898 -0.3697 -0.4067
  721MOL0     C99394   0.138   5.275  -0.693  0.5707 -0.0797  0.4608
  721MOL0     C99395   0.179   5.279  -0.825  0.5886 -0.1822  0.1710
  721MOL0     O99396   0.314   5.292  -0.844  0.4614  0.4133 -0.0210
  721MOL0     C99397   0.373   5.262  -0.967 -0.3550  0.2171  0.1732
  721MOL0     C99398   0.526   5.275  -0.963  0.1723  0.4636 -0.3375
  721MOL0     C99399   0.584   5.266  -1.108 -0.0984 -0.5181 -0.0801
  721MOL0     C99400   0.733   5.289  -1.106 -0.3806  0.2538 -0.5685
  721MOL0     C99401   0.800   5.197  -1.014  0.4104  1.1751  0.0536
  721MOL0     C99402   0.947   5.179  -1.042  0.1172 -0.1846  0.2363
  721MOL0     C99403   1.018   5.063  -0.965  0.2102 -0.0331 -0.0785
  721MOL0     C99404   1.169   5.080  -0.944  0.5403 -0.3548  0.7835
  721MOL0    Cl99405   1.203   5.149  -0.783  0.0741  0.0714 -0.3104
  721MOL0     C99406   0.080   5.260  -0.924 -0.8562  0.2975  0.5415
  721MOL0     C99407  -0.060   5.248  -0.891  0.5543  0.2541  0.4246
  721MOL0     O99408  -0.259   5.464  -0.719  0.4727 -0.3035 -0.8207
  721MOL0     C99409  -0.477   5.207  -0.590 -0.0088 -0.4137  0.0334
  721MOL0     C99410  -0.603   5.176  -0.535 -0.4048  0.3436 -0.4027
  721MOL0     N99411  -1.283   5.199  -0.031 -0.5910 -0.4906 -0.9641
  721MOL0     N99412  -1.301   5.098   0.046  0.3492 -0.2840 -0.0045
  721MOL0     C99413  -0.319   4.876   0.583 -0.2704 -0.3526 -0.4871
  721MOL0     C99414  -0.182   4.875   0.571 -0.2336 -0.3843 -0.5246
  721MOL0     C99415   0.237   4.770   0.441 -0.2816  0.1359 -1.2677
  721MOL0     C99416   0.290   4.883   0.502 -0.3262 -0.8025  0.5235
  721MOL0     C99417   0.424   4.889   0.525 -0.1610  0.7571 -0.1681
  721MOL0     C99418   0.510   4.778   0.500  0.4516 -0.1442  0.4097
  721MOL0     O99419   0.648   4.778   0.520 -0.0216  0.2533 -0.2910
  721MOL0     C99420   0.714   4.896   0.585 -0.3251 -0.6898  0.1738
  721MOL0     C99421   0.858   4.912   0.526  0.2619  0.1204 -0.3838
  721MOL0     C99422   0.943   5.029   0.577 -0.6085 -0.5767  0.0771
  721MOL0     C99423   1.087   5.009   0.547 -0.7856 -0.3456  0.6259
  721MOL0     C99424   1.163   5.124   0.607  0.5625  0.4021 -0.6334
  721MOL0     C99425   1.237   5.214   0.651  0.2438 -0.2956  0.0681
  721MOL0     C99426   0.459   4.667   0.438 -0.2559 -0.9224 -0.5195
  721MOL0     C99427   0.312   4.654   0.420  0.8465  0.1628 -0.0450
  721MOL0     C99428   0.264   4.517   0.373 -0.2947  1.2583  0.1672
  721MOL0     H99429  -0.149   4.933   0.243 -3.8897  1.2907 -1.9337
  721MOL0     H99430  -0.392   4.908   0.248  0.7718 -2.2381 -1.0142
  721MOL0     H99431  -0.592   4.803   0.303 -0.7977  0.5881 -1.0486
  721MOL0     H99432  -0.611   4.974   0.298 -0.5603 -0.5808 -0.5903
  721MOL0     H99433  -0.772   4.796   0.489 -3.2036  1.0686  1.2760
  721MOL0     H99434  -0.799   4.966   0.446  0.4058  0.3840 -0.9612
  721MOL0     H99435  -0.835   4.909   0.203  1.4578  0.3117  0.2101
  721MOL0     H99436  -0.837   4.742   0.236 -1.6108  1.2703 -1.2590
  721MOL0     H99437  -1.000   4.781   0.431  2.4603 -1.0757 -0.2171
  721MOL0     H99438  -1.033   4.929   0.348 -1.3591 -1.1336  0.5337
  721MOL0     H99439  -1.181   4.773   0.266 -0.6318  0.3453 -1.5804
  721MOL0     H99440  -1.059   4.649   0.233  1.1180  0.7741  3.9902
  721MOL0     H99441  -1.067   4.929   0.086 -2.8766 -0.8785 -2.8213
  721MOL0     H99442  -0.970   4.794   0.044 -0.3719  0.4104  0.8983
  721MOL0     H99443  -1.199   4.658   0.036  2.3471  0.3297  2.0477
  721MOL0     H99444  -1.157   4.762  -0.098  1.8319 -1.9661  0.9644
  721MOL0     H99445  -1.395   4.810  -0.052  0.8894 -1.4209  0.2967
  721MOL0     H99446  -1.338   4.866   0.112  0.7522  1.8258 -0.0096
  721MOL0     H99447  -1.243   4.953  -0.243 -0.3325 -1.9190  1.1470
  721MOL0     H99448  -1.190   5.338  -0.241  0.9592  0.5681 -0.0383
  721MOL0     H99449  -1.310   5.234  -0.327 -0.9729  2.2493  0.2555
  721MOL0     H99450  -1.121   5.097  -0.418  3.3783 -0.1295 -0.0042
  721MOL0     H99451  -1.123   5.269  -0.452  0.6727  0.4563 -0.0743
  721MOL0     H99452  -0.939   5.300  -0.289  1.6993 -1.6688  1.6887
  721MOL0     H99453  -0.967   5.131  -0.228 -3.4257 -0.9635 -0.6337
  721MOL0     H99454  -0.770   5.114  -0.358  1.3164 -0.2563 -1.6816
  721MOL0     H99455  -0.893   5.066  -0.474 -1.9410  0.3537 -0.6548
  721MOL0     H99456  -0.744   5.476  -0.602 -0.3715 -0.8059  1.0482
  721MOL0     H99457  -0.625   5.596  -0.761  0.5010 -0.1575 -1.6148
  721MOL0     H99458  -0.475   5.543  -0.823  0.2057 -0.4105 -0.2996
  721MOL0     H99459  -0.472   5.629  -0.665  2.1568 -1.5928  0.8764
  721MOL0     H99460  -0.019   5.258  -0.556  3.4170  0.7772  0.3338
  721MOL0     H99461   0.213   5.287  -0.616 -1.2151  1.2128  2.1117
  721MOL0     H99462   0.354   5.156  -0.990 -2.1189  0.5987 -0.2540
  721MOL0     H99463   0.329   5.326  -1.044 -2.3929  1.0850  1.9692
  721MOL0     H99464   0.559   5.362  -0.905 -0.6144  1.7061 -1.6793
  721MOL0     H99465   0.556   5.185  -0.910 -2.4282 -0.3308 -0.0786
  721MOL0     H99466   0.535   5.347  -1.163  0.3720 -1.9118 -2.7048
  721MOL0     H99467   0.561   5.171  -1.156 -2.4166 -0.4427  0.7393
  721MOL0     H99468   0.761   5.392  -1.079  0.8450 -0.1637 -0.1963
  721MOL0     H99469   0.770   5.269  -1.207  1.3558 -2.7021  0.5367
  721MOL0     H99470   0.791   5.235  -0.912 -0.0975  1.0801  0.0459
  721MOL0     H99471   0.763   5.095  -1.026  1.5302  0.6141  1.1309
  721MOL0     H99472   0.986   5.275  -1.009 -1.8905  1.8013 -2.7307
  721MOL0     H99473   0.964   5.180  -1.150  0.6533  1.4741  0.3102
  721MOL0     H99474   0.999   4.968  -1.015 -1.2171  0.9148 -1.3941
  721MOL0     H99475   0.989   5.062  -0.859  1.0419  3.4865  0.2977
  721MOL0     H99476   1.208   5.141  -1.026  1.1252  2.4068  2.9567
  721MOL0     H99477   1.212   4.980  -0.950 -0.7489 -0.8794 -0.9243
  721MOL0     H99478   0.096   5.252  -1.031 -0.2855 -0.4936  0.6866
  721MOL0     H99479  -0.133   5.233  -0.970  2.7749  0.9007 -1.8995
  721MOL0     H99480  -0.405   5.125  -0.589  1.9962  1.2591  1.7239
  721MOL0     H99481  -0.617   5.077  -0.495  2.9606  0.3133  0.9916
  721MOL0     H99482  -0.373   4.864   0.676  0.8883  1.6436  0.5078
  721MOL0     H99483  -0.128   4.880   0.665 -0.1227  1.7487 -0.6542
  721MOL0     H99484   0.229   4.971   0.518  1.3462  0.1233  2.2471
  721MOL0     H99485   0.456   4.985   0.565  0.2006  0.5640  0.0117
  721MOL0     H99486   0.661   4.987   0.558 -0.0188 -1.0251 -1.6338
  721MOL0     H99487   0.719   4.897   0.695  3.2907  2.2741  0.1576
  721MOL0     H99488   0.852   4.921   0.417  1.1171  2.8172 -0.2770
  721MOL0     H99489   0.920   4.825   0.553  1.4088  1.1079  0.2738
  721MOL0     H99490   0.908   5.122   0.530  2.3276  1.1697  1.0715
  721MOL0     H99491   0.930   5.042   0.685 -2.4138 -1.2631 -0.0326
  721MOL0     H99492   1.095   5.022   0.439 -3.7986  2.4656  0.5948
  721MOL0     H99493   1.135   4.914   0.574  1.3501  1.1559  2.4859
  721MOL0     H99494   1.286   5.300   0.692 -2.7100  0.0928  3.2542
  721MOL0     H99495   0.520   4.577   0.440  0.6578 -0.3101  1.1285
  721MOL0     H99496   0.209   4.477   0.458 -0.7551 -1.4433 -1.2844
  721MOL0     H99497   0.193   4.527   0.290 -1.9135  2.5658  1.6488
  721MOL0     H99498   0.347   4.451   0.343 -0.1894  1.7166 -0.5935
  722MOL0     O99499   8.955   9.313   0.373 -0.5623  0.1233  0.1010
  722MOL0     C99500   8.932   9.297   0.256  0.6842 -0.2069  0.0102
  722MOL0     O99501   8.820   9.246   0.209 -0.1681  0.1650 -0.5099
  722MOL0     C99502   8.740   9.180   0.289 -0.1685 -0.1215 -0.0590
  722MOL0     C99503   8.604   9.215   0.279 -0.5918  0.2975  0.0806
  722MOL0     C99504   8.509   9.156   0.364 -0.4986  0.3181  0.0152
  722MOL0     C99505   8.540   9.038   0.441  0.5249 -0.2195  0.1849
  722MOL0     O99506   8.455   8.973   0.527 -0.1100  0.6739 -0.0349
  722MOL0     C99507   8.320   9.015   0.554  0.2221  0.8020 -0.7665
  722MOL0     C99508   8.277   8.966   0.688  0.0051 -0.2245 -0.1920
  722MOL0     C99509   8.214   8.824   0.666  0.1957 -0.0103  0.8579
  722MOL0     C99510   8.210   8.747   0.791 -0.1643 -0.9367 -0.8164
  722MOL0     C99511   8.346   8.678   0.809  0.2880  0.3531 -0.5114
  722MOL0     C99512   8.360   8.542   0.736  0.3216  0.1323 -0.5136
  722MOL0     C99513   8.452   8.446   0.814 -0.2924 -0.4419  0.2869
  722MOL0     C99514   8.595   8.482   0.780  0.4904  0.1983 -0.8411
  722MOL0     N99515   8.704   8.388   0.833 -0.4130  0.3823 -0.3440
  722MOL0     C99516   8.720   8.350   0.967  0.3576  0.2733 -0.0718
  722MOL0     C99517   8.827   8.269   0.969  0.0800  1.3733 -0.6788
  722MOL0     C99518   8.838   8.186   1.096  0.2949 -0.7465 -0.2992
  722MOL0     C99519   8.971   8.207   1.178 -0.2983  0.1908 -0.2368
  722MOL0     C99520   9.098   8.193   1.102 -0.7218  0.1751 -0.1533
  722MOL0     C99521   9.221   8.235   1.184 -0.5040 -0.6404 -0.5637
  722MOL0     O99522   9.229   8.374   1.214  0.1442 -0.3817  1.0778
  722MOL0     C99523   9.349   8.434   1.196  0.0376  0.3045  0.5900
  722MOL0     C99524   9.362   8.533   1.104  0.7313 -0.2623  0.1436
  722MOL0     C99525   9.484   8.591   1.073 -0.1638 -0.3473  0.3532
  722MOL0     C99526   9.483   8.703   0.971 -0.5829 -0.2013 -0.5083
  722MOL0     C99527   9.615   8.551   1.129  0.2101 -0.2027 -0.3559
  722MOL0     C99528   9.755   8.601   1.107  0.7467  0.2047  0.1288
  722MOL0     O99529   9.844   8.556   1.204 -0.5094 -0.3044  0.1081
  722MOL0     C99530   9.983   8.584   1.192 -0.0837  0.0560 -0.0312
  722MOL0     C99531  10.047   8.603   1.074 -0.3621 -0.0785  0.5794
  722MOL0     C99532  10.185   8.624   1.058  0.5570  0.2560 -0.3857
  722MOL0     C99533  10.281   8.606   1.161  0.6858 -0.0499 -0.8961
  722MOL0     O99534  10.418   8.613   1.148 -0.0848  0.2521  0.1680
  722MOL0     C99535  10.475   8.689   1.042  0.4796 -0.2674 -0.7002
  722MOL0     C99536  10.608   8.739   1.097 -0.1363 -0.8736  0.6409
  722MOL0     C99537  10.684   8.805   0.976 -0.2956  0.8126 -0.0154
  722MOL0     C99538  10.840   8.815   1.004 -0.2267  0.7804 -0.0848
  722MOL0     C99539  10.918   8.855   0.883 -0.0284 -0.6465  0.3334
  722MOL0     C99540  11.063   8.866   0.911 -0.3966 -0.4162 -0.4411
  722MOL0     C99541  11.134   8.928   0.788 -0.3131  0.0690 -0.1263
  722MOL0     C99542  11.279   8.978   0.838 -0.3533 -0.2650  0.0729
  722MOL0    Cl99543  11.379   8.864   0.924 -0.1376  0.0322 -0.0164
  722MOL0     C99544  10.217   8.568   1.283 -0.1454  0.2842 -0.0230
  722MOL0     C99545  10.073   8.559   1.302  0.5466 -0.4868 -0.2116
  722MOL0     O99546   9.779   8.669   1.007  1.0404  0.4126 -0.1292
  722MOL0     C99547   9.584   8.441   1.221 -0.8767 -0.6368 -0.0911
  722MOL0     C99548   9.462   8.394   1.262 -0.5308 -0.1983  1.4264
  722MOL0     N99549   8.881   8.267   0.838 -0.3666  0.2280 -0.4477
  722MOL0     N99550   8.811   8.334   0.765  0.2287 -0.6092  0.7640
  722MOL0     C99551   8.674   8.998   0.440  0.8845  0.4783 -0.8968
  722MOL0     C99552   8.773   9.073   0.372  0.1986  0.2467  0.3968
  722MOL0     C99553   9.050   9.308   0.165 -0.0422 -0.5850 -0.2770
  722MOL0     C99554   9.174   9.278   0.222  0.1820  0.5971  0.8192
  722MOL0     C99555   9.290   9.284   0.136 -0.1572 -0.8372 -0.9237
  722MOL0     C99556   9.287   9.308   0.002  0.2617 -0.8598 -0.2181
  722MOL0     O99557   9.400   9.336  -0.074  0.5802 -0.0922 -0.4005
  722MOL0     C99558   9.523   9.272  -0.041 -0.4142  0.0868  0.4055
  722MOL0     C99559   9.631   9.319  -0.141  0.2338  0.0343  0.8018
  722MOL0     C99560   9.772   9.282  -0.083  0.0194 -0.3377  0.6773
  722MOL0     C99561   9.880   9.322  -0.173  0.2456  0.1379 -0.2473
  722MOL0     C99562   9.888   9.470  -0.196 -0.3236  0.4921  0.5804
  722MOL0     C99563   9.895   9.592  -0.216  0.5546  0.8407 -0.4779
  722MOL0     C99564   9.166   9.346  -0.051 -0.2852 -0.1758  0.2222
  722MOL0     C99565   9.049   9.351   0.032 -0.3441 -0.7800 -0.5010
  722MOL0     C99566   8.924   9.408  -0.040 -0.2842 -0.3660  0.9861
  722MOL0     H99567   8.577   9.295   0.211  2.4891  0.9253 -0.5480
  722MOL0     H99568   8.404   9.178   0.347 -1.0680 -2.2219 -0.1968
  722MOL0     H99569   8.255   8.976   0.474 -1.3814 -0.2904  0.9810
  722MOL0     H99570   8.323   9.124   0.557 -1.3450  0.8532  0.3852
  722MOL0     H99571   8.369   8.966   0.748  2.3948  0.0976 -3.5417
  722MOL0     H99572   8.197   9.032   0.720 -0.6164 -1.6055  1.2345
  722MOL0     H99573   8.108   8.829   0.639  0.1686 -1.3324  0.6418
  722MOL0     H99574   8.262   8.771   0.583 -0.6100  3.2740 -1.9111
  722MOL0     H99575   8.190   8.815   0.874 -0.8567 -1.7622 -0.2826
  722MOL0     H99576   8.132   8.670   0.796 -1.0575  0.0267  1.3775
  722MOL0     H99577   8.350   8.658   0.917  0.8938 -0.6715 -0.7086
  722MOL0     H99578   8.427   8.747   0.784 -2.0487  3.0885 -1.0438
  722MOL0     H99579   8.266   8.490   0.717  0.7589 -0.2135 -1.8544
  722MOL0     H99580   8.405   8.576   0.642  1.0419  0.0309 -0.2109
  722MOL0     H99581   8.438   8.343   0.778  0.9266 -0.2533 -0.8168
  722MOL0     H99582   8.441   8.450   0.923  4.8789  0.4852  1.0247
  722MOL0     H99583   8.592   8.499   0.672 -3.9656  1.8703 -0.6645
  722MOL0     H99584   8.615   8.583   0.817 -0.0418 -0.4538  1.3903
  722MOL0     H99585   8.650   8.381   1.044  4.2237  2.7459  2.8352
  722MOL0     H99586   8.830   8.080   1.070 -1.2770 -1.2594  1.9591
  722MOL0     H99587   8.750   8.217   1.153  2.3665  0.4152  2.5240
  722MOL0     H99588   8.964   8.312   1.205  0.9201  0.5859 -1.3304
  722MOL0     H99589   8.983   8.141   1.265 -2.7732 -3.3261 -2.2987
  722MOL0     H99590   9.106   8.088   1.073  1.6774  0.3254 -0.2203
  722MOL0     H99591   9.087   8.257   1.014  0.8383  0.1896 -0.3533
  722MOL0     H99592   9.217   8.175   1.275 -1.6112 -1.8007 -1.3435
  722MOL0     H99593   9.310   8.214   1.124 -2.0096 -0.5077 -2.9764
  722MOL0     H99594   9.269   8.573   1.066 -0.6669 -2.0906  1.4440
  722MOL0     H99595   9.515   8.798   1.014  0.0340  0.1714 -1.7286
  722MOL0     H99596   9.381   8.729   0.941 -1.2777  1.4546  2.8612
  722MOL0     H99597   9.536   8.685   0.877  3.9710  1.4107  1.4655
  722MOL0     H99598   9.995   8.612   0.979  2.4685  0.9379 -1.0054
  722MOL0     H99599  10.221   8.633   0.956  0.6208  0.4688 -0.3462
  722MOL0     H99600  10.494   8.629   0.952  4.1183 -0.7338  0.1983
  722MOL0     H99601  10.413   8.774   1.015  1.2610  1.2014  1.8097
  722MOL0     H99602  10.598   8.815   1.175 -0.0039  1.5821 -1.6005
  722MOL0     H99603  10.661   8.650   1.131 -4.0034 -3.4757  0.5310
  722MOL0     H99604  10.647   8.902   0.941  0.0353  1.4221  1.2634
  722MOL0     H99605  10.677   8.732   0.895  0.4982 -2.1787  2.4272
  722MOL0     H99606  10.875   8.715   1.032  2.4091  0.3556 -4.0123
  722MOL0     H99607  10.859   8.889   1.083 -3.3957 -0.1143  1.6848
  722MOL0     H99608  10.902   8.783   0.801  1.0400  0.4733 -0.9002
  722MOL0     H99609  10.870   8.950   0.856 -1.6970 -0.7086  2.7399
  722MOL0     H99610  11.098   8.766   0.939  0.8693  0.9559  3.5918
  722MOL0     H99611  11.078   8.937   0.993 -1.4597 -0.6152 -0.0598
  722MOL0     H99612  11.073   9.012   0.755 -0.9889 -1.0443 -1.8400
  722MOL0     H99613  11.152   8.855   0.708 -1.9045 -1.5713  0.9465
  722MOL0     H99614  11.275   9.070   0.897 -0.4085 -0.0720 -0.2306
  722MOL0     H99615  11.337   9.005   0.749 -0.3923 -0.6226 -0.0626
  722MOL0     H99616  10.271   8.537   1.372 -1.6610 -2.1797  0.1410
  722MOL0     H99617  10.041   8.522   1.399 -0.0395  1.1389  0.2386
  722MOL0     H99618   9.674   8.406   1.270  0.5756  3.0595  0.2009
  722MOL0     H99619   9.467   8.316   1.338 -0.4496 -1.7167 -0.1010
  722MOL0     H99620   8.721   8.919   0.498  2.2687  1.5099 -0.5660
  722MOL0     H99621   8.875   9.039   0.366  0.3060  0.3524  1.4680
  722MOL0     H99622   9.196   9.244   0.322 -0.6563 -1.1227  0.4588
  722MOL0     H99623   9.382   9.269   0.192 -3.3319 -4.2488  4.2260
  722MOL0     H99624   9.560   9.313   0.053 -0.2349 -0.2901  0.5034
  722MOL0     H99625   9.518   9.163  -0.037  1.3698 -0.0338  0.4969
  722MOL0     H99626   9.616   9.425  -0.162 -0.6479  0.0578  1.4705
  722MOL0     H99627   9.615   9.274  -0.239  1.6193  0.5617  0.3179
  722MOL0     H99628   9.777   9.346   0.006  0.8183  0.1967  0.2657
  722MOL0     H99629   9.776   9.175  -0.062 -0.9773 -0.3068  1.0799
  722MOL0     H99630   9.882   9.267  -0.268  1.9916 -0.4197  0.0635
  722MOL0     H99631   9.971   9.293  -0.119 -1.5969 -3.1370  1.4628
  722MOL0     H99632   9.908   9.696  -0.239  1.9165  0.9200  0.5290
  722MOL0     H99633   9.180   9.384  -0.151  1.2840  0.2719  0.5840
  722MOL0     H99634   8.954   9.434  -0.142  1.2139 -1.0948  1.2215
  722MOL0     H99635   8.841   9.336  -0.044 -1.2874  0.7492  1.0495
  722MOL0     H99636   8.887   9.492   0.018  1.1640  0.5773  0.5793
  723MOL0     O99637   9.683   2.676  10.906  0.1036 -0.4700  0.1321
  723MOL0     C99638   9.736   2.647  10.802 -0.7845  0.5925 -0.4202
  723MOL0     O99639   9.850   2.580  10.800 -0.6138 -0.2411 -0.3715
  723MOL0     C99640   9.920   2.553  10.918  0.9035 -0.4153  0.1196
  723MOL0     C99641   9.907   2.425  10.978  0.2794 -0.6127 -0.5048
  723MOL0     C99642   9.968   2.389  11.099  0.6866  0.2048  0.4346
  723MOL0     C99643  10.064   2.472  11.156  1.5808 -0.8878  0.2287
  723MOL0     O99644  10.140   2.410  11.258  0.9305  0.6287 -0.2918
  723MOL0     C99645  10.238   2.489  11.334  0.1645  0.4885  0.3323
  723MOL0     C99646  10.187   2.561  11.456 -0.1095  0.8338  0.2296
  723MOL0     C99647  10.293   2.663  11.503 -0.8429  0.1010 -0.0354
  723MOL0     C99648  10.266   2.725  11.638 -0.9118 -0.2037  0.3372
  723MOL0     C99649  10.364   2.839  11.683 -0.1521 -0.1564  1.3289
  723MOL0     C99650  10.510   2.779  11.719  0.0605 -0.1366  0.4918
  723MOL0     C99651  10.524   2.766  11.874  0.4108  0.1331 -0.7203
  723MOL0     C99652  10.524   2.896  11.950 -0.3239 -0.5375 -0.0598
  723MOL0     N99653  10.616   2.989  11.879 -0.1987  0.1201  0.0689
  723MOL0     C99654  10.561   3.100  11.816 -0.8381  0.3442  0.2991
  723MOL0     C99655  10.672   3.159  11.758  1.4375  0.5433 -0.2147
  723MOL0     C99656  10.663   3.297  11.699  0.0141 -0.2509 -0.3831
  723MOL0     C99657  10.661   3.299  11.550  0.3461 -0.0740  0.4788
  723MOL0     C99658  10.539   3.227  11.481 -0.7164 -0.6582 -0.3455
  723MOL0     C99659  10.405   3.299  11.502 -0.0801 -0.7312 -0.0208
  723MOL0     O99660  10.414   3.436  11.444 -0.4872  0.6221  0.4939
  723MOL0     C99661  10.413   3.463  11.313 -0.7260  0.1403 -0.4256
  723MOL0     C99662  10.376   3.375  11.215 -0.0163 -0.4249 -0.6129
  723MOL0     C99663  10.366   3.416  11.082 -0.7752  0.9241 -0.2723
  723MOL0     C99664  10.313   3.309  10.992 -0.0907  0.5661 -0.0643
  723MOL0     C99665  10.385   3.547  11.047 -0.8182 -0.2793  0.5174
  723MOL0     C99666  10.358   3.609  10.914  0.8097  0.2431  0.3990
  723MOL0     O99667  10.260   3.550  10.834  0.4598 -1.2721 -0.3212
  723MOL0     C99668  10.200   3.607  10.724  0.0778 -0.8112 -0.7368
  723MOL0     C99669  10.061   3.606  10.723 -0.8956 -0.0211  0.5160
  723MOL0     C99670  10.000   3.671  10.612  0.3661 -0.7398 -0.2290
  723MOL0     C99671  10.069   3.743  10.514  0.3619  0.2870  0.2508
  723MOL0     O99672   9.993   3.811  10.426 -0.7222  0.0820  0.0109
  723MOL0     C99673  10.050   3.895  10.329  0.9768  0.1019  0.5866
  723MOL0     C99674   9.957   3.982  10.249  0.7000 -0.3847 -1.3547
  723MOL0     C99675  10.019   4.024  10.117  0.4223 -0.1564  0.1622
  723MOL0     C99676   9.923   4.081  10.014 -1.5467  0.6737 -0.2192
  723MOL0     C99677   9.971   4.100   9.870 -0.2407  0.3601  0.1942
  723MOL0     C99678   9.859   4.130   9.780 -0.5137  0.5614  0.3334
  723MOL0     C99679   9.898   4.106   9.637  0.2246  0.2076 -0.5685
  723MOL0     C99680   9.773   4.125   9.548  1.0092  0.5084  0.2463
  723MOL0    Cl99681   9.707   4.297   9.547  0.0763 -0.7262 -0.1295
  723MOL0     C99682  10.208   3.733  10.513 -1.4349 -0.4010 -0.4885
  723MOL0     C99683  10.271   3.660  10.617 -0.8961  0.6854  0.0691
  723MOL0     O99684  10.412   3.716  10.894 -0.2068 -0.2417 -0.0643
  723MOL0     C99685  10.431   3.634  11.149 -1.0366 -0.4712 -0.0622
  723MOL0     C99686  10.441   3.595  11.284 -0.3685 -0.6217  0.3106
  723MOL0     N99687  10.784   3.092  11.787  0.1632 -0.2764  0.1212
  723MOL0     N99688  10.748   2.989  11.854 -0.7093  1.3795  0.1853
  723MOL0     C99689  10.078   2.606  11.099 -0.7551 -0.2075 -0.3297
  723MOL0     C99690  10.002   2.646  10.986 -0.0495  0.0158 -0.0193
  723MOL0     C99691   9.685   2.665  10.663  0.6810  0.5074  0.2677
  723MOL0     C99692   9.773   2.651  10.553  0.6161 -0.5110  0.4052
  723MOL0     C99693   9.735   2.675  10.427 -0.3185 -0.3744 -0.1536
  723MOL0     C99694   9.600   2.705  10.400 -0.2538 -0.4470  0.3317
  723MOL0     O99695   9.529   2.711  10.281  0.7944 -0.2788  0.2949
  723MOL0     C99696   9.592   2.667  10.162  0.2779  0.2832 -0.3855
  723MOL0     C99697   9.572   2.517  10.134 -0.5815 -0.6135  0.5237
  723MOL0     C99698   9.424   2.494  10.103  0.7505 -0.1211  0.8762
  723MOL0     C99699   9.386   2.346  10.075  0.0103 -0.3788  0.2378
  723MOL0     C99700   9.445   2.296   9.946 -0.0287  0.2030  0.8240
  723MOL0     C99701   9.496   2.274   9.840  0.4850 -0.3635  0.1505
  723MOL0     C99702   9.518   2.732  10.504 -0.2212  0.6741  0.2707
  723MOL0     C99703   9.561   2.719  10.633  0.2538 -0.2636  0.3395
  723MOL0     C99704   9.462   2.754  10.732 -0.2563  0.2798  0.2325
  723MOL0     H99705   9.845   2.353  10.925  1.2102 -1.5249 -0.3819
  723MOL0     H99706   9.957   2.296  11.155  0.4415 -0.3885 -0.5838
  723MOL0     H99707  10.282   2.558  11.261 -0.6567 -0.4571 -1.1125
  723MOL0     H99708  10.319   2.425  11.371  0.2586  0.4387  0.0439
  723MOL0     H99709  10.098   2.624  11.442 -0.0045  0.8869 -0.2254
  723MOL0     H99710  10.170   2.489  11.536 -1.2324 -1.0730 -1.6276
  723MOL0     H99711  10.386   2.607  11.509 -0.4587  0.7544  0.1913
  723MOL0     H99712  10.307   2.741  11.427 -0.5481  0.4546  0.3763
  723MOL0     H99713  10.170   2.772  11.618 -1.7702 -1.8819  0.3411
  723MOL0     H99714  10.264   2.640  11.707 -0.2018 -2.5675 -2.3247
  723MOL0     H99715  10.319   2.893  11.767 -0.7845 -0.6338  1.3105
  723MOL0     H99716  10.382   2.904  11.598 -1.3512 -1.8929 -0.3342
  723MOL0     H99717  10.520   2.683  11.669  1.5574 -1.1149  2.5143
  723MOL0     H99718  10.589   2.842  11.678 -0.3485 -0.5452 -0.9705
  723MOL0     H99719  10.622   2.719  11.888  0.9908  2.1242  3.1390
  723MOL0     H99720  10.447   2.701  11.916  0.3811 -0.3481 -1.4879
  723MOL0     H99721  10.420   2.928  11.953 -0.8418 -1.7347 -2.7279
  723MOL0     H99722  10.561   2.876  12.052 -0.6103 -2.1230 -0.2423
  723MOL0     H99723  10.460   3.137  11.815 -1.0754 -0.2857  0.1840
  723MOL0     H99724  10.749   3.352  11.736  0.1895 -0.4116 -0.5514
  723MOL0     H99725  10.566   3.339  11.728 -0.2079  1.6139 -3.4184
  723MOL0     H99726  10.669   3.399  11.505 -0.0731  0.9206  2.5041
  723MOL0     H99727  10.752   3.251  11.513 -0.4114 -0.4134 -1.0453
  723MOL0     H99728  10.555   3.211  11.374  1.5477 -1.9774  0.1096
  723MOL0     H99729  10.528   3.129  11.529  1.9527 -0.1685  1.5261
  723MOL0     H99730  10.321   3.242  11.461 -0.4231 -1.6693  1.8642
  723MOL0     H99731  10.377   3.300  11.608 -1.3444 -0.3744 -0.3443
  723MOL0     H99732  10.351   3.274  11.247  2.1412 -0.8314 -0.0714
  723MOL0     H99733  10.258   3.345  10.905  0.4280  0.8428 -0.2865
  723MOL0     H99734  10.247   3.238  11.043 -0.3709 -0.2349 -1.5042
  723MOL0     H99735  10.398   3.250  10.955 -0.6997 -0.6718  0.4529
  723MOL0     H99736   9.998   3.566  10.802 -2.0512  1.6447  0.5011
  723MOL0     H99737   9.892   3.665  10.610  0.3320 -0.2198 -0.1626
  723MOL0     H99738  10.118   3.968  10.375  0.4752  2.5451 -2.2836
  723MOL0     H99739  10.100   3.833  10.254 -0.7751  0.4070 -0.8971
  723MOL0     H99740   9.873   3.915  10.227  0.8025 -1.1362  0.3957
  723MOL0     H99741   9.929   4.076  10.297  2.1104  0.4476 -2.0985
  723MOL0     H99742  10.073   3.944  10.065  0.1889  0.3750 -0.9251
  723MOL0     H99743  10.085   4.107  10.146 -0.8211  0.3615  1.6284
  723MOL0     H99744   9.883   4.180  10.038  0.1972  1.7241 -1.4400
  723MOL0     H99745   9.842   4.007  10.021 -2.7377  1.9883  0.3494
  723MOL0     H99746  10.043   4.181   9.858  2.0612 -1.7053 -0.7755
  723MOL0     H99747  10.032   4.016   9.834  2.8745  2.4080  0.2672
  723MOL0     H99748   9.839   4.236   9.797  1.6081  0.6512  3.0723
  723MOL0     H99749   9.768   4.074   9.803  0.3344 -0.8614  0.3728
  723MOL0     H99750   9.943   4.007   9.634 -0.4946 -0.1543  0.2808
  723MOL0     H99751   9.980   4.170   9.602  1.1733 -0.7641 -0.1567
  723MOL0     H99752   9.693   4.053   9.568  0.1649  0.9650 -1.3493
  723MOL0     H99753   9.796   4.099   9.444 -1.3938 -2.2055  0.2443
  723MOL0     H99754  10.265   3.785  10.437 -0.0922 -0.8419  0.1686
  723MOL0     H99755  10.379   3.651  10.610 -0.9126  0.8032 -0.3564
  723MOL0     H99756  10.439   3.741  11.132 -0.7543 -0.4436  0.2391
  723MOL0     H99757  10.462   3.671  11.359 -0.6026  1.9776 -2.1058
  723MOL0     H99758  10.150   2.675  11.142 -0.9770  0.1316 -0.4949
  723MOL0     H99759  10.025   2.739  10.935  0.8027  0.0771  0.4675
  723MOL0     H99760   9.874   2.615  10.570  1.0392  0.5652  0.2473
  723MOL0     H99761   9.800   2.639  10.348 -2.4349 -1.4920 -1.4766
  723MOL0     H99762   9.542   2.715  10.077 -3.2196 -2.2708  0.0163
  723MOL0     H99763   9.699   2.689  10.163  1.0483 -2.8659 -1.2599
  723MOL0     H99764   9.607   2.468  10.225  0.9887  1.0818  0.8958
  723MOL0     H99765   9.638   2.484  10.053 -0.0204 -3.4117  1.9960
  723MOL0     H99766   9.354   2.525  10.181  0.4639 -0.8243  0.9081
  723MOL0     H99767   9.394   2.549  10.013 -1.7610  1.3948  2.5078
  723MOL0     H99768   9.277   2.333  10.077  0.1692 -2.6150 -1.7939
  723MOL0     H99769   9.426   2.290  10.160 -1.5381  0.7444  1.7857
  723MOL0     H99770   9.530   2.258   9.739  0.0042 -3.1645  0.3618
  723MOL0     H99771   9.421   2.776  10.481 -0.7003  0.5718  1.9651
  723MOL0     H99772   9.371   2.800  10.694 -0.1594 -1.0003 -1.6677
  723MOL0     H99773   9.442   2.658  10.780 -0.6579  0.7043  0.9306
  723MOL0     H99774   9.494   2.820  10.814  1.0409 -0.3889  0.2874
  724MOL0     O99775   1.629   7.632  10.195 -0.3466  0.6493  0.2649
  724MOL0     C99776   1.563   7.720  10.136 -1.1415 -0.0272 -0.0355
  724MOL0     O99777   1.553   7.740  10.000  0.1043  0.4933  0.1062
  724MOL0     C99778   1.649   7.680   9.917 -0.3416 -0.1438  0.1329
  724MOL0     C99779   1.768   7.616   9.942 -0.5426 -0.0607 -0.6115
  724MOL0     C99780   1.856   7.588   9.840 -0.6169 -0.1710 -0.2731
  724MOL0     C99781   1.823   7.609   9.705 -0.7050  0.4798 -1.5132
  724MOL0     O99782   1.910   7.564   9.604  0.6272  0.1963 -1.1455
  724MOL0     C99783   1.864   7.554   9.469  0.0301  0.4921  0.4231
  724MOL0     C99784   1.978   7.509   9.377  0.1132  0.0449  0.8289
  724MOL0     C99785   2.007   7.357   9.392 -0.5424 -0.2387  0.4233
  724MOL0     C99786   2.102   7.300   9.278 -0.1512 -0.4504  0.5304
  724MOL0     C99787   2.151   7.162   9.312  0.0903 -0.2139 -0.0151
  724MOL0     C99788   2.235   7.107   9.201  0.1315  0.2263 -0.7715
  724MOL0     C99789   2.376   7.169   9.198  0.6738  1.0216 -0.3804
  724MOL0     C99790   2.463   7.084   9.110 -0.0857 -0.6678 -0.0345
  724MOL0     N99791   2.596   7.145   9.104  0.1439 -0.5271 -0.7251
  724MOL0     C99792   2.683   7.162   9.215  0.2954 -0.2195 -0.5217
  724MOL0     C99793   2.800   7.200   9.165  1.0011  0.0426 -0.2126
  724MOL0     C99794   2.930   7.224   9.241  0.4719 -0.2343 -0.0896
  724MOL0     C99795   3.033   7.333   9.192  0.1330  0.4833 -0.3590
  724MOL0     C99796   3.079   7.308   9.054  0.0658  0.3034 -0.3963
  724MOL0     C99797   3.213   7.374   9.031  0.4489 -0.3007  0.0472
  724MOL0     O99798   3.306   7.290   9.099 -0.4032  0.5937  0.8646
  724MOL0     C99799   3.428   7.349   9.115 -0.0076 -0.5853 -0.1218
  724MOL0     C99800   3.507   7.290   9.208  0.6656  0.5302 -0.8726
  724MOL0     C99801   3.637   7.338   9.228 -0.0521 -0.9867 -0.6359
  724MOL0     C99802   3.715   7.262   9.332  0.1447 -0.2855  0.6174
  724MOL0     C99803   3.690   7.452   9.157 -0.3278 -0.2978  0.7589
  724MOL0     C99804   3.818   7.521   9.187 -0.5007 -0.3976  0.1714
  724MOL0     O99805   3.864   7.535   9.315 -0.0191  0.1688 -0.0090
  724MOL0     C99806   3.985   7.594   9.349 -0.3868  0.0400 -0.7420
  724MOL0     C99807   4.079   7.663   9.274 -0.6689  0.0193 -0.0260
  724MOL0     C99808   4.201   7.717   9.327 -0.1328 -0.1562 -0.2051
  724MOL0     C99809   4.224   7.701   9.466 -1.0803  0.7954 -0.3692
  724MOL0     O99810   4.342   7.758   9.511 -0.3146 -0.0680  0.7277
  724MOL0     C99811   4.391   7.711   9.638  0.3124  0.1373  0.2046
  724MOL0     C99812   4.359   7.795   9.758 -0.2205  0.3478 -0.0695
  724MOL0     C99813   4.433   7.927   9.747 -0.0383 -0.6198 -0.0623
  724MOL0     C99814   4.377   8.023   9.847  0.4972 -0.6893 -0.2943
  724MOL0     C99815   4.451   8.157   9.841  0.5650  0.0838 -0.8270
  724MOL0     C99816   4.424   8.249   9.961  0.3600  0.6593 -0.0891
  724MOL0     C99817   4.506   8.373   9.957 -1.1215  0.5313 -0.5684
  724MOL0     C99818   4.490   8.460  10.082  0.0938  0.3293  0.4273
  724MOL0    Cl99819   4.326   8.539  10.061  0.0328 -0.2828  0.7319
  724MOL0     C99820   4.131   7.619   9.541  0.3488 -0.1401  0.2577
  724MOL0     C99821   4.019   7.569   9.479  0.0699 -0.8528 -0.2725
  724MOL0     O99822   3.877   7.563   9.084  0.0059 -0.2455 -0.1560
  724MOL0     C99823   3.600   7.522   9.072  0.2012  0.6832  0.2146
  724MOL0     C99824   3.468   7.467   9.054  0.6406 -0.4566  0.7045
  724MOL0     N99825   2.778   7.202   9.026 -0.3234 -0.3668  0.5320
  724MOL0     N99826   2.663   7.163   8.989  0.1567 -0.5281 -0.0332
  724MOL0     C99827   1.700   7.666   9.684 -0.7991  1.0943  0.5184
  724MOL0     C99828   1.621   7.701   9.786 -0.3919 -0.1397  0.2852
  724MOL0     C99829   1.478   7.821  10.215 -0.9480 -0.2785  0.5220
  724MOL0     C99830   1.398   7.907  10.139 -0.0543  0.2292  1.0676
  724MOL0     C99831   1.319   8.006  10.199  0.4638  0.5519  0.5810
  724MOL0     C99832   1.321   8.034  10.341 -1.4957 -0.1252  0.3305
  724MOL0     O99833   1.252   8.133  10.403 -0.2292  0.3131 -0.0602
  724MOL0     C99834   1.158   8.215  10.329  0.0229 -0.6997  0.2332
  724MOL0     C99835   1.053   8.273  10.426  0.0317 -0.0541  0.1548
  724MOL0     C99836   1.019   8.179  10.542  0.3607  0.0989 -0.0476
  724MOL0     C99837   0.976   8.036  10.501 -0.1695  0.0205 -0.1964
  724MOL0     C99838   1.035   7.936  10.588 -0.0110 -0.5552  0.3821
  724MOL0     C99839   1.073   7.843  10.656  0.5987 -1.0393  0.5772
  724MOL0     C99840   1.409   7.955  10.414  1.1767  0.7217  0.2195
  724MOL0     C99841   1.487   7.848  10.355  0.2308 -0.4080 -0.4769
  724MOL0     C99842   1.585   7.771  10.449  0.2767 -0.4952  0.7567
  724MOL0     H99843   1.799   7.604  10.045  1.1553 -0.9096 -1.1874
  724MOL0     H99844   1.952   7.539   9.853 -0.3563 -0.7400 -3.5375
  724MOL0     H99845   1.824   7.645   9.424 -1.6903 -0.8766 -0.9697
  724MOL0     H99846   1.793   7.471   9.461  1.0964 -0.4288  0.3461
  724MOL0     H99847   1.959   7.524   9.270  3.0203 -1.3595  0.0241
  724MOL0     H99848   2.070   7.561   9.405  2.7704 -1.1893 -4.3846
  724MOL0     H99849   2.058   7.324   9.483 -0.5317 -1.8662 -0.1353
  724MOL0     H99850   1.912   7.307   9.375 -0.0841 -0.7572 -0.6943
  724MOL0     H99851   2.054   7.307   9.180 -1.0519 -2.3047  0.8121
  724MOL0     H99852   2.200   7.348   9.291  0.8555 -2.4808  0.7002
  724MOL0     H99853   2.066   7.096   9.331 -0.4917  0.5265 -0.0065
  724MOL0     H99854   2.209   7.169   9.405  0.3382  2.4844 -0.2918
  724MOL0     H99855   2.247   6.999   9.217  1.3212  0.5504  0.7906
  724MOL0     H99856   2.197   7.122   9.100  0.3728  0.1207 -0.8807
  724MOL0     H99857   2.420   7.180   9.298 -0.3199  2.8935 -0.1043
  724MOL0     H99858   2.370   7.269   9.154 -0.3636  0.6834 -1.0309
  724MOL0     H99859   2.461   6.981   9.149 -2.1651 -0.2268  1.1684
  724MOL0     H99860   2.420   7.095   9.010  0.1977  4.2503  0.1422
  724MOL0     H99861   2.661   7.148   9.320  0.8756 -1.5129 -0.5510
  724MOL0     H99862   2.992   7.134   9.253  2.3535  1.2826  3.0700
  724MOL0     H99863   2.898   7.243   9.344  0.2331  1.9152 -0.5184
  724MOL0     H99864   2.982   7.429   9.198  0.4195  0.5847  0.7213
  724MOL0     H99865   3.113   7.323   9.266 -0.3634 -0.8253  0.0413
  724MOL0     H99866   3.099   7.202   9.035  2.9825  0.9559 -1.6074
  724MOL0     H99867   3.001   7.346   8.987 -2.0376 -0.0588  1.7388
  724MOL0     H99868   3.239   7.373   8.925  0.4089 -0.9523  0.0446
  724MOL0     H99869   3.218   7.480   9.060  4.2748 -0.1204 -0.7878
  724MOL0     H99870   3.469   7.200   9.255  0.1095  1.1362 -0.1316
  724MOL0     H99871   3.665   7.168   9.358 -0.4076 -0.2954 -0.4502
  724MOL0     H99872   3.734   7.319   9.423 -1.0426  1.5808 -0.2442
  724MOL0     H99873   3.805   7.227   9.281 -0.4122 -1.2524  0.2677
  724MOL0     H99874   4.059   7.677   9.168  2.1697 -0.4444 -0.6934
  724MOL0     H99875   4.282   7.761   9.269  2.3585 -1.9648  1.6520
  724MOL0     H99876   4.367   7.607   9.665  0.1089  0.3901  1.0337
  724MOL0     H99877   4.500   7.704   9.637  0.4113  0.7745  2.2635
  724MOL0     H99878   4.252   7.815   9.763 -0.1641  0.6400 -0.0637
  724MOL0     H99879   4.388   7.747   9.852 -1.2099 -0.8420 -0.3417
  724MOL0     H99880   4.416   7.958   9.644  1.1612 -3.2102 -1.1398
  724MOL0     H99881   4.540   7.911   9.762 -0.2951 -1.6313  0.8984
  724MOL0     H99882   4.388   7.980   9.948  0.5404  0.1368  0.0564
  724MOL0     H99883   4.269   8.032   9.837  0.5198  0.6397  0.4295
  724MOL0     H99884   4.560   8.150   9.844  1.0209  4.3436 -1.0927
  724MOL0     H99885   4.425   8.207   9.747  0.3753  0.5788 -0.5143
  724MOL0     H99886   4.447   8.199  10.055  1.6577 -0.8701 -1.1614
  724MOL0     H99887   4.319   8.276   9.952  0.1791 -0.0219 -0.0637
  724MOL0     H99888   4.494   8.425   9.862  0.7120  1.6605 -0.2265
  724MOL0     H99889   4.610   8.341   9.967 -1.2113  0.8538  2.1791
  724MOL0     H99890   4.565   8.539  10.086  0.7189 -0.2820  1.0528
  724MOL0     H99891   4.491   8.402  10.175  2.9726 -0.4525  0.0181
  724MOL0     H99892   4.135   7.593   9.646 -0.6968 -1.9088 -0.1013
  724MOL0     H99893   3.950   7.504   9.532 -0.3988 -1.0858 -1.1439
  724MOL0     H99894   3.631   7.609   9.016 -0.0302  0.4780 -0.2419
  724MOL0     H99895   3.403   7.516   8.982  0.2690 -0.0062  1.3415
  724MOL0     H99896   1.679   7.691   9.581  1.7722 -1.4010 -0.7352
  724MOL0     H99897   1.525   7.745   9.761  1.0546  1.2790 -3.4208
  724MOL0     H99898   1.389   7.909  10.031  2.2867  2.0371  0.8084
  724MOL0     H99899   1.259   8.073  10.139  0.2204  0.1812  0.4095
  724MOL0     H99900   1.216   8.294  10.280  1.0927 -1.7875 -0.3048
  724MOL0     H99901   1.100   8.161  10.254  1.5450 -0.2497 -1.3423
  724MOL0     H99902   0.962   8.297  10.370 -0.4189 -0.9233  0.4786
  724MOL0     H99903   1.088   8.366  10.470 -2.3651  1.7782 -1.5507
  724MOL0     H99904   1.110   8.168  10.602 -0.2185 -0.2387  0.7953
  724MOL0     H99905   0.935   8.215  10.602  1.4018  0.1529  1.4506
  724MOL0     H99906   1.006   8.005  10.400  0.4348 -3.1812  0.8528
  724MOL0     H99907   0.868   8.029  10.514 -0.0568  0.0503  0.8157
  724MOL0     H99908   1.096   7.769  10.730  1.9708 -0.0176  1.2261
  724MOL0     H99909   1.405   7.991  10.517  1.4319  2.5967 -0.3861
  724MOL0     H99910   1.691   7.794  10.431 -0.5886  1.8558 -2.1889
  724MOL0     H99911   1.570   7.797  10.554  1.0730  1.1306  0.5079
  724MOL0     H99912   1.566   7.664  10.440 -1.5655 -0.2956  1.9484
  725MOL0     O99913   2.795   6.196   9.914  0.2484 -0.3890 -0.2848
  725MOL0     C99914   2.739   6.201   9.808 -0.1528  0.7370  0.1701
  725MOL0     O99915   2.798   6.183   9.685  0.0826  1.1289 -0.1474
  725MOL0     C99916   2.926   6.139   9.668 -0.6765 -0.0092  0.0171
  725MOL0     C99917   3.030   6.191   9.733  0.0986 -0.1370 -0.0096
  725MOL0     C99918   3.161   6.159   9.703 -1.1877 -0.3443  0.0543
  725MOL0     C99919   3.191   6.059   9.607 -0.0290 -0.0202  0.3356
  725MOL0     O99920   3.314   6.008   9.569 -0.2441 -0.4945  0.1826
  725MOL0     C99921   3.421   6.089   9.601 -0.3129 -0.3109 -0.2130
  725MOL0     C99922   3.553   6.017   9.549  0.7291 -0.2448  0.0143
  725MOL0     C99923   3.572   6.028   9.402  0.0958  0.4301 -0.7195
  725MOL0     C99924   3.689   5.937   9.355 -0.0434 -0.2440 -0.0270
  725MOL0     C99925   3.735   5.956   9.210 -0.2928 -0.0219  0.0022
  725MOL0     C99926   3.847   5.849   9.182  0.3965 -0.1482  1.2680
  725MOL0     C99927   3.906   5.840   9.041  0.2178 -0.2732 -0.0107
  725MOL0     C99928   3.969   5.975   9.006 -0.0562  0.3377  0.9337
  725MOL0     N99929   4.030   5.966   8.876  0.1908 -0.3843 -0.0054
  725MOL0     C99930   3.971   6.009   8.761  0.6974  0.5088 -1.0091
  725MOL0     C99931   4.062   5.993   8.664  0.3244  0.7853  0.1103
  725MOL0     C99932   4.024   5.984   8.516  0.4792  0.2793  0.7537
  725MOL0     C99933   4.129   6.042   8.413  0.5632  0.5271 -0.0584
  725MOL0     C99934   4.072   6.004   8.277 -0.9186 -0.1618  0.3348
  725MOL0     C99935   4.196   6.023   8.169 -0.4198  0.7951 -0.5130
  725MOL0     O99936   4.233   6.160   8.156 -0.6507  0.2690 -0.3241
  725MOL0     C99937   4.356   6.178   8.094 -0.1718 -0.8809  0.0938
  725MOL0     C99938   4.402   6.132   7.966  0.3711  0.1685  0.5760
  725MOL0     C99939   4.524   6.155   7.910  0.5548 -0.2762 -0.5807
  725MOL0     C99940   4.558   6.100   7.773  0.5770 -0.6438  0.0893
  725MOL0     C99941   4.605   6.248   7.981  0.0170 -0.3029  1.2691
  725MOL0     C99942   4.729   6.295   7.924 -0.2412 -0.6986 -0.1435
  725MOL0     O99943   4.782   6.412   7.977 -0.7087  0.3460 -0.3185
  725MOL0     C99944   4.894   6.460   7.920 -0.5154  0.5924  0.3207
  725MOL0     C99945   5.020   6.424   7.963  0.6351 -0.2723 -0.6693
  725MOL0     C99946   5.131   6.460   7.881  0.2179  0.1984  0.4318
  725MOL0     C99947   5.115   6.518   7.752  0.6174 -0.2471  0.6958
  725MOL0     O99948   5.234   6.552   7.685  0.9263  0.1791 -0.3860
  725MOL0     C99949   5.220   6.659   7.595  0.9803  0.2515  1.2182
  725MOL0     C99950   5.358   6.732   7.576  0.6203 -0.5273 -0.3453
  725MOL0     C99951   5.346   6.879   7.529  1.1417 -0.3454 -0.3588
  725MOL0     C99952   5.482   6.942   7.512 -0.0613 -0.2705  0.3513
  725MOL0     C99953   5.570   6.882   7.396 -0.1646  0.1701 -0.2404
  725MOL0     C99954   5.703   6.953   7.377  0.4961  1.0036  0.1401
  725MOL0     C99955   5.765   6.901   7.247 -0.4450 -0.2330  1.1325
  725MOL0     C99956   5.902   6.958   7.205  0.2942  0.7588  0.0962
  725MOL0    Cl99957   6.035   6.899   7.310  0.2024 -0.1005 -0.0058
  725MOL0     C99958   4.980   6.543   7.705 -0.0310 -0.1596 -0.1370
  725MOL0     C99959   4.871   6.513   7.787 -1.6723  0.5675  0.1974
  725MOL0     O99960   4.788   6.227   7.839 -0.1023 -0.2484  0.6746
  725MOL0     C99961   4.560   6.298   8.108 -0.0903 -0.1432 -0.3040
  725MOL0     C99962   4.439   6.268   8.161 -0.1257 -0.0557 -0.3991
  725MOL0     N99963   4.184   5.951   8.723 -1.2426  0.7815 -0.1793
  725MOL0     N99964   4.159   5.946   8.849 -0.1602 -0.4819 -0.8212
  725MOL0     C99965   3.079   6.000   9.544 -0.0445 -0.3444  0.0849
  725MOL0     C99966   2.955   6.039   9.578  0.6318  0.0215 -0.5568
  725MOL0     C99967   2.596   6.252   9.827 -0.7200  0.5546 -0.0986
  725MOL0     C99968   2.544   6.330   9.724  0.6752 -0.1633 -0.5920
  725MOL0     C99969   2.414   6.383   9.733 -0.2899  0.3345  0.1697
  725MOL0     C99970   2.332   6.366   9.848 -0.2938  0.2211  0.8306
  725MOL0     O99971   2.199   6.416   9.860 -0.2183 -0.0837  0.7940
  725MOL0     C99972   2.161   6.541   9.799 -0.2988 -0.4104  0.1439
  725MOL0     C99973   2.038   6.611   9.863  0.0055  0.3694  0.4646
  725MOL0     C99974   1.929   6.511   9.888  0.7146 -0.3796  0.3023
  725MOL0     C99975   1.798   6.553   9.955  0.6079 -0.2996  0.3871
  725MOL0     C99976   1.812   6.587  10.094 -0.2091  0.4481  0.1588
  725MOL0     C99977   1.818   6.626  10.210  0.2873  0.0291 -0.3974
  725MOL0     C99978   2.386   6.286   9.952 -0.0128  0.0817  0.3700
  725MOL0     C99979   2.513   6.225   9.940  0.1676 -1.3094  0.7095
  725MOL0     C99980   2.558   6.147  10.057  0.3109  0.7739 -0.0119
  725MOL0     H99981   3.010   6.261   9.813 -1.0140  0.1587 -0.5319
  725MOL0     H99982   3.238   6.215   9.756 -1.1295 -0.3439 -0.0294
  725MOL0     H99983   3.436   6.121   9.704  0.7577 -0.1970 -0.3871
  725MOL0     H99984   3.412   6.187   9.553  0.9553 -0.0828 -0.0364
  725MOL0     H99985   3.644   6.047   9.600  2.0438  0.5802 -2.6188
  725MOL0     H99986   3.539   5.910   9.568 -1.4889 -0.1422 -0.6573
  725MOL0     H99987   3.481   5.997   9.350  0.8554 -0.3015 -1.6506
  725MOL0     H99988   3.590   6.130   9.369 -1.5211  0.2664 -2.2121
  725MOL0     H99989   3.773   5.960   9.422 -1.2236  2.4828  0.6550
  725MOL0     H99990   3.671   5.832   9.377  2.0583 -0.7386 -0.4606
  725MOL0     H99991   3.776   6.057   9.198  0.5618  0.0963  3.1522
  725MOL0     H99992   3.655   5.918   9.146 -0.1865  0.7486 -0.6064
  725MOL0     H99993   3.933   5.862   9.248  1.9026  2.1188 -0.9361
  725MOL0     H99994   3.803   5.755   9.216 -1.9268 -0.5558 -2.2788
  725MOL0     H99995   3.828   5.789   8.984  0.9615 -1.9597  0.4299
  725MOL0     H99996   3.987   5.767   9.036  1.4595  1.1273 -2.7457
  725MOL0     H99997   3.892   6.053   8.998  0.3307  0.5926 -0.5826
  725MOL0     H99998   4.047   5.995   9.080  1.9753 -0.5121 -0.8726
  725MOL0     H99999   3.866   6.032   8.744  0.3253 -1.2210 -1.3138
  725MOL0     H    0   3.939   6.051   8.507  1.7708  2.0227  1.0620
  725MOL0     H    1   3.994   5.882   8.490  0.4488  1.0623 -2.7910
  725MOL0     H    2   4.134   6.151   8.425 -1.7313  0.4548  2.6532
  725MOL0     H    3   4.220   5.990   8.443 -0.5107 -1.7298 -0.5035
  725MOL0     H    4   4.047   5.898   8.262  0.1899 -0.2127 -1.5755
  725MOL0     H    5   3.991   6.067   8.241  0.1507  1.1822  0.1852
  725MOL0     H    6   4.286   5.968   8.198 -0.9264  0.0301 -0.3535
  725MOL0     H    7   4.160   5.991   8.071 -3.3357 -0.0804  0.7307
  725MOL0     H    8   4.339   6.075   7.899 -0.9730  0.5071  1.5285
  725MOL0     H    9   4.641   6.030   7.774  0.8307 -0.4401  3.1009
  725MOL0     H   10   4.579   6.184   7.705 -1.1268  0.5468  0.9624
  725MOL0     H   11   4.478   6.045   7.722  0.8606 -0.4912 -0.5375
  725MOL0     H   12   5.019   6.363   8.053 -1.2163 -0.0869 -0.5254
  725MOL0     H   13   5.232   6.434   7.909 -0.6231 -1.8030  1.8146
  725MOL0     H   14   5.192   6.612   7.500 -1.6030  1.8079  1.1127
  725MOL0     H   15   5.146   6.739   7.604 -0.3239 -1.0482  2.5899
  725MOL0     H   16   5.412   6.718   7.670  0.6129 -1.3270 -0.4556
  725MOL0     H   17   5.410   6.679   7.496  2.6795  0.0603  0.5440
  725MOL0     H   18   5.297   6.937   7.607  2.3037 -1.7221  1.4734
  725MOL0     H   19   5.294   6.880   7.432  1.2789 -1.8625 -0.4760
  725MOL0     H   20   5.537   6.920   7.603 -1.3368 -1.1905  0.9295
  725MOL0     H   21   5.473   7.051   7.514 -1.0360 -0.3169  3.3066
  725MOL0     H   22   5.590   6.776   7.416 -0.1585  0.3061  0.5269
  725MOL0     H   23   5.508   6.894   7.307  0.3746 -1.3511 -0.8506
  725MOL0     H   24   5.765   6.944   7.467 -1.1584  4.3507  1.8207
  725MOL0     H   25   5.685   7.061   7.369 -1.1260  0.8245  0.8736
  725MOL0     H   26   5.695   6.920   7.166  1.6710 -1.2727 -1.0911
  725MOL0     H   27   5.782   6.793   7.241  0.3797 -0.0468 -2.6105
  725MOL0     H   28   5.901   7.067   7.204 -0.6190  0.7685 -1.2511
  725MOL0     H   29   5.907   6.928   7.100  0.7255  0.6861  0.1370
  725MOL0     H   30   4.965   6.590   7.608  3.2240  1.8655  0.2100
  725MOL0     H   31   4.773   6.535   7.744 -1.5168  0.9865  0.0622
  725MOL0     H   32   4.626   6.367   8.159  1.8563 -2.2335  0.1719
  725MOL0     H   33   4.408   6.312   8.255  0.8523 -0.6497  0.2276
  725MOL0     H   34   3.104   5.931   9.464  1.5162 -0.8783  0.9725
  725MOL0     H   35   2.864   6.007   9.527 -0.7798 -0.2194  1.9616
  725MOL0     H   36   2.600   6.341   9.632  1.0793  1.0620 -0.2109
  725MOL0     H   37   2.373   6.452   9.660 -1.8903  1.8483  2.3624
  725MOL0     H   38   2.246   6.609   9.802 -2.3530  2.4392 -1.2866
  725MOL0     H   39   2.143   6.518   9.694  0.1511  0.3730 -0.1119
  725MOL0     H   40   2.013   6.697   9.799 -0.9880 -1.2244 -1.4333
  725MOL0     H   41   2.070   6.643   9.962 -1.4694  2.1554  0.4223
  725MOL0     H   42   1.893   6.480   9.789 -1.0391 -0.1085  0.8150
  725MOL0     H   43   1.966   6.417   9.928 -0.3053 -0.0549  2.1035
  725MOL0     H   44   1.730   6.467   9.944 -1.1205  1.3318 -3.6664
  725MOL0     H   45   1.761   6.635   9.894  1.5018  0.0951  0.3659
  725MOL0     H   46   1.824   6.673  10.306  1.5854  2.9533 -1.7731
  725MOL0     H   47   2.314   6.280  10.033 -0.2456  0.2643  0.1773
  725MOL0     H   48   2.474   6.110  10.117  1.0224 -2.1128 -0.6541
  725MOL0     H   49   2.615   6.062  10.020 -0.5774  0.3267 -0.3954
  725MOL0     H   50   2.618   6.210  10.124 -0.7516 -0.1754  1.9325
  726MOL0     O   51  10.400   1.165   8.311 -0.1395 -0.4589  0.0689
  726MOL0     C   52  10.494   1.213   8.378  0.6377 -0.4661  0.1570
  726MOL0     O   53  10.580   1.146   8.461  0.4994 -0.1770  0.0425
  726MOL0     C   54  10.574   1.009   8.455  0.0375  0.3815  0.4382
  726MOL0     C   55  10.634   0.935   8.347 -0.8042  0.3108  0.1587
  726MOL0     C   56  10.621   0.798   8.343  0.0484  0.0980 -0.3314
  726MOL0     C   57  10.547   0.732   8.442 -0.7189 -0.7229 -1.5985
  726MOL0     O   58  10.557   0.596   8.452  0.1809 -0.3068  0.2645
  726MOL0     C   59  10.665   0.526   8.385  0.5674 -0.8810  0.0669
  726MOL0     C   60  10.664   0.379   8.429  0.0501 -0.4270  0.7284
  726MOL0     C   61  10.791   0.297   8.380 -0.3486 -0.0519  0.3696
  726MOL0     C   62  10.815   0.302   8.227 -0.1155 -1.1903 -0.0468
  726MOL0     C   63  10.933   0.213   8.179 -0.2854  0.4767 -0.7123
  726MOL0     C   64  10.909   0.164   8.038  0.5964  0.0523  0.6844
  726MOL0     C   65  11.046   0.128   7.981  0.4444  0.5103  0.6443
  726MOL0     C   66  11.043   0.052   7.848 -0.0086  0.6010  0.7779
  726MOL0     N   67  11.180   0.008   7.808  0.6446  0.4558 -0.3744
  726MOL0     C   68  11.208  -0.124   7.780  0.0121  0.1658 -0.5387
  726MOL0     C   69  11.340  -0.131   7.757 -0.5284 -0.5341  0.1052
  726MOL0     C   70  11.397  -0.269   7.716 -0.0319 -0.2808  0.4980
  726MOL0     C   71  11.533  -0.252   7.655 -0.5736 -0.1556 -0.2448
  726MOL0     C   72  11.617  -0.373   7.656 -0.1413  0.3198  0.5817
  726MOL0     C   73  11.759  -0.348   7.598 -0.0302  0.4704 -0.3957
  726MOL0     O   74  11.820  -0.232   7.667 -0.6710 -0.3621  0.2310
  726MOL0     C   75  11.955  -0.210   7.654 -0.2314 -0.1167  0.0744
  726MOL0     C   76  12.047  -0.288   7.588  0.1267 -0.0691  0.0699
  726MOL0     C   77  12.180  -0.252   7.563  0.0976  0.3811  0.6239
  726MOL0     C   78  12.276  -0.337   7.476  0.2858 -0.1882  0.0975
  726MOL0     C   79  12.233  -0.131   7.610  0.9835  0.1566  0.2381
  726MOL0     C   80  12.367  -0.085   7.572 -1.2912 -0.5211 -0.4040
  726MOL0     O   81  12.479  -0.145   7.632  0.6037  0.2074 -0.0212
  726MOL0     C   82  12.605  -0.126   7.587  0.2425  0.7864 -0.1778
  726MOL0     C   83  12.656  -0.006   7.544  0.0853  0.2108  0.4364
  726MOL0     C   84  12.800   0.016   7.528  0.5882  0.8763 -0.5561
  726MOL0     C   85  12.889  -0.082   7.533 -0.4553  0.5733 -0.5789
  726MOL0     O   86  13.027  -0.069   7.540  0.1783 -0.0111 -0.7209
  726MOL0     C   87  13.096   0.035   7.481  0.9309 -0.7487  0.7913
  726MOL0     C   88  13.104   0.157   7.579  0.3296 -0.7668  0.2047
  726MOL0     C   89  13.186   0.267   7.512  0.3551 -0.4360 -0.0223
  726MOL0     C   90  13.204   0.384   7.603  0.0252 -0.0272 -0.3006
  726MOL0     C   91  13.305   0.379   7.713 -0.9479  0.0085 -0.1648
  726MOL0     C   92  13.339   0.529   7.750  0.0207 -0.6410  0.6459
  726MOL0     C   93  13.416   0.547   7.885  1.0077 -0.3685  0.2866
  726MOL0     C   94  13.551   0.456   7.893 -0.1063 -0.2869 -0.1516
  726MOL0    Cl   95  13.648   0.501   8.033 -0.2488  0.0474  0.2138
  726MOL0     C   96  12.832  -0.212   7.568  0.5418  1.0659 -0.1362
  726MOL0     C   97  12.699  -0.233   7.594  0.2320 -0.8480 -0.1320
  726MOL0     O   98  12.370  -0.001   7.486 -0.2362  0.0041 -0.3403
  726MOL0     C   99  12.138  -0.049   7.680  0.3241  0.6256  0.0843
  726MOL0     C  100  12.002  -0.086   7.698 -0.0421 -0.6646  0.2336
  726MOL0     N  101  11.385   0.005   7.761  0.0236 -0.1573 -0.8644
  726MOL0     N  102  11.292   0.082   7.806 -1.3000  0.1623  0.6259
  726MOL0     C  103  10.485   0.809   8.539  0.1264 -0.4970 -0.1643
  726MOL0     C  104  10.491   0.948   8.538  0.1487 -0.1129 -0.3802
  726MOL0     C  105  10.518   1.359   8.365 -0.0303  0.1010 -1.0136
  726MOL0     C  106  10.648   1.410   8.386 -0.0681  0.2379 -0.6580
  726MOL0     C  107  10.680   1.542   8.361  0.9304  0.1780 -0.3950
  726MOL0     C  108  10.582   1.634   8.319 -0.0495 -0.1673 -0.2054
  726MOL0     O  109  10.612   1.768   8.305 -0.5685  0.1535  0.4200
  726MOL0     C  110  10.744   1.806   8.265 -0.5493 -0.2197  0.3870
  726MOL0     C  111  10.757   1.960   8.243 -0.1851 -0.4994 -0.4669
  726MOL0     C  112  10.647   2.023   8.169  0.7690  0.4635 -0.1830
  726MOL0     C  113  10.633   1.979   8.015 -0.3510 -0.5610 -0.0826
  726MOL0     C  114  10.748   2.032   7.938 -0.0187 -0.8253 -0.3437
  726MOL0     C  115  10.837   2.083   7.880 -0.4663  0.6888 -0.2559
  726MOL0     C  116  10.456   1.588   8.306  0.0981 -0.1529 -0.1004
  726MOL0     C  117  10.421   1.452   8.328  0.3209  0.7377 -0.5204
  726MOL0     C  118  10.280   1.405   8.306  0.9843 -0.1842  0.9284
  726MOL0     H  119  10.684   0.993   8.270  1.4997  0.8676  1.9432
  726MOL0     H  120  10.673   0.747   8.263 -3.6250 -0.4759 -2.6124
  726MOL0     H  121  10.760   0.575   8.409 -0.7471  3.0020 -1.7500
  726MOL0     H  122  10.638   0.529   8.278 -2.1554 -1.1812  0.6522
  726MOL0     H  123  10.662   0.387   8.538 -0.5326  0.3612  0.6743
  726MOL0     H  124  10.573   0.329   8.391  2.3645 -0.5051 -6.1568
  726MOL0     H  125  10.883   0.335   8.426  0.1730 -0.3308 -0.4288
  726MOL0     H  126  10.780   0.190   8.401 -3.4816 -0.1627 -1.1733
  726MOL0     H  127  10.719   0.278   8.182 -0.3616  2.7990 -2.0547
  726MOL0     H  128  10.840   0.405   8.202  0.8765 -0.3803  3.6899
  726MOL0     H  129  10.951   0.131   8.249 -0.4238  4.0259  3.9611
  726MOL0     H  130  11.023   0.274   8.174  0.6487 -0.6333  1.3261
  726MOL0     H  131  10.845   0.076   8.039  1.6690 -0.7683  0.1201
  726MOL0     H  132  10.866   0.247   7.981  2.1383  0.1598 -0.3980
  726MOL0     H  133  11.097   0.064   8.054 -1.0692 -0.4620  0.8990
  726MOL0     H  134  11.106   0.218   7.965 -0.9721  1.1937 -1.2755
  726MOL0     H  135  10.976  -0.034   7.854 -0.7237  0.8156 -2.2364
  726MOL0     H  136  11.009   0.118   7.767  2.9812  1.4429  0.0780
  726MOL0     H  137  11.131  -0.195   7.754 -0.2937 -0.2237  1.3193
  726MOL0     H  138  11.332  -0.331   7.655  0.0502  0.2771 -0.1705
  726MOL0     H  139  11.403  -0.329   7.807  1.4683  3.4632  3.1342
  726MOL0     H  140  11.524  -0.205   7.556  0.4157  1.0406  0.2117
  726MOL0     H  141  11.590  -0.180   7.715 -2.4719  1.9442 -0.8063
  726MOL0     H  142  11.625  -0.417   7.756 -2.4925 -0.3362  0.5295
  726MOL0     H  143  11.566  -0.443   7.590 -0.0058  0.3702  0.4252
  726MOL0     H  144  11.816  -0.441   7.604  2.9325  2.0961 -1.4882
  726MOL0     H  145  11.757  -0.319   7.493 -0.6075  2.7180  0.1809
  726MOL0     H  146  12.024  -0.389   7.555  3.0628 -0.1775 -2.0401
  726MOL0     H  147  12.364  -0.360   7.536 -0.7396  3.2514  3.3145
  726MOL0     H  148  12.303  -0.284   7.384  0.8319 -0.9655 -0.1967
  726MOL0     H  149  12.248  -0.441   7.457 -1.4658  0.2221  0.1943
  726MOL0     H  150  12.595   0.083   7.532  0.7437  0.6179 -0.0277
  726MOL0     H  151  12.826   0.120   7.512  2.2362  0.7054  0.7722
  726MOL0     H  152  13.196   0.011   7.444  1.7262  1.3699  1.4020
  726MOL0     H  153  13.048   0.060   7.386  2.7497  1.5443  0.3862
  726MOL0     H  154  13.008   0.194   7.614 -0.2349  0.5403 -2.4859
  726MOL0     H  155  13.161   0.121   7.666 -1.3124  1.5835  2.3708
  726MOL0     H  156  13.132   0.300   7.422 -1.5418  0.5019  1.3972
  726MOL0     H  157  13.281   0.232   7.470 -0.2459  0.2725 -2.1102
  726MOL0     H  158  13.108   0.411   7.647  0.3092  3.0412 -1.3785
  726MOL0     H  159  13.230   0.471   7.543  0.5568 -0.4204 -0.6614
  726MOL0     H  160  13.276   0.322   7.801 -2.0487  0.5434 -0.1699
  726MOL0     H  161  13.397   0.338   7.668  0.4453  3.6394 -0.9514
  726MOL0     H  162  13.248   0.589   7.755  0.5537  0.0897  3.9580
  726MOL0     H  163  13.411   0.567   7.677 -0.1903  0.4226  0.9825
  726MOL0     H  164  13.348   0.496   7.954 -3.5896  0.1034 -3.3574
  726MOL0     H  165  13.432   0.652   7.910 -2.3159  0.2228  0.4545
  726MOL0     H  166  13.613   0.477   7.806 -2.1215  0.3126 -1.5096
  726MOL0     H  167  13.532   0.348   7.887 -0.4744 -0.1951 -0.6923
  726MOL0     H  168  12.891  -0.303   7.571 -1.7074 -0.5127 -1.1802
  726MOL0     H  169  12.671  -0.328   7.638  0.8896 -0.1008  1.9948
  726MOL0     H  170  12.169   0.047   7.720  2.0106  1.1394 -2.2246
  726MOL0     H  171  11.935  -0.022   7.755 -0.8253 -1.4946  0.2603
  726MOL0     H  172  10.427   0.773   8.623 -1.9746  2.8177 -0.0197
  726MOL0     H  173  10.431   1.020   8.593 -2.1437  0.4257 -3.3539
  726MOL0     H  174  10.732   1.349   8.419 -0.6247 -0.8814 -1.2593
  726MOL0     H  175  10.781   1.576   8.376  0.2634  1.7317  0.7612
  726MOL0     H  176  10.822   1.777   8.336 -0.7330  0.0602  0.7086
  726MOL0     H  177  10.767   1.759   8.169  0.5186 -0.6745  0.8600
  726MOL0     H  178  10.843   1.978   8.178 -1.6299  2.0156 -1.8610
  726MOL0     H  179  10.775   2.014   8.337 -0.8348 -2.0854  0.6146
  726MOL0     H  180  10.556   2.001   8.227  0.8506 -2.5988 -1.0669
  726MOL0     H  181  10.660   2.132   8.167  0.3900  0.5436  0.9136
  726MOL0     H  182  10.549   2.012   7.953 -0.1309  0.8746  0.3535
  726MOL0     H  183  10.626   1.870   8.017 -4.2012 -0.4297  1.5881
  726MOL0     H  184  10.921   2.134   7.838 -0.4839  1.4302  0.5769
  726MOL0     H  185  10.380   1.658   8.274  1.9728  2.6257  1.1024
  726MOL0     H  186  10.270   1.349   8.213 -0.5769  0.4959  0.6572
  726MOL0     H  187  10.234   1.349   8.388  0.5329 -1.5913 -0.2508
  726MOL0     H  188  10.218   1.495   8.297  0.0998 -0.9670 -1.4439
  727MOL0     O  189  11.046   9.725  10.393 -0.4308 -0.0891 -0.6374
  727MOL0     C  190  11.011   9.768  10.502  1.4846  0.6049 -0.2138
  727MOL0     O  191  11.092   9.837  10.590  1.3289 -0.1489  0.1975
  727MOL0     C  192  11.219   9.862  10.542  0.3448  0.5357  1.0425
  727MOL0     C  193  11.315   9.770  10.559 -0.2862  0.3835  0.6982
  727MOL0     C  194  11.448   9.794  10.532  0.8389  0.6570  0.4539
  727MOL0     C  195  11.488   9.922  10.484 -0.6805  0.0242  0.3736
  727MOL0     O  196  11.624   9.939  10.475  0.5063 -0.1921  0.6334
  727MOL0     C  197  11.671  10.073  10.465  0.7894 -0.0644  0.3584
  727MOL0     C  198  11.816  10.105  10.461  0.2307  0.2566  0.1960
  727MOL0     C  199  11.889  10.056  10.596  0.0730 -0.6886  0.3573
  727MOL0     C  200  11.849  10.145  10.715  0.3273  0.2178  0.3170
  727MOL0     C  201  11.939  10.113  10.839 -1.1780 -0.2015  0.5039
  727MOL0     C  202  11.910  10.212  10.952  0.1108 -0.7272 -0.4258
  727MOL0     C  203  12.003  10.168  11.064 -0.7030 -0.2228  0.0945
  727MOL0     C  204  12.150  10.225  11.044  0.1849 -0.1198 -0.6042
  727MOL0     N  205  12.245  10.225  11.156  0.2800 -0.0138  0.5280
  727MOL0     C  206  12.249  10.321  11.252 -0.0087  0.9440  0.0977
  727MOL0     C  207  12.338  10.283  11.341  0.5322  0.0011  0.2124
  727MOL0     C  208  12.357  10.368  11.467 -0.1865 -0.3884 -0.4055
  727MOL0     C  209  12.486  10.438  11.449 -0.3211  0.1364  0.0908
  727MOL0     C  210  12.536  10.492  11.583 -0.2755  0.4176 -0.9237
  727MOL0     C  211  12.675  10.561  11.579  0.1558 -0.4105  0.0453
  727MOL0     O  212  12.664  10.701  11.546  0.4965 -0.4821 -0.2495
  727MOL0     C  213  12.773  10.782  11.558  0.5966  0.4337 -0.0964
  727MOL0     C  214  12.750  10.914  11.532 -0.5773  0.6870 -0.1252
  727MOL0     C  215  12.850  11.007  11.537  0.6356  0.2115 -0.2094
  727MOL0     C  216  12.806  11.151  11.513 -0.1003 -0.7805  0.0676
  727MOL0     C  217  12.986  10.964  11.550  0.1051 -0.6466  0.5145
  727MOL0     C  218  13.101  11.061  11.539 -0.6481 -0.5794 -0.1044
  727MOL0     O  219  13.225  10.997  11.552 -0.1937 -0.3405 -0.4823
  727MOL0     C  220  13.334  11.087  11.536 -0.3244  0.2904 -0.7129
  727MOL0     C  221  13.428  11.087  11.645 -0.2254 -0.4713 -0.7720
  727MOL0     C  222  13.542  11.169  11.642 -1.0818 -0.5375 -0.4447
  727MOL0     C  223  13.570  11.248  11.530 -0.6527 -0.1789 -0.4677
  727MOL0     O  224  13.679  11.331  11.541 -1.0455  0.0132 -0.7508
  727MOL0     C  225  13.737  11.397  11.432 -0.1351 -0.1215  0.6461
  727MOL0     C  226  13.879  11.444  11.457  0.1374  0.1069  0.1157
  727MOL0     C  227  13.929  11.489  11.314  0.4301 -0.4008 -0.6836
  727MOL0     C  228  14.081  11.531  11.326 -0.7845 -0.2256 -0.7463
  727MOL0     C  229  14.138  11.604  11.196 -0.6651  0.1590 -1.4561
  727MOL0     C  230  14.095  11.751  11.193 -0.1512 -0.3121  0.8825
  727MOL0     C  231  14.102  11.802  11.045  0.1228 -0.3918 -0.2444
  727MOL0     C  232  13.975  11.777  10.956 -0.4834 -1.0353 -0.6795
  727MOL0    Cl  233  13.844  11.885  11.004  0.0598  0.1434 -0.7747
  727MOL0     C  234  13.476  11.258  11.422  0.4044 -0.4315  0.0126
  727MOL0     C  235  13.372  11.169  11.422  0.0198 -0.8363 -0.2499
  727MOL0     O  236  13.088  11.183  11.518 -0.4206 -0.7889  0.0030
  727MOL0     C  237  13.000  10.826  11.578  0.2080  0.1659  0.4334
  727MOL0     C  238  12.899  10.738  11.590 -0.1901  0.0938  0.5013
  727MOL0     N  239  12.400  10.172  11.292  0.0957  0.0090 -0.4133
  727MOL0     N  240  12.346  10.136  11.180 -0.2727  0.8662 -0.1531
  727MOL0     C  241  11.389  10.021  10.465  0.3315 -0.2765  0.4935
  727MOL0     C  242  11.256   9.983  10.476 -0.0930  0.9727 -0.2828
  727MOL0     C  243  10.882   9.728  10.557  0.6835  0.2732 -0.1394
  727MOL0     C  244  10.876   9.720  10.697  0.2356 -0.0177 -0.6698
  727MOL0     C  245  10.760   9.673  10.757 -0.0201  0.6379  0.0104
  727MOL0     C  246  10.644   9.644  10.684 -0.3942 -0.2985 -0.5276
  727MOL0     O  247  10.538   9.609  10.764 -0.2398  0.1451  0.6911
  727MOL0     C  248  10.424   9.553  10.698  0.2656 -0.7858 -0.1432
  727MOL0     C  249  10.327   9.472  10.791  0.0701 -0.1571 -0.3022
  727MOL0     C  250  10.344   9.506  10.936 -0.7129 -0.3273 -0.5979
  727MOL0     C  251  10.324   9.651  10.983 -0.2487 -0.6255  0.2778
  727MOL0     C  252  10.198   9.707  10.932  0.6789 -0.0348  0.1238
  727MOL0     C  253  10.091   9.751  10.883 -0.3456 -0.4001  0.1021
  727MOL0     C  254  10.643   9.672  10.548  0.6178  0.1786 -0.8631
  727MOL0     C  255  10.763   9.717  10.482  0.3742  0.2267 -0.6592
  727MOL0     C  256  10.752   9.756  10.339 -0.1804  0.0061 -0.0624
  727MOL0     H  257  11.294   9.670  10.596 -0.7340  0.2728  0.1551
  727MOL0     H  258  11.515   9.710  10.543  0.9153  0.2872 -2.1868
  727MOL0     H  259  11.620  10.134  10.541 -1.5941 -1.8876  0.3428
  727MOL0     H  260  11.631  10.109  10.370  1.4776  0.6498  0.3321
  727MOL0     H  261  11.864  10.057  10.376 -1.1729 -1.8734  0.4957
  727MOL0     H  262  11.823  10.214  10.457  1.1050  0.3819  3.0058
  727MOL0     H  263  11.863   9.952  10.616 -0.6765 -0.8094 -1.1302
  727MOL0     H  264  11.994  10.078  10.573 -0.3161  2.1217  0.8715
  727MOL0     H  265  11.867  10.251  10.694 -0.3135  0.1919 -0.3980
  727MOL0     H  266  11.744  10.136  10.745  1.1802  1.3827  4.2146
  727MOL0     H  267  12.046  10.107  10.819 -0.9849  2.6009  0.3531
  727MOL0     H  268  11.916  10.010  10.869  0.9380 -1.8812 -3.0208
  727MOL0     H  269  11.935  10.316  10.928 -0.5260 -0.1271  1.3558
  727MOL0     H  270  11.805  10.201  10.980  0.4837 -0.2435  1.2382
  727MOL0     H  271  12.009  10.059  11.068  1.1638 -0.1111  1.8303
  727MOL0     H  272  11.966  10.204  11.161  3.3957 -2.6090  2.8354
  727MOL0     H  273  12.198  10.154  10.975  0.7354 -0.2472 -0.1041
  727MOL0     H  274  12.155  10.323  10.996  3.5384 -0.0995 -0.5112
  727MOL0     H  275  12.185  10.407  11.269  0.6755  1.2924  0.9839
  727MOL0     H  276  12.356  10.297  11.550 -1.0829 -1.6249 -1.4122
  727MOL0     H  277  12.273  10.434  11.488  1.4909  1.8911 -0.5719
  727MOL0     H  278  12.562  10.375  11.404  0.5714 -0.2837  2.0732
  727MOL0     H  279  12.469  10.529  11.391 -3.0746  1.0925  2.1649
  727MOL0     H  280  12.465  10.562  11.627  0.2741  2.0022 -2.4374
  727MOL0     H  281  12.546  10.411  11.656  0.4630  1.3543  0.0459
  727MOL0     H  282  12.712  10.560  11.682 -0.7844  2.3649  0.4669
  727MOL0     H  283  12.745  10.521  11.505 -0.5097 -1.9137  0.1916
  727MOL0     H  284  12.648  10.945  11.517  0.1297  4.3310  1.6362
  727MOL0     H  285  12.819  11.211  11.604 -3.8068 -0.5033  0.5736
  727MOL0     H  286  12.699  11.156  11.489 -0.1101  1.4850  0.4025
  727MOL0     H  287  12.867  11.198  11.435 -2.3632 -1.5085 -2.3063
  727MOL0     H  288  13.407  11.037  11.739 -1.4698  1.2413 -0.0963
  727MOL0     H  289  13.620  11.166  11.717 -0.9414  1.9322 -0.4236
  727MOL0     H  290  13.748  11.321  11.354 -0.5158  1.7754 -1.3654
  727MOL0     H  291  13.672  11.477  11.395  1.6167 -0.9269 -5.2904
  727MOL0     H  292  13.872  11.529  11.526 -0.5755 -0.1404  0.3546
  727MOL0     H  293  13.938  11.371  11.514  0.0734 -0.3244 -0.3666
  727MOL0     H  294  13.866  11.572  11.282 -2.6589 -2.3298  0.0530
  727MOL0     H  295  13.925  11.405  11.245 -4.3899 -0.0487 -1.1690
  727MOL0     H  296  14.135  11.438  11.345  0.0920  0.0878 -1.6123
  727MOL0     H  297  14.088  11.587  11.420 -1.7554 -3.8604  1.7152
  727MOL0     H  298  14.248  11.609  11.195 -0.6732  0.6784 -0.4930
  727MOL0     H  299  14.112  11.550  11.105 -2.6549  0.0512 -0.8507
  727MOL0     H  300  14.174  11.796  11.252 -0.3775 -1.9007  2.4809
  727MOL0     H  301  13.990  11.774  11.216 -0.1324  1.5504 -0.6485
  727MOL0     H  302  14.193  11.767  10.994 -0.3158 -0.9061 -0.6861
  727MOL0     H  303  14.127  11.908  11.050 -3.2213  0.4694  0.9597
  727MOL0     H  304  13.946  11.672  10.970 -0.4938 -0.7279  2.1777
  727MOL0     H  305  13.996  11.802  10.851  1.9199  0.1465  0.0016
  727MOL0     H  306  13.499  11.320  11.336 -0.8425  1.0598  0.6939
  727MOL0     H  307  13.298  11.173  11.342  0.9555 -0.8170 -1.1346
  727MOL0     H  308  13.099  10.797  11.611 -0.5576 -2.9426  0.3231
  727MOL0     H  309  12.918  10.634  11.616  1.1213 -0.0603 -0.9110
  727MOL0     H  310  11.421  10.116  10.425 -0.3621 -0.9454 -1.7863
  727MOL0     H  311  11.180  10.060  10.461 -0.6979  0.4296 -0.0514
  727MOL0     H  312  10.968   9.733  10.753  0.5525  1.3636 -1.4518
  727MOL0     H  313  10.754   9.689  10.864 -2.7959  0.1757 -0.0213
  727MOL0     H  314  10.371   9.629  10.639 -1.3305 -1.7667 -0.0173
  727MOL0     H  315  10.458   9.475  10.629  0.0351 -3.4607  2.5897
  727MOL0     H  316  10.364   9.370  10.780  3.3604  0.8365  0.5263
  727MOL0     H  317  10.227   9.496  10.754  0.5129  3.3919  0.5099
  727MOL0     H  318  10.259   9.449  10.976 -2.1832  0.9622 -1.7477
  727MOL0     H  319  10.430   9.454  10.979 -0.5639  1.1490  0.9821
  727MOL0     H  320  10.402   9.717  10.944 -0.8155  0.9665  1.7225
  727MOL0     H  321  10.321   9.672  11.090  1.8242 -0.3636  0.3240
  727MOL0     H  322  10.003   9.780  10.830  0.7918  1.2361 -0.9616
  727MOL0     H  323  10.550   9.662  10.491  1.9109 -0.1772 -3.0228
  727MOL0     H  324  10.832   9.829  10.320  1.6146 -1.5130  1.2715
  727MOL0     H  325  10.778   9.669  10.279 -0.1995 -1.2699  1.7152
  727MOL0     H  326  10.650   9.784  10.311 -1.4491 -2.9159  1.2585
  728MOL0     O  327   5.806   3.753   6.816  0.5745 -0.0155  0.1569
  728MOL0     C  328   5.787   3.762   6.694 -0.8799 -0.3620  0.6320
  728MOL0     O  329   5.856   3.848   6.609 -0.0216  0.0234  0.0702
  728MOL0     C  330   5.983   3.905   6.633  0.1765  0.8307  0.3760
  728MOL0     C  331   6.038   3.961   6.518  0.8967 -0.3327 -0.1252
  728MOL0     C  332   6.159   4.026   6.529 -0.1036  0.1298  0.0582
  728MOL0     C  333   6.236   4.019   6.643 -0.3843 -0.3469 -0.1344
  728MOL0     O  334   6.364   4.062   6.626 -0.4922 -0.1567 -0.1094
  728MOL0     C  335   6.445   4.079   6.749  0.0983 -0.6384  0.2696
  728MOL0     C  336   6.583   4.142   6.725  0.0597 -0.8989 -0.4580
  728MOL0     C  337   6.664   4.143   6.854 -0.7391  0.1984  0.0474
  728MOL0     C  338   6.773   4.248   6.841 -0.1838 -0.3561  0.1854
  728MOL0     C  339   6.840   4.308   6.966 -0.1916  0.0629  0.7152
  728MOL0     C  340   6.885   4.217   7.082 -0.1266 -0.0558  0.0743
  728MOL0     C  341   6.941   4.307   7.191 -0.4328  0.2231 -0.3842
  728MOL0     C  342   6.849   4.337   7.310  0.3727 -0.2563  0.5858
  728MOL0     N  343   6.853   4.230   7.418 -0.1214 -0.3567 -0.5568
  728MOL0     C  344   6.774   4.118   7.430 -0.1397 -0.1367  0.1602
  728MOL0     C  345   6.835   4.046   7.526  0.5972  0.2612  0.2681
  728MOL0     C  346   6.791   3.900   7.557 -0.0591 -0.1864  0.1329
  728MOL0     C  347   6.905   3.807   7.511  0.4947  0.6616 -1.4562
  728MOL0     C  348   6.871   3.667   7.538 -0.9712 -0.8764 -0.4479
  728MOL0     C  349   6.818   3.586   7.426  0.0773 -0.2641 -0.5452
  728MOL0     O  350   6.931   3.536   7.355  0.2195  0.0959  0.5606
  728MOL0     C  351   6.905   3.467   7.239  0.1819 -0.1204  0.4945
  728MOL0     C  352   6.987   3.485   7.123 -0.3037  0.7806 -0.6911
  728MOL0     C  353   6.951   3.437   6.997  0.6202  0.3713  0.5289
  728MOL0     C  354   7.045   3.446   6.885 -0.7141 -0.5521 -0.2023
  728MOL0     C  355   6.824   3.368   6.977 -0.3229  0.7056  0.0927
  728MOL0     C  356   6.775   3.309   6.848  1.0434  0.5941 -0.9613
  728MOL0     O  357   6.688   3.205   6.864  0.4881 -0.1150 -0.4757
  728MOL0     C  358   6.631   3.135   6.763 -0.2261  1.0604  0.0366
  728MOL0     C  359   6.520   3.064   6.804 -0.3042 -0.2472  0.0200
  728MOL0     C  360   6.452   2.986   6.709 -0.1278 -0.1673 -0.1076
  728MOL0     C  361   6.499   2.971   6.575  1.0814  0.6041 -0.5820
  728MOL0     O  362   6.438   2.884   6.484  0.3560 -0.2787 -0.3396
  728MOL0     C  363   6.333   2.801   6.526  0.3318  0.4460  0.0157
  728MOL0     C  364   6.286   2.697   6.422 -1.3864 -0.2012  0.3709
  728MOL0     C  365   6.145   2.652   6.453  0.0430  0.6216 -0.5131
  728MOL0     C  366   6.097   2.533   6.375 -1.4930 -0.4475 -0.0983
  728MOL0     C  367   5.961   2.466   6.409  0.4550 -0.0687  0.2443
  728MOL0     C  368   5.842   2.563   6.404 -0.4171  0.1158 -0.3748
  728MOL0     C  369   5.831   2.634   6.274 -0.1318 -0.0262  0.4315
  728MOL0     C  370   5.690   2.683   6.232 -0.9244 -0.0609 -0.1582
  728MOL0    Cl  371   5.634   2.818   6.329 -0.2292 -0.1601 -0.1800
  728MOL0     C  372   6.609   3.047   6.538  0.7095 -1.1736 -0.7397
  728MOL0     C  373   6.675   3.125   6.628  0.1425 -0.6134 -0.4484
  728MOL0     O  374   6.805   3.358   6.741 -0.0046 -0.0878  0.5760
  728MOL0     C  375   6.746   3.341   7.098  0.1182 -0.7617  0.0064
  728MOL0     C  376   6.786   3.393   7.218  0.2553  0.3939 -0.6941
  728MOL0     N  377   6.943   4.116   7.567 -0.3842 -0.3108  0.2829
  728MOL0     N  378   6.958   4.228   7.505 -0.1903 -0.7779 -0.4172
  728MOL0     C  379   6.186   3.968   6.760  0.0683  0.0859 -0.4014
  728MOL0     C  380   6.055   3.913   6.756 -0.0722 -0.2318 -0.3863
  728MOL0     C  381   5.662   3.699   6.639 -0.6368 -0.3150  0.6919
  728MOL0     C  382   5.624   3.571   6.684 -0.3067  0.5912  0.6355
  728MOL0     C  383   5.505   3.521   6.651 -0.1390  0.5759  0.6231
  728MOL0     C  384   5.420   3.582   6.559  0.7948 -0.5913 -0.4644
  728MOL0     O  385   5.298   3.535   6.510 -0.3771  0.4906  0.2712
  728MOL0     C  386   5.269   3.392   6.523  0.0738  0.1815 -0.3475
  728MOL0     C  387   5.144   3.354   6.441  0.1197 -0.7193 -0.4995
  728MOL0     C  388   5.013   3.437   6.465 -0.3769  0.4058  0.7785
  728MOL0     C  389   4.946   3.420   6.598  0.9075  0.0285 -0.1321
  728MOL0     C  390   4.923   3.280   6.642 -0.2074 -0.6975 -0.6650
  728MOL0     C  391   4.898   3.165   6.675 -0.3849  0.6834 -0.2095
  728MOL0     C  392   5.452   3.710   6.521  0.1078 -0.6455  0.1804
  728MOL0     C  393   5.566   3.775   6.563  0.3318  0.9097 -0.4113
  728MOL0     C  394   5.577   3.921   6.522 -0.4560  0.3684 -0.1542
  728MOL0     H  395   5.986   3.967   6.423  1.7564 -1.5204 -0.6963
  728MOL0     H  396   6.203   4.074   6.442 -1.4568 -0.7774 -1.1670
  728MOL0     H  397   6.458   3.982   6.799  0.4260  0.2893  2.0610
  728MOL0     H  398   6.389   4.150   6.810 -0.1274  1.4912 -2.2564
  728MOL0     H  399   6.642   4.084   6.653  2.4272 -0.4079  0.9616
  728MOL0     H  400   6.570   4.241   6.680 -1.2355 -0.8873 -0.0975
  728MOL0     H  401   6.594   4.166   6.936 -2.1132  3.1500 -1.7598
  728MOL0     H  402   6.694   4.041   6.879 -2.7759 -0.2930  0.7295
  728MOL0     H  403   6.851   4.198   6.783 -0.7722 -0.2163 -0.7536
  728MOL0     H  404   6.742   4.332   6.778 -0.2751 -1.1772 -0.8884
  728MOL0     H  405   6.775   4.377   7.022 -0.6887  0.5385 -0.4323
  728MOL0     H  406   6.921   4.376   6.939  0.4772 -0.5132  1.2425
  728MOL0     H  407   6.798   4.164   7.122 -0.2159  0.1502  0.1561
  728MOL0     H  408   6.956   4.149   7.034 -0.5246  0.2771 -1.0074
  728MOL0     H  409   6.993   4.395   7.152  0.7310 -0.9919 -1.6756
  728MOL0     H  410   7.026   4.259   7.240  1.5310  3.0115 -0.8091
  728MOL0     H  411   6.878   4.435   7.351  3.5275 -0.9866  0.3266
  728MOL0     H  412   6.750   4.346   7.265  1.2041  0.0355 -1.2655
  728MOL0     H  413   6.689   4.087   7.370  0.8163  0.3099 -1.5173
  728MOL0     H  414   6.698   3.867   7.511  1.1158 -2.5398 -0.6799
  728MOL0     H  415   6.798   3.896   7.666 -0.2961 -0.9259  0.1238
  728MOL0     H  416   6.916   3.829   7.404  0.2409 -1.7303 -2.0403
  728MOL0     H  417   6.996   3.844   7.559 -1.5468  1.8679  1.8404
  728MOL0     H  418   6.961   3.618   7.574 -0.2688  0.4798 -0.3177
  728MOL0     H  419   6.796   3.673   7.618  0.4577  0.0496  0.8683
  728MOL0     H  420   6.765   3.500   7.467  0.0047  1.2669  2.9102
  728MOL0     H  421   6.739   3.637   7.368 -0.5257  0.2322  0.6756
  728MOL0     H  422   7.080   3.538   7.137  0.8116 -1.4320  0.9914
  728MOL0     H  423   7.136   3.494   6.923 -1.7215  1.7389 -0.4949
  728MOL0     H  424   7.016   3.502   6.795 -1.5134  0.1569  0.4792
  728MOL0     H  425   7.073   3.347   6.848 -0.6359 -0.2930 -0.8563
  728MOL0     H  426   6.493   3.084   6.907  0.9940  0.7194  0.2117
  728MOL0     H  427   6.366   2.930   6.745 -0.0013 -0.2210  0.1159
  728MOL0     H  428   6.354   2.752   6.621 -1.0993  3.5953  2.1554
  728MOL0     H  429   6.244   2.859   6.553 -0.8258 -0.9577 -0.6680
  728MOL0     H  430   6.294   2.726   6.317 -0.5307 -1.4908  0.0447
  728MOL0     H  431   6.358   2.614   6.429 -2.1289 -0.9588 -0.6686
  728MOL0     H  432   6.077   2.737   6.437  0.7685  1.5376  1.0405
  728MOL0     H  433   6.148   2.620   6.557 -0.2498 -0.7300 -0.9067
  728MOL0     H  434   6.168   2.450   6.378  0.2873  0.8705 -2.4292
  728MOL0     H  435   6.119   2.558   6.270  3.7955  0.6735  1.0247
  728MOL0     H  436   5.949   2.381   6.342  0.4130 -0.2306  0.4562
  728MOL0     H  437   5.954   2.429   6.512 -0.7029  0.8264  0.5035
  728MOL0     H  438   5.848   2.634   6.488 -1.1388 -2.4147  1.9663
  728MOL0     H  439   5.752   2.506   6.428 -0.3475 -0.3485 -1.1993
  728MOL0     H  440   5.863   2.571   6.190 -2.8154  0.9626 -1.4590
  728MOL0     H  441   5.909   2.712   6.275  0.4201 -0.4789 -1.5703
  728MOL0     H  442   5.632   2.590   6.235 -2.4524  0.8348 -1.0405
  728MOL0     H  443   5.682   2.702   6.125 -0.5927 -2.1133 -0.6012
  728MOL0     H  444   6.669   3.031   6.449  0.4469 -0.1197 -1.1194
  728MOL0     H  445   6.772   3.165   6.602  0.0960  1.9213  2.6441
  728MOL0     H  446   6.651   3.291   7.085  0.2122 -1.3697  1.4649
  728MOL0     H  447   6.728   3.377   7.309  1.6978 -0.7300  0.0576
  728MOL0     H  448   6.249   3.959   6.848  0.1649  2.4991 -0.1712
  728MOL0     H  449   6.020   3.876   6.852  1.4653  0.3181  0.4156
  728MOL0     H  450   5.693   3.514   6.746 -0.4979 -0.0460  0.2616
  728MOL0     H  451   5.469   3.434   6.704  0.8165  0.1281  0.5665
  728MOL0     H  452   5.354   3.332   6.492 -0.1196 -1.7090  2.4198
  728MOL0     H  453   5.255   3.380   6.631 -2.9645 -1.1820 -0.7721
  728MOL0     H  454   5.113   3.251   6.460 -0.5989  0.1299  4.4213
  728MOL0     H  455   5.171   3.348   6.336 -1.3869 -2.1660 -0.8374
  728MOL0     H  456   5.037   3.542   6.448  1.3866 -0.0844  0.0581
  728MOL0     H  457   4.942   3.398   6.391  3.9631 -3.6749 -1.7638
  728MOL0     H  458   4.843   3.457   6.594  1.1897  0.7703 -0.6797
  728MOL0     H  459   5.004   3.478   6.670  0.9521  2.2371 -1.8428
  728MOL0     H  460   4.874   3.069   6.716  2.3070  0.5492  1.3286
  728MOL0     H  461   5.385   3.769   6.460 -0.5326  0.0801  1.5629
  728MOL0     H  462   5.482   3.973   6.508  0.1112  0.7667 -2.9942
  728MOL0     H  463   5.626   3.972   6.606 -0.8519 -3.0050  2.3337
  728MOL0     H  464   5.644   3.933   6.437  0.1342  0.6106  0.3295
  729MOL0     O  465   7.162   3.233   3.818  0.2720 -0.6422  0.0954
  729MOL0     C  466   7.144   3.177   3.712 -0.3968  0.4031 -0.5026
  729MOL0     O  467   7.250   3.145   3.629 -0.4370  0.2114 -0.2896
  729MOL0     C  468   7.381   3.162   3.679 -0.4481 -0.7187 -0.8217
  729MOL0     C  469   7.479   3.208   3.587  1.1654  0.1931 -0.1346
  729MOL0     C  470   7.614   3.213   3.618  0.9818 -0.8279 -1.1249
  729MOL0     C  471   7.657   3.182   3.747 -0.5334  0.4947 -0.4761
  729MOL0     O  472   7.793   3.176   3.764 -0.3586 -0.1123 -0.1310
  729MOL0     C  473   7.839   3.109   3.881  0.9019 -0.7052 -1.1909
  729MOL0     C  474   7.987   3.075   3.857  0.2945  0.7512 -0.1850
  729MOL0     C  475   8.030   3.008   3.723 -0.6759  0.1086 -0.8158
  729MOL0     C  476   8.050   3.104   3.600  0.8338  0.1871  0.1340
  729MOL0     C  477   8.108   3.023   3.477 -0.0120  0.3724 -0.7488
  729MOL0     C  478   8.007   2.983   3.370 -0.1345 -0.3158 -0.4104
  729MOL0     C  479   8.076   2.926   3.241 -0.7525 -0.3780 -0.5314
  729MOL0     C  480   7.989   2.912   3.117  0.1517 -0.2449 -0.4622
  729MOL0     N  481   7.846   2.862   3.133 -0.2623 -0.0138  0.2784
  729MOL0     C  482   7.814   2.728   3.156 -0.6591  0.7623 -0.6492
  729MOL0     C  483   7.682   2.722   3.164 -0.8097  0.4954 -0.1681
  729MOL0     C  484   7.608   2.590   3.183  0.0019  0.1126 -0.7103
  729MOL0     C  485   7.527   2.541   3.058  0.4386 -0.2551 -0.7302
  729MOL0     C  486   7.617   2.502   2.940  0.3122  0.3079 -0.0663
  729MOL0     C  487   7.539   2.522   2.813 -0.1163  0.5244  0.7371
  729MOL0     O  488   7.419   2.446   2.818 -0.6639  0.0383  0.3610
  729MOL0     C  489   7.322   2.466   2.724 -0.8573  0.7485  0.6223
  729MOL0     C  490   7.321   2.565   2.624 -0.6521 -0.0845  0.2984
  729MOL0     C  491   7.225   2.582   2.527 -1.0324  0.0012  0.3037
  729MOL0     C  492   7.258   2.702   2.441  0.4278 -0.1950 -1.0152
  729MOL0     C  493   7.110   2.485   2.534 -0.2612 -0.5563 -0.4549
  729MOL0     C  494   6.995   2.484   2.443  0.2392  0.2231 -1.5098
  729MOL0     O  495   6.912   2.382   2.468 -0.8178  0.3713 -0.0793
  729MOL0     C  496   6.795   2.372   2.397  0.6626 -0.7005  0.3509
  729MOL0     C  497   6.766   2.266   2.305  0.1530 -0.2175 -0.1060
  729MOL0     C  498   6.638   2.255   2.250  0.2765  0.6694 -0.7332
  729MOL0     C  499   6.541   2.345   2.287 -0.0644 -0.5141 -0.3756
  729MOL0     O  500   6.415   2.335   2.234 -0.2318 -0.5705  1.3151
  729MOL0     C  501   6.361   2.212   2.180  0.1422 -0.3250 -0.1195
  729MOL0     C  502   6.210   2.218   2.159  0.3010 -0.1770  0.2324
  729MOL0     C  503   6.176   2.320   2.058  0.1515  0.1574  0.0267
  729MOL0     C  504   6.022   2.340   2.044 -0.2229  0.0301  0.0406
  729MOL0     C  505   5.990   2.439   1.940 -0.1314 -0.3595  0.3325
  729MOL0     C  506   5.841   2.464   1.936  1.0059 -0.3855 -0.0611
  729MOL0     C  507   5.806   2.523   1.801  0.1952  0.4375 -1.1222
  729MOL0     C  508   5.656   2.583   1.814 -0.1814 -0.1288 -0.3766
  729MOL0    Cl  509   5.553   2.436   1.817  0.4092  0.4468  0.3594
  729MOL0     C  510   6.575   2.450   2.376  0.2047 -0.0676  0.6741
  729MOL0     C  511   6.702   2.471   2.418 -0.2110  0.0839  0.1327
  729MOL0     O  512   6.973   2.579   2.372  0.0933 -0.2561 -0.2965
  729MOL0     C  513   7.115   2.385   2.632  0.6517  1.0531  0.1200
  729MOL0     C  514   7.218   2.378   2.721  0.0607  0.1582 -0.1500
  729MOL0     N  515   7.628   2.848   3.135 -0.3532 -0.1103  0.2684
  729MOL0     N  516   7.726   2.926   3.107  0.0997  0.4676 -0.6262
  729MOL0     C  517   7.561   3.150   3.847 -0.8594  0.3515 -0.0181
  729MOL0     C  518   7.425   3.141   3.814  0.5050  0.3162 -0.0686
  729MOL0     C  519   7.008   3.176   3.648  0.0677  0.6318 -0.2283
  729MOL0     C  520   7.000   3.097   3.526  0.0921  0.0682 -0.1053
  729MOL0     C  521   6.881   3.066   3.462  0.4260  0.4539  0.3623
  729MOL0     C  522   6.757   3.103   3.514 -0.8634 -1.1521 -0.3111
  729MOL0     O  523   6.646   3.063   3.443  0.5889 -0.8925 -0.0564
  729MOL0     C  524   6.510   3.070   3.503 -1.0597 -0.3593 -0.7758
  729MOL0     C  525   6.403   3.026   3.411  0.2225 -0.1084  0.1118
  729MOL0     C  526   6.267   3.047   3.471  0.5371 -0.0265  0.5533
  729MOL0     C  527   6.153   2.985   3.382 -0.6594 -0.2448 -0.4959
  729MOL0     C  528   6.095   3.066   3.271 -0.0104 -0.5248  0.3288
  729MOL0     C  529   6.046   3.127   3.181 -0.7574  0.3788 -0.2245
  729MOL0     C  530   6.759   3.183   3.633  0.2053 -0.3251  0.7165
  729MOL0     C  531   6.883   3.226   3.696 -0.8446  0.6511 -0.6793
  729MOL0     C  532   6.882   3.310   3.816  1.0780  0.6515 -0.6774
  729MOL0     H  533   7.455   3.228   3.483  2.6717 -0.4040 -0.6156
  729MOL0     H  534   7.691   3.243   3.547 -0.6893 -0.4964 -2.8901
  729MOL0     H  535   7.783   3.016   3.896  0.7430 -0.4132  0.2109
  729MOL0     H  536   7.839   3.165   3.975  0.1242  1.4728 -2.4090
  729MOL0     H  537   8.041   3.170   3.864  0.1938  0.6730  2.3271
  729MOL0     H  538   8.015   3.008   3.939 -2.4349 -2.2173 -1.4537
  729MOL0     H  539   8.126   2.957   3.737 -2.8851 -3.9258  1.4767
  729MOL0     H  540   7.965   2.927   3.689  1.2338 -1.7651 -0.2462
  729MOL0     H  541   7.953   3.149   3.577 -0.0772 -2.5201 -1.7894
  729MOL0     H  542   8.121   3.182   3.629  4.0507 -2.6255  0.5266
  729MOL0     H  543   8.168   2.940   3.515 -0.9188  0.4458  0.9512
  729MOL0     H  544   8.178   3.093   3.431  0.2878  1.0753  0.7076
  729MOL0     H  545   7.935   2.910   3.407 -1.8417  0.9271 -1.1732
  729MOL0     H  546   7.948   3.071   3.345 -0.3974 -0.1316  0.7997
  729MOL0     H  547   8.109   2.824   3.263  0.5028 -0.0152 -0.6386
  729MOL0     H  548   8.162   2.991   3.222 -1.5205  0.4012 -1.3987
  729MOL0     H  549   7.988   3.000   3.053 -0.0961 -1.9108 -2.8901
  729MOL0     H  550   8.050   2.841   3.060 -1.5482 -0.9725 -1.4798
  729MOL0     H  551   7.883   2.645   3.172 -4.7039 -2.9300 -0.6028
  729MOL0     H  552   7.545   2.601   3.272  0.1291 -1.7448 -0.3491
  729MOL0     H  553   7.685   2.516   3.205 -0.6243 -0.2873  0.1972
  729MOL0     H  554   7.456   2.464   3.091  0.2187  1.0520  2.1380
  729MOL0     H  555   7.465   2.624   3.022  0.1335  1.0712  2.4840
  729MOL0     H  556   7.702   2.570   2.926 -0.3513  1.4328  1.0983
  729MOL0     H  557   7.657   2.401   2.944  2.0878  0.9934  0.6272
  729MOL0     H  558   7.510   2.626   2.796 -2.5372 -0.4221 -1.6241
  729MOL0     H  559   7.605   2.485   2.734  1.5355  0.4685  2.0846
  729MOL0     H  560   7.404   2.636   2.623  0.5076 -1.3694  1.3268
  729MOL0     H  561   7.218   2.778   2.509  0.1834 -0.3214 -1.0175
  729MOL0     H  562   7.213   2.688   2.343 -1.5116 -0.4124 -0.1388
  729MOL0     H  563   7.365   2.713   2.422  0.8453  0.1583  1.2451
  729MOL0     H  564   6.840   2.186   2.296 -1.8680 -2.2611  0.5768
  729MOL0     H  565   6.626   2.178   2.174  1.3986  1.4672 -1.7529
  729MOL0     H  566   6.404   2.184   2.084  0.7913 -0.1285  0.1117
  729MOL0     H  567   6.374   2.140   2.262 -3.0170  0.5547  1.3049
  729MOL0     H  568   6.170   2.119   2.134 -0.8957  0.2114  0.5284
  729MOL0     H  569   6.157   2.248   2.250  0.0940 -0.8777  0.3509
  729MOL0     H  570   6.217   2.293   1.961 -3.0605  2.2052 -2.0953
  729MOL0     H  571   6.214   2.414   2.100 -1.7352  2.2535 -2.6439
  729MOL0     H  572   5.973   2.377   2.135 -1.5819 -2.9083  0.6038
  729MOL0     H  573   5.963   2.250   2.025 -1.3192  0.7631 -0.1389
  729MOL0     H  574   6.036   2.533   1.968  1.3032 -0.1744 -2.3410
  729MOL0     H  575   6.029   2.414   1.841  1.8260 -2.4677  1.5518
  729MOL0     H  576   5.816   2.532   2.018  1.3257  1.2220 -1.2363
  729MOL0     H  577   5.790   2.367   1.936 -2.8724  1.4207 -1.8397
  729MOL0     H  578   5.814   2.438   1.733 -3.3525 -0.4446 -0.6621
  729MOL0     H  579   5.879   2.600   1.776  0.4824  0.7085  0.4091
  729MOL0     H  580   5.619   2.652   1.738  1.0724  0.5284 -0.4179
  729MOL0     H  581   5.649   2.633   1.911 -1.8230 -1.8297  0.4518
  729MOL0     H  582   6.502   2.530   2.390  2.6476  2.3912  0.1346
  729MOL0     H  583   6.714   2.556   2.484 -1.3475  0.9221 -0.7087
  729MOL0     H  584   7.046   2.302   2.645  1.7534  0.3526  1.9863
  729MOL0     H  585   7.212   2.282   2.771  1.0830 -0.1632 -0.6250
  729MOL0     H  586   7.589   3.132   3.950  0.0958  0.0384 -0.3244
  729MOL0     H  587   7.365   3.110   3.899 -0.4652  0.3625 -0.7179
  729MOL0     H  588   7.091   3.051   3.490  0.6192 -0.1549  1.4116
  729MOL0     H  589   6.883   2.998   3.378 -3.6114  0.4556  0.0794
  729MOL0     H  590   6.496   3.012   3.594 -1.8718 -1.4494 -1.5707
  729MOL0     H  591   6.502   3.175   3.532  1.2555  0.3389 -2.3615
  729MOL0     H  592   6.415   2.918   3.397  0.3002 -0.1881  0.7465
  729MOL0     H  593   6.419   3.085   3.320  1.1117  0.9061  0.9018
  729MOL0     H  594   6.252   3.018   3.575  0.1842 -2.4224 -0.1059
  729MOL0     H  595   6.239   3.152   3.464 -1.5702 -0.6415 -2.8145
  729MOL0     H  596   6.074   2.960   3.453  1.4052 -0.1378  1.9912
  729MOL0     H  597   6.196   2.894   3.338  0.6064  0.8489 -1.6369
  729MOL0     H  598   6.015   3.170   3.088  0.0985 -0.8887 -1.1383
  729MOL0     H  599   6.666   3.228   3.664  0.9302  1.0583  0.9739
  729MOL0     H  600   6.962   3.383   3.802  0.5237  1.4465  0.1826
  729MOL0     H  601   6.789   3.369   3.820 -0.0248 -1.0608  2.1582
  729MOL0     H  602   6.886   3.258   3.912 -0.3094  1.6205 -0.0518
  730MOL0     O  603   1.672   4.649   3.627 -0.2451 -0.4704  0.2970
  730MOL0     C  604   1.666   4.721   3.728 -0.1830  0.1845 -0.5985
  730MOL0     O  605   1.735   4.834   3.744  0.6962  0.7552  0.8138
  730MOL0     C  606   1.820   4.871   3.647 -1.5631 -0.1423  0.0730
  730MOL0     C  607   1.940   4.795   3.627  0.8352 -0.4043  0.0521
  730MOL0     C  608   2.040   4.844   3.544 -0.0957 -0.2401  0.6237
  730MOL0     C  609   2.032   4.974   3.488 -1.0263  0.3385 -0.0883
  730MOL0     O  610   2.139   5.022   3.412 -0.0126  0.1655 -0.0941
  730MOL0     C  611   2.273   5.013   3.473  0.7112  0.4583 -0.5542
  730MOL0     C  612   2.365   5.115   3.402 -0.0878 -0.5088  0.4723
  730MOL0     C  613   2.508   5.126   3.471  0.0684  0.2034  0.5068
  730MOL0     C  614   2.591   5.205   3.376 -0.1663 -0.2739  0.0255
  730MOL0     C  615   2.719   5.243   3.449 -0.3813 -0.7181 -0.2475
  730MOL0     C  616   2.808   5.338   3.364 -0.3121 -0.2227 -0.8374
  730MOL0     C  617   2.910   5.397   3.469  0.1257  0.0935 -0.4514
  730MOL0     C  618   3.022   5.470   3.410  0.6429  0.4770  0.3966
  730MOL0     N  619   3.107   5.526   3.514 -0.2304 -1.0961  0.8721
  730MOL0     C  620   3.113   5.659   3.558  0.6818  0.1782  0.3921
  730MOL0     C  621   3.213   5.660   3.654  0.6395 -0.5616 -0.0837
  730MOL0     C  622   3.252   5.780   3.742  0.4501 -0.2265  0.3427
  730MOL0     C  623   3.402   5.786   3.793 -0.2544 -0.4560  0.0795
  730MOL0     C  624   3.422   5.897   3.906  0.3268 -0.3087  0.1871
  730MOL0     C  625   3.568   5.902   3.937 -0.3947 -0.9218 -1.1935
  730MOL0     O  626   3.587   5.949   4.073 -0.3982 -0.1177 -1.4374
  730MOL0     C  627   3.709   5.912   4.132  0.1507  0.5156 -0.0816
  730MOL0     C  628   3.710   5.894   4.269  0.3235 -0.1569 -0.8219
  730MOL0     C  629   3.821   5.858   4.343  0.6111 -0.0627  0.4281
  730MOL0     C  630   3.808   5.886   4.490 -0.5475  0.0264  0.0091
  730MOL0     C  631   3.939   5.817   4.273 -0.1706  0.9035 -0.5730
  730MOL0     C  632   4.068   5.780   4.337 -0.4011  0.2708  0.1742
  730MOL0     O  633   4.094   5.824   4.465 -0.0382  0.0847  0.3918
  730MOL0     C  634   4.225   5.806   4.515 -0.2044  0.2556 -0.2983
  730MOL0     C  635   4.243   5.693   4.597  0.0555 -0.2267 -0.3732
  730MOL0     C  636   4.361   5.680   4.675 -0.1831  0.4759  0.0994
  730MOL0     C  637   4.453   5.784   4.674  0.2895 -0.5870  0.1079
  730MOL0     O  638   4.560   5.779   4.755  0.2404  0.4754  0.3510
  730MOL0     C  639   4.659   5.883   4.763  0.2601  0.1752  0.1086
  730MOL0     C  640   4.768   5.819   4.859  0.0186  0.2952  0.0177
  730MOL0     C  641   4.898   5.892   4.840  0.0530 -0.4225  0.1320
  730MOL0     C  642   5.004   5.802   4.910 -0.0290  0.4109 -0.9900
  730MOL0     C  643   5.129   5.877   4.926 -0.7189  0.0650 -0.0054
  730MOL0     C  644   5.248   5.792   4.974  0.6265 -0.1529 -0.1457
  730MOL0     C  645   5.300   5.697   4.866 -0.6531  0.4648  0.4256
  730MOL0     C  646   5.422   5.608   4.920  0.4308  0.2231  0.4213
  730MOL0    Cl  647   5.580   5.709   4.917 -0.1720  0.0779  0.5619
  730MOL0     C  648   4.435   5.898   4.594 -0.2056 -0.3340  0.1478
  730MOL0     C  649   4.320   5.910   4.519  0.3650 -0.6940  0.4076
  730MOL0     O  650   4.148   5.720   4.266  0.6497  0.8033 -0.6065
  730MOL0     C  651   3.937   5.824   4.132  0.4466 -0.9312 -0.4780
  730MOL0     C  652   3.821   5.879   4.065  0.2563  0.0014 -0.7145
  730MOL0     N  653   3.255   5.533   3.669 -0.5807  0.0637 -0.2496
  730MOL0     N  654   3.180   5.451   3.592 -0.6361  0.1148  0.0592
  730MOL0     C  655   1.917   5.053   3.507 -0.2959 -0.8120  0.1216
  730MOL0     C  656   1.812   4.991   3.575  0.0900 -0.2228 -0.6829
  730MOL0     C  657   1.568   4.671   3.833  0.1362  0.6539 -0.3105
  730MOL0     C  658   1.445   4.621   3.778  0.6339 -0.2507  0.6864
  730MOL0     C  659   1.339   4.598   3.865 -1.0397 -0.2846  0.2681
  730MOL0     C  660   1.346   4.607   4.001 -0.0088  0.2053 -0.2704
  730MOL0     O  661   1.249   4.560   4.087 -0.1235 -0.0166  0.0677
  730MOL0     C  662   1.108   4.577   4.047 -0.2259 -0.0389  0.7645
  730MOL0     C  663   1.065   4.714   4.109 -0.6043 -0.4224 -0.5266
  730MOL0     C  664   1.056   4.702   4.264 -0.2382  0.0739  0.2609
  730MOL0     C  665   0.946   4.613   4.308  0.2633  0.9111  0.4808
  730MOL0     C  666   0.849   4.687   4.395  0.3268  0.3592  0.2084
  730MOL0     C  667   0.795   4.744   4.488 -0.2239  0.7368 -0.0579
  730MOL0     C  668   1.468   4.631   4.057 -0.5615  0.5290  0.1395
  730MOL0     C  669   1.580   4.680   3.979  0.5420 -0.2880 -0.8862
  730MOL0     C  670   1.711   4.728   4.049 -0.3599  0.6395  0.3582
  730MOL0     H  671   1.946   4.695   3.667  1.7319 -0.6065 -0.5492
  730MOL0     H  672   2.123   4.784   3.508 -0.3189 -0.1516 -0.0536
  730MOL0     H  673   2.316   4.913   3.469  1.0178  0.3576  2.6297
  730MOL0     H  674   2.264   5.046   3.577  1.0924 -2.0117  0.3121
  730MOL0     H  675   2.377   5.092   3.296  0.2921 -0.2443  0.4589
  730MOL0     H  676   2.311   5.210   3.393  2.5465  0.9877 -0.4727
  730MOL0     H  677   2.494   5.175   3.568 -0.2255 -0.7910  0.9853
  730MOL0     H  678   2.550   5.025   3.481  1.4247  0.5988 -0.7858
  730MOL0     H  679   2.611   5.142   3.289  0.6143 -0.6170  0.4503
  730MOL0     H  680   2.538   5.293   3.337  0.1594  0.2629  0.7588
  730MOL0     H  681   2.785   5.156   3.453 -1.1174 -1.2691  0.3287
  730MOL0     H  682   2.696   5.281   3.549 -0.2251  0.6497 -0.7038
  730MOL0     H  683   2.861   5.295   3.278 -1.1483 -0.6856 -1.1316
  730MOL0     H  684   2.746   5.420   3.328 -2.7648 -0.9154  1.4845
  730MOL0     H  685   2.950   5.316   3.532 -1.8063 -0.3200  0.3136
  730MOL0     H  686   2.854   5.462   3.536  0.3384  1.1247 -1.2650
  730MOL0     H  687   3.079   5.409   3.339  2.4804  1.5229  0.9127
  730MOL0     H  688   2.977   5.547   3.345  0.5057 -1.8366 -2.4602
  730MOL0     H  689   3.059   5.741   3.511  0.9003 -2.6350 -5.7412
  730MOL0     H  690   3.185   5.781   3.829 -3.4925 -1.8614 -2.4166
  730MOL0     H  691   3.228   5.874   3.690  0.9181 -0.9259 -1.1836
  730MOL0     H  692   3.424   5.690   3.840 -0.4280 -0.3784  0.3205
  730MOL0     H  693   3.473   5.798   3.711  0.9883 -0.7113  1.0687
  730MOL0     H  694   3.387   5.993   3.869  0.8332  0.1698  0.9155
  730MOL0     H  695   3.364   5.878   3.997 -0.7375 -4.5042 -1.1391
  730MOL0     H  696   3.603   5.801   3.914 -0.2898 -1.3037  0.5390
  730MOL0     H  697   3.617   5.971   3.868  0.0819  0.1211  0.1533
  730MOL0     H  698   3.621   5.922   4.325  1.0215 -0.0461  0.2606
  730MOL0     H  699   3.873   5.967   4.524 -0.8325 -1.2851  4.1608
  730MOL0     H  700   3.843   5.802   4.551 -0.3634  0.5466  0.6202
  730MOL0     H  701   3.704   5.902   4.520 -0.6320  0.0379 -0.2833
  730MOL0     H  702   4.166   5.617   4.587 -2.9890  2.1096  2.9871
  730MOL0     H  703   4.378   5.586   4.728 -0.4202  0.4464  0.1241
  730MOL0     H  704   4.698   5.918   4.667  0.0618 -0.6984 -0.3073
  730MOL0     H  705   4.626   5.978   4.804  1.0891  0.0875  0.9886
  730MOL0     H  706   4.736   5.823   4.964 -0.4171 -3.4534  0.1516
  730MOL0     H  707   4.785   5.718   4.822  2.6884  1.8366 -3.5904
  730MOL0     H  708   4.896   5.987   4.894 -0.5039 -0.2653 -0.1594
  730MOL0     H  709   4.917   5.906   4.733 -1.3692  3.0255  0.1894
  730MOL0     H  710   5.017   5.711   4.852 -1.3576 -1.0272  0.8562
  730MOL0     H  711   4.972   5.771   5.010 -0.2464  0.1742 -1.1320
  730MOL0     H  712   5.153   5.902   4.822 -3.2718 -1.7768 -1.1196
  730MOL0     H  713   5.108   5.970   4.981  0.3425  0.4798 -0.2740
  730MOL0     H  714   5.216   5.739   5.064  0.7779  0.5772  0.3533
  730MOL0     H  715   5.320   5.871   4.999 -1.1706  1.8600 -0.9175
  730MOL0     H  716   5.330   5.742   4.771  0.5455 -1.1484 -0.0059
  730MOL0     H  717   5.225   5.623   4.836  0.8682 -0.0825 -2.3627
  730MOL0     H  718   5.425   5.516   4.860  0.4878  0.9168 -0.6640
  730MOL0     H  719   5.401   5.578   5.023  0.2365 -2.5082 -0.3308
  730MOL0     H  720   4.498   5.986   4.597 -1.2760  0.4233  1.4140
  730MOL0     H  721   4.317   6.002   4.461  3.0001  2.4169  4.6515
  730MOL0     H  722   4.027   5.804   4.074  1.5553  1.4247  0.2835
  730MOL0     H  723   3.803   5.883   3.958 -1.3041  0.6642 -0.4684
  730MOL0     H  724   1.894   5.146   3.456  2.1551  0.0357  0.4658
  730MOL0     H  725   1.725   5.055   3.577  0.8772  1.2563 -4.4055
  730MOL0     H  726   1.425   4.624   3.671 -0.0433 -0.5260  0.8021
  730MOL0     H  727   1.244   4.568   3.822 -0.0785  0.2793 -2.4588
  730MOL0     H  728   1.087   4.568   3.940  0.6819 -0.5483  0.6193
  730MOL0     H  729   1.048   4.498   4.094  0.0927 -0.1677  0.9528
  730MOL0     H  730   0.976   4.742   4.054 -0.2599 -0.7920 -1.2892
  730MOL0     H  731   1.143   4.791   4.100  0.1241 -0.9749  0.7276
  730MOL0     H  732   1.148   4.673   4.316  1.1674  2.5811 -0.6434
  730MOL0     H  733   1.034   4.807   4.286 -0.6796  1.3025 -4.7219
  730MOL0     H  734   1.006   4.545   4.370 -0.9171  1.0275  1.8008
  730MOL0     H  735   0.888   4.556   4.234 -2.2234  2.4297  1.1271
  730MOL0     H  736   0.724   4.800   4.546 -3.3346 -0.4897 -2.3797
  730MOL0     H  737   1.466   4.618   4.165  0.1021 -1.1528 -0.0278
  730MOL0     H  738   1.737   4.830   4.020  1.8160  0.4534  1.4096
  730MOL0     H  739   1.691   4.708   4.155 -0.0781 -2.6186 -0.1128
  730MOL0     H  740   1.793   4.659   4.028 -1.5882 -0.5510 -0.7056
  731MOL0     O  741   2.615   4.757   7.532  0.3743 -0.1103  0.3470
  731MOL0     C  742   2.549   4.842   7.583 -0.6229 -0.4377  0.4059
  731MOL0     O  743   2.595   4.962   7.621 -0.4465 -0.0938  0.3608
  731MOL0     C  744   2.711   5.001   7.564 -0.6468  0.1219  0.1148
  731MOL0     C  745   2.844   4.946   7.592  0.5999  0.3159  0.1558
  731MOL0     C  746   2.949   5.011   7.535  0.1570 -0.0518  0.3081
  731MOL0     C  747   2.946   5.136   7.468 -1.2107 -0.5101  0.2448
  731MOL0     O  748   3.063   5.195   7.418 -0.2704  0.1698  0.8771
  731MOL0     C  749   3.173   5.214   7.507 -0.1612 -0.4114 -0.2069
  731MOL0     C  750   3.299   5.164   7.436  0.4702 -0.2842  0.0677
  731MOL0     C  751   3.309   5.208   7.288  0.4317 -0.1668  0.3106
  731MOL0     C  752   3.454   5.203   7.238  0.3485  0.4026  0.1310
  731MOL0     C  753   3.459   5.253   7.090 -0.2753  1.1962  0.1624
  731MOL0     C  754   3.590   5.209   7.015  0.3111  0.6575 -0.1877
  731MOL0     C  755   3.582   5.233   6.870  0.0455  0.3941 -0.4516
  731MOL0     C  756   3.623   5.369   6.815  0.2084 -0.2331 -0.0460
  731MOL0     N  757   3.770   5.389   6.807  0.0987  0.1645 -0.3567
  731MOL0     C  758   3.861   5.352   6.709 -0.3284  0.4866  0.6908
  731MOL0     C  759   3.974   5.414   6.759 -0.7333  0.1428  0.6077
  731MOL0     C  760   4.112   5.397   6.702  0.0752  0.3899 -0.0359
  731MOL0     C  761   4.173   5.261   6.756  0.1493 -0.6438  0.7962
  731MOL0     C  762   4.314   5.247   6.701  0.1554  0.0192 -0.2860
  731MOL0     C  763   4.422   5.335   6.760  0.1222 -1.5616  0.4206
  731MOL0     O  764   4.542   5.315   6.682 -0.7151  0.0050  0.4233
  731MOL0     C  765   4.660   5.372   6.724 -1.0444 -0.0234  0.0065
  731MOL0     C  766   4.782   5.329   6.655  0.9456 -0.3526 -0.2338
  731MOL0     C  767   4.909   5.390   6.684  0.5064 -0.6530 -0.2570
  731MOL0     C  768   5.027   5.323   6.627 -0.7644  0.1820  0.8334
  731MOL0     C  769   4.911   5.495   6.784  0.0763  0.1197  0.0560
  731MOL0     C  770   5.037   5.555   6.827 -0.0066  1.0279  0.3830
  731MOL0     O  771   5.133   5.578   6.736  0.1435  0.4172  0.1180
  731MOL0     C  772   5.250   5.627   6.783  0.0086  0.2468  0.4840
  731MOL0     C  773   5.362   5.549   6.804  0.5442  0.9013 -0.0688
  731MOL0     C  774   5.479   5.600   6.856  0.1698 -0.5169 -0.0619
  731MOL0     C  775   5.489   5.736   6.882 -0.7663 -0.0493  0.1171
  731MOL0     O  776   5.610   5.777   6.937 -0.0487  0.0472  0.1869
  731MOL0     C  777   5.640   5.914   6.952  0.5798  0.1054 -0.2847
  731MOL0     C  778   5.780   5.939   6.911 -0.0064  0.2499  0.0935
  731MOL0     C  779   5.881   5.886   7.010 -0.9554 -0.4820 -0.7612
  731MOL0     C  780   5.897   5.734   7.006  0.4280 -0.1324  0.3915
  731MOL0     C  781   6.027   5.702   7.089 -0.4447  0.2642 -0.3940
  731MOL0     C  782   6.077   5.572   7.036 -0.1974 -0.4609  0.0549
  731MOL0     C  783   6.221   5.550   7.074  0.0965  0.5498  0.3256
  731MOL0     C  784   6.285   5.440   6.990 -1.0255  0.3283  1.8896
  731MOL0    Cl  785   6.303   5.508   6.825 -0.5954 -0.2847  0.5459
  731MOL0     C  786   5.377   5.821   6.853 -0.9343  0.2833  0.5228
  731MOL0     C  787   5.258   5.766   6.804 -0.0706 -0.4187 -0.5523
  731MOL0     O  788   5.038   5.583   6.945 -0.1546  0.1155 -0.3012
  731MOL0     C  789   4.784   5.537   6.843 -0.1500 -0.7842  0.3634
  731MOL0     C  790   4.659   5.479   6.815  0.2518  0.3868  0.5013
  731MOL0     N  791   3.945   5.480   6.877  0.5503 -0.4197  0.1341
  731MOL0     N  792   3.823   5.453   6.911  0.5934 -0.3605  0.3142
  731MOL0     C  793   2.819   5.182   7.441 -0.1454  0.5092 -0.2302
  731MOL0     C  794   2.703   5.122   7.488 -0.2285  0.0201 -0.7321
  731MOL0     C  795   2.411   4.816   7.593  0.4256  0.5141 -0.2427
  731MOL0     C  796   2.367   4.610   7.591 -0.1881  0.7604 -0.8462
  731MOL0     C  797   2.171   4.544   7.623 -0.1155 -0.1226  0.0174
  731MOL0     C  798   2.012   4.683   7.661 -0.4609 -0.0719 -0.2643
  731MOL0     O  799   1.889   4.620   7.677  0.2084 -0.1012  0.1994
  731MOL0     C  800   1.794   4.719   7.716 -0.2734  0.8824 -0.2253
  731MOL0     C  801   1.655   4.657   7.696  0.2310 -0.6382  0.3266
  731MOL0     C  802   1.539   4.751   7.666  0.5326  0.6114  0.5411
  731MOL0     C  803   1.545   4.866   7.766 -0.5877  0.0297 -0.1205
  731MOL0     C  804   1.416   4.943   7.756 -0.3947  0.3513  0.2736
  731MOL0     C  805   1.312   5.010   7.750  0.2758 -0.4054 -0.0196
  731MOL0     C  806   2.059   4.891   7.664 -0.0306  0.1689 -0.6360
  731MOL0     C  807   2.255   4.959   7.628 -0.5495 -1.0136  0.5425
  731MOL0     C  808   2.279   5.106   7.638 -0.3767 -0.0683  0.3032
  731MOL0     H  809   2.851   4.857   7.653  1.0007  0.0046 -0.3454
  731MOL0     H  810   3.042   4.955   7.543  0.6902  0.8363  0.4409
  731MOL0     H  811   3.147   5.172   7.605 -2.9276  3.5910  1.0310
  731MOL0     H  812   3.198   5.318   7.526  0.0698 -0.7786  1.7992
  731MOL0     H  813   3.384   5.204   7.492  0.4179 -1.2475  0.8478
  731MOL0     H  814   3.294   5.055   7.436 -2.1474 -0.2888  2.9410
  731MOL0     H  815   3.244   5.146   7.224 -1.2476  2.4500 -0.6898
  731MOL0     H  816   3.267   5.309   7.283 -3.7777 -1.6900  0.4782
  731MOL0     H  817   3.525   5.265   7.294  2.3526  0.4872 -2.3229
  731MOL0     H  818   3.495   5.102   7.236 -0.3634  0.1146 -1.6843
  731MOL0     H  819   3.456   5.362   7.097  3.0570  1.3866 -0.0593
  731MOL0     H  820   3.376   5.215   7.030  1.1397 -0.2012 -1.0188
  731MOL0     H  821   3.672   5.274   7.049 -1.6859  1.5995  3.3071
  731MOL0     H  822   3.619   5.106   7.034 -2.9350 -0.1561  0.9726
  731MOL0     H  823   3.479   5.213   6.840  0.4577 -0.8808 -1.1132
  731MOL0     H  824   3.653   5.166   6.821  0.2654 -1.2264  1.9417
  731MOL0     H  825   3.583   5.392   6.716  0.4196  1.5747  0.2456
  731MOL0     H  826   3.587   5.446   6.884  1.2158  0.3743 -0.1743
  731MOL0     H  827   3.852   5.288   6.622  2.1626  2.7652 -1.4372
  731MOL0     H  828   4.174   5.483   6.728 -2.0753  2.4956 -1.4920
  731MOL0     H  829   4.109   5.400   6.593 -0.1687 -0.6098 -0.0648
  731MOL0     H  830   4.165   5.272   6.865  0.7943 -2.2032  1.0231
  731MOL0     H  831   4.121   5.172   6.720 -0.0833  0.3997 -1.5910
  731MOL0     H  832   4.348   5.143   6.715  1.6269  0.0948 -2.6196
  731MOL0     H  833   4.305   5.266   6.594 -5.1601  2.1417  0.2674
  731MOL0     H  834   4.385   5.438   6.757  0.1423 -1.5342  1.0690
  731MOL0     H  835   4.436   5.310   6.865  0.6507 -1.3058  0.4142
  731MOL0     H  836   4.783   5.245   6.586  1.7180  0.4387 -1.2216
  731MOL0     H  837   5.087   5.274   6.704  1.2939  2.9352  1.1664
  731MOL0     H  838   5.096   5.387   6.570  1.8984 -2.8914  0.3309
  731MOL0     H  839   5.000   5.248   6.552  1.2200 -0.0597  0.2949
  731MOL0     H  840   5.354   5.444   6.778 -3.1399  1.1230 -0.2892
  731MOL0     H  841   5.559   5.529   6.872 -0.8721 -2.4903 -2.7083
  731MOL0     H  842   5.581   5.977   6.885 -0.2381  2.3676  2.4138
  731MOL0     H  843   5.616   5.947   7.053  0.9053 -2.0859  0.5583
  731MOL0     H  844   5.792   5.898   6.810 -0.0803  1.6500 -0.5139
  731MOL0     H  845   5.806   6.044   6.925  2.2296 -0.3453  0.7848
  731MOL0     H  846   5.848   5.914   7.111  2.3056  1.8650 -0.1705
  731MOL0     H  847   5.976   5.940   7.001 -0.9368 -0.0215  1.4673
  731MOL0     H  848   5.906   5.706   6.901 -0.4739 -1.9533  0.7606
  731MOL0     H  849   5.813   5.672   7.040  0.7177 -1.1399 -0.6801
  731MOL0     H  850   6.107   5.773   7.066 -0.2114  0.5754  1.2941
  731MOL0     H  851   6.007   5.698   7.196  1.4362 -2.0269 -0.0353
  731MOL0     H  852   6.073   5.573   6.927  3.3059 -2.2031 -0.2215
  731MOL0     H  853   5.995   5.507   7.069  0.9331 -1.2980  1.3321
  731MOL0     H  854   6.221   5.533   7.182 -0.9521  1.1887  0.4395
  731MOL0     H  855   6.279   5.638   7.048  1.0468 -0.2810 -0.4364
  731MOL0     H  856   6.226   5.349   6.978  1.3933 -1.0491 -0.9150
  731MOL0     H  857   6.384   5.424   7.034  1.4851  1.3787 -2.7176
  731MOL0     H  858   5.398   5.926   6.871  0.9598 -0.1032  0.8068
  731MOL0     H  859   5.168   5.827   6.804 -0.2499 -0.6128  1.3128
  731MOL0     H  860   4.797   5.622   6.909  0.5802  0.5132 -1.3770
  731MOL0     H  861   4.568   5.525   6.851 -2.0169  1.1111 -5.0515
  731MOL0     H  862   2.819   5.269   7.376  0.5779  0.6921  0.0042
  731MOL0     H  863   2.609   5.171   7.463  0.4114  1.4045 -0.4915
  731MOL0     H  864   2.444   4.537   7.567 -0.1485  1.3429 -2.7151
  731MOL0     H  865   2.131   4.443   7.617  1.8248 -0.9782  0.7191
  731MOL0     H  866   1.815   4.750   7.819  0.6722 -0.7330  0.1074
  731MOL0     H  867   1.792   4.808   7.652  2.9439  0.8318 -0.5461
  731MOL0     H  868   1.629   4.627   7.798  2.8718 -0.8653  1.0136
  731MOL0     H  869   1.657   4.580   7.619 -0.9485 -1.1336  0.7657
  731MOL0     H  870   1.558   4.780   7.562 -0.3286 -2.1067 -0.4797
  731MOL0     H  871   1.441   4.701   7.674 -0.2841  1.8386 -1.1301
  731MOL0     H  872   1.623   4.938   7.739 -2.0757  1.7674  0.0430
  731MOL0     H  873   1.560   4.830   7.869  0.0790  1.1268  0.1806
  731MOL0     H  874   1.230   5.079   7.755  0.8019  0.2631 -0.3603
  731MOL0     H  875   1.979   4.964   7.677 -0.0726  0.1044 -0.5311
  731MOL0     H  876   2.231   5.156   7.722 -0.9988 -1.5282  0.8545
  731MOL0     H  877   2.385   5.123   7.662 -0.5328  0.7923  0.3943
  731MOL0     H  878   2.253   5.157   7.546  0.7490 -0.5206 -0.2856
  732MOL0     O  879   1.285   0.125   7.985 -0.2886  0.1774 -0.5502
  732MOL0     C  880   1.337   0.220   7.928  0.2118  1.0386 -0.1732
  732MOL0     O  881   1.467   0.231   7.910 -0.0935  0.5934  0.4441
  732MOL0     C  882   1.560   0.130   7.930 -0.3178 -0.1718 -1.3214
  732MOL0     C  883   1.546   0.004   7.875  0.1167  0.7335 -0.4280
  732MOL0     C  884   1.640  -0.092   7.900  0.3327  0.3416  0.7160
  732MOL0     C  885   1.752  -0.065   7.979  0.3022  0.2480  0.5981
  732MOL0     O  886   1.843  -0.162   8.024 -0.3215 -0.4221  0.3496
  732MOL0     C  887   1.892  -0.254   7.923  0.4315 -0.5729 -0.3629
  732MOL0     C  888   2.044  -0.278   7.936 -0.4675  0.7052 -0.1937
  732MOL0     C  889   2.106  -0.403   7.877 -0.0725  0.6771  0.3045
  732MOL0     C  890   2.126  -0.517   7.983 -0.0264 -0.5220 -0.4954
  732MOL0     C  891   2.166  -0.651   7.922  0.2023  0.0218  0.3067
  732MOL0     C  892   2.192  -0.774   8.008  0.2118  0.5968  0.0337
  732MOL0     C  893   2.195  -0.902   7.929  0.4096  0.5329 -0.3668
  732MOL0     C  894   2.052  -0.949   7.905 -0.1589  0.0012 -0.9745
  732MOL0     N  895   1.999  -0.909   7.769 -0.4089 -0.3810 -0.7045
  732MOL0     C  896   1.863  -0.896   7.759 -0.2917  0.6237  0.5146
  732MOL0     C  897   1.842  -0.829   7.644 -0.0956 -0.2363 -0.4896
  732MOL0     C  898   1.715  -0.757   7.603  0.3459 -0.0848 -0.1346
  732MOL0     C  899   1.694  -0.628   7.687  0.3167  0.9405  0.7767
  732MOL0     C  900   1.818  -0.543   7.680 -0.5280  0.2628 -0.4507
  732MOL0     C  901   1.842  -0.494   7.540 -0.1070  0.1529  0.0912
  732MOL0     O  902   1.868  -0.355   7.520  0.6775  0.6695 -0.8922
  732MOL0     C  903   1.998  -0.299   7.541  0.3051  0.2036 -0.6330
  732MOL0     C  904   2.019  -0.160   7.572  0.2237  0.7329 -0.0953
  732MOL0     C  905   2.143  -0.112   7.619  0.3446  1.1939  0.0613
  732MOL0     C  906   2.131   0.029   7.685 -0.7244 -0.0671 -0.4497
  732MOL0     C  907   2.261  -0.190   7.618  0.5188 -0.5141  1.1573
  732MOL0     C  908   2.390  -0.159   7.687 -0.1932 -0.4833  1.3359
  732MOL0     O  909   2.498  -0.243   7.658  0.0172 -0.1433  0.2185
  732MOL0     C  910   2.629  -0.204   7.686  0.3347 -0.0921  0.4431
  732MOL0     C  911   2.712  -0.312   7.717 -0.8613  0.4124  0.3963
  732MOL0     C  912   2.847  -0.282   7.747  0.1322 -0.2226  0.3018
  732MOL0     C  913   2.896  -0.152   7.750 -0.4076  0.0352  0.1737
  732MOL0     O  914   3.020  -0.150   7.778 -0.0518 -0.2622 -0.8221
  732MOL0     C  915   3.080  -0.021   7.738  0.1469  0.2393 -0.7877
  732MOL0     C  916   3.230  -0.028   7.738  0.6569 -0.6099 -0.0785
  732MOL0     C  917   3.278   0.109   7.688  0.1842 -0.4688  0.0081
  732MOL0     C  918   3.431   0.119   7.686 -0.3776 -0.4857  0.7809
  732MOL0     C  919   3.477   0.251   7.613  0.1294  0.4252 -0.3968
  732MOL0     C  920   3.413   0.379   7.677  0.2327 -0.6481  0.4710
  732MOL0     C  921   3.468   0.503   7.611  0.2755 -0.7998  0.4628
  732MOL0     C  922   3.360   0.622   7.603 -0.6446  0.0814  1.0089
  732MOL0    Cl  923   3.366   0.742   7.732  0.0320  0.6789  0.0256
  732MOL0     C  924   2.811  -0.047   7.724 -0.3917  0.3001 -0.8152
  732MOL0     C  925   2.680  -0.074   7.690  0.4629 -0.1362 -0.2118
  732MOL0     O  926   2.386  -0.067   7.770 -0.4897 -0.2475  0.0539
  732MOL0     C  927   2.242  -0.323   7.565 -0.0583  0.0728 -0.2481
  732MOL0     C  928   2.118  -0.376   7.536  1.0225 -0.3271  0.4483
  732MOL0     N  929   1.967  -0.804   7.587  0.3722 -0.8045 -0.5825
  732MOL0     N  930   2.058  -0.860   7.657  0.2733 -0.0458 -0.6393
  732MOL0     C  931   1.768   0.068   8.034  0.3551  0.6313 -0.4984
  732MOL0     C  932   1.669   0.161   8.011 -0.2606 -0.7222  0.4947
  732MOL0     C  933   1.252   0.330   7.874  0.6947 -0.5249 -1.1896
  732MOL0     C  934   1.319   0.455   7.863  0.5009 -0.0121  0.1738
  732MOL0     C  935   1.248   0.560   7.819 -0.3727 -0.3892 -1.1734
  732MOL0     C  936   1.116   0.549   7.781 -0.6816 -0.0818  0.4049
  732MOL0     O  937   1.055   0.668   7.741 -0.2288  0.4491  0.1817
  732MOL0     C  938   0.911   0.676   7.760  0.2196 -0.2546 -0.7895
  732MOL0     C  939   0.839   0.631   7.631 -1.0300  0.5046  0.4051
  732MOL0     C  940   0.712   0.701   7.610  0.5161 -0.1109  0.3976
  732MOL0     C  941   0.653   0.656   7.477  0.3932 -0.0118  0.3882
  732MOL0     C  942   0.527   0.735   7.448 -0.2981 -0.2844 -0.2072
  732MOL0     C  943   0.436   0.803   7.419 -0.0274 -0.3181  0.3588
  732MOL0     C  944   1.059   0.422   7.776 -0.2850 -0.7342 -0.0386
  732MOL0     C  945   1.125   0.309   7.820 -0.5082 -0.3891 -0.4125
  732MOL0     C  946   1.058   0.173   7.808 -0.0620  0.7838 -0.0673
  732MOL0     H  947   1.459  -0.016   7.813  0.5391 -2.1771 -0.2032
  732MOL0     H  948   1.635  -0.186   7.845  0.5443 -0.2691  1.7245
  732MOL0     H  949   1.872  -0.225   7.820 -0.1285  1.3229  0.2283
  732MOL0     H  950   1.843  -0.349   7.944  0.7619 -0.8297 -0.7557
  732MOL0     H  951   2.103  -0.195   7.896  3.0819 -1.2325  0.5402
  732MOL0     H  952   2.076  -0.299   8.039 -0.2020 -1.8779 -0.7237
  732MOL0     H  953   2.051  -0.440   7.790  3.0393 -0.8730 -1.1415
  732MOL0     H  954   2.204  -0.375   7.837  0.3333 -1.3247 -0.2202
  732MOL0     H  955   2.206  -0.491   8.052  0.1205 -0.5225 -0.6656
  732MOL0     H  956   2.031  -0.516   8.039 -0.3437  0.5914 -1.0229
  732MOL0     H  957   2.265  -0.622   7.885  0.0508  2.0012  1.2886
  732MOL0     H  958   2.098  -0.679   7.840 -1.0241 -2.1547  1.9730
  732MOL0     H  959   2.291  -0.771   8.056 -0.4213  0.7402  1.3723
  732MOL0     H  960   2.117  -0.780   8.087  0.6188 -0.0722  0.3710
  732MOL0     H  961   2.249  -0.980   7.985  0.8983  0.4507 -0.9438
  732MOL0     H  962   2.238  -0.897   7.828 -1.2796  0.6279 -1.1181
  732MOL0     H  963   2.053  -1.058   7.898  2.4547  0.0808 -3.7886
  732MOL0     H  964   1.981  -0.915   7.980 -2.8716 -1.6667 -2.6041
  732MOL0     H  965   1.787  -0.918   7.833  1.0463 -1.5651  1.3301
  732MOL0     H  966   1.641  -0.831   7.635  4.1686 -3.6244  1.3621
  732MOL0     H  967   1.713  -0.734   7.496 -0.3439 -4.2777 -1.1999
  732MOL0     H  968   1.604  -0.585   7.642 -2.0117 -1.4824  2.8643
  732MOL0     H  969   1.666  -0.659   7.788  1.4803 -0.1057  0.8034
  732MOL0     H  970   1.779  -0.456   7.734  1.3042  2.2060 -2.1045
  732MOL0     H  971   1.898  -0.586   7.741 -2.8201  0.0254  2.6761
  732MOL0     H  972   1.925  -0.553   7.501 -0.0644 -0.1361  0.6003
  732MOL0     H  973   1.757  -0.517   7.475  1.4826 -1.7718 -1.4138
  732MOL0     H  974   1.928  -0.100   7.579 -0.1309  0.1928 -0.0374
  732MOL0     H  975   2.044   0.087   7.653 -1.7444 -1.4657 -0.2742
  732MOL0     H  976   2.216   0.090   7.654 -1.5185  0.2803 -2.0362
  732MOL0     H  977   2.136   0.034   7.794  0.0402  2.8492 -0.5294
  732MOL0     H  978   2.669  -0.411   7.713 -0.3402  0.1583  0.8673
  732MOL0     H  979   2.911  -0.367   7.770  0.2106  0.0253  1.0410
  732MOL0     H  980   3.041   0.009   7.640 -1.4872 -1.9067 -0.8730
  732MOL0     H  981   3.058   0.053   7.815 -0.1138 -0.4185 -0.2166
  732MOL0     H  982   3.268  -0.039   7.840  1.1712  2.6313  0.1670
  732MOL0     H  983   3.256  -0.112   7.673  0.3676 -0.4056 -0.4640
  732MOL0     H  984   3.231   0.188   7.748 -2.7350 -0.9609 -1.4560
  732MOL0     H  985   3.249   0.130   7.585  0.1308  0.2290  0.1567
  732MOL0     H  986   3.472   0.029   7.638 -2.3283 -0.6268 -0.7254
  732MOL0     H  987   3.468   0.128   7.789  3.7178 -0.7586 -0.4981
  732MOL0     H  988   3.586   0.260   7.603 -0.0451  1.1321 -1.9364
  732MOL0     H  989   3.438   0.245   7.511  1.2287 -1.9977 -0.7576
  732MOL0     H  990   3.438   0.382   7.784  0.4344  0.0748  0.4088
  732MOL0     H  991   3.304   0.384   7.673  0.0545 -2.3683  1.7978
  732MOL0     H  992   3.515   0.492   7.513  1.0970 -3.6772  1.0935
  732MOL0     H  993   3.543   0.552   7.674  1.5414  0.0463 -1.6002
  732MOL0     H  994   3.256   0.587   7.597  0.0452 -2.0401  0.4433
  732MOL0     H  995   3.394   0.670   7.510  1.4905 -3.3692 -0.2159
  732MOL0     H  996   2.862   0.049   7.725 -0.8822  0.6054 -2.5639
  732MOL0     H  997   2.618   0.007   7.654  1.4224  0.7894  0.1724
  732MOL0     H  998   2.326  -0.391   7.576 -0.2679 -0.0648  0.6548
  732MOL0     H  999   2.116  -0.483   7.516  0.0720 -0.0822 -0.8817
  732MOL0     H 1000   1.857   0.090   8.092 -0.7140  1.6858  0.8072
  732MOL0     H 1001   1.675   0.260   8.055  0.9238  0.4054 -1.9674
  732MOL0     H 1002   1.423   0.465   7.893  0.3865 -2.5436  1.6944
  732MOL0     H 1003   1.293   0.658   7.814 -0.8090 -0.1118  0.0973
  732MOL0     H 1004   0.874   0.616   7.844  0.0027 -1.0288 -1.4204
  732MOL0     H 1005   0.886   0.776   7.795  2.4547 -0.2235  0.8907
  732MOL0     H 1006   0.822   0.523   7.626  0.5058  0.3290 -2.3716
  732MOL0     H 1007   0.903   0.656   7.546 -3.7922  2.1119 -1.3758
  732MOL0     H 1008   0.646   0.664   7.690 -0.0564 -0.4975 -0.2404
  732MOL0     H 1009   0.718   0.810   7.605 -0.8538 -0.0674 -1.3499
  732MOL0     H 1010   0.633   0.548   7.478 -0.2331  0.0985  1.0316
  732MOL0     H 1011   0.716   0.677   7.391 -0.2381 -1.0335 -0.3401
  732MOL0     H 1012   0.350   0.862   7.394  0.6092  0.6705  0.4799
  732MOL0     H 1013   0.954   0.406   7.754 -0.7592 -1.5136  2.5060
  732MOL0     H 1014   1.008   0.137   7.898 -1.8430 -0.2673 -1.3920
  732MOL0     H 1015   0.981   0.174   7.729 -0.9479 -1.6473  0.6628
  732MOL0     H 1016   1.136   0.097   7.793 -0.7551 -0.2555  1.3555
  733MOL0     O 1017   9.519   5.795   5.468 -0.4137 -0.1518 -0.2121
  733MOL0     C 1018   9.467   5.725   5.380  0.6094  0.5702 -0.7735
  733MOL0     O 1019   9.543   5.638   5.309 -0.2336 -0.5817 -0.0049
  733MOL0     C 1020   9.687   5.631   5.337  0.3730 -0.5919 -0.7084
  733MOL0     C 1021   9.782   5.689   5.248  0.5009  0.5371  0.3950
  733MOL0     C 1022   9.918   5.674   5.264 -0.3196  0.1834  0.1403
  733MOL0     C 1023   9.960   5.628   5.391 -0.6608 -0.8681 -0.1588
  733MOL0     O 1024  10.090   5.631   5.433  0.3413 -0.1879  0.4212
  733MOL0     C 1025  10.113   5.681   5.567  0.3786 -0.7367  0.4967
  733MOL0     C 1026  10.256   5.718   5.590 -0.1056 -0.7931  0.4868
  733MOL0     C 1027  10.287   5.725   5.747  0.1345  0.5081  0.2258
  733MOL0     C 1028  10.426   5.716   5.786 -0.9548 -1.1012 -0.4312
  733MOL0     C 1029  10.442   5.781   5.924  0.1970 -0.3519  0.4245
  733MOL0     C 1030  10.473   5.933   5.921 -0.6335  0.2393 -0.1407
  733MOL0     C 1031  10.619   5.973   5.889  0.2409  1.1421  0.1688
  733MOL0     C 1032  10.626   6.114   5.933  0.5579 -0.3873 -0.2357
  733MOL0     N 1033  10.746   6.187   5.877  0.3854  0.6095 -0.3841
  733MOL0     C 1034  10.874   6.191   5.926 -0.4848  0.7548  0.8535
  733MOL0     C 1035  10.943   6.291   5.859 -0.1036  0.5401  0.5649
  733MOL0     C 1036  11.085   6.332   5.861  0.4609  0.6443  0.2283
  733MOL0     C 1037  11.101   6.430   5.975  0.0303 -0.4501 -1.0966
  733MOL0     C 1038  11.242   6.506   5.966 -0.1800 -0.5098  0.0437
  733MOL0     C 1039  11.280   6.578   6.096  0.2978 -0.4692 -0.1208
  733MOL0     O 1040  11.359   6.694   6.071  0.0417  0.7147  0.0662
  733MOL0     C 1041  11.491   6.685   6.105  0.4011 -0.0200 -0.5002
  733MOL0     C 1042  11.550   6.806   6.123 -0.5334  0.1308  0.2822
  733MOL0     C 1043  11.688   6.816   6.142  0.3284 -0.1157 -0.0915
  733MOL0     C 1044  11.742   6.949   6.185  0.4094 -1.0067  0.0897
  733MOL0     C 1045  11.768   6.700   6.150  0.3828 -0.8190 -0.4745
  733MOL0     C 1046  11.913   6.691   6.178  0.2152  0.4658 -0.0490
  733MOL0     O 1047  11.994   6.795   6.139 -0.1313  0.2870 -0.0740
  733MOL0     C 1048  12.133   6.797   6.157 -0.1966  0.4044 -0.0138
  733MOL0     C 1049  12.195   6.875   6.256 -0.2414 -1.1014  0.8032
  733MOL0     C 1050  12.330   6.843   6.298  0.1743 -0.1897  0.3938
  733MOL0     C 1051  12.397   6.744   6.237 -0.2073  0.2736  0.7765
  733MOL0     O 1052  12.527   6.715   6.282  0.4192  0.2576 -0.1715
  733MOL0     C 1053  12.628   6.715   6.187  0.0546 -0.3819 -1.4365
  733MOL0     C 1054  12.756   6.790   6.239  0.1995 -0.2961  0.3755
  733MOL0     C 1055  12.840   6.689   6.310  0.2565 -0.0394 -0.2466
  733MOL0     C 1056  12.975   6.751   6.352 -0.3228 -0.7275 -0.2130
  733MOL0     C 1057  13.063   6.646   6.412  0.6849 -0.8487 -0.0173
  733MOL0     C 1058  13.130   6.560   6.294  0.4213 -0.0361 -0.3918
  733MOL0     C 1059  13.234   6.467   6.354 -0.0948  0.6139 -0.3165
  733MOL0     C 1060  13.317   6.378   6.261  0.0717  0.0177 -0.7561
  733MOL0    Cl 1061  13.199   6.273   6.172  0.0636 -0.2343  0.3658
  733MOL0     C 1062  12.338   6.679   6.128 -0.5452  0.1930  0.3595
  733MOL0     C 1063  12.205   6.699   6.091  1.1879 -0.2387  0.3458
  733MOL0     O 1064  11.952   6.608   6.257 -0.4379  0.1562 -0.1821
  733MOL0     C 1065  11.712   6.577   6.108 -0.0178 -0.7122  0.2168
  733MOL0     C 1066  11.572   6.575   6.095  0.5889  0.3688  0.1436
  733MOL0     N 1067  10.852   6.346   5.765  0.4827  0.5281  0.3873
  733MOL0     N 1068  10.736   6.278   5.779 -0.0552  0.0147  0.4342
  733MOL0     C 1069   9.862   5.578   5.481  0.7609  0.0657 -0.1753
  733MOL0     C 1070   9.728   5.572   5.452 -0.8449  0.1251 -0.1376
  733MOL0     C 1071   9.325   5.731   5.355 -0.2182  0.3315  0.6637
  733MOL0     C 1072   9.242   5.828   5.413  0.5727 -0.4523  0.4388
  733MOL0     C 1073   9.102   5.833   5.397  0.0926 -0.0232  0.2345
  733MOL0     C 1074   9.044   5.745   5.316  0.9239 -0.7770  0.2791
  733MOL0     O 1075   8.914   5.778   5.278  0.6906 -0.2647 -0.2413
  733MOL0     C 1076   8.816   5.690   5.217 -0.0926 -0.4478 -0.4526
  733MOL0     C 1077   8.767   5.578   5.305  0.4069  0.3155  0.8187
  733MOL0     C 1078   8.714   5.616   5.444  0.2313 -0.3448  0.3543
  733MOL0     C 1079   8.817   5.637   5.550  0.1848  0.0540  0.0085
  733MOL0     C 1080   8.873   5.504   5.595  0.0549  0.5612 -0.8592
  733MOL0     C 1081   8.918   5.397   5.618  0.3691 -0.2140 -0.4357
  733MOL0     C 1082   9.116   5.637   5.268  0.2854 -0.8491  0.9154
  733MOL0     C 1083   9.259   5.636   5.270  0.3543 -0.6502 -0.3716
  733MOL0     C 1084   9.322   5.519   5.193 -0.0754  0.0893  0.6786
  733MOL0     H 1085   9.750   5.722   5.150 -0.3916 -1.7822 -0.1695
  733MOL0     H 1086   9.978   5.726   5.190  0.7127 -4.6775 -2.8924
  733MOL0     H 1087  10.092   5.589   5.622 -0.6408  0.1823  1.6970
  733MOL0     H 1088  10.044   5.757   5.604  1.8137  2.0825 -2.1473
  733MOL0     H 1089  10.321   5.641   5.546  1.5681 -1.6861  4.0927
  733MOL0     H 1090  10.270   5.815   5.542  0.8547 -0.2391  1.8262
  733MOL0     H 1091  10.237   5.816   5.781  2.2335  0.7885  2.8349
  733MOL0     H 1092  10.236   5.651   5.810  0.0747 -0.6745 -1.1530
  733MOL0     H 1093  10.455   5.610   5.787  2.2399 -0.3342  0.1345
  733MOL0     H 1094  10.497   5.757   5.714 -0.2676  0.0288  0.8460
  733MOL0     H 1095  10.526   5.748   5.986  0.4500  1.2050  0.9538
  733MOL0     H 1096  10.353   5.757   5.982 -1.7276  1.5371 -1.5363
  733MOL0     H 1097  10.403   5.976   5.848 -0.1422 -1.2419 -1.5389
  733MOL0     H 1098  10.444   5.974   6.018  3.8254  0.0267  1.5037
  733MOL0     H 1099  10.637   5.974   5.781 -1.4585  0.7230 -0.1539
  733MOL0     H 1100  10.690   5.910   5.943  1.4287  1.9532 -0.4007
  733MOL0     H 1101  10.535   6.168   5.908  0.6988  0.3947  0.8946
  733MOL0     H 1102  10.632   6.110   6.042 -1.0245  1.1507 -0.0483
  733MOL0     H 1103  10.920   6.123   5.997 -0.0322 -0.6414 -0.6984
  733MOL0     H 1104  11.112   6.373   5.763  0.1991  0.6766  0.1692
  733MOL0     H 1105  11.159   6.255   5.883  0.7693  0.8489 -0.0823
  733MOL0     H 1106  11.023   6.506   5.968  0.2290 -0.3472 -2.5592
  733MOL0     H 1107  11.088   6.387   6.074 -2.7025 -0.7302 -1.5018
  733MOL0     H 1108  11.317   6.431   5.941  1.4332  1.0044  0.1914
  733MOL0     H 1109  11.232   6.573   5.880  0.6963  0.1813  0.4664
  733MOL0     H 1110  11.187   6.611   6.142  0.5318 -2.3149  1.8166
  733MOL0     H 1111  11.331   6.509   6.164 -0.2186 -0.1972  0.5515
  733MOL0     H 1112  11.487   6.894   6.132  2.2261  2.2631  0.0776
  733MOL0     H 1113  11.829   6.949   6.251 -0.5775 -2.6986  1.4710
  733MOL0     H 1114  11.667   7.018   6.225 -1.0919 -1.3439 -1.9740
  733MOL0     H 1115  11.775   6.987   6.088 -0.4903 -2.5838 -0.8781
  733MOL0     H 1116  12.127   6.949   6.296 -3.1068 -2.6719 -0.8586
  733MOL0     H 1117  12.376   6.897   6.380  1.8691 -1.4092  0.2787
  733MOL0     H 1118  12.646   6.611   6.158  0.5039 -0.7380  0.0374
  733MOL0     H 1119  12.592   6.771   6.100 -0.1439  1.0539 -0.4571
  733MOL0     H 1120  12.807   6.832   6.152  0.2808 -0.5905  0.2762
  733MOL0     H 1121  12.728   6.872   6.305  0.9292  0.3405 -0.0924
  733MOL0     H 1122  12.861   6.606   6.241 -2.5353 -0.9563 -0.1275
  733MOL0     H 1123  12.780   6.662   6.398  0.0122  0.5020 -0.2402
  733MOL0     H 1124  12.971   6.834   6.424 -2.5441  0.0803 -1.1787
  733MOL0     H 1125  13.019   6.792   6.261  3.0821 -2.9106  0.2810
  733MOL0     H 1126  13.140   6.692   6.474 -0.4421  0.4849  0.4454
  733MOL0     H 1127  13.002   6.594   6.486  0.8701 -0.9426  0.0691
  733MOL0     H 1128  13.177   6.625   6.219  0.3324  2.0587  1.2647
  733MOL0     H 1129  13.052   6.501   6.245 -1.4586  0.0660  2.2844
  733MOL0     H 1130  13.186   6.400   6.426  3.8427  1.3218  3.3605
  733MOL0     H 1131  13.306   6.527   6.410  1.4462 -1.6743  0.3135
  733MOL0     H 1132  13.383   6.318   6.324 -0.6039 -0.6252 -0.6411
  733MOL0     H 1133  13.380   6.428   6.187  1.9718 -2.4916 -0.9853
  733MOL0     H 1134  12.401   6.602   6.085 -1.6834 -0.9746  0.7105
  733MOL0     H 1135  12.148   6.649   6.013 -3.7617  5.7701 -0.6664
  733MOL0     H 1136  11.764   6.484   6.088 -1.3354 -1.4436  0.0859
  733MOL0     H 1137  11.528   6.478   6.074  1.7877  0.2642 -2.2088
  733MOL0     H 1138   9.898   5.545   5.577 -1.6517 -1.7969  0.1678
  733MOL0     H 1139   9.651   5.545   5.523 -2.8569  1.3746 -1.7224
  733MOL0     H 1140   9.289   5.891   5.488  0.6566  2.2246 -1.7140
  733MOL0     H 1141   9.042   5.912   5.441  2.5345  2.7921 -1.1195
  733MOL0     H 1142   8.725   5.749   5.203 -1.2857 -2.4625 -1.8418
  733MOL0     H 1143   8.850   5.653   5.119  2.4457  0.4519  0.0281
  733MOL0     H 1144   8.845   5.503   5.316  2.8321  1.6499 -4.2903
  733MOL0     H 1145   8.684   5.534   5.248 -0.5751  2.0988  0.7678
  733MOL0     H 1146   8.652   5.704   5.428 -1.4848 -1.5607  0.0691
  733MOL0     H 1147   8.648   5.537   5.481 -0.5668 -0.9645 -2.2166
  733MOL0     H 1148   8.766   5.674   5.640 -1.6936 -1.8385 -0.1847
  733MOL0     H 1149   8.890   5.711   5.516  1.6821  0.0090  2.7983
  733MOL0     H 1150   8.951   5.296   5.608  0.0757 -0.2445 -1.1452
  733MOL0     H 1151   9.067   5.573   5.196 -1.9572 -0.7426  2.2374
  733MOL0     H 1152   9.386   5.555   5.111  0.1208  1.6210  1.4864
  733MOL0     H 1153   9.384   5.461   5.262  0.2442  0.0638  0.3780
  733MOL0     H 1154   9.246   5.452   5.152  2.7053 -2.1788 -1.2348
  734MOL0     O 1155   7.637   6.912   7.436 -0.4503  0.1550  0.4244
  734MOL0     C 1156   7.674   6.835   7.347  0.0157 -0.4916 -0.6289
  734MOL0     O 1157   7.591   6.740   7.299 -0.4429  0.3537 -0.6774
  734MOL0     C 1158   7.485   6.688   7.379  0.1258  0.7249  0.3801
  734MOL0     C 1159   7.379   6.629   7.303 -0.3296 -0.1673  0.1868
  734MOL0     C 1160   7.270   6.567   7.362  0.9753  0.2170 -0.2368
  734MOL0     C 1161   7.262   6.567   7.505  0.0820 -0.3675 -0.0874
  734MOL0     O 1162   7.148   6.533   7.575 -0.2561  0.8036  0.6697
  734MOL0     C 1163   7.033   6.488   7.511  0.3335  0.6391  0.0390
  734MOL0     C 1164   7.043   6.339   7.472  0.6237  0.2839 -0.2680
  734MOL0     C 1165   7.116   6.265   7.586  0.6592  0.5365  0.8256
  734MOL0     C 1166   7.101   6.115   7.592  0.4235 -0.2381 -0.1129
  734MOL0     C 1167   7.157   6.054   7.722 -0.3082  0.2144 -0.2602
  734MOL0     C 1168   7.299   6.098   7.735 -0.4688 -0.4064  0.1981
  734MOL0     C 1169   7.344   6.039   7.870  0.5961 -0.1598  0.4619
  734MOL0     C 1170   7.497   6.044   7.895 -0.1738 -0.9663  0.0483
  734MOL0     N 1171   7.552   6.181   7.904 -0.1665 -0.9989  0.7893
  734MOL0     C 1172   7.538   6.272   7.997  0.8719  0.6090  0.5150
  734MOL0     C 1173   7.610   6.379   7.962 -0.4077 -0.5129  0.2424
  734MOL0     C 1174   7.644   6.492   8.052 -0.6251  0.9080  0.3791
  734MOL0     C 1175   7.574   6.632   8.022 -0.7432  0.3456 -0.3966
  734MOL0     C 1176   7.620   6.693   7.895 -0.3260 -0.0782 -0.6685
  734MOL0     C 1177   7.671   6.836   7.888 -0.2457  0.3056 -0.6041
  734MOL0     O 1178   7.564   6.927   7.890 -0.6401  0.1732 -0.1109
  734MOL0     C 1179   7.595   7.058   7.875  0.0138  0.4074  1.3383
  734MOL0     C 1180   7.712   7.110   7.816 -0.4705  0.3160 -0.4687
  734MOL0     C 1181   7.734   7.250   7.797  0.3361  0.5963  0.4616
  734MOL0     C 1182   7.852   7.297   7.719 -1.1321 -0.2148 -0.0487
  734MOL0     C 1183   7.638   7.341   7.850 -0.2625 -0.2301 -0.6142
  734MOL0     C 1184   7.660   7.486   7.847  0.9746  0.2992 -0.9992
  734MOL0     O 1185   7.788   7.543   7.835  0.6242  0.0103 -0.9478
  734MOL0     C 1186   7.813   7.676   7.851  0.5752 -0.2288  0.9451
  734MOL0     C 1187   7.935   7.723   7.807  0.1822 -0.5836  0.5360
  734MOL0     C 1188   7.986   7.853   7.829  0.5014 -0.3365 -0.2717
  734MOL0     C 1189   7.913   7.942   7.905 -0.1764 -0.3436 -1.3267
  734MOL0     O 1190   7.956   8.065   7.949  0.4605  0.4939  0.1254
  734MOL0     C 1191   8.078   8.115   7.911 -0.1926  0.3957 -0.4413
  734MOL0     C 1192   8.091   8.266   7.966  0.1114  0.5079  0.3710
  734MOL0     C 1193   8.001   8.356   7.873  0.4048 -0.0261 -0.3129
  734MOL0     C 1194   7.870   8.390   7.938 -0.3242 -0.7269  0.6444
  734MOL0     C 1195   7.810   8.505   7.840 -0.3333 -0.0874  1.3438
  734MOL0     C 1196   7.666   8.543   7.872  0.3494 -0.0465  0.2659
  734MOL0     C 1197   7.628   8.686   7.834  0.3082  0.1639 -0.3480
  734MOL0     C 1198   7.488   8.712   7.770 -0.9559  0.0474 -0.2905
  734MOL0    Cl 1199   7.359   8.604   7.828 -0.6121  0.3279 -0.2424
  734MOL0     C 1200   7.778   7.910   7.942 -0.1281 -0.3485  0.0863
  734MOL0     C 1201   7.730   7.776   7.913  0.4193 -0.0202 -0.9131
  734MOL0     O 1202   7.555   7.547   7.847 -0.5854 -0.8811  0.4502
  734MOL0     C 1203   7.518   7.291   7.909 -0.8782 -0.8911 -0.7012
  734MOL0     C 1204   7.503   7.151   7.922  0.3691  0.4076 -0.3203
  734MOL0     N 1205   7.649   6.366   7.830  0.0850  0.5817 -0.0976
  734MOL0     N 1206   7.616   6.243   7.798 -0.9493  0.6013  0.2875
  734MOL0     C 1207   7.368   6.623   7.580 -0.1553 -0.6692  0.5210
  734MOL0     C 1208   7.477   6.678   7.518 -0.4099  0.3553 -1.0458
  734MOL0     C 1209   7.813   6.831   7.309 -1.0860  0.7276  0.1918
  734MOL0     C 1210   7.863   6.734   7.226 -0.3295  0.3061 -0.3637
  734MOL0     C 1211   7.992   6.723   7.177  0.3592 -0.3776  0.7429
  734MOL0     C 1212   8.088   6.815   7.220  0.1734  0.6141  0.3634
  734MOL0     O 1213   8.215   6.816   7.165 -0.4530  0.3406 -0.6252
  734MOL0     C 1214   8.280   6.693   7.147  0.1701 -0.2284 -0.2932
  734MOL0     C 1215   8.429   6.713   7.165 -0.1225 -0.3391  0.6953
  734MOL0     C 1216   8.453   6.797   7.293  0.6669  0.4803  0.3451
  734MOL0     C 1217   8.390   6.752   7.421  0.8004 -0.3043 -0.7734
  734MOL0     C 1218   8.453   6.807   7.540 -0.3731  0.9840 -0.1688
  734MOL0     C 1219   8.520   6.846   7.634 -0.9893  0.8011  0.0679
  734MOL0     C 1220   8.046   6.911   7.309 -0.0104  0.1583 -0.1146
  734MOL0     C 1221   7.915   6.915   7.359  0.6639 -0.8018  0.3570
  734MOL0     C 1222   7.889   7.028   7.449  0.2080 -0.8214  0.1738
  734MOL0     H 1223   7.387   6.636   7.195  1.0098  2.5560  0.3636
  734MOL0     H 1224   7.193   6.518   7.304 -1.1667  3.7915 -0.6717
  734MOL0     H 1225   6.995   6.551   7.431 -0.6891  1.0257  0.8176
  734MOL0     H 1226   6.961   6.487   7.593 -1.1284  0.7742 -1.2137
  734MOL0     H 1227   6.942   6.297   7.474  2.5525 -5.4384  4.2879
  734MOL0     H 1228   7.095   6.316   7.378 -0.9321 -3.7242 -0.3324
  734MOL0     H 1229   7.220   6.296   7.575  0.8397 -0.8194 -2.0633
  734MOL0     H 1230   7.078   6.302   7.682  0.7981  2.5358  0.1637
  734MOL0     H 1231   6.995   6.088   7.591  0.0889  1.0057  0.1854
  734MOL0     H 1232   7.156   6.066   7.511 -0.4847 -1.1903 -0.1763
  734MOL0     H 1233   7.157   5.944   7.721 -1.2026  0.1896  0.5316
  734MOL0     H 1234   7.087   6.082   7.802 -0.5429  0.3220 -0.4987
  734MOL0     H 1235   7.367   6.071   7.653  3.0648  1.2169  2.3456
  734MOL0     H 1236   7.307   6.206   7.752  0.6785 -0.6953  1.6528
  734MOL0     H 1237   7.318   5.932   7.871 -0.8167  0.1340 -1.3074
  734MOL0     H 1238   7.296   6.095   7.951  1.4083  0.2246  0.6910
  734MOL0     H 1239   7.529   6.007   7.993  2.3057 -0.6028 -0.5635
  734MOL0     H 1240   7.547   5.993   7.812 -0.9035 -0.5936 -0.6301
  734MOL0     H 1241   7.471   6.266   8.083 -1.1614  1.2276 -0.9646
  734MOL0     H 1242   7.745   6.525   8.027 -1.8220  3.6109 -1.3167
  734MOL0     H 1243   7.640   6.454   8.154  1.2367  0.6501  0.3971
  734MOL0     H 1244   7.465   6.625   8.025 -0.6864 -0.5670  1.4221
  734MOL0     H 1245   7.611   6.696   8.103  1.1372 -0.2750 -0.7283
  734MOL0     H 1246   7.700   6.628   7.857  0.1814 -0.7556  1.4202
  734MOL0     H 1247   7.535   6.676   7.828  0.5764  0.0016 -1.8613
  734MOL0     H 1248   7.738   6.853   7.973  1.1792 -1.4485 -1.3317
  734MOL0     H 1249   7.726   6.843   7.793 -2.0673 -2.0979 -1.9425
  734MOL0     H 1250   7.786   7.043   7.774  0.4562  0.8663  0.2453
  734MOL0     H 1251   7.820   7.371   7.645 -1.3859  0.8046  1.0339
  734MOL0     H 1252   7.889   7.208   7.669  1.9009  0.4990  0.7019
  734MOL0     H 1253   7.926   7.338   7.789  1.2815  0.2456 -2.7028
  734MOL0     H 1254   7.999   7.663   7.744 -0.1580  1.8454 -2.3415
  734MOL0     H 1255   8.086   7.875   7.792  0.3938  0.7335  0.0477
  734MOL0     H 1256   8.154   8.051   7.955 -0.7951  0.4051  0.6445
  734MOL0     H 1257   8.078   8.096   7.803  1.0308 -0.3430 -0.3218
  734MOL0     H 1258   8.056   8.266   8.070 -1.5784 -1.8619 -0.1033
  734MOL0     H 1259   8.192   8.301   7.986 -0.6948  1.8308  2.5093
  734MOL0     H 1260   7.984   8.313   7.774 -1.1940  2.0703 -1.0336
  734MOL0     H 1261   8.060   8.446   7.853  1.5155 -0.7539 -0.3879
  734MOL0     H 1262   7.894   8.437   8.034 -1.8814 -2.6719  2.0576
  734MOL0     H 1263   7.796   8.311   7.951  1.0478 -2.0786  0.5150
  734MOL0     H 1264   7.871   8.595   7.842  1.2199 -1.0831  0.4994
  734MOL0     H 1265   7.794   8.476   7.736 -0.7635  3.2939  0.3745
  734MOL0     H 1266   7.655   8.536   7.980  1.9495 -0.7741  0.4226
  734MOL0     H 1267   7.603   8.464   7.830  1.0138 -0.6982  0.4553
  734MOL0     H 1268   7.701   8.724   7.762  1.0483  1.0433  0.8202
  734MOL0     H 1269   7.640   8.733   7.932  1.9393  1.0556 -0.9413
  734MOL0     H 1270   7.491   8.722   7.661 -1.6441  1.3752 -0.2082
  734MOL0     H 1271   7.465   8.812   7.807  1.1507  0.4882 -0.0846
  734MOL0     H 1272   7.730   7.979   8.011  1.9499  2.1977 -0.8711
  734MOL0     H 1273   7.639   7.746   7.964  1.6577 -1.2405  0.6901
  734MOL0     H 1274   7.436   7.359   7.933 -3.1407 -3.8341  0.6418
  734MOL0     H 1275   7.415   7.118   7.976  0.5284  0.9336  0.2715
  734MOL0     H 1276   7.361   6.621   7.688  0.6872  5.4763  1.0686
  734MOL0     H 1277   7.556   6.717   7.581  1.7107  0.5675 -3.6368
  734MOL0     H 1278   7.792   6.660   7.190  0.3386 -1.1273  1.1286
  734MOL0     H 1279   8.031   6.649   7.108  2.3796  0.3181  1.0713
  734MOL0     H 1280   8.239   6.621   7.217  0.0724 -0.0727 -0.1899
  734MOL0     H 1281   8.271   6.647   7.048 -0.0973 -1.7150  0.4016
  734MOL0     H 1282   8.464   6.766   7.076 -0.6274 -4.1346 -2.0613
  734MOL0     H 1283   8.487   6.621   7.179  1.7921  0.2150 -2.5301
  734MOL0     H 1284   8.562   6.792   7.296  0.5883 -1.4969  1.4875
  734MOL0     H 1285   8.420   6.899   7.271  0.9715  0.7378  1.0309
  734MOL0     H 1286   8.413   6.645   7.423  1.3293 -0.1935  0.3205
  734MOL0     H 1287   8.284   6.776   7.416  0.6687 -0.7302 -0.1953
  734MOL0     H 1288   8.579   6.882   7.716  0.4210 -1.7601  0.2832
  734MOL0     H 1289   8.123   6.979   7.343 -0.6525  0.9561 -0.2022
  734MOL0     H 1290   7.817   7.105   7.420  1.3716  0.4252  0.5252
  734MOL0     H 1291   7.850   6.999   7.547  1.0511  0.4604  0.9166
  734MOL0     H 1292   7.980   7.084   7.469  0.5600 -1.0329 -0.7649
  735MOL0     O 1293   9.934   7.504   8.003  0.3310  0.4274  0.3562
  735MOL0     C 1294   9.908   7.616   7.962  0.7458 -0.7683 -0.4597
  735MOL0     O 1295   9.990   7.725   7.939 -0.2535 -0.6368 -0.8110
  735MOL0     C 1296  10.120   7.688   7.933  1.0900  0.1319  0.3740
  735MOL0     C 1297  10.181   7.640   7.811  0.4767  1.3502 -0.2533
  735MOL0     C 1298  10.319   7.619   7.814  0.3593  0.3601  0.6297
  735MOL0     C 1299  10.395   7.639   7.929 -0.5006 -0.1900 -0.8434
  735MOL0     O 1300  10.532   7.607   7.927 -0.4173  0.9221  0.3516
  735MOL0     C 1301  10.571   7.520   8.024  0.0858  0.8910  0.0887
  735MOL0     C 1302  10.687   7.438   7.965 -1.1809 -0.1235 -0.0259
  735MOL0     C 1303  10.827   7.519   7.960  0.1210 -0.5516 -0.6322
  735MOL0     C 1304  10.930   7.447   7.872  0.1824  0.9270  0.4247
  735MOL0     C 1305  11.072   7.492   7.890  0.0362 -0.6867 -0.2516
  735MOL0     C 1306  11.099   7.634   7.832 -0.1290 -1.0323  0.0739
  735MOL0     C 1307  11.245   7.680   7.848  0.7088 -0.3641 -1.2541
  735MOL0     C 1308  11.276   7.693   8.006  0.1087  0.2866  0.2167
  735MOL0     N 1309  11.420   7.727   8.022  0.0512 -0.1492 -0.3857
  735MOL0     C 1310  11.479   7.846   8.058 -0.1304 -0.1898 -0.0484
  735MOL0     C 1311  11.610   7.835   8.050 -0.1464  0.1177  0.7029
  735MOL0     C 1312  11.720   7.932   8.098 -0.1647  0.2676 -0.4828
  735MOL0     C 1313  11.770   8.005   7.976 -0.1110 -0.0365  0.3950
  735MOL0     C 1314  11.911   7.961   7.956  0.2483 -1.0807  0.3164
  735MOL0     C 1315  11.910   7.845   7.860 -0.6638  0.6914 -0.2257
  735MOL0     O 1316  12.046   7.788   7.853  0.1456  0.7034  0.0599
  735MOL0     C 1317  12.062   7.664   7.784  0.5895  0.6348 -0.5130
  735MOL0     C 1318  12.195   7.620   7.767 -0.4363  0.3190 -0.3672
  735MOL0     C 1319  12.223   7.487   7.715  0.1574  0.2073  0.6784
  735MOL0     C 1320  12.365   7.443   7.710  0.3579 -0.1582 -0.4496
  735MOL0     C 1321  12.110   7.409   7.663 -0.9798 -0.7547 -0.3948
  735MOL0     C 1322  12.117   7.283   7.599  0.5106  0.0071 -0.5162
  735MOL0     O 1323  11.999   7.210   7.597  0.4835 -0.2162  0.0232
  735MOL0     C 1324  11.972   7.084   7.542 -0.2987  0.0042 -0.1913
  735MOL0     C 1325  12.040   7.034   7.424 -0.4278  0.0599  1.2638
  735MOL0     C 1326  11.998   6.912   7.365  0.5087 -0.1565 -0.2507
  735MOL0     C 1327  11.898   6.843   7.423  0.5840  0.0585 -0.2133
  735MOL0     O 1328  11.871   6.721   7.366 -0.4106  0.6360  0.3750
  735MOL0     C 1329  11.739   6.674   7.371  0.5641 -0.9285  0.1471
  735MOL0     C 1330  11.712   6.591   7.248 -1.0764 -0.2161  0.2872
  735MOL0     C 1331  11.799   6.462   7.257 -0.1227  0.0748  0.2492
  735MOL0     C 1332  11.886   6.442   7.133 -0.2031 -0.8841  1.0347
  735MOL0     C 1333  11.931   6.296   7.128  0.3335 -0.2302  0.7288
  735MOL0     C 1334  12.015   6.258   7.003  0.3394 -0.0294 -0.0488
  735MOL0     C 1335  12.070   6.120   7.004  0.6909 -0.2698  0.1448
  735MOL0     C 1336  12.140   6.088   6.881  0.1027  0.0225  0.5362
  735MOL0    Cl 1337  12.012   6.054   6.757 -0.2796  0.1041 -0.2739
  735MOL0     C 1338  11.840   6.884   7.546  0.9641 -0.1169 -0.1532
  735MOL0     C 1339  11.865   7.007   7.595 -1.0098 -0.7301 -0.3865
  735MOL0     O 1340  12.222   7.244   7.543  1.0440 -0.5211  0.1641
  735MOL0     C 1341  11.984   7.472   7.656  0.1416 -0.2896 -1.0933
  735MOL0     C 1342  11.957   7.591   7.718  0.3231  0.1875 -0.7224
  735MOL0     N 1343  11.635   7.703   8.014  0.0540  0.1129 -0.2038
  735MOL0     N 1344  11.522   7.641   7.997 -0.1800 -0.0297  0.6269
  735MOL0     C 1345  10.330   7.684   8.042 -0.3844  0.6090 -0.4078
  735MOL0     C 1346  10.196   7.699   8.051 -0.3863 -0.0171 -0.4122
  735MOL0     C 1347   9.762   7.660   7.939  0.5370 -0.5295  0.1791
  735MOL0     C 1348   9.658   7.611   8.016 -0.0356 -0.3238 -0.2524
  735MOL0     C 1349   9.524   7.613   7.973  0.3403 -0.5063 -0.7282
  735MOL0     C 1350   9.487   7.687   7.860  0.0850 -0.9868  1.3934
  735MOL0     O 1351   9.357   7.718   7.827 -0.6754  0.1264 -0.1315
  735MOL0     C 1352   9.251   7.622   7.856 -0.0278  0.1241 -0.3629
  735MOL0     C 1353   9.121   7.671   7.793  0.5127  0.7191  1.1581
  735MOL0     C 1354   8.995   7.592   7.812  0.6890 -0.2132  0.3497
  735MOL0     C 1355   8.865   7.669   7.769 -0.3688  0.5165  0.2108
  735MOL0     C 1356   8.748   7.584   7.809 -0.2321 -0.6033 -0.1291
  735MOL0     C 1357   8.653   7.518   7.850 -0.8174 -0.1875 -0.4384
  735MOL0     C 1358   9.591   7.755   7.797  0.4322 -0.1864  0.5340
  735MOL0     C 1359   9.725   7.743   7.826  0.9211  0.3779 -0.4597
  735MOL0     C 1360   9.822   7.824   7.743  0.1635  0.5942  0.3287
  735MOL0     H 1361  10.112   7.617   7.732  0.1176 -2.5121  0.9952
  735MOL0     H 1362  10.353   7.556   7.733  0.4127  2.5760 -1.1517
  735MOL0     H 1363  10.487   7.453   8.043  1.0869 -0.7444 -0.9985
  735MOL0     H 1364  10.611   7.550   8.122 -0.7841 -0.5384  0.9190
  735MOL0     H 1365  10.687   7.345   8.023 -0.6981 -0.8000 -1.0962
  735MOL0     H 1366  10.662   7.402   7.865 -1.4404  0.3576 -0.1373
  735MOL0     H 1367  10.802   7.622   7.934  1.0104  0.7822  3.1263
  735MOL0     H 1368  10.868   7.530   8.061  1.4711  0.9029 -1.3100
  735MOL0     H 1369  10.931   7.338   7.888  0.9797  0.3170 -2.9574
  735MOL0     H 1370  10.897   7.449   7.767  2.9152 -1.4168 -0.6214
  735MOL0     H 1371  11.141   7.417   7.850  0.6061  0.8630 -2.4282
  735MOL0     H 1372  11.084   7.495   7.998 -2.5248 -0.6310  0.0878
  735MOL0     H 1373  11.062   7.632   7.729  1.7580 -1.4841 -0.6379
  735MOL0     H 1374  11.036   7.710   7.880 -0.9805 -0.2283 -2.1571
  735MOL0     H 1375  11.248   7.779   7.803 -0.1686  0.6440  0.7995
  735MOL0     H 1376  11.313   7.610   7.798  0.2803 -1.4537 -0.3703
  735MOL0     H 1377  11.215   7.777   8.040 -0.1571 -0.0162  0.4991
  735MOL0     H 1378  11.249   7.601   8.059 -1.8185 -0.2513 -1.5498
  735MOL0     H 1379  11.428   7.936   8.089  1.5492  0.5052  0.8427
  735MOL0     H 1380  11.784   7.880   8.170 -1.3043  0.5080  0.7381
  735MOL0     H 1381  11.677   8.002   8.169 -0.5280 -1.9785  1.6590
  735MOL0     H 1382  11.708   7.987   7.888 -1.0099  0.5275  0.9068
  735MOL0     H 1383  11.754   8.113   7.986  2.5092  0.5873 -1.0365
  735MOL0     H 1384  11.983   8.026   7.905  0.6604 -3.3521 -2.2767
  735MOL0     H 1385  11.960   7.941   8.051  1.5076  0.0796 -0.0563
  735MOL0     H 1386  11.837   7.772   7.895  1.7977 -0.6918  2.4129
  735MOL0     H 1387  11.873   7.879   7.762  1.8512 -1.2634 -1.9876
  735MOL0     H 1388  12.278   7.678   7.806  0.0935 -0.5502 -0.1649
  735MOL0     H 1389  12.381   7.345   7.756  0.6486 -1.0028 -2.2964
  735MOL0     H 1390  12.421   7.524   7.759 -0.3172 -0.9093  1.6819
  735MOL0     H 1391  12.401   7.430   7.608 -0.2493 -0.3353 -0.6444
  735MOL0     H 1392  12.117   7.088   7.371  2.3536  0.3247  5.1674
  735MOL0     H 1393  12.046   6.864   7.280  1.4214  0.4477 -0.0951
  735MOL0     H 1394  11.711   6.616   7.460 -4.5931  1.0090  0.1562
  735MOL0     H 1395  11.669   6.758   7.372 -0.7673 -1.8263 -3.2835
  735MOL0     H 1396  11.606   6.574   7.224 -1.1047 -0.0304  0.2791
  735MOL0     H 1397  11.743   6.654   7.165 -3.0130  3.2618  1.9860
  735MOL0     H 1398  11.727   6.380   7.251 -0.2729  0.2766 -1.1419
  735MOL0     H 1399  11.864   6.456   7.345  0.3073  0.5482 -0.0277
  735MOL0     H 1400  11.967   6.516   7.136  0.1686 -0.8780 -3.1865
  735MOL0     H 1401  11.820   6.476   7.052  1.9556  2.4935  0.4768
  735MOL0     H 1402  11.988   6.264   7.215 -2.5610 -1.6282  2.2554
  735MOL0     H 1403  11.843   6.230   7.127  0.6089 -0.6746 -1.9665
  735MOL0     H 1404  12.098   6.327   6.985  1.4434 -1.7478 -2.0180
  735MOL0     H 1405  11.941   6.284   6.927 -2.6504 -0.4557  2.4865
  735MOL0     H 1406  11.987   6.049   7.012 -0.6696  0.5859 -3.8662
  735MOL0     H 1407  12.128   6.105   7.096 -0.7572  1.1072  1.3447
  735MOL0     H 1408  12.194   5.995   6.902  3.7198  2.3064  2.2780
  735MOL0     H 1409  12.215   6.161   6.849 -0.5374  0.2830 -0.4205
  735MOL0     H 1410  11.760   6.828   7.592  2.3329 -0.9254  1.3731
  735MOL0     H 1411  11.813   7.055   7.677  2.3204 -0.0152  1.4581
  735MOL0     H 1412  11.895   7.430   7.609  0.3168  0.3293 -2.0135
  735MOL0     H 1413  11.854   7.624   7.726 -0.2136 -1.6206  0.5068
  735MOL0     H 1414  10.390   7.708   8.129  0.5674 -0.9287 -0.5996
  735MOL0     H 1415  10.148   7.744   8.138 -1.1313 -1.3028 -0.1337
  735MOL0     H 1416   9.679   7.556   8.107  1.6433  0.1300 -0.3479
  735MOL0     H 1417   9.442   7.568   8.029 -0.4247 -1.0304 -2.2124
  735MOL0     H 1418   9.275   7.523   7.817 -1.4443  0.4924 -2.3382
  735MOL0     H 1419   9.235   7.626   7.964 -1.3162  3.7390 -0.5486
  735MOL0     H 1420   9.127   7.681   7.685  0.9664 -1.7666  0.9044
  735MOL0     H 1421   9.104   7.773   7.830 -2.0380  0.9771 -0.5123
  735MOL0     H 1422   9.010   7.502   7.753  1.6527  1.2546 -1.7669
  735MOL0     H 1423   8.986   7.570   7.919  2.1400  1.4369  0.8507
  735MOL0     H 1424   8.869   7.695   7.663 -2.7365 -0.7661 -0.2712
  735MOL0     H 1425   8.864   7.763   7.824  2.9902  0.5757  0.3753
  735MOL0     H 1426   8.572   7.455   7.881 -0.1133 -2.5091 -2.8710
  735MOL0     H 1427   9.574   7.824   7.716  0.6153  1.5647  1.9292
  735MOL0     H 1428   9.904   7.760   7.709  0.5036  0.6904  0.9471
  735MOL0     H 1429   9.772   7.871   7.658 -0.9921 -1.9619 -0.4872
  735MOL0     H 1430   9.866   7.901   7.808 -1.0026  0.7116  0.9966
  736MOL0     O 1431   8.664   0.672   6.433  0.2531 -0.2346  0.3700
  736MOL0     C 1432   8.729   0.752   6.503  1.1476  0.1790  0.1858
  736MOL0     O 1433   8.816   0.716   6.600  0.3106  0.5204 -0.6610
  736MOL0     C 1434   8.859   0.583   6.604 -0.1715 -0.3366 -0.0951
  736MOL0     C 1435   8.996   0.559   6.574  0.4708 -0.0132 -0.1283
  736MOL0     C 1436   9.046   0.433   6.565  0.2006  0.3255  0.0097
  736MOL0     C 1437   8.964   0.324   6.581  0.1251 -0.3318  0.9387
  736MOL0     O 1438   9.017   0.200   6.560  0.1544 -0.0582 -0.1287
  736MOL0     C 1439   8.999   0.158   6.428 -0.5617  0.1061  0.0340
  736MOL0     C 1440   9.034   0.005   6.406  0.1162  0.0774 -0.5585
  736MOL0     C 1441   9.185  -0.008   6.456  0.7497  0.2466  0.4373
  736MOL0     C 1442   9.223  -0.152   6.498 -0.0610 -0.6839 -0.3074
  736MOL0     C 1443   9.206  -0.252   6.391 -0.4098  0.4781 -0.4720
  736MOL0     C 1444   9.247  -0.231   6.246  0.5988 -0.4273 -0.2157
  736MOL0     C 1445   9.398  -0.229   6.235  0.4856  0.1444 -0.2034
  736MOL0     C 1446   9.435  -0.174   6.099  0.2652  0.3931 -0.4123
  736MOL0     N 1447   9.576  -0.181   6.072  0.3202 -0.2068  0.0177
  736MOL0     C 1448   9.670  -0.110   6.154  0.2744 -1.0873 -0.2458
  736MOL0     C 1449   9.792  -0.149   6.118 -0.3563 -0.8181 -0.3370
  736MOL0     C 1450   9.930  -0.117   6.178 -0.0799 -0.2816  0.3323
  736MOL0     C 1451   9.930   0.010   6.262  0.1834 -0.3563  0.1275
  736MOL0     C 1452  10.064   0.038   6.338 -0.4040 -0.2328  0.1217
  736MOL0     C 1453  10.176   0.084   6.244  0.3515  0.0260  0.1428
  736MOL0     O 1454  10.128   0.158   6.126 -0.2174 -0.2873  0.0534
  736MOL0     C 1455  10.217   0.235   6.054  0.9571 -0.3758  0.5851
  736MOL0     C 1456  10.156   0.325   5.967 -0.2690 -0.0149  0.3794
  736MOL0     C 1457  10.246   0.408   5.890  0.1897 -0.1784 -0.2368
  736MOL0     C 1458  10.162   0.515   5.812 -0.0529  0.6303  0.8080
  736MOL0     C 1459  10.384   0.400   5.907  0.6526 -0.2219 -0.6023
  736MOL0     C 1460  10.477   0.487   5.837 -0.2958 -0.1123 -1.4189
  736MOL0     O 1461  10.606   0.485   5.889  0.0269 -0.6677 -0.3088
  736MOL0     C 1462  10.688   0.567   5.827  0.1561  1.4358  0.7892
  736MOL0     C 1463  10.681   0.706   5.832 -0.1003 -0.0475 -0.1619
  736MOL0     C 1464  10.778   0.786   5.774  0.8833 -0.6049  0.7409
  736MOL0     C 1465  10.888   0.738   5.703 -0.0265  0.3088  1.5403
  736MOL0     O 1466  10.989   0.810   5.652 -0.1478 -0.1055 -0.5059
  736MOL0     C 1467  11.025   0.782   5.518  0.9497  0.4890  0.1024
  736MOL0     C 1468  11.070   0.899   5.429 -0.2984  0.2293 -0.5048
  736MOL0     C 1469  11.208   0.925   5.474 -0.1607 -0.1940  0.1262
  736MOL0     C 1470  11.274   1.023   5.379 -0.7243  0.1477 -0.8569
  736MOL0     C 1471  11.415   1.043   5.433  0.1742 -0.5316  0.3967
  736MOL0     C 1472  11.497   1.138   5.351  0.8085  0.4363 -0.1408
  736MOL0     C 1473  11.504   1.104   5.199  0.1426 -0.6921  0.8765
  736MOL0     C 1474  11.593   1.203   5.128 -1.0572  0.3851  0.4825
  736MOL0    Cl 1475  11.765   1.171   5.148  0.0304 -0.0977 -0.1260
  736MOL0     C 1476  10.889   0.593   5.696  0.4195  0.1441 -0.0493
  736MOL0     C 1477  10.789   0.507   5.747  0.0184 -0.1282 -0.8415
  736MOL0     O 1478  10.452   0.526   5.721 -0.2284  0.7399  0.2829
  736MOL0     C 1479  10.437   0.310   5.992  0.2480  0.4840  0.7907
  736MOL0     C 1480  10.350   0.217   6.060 -0.4432 -0.2121 -0.7220
  736MOL0     N 1481   9.775  -0.239   6.012 -0.8921 -0.0572 -0.3425
  736MOL0     N 1482   9.647  -0.260   5.989  0.0004  0.1110 -0.0175
  736MOL0     C 1483   8.817   0.347   6.611 -0.9962 -1.2768 -0.3035
  736MOL0     C 1484   8.769   0.476   6.631 -0.0605  0.6909 -0.3238
  736MOL0     C 1485   8.688   0.887   6.507 -0.8794 -0.0672 -0.1513
  736MOL0     C 1486   8.740   0.965   6.616 -0.6362  0.2526  0.2400
  736MOL0     C 1487   8.717   1.098   6.631  0.7933  0.0118  0.4633
  736MOL0     C 1488   8.635   1.162   6.533 -0.6190  0.4204 -0.1228
  736MOL0     O 1489   8.614   1.300   6.531  0.1034  0.6665 -0.5106
  736MOL0     C 1490   8.625   1.367   6.657  0.1908 -0.0770 -0.3387
  736MOL0     C 1491   8.568   1.504   6.646 -0.1434  0.1897 -0.4724
  736MOL0     C 1492   8.427   1.531   6.606 -0.4424 -0.1213 -0.1116
  736MOL0     C 1493   8.402   1.531   6.450 -0.3405 -0.4616 -0.6647
  736MOL0     C 1494   8.259   1.554   6.412  0.1784 -0.0948 -0.0651
  736MOL0     C 1495   8.142   1.572   6.403 -0.6285  0.6099  0.7338
  736MOL0     C 1496   8.573   1.092   6.441  0.3244 -0.7501 -0.1512
  736MOL0     C 1497   8.593   0.950   6.417 -0.2902 -0.3702 -0.1232
  736MOL0     C 1498   8.543   0.873   6.294  0.0109  0.7784  0.1167
  736MOL0     H 1499   9.059   0.645   6.555  1.6709 -0.5793  1.1230
  736MOL0     H 1500   9.152   0.421   6.544  0.2080  2.1029 -1.1947
  736MOL0     H 1501   9.068   0.224   6.374 -1.1252  2.9636  2.5317
  736MOL0     H 1502   8.894   0.171   6.401 -0.3140 -0.1747 -1.1141
  736MOL0     H 1503   8.972  -0.058   6.470  0.6512 -0.3384 -0.4392
  736MOL0     H 1504   9.015  -0.033   6.305 -2.3504  0.5567 -0.3414
  736MOL0     H 1505   9.254   0.026   6.378  0.4781 -2.0123 -0.8829
  736MOL0     H 1506   9.197   0.055   6.544 -0.5118  1.3488 -0.1327
  736MOL0     H 1507   9.325  -0.151   6.539 -1.1814 -1.0592  2.7493
  736MOL0     H 1508   9.167  -0.170   6.591 -1.0729  2.3501 -0.2173
  736MOL0     H 1509   9.099  -0.272   6.379 -0.2097  1.1096 -4.5518
  736MOL0     H 1510   9.253  -0.347   6.417  0.6691  0.1665 -3.2698
  736MOL0     H 1511   9.211  -0.324   6.201  0.2618 -0.8343  0.8532
  736MOL0     H 1512   9.202  -0.143   6.198  0.1707 -1.4046 -1.6594
  736MOL0     H 1513   9.428  -0.333   6.253  0.1342  0.3105  1.5082
  736MOL0     H 1514   9.439  -0.169   6.317 -1.2644 -0.3333  1.0781
  736MOL0     H 1515   9.381  -0.231   6.023 -2.1291  0.2583  1.2715
  736MOL0     H 1516   9.402  -0.070   6.089  2.0971  0.9820 -0.7153
  736MOL0     H 1517   9.643  -0.047   6.238  2.7827 -2.1679  1.4998
  736MOL0     H 1518  10.005  -0.102   6.099 -0.0658  2.7284  0.8040
  736MOL0     H 1519   9.956  -0.202   6.241  0.2429  0.6786  1.5124
  736MOL0     H 1520   9.912   0.095   6.195  2.5468 -1.3731 -1.9404
  736MOL0     H 1521   9.857   0.011   6.344 -1.2552  3.2889 -0.9858
  736MOL0     H 1522  10.052   0.126   6.402  1.4627  0.0603  0.1489
  736MOL0     H 1523  10.111  -0.037   6.402  1.1454  1.5753  1.2137
  736MOL0     H 1524  10.230   0.158   6.303 -1.9384  0.2187  2.1990
  736MOL0     H 1525  10.235  -0.008   6.232 -1.6592 -1.4219  0.7514
  736MOL0     H 1526  10.050   0.334   5.945  0.3696  3.3904 -2.2052
  736MOL0     H 1527  10.087   0.464   5.751  0.5555  0.0034  0.5652
  736MOL0     H 1528  10.225   0.580   5.750  3.9988 -4.2772 -0.9720
  736MOL0     H 1529  10.101   0.564   5.888 -0.6975  0.5150  0.3751
  736MOL0     H 1530  10.597   0.749   5.885 -0.4590 -2.0946  1.0191
  736MOL0     H 1531  10.779   0.889   5.807  2.5627 -0.9541  1.9257
  736MOL0     H 1532  11.090   0.694   5.505 -0.5234 -0.8456  1.2620
  736MOL0     H 1533  10.927   0.770   5.472  0.9238  3.9596 -0.9866
  736MOL0     H 1534  11.077   0.862   5.327 -1.8605 -0.5913 -0.3552
  736MOL0     H 1535  10.998   0.981   5.441 -0.0288  0.4190 -0.1663
  736MOL0     H 1536  11.271   0.836   5.476  0.9120  0.5352  1.9412
  736MOL0     H 1537  11.214   0.968   5.575 -0.1214 -1.6832  0.7832
  736MOL0     H 1538  11.211   1.112   5.384 -0.4738  0.3103  4.1370
  736MOL0     H 1539  11.267   0.991   5.274 -3.8162  0.8056 -0.9623
  736MOL0     H 1540  11.418   1.075   5.537  2.3101 -5.1770  2.0260
  736MOL0     H 1541  11.473   0.951   5.426  1.9107  0.5216  0.4321
  736MOL0     H 1542  11.597   1.138   5.394  1.2502 -0.5688 -1.1422
  736MOL0     H 1543  11.446   1.235   5.338  1.0555  0.4450 -1.1129
  736MOL0     H 1544  11.403   1.105   5.157  0.0680  4.4168  0.5680
  736MOL0     H 1545  11.539   1.002   5.180 -2.5103 -2.0499  2.5152
  736MOL0     H 1546  11.575   1.307   5.157 -1.6975  1.1041 -2.1491
  736MOL0     H 1547  11.573   1.199   5.020  2.2804 -2.9494 -0.2228
  736MOL0     H 1548  10.981   0.555   5.651  0.3958  1.5151 -1.3194
  736MOL0     H 1549  10.798   0.399   5.744  0.4165 -0.1313  0.0530
  736MOL0     H 1550  10.542   0.307   6.022  0.5833  0.0425 -0.3746
  736MOL0     H 1551  10.395   0.148   6.130  0.4843 -0.1595 -1.2403
  736MOL0     H 1552   8.742   0.268   6.605 -3.0979  0.6520 -0.7089
  736MOL0     H 1553   8.662   0.490   6.644 -0.2110 -1.3877  1.0665
  736MOL0     H 1554   8.792   0.916   6.698 -0.8480  1.1217  0.8985
  736MOL0     H 1555   8.783   1.145   6.703  3.3024  0.7016 -2.0998
  736MOL0     H 1556   8.571   1.315   6.736  0.3586  0.1481 -0.0734
  736MOL0     H 1557   8.727   1.381   6.695  1.4497 -2.9149 -2.3903
  736MOL0     H 1558   8.624   1.570   6.579 -1.8396  1.3137 -0.8358
  736MOL0     H 1559   8.581   1.554   6.743 -0.5801  1.8158 -1.2196
  736MOL0     H 1560   8.360   1.461   6.656 -1.3605 -0.4962 -1.7871
  736MOL0     H 1561   8.404   1.632   6.643 -0.3711  0.6119 -1.9480
  736MOL0     H 1562   8.428   1.431   6.414  0.1949 -0.1718 -1.0967
  736MOL0     H 1563   8.466   1.602   6.396 -0.5424  0.9042  0.8172
  736MOL0     H 1564   8.043   1.613   6.400 -1.0397 -0.2922  1.5424
  736MOL0     H 1565   8.510   1.147   6.372 -1.2322 -2.2249  0.0216
  736MOL0     H 1566   8.635   0.836   6.248  1.2658 -0.9251  3.5729
  736MOL0     H 1567   8.485   0.784   6.322  1.7576  0.0063  1.5263
  736MOL0     H 1568   8.495   0.946   6.229  1.1338  0.1458 -1.4870
  737MOL0     O 1569   8.157   9.218   3.493  0.3640  0.4191  0.0206
  737MOL0     C 1570   8.086   9.117   3.496  0.1601  0.8269  0.5086
  737MOL0     O 1571   8.115   8.990   3.449 -0.1611  0.1623 -0.1975
  737MOL0     C 1572   8.237   8.962   3.394 -0.1806  0.2291 -1.2518
  737MOL0     C 1573   8.362   9.023   3.430 -0.7754 -0.5135  0.5356
  737MOL0     C 1574   8.477   8.988   3.357  0.1926  0.0164  0.5506
  737MOL0     C 1575   8.472   8.890   3.256 -0.8136 -0.7605  0.1434
  737MOL0     O 1576   8.593   8.858   3.195 -0.0686  0.3215 -0.5850
  737MOL0     C 1577   8.589   8.778   3.085  0.7864 -0.5502  1.6681
  737MOL0     C 1578   8.739   8.780   3.033  0.5740  0.1518 -0.4489
  737MOL0     C 1579   8.775   8.898   2.943  0.7870 -0.6537 -0.0573
  737MOL0     C 1580   8.894   8.864   2.854 -0.3927  0.9101  0.6230
  737MOL0     C 1581   8.947   8.984   2.764 -1.1830  0.5607  0.8773
  737MOL0     C 1582   8.869   9.019   2.642  0.2346  0.8978 -0.2369
  737MOL0     C 1583   8.933   9.126   2.550  0.2571  0.1022  0.2599
  737MOL0     C 1584   9.090   9.110   2.530 -0.1753 -0.2962 -0.3196
  737MOL0     N 1585   9.122   8.999   2.439 -0.1440  0.1102  0.0861
  737MOL0     C 1586   9.108   8.994   2.301  0.1385 -1.0112  0.2209
  737MOL0     C 1587   9.134   8.872   2.270 -0.1801 -1.0544 -0.7788
  737MOL0     C 1588   9.124   8.815   2.129  0.3992 -0.0520 -0.7943
  737MOL0     C 1589   9.261   8.814   2.050 -0.0199 -0.8986  0.1308
  737MOL0     C 1590   9.378   8.779   2.144 -0.5763 -0.4321 -0.5704
  737MOL0     C 1591   9.515   8.783   2.096  0.2223  0.4331  0.3659
  737MOL0     O 1592   9.536   8.669   2.003  0.1578  0.5533 -0.6686
  737MOL0     C 1593   9.658   8.674   1.941 -0.4108 -1.1959  0.5815
  737MOL0     C 1594   9.766   8.750   1.976  0.2599  0.1902  0.0440
  737MOL0     C 1595   9.875   8.773   1.895 -0.2099  0.3331 -0.6109
  737MOL0     C 1596   9.993   8.869   1.941  0.3187  0.2504  0.2628
  737MOL0     C 1597   9.891   8.710   1.773  0.0765 -0.0645  0.3358
  737MOL0     C 1598  10.008   8.718   1.681 -0.3456 -0.4921 -0.4930
  737MOL0     O 1599  10.131   8.681   1.729  0.6010 -0.1003  0.0706
  737MOL0     C 1600  10.239   8.697   1.653 -0.5062 -0.3891  0.1119
  737MOL0     C 1601  10.325   8.594   1.646 -0.4744 -0.0568 -0.7214
  737MOL0     C 1602  10.443   8.611   1.571 -0.3744 -0.8970 -0.5098
  737MOL0     C 1603  10.479   8.733   1.504  0.0216  1.3272  0.4562
  737MOL0     O 1604  10.597   8.751   1.436 -0.4267  0.4841  0.0440
  737MOL0     C 1605  10.707   8.653   1.463 -0.1897  0.1151  0.8343
  737MOL0     C 1606  10.836   8.689   1.376  0.3821  0.2454 -0.3113
  737MOL0     C 1607  10.934   8.793   1.443 -0.0520  0.6613 -0.5196
  737MOL0     C 1608  11.059   8.818   1.368  0.9287 -0.3725  0.9918
  737MOL0     C 1609  11.165   8.721   1.389 -0.4132 -0.7646  0.2195
  737MOL0     C 1610  11.292   8.753   1.309  0.2547 -0.4275 -0.2786
  737MOL0     C 1611  11.404   8.668   1.372  0.3546 -0.0649 -0.6271
  737MOL0     C 1612  11.534   8.682   1.306 -0.9621  0.5299 -0.2700
  737MOL0    Cl 1613  11.661   8.586   1.380 -0.2691 -0.2985 -0.4993
  737MOL0     C 1614  10.383   8.834   1.508  0.6094  0.3882  1.0369
  737MOL0     C 1615  10.263   8.816   1.582  0.2472 -1.2722  0.7511
  737MOL0     O 1616   9.979   8.748   1.567  0.3722  0.4670  0.0367
  737MOL0     C 1617   9.788   8.618   1.739 -0.0700 -0.4202 -0.1733
  737MOL0     C 1618   9.681   8.598   1.829 -0.0336  0.1958  0.0546
  737MOL0     N 1619   9.159   8.799   2.385 -0.0873 -0.3901  0.1847
  737MOL0     N 1620   9.141   8.869   2.487 -0.0830  0.4750  1.3781
  737MOL0     C 1621   8.346   8.827   3.228 -0.9473  0.7214 -0.6971
  737MOL0     C 1622   8.236   8.855   3.301  0.1587 -0.7592 -0.6364
  737MOL0     C 1623   7.964   9.133   3.587 -0.3871  0.9144  0.4074
  737MOL0     C 1624   7.964   9.235   3.690  0.7813  0.3729 -0.0080
  737MOL0     C 1625   7.845   9.260   3.761 -0.1639 -0.2151 -0.7643
  737MOL0     C 1626   7.742   9.174   3.755  0.5934 -1.0423  0.2539
  737MOL0     O 1627   7.630   9.217   3.831 -0.2111  0.4755  0.0511
  737MOL0     C 1628   7.513   9.136   3.843 -0.5123  0.3460  0.2751
  737MOL0     C 1629   7.460   9.131   3.976  0.7187  0.4256 -0.2573
  737MOL0     C 1630   7.345   9.025   3.974  0.0943  0.3782 -0.1570
  737MOL0     C 1631   7.290   8.984   4.111 -0.3456  0.1298  1.0558
  737MOL0     C 1632   7.215   9.092   4.168 -0.0218  0.2311 -0.4004
  737MOL0     C 1633   7.155   9.189   4.214 -0.5735  0.0969  0.2937
  737MOL0     C 1634   7.730   9.086   3.649 -0.0784  1.1205  0.0178
  737MOL0     C 1635   7.847   9.051   3.569 -0.0893 -0.3498  0.0531
  737MOL0     C 1636   7.815   8.956   3.460 -0.4972  0.5457  0.2182
  737MOL0     H 1637   8.364   9.094   3.512  1.6966 -0.1070  0.2152
  737MOL0     H 1638   8.562   9.051   3.377 -1.2487  2.3830 -0.3829
  737MOL0     H 1639   8.535   8.814   2.996  2.9006 -1.4951 -0.1109
  737MOL0     H 1640   8.558   8.679   3.118  2.8032 -0.4662  4.1316
  737MOL0     H 1641   8.798   8.772   3.124 -0.6433 -2.5852  0.2143
  737MOL0     H 1642   8.751   8.686   2.978  0.6703  0.3592 -0.7851
  737MOL0     H 1643   8.690   8.929   2.881  0.4757 -1.2280  0.0734
  737MOL0     H 1644   8.793   8.991   2.997 -2.2013 -0.3187  0.5294
  737MOL0     H 1645   8.971   8.825   2.921 -0.9251 -0.9848  0.1776
  737MOL0     H 1646   8.860   8.785   2.787 -1.5794  2.1298 -0.2768
  737MOL0     H 1647   9.043   8.946   2.727 -2.8889 -0.7663 -2.6646
  737MOL0     H 1648   8.979   9.069   2.825 -2.1688  0.2538  1.8646
  737MOL0     H 1649   8.849   8.939   2.570 -2.7575  1.2061  0.1123
  737MOL0     H 1650   8.771   9.058   2.671  0.7678  2.7099 -0.7289
  737MOL0     H 1651   8.918   9.218   2.607  0.2384 -0.3358  0.9719
  737MOL0     H 1652   8.873   9.131   2.458  0.5527 -1.1369 -0.0147
  737MOL0     H 1653   9.124   9.199   2.477 -0.5250  0.7793  1.2006
  737MOL0     H 1654   9.152   9.100   2.620  1.0883  2.9027 -0.7089
  737MOL0     H 1655   9.075   9.071   2.233 -0.0271 -1.6737 -0.4571
  737MOL0     H 1656   9.050   8.867   2.067  1.0510  1.8269 -0.0787
  737MOL0     H 1657   9.091   8.712   2.147 -2.9774  0.9818 -0.3379
  737MOL0     H 1658   9.271   8.733   1.978  1.3429  0.5379 -1.3651
  737MOL0     H 1659   9.267   8.903   1.987 -0.7591 -0.8775  0.0754
  737MOL0     H 1660   9.401   8.858   2.216 -1.8453  0.8687 -1.5430
  737MOL0     H 1661   9.363   8.678   2.185 -2.4999 -0.6094 -1.6269
  737MOL0     H 1662   9.537   8.878   2.046  3.0409 -0.1488  0.3375
  737MOL0     H 1663   9.587   8.773   2.178 -0.3914  0.3236  0.8978
  737MOL0     H 1664   9.759   8.801   2.072 -1.9676 -2.0680  1.1998
  737MOL0     H 1665   9.975   8.964   1.892  2.2019 -0.3502 -1.7381
  737MOL0     H 1666  10.090   8.830   1.907  0.0400 -0.7006  0.5217
  737MOL0     H 1667   9.988   8.871   2.051 -3.7300  0.7789  0.2194
  737MOL0     H 1668  10.295   8.501   1.693 -1.8224  0.1344 -1.1494
  737MOL0     H 1669  10.516   8.530   1.569  1.5037  0.7469 -1.4702
  737MOL0     H 1670  10.732   8.645   1.569 -1.0821 -0.6420  0.9987
  737MOL0     H 1671  10.671   8.557   1.427  0.0393  0.1791  0.4278
  737MOL0     H 1672  10.893   8.598   1.358 -0.3983 -0.0705 -1.3046
  737MOL0     H 1673  10.802   8.736   1.283 -2.1192  0.3531  0.5815
  737MOL0     H 1674  10.961   8.761   1.544  1.6743  3.6212  0.0560
  737MOL0     H 1675  10.871   8.880   1.459 -1.9288 -0.5535 -0.9684
  737MOL0     H 1676  11.105   8.910   1.403  1.6951 -1.4001  2.8101
  737MOL0     H 1677  11.027   8.820   1.263  0.5034  1.6548  1.1143
  737MOL0     H 1678  11.180   8.714   1.497 -0.6979  1.5112  0.4658
  737MOL0     H 1679  11.131   8.623   1.353 -0.1894 -1.0567  0.7981
  737MOL0     H 1680  11.311   8.859   1.331 -1.3775 -0.8662  4.1987
  737MOL0     H 1681  11.294   8.738   1.201  2.8772  4.7674 -1.2855
  737MOL0     H 1682  11.375   8.563   1.370  0.1907 -0.0291 -0.2603
  737MOL0     H 1683  11.420   8.694   1.477  1.5277 -0.9534 -0.5693
  737MOL0     H 1684  11.574   8.784   1.309  0.8469 -0.1495  0.0710
  737MOL0     H 1685  11.525   8.648   1.202 -0.4236 -0.3837 -0.0286
  737MOL0     H 1686  10.401   8.919   1.442 -0.9174 -0.4174 -0.4988
  737MOL0     H 1687  10.186   8.893   1.583  0.7043 -0.8100  2.5653
  737MOL0     H 1688   9.792   8.568   1.643 -1.3329  0.1218 -0.5327
  737MOL0     H 1689   9.612   8.527   1.786  0.5015 -0.0128 -0.4694
  737MOL0     H 1690   8.344   8.741   3.162  0.4165  0.8062 -0.8830
  737MOL0     H 1691   8.142   8.812   3.269 -0.5791  1.8376 -2.3010
  737MOL0     H 1692   8.049   9.301   3.685 -1.0211  2.8611  0.4440
  737MOL0     H 1693   7.839   9.332   3.841  0.4377  0.0477 -0.9415
  737MOL0     H 1694   7.440   9.181   3.775  0.1737 -0.4839 -1.0677
  737MOL0     H 1695   7.524   9.033   3.807 -0.4734 -0.5026  2.5344
  737MOL0     H 1696   7.417   9.228   4.002 -0.4967  0.0532 -0.8106
  737MOL0     H 1697   7.532   9.096   4.051 -0.3324 -2.1893 -0.3664
  737MOL0     H 1698   7.259   9.062   3.917  0.4912  1.3703 -0.1173
  737MOL0     H 1699   7.382   8.932   3.930 -0.2854  0.4542 -0.6509
  737MOL0     H 1700   7.369   8.959   4.182 -1.8892  0.7612  3.0957
  737MOL0     H 1701   7.227   8.895   4.108 -1.3011  0.8111 -0.0600
  737MOL0     H 1702   7.106   9.268   4.266  1.2792  1.2176  0.4158
  737MOL0     H 1703   7.638   9.033   3.628  2.2576 -3.5278  0.1891
  737MOL0     H 1704   7.860   9.001   3.370 -1.8457  0.2733 -0.6257
  737MOL0     H 1705   7.859   8.856   3.470 -0.3971  0.4167 -1.2586
  737MOL0     H 1706   7.709   8.936   3.441 -0.5632  1.6001 -0.6832
  738MOL0     O 1707   9.847   0.050   8.418 -0.7559  0.2422  0.3582
  738MOL0     C 1708   9.747  -0.015   8.441  0.6620  0.1952 -0.4620
  738MOL0     O 1709   9.746  -0.136   8.489 -0.3866 -0.2540 -0.7307
  738MOL0     C 1710   9.862  -0.179   8.558 -0.2460  0.3336 -0.1658
  738MOL0     C 1711   9.877  -0.150   8.693 -0.0377 -0.1057 -0.7735
  738MOL0     C 1712  10.005  -0.182   8.750 -0.2622 -0.9733 -0.8910
  738MOL0     C 1713  10.108  -0.253   8.687  0.8678 -0.1833  0.9104
  738MOL0     O 1714  10.228  -0.281   8.751 -0.1525  0.6438 -0.8581
  738MOL0     C 1715  10.339  -0.324   8.672 -0.0790 -0.2258  0.0549
  738MOL0     C 1716  10.450  -0.370   8.768  0.5034 -0.2007 -1.1127
  738MOL0     C 1717  10.405  -0.508   8.832  0.3633 -0.9619 -0.5593
  738MOL0     C 1718  10.506  -0.541   8.940  0.5601 -0.6103 -0.0708
  738MOL0     C 1719  10.459  -0.635   9.042  0.5242 -0.0410 -0.9439
  738MOL0     C 1720  10.551  -0.738   9.095 -0.2845 -0.6974  0.2613
  738MOL0     C 1721  10.674  -0.676   9.176  0.2617 -0.8368  0.5200
  738MOL0     C 1722  10.767  -0.788   9.198  0.5267  0.4359  0.3571
  738MOL0     N 1723  10.903  -0.745   9.233  0.0326  0.0638 -0.1850
  738MOL0     C 1724  10.929  -0.641   9.319 -0.4933  0.6331  0.4660
  738MOL0     C 1725  11.067  -0.637   9.326  0.9134  0.7455  0.6159
  738MOL0     C 1726  11.138  -0.530   9.391 -0.5696 -0.9421  0.4277
  738MOL0     C 1727  11.133  -0.539   9.547  0.2418  0.8220  0.0322
  738MOL0     C 1728  11.235  -0.439   9.613 -0.5994 -0.8752 -0.4690
  738MOL0     C 1729  11.376  -0.454   9.563 -0.9119  0.5207  0.1200
  738MOL0     O 1730  11.426  -0.589   9.590 -0.1057 -0.1143  0.0398
  738MOL0     C 1731  11.532  -0.622   9.508 -0.8182  0.4755  0.8701
  738MOL0     C 1732  11.614  -0.531   9.440 -0.4562 -0.6857  0.0742
  738MOL0     C 1733  11.702  -0.576   9.344  0.0443 -0.2522 -0.4351
  738MOL0     C 1734  11.761  -0.454   9.259  0.2565  0.1007  0.3987
  738MOL0     C 1735  11.723  -0.714   9.317 -0.2355  0.1089 -0.3544
  738MOL0     C 1736  11.828  -0.774   9.233  0.3482  0.4355  0.9057
  738MOL0     O 1737  11.901  -0.681   9.171  0.0450  0.6033 -0.5485
  738MOL0     C 1738  11.990  -0.727   9.077  0.4165  0.4369  0.0797
  738MOL0     C 1739  11.960  -0.697   8.942  0.4888 -0.4330 -0.2790
  738MOL0     C 1740  12.049  -0.709   8.836  0.0721  0.2209 -0.4538
  738MOL0     C 1741  12.176  -0.760   8.855  0.6017  0.1042 -0.2915
  738MOL0     O 1742  12.258  -0.764   8.748 -0.4747 -0.0259  0.1926
  738MOL0     C 1743  12.364  -0.862   8.739  0.0832 -0.3368 -0.4844
  738MOL0     C 1744  12.325  -0.990   8.652 -0.5097 -0.7825 -0.3834
  738MOL0     C 1745  12.292  -0.938   8.507 -0.7552  1.0276 -0.6454
  738MOL0     C 1746  12.217  -1.044   8.433  0.5118  0.2936 -0.6772
  738MOL0     C 1747  12.192  -1.010   8.285  0.4099  0.2568 -0.2236
  738MOL0     C 1748  12.101  -1.109   8.212  0.2008 -0.6309  0.3388
  738MOL0     C 1749  12.077  -1.061   8.062  0.8169  0.6515  0.4440
  738MOL0     C 1750  12.008  -1.185   7.991 -0.1570 -0.4507  0.4798
  738MOL0    Cl 1751  12.133  -1.303   7.952 -0.3162 -0.4197 -0.0009
  738MOL0     C 1752  12.206  -0.796   8.986 -0.6422 -0.0425 -0.8378
  738MOL0     C 1753  12.124  -0.775   9.102  1.0129 -0.0458 -0.5545
  738MOL0     O 1754  11.840  -0.899   9.225  0.7808 -0.5039  0.1655
  738MOL0     C 1755  11.641  -0.806   9.391  0.3068  0.8296 -0.6368
  738MOL0     C 1756  11.547  -0.762   9.483 -0.2827 -0.0529 -0.3877
  738MOL0     N 1757  11.118  -0.736   9.241  0.8914 -0.9945  0.1934
  738MOL0     N 1758  11.016  -0.799   9.184 -0.2331 -0.3411 -0.7412
  738MOL0     C 1759  10.076  -0.290   8.552  0.0191  0.6230 -0.3948
  738MOL0     C 1760   9.956  -0.251   8.492 -0.1373  0.3056  0.2080
  738MOL0     C 1761   9.614   0.048   8.396 -0.3803 -0.1791 -0.8894
  738MOL0     C 1762   9.501  -0.036   8.370 -0.1827 -0.8393 -0.9360
  738MOL0     C 1763   9.377   0.028   8.340 -0.4442  0.3546 -0.3831
  738MOL0     C 1764   9.361   0.165   8.319 -0.0667 -0.2516 -0.0919
  738MOL0     O 1765   9.243   0.224   8.292  0.4414 -0.9322 -0.1533
  738MOL0     C 1766   9.144   0.144   8.233 -0.4211  0.5744  0.5349
  738MOL0     C 1767   9.032   0.238   8.197 -0.7354  0.1826 -0.1678
  738MOL0     C 1768   8.933   0.256   8.310  1.1731  0.4089 -1.1725
  738MOL0     C 1769   8.811   0.337   8.267 -0.2106 -0.8790  0.0267
  738MOL0     C 1770   8.709   0.373   8.375  0.3184 -0.2117  0.6715
  738MOL0     C 1771   8.627   0.420   8.457  0.0564 -0.6785 -0.0014
  738MOL0     C 1772   9.479   0.247   8.355  1.0280  0.2779 -0.4709
  738MOL0     C 1773   9.601   0.189   8.378  1.0814 -0.4587 -0.6599
  738MOL0     C 1774   9.711   0.279   8.429  0.9050  0.0714  0.0211
  738MOL0     H 1775   9.803  -0.110   8.762  1.2876  1.6927 -0.3353
  738MOL0     H 1776  10.020  -0.163   8.856 -1.3200 -2.8461 -0.3641
  738MOL0     H 1777  10.373  -0.240   8.611  0.5329 -1.8525 -1.9276
  738MOL0     H 1778  10.321  -0.406   8.602 -2.0300 -0.8759  1.2472
  738MOL0     H 1779  10.540  -0.384   8.708  0.4257  0.7960 -1.4779
  738MOL0     H 1780  10.462  -0.291   8.842 -0.1036  0.6571 -1.9067
  738MOL0     H 1781  10.301  -0.513   8.864  1.0720  0.9180  2.3856
  738MOL0     H 1782  10.396  -0.583   8.752 -2.3946  1.0810 -2.3149
  738MOL0     H 1783  10.593  -0.584   8.890  1.0954 -2.4768  2.2697
  738MOL0     H 1784  10.525  -0.443   8.985  0.8461  0.4759 -2.4013
  738MOL0     H 1785  10.377  -0.694   8.999  0.4537 -0.2341 -0.5556
  738MOL0     H 1786  10.415  -0.586   9.130  2.1057 -0.4245  0.1070
  738MOL0     H 1787  10.504  -0.813   9.158  0.0226 -1.2871 -0.1989
  738MOL0     H 1788  10.584  -0.801   9.012 -1.7549  0.7881 -1.5706
  738MOL0     H 1789  10.639  -0.630   9.269 -0.5936  0.9248 -0.6142
  738MOL0     H 1790  10.722  -0.603   9.111  1.4532 -2.4277 -0.4538
  738MOL0     H 1791  10.734  -0.844   9.286 -0.9134  0.7771  0.0560
  738MOL0     H 1792  10.771  -0.854   9.112  0.4038  0.9310 -0.0299
  738MOL0     H 1793  10.863  -0.577   9.376 -0.4108  1.4878 -0.3722
  738MOL0     H 1794  11.111  -0.431   9.356 -3.3146 -2.2881 -1.6286
  738MOL0     H 1795  11.241  -0.542   9.358 -0.1353  2.3952  0.2353
  738MOL0     H 1796  11.032  -0.512   9.577  0.1447 -0.2672  0.7234
  738MOL0     H 1797  11.159  -0.644   9.564  4.4354  1.3812 -1.6010
  738MOL0     H 1798  11.202  -0.336   9.595  0.6192 -0.0293  1.6247
  738MOL0     H 1799  11.238  -0.464   9.720 -0.4943  1.3968  0.1165
  738MOL0     H 1800  11.378  -0.422   9.459  0.7173  1.0034  0.2726
  738MOL0     H 1801  11.440  -0.385   9.619 -1.4540  1.8971 -0.9086
  738MOL0     H 1802  11.602  -0.427   9.467 -0.8971 -0.9069  0.7431
  738MOL0     H 1803  11.760  -0.474   9.152 -1.1091 -0.2479  0.4556
  738MOL0     H 1804  11.866  -0.436   9.287 -0.0505  2.6488  0.2098
  738MOL0     H 1805  11.704  -0.362   9.278 -0.0220  0.2124 -0.9067
  738MOL0     H 1806  11.862  -0.656   8.920  0.4985  0.1166  0.6367
  738MOL0     H 1807  12.032  -0.682   8.733 -0.7001 -0.9014 -0.6355
  738MOL0     H 1808  12.444  -0.802   8.696  0.8497  0.6673  2.1688
  738MOL0     H 1809  12.398  -0.902   8.835 -1.1063  3.0664  1.5204
  738MOL0     H 1810  12.410  -1.057   8.636  0.5704 -0.3387  2.8301
  738MOL0     H 1811  12.239  -1.043   8.693 -1.4112  1.0693  0.2484
  738MOL0     H 1812  12.386  -0.918   8.456 -0.3562  0.4614 -0.1456
  738MOL0     H 1813  12.235  -0.844   8.506  1.8322  2.6827 -1.0757
  738MOL0     H 1814  12.123  -1.074   8.481  0.7690 -0.2703 -0.5208
  738MOL0     H 1815  12.277  -1.135   8.438 -0.9592 -0.6597  0.8390
  738MOL0     H 1816  12.157  -0.907   8.273  2.6691  1.0397 -0.7635
  738MOL0     H 1817  12.288  -1.002   8.232  1.9599  1.0714  2.4819
  738MOL0     H 1818  12.010  -1.129   8.268 -0.6488 -1.5440 -1.3046
  738MOL0     H 1819  12.155  -1.204   8.211  2.1569  0.4096 -1.4623
  738MOL0     H 1820  12.171  -1.032   8.015  0.4892  2.6940  0.9667
  738MOL0     H 1821  12.001  -0.983   8.059  0.1545  0.0452  0.9220
  738MOL0     H 1822  11.955  -1.157   7.900 -0.5469  0.8398  1.0675
  738MOL0     H 1823  11.932  -1.223   8.060 -0.8033  0.0430  0.0528
  738MOL0     H 1824  12.305  -0.835   9.007  0.6378  3.5960  0.8750
  738MOL0     H 1825  12.163  -0.801   9.200 -1.0548  0.4140  0.4357
  738MOL0     H 1826  11.655  -0.908   9.357  3.4554  1.5910 -2.0017
  738MOL0     H 1827  11.478  -0.823   9.540  0.9479 -1.5309 -0.4334
  738MOL0     H 1828  10.137  -0.363   8.501 -1.3488 -0.3203 -0.7161
  738MOL0     H 1829   9.933  -0.281   8.390 -0.7980  1.1948  0.0856
  738MOL0     H 1830   9.516  -0.139   8.400  0.9259 -0.5709 -0.5036
  738MOL0     H 1831   9.291  -0.039   8.339 -1.9525  2.1989  0.0509
  738MOL0     H 1832   9.188   0.106   8.141 -0.1345 -0.6362  1.1406
  738MOL0     H 1833   9.105   0.062   8.295 -0.9014 -0.8895 -1.5801
  738MOL0     H 1834   8.981   0.195   8.110 -2.1267 -0.4468  0.9127
  738MOL0     H 1835   9.075   0.334   8.165 -0.8759  0.9107  1.7418
  738MOL0     H 1836   8.898   0.158   8.343  0.3788  1.5987  1.8838
  738MOL0     H 1837   8.989   0.300   8.394 -1.0926  2.1824 -0.4733
  738MOL0     H 1838   8.768   0.290   8.179  0.6045 -1.4633 -0.0783
  738MOL0     H 1839   8.861   0.429   8.233 -1.0567  0.6849  2.6557
  738MOL0     H 1840   8.556   0.470   8.520 -0.3612  1.3047 -1.9350
  738MOL0     H 1841   9.463   0.354   8.359 -3.3355 -0.1895  2.1019
  738MOL0     H 1842   9.802   0.271   8.368  0.4529  0.5785 -0.7379
  738MOL0     H 1843   9.675   0.381   8.411  0.6165 -0.5726 -3.9109
  738MOL0     H 1844   9.735   0.266   8.535  0.7115 -1.5859 -0.1155
  739MOL0     O 1845   2.903   3.630   3.572  0.5097 -0.1326  0.2478
  739MOL0     C 1846   2.981   3.555   3.536  0.2162  0.1534 -0.0771
  739MOL0     O 1847   2.984   3.426   3.571 -0.4928  0.4124  0.3221
  739MOL0     C 1848   2.872   3.382   3.644  1.3962 -0.4771  0.9871
  739MOL0     C 1849   2.746   3.353   3.593  0.0695  0.3078 -0.3529
  739MOL0     C 1850   2.645   3.302   3.683  0.7395 -0.3163  0.2475
  739MOL0     C 1851   2.661   3.287   3.814  0.9259  0.2215 -0.2070
  739MOL0     O 1852   2.581   3.220   3.905  0.8471  0.4757 -0.1425
  739MOL0     C 1853   2.443   3.182   3.882 -0.0210  0.0691 -0.3092
  739MOL0     C 1854   2.390   3.099   3.994  0.1732  1.3159 -0.1975
  739MOL0     C 1855   2.257   3.056   3.950 -0.5849 -0.0275 -0.1287
  739MOL0     C 1856   2.211   2.959   4.055  0.8328 -0.4462  0.0420
  739MOL0     C 1857   2.095   2.869   4.018 -0.2364 -1.5310  0.2973
  739MOL0     C 1858   1.977   2.956   3.958  1.2589  0.5060 -0.8325
  739MOL0     C 1859   1.857   2.866   3.922  0.8816  1.2315  0.1505
  739MOL0     C 1860   1.884   2.739   3.841 -0.2518 -1.0986 -0.3647
  739MOL0     N 1861   1.936   2.782   3.710 -0.5886 -0.0160 -0.4854
  739MOL0     C 1862   2.059   2.825   3.674 -0.9154 -0.5074  0.2798
  739MOL0     C 1863   2.043   2.890   3.555  0.0890  0.2404  0.1144
  739MOL0     C 1864   2.159   2.957   3.475  0.5981 -0.2609 -0.7669
  739MOL0     C 1865   2.131   2.989   3.326 -1.1419 -0.1465 -0.5602
  739MOL0     C 1866   2.127   2.869   3.237 -0.1654  0.0036 -0.3415
  739MOL0     C 1867   2.261   2.790   3.221  0.3234  0.5290  0.1294
  739MOL0     O 1868   2.382   2.873   3.230  0.6326 -0.0655 -0.7393
  739MOL0     C 1869   2.462   2.873   3.115 -0.3844 -1.1472  0.0348
  739MOL0     C 1870   2.435   2.961   3.008  0.3877  0.6530  0.8442
  739MOL0     C 1871   2.513   2.971   2.896  0.0995 -0.5845 -1.0281
  739MOL0     C 1872   2.484   3.077   2.791  0.0781  0.3261 -0.6849
  739MOL0     C 1873   2.626   2.884   2.888 -0.0207  0.2132 -0.2091
  739MOL0     C 1874   2.734   2.891   2.784  0.5244  0.1801  0.2112
  739MOL0     O 1875   2.856   2.835   2.812 -0.2202  0.5612  0.6988
  739MOL0     C 1876   2.963   2.841   2.727 -1.1024  0.1863 -0.2530
  739MOL0     C 1877   2.986   2.936   2.640 -0.7614 -0.0535 -0.0977
  739MOL0     C 1878   3.093   2.930   2.556  0.0862 -0.2728  0.1249
  739MOL0     C 1879   3.167   2.815   2.539  0.0523  0.9275  0.3865
  739MOL0     O 1880   3.265   2.807   2.449  0.6623  0.1907  0.0885
  739MOL0     C 1881   3.249   2.704   2.354 -0.5220  0.3971 -0.1410
  739MOL0     C 1882   3.363   2.715   2.249  0.7218 -0.0942  1.1726
  739MOL0     C 1883   3.341   2.840   2.158 -0.1704  0.5755 -0.2300
  739MOL0     C 1884   3.409   2.836   2.023  0.1724  0.5968 -0.0565
  739MOL0     C 1885   3.336   2.920   1.917 -0.1703  0.0417  0.7023
  739MOL0     C 1886   3.401   2.917   1.779 -0.7402 -0.7554  0.3309
  739MOL0     C 1887   3.539   2.989   1.773  0.2734  0.3659  0.1619
  739MOL0     C 1888   3.539   3.096   1.660 -0.1886  0.0135 -0.1868
  739MOL0    Cl 1889   3.430   3.233   1.696  0.1470 -0.2363  0.2320
  739MOL0     C 1890   3.142   2.712   2.622  0.2927 -0.7605 -0.1489
  739MOL0     C 1891   3.043   2.729   2.714  0.4979 -0.2169  0.0652
  739MOL0     O 1892   2.693   2.934   2.673 -0.3598 -0.0369 -0.5551
  739MOL0     C 1893   2.645   2.788   2.992  0.0402  0.8703 -0.2928
  739MOL0     C 1894   2.559   2.778   3.104  0.6591  0.1149  0.5079
  739MOL0     N 1895   1.908   2.896   3.530  0.3188 -0.4535 -0.1075
  739MOL0     N 1896   1.846   2.828   3.619  0.1139 -1.2317  0.0289
  739MOL0     C 1897   2.785   3.332   3.864 -1.0044 -0.7347 -0.0603
  739MOL0     C 1898   2.891   3.369   3.780  1.0138  0.4414 -0.6870
  739MOL0     C 1899   3.088   3.597   3.456 -0.3933  0.2079  1.0789
  739MOL0     C 1900   3.215   3.524   3.456  0.7467  0.2921 -0.2809
  739MOL0     C 1901   3.317   3.559   3.379 -0.8782 -0.5396 -0.4024
  739MOL0     C 1902   3.308   3.664   3.291  0.1470  0.3461 -0.0971
  739MOL0     O 1903   3.420   3.694   3.216  0.1963  0.5709  0.3005
  739MOL0     C 1904   3.447   3.836   3.185 -1.4175  0.0340 -0.0653
  739MOL0     C 1905   3.546   3.860   3.068 -0.3275 -0.3346  0.2252
  739MOL0     C 1906   3.500   3.825   2.919 -0.3476  0.0125  0.0653
  739MOL0     C 1907   3.602   3.881   2.819 -0.6014 -0.1247 -0.2363
  739MOL0     C 1908   3.745   3.858   2.839  0.6394 -0.2193  0.8786
  739MOL0     C 1909   3.868   3.827   2.840  0.0902  0.0678 -0.4148
  739MOL0     C 1910   3.185   3.731   3.274 -0.1848  0.0523  0.2198
  739MOL0     C 1911   3.071   3.702   3.360 -0.6173  0.4198 -0.3827
  739MOL0     C 1912   2.951   3.794   3.352  0.0805 -0.0925  0.9001
  739MOL0     H 1913   2.726   3.359   3.486 -0.5493 -0.0294 -0.2614
  739MOL0     H 1914   2.551   3.267   3.644  0.6092  0.0459  0.2273
  739MOL0     H 1915   2.427   3.138   3.783 -0.1874 -1.5568  0.4175
  739MOL0     H 1916   2.386   3.275   3.888  2.4954  1.6554  0.5281
  739MOL0     H 1917   2.456   3.013   4.007 -2.6298 -0.7737  1.5226
  739MOL0     H 1918   2.376   3.136   4.096  0.6136  3.2468 -0.8052
  739MOL0     H 1919   2.183   3.135   3.941 -1.9888 -1.4775 -2.6734
  739MOL0     H 1920   2.263   3.009   3.851  0.7962  3.6561 -2.0003
  739MOL0     H 1921   2.289   2.898   4.100  0.9373 -1.2377 -1.1695
  739MOL0     H 1922   2.169   3.015   4.139 -0.2578 -0.6798 -0.3329
  739MOL0     H 1923   2.049   2.817   4.103  1.7017  0.6596  2.8339
  739MOL0     H 1924   2.135   2.797   3.945 -3.1378 -1.3740 -1.6163
  739MOL0     H 1925   1.948   3.036   4.026 -0.9346 -0.6940 -0.2636
  739MOL0     H 1926   2.017   3.019   3.877  1.6980 -1.4294 -2.2040
  739MOL0     H 1927   1.791   2.935   3.869 -2.0736 -2.0781 -0.8812
  739MOL0     H 1928   1.805   2.835   4.012 -0.6933  0.0854 -1.0895
  739MOL0     H 1929   1.954   2.672   3.892 -0.7064 -1.2745  0.0349
  739MOL0     H 1930   1.787   2.688   3.835 -0.1806 -1.1915 -0.7343
  739MOL0     H 1931   2.150   2.799   3.727 -0.2257 -1.6910 -1.3779
  739MOL0     H 1932   2.246   2.892   3.484  0.4361 -0.2465  1.6051
  739MOL0     H 1933   2.188   3.048   3.529  0.0102 -0.1774 -0.5843
  739MOL0     H 1934   2.041   3.051   3.321 -0.7047  0.6604  0.9516
  739MOL0     H 1935   2.213   3.048   3.283  0.5659 -0.6131  1.8199
  739MOL0     H 1936   2.044   2.805   3.270 -0.6218  1.4534  1.5203
  739MOL0     H 1937   2.096   2.905   3.138  1.5921 -1.6320 -1.5546
  739MOL0     H 1938   2.258   2.728   3.311  0.1133  3.3733  2.2188
  739MOL0     H 1939   2.246   2.731   3.130  0.6589  0.0863  0.3567
  739MOL0     H 1940   2.350   3.028   3.017  0.2432  0.8213 -1.2616
  739MOL0     H 1941   2.435   3.033   2.703 -2.5118 -1.4960  1.4842
  739MOL0     H 1942   2.584   3.118   2.776  0.0260  0.7529  0.1126
  739MOL0     H 1943   2.418   3.153   2.832 -0.5907 -1.3161  1.4481
  739MOL0     H 1944   2.922   3.024   2.644  1.0989  1.3713 -0.5409
  739MOL0     H 1945   3.115   3.014   2.491  0.4632 -0.3295  0.1757
  739MOL0     H 1946   3.253   2.612   2.414  1.7578  0.3367 -0.3071
  739MOL0     H 1947   3.156   2.720   2.299 -2.7639 -3.4678  2.0665
  739MOL0     H 1948   3.459   2.726   2.300  1.2090  0.7315  0.1229
  739MOL0     H 1949   3.363   2.622   2.192 -3.4877 -0.0162  0.7595
  739MOL0     H 1950   3.369   2.929   2.216  1.4686 -0.1739  0.1883
  739MOL0     H 1951   3.235   2.855   2.136 -0.2279  3.5343  1.4037
  739MOL0     H 1952   3.414   2.731   1.992 -4.4376  0.3571 -0.6461
  739MOL0     H 1953   3.515   2.862   2.031  0.4399 -0.8326  1.4465
  739MOL0     H 1954   3.233   2.883   1.914 -0.3495  0.4827  1.2837
  739MOL0     H 1955   3.321   3.023   1.951  0.8494  0.5400 -0.3025
  739MOL0     H 1956   3.333   2.976   1.716 -0.0816 -0.3502 -0.0210
  739MOL0     H 1957   3.420   2.816   1.743  3.9975  0.9774 -3.0946
  739MOL0     H 1958   3.614   2.910   1.756 -1.7269 -1.7220  0.5289
  739MOL0     H 1959   3.563   3.034   1.869  0.4286  0.3796  0.1174
  739MOL0     H 1960   3.506   3.048   1.567 -0.7164  1.1548 -0.5968
  739MOL0     H 1961   3.640   3.133   1.640 -0.2063  0.1034 -0.1072
  739MOL0     H 1962   3.194   2.616   2.626 -0.8134 -1.3292  1.8443
  739MOL0     H 1963   3.041   2.646   2.784  0.1212  0.1164  0.4548
  739MOL0     H 1964   2.718   2.708   2.983  0.4959  1.1252  0.8290
  739MOL0     H 1965   2.582   2.708   3.184  0.9994 -0.9855 -0.5279
  739MOL0     H 1966   2.785   3.318   3.971  0.4801 -0.6314 -0.0281
  739MOL0     H 1967   2.986   3.392   3.828  0.3863  1.6478  0.0337
  739MOL0     H 1968   3.229   3.440   3.523  1.3634  1.4668  1.1323
  739MOL0     H 1969   3.408   3.500   3.387 -0.3846  0.3498  0.7159
  739MOL0     H 1970   3.358   3.895   3.162  0.6564  2.5679 -2.3052
  739MOL0     H 1971   3.494   3.880   3.273 -0.1313  0.1089 -0.7653
  739MOL0     H 1972   3.637   3.802   3.086 -0.4912 -1.3330 -1.7640
  739MOL0     H 1973   3.576   3.964   3.079  0.8003 -0.4306 -1.4931
  739MOL0     H 1974   3.501   3.716   2.915 -0.0728  0.0408 -1.1967
  739MOL0     H 1975   3.398   3.853   2.891 -1.0434  0.9163  3.1021
  739MOL0     H 1976   3.582   3.989   2.823  2.1954  0.4236  1.4519
  739MOL0     H 1977   3.571   3.836   2.724 -0.2236 -1.2421  0.1507
  739MOL0     H 1978   3.970   3.796   2.824  0.1753  0.4998 -0.7367
  739MOL0     H 1979   3.164   3.799   3.192 -2.1135 -2.9917 -2.0668
  739MOL0     H 1980   2.958   3.854   3.260 -0.9156 -0.7237  0.3908
  739MOL0     H 1981   2.853   3.745   3.352  0.8646 -1.6901  0.9193
  739MOL0     H 1982   2.953   3.858   3.441  2.6403 -1.7480  2.1303
  740MOL0     O 1983   1.884   8.370   6.030  0.0737  0.5427  0.3146
  740MOL0     C 1984   1.946   8.436   5.944 -0.4585  1.2881 -0.1639
  740MOL0     O 1985   1.963   8.575   5.958 -0.5794 -0.6627  0.5003
  740MOL0     C 1986   1.864   8.654   6.013 -0.0980  0.3313  0.7353
  740MOL0     C 1987   1.906   8.756   6.102 -0.2440  0.4458  1.0104
  740MOL0     C 1988   1.808   8.833   6.166  0.2394 -0.6726 -0.2020
  740MOL0     C 1989   1.671   8.798   6.165  0.2863 -0.2973 -0.1091
  740MOL0     O 1990   1.573   8.876   6.223 -0.1782  0.1911  0.4348
  740MOL0     C 1991   1.583   8.940   6.343 -1.0090  0.2982 -0.3411
  740MOL0     C 1992   1.452   8.991   6.402  0.1012  1.1822 -0.3875
  740MOL0     C 1993   1.388   9.105   6.316  0.4350  0.5170  0.8084
  740MOL0     C 1994   1.266   9.161   6.385  0.6520  0.0824 -0.5356
  740MOL0     C 1995   1.190   9.274   6.307  0.4263 -1.0488 -0.9630
  740MOL0     C 1996   1.109   9.244   6.176  0.8074 -0.3803 -0.2205
  740MOL0     C 1997   1.045   9.376   6.125 -0.4292  0.3176  0.1896
  740MOL0     C 1998   0.996   9.352   5.976  0.0354  0.4064 -0.3515
  740MOL0     N 1999   1.105   9.343   5.880 -0.0986  0.4378 -0.1016
  740MOL0     C 2000   1.171   9.447   5.810 -0.2787 -0.7321  0.1821
  740MOL0     C 2001   1.271   9.394   5.731  0.2892  0.1849  0.9748
  740MOL0     C 2002   1.373   9.459   5.633 -0.4413  0.1621  0.1828
  740MOL0     C 2003   1.291   9.486   5.511 -0.4475 -0.1890  0.3621
  740MOL0     C 2004   1.365   9.558   5.394  0.2396 -0.0283  0.5073
  740MOL0     C 2005   1.280   9.569   5.262  0.1665  0.6597  0.5697
  740MOL0     O 2006   1.152   9.630   5.284 -0.0415  0.0699  0.2197
  740MOL0     C 2007   1.059   9.590   5.190 -0.3325  0.1765  0.2449
  740MOL0     C 2008   0.962   9.495   5.228  0.0205  0.1089 -0.5495
  740MOL0     C 2009   0.878   9.444   5.132 -1.0915  0.6240  1.2446
  740MOL0     C 2010   0.795   9.341   5.189  0.7162  0.5901  0.6204
  740MOL0     C 2011   0.876   9.487   4.998  0.0844 -1.4256  0.2000
  740MOL0     C 2012   0.782   9.435   4.889 -0.0653  0.5230  0.1941
  740MOL0     O 2013   0.747   9.294   4.895  0.0887  0.7115 -0.4207
  740MOL0     C 2014   0.670   9.247   4.792  0.5528  0.1647 -0.3498
  740MOL0     C 2015   0.548   9.191   4.832  0.5032 -0.7068  0.4259
  740MOL0     C 2016   0.454   9.146   4.734 -0.3572  0.5223  0.5648
  740MOL0     C 2017   0.483   9.168   4.597 -0.4034 -0.6225  0.5579
  740MOL0     O 2018   0.410   9.124   4.491 -0.0044  0.6230 -0.2999
  740MOL0     C 2019   0.270   9.141   4.478  0.8826 -0.0021  0.4172
  740MOL0     C 2020   0.239   9.290   4.479 -0.0499 -0.9943  0.7483
  740MOL0     C 2021   0.188   9.353   4.614  0.2384 -0.4886 -0.1608
  740MOL0     C 2022   0.046   9.310   4.652 -0.2470 -0.8285  0.8289
  740MOL0     C 2023   0.007   9.350   4.801  0.1668  0.7078  0.2361
  740MOL0     C 2024  -0.123   9.278   4.838 -0.0982  0.2654 -0.3499
  740MOL0     C 2025  -0.160   9.313   4.983 -0.6038 -0.1268  0.6238
  740MOL0     C 2026  -0.294   9.247   5.030  0.4120 -0.5967 -0.4006
  740MOL0    Cl 2027  -0.435   9.308   4.937 -0.0140  0.1359  0.4034
  740MOL0     C 2028   0.611   9.218   4.569 -0.1378  0.1213 -0.3888
  740MOL0     C 2029   0.702   9.254   4.659 -0.0562  0.7315  0.0667
  740MOL0     O 2030   0.729   9.527   4.821  0.1781  0.6553  0.2301
  740MOL0     C 2031   0.970   9.586   4.962 -1.0947 -0.4584 -0.3399
  740MOL0     C 2032   1.063   9.633   5.057 -0.0204  0.5264  0.1522
  740MOL0     N 2033   1.260   9.252   5.756  0.8478 -0.3753  0.0139
  740MOL0     N 2034   1.163   9.229   5.837  0.5331  0.5159 -0.0279
  740MOL0     C 2035   1.636   8.706   6.067 -0.9908  0.1360 -0.7953
  740MOL0     C 2036   1.728   8.630   5.988  0.0470  0.0115 -0.6779
  740MOL0     C 2037   2.042   8.373   5.862 -0.2033 -0.0508  1.3516
  740MOL0     C 2038   2.165   8.433   5.829 -0.3916  0.7829  0.1034
  740MOL0     C 2039   2.260   8.373   5.743  0.2575  0.1971  1.0916
  740MOL0     C 2040   2.232   8.254   5.676  0.0219 -0.4914 -0.7401
  740MOL0     O 2041   2.340   8.187   5.616  1.0793 -0.1485 -0.0377
  740MOL0     C 2042   2.322   8.060   5.552 -0.0641  0.4786  0.1875
  740MOL0     C 2043   2.454   7.997   5.499  0.5017 -0.8980  0.6340
  740MOL0     C 2044   2.452   7.845   5.472  0.5073  0.0058 -0.5299
  740MOL0     C 2045   2.391   7.811   5.333  0.2273 -0.0737 -0.5023
  740MOL0     C 2046   2.486   7.845   5.224 -0.3221  0.0406 -0.9406
  740MOL0     C 2047   2.579   7.864   5.154 -0.5010  0.4433  0.0900
  740MOL0     C 2048   2.107   8.196   5.693 -0.8356 -0.0794 -0.0458
  740MOL0     C 2049   2.017   8.254   5.784  0.1313  0.1378  1.2054
  740MOL0     C 2050   1.876   8.185   5.779 -0.5819  0.5137  0.5728
  740MOL0     H 2051   2.012   8.774   6.118 -0.8361  2.1730  3.7996
  740MOL0     H 2052   1.847   8.901   6.240 -0.7691 -3.0287  2.7161
  740MOL0     H 2053   1.658   9.018   6.328 -2.0664  1.1010 -1.6589
  740MOL0     H 2054   1.633   8.879   6.419 -1.0786 -0.1562 -0.6586
  740MOL0     H 2055   1.381   8.908   6.407  0.0187  1.3215  1.3378
  740MOL0     H 2056   1.482   9.021   6.503 -0.4568  0.3662  0.0269
  740MOL0     H 2057   1.456   9.182   6.281 -0.8661  0.7950 -1.3050
  740MOL0     H 2058   1.340   9.058   6.229 -0.9614 -0.4863  2.0540
  740MOL0     H 2059   1.187   9.086   6.402 -0.3603  0.6692 -2.3819
  740MOL0     H 2060   1.297   9.201   6.482 -1.3326  2.4001 -0.7733
  740MOL0     H 2061   1.261   9.357   6.295  3.2406 -3.0481  0.6267
  740MOL0     H 2062   1.107   9.316   6.366  0.0020 -1.3200 -1.3596
  740MOL0     H 2063   1.176   9.207   6.098  2.0332  2.7447 -0.8260
  740MOL0     H 2064   1.035   9.166   6.193  1.5051 -0.7079  1.5409
  740MOL0     H 2065   1.125   9.449   6.106 -0.3155 -0.2671 -1.8142
  740MOL0     H 2066   0.979   9.421   6.199  0.0455 -0.4610  1.1122
  740MOL0     H 2067   0.931   9.264   5.970  0.3015  0.2899 -3.1874
  740MOL0     H 2068   0.941   9.431   5.924  3.5780  1.4659 -2.9233
  740MOL0     H 2069   1.153   9.554   5.814  0.1476 -0.4778 -2.5402
  740MOL0     H 2070   1.461   9.396   5.624  0.3752  1.1662  0.9104
  740MOL0     H 2071   1.402   9.553   5.681 -1.1445 -0.1905  1.3481
  740MOL0     H 2072   1.233   9.403   5.470 -2.8934  2.2801 -1.5346
  740MOL0     H 2073   1.217   9.559   5.545  0.8207  1.0970  0.4384
  740MOL0     H 2074   1.408   9.655   5.424 -0.3991  0.6928 -0.8169
  740MOL0     H 2075   1.452   9.495   5.374  2.3885  3.2280 -1.3910
  740MOL0     H 2076   1.329   9.621   5.178  1.9449 -1.4865  0.1839
  740MOL0     H 2077   1.263   9.468   5.224  0.7837  1.1064 -1.0056
  740MOL0     H 2078   0.962   9.455   5.329 -3.1732  0.7337 -0.1870
  740MOL0     H 2079   0.765   9.354   5.293  0.7794  0.0450  0.7113
  740MOL0     H 2080   0.834   9.240   5.171  0.3158  0.4824  0.3429
  740MOL0     H 2081   0.700   9.340   5.135 -0.0474  2.8938  1.7825
  740MOL0     H 2082   0.524   9.186   4.938 -0.4756  0.2832  0.2651
  740MOL0     H 2083   0.360   9.104   4.768  0.3398 -0.3077  1.5311
  740MOL0     H 2084   0.234   9.107   4.381  1.4386 -0.5000  0.3795
  740MOL0     H 2085   0.207   9.082   4.545 -0.5102 -1.8707 -2.3377
  740MOL0     H 2086   0.320   9.350   4.437 -1.5652 -0.4797 -1.6444
  740MOL0     H 2087   0.158   9.300   4.407  1.4211 -2.0462 -1.1463
  740MOL0     H 2088   0.186   9.461   4.593 -1.7638 -0.6174 -0.7999
  740MOL0     H 2089   0.255   9.322   4.695 -3.6410 -2.5254  2.6047
  740MOL0     H 2090   0.034   9.201   4.650 -2.7726 -0.5897  0.5395
  740MOL0     H 2091  -0.019   9.355   4.577  1.3233  3.2271  1.6553
  740MOL0     H 2092   0.086   9.311   4.865 -1.0143 -4.5437 -1.0696
  740MOL0     H 2093  -0.019   9.455   4.819 -2.1083  0.0645  1.0506
  740MOL0     H 2094  -0.113   9.169   4.840  0.0631  0.2786 -0.3812
  740MOL0     H 2095  -0.203   9.302   4.767 -0.4735  1.7960  0.5576
  740MOL0     H 2096  -0.180   9.421   4.982 -0.7641 -0.0795 -2.5250
  740MOL0     H 2097  -0.075   9.283   5.045  1.4136  1.1389 -1.3591
  740MOL0     H 2098  -0.302   9.268   5.137  0.8809 -2.7158  0.1068
  740MOL0     H 2099  -0.294   9.137   5.026  0.1171 -0.6549  0.6906
  740MOL0     H 2100   0.638   9.216   4.463 -0.3112  0.4830 -0.4404
  740MOL0     H 2101   0.791   9.297   4.616  0.8660 -0.9521  0.1957
  740MOL0     H 2102   0.980   9.618   4.858 -2.1101 -0.7754 -0.5475
  740MOL0     H 2103   1.135   9.707   5.025  0.8473  0.0202  0.8742
  740MOL0     H 2104   1.529   8.693   6.058 -0.9244  0.7150 -3.1970
  740MOL0     H 2105   1.689   8.553   5.922 -0.3821  1.6073 -2.3431
  740MOL0     H 2106   2.191   8.524   5.883  0.2622 -0.3568  1.7768
  740MOL0     H 2107   2.356   8.422   5.734  0.5953 -0.8429 -2.0181
  740MOL0     H 2108   2.262   7.990   5.611 -0.7470 -0.4146 -1.4938
  740MOL0     H 2109   2.258   8.080   5.465 -1.0810  1.3808  1.1094
  740MOL0     H 2110   2.524   8.019   5.580  1.1404  1.5821 -0.5126
  740MOL0     H 2111   2.492   8.045   5.409  3.8977  0.9364  2.8091
  740MOL0     H 2112   2.557   7.816   5.464  0.6953  0.9372 -1.6722
  740MOL0     H 2113   2.395   7.793   5.550  0.2687 -1.6828 -1.7768
  740MOL0     H 2114   2.289   7.852   5.329 -1.0591 -3.0656 -0.9569
  740MOL0     H 2115   2.378   7.703   5.343 -0.2624  0.0538  0.3543
  740MOL0     H 2116   2.668   7.876   5.095 -0.7698  0.0041 -0.4059
  740MOL0     H 2117   2.079   8.095   5.664 -0.8473  0.1052 -0.6973
  740MOL0     H 2118   1.804   8.223   5.852 -0.1803  1.0160  0.7134
  740MOL0     H 2119   1.824   8.213   5.687 -4.7694 -1.1067  2.1747
  740MOL0     H 2120   1.878   8.076   5.790 -3.8705  0.0664 -1.7074
  741MOL0     O 2121  10.750   6.961   5.190  0.3569  0.3327  0.0428
  741MOL0     C 2122  10.655   6.940   5.262  1.2553 -0.1600 -0.2648
  741MOL0     O 2123  10.645   6.982   5.387  0.0072  0.6760 -0.7645
  741MOL0     C 2124  10.758   7.030   5.458 -0.0858 -0.4128  0.5887
  741MOL0     C 2125  10.884   6.977   5.446  0.0499  0.0474 -0.2661
  741MOL0     C 2126  10.994   7.041   5.502 -0.6426  0.9909  0.0550
  741MOL0     C 2127  10.978   7.149   5.588 -0.0665  0.3661 -0.5720
  741MOL0     O 2128  11.086   7.221   5.645  1.1379 -0.0055 -0.3663
  741MOL0     C 2129  11.218   7.185   5.608 -0.6142  0.3691 -0.0527
  741MOL0     C 2130  11.279   7.083   5.707 -0.1350 -0.5586 -0.2206
  741MOL0     C 2131  11.429   7.047   5.704  0.2372  0.8212 -0.4818
  741MOL0     C 2132  11.448   6.916   5.782 -1.4397 -0.3864  1.0786
  741MOL0     C 2133  11.599   6.867   5.769  0.5207  0.1161  0.3489
  741MOL0     C 2134  11.702   6.970   5.797 -0.1472  0.0475 -0.2232
  741MOL0     C 2135  11.840   6.909   5.804 -0.4569  0.5857 -0.8542
  741MOL0     C 2136  11.933   7.022   5.831  0.0678 -0.7810  0.1455
  741MOL0     N 2137  12.082   6.985   5.801  0.0983 -0.7630  0.5220
  741MOL0     C 2138  12.179   7.012   5.891 -0.3384 -0.7883 -0.2652
  741MOL0     C 2139  12.289   6.962   5.832 -0.0463  0.2401  0.1389
  741MOL0     C 2140  12.430   6.975   5.888  0.0038 -0.1146  0.1662
  741MOL0     C 2141  12.540   7.037   5.793  0.4817  0.6258 -1.4194
  741MOL0     C 2142  12.675   6.991   5.830  0.1634  0.1257  0.5981
  741MOL0     C 2143  12.737   7.067   5.937 -0.9511 -0.0671 -0.0064
  741MOL0     O 2144  12.874   7.033   5.936  0.1866 -0.1364 -0.5336
  741MOL0     C 2145  12.974   7.121   5.973 -0.2506  0.2118 -1.1626
  741MOL0     C 2146  12.957   7.251   6.027  0.5709 -0.0762  0.7102
  741MOL0     C 2147  13.059   7.335   6.073  0.3394  0.3767 -0.2264
  741MOL0     C 2148  13.027   7.469   6.133 -0.2657  0.3377 -0.0505
  741MOL0     C 2149  13.192   7.278   6.073  0.0522 -0.0253 -0.5315
  741MOL0     C 2150  13.315   7.357   6.119  0.6826  0.3072  1.0211
  741MOL0     O 2151  13.435   7.304   6.088  0.2150  0.0444  0.0682
  741MOL0     C 2152  13.548   7.371   6.113  0.0233 -0.2249 -0.6622
  741MOL0     C 2153  13.573   7.516   6.114 -0.1112  0.8888 -0.3766
  741MOL0     C 2154  13.699   7.568   6.122  0.2291 -0.1906 -0.5296
  741MOL0     C 2155  13.808   7.483   6.140  0.1225  0.4323  0.5563
  741MOL0     O 2156  13.936   7.515   6.160  0.0934  0.1398  0.1912
  741MOL0     C 2157  13.986   7.644   6.121  0.4705  0.4641  0.7236
  741MOL0     C 2158  14.133   7.676   6.167 -0.5621  0.3943  0.5953
  741MOL0     C 2159  14.152   7.681   6.315 -0.8949  0.3734 -0.2476
  741MOL0     C 2160  14.300   7.672   6.353  0.0218 -0.5867  0.2529
  741MOL0     C 2161  14.309   7.662   6.504 -0.2998  0.2622 -0.3778
  741MOL0     C 2162  14.452   7.666   6.553 -0.1623 -0.5630  0.3639
  741MOL0     C 2163  14.471   7.677   6.706  0.7969  0.5999 -0.1518
  741MOL0     C 2164  14.429   7.546   6.775  0.3996 -0.5318 -0.4354
  741MOL0    Cl 2165  14.252   7.544   6.805 -0.3468 -0.5614  0.2960
  741MOL0     C 2166  13.781   7.346   6.141 -0.6872  0.3624 -1.5089
  741MOL0     C 2167  13.654   7.289   6.126 -0.6949 -0.7878 -0.7241
  741MOL0     O 2168  13.288   7.450   6.198  0.3339  0.0992 -0.1971
  741MOL0     C 2169  13.213   7.151   6.014  0.0313  0.6734  0.0863
  741MOL0     C 2170  13.108   7.068   5.976  0.1940  0.6738 -0.4612
  741MOL0     N 2171  12.250   6.901   5.711  0.0342 -0.8951 -0.2988
  741MOL0     N 2172  12.126   6.906   5.700  0.3007  0.3392 -0.4445
  741MOL0     C 2173  10.853   7.203   5.601  0.6938  0.1673  0.1363
  741MOL0     C 2174  10.741   7.150   5.535 -0.8285  0.7240  0.3741
  741MOL0     C 2175  10.536   6.862   5.211 -0.2041  0.5971 -0.3153
  741MOL0     C 2176  10.456   6.821   5.314  0.3413 -0.5494  0.0414
  741MOL0     C 2177  10.338   6.742   5.294 -0.2823 -0.3015 -0.6812
  741MOL0     C 2178  10.295   6.718   5.154  0.3656  0.3727 -0.3182
  741MOL0     O 2179  10.179   6.659   5.116  0.6970  0.6398  0.0228
  741MOL0     C 2180  10.080   6.637   5.214 -0.4393 -1.1068  0.6209
  741MOL0     C 2181  10.107   6.500   5.287  0.1727 -0.1508  0.0341
  741MOL0     C 2182   9.999   6.474   5.399  0.0043  0.0044  0.1753
  741MOL0     C 2183   9.980   6.583   5.501 -0.1756  0.6863  0.9461
  741MOL0     C 2184   9.886   6.530   5.599  0.3494  0.1651 -0.7251
  741MOL0     C 2185   9.815   6.469   5.680  0.1641  0.3243 -0.1462
  741MOL0     C 2186  10.385   6.770   5.049  0.2512  0.0290 -0.5569
  741MOL0     C 2187  10.504   6.838   5.076  0.1754  0.1592  0.3288
  741MOL0     C 2188  10.579   6.885   4.953  0.3431  0.2358 -0.4242
  741MOL0     H 2189  10.891   6.892   5.380  1.3461 -0.1458  0.0919
  741MOL0     H 2190  11.088   6.997   5.470 -1.2874 -1.3959  1.2178
  741MOL0     H 2191  11.279   7.276   5.616  1.0164 -0.5660 -1.2034
  741MOL0     H 2192  11.226   7.155   5.503  1.5420  1.6935 -0.3394
  741MOL0     H 2193  11.271   7.129   5.806 -2.6409 -2.8150  0.7555
  741MOL0     H 2194  11.211   6.997   5.713 -0.6091 -0.0932  3.1680
  741MOL0     H 2195  11.455   7.023   5.600 -1.3364 -1.4465 -0.4186
  741MOL0     H 2196  11.487   7.132   5.741 -2.5232  3.1255 -1.1490
  741MOL0     H 2197  11.425   6.952   5.882  0.1950 -1.8229  2.0229
  741MOL0     H 2198  11.386   6.831   5.751  0.6949 -1.5826 -0.2405
  741MOL0     H 2199  11.618   6.826   5.669  1.8819  0.0632  0.6217
  741MOL0     H 2200  11.614   6.787   5.841  0.2547  0.0869  0.3756
  741MOL0     H 2201  11.702   7.048   5.721 -1.5587  1.3263  1.0296
  741MOL0     H 2202  11.685   7.015   5.895 -2.3509  0.5943 -0.8004
  741MOL0     H 2203  11.867   6.855   5.713 -0.7433  1.5020 -1.4866
  741MOL0     H 2204  11.847   6.837   5.887 -0.4864  0.3120 -1.0865
  741MOL0     H 2205  11.903   7.107   5.769  0.4125 -0.3622  0.5539
  741MOL0     H 2206  11.921   7.059   5.933  2.7871 -0.5566  0.4545
  741MOL0     H 2207  12.167   7.064   5.985  1.1990 -0.2497 -0.3483
  741MOL0     H 2208  12.462   6.878   5.926  1.2096 -0.2819 -1.1784
  741MOL0     H 2209  12.425   7.029   5.982 -0.2541  0.0490  0.0609
  741MOL0     H 2210  12.501   7.020   5.692 -1.0927  0.7411 -0.8642
  741MOL0     H 2211  12.532   7.144   5.810 -0.6979  0.2546  0.7834
  741MOL0     H 2212  12.675   6.885   5.856  3.2905 -0.4909 -1.4125
  741MOL0     H 2213  12.735   6.997   5.739 -1.2382  0.3126 -0.3354
  741MOL0     H 2214  12.732   7.171   5.904 -2.2349 -0.0833  0.0827
  741MOL0     H 2215  12.698   7.055   6.038 -0.2502 -0.8759  0.1774
  741MOL0     H 2216  12.860   7.298   6.035  1.5430  2.8885 -2.4078
  741MOL0     H 2217  13.029   7.470   6.242 -1.7622 -2.2686  0.0830
  741MOL0     H 2218  12.925   7.500   6.109  0.3212  3.5480  1.0923
  741MOL0     H 2219  13.093   7.548   6.096  1.5509 -1.3219 -0.4823
  741MOL0     H 2220  13.490   7.583   6.092 -0.2393  1.6196  1.9890
  741MOL0     H 2221  13.714   7.675   6.114  2.3455 -0.5712 -2.8472
  741MOL0     H 2222  13.976   7.650   6.012 -0.5897  1.4706  0.8530
  741MOL0     H 2223  13.926   7.730   6.152  1.8221  1.1884  1.4163
  741MOL0     H 2224  14.196   7.593   6.135 -3.0921 -1.5732  0.3914
  741MOL0     H 2225  14.172   7.766   6.119 -0.4106 -0.3061 -0.6160
  741MOL0     H 2226  14.097   7.599   6.362 -0.0279 -0.1443 -0.1250
  741MOL0     H 2227  14.104   7.770   6.358 -0.9335  0.4485 -0.4430
  741MOL0     H 2228  14.358   7.760   6.324  2.5223 -2.2870 -0.2244
  741MOL0     H 2229  14.354   7.593   6.301 -1.5437  0.2387 -2.8805
  741MOL0     H 2230  14.249   7.746   6.539 -0.7041 -0.1590 -0.0556
  741MOL0     H 2231  14.264   7.567   6.535  2.2205 -1.2050 -0.9339
  741MOL0     H 2232  14.506   7.750   6.508  0.2659 -0.1533  1.6153
  741MOL0     H 2233  14.500   7.573   6.519 -4.4108 -3.5216  1.6429
  741MOL0     H 2234  14.416   7.764   6.742  0.7672  1.6687 -2.6092
  741MOL0     H 2235  14.576   7.697   6.728  1.1449 -0.0719 -1.1120
  741MOL0     H 2236  14.471   7.525   6.874  1.3008 -1.4729 -0.9936
  741MOL0     H 2237  14.468   7.458   6.724  4.0292 -1.4548  3.3339
  741MOL0     H 2238  13.869   7.285   6.162 -0.8946  0.4991 -0.1490
  741MOL0     H 2239  13.638   7.182   6.111 -0.4187 -1.0797  0.8452
  741MOL0     H 2240  13.317   7.123   5.999 -0.1262 -0.3434  0.8015
  741MOL0     H 2241  13.129   6.963   5.957  0.9950 -0.1570  3.9545
  741MOL0     H 2242  10.847   7.303   5.641 -1.4446  1.0184 -2.0451
  741MOL0     H 2243  10.644   7.197   5.547 -0.8072  0.8098  0.2137
  741MOL0     H 2244  10.477   6.839   5.420  1.7420 -1.1897 -0.0946
  741MOL0     H 2245  10.268   6.717   5.373  0.3545 -0.6165 -0.2076
  741MOL0     H 2246  10.075   6.719   5.286  1.6391  1.6194 -2.0917
  741MOL0     H 2247   9.984   6.625   5.162 -0.8015 -1.4030  1.3369
  741MOL0     H 2248  10.207   6.499   5.332  1.0417  0.2354 -1.8196
  741MOL0     H 2249  10.107   6.420   5.213 -0.7189  0.6714 -0.8940
  741MOL0     H 2250   9.899   6.456   5.358  1.0025 -2.3529 -1.4220
  741MOL0     H 2251  10.032   6.383   5.449 -2.4381 -2.6167 -2.5732
  741MOL0     H 2252   9.962   6.683   5.459  4.8279  1.8354  0.8529
  741MOL0     H 2253  10.068   6.604   5.563  1.5848 -3.0455  0.0020
  741MOL0     H 2254   9.763   6.407   5.750  0.6585  0.7183  0.5768
  741MOL0     H 2255  10.351   6.757   4.946  0.0816 -1.8221 -0.3043
  741MOL0     H 2256  10.515   6.931   4.877  2.1718  2.9822 -0.4599
  741MOL0     H 2257  10.657   6.960   4.971 -0.1688  0.6291  0.2016
  741MOL0     H 2258  10.629   6.793   4.922  1.1560  0.2097  0.8681
  742MOL0     O 2259   2.899  11.353   9.337 -0.2883 -0.1099  0.1267
  742MOL0     C 2260   2.961  11.454   9.381 -0.3810 -0.1247  0.5053
  742MOL0     O 2261   2.925  11.527   9.493  0.2663  0.2677  0.9183
  742MOL0     C 2262   2.810  11.504   9.550  0.1359  0.7177  0.3486
  742MOL0     C 2263   2.692  11.570   9.515 -0.6501 -0.8993  0.5631
  742MOL0     C 2264   2.577  11.570   9.597  0.3455 -0.3696  0.1997
  742MOL0     C 2265   2.573  11.475   9.706 -0.4511 -0.6226  0.0320
  742MOL0     O 2266   2.454  11.468   9.776  0.1678  0.1351 -0.5731
  742MOL0     C 2267   2.426  11.362   9.869  0.7075  0.2587 -0.3055
  742MOL0     C 2268   2.283  11.387   9.905  0.2802 -0.1501 -0.6541
  742MOL0     C 2269   2.231  11.281  10.009  0.1586 -0.1816 -0.6545
  742MOL0     C 2270   2.081  11.293  10.040 -0.1567  0.7375  1.0808
  742MOL0     C 2271   2.048  11.182  10.149 -0.4630 -0.2536  0.9661
  742MOL0     C 2272   2.109  11.046  10.115 -0.3056 -0.7596 -0.2877
  742MOL0     C 2273   2.037  10.931  10.173  0.5035 -0.7983  0.3381
  742MOL0     C 2274   2.064  10.804  10.097  0.8745 -0.2258  0.4865
  742MOL0     N 2275   2.198  10.751  10.108 -0.4519  0.4703 -0.1925
  742MOL0     C 2276   2.237  10.651  10.197 -0.8637 -0.0202  0.1163
  742MOL0     C 2277   2.363  10.623  10.154 -0.4862 -0.0450 -0.7979
  742MOL0     C 2278   2.447  10.534  10.236  0.4015  0.4325 -0.2145
  742MOL0     C 2279   2.576  10.482  10.173  0.6597  0.0765  0.3687
  742MOL0     C 2280   2.639  10.362  10.237 -0.1042  0.2587  0.0794
  742MOL0     C 2281   2.774  10.323  10.179 -0.2802  0.4169  0.3474
  742MOL0     O 2282   2.886  10.405  10.229 -0.1409 -0.1395  0.1961
  742MOL0     C 2283   3.008  10.358  10.223 -0.0319  0.2501 -0.5589
  742MOL0     C 2284   3.049  10.273  10.114  0.2388  0.1868 -0.2701
  742MOL0     C 2285   3.173  10.215  10.103  0.2384 -0.5293  0.4856
  742MOL0     C 2286   3.198  10.153   9.964  0.5466 -0.1485 -0.4059
  742MOL0     C 2287   3.275  10.257  10.199  0.3267  0.3715  0.2002
  742MOL0     C 2288   3.420  10.212  10.198  0.9750 -0.7063 -0.7602
  742MOL0     O 2289   3.507  10.237  10.304 -0.2837 -0.5431 -0.4213
  742MOL0     C 2290   3.638  10.196  10.298  0.4044  0.3245 -0.0334
  742MOL0     C 2291   3.701  10.134  10.408  0.1475 -0.1614 -0.1028
  742MOL0     C 2292   3.826  10.087  10.405 -0.4185  0.9046 -0.0478
  742MOL0     C 2293   3.904  10.097  10.288 -0.7939 -0.0078  0.0158
  742MOL0     O 2294   4.037  10.049  10.275  0.6106  0.3259 -0.6345
  742MOL0     C 2295   4.083   9.963  10.376  0.8557 -0.1157 -0.2930
  742MOL0     C 2296   4.154  10.024  10.498  0.0564  0.0304  0.9557
  742MOL0     C 2297   4.302  10.050  10.477 -0.3625  0.1153 -0.3585
  742MOL0     C 2298   4.359  10.154  10.573  0.0672 -0.3740 -0.8707
  742MOL0     C 2299   4.506  10.190  10.557  0.6945 -0.3474  0.8884
  742MOL0     C 2300   4.558  10.313  10.641 -0.5109  0.0340  0.4718
  742MOL0     C 2301   4.711  10.316  10.620  0.0911 -0.2192  0.0141
  742MOL0     C 2302   4.787  10.431  10.684 -0.1276  0.1625  0.0019
  742MOL0    Cl 2303   4.960  10.404  10.651 -0.5464 -0.4152 -0.1852
  742MOL0     C 2304   3.853  10.176  10.180  0.7142  0.4490 -0.1342
  742MOL0     C 2305   3.723  10.218  10.185  0.9874 -1.0509  0.0488
  742MOL0     O 2306   3.451  10.162  10.096  0.0787  0.4411  0.5254
  742MOL0     C 2307   3.232  10.354  10.295 -0.3830  0.5009 -0.5038
  742MOL0     C 2308   3.105  10.407  10.299 -0.1108  0.1864 -0.2662
  742MOL0     N 2309   2.392  10.699  10.042 -0.4581  0.8901  0.7481
  742MOL0     N 2310   2.289  10.762  10.009 -0.3201 -0.4717 -0.2620
  742MOL0     C 2311   2.695  11.401   9.741  0.1320  0.1021  1.0123
  742MOL0     C 2312   2.811  11.417   9.660  0.1998  0.3309 -0.7222
  742MOL0     C 2313   3.082  11.497   9.310 -0.4638  0.6065  0.1677
  742MOL0     C 2314   3.175  11.392   9.286 -0.5069  0.3576  0.3982
  742MOL0     C 2315   3.292  11.430   9.222 -0.3665 -0.4995  0.3877
  742MOL0     C 2316   3.327  11.560   9.179 -0.5197  0.5115 -0.2124
  742MOL0     O 2317   3.443  11.595   9.121 -0.4789  0.3779  0.4425
  742MOL0     C 2318   3.517  11.491   9.046 -0.8730 -0.3667 -0.0413
  742MOL0     C 2319   3.647  11.555   9.002  0.2802 -0.4677 -0.1326
  742MOL0     C 2320   3.709  11.467   8.904 -0.8770  0.1850  0.1239
  742MOL0     C 2321   3.839  11.538   8.861  0.6819  0.5991  0.1682
  742MOL0     C 2322   3.886  11.461   8.748  0.0490  0.5653 -0.1432
  742MOL0     C 2323   3.934  11.415   8.647  0.9164  0.4567 -0.4034
  742MOL0     C 2324   3.236  11.654   9.220  1.1994 -0.4894 -0.6806
  742MOL0     C 2325   3.111  11.629   9.280  0.3581 -0.7232  0.1223
  742MOL0     C 2326   3.014  11.747   9.310 -0.3196 -0.3505  1.0317
  742MOL0     H 2327   2.698  11.636   9.430  1.3920 -1.2069  0.4190
  742MOL0     H 2328   2.492  11.626   9.560  1.1224  0.1797 -0.8081
  742MOL0     H 2329   2.501  11.367   9.949  0.9095  1.9108 -0.5515
  742MOL0     H 2330   2.429  11.267   9.815 -0.8363  0.4723 -0.8179
  742MOL0     H 2331   2.281  11.479   9.964  1.4821 -1.9428  2.3832
  742MOL0     H 2332   2.212  11.403   9.823 -0.5219 -1.1121 -0.1778
  742MOL0     H 2333   2.248  11.187   9.956 -0.7944 -1.1145  0.6169
  742MOL0     H 2334   2.291  11.293  10.100 -0.5350  0.8273 -0.3190
  742MOL0     H 2335   2.053  11.385  10.092 -0.9925 -1.2498  4.4414
  742MOL0     H 2336   2.026  11.282   9.946  0.5380 -0.3596  0.7818
  742MOL0     H 2337   1.939  11.187  10.146 -0.4494 -0.3116  0.1910
  742MOL0     H 2338   2.079  11.218  10.247  0.9363 -2.2975  1.3302
  742MOL0     H 2339   2.110  11.033  10.006 -1.1154 -0.0455 -0.3862
  742MOL0     H 2340   2.213  11.044  10.149 -0.0894 -0.6987 -0.9335
  742MOL0     H 2341   1.930  10.945  10.158  0.9396  1.3401 -1.3924
  742MOL0     H 2342   2.060  10.921  10.279 -0.1661  1.8269  0.8048
  742MOL0     H 2343   1.991  10.733  10.137  1.1665  0.4060  2.1989
  742MOL0     H 2344   2.048  10.817   9.989 -0.7212  1.0494  0.8399
  742MOL0     H 2345   2.179  10.602  10.275 -0.4212  0.5871  0.8478
  742MOL0     H 2346   2.379  10.450  10.253  1.8213 -0.1660  3.1948
  742MOL0     H 2347   2.470  10.582  10.331  2.5760 -2.3462  0.8194
  742MOL0     H 2348   2.554  10.466  10.067 -1.7109  0.3269  0.7643
  742MOL0     H 2349   2.645  10.567  10.174  3.4037 -2.0173  1.5718
  742MOL0     H 2350   2.637  10.361  10.346 -0.1963 -2.0355  0.1025
  742MOL0     H 2351   2.575  10.279  10.204  1.2165 -1.8620  2.5109
  742MOL0     H 2352   2.784  10.215  10.192 -0.4683  0.2647 -0.6836
  742MOL0     H 2353   2.776  10.335  10.070 -1.3143  0.8591  0.3739
  742MOL0     H 2354   2.984  10.266  10.027  0.9945 -2.0868 -0.7222
  742MOL0     H 2355   3.265  10.067   9.973  1.4946  0.4436 -1.5479
  742MOL0     H 2356   3.250  10.227   9.903  2.9596 -1.3731  0.0462
  742MOL0     H 2357   3.104  10.119   9.920  1.0902 -0.7250 -1.1393
  742MOL0     H 2358   3.653  10.108  10.502  1.3617  1.5576  1.0457
  742MOL0     H 2359   3.870  10.041  10.494  1.1945  0.3219 -1.0859
  742MOL0     H 2360   4.005   9.894  10.409  0.5730  0.4204  0.1757
  742MOL0     H 2361   4.157   9.898  10.328  1.3263  0.6663 -0.6491
  742MOL0     H 2362   4.098  10.114  10.523 -3.7848 -1.4640 -1.4004
  742MOL0     H 2363   4.146   9.955  10.583 -1.4228  1.9880  2.5037
  742MOL0     H 2364   4.323  10.069  10.372 -1.1191 -0.9929 -0.7271
  742MOL0     H 2365   4.352   9.956  10.500 -2.1766 -0.1513  3.2557
  742MOL0     H 2366   4.343  10.125  10.677  0.3646 -0.4151 -0.8346
  742MOL0     H 2367   4.298  10.244  10.562  1.5094  1.2387  2.7878
  742MOL0     H 2368   4.568  10.102  10.576  0.9175 -0.4941 -0.4566
  742MOL0     H 2369   4.507  10.230  10.456 -1.7171  3.2096  2.0770
  742MOL0     H 2370   4.535  10.297  10.747 -0.3032 -0.8648  0.3957
  742MOL0     H 2371   4.521  10.410  10.610  1.5623  0.0778 -2.3041
  742MOL0     H 2372   4.732  10.317  10.512  0.9654 -1.3963  0.1499
  742MOL0     H 2373   4.752  10.220  10.654 -1.5232 -0.5913  1.0437
  742MOL0     H 2374   4.762  10.428  10.791  0.4939 -0.3927  0.1387
  742MOL0     H 2375   4.761  10.530  10.644  1.1964  0.5337  0.0104
  742MOL0     H 2376   3.924  10.190  10.099  1.7607  0.2913  0.7294
  742MOL0     H 2377   3.675  10.274  10.105  0.4481  0.1760  1.2010
  742MOL0     H 2378   3.300  10.387  10.374 -1.8025  0.7617  0.6563
  742MOL0     H 2379   3.085  10.487  10.371  0.1370  1.3797 -1.4834
  742MOL0     H 2380   2.700  11.334   9.826  2.0973 -1.2373 -0.0735
  742MOL0     H 2381   2.903  11.371   9.695  0.0100  0.7413  0.3637
  742MOL0     H 2382   3.163  11.286   9.306 -0.7804  0.2509 -0.3266
  742MOL0     H 2383   3.350  11.339   9.205 -0.8452 -0.7369  0.0205
  742MOL0     H 2384   3.544  11.406   9.109 -0.8815 -0.7052 -0.4960
  742MOL0     H 2385   3.458  11.456   8.961  0.2266 -0.2014 -0.8804
  742MOL0     H 2386   3.717  11.566   9.085 -2.1440  1.0354  1.8213
  742MOL0     H 2387   3.631  11.655   8.962  1.4114  0.3607  1.4094
  742MOL0     H 2388   3.719  11.362   8.933 -0.1573  0.7864  2.1981
  742MOL0     H 2389   3.637  11.461   8.822  1.4020 -1.7521 -1.9109
  742MOL0     H 2390   3.906  11.540   8.948 -1.8161 -2.0066  2.3688
  742MOL0     H 2391   3.824  11.641   8.829  0.9707  1.2163  1.9114
  742MOL0     H 2392   3.965  11.373   8.553 -0.5109 -1.2184 -0.1834
  742MOL0     H 2393   3.264  11.758   9.206  1.6142 -0.9223 -3.8253
  742MOL0     H 2394   2.908  11.725   9.295 -0.1885 -0.1513 -0.3991
  742MOL0     H 2395   3.024  11.780   9.413  3.0119 -1.0052  1.0155
  742MOL0     H 2396   3.034  11.832   9.244 -0.6205 -1.6960 -0.8755
  743MOL0     O 2397  11.401   3.737   5.600 -0.2680  0.2674 -0.4969
  743MOL0     C 2398  11.438   3.810   5.508 -0.2402  0.0787 -0.9343
  743MOL0     O 2399  11.553   3.867   5.502 -0.1169  0.1255 -0.7140
  743MOL0     C 2400  11.669   3.809   5.563  1.1668 -0.2132  0.1706
  743MOL0     C 2401  11.681   3.675   5.598 -0.2222 -0.1217 -0.1443
  743MOL0     C 2402  11.810   3.620   5.628  0.6465 -0.2558 -0.2638
  743MOL0     C 2403  11.918   3.701   5.602  0.1231 -0.1976 -0.0065
  743MOL0     O 2404  12.040   3.636   5.600  0.1752  0.1108 -0.2522
  743MOL0     C 2405  12.157   3.708   5.558 -0.2262  0.3956  0.1674
  743MOL0     C 2406  12.270   3.620   5.588 -0.8372 -0.6541  0.0201
  743MOL0     C 2407  12.381   3.620   5.478  0.1218  1.0619  0.4223
  743MOL0     C 2408  12.436   3.758   5.451  0.0300  0.6207  0.0939
  743MOL0     C 2409  12.527   3.796   5.569 -0.0432  0.3469 -0.6528
  743MOL0     C 2410  12.612   3.919   5.545  0.2640  1.0069 -0.7165
  743MOL0     C 2411  12.684   3.957   5.674  0.5740  0.4046  0.3900
  743MOL0     C 2412  12.766   4.090   5.645 -0.3949 -0.6794 -1.2753
  743MOL0     N 2413  12.833   4.133   5.771 -0.5483 -0.0783 -0.5878
  743MOL0     C 2414  12.784   4.192   5.884 -0.0209 -0.3843 -0.0298
  743MOL0     C 2415  12.889   4.197   5.968 -0.0613 -0.0714  0.4739
  743MOL0     C 2416  12.901   4.243   6.110  0.0900 -0.5370 -0.2905
  743MOL0     C 2417  12.856   4.135   6.215 -0.4361 -0.1964 -0.7334
  743MOL0     C 2418  12.855   4.202   6.353 -0.3345  0.3569  0.1416
  743MOL0     C 2419  12.832   4.087   6.457  0.0308 -0.4661  0.4758
  743MOL0     O 2420  12.936   3.988   6.453  0.1849  0.1748 -0.0684
  743MOL0     C 2421  13.065   4.010   6.507  1.1236  0.5895 -0.2792
  743MOL0     C 2422  13.158   3.906   6.499  0.3161  1.0223 -0.0126
  743MOL0     C 2423  13.288   3.922   6.551 -0.8260 -0.3237  0.2562
  743MOL0     C 2424  13.391   3.806   6.536 -0.1532  0.4657  0.3201
  743MOL0     C 2425  13.322   4.048   6.605 -1.0567 -0.6950  1.0242
  743MOL0     C 2426  13.457   4.080   6.662 -0.1193 -0.4096  0.0523
  743MOL0     O 2427  13.443   4.174   6.760 -0.6620  0.0425 -0.0340
  743MOL0     C 2428  13.564   4.233   6.788 -0.0270  0.1269 -0.1269
  743MOL0     C 2429  13.589   4.356   6.746 -0.4323 -0.4114  0.4229
  743MOL0     C 2430  13.710   4.425   6.779 -0.4164  0.3587  0.6034
  743MOL0     C 2431  13.802   4.365   6.862  0.4325 -0.4030 -0.5747
  743MOL0     O 2432  13.910   4.441   6.907  0.2965  0.6151  0.3214
  743MOL0     C 2433  14.034   4.369   6.916  0.1903 -0.3570  0.2262
  743MOL0     C 2434  14.138   4.455   6.849 -0.0024 -0.3750  0.0277
  743MOL0     C 2435  14.271   4.394   6.843 -0.4665 -0.3421 -0.2393
  743MOL0     C 2436  14.379   4.479   6.775 -0.5303 -0.6585  1.0662
  743MOL0     C 2437  14.515   4.406   6.763  0.1299  0.3313 -0.2744
  743MOL0     C 2438  14.607   4.478   6.663 -0.1515 -0.9443  0.3718
  743MOL0     C 2439  14.745   4.397   6.646 -0.2625  0.4610  0.2268
  743MOL0     C 2440  14.825   4.384   6.776 -0.4265  0.0275 -0.1997
  743MOL0    Cl 2441  14.853   4.550   6.843  0.0162 -0.1573 -0.2198
  743MOL0     C 2442  13.774   4.240   6.916 -0.3927  0.3727 -0.0285
  743MOL0     C 2443  13.657   4.173   6.872 -0.2616 -0.0205 -0.1326
  743MOL0     O 2444  13.564   4.046   6.610  0.1792 -0.7981 -0.1979
  743MOL0     C 2445  13.222   4.148   6.628 -0.2218 -0.4116  0.6585
  743MOL0     C 2446  13.099   4.130   6.564 -0.1714 -0.1462 -0.5228
  743MOL0     N 2447  12.996   4.153   5.891 -0.2135 -0.2503  0.2434
  743MOL0     N 2448  12.965   4.122   5.773  0.2207  0.0306  0.7994
  743MOL0     C 2449  11.901   3.840   5.584 -0.0771  0.3677 -0.7106
  743MOL0     C 2450  11.770   3.890   5.554 -0.2532  0.7821 -0.6990
  743MOL0     C 2451  11.329   3.879   5.428 -0.5184 -0.5687 -0.3153
  743MOL0     C 2452  11.209   3.813   5.424  0.4506  0.1394  0.1018
  743MOL0     C 2453  11.097   3.867   5.369 -0.7222 -0.0649 -1.2063
  743MOL0     C 2454  11.108   3.983   5.290 -0.0681 -0.1229  0.9037
  743MOL0     O 2455  11.004   4.023   5.216  0.1000  0.6167 -0.1314
  743MOL0     C 2456  11.005   4.128   5.123 -0.1826 -0.4785  0.4539
  743MOL0     C 2457  10.973   4.261   5.190 -0.4517  0.1605  0.0441
  743MOL0     C 2458  10.999   4.387   5.107 -0.0217  0.4715 -0.5361
  743MOL0     C 2459  10.928   4.372   4.969  0.0542  0.8783 -0.2822
  743MOL0     C 2460  10.878   4.496   4.930 -0.6418  0.0949  0.1777
  743MOL0     C 2461  10.847   4.610   4.885 -0.2907  0.3049 -0.2062
  743MOL0     C 2462  11.224   4.059   5.296 -0.2903 -0.5328  0.1225
  743MOL0     C 2463  11.341   4.005   5.361  0.6888 -0.2200 -0.0268
  743MOL0     C 2464  11.464   4.077   5.356 -1.0607 -0.4533  0.1918
  743MOL0     H 2465  11.594   3.609   5.600 -0.2460 -0.1020 -0.4596
  743MOL0     H 2466  11.816   3.513   5.646 -0.9792  0.0583  2.7937
  743MOL0     H 2467  12.167   3.802   5.613 -2.1031 -0.4814  2.1522
  743MOL0     H 2468  12.146   3.734   5.452 -1.3804  3.3085  0.9061
  743MOL0     H 2469  12.308   3.652   5.685  0.1498 -1.7615  0.0257
  743MOL0     H 2470  12.241   3.515   5.600 -0.6616 -0.6441  0.5617
  743MOL0     H 2471  12.459   3.559   5.524 -0.1342  1.3275  1.2230
  743MOL0     H 2472  12.339   3.574   5.388  0.0580 -2.1964  1.9611
  743MOL0     H 2473  12.499   3.736   5.364 -2.1146  1.8954 -1.8925
  743MOL0     H 2474  12.384   3.849   5.419  1.9855  1.0614 -2.1021
  743MOL0     H 2475  12.599   3.718   5.595 -1.7140 -0.9597  0.2262
  743MOL0     H 2476  12.466   3.796   5.660  0.8110  0.8209 -0.0697
  743MOL0     H 2477  12.689   3.908   5.468 -0.0410  2.5125 -1.2632
  743MOL0     H 2478  12.540   3.990   5.501 -1.3193  0.4515  0.8496
  743MOL0     H 2479  12.755   3.881   5.707 -1.2154 -1.5093  0.0054
  743MOL0     H 2480  12.610   3.961   5.754 -1.2021 -0.4519 -1.1422
  743MOL0     H 2481  12.837   4.065   5.566 -0.9540 -2.0438 -1.3783
  743MOL0     H 2482  12.692   4.161   5.607 -0.4024  0.1416  0.1953
  743MOL0     H 2483  12.680   4.215   5.905  0.2644 -0.3628  1.4521
  743MOL0     H 2484  12.830   4.327   6.111  0.3225 -0.3189  2.1409
  743MOL0     H 2485  13.005   4.274   6.126  0.2950 -0.8544 -0.9587
  743MOL0     H 2486  12.760   4.094   6.184 -2.4473  1.7818  2.3163
  743MOL0     H 2487  12.927   4.052   6.212  0.4205  0.1167  4.0077
  743MOL0     H 2488  12.948   4.258   6.364 -0.7408  0.9230  0.7589
  743MOL0     H 2489  12.770   4.271   6.357 -0.8029 -0.2635  2.7438
  743MOL0     H 2490  12.841   4.128   6.558  0.8983  0.4619  0.0348
  743MOL0     H 2491  12.734   4.047   6.431  1.1537 -1.0177 -3.6247
  743MOL0     H 2492  13.128   3.811   6.456  0.3866  1.4270 -0.9915
  743MOL0     H 2493  13.345   3.719   6.583 -3.5843  3.7792  3.8326
  743MOL0     H 2494  13.487   3.819   6.588  0.8371  1.1012 -1.5551
  743MOL0     H 2495  13.423   3.785   6.433 -1.5472  2.2059 -0.5377
  743MOL0     H 2496  13.510   4.402   6.688  1.3171  1.7945 -0.3091
  743MOL0     H 2497  13.717   4.530   6.753 -1.7878  0.7966  1.8220
  743MOL0     H 2498  14.053   4.343   7.020 -1.0480  2.7518  1.3416
  743MOL0     H 2499  14.022   4.279   6.855  0.1609 -0.0584 -0.2184
  743MOL0     H 2500  14.101   4.471   6.748 -1.1769 -0.0733  0.4786
  743MOL0     H 2501  14.145   4.549   6.904  0.0081  0.8633 -1.9952
  743MOL0     H 2502  14.270   4.303   6.782 -0.3856  0.0960 -0.9061
  743MOL0     H 2503  14.301   4.373   6.946  1.3075 -0.6238 -0.7686
  743MOL0     H 2504  14.393   4.573   6.828  1.8538 -0.5492  0.3315
  743MOL0     H 2505  14.343   4.498   6.673 -0.0268  0.5660  1.1124
  743MOL0     H 2506  14.558   4.403   6.864 -0.3005  1.0581 -0.0620
  743MOL0     H 2507  14.490   4.305   6.731 -0.9248 -0.5581  2.9943
  743MOL0     H 2508  14.626   4.579   6.700 -1.5368  0.9661 -3.5972
  743MOL0     H 2509  14.557   4.481   6.566 -0.9950  1.3346  0.8140
  743MOL0     H 2510  14.813   4.449   6.578  1.3712 -1.4281  0.3180
  743MOL0     H 2511  14.730   4.299   6.599 -1.3608  1.8403 -2.5241
  743MOL0     H 2512  14.918   4.327   6.762  0.1762 -0.1713  3.5040
  743MOL0     H 2513  14.761   4.329   6.846 -1.5374 -1.5649 -2.3390
  743MOL0     H 2514  13.849   4.199   6.983  1.0572 -0.6360 -2.1726
  743MOL0     H 2515  13.645   4.074   6.915 -1.8783  0.9558  1.8713
  743MOL0     H 2516  13.243   4.240   6.680 -0.0359 -0.0313 -0.0791
  743MOL0     H 2517  13.027   4.211   6.580  0.5954  0.7646 -1.5493
  743MOL0     H 2518  11.983   3.908   5.561  0.3012 -0.1295 -0.8564
  743MOL0     H 2519  11.753   3.989   5.513  0.9510  0.1682 -2.8525
  743MOL0     H 2520  11.201   3.722   5.484  1.3007  1.0671  1.6982
  743MOL0     H 2521  11.003   3.811   5.370  0.0387 -1.4234 -2.1321
  743MOL0     H 2522  11.095   4.137   5.061 -0.5343 -0.3204 -0.0460
  743MOL0     H 2523  10.928   4.114   5.046  2.3251  2.4311 -2.9659
  743MOL0     H 2524  11.033   4.270   5.281 -1.3271 -1.4043  0.8149
  743MOL0     H 2525  10.871   4.262   5.231 -1.1446  1.2813 -1.6202
  743MOL0     H 2526  10.964   4.476   5.159 -0.6806 -0.0799 -0.0148
  743MOL0     H 2527  11.108   4.395   5.101  0.1037 -0.7688 -0.1590
  743MOL0     H 2528  10.843   4.304   4.979  0.4348  0.0071 -2.5008
  743MOL0     H 2529  11.002   4.339   4.896  0.0341  1.7690 -0.7224
  743MOL0     H 2530  10.833   4.709   4.847 -1.2308 -0.9541 -3.5759
  743MOL0     H 2531  11.242   4.152   5.242  0.8898 -0.4030  0.6960
  743MOL0     H 2532  11.543   4.023   5.304 -1.0125  1.1580 -1.5062
  743MOL0     H 2533  11.458   4.178   5.313 -1.1402 -0.7522 -0.5071
  743MOL0     H 2534  11.497   4.105   5.457  1.3585  0.2006 -0.6901
  744MOL0     O 2535   7.101   4.612   9.785  0.3595 -0.0378  0.5506
  744MOL0     C 2536   7.158   4.716   9.750  0.3534  0.1153 -0.7687
  744MOL0     O 2537   7.300   4.735   9.742 -0.3138  0.0291  0.8237
  744MOL0     C 2538   7.384   4.642   9.798 -0.6578  0.3194 -0.8271
  744MOL0     C 2539   7.411   4.524   9.746 -0.7484 -0.5723  0.3070
  744MOL0     C 2540   7.485   4.428   9.816 -0.0716  0.0226 -1.0964
  744MOL0     C 2541   7.538   4.449   9.946 -0.0737 -0.7830  0.8488
  744MOL0     O 2542   7.605   4.362  10.025 -0.5230  0.2381  0.1716
  744MOL0     C 2543   7.608   4.220   9.996  0.6479 -0.8850 -0.6328
  744MOL0     C 2544   7.724   4.156  10.067 -0.2473 -0.0497 -0.5972
  744MOL0     C 2545   7.725   4.003  10.047 -0.3752 -0.0479 -0.6614
  744MOL0     C 2546   7.833   3.937  10.131  0.5079 -0.1056 -0.2369
  744MOL0     C 2547   7.972   3.975  10.085  0.6198 -0.2008 -0.5184
  744MOL0     C 2548   8.088   3.883  10.124 -0.6209  0.1005 -0.1993
  744MOL0     C 2549   8.217   3.899  10.041  0.2759  0.3003 -0.1703
  744MOL0     C 2550   8.288   4.037  10.067  0.2203  1.2999  0.8242
  744MOL0     N 2551   8.411   4.025   9.977  0.4917  0.2202 -0.4989
  744MOL0     C 2552   8.425   4.080   9.852 -0.3124  0.1852 -0.7283
  744MOL0     C 2553   8.555   4.063   9.821 -0.2549  0.4177 -0.0018
  744MOL0     C 2554   8.632   4.118   9.704 -0.2013 -0.1031  0.3567
  744MOL0     C 2555   8.658   4.273   9.733 -0.0887 -0.2313 -0.6369
  744MOL0     C 2556   8.717   4.334   9.608 -0.0474 -0.6281  0.8643
  744MOL0     C 2557   8.768   4.475   9.634 -0.5897  0.3815  0.0669
  744MOL0     O 2558   8.800   4.533   9.509  0.2277 -0.0153  0.5614
  744MOL0     C 2559   8.907   4.622   9.522  0.3456 -0.6259 -0.4085
  744MOL0     C 2560   9.036   4.587   9.574  0.1507 -0.1662  0.5856
  744MOL0     C 2561   9.139   4.680   9.556  0.4037 -0.7630  0.6704
  744MOL0     C 2562   9.277   4.633   9.609 -0.7167 -0.2300 -0.2043
  744MOL0     C 2563   9.128   4.806   9.488 -1.3640 -0.1994  1.2884
  744MOL0     C 2564   9.241   4.907   9.476 -0.6544  0.6278 -0.1466
  744MOL0     O 2565   9.369   4.862   9.442  0.3861 -0.2917  0.0068
  744MOL0     C 2566   9.478   4.949   9.458  0.0429  0.2068 -0.2675
  744MOL0     C 2567   9.569   4.937   9.354 -0.3336 -0.2829  0.2976
  744MOL0     C 2568   9.674   5.027   9.354 -0.5682  0.7822  0.1241
  744MOL0     C 2569   9.705   5.121   9.455  0.8775 -0.1291 -0.2734
  744MOL0     O 2570   9.806   5.214   9.436  0.1009  0.1980 -0.3463
  744MOL0     C 2571   9.812   5.324   9.530 -0.2870  0.4967 -0.3429
  744MOL0     C 2572   9.920   5.418   9.499 -0.0859 -0.3035 -0.4072
  744MOL0     C 2573  10.058   5.359   9.481  0.2290 -0.2831 -0.2747
  744MOL0     C 2574  10.172   5.468   9.471 -0.2202  0.7059 -0.5065
  744MOL0     C 2575  10.306   5.399   9.472  0.5534  0.3093  0.1269
  744MOL0     C 2576  10.424   5.496   9.488  0.7854 -0.1560  0.3553
  744MOL0     C 2577  10.553   5.424   9.531  0.0162 -0.2923 -0.6022
  744MOL0     C 2578  10.664   5.528   9.528  0.0306  0.0005  0.1307
  744MOL0    Cl 2579  10.632   5.672   9.636  0.2992  0.2691  0.2994
  744MOL0     C 2580   9.608   5.124   9.555  1.2418  0.4023 -0.7685
  744MOL0     C 2581   9.497   5.037   9.561  0.7390 -0.5623 -0.7251
  744MOL0     O 2582   9.205   5.021   9.458  0.0202 -1.1079  0.2305
  744MOL0     C 2583   9.007   4.829   9.427  0.8907 -0.5865  0.3194
  744MOL0     C 2584   8.895   4.742   9.445 -0.0360  0.9374 -0.8744
  744MOL0     N 2585   8.627   3.996   9.932 -0.2384 -0.0777  0.2926
  744MOL0     N 2586   8.537   3.975  10.018 -0.1577  0.3588 -0.1824
  744MOL0     C 2587   7.517   4.578   9.995  1.1556 -0.4332  0.3554
  744MOL0     C 2588   7.440   4.671   9.926  1.0027 -0.8089  0.0772
  744MOL0     C 2589   7.067   4.830   9.739 -0.4841  0.3941  0.6014
  744MOL0     C 2590   6.931   4.803   9.702 -0.2801 -0.2489  0.2158
  744MOL0     C 2591   6.834   4.904   9.698  0.4005  0.4796 -0.0770
  744MOL0     C 2592   6.860   5.026   9.736 -0.6490 -0.3206  0.2374
  744MOL0     O 2593   6.765   5.127   9.748 -0.3352 -0.5108  0.2043
  744MOL0     C 2594   6.628   5.103   9.752 -0.1725  0.3873 -0.2520
  744MOL0     C 2595   6.557   5.231   9.806  0.1412 -0.6716 -0.1804
  744MOL0     C 2596   6.568   5.245   9.960 -0.2949  0.0621 -0.2329
  744MOL0     C 2597   6.497   5.374  10.011 -0.0632 -0.6592 -0.4465
  744MOL0     C 2598   6.354   5.348   9.991  0.6161  0.7951 -0.0974
  744MOL0     C 2599   6.231   5.327  10.005 -0.2928  0.7498 -0.2103
  744MOL0     C 2600   6.987   5.056   9.787 -0.3523 -0.7906  0.4932
  744MOL0     C 2601   7.090   4.958   9.790  0.2436  0.3704  1.0289
  744MOL0     C 2602   7.221   4.993   9.851 -0.6421 -0.7707 -0.0928
  744MOL0     H 2603   7.362   4.502   9.652 -0.9958 -1.4532  0.6293
  744MOL0     H 2604   7.488   4.327   9.778 -1.5666 -0.5135  0.0741
  744MOL0     H 2605   7.615   4.190   9.891  1.2369 -1.1252 -0.5288
  744MOL0     H 2606   7.517   4.177  10.039  2.4510 -3.4865  0.8629
  744MOL0     H 2607   7.823   4.187  10.033 -0.1230 -1.1508 -1.3071
  744MOL0     H 2608   7.708   4.172  10.174  0.4456  2.1407 -0.7753
  744MOL0     H 2609   7.628   3.957  10.066  1.0544 -2.5302  1.1886
  744MOL0     H 2610   7.740   3.987   9.940  0.0430  0.7035 -0.7244
  744MOL0     H 2611   7.827   3.942  10.240  2.0645 -2.1117  0.0002
  744MOL0     H 2612   7.817   3.833  10.101 -3.3161 -0.1637  1.4390
  744MOL0     H 2613   8.001   4.077  10.111  1.2212 -0.5592  0.2638
  744MOL0     H 2614   7.957   3.969   9.977  2.0487 -2.5877 -0.6671
  744MOL0     H 2615   8.117   3.901  10.228 -2.4012  1.6924  0.0704
  744MOL0     H 2616   8.043   3.784  10.112 -2.2922  1.0468 -2.3238
  744MOL0     H 2617   8.177   3.899   9.939  0.2790  0.0644 -0.1704
  744MOL0     H 2618   8.289   3.819  10.058 -0.2665 -0.4100 -1.1198
  744MOL0     H 2619   8.223   4.111  10.020 -1.6650 -1.5079 -1.3151
  744MOL0     H 2620   8.298   4.067  10.172 -0.1651  1.4647  0.8152
  744MOL0     H 2621   8.351   4.138   9.797 -0.6375 -0.8412 -1.3983
  744MOL0     H 2622   8.580   4.115   9.608  1.3987 -3.5259 -0.5789
  744MOL0     H 2623   8.720   4.054   9.690  0.8939  1.4331 -0.0111
  744MOL0     H 2624   8.566   4.325   9.761 -0.7606 -1.5975 -0.2655
  744MOL0     H 2625   8.723   4.265   9.820 -2.7251 -1.0801  1.3938
  744MOL0     H 2626   8.798   4.271   9.571 -0.0220 -1.3089  2.0608
  744MOL0     H 2627   8.631   4.339   9.540 -0.4955  3.3038  1.4748
  744MOL0     H 2628   8.701   4.544   9.686 -1.2108 -0.4490  0.3868
  744MOL0     H 2629   8.856   4.454   9.696 -1.2412 -0.7167  0.6529
  744MOL0     H 2630   9.045   4.491   9.623 -5.0219 -2.5284 -2.2200
  744MOL0     H 2631   9.350   4.592   9.539 -0.1072 -0.7348  0.6989
  744MOL0     H 2632   9.252   4.561   9.688 -0.4621  1.5185  1.5530
  744MOL0     H 2633   9.324   4.712   9.667 -0.2207 -1.0033  0.4781
  744MOL0     H 2634   9.557   4.866   9.273  1.7563  1.4516 -1.6616
  744MOL0     H 2635   9.742   5.027   9.270  0.9106 -0.1219  1.2571
  744MOL0     H 2636   9.717   5.378   9.527 -0.8649 -0.0055  3.5832
  744MOL0     H 2637   9.819   5.291   9.634  0.6846 -0.3613 -0.6686
  744MOL0     H 2638   9.897   5.473   9.407 -1.3884 -0.4119 -0.1735
  744MOL0     H 2639   9.927   5.487   9.584  1.4912  0.4421 -1.1091
  744MOL0     H 2640  10.054   5.306   9.385 -1.9293  3.2560 -2.3761
  744MOL0     H 2641  10.065   5.289   9.564  0.2412  0.3747  0.2820
  744MOL0     H 2642  10.156   5.537   9.554 -0.1975  0.3534 -0.2122
  744MOL0     H 2643  10.169   5.526   9.378  0.6994 -0.9521 -1.6347
  744MOL0     H 2644  10.313   5.333   9.559  0.5521  0.7793  0.4887
  744MOL0     H 2645  10.309   5.336   9.383 -0.6788 -2.3169  1.8016
  744MOL0     H 2646  10.393   5.583   9.547  0.3033 -0.2484  0.2407
  744MOL0     H 2647  10.429   5.546   9.391  0.1768 -1.8404 -0.5966
  744MOL0     H 2648  10.563   5.342   9.458 -0.0465  0.4090 -1.4097
  744MOL0     H 2649  10.535   5.389   9.633 -1.4242  2.3972  0.1513
  744MOL0     H 2650  10.669   5.564   9.424 -1.0111 -2.3545 -0.8065
  744MOL0     H 2651  10.754   5.476   9.562  0.0621  1.3584  2.2836
  744MOL0     H 2652   9.617   5.202   9.630  1.5194  0.7468 -1.1558
  744MOL0     H 2653   9.427   5.023   9.642 -0.1656 -1.6118 -1.6442
  744MOL0     H 2654   8.976   4.921   9.377  1.9897 -1.7674 -2.7326
  744MOL0     H 2655   8.802   4.745   9.389  1.0916  1.1224 -2.8488
  744MOL0     H 2656   7.554   4.595  10.096  1.0614 -0.6403  0.4250
  744MOL0     H 2657   7.424   4.766   9.975  3.1766  0.6955 -1.9102
  744MOL0     H 2658   6.900   4.705   9.667 -0.4937  0.1520 -0.7392
  744MOL0     H 2659   6.742   4.874   9.647  0.3414 -2.4283  1.5632
  744MOL0     H 2660   6.581   5.088   9.655 -1.2897  1.3640  0.1045
  744MOL0     H 2661   6.610   5.018   9.819 -0.0823  1.9432  1.8730
  744MOL0     H 2662   6.452   5.213   9.782  0.5575 -1.3559 -1.6260
  744MOL0     H 2663   6.584   5.320   9.748  1.4861  0.2770  1.7999
  744MOL0     H 2664   6.527   5.157  10.010 -3.0919  1.6074  0.4024
  744MOL0     H 2665   6.673   5.256   9.987 -0.1512  2.6591 -1.5430
  744MOL0     H 2666   6.527   5.463   9.955  3.7402 -1.6000 -0.2082
  744MOL0     H 2667   6.518   5.409  10.113 -0.0617 -0.6032 -0.4658
  744MOL0     H 2668   6.128   5.298  10.013 -0.1833  0.4914  0.2949
  744MOL0     H 2669   6.996   5.154   9.832 -0.8498 -0.4288 -0.1632
  744MOL0     H 2670   7.240   4.955   9.952 -1.9443  0.1002  0.4993
  744MOL0     H 2671   7.310   4.969   9.792  3.0916  1.9769  3.7376
  744MOL0     H 2672   7.225   5.102   9.851  0.3892 -0.7504 -2.2409
  745MOL0     O 2673  10.373   3.879   4.748 -0.0658 -0.3858  0.5416
  745MOL0     C 2674  10.384   3.976   4.675 -0.3193 -0.2913  0.2724
  745MOL0     O 2675  10.499   4.039   4.631  0.2342  0.1889 -0.8067
  745MOL0     C 2676  10.620   4.019   4.680 -0.3779  0.1994  0.2850
  745MOL0     C 2677  10.715   4.121   4.662  1.1038 -0.1254 -0.2382
  745MOL0     C 2678  10.844   4.118   4.713 -0.7939  0.1429 -0.4069
  745MOL0     C 2679  10.891   4.004   4.782 -0.1111  0.2911  0.3684
  745MOL0     O 2680  11.021   3.999   4.826  0.5813 -0.0897  0.6124
  745MOL0     C 2681  11.105   3.885   4.791 -0.1887 -0.4506 -0.2429
  745MOL0     C 2682  11.093   3.855   4.637 -0.2815  0.0976 -0.3964
  745MOL0     C 2683  11.199   3.761   4.585 -0.2792 -0.0638  0.0142
  745MOL0     C 2684  11.338   3.823   4.544  0.3660 -0.6071 -0.0861
  745MOL0     C 2685  11.459   3.738   4.532  0.4534  0.8028 -0.3500
  745MOL0     C 2686  11.595   3.815   4.530 -0.9693 -0.4334  0.3251
  745MOL0     C 2687  11.711   3.722   4.501  0.7501  0.0050  0.0034
  745MOL0     C 2688  11.838   3.799   4.480  0.6949  0.6801 -0.2755
  745MOL0     N 2689  11.953   3.739   4.539 -0.0738 -0.8133  0.5347
  745MOL0     C 2690  11.993   3.615   4.493 -0.1993 -0.7525  0.3644
  745MOL0     C 2691  12.080   3.569   4.586  0.2536  1.0226  0.7685
  745MOL0     C 2692  12.158   3.432   4.577  0.1753  0.0963 -0.8990
  745MOL0     C 2693  12.195   3.375   4.433  0.0388  0.2002  0.5247
  745MOL0     C 2694  12.223   3.484   4.317  0.4573 -0.4452 -0.8808
  745MOL0     C 2695  12.343   3.574   4.363 -0.4245 -0.2143  0.7192
  745MOL0     O 2696  12.463   3.504   4.391  0.1649 -0.1386  0.2868
  745MOL0     C 2697  12.577   3.574   4.410  0.3789 -0.6206 -0.5966
  745MOL0     C 2698  12.594   3.711   4.381  0.1881 -0.0744 -0.4423
  745MOL0     C 2699  12.721   3.762   4.404 -0.5068  0.2674  0.2947
  745MOL0     C 2700  12.745   3.909   4.382  0.4547 -0.3577 -0.3251
  745MOL0     C 2701  12.830   3.672   4.427  0.3809 -0.1434 -0.0909
  745MOL0     C 2702  12.972   3.714   4.443 -0.2739 -0.5892 -0.7273
  745MOL0     O 2703  13.068   3.658   4.358  0.4213 -0.3954 -0.0017
  745MOL0     C 2704  13.196   3.712   4.380  0.2679 -0.8160  0.1073
  745MOL0     C 2705  13.289   3.641   4.451  0.7133 -0.3250  0.1613
  745MOL0     C 2706  13.417   3.694   4.465  0.1061 -0.5271  0.1243
  745MOL0     C 2707  13.445   3.825   4.420  0.5811 -0.3695  0.2176
  745MOL0     O 2708  13.565   3.879   4.445  0.0214 -0.0878 -0.1251
  745MOL0     C 2709  13.579   4.020   4.476 -0.4441 -0.4521 -0.2056
  745MOL0     C 2710  13.615   4.115   4.367  0.4320  0.3324 -0.6589
  745MOL0     C 2711  13.740   4.068   4.285 -0.0149  0.7198  0.7058
  745MOL0     C 2712  13.764   4.143   4.146  0.0730  0.4708 -0.3876
  745MOL0     C 2713  13.886   4.117   4.066  0.0602  0.4287 -1.1850
  745MOL0     C 2714  13.909   4.209   3.951  0.1735  0.1534  0.3185
  745MOL0     C 2715  14.032   4.173   3.867 -0.3129 -0.1036  0.0459
  745MOL0     C 2716  14.071   4.295   3.791 -0.6204 -0.3284  0.2224
  745MOL0    Cl 2717  13.933   4.344   3.682  0.0013  0.3994 -0.0267
  745MOL0     C 2718  13.351   3.905   4.352 -0.1702 -0.2418 -0.0287
  745MOL0     C 2719  13.232   3.840   4.325 -0.6558  0.9368 -0.3211
  745MOL0     O 2720  12.996   3.784   4.544 -0.1325 -0.2845  0.3717
  745MOL0     C 2721  12.810   3.533   4.441  1.0503  0.0895  0.3100
  745MOL0     C 2722  12.676   3.482   4.441  0.5070 -0.9515 -0.0843
  745MOL0     N 2723  12.083   3.671   4.682 -0.3813  0.7186 -0.4036
  745MOL0     N 2724  12.009   3.766   4.660 -0.5799 -0.5816 -0.9911
  745MOL0     C 2725  10.801   3.899   4.802  1.0150  0.0155 -0.4145
  745MOL0     C 2726  10.669   3.908   4.758 -0.1306 -0.1750  0.6130
  745MOL0     C 2727  10.250   4.021   4.633 -0.1063  0.4401 -0.0913
  745MOL0     C 2728  10.161   4.072   4.722  1.1351 -0.3250  1.1480
  745MOL0     C 2729  10.028   4.110   4.690 -0.2156 -0.1876 -0.5346
  745MOL0     C 2730   9.991   4.102   4.556 -0.0289  0.7628  0.5477
  745MOL0     O 2731   9.863   4.133   4.506  0.3502  0.0779 -0.6293
  745MOL0     C 2732   9.760   4.172   4.599  0.2316 -0.1390  0.1071
  745MOL0     C 2733   9.625   4.186   4.529 -0.0438 -0.3376  0.1599
  745MOL0     C 2734   9.625   4.309   4.431 -0.3056  0.0747  0.6267
  745MOL0     C 2735   9.608   4.441   4.504 -0.5600 -0.2332  0.7515
  745MOL0     C 2736   9.467   4.459   4.541  0.4400  0.8742 -0.4275
  745MOL0     C 2737   9.350   4.478   4.564 -0.6090  0.2208  0.0441
  745MOL0     C 2738  10.085   4.051   4.461 -0.0843  0.6898 -0.1806
  745MOL0     C 2739  10.204   4.000   4.506  0.1788  0.4903 -0.3796
  745MOL0     C 2740  10.283   3.947   4.393 -0.3523 -0.3774  0.2857
  745MOL0     H 2741  10.677   4.212   4.617 -2.1696 -0.4676  1.5295
  745MOL0     H 2742  10.916   4.198   4.699 -1.3399  0.5581 -0.8863
  745MOL0     H 2743  11.082   3.794   4.847 -0.8137 -0.7190 -0.9221
  745MOL0     H 2744  11.208   3.909   4.821 -1.3975  1.6249  2.7672
  745MOL0     H 2745  10.990   3.821   4.621 -0.1250  0.3171 -2.0250
  745MOL0     H 2746  11.103   3.948   4.581  2.9560  0.6514  0.8424
  745MOL0     H 2747  11.210   3.683   4.660  0.9189 -0.1938 -0.2828
  745MOL0     H 2748  11.151   3.723   4.494 -0.1266  0.8434 -0.4626
  745MOL0     H 2749  11.322   3.887   4.457  0.2311  0.5085  0.7371
  745MOL0     H 2750  11.346   3.889   4.631 -1.6252  2.2680 -1.9179
  745MOL0     H 2751  11.449   3.680   4.439 -1.1618  0.2721  0.1140
  745MOL0     H 2752  11.444   3.657   4.604 -0.0539 -0.6150 -1.9614
  745MOL0     H 2753  11.588   3.889   4.450  0.4016 -0.9118 -0.2771
  745MOL0     H 2754  11.602   3.863   4.629 -3.4569  0.3006  0.2129
  745MOL0     H 2755  11.683   3.657   4.418 -2.8530 -1.3456  2.0662
  745MOL0     H 2756  11.722   3.657   4.588 -0.5765  2.3808  2.0829
  745MOL0     H 2757  11.854   3.799   4.371  1.0866 -1.2724 -0.2541
  745MOL0     H 2758  11.824   3.900   4.519  1.9229  0.6291  0.3572
  745MOL0     H 2759  11.964   3.568   4.400  3.9056 -0.1758 -1.4373
  745MOL0     H 2760  12.099   3.350   4.620  1.3284 -2.6016 -4.0565
  745MOL0     H 2761  12.245   3.454   4.640 -2.1876  2.2598  1.8905
  745MOL0     H 2762  12.279   3.307   4.447 -0.1880  0.3043  2.7254
  745MOL0     H 2763  12.112   3.315   4.396  0.0233  2.2533 -3.2912
  745MOL0     H 2764  12.255   3.419   4.235 -1.7156 -2.6365 -0.1243
  745MOL0     H 2765  12.138   3.547   4.290 -0.8014 -1.8855 -0.4066
  745MOL0     H 2766  12.354   3.638   4.274 -2.5223 -0.3297  0.3265
  745MOL0     H 2767  12.317   3.637   4.449  0.7194 -1.4617  2.0298
  745MOL0     H 2768  12.515   3.779   4.351  0.1498  0.0073 -0.1647
  745MOL0     H 2769  12.648   3.954   4.408  0.2657 -0.8905 -0.1054
  745MOL0     H 2770  12.774   3.936   4.280  2.4579  1.0698  0.5541
  745MOL0     H 2771  12.825   3.954   4.442 -0.7041 -0.3719  1.2823
  745MOL0     H 2772  13.280   3.541   4.491 -2.1465  0.6337  2.2086
  745MOL0     H 2773  13.498   3.646   4.519  0.0489  1.4328  2.1169
  745MOL0     H 2774  13.492   4.059   4.529 -0.2205  0.2716 -0.3671
  745MOL0     H 2775  13.652   4.028   4.558 -2.3183  3.1322  1.3214
  745MOL0     H 2776  13.522   4.138   4.314  0.2160 -0.2822 -0.5509
  745MOL0     H 2777  13.639   4.215   4.406 -3.6495  1.2076  0.0743
  745MOL0     H 2778  13.740   3.961   4.260 -0.7033  0.7816  0.4155
  745MOL0     H 2779  13.830   4.075   4.347  1.4324  0.3915 -1.2594
  745MOL0     H 2780  13.751   4.248   4.175  0.9090  0.2749  0.7604
  745MOL0     H 2781  13.680   4.120   4.080  1.5720 -0.0744 -2.1841
  745MOL0     H 2782  13.975   4.128   4.128 -0.7270  1.0404 -0.1273
  745MOL0     H 2783  13.886   4.009   4.047  3.3262  0.2678 -0.7919
  745MOL0     H 2784  13.921   4.313   3.984  0.8000  0.6299 -1.3103
  745MOL0     H 2785  13.815   4.212   3.896  0.2040 -1.0814  0.1765
  745MOL0     H 2786  14.015   4.088   3.800 -0.9447 -0.2359  0.3623
  745MOL0     H 2787  14.116   4.150   3.932 -0.5943 -0.9336  0.1315
  745MOL0     H 2788  14.155   4.280   3.722  0.0233 -0.1486  0.9509
  745MOL0     H 2789  14.096   4.375   3.861  1.0505 -0.7053  0.0994
  745MOL0     H 2790  13.369   4.000   4.301 -0.2823 -0.0396  0.3068
  745MOL0     H 2791  13.154   3.892   4.270  0.9295  1.5516 -2.1304
  745MOL0     H 2792  12.893   3.468   4.464 -0.5486 -1.6075  1.6387
  745MOL0     H 2793  12.650   3.377   4.448 -0.8449 -0.6434 -0.1697
  745MOL0     H 2794  10.834   3.820   4.868 -1.1630  0.4765  1.3468
  745MOL0     H 2795  10.600   3.828   4.785 -3.8029  2.2242 -0.8462
  745MOL0     H 2796  10.201   4.091   4.822  1.9888 -0.7927  0.9051
  745MOL0     H 2797   9.966   4.137   4.775  1.5733 -0.3596  0.8937
  745MOL0     H 2798   9.760   4.086   4.666 -1.9605 -2.1429 -2.2299
  745MOL0     H 2799   9.778   4.265   4.654 -1.5441  0.6233 -0.5064
  745MOL0     H 2800   9.553   4.200   4.610  2.6853 -1.8649  3.1215
  745MOL0     H 2801   9.607   4.091   4.479  3.4940 -0.9423 -0.2499
  745MOL0     H 2802   9.711   4.317   4.365 -0.0839  1.1614  1.0142
  745MOL0     H 2803   9.536   4.282   4.374  1.3056 -4.6660 -0.0770
  745MOL0     H 2804   9.636   4.517   4.431 -1.5283 -1.3339 -0.8389
  745MOL0     H 2805   9.670   4.445   4.594  2.2032 -2.1818 -0.8999
  745MOL0     H 2806   9.250   4.478   4.602 -0.4608 -2.2606  0.5573
  745MOL0     H 2807  10.029   4.027   4.371  1.6831  1.6616 -1.6251
  745MOL0     H 2808  10.345   3.865   4.431  0.7332  0.4987  0.4744
  745MOL0     H 2809  10.221   3.905   4.314  0.7249 -0.5794 -0.4748
  745MOL0     H 2810  10.357   4.018   4.354  0.8499 -0.6295  1.9991
  746MOL0     O 2811   0.036   8.658   9.806 -0.1390 -1.1527  0.2599
  746MOL0     C 2812   0.055   8.779   9.841 -0.3773  0.9775 -0.0106
  746MOL0     O 2813   0.012   8.842   9.954 -0.3747  0.9468  0.1515
  746MOL0     C 2814  -0.094   8.789  10.027  0.5019 -0.0960  0.0433
  746MOL0     C 2815  -0.100   8.770  10.168 -0.2596 -0.5824 -0.6333
  746MOL0     C 2816  -0.204   8.706  10.233  0.1375  0.0561  0.2848
  746MOL0     C 2817  -0.310   8.652  10.149 -0.3830 -0.5101 -0.3304
  746MOL0     O 2818  -0.403   8.576  10.204 -0.3374  0.0514  0.5761
  746MOL0     C 2819  -0.416   8.554  10.348  0.5687 -0.3707  0.1218
  746MOL0     C 2820  -0.558   8.494  10.397 -0.5160  0.1720  0.0278
  746MOL0     C 2821  -0.676   8.570  10.364  0.3993  0.3396  0.2884
  746MOL0     C 2822  -0.793   8.527  10.457 -0.6420  0.1689 -0.1189
  746MOL0     C 2823  -0.924   8.604  10.450 -0.4112 -0.1098  0.5917
  746MOL0     C 2824  -1.046   8.533  10.512 -0.2522  0.9732 -0.4672
  746MOL0     C 2825  -1.167   8.627  10.504  0.0676 -0.1584  0.5917
  746MOL0     C 2826  -1.196   8.700  10.370 -0.8218 -0.6992 -0.7668
  746MOL0     N 2827  -1.313   8.781  10.399 -0.1626  0.7707  0.2331
  746MOL0     C 2828  -1.325   8.917  10.415  0.1325  0.3486  0.0027
  746MOL0     C 2829  -1.464   8.939  10.409 -1.0374  0.1235  0.3087
  746MOL0     C 2830  -1.522   9.077  10.397 -0.8019  0.3516  0.5341
  746MOL0     C 2831  -1.471   9.124  10.254  0.3992 -0.2086 -1.0983
  746MOL0     C 2832  -1.534   9.257  10.206  0.0479 -0.6049  0.4271
  746MOL0     C 2833  -1.688   9.252  10.211 -0.2429 -0.1208  0.6746
  746MOL0     O 2834  -1.739   9.290  10.342 -0.0788  0.4121  0.6796
  746MOL0     C 2835  -1.876   9.312  10.354  0.2023  1.6356  0.9003
  746MOL0     C 2836  -1.976   9.248  10.276  0.5349 -0.4504  0.7531
  746MOL0     C 2837  -2.113   9.266  10.300 -0.0032 -0.7680  0.2539
  746MOL0     C 2838  -2.215   9.192  10.217 -0.9711 -0.3065  0.2840
  746MOL0     C 2839  -2.147   9.357  10.410  0.1227 -0.3117 -0.4817
  746MOL0     C 2840  -2.293   9.394  10.455 -0.3766  0.8910  1.1685
  746MOL0     O 2841  -2.299   9.453  10.573  0.1577  0.1883 -0.2460
  746MOL0     C 2842  -2.417   9.452  10.650  0.1340  0.3346 -0.4206
  746MOL0     C 2843  -2.418   9.533  10.768 -0.8983  0.1606  0.1400
  746MOL0     C 2844  -2.526   9.524  10.866 -0.5749  0.2208 -0.1209
  746MOL0     C 2845  -2.644   9.444  10.835 -0.0479 -0.8657  0.3601
  746MOL0     O 2846  -2.765   9.468  10.907  0.3013  0.1809  0.0388
  746MOL0     C 2847  -2.891   9.438  10.837 -0.3376 -0.8484  0.0774
  746MOL0     C 2848  -2.988   9.545  10.888  0.2941  0.4200 -0.8185
  746MOL0     C 2849  -3.086   9.588  10.780  1.2777 -0.0201 -0.8119
  746MOL0     C 2850  -3.192   9.685  10.853 -0.8314 -0.0746 -0.1522
  746MOL0     C 2851  -3.262   9.773  10.744 -0.0313  0.3045 -0.2067
  746MOL0     C 2852  -3.176   9.893  10.707 -0.0604 -0.9071  0.3343
  746MOL0     C 2853  -3.236   9.969  10.581 -0.6189  0.6023 -0.5982
  746MOL0     C 2854  -3.227   9.887  10.447 -0.2825  0.4289  0.5781
  746MOL0    Cl 2855  -3.068   9.818  10.424  0.4432 -0.3715  0.6053
  746MOL0     C 2856  -2.645   9.365  10.720 -1.3496  0.0256 -0.2782
  746MOL0     C 2857  -2.528   9.361  10.636  0.1080  0.7333 -0.0429
  746MOL0     O 2858  -2.383   9.388  10.371  0.7932  0.2758 -0.4939
  746MOL0     C 2859  -2.046   9.411  10.492  0.4761  0.3021 -0.5612
  746MOL0     C 2860  -1.912   9.390  10.465  0.5098 -0.3342 -0.7218
  746MOL0     N 2861  -1.529   8.824  10.387  0.3072  0.8140 -0.2089
  746MOL0     N 2862  -1.439   8.731  10.393 -0.3997  0.2004  0.2127
  746MOL0     C 2863  -0.315   8.681  10.014  0.1679  0.1974  0.8598
  746MOL0     C 2864  -0.207   8.745   9.953  0.7464  0.2166  0.8228
  746MOL0     C 2865   0.122   8.873   9.744  1.3254  0.1128 -0.3264
  746MOL0     C 2866   0.118   9.012   9.763  0.3765  0.0896 -0.1154
  746MOL0     C 2867   0.185   9.099   9.668 -0.4938 -0.2587  0.0949
  746MOL0     C 2868   0.271   9.043   9.569  0.3204 -0.4115 -1.4837
  746MOL0     O 2869   0.344   9.116   9.483  0.4725  0.2315  0.2366
  746MOL0     C 2870   0.413   9.231   9.522  0.0109  0.2214  0.5990
  746MOL0     C 2871   0.554   9.195   9.563 -0.2673 -0.0372  0.5712
  746MOL0     C 2872   0.643   9.320   9.567 -0.1216 -0.0414 -0.2383
  746MOL0     C 2873   0.727   9.350   9.435  0.6079 -0.3949 -1.0682
  746MOL0     C 2874   0.764   9.492   9.434 -0.1523 -0.4149 -0.2582
  746MOL0     C 2875   0.805   9.611   9.429  0.3518 -0.6938  0.2107
  746MOL0     C 2876   0.268   8.904   9.548 -0.0965 -0.4612 -0.3123
  746MOL0     C 2877   0.189   8.815   9.624 -0.4313 -0.6431 -0.1551
  746MOL0     C 2878   0.180   8.679   9.575 -0.4785 -0.3022  0.0473
  746MOL0     H 2879  -0.016   8.801  10.229  0.2487  0.7762 -1.9647
  746MOL0     H 2880  -0.198   8.692  10.340  2.3341 -1.1957  0.0480
  746MOL0     H 2881  -0.403   8.648  10.402  0.7670  0.5870 -1.5329
  746MOL0     H 2882  -0.329   8.494  10.377 -1.3681 -2.4504  2.0821
  746MOL0     H 2883  -0.574   8.400  10.342  0.1843  0.7653 -1.2192
  746MOL0     H 2884  -0.548   8.480  10.505 -0.9665  1.4015  0.2394
  746MOL0     H 2885  -0.650   8.672  10.395  4.3295 -1.3294  3.3265
  746MOL0     H 2886  -0.696   8.570  10.256  2.0101  3.3471 -0.1127
  746MOL0     H 2887  -0.807   8.420  10.437 -1.1340 -0.2921  2.3752
  746MOL0     H 2888  -0.759   8.540  10.560 -1.1575  1.8402 -0.1333
  746MOL0     H 2889  -0.944   8.614  10.343  1.0865 -1.7863  0.1016
  746MOL0     H 2890  -0.901   8.701  10.495  3.6925 -1.6399  2.3412
  746MOL0     H 2891  -1.054   8.434  10.465 -1.1777 -0.2711  2.1285
  746MOL0     H 2892  -1.030   8.517  10.619  0.0400  1.1705 -0.4820
  746MOL0     H 2893  -1.156   8.700  10.584  1.9339 -0.4715  0.6758
  746MOL0     H 2894  -1.253   8.565  10.531  1.3701 -1.3139  2.3335
  746MOL0     H 2895  -1.111   8.763  10.343 -0.6165 -0.2824  0.7399
  746MOL0     H 2896  -1.217   8.629  10.290 -0.9217  1.7055 -2.9846
  746MOL0     H 2897  -1.253   8.999  10.418 -0.6466  1.1018 -0.9885
  746MOL0     H 2898  -1.487   9.147  10.474 -2.8906  2.5073 -0.3428
  746MOL0     H 2899  -1.631   9.078  10.405 -1.2595  0.3004 -3.5604
  746MOL0     H 2900  -1.367   9.156  10.266 -0.6080  2.4540  1.6445
  746MOL0     H 2901  -1.477   9.045  10.178  2.1768 -1.1463 -0.3397
  746MOL0     H 2902  -1.507   9.338  10.273  1.0398 -0.8696  0.3585
  746MOL0     H 2903  -1.503   9.276  10.103 -0.2748  0.1770  0.4746
  746MOL0     H 2904  -1.745   9.317  10.146 -0.9261 -1.0520  0.3206
  746MOL0     H 2905  -1.727   9.151  10.192  0.3751  0.0283 -1.5613
  746MOL0     H 2906  -1.950   9.172  10.203 -3.5833 -0.2903 -1.1404
  746MOL0     H 2907  -2.268   9.118  10.277 -0.0409 -1.0201  0.2448
  746MOL0     H 2908  -2.167   9.138  10.135  0.6191 -0.5174  1.3133
  746MOL0     H 2909  -2.287   9.260  10.170  0.0001  1.8806  1.8045
  746MOL0     H 2910  -2.337   9.602  10.789 -1.9553  1.2930  0.5883
  746MOL0     H 2911  -2.521   9.595  10.948  1.3362 -1.1702  1.0530
  746MOL0     H 2912  -2.867   9.458  10.732  2.1440  2.2718  1.0688
  746MOL0     H 2913  -2.924   9.337  10.863  3.0453 -1.9535  0.6402
  746MOL0     H 2914  -3.050   9.498  10.965  0.2671 -0.4248 -1.3422
  746MOL0     H 2915  -2.939   9.635  10.926 -0.0254  0.3341 -0.1887
  746MOL0     H 2916  -3.144   9.502  10.746  1.8608 -1.5404  1.7274
  746MOL0     H 2917  -3.031   9.644  10.704 -1.2769  0.1879 -2.6494
  746MOL0     H 2918  -3.147   9.744  10.934  0.0110 -0.2299 -0.4939
  746MOL0     H 2919  -3.264   9.626  10.911 -0.0509  0.2437  1.1893
  746MOL0     H 2920  -3.284   9.711  10.657 -1.5380 -1.0730  1.0792
  746MOL0     H 2921  -3.362   9.799  10.782  1.8727  1.9737  4.4880
  746MOL0     H 2922  -3.075   9.864  10.679  0.2390 -0.2205  0.6908
  746MOL0     H 2923  -3.174   9.973  10.782 -3.2929  1.5013 -1.8594
  746MOL0     H 2924  -3.194  10.070  10.576  0.7874  0.1439  1.2854
  746MOL0     H 2925  -3.341   9.986  10.608 -0.9740 -1.3337 -0.6000
  746MOL0     H 2926  -3.259   9.944  10.359  0.3719  1.2911  0.8917
  746MOL0     H 2927  -3.291   9.799  10.456 -1.0160  0.9102  0.1513
  746MOL0     H 2928  -2.736   9.312  10.695 -0.3121 -0.9918 -2.1592
  746MOL0     H 2929  -2.521   9.279  10.565 -0.8957  1.0489 -0.5295
  746MOL0     H 2930  -2.069   9.481  10.571 -0.9308 -0.7058 -0.0406
  746MOL0     H 2931  -1.829   9.434  10.519  0.1304  2.1043 -1.9934
  746MOL0     H 2932  -0.400   8.639   9.961 -1.6707 -0.8618  4.3441
  746MOL0     H 2933  -0.223   8.774   9.849 -1.0334 -1.7338  0.4844
  746MOL0     H 2934   0.061   9.062   9.841 -1.3232 -2.9378  0.7697
  746MOL0     H 2935   0.176   9.207   9.666  0.3753 -0.1501  1.0884
  746MOL0     H 2936   0.411   9.299   9.436  0.5030 -0.8938 -0.3180
  746MOL0     H 2937   0.361   9.283   9.603 -0.7860  0.2509  0.0843
  746MOL0     H 2938   0.608   9.127   9.496  1.3537 -1.1538  2.9050
  746MOL0     H 2939   0.555   9.140   9.657 -0.4300  0.6011  0.9559
  746MOL0     H 2940   0.580   9.408   9.581 -0.7353 -0.5779  0.4504
  746MOL0     H 2941   0.698   9.319   9.661 -0.2670  0.1566 -0.1515
  746MOL0     H 2942   0.673   9.325   9.343 -1.8857  1.3861 -0.2135
  746MOL0     H 2943   0.824   9.300   9.438  0.9144  0.1886  1.0518
  746MOL0     H 2944   0.841   9.712   9.426 -0.5007 -0.3606  0.6967
  746MOL0     H 2945   0.319   8.855   9.466  0.0105 -0.4578 -0.2493
  746MOL0     H 2946   0.214   8.609   9.651 -1.6666  0.8415  1.6962
  746MOL0     H 2947   0.076   8.651   9.556 -0.1237 -0.3325 -2.0656
  746MOL0     H 2948   0.227   8.660   9.478 -2.2775 -0.8712 -0.7639
  747MOL0     O 2949   7.911   0.904   2.129  1.1853  0.0820  0.3565
  747MOL0     C 2950   7.927   0.795   2.081 -0.3089 -0.0670  0.5047
  747MOL0     O 2951   7.825   0.705   2.064 -0.2155 -0.6862  0.0699
  747MOL0     C 2952   7.689   0.739   2.039 -0.5774  0.4123 -0.2139
  747MOL0     C 2953   7.654   0.831   1.944  0.3486 -0.2844 -0.3830
  747MOL0     C 2954   7.516   0.859   1.926 -0.5203 -0.0259  0.1113
  747MOL0     C 2955   7.420   0.793   2.006 -0.4260 -0.7215  0.1293
  747MOL0     O 2956   7.283   0.826   2.017 -0.8105 -0.0744  0.3769
  747MOL0     C 2957   7.238   0.936   1.953 -0.8028  0.2581  0.7100
  747MOL0     C 2958   7.099   0.959   2.013 -0.1905  0.4867  0.1432
  747MOL0     C 2959   7.034   1.090   1.965 -0.0274  0.7628  0.1164
  747MOL0     C 2960   6.908   1.112   2.051 -0.2337 -0.0400  0.4210
  747MOL0     C 2961   6.847   1.250   2.027  0.1335  0.3252 -0.3837
  747MOL0     C 2962   6.696   1.258   2.067  0.2098  0.5078  0.6982
  747MOL0     C 2963   6.641   1.396   2.038  0.0378 -0.6036  0.3619
  747MOL0     C 2964   6.523   1.443   2.124  0.0961 -0.6175 -0.4422
  747MOL0     N 2965   6.404   1.364   2.114  0.4024  0.0805  0.5276
  747MOL0     C 2966   6.372   1.244   2.171  0.1253  0.1439 -0.2472
  747MOL0     C 2967   6.256   1.201   2.119  0.5990  0.2985  0.6789
  747MOL0     C 2968   6.195   1.059   2.133  0.4830 -0.4040  0.9510
  747MOL0     C 2969   6.058   1.050   2.048 -0.3710 -0.4772  0.3606
  747MOL0     C 2970   5.951   0.939   2.091  0.1139  0.5097  0.6086
  747MOL0     C 2971   5.960   0.800   2.020  0.6219  0.0356 -0.5334
  747MOL0     O 2972   6.074   0.727   2.057 -0.1604  0.4747  1.0943
  747MOL0     C 2973   6.104   0.601   2.001  0.4983 -0.7215 -0.1591
  747MOL0     C 2974   6.236   0.549   2.000  0.7725 -0.4655  0.7491
  747MOL0     C 2975   6.269   0.433   1.935 -0.1863  0.3077  0.4426
  747MOL0     C 2976   6.408   0.386   1.969  0.1725  0.5305  0.4495
  747MOL0     C 2977   6.170   0.351   1.869 -0.2412 -0.6849 -0.0146
  747MOL0     C 2978   6.196   0.224   1.801 -0.1809  0.9849 -0.0133
  747MOL0     O 2979   6.098   0.131   1.818 -0.4491 -0.2415  0.0261
  747MOL0     C 2980   6.130  -0.006   1.824 -0.7590  0.8787  0.5773
  747MOL0     C 2981   6.009  -0.079   1.821 -0.3955  0.6553 -1.2427
  747MOL0     C 2982   6.026  -0.222   1.810  0.0364  0.3992  0.6328
  747MOL0     C 2983   6.141  -0.292   1.817  0.5665  0.1524  0.8546
  747MOL0     O 2984   6.140  -0.428   1.827 -0.3279  0.3971 -0.8402
  747MOL0     C 2985   6.240  -0.485   1.915 -0.4285 -0.5642 -0.4945
  747MOL0     C 2986   6.186  -0.612   1.970 -0.4893 -0.7322 -0.1627
  747MOL0     C 2987   6.132  -0.711   1.866 -0.2588  0.5510 -0.8631
  747MOL0     C 2988   6.236  -0.796   1.803  0.1052 -0.6371 -0.1810
  747MOL0     C 2989   6.172  -0.898   1.704  0.0483  0.6625  0.3042
  747MOL0     C 2990   6.281  -0.999   1.640 -0.4524  0.9776 -0.0886
  747MOL0     C 2991   6.227  -1.121   1.557  0.1242 -0.6401 -0.5258
  747MOL0     C 2992   6.178  -1.073   1.419  0.7533 -0.2972  0.2862
  747MOL0    Cl 2993   6.305  -1.012   1.318 -0.3090  0.0866 -0.2275
  747MOL0     C 2994   6.258  -0.217   1.826  0.6959 -0.3301  0.2729
  747MOL0     C 2995   6.252  -0.074   1.835 -0.4357  0.9653 -0.0086
  747MOL0     O 2996   6.305   0.203   1.751 -0.0895 -0.4590  0.5578
  747MOL0     C 2997   6.037   0.399   1.883  0.2233  0.4354  0.5150
  747MOL0     C 2998   6.007   0.518   1.955  1.2562 -0.3903  0.0889
  747MOL0     N 2999   6.214   1.302   2.038  0.7732  0.2011  0.2424
  747MOL0     N 3000   6.299   1.397   2.033  0.1939 -0.4912  0.4442
  747MOL0     C 3001   7.459   0.703   2.098  0.1957  0.6356  0.3513
  747MOL0     C 3002   7.594   0.664   2.108 -0.0767 -0.5322  0.3825
  747MOL0     C 3003   8.067   0.760   2.064  0.4709  0.4192 -0.2549
  747MOL0     C 3004   8.096   0.641   2.002 -0.5445  0.8427 -1.3647
  747MOL0     C 3005   8.223   0.605   1.979  0.5580 -0.4313 -0.3015
  747MOL0     C 3006   8.329   0.694   1.999 -0.5739  0.4106 -0.1419
  747MOL0     O 3007   8.459   0.647   1.968  0.7481  0.0053 -0.1637
  747MOL0     C 3008   8.569   0.739   1.987  0.2780 -0.5928  0.2550
  747MOL0     C 3009   8.698   0.672   1.933  0.4542 -0.3586  0.1838
  747MOL0     C 3010   8.689   0.638   1.779 -0.4779 -1.1562  1.8624
  747MOL0     C 3011   8.698   0.755   1.688  0.1270  0.6434 -0.2447
  747MOL0     C 3012   8.821   0.830   1.710 -0.7115 -0.1156  0.4397
  747MOL0     C 3013   8.916   0.905   1.743  0.2308 -0.0038  0.2089
  747MOL0     C 3014   8.304   0.814   2.060 -0.3177  0.1165 -1.0484
  747MOL0     C 3015   8.176   0.847   2.095 -0.0470 -0.2233 -0.5838
  747MOL0     C 3016   8.175   0.980   2.178  0.2310  0.3198 -0.2605
  747MOL0     H 3017   7.721   0.886   1.878 -1.4972  1.2974 -1.0149
  747MOL0     H 3018   7.484   0.945   1.869  2.3393  1.6760  0.8434
  747MOL0     H 3019   7.232   0.901   1.850  1.6557 -0.9560  0.9088
  747MOL0     H 3020   7.303   1.023   1.967 -0.5903 -0.1265  2.2956
  747MOL0     H 3021   7.029   0.878   1.993  1.4384 -0.4508 -2.3342
  747MOL0     H 3022   7.109   0.958   2.122 -2.0554 -1.7161  0.3838
  747MOL0     H 3023   7.103   1.174   1.969 -3.3335  3.9243 -2.5354
  747MOL0     H 3024   7.004   1.076   1.860  0.9206  0.0843 -0.0737
  747MOL0     H 3025   6.832   1.044   2.010 -0.0578  1.4748 -2.7116
  747MOL0     H 3026   6.912   1.084   2.157 -0.4065 -2.8880 -0.2204
  747MOL0     H 3027   6.866   1.283   1.924 -1.0722  0.9160 -0.4317
  747MOL0     H 3028   6.901   1.317   2.095 -0.7278  1.8418 -1.1466
  747MOL0     H 3029   6.634   1.175   2.031 -0.8712  0.8392  1.7308
  747MOL0     H 3030   6.706   1.232   2.173  0.7566  0.5778  0.6670
  747MOL0     H 3031   6.619   1.401   1.931  0.5110  1.0423  0.3086
  747MOL0     H 3032   6.713   1.475   2.064 -1.2385  0.4575  0.8107
  747MOL0     H 3033   6.549   1.452   2.230 -1.7253  1.4438 -0.0992
  747MOL0     H 3034   6.499   1.544   2.091 -0.7608  0.7689  3.7602
  747MOL0     H 3035   6.437   1.185   2.235  1.4099  2.0686  0.3193
  747MOL0     H 3036   6.166   1.038   2.236  0.0836 -0.2996  0.8626
  747MOL0     H 3037   6.257   0.973   2.108 -2.5859 -2.2101 -1.1758
  747MOL0     H 3038   5.997   1.141   2.047 -1.2785 -1.0747 -0.0160
  747MOL0     H 3039   6.084   1.035   1.943  2.6620 -1.3094  1.1325
  747MOL0     H 3040   5.951   0.933   2.200 -0.6743 -1.6005  0.5319
  747MOL0     H 3041   5.851   0.976   2.070 -0.4152  0.0383  2.1857
  747MOL0     H 3042   5.876   0.740   2.057 -0.5226  1.1953 -1.1495
  747MOL0     H 3043   5.934   0.805   1.914 -2.4318  2.2178  0.1658
  747MOL0     H 3044   6.303   0.607   2.062 -1.7289  1.7529  1.5510
  747MOL0     H 3045   6.478   0.464   2.001  2.8116 -1.8690  0.9332
  747MOL0     H 3046   6.456   0.351   1.877 -0.3275  2.5707 -0.6534
  747MOL0     H 3047   6.414   0.300   2.037  2.1981  0.0757 -0.2356
  747MOL0     H 3048   5.910  -0.037   1.832 -0.7370 -0.4622  0.2308
  747MOL0     H 3049   5.935  -0.281   1.817 -0.1003  0.7712  2.4846
  747MOL0     H 3050   6.330  -0.497   1.853 -0.4090  1.3601 -0.8958
  747MOL0     H 3051   6.257  -0.422   2.003 -3.1876  0.9558 -0.9583
  747MOL0     H 3052   6.262  -0.661   2.033 -0.3930 -1.1967 -0.6336
  747MOL0     H 3053   6.102  -0.600   2.040  0.1184 -4.7396  1.5563
  747MOL0     H 3054   6.070  -0.658   1.792 -2.2255  0.5579  0.7011
  747MOL0     H 3055   6.065  -0.778   1.921  2.6283 -1.5091  0.4028
  747MOL0     H 3056   6.298  -0.850   1.875 -2.1373 -3.1673  0.0253
  747MOL0     H 3057   6.305  -0.733   1.746  1.8259 -1.5302  0.8226
  747MOL0     H 3058   6.095  -0.961   1.750  0.6892 -2.4748 -2.5052
  747MOL0     H 3059   6.128  -0.839   1.623 -1.2755 -0.7525 -0.0680
  747MOL0     H 3060   6.349  -1.037   1.716  1.1052  1.6781 -1.0913
  747MOL0     H 3061   6.340  -0.937   1.572  0.8108  0.8923  0.8897
  747MOL0     H 3062   6.135  -1.151   1.608 -0.7584 -0.4871 -1.9832
  747MOL0     H 3063   6.297  -1.205   1.562  1.4316  0.4801  1.4263
  747MOL0     H 3064   6.102  -0.995   1.420  1.2179  0.1530  0.9973
  747MOL0     H 3065   6.124  -1.156   1.373 -1.1262  2.3716 -2.7282
  747MOL0     H 3066   6.359  -0.255   1.834  0.2395 -1.2237  4.6402
  747MOL0     H 3067   6.343  -0.017   1.847 -1.8473  3.0192  1.6131
  747MOL0     H 3068   5.956   0.339   1.843 -0.4199  1.0420  0.8995
  747MOL0     H 3069   5.902   0.540   1.966  1.2229 -1.8637  4.4218
  747MOL0     H 3070   7.381   0.654   2.155  1.7683 -1.5611  0.7113
  747MOL0     H 3071   7.621   0.593   2.185 -3.0642 -2.0734  0.1354
  747MOL0     H 3072   8.025   0.574   1.955  2.8073 -3.7358 -0.6331
  747MOL0     H 3073   8.241   0.513   1.924 -0.4255  0.0872 -1.5406
  747MOL0     H 3074   8.538   0.828   1.931 -1.7951 -1.5049 -0.1522
  747MOL0     H 3075   8.584   0.753   2.094  2.3983  1.3482 -0.2303
  747MOL0     H 3076   8.703   0.584   1.997 -0.4329  0.3075  1.2004
  747MOL0     H 3077   8.783   0.736   1.959 -1.1327  0.8254  2.9705
  747MOL0     H 3078   8.773   0.572   1.756  0.8579  0.4414  2.0282
  747MOL0     H 3079   8.596   0.587   1.750 -1.7110  2.5498 -1.7731
  747MOL0     H 3080   8.614   0.821   1.708 -0.8131  0.4570 -3.1210
  747MOL0     H 3081   8.696   0.713   1.587  1.3558  0.8349 -0.3659
  747MOL0     H 3082   8.994   0.974   1.766  2.3138 -1.8721 -0.8923
  747MOL0     H 3083   8.389   0.877   2.083  1.7745 -3.1936  1.1964
  747MOL0     H 3084   8.253   0.972   2.254 -1.6480  2.2984  2.0120
  747MOL0     H 3085   8.186   1.066   2.111  1.5188  0.8069  0.5588
  747MOL0     H 3086   8.085   0.999   2.237  1.0706  0.5398  0.9851
  748MOL0     O 3087   8.526   5.033   9.447  0.3667  0.5934 -0.4688
  748MOL0     C 3088   8.561   4.998   9.557  0.0067  0.2396  1.1803
  748MOL0     O 3089   8.507   4.892   9.624  0.7892  0.2002  0.4299
  748MOL0     C 3090   8.409   4.802   9.565  0.3012  0.3538 -0.8320
  748MOL0     C 3091   8.428   4.666   9.566  0.9580  0.7124 -0.2672
  748MOL0     C 3092   8.339   4.577   9.509 -0.6868  0.3634  0.6261
  748MOL0     C 3093   8.216   4.619   9.453 -0.7507  0.6106  0.3370
  748MOL0     O 3094   8.113   4.542   9.402 -0.1984  0.3763 -0.4193
  748MOL0     C 3095   8.152   4.428   9.327  0.5086 -0.6783 -0.4939
  748MOL0     C 3096   8.048   4.402   9.211  0.5753 -0.2246  0.1306
  748MOL0     C 3097   7.985   4.265   9.233 -0.5892 -0.0225 -0.1774
  748MOL0     C 3098   7.856   4.227   9.150  0.0184  0.3177  0.5933
  748MOL0     C 3099   7.732   4.308   9.181 -0.4592 -0.4655 -0.5229
  748MOL0     C 3100   7.687   4.321   9.322 -0.2623  0.0669 -0.4570
  748MOL0     C 3101   7.632   4.192   9.381 -0.9256  0.0513 -0.0081
  748MOL0     C 3102   7.614   4.190   9.536 -0.0078 -0.3965 -0.9885
  748MOL0     N 3103   7.734   4.208   9.617 -0.0771 -0.3175 -0.4106
  748MOL0     C 3104   7.792   4.334   9.653 -0.9399  0.3647 -0.2224
  748MOL0     C 3105   7.879   4.315   9.759  0.0552  0.3587  1.1312
  748MOL0     C 3106   7.952   4.413   9.842 -0.0093  0.7916 -0.0875
  748MOL0     C 3107   8.091   4.443   9.784  0.2913  0.2531 -0.3161
  748MOL0     C 3108   8.173   4.564   9.846  0.9556 -0.4674 -0.3028
  748MOL0     C 3109   8.222   4.551  10.000 -0.6259 -0.4376 -0.2574
  748MOL0     O 3110   8.338   4.467  10.036  0.5771 -0.8746 -0.4897
  748MOL0     C 3111   8.469   4.511  10.031 -0.7321  0.0520 -0.1404
  748MOL0     C 3112   8.571   4.434  10.081  0.3291  1.1346 -0.2565
  748MOL0     C 3113   8.708   4.471  10.085  0.8298  0.4709  0.4405
  748MOL0     C 3114   8.800   4.395  10.171 -0.3226  0.7989 -1.2043
  748MOL0     C 3115   8.748   4.585  10.022 -0.0788 -0.1474 -1.0175
  748MOL0     C 3116   8.894   4.632  10.011 -0.1480 -0.3373  0.3302
  748MOL0     O 3117   8.922   4.769  10.007  0.5830 -0.6227  0.0700
  748MOL0     C 3118   9.057   4.805   9.996  0.5940  0.0157 -0.6276
  748MOL0     C 3119   9.107   4.856   9.881 -0.8815 -0.3319  0.0483
  748MOL0     C 3120   9.234   4.910   9.882 -0.2114  0.6691  0.1300
  748MOL0     C 3121   9.317   4.910   9.992 -0.4578 -0.2083 -0.0056
  748MOL0     O 3122   9.439   4.976   9.974 -0.1199  0.5187 -0.3247
  748MOL0     C 3123   9.540   4.938  10.071 -0.3804  0.5549 -0.2187
  748MOL0     C 3124   9.673   5.012  10.038  0.0818 -0.0717 -0.6010
  748MOL0     C 3125   9.670   5.167  10.073  1.1110 -0.0871 -0.3142
  748MOL0     C 3126   9.669   5.240   9.944  0.4189 -0.2707  0.3730
  748MOL0     C 3127   9.698   5.387   9.940  0.3659  0.0812 -0.6150
  748MOL0     C 3128   9.844   5.429  10.001  0.0509 -0.6386  0.2971
  748MOL0     C 3129   9.958   5.380   9.900 -0.2495 -0.1852  0.3877
  748MOL0     C 3130  10.094   5.445   9.924 -0.5994  0.2396  0.4464
  748MOL0    Cl 3131  10.135   5.574   9.804 -0.1480 -0.0326 -0.4832
  748MOL0     C 3132   9.264   4.865  10.115 -0.2240 -0.1697  0.1294
  748MOL0     C 3133   9.136   4.814  10.114 -0.1947 -0.0163  0.1495
  748MOL0     O 3134   8.977   4.547   9.985  0.3313 -0.4995  0.0687
  748MOL0     C 3135   8.645   4.666   9.967  0.0901 -0.5267 -0.8520
  748MOL0     C 3136   8.503   4.630   9.974 -1.3996  0.6565  0.1087
  748MOL0     N 3137   7.883   4.178   9.774  0.7832  0.3670  0.5691
  748MOL0     N 3138   7.790   4.121   9.705 -0.2765  0.4640  0.1189
  748MOL0     C 3139   8.188   4.752   9.472  0.9958  0.2032 -0.3029
  748MOL0     C 3140   8.283   4.851   9.528  1.2738  0.4292 -0.0060
  748MOL0     C 3141   8.679   5.064   9.618 -0.2771 -0.2325  0.5313
  748MOL0     C 3142   8.705   5.033   9.747 -0.1935 -0.7737 -0.0781
  748MOL0     C 3143   8.820   5.077   9.812  0.4350 -0.0176  0.3237
  748MOL0     C 3144   8.922   5.150   9.744  0.5375 -0.0788 -0.9131
  748MOL0     O 3145   9.033   5.192   9.816 -0.6873 -0.2367  0.3327
  748MOL0     C 3146   9.153   5.238   9.756 -0.2881  0.3099  0.6497
  748MOL0     C 3147   9.264   5.261   9.860  0.9482  0.0279 -0.5612
  748MOL0     C 3148   9.225   5.370   9.948 -0.5574 -0.3250 -0.1893
  748MOL0     C 3149   9.327   5.397  10.060  0.2648  1.1598 -0.3034
  748MOL0     C 3150   9.312   5.303  10.173  1.0065  0.0285 -0.8774
  748MOL0     C 3151   9.309   5.228  10.271 -0.0413  0.2536  0.2006
  748MOL0     C 3152   8.901   5.182   9.611  0.4302 -2.2397  0.6580
  748MOL0     C 3153   8.775   5.154   9.549  0.1924 -0.3501  0.2143
  748MOL0     C 3154   8.753   5.206   9.411 -0.9662 -0.7929 -0.3183
  748MOL0     H 3155   8.516   4.628   9.617  0.2982 -1.2752 -0.5239
  748MOL0     H 3156   8.359   4.471   9.509  0.4832  0.5457 -0.5410
  748MOL0     H 3157   8.181   4.337   9.381 -2.9099 -4.0344 -3.7088
  748MOL0     H 3158   8.247   4.462   9.285  0.3333  2.3534  1.2982
  748MOL0     H 3159   7.961   4.468   9.217  1.8130  1.6362 -1.2107
  748MOL0     H 3160   8.091   4.393   9.111 -1.4068 -0.3741 -0.7535
  748MOL0     H 3161   8.065   4.191   9.215  0.5942  1.6006 -1.9717
  748MOL0     H 3162   7.953   4.253   9.337 -3.9483 -0.7568 -1.1942
  748MOL0     H 3163   7.891   4.237   9.047 -0.3643 -1.2755  0.2921
  748MOL0     H 3164   7.840   4.119   9.157  0.5008 -0.0614 -2.5611
  748MOL0     H 3165   7.648   4.276   9.119  0.2289 -1.0152 -1.1868
  748MOL0     H 3166   7.763   4.406   9.143  0.0915 -0.2042  0.5658
  748MOL0     H 3167   7.775   4.355   9.377 -0.8045 -0.6596  0.9189
  748MOL0     H 3168   7.603   4.392   9.331 -0.0556  0.6436 -2.5210
  748MOL0     H 3169   7.703   4.113   9.354  1.4606  2.6205 -1.8665
  748MOL0     H 3170   7.532   4.181   9.339 -0.5612 -2.0168 -0.4334
  748MOL0     H 3171   7.527   4.251   9.559  1.4569  0.7659  1.8887
  748MOL0     H 3172   7.581   4.090   9.568 -1.3389  0.4162  0.2775
  748MOL0     H 3173   7.773   4.431   9.606 -2.5344  0.1966  0.0247
  748MOL0     H 3174   7.962   4.374   9.943  1.8226 -0.0118 -0.5265
  748MOL0     H 3175   7.905   4.511   9.846 -2.4022 -0.2850  0.2229
  748MOL0     H 3176   8.153   4.353   9.778 -0.2357 -0.0430 -1.6100
  748MOL0     H 3177   8.077   4.477   9.681 -2.8872 -0.6527 -0.2820
  748MOL0     H 3178   8.265   4.582   9.789  2.0299  2.6758  2.1767
  748MOL0     H 3179   8.116   4.657   9.842  1.6748 -0.0016  0.0321
  748MOL0     H 3180   8.240   4.651  10.040  1.9842 -0.1343 -1.8960
  748MOL0     H 3181   8.150   4.488  10.052 -1.8699  2.1527  1.3581
  748MOL0     H 3182   8.539   4.346  10.135 -1.1088  0.9947 -1.2934
  748MOL0     H 3183   8.839   4.308  10.118  0.7087  1.0713 -0.9007
  748MOL0     H 3184   8.738   4.367  10.257 -2.3714  1.0515 -2.5124
  748MOL0     H 3185   8.872   4.465  10.214 -1.5469  0.2703  2.0121
  748MOL0     H 3186   9.039   4.876   9.799 -0.6820 -1.7605 -0.4956
  748MOL0     H 3187   9.279   4.965   9.800  0.7038  1.3156  1.0578
  748MOL0     H 3188   9.510   4.974  10.170  0.6966  2.8520 -0.6601
  748MOL0     H 3189   9.563   4.831  10.069 -0.3984  0.5539 -0.4103
  748MOL0     H 3190   9.753   4.972  10.100  0.9161  0.9944 -0.9652
  748MOL0     H 3191   9.693   5.000   9.931  0.8302  4.2746 -1.1163
  748MOL0     H 3192   9.751   5.197  10.141 -0.7840  0.3047  1.8927
  748MOL0     H 3193   9.580   5.188  10.132  1.0673 -0.0488 -0.3942
  748MOL0     H 3194   9.569   5.224   9.904  1.1657  0.1013 -1.8303
  748MOL0     H 3195   9.741   5.192   9.877  1.0291 -0.4894  1.1807
  748MOL0     H 3196   9.682   5.440   9.846 -3.0293  2.1185  0.9534
  748MOL0     H 3197   9.627   5.430  10.011 -0.3835  0.2815 -1.4804
  748MOL0     H 3198   9.880   5.391  10.098  1.9958  0.6896  0.1536
  748MOL0     H 3199   9.849   5.538   9.995  3.8265 -0.5491  2.0151
  748MOL0     H 3200   9.931   5.405   9.797 -0.2849 -0.9208  0.2136
  748MOL0     H 3201   9.953   5.271   9.908 -0.5632 -0.0881  1.9344
  748MOL0     H 3202  10.163   5.361   9.909 -2.1910 -1.1827  0.7301
  748MOL0     H 3203  10.116   5.471  10.028 -1.8119 -0.4714  0.9080
  748MOL0     H 3204   9.324   4.886  10.203  0.2606 -0.5779 -0.0973
  748MOL0     H 3205   9.095   4.780  10.208 -0.3568 -1.0532 -0.2865
  748MOL0     H 3206   8.668   4.765   9.929 -0.0175 -0.3362 -0.4285
  748MOL0     H 3207   8.440   4.698   9.918 -0.4042  0.3576 -1.4277
  748MOL0     H 3208   8.087   4.779   9.441  0.4797  0.6157  1.6265
  748MOL0     H 3209   8.248   4.953   9.534 -0.0625 -0.0242  0.4752
  748MOL0     H 3210   8.635   4.978   9.810 -1.3362  1.7408  0.9822
  748MOL0     H 3211   8.840   5.073   9.919  3.3675 -0.5080 -0.1468
  748MOL0     H 3212   9.187   5.154   9.695  0.1256 -2.0480  3.8911
  748MOL0     H 3213   9.143   5.321   9.685 -1.4772 -1.2545 -1.1027
  748MOL0     H 3214   9.361   5.284   9.815  0.5366 -0.0932 -1.5491
  748MOL0     H 3215   9.279   5.168   9.917  0.9097  0.1998 -0.2702
  748MOL0     H 3216   9.224   5.461   9.886 -0.4349  0.2204  0.5988
  748MOL0     H 3217   9.124   5.364   9.990  1.0495  2.2516  4.8527
  748MOL0     H 3218   9.329   5.500  10.096 -2.1118  1.9274 -2.1097
  748MOL0     H 3219   9.427   5.372  10.026  0.0814  1.3862 -1.0203
  748MOL0     H 3220   9.316   5.158  10.351  4.2727  0.4317  0.2118
  748MOL0     H 3221   8.967   5.252   9.560 -2.0152 -0.6084 -0.4419
  748MOL0     H 3222   8.835   5.273   9.385  0.6094 -3.6856 -3.6624
  748MOL0     H 3223   8.747   5.125   9.338 -2.5694 -1.5045  0.5455
  748MOL0     H 3224   8.658   5.260   9.414 -0.6386 -0.1325  3.3264
  749MOL0     O 3225   3.998   1.240   4.074  0.2149  0.7664  0.2139
  749MOL0     C 3226   4.023   1.123   4.075  0.8435  0.3568 -0.0413
  749MOL0     O 3227   4.141   1.075   4.024 -0.2093  0.4468  0.1088
  749MOL0     C 3228   4.235   1.159   3.973 -0.4573 -0.8145 -0.7908
  749MOL0     C 3229   4.265   1.148   3.837  0.2857  0.3375 -0.2442
  749MOL0     C 3230   4.369   1.212   3.783 -0.1985 -1.2786  0.3333
  749MOL0     C 3231   4.446   1.305   3.852 -0.6511  0.0908 -0.1165
  749MOL0     O 3232   4.545   1.387   3.801 -0.5056  0.7019 -0.2004
  749MOL0     C 3233   4.558   1.393   3.660  0.6194  0.0293  0.0117
  749MOL0     C 3234   4.681   1.479   3.617  0.2923 -0.3429  0.1005
  749MOL0     C 3235   4.677   1.479   3.464  0.9208 -0.4408 -0.2418
  749MOL0     C 3236   4.795   1.566   3.420  0.3038  0.0629 -0.8913
  749MOL0     C 3237   4.828   1.548   3.278  0.6867  0.7786  0.4431
  749MOL0     C 3238   4.935   1.658   3.237  1.0358  0.3847 -0.5280
  749MOL0     C 3239   4.947   1.665   3.083 -0.0857 -0.1975  0.1878
  749MOL0     C 3240   5.067   1.757   3.063  0.0911  0.1177 -0.1868
  749MOL0     N 3241   5.116   1.740   2.930 -0.0315  0.4631 -0.2992
  749MOL0     C 3242   5.081   1.799   2.812  0.5759  0.2876 -0.4177
  749MOL0     C 3243   5.173   1.766   2.721 -0.5087 -0.2534 -0.2433
  749MOL0     C 3244   5.178   1.816   2.586 -0.3061  1.1570 -0.5881
  749MOL0     C 3245   5.127   1.698   2.497 -0.5994 -0.6548 -0.0396
  749MOL0     C 3246   5.151   1.713   2.349 -0.2449 -0.6511 -0.4494
  749MOL0     C 3247   5.078   1.601   2.273 -0.1467 -0.4768  0.1618
  749MOL0     O 3248   5.158   1.480   2.284 -0.0115 -0.4897  0.7909
  749MOL0     C 3249   5.245   1.438   2.188  0.0518  0.3653 -0.1790
  749MOL0     C 3250   5.298   1.313   2.203 -0.0213  0.7195 -0.3301
  749MOL0     C 3251   5.405   1.265   2.127  0.3922  0.2970 -0.2650
  749MOL0     C 3252   5.448   1.125   2.159 -0.2930  0.1233 -0.0289
  749MOL0     C 3253   5.470   1.355   2.045 -0.5438  1.1810  0.5436
  749MOL0     C 3254   5.595   1.334   1.967  0.8300 -0.2444  0.1356
  749MOL0     O 3255   5.661   1.433   1.903 -0.4873 -0.3614 -0.8035
  749MOL0     C 3256   5.764   1.391   1.820  0.3222  0.1089  0.6930
  749MOL0     C 3257   5.739   1.388   1.680 -0.3839  0.2254  0.2407
  749MOL0     C 3258   5.830   1.343   1.587 -0.1128  0.2527 -0.1300
  749MOL0     C 3259   5.959   1.311   1.632  0.1741  0.0746 -0.5381
  749MOL0     O 3260   6.068   1.269   1.553  1.3677 -0.5681 -0.4862
  749MOL0     C 3261   6.063   1.299   1.406  0.1201 -0.5790 -0.6273
  749MOL0     C 3262   6.198   1.357   1.358  0.0239  0.2118  0.5963
  749MOL0     C 3263   6.307   1.250   1.336  0.1250 -0.4627 -0.9165
  749MOL0     C 3264   6.443   1.323   1.292  0.3106 -0.0207 -0.2367
  749MOL0     C 3265   6.571   1.239   1.318 -0.4687  0.0794  0.5349
  749MOL0     C 3266   6.557   1.100   1.252 -0.7191 -0.3202 -1.2127
  749MOL0     C 3267   6.680   1.014   1.296  0.1853  0.1787  0.4952
  749MOL0     C 3268   6.687   0.873   1.257  0.1259 -0.4452 -0.2827
  749MOL0    Cl 3269   6.582   0.752   1.359 -0.3913 -0.1229 -0.0294
  749MOL0     C 3270   5.988   1.321   1.777  0.2107 -0.3397 -0.5541
  749MOL0     C 3271   5.893   1.366   1.868  0.2094 -0.7420  0.0193
  749MOL0     O 3272   5.638   1.220   1.979  0.5173  0.4102  0.5164
  749MOL0     C 3273   5.414   1.483   2.026  0.2091  0.5417  0.5407
  749MOL0     C 3274   5.316   1.527   2.106  0.6169  0.6265  0.3742
  749MOL0     N 3275   5.263   1.671   2.788  0.1108  0.4529  0.0286
  749MOL0     N 3276   5.234   1.663   2.914  0.6428 -0.0462  0.4521
  749MOL0     C 3277   4.411   1.323   3.992  0.0001 -0.5256  0.8416
  749MOL0     C 3278   4.309   1.247   4.049 -0.4268  0.1854  0.3363
  749MOL0     C 3279   3.919   1.025   4.131 -0.0001 -1.1770 -0.3358
  749MOL0     C 3280   3.964   0.893   4.117  0.6044 -0.5159  0.4868
  749MOL0     C 3281   3.871   0.794   4.157  0.0603 -0.6334  0.7553
  749MOL0     C 3282   3.752   0.817   4.224 -0.8503  0.1767  0.7647
  749MOL0     O 3283   3.682   0.711   4.280 -0.7516 -0.7811  0.3779
  749MOL0     C 3284   3.663   0.711   4.418 -1.0589  0.2122  0.5270
  749MOL0     C 3285   3.546   0.617   4.458 -1.4356 -0.4005  0.4622
  749MOL0     C 3286   3.398   0.675   4.446  0.2449 -0.0132  0.1696
  749MOL0     C 3287   3.348   0.643   4.310  0.5950 -0.2959  0.1062
  749MOL0     C 3288   3.197   0.647   4.297  0.3013  0.8383 -0.1758
  749MOL0     C 3289   3.076   0.654   4.292 -0.3979  0.1815 -0.2456
  749MOL0     C 3290   3.717   0.947   4.244 -0.3234 -0.3508  0.4408
  749MOL0     C 3291   3.794   1.057   4.196  0.0228  0.1778 -0.7470
  749MOL0     C 3292   3.741   1.194   4.231  0.0334 -0.6184  0.5719
  749MOL0     H 3293   4.201   1.089   3.774 -0.2582  1.6148 -0.9159
  749MOL0     H 3294   4.398   1.180   3.683 -1.8073  1.9689 -1.3477
  749MOL0     H 3295   4.464   1.427   3.616 -0.6534 -2.2136  0.8180
  749MOL0     H 3296   4.569   1.293   3.616 -2.5191  0.5812 -2.3838
  749MOL0     H 3297   4.663   1.582   3.648 -1.1083 -0.3009 -0.7744
  749MOL0     H 3298   4.774   1.434   3.653  1.8419  0.9632 -2.0490
  749MOL0     H 3299   4.678   1.378   3.421 -2.8534 -0.9682  0.5646
  749MOL0     H 3300   4.585   1.528   3.430  1.3842 -0.0179 -0.9358
  749MOL0     H 3301   4.771   1.671   3.439  1.3344  0.4518 -1.6380
  749MOL0     H 3302   4.879   1.535   3.483 -3.0356 -2.5515  2.7896
  749MOL0     H 3303   4.741   1.571   3.216  0.7785  1.1959  0.4716
  749MOL0     H 3304   4.859   1.445   3.254 -1.8169 -0.1201  0.7764
  749MOL0     H 3305   4.895   1.753   3.273 -0.1378 -0.1107 -0.4558
  749MOL0     H 3306   5.029   1.635   3.288 -0.4864 -1.3839  1.6743
  749MOL0     H 3307   4.858   1.718   3.047 -1.0260 -2.3211 -0.7319
  749MOL0     H 3308   4.972   1.568   3.039 -0.7793 -1.2290  1.9522
  749MOL0     H 3309   5.035   1.861   3.075 -2.2623 -0.7959  2.2263
  749MOL0     H 3310   5.147   1.745   3.137 -2.2212  2.5875  2.9725
  749MOL0     H 3311   4.997   1.868   2.809 -0.0137 -0.4285 -1.5148
  749MOL0     H 3312   5.278   1.848   2.554 -0.0589 -0.5979 -1.7064
  749MOL0     H 3313   5.118   1.907   2.585 -0.6344  0.9343 -1.3286
  749MOL0     H 3314   5.176   1.607   2.532  2.6403  1.6281  1.8651
  749MOL0     H 3315   5.018   1.694   2.509 -0.4503  0.7517  2.6093
  749MOL0     H 3316   5.101   1.801   2.308  1.0398 -0.3555 -1.4574
  749MOL0     H 3317   5.259   1.711   2.335 -0.3707 -1.8191 -1.5259
  749MOL0     H 3318   4.975   1.588   2.308 -1.1287  0.7125 -2.0478
  749MOL0     H 3319   5.069   1.632   2.168  0.3244  3.8285  1.2123
  749MOL0     H 3320   5.264   1.257   2.289 -1.3521 -1.3064 -2.0673
  749MOL0     H 3321   5.393   1.089   2.246  1.6107 -0.5694  0.9577
  749MOL0     H 3322   5.556   1.123   2.179  0.8717 -0.5288 -4.9557
  749MOL0     H 3323   5.434   1.059   2.073 -0.8181  0.4482 -0.1975
  749MOL0     H 3324   5.639   1.415   1.648 -0.3355  0.2166  0.0788
  749MOL0     H 3325   5.791   1.328   1.487 -1.9069 -2.8645  0.8944
  749MOL0     H 3326   6.048   1.201   1.359  0.4463 -1.9449  1.9403
  749MOL0     H 3327   5.982   1.366   1.378  0.6100 -0.8190 -2.8140
  749MOL0     H 3328   6.183   1.406   1.262  1.1175  1.0120  0.8075
  749MOL0     H 3329   6.214   1.435   1.434 -0.0866  1.6319 -0.7952
  749MOL0     H 3330   6.278   1.176   1.261  2.0664 -2.8531  0.5746
  749MOL0     H 3331   6.321   1.193   1.428 -1.6643 -0.1604 -0.4062
  749MOL0     H 3332   6.457   1.421   1.338 -2.2023  0.0201  0.5891
  749MOL0     H 3333   6.443   1.344   1.185  0.6087  0.6130 -0.1170
  749MOL0     H 3334   6.662   1.297   1.297  1.1996 -1.7392  2.3279
  749MOL0     H 3335   6.583   1.228   1.427  1.2997  0.7497  0.4416
  749MOL0     H 3336   6.567   1.118   1.145  1.2010  0.4752 -0.9430
  749MOL0     H 3337   6.466   1.048   1.284  0.1082 -0.6951  0.7363
  749MOL0     H 3338   6.683   1.020   1.405  3.8348  1.8309  0.4538
  749MOL0     H 3339   6.775   1.064   1.275  0.9843  0.9332  4.9519
  749MOL0     H 3340   6.792   0.850   1.279 -0.4106 -1.0596  1.9353
  749MOL0     H 3341   6.667   0.862   1.150 -0.3899 -0.3849 -0.1953
  749MOL0     H 3342   6.089   1.299   1.810 -0.3508 -0.4796  1.1370
  749MOL0     H 3343   5.919   1.383   1.972 -2.0653  2.2629  0.2424
  749MOL0     H 3344   5.453   1.554   1.954 -0.0454 -2.0212 -2.3211
  749MOL0     H 3345   5.283   1.630   2.111  0.1181  0.4816  0.2017
  749MOL0     H 3346   4.468   1.396   4.048 -1.2323 -0.8372  2.5895
  749MOL0     H 3347   4.289   1.258   4.156 -0.7442 -1.5987  0.4967
  749MOL0     H 3348   4.050   0.867   4.056  2.6177  0.5273  2.7633
  749MOL0     H 3349   3.902   0.693   4.134  1.0553  0.3990 -3.0911
  749MOL0     H 3350   3.754   0.669   4.460 -2.7971 -1.9913  2.4152
  749MOL0     H 3351   3.656   0.811   4.460  1.1555  1.8477 -2.5734
  749MOL0     H 3352   3.567   0.574   4.557  1.4958 -1.5968 -0.5639
  749MOL0     H 3353   3.556   0.531   4.391  1.2748  0.3181 -0.1983
  749MOL0     H 3354   3.345   0.627   4.529  2.1036 -0.6228  1.0402
  749MOL0     H 3355   3.393   0.783   4.463  0.9985  0.0859 -0.2131
  749MOL0     H 3356   3.391   0.555   4.260  1.0232  0.8356 -1.6064
  749MOL0     H 3357   3.380   0.730   4.253  0.3668  0.7097  1.4689
  749MOL0     H 3358   2.969   0.648   4.296 -0.4129 -0.0776 -0.9156
  749MOL0     H 3359   3.621   0.954   4.294 -0.0900 -3.0607  1.4380
  749MOL0     H 3360   3.780   1.209   4.332 -1.2475 -3.5730  1.6279
  749MOL0     H 3361   3.776   1.266   4.157  0.3691 -2.7700 -1.4898
  749MOL0     H 3362   3.632   1.209   4.238  0.0823  0.1374 -0.1303
  750MOL0     O 3363   0.050   3.327   6.593 -0.6673 -0.1746 -0.0584
  750MOL0     C 3364   0.144   3.258   6.630  0.3277  0.7212 -0.4286
  750MOL0     O 3365   0.281   3.287   6.629  0.5379 -0.0166 -0.6854
  750MOL0     C 3366   0.340   3.399   6.581  0.1322  0.2402  0.9600
  750MOL0     C 3367   0.479   3.401   6.574  1.4049  0.3182 -0.4129
  750MOL0     C 3368   0.549   3.512   6.537 -0.4566  1.0170  0.7814
  750MOL0     C 3369   0.487   3.629   6.493 -0.1128 -0.6860 -0.2458
  750MOL0     O 3370   0.556   3.740   6.458 -0.0265 -0.0590 -0.2365
  750MOL0     C 3371   0.606   3.739   6.325 -0.0650  0.2188 -0.0526
  750MOL0     C 3372   0.748   3.764   6.322 -0.1694 -0.9718  0.0928
  750MOL0     C 3373   0.841   3.656   6.385  0.1570 -0.4989 -0.1397
  750MOL0     C 3374   0.983   3.684   6.352 -0.9478 -0.0678 -0.0294
  750MOL0     C 3375   1.070   3.600   6.446 -0.2431 -0.1540 -0.3395
  750MOL0     C 3376   1.208   3.675   6.455 -0.2417  0.0596  0.3670
  750MOL0     C 3377   1.322   3.585   6.507 -0.0342 -0.1674  0.0257
  750MOL0     C 3378   1.457   3.657   6.504 -0.2666  0.0738 -0.0810
  750MOL0     N 3379   1.552   3.571   6.574 -0.1180 -0.4561  0.6814
  750MOL0     C 3380   1.555   3.542   6.705  0.4026 -0.7631 -0.9798
  750MOL0     C 3381   1.664   3.469   6.728  0.0813  0.4042 -1.1219
  750MOL0     C 3382   1.708   3.405   6.856  0.4754 -0.4032 -0.7833
  750MOL0     C 3383   1.617   3.419   6.975  0.5480 -1.2928 -0.2642
  750MOL0     C 3384   1.508   3.308   6.979 -0.4578 -0.4832  0.0772
  750MOL0     C 3385   1.398   3.327   6.875  0.6055  0.0435  0.7281
  750MOL0     O 3386   1.316   3.432   6.928 -0.1412 -0.0578 -0.5453
  750MOL0     C 3387   1.183   3.443   6.885 -0.5789  0.5181  0.6336
  750MOL0     C 3388   1.127   3.347   6.798 -0.2334 -0.1769 -0.0981
  750MOL0     C 3389   0.988   3.352   6.766 -0.0889  0.2320  0.0249
  750MOL0     C 3390   0.933   3.237   6.681 -0.1484  0.2776  0.2999
  750MOL0     C 3391   0.901   3.448   6.825  0.3780 -0.3546 -0.3074
  750MOL0     C 3392   0.752   3.447   6.825 -0.0864 -0.5219 -0.6754
  750MOL0     O 3393   0.691   3.559   6.873  0.3240 -0.6807  0.2521
  750MOL0     C 3394   0.559   3.539   6.918 -0.1428  0.3466 -0.5378
  750MOL0     C 3395   0.456   3.593   6.850  0.5012 -0.1125  0.0278
  750MOL0     C 3396   0.326   3.578   6.896 -0.2736 -0.4312  0.0977
  750MOL0     C 3397   0.301   3.515   7.014  0.2690  0.1832  0.1156
  750MOL0     O 3398   0.172   3.491   7.046 -0.0515  0.2727 -0.6986
  750MOL0     C 3399   0.076   3.472   6.950  0.2232 -0.5266 -0.5480
  750MOL0     C 3400  -0.037   3.403   7.032  0.4537  0.0541  0.5603
  750MOL0     C 3401  -0.144   3.332   6.937 -0.2075  0.2175  0.2821
  750MOL0     C 3402  -0.278   3.306   6.995  0.1924 -0.4451 -0.1326
  750MOL0     C 3403  -0.363   3.201   6.912 -0.0435  0.3782  0.6381
  750MOL0     C 3404  -0.442   3.252   6.791  0.5457  0.9872  0.3264
  750MOL0     C 3405  -0.474   3.139   6.694  0.4740  0.2457  0.4684
  750MOL0     C 3406  -0.602   3.162   6.619  0.8355 -0.1221  0.2752
  750MOL0    Cl 3407  -0.733   3.131   6.737 -0.4387 -0.2801  0.1132
  750MOL0     C 3408   0.404   3.451   7.082  0.0992  0.1311  0.3373
  750MOL0     C 3409   0.533   3.462   7.035  0.0258  0.6661 -0.0306
  750MOL0     O 3410   0.699   3.340   6.809  0.0573 -0.0999  0.7358
  750MOL0     C 3411   0.965   3.544   6.904  0.2737  0.2829 -0.3657
  750MOL0     C 3412   1.105   3.536   6.932 -0.5670  0.5268 -0.1891
  750MOL0     N 3413   1.726   3.462   6.605  0.6719  0.8804  0.4373
  750MOL0     N 3414   1.661   3.514   6.513 -0.0627  0.1044 -0.4287
  750MOL0     C 3415   0.352   3.637   6.504 -0.4482  0.8483  0.0691
  750MOL0     C 3416   0.281   3.521   6.547  0.6212  0.4281  0.2330
  750MOL0     C 3417   0.102   3.131   6.692  0.6478  0.1285 -0.4004
  750MOL0     C 3418   0.184   3.087   6.790  0.4268 -0.1263  0.2413
  750MOL0     C 3419   0.149   2.975   6.869 -0.0653 -0.2229  0.2083
  750MOL0     C 3420   0.025   2.914   6.862  0.3863  0.2412  0.6895
  750MOL0     O 3421  -0.010   2.813   6.948 -0.3016  0.5142 -0.2210
  750MOL0     C 3422   0.062   2.795   7.075 -0.6926 -0.4870 -0.4610
  750MOL0     C 3423   0.057   2.924   7.159  0.8099 -0.0704  0.1576
  750MOL0     C 3424  -0.085   2.950   7.221 -0.6056 -0.1774  0.0835
  750MOL0     C 3425  -0.080   3.083   7.305 -0.1385  0.2596 -0.7820
  750MOL0     C 3426  -0.221   3.106   7.350 -0.2896 -0.3294  0.1014
  750MOL0     C 3427  -0.331   3.125   7.396  0.0297 -0.2791  0.4538
  750MOL0     C 3428  -0.066   2.959   6.765 -0.3485  0.0140 -0.1198
  750MOL0     C 3429  -0.028   3.065   6.677 -0.7453  0.0432  0.6014
  750MOL0     C 3430  -0.121   3.095   6.563  0.5676 -0.0738  0.4380
  750MOL0     H 3431   0.534   3.310   6.595 -1.0432 -1.4415 -1.1060
  750MOL0     H 3432   0.657   3.522   6.531 -0.5394  0.9255 -1.7250
  750MOL0     H 3433   0.553   3.820   6.274  2.9179  2.7511  0.5136
  750MOL0     H 3434   0.584   3.642   6.280  1.5024  0.1588 -0.7578
  750MOL0     H 3435   0.769   3.762   6.215  0.9320 -3.5036  0.2854
  750MOL0     H 3436   0.771   3.864   6.361  2.1694 -0.8522 -1.3655
  750MOL0     H 3437   0.816   3.670   6.491 -0.1246 -1.4195 -0.0816
  750MOL0     H 3438   0.806   3.560   6.347  0.8155 -0.3092 -1.2625
  750MOL0     H 3439   1.006   3.653   6.249 -1.9375 -0.7434 -0.0614
  750MOL0     H 3440   1.003   3.790   6.368 -0.0312 -0.3241  0.6277
  750MOL0     H 3441   1.084   3.501   6.402 -0.6400  0.5967 -2.2475
  750MOL0     H 3442   1.029   3.577   6.545  2.2307 -0.4759  0.6762
  750MOL0     H 3443   1.251   3.707   6.360  0.6141 -0.4921  0.5599
  750MOL0     H 3444   1.207   3.765   6.517  2.5010 -0.1135  0.7858
  750MOL0     H 3445   1.307   3.484   6.467 -1.4885 -1.5265  3.6309
  750MOL0     H 3446   1.298   3.569   6.612  0.0390  1.0299  0.2294
  750MOL0     H 3447   1.484   3.658   6.398  0.1112 -0.5828  0.0103
  750MOL0     H 3448   1.438   3.763   6.528 -3.7776 -0.2321 -0.8754
  750MOL0     H 3449   1.477   3.569   6.775 -0.3262 -2.3867 -1.1327
  750MOL0     H 3450   1.806   3.440   6.890 -0.3059 -1.2123  2.7569
  750MOL0     H 3451   1.729   3.300   6.835 -1.7447 -1.4019  1.4692
  750MOL0     H 3452   1.684   3.400   7.059 -0.0473 -0.0776  0.5184
  750MOL0     H 3453   1.578   3.521   6.981  4.5835  0.5117 -0.8578
  750MOL0     H 3454   1.553   3.208   6.972 -0.7743 -0.5140 -2.7436
  750MOL0     H 3455   1.468   3.310   7.080  0.7308 -0.7575  0.5770
  750MOL0     H 3456   1.446   3.336   6.777  1.6129  1.6164  1.3374
  750MOL0     H 3457   1.339   3.235   6.871  1.5149 -0.7518  3.4708
  750MOL0     H 3458   1.187   3.281   6.737  1.5549  1.6491 -0.4256
  750MOL0     H 3459   0.881   3.277   6.593  0.7604  2.1644  0.5722
  750MOL0     H 3460   0.879   3.163   6.741  1.4337  0.1181  1.6009
  750MOL0     H 3461   1.016   3.180   6.637  0.0330  0.7049  0.0806
  750MOL0     H 3462   0.479   3.644   6.757  0.3678 -3.1253 -1.7874
  750MOL0     H 3463   0.241   3.621   6.844 -1.1058  0.0107  1.7496
  750MOL0     H 3464   0.035   3.568   6.917 -1.0934 -1.0282 -0.4447
  750MOL0     H 3465   0.123   3.408   6.875  0.2866  0.5288 -1.4360
  750MOL0     H 3466  -0.003   3.334   7.109 -1.1843  0.5166  1.7436
  750MOL0     H 3467  -0.087   3.481   7.090 -0.5973  0.1484 -0.4380
  750MOL0     H 3468  -0.104   3.235   6.907 -2.6700 -0.1555 -2.2780
  750MOL0     H 3469  -0.154   3.382   6.840  1.2270  0.4713  0.2299
  750MOL0     H 3470  -0.345   3.393   6.997 -0.7160 -1.0252 -2.5800
  750MOL0     H 3471  -0.265   3.262   7.095 -0.0877  0.0078  0.1086
  750MOL0     H 3472  -0.290   3.136   6.863  1.7659  3.1615 -0.6075
  750MOL0     H 3473  -0.427   3.142   6.978 -0.6006 -0.4160 -0.5857
  750MOL0     H 3474  -0.387   3.335   6.746  2.2959 -0.3190 -0.0321
  750MOL0     H 3475  -0.534   3.297   6.830 -1.2195 -3.5991  2.1883
  750MOL0     H 3476  -0.484   3.044   6.747 -0.2084  0.7880  1.3249
  750MOL0     H 3477  -0.390   3.135   6.623  2.6410 -2.7402  2.9363
  750MOL0     H 3478  -0.612   3.100   6.530  2.2253 -1.7270  1.1729
  750MOL0     H 3479  -0.597   3.267   6.587  3.9707 -0.2632 -0.0358
  750MOL0     H 3480   0.385   3.388   7.168 -1.0197 -2.0691 -1.4090
  750MOL0     H 3481   0.619   3.418   7.085 -0.3715  0.7343  0.7230
  750MOL0     H 3482   0.902   3.622   6.947 -0.2278  0.4968 -1.4581
  750MOL0     H 3483   1.154   3.609   6.995 -0.0196 -1.2271  1.5433
  750MOL0     H 3484   0.300   3.730   6.483 -2.7265 -0.7776 -1.9486
  750MOL0     H 3485   0.174   3.533   6.563  0.2502 -2.2521  0.1318
  750MOL0     H 3486   0.277   3.137   6.817 -0.2683  2.2849 -1.5077
  750MOL0     H 3487   0.221   2.948   6.946 -1.3243 -0.0507  1.4870
  750MOL0     H 3488   0.016   2.711   7.127 -0.7658  0.5965  1.3454
  750MOL0     H 3489   0.168   2.781   7.052 -0.3110  0.9805  0.2409
  750MOL0     H 3490   0.095   3.011   7.104  0.0395 -0.2947 -0.7596
  750MOL0     H 3491   0.125   2.909   7.243  0.9040 -1.9249 -0.2040
  750MOL0     H 3492  -0.162   2.957   7.144  0.3123  0.9990 -0.7716
  750MOL0     H 3493  -0.112   2.863   7.281 -0.4222  1.0060  1.9710
  750MOL0     H 3494  -0.038   3.169   7.252  3.1906 -1.4283 -1.1190
  750MOL0     H 3495  -0.019   3.080   7.395 -0.2941 -3.6059 -0.6180
  750MOL0     H 3496  -0.433   3.138   7.425 -0.4424  0.0424 -1.2424
  750MOL0     H 3497  -0.159   2.903   6.760  0.6092 -2.1927  3.0646
  750MOL0     H 3498  -0.180   3.181   6.596  0.5177  0.5948 -1.2820
  750MOL0     H 3499  -0.068   3.137   6.477 -0.8312  1.5387  0.3063
  750MOL0     H 3500  -0.180   3.008   6.532 -1.6358  0.7242  2.0944
  751MOL0     O 3501   9.859   9.638   0.602  0.1062  0.4820 -0.4723
  751MOL0     C 3502   9.853   9.604   0.721 -0.1668 -0.8004  0.5383
  751MOL0     O 3503   9.905   9.492   0.772  0.6817  0.2568 -0.3410
  751MOL0     C 3504  10.023   9.450   0.710 -0.7073  0.1383 -0.6517
  751MOL0     C 3505  10.144   9.511   0.725 -0.3421 -0.3858  0.0113
  751MOL0     C 3506  10.246   9.475   0.643 -1.1483 -0.2287  0.3728
  751MOL0     C 3507  10.248   9.376   0.548  0.7010 -0.4330 -0.8381
  751MOL0     O 3508  10.361   9.357   0.483  0.4094  0.6853  0.2625
  751MOL0     C 3509  10.361   9.252   0.380  0.4457 -0.2594 -0.6202
  751MOL0     C 3510  10.500   9.233   0.320  0.1610  0.7471 -0.8317
  751MOL0     C 3511  10.553   9.354   0.243  0.1235  0.5955 -0.9614
  751MOL0     C 3512  10.686   9.329   0.175  0.2646  0.7230  0.3310
  751MOL0     C 3513  10.811   9.364   0.264 -0.2647  0.3502  0.1839
  751MOL0     C 3514  10.849   9.508   0.277 -0.1663  0.1170  0.2981
  751MOL0     C 3515  10.998   9.538   0.319 -0.2814  0.7281  0.3309
  751MOL0     C 3516  11.039   9.677   0.280  0.3105  0.3972 -0.2118
  751MOL0     N 3517  11.170   9.717   0.324  0.2481 -0.0710 -0.8752
  751MOL0     C 3518  11.258   9.787   0.251  0.4755 -0.2905 -0.2538
  751MOL0     C 3519  11.364   9.820   0.331 -0.4283  0.7586 -0.5452
  751MOL0     C 3520  11.493   9.883   0.276  0.1872 -0.3899 -0.0116
  751MOL0     C 3521  11.612   9.826   0.342 -0.0692 -0.3115 -0.1467
  751MOL0     C 3522  11.644   9.897   0.475  0.0908  0.7592  0.6820
  751MOL0     C 3523  11.787   9.849   0.525  0.1151 -1.2460 -0.3645
  751MOL0     O 3524  11.885   9.899   0.437 -0.5530  0.5545 -0.2448
  751MOL0     C 3525  12.013   9.848   0.444 -0.8199  0.1409 -0.2571
  751MOL0     C 3526  12.098   9.872   0.339 -0.0910 -0.4580  0.7216
  751MOL0     C 3527  12.231   9.840   0.343 -1.1812 -1.2048 -0.1131
  751MOL0     C 3528  12.318   9.892   0.226 -0.2328  0.2557 -0.7358
  751MOL0     C 3529  12.285   9.770   0.459 -0.7285  0.1856 -0.1952
  751MOL0     C 3530  12.426   9.720   0.459  0.5768  0.1354 -0.5934
  751MOL0     O 3531  12.500   9.731   0.345  0.3084  0.0417 -0.5451
  751MOL0     C 3532  12.625   9.688   0.361  0.9364  0.8668  0.8140
  751MOL0     C 3533  12.663   9.554   0.339  0.4909  0.0700  0.6736
  751MOL0     C 3534  12.791   9.515   0.363  0.1752 -0.5763  0.3037
  751MOL0     C 3535  12.890   9.612   0.393  0.3008  0.4392 -0.1846
  751MOL0     O 3536  13.023   9.578   0.414 -0.4662  0.4322  0.5712
  751MOL0     C 3537  13.072   9.463   0.343  0.7310  0.3086 -0.1750
  751MOL0     C 3538  13.215   9.461   0.345 -0.1184 -0.1514  0.0553
  751MOL0     C 3539  13.266   9.329   0.284  0.2167 -0.3979  0.2246
  751MOL0     C 3540  13.415   9.342   0.250 -0.0895 -0.0084  0.0922
  751MOL0     C 3541  13.453   9.434   0.137  0.1096  0.0955 -0.1213
  751MOL0     C 3542  13.584   9.397   0.066  0.1874 -1.0548  1.1054
  751MOL0     C 3543  13.699   9.450   0.158 -0.3825 -0.3774  0.8410
  751MOL0     C 3544  13.750   9.592   0.129  0.0810  0.2940  0.2609
  751MOL0    Cl 3545  13.616   9.711   0.181  0.0464 -0.0634 -0.2233
  751MOL0     C 3546  12.855   9.743   0.390 -0.3163 -0.2955  0.8217
  751MOL0     C 3547  12.723   9.787   0.384  0.4626 -0.3989  0.3983
  751MOL0     O 3548  12.465   9.669   0.570  0.3693  0.0382  0.2879
  751MOL0     C 3549  12.201   9.745   0.566  0.1368  0.2121 -0.1139
  751MOL0     C 3550  12.062   9.779   0.551  0.0930  0.2333 -0.7244
  751MOL0     N 3551  11.328   9.772   0.461 -0.0810  0.3860 -0.4082
  751MOL0     N 3552  11.217   9.714   0.454 -0.1618 -0.2285  0.4449
  751MOL0     C 3553  10.127   9.317   0.529  0.0405  0.5958  0.3151
  751MOL0     C 3554  10.009   9.354   0.612 -0.6353  0.4404  0.6789
  751MOL0     C 3555   9.756   9.683   0.805 -0.0403  0.7782  0.1975
  751MOL0     C 3556   9.783   9.688   0.946 -0.4049 -0.5208 -0.1276
  751MOL0     C 3557   9.691   9.741   1.035 -0.6000  0.4184 -0.5125
  751MOL0     C 3558   9.572   9.788   0.991 -0.5830 -0.6856 -0.0369
  751MOL0     O 3559   9.483   9.852   1.075  0.0417  0.6431  0.1084
  751MOL0     C 3560   9.358   9.783   1.095 -0.4892 -0.0465  0.5524
  751MOL0     C 3561   9.300   9.784   1.243  1.3537 -0.1676  0.2657
  751MOL0     C 3562   9.185   9.683   1.265  0.3614 -0.6449 -0.1331
  751MOL0     C 3563   9.114   9.711   1.401 -0.3419  0.5980 -0.7053
  751MOL0     C 3564   9.040   9.837   1.407 -0.2536  0.4816 -0.0705
  751MOL0     C 3565   8.964   9.931   1.411  0.7751 -0.3876 -0.2028
  751MOL0     C 3566   9.547   9.792   0.857  1.0283 -0.0413  0.1769
  751MOL0     C 3567   9.638   9.740   0.755  0.4476 -0.6895 -0.2791
  751MOL0     C 3568   9.594   9.760   0.604  0.0335  0.6517  0.0558
  751MOL0     H 3569  10.174   9.590   0.793  3.4138  1.0239 -2.9226
  751MOL0     H 3570  10.337   9.530   0.665 -0.7648 -0.1524 -1.2283
  751MOL0     H 3571  10.288   9.273   0.302  0.7743  2.3596 -0.3123
  751MOL0     H 3572  10.324   9.154   0.409 -1.2918 -0.0444 -1.9757
  751MOL0     H 3573  10.563   9.223   0.410 -1.0791  0.2613  0.0103
  751MOL0     H 3574  10.508   9.145   0.255 -1.5661  0.8343 -1.2092
  751MOL0     H 3575  10.477   9.364   0.165 -0.2087  3.6819 -0.3489
  751MOL0     H 3576  10.558   9.445   0.303 -1.4561 -0.8860  1.6058
  751MOL0     H 3577  10.691   9.224   0.142 -1.3165  1.4080 -2.3885
  751MOL0     H 3578  10.681   9.391   0.085 -0.0480  1.5018  0.8763
  751MOL0     H 3579  10.895   9.308   0.221 -0.4040  0.4950 -0.2920
  751MOL0     H 3580  10.807   9.323   0.365  0.8797 -3.0787 -1.0338
  751MOL0     H 3581  10.835   9.544   0.174 -0.0677 -0.1088  0.2035
  751MOL0     H 3582  10.776   9.566   0.333 -2.7947 -1.0138 -1.7360
  751MOL0     H 3583  11.061   9.468   0.264 -1.2785  0.7074 -0.8301
  751MOL0     H 3584  11.019   9.527   0.426  0.8622 -0.6832 -0.0054
  751MOL0     H 3585  11.039   9.679   0.171 -0.1901 -1.8723 -0.3119
  751MOL0     H 3586  10.969   9.743   0.331 -0.8893 -1.8377  1.1818
  751MOL0     H 3587  11.255   9.804   0.143  1.7645  0.3385 -0.2128
  751MOL0     H 3588  11.493   9.988   0.305 -0.8342 -0.9159  2.1229
  751MOL0     H 3589  11.492   9.858   0.169  1.2893 -2.0669  0.3288
  751MOL0     H 3590  11.614   9.717   0.345  2.5655 -0.4297 -2.1220
  751MOL0     H 3591  11.700   9.852   0.282  1.6292  1.6162  2.9281
  751MOL0     H 3592  11.644  10.007   0.471 -1.0266  0.7428 -2.3928
  751MOL0     H 3593  11.563   9.871   0.544  0.7390 -1.5103  0.6589
  751MOL0     H 3594  11.819   9.884   0.624  1.0882  1.3067 -1.5059
  751MOL0     H 3595  11.783   9.740   0.520 -3.4155 -1.1807 -1.1493
  751MOL0     H 3596  12.054   9.920   0.252 -1.1219 -1.1922  0.8253
  751MOL0     H 3597  12.416   9.930   0.257 -1.9031  1.2637  4.0531
  751MOL0     H 3598  12.267   9.971   0.171  0.0464  0.2707 -0.9774
  751MOL0     H 3599  12.330   9.803   0.163 -1.1592 -0.8841  0.6251
  751MOL0     H 3600  12.587   9.481   0.314  1.7354 -0.5841 -1.3861
  751MOL0     H 3601  12.800   9.408   0.345 -3.4191 -0.6046 -2.3965
  751MOL0     H 3602  13.028   9.377   0.395 -2.8001  4.0122  3.8084
  751MOL0     H 3603  13.032   9.463   0.241 -0.4530 -0.0968  0.2746
  751MOL0     H 3604  13.230   9.546   0.278 -1.6724  0.9521  1.0324
  751MOL0     H 3605  13.269   9.478   0.439  2.2647 -0.5503 -1.1594
  751MOL0     H 3606  13.213   9.306   0.191 -0.6613  0.8970  0.3705
  751MOL0     H 3607  13.241   9.240   0.342  0.4935 -0.5649  0.0879
  751MOL0     H 3608  13.446   9.239   0.231 -1.9889 -0.4238 -1.0014
  751MOL0     H 3609  13.473   9.367   0.340  2.6396  2.6226 -2.1663
  751MOL0     H 3610  13.371   9.459   0.069 -1.3730  0.0780  1.5736
  751MOL0     H 3611  13.467   9.526   0.194 -1.4058 -0.6546  1.6064
  751MOL0     H 3612  13.587   9.441  -0.034  0.6744  0.0285  1.5832
  751MOL0     H 3613  13.596   9.289   0.051 -0.7458 -0.9371 -0.7960
  751MOL0     H 3614  13.786   9.383   0.151  0.4967  0.3384  3.7030
  751MOL0     H 3615  13.677   9.452   0.265  1.0337  0.3641  1.1508
  751MOL0     H 3616  13.768   9.602   0.021  4.0779 -3.1836  0.3600
  751MOL0     H 3617  13.836   9.607   0.194  0.0469 -1.7783  0.8448
  751MOL0     H 3618  12.932   9.818   0.406  0.4173 -0.4326 -1.5513
  751MOL0     H 3619  12.710   9.895   0.391  1.3065 -0.1986 -0.7809
  751MOL0     H 3620  12.238   9.704   0.659 -1.4085  0.5685  0.6963
  751MOL0     H 3621  12.003   9.771   0.642  3.3594  1.7155  1.7769
  751MOL0     H 3622  10.113   9.237   0.456  0.8839  0.0274  0.7620
  751MOL0     H 3623   9.922   9.290   0.599 -0.1038 -0.2208  0.2638
  751MOL0     H 3624   9.878   9.660   0.990 -1.1436  2.1338  3.6627
  751MOL0     H 3625   9.719   9.728   1.139 -0.9909 -3.9690 -0.7687
  751MOL0     H 3626   9.288   9.830   1.026 -0.1104 -2.4774 -1.6322
  751MOL0     H 3627   9.384   9.683   1.059 -0.5629  0.3079 -0.5153
  751MOL0     H 3628   9.249   9.881   1.241 -3.2748 -2.3080  0.2131
  751MOL0     H 3629   9.376   9.776   1.321  0.6198  1.4917  1.2042
  751MOL0     H 3630   9.104   9.677   1.192  0.1843  1.7416 -0.2139
  751MOL0     H 3631   9.228   9.583   1.272  0.1310 -0.8131 -1.0486
  751MOL0     H 3632   9.192   9.710   1.478  1.9803  1.2626 -2.8752
  751MOL0     H 3633   9.051   9.625   1.426  1.8800 -1.5240 -1.8892
  751MOL0     H 3634   8.896  10.012   1.427  0.8220 -0.6222  1.4528
  751MOL0     H 3635   9.451   9.828   0.824  0.4817 -1.2819  0.3583
  751MOL0     H 3636   9.486   9.760   0.590 -0.5010 -0.3636  3.3252
  751MOL0     H 3637   9.639   9.843   0.549 -1.7321  0.6205 -1.5266
  751MOL0     H 3638   9.624   9.672   0.547 -1.3510 -0.1626  0.5307
  752MOL0     O 3639   5.102   9.192   7.279 -0.6648 -0.3875 -0.3085
  752MOL0     C 3640   4.984   9.163   7.283  0.6019 -0.6355  0.3745
  752MOL0     O 3641   4.922   9.096   7.388 -0.6510 -0.2201 -0.2416
  752MOL0     C 3642   5.005   9.017   7.469 -0.5018 -0.4739 -0.4849
  752MOL0     C 3643   5.072   8.900   7.423 -0.0317 -0.4313 -0.0485
  752MOL0     C 3644   5.134   8.812   7.512 -0.6964  0.8290 -0.0127
  752MOL0     C 3645   5.125   8.831   7.650 -0.3336  0.7914  0.7252
  752MOL0     O 3646   5.154   8.733   7.739  0.7792 -0.0317  0.3902
  752MOL0     C 3647   5.184   8.596   7.687 -0.3572 -0.4007 -0.4466
  752MOL0     C 3648   5.210   8.504   7.803  0.0027 -0.6335  0.0790
  752MOL0     C 3649   5.258   8.367   7.770  0.3914  0.3575  0.2682
  752MOL0     C 3650   5.305   8.278   7.901  0.3761  0.1726 -0.1902
  752MOL0     C 3651   5.425   8.192   7.863  0.7500  0.0354 -0.5072
  752MOL0     C 3652   5.374   8.073   7.780  0.2722 -0.7084 -0.4682
  752MOL0     C 3653   5.478   8.024   7.681 -0.3109 -0.2091  0.3614
  752MOL0     C 3654   5.458   7.884   7.613  0.0369 -0.9871  0.0714
  752MOL0     N 3655   5.334   7.879   7.533 -0.5119 -0.1186  0.1573
  752MOL0     C 3656   5.331   7.898   7.401 -0.2061 -0.4855 -0.3618
  752MOL0     C 3657   5.210   7.853   7.356 -0.1675 -0.5685  0.1538
  752MOL0     C 3658   5.154   7.858   7.220 -0.4710  0.9004  0.6166
  752MOL0     C 3659   5.183   7.719   7.154  0.1550 -0.0323 -0.6605
  752MOL0     C 3660   5.114   7.716   7.015 -0.5158  0.4673 -0.5036
  752MOL0     C 3661   5.169   7.588   6.946  0.2359  0.5804  0.2305
  752MOL0     O 3662   5.123   7.474   7.024  0.2057 -0.5635 -0.3490
  752MOL0     C 3663   5.122   7.354   6.967  0.3260  0.4709  0.2684
  752MOL0     C 3664   5.029   7.261   6.998  0.3374 -0.1230  0.4475
  752MOL0     C 3665   5.011   7.146   6.922 -0.1677  0.5575  0.2000
  752MOL0     C 3666   4.893   7.055   6.973  0.0131 -0.0386 -0.1021
  752MOL0     C 3667   5.100   7.115   6.818  0.4170 -0.2986  0.8794
  752MOL0     C 3668   5.075   7.003   6.729  0.5197  0.3314  0.6569
  752MOL0     O 3669   4.949   6.963   6.704 -0.4728  0.3774 -0.0789
  752MOL0     C 3670   4.941   6.862   6.609  0.2368 -0.6692 -1.0205
  752MOL0     C 3671   4.937   6.726   6.649  0.1370 -0.0911  0.3864
  752MOL0     C 3672   4.942   6.622   6.547 -0.3243  0.5481 -0.1762
  752MOL0     C 3673   4.945   6.661   6.409  0.5240  0.8457 -0.3100
  752MOL0     O 3674   4.956   6.558   6.324 -0.2956 -0.4023  0.3106
  752MOL0     C 3675   4.878   6.563   6.204 -0.6359  0.6128 -0.4441
  752MOL0     C 3676   4.726   6.535   6.240 -0.3418  0.2160  1.0246
  752MOL0     C 3677   4.646   6.536   6.102 -1.1616 -1.0655  0.6530
  752MOL0     C 3678   4.498   6.525   6.130 -0.9616 -0.3463  0.2586
  752MOL0     C 3679   4.429   6.526   6.006 -0.3284  0.0096 -0.3120
  752MOL0     C 3680   4.269   6.517   6.030  0.2283 -0.5726 -0.4722
  752MOL0     C 3681   4.194   6.500   5.897  0.4365 -0.2610 -0.1472
  752MOL0     C 3682   4.045   6.521   5.911 -0.6992  0.2771  0.4291
  752MOL0    Cl 3683   3.964   6.508   6.072  0.4332  0.6570 -0.6141
  752MOL0     C 3684   4.951   6.792   6.379 -0.2092  0.4339  0.2966
  752MOL0     C 3685   4.951   6.894   6.477  0.1476 -0.2919 -1.2053
  752MOL0     O 3686   5.173   6.950   6.689 -0.5127  0.0129 -0.2282
  752MOL0     C 3687   5.196   7.207   6.797  0.6073  0.0311  0.6661
  752MOL0     C 3688   5.211   7.322   6.859  0.2434 -0.1914 -0.0626
  752MOL0     N 3689   5.136   7.807   7.460  0.2744  0.4626  0.4858
  752MOL0     N 3690   5.218   7.815   7.567  0.0609  0.6768  0.2732
  752MOL0     C 3691   5.065   8.949   7.697 -0.2476 -0.7260 -0.2846
  752MOL0     C 3692   5.011   9.046   7.604  0.0355 -0.1009  0.0270
  752MOL0     C 3693   4.887   9.212   7.176 -0.4984 -0.4335  0.3881
  752MOL0     C 3694   4.761   9.164   7.181 -0.3913  0.3114 -0.0168
  752MOL0     C 3695   4.667   9.212   7.085 -0.8658  0.1002  0.3686
  752MOL0     C 3696   4.707   9.297   6.982  0.1920  0.2120 -0.4912
  752MOL0     O 3697   4.608   9.340   6.887 -0.2433  0.3604 -0.4003
  752MOL0     C 3698   4.629   9.457   6.797 -0.1479 -1.0216 -0.4795
  752MOL0     C 3699   4.516   9.481   6.703  0.6853 -0.1337 -0.0790
  752MOL0     C 3700   4.385   9.516   6.761 -0.1540 -0.4650  0.0751
  752MOL0     C 3701   4.267   9.472   6.682 -0.7971  0.2856 -0.6996
  752MOL0     C 3702   4.269   9.516   6.544  0.6891 -0.0223 -0.0433
  752MOL0     C 3703   4.268   9.560   6.431  0.5346  0.2330 -0.8100
  752MOL0     C 3704   4.837   9.331   6.973  0.3163 -0.5369 -0.4775
  752MOL0     C 3705   4.936   9.298   7.068 -0.2411  0.3439  0.1602
  752MOL0     C 3706   5.070   9.350   7.035 -0.0694 -0.2268 -0.4496
  752MOL0     H 3707   5.077   8.886   7.316 -1.7688  2.0715 -0.5322
  752MOL0     H 3708   5.186   8.724   7.475  1.3961  2.1527 -0.4121
  752MOL0     H 3709   5.275   8.587   7.626  0.7052  0.3874  0.9660
  752MOL0     H 3710   5.096   8.564   7.631 -0.5078  1.0758 -1.0769
  752MOL0     H 3711   5.300   8.543   7.852  1.1053  0.8103 -2.8443
  752MOL0     H 3712   5.130   8.502   7.877  0.6506  0.2305  0.8232
  752MOL0     H 3713   5.178   8.317   7.716  0.5995 -1.0305  1.1904
  752MOL0     H 3714   5.347   8.381   7.708  0.6816  2.8203  1.1193
  752MOL0     H 3715   5.332   8.335   7.990  0.3587  0.9770 -0.6882
  752MOL0     H 3716   5.230   8.202   7.925  2.6129 -1.8826  0.7866
  752MOL0     H 3717   5.464   8.150   7.956 -1.0005  0.9953  0.7004
  752MOL0     H 3718   5.512   8.247   7.824  1.3666 -1.1990 -0.9592
  752MOL0     H 3719   5.344   7.993   7.849  0.9449 -1.9285 -1.5402
  752MOL0     H 3720   5.286   8.107   7.724 -0.7780  0.7056  1.8957
  752MOL0     H 3721   5.572   8.013   7.736 -0.2733 -0.0671  0.3260
  752MOL0     H 3722   5.485   8.096   7.599 -2.3508 -0.1892  0.1561
  752MOL0     H 3723   5.549   7.855   7.561  0.5069 -0.6938  0.7131
  752MOL0     H 3724   5.444   7.813   7.695 -1.5123  1.1446  1.7768
  752MOL0     H 3725   5.405   7.949   7.340 -1.2211  2.7072  0.8453
  752MOL0     H 3726   5.182   7.946   7.162  2.6511  1.0329  2.1221
  752MOL0     H 3727   5.045   7.873   7.225 -0.2945  2.7882 -0.5630
  752MOL0     H 3728   5.288   7.698   7.136  0.0915 -1.9157  0.9007
  752MOL0     H 3729   5.143   7.640   7.217 -1.6926  1.1812 -0.2245
  752MOL0     H 3730   5.006   7.707   7.030 -0.2078 -3.2352  0.4682
  752MOL0     H 3731   5.136   7.805   6.956 -0.6154  1.8716  1.4838
  752MOL0     H 3732   5.134   7.576   6.843 -1.7920  2.2758  0.6575
  752MOL0     H 3733   5.278   7.592   6.939  0.1431  2.5595 -0.8428
  752MOL0     H 3734   4.959   7.280   7.079 -0.7222 -2.5013  0.1534
  752MOL0     H 3735   4.879   7.075   7.079 -0.4928 -1.8588  0.2103
  752MOL0     H 3736   4.908   6.948   6.956 -0.4078  0.1303 -1.7588
  752MOL0     H 3737   4.800   7.085   6.924  0.0817 -1.0308 -0.8755
  752MOL0     H 3738   4.919   6.694   6.752 -0.7774 -0.9973 -0.0332
  752MOL0     H 3739   4.956   6.517   6.570  2.4536  0.7739 -0.5249
  752MOL0     H 3740   4.892   6.660   6.155  1.2182  0.4000 -0.4428
  752MOL0     H 3741   4.913   6.493   6.127  0.1128  2.9346 -2.3263
  752MOL0     H 3742   4.712   6.431   6.268  3.1645 -1.1457 -1.4970
  752MOL0     H 3743   4.689   6.614   6.306  2.9049  2.6106  0.2599
  752MOL0     H 3744   4.688   6.461   6.033  0.9050  0.2765  0.3684
  752MOL0     H 3745   4.659   6.630   6.048 -1.4432 -1.3574  0.0646
  752MOL0     H 3746   4.464   6.615   6.184  1.1936  1.7475 -1.6485
  752MOL0     H 3747   4.480   6.435   6.190 -1.8878 -1.5119 -1.6814
  752MOL0     H 3748   4.446   6.625   5.963  1.8912  1.0012  2.5090
  752MOL0     H 3749   4.466   6.443   5.945  1.0982 -1.3705  2.2629
  752MOL0     H 3750   4.233   6.599   6.092 -2.3087 -2.3440  0.5422
  752MOL0     H 3751   4.257   6.426   6.089  0.6404 -0.5445 -0.3444
  752MOL0     H 3752   4.203   6.395   5.868  0.4114 -0.8340  1.7647
  752MOL0     H 3753   4.233   6.570   5.824 -1.2665  1.6234  0.6488
  752MOL0     H 3754   4.000   6.460   5.832 -2.6507  3.2737 -0.9853
  752MOL0     H 3755   4.014   6.624   5.890 -4.3441 -0.5720  0.9719
  752MOL0     H 3756   4.959   6.825   6.276 -0.4209 -1.6279 -0.4240
  752MOL0     H 3757   4.963   6.997   6.444  0.5915 -0.0270 -0.2489
  752MOL0     H 3758   5.260   7.188   6.712 -1.0006 -0.5454 -0.4466
  752MOL0     H 3759   5.281   7.400   6.833 -1.3554  1.4726  0.4259
  752MOL0     H 3760   5.045   8.959   7.803 -1.9018 -3.1873 -0.2955
  752MOL0     H 3761   4.954   9.130   7.642  1.7443  0.3569  1.7261
  752MOL0     H 3762   4.725   9.100   7.260 -1.1155 -0.0260 -0.6066
  752MOL0     H 3763   4.567   9.173   7.097 -1.5555  1.1357 -1.6224
  752MOL0     H 3764   4.652   9.548   6.853  0.7736 -2.0428  0.8785
  752MOL0     H 3765   4.725   9.433   6.750  0.4432  0.3278 -0.0074
  752MOL0     H 3766   4.502   9.388   6.645 -3.6034 -0.5925  1.3320
  752MOL0     H 3767   4.547   9.554   6.628  2.0933  0.1112  0.7153
  752MOL0     H 3768   4.375   9.481   6.864  0.6868 -0.6118  0.1117
  752MOL0     H 3769   4.387   9.626   6.763 -1.1675 -0.4356 -0.1107
  752MOL0     H 3770   4.183   9.528   6.725 -0.6393  1.5565 -1.9823
  752MOL0     H 3771   4.252   9.363   6.687 -2.0884  0.4652 -0.1736
  752MOL0     H 3772   4.263   9.594   6.330  0.1801 -1.8225 -1.5251
  752MOL0     H 3773   4.871   9.379   6.882  0.8512 -1.0033 -0.5328
  752MOL0     H 3774   5.127   9.278   6.976 -1.4707 -0.5577 -1.4524
  752MOL0     H 3775   5.054   9.439   6.973 -0.1736  0.2473  0.2516
  752MOL0     H 3776   5.128   9.371   7.125  1.3112 -0.6693 -1.2023
  753MOL0     O 3777   5.914  11.014   7.331  0.5929  0.5009  0.9029
  753MOL0     C 3778   5.809  10.952   7.322 -0.0319 -0.8084  0.1040
  753MOL0     O 3779   5.779  10.838   7.390  0.4046 -0.3610  0.2651
  753MOL0     C 3780   5.876  10.793   7.457 -1.3805 -0.3504 -0.2904
  753MOL0     C 3781   5.862  10.792   7.598  0.0020  0.2071 -0.0316
  753MOL0     C 3782   5.964  10.749   7.678 -0.2310  0.0200  0.6956
  753MOL0     C 3783   6.091  10.715   7.624 -0.9108  0.5197 -0.3037
  753MOL0     O 3784   6.191  10.692   7.717  0.5601  0.7054 -0.5644
  753MOL0     C 3785   6.328  10.695   7.664  1.1544  0.1911 -0.7762
  753MOL0     C 3786   6.433  10.666   7.776 -1.0279 -0.0647 -0.7261
  753MOL0     C 3787   6.572  10.667   7.713 -1.2176 -0.0214 -0.2465
  753MOL0     C 3788   6.674  10.683   7.827  0.0484 -0.0904 -0.5711
  753MOL0     C 3789   6.828  10.691   7.794  0.2643  0.0993  1.1942
  753MOL0     C 3790   6.905  10.683   7.921 -1.2436 -0.2202 -1.0515
  753MOL0     C 3791   7.048  10.723   7.891  0.3992  0.1892  0.3263
  753MOL0     C 3792   7.137  10.700   8.011  0.2681  0.5053 -0.1139
  753MOL0     N 3793   7.279  10.729   7.987 -0.1509  1.0684 -0.0496
  753MOL0     C 3794   7.360  10.636   7.921 -0.6188  0.1524 -0.4068
  753MOL0     C 3795   7.476  10.704   7.911 -0.4657  0.3254  0.0431
  753MOL0     C 3796   7.605  10.646   7.867  0.4820  0.0146  0.1478
  753MOL0     C 3797   7.653  10.532   7.969  0.6791 -0.0457  0.0276
  753MOL0     C 3798   7.795  10.571   8.021 -0.5399 -0.3091  0.0916
  753MOL0     C 3799   7.843  10.459   8.112  1.0449 -0.2632 -0.0027
  753MOL0     O 3800   7.972  10.495   8.162 -0.7313 -0.8137  0.4763
  753MOL0     C 3801   8.084  10.454   8.088  0.4054 -0.2329 -0.9742
  753MOL0     C 3802   8.199  10.492   8.136 -0.2963 -0.5530 -1.0264
  753MOL0     C 3803   8.320  10.469   8.074  0.0331  1.0041 -0.3446
  753MOL0     C 3804   8.447  10.511   8.149  1.2392 -0.0069  0.4878
  753MOL0     C 3805   8.318  10.386   7.950  0.3781  0.0565 -0.6136
  753MOL0     C 3806   8.434  10.343   7.877  0.2054 -0.5197 -0.0651
  753MOL0     O 3807   8.548  10.325   7.948 -0.0052 -0.2959 -0.4799
  753MOL0     C 3808   8.650  10.257   7.879  0.2348 -0.3453  1.2268
  753MOL0     C 3809   8.638  10.113   7.856  1.2758 -0.3723  0.7827
  753MOL0     C 3810   8.743  10.050   7.789  0.0635  0.6449 -0.9075
  753MOL0     C 3811   8.860  10.113   7.755 -0.4472 -0.0737  0.0774
  753MOL0     O 3812   8.968  10.054   7.695  0.2999 -0.2238  0.0347
  753MOL0     C 3813   8.964   9.915   7.661 -0.4210 -0.5970 -0.3817
  753MOL0     C 3814   9.079   9.870   7.572  0.1780 -0.0550  0.8625
  753MOL0     C 3815   9.212   9.892   7.622  0.6771 -0.3147  0.5613
  753MOL0     C 3816   9.313   9.842   7.517 -0.1166  0.1745  0.3319
  753MOL0     C 3817   9.455   9.843   7.580  0.2391 -1.1661  0.0095
  753MOL0     C 3818   9.538   9.771   7.474 -0.2586  0.1809  0.4810
  753MOL0     C 3819   9.672   9.730   7.532  0.0378 -0.5883  0.0939
  753MOL0     C 3820   9.754   9.645   7.423  0.3374 -0.1405 -0.1323
  753MOL0    Cl 3821   9.659   9.524   7.339 -0.0773  0.0763  0.4967
  753MOL0     C 3822   8.876  10.249   7.782  0.1057  0.1096 -0.5337
  753MOL0     C 3823   8.770  10.317   7.847 -0.0290  0.2232  0.3055
  753MOL0     O 3824   8.420  10.342   7.756  0.3368 -0.7897 -0.3430
  753MOL0     C 3825   8.192  10.357   7.893  0.0740 -0.1689 -0.4209
  753MOL0     C 3826   8.072  10.400   7.957 -0.0425 -0.5413 -0.1718
  753MOL0     N 3827   7.460  10.836   7.958 -0.0465  0.0855  0.1713
  753MOL0     N 3828   7.342  10.847   8.008 -0.8946 -0.5080 -0.2138
  753MOL0     C 3829   6.110  10.714   7.485 -0.3749 -0.4603 -0.5797
  753MOL0     C 3830   5.995  10.746   7.406  0.0754  0.5345  0.6954
  753MOL0     C 3831   5.707  10.999   7.229  0.4402  0.3706  0.0978
  753MOL0     C 3832   5.652  10.903   7.143 -0.4514 -0.0187  0.3504
  753MOL0     C 3833   5.557  10.929   7.045 -1.3071 -0.2475  0.7805
  753MOL0     C 3834   5.511  11.064   7.023 -0.4405  0.1214  0.0999
  753MOL0     O 3835   5.411  11.093   6.937  0.5238 -0.2536 -0.5516
  753MOL0     C 3836   5.346  10.990   6.855 -0.6734 -0.2759 -0.5446
  753MOL0     C 3837   5.256  11.064   6.762  0.6176  0.0979  0.6186
  753MOL0     C 3838   5.145  11.133   6.855 -0.1318  0.4859  0.5787
  753MOL0     C 3839   5.122  11.273   6.801  0.2565  0.0983 -0.7725
  753MOL0     C 3840   5.092  11.284   6.658  0.5277  0.3852  0.0472
  753MOL0     C 3841   5.076  11.310   6.539  0.7503  0.4293 -0.6240
  753MOL0     C 3842   5.557  11.160   7.110  0.7401 -0.5080 -0.0855
  753MOL0     C 3843   5.657  11.125   7.209  0.2114 -0.2976 -0.2557
  753MOL0     C 3844   5.711  11.238   7.297  0.6079  0.7444  0.5518
  753MOL0     H 3845   5.767  10.823   7.640 -1.5207 -3.2704 -0.4939
  753MOL0     H 3846   5.949  10.750   7.785  0.7837  0.1086  0.8426
  753MOL0     H 3847   6.357  10.790   7.617  0.0252  1.7533  1.4912
  753MOL0     H 3848   6.329  10.609   7.596 -0.6997 -1.0556  0.6721
  753MOL0     H 3849   6.426  10.748   7.848  1.0501  1.3566 -2.0373
  753MOL0     H 3850   6.411  10.583   7.843  0.7233 -0.7019 -0.8800
  753MOL0     H 3851   6.589  10.574   7.658 -1.2292  0.4853 -1.1335
  753MOL0     H 3852   6.580  10.753   7.645  0.0804 -0.9753 -1.3502
  753MOL0     H 3853   6.656  10.778   7.877  0.4578 -0.2341 -0.1446
  753MOL0     H 3854   6.665  10.601   7.899  2.0152  1.6241  1.8103
  753MOL0     H 3855   6.853  10.784   7.741 -0.1578 -0.8866 -0.8429
  753MOL0     H 3856   6.849  10.615   7.719 -0.0584 -0.0753  1.2763
  753MOL0     H 3857   6.863  10.755   7.991 -1.6312 -1.2682 -0.1853
  753MOL0     H 3858   6.913  10.579   7.953  4.3531 -0.3387 -1.8274
  753MOL0     H 3859   7.044  10.828   7.860  0.3958  0.7306  2.0673
  753MOL0     H 3860   7.072  10.653   7.810 -1.8145 -1.2046  0.7653
  753MOL0     H 3861   7.102  10.765   8.092  2.1689 -0.8699  1.9161
  753MOL0     H 3862   7.130  10.594   8.036  0.1210  0.3928 -0.6230
  753MOL0     H 3863   7.339  10.532   7.900 -1.1087  0.0597  0.4854
  753MOL0     H 3864   7.678  10.727   7.855 -0.1642  0.2908 -2.5411
  753MOL0     H 3865   7.581  10.601   7.770 -0.4079  0.3818  0.1889
  753MOL0     H 3866   7.586  10.523   8.055 -0.6099 -1.7368 -1.0737
  753MOL0     H 3867   7.660  10.432   7.926 -0.0199 -0.8234  1.6232
  753MOL0     H 3868   7.862  10.595   7.937 -1.5575  0.3488 -0.5613
  753MOL0     H 3869   7.789  10.663   8.079  0.5343 -2.1102  3.3118
  753MOL0     H 3870   7.770  10.455   8.193 -0.2178  0.3719 -1.0628
  753MOL0     H 3871   7.845  10.364   8.058 -0.3589 -0.1942 -0.2046
  753MOL0     H 3872   8.201  10.553   8.226  1.6754 -1.0214 -0.6994
  753MOL0     H 3873   8.414  10.595   8.211 -3.4190 -1.0250 -0.1956
  753MOL0     H 3874   8.525  10.532   8.076  1.1289  0.3508  0.4710
  753MOL0     H 3875   8.490  10.435   8.215  3.3929 -0.0350 -0.8634
  753MOL0     H 3876   8.552  10.064   7.899  0.5982  2.5891  3.0842
  753MOL0     H 3877   8.738   9.942   7.794  2.8809  0.4285 -1.1367
  753MOL0     H 3878   8.975   9.854   7.751  3.0671  0.4367  0.0569
  753MOL0     H 3879   8.865   9.896   7.619  0.2151 -2.3096 -1.1771
  753MOL0     H 3880   9.072   9.764   7.545 -3.1077  0.3894 -0.5848
  753MOL0     H 3881   9.067   9.921   7.475 -3.2096  0.1328  1.2447
  753MOL0     H 3882   9.218   9.850   7.723 -1.3966  2.4099  1.9229
  753MOL0     H 3883   9.223   9.998   7.642 -1.8013  0.1648 -0.2389
  753MOL0     H 3884   9.307   9.909   7.431 -1.3996 -0.4738 -0.1028
  753MOL0     H 3885   9.283   9.741   7.489  0.1922 -0.6515  2.7267
  753MOL0     H 3886   9.491   9.942   7.608 -2.8380 -0.3267  1.4794
  753MOL0     H 3887   9.452   9.780   7.669 -1.0824 -0.8326  0.2231
  753MOL0     H 3888   9.547   9.848   7.397  0.6719  1.9785  2.2726
  753MOL0     H 3889   9.484   9.681   7.444  0.4195  0.4152 -1.5845
  753MOL0     H 3890   9.655   9.670   7.622  0.1620  0.6689  0.9852
  753MOL0     H 3891   9.727   9.822   7.552 -1.2527 -0.3090  2.8083
  753MOL0     H 3892   9.827   9.584   7.477  0.7053  0.9470  0.6373
  753MOL0     H 3893   9.802   9.712   7.352  1.9979 -2.4298 -1.2839
  753MOL0     H 3894   8.966  10.308   7.766  0.1820  0.5336  1.3127
  753MOL0     H 3895   8.788  10.418   7.882 -0.8119  0.8525 -1.0217
  753MOL0     H 3896   8.178  10.306   7.798  2.7012 -0.9632 -0.4345
  753MOL0     H 3897   7.985  10.387   7.894  0.3466  1.6255 -1.2262
  753MOL0     H 3898   6.197  10.688   7.426 -0.6854  0.7944 -1.6517
  753MOL0     H 3899   6.005  10.757   7.298  1.1199 -4.2483  0.0777
  753MOL0     H 3900   5.684  10.800   7.152  2.3636  0.5274 -1.9416
  753MOL0     H 3901   5.531  10.853   6.972 -2.0401 -0.3564  1.1434
  753MOL0     H 3902   5.414  10.929   6.795  0.2893  0.1851  0.0627
  753MOL0     H 3903   5.285  10.940   6.931 -1.6375  1.8418  0.1368
  753MOL0     H 3904   5.208  10.997   6.690  2.7728 -2.6575  1.5307
  753MOL0     H 3905   5.323  11.137   6.714  2.6310 -0.9755  1.6418
  753MOL0     H 3906   5.055  11.072   6.842 -0.9089  1.8879 -0.9477
  753MOL0     H 3907   5.168  11.130   6.962  2.5249 -0.5778  0.0372
  753MOL0     H 3908   5.217  11.327   6.794  1.5272 -2.0510 -7.6808
  753MOL0     H 3909   5.038  11.309   6.861  1.3917 -0.1938  1.0839
  753MOL0     H 3910   5.059  11.346   6.439  2.4049  0.3739 -0.9521
  753MOL0     H 3911   5.505  11.254   7.101 -1.6253 -1.8578 -1.4288
  753MOL0     H 3912   5.694  11.207   7.401 -0.7388 -0.2782  0.0656
  753MOL0     H 3913   5.815  11.263   7.274  1.9388 -0.6139  4.3732
  753MOL0     H 3914   5.670  11.338   7.281  2.4982  1.5650  0.5289
  754MOL0     O 3915  11.081   6.668   9.226 -0.3146 -0.1256 -0.1145
  754MOL0     C 3916  11.070   6.779   9.172 -0.6424  1.0565 -0.1270
  754MOL0     O 3917  11.165   6.832   9.089 -0.8712  0.6566 -0.3614
  754MOL0     C 3918  11.290   6.773   9.070  0.1019 -0.5123  0.3919
  754MOL0     C 3919  11.368   6.806   8.961  0.8907 -0.8769 -1.1302
  754MOL0     C 3920  11.496   6.757   8.947  0.0214 -0.8252  0.0650
  754MOL0     C 3921  11.559   6.674   9.045 -0.1195 -0.5937 -0.4017
  754MOL0     O 3922  11.687   6.627   9.032 -0.7943 -0.5486 -0.3405
  754MOL0     C 3923  11.711   6.496   9.085 -0.0072 -0.0253 -0.2068
  754MOL0     C 3924  11.862   6.470   9.083  0.4776 -0.4660  0.0205
  754MOL0     C 3925  11.898   6.331   9.152 -0.4120 -0.7161 -0.1896
  754MOL0     C 3926  12.026   6.281   9.100 -1.2920 -0.7832 -0.3213
  754MOL0     C 3927  12.062   6.148   9.155 -0.0181 -0.6273  0.0994
  754MOL0     C 3928  12.187   6.082   9.091  0.1225 -0.4495 -0.1541
  754MOL0     C 3929  12.178   6.042   8.947 -0.7455  0.5199  0.5998
  754MOL0     C 3930  12.321   6.022   8.895 -1.0955  1.2231 -0.4360
  754MOL0     N 3931  12.318   5.989   8.749 -0.6293  0.0420 -0.5939
  754MOL0     C 3932  12.303   6.075   8.643 -0.1321 -0.1649 -0.8298
  754MOL0     C 3933  12.349   6.004   8.538 -0.3251  0.3182  0.0576
  754MOL0     C 3934  12.339   6.051   8.394  0.6193  0.0251 -0.1041
  754MOL0     C 3935  12.437   6.177   8.380 -0.1431 -0.0935  0.4579
  754MOL0     C 3936  12.573   6.165   8.432  0.5974  0.1803 -0.8678
  754MOL0     C 3937  12.654   6.284   8.387 -1.4407  0.0445  0.0851
  754MOL0     O 3938  12.681   6.264   8.244  0.7958  0.2416  0.5660
  754MOL0     C 3939  12.798   6.317   8.211  0.2034  0.7432  0.1001
  754MOL0     C 3940  12.837   6.445   8.228  0.2821  0.1158 -0.7334
  754MOL0     C 3941  12.956   6.502   8.192 -0.8741  0.6613  0.6917
  754MOL0     C 3942  12.981   6.643   8.226 -0.0737 -0.5737  1.0260
  754MOL0     C 3943  13.050   6.411   8.139  0.5393  0.2950  0.0177
  754MOL0     C 3944  13.184   6.451   8.114  0.0435 -0.1358  0.5988
  754MOL0     O 3945  13.242   6.420   7.993  0.2558  0.4106  0.8430
  754MOL0     C 3946  13.371   6.459   7.959  0.4107 -0.7297  0.1657
  754MOL0     C 3947  13.435   6.576   8.013  0.4917  0.4793 -0.1276
  754MOL0     C 3948  13.566   6.618   7.973  0.2206  0.1970  1.2035
  754MOL0     C 3949  13.643   6.540   7.884 -0.8728  0.5922  0.7811
  754MOL0     O 3950  13.757   6.582   7.823 -0.5062  0.3275  0.2798
  754MOL0     C 3951  13.844   6.656   7.903 -0.8462 -0.2542  0.3905
  754MOL0     C 3952  13.987   6.637   7.842  0.1918 -0.1503  0.1286
  754MOL0     C 3953  13.985   6.701   7.701  0.1645 -0.0482  0.1204
  754MOL0     C 3954  14.128   6.732   7.647  0.2025 -0.3327 -0.6915
  754MOL0     C 3955  14.199   6.847   7.720  0.5158  0.0840  0.4362
  754MOL0     C 3956  14.337   6.863   7.657  0.7980 -0.2153  0.7193
  754MOL0     C 3957  14.421   6.972   7.734  0.0478  0.2962  0.3314
  754MOL0     C 3958  14.552   6.997   7.662 -0.2562  1.0383 -0.0387
  754MOL0    Cl 3959  14.665   7.104   7.749 -0.5760 -0.1035 -0.1314
  754MOL0     C 3960  13.587   6.416   7.845  0.0757 -0.1155  1.2840
  754MOL0     C 3961  13.450   6.377   7.875  0.5129 -0.2883  0.3846
  754MOL0     O 3962  13.250   6.476   8.210  0.2249  0.7279  0.4545
  754MOL0     C 3963  13.019   6.280   8.110 -1.0290 -0.4475  0.1247
  754MOL0     C 3964  12.891   6.230   8.148  0.0347 -0.6332  0.0890
  754MOL0     N 3965  12.393   5.882   8.579 -0.8237  0.2430  0.2063
  754MOL0     N 3966  12.375   5.874   8.702 -0.4307 -0.1183 -0.8541
  754MOL0     C 3967  11.488   6.661   9.169 -0.4259 -0.8292  0.9308
  754MOL0     C 3968  11.354   6.700   9.172  0.2737 -0.1619 -0.1670
  754MOL0     C 3969  10.936   6.853   9.170  0.2951  0.9064  0.0520
  754MOL0     C 3970  10.912   6.943   9.068  1.3363 -1.3500  0.2712
  754MOL0     C 3971  10.781   6.999   9.049  0.1141 -0.2329 -0.3194
  754MOL0     C 3972  10.679   6.961   9.134 -0.5715  0.4085 -0.9271
  754MOL0     O 3973  10.551   6.999   9.120 -0.7340 -0.4876  0.1311
  754MOL0     C 3974  10.507   7.054   8.995  0.5508 -0.9415 -0.2084
  754MOL0     C 3975  10.354   7.041   8.978  0.8599  0.1426 -0.1730
  754MOL0     C 3976  10.333   7.127   8.849 -0.3794  0.0854 -0.2611
  754MOL0     C 3977  10.178   7.118   8.791 -0.3919  0.0471 -1.2783
  754MOL0     C 3978  10.149   7.230   8.699 -0.9155  1.0097 -0.8367
  754MOL0     C 3979  10.122   7.328   8.633 -0.2747  0.9000  1.1433
  754MOL0     C 3980  10.701   6.872   9.237  0.2043 -0.7973 -0.2089
  754MOL0     C 3981  10.824   6.815   9.249 -0.5159  0.9117 -0.3136
  754MOL0     C 3982  10.831   6.710   9.360 -0.6892  0.0462  0.3344
  754MOL0     H 3983  11.322   6.876   8.892 -2.8169 -0.9195  1.0081
  754MOL0     H 3984  11.554   6.798   8.865 -1.2004  2.1854  0.6010
  754MOL0     H 3985  11.660   6.417   9.028 -0.3391 -0.0218  0.0837
  754MOL0     H 3986  11.681   6.474   9.188  0.6607 -0.2542 -0.0592
  754MOL0     H 3987  11.890   6.489   8.979 -2.2604  2.6459 -0.3008
  754MOL0     H 3988  11.909   6.549   9.142  2.6780 -3.4954  2.7063
  754MOL0     H 3989  11.898   6.350   9.260 -6.0509 -1.1175  0.1809
  754MOL0     H 3990  11.827   6.251   9.128  0.5366 -2.2638  1.8130
  754MOL0     H 3991  12.023   6.272   8.991  0.0867  2.4787 -0.7489
  754MOL0     H 3992  12.106   6.352   9.124 -0.1439 -0.8366 -3.5616
  754MOL0     H 3993  11.975   6.083   9.143 -1.8770  1.9978 -1.7524
  754MOL0     H 3994  12.062   6.156   9.264 -4.5397  0.8380  0.2148
  754MOL0     H 3995  12.276   6.141   9.111  0.0673 -0.5467  0.3953
  754MOL0     H 3996  12.211   5.993   9.150  0.1829  0.4048  1.1465
  754MOL0     H 3997  12.131   6.118   8.884 -0.7223  0.4958  0.5536
  754MOL0     H 3998  12.124   5.947   8.938 -0.6283  0.5678 -0.7584
  754MOL0     H 3999  12.376   6.115   8.912  0.0328  0.3034  1.2656
  754MOL0     H 4000  12.378   5.943   8.945 -1.3020  1.7774  0.6958
  754MOL0     H 4001  12.280   6.180   8.655 -0.0536  0.2526 -3.6904
  754MOL0     H 4002  12.241   6.091   8.367  2.7000  3.4989 -3.7734
  754MOL0     H 4003  12.370   5.974   8.323 -2.1885 -0.6482 -0.7080
  754MOL0     H 4004  12.438   6.183   8.271 -1.9161  0.0925  0.4180
  754MOL0     H 4005  12.377   6.257   8.425 -1.9935 -1.9089  1.3886
  754MOL0     H 4006  12.576   6.152   8.541  1.8722  1.1182 -0.7774
  754MOL0     H 4007  12.620   6.078   8.384  0.6101  0.2838 -1.0415
  754MOL0     H 4008  12.615   6.385   8.402 -1.5284  0.0248 -0.0041
  754MOL0     H 4009  12.747   6.278   8.444 -0.7287 -3.3693 -1.1922
  754MOL0     H 4010  12.760   6.506   8.273 -0.4131 -1.3107  0.1004
  754MOL0     H 4011  13.030   6.661   8.322  0.7388 -0.3574  0.5764
  754MOL0     H 4012  12.889   6.701   8.233 -0.1546 -0.5094 -0.3139
  754MOL0     H 4013  13.033   6.687   8.140  0.1929  1.0021  1.9559
  754MOL0     H 4014  13.376   6.640   8.078  0.5631  1.2794 -0.8315
  754MOL0     H 4015  13.598   6.717   8.007  2.9862 -1.4082  3.8034
  754MOL0     H 4016  13.812   6.761   7.905 -0.6626 -0.1964  0.3678
  754MOL0     H 4017  13.844   6.620   8.006  0.7511  0.0097  0.5202
  754MOL0     H 4018  14.050   6.695   7.910 -2.3750  2.2589  0.6984
  754MOL0     H 4019  14.013   6.531   7.839 -0.6306 -0.4400  1.6931
  754MOL0     H 4020  13.927   6.793   7.712  3.0729  1.9332 -0.0230
  754MOL0     H 4021  13.928   6.626   7.645 -1.4522 -0.7177  2.4749
  754MOL0     H 4022  14.129   6.764   7.542 -0.5361 -0.9414 -0.8927
  754MOL0     H 4023  14.181   6.636   7.657 -0.9998 -0.9353  0.1334
  754MOL0     H 4024  14.141   6.940   7.721  3.3412  1.9594 -0.0927
  754MOL0     H 4025  14.210   6.816   7.825  1.2204  2.3207  1.0658
  754MOL0     H 4026  14.323   6.910   7.560  2.5571  0.2353  0.6559
  754MOL0     H 4027  14.384   6.765   7.644 -0.1527 -0.4801 -0.8900
  754MOL0     H 4028  14.446   6.941   7.836  1.1723 -0.5283 -0.1748
  754MOL0     H 4029  14.367   7.067   7.742  2.0287  1.3411  2.1185
  754MOL0     H 4030  14.526   7.045   7.567 -0.5605 -0.6507 -0.8550
  754MOL0     H 4031  14.595   6.896   7.658  0.3177  1.3192 -2.0863
  754MOL0     H 4032  13.650   6.353   7.783 -1.3699 -1.5677  1.2394
  754MOL0     H 4033  13.407   6.291   7.825 -0.3310 -0.0512  0.6922
  754MOL0     H 4034  13.093   6.209   8.074 -1.1475  0.7213 -2.6655
  754MOL0     H 4035  12.871   6.124   8.134 -2.0492 -0.4464  1.2821
  754MOL0     H 4036  11.526   6.604   9.253  0.7293  0.8141  1.5752
  754MOL0     H 4037  11.293   6.682   9.260 -2.6329  0.2579 -1.9507
  754MOL0     H 4038  10.992   6.975   9.002 -0.2825  0.0324 -1.1278
  754MOL0     H 4039  10.772   7.075   8.973 -0.4134 -0.2259 -0.2565
  754MOL0     H 4040  10.521   7.162   9.004  1.7391 -1.1580  0.9947
  754MOL0     H 4041  10.563   7.022   8.906 -0.2444 -2.4792 -0.1847
  754MOL0     H 4042  10.298   7.084   9.061 -1.6064 -2.0910 -0.5581
  754MOL0     H 4043  10.329   6.937   8.953  3.1250 -0.3119 -0.8737
  754MOL0     H 4044  10.347   7.231   8.879 -2.7816  0.4475 -0.2042
  754MOL0     H 4045  10.407   7.095   8.774  0.9216  1.5524  0.3413
  754MOL0     H 4046  10.110   7.139   8.875  0.2058  2.5648 -1.3490
  754MOL0     H 4047  10.151   7.025   8.741 -3.9361  0.2414 -0.0426
  754MOL0     H 4048  10.091   7.421   8.592 -2.8334 -0.2458  0.2923
  754MOL0     H 4049  10.617   6.857   9.304 -1.0385  0.8719 -1.3161
  754MOL0     H 4050  10.912   6.735   9.429 -0.6345  0.3663  0.1544
  754MOL0     H 4051  10.738   6.704   9.417 -3.0333  0.5288 -3.1971
  754MOL0     H 4052  10.850   6.611   9.319  2.2371 -0.3011  2.1656
  755MOL0     O 4053   9.046   9.621   8.234 -0.3858 -0.2246  0.2654
  755MOL0     C 4054   9.056   9.545   8.328  0.2024  0.6591 -0.3440
  755MOL0     O 4055   9.166   9.474   8.367 -0.9717  0.1958 -0.1783
  755MOL0     C 4056   9.291   9.483   8.306 -0.1473 -0.1839  0.0651
  755MOL0     C 4057   9.308   9.485   8.169 -0.0959 -0.3834  0.1156
  755MOL0     C 4058   9.435   9.489   8.114 -0.0632 -0.8155  0.2078
  755MOL0     C 4059   9.549   9.491   8.192  0.4486 -0.5157 -0.5430
  755MOL0     O 4060   9.669   9.491   8.126 -0.1025 -0.1439 -0.1897
  755MOL0     C 4061   9.794   9.460   8.198  0.4156 -0.1072  0.1858
  755MOL0     C 4062   9.813   9.307   8.194 -0.2637  0.2817  0.5640
  755MOL0     C 4063   9.948   9.265   8.223 -0.3282  0.7389  0.2646
  755MOL0     C 4064  10.001   9.311   8.361  1.0316  0.3082 -0.3279
  755MOL0     C 4065  10.112   9.209   8.407  0.4676 -0.6415  0.5667
  755MOL0     C 4066  10.237   9.200   8.321  1.0794  0.0710 -0.7758
  755MOL0     C 4067  10.347   9.089   8.371  0.8174 -0.7359  0.5713
  755MOL0     C 4068  10.423   9.135   8.486 -0.5941  0.5438 -1.1889
  755MOL0     N 4069  10.486   9.017   8.554 -0.2781  0.4919  0.2745
  755MOL0     C 4070  10.558   8.909   8.498 -0.1271  0.6166 -0.1852
  755MOL0     C 4071  10.548   8.804   8.587  1.4468 -0.1907  0.4700
  755MOL0     C 4072  10.593   8.666   8.543  0.0278 -0.3436 -0.2370
  755MOL0     C 4073  10.727   8.625   8.608 -0.9981  0.6849 -0.0917
  755MOL0     C 4074  10.849   8.698   8.545 -0.3674 -0.4684  0.0093
  755MOL0     C 4075  10.991   8.673   8.600  0.4160 -0.0181  0.0675
  755MOL0     O 4076  11.027   8.533   8.580  0.1003 -0.0688  0.2397
  755MOL0     C 4077  11.144   8.499   8.647 -0.4830 -0.2439  1.0611
  755MOL0     C 4078  11.265   8.490   8.566  0.2874 -0.5251  0.2011
  755MOL0     C 4079  11.384   8.472   8.638 -0.2616 -0.0454  0.0868
  755MOL0     C 4080  11.514   8.486   8.559  0.0589 -0.3681  0.4137
  755MOL0     C 4081  11.381   8.433   8.772  0.4349  0.3506 -0.5823
  755MOL0     C 4082  11.504   8.397   8.844 -0.0270  0.5424 -0.1498
  755MOL0     O 4083  11.603   8.322   8.780  0.4497  0.4134  0.2291
  755MOL0     C 4084  11.737   8.333   8.804 -0.0327 -0.9024 -0.9529
  755MOL0     C 4085  11.804   8.420   8.886  0.0789 -0.3468  0.5476
  755MOL0     C 4086  11.939   8.409   8.900  0.2049 -0.1234 -0.1726
  755MOL0     C 4087  12.012   8.313   8.842 -0.6964  0.0152  0.1496
  755MOL0     O 4088  12.141   8.307   8.883  0.0064 -0.2224  0.7522
  755MOL0     C 4089  12.214   8.189   8.847  0.7878 -1.2639 -0.0527
  755MOL0     C 4090  12.357   8.203   8.898  0.6069  0.0580  0.7852
  755MOL0     C 4091  12.425   8.320   8.825  0.4836 -0.0033 -0.0067
  755MOL0     C 4092  12.571   8.346   8.865 -0.6861 -0.5764  0.2190
  755MOL0     C 4093  12.637   8.432   8.754 -0.2558 -0.3425 -0.6297
  755MOL0     C 4094  12.774   8.458   8.793 -0.4053 -0.7034 -0.1572
  755MOL0     C 4095  12.857   8.528   8.680 -0.4129  0.2072 -0.4364
  755MOL0     C 4096  13.006   8.527   8.714  0.9975  0.6872 -0.0424
  755MOL0    Cl 4097  13.108   8.602   8.598 -0.1183  0.0258  0.1326
  755MOL0     C 4098  11.952   8.228   8.757 -0.1929  0.4699 -0.1429
  755MOL0     C 4099  11.815   8.237   8.737  0.0719  0.3384 -0.3049
  755MOL0     O 4100  11.513   8.431   8.961  0.4147  0.7590 -0.0271
  755MOL0     C 4101  11.261   8.433   8.840  0.2820  0.4234 -1.1127
  755MOL0     C 4102  11.147   8.468   8.778  0.0868  0.5021 -1.1905
  755MOL0     N 4103  10.479   8.855   8.700  0.1686 -0.0724  0.1751
  755MOL0     N 4104  10.447   8.971   8.672  0.2177 -0.3176 -0.1409
  755MOL0     C 4105   9.536   9.478   8.334 -0.5295  0.0815  0.6345
  755MOL0     C 4106   9.406   9.478   8.386  0.2597  0.2789  0.2313
  755MOL0     C 4107   8.930   9.523   8.405 -1.0267 -0.6836  0.6589
  755MOL0     C 4108   8.809   9.530   8.334 -0.2051 -0.4508  0.7398
  755MOL0     C 4109   8.694   9.525   8.409  0.0337  0.1235  0.6738
  755MOL0     C 4110   8.691   9.505   8.543 -0.5497 -0.5188  0.5190
  755MOL0     O 4111   8.564   9.495   8.589 -0.8803  0.0335  0.6110
  755MOL0     C 4112   8.535   9.512   8.724 -0.0411 -0.8826 -0.4400
  755MOL0     C 4113   8.395   9.472   8.747 -0.0919  0.4088 -0.3887
  755MOL0     C 4114   8.339   9.497   8.890 -0.5050 -0.1444  0.6422
  755MOL0     C 4115   8.203   9.447   8.907  0.3694 -0.3065 -0.5929
  755MOL0     C 4116   8.159   9.478   9.047  0.3422 -0.3534 -0.2245
  755MOL0     C 4117   8.102   9.514   9.146  0.2265  0.7219 -0.9320
  755MOL0     C 4118   8.813   9.498   8.611 -0.3218  0.0404 -0.4041
  755MOL0     C 4119   8.941   9.507   8.549  0.8629 -0.4416  0.6625
  755MOL0     C 4120   9.072   9.512   8.632  0.0172 -0.2955 -0.7008
  755MOL0     H 4121   9.220   9.485   8.105  0.5622 -0.5010 -0.8055
  755MOL0     H 4122   9.440   9.484   8.006 -2.2758  0.2878 -0.0074
  755MOL0     H 4123   9.801   9.480   8.306  2.9248  0.5124 -0.0171
  755MOL0     H 4124   9.887   9.496   8.154  0.5393 -1.7622 -0.9716
  755MOL0     H 4125   9.740   9.262   8.262 -1.2204  1.7532  0.5739
  755MOL0     H 4126   9.776   9.279   8.095 -2.4803  1.2207  1.0516
  755MOL0     H 4127   9.958   9.156   8.212  0.7460  0.6699  1.6899
  755MOL0     H 4128  10.008   9.308   8.142 -0.7891 -0.2663 -0.6311
  755MOL0     H 4129  10.038   9.414   8.354 -1.2377  1.0852 -2.6894
  755MOL0     H 4130   9.928   9.300   8.441  1.0959  1.9207 -0.0140
  755MOL0     H 4131  10.073   9.107   8.411 -0.1432 -0.3696  1.8316
  755MOL0     H 4132  10.151   9.242   8.504 -0.6723 -2.5830  1.7424
  755MOL0     H 4133  10.198   9.174   8.222  1.7431  1.5368 -1.4459
  755MOL0     H 4134  10.272   9.303   8.312 -1.5415  1.1729  0.5752
  755MOL0     H 4135  10.423   9.064   8.296  0.6071  2.8969 -1.0440
  755MOL0     H 4136  10.297   9.002   8.415 -1.7744  0.4061  0.0282
  755MOL0     H 4137  10.496   9.209   8.454 -0.5202  0.6845 -0.7100
  755MOL0     H 4138  10.345   9.186   8.544  0.3855 -0.9706  1.6377
  755MOL0     H 4139  10.608   8.900   8.402 -2.2115 -3.1035 -1.1197
  755MOL0     H 4140  10.597   8.653   8.435  2.5636  0.3107 -0.3014
  755MOL0     H 4141  10.528   8.587   8.580  2.9129 -3.1042 -0.5739
  755MOL0     H 4142  10.733   8.642   8.715 -0.6638  0.6872 -0.1090
  755MOL0     H 4143  10.740   8.517   8.590 -3.9955  0.2829 -0.3198
  755MOL0     H 4144  10.851   8.671   8.439 -0.2142 -0.9097  0.1225
  755MOL0     H 4145  10.831   8.806   8.548  2.2227  0.0501 -0.5747
  755MOL0     H 4146  11.075   8.735   8.568  0.7123  0.8330  2.3091
  755MOL0     H 4147  10.986   8.698   8.707  1.9837 -0.8381  0.3594
  755MOL0     H 4148  11.250   8.521   8.463 -0.1101 -0.8779  0.1482
  755MOL0     H 4149  11.567   8.390   8.565  0.7080  0.0206  0.9378
  755MOL0     H 4150  11.579   8.560   8.607  0.5356 -1.9335  2.3251
  755MOL0     H 4151  11.487   8.506   8.455 -0.0746 -0.3792  0.4453
  755MOL0     H 4152  11.750   8.502   8.933 -1.3913 -0.0637 -1.4722
  755MOL0     H 4153  11.998   8.474   8.965 -0.7932  0.7923 -0.1457
  755MOL0     H 4154  12.162   8.102   8.888 -0.3902 -1.1768 -1.2960
  755MOL0     H 4155  12.209   8.176   8.738  0.7936 -1.4968 -0.0277
  755MOL0     H 4156  12.350   8.215   9.007  2.4127 -1.3206  1.0818
  755MOL0     H 4157  12.402   8.106   8.877 -1.7111 -1.0731  0.6928
  755MOL0     H 4158  12.370   8.413   8.836 -1.8873 -1.3197 -0.0999
  755MOL0     H 4159  12.423   8.297   8.718  1.5754  2.1795 -0.5460
  755MOL0     H 4160  12.632   8.256   8.867 -0.7179 -0.5995  0.1234
  755MOL0     H 4161  12.576   8.397   8.961 -2.0729  0.5269 -0.2484
  755MOL0     H 4162  12.622   8.390   8.654  1.2113  2.0980 -1.9652
  755MOL0     H 4163  12.577   8.523   8.762 -0.1462 -0.3378  0.2733
  755MOL0     H 4164  12.823   8.365   8.825 -0.6169 -0.3621  1.1969
  755MOL0     H 4165  12.769   8.521   8.882 -1.1522 -2.4872  1.1188
  755MOL0     H 4166  12.820   8.631   8.672  0.1725  0.6226  1.5576
  755MOL0     H 4167  12.848   8.486   8.579 -2.7853  0.7158 -0.5007
  755MOL0     H 4168  13.042   8.424   8.720  2.7185  1.0804 -2.0777
  755MOL0     H 4169  13.028   8.585   8.803  3.4423  2.4914 -1.6804
  755MOL0     H 4170  12.007   8.148   8.709 -0.5438 -0.2536  0.6251
  755MOL0     H 4171  11.762   8.179   8.663  0.5944 -0.7092  0.1146
  755MOL0     H 4172  11.266   8.413   8.947  0.2998 -0.2197 -1.2309
  755MOL0     H 4173  11.053   8.466   8.833  0.8922 -1.0881  0.2513
  755MOL0     H 4174   9.618   9.484   8.406  0.9724 -1.1320 -0.9095
  755MOL0     H 4175   9.407   9.480   8.494  0.3980 -0.9028  0.2616
  755MOL0     H 4176   8.818   9.522   8.226 -0.1798  2.7993  0.4275
  755MOL0     H 4177   8.597   9.534   8.361 -0.5086  0.3520  1.7967
  755MOL0     H 4178   8.594   9.447   8.790  1.3351 -2.1891 -2.8206
  755MOL0     H 4179   8.548   9.618   8.747  2.3229 -1.2462  0.2186
  755MOL0     H 4180   8.388   9.364   8.728 -1.4210  0.0754  1.6615
  755MOL0     H 4181   8.320   9.515   8.681 -1.6276 -0.2757  0.8527
  755MOL0     H 4182   8.410   9.446   8.955  3.6946  0.4073 -3.0024
  755MOL0     H 4183   8.351   9.602   8.918  0.8385 -0.1929  0.2819
  755MOL0     H 4184   8.196   9.342   8.877  1.5942 -0.6381  0.2234
  755MOL0     H 4185   8.133   9.498   8.839 -2.6847 -0.8805  1.8603
  755MOL0     H 4186   8.062   9.561   9.233 -3.7881  2.3285 -3.3895
  755MOL0     H 4187   8.810   9.470   8.716 -0.4712 -1.7051 -0.8317
  755MOL0     H 4188   9.137   9.426   8.612  1.2899  1.0734 -2.8930
  755MOL0     H 4189   9.112   9.607   8.595 -0.8185 -0.0038 -0.8732
  755MOL0     H 4190   9.060   9.526   8.740 -0.1192  1.0573 -0.8781
  756MOL0     O 4191   4.230   7.307   4.051 -0.4539 -0.5768  0.1096
  756MOL0     C 4192   4.134   7.267   3.993  0.0052  0.2019  0.2562
  756MOL0     O 4193   4.131   7.164   3.905  0.3768  0.4256  0.3964
  756MOL0     C 4194   4.256   7.101   3.876  0.9643  0.6041 -0.0160
  756MOL0     C 4195   4.327   7.127   3.760  0.0142  0.3284  0.4340
  756MOL0     C 4196   4.451   7.064   3.738  0.6652  0.4737 -0.9915
  756MOL0     C 4197   4.500   6.965   3.830 -0.6998 -0.0658 -0.2019
  756MOL0     O 4198   4.622   6.904   3.794  0.4175 -0.1157 -0.4689
  756MOL0     C 4199   4.716   6.845   3.889 -0.2486  0.0940 -0.5967
  756MOL0     C 4200   4.851   6.814   3.835  0.0868 -0.1158  0.3335
  756MOL0     C 4201   4.930   6.933   3.765  0.2612  0.3572  0.4219
  756MOL0     C 4202   4.915   7.064   3.843 -0.2632  0.4412  0.3254
  756MOL0     C 4203   5.024   7.163   3.802 -0.5024 -0.3005  0.1092
  756MOL0     C 4204   5.171   7.111   3.839  0.6616  0.6507 -0.2520
  756MOL0     C 4205   5.284   7.193   3.796 -0.1596  0.5082  0.3342
  756MOL0     C 4206   5.292   7.306   3.898 -0.0196  0.3905  0.2217
  756MOL0     N 4207   5.408   7.392   3.868  0.7198  0.3215  0.0446
  756MOL0     C 4208   5.456   7.479   3.961 -0.9898 -0.2350  0.4358
  756MOL0     C 4209   5.574   7.523   3.905  0.2463  0.6965 -0.6187
  756MOL0     C 4210   5.659   7.627   3.962 -0.9517 -0.1591 -0.4451
  756MOL0     C 4211   5.809   7.604   3.955  0.6948  0.0646  0.1096
  756MOL0     C 4212   5.880   7.726   4.017 -0.1178  0.0854 -0.4189
  756MOL0     C 4213   6.031   7.701   4.017 -0.0700  1.8993 -0.9182
  756MOL0     O 4214   6.103   7.819   4.043  0.2614  0.8780 -0.1674
  756MOL0     C 4215   6.242   7.807   4.063  0.3225 -0.3141 -0.0970
  756MOL0     C 4216   6.292   7.927   4.115  0.3751  0.0352 -0.2104
  756MOL0     C 4217   6.431   7.948   4.139 -0.3498 -0.4085  0.6267
  756MOL0     C 4218   6.480   8.076   4.199  0.1090 -0.0656 -0.0457
  756MOL0     C 4219   6.515   7.830   4.132  0.2528 -0.3220 -0.7094
  756MOL0     C 4220   6.644   7.822   4.212 -0.1124 -0.1609  0.3023
  756MOL0     O 4221   6.651   7.872   4.339  0.6163 -0.7608 -0.5481
  756MOL0     C 4222   6.766   7.859   4.415 -1.0085  0.3301  0.0073
  756MOL0     C 4223   6.836   7.970   4.454 -0.1480  0.7862 -0.0108
  756MOL0     C 4224   6.959   7.955   4.529 -0.3147 -0.0853  0.6078
  756MOL0     C 4225   6.998   7.834   4.586  0.2643 -0.0804 -0.3984
  756MOL0     O 4226   7.102   7.816   4.674 -0.0091 -0.2300 -0.4752
  756MOL0     C 4227   7.190   7.935   4.686  0.4154 -0.0467  0.2006
  756MOL0     C 4228   7.315   7.901   4.759  0.0546 -0.2914 -0.1997
  756MOL0     C 4229   7.370   7.767   4.706  0.4831  0.4810 -0.0631
  756MOL0     C 4230   7.520   7.758   4.712 -1.0101 -0.7862  0.4622
  756MOL0     C 4231   7.604   7.836   4.598 -1.1552  0.5214  0.2726
  756MOL0     C 4232   7.741   7.776   4.562 -0.2714  0.4988  0.4318
  756MOL0     C 4233   7.791   7.865   4.447  0.0538  0.1159  0.1226
  756MOL0     C 4234   7.936   7.817   4.409 -0.4231  0.5978  0.5324
  756MOL0    Cl 4235   7.920   7.678   4.299  0.1112 -0.1545 -0.5129
  756MOL0     C 4236   6.923   7.724   4.554 -0.5576 -0.5777 -0.0874
  756MOL0     C 4237   6.807   7.728   4.461  0.6018 -0.3690  1.0727
  756MOL0     O 4238   6.738   7.758   4.152 -0.2320 -0.4454 -0.2957
  756MOL0     C 4239   6.461   7.714   4.071 -0.9123  0.9067 -0.4586
  756MOL0     C 4240   6.326   7.704   4.031 -0.1191  0.0515  0.5862
  756MOL0     N 4241   5.586   7.457   3.783  0.2873  0.1856 -0.1520
  756MOL0     N 4242   5.498   7.371   3.769  0.1206  0.1204  0.3846
  756MOL0     C 4243   4.431   6.944   3.947 -0.0336 -0.0395 -0.2865
  756MOL0     C 4244   4.312   7.004   3.967 -0.5647 -0.1843 -0.1435
  756MOL0     C 4245   4.008   7.355   4.000 -0.0694  0.0754 -0.3487
  756MOL0     C 4246   4.018   7.470   4.084 -0.6678 -0.0897 -0.5487
  756MOL0     C 4247   3.911   7.556   4.101  0.7124 -0.5282  0.4743
  756MOL0     C 4248   3.787   7.528   4.044  0.0974 -0.3395  0.5903
  756MOL0     O 4249   3.672   7.608   4.050  0.2234  0.1970 -0.2872
  756MOL0     C 4250   3.665   7.712   4.149  0.4471  0.0149  0.0472
  756MOL0     C 4251   3.659   7.678   4.297 -0.0200  0.5605 -0.1347
  756MOL0     C 4252   3.549   7.564   4.318 -0.1270 -0.2966 -0.5640
  756MOL0     C 4253   3.409   7.620   4.289  0.2869 -0.2375  0.1582
  756MOL0     C 4254   3.299   7.558   4.379  0.2528  0.3961 -0.7430
  756MOL0     C 4255   3.214   7.495   4.443 -0.4634  0.5971  1.0342
  756MOL0     C 4256   3.779   7.420   3.955  0.1029 -0.1419 -0.0595
  756MOL0     C 4257   3.883   7.327   3.931  0.0071  0.7072  1.4016
  756MOL0     C 4258   3.862   7.212   3.833  0.2970  0.4414  0.0781
  756MOL0     H 4259   4.297   7.193   3.679  2.3480  0.2019 -0.6228
  756MOL0     H 4260   4.497   7.089   3.643  0.6320  1.0265 -0.8631
  756MOL0     H 4261   4.672   6.759   3.940 -1.2176  1.1405  0.4057
  756MOL0     H 4262   4.747   6.920   3.963  0.1352 -0.7210  0.1034
  756MOL0     H 4263   4.912   6.770   3.914 -0.2978 -1.6451 -0.2041
  756MOL0     H 4264   4.831   6.736   3.762 -5.0342 -2.3795  3.5872
  756MOL0     H 4265   5.033   6.900   3.755  0.1749  0.3720 -0.5919
  756MOL0     H 4266   4.887   6.958   3.667  0.6233  1.4722  0.5434
  756MOL0     H 4267   4.816   7.110   3.846  0.7946  2.8580  2.6417
  756MOL0     H 4268   4.929   7.039   3.949 -2.0527 -0.3334  0.4261
  756MOL0     H 4269   5.007   7.252   3.863 -0.3187 -2.0514  2.9178
  756MOL0     H 4270   5.025   7.192   3.697  0.3090 -0.1858  0.1446
  756MOL0     H 4271   5.171   7.103   3.948 -0.8832  1.0630 -0.1908
  756MOL0     H 4272   5.179   7.013   3.792 -2.1075  0.8050 -1.2490
  756MOL0     H 4273   5.268   7.236   3.697 -0.9612 -0.6114 -0.0403
  756MOL0     H 4274   5.379   7.139   3.796 -0.5751 -0.2735 -1.4925
  756MOL0     H 4275   5.206   7.373   3.893 -0.4495 -0.2397 -2.1395
  756MOL0     H 4276   5.298   7.265   3.999 -3.4659 -0.6319  0.1153
  756MOL0     H 4277   5.422   7.506   4.061  0.5921  1.3497  0.5906
  756MOL0     H 4278   5.632   7.636   4.068  3.7483  1.6954  0.8808
  756MOL0     H 4279   5.629   7.720   3.913  0.4450  0.5516 -0.0261
  756MOL0     H 4280   5.839   7.514   4.009  3.1621  0.2268 -0.8771
  756MOL0     H 4281   5.846   7.594   3.852  0.5577  0.0107  0.0640
  756MOL0     H 4282   5.861   7.814   3.954 -2.5888  0.2840  0.4894
  756MOL0     H 4283   5.836   7.741   4.116  0.0357 -2.7077  0.1560
  756MOL0     H 4284   6.040   7.627   4.096 -3.1443 -1.7923 -3.6752
  756MOL0     H 4285   6.074   7.655   3.927 -0.5880  0.1211 -0.2911
  756MOL0     H 4286   6.222   8.008   4.133  1.0136  0.5746 -0.0830
  756MOL0     H 4287   6.568   8.104   4.140 -0.4567  0.0519 -0.8491
  756MOL0     H 4288   6.503   8.064   4.305  1.4452 -3.1126 -0.5800
  756MOL0     H 4289   6.402   8.153   4.196 -1.4284 -1.5645  0.1781
  756MOL0     H 4290   6.807   8.067   4.414  0.8698  1.4456  0.7831
  756MOL0     H 4291   7.005   8.053   4.539 -0.2625 -0.3275  3.5927
  756MOL0     H 4292   7.215   7.977   4.588  1.7988 -0.4763  0.3467
  756MOL0     H 4293   7.150   8.017   4.746  1.7230 -0.1233  1.2258
  756MOL0     H 4294   7.387   7.983   4.752 -0.1123 -0.0922  0.4138
  756MOL0     H 4295   7.296   7.888   4.866  1.1545  0.8057  0.1602
  756MOL0     H 4296   7.347   7.756   4.600 -0.7821 -0.7697  0.3224
  756MOL0     H 4297   7.323   7.686   4.763  0.9590  0.2308 -0.0173
  756MOL0     H 4298   7.542   7.652   4.693 -0.3363 -0.7038  0.7846
  756MOL0     H 4299   7.557   7.780   4.812  3.5177  0.9376 -1.3355
  756MOL0     H 4300   7.540   7.843   4.510 -2.6284 -1.0785  1.1514
  756MOL0     H 4301   7.633   7.939   4.622  0.5793  0.9467 -3.0701
  756MOL0     H 4302   7.728   7.671   4.534 -0.1102  0.7716 -0.7380
  756MOL0     H 4303   7.810   7.785   4.646  1.1714  0.3267 -0.6979
  756MOL0     H 4304   7.788   7.966   4.486 -1.2673 -0.0296  0.4268
  756MOL0     H 4305   7.726   7.851   4.359  2.6337 -2.6112 -1.5487
  756MOL0     H 4306   8.001   7.791   4.494  1.7235 -2.0832 -1.7127
  756MOL0     H 4307   7.996   7.883   4.346 -0.4813  1.1345  1.0318
  756MOL0     H 4308   6.930   7.621   4.588  0.8961 -0.1183  1.0974
  756MOL0     H 4309   6.764   7.628   4.449  0.6427 -0.9629  4.5856
  756MOL0     H 4310   6.521   7.624   4.058  1.1354  2.3523 -1.4916
  756MOL0     H 4311   6.290   7.614   3.983 -1.7468  0.9492  0.0422
  756MOL0     H 4312   4.456   6.869   4.023 -0.4220 -1.6237 -1.6646
  756MOL0     H 4313   4.250   6.975   4.052 -0.7099 -0.6834 -0.4169
  756MOL0     H 4314   4.102   7.483   4.151 -2.4620 -0.0820  1.8713
  756MOL0     H 4315   3.920   7.632   4.179  0.2412  0.1520 -0.1214
  756MOL0     H 4316   3.752   7.773   4.125  0.6546 -0.1374  0.4079
  756MOL0     H 4317   3.584   7.783   4.126  0.1029 -0.8732 -1.6910
  756MOL0     H 4318   3.629   7.762   4.360 -2.9925  0.4463 -1.2194
  756MOL0     H 4319   3.754   7.636   4.330 -0.5805 -1.3487 -0.7863
  756MOL0     H 4320   3.568   7.483   4.247 -1.7911 -1.7019  0.5000
  756MOL0     H 4321   3.562   7.514   4.415 -0.3221 -0.2724 -0.5257
  756MOL0     H 4322   3.384   7.615   4.183 -1.4870  2.9071  0.3062
  756MOL0     H 4323   3.404   7.726   4.316 -1.5709 -0.2078 -0.1642
  756MOL0     H 4324   3.151   7.436   4.507 -0.0278 -0.5881  0.4046
  756MOL0     H 4325   3.685   7.416   3.901 -0.4577  2.0596  0.6781
  756MOL0     H 4326   3.947   7.217   3.764  1.6535  2.0180  1.7509
  756MOL0     H 4327   3.856   7.114   3.882  1.7728  0.4572  0.3302
  756MOL0     H 4328   3.773   7.236   3.774 -0.7689  0.8809  1.7948
  757MOL0     O 4329   6.569  10.072   3.150  0.0154  0.2328  0.0633
  757MOL0     C 4330   6.525  10.142   3.247  0.5937 -0.6658  1.0321
  757MOL0     O 4331   6.595  10.248   3.305  0.8537 -0.0094 -0.4932
  757MOL0     C 4332   6.699  10.305   3.254 -0.2059 -1.1658  0.8928
  757MOL0     C 4333   6.731  10.313   3.120 -0.4289  0.4624 -0.6657
  757MOL0     C 4334   6.836  10.400   3.073 -0.3484  0.1016 -0.1031
  757MOL0     C 4335   6.920  10.472   3.170 -0.1081  0.2731 -0.5069
  757MOL0     O 4336   7.024  10.550   3.129 -0.4416 -0.3309 -0.8403
  757MOL0     C 4337   7.055  10.567   2.991 -0.2138 -0.0772  1.1343
  757MOL0     C 4338   7.177  10.653   2.963  0.1549  0.1507 -0.7065
  757MOL0     C 4339   7.319  10.617   3.025 -1.0799 -0.2112 -0.4469
  757MOL0     C 4340   7.333  10.664   3.172  0.0392  0.3607 -0.5539
  757MOL0     C 4341   7.281  10.803   3.214  0.1887 -0.4319  0.4092
  757MOL0     C 4342   7.340  10.919   3.127 -0.4143 -0.7732 -0.0975
  757MOL0     C 4343   7.293  11.055   3.165  0.1875 -0.0992 -0.2302
  757MOL0     C 4344   7.361  11.116   3.289 -0.5990 -0.4265  0.3464
  757MOL0     N 4345   7.511  11.127   3.275 -0.7860 -0.1435  0.3531
  757MOL0     C 4346   7.568  11.224   3.201 -0.5114 -0.2710  0.6512
  757MOL0     C 4347   7.705  11.198   3.202 -0.6136 -0.4113  0.1551
  757MOL0     C 4348   7.809  11.284   3.134  0.1967  0.1548 -0.4909
  757MOL0     C 4349   7.956  11.281   3.189 -0.6111  0.0986 -0.0739
  757MOL0     C 4350   7.987  11.353   3.322  0.0595  0.5203  0.9801
  757MOL0     C 4351   8.143  11.337   3.340 -0.3623  0.6755  0.4358
  757MOL0     O 4352   8.174  11.358   3.480  0.6481  0.3134  0.2613
  757MOL0     C 4353   8.305  11.385   3.513 -0.2467  0.1821  0.2173
  757MOL0     C 4354   8.320  11.441   3.645  0.2706  0.3289  0.1027
  757MOL0     C 4355   8.446  11.464   3.698 -0.0246 -0.3948 -0.0159
  757MOL0     C 4356   8.454  11.499   3.840  0.2909 -0.6055 -0.1070
  757MOL0     C 4357   8.560  11.466   3.607 -0.4453 -0.1475  0.5169
  757MOL0     C 4358   8.701  11.492   3.650  0.4840  0.3968 -0.4944
  757MOL0     O 4359   8.806  11.455   3.580  0.2605  0.2281 -0.1281
  757MOL0     C 4360   8.917  11.530   3.603  0.5522  0.4307  0.4747
  757MOL0     C 4361   9.032  11.473   3.656  0.3246 -0.0236  0.3156
  757MOL0     C 4362   9.144  11.553   3.686 -0.1598  0.5470 -0.2801
  757MOL0     C 4363   9.147  11.688   3.670  0.1363 -0.0346 -0.3608
  757MOL0     O 4364   9.267  11.750   3.685  0.2896 -0.1825  0.0673
  757MOL0     C 4365   9.254  11.840   3.790 -0.5648 -0.7747  0.1882
  757MOL0     C 4366   9.382  11.862   3.864 -0.4192 -0.7007  0.3399
  757MOL0     C 4367   9.359  11.970   3.972 -0.5258  0.0329  0.0200
  757MOL0     C 4368   9.485  12.046   4.021 -0.6161 -1.0786 -0.1881
  757MOL0     C 4369   9.460  12.123   4.147  0.0634  0.3970 -0.2905
  757MOL0     C 4370   9.578  12.191   4.209 -0.3521  0.0007  1.0332
  757MOL0     C 4371   9.532  12.298   4.302 -1.3328 -0.0889 -0.2085
  757MOL0     C 4372   9.642  12.410   4.301 -0.4849 -0.3577 -0.0533
  757MOL0    Cl 4373   9.788  12.347   4.398 -0.0219 -0.1229 -0.5469
  757MOL0     C 4374   9.039  11.750   3.605 -0.2628 -0.4002  0.4402
  757MOL0     C 4375   8.922  11.675   3.587 -0.0872 -0.5646  0.1884
  757MOL0     O 4376   8.712  11.568   3.745 -0.9053  0.3112  0.2630
  757MOL0     C 4377   8.543  11.415   3.476 -0.9484 -0.4381 -0.2591
  757MOL0     C 4378   8.427  11.369   3.431  1.2590 -0.1644  0.1649
  757MOL0     N 4379   7.725  11.082   3.276 -0.2543  0.4359  0.1369
  757MOL0     N 4380   7.605  11.041   3.313 -0.7663  1.2033 -0.3059
  757MOL0     C 4381   6.890  10.461   3.306  0.3936 -0.0915  0.6937
  757MOL0     C 4382   6.774  10.389   3.345 -0.5487  0.9159  0.1692
  757MOL0     C 4383   6.381  10.113   3.284 -0.2275  0.2855  0.0406
  757MOL0     C 4384   6.316  10.212   3.359 -0.0529 -0.0271  0.0580
  757MOL0     C 4385   6.183  10.203   3.391 -1.1163 -0.3973  0.9730
  757MOL0     C 4386   6.103  10.102   3.341 -0.2493  0.9181 -0.0296
  757MOL0     O 4387   5.969  10.079   3.363 -0.4424  0.3168 -0.7567
  757MOL0     C 4388   5.906  10.152   3.469 -0.0034 -0.0325 -0.7720
  757MOL0     C 4389   5.795  10.061   3.524  0.3818  0.6195 -0.2704
  757MOL0     C 4390   5.715   9.988   3.410  0.0261  0.0130  0.0309
  757MOL0     C 4391   5.585   9.932   3.443 -0.0962 -0.2037  0.4187
  757MOL0     C 4392   5.492  10.045   3.464 -0.0993  0.5547  0.1437
  757MOL0     C 4393   5.420  10.135   3.499  0.7373  0.4580 -0.3180
  757MOL0     C 4394   6.166  10.003   3.270 -0.8871 -0.1639  0.0888
  757MOL0     C 4395   6.303  10.003   3.239 -0.3577  0.4245  0.3644
  757MOL0     C 4396   6.359   9.888   3.150  0.0074 -0.2384  0.0588
  757MOL0     H 4397   6.667  10.258   3.051 -1.1824  0.5113 -0.0161
  757MOL0     H 4398   6.867  10.404   2.969 -2.5643  0.4209 -0.7958
  757MOL0     H 4399   6.971  10.620   2.947  0.3108  1.2832  1.7006
  757MOL0     H 4400   7.070  10.472   2.939 -0.5233  0.6257 -0.2581
  757MOL0     H 4401   7.180  10.662   2.854 -1.3336 -0.3221 -0.8041
  757MOL0     H 4402   7.148  10.755   2.988  0.1825  0.6050 -2.4123
  757MOL0     H 4403   7.350  10.512   3.021 -2.0442 -0.6749  2.0675
  757MOL0     H 4404   7.389  10.666   2.956 -0.4710  1.4217  1.2463
  757MOL0     H 4405   7.277  10.590   3.231 -1.5636  1.9686  0.0442
  757MOL0     H 4406   7.437  10.652   3.203 -0.6178  0.0310  1.6690
  757MOL0     H 4407   7.293  10.820   3.321 -0.8564 -0.1011  0.4815
  757MOL0     H 4408   7.174  10.793   3.195 -0.1182  1.7971  0.7042
  757MOL0     H 4409   7.447  10.911   3.146 -0.5666 -4.0290 -0.1579
  757MOL0     H 4410   7.326  10.903   3.019  0.3697 -0.7226 -0.2095
  757MOL0     H 4411   7.185  11.050   3.180  0.2505 -0.0294  0.2634
  757MOL0     H 4412   7.311  11.123   3.082 -0.1350 -1.6310 -1.6050
  757MOL0     H 4413   7.320  11.217   3.297  3.2598  1.4141 -0.8104
  757MOL0     H 4414   7.355  11.049   3.376  1.9813 -4.0748 -1.9667
  757MOL0     H 4415   7.517  11.301   3.145 -0.4359 -0.8048 -0.1789
  757MOL0     H 4416   7.780  11.389   3.129 -1.2468 -0.2404 -0.7755
  757MOL0     H 4417   7.817  11.254   3.029 -2.0165  1.6279 -1.1626
  757MOL0     H 4418   7.995  11.179   3.197  2.9942  1.3736  0.4020
  757MOL0     H 4419   8.022  11.335   3.121  1.2798  0.2634  1.8052
  757MOL0     H 4420   7.953  11.457   3.327  0.9221  0.9534 -1.3440
  757MOL0     H 4421   7.929  11.293   3.394 -1.9790 -0.3994 -1.3125
  757MOL0     H 4422   8.179  11.237   3.313  0.7647  0.8398  1.2494
  757MOL0     H 4423   8.189  11.419   3.283 -1.0081  1.8016  1.4781
  757MOL0     H 4424   8.229  11.435   3.704  0.4336 -1.1846  0.2388
  757MOL0     H 4425   8.547  11.462   3.883  0.7473  0.6067 -0.0234
  757MOL0     H 4426   8.370  11.471   3.904 -0.9173 -0.4372 -1.5624
  757MOL0     H 4427   8.452  11.607   3.851 -2.5004 -0.8423  3.9995
  757MOL0     H 4428   9.024  11.367   3.680  0.7403  0.2232  1.6454
  757MOL0     H 4429   9.238  11.514   3.723  0.1849  0.6964 -0.9929
  757MOL0     H 4430   9.230  11.936   3.743  0.7090  0.6387  2.2664
  757MOL0     H 4431   9.172  11.820   3.859 -1.3715  0.5002 -0.3638
  757MOL0     H 4432   9.406  11.764   3.907 -0.7569 -1.7173 -1.6946
  757MOL0     H 4433   9.462  11.887   3.793  0.7879  1.0162  2.1813
  757MOL0     H 4434   9.295  11.917   4.044 -1.2366  0.5566 -0.2135
  757MOL0     H 4435   9.299  12.049   3.927 -1.1211 -1.4322 -1.8773
  757MOL0     H 4436   9.525  12.116   3.947  1.0432 -0.5016  1.1921
  757MOL0     H 4437   9.565  11.974   4.041  0.7436  0.7556  1.3364
  757MOL0     H 4438   9.396  12.207   4.117  2.7476  2.9208  0.6215
  757MOL0     H 4439   9.412  12.063   4.224 -1.4629  0.2057 -1.3351
  757MOL0     H 4440   9.632  12.226   4.121 -0.0874 -1.0396  0.7704
  757MOL0     H 4441   9.637  12.116   4.262 -2.2949 -1.9733  0.5644
  757MOL0     H 4442   9.528  12.263   4.406  1.8042 -0.2964 -0.0550
  757MOL0     H 4443   9.430  12.330   4.278 -2.0622 -3.1840 -1.6840
  757MOL0     H 4444   9.599  12.496   4.352 -0.3976 -1.1680  1.4605
  757MOL0     H 4445   9.676  12.425   4.198 -1.0370 -0.1320 -0.2024
  757MOL0     H 4446   9.040  11.852   3.567  0.5787 -0.3045  0.7170
  757MOL0     H 4447   8.837  11.718   3.536 -1.8732 -3.9988  0.0071
  757MOL0     H 4448   8.628  11.414   3.409 -0.9116 -1.0672 -0.2067
  757MOL0     H 4449   8.407  11.343   3.327 -1.2742  3.1295 -0.3309
  757MOL0     H 4450   6.954  10.509   3.378  2.2162 -2.8902  1.1146
  757MOL0     H 4451   6.743  10.381   3.449  2.3704  1.9370  1.1956
  757MOL0     H 4452   6.368  10.301   3.392  3.1817 -1.9322  0.5106
  757MOL0     H 4453   6.137  10.287   3.443  1.2313  1.7894 -0.3112
  757MOL0     H 4454   5.982  10.178   3.543  0.4546  0.0731 -1.2644
  757MOL0     H 4455   5.876  10.243   3.416 -0.9850  1.2621  1.8696
  757MOL0     H 4456   5.722  10.123   3.577 -0.2169 -0.7831  0.5939
  757MOL0     H 4457   5.831   9.985   3.594 -0.5085 -0.9939 -1.4934
  757MOL0     H 4458   5.708  10.059   3.327  0.3190 -0.2966 -0.2615
  757MOL0     H 4459   5.789   9.912   3.382  0.9308  0.8030  0.2165
  757MOL0     H 4460   5.580   9.866   3.531  1.8309  1.2538  1.7000
  757MOL0     H 4461   5.547   9.879   3.355  0.1133  2.1576 -1.1806
  757MOL0     H 4462   5.378  10.227   3.535 -0.9098  0.2736 -1.6550
  757MOL0     H 4463   6.120   9.911   3.236  1.3765 -1.4941  0.4115
  757MOL0     H 4464   6.443   9.842   3.203  1.9185  2.8141 -0.1046
  757MOL0     H 4465   6.288   9.805   3.140 -0.0576 -0.1468 -0.2582
  757MOL0     H 4466   6.388   9.924   3.052 -0.7320 -0.0059 -0.0851
  758MOL0     O 4467   9.272   9.698   3.728  0.6080 -0.0514  0.3084
  758MOL0     C 4468   9.279   9.631   3.629  0.6283 -0.0773  0.2426
  758MOL0     O 4469   9.380   9.640   3.537 -0.1070 -0.3700 -1.1586
  758MOL0     C 4470   9.505   9.699   3.576  0.7553  0.1115  0.1717
  758MOL0     C 4471   9.616   9.633   3.539 -1.0901  0.4293 -0.0451
  758MOL0     C 4472   9.744   9.678   3.587 -0.5760  0.2413  1.0389
  758MOL0     C 4473   9.758   9.804   3.650 -0.0839  0.3313 -0.0819
  758MOL0     O 4474   9.889   9.836   3.690 -0.0978 -0.2149 -0.4195
  758MOL0     C 4475   9.894   9.959   3.773 -0.2250 -0.6290  0.4208
  758MOL0     C 4476  10.043  10.001   3.799 -0.2864 -0.6816 -0.4409
  758MOL0     C 4477  10.083  10.140   3.761 -0.5913  0.1775  0.2857
  758MOL0     C 4478  10.227  10.178   3.791  0.0673 -0.3973 -0.5953
  758MOL0     C 4479  10.261  10.319   3.745  0.1863  0.0659  0.6075
  758MOL0     C 4480  10.387  10.372   3.811 -0.4102 -0.0340  0.5174
  758MOL0     C 4481  10.410  10.514   3.769  1.3372 -0.2118  0.1005
  758MOL0     C 4482  10.551  10.570   3.788  0.4996 -0.3672  0.0024
  758MOL0     N 4483  10.611  10.557   3.922 -0.1933  0.3473 -0.0195
  758MOL0     C 4484  10.749  10.571   3.936 -0.5711  0.0192 -0.4181
  758MOL0     C 4485  10.764  10.610   4.060  0.3464  0.1494 -0.1093
  758MOL0     C 4486  10.892  10.638   4.132  0.0612  0.3972  1.7877
  758MOL0     C 4487  10.912  10.785   4.168  0.8958 -0.4354 -0.5094
  758MOL0     C 4488  10.939  10.875   4.052 -0.0491  0.3838 -0.5746
  758MOL0     C 4489  11.061  10.849   3.962  0.7366 -0.3228 -0.1957
  758MOL0     O 4490  11.169  10.807   4.042 -1.2626 -0.5810 -0.3473
  758MOL0     C 4491  11.295  10.780   3.975  0.4352  0.4102  0.2465
  758MOL0     C 4492  11.321  10.804   3.843  0.2290 -0.5989  0.6614
  758MOL0     C 4493  11.435  10.772   3.779 -0.0753 -0.9080 -0.6851
  758MOL0     C 4494  11.443  10.798   3.637 -0.0647  0.8568 -0.2364
  758MOL0     C 4495  11.534  10.709   3.859  0.7084  0.0935  0.2397
  758MOL0     C 4496  11.669  10.670   3.801 -0.5005 -0.0495  0.6140
  758MOL0     O 4497  11.770  10.668   3.897  0.3117  0.6303 -0.0315
  758MOL0     C 4498  11.899  10.658   3.860  0.0926 -0.2089  0.4346
  758MOL0     C 4499  11.955  10.721   3.749  0.0739 -0.4936  0.4958
  758MOL0     C 4500  12.087  10.698   3.710  0.1877 -0.4479  0.0085
  758MOL0     C 4501  12.172  10.609   3.781  0.9066 -1.0224 -0.2658
  758MOL0     O 4502  12.299  10.602   3.744 -0.1856 -1.0245 -0.4152
  758MOL0     C 4503  12.366  10.496   3.797 -0.6454  0.3910  0.0286
  758MOL0     C 4504  12.492  10.476   3.716  0.2492  0.2352  0.0679
  758MOL0     C 4505  12.554  10.341   3.705 -0.3746 -0.0927  0.3776
  758MOL0     C 4506  12.694  10.341   3.651 -0.1011  0.4372  0.5489
  758MOL0     C 4507  12.685  10.349   3.502  0.3337  0.0997  1.0325
  758MOL0     C 4508  12.829  10.359   3.444  0.6836 -0.0052  0.3068
  758MOL0     C 4509  12.880  10.219   3.411  0.2327 -0.3725  0.0798
  758MOL0     C 4510  13.026  10.230   3.349  0.1320  0.5199  0.7926
  758MOL0    Cl 4511  13.123  10.072   3.335 -0.1678 -0.2846 -0.2757
  758MOL0     C 4512  12.111  10.556   3.898 -0.1165  0.0829  1.7290
  758MOL0     C 4513  11.984  10.583   3.939  0.5531 -0.1359 -0.5267
  758MOL0     O 4514  11.673  10.646   3.681 -0.4388 -0.5533  0.7015
  758MOL0     C 4515  11.508  10.687   3.995  0.1188 -0.4524 -0.1704
  758MOL0     C 4516  11.390  10.727   4.052 -0.9451 -0.1672 -0.3812
  758MOL0     N 4517  10.643  10.614   4.128  0.2548  0.3442 -0.6695
  758MOL0     N 4518  10.552  10.595   4.043 -1.2609 -0.2842  1.2829
  758MOL0     C 4519   9.641   9.878   3.677  0.5286  0.1043  0.1947
  758MOL0     C 4520   9.517   9.827   3.634  0.2046  0.1208 -0.7300
  758MOL0     C 4521   9.186   9.520   3.606 -0.5436  0.0070  0.8563
  758MOL0     C 4522   9.228   9.421   3.511  0.1700  0.6599 -0.0140
  758MOL0     C 4523   9.156   9.305   3.489 -0.4735  1.2737  0.3379
  758MOL0     C 4524   9.037   9.283   3.544  0.0031 -0.3421 -0.1009
  758MOL0     O 4525   8.972   9.166   3.525 -0.0554 -0.0359 -0.3987
  758MOL0     C 4526   8.871   9.175   3.422  0.2701 -0.0610 -0.0314
  758MOL0     C 4527   8.876   9.041   3.355 -0.2026 -0.4884 -0.2170
  758MOL0     C 4528   8.999   9.026   3.260  0.7975  0.3761  0.5853
  758MOL0     C 4529   9.069   8.888   3.280  0.3131 -0.3774  0.4096
  758MOL0     C 4530   9.163   8.871   3.172  0.0788  0.2083 -0.2970
  758MOL0     C 4531   9.229   8.852   3.074 -0.4696  0.1108  0.2752
  758MOL0     C 4532   8.982   9.390   3.619  0.2804 -0.3037 -1.1380
  758MOL0     C 4533   9.056   9.504   3.660  1.0324 -0.8982  0.0027
  758MOL0     C 4534   8.976   9.615   3.739  0.0594 -0.1096  1.1332
  758MOL0     H 4535   9.604   9.550   3.471 -0.0683 -2.2846  2.7999
  758MOL0     H 4536   9.829   9.618   3.557 -2.0076 -0.6793 -1.5071
  758MOL0     H 4537   9.845   9.945   3.870 -1.3262  1.9043  0.3307
  758MOL0     H 4538   9.841  10.039   3.720 -2.4374 -1.5368  1.1344
  758MOL0     H 4539  10.055   9.990   3.907 -0.8868 -2.3445 -0.5067
  758MOL0     H 4540  10.106   9.935   3.738 -0.1809 -0.3602 -0.6838
  758MOL0     H 4541  10.079  10.131   3.653  4.7436  1.1139 -0.2650
  758MOL0     H 4542  10.021  10.218   3.806 -1.6152 -0.9744  0.9322
  758MOL0     H 4543  10.235  10.185   3.900  1.8840 -0.0336 -0.7193
  758MOL0     H 4544  10.294  10.094   3.769 -0.0899 -1.7870  3.3825
  758MOL0     H 4545  10.174  10.383   3.768 -0.1923 -0.4877  0.7257
  758MOL0     H 4546  10.269  10.313   3.636 -0.9524 -1.7143  0.5948
  758MOL0     H 4547  10.388  10.360   3.920  0.9099 -0.5168  0.4671
  758MOL0     H 4548  10.469  10.310   3.774 -1.1366 -0.2477 -0.7834
  758MOL0     H 4549  10.347  10.577   3.833 -3.2674  1.0558 -4.9369
  758MOL0     H 4550  10.375  10.529   3.666  1.8940  1.8787  0.1791
  758MOL0     H 4551  10.617  10.514   3.721  1.9593  1.7047 -0.4341
  758MOL0     H 4552  10.552  10.677   3.763 -0.1800 -0.3554  0.0335
  758MOL0     H 4553  10.823  10.565   3.857  2.4232  1.4076  2.0870
  758MOL0     H 4554  10.974  10.595   4.074 -0.9171  0.9109 -0.0315
  758MOL0     H 4555  10.880  10.578   4.223  0.5725 -3.2889 -0.3536
  758MOL0     H 4556  10.828  10.821   4.228  0.0909 -1.4755 -0.9864
  758MOL0     H 4557  11.003  10.794   4.228  2.7900 -2.0003 -2.9078
  758MOL0     H 4558  10.856  10.865   3.981  1.5043 -0.1298 -2.4118
  758MOL0     H 4559  10.945  10.976   4.093  0.7784  0.3296 -0.5569
  758MOL0     H 4560  11.038  10.769   3.892  0.2735 -2.3151  2.1062
  758MOL0     H 4561  11.082  10.945   3.913  2.9193 -0.5237  0.2657
  758MOL0     H 4562  11.248  10.862   3.787 -0.3278 -1.1378  0.8109
  758MOL0     H 4563  11.359  10.857   3.597 -0.3069 -0.3585 -1.6153
  758MOL0     H 4564  11.425  10.707   3.580  0.7224  1.3944 -1.3959
  758MOL0     H 4565  11.538  10.848   3.612  0.3701 -0.1321 -0.5962
  758MOL0     H 4566  11.893  10.783   3.685  1.4248  0.6224  0.2088
  758MOL0     H 4567  12.123  10.752   3.623  0.9859 -0.2469  0.4656
  758MOL0     H 4568  12.394  10.506   3.902 -1.0576  2.2086 -0.0094
  758MOL0     H 4569  12.313  10.402   3.779  4.3102 -2.0320 -5.4859
  758MOL0     H 4570  12.475  10.525   3.620 -2.8323  0.2338  0.5157
  758MOL0     H 4571  12.564  10.538   3.770 -0.4935  1.4326 -0.2849
  758MOL0     H 4572  12.500  10.263   3.651 -0.5738 -0.8619  1.6263
  758MOL0     H 4573  12.556  10.306   3.809  2.8648  0.4424  0.6107
  758MOL0     H 4574  12.730  10.242   3.681 -0.3590  0.0855 -0.2697
  758MOL0     H 4575  12.748  10.424   3.696 -2.0899  2.9079 -1.3059
  758MOL0     H 4576  12.628  10.273   3.449 -0.5807 -1.7831  4.3989
  758MOL0     H 4577  12.651  10.453   3.495 -0.5380 -0.0730  2.3495
  758MOL0     H 4578  12.894  10.413   3.513 -0.1709  0.1524  0.9972
  758MOL0     H 4579  12.827  10.403   3.344 -1.7849 -2.3854 -0.8317
  758MOL0     H 4580  12.810  10.172   3.341 -2.5323  2.5548  0.6670
  758MOL0     H 4581  12.880  10.155   3.499  3.0360 -0.2356  0.2682
  758MOL0     H 4582  13.088  10.301   3.406  0.0233  2.0344 -0.8785
  758MOL0     H 4583  13.011  10.272   3.249 -3.3416  1.0020  1.4092
  758MOL0     H 4584  12.172  10.497   3.965 -3.4863 -0.8059  4.2692
  758MOL0     H 4585  11.932  10.534   4.021 -1.8044 -0.3044 -2.0362
  758MOL0     H 4586  11.587  10.641   4.053  1.6470  0.1352 -1.6962
  758MOL0     H 4587  11.361  10.710   4.155  1.6752 -2.8849  0.0403
  758MOL0     H 4588   9.644   9.975   3.727  1.6429  0.8846 -1.3005
  758MOL0     H 4589   9.439   9.900   3.655  1.7233  0.9884  2.7501
  758MOL0     H 4590   9.321   9.430   3.455 -0.4275 -1.5354 -1.5027
  758MOL0     H 4591   9.205   9.229   3.429  2.6538  0.2960  3.7481
  758MOL0     H 4592   8.778   9.187   3.477 -0.1720 -1.6744 -0.3840
  758MOL0     H 4593   8.881   9.254   3.347  1.2536  0.6094  0.7814
  758MOL0     H 4594   8.785   9.035   3.295 -1.6011 -2.3939  1.9283
  758MOL0     H 4595   8.868   8.954   3.421 -0.8267  2.2251  3.6184
  758MOL0     H 4596   8.963   9.043   3.159 -1.4251  0.1764  1.2964
  758MOL0     H 4597   9.066   9.109   3.284  0.5029  0.8676 -0.2738
  758MOL0     H 4598   8.991   8.812   3.274  0.9680 -0.9654 -5.1926
  758MOL0     H 4599   9.120   8.884   3.377 -0.0247  1.9481  0.7550
  758MOL0     H 4600   9.291   8.824   2.991 -2.5570  1.3263 -1.8255
  758MOL0     H 4601   8.880   9.385   3.655  1.2242  2.3937  2.6191
  758MOL0     H 4602   9.031   9.638   3.831 -0.0559 -0.4382  1.2873
  758MOL0     H 4603   8.969   9.705   3.678  1.7483  0.1990  1.3354
  758MOL0     H 4604   8.877   9.581   3.768  0.3229 -0.1818  1.9772
  759MOL0     O 4605   9.581   6.683   4.150  0.1209  0.1863 -0.5150
  759MOL0     C 4606   9.622   6.734   4.255 -0.1910  0.4261 -0.9909
  759MOL0     O 4607   9.743   6.717   4.303  0.5931 -0.2829 -0.0034
  759MOL0     C 4608   9.826   6.631   4.236 -0.0535 -0.0437 -0.0624
  759MOL0     C 4609   9.836   6.498   4.276  0.8235 -0.4463  0.6230
  759MOL0     C 4610   9.911   6.402   4.204 -0.2931 -0.1191  0.6592
  759MOL0     C 4611   9.978   6.440   4.086  0.1059 -0.8036 -0.0633
  759MOL0     O 4612  10.055   6.352   4.022 -0.1596  0.6580 -0.0104
  759MOL0     C 4613  10.201   6.381   4.032  0.7480  0.2437  0.4104
  759MOL0     C 4614  10.279   6.358   3.900  0.4136  0.9201  0.6621
  759MOL0     C 4615  10.425   6.369   3.953  0.4989  0.6048 -0.3147
  759MOL0     C 4616  10.523   6.373   3.837  0.4153 -0.4519  0.3065
  759MOL0     C 4617  10.660   6.356   3.891 -0.7026  0.1706  0.2479
  759MOL0     C 4618  10.754   6.303   3.783 -0.7445  0.1212  0.5700
  759MOL0     C 4619  10.903   6.284   3.839 -0.3375 -0.1157 -0.6594
  759MOL0     C 4620  11.003   6.247   3.720  0.3186 -0.4790  0.6745
  759MOL0     N 4621  11.005   6.104   3.678 -0.1113 -0.8655 -0.4979
  759MOL0     C 4622  10.912   6.036   3.605 -0.0557  0.2802  0.1847
  759MOL0     C 4623  10.948   5.903   3.624  0.2108 -0.4678  0.1846
  759MOL0     C 4624  10.866   5.794   3.568 -0.1228 -0.2742  0.2250
  759MOL0     C 4625  10.918   5.716   3.451  0.5197 -0.1943  0.7501
  759MOL0     C 4626  10.828   5.599   3.419 -0.5226  0.8167  0.0391
  759MOL0     C 4627  10.878   5.515   3.300 -0.2883  0.0052  0.3638
  759MOL0     O 4628  11.001   5.441   3.327  1.1774 -0.0316  0.1192
  759MOL0     C 4629  11.096   5.429   3.229  0.3564  0.4825  0.3408
  759MOL0     C 4630  11.202   5.340   3.257 -0.6478 -0.0376 -0.5517
  759MOL0     C 4631  11.295   5.301   3.164 -0.5264 -0.4525 -0.6167
  759MOL0     C 4632  11.394   5.188   3.209  0.3933 -0.4549 -0.4041
  759MOL0     C 4633  11.300   5.355   3.036  0.2146 -1.1374  0.4762
  759MOL0     C 4634  11.398   5.341   2.928 -0.7491  0.6487 -0.2948
  759MOL0     O 4635  11.506   5.253   2.955  0.9287  0.1481  0.1927
  759MOL0     C 4636  11.607   5.256   2.860  0.4807 -1.0994 -0.5602
  759MOL0     C 4637  11.616   5.159   2.764 -0.0266  0.1807 -0.6794
  759MOL0     C 4638  11.729   5.157   2.684  0.5400 -0.2897 -0.4606
  759MOL0     C 4639  11.836   5.255   2.709 -0.0943 -0.0706 -0.7772
  759MOL0     O 4640  11.959   5.262   2.653 -0.4321  0.4623 -1.1791
  759MOL0     C 4641  11.983   5.177   2.541 -0.5628 -0.5766  0.2601
  759MOL0     C 4642  12.106   5.233   2.469  0.5136 -0.9848 -0.0777
  759MOL0     C 4643  12.231   5.178   2.541  0.4573  0.2441 -0.1085
  759MOL0     C 4644  12.342   5.198   2.442  0.4525  0.4822 -0.8168
  759MOL0     C 4645  12.461   5.123   2.483  0.1146 -0.0023 -0.2419
  759MOL0     C 4646  12.569   5.128   2.380  0.8065 -1.0213 -0.4591
  759MOL0     C 4647  12.679   5.034   2.431 -0.4149 -0.4612  0.4232
  759MOL0     C 4648  12.792   5.011   2.323  0.5411 -0.5192  0.4832
  759MOL0    Cl 4649  12.738   4.899   2.190 -0.0611  0.1406 -0.2144
  759MOL0     C 4650  11.812   5.358   2.798  0.7201 -0.3361 -0.3698
  759MOL0     C 4651  11.699   5.363   2.878 -0.4692 -0.0621  0.4896
  759MOL0     O 4652  11.380   5.400   2.822  0.2269  0.4115 -1.3221
  759MOL0     C 4653  11.188   5.441   3.008  0.3163 -0.7162 -0.2906
  759MOL0     C 4654  11.088   5.464   3.095 -0.5250  0.0854  0.3785
  759MOL0     N 4655  11.061   5.901   3.704  0.5456 -0.5685  0.0784
  759MOL0     N 4656  11.096   6.023   3.733  0.2347  0.6371  0.3130
  759MOL0     C 4657   9.972   6.577   4.049 -0.4775 -0.4479 -0.1924
  759MOL0     C 4658   9.893   6.670   4.115  0.0918 -0.0117 -0.7477
  759MOL0     C 4659   9.537   6.815   4.337  0.0857 -0.4291 -0.0060
  759MOL0     C 4660   9.566   6.823   4.480 -0.2050  0.7612  0.0880
  759MOL0     C 4661   9.483   6.890   4.569  0.2498 -0.3389 -0.0476
  759MOL0     C 4662   9.363   6.948   4.533 -0.0960 -0.1635 -0.0037
  759MOL0     O 4663   9.261   6.982   4.617 -0.2202 -0.4083 -0.9227
  759MOL0     C 4664   9.303   7.001   4.760 -0.1100 -0.1680 -0.2960
  759MOL0     C 4665   9.197   7.074   4.852 -0.7629 -0.5592 -0.4292
  759MOL0     C 4666   9.242   7.092   4.995  0.6188  0.3223  0.0757
  759MOL0     C 4667   9.144   7.175   5.088  0.8651  0.0607  0.0771
  759MOL0     C 4668   9.234   7.212   5.196 -0.0391 -0.3203 -0.2414
  759MOL0     C 4669   9.306   7.241   5.291  0.0696  0.4746  0.4914
  759MOL0     C 4670   9.337   6.950   4.396  0.2578 -0.1779 -0.1433
  759MOL0     C 4671   9.418   6.879   4.298 -0.0675  0.0495  0.8085
  759MOL0     C 4672   9.378   6.899   4.147 -0.5463  0.3701  0.1738
  759MOL0     H 4673   9.786   6.468   4.368 -3.0449  1.6993 -0.5902
  759MOL0     H 4674   9.910   6.302   4.247 -1.5146  0.2639  1.5614
  759MOL0     H 4675  10.228   6.305   4.105 -1.2465  0.5371  1.5238
  759MOL0     H 4676  10.227   6.478   4.075 -0.7895 -0.2385  2.5725
  759MOL0     H 4677  10.256   6.263   3.852  0.9239  1.5466 -0.9079
  759MOL0     H 4678  10.254   6.433   3.824 -1.5174 -0.2031  0.1345
  759MOL0     H 4679  10.437   6.458   4.014 -1.0527 -0.0997  1.0998
  759MOL0     H 4680  10.447   6.284   4.019  2.3894  0.3848 -1.1657
  759MOL0     H 4681  10.499   6.291   3.769 -2.2729 -0.4702  1.1827
  759MOL0     H 4682  10.498   6.466   3.786  2.0492  0.6385  1.4081
  759MOL0     H 4683  10.665   6.284   3.972 -2.1247 -1.9791 -1.4452
  759MOL0     H 4684  10.701   6.453   3.920  1.1338  0.4075 -2.7028
  759MOL0     H 4685  10.707   6.215   3.739  2.2952  0.2915 -3.6804
  759MOL0     H 4686  10.755   6.368   3.695  2.4583  3.1284  2.5706
  759MOL0     H 4687  10.904   6.203   3.912 -0.5099 -0.7073 -1.2994
  759MOL0     H 4688  10.948   6.371   3.887 -1.4144 -0.1866  0.5326
  759MOL0     H 4689  10.966   6.307   3.637 -3.1683  2.8537  4.1774
  759MOL0     H 4690  11.105   6.283   3.738  1.1930 -2.9142  0.9556
  759MOL0     H 4691  10.839   6.088   3.544 -0.1304 -0.4522 -0.3543
  759MOL0     H 4692  10.766   5.839   3.559 -0.5375  0.0589  4.5208
  759MOL0     H 4693  10.861   5.719   3.647 -2.0543  0.3981  0.7993
  759MOL0     H 4694  10.923   5.785   3.366 -0.8090 -2.1811 -1.0388
  759MOL0     H 4695  11.022   5.687   3.469  0.8114  0.6467  0.4720
  759MOL0     H 4696  10.809   5.540   3.509  1.0596 -0.5617 -0.4811
  759MOL0     H 4697  10.740   5.661   3.399 -0.2441  1.4053  0.5775
  759MOL0     H 4698  10.802   5.440   3.279 -0.9408  0.4828  0.9788
  759MOL0     H 4699  10.877   5.575   3.208 -1.2976 -0.2984  0.1671
  759MOL0     H 4700  11.210   5.295   3.356  0.1660  3.5703  1.1664
  759MOL0     H 4701  11.385   5.088   3.165  0.3657 -0.6294 -0.0164
  759MOL0     H 4702  11.355   5.174   3.311  1.9572  0.2578  0.3300
  759MOL0     H 4703  11.499   5.217   3.222  0.7678 -1.6075 -0.7185
  759MOL0     H 4704  11.539   5.082   2.762  1.3524 -1.3524  1.5740
  759MOL0     H 4705  11.748   5.087   2.603 -2.1308 -1.2085 -0.3785
  759MOL0     H 4706  11.991   5.070   2.564 -0.1210 -1.3687 -3.0520
  759MOL0     H 4707  11.896   5.169   2.475 -0.8172 -0.0169  0.5233
  759MOL0     H 4708  12.099   5.208   2.362  0.7300  1.2636 -0.6694
  759MOL0     H 4709  12.105   5.342   2.463  1.6723 -0.8928  1.0563
  759MOL0     H 4710  12.216   5.072   2.561  2.3656  0.2814  1.8641
  759MOL0     H 4711  12.250   5.237   2.632 -2.3788  2.2978 -0.6925
  759MOL0     H 4712  12.382   5.298   2.423  0.3733  0.1927 -2.7239
  759MOL0     H 4713  12.316   5.152   2.346  2.7635 -1.1343 -0.7566
  759MOL0     H 4714  12.505   5.168   2.573 -0.6345  1.6078 -0.6556
  759MOL0     H 4715  12.427   5.020   2.499  2.1530 -1.1011 -2.3826
  759MOL0     H 4716  12.605   5.231   2.384 -1.5343 -0.1671  3.3927
  759MOL0     H 4717  12.517   5.101   2.287 -1.0756 -0.5597  0.4061
  759MOL0     H 4718  12.639   4.935   2.454  2.2547 -2.1079 -1.4485
  759MOL0     H 4719  12.727   5.068   2.523  0.2194 -3.7112  1.4038
  759MOL0     H 4720  12.879   4.962   2.367 -0.3888  0.3734  3.5880
  759MOL0     H 4721  12.822   5.104   2.274  1.5814 -0.1685  1.7344
  759MOL0     H 4722  11.888   5.435   2.804 -0.1772  0.4967  0.7167
  759MOL0     H 4723  11.684   5.451   2.939 -0.1008  1.5232 -1.5752
  759MOL0     H 4724  11.177   5.497   2.916 -0.0288 -0.2240  0.0527
  759MOL0     H 4725  11.007   5.526   3.057 -1.0401  0.3300  1.8239
  759MOL0     H 4726  10.026   6.601   3.958 -1.9481 -1.7949 -1.4783
  759MOL0     H 4727   9.886   6.765   4.064  0.2328 -0.9679 -2.6551
  759MOL0     H 4728   9.659   6.781   4.516 -1.5064 -1.4429  1.0148
  759MOL0     H 4729   9.507   6.892   4.675  1.3375 -0.7230 -0.2669
  759MOL0     H 4730   9.314   6.903   4.808 -0.8550 -0.2664 -0.3045
  759MOL0     H 4731   9.400   7.051   4.760  0.3071 -0.9358 -1.5850
  759MOL0     H 4732   9.108   7.012   4.861 -1.2273  0.2205  0.5781
  759MOL0     H 4733   9.179   7.176   4.816 -0.6618  0.6443  2.6093
  759MOL0     H 4734   9.254   6.993   5.042 -1.3071 -1.0383 -2.0868
  759MOL0     H 4735   9.337   7.146   4.998  2.1364 -2.1995  2.0030
  759MOL0     H 4736   9.061   7.111   5.121  1.7123 -0.8896  0.4038
  759MOL0     H 4737   9.112   7.268   5.039  3.0500  1.0548  0.4299
  759MOL0     H 4738   9.379   7.251   5.368 -0.8618  1.6654  1.2587
  759MOL0     H 4739   9.253   7.013   4.369 -1.1866  0.5073  4.8926
  759MOL0     H 4740   9.327   6.811   4.106  0.7838  0.0205 -0.8155
  759MOL0     H 4741   9.311   6.985   4.132  1.2945  2.2744  2.1755
  759MOL0     H 4742   9.470   6.918   4.091  1.8895 -2.8031  2.7213
  760MOL0     O 4743   4.842   6.168   0.075 -0.8240  0.1379 -0.3717
  760MOL0     C 4744   4.804   6.076   0.140 -0.2607 -0.0965 -0.2811
  760MOL0     O 4745   4.819   6.067   0.279  0.0415  0.0422 -0.1157
  760MOL0     C 4746   4.856   6.181   0.349  0.0990  0.0295 -0.2911
  760MOL0     C 4747   4.784   6.307   0.341  0.2316  0.6550 -0.4320
  760MOL0     C 4748   4.828   6.426   0.409  0.3372  0.3381  0.4361
  760MOL0     C 4749   4.944   6.426   0.479  0.2873  1.0349  0.3480
  760MOL0     O 4750   4.982   6.547   0.537 -0.7238  0.6909 -0.1113
  760MOL0     C 4751   5.073   6.529   0.645 -0.1763 -0.1404 -0.5551
  760MOL0     C 4752   5.101   6.663   0.716  0.3298  0.4170  0.1836
  760MOL0     C 4753   5.220   6.662   0.807 -1.3022 -0.1844 -0.2701
  760MOL0     C 4754   5.358   6.626   0.753 -0.6962 -0.2397 -0.0850
  760MOL0     C 4755   5.467   6.605   0.858 -0.0098 -0.3415  0.1615
  760MOL0     C 4756   5.502   6.737   0.933  0.3750  0.6734  0.1319
  760MOL0     C 4757   5.633   6.732   1.009 -0.2667 -0.2083  0.0635
  760MOL0     C 4758   5.664   6.856   1.092 -0.2295  0.2815 -0.1832
  760MOL0     N 4759   5.800   6.852   1.161 -0.2564 -0.5484 -0.2845
  760MOL0     C 4760   5.821   6.916   1.284  0.2299 -0.4426  0.5967
  760MOL0     C 4761   5.946   6.871   1.320 -0.3866 -0.8579 -0.4355
  760MOL0     C 4762   6.017   6.897   1.450 -0.0492 -0.1089  0.1624
  760MOL0     C 4763   6.150   6.831   1.485  0.9603  0.0881 -0.8874
  760MOL0     C 4764   6.196   6.884   1.616  0.0932  0.3768  0.3614
  760MOL0     C 4765   6.337   6.837   1.661 -0.6429  0.1701  0.1186
  760MOL0     O 4766   6.379   6.926   1.762  0.3174 -0.4589  0.1261
  760MOL0     C 4767   6.497   6.890   1.828 -0.1634  0.1354  0.6320
  760MOL0     C 4768   6.530   6.967   1.941 -0.0467 -1.0198  1.1433
  760MOL0     C 4769   6.643   6.954   2.021  0.2459  0.4377  0.1658
  760MOL0     C 4770   6.662   7.061   2.120  0.1572  0.7116 -0.1573
  760MOL0     C 4771   6.738   6.847   1.996  0.2179 -0.3280  0.2714
  760MOL0     C 4772   6.858   6.812   2.071 -0.3834 -0.0794  0.0346
  760MOL0     O 4773   6.919   6.693   2.038 -0.2772 -0.1028  0.1302
  760MOL0     C 4774   7.035   6.657   2.108 -0.5460  1.0770  0.9562
  760MOL0     C 4775   7.151   6.736   2.105  0.3386  0.0648  0.6162
  760MOL0     C 4776   7.267   6.693   2.173 -1.3131  0.1165 -0.2472
  760MOL0     C 4777   7.279   6.570   2.232  0.2104  0.1288  0.0611
  760MOL0     O 4778   7.401   6.532   2.284  0.5973 -0.4376  0.4169
  760MOL0     C 4779   7.417   6.397   2.320 -0.5798  0.1206 -0.2552
  760MOL0     C 4780   7.561   6.375   2.372 -0.1060 -0.0237 -0.5623
  760MOL0     C 4781   7.672   6.401   2.279  0.6772  0.4330  0.8988
  760MOL0     C 4782   7.802   6.349   2.339 -0.4764  0.9570 -0.1894
  760MOL0     C 4783   7.918   6.366   2.239  0.9212  0.3276  0.1971
  760MOL0     C 4784   7.936   6.514   2.205 -0.8212  0.4938  0.1838
  760MOL0     C 4785   7.950   6.601   2.324  0.1921 -0.5871 -0.0314
  760MOL0     C 4786   7.997   6.743   2.289  0.0992 -0.1736  0.0860
  760MOL0    Cl 4787   8.095   6.747   2.142  0.0331  0.1315 -0.0527
  760MOL0     C 4788   7.157   6.491   2.228 -0.1067  0.0639 -0.7828
  760MOL0     C 4789   7.043   6.532   2.165 -0.2714  0.1346 -0.3926
  760MOL0     O 4790   6.895   6.887   2.159  0.4253 -0.2804 -0.1872
  760MOL0     C 4791   6.715   6.776   1.869 -0.9388  0.0029 -0.0468
  760MOL0     C 4792   6.594   6.789   1.793 -1.0511  0.3420  0.7773
  760MOL0     N 4793   5.988   6.772   1.230 -0.2582 -0.4853  0.3456
  760MOL0     N 4794   5.903   6.764   1.140  0.1397  1.0677  0.3849
  760MOL0     C 4795   5.015   6.302   0.495 -0.0595  0.4649 -0.4392
  760MOL0     C 4796   4.977   6.180   0.424 -0.0705 -0.1323 -1.5141
  760MOL0     C 4797   4.756   5.958   0.066  1.1811  0.0893  0.5039
  760MOL0     C 4798   4.821   5.905  -0.045  0.6084 -0.9959  0.2627
  760MOL0     C 4799   4.788   5.783  -0.104 -0.2661 -0.9486  0.3092
  760MOL0     C 4800   4.666   5.727  -0.072  0.8874  0.2842 -0.8481
  760MOL0     O 4801   4.616   5.610  -0.124 -0.8537 -0.2061 -0.1595
  760MOL0     C 4802   4.512   5.629  -0.217 -0.1989 -0.4439 -0.0744
  760MOL0     C 4803   4.477   5.492  -0.280 -0.1145  0.2973  0.6012
  760MOL0     C 4804   4.488   5.498  -0.432 -0.0977  0.8112 -0.3523
  760MOL0     C 4805   4.474   5.363  -0.501 -0.0000 -0.5231 -0.1275
  760MOL0     C 4806   4.336   5.323  -0.512  0.0887  0.8040 -0.8225
  760MOL0     C 4807   4.217   5.294  -0.494  0.3472  0.7888  0.2416
  760MOL0     C 4808   4.584   5.781   0.026  0.0193 -0.5695 -0.3772
  760MOL0     C 4809   4.635   5.892   0.104  0.2566 -0.3512 -0.0964
  760MOL0     C 4810   4.556   5.946   0.217  0.1765 -0.1210 -0.1834
  760MOL0     H 4811   4.684   6.287   0.303  0.9261 -1.7267 -1.2279
  760MOL0     H 4812   4.772   6.519   0.408  0.1653  0.2348 -0.5568
  760MOL0     H 4813   5.167   6.501   0.596  1.6443  0.5101  2.2881
  760MOL0     H 4814   5.042   6.459   0.722 -0.1217  2.1308  1.6572
  760MOL0     H 4815   5.122   6.736   0.637 -0.2740 -0.1258 -0.4922
  760MOL0     H 4816   5.019   6.697   0.779 -0.5372  0.2182 -0.8195
  760MOL0     H 4817   5.232   6.757   0.861  1.0882 -1.2883  1.3419
  760MOL0     H 4818   5.197   6.582   0.878  1.1757 -1.0432 -0.3499
  760MOL0     H 4819   5.344   6.532   0.698  0.2188  1.2705 -3.1148
  760MOL0     H 4820   5.390   6.702   0.681 -2.5551  1.3409  0.6739
  760MOL0     H 4821   5.562   6.569   0.817 -0.2413 -2.2773  1.2347
  760MOL0     H 4822   5.429   6.532   0.930 -1.2410  1.5102  1.4918
  760MOL0     H 4823   5.488   6.820   0.864 -2.0709 -0.4483 -0.8529
  760MOL0     H 4824   5.426   6.758   1.008 -0.4302  1.2607 -0.8255
  760MOL0     H 4825   5.718   6.723   0.941  0.0249 -0.3049  0.4375
  760MOL0     H 4826   5.636   6.646   1.076 -2.9497  0.5457  1.3100
  760MOL0     H 4827   5.653   6.945   1.030 -2.3265  1.0673  1.1860
  760MOL0     H 4828   5.580   6.862   1.163 -2.0494 -0.1149 -2.1990
  760MOL0     H 4829   5.757   6.985   1.338 -1.3636 -0.9599 -0.5594
  760MOL0     H 4830   5.946   6.872   1.529  1.1696 -1.1915  0.9455
  760MOL0     H 4831   6.045   7.003   1.454  4.3579 -1.1030  2.7459
  760MOL0     H 4832   6.135   6.723   1.493 -0.5252  0.4092  1.6297
  760MOL0     H 4833   6.227   6.847   1.409  0.7147 -0.2158 -1.2027
  760MOL0     H 4834   6.204   6.989   1.588 -0.8290 -0.1099 -1.9738
  760MOL0     H 4835   6.120   6.865   1.693 -1.9807  0.2931 -1.6047
  760MOL0     H 4836   6.327   6.739   1.708 -2.1162  0.0350 -0.4139
  760MOL0     H 4837   6.414   6.833   1.584 -0.8600 -1.3036 -0.0438
  760MOL0     H 4838   6.459   7.047   1.962  0.5502 -0.8206  2.5129
  760MOL0     H 4839   6.767   7.088   2.111  1.6755 -3.2556  2.8126
  760MOL0     H 4840   6.639   7.027   2.222 -2.6817  0.7655 -0.6912
  760MOL0     H 4841   6.602   7.148   2.090 -1.9397 -1.1721 -1.8217
  760MOL0     H 4842   7.139   6.832   2.056  1.6714 -0.0019  0.1163
  760MOL0     H 4843   7.351   6.761   2.173 -1.6233  0.5205  0.6529
  760MOL0     H 4844   7.346   6.379   2.402  0.0290  4.0096  1.3399
  760MOL0     H 4845   7.403   6.334   2.231  2.2672  1.5477 -1.8432
  760MOL0     H 4846   7.593   6.430   2.461 -1.7295  0.0413  0.0320
  760MOL0     H 4847   7.571   6.272   2.408  2.5274 -0.5365 -2.4661
  760MOL0     H 4848   7.671   6.507   2.253 -2.9978  0.1072 -1.0174
  760MOL0     H 4849   7.651   6.334   2.195 -2.5057  0.4330  1.5742
  760MOL0     H 4850   7.788   6.243   2.359 -1.1437  0.7054 -1.8510
  760MOL0     H 4851   7.834   6.397   2.432 -0.2111 -0.6353  0.5593
  760MOL0     H 4852   8.017   6.332   2.271  0.2778 -0.8929  0.9505
  760MOL0     H 4853   7.895   6.308   2.149 -1.7760  0.0602  0.9806
  760MOL0     H 4854   7.861   6.547   2.134 -2.5400 -0.8487  1.2886
  760MOL0     H 4855   8.032   6.508   2.153 -0.6955  0.2086  0.4458
  760MOL0     H 4856   8.019   6.558   2.396 -0.2972  0.4040  1.0564
  760MOL0     H 4857   7.856   6.623   2.377  2.2141  0.9048  3.2200
  760MOL0     H 4858   8.047   6.794   2.372  0.1650  0.5323 -0.3780
  760MOL0     H 4859   7.911   6.806   2.266  0.0646 -0.1560  0.2584
  760MOL0     H 4860   7.152   6.391   2.270 -2.7131  0.2098 -0.6140
  760MOL0     H 4861   6.963   6.460   2.163  0.1386 -0.2993 -1.5393
  760MOL0     H 4862   6.791   6.708   1.830 -0.3412 -0.2322  1.4646
  760MOL0     H 4863   6.584   6.736   1.699  0.1432 -0.7704  1.2456
  760MOL0     H 4864   5.113   6.302   0.541  0.2044 -3.4450 -0.6704
  760MOL0     H 4865   5.035   6.092   0.448 -1.7594 -0.4683  1.8972
  760MOL0     H 4866   4.916   5.948  -0.073 -0.2346  0.6811 -0.1532
  760MOL0     H 4867   4.853   5.750  -0.184 -3.3317 -0.0131 -2.7952
  760MOL0     H 4868   4.422   5.663  -0.166 -0.8360 -3.0191  0.6766
  760MOL0     H 4869   4.534   5.704  -0.294 -2.9195 -0.7753 -1.2841
  760MOL0     H 4870   4.375   5.461  -0.253  0.3247 -2.2684 -0.4000
  760MOL0     H 4871   4.546   5.415  -0.244 -1.5092 -1.8387 -1.0329
  760MOL0     H 4872   4.421   5.575  -0.470 -2.1525  0.2806  1.9515
  760MOL0     H 4873   4.588   5.536  -0.455  1.3929 -2.5310  0.0190
  760MOL0     H 4874   4.533   5.290  -0.445 -0.8537  0.4798  2.2110
  760MOL0     H 4875   4.519   5.374  -0.601  0.7927  0.3081  0.3079
  760MOL0     H 4876   4.113   5.271  -0.482  0.6247 -0.8525 -0.1767
  760MOL0     H 4877   4.485   5.741   0.048 -0.8208  1.5588  0.0187
  760MOL0     H 4878   4.577   6.051   0.239 -2.0843  0.0266  1.6629
  760MOL0     H 4879   4.449   5.935   0.203  0.1468 -1.4974  0.8475
  760MOL0     H 4880   4.600   5.894   0.304  0.0625 -0.6040 -0.4084
  761MOL0     O 4881   1.192   6.533   2.678  0.1420  0.0183 -0.6339
  761MOL0     C 4882   1.141   6.423   2.666 -0.9491  0.8068  0.4679
  761MOL0     O 4883   1.179   6.320   2.743  0.5860 -0.3192  0.0115
  761MOL0     C 4884   1.280   6.345   2.831  0.5606 -0.4339 -0.2512
  761MOL0     C 4885   1.406   6.401   2.803 -0.6078  0.5266  0.2904
  761MOL0     C 4886   1.515   6.394   2.897  0.0855 -0.0100 -0.3135
  761MOL0     C 4887   1.490   6.343   3.024  0.6642  0.1364 -0.1565
  761MOL0     O 4888   1.581   6.332   3.130  0.3789  0.1058  0.5624
  761MOL0     C 4889   1.694   6.417   3.142 -0.3179 -0.4029  0.2243
  761MOL0     C 4890   1.817   6.352   3.080 -0.4236 -0.2145 -0.6849
  761MOL0     C 4891   1.824   6.205   3.126  0.3181  0.0748 -0.1462
  761MOL0     C 4892   1.963   6.140   3.109 -0.1155  0.0773  0.0240
  761MOL0     C 4893   2.045   6.120   3.237  0.1701 -0.0860 -0.4886
  761MOL0     C 4894   2.162   6.023   3.205 -0.0679 -0.5905  0.0296
  761MOL0     C 4895   2.267   6.049   3.315 -0.8012 -0.5430 -0.2981
  761MOL0     C 4896   2.215   6.007   3.450 -0.1708  0.3439  0.7899
  761MOL0     N 4897   2.331   6.006   3.538 -0.3833  0.2912  0.2646
  761MOL0     C 4898   2.385   5.892   3.592  0.3966 -0.6201 -0.0105
  761MOL0     C 4899   2.486   5.941   3.673  0.4925  0.1015 -0.1982
  761MOL0     C 4900   2.564   5.868   3.784 -0.5664  0.5008 -0.1876
  761MOL0     C 4901   2.668   5.967   3.842 -0.6785  0.9265 -1.1637
  761MOL0     C 4902   2.777   5.880   3.903 -0.5196 -0.6613  0.0782
  761MOL0     C 4903   2.878   5.976   3.971 -1.0021  0.6570 -0.1421
  761MOL0     O 4904   2.937   5.890   4.068  0.0912  0.0122 -0.9890
  761MOL0     C 4905   3.053   5.933   4.134 -0.2154  0.8587  0.0286
  761MOL0     C 4906   3.103   5.863   4.244  0.3325  0.9143  0.0045
  761MOL0     C 4907   3.217   5.906   4.317 -0.9494 -0.4766 -0.0580
  761MOL0     C 4908   3.256   5.828   4.442 -0.2118  0.2259 -0.3146
  761MOL0     C 4909   3.284   6.028   4.278  0.7215  0.1606 -0.3173
  761MOL0     C 4910   3.400   6.092   4.353 -0.4568 -0.8006  0.1401
  761MOL0     O 4911   3.433   6.222   4.313 -0.1909  0.4103 -0.0428
  761MOL0     C 4912   3.552   6.292   4.352 -0.5155  0.1904  0.4948
  761MOL0     C 4913   3.547   6.426   4.329 -0.8785  0.1700 -0.3049
  761MOL0     C 4914   3.665   6.502   4.354  0.7406 -0.1369  0.9267
  761MOL0     C 4915   3.776   6.444   4.409 -0.5351  0.4396 -0.2038
  761MOL0     O 4916   3.896   6.508   4.441 -0.0573 -0.7476  0.6341
  761MOL0     C 4917   3.935   6.646   4.414 -0.4848  0.1185 -1.3763
  761MOL0     C 4918   3.937   6.683   4.261  0.3461 -0.3436 -0.0044
  761MOL0     C 4919   3.970   6.828   4.222 -0.8033 -0.0620  0.0040
  761MOL0     C 4920   3.909   6.930   4.332 -0.2739 -0.3821 -0.5764
  761MOL0     C 4921   3.924   7.081   4.301  0.2778  0.0002 -0.1342
  761MOL0     C 4922   4.070   7.125   4.294 -0.1435 -0.3117  0.0263
  761MOL0     C 4923   4.153   7.122   4.409 -0.4951  0.0800 -0.1534
  761MOL0     C 4924   4.304   7.166   4.391  0.6347 -0.1131  0.1968
  761MOL0    Cl 4925   4.388   7.155   4.549 -0.1309  0.2409  0.5275
  761MOL0     C 4926   3.779   6.309   4.433 -0.2159  0.3836  0.4841
  761MOL0     C 4927   3.666   6.236   4.404  0.1703  0.0055  0.0207
  761MOL0     O 4928   3.443   6.044   4.454 -0.7988  0.4781  0.4513
  761MOL0     C 4929   3.243   6.096   4.158  0.4401  0.1461 -0.4439
  761MOL0     C 4930   3.128   6.047   4.091 -0.1272 -0.6441 -0.4700
  761MOL0     N 4931   2.489   6.077   3.662 -0.2578 -0.4030  0.0484
  761MOL0     N 4932   2.405   6.120   3.581  0.4895 -0.0567 -0.0081
  761MOL0     C 4933   1.372   6.279   3.044  0.7953 -0.6465  0.0775
  761MOL0     C 4934   1.271   6.279   2.951  0.4415 -0.0265  0.1416
  761MOL0     C 4935   1.032   6.393   2.564  0.1498 -0.7012  0.7311
  761MOL0     C 4936   1.016   6.488   2.455  0.4339 -0.5454  0.4104
  761MOL0     C 4937   0.916   6.465   2.363  0.4960  0.3065 -0.0492
  761MOL0     C 4938   0.823   6.361   2.372  0.6294  0.2745  0.6537
  761MOL0     O 4939   0.719   6.359   2.274  0.2075  0.2905  0.0277
  761MOL0     C 4940   0.632   6.242   2.260  0.8877  0.1763 -0.1437
  761MOL0     C 4941   0.524   6.286   2.157  0.3305  0.5013  0.9036
  761MOL0     C 4942   0.581   6.294   2.015  0.5506  0.2415  0.8256
  761MOL0     C 4943   0.659   6.426   1.990 -0.3110  0.2749 -0.1145
  761MOL0     C 4944   0.674   6.434   1.838  0.1068  0.2982  0.4473
  761MOL0     C 4945   0.669   6.423   1.715  0.8258  0.4535 -0.1348
  761MOL0     C 4946   0.841   6.267   2.473 -0.0087 -0.2693  0.0886
  761MOL0     C 4947   0.938   6.284   2.577 -0.4045 -0.5479  0.3630
  761MOL0     C 4948   0.923   6.183   2.691 -0.2323  0.2680  0.7643
  761MOL0     H 4949   1.439   6.443   2.709 -0.1662  1.9602  1.0667
  761MOL0     H 4950   1.610   6.438   2.869 -0.6343  1.5675 -0.3652
  761MOL0     H 4951   1.722   6.443   3.244  2.8895 -1.5722 -0.2624
  761MOL0     H 4952   1.676   6.509   3.085 -0.1250 -1.3159 -1.3773
  761MOL0     H 4953   1.812   6.358   2.971 -5.2012  0.7018 -0.6022
  761MOL0     H 4954   1.904   6.404   3.121  0.1425 -0.0415 -2.0625
  761MOL0     H 4955   1.790   6.196   3.229 -0.6288  0.6904 -0.3859
  761MOL0     H 4956   1.748   6.152   3.068 -0.3350 -0.3206  1.0466
  761MOL0     H 4957   1.949   6.038   3.072  1.0493 -0.2838  0.5537
  761MOL0     H 4958   2.018   6.192   3.031  1.6297 -0.5143  0.8127
  761MOL0     H 4959   1.989   6.091   3.326  0.6825 -1.6796 -0.6382
  761MOL0     H 4960   2.094   6.216   3.254  1.7962 -0.9681  0.0289
  761MOL0     H 4961   2.122   5.922   3.192  3.7792 -2.0251 -2.6742
  761MOL0     H 4962   2.203   6.058   3.110  2.0868 -1.3996  0.5917
  761MOL0     H 4963   2.296   6.154   3.318 -0.8049 -0.5471 -0.1085
  761MOL0     H 4964   2.357   5.990   3.294  0.7022  0.8979  1.7141
  761MOL0     H 4965   2.143   6.085   3.480 -2.7424 -1.2081 -0.9367
  761MOL0     H 4966   2.160   5.914   3.434 -0.7130  0.1659  3.2875
  761MOL0     H 4967   2.345   5.792   3.578  1.1923 -0.9526  0.0458
  761MOL0     H 4968   2.621   5.791   3.733 -1.8883 -0.3369 -0.4426
  761MOL0     H 4969   2.501   5.830   3.864  0.5686  1.1538  1.0601
  761MOL0     H 4970   2.726   6.016   3.764  0.7498  1.2422  0.0371
  761MOL0     H 4971   2.629   6.038   3.916 -2.0242  0.2188 -1.1554
  761MOL0     H 4972   2.731   5.813   3.976 -0.0684  0.0281  1.0038
  761MOL0     H 4973   2.830   5.824   3.825  0.3681  2.2573 -1.5477
  761MOL0     H 4974   2.949   6.017   3.899 -0.6972  0.3178 -0.0371
  761MOL0     H 4975   2.826   6.053   4.028 -1.6464  2.2564 -2.7253
  761MOL0     H 4976   3.033   5.789   4.284 -1.0603  1.2197 -1.7702
  761MOL0     H 4977   3.191   5.742   4.465 -2.5190  1.9565 -0.0259
  761MOL0     H 4978   3.244   5.885   4.534  0.5796 -1.1650  0.6839
  761MOL0     H 4979   3.361   5.798   4.433  0.5360  1.7265  2.3453
  761MOL0     H 4980   3.451   6.466   4.298  0.1593  1.6825 -1.7126
  761MOL0     H 4981   3.665   6.608   4.329  2.2526 -0.2011  0.5355
  761MOL0     H 4982   3.856   6.706   4.462  1.2741  0.4098  1.3975
  761MOL0     H 4983   4.028   6.674   4.464  0.3084 -2.0414 -1.5445
  761MOL0     H 4984   4.011   6.612   4.223  2.2091  0.8447  1.2381
  761MOL0     H 4985   3.839   6.664   4.215  0.6025  0.9232 -1.1232
  761MOL0     H 4986   3.925   6.855   4.126 -2.8393  1.1151  1.2236
  761MOL0     H 4987   4.079   6.839   4.216 -0.6702 -1.4168 -0.4518
  761MOL0     H 4988   3.960   6.905   4.425 -0.6910 -1.7065 -0.6720
  761MOL0     H 4989   3.804   6.905   4.349 -0.4939 -0.1916 -1.5869
  761MOL0     H 4990   3.879   7.092   4.202 -2.2978 -0.0716  0.9652
  761MOL0     H 4991   3.879   7.143   4.378 -0.0064  0.2632 -0.5103
  761MOL0     H 4992   4.062   7.228   4.258  1.9009 -1.0192 -2.8098
  761MOL0     H 4993   4.122   7.077   4.210 -0.3680  0.4846 -0.5843
  761MOL0     H 4994   4.149   7.019   4.444 -0.0522  1.1215  3.3186
  761MOL0     H 4995   4.109   7.182   4.490 -0.6295 -0.6866  0.3473
  761MOL0     H 4996   4.312   7.260   4.336  2.4388 -1.0986 -1.3753
  761MOL0     H 4997   4.355   7.099   4.321 -1.9326 -3.0067  0.8691
  761MOL0     H 4998   3.872   6.263   4.464  0.9740  0.0507 -3.0901
  761MOL0     H 4999   3.673   6.128   4.412 -1.5265 -0.2702 -1.5726
  761MOL0     H 5000   3.293   6.179   4.109  2.8838 -0.5762  0.6475
  761MOL0     H 5001   3.083   6.102   4.010  0.2029 -2.6764 -2.1053
  761MOL0     H 5002   1.364   6.223   3.137 -0.4209 -0.1008  0.3187
  761MOL0     H 5003   1.179   6.222   2.964 -0.6633  1.3631 -1.2240
  761MOL0     H 5004   1.079   6.574   2.435  0.7530 -1.0207 -0.7176
  761MOL0     H 5005   0.907   6.540   2.285  2.3037 -0.2359 -0.8485
  761MOL0     H 5006   0.678   6.149   2.224 -0.2686  0.1476 -1.6342
  761MOL0     H 5007   0.572   6.218   2.348 -2.2305  0.7099 -1.9941
  761MOL0     H 5008   0.472   6.379   2.184  2.0967  2.2151 -1.2111
  761MOL0     H 5009   0.449   6.206   2.161 -1.1117  1.8230  1.2649
  761MOL0     H 5010   0.642   6.205   1.999 -0.7655 -0.2220 -2.1399
  761MOL0     H 5011   0.499   6.294   1.943  0.0251  0.8681  1.4052
  761MOL0     H 5012   0.753   6.436   2.046 -2.9259  0.2704  4.8749
  761MOL0     H 5013   0.593   6.504   2.029 -1.0816  0.0768 -0.9966
  761MOL0     H 5014   0.653   6.435   1.610 -3.0564  0.8339  0.3435
  761MOL0     H 5015   0.767   6.189   2.490  0.8116 -0.5613  2.7711
  761MOL0     H 5016   0.956   6.223   2.787  0.4984 -3.8032  2.4056
  761MOL0     H 5017   0.826   6.133   2.692 -0.5486  0.8622  0.3215
  761MOL0     H 5018   0.994   6.104   2.664 -1.1146 -1.0942  2.2393
  762MOL0     O 5019   7.994   5.050   5.427 -0.0363 -0.2993 -0.4166
  762MOL0     C 5020   7.913   5.110   5.486 -0.0121 -1.1732 -0.5844
  762MOL0     O 5021   7.940   5.223   5.558  0.7160 -0.2317 -0.0357
  762MOL0     C 5022   8.071   5.255   5.596  0.5933 -0.1355  0.7340
  762MOL0     C 5023   8.113   5.387   5.559  0.0349 -0.5452  0.6736
  762MOL0     C 5024   8.250   5.423   5.575  0.4114  0.8475 -0.1026
  762MOL0     C 5025   8.344   5.340   5.641  0.0324 -0.4486  0.6143
  762MOL0     O 5026   8.472   5.388   5.651 -0.2116  0.9034 -0.3855
  762MOL0     C 5027   8.574   5.293   5.684 -0.0094  0.8594  0.5079
  762MOL0     C 5028   8.619   5.189   5.583  0.3415  0.5798  0.3324
  762MOL0     C 5029   8.660   5.056   5.655  0.2975  0.1265 -0.4371
  762MOL0     C 5030   8.758   5.081   5.778 -1.0606  0.3162  0.2713
  762MOL0     C 5031   8.836   4.953   5.833 -0.0482 -0.2173  0.4066
  762MOL0     C 5032   8.740   4.847   5.891 -0.4656 -0.7775 -0.5584
  762MOL0     C 5033   8.819   4.724   5.931 -0.7118 -0.3468 -0.3218
  762MOL0     C 5034   8.909   4.754   6.053 -0.5773  0.2990  0.0986
  762MOL0     N 5035   8.941   4.634   6.132  0.5087  0.4568 -0.4204
  762MOL0     C 5036   8.962   4.653   6.274 -0.0146  0.5848 -0.0647
  762MOL0     C 5037   8.980   4.528   6.320 -0.6718 -0.2450  0.1444
  762MOL0     C 5038   8.989   4.498   6.471 -0.6900  0.5401  0.6796
  762MOL0     C 5039   9.123   4.422   6.497  0.0977  0.1920  0.3294
  762MOL0     C 5040   9.156   4.403   6.643 -0.2056  0.5456  0.7696
  762MOL0     C 5041   9.252   4.291   6.655  1.4111  0.1553  0.0660
  762MOL0     O 5042   9.366   4.331   6.579 -0.9301  1.0525  0.3203
  762MOL0     C 5043   9.473   4.242   6.570 -0.6843  1.0391  0.5098
  762MOL0     C 5044   9.557   4.251   6.462 -0.1972 -0.1109 -0.0430
  762MOL0     C 5045   9.679   4.177   6.455 -0.0676 -0.2970 -0.8772
  762MOL0     C 5046   9.772   4.217   6.342 -0.5243 -0.3313 -0.0244
  762MOL0     C 5047   9.709   4.083   6.555 -0.7504  0.8281  0.4856
  762MOL0     C 5048   9.821   3.978   6.536  0.2345 -0.2328 -0.0142
  762MOL0     O 5049   9.854   3.903   6.641  0.4639 -0.2501 -0.4100
  762MOL0     C 5050   9.923   3.787   6.613  0.2680  1.1032  0.2312
  762MOL0     C 5051  10.049   3.786   6.554  0.1326  0.0521  0.2282
  762MOL0     C 5052  10.119   3.667   6.528 -0.3429 -0.0539 -0.8739
  762MOL0     C 5053  10.061   3.549   6.564  0.3548  0.8383 -0.0167
  762MOL0     O 5054  10.130   3.432   6.537 -0.3739 -0.0249  0.2402
  762MOL0     C 5055  10.216   3.376   6.632 -0.4086  0.9107  0.0261
  762MOL0     C 5056  10.174   3.250   6.698  0.8173  0.0502  1.2088
  762MOL0     C 5057  10.260   3.221   6.816 -0.7651  0.0590  0.4152
  762MOL0     C 5058  10.178   3.236   6.950 -0.0745 -0.4260  0.0474
  762MOL0     C 5059  10.258   3.217   7.076 -0.3679  0.2912 -0.2774
  762MOL0     C 5060  10.328   3.347   7.124  0.4819  0.4160  0.9225
  762MOL0     C 5061  10.358   3.354   7.270  0.0230 -0.1878  0.0086
  762MOL0     C 5062  10.447   3.238   7.325 -0.2655 -0.2720  0.1831
  762MOL0    Cl 5063  10.613   3.243   7.261 -0.5103  0.2760  0.1062
  762MOL0     C 5064   9.937   3.547   6.629  0.0537  0.4734  0.5041
  762MOL0     C 5065   9.876   3.669   6.660 -0.3383  0.6532  1.1725
  762MOL0     O 5066   9.853   3.952   6.421 -0.7569  0.7154  0.2670
  762MOL0     C 5067   9.618   4.060   6.659  0.4480  0.1254 -1.0802
  762MOL0     C 5068   9.502   4.138   6.667 -0.0133 -0.4600 -0.5707
  762MOL0     N 5069   8.980   4.435   6.216  0.5297 -0.0734 -0.1485
  762MOL0     N 5070   8.948   4.500   6.103  0.2461  0.0265  0.9434
  762MOL0     C 5071   8.298   5.217   5.687  1.1229 -0.5927 -0.5657
  762MOL0     C 5072   8.160   5.176   5.665  0.7907 -0.0182  0.5481
  762MOL0     C 5073   7.778   5.063   5.470  0.9051 -0.0358 -0.2099
  762MOL0     C 5074   7.750   4.967   5.380 -0.0608 -0.5021  0.8331
  762MOL0     C 5075   7.622   4.915   5.347 -0.1060  0.0008  0.5681
  762MOL0     C 5076   7.510   4.976   5.402  0.9359  0.2076  0.2789
  762MOL0     O 5077   7.384   4.914   5.376  0.3199  0.6381 -0.1553
  762MOL0     C 5078   7.264   4.956   5.436 -0.7738  0.9134 -0.0695
  762MOL0     C 5079   7.198   5.058   5.341  0.1680 -0.2826  1.0170
  762MOL0     C 5080   7.172   5.009   5.192 -0.0691 -0.2999  0.2005
  762MOL0     C 5081   7.150   5.120   5.088 -0.6465  0.7276 -0.5679
  762MOL0     C 5082   7.248   5.222   5.071  0.1428 -0.0702 -0.3289
  762MOL0     C 5083   7.331   5.311   5.064  0.1279  0.6456  0.1925
  762MOL0     C 5084   7.536   5.080   5.491  0.3765  0.4153  0.1306
  762MOL0     C 5085   7.665   5.112   5.539 -0.5006 -0.2774 -0.2846
  762MOL0     C 5086   7.665   5.212   5.661 -0.3328 -0.7462  1.2130
  762MOL0     H 5087   8.053   5.451   5.494 -0.3096 -1.2725  0.2675
  762MOL0     H 5088   8.277   5.519   5.531  0.6668  0.9079  0.1772
  762MOL0     H 5089   8.558   5.245   5.781  1.2993 -0.4572  0.1129
  762MOL0     H 5090   8.669   5.344   5.701 -0.0947  1.0897  0.2882
  762MOL0     H 5091   8.528   5.164   5.528 -0.6995  2.2588  1.2140
  762MOL0     H 5092   8.696   5.236   5.522  2.0821  0.9820  2.6707
  762MOL0     H 5093   8.566   5.016   5.694 -0.3933  2.7436  0.8882
  762MOL0     H 5094   8.707   4.987   5.585 -2.7143 -0.9430 -1.5546
  762MOL0     H 5095   8.827   5.156   5.738 -1.7799 -0.0365 -1.7142
  762MOL0     H 5096   8.714   5.132   5.864  1.2537 -0.0497  1.7562
  762MOL0     H 5097   8.918   4.978   5.901  0.2307 -0.9863  0.3625
  762MOL0     H 5098   8.888   4.905   5.749  1.0843  0.8230  0.4743
  762MOL0     H 5099   8.690   4.880   5.983  3.7039  0.7201  1.4652
  762MOL0     H 5100   8.670   4.816   5.813 -0.8605  1.8175 -1.3458
  762MOL0     H 5101   8.886   4.692   5.850  1.1951  2.7766 -0.1749
  762MOL0     H 5102   8.760   4.638   5.964  3.1694 -1.8186  3.8384
  762MOL0     H 5103   8.999   4.807   6.020 -1.3941  1.7095  0.0276
  762MOL0     H 5104   8.854   4.815   6.125 -0.3687  0.7500 -0.1202
  762MOL0     H 5105   8.962   4.748   6.327  0.9164  1.5333 -1.7060
  762MOL0     H 5106   8.906   4.431   6.498 -1.7269  1.3136 -0.4776
  762MOL0     H 5107   8.981   4.589   6.530 -0.0662  2.6729 -2.2530
  762MOL0     H 5108   9.120   4.326   6.445  0.5987  0.8873 -1.0504
  762MOL0     H 5109   9.208   4.481   6.461  0.8387 -1.0325  0.0032
  762MOL0     H 5110   9.201   4.497   6.674  3.3808 -1.0471  0.8064
  762MOL0     H 5111   9.064   4.386   6.700 -0.7935  0.4873 -0.1744
  762MOL0     H 5112   9.271   4.280   6.762 -0.6774  1.0361  0.5752
  762MOL0     H 5113   9.217   4.192   6.625 -0.8659  1.5917 -2.4561
  762MOL0     H 5114   9.532   4.332   6.394 -1.5632 -0.4199  0.0790
  762MOL0     H 5115   9.762   4.153   6.253 -1.5523 -1.1959  0.6805
  762MOL0     H 5116   9.878   4.211   6.368  0.2724  2.1915 -2.2616
  762MOL0     H 5117   9.746   4.315   6.303 -1.2633 -1.1614 -1.7114
  762MOL0     H 5118  10.090   3.882   6.523 -0.2005  0.0613 -0.2018
  762MOL0     H 5119  10.212   3.672   6.472  0.5177 -0.0658  0.5052
  762MOL0     H 5120  10.307   3.357   6.575 -1.0984 -1.5180 -0.3835
  762MOL0     H 5121  10.231   3.452   6.709  0.4053  1.8381 -1.0143
  762MOL0     H 5122  10.072   3.264   6.734  0.1145 -0.2025 -0.5560
  762MOL0     H 5123  10.176   3.171   6.622  3.6193 -0.0054  1.2396
  762MOL0     H 5124  10.354   3.277   6.816 -0.5535 -0.2785 -0.5548
  762MOL0     H 5125  10.298   3.119   6.803  2.0842  1.3794 -4.4142
  762MOL0     H 5126  10.091   3.170   6.948 -0.7643  0.4723 -0.5123
  762MOL0     H 5127  10.139   3.338   6.957  2.7372  0.6821  1.1038
  762MOL0     H 5128  10.192   3.192   7.160  0.7668  0.3396  0.6603
  762MOL0     H 5129  10.332   3.138   7.058  0.9699  1.9446 -2.4495
  762MOL0     H 5130  10.259   3.430   7.106 -1.0942 -0.6814  1.6498
  762MOL0     H 5131  10.418   3.367   7.065  1.5914 -3.1211  1.2109
  762MOL0     H 5132  10.262   3.366   7.321  0.9965  2.0304  1.4418
  762MOL0     H 5133  10.412   3.447   7.287  0.8322  0.1445 -3.5296
  762MOL0     H 5134  10.414   3.140   7.290  4.9127 -1.4006 -2.5405
  762MOL0     H 5135  10.451   3.248   7.433 -0.0285 -1.1431  0.2621
  762MOL0     H 5136   9.902   3.451   6.665  0.0147 -1.7351 -4.5364
  762MOL0     H 5137   9.783   3.686   6.713 -1.3571  1.2640 -0.6905
  762MOL0     H 5138   9.633   3.978   6.729  0.5287  0.3771 -0.7985
  762MOL0     H 5139   9.440   4.103   6.749  1.1152 -1.6395 -0.1880
  762MOL0     H 5140   8.348   5.149   5.756 -0.6888 -0.0853  1.3397
  762MOL0     H 5141   8.125   5.079   5.699  1.7808  0.0632  1.8981
  762MOL0     H 5142   7.831   4.920   5.324 -1.3929 -0.0299 -1.6325
  762MOL0     H 5143   7.621   4.842   5.268  1.7974  2.1814 -1.6571
  762MOL0     H 5144   7.197   4.870   5.451  1.3475 -1.2392 -2.1274
  762MOL0     H 5145   7.279   5.000   5.535  1.8936  1.3510 -0.6117
  762MOL0     H 5146   7.267   5.141   5.328 -0.0942 -0.4152 -1.7509
  762MOL0     H 5147   7.104   5.099   5.379 -0.8761 -1.8257  0.1991
  762MOL0     H 5148   7.256   4.943   5.169 -0.3756  0.1207 -2.3865
  762MOL0     H 5149   7.077   4.957   5.180 -0.2723  0.2413 -0.5793
  762MOL0     H 5150   7.057   5.171   5.117 -1.1205 -1.2450  1.7386
  762MOL0     H 5151   7.142   5.072   4.990 -3.1021  2.5207 -1.3721
  762MOL0     H 5152   7.416   5.376   5.053  2.4644 -1.7335  2.5307
  762MOL0     H 5153   7.454   5.136   5.536  2.2723  1.8922  1.9784
  762MOL0     H 5154   7.568   5.213   5.711 -0.6479  0.3607  0.5929
  762MOL0     H 5155   7.740   5.187   5.737  1.2405  0.1217  0.0111
  762MOL0     H 5156   7.697   5.310   5.625 -0.4747 -1.7594 -1.9033
  763MOL0     O 5157   8.467   5.045   2.431 -0.5254  0.2048 -0.3552
  763MOL0     C 5158   8.444   5.047   2.313 -0.0003  0.7835 -0.0704
  763MOL0     O 5159   8.505   4.967   2.223  0.0624 -0.3419 -0.4875
  763MOL0     C 5160   8.613   4.894   2.256 -0.3951 -0.2499  0.0769
  763MOL0     C 5161   8.590   4.758   2.262  0.0975 -0.2588 -0.2157
  763MOL0     C 5162   8.692   4.669   2.311 -0.8842  0.0111  0.4195
  763MOL0     C 5163   8.816   4.728   2.355  0.2015  0.2651  0.2723
  763MOL0     O 5164   8.918   4.646   2.399  0.3315  0.6184 -0.4790
  763MOL0     C 5165   8.957   4.668   2.529  0.6322  0.1690  0.1048
  763MOL0     C 5166   9.005   4.544   2.608 -1.3028  0.4762 -0.0625
  763MOL0     C 5167   9.132   4.482   2.550  0.2967 -0.2314 -0.2205
  763MOL0     C 5168   9.259   4.563   2.586  0.0240  0.9746  0.5267
  763MOL0     C 5169   9.386   4.491   2.547  0.4502  0.5708  1.0601
  763MOL0     C 5170   9.433   4.404   2.663 -0.1268 -1.2788 -0.3743
  763MOL0     C 5171   9.540   4.304   2.623  0.2549  1.4333  0.3598
  763MOL0     C 5172   9.598   4.222   2.741 -0.7317 -0.7920 -1.1282
  763MOL0     N 5173   9.696   4.302   2.817 -0.0715 -1.0297 -0.1011
  763MOL0     C 5174   9.805   4.248   2.887 -0.2053 -0.4104 -0.8309
  763MOL0     C 5175   9.879   4.350   2.941 -0.0667  0.5613 -0.1744
  763MOL0     C 5176  10.023   4.344   2.997  0.8479  0.8082  0.1926
  763MOL0     C 5177  10.042   4.220   3.076  0.7164 -0.2087 -0.3454
  763MOL0     C 5178   9.970   4.210   3.214  0.5127  0.3347  0.8430
  763MOL0     C 5179  10.022   4.100   3.306  0.0218  0.2193  0.7837
  763MOL0     O 5180  10.139   4.150   3.375  0.3370 -0.1394  0.2032
  763MOL0     C 5181  10.207   4.060   3.457  0.0746 -1.3127 -0.3782
  763MOL0     C 5182  10.175   3.924   3.481 -0.5403  0.3732  0.1579
  763MOL0     C 5183  10.253   3.842   3.568 -0.0958  0.9563 -0.8454
  763MOL0     C 5184  10.234   3.690   3.568 -0.1195  0.2526  0.2077
  763MOL0     C 5185  10.370   3.891   3.631  0.2958 -0.6756 -0.7807
  763MOL0     C 5186  10.457   3.815   3.720 -0.5362 -1.0768 -0.1586
  763MOL0     O 5187  10.477   3.678   3.711 -0.5274  0.7221  0.1520
  763MOL0     C 5188  10.576   3.618   3.777 -0.9774 -0.6870 -0.9946
  763MOL0     C 5189  10.709   3.657   3.745  0.6387 -0.0791 -1.1391
  763MOL0     C 5190  10.811   3.594   3.815  0.4812 -0.0201  0.3007
  763MOL0     C 5191  10.786   3.496   3.914 -0.0333  0.0128 -0.8899
  763MOL0     O 5192  10.899   3.444   3.973 -0.8970 -0.1944  0.5782
  763MOL0     C 5193  10.879   3.338   4.063 -0.2716  0.5140  0.2680
  763MOL0     C 5194  11.018   3.292   4.115  0.6133 -0.4953 -0.0024
  763MOL0     C 5195  11.131   3.310   4.010  0.3934  0.1613 -0.1609
  763MOL0     C 5196  11.256   3.229   4.045 -0.3235  0.1423  0.2500
  763MOL0     C 5197  11.350   3.237   3.928 -0.1294  0.0379  0.2023
  763MOL0     C 5198  11.473   3.145   3.958  0.5345 -0.7825  0.6572
  763MOL0     C 5199  11.558   3.136   3.825  0.8958  0.0052 -0.0484
  763MOL0     C 5200  11.673   3.036   3.844 -0.3299 -0.1370  0.1086
  763MOL0    Cl 5201  11.610   2.871   3.834  0.1497 -0.1321  0.1732
  763MOL0     C 5202  10.654   3.459   3.942  0.7830  0.4825  0.2283
  763MOL0     C 5203  10.552   3.512   3.869 -0.2318 -0.0638  1.0660
  763MOL0     O 5204  10.517   3.891   3.803 -0.6158 -0.9240 -0.1989
  763MOL0     C 5205  10.399   4.029   3.606 -0.1882  0.0875  0.3794
  763MOL0     C 5206  10.322   4.109   3.523 -0.2949 -0.5784  0.9145
  763MOL0     N 5207   9.806   4.465   2.907  0.4236  0.0091 -0.0984
  763MOL0     N 5208   9.700   4.436   2.837 -0.9556 -0.1067 -0.0548
  763MOL0     C 5209   8.841   4.864   2.330 -0.0616 -0.2421 -0.2911
  763MOL0     C 5210   8.738   4.944   2.288  0.8884 -0.8867  0.7734
  763MOL0     C 5211   8.342   5.146   2.269  0.7884 -0.2043  0.3403
  763MOL0     C 5212   8.297   5.244   2.355 -0.0037  0.5367  0.4133
  763MOL0     C 5213   8.193   5.326   2.316 -0.5408  0.6865 -0.0474
  763MOL0     C 5214   8.124   5.326   2.193 -0.6603  0.7531 -0.4212
  763MOL0     O 5215   8.029   5.412   2.142 -0.1225  0.2269  0.3188
  763MOL0     C 5216   7.951   5.502   2.221 -1.1991  0.0394 -0.0812
  763MOL0     C 5217   8.027   5.621   2.260 -0.2210  0.2267  0.1397
  763MOL0     C 5218   8.136   5.668   2.154  0.1070 -0.5334 -0.5691
  763MOL0     C 5219   8.203   5.800   2.193  0.6880  0.0023 -0.0836
  763MOL0     C 5220   8.099   5.908   2.200  0.6735 -0.5696 -0.3691
  763MOL0     C 5221   8.013   5.996   2.190  0.5330 -0.3764  0.1582
  763MOL0     C 5222   8.171   5.230   2.105  0.8481 -0.1132  0.1376
  763MOL0     C 5223   8.275   5.142   2.138  0.2199  1.3625  0.0270
  763MOL0     C 5224   8.296   5.040   2.034  0.6418 -0.0628  0.1638
  763MOL0     H 5225   8.496   4.714   2.231  0.2667 -1.3333  0.7221
  763MOL0     H 5226   8.677   4.563   2.328  3.4756 -0.9827 -0.7518
  763MOL0     H 5227   8.867   4.702   2.581 -0.6678 -4.7738  1.6128
  763MOL0     H 5228   9.029   4.749   2.534  0.0363  1.2893 -4.6206
  763MOL0     H 5229   9.021   4.558   2.715  2.3176  0.5413 -0.4718
  763MOL0     H 5230   8.925   4.471   2.595 -0.1529 -0.9626  0.7576
  763MOL0     H 5231   9.144   4.377   2.578 -1.1908 -0.4174 -0.1975
  763MOL0     H 5232   9.130   4.483   2.440 -1.2552 -2.2060 -0.2558
  763MOL0     H 5233   9.249   4.656   2.529 -0.7657  0.1425 -0.7792
  763MOL0     H 5234   9.266   4.587   2.692  3.4850 -0.5437  0.7688
  763MOL0     H 5235   9.459   4.564   2.511 -1.2728  2.4724  1.2453
  763MOL0     H 5236   9.370   4.433   2.456 -1.1835 -2.0932  2.8724
  763MOL0     H 5237   9.457   4.467   2.749 -0.7758  0.0829 -1.1520
  763MOL0     H 5238   9.348   4.348   2.701 -0.0570 -0.1677  1.5719
  763MOL0     H 5239   9.618   4.357   2.568  2.9841 -1.6425  1.0249
  763MOL0     H 5240   9.487   4.232   2.560 -1.3654  0.9295  2.1801
  763MOL0     H 5241   9.524   4.184   2.812 -0.4886 -1.1472 -1.0631
  763MOL0     H 5242   9.641   4.132   2.696 -1.0741  0.1766 -3.5415
  763MOL0     H 5243   9.838   4.145   2.886  0.6660 -0.1668 -2.9152
  763MOL0     H 5244  10.046   4.437   3.050  0.4808  0.9472  0.1148
  763MOL0     H 5245  10.088   4.335   2.910 -0.7682 -1.8600 -0.8759
  763MOL0     H 5246  10.001   4.138   3.017  3.2024 -0.3483 -2.0394
  763MOL0     H 5247  10.150   4.213   3.095  0.4498  1.2860  2.1602
  763MOL0     H 5248   9.975   4.307   3.263 -1.3114  1.7681 -1.6070
  763MOL0     H 5249   9.862   4.196   3.208  0.6411 -0.4975 -4.6338
  763MOL0     H 5250   9.945   4.072   3.379 -0.5242 -4.0816 -1.1665
  763MOL0     H 5251  10.039   4.008   3.250 -4.0784 -0.1956 -0.1151
  763MOL0     H 5252  10.095   3.876   3.426  0.4486 -0.0996 -0.9086
  763MOL0     H 5253  10.315   3.644   3.511 -1.1943 -0.5669 -0.7040
  763MOL0     H 5254  10.143   3.656   3.517  0.9830 -1.3848 -0.7493
  763MOL0     H 5255  10.235   3.641   3.666  0.4619 -0.1296  0.0171
  763MOL0     H 5256  10.734   3.747   3.690 -1.9531  2.1059  1.0112
  763MOL0     H 5257  10.909   3.631   3.786  0.2950  0.2718  0.0419
  763MOL0     H 5258  10.826   3.367   4.153 -0.3334  1.8596 -0.1918
  763MOL0     H 5259  10.828   3.253   4.017  1.7226 -0.7173  0.1775
  763MOL0     H 5260  11.046   3.362   4.194 -1.0360  1.1479 -0.7811
  763MOL0     H 5261  11.018   3.194   4.163  1.4964 -1.8422 -2.5451
  763MOL0     H 5262  11.152   3.416   4.002  3.0699 -0.1987  1.1350
  763MOL0     H 5263  11.096   3.272   3.913 -2.8792 -0.1757  1.0063
  763MOL0     H 5264  11.238   3.122   4.059  1.5543 -0.0255  1.7417
  763MOL0     H 5265  11.302   3.267   4.137 -0.2991  0.6167  0.0448
  763MOL0     H 5266  11.299   3.197   3.840 -1.3808 -1.3992  1.5112
  763MOL0     H 5267  11.373   3.343   3.919 -4.0304  1.1807  1.7064
  763MOL0     H 5268  11.436   3.045   3.981  0.1321  0.0022  3.8710
  763MOL0     H 5269  11.533   3.174   4.044 -0.6816 -1.2926  1.7049
  763MOL0     H 5270  11.586   3.238   3.795 -1.9051  0.1444 -2.7733
  763MOL0     H 5271  11.497   3.111   3.737  0.1550 -0.8327  0.6852
  763MOL0     H 5272  11.719   3.045   3.943  0.0260 -0.0418 -0.0649
  763MOL0     H 5273  11.750   3.052   3.768  1.4263 -2.3063  1.3073
  763MOL0     H 5274  10.623   3.391   4.020  0.9303  0.1203 -0.0268
  763MOL0     H 5275  10.455   3.465   3.877  0.0087 -0.8162 -0.1185
  763MOL0     H 5276  10.489   4.078   3.641 -1.5905  1.4428  2.2784
  763MOL0     H 5277  10.347   4.212   3.502 -0.1265 -0.9413 -0.7611
  763MOL0     H 5278   8.939   4.900   2.358 -0.6054 -0.6364  2.4259
  763MOL0     H 5279   8.757   5.050   2.279 -1.1235 -0.5362  0.2581
  763MOL0     H 5280   8.337   5.248   2.455 -1.0930  0.3831  0.8700
  763MOL0     H 5281   8.173   5.407   2.385 -0.7739  1.6294 -1.1898
  763MOL0     H 5282   7.862   5.526   2.162 -0.0592  1.0109 -1.4579
  763MOL0     H 5283   7.912   5.451   2.309  0.0014  0.4393  0.7032
  763MOL0     H 5284   8.077   5.598   2.355 -0.2585 -3.1119 -0.5407
  763MOL0     H 5285   7.955   5.700   2.285 -1.9475 -1.6237  1.3667
  763MOL0     H 5286   8.221   5.598   2.155  0.7496  0.1057 -3.2107
  763MOL0     H 5287   8.095   5.680   2.054 -2.0963  1.0389  0.4536
  763MOL0     H 5288   8.278   5.834   2.122 -0.8401 -1.1242 -2.3564
  763MOL0     H 5289   8.257   5.786   2.288  1.1059 -0.0700 -0.3305
  763MOL0     H 5290   7.924   6.055   2.186  0.5384 -0.4040 -2.3361
  763MOL0     H 5291   8.133   5.226   2.004 -0.3459 -1.8501  0.6118
  763MOL0     H 5292   8.225   5.036   1.951  0.1077  1.0758  0.5375
  763MOL0     H 5293   8.401   5.038   2.005  0.4884  0.3273 -0.4349
  763MOL0     H 5294   8.297   4.947   2.092 -0.0517 -0.1024  0.1263
  764MOL0     O 5295   0.180   5.819  10.435 -0.7442 -0.3912 -0.1795
  764MOL0     C 5296   0.118   5.793  10.540 -0.3734 -0.0623 -0.6708
  764MOL0     O 5297   0.158   5.711  10.639 -0.5482 -0.1035 -0.4894
  764MOL0     C 5298   0.297   5.711  10.649 -0.9478 -0.4401  0.3767
  764MOL0     C 5299   0.374   5.616  10.575 -0.1240 -0.0626 -0.1534
  764MOL0     C 5300   0.515   5.627  10.560 -0.1517  0.4017 -0.1233
  764MOL0     C 5301   0.581   5.736  10.617  0.3392 -0.2036  0.4712
  764MOL0     O 5302   0.720   5.751  10.606 -0.2325 -0.4004 -0.4643
  764MOL0     C 5303   0.780   5.706  10.483 -0.5963  0.9191 -0.0886
  764MOL0     C 5304   0.904   5.608  10.512  0.5159 -0.4271  0.3269
  764MOL0     C 5305   1.035   5.687  10.549  0.0305  1.0565  0.4783
  764MOL0     C 5306   1.133   5.585  10.612 -0.3206 -1.1577  0.2661
  764MOL0     C 5307   1.279   5.639  10.635  0.7952  0.6854  0.2667
  764MOL0     C 5308   1.347   5.704  10.515  0.1378 -0.0982 -0.1981
  764MOL0     C 5309   1.485   5.752  10.534  0.6758 -0.0871  0.4182
  764MOL0     C 5310   1.590   5.639  10.527 -0.9104  0.1646  0.1041
  764MOL0     N 5311   1.729   5.691  10.567  0.0428  0.6029 -0.3213
  764MOL0     C 5312   1.783   5.730  10.687  1.4546  0.1877 -0.6086
  764MOL0     C 5313   1.916   5.738  10.673  0.1398  0.0889  0.3116
  764MOL0     C 5314   2.004   5.790  10.788 -0.4123  0.2194  0.1036
  764MOL0     C 5315   2.099   5.676  10.833  0.9371 -0.1435 -0.2014
  764MOL0     C 5316   2.174   5.732  10.960 -0.6018  0.4570  0.3399
  764MOL0     C 5317   2.270   5.623  11.019  0.2367  0.0787 -0.3721
  764MOL0     O 5318   2.381   5.604  10.935 -0.0435 -0.3705  0.1192
  764MOL0     C 5319   2.484   5.690  10.922  0.4465 -0.6543 -0.1089
  764MOL0     C 5320   2.574   5.671  10.822 -0.0412 -0.4803  0.5734
  764MOL0     C 5321   2.683   5.752  10.799 -0.0666  0.1836 -1.1579
  764MOL0     C 5322   2.759   5.729  10.678 -0.3636  0.2906 -1.3510
  764MOL0     C 5323   2.707   5.852  10.902 -0.0079 -0.4375  0.4220
  764MOL0     C 5324   2.825   5.950  10.889  0.3578 -0.8568 -0.6262
  764MOL0     O 5325   2.844   6.023  10.998 -0.5625 -0.4997 -0.2040
  764MOL0     C 5326   2.978   6.069  11.021 -0.0062 -0.1891 -0.8941
  764MOL0     C 5327   3.086   5.994  10.986  0.4183 -0.3134 -0.0172
  764MOL0     C 5328   3.216   6.049  11.014 -0.3961  0.1443  1.0047
  764MOL0     C 5329   3.231   6.167  11.094 -0.6406  0.2897  0.1911
  764MOL0     O 5330   3.359   6.217  11.111 -0.3995 -0.1006 -0.4353
  764MOL0     C 5331   3.377   6.348  11.184  0.8871 -0.2671 -0.0230
  764MOL0     C 5332   3.517   6.408  11.167 -0.3284  0.0630  0.0840
  764MOL0     C 5333   3.625   6.319  11.244 -0.8348 -0.1257  0.4028
  764MOL0     C 5334   3.767   6.397  11.252  0.0424 -0.2433  0.6676
  764MOL0     C 5335   3.878   6.295  11.287  0.2045  0.2476  0.3060
  764MOL0     C 5336   4.009   6.366  11.326 -1.0561 -0.0310 -0.8182
  764MOL0     C 5337   4.059   6.460  11.215 -0.1025 -0.0273 -0.5583
  764MOL0     C 5338   4.208   6.472  11.222  0.3654 -0.2011 -0.0601
  764MOL0    Cl 5339   4.268   6.555  11.076 -0.2423  0.6039 -0.0909
  764MOL0     C 5340   3.115   6.219  11.145  0.4273 -0.2064 -0.0974
  764MOL0     C 5341   2.988   6.175  11.110 -0.7102 -0.0973 -0.6397
  764MOL0     O 5342   2.880   5.967  10.785 -0.3909  1.1506  0.9100
  764MOL0     C 5343   2.618   5.882  11.004  0.4603 -0.1459  0.3266
  764MOL0     C 5344   2.506   5.800  11.016 -0.4373 -0.3785 -1.0800
  764MOL0     N 5345   1.955   5.702  10.542  0.0894  0.1986  0.4917
  764MOL0     N 5346   1.836   5.672  10.483 -0.3943 -0.1220 -0.1546
  764MOL0     C 5347   0.506   5.829  10.690  0.0281  0.5206  0.0251
  764MOL0     C 5348   0.368   5.822  10.704 -0.4823  1.4221  0.2162
  764MOL0     C 5349  -0.017   5.837  10.561  0.9821 -1.0087 -1.1086
  764MOL0     C 5350  -0.108   5.766  10.640 -0.1860  0.3598 -0.7492
  764MOL0     C 5351  -0.235   5.814  10.665 -0.2773  0.4511 -0.6777
  764MOL0     C 5352  -0.280   5.939  10.618 -0.6300  0.5019 -0.2718
  764MOL0     O 5353  -0.409   5.970  10.647  0.1750 -0.2509  1.2913
  764MOL0     C 5354  -0.477   6.082  10.596  0.0650  0.7254 -0.0638
  764MOL0     C 5355  -0.619   6.109  10.634 -0.2238  0.3061 -0.3041
  764MOL0     C 5356  -0.730   6.030  10.560 -0.0137  0.4288  1.1775
  764MOL0     C 5357  -0.748   5.889  10.606  0.1729 -0.0572  0.3150
  764MOL0     C 5358  -0.855   5.828  10.528 -0.0484  0.7490 -0.4135
  764MOL0     C 5359  -0.951   5.777  10.473  0.1477  0.4356  0.7738
  764MOL0     C 5360  -0.199   6.012  10.534 -0.3359  0.1270  0.2084
  764MOL0     C 5361  -0.072   5.964  10.502 -0.6994 -0.4090  0.3944
  764MOL0     C 5362   0.005   6.051  10.407 -0.2177 -0.8042  0.1764
  764MOL0     H 5363   0.319   5.530  10.540 -1.4449 -0.2243  2.1558
  764MOL0     H 5364   0.571   5.554  10.503 -0.0413 -1.4775  2.2382
  764MOL0     H 5365   0.806   5.800  10.434 -0.7602  1.3542  0.6449
  764MOL0     H 5366   0.713   5.656  10.413  0.7288  1.5796 -1.9206
  764MOL0     H 5367   0.879   5.538  10.592 -0.6221 -1.3332 -0.7914
  764MOL0     H 5368   0.914   5.559  10.415  0.8197 -0.0180  0.1447
  764MOL0     H 5369   1.080   5.736  10.462  0.1283 -2.4005 -1.6065
  764MOL0     H 5370   1.006   5.761  10.624 -1.6274  0.6673  0.2515
  764MOL0     H 5371   1.096   5.552  10.709 -1.3543  1.1137  0.6955
  764MOL0     H 5372   1.146   5.496  10.549  0.4593 -0.7146 -0.2198
  764MOL0     H 5373   1.341   5.568  10.691 -3.9158 -2.7303  1.8521
  764MOL0     H 5374   1.251   5.715  10.709  1.1356 -0.6421  1.8447
  764MOL0     H 5375   1.342   5.640  10.426  1.3542 -0.9251  0.3011
  764MOL0     H 5376   1.290   5.797  10.505  0.2721  0.6095  3.8086
  764MOL0     H 5377   1.496   5.794  10.635  1.3728 -1.9025  1.1590
  764MOL0     H 5378   1.509   5.833  10.466 -0.8459  0.4356  0.4547
  764MOL0     H 5379   1.558   5.560  10.595  0.0403 -0.1797  0.1623
  764MOL0     H 5380   1.609   5.583  10.435  0.6565 -0.4694  0.7811
  764MOL0     H 5381   1.728   5.749  10.779  0.4792  3.1422 -1.7066
  764MOL0     H 5382   1.939   5.820  10.871  0.9876  0.8780  1.0236
  764MOL0     H 5383   2.069   5.867  10.746  0.9578 -0.8824  0.1210
  764MOL0     H 5384   2.037   5.594  10.871  0.0849 -0.4869 -2.2075
  764MOL0     H 5385   2.166   5.643  10.753  1.5718 -1.5055  0.8373
  764MOL0     H 5386   2.234   5.819  10.932  1.6649 -1.0880  0.1746
  764MOL0     H 5387   2.104   5.761  11.039 -1.0486 -2.1818  0.9948
  764MOL0     H 5388   2.298   5.652  11.120 -2.7936 -0.8781  0.8815
  764MOL0     H 5389   2.217   5.528  11.033 -1.3117  1.2120  2.0305
  764MOL0     H 5390   2.559   5.589  10.752  1.3096  0.7456 -1.2491
  764MOL0     H 5391   2.866   5.747  10.695 -0.4492  0.2775 -0.7975
  764MOL0     H 5392   2.736   5.809  10.606  0.8546  0.6090 -1.4169
  764MOL0     H 5393   2.752   5.627  10.640 -1.1386 -2.0806  4.2548
  764MOL0     H 5394   3.079   5.907  10.921  0.7325 -1.0143  0.8787
  764MOL0     H 5395   3.304   6.009  10.965 -1.6449 -1.1500 -0.2711
  764MOL0     H 5396   3.305   6.420  11.145  1.0779  0.0576  0.2159
  764MOL0     H 5397   3.353   6.332  11.289 -0.3917 -0.8549 -0.3797
  764MOL0     H 5398   3.543   6.409  11.060  1.1665  4.3180  0.2725
  764MOL0     H 5399   3.515   6.512  11.201  1.4996  0.1428  0.0832
  764MOL0     H 5400   3.643   6.220  11.199 -1.9530 -0.6817  1.1379
  764MOL0     H 5401   3.589   6.292  11.344  1.6252 -2.3104  0.8230
  764MOL0     H 5402   3.769   6.479  11.323 -2.7226 -2.8040  4.0768
  764MOL0     H 5403   3.769   6.440  11.151 -1.2682  1.1794  1.2107
  764MOL0     H 5404   3.842   6.247  11.378  0.5387 -3.0146 -1.1563
  764MOL0     H 5405   3.896   6.228  11.203  0.7185  1.4863 -0.6119
  764MOL0     H 5406   4.088   6.294  11.352 -0.0245  1.1183 -0.6441
  764MOL0     H 5407   3.998   6.431  11.413  0.9572 -0.1281 -0.4311
  764MOL0     H 5408   4.013   6.556  11.235  0.7665 -0.2403  3.2706
  764MOL0     H 5409   4.035   6.424  11.114  3.8329  3.6581 -3.1635
  764MOL0     H 5410   4.262   6.376  11.226 -0.9196 -0.9423 -0.0091
  764MOL0     H 5411   4.224   6.533  11.311 -0.6448  1.6974 -1.1304
  764MOL0     H 5412   3.113   6.307  11.208  0.8547 -2.3401  3.1350
  764MOL0     H 5413   2.896   6.221  11.142 -1.5417 -1.2411 -1.3191
  764MOL0     H 5414   2.634   5.970  11.065 -0.8631 -0.6130  1.4087
  764MOL0     H 5415   2.447   5.831  11.101  1.3092  0.9658 -0.2894
  764MOL0     H 5416   0.548   5.917  10.738 -1.4124  0.1037  2.1676
  764MOL0     H 5417   0.313   5.900  10.755 -0.1528  0.1970  2.5703
  764MOL0     H 5418  -0.075   5.674  10.687 -2.8195 -1.2868 -1.8838
  764MOL0     H 5419  -0.296   5.750  10.728  0.3609 -2.0296 -2.4253
  764MOL0     H 5420  -0.413   6.158  10.642  4.5855 -1.4399 -2.1916
  764MOL0     H 5421  -0.468   6.080  10.487  0.7295 -1.8057 -0.0022
  764MOL0     H 5422  -0.631   6.214  10.608  1.3199  0.2921 -1.1487
  764MOL0     H 5423  -0.629   6.108  10.743  0.2489  0.5841 -0.2587
  764MOL0     H 5424  -0.818   6.094  10.578 -0.6698 -0.6310  1.8417
  764MOL0     H 5425  -0.713   6.048  10.454  0.4429  2.9928  1.6237
  764MOL0     H 5426  -0.763   5.885  10.714 -0.6145  0.7144  0.2473
  764MOL0     H 5427  -0.658   5.838  10.571 -0.2663 -1.3584  1.0558
  764MOL0     H 5428  -1.026   5.729  10.412  1.7856  0.2196 -1.1910
  764MOL0     H 5429  -0.237   6.101  10.485  0.4924 -0.6606 -1.9761
  764MOL0     H 5430  -0.016   6.022  10.304 -1.5411 -1.6297  0.6585
  764MOL0     H 5431  -0.019   6.157  10.424 -0.6209 -0.4192 -2.4743
  764MOL0     H 5432   0.112   6.057  10.429  0.1114  0.3730 -1.4978
  765MOL0     O 5433   2.895   5.136   2.940 -0.0250  0.0519 -0.0636
  765MOL0     C 5434   2.859   5.050   2.857 -0.6036 -0.3884 -0.3699
  765MOL0     O 5435   2.948   5.007   2.761  0.2708 -0.5692  0.2006
  765MOL0     C 5436   3.075   5.044   2.768 -0.1744  0.0660  0.5447
  765MOL0     C 5437   3.105   5.175   2.725 -0.1847  0.5561  0.3527
  765MOL0     C 5438   3.237   5.218   2.751  0.4349 -0.3661 -0.3955
  765MOL0     C 5439   3.337   5.133   2.800 -0.5919 -0.3830  0.0203
  765MOL0     O 5440   3.455   5.197   2.837  0.2332 -0.3445  0.4862
  765MOL0     C 5441   3.542   5.133   2.917  0.0216  0.1041 -0.5584
  765MOL0     C 5442   3.652   5.221   2.977 -0.5523 -0.5541  0.5581
  765MOL0     C 5443   3.738   5.275   2.861 -0.0884  0.2525 -0.8392
  765MOL0     C 5444   3.828   5.387   2.923  0.4244  0.1656 -0.5255
  765MOL0     C 5445   3.949   5.427   2.833 -0.3205  0.8401 -0.1766
  765MOL0     C 5446   4.013   5.555   2.879 -0.5130  0.5263  0.2449
  765MOL0     C 5447   4.149   5.550   2.802  0.9848 -0.4121  0.0045
  765MOL0     C 5448   4.201   5.694   2.795 -0.7867  0.4748  0.1216
  765MOL0     N 5449   4.337   5.691   2.739 -0.0622  0.2031  1.1963
  765MOL0     C 5450   4.419   5.581   2.739 -0.1496 -0.4110 -0.2512
  765MOL0     C 5451   4.521   5.611   2.658 -0.1963 -0.3300 -0.6947
  765MOL0     C 5452   4.653   5.551   2.648  0.2401 -0.3740 -0.3689
  765MOL0     C 5453   4.651   5.459   2.519 -0.2212 -0.0942 -0.4789
  765MOL0     C 5454   4.787   5.457   2.443  0.4033 -0.4165 -0.4633
  765MOL0     C 5455   4.896   5.387   2.529 -0.6360 -0.5017 -0.1243
  765MOL0     O 5456   5.023   5.413   2.468 -0.1789  0.4140  0.1157
  765MOL0     C 5457   5.140   5.387   2.540  0.0424  0.0605  0.4927
  765MOL0     C 5458   5.147   5.352   2.677 -0.4456  0.4616  0.4323
  765MOL0     C 5459   5.271   5.320   2.739  0.2238  0.7635 -0.3468
  765MOL0     C 5460   5.277   5.295   2.889 -0.2151 -0.5115  0.8173
  765MOL0     C 5461   5.386   5.320   2.659  0.4650  1.0542 -0.0100
  765MOL0     C 5462   5.522   5.278   2.714  0.1454 -0.4660  0.0432
  765MOL0     O 5463   5.632   5.322   2.637 -0.6235 -0.1569  0.1138
  765MOL0     C 5464   5.757   5.296   2.677 -0.1569  0.7013 -0.4798
  765MOL0     C 5465   5.797   5.161   2.673 -0.1965 -0.3814 -0.1234
  765MOL0     C 5466   5.911   5.128   2.745  0.0039  0.8980 -0.6644
  765MOL0     C 5467   5.997   5.224   2.799  0.6266  0.8224 -0.2757
  765MOL0     O 5468   6.108   5.182   2.871 -0.0512  0.7290  0.1729
  765MOL0     C 5469   6.196   5.272   2.949 -0.6662  0.0892 -0.3265
  765MOL0     C 5470   6.321   5.199   3.001 -0.6843  0.3785  0.0136
  765MOL0     C 5471   6.445   5.287   3.018  0.4399 -0.2302 -0.8872
  765MOL0     C 5472   6.427   5.404   3.119  0.5125  0.5342 -0.1379
  765MOL0     C 5473   6.556   5.481   3.127 -0.1304 -0.4519 -0.6975
  765MOL0     C 5474   6.628   5.466   3.268 -0.2703 -1.2295  0.0159
  765MOL0     C 5475   6.751   5.556   3.275 -0.6191  0.2397  0.1536
  765MOL0     C 5476   6.731   5.695   3.231 -0.0969  0.1120 -0.2389
  765MOL0    Cl 5477   6.596   5.771   3.316  0.0345 -0.0048  0.7487
  765MOL0     C 5478   5.959   5.358   2.789 -0.5846  0.8589 -0.4391
  765MOL0     C 5479   5.838   5.392   2.737 -0.4494 -0.8679  0.0675
  765MOL0     O 5480   5.529   5.202   2.807 -0.6190 -0.2093 -0.5370
  765MOL0     C 5481   5.378   5.358   2.521 -0.0096 -0.2480  0.3461
  765MOL0     C 5482   5.255   5.396   2.463  0.4710 -0.3884 -0.2255
  765MOL0     N 5483   4.488   5.725   2.588 -0.2219 -0.4362 -0.1985
  765MOL0     N 5484   4.376   5.768   2.638  0.2663 -0.5467  0.5266
  765MOL0     C 5485   3.307   4.998   2.817  0.1646  0.1058 -0.0140
  765MOL0     C 5486   3.171   4.955   2.812 -0.1391 -0.5564  0.3270
  765MOL0     C 5487   2.719   5.002   2.855  0.4557  0.0429  0.4514
  765MOL0     C 5488   2.697   4.886   2.776 -0.1286 -0.1774  0.1687
  765MOL0     C 5489   2.560   4.847   2.757 -0.2960  0.3424 -0.9623
  765MOL0     C 5490   2.454   4.898   2.825  0.4852  0.3101  0.0872
  765MOL0     O 5491   2.327   4.846   2.817  0.3848  0.3082 -0.1093
  765MOL0     C 5492   2.224   4.872   2.913 -0.5537  0.9234  0.0382
  765MOL0     C 5493   2.116   4.770   2.902 -0.1983 -0.6417  0.0180
  765MOL0     C 5494   2.015   4.780   3.010  0.1871  0.1659  0.1835
  765MOL0     C 5495   2.051   4.756   3.155  0.9812 -0.0097  0.4366
  765MOL0     C 5496   1.927   4.720   3.234 -0.0546  0.4556  0.8205
  765MOL0     C 5497   1.844   4.678   3.308 -0.7992 -0.6902  0.3438
  765MOL0     C 5498   2.485   5.006   2.914  0.0636  0.0479  0.1371
  765MOL0     C 5499   2.613   5.062   2.921 -0.1320  0.0417  0.2936
  765MOL0     C 5500   2.618   5.200   2.993 -0.1727 -0.4193  0.5755
  765MOL0     H 5501   3.032   5.245   2.687 -1.9197 -0.5965  1.4043
  765MOL0     H 5502   3.248   5.326   2.759 -1.9145 -0.1659  0.9829
  765MOL0     H 5503   3.594   5.057   2.858 -0.0591 -2.7570  2.7475
  765MOL0     H 5504   3.490   5.096   3.006  1.2110 -0.0809  0.0764
  765MOL0     H 5505   3.604   5.304   3.030  1.8097 -0.2700  2.4074
  765MOL0     H 5506   3.714   5.172   3.053 -0.8010  0.2766  1.3149
  765MOL0     H 5507   3.803   5.202   2.810  2.0071  3.0389 -2.4772
  765MOL0     H 5508   3.686   5.313   2.773 -1.1874 -2.9567 -1.7225
  765MOL0     H 5509   3.761   5.473   2.934 -0.4286 -0.2771 -1.9677
  765MOL0     H 5510   3.880   5.356   3.014  0.7122 -0.4078 -0.8821
  765MOL0     H 5511   3.911   5.439   2.731  1.1234 -3.5540 -1.4389
  765MOL0     H 5512   4.013   5.338   2.839 -0.4947  0.7884  3.9814
  765MOL0     H 5513   3.941   5.635   2.859 -1.5960 -0.3895  0.3862
  765MOL0     H 5514   4.036   5.554   2.986  0.8340  0.5568 -0.0276
  765MOL0     H 5515   4.140   5.514   2.699 -1.6719 -1.1676  0.4174
  765MOL0     H 5516   4.212   5.483   2.860  1.8087  0.4586  0.1495
  765MOL0     H 5517   4.139   5.760   2.734  0.3799  0.5761 -0.9956
  765MOL0     H 5518   4.203   5.738   2.895  2.3557  1.1097 -0.1290
  765MOL0     H 5519   4.406   5.491   2.798 -4.2270 -0.8002 -1.4340
  765MOL0     H 5520   4.671   5.489   2.736  1.9438  0.1523 -0.3197
  765MOL0     H 5521   4.733   5.625   2.642 -1.2947  1.6626  2.2349
  765MOL0     H 5522   4.619   5.361   2.554  3.8271 -1.6855 -0.6807
  765MOL0     H 5523   4.572   5.492   2.451 -1.7692  0.5865  1.5357
  765MOL0     H 5524   4.765   5.394   2.357  1.4340 -0.7078 -0.5330
  765MOL0     H 5525   4.807   5.558   2.405  0.5907  0.6185  2.1586
  765MOL0     H 5526   4.886   5.414   2.635  1.4387 -3.6308  0.9857
  765MOL0     H 5527   4.879   5.279   2.526 -0.0675 -0.6758  1.7629
  765MOL0     H 5528   5.055   5.362   2.735 -0.7762 -0.1064  0.0057
  765MOL0     H 5529   5.180   5.301   2.941 -2.5907  2.4752 -3.3622
  765MOL0     H 5530   5.340   5.373   2.932  0.5876  1.8744 -4.0282
  765MOL0     H 5531   5.319   5.197   2.911 -0.7198 -0.2930  2.9894
  765MOL0     H 5532   5.743   5.082   2.621  0.2413  0.4192 -1.8633
  765MOL0     H 5533   5.950   5.027   2.743  2.5162  1.6988  1.6403
  765MOL0     H 5534   6.225   5.356   2.885 -0.0659  1.0536  1.1290
  765MOL0     H 5535   6.147   5.324   3.033  0.6718 -0.3071  0.7386
  765MOL0     H 5536   6.289   5.158   3.098 -3.3516  1.0121 -0.5155
  765MOL0     H 5537   6.345   5.106   2.949 -3.2936 -1.6055  2.0312
  765MOL0     H 5538   6.471   5.329   2.920  0.2387  3.2122  0.4104
  765MOL0     H 5539   6.515   5.207   3.043  2.4096  1.6679 -0.0368
  765MOL0     H 5540   6.392   5.365   3.215  0.0491 -1.5538 -1.0798
  765MOL0     H 5541   6.350   5.472   3.083 -0.9263  0.4801  2.5829
  765MOL0     H 5542   6.616   5.476   3.036  0.9404  1.7080 -0.1724
  765MOL0     H 5543   6.531   5.587   3.134  2.6631  0.2449 -0.0466
  765MOL0     H 5544   6.653   5.361   3.284  3.8959 -0.0323  3.2173
  765MOL0     H 5545   6.553   5.488   3.345 -2.9676 -0.9840 -2.4946
  765MOL0     H 5546   6.830   5.503   3.222  0.6320 -3.0071  4.6744
  765MOL0     H 5547   6.791   5.561   3.377  3.8727  2.7443 -1.4809
  765MOL0     H 5548   6.728   5.701   3.122 -1.5661 -1.0967 -0.2990
  765MOL0     H 5549   6.824   5.747   3.258  0.5691 -0.1269 -1.9622
  765MOL0     H 5550   6.027   5.436   2.822  3.7192 -2.3533 -0.7922
  765MOL0     H 5551   5.811   5.495   2.757  0.6847 -1.1176  3.8317
  765MOL0     H 5552   5.474   5.362   2.472 -0.4951  0.0302 -0.6268
  765MOL0     H 5553   5.238   5.424   2.359 -1.3099  3.7850  0.9694
  765MOL0     H 5554   3.367   4.927   2.873  0.9945  0.7684 -0.0409
  765MOL0     H 5555   3.150   4.860   2.861 -0.5094 -0.4648  0.3537
  765MOL0     H 5556   2.768   4.825   2.721 -1.4359 -0.3891 -1.3487
  765MOL0     H 5557   2.543   4.769   2.684 -0.7567  0.8451 -1.4088
  765MOL0     H 5558   2.253   4.870   3.019 -1.5766 -0.6890  0.3360
  765MOL0     H 5559   2.187   4.973   2.894 -0.1102  1.0237 -0.3223
  765MOL0     H 5560   2.166   4.673   2.906  2.8940  0.8592  0.3056
  765MOL0     H 5561   2.067   4.791   2.806  2.2194  3.8287 -0.5329
  765MOL0     H 5562   1.975   4.882   2.999  0.5401  0.0612 -3.6285
  765MOL0     H 5563   1.941   4.704   2.985  0.1698  0.1118  0.4013
  765MOL0     H 5564   2.096   4.848   3.196  1.8629 -1.3344  2.6403
  765MOL0     H 5565   2.120   4.674   3.173  1.9787  0.6869 -0.1406
  765MOL0     H 5566   1.780   4.646   3.388  2.4995 -0.2847  3.3646
  765MOL0     H 5567   2.405   5.044   2.977  0.5658 -0.9079  1.3902
  765MOL0     H 5568   2.674   5.196   3.087  2.4778 -0.4625 -0.8969
  765MOL0     H 5569   2.661   5.275   2.926 -0.3493 -1.1601 -0.3931
  765MOL0     H 5570   2.517   5.235   3.015 -0.1204 -0.5584  1.0466
  766MOL0     O 5571   9.498   3.494  10.663 -0.2756 -0.8311 -0.7005
  766MOL0     C 5572   9.434   3.396  10.706 -0.6232 -0.2971  0.5478
  766MOL0     O 5573   9.451   3.335  10.825  0.9482  0.5253  0.0157
  766MOL0     C 5574   9.553   3.382  10.907 -0.8124 -0.1909  0.5691
  766MOL0     C 5575   9.685   3.338  10.883  0.5824 -0.1018  0.4369
  766MOL0     C 5576   9.792   3.358  10.968  0.2270 -0.5957  0.2229
  766MOL0     C 5577   9.772   3.422  11.090  0.6712 -0.1401 -0.1457
  766MOL0     O 5578   9.871   3.449  11.179  0.7207 -0.0997 -0.1361
  766MOL0     C 5579   9.998   3.501  11.130  0.5905  0.2835  0.3236
  766MOL0     C 5580   9.991   3.653  11.097  1.2447  0.4459 -0.1279
  766MOL0     C 5581   9.955   3.740  11.226 -0.0246 -0.5177  1.0102
  766MOL0     C 5582  10.082   3.769  11.306  0.3362  0.0156  0.0615
  766MOL0     C 5583  10.061   3.890  11.392  0.0174  0.1950 -0.3176
  766MOL0     C 5584  10.183   3.946  11.470  0.6472  0.1741 -0.1482
  766MOL0     C 5585  10.304   3.958  11.391 -0.7782  0.0164 -0.1479
  766MOL0     C 5586  10.422   4.015  11.470 -0.2364 -0.1664 -0.0595
  766MOL0     N 5587  10.542   4.021  11.385  0.0477 -0.2895 -0.0584
  766MOL0     C 5588  10.654   4.091  11.424  0.6701  0.8516  0.5467
  766MOL0     C 5589  10.759   4.043  11.347  0.0300 -0.2041 -0.1343
  766MOL0     C 5590  10.898   4.087  11.374 -0.2469  0.4744  0.2751
  766MOL0     C 5591  10.954   4.184  11.265 -0.0593  0.7982  0.5080
  766MOL0     C 5592  11.104   4.205  11.266  0.3962  0.0220  0.0595
  766MOL0     C 5593  11.149   4.301  11.159  0.4098  1.0682 -0.3696
  766MOL0     O 5594  11.128   4.249  11.027  0.5469  0.8859 -0.0080
  766MOL0     C 5595  11.165   4.319  10.915 -0.2125 -0.2581  0.5683
  766MOL0     C 5596  11.145   4.243  10.797 -0.6567  0.0321  0.8725
  766MOL0     C 5597  11.195   4.282  10.672 -0.1263 -0.1225  0.6702
  766MOL0     C 5598  11.179   4.178  10.567 -0.0398  0.1185 -0.3930
  766MOL0     C 5599  11.251   4.411  10.660 -0.2434  0.0478  0.6838
  766MOL0     C 5600  11.288   4.470  10.523  0.3366  0.0016 -0.7511
  766MOL0     O 5601  11.286   4.394  10.410 -0.7945  0.5880 -0.0150
  766MOL0     C 5602  11.371   4.428  10.300  0.0133  0.2016 -0.0869
  766MOL0     C 5603  11.339   4.400  10.168  0.3333  0.3007 -0.0418
  766MOL0     C 5604  11.429   4.426  10.071  1.1490  0.1408  0.5231
  766MOL0     C 5605  11.558   4.467  10.092 -0.3266  0.9801  0.6040
  766MOL0     O 5606  11.644   4.477   9.989 -0.3686  0.9027  0.0899
  766MOL0     C 5607  11.764   4.554   9.983 -0.0154 -0.8030  0.4576
  766MOL0     C 5608  11.796   4.553   9.826 -0.7752  0.2438  0.5883
  766MOL0     C 5609  11.934   4.620   9.811 -0.2649  0.2239  0.7955
  766MOL0     C 5610  11.998   4.588   9.678  0.4586  0.2905  1.0748
  766MOL0     C 5611  12.134   4.640   9.653 -1.2531  0.2998 -0.4849
  766MOL0     C 5612  12.242   4.559   9.734  0.1930 -0.2959  0.3011
  766MOL0     C 5613  12.387   4.592   9.682  0.1774 -0.5157 -0.4175
  766MOL0     C 5614  12.479   4.480   9.733  0.4370  0.1932 -0.2497
  766MOL0    Cl 5615  12.645   4.539   9.699  0.2910 -0.4186  0.4301
  766MOL0     C 5616  11.598   4.484  10.224 -0.1597 -0.8624  0.2891
  766MOL0     C 5617  11.504   4.457  10.328  0.2353  0.1458 -0.1840
  766MOL0     O 5618  11.318   4.592  10.526  0.4330  0.1783  0.5629
  766MOL0     C 5619  11.260   4.492  10.777  0.4103 -0.3415  0.1886
  766MOL0     C 5620  11.222   4.442  10.909  0.4108 -0.2594  1.5190
  766MOL0     N 5621  10.714   3.951  11.246 -1.4468  0.2245  0.1557
  766MOL0     N 5622  10.586   3.940  11.280 -0.7094  0.7411  0.0922
  766MOL0     C 5623   9.643   3.459  11.122 -0.2582 -0.5516  0.2814
  766MOL0     C 5624   9.532   3.438  11.036 -0.6311 -0.6071  0.3837
  766MOL0     C 5625   9.332   3.346  10.608 -0.3080  0.2432  0.2796
  766MOL0     C 5626   9.300   3.432  10.501 -0.0117 -0.8588  0.0988
  766MOL0     C 5627   9.203   3.394  10.410  0.4140  0.1340 -0.1934
  766MOL0     C 5628   9.128   3.276  10.425  0.5807 -0.7232 -0.0956
  766MOL0     O 5629   9.025   3.239  10.350 -0.0205 -0.1505  0.1592
  766MOL0     C 5630   8.971   3.337  10.258 -0.5094 -0.1616 -0.4705
  766MOL0     C 5631   8.845   3.286  10.200  0.0351 -0.4757 -0.2862
  766MOL0     C 5632   8.754   3.225  10.305  0.4949  0.2321  0.9705
  766MOL0     C 5633   8.634   3.161  10.229 -0.0170  0.4536  0.3659
  766MOL0     C 5634   8.558   3.086  10.332  0.0408 -0.4444  0.3803
  766MOL0     C 5635   8.505   3.008  10.412 -0.1414 -0.2944 -0.0853
  766MOL0     C 5636   9.168   3.189  10.521  0.0745 -0.1308 -0.3754
  766MOL0     C 5637   9.260   3.222  10.618 -0.1934  0.0206  0.1206
  766MOL0     C 5638   9.285   3.118  10.715  0.4993 -0.4094 -0.2942
  766MOL0     H 5639   9.707   3.285  10.791  0.4423  0.9514 -0.2323
  766MOL0     H 5640   9.894   3.330  10.946  0.7512  0.2906  1.4193
  766MOL0     H 5641  10.032   3.443  11.043 -1.1311 -1.5601  0.8088
  766MOL0     H 5642  10.073   3.480  11.206  0.3333 -1.9751  0.0181
  766MOL0     H 5643  10.089   3.679  11.057  1.0698  0.2723 -0.6831
  766MOL0     H 5644   9.911   3.666  11.024  1.1686 -0.9377 -0.3177
  766MOL0     H 5645   9.914   3.836  11.194 -1.8274 -1.7843 -0.7564
  766MOL0     H 5646   9.871   3.704  11.286 -1.1014  1.8552  1.0218
  766MOL0     H 5647  10.111   3.685  11.370 -2.0593 -2.1751 -1.4784
  766MOL0     H 5648  10.162   3.796  11.237  1.3031  0.7904  1.4505
  766MOL0     H 5649   9.990   3.852  11.466  0.5183 -1.2436 -0.5409
  766MOL0     H 5650  10.012   3.974  11.342 -0.8284 -0.8946 -1.3595
  766MOL0     H 5651  10.164   4.046  11.508  1.3428 -0.0083  0.6998
  766MOL0     H 5652  10.201   3.878  11.554 -1.6830 -0.4397 -0.0709
  766MOL0     H 5653  10.286   4.026  11.308  1.5695 -0.6849 -1.3334
  766MOL0     H 5654  10.350   3.867  11.351  1.3578  0.6046  0.7748
  766MOL0     H 5655  10.404   4.116  11.507  2.7376  0.5295 -0.1980
  766MOL0     H 5656  10.445   3.952  11.557  1.9963  0.4544 -0.1397
  766MOL0     H 5657  10.653   4.172  11.496  1.3972  0.3001  1.1905
  766MOL0     H 5658  10.957   3.996  11.361 -2.2609 -0.7216 -1.0305
  766MOL0     H 5659  10.912   4.131  11.473 -1.9606  0.9543  0.3502
  766MOL0     H 5660  10.927   4.154  11.164 -0.5759 -0.7747  1.0881
  766MOL0     H 5661  10.909   4.281  11.288 -0.7626  0.2418  1.5622
  766MOL0     H 5662  11.126   4.251  11.363  0.2248 -1.3814  0.8012
  766MOL0     H 5663  11.166   4.115  11.267 -1.8483 -1.6172 -0.1981
  766MOL0     H 5664  11.110   4.402  11.177  1.6326  1.3414  1.0211
  766MOL0     H 5665  11.256   4.319  11.176  1.3796 -0.5114 -4.0197
  766MOL0     H 5666  11.108   4.144  10.821  0.5423 -1.1519 -1.8090
  766MOL0     H 5667  11.280   4.152  10.536  0.6354  0.2424  1.5592
  766MOL0     H 5668  11.133   4.214  10.475  1.7619  2.1208 -0.5888
  766MOL0     H 5669  11.121   4.091  10.599  1.9043 -1.6295 -1.4026
  766MOL0     H 5670  11.244   4.357  10.140  0.1639 -0.3646  1.4829
  766MOL0     H 5671  11.379   4.423   9.975  1.7713  1.1218  0.1491
  766MOL0     H 5672  11.749   4.656  10.018  3.4315  0.7639 -1.9802
  766MOL0     H 5673  11.841   4.512  10.049  0.3609  0.2806  0.7413
  766MOL0     H 5674  11.812   4.448   9.799  2.5504  1.0179 -0.9455
  766MOL0     H 5675  11.723   4.591   9.754  0.3009 -1.2799 -1.4423
  766MOL0     H 5676  11.997   4.588   9.895  1.2975 -0.3767 -0.5425
  766MOL0     H 5677  11.921   4.728   9.816 -0.0318  0.3794 -0.9972
  766MOL0     H 5678  11.937   4.638   9.601 -0.1547  0.0412  1.3935
  766MOL0     H 5679  12.003   4.480   9.662  1.4999  0.3580  0.8531
  766MOL0     H 5680  12.159   4.640   9.546 -2.3388  0.3893 -0.7430
  766MOL0     H 5681  12.140   4.744   9.686 -0.0971  0.4221 -1.0080
  766MOL0     H 5682  12.225   4.451   9.726  3.1363 -0.7792 -0.6446
  766MOL0     H 5683  12.232   4.577   9.842 -0.6875 -0.2803  0.2295
  766MOL0     H 5684  12.420   4.694   9.702 -1.6469  0.0096  0.1148
  766MOL0     H 5685  12.387   4.579   9.573 -0.6600  3.9992 -1.1431
  766MOL0     H 5686  12.460   4.382   9.689 -0.9203  0.3741 -0.1188
  766MOL0     H 5687  12.467   4.473   9.841 -3.1391 -1.1486 -0.6213
  766MOL0     H 5688  11.701   4.509  10.248 -0.1052 -0.8573  0.0548
  766MOL0     H 5689  11.548   4.458  10.427  0.6245 -0.3731 -0.3465
  766MOL0     H 5690  11.294   4.595  10.780 -0.2654 -0.1267  0.9737
  766MOL0     H 5691  11.258   4.496  10.996  2.5151  1.5849 -0.3764
  766MOL0     H 5692   9.634   3.501  11.222  0.9955 -0.4843  0.3839
  766MOL0     H 5693   9.431   3.466  11.064 -1.3183 -3.1775  0.7210
  766MOL0     H 5694   9.349   3.527  10.481  2.9816 -2.7726 -2.5848
  766MOL0     H 5695   9.165   3.464  10.336 -0.4111 -0.0997  0.0036
  766MOL0     H 5696   8.950   3.434  10.304  1.3897  0.3021 -0.5295
  766MOL0     H 5697   9.041   3.355  10.176 -0.8950 -0.1335 -0.8039
  766MOL0     H 5698   8.872   3.201  10.136  1.6594  0.4663 -0.9072
  766MOL0     H 5699   8.788   3.358  10.140  1.6108  0.5202 -0.6560
  766MOL0     H 5700   8.811   3.149  10.359  2.5486  0.0259 -1.3171
  766MOL0     H 5701   8.721   3.302  10.376 -2.4165  0.0987 -0.1188
  766MOL0     H 5702   8.668   3.092  10.151 -1.6387  1.7004 -1.5372
  766MOL0     H 5703   8.560   3.228  10.184 -0.8529 -2.8479 -3.8347
  766MOL0     H 5704   8.478   2.934  10.484 -0.4659  0.3433  0.4568
  766MOL0     H 5705   9.106   3.102  10.541 -0.0393  0.3501  1.6306
  766MOL0     H 5706   9.246   3.149  10.812  2.5366  2.2241 -0.1852
  766MOL0     H 5707   9.233   3.025  10.689  0.2038 -0.9504  2.0270
  766MOL0     H 5708   9.394   3.109  10.725  0.6247  1.4436  0.2813
  767MOL0     O 5709   2.104   2.282   9.689  0.3808  0.4784 -0.1897
  767MOL0     C 5710   2.053   2.375   9.622 -0.8746  0.2274 -0.6170
  767MOL0     O 5711   2.101   2.415   9.502  0.2892 -0.0487  0.2747
  767MOL0     C 5712   2.199   2.340   9.441 -0.6730  0.7358 -0.7344
  767MOL0     C 5713   2.323   2.324   9.510  0.2837 -0.1638 -0.6624
  767MOL0     C 5714   2.423   2.254   9.441 -0.0266  0.1679 -0.8260
  767MOL0     C 5715   2.397   2.201   9.307 -0.0802  0.3958 -0.3823
  767MOL0     O 5716   2.505   2.138   9.243  0.4176  0.1807  0.0720
  767MOL0     C 5717   2.476   2.053   9.131 -0.2433 -0.6369 -0.4148
  767MOL0     C 5718   2.607   1.987   9.079  0.3134  0.4069 -0.1776
  767MOL0     C 5719   2.556   1.905   8.962  0.2075 -1.0430  0.1824
  767MOL0     C 5720   2.670   1.832   8.893  0.3652  0.5110  0.3952
  767MOL0     C 5721   2.612   1.731   8.789 -0.0206  0.0332 -0.2781
  767MOL0     C 5722   2.726   1.651   8.727 -0.5353  0.1658  0.6384
  767MOL0     C 5723   2.809   1.745   8.637  0.4660 -0.0051  0.3404
  767MOL0     C 5724   2.898   1.656   8.548  0.1646 -0.9425 -0.3426
  767MOL0     N 5725   3.015   1.607   8.623 -0.4380 -0.1544  0.5855
  767MOL0     C 5726   3.128   1.676   8.641  0.1102  0.9314 -0.5613
  767MOL0     C 5727   3.204   1.594   8.725 -0.2165  0.4589 -0.6059
  767MOL0     C 5728   3.336   1.622   8.787  0.8082  0.1306  1.1168
  767MOL0     C 5729   3.454   1.607   8.698 -0.4548  0.1356  1.0816
  767MOL0     C 5730   3.487   1.459   8.676 -0.1804 -0.7454  0.2301
  767MOL0     C 5731   3.603   1.442   8.574  0.2917  0.0628  1.0215
  767MOL0     O 5732   3.722   1.496   8.636  0.2802 -0.3106 -0.6508
  767MOL0     C 5733   3.837   1.473   8.569 -0.0774 -0.2340  0.4034
  767MOL0     C 5734   3.965   1.498   8.634 -0.2173 -0.4840 -0.5153
  767MOL0     C 5735   4.085   1.497   8.556 -0.2238 -0.4713  0.5032
  767MOL0     C 5736   4.215   1.538   8.619  0.2849  0.5056  0.0757
  767MOL0     C 5737   4.084   1.454   8.423 -0.3040  0.0141 -0.2414
  767MOL0     C 5738   4.211   1.424   8.338  0.2787 -0.8630 -0.2368
  767MOL0     O 5739   4.212   1.471   8.212  0.1098  0.0244  0.7447
  767MOL0     C 5740   4.324   1.472   8.135 -0.6937 -0.2048  0.8986
  767MOL0     C 5741   4.308   1.471   7.991  0.3592 -0.2066 -0.3323
  767MOL0     C 5742   4.429   1.490   7.915  0.5096 -0.0362 -0.1748
  767MOL0     C 5743   4.560   1.507   7.972 -0.0810 -0.0792 -0.1546
  767MOL0     O 5744   4.673   1.542   7.915 -0.3104  0.2362 -0.1305
  767MOL0     C 5745   4.668   1.546   7.772  0.4285  0.2541 -0.7863
  767MOL0     C 5746   4.803   1.588   7.704  0.0364 -0.1961 -0.4391
  767MOL0     C 5747   4.808   1.537   7.570 -0.6279  0.7561 -0.2470
  767MOL0     C 5748   4.955   1.552   7.511  0.3567 -1.2515  0.4374
  767MOL0     C 5749   4.973   1.464   7.387  0.2031 -0.2601  0.2689
  767MOL0     C 5750   5.115   1.469   7.326  0.6089  0.8809 -0.2324
  767MOL0     C 5751   5.161   1.612   7.317 -0.1163 -0.0503  0.1457
  767MOL0     C 5752   5.268   1.621   7.208 -0.0837  0.1043 -0.2686
  767MOL0    Cl 5753   5.414   1.520   7.240  0.1080 -0.2298  0.1528
  767MOL0     C 5754   4.566   1.498   8.106 -0.7194 -0.1541 -0.5965
  767MOL0     C 5755   4.456   1.472   8.189 -0.0382 -0.3522 -1.0814
  767MOL0     O 5756   4.289   1.341   8.389 -0.0072 -0.2101 -0.0743
  767MOL0     C 5757   3.958   1.430   8.359  0.6227 -0.0321 -0.4686
  767MOL0     C 5758   3.842   1.433   8.436 -0.0166  0.5278  0.0586
  767MOL0     N 5759   3.133   1.475   8.744 -0.0570  0.7357 -0.2779
  767MOL0     N 5760   3.015   1.488   8.687 -0.1739 -0.3119 -0.2252
  767MOL0     C 5761   2.274   2.222   9.247  0.2154  0.1446 -0.1619
  767MOL0     C 5762   2.174   2.289   9.310  0.0137 -0.7060 -0.3984
  767MOL0     C 5763   1.924   2.430   9.669 -0.1702 -0.0772 -0.0192
  767MOL0     C 5764   1.887   2.554   9.606 -0.0374 -0.6074 -0.1730
  767MOL0     C 5765   1.767   2.621   9.638 -0.5644  0.0185 -0.0506
  767MOL0     C 5766   1.688   2.568   9.738  0.3348  0.0254 -0.5652
  767MOL0     O 5767   1.578   2.651   9.774 -0.2281  0.0560 -0.3166
  767MOL0     C 5768   1.458   2.589   9.797 -0.9764  0.4509  0.2341
  767MOL0     C 5769   1.345   2.692   9.815 -0.4636  0.1729 -0.1482
  767MOL0     C 5770   1.371   2.773   9.940  0.4303 -0.8785 -0.0424
  767MOL0     C 5771   1.267   2.884   9.946 -0.3181 -0.0617  0.3894
  767MOL0     C 5772   1.129   2.835   9.958 -0.3856  0.4426  0.6967
  767MOL0     C 5773   1.015   2.812   9.991  1.1403  0.1902 -0.0728
  767MOL0     C 5774   1.722   2.444   9.796 -1.2649  0.5383 -0.6591
  767MOL0     C 5775   1.841   2.371   9.770  0.7822 -0.3128  0.2918
  767MOL0     C 5776   1.865   2.237   9.837  0.3057 -0.2055  0.7922
  767MOL0     H 5777   2.331   2.359   9.612  0.5560 -1.6117 -0.1544
  767MOL0     H 5778   2.525   2.262   9.479  0.2546  0.3794 -1.6190
  767MOL0     H 5779   2.430   2.109   9.048  0.1526 -1.6841 -1.3651
  767MOL0     H 5780   2.409   1.971   9.156 -0.2144 -0.4926  0.1449
  767MOL0     H 5781   2.683   2.061   9.054 -0.8162  2.1680  1.3621
  767MOL0     H 5782   2.645   1.918   9.155 -1.0617 -1.0873 -0.7613
  767MOL0     H 5783   2.481   1.834   9.000  1.1025 -1.4415  1.2889
  767MOL0     H 5784   2.515   1.970   8.885  3.4034  0.6584 -0.2331
  767MOL0     H 5785   2.738   1.900   8.842 -1.3317  2.5452  0.7220
  767MOL0     H 5786   2.710   1.778   8.979 -2.0569 -0.4753  1.0048
  767MOL0     H 5787   2.570   1.795   8.712  1.4643  0.0792 -1.0788
  767MOL0     H 5788   2.540   1.664   8.839  0.7617  0.9963  2.3202
  767MOL0     H 5789   2.791   1.619   8.809  0.4990  2.1599  0.6665
  767MOL0     H 5790   2.684   1.570   8.668 -0.5911  1.5554 -1.3527
  767MOL0     H 5791   2.882   1.812   8.685  1.6264  0.6019 -2.1139
  767MOL0     H 5792   2.742   1.810   8.579  1.5127  1.2765  0.5021
  767MOL0     H 5793   2.844   1.572   8.503 -1.6674  0.5555 -1.0659
  767MOL0     H 5794   2.948   1.706   8.465  2.2054 -2.6366 -0.2464
  767MOL0     H 5795   3.160   1.776   8.615  2.4892  0.8442  1.5232
  767MOL0     H 5796   3.347   1.557   8.874  2.6295 -2.8216 -1.1212
  767MOL0     H 5797   3.333   1.721   8.834 -1.0621 -0.2795  1.9479
  767MOL0     H 5798   3.434   1.647   8.598 -2.4740 -1.1031  0.9329
  767MOL0     H 5799   3.543   1.656   8.739  3.0641 -2.7919 -2.3475
  767MOL0     H 5800   3.532   1.419   8.767 -2.1017 -3.2368  0.1962
  767MOL0     H 5801   3.400   1.395   8.656 -0.2747 -1.3771  2.3721
  767MOL0     H 5802   3.612   1.334   8.557  2.4700  0.3220  0.2233
  767MOL0     H 5803   3.579   1.498   8.484 -0.2268  1.1264  1.7981
  767MOL0     H 5804   3.973   1.533   8.737 -1.2472 -1.4015 -0.0948
  767MOL0     H 5805   4.279   1.583   8.543 -1.6588  1.4291 -1.1152
  767MOL0     H 5806   4.266   1.450   8.658 -1.1886 -0.4199 -0.0162
  767MOL0     H 5807   4.200   1.611   8.699  0.1004 -0.7919  1.2541
  767MOL0     H 5808   4.211   1.456   7.943  0.0436  0.7856 -0.0286
  767MOL0     H 5809   4.405   1.490   7.810  2.4179  0.9450 -0.6583
  767MOL0     H 5810   4.627   1.456   7.727 -0.7087 -0.2088  1.0682
  767MOL0     H 5811   4.598   1.627   7.749 -0.2920  0.0497  0.6256
  767MOL0     H 5812   4.798   1.696   7.692  0.0993 -0.5091 -4.3175
  767MOL0     H 5813   4.892   1.562   7.762 -1.0031  0.0488  1.3599
  767MOL0     H 5814   4.740   1.588   7.502 -0.1036 -0.6975 -1.9280
  767MOL0     H 5815   4.781   1.431   7.578 -0.8482  0.7071 -1.5457
  767MOL0     H 5816   5.029   1.525   7.587 -0.4787  1.4311  2.3480
  767MOL0     H 5817   4.975   1.659   7.495  0.7471 -0.9646  2.5636
  767MOL0     H 5818   4.949   1.361   7.413  0.1796 -0.1132  0.8484
  767MOL0     H 5819   4.905   1.500   7.308  0.1071  0.1146  0.5166
  767MOL0     H 5820   5.117   1.414   7.231  1.2358  0.8280 -0.1914
  767MOL0     H 5821   5.196   1.418   7.379  0.6942  1.1434 -0.1094
  767MOL0     H 5822   5.202   1.647   7.412 -1.7349  0.0137  0.8539
  767MOL0     H 5823   5.079   1.679   7.292 -0.1181  0.3171  1.1065
  767MOL0     H 5824   5.305   1.723   7.201  3.4130 -0.2610  5.7876
  767MOL0     H 5825   5.225   1.583   7.115  0.2597 -0.8057 -0.0638
  767MOL0     H 5826   4.659   1.524   8.157 -0.8050  0.7706 -0.8924
  767MOL0     H 5827   4.469   1.461   8.296 -0.9401 -2.1120 -1.1097
  767MOL0     H 5828   3.953   1.396   8.256  4.0312 -2.4003  0.0151
  767MOL0     H 5829   3.754   1.419   8.375 -0.2051  4.9653 -1.0631
  767MOL0     H 5830   2.254   2.193   9.144 -1.6619  1.8373 -0.3209
  767MOL0     H 5831   2.087   2.315   9.251 -1.3252  2.3967  2.5722
  767MOL0     H 5832   1.951   2.601   9.532 -0.9373 -1.6093 -1.6422
  767MOL0     H 5833   1.745   2.711   9.581  0.6360  0.0218 -0.5333
  767MOL0     H 5834   1.436   2.525   9.711 -1.3764  0.0223  0.6449
  767MOL0     H 5835   1.464   2.534   9.892  2.4438  3.1095  1.7454
  767MOL0     H 5836   1.246   2.646   9.817 -2.3793  3.8488 -1.3214
  767MOL0     H 5837   1.344   2.757   9.728  6.1315 -2.1962 -2.6461
  767MOL0     H 5838   1.353   2.718  10.033  0.0062  0.7483  0.8670
  767MOL0     H 5839   1.469   2.822   9.939  0.1934 -0.3480  1.1344
  767MOL0     H 5840   1.291   2.951   9.863 -0.6479  0.4091  0.6723
  767MOL0     H 5841   1.285   2.945  10.035 -2.2485  0.6802  0.3163
  767MOL0     H 5842   0.918   2.783  10.027  1.5830  1.1914  2.0546
  767MOL0     H 5843   1.651   2.416   9.873 -0.3134 -0.2169 -0.0464
  767MOL0     H 5844   1.778   2.218   9.901 -2.2833  1.1504 -2.0538
  767MOL0     H 5845   1.879   2.154   9.767  1.7042  1.9862 -1.7183
  767MOL0     H 5846   1.956   2.221   9.895  0.5991 -1.9385 -0.0689
  768MOL0     O 5847   4.224   5.718  10.435  0.4522  0.3887 -1.0131
  768MOL0     C 5848   4.181   5.646  10.528 -0.4798 -1.0189  0.6648
  768MOL0     O 5849   4.248   5.614  10.636 -0.0008 -0.4704  0.2974
  768MOL0     C 5850   4.374   5.671  10.656  0.5186  0.2605  0.5576
  768MOL0     C 5851   4.494   5.611  10.614 -0.3556 -0.0912 -0.5809
  768MOL0     C 5852   4.615   5.679  10.648 -1.4612 -0.3855  0.1795
  768MOL0     C 5853   4.615   5.791  10.727 -0.2088 -1.0130  0.0096
  768MOL0     O 5854   4.737   5.845  10.777 -0.3996  0.3914  0.3704
  768MOL0     C 5855   4.749   5.914  10.900 -0.3799  0.4065  0.2040
  768MOL0     C 5856   4.911   5.939  10.907 -0.2256  0.1798 -0.4352
  768MOL0     C 5857   4.982   6.019  10.790  0.5726  0.0628  0.2880
  768MOL0     C 5858   5.123   6.055  10.836 -0.1676 -0.2170  1.1855
  768MOL0     C 5859   5.215   6.117  10.718 -0.0619 -0.0808 -0.3682
  768MOL0     C 5860   5.345   6.154  10.787  0.4590  0.3016  0.7175
  768MOL0     C 5861   5.463   6.201  10.701  0.1527  0.8538 -0.3503
  768MOL0     C 5862   5.460   6.345  10.647  0.2502  0.1848  0.4325
  768MOL0     N 5863   5.514   6.355  10.510  0.2474  0.5370  0.4034
  768MOL0     C 5864   5.637   6.388  10.464  0.2349  0.0918  0.5014
  768MOL0     C 5865   5.632   6.372  10.330 -0.4996  0.1436 -0.4641
  768MOL0     C 5866   5.738   6.399  10.228  0.7432 -0.5631  0.0569
  768MOL0     C 5867   5.880   6.392  10.292 -0.0566  0.2535  0.5256
  768MOL0     C 5868   5.918   6.236  10.305 -0.1811  0.1464 -0.3603
  768MOL0     C 5869   6.065   6.197  10.281  0.6367  0.1289  0.4407
  768MOL0     O 5870   6.114   6.278  10.176  0.0968 -0.5136  0.8935
  768MOL0     C 5871   6.250   6.270  10.149 -0.4110 -0.9709 -0.2078
  768MOL0     C 5872   6.305   6.352  10.044  0.5427  0.1393  0.0900
  768MOL0     C 5873   6.438   6.351   9.997 -0.2068 -0.0126 -0.7505
  768MOL0     C 5874   6.486   6.436   9.883 -1.6847 -0.9765 -1.1929
  768MOL0     C 5875   6.530   6.257  10.059  0.0333 -0.7157  0.6365
  768MOL0     C 5876   6.678   6.242  10.034 -0.2511  0.9888  0.5336
  768MOL0     O 5877   6.727   6.113  10.047  0.2705 -0.5506  0.2524
  768MOL0     C 5878   6.859   6.095  10.013 -0.6420  0.2493 -0.0280
  768MOL0     C 5879   6.896   5.997   9.923 -0.7040 -0.0863  0.4582
  768MOL0     C 5880   7.034   5.982   9.873  1.1108  0.1288  0.4990
  768MOL0     C 5881   7.132   6.058   9.930 -0.1127 -0.0510 -0.8218
  768MOL0     O 5882   7.266   6.044   9.888  0.4588 -0.0205  1.1092
  768MOL0     C 5883   7.361   6.116   9.953 -0.3307 -0.2757 -0.0643
  768MOL0     C 5884   7.491   6.063   9.895  0.0528  0.0004  0.2658
  768MOL0     C 5885   7.616   6.120   9.961 -1.3465  0.2064  0.4861
  768MOL0     C 5886   7.750   6.040   9.923 -0.4612 -0.4438  0.7281
  768MOL0     C 5887   7.875   6.090   9.994  1.4477 -0.8502 -0.3069
  768MOL0     C 5888   8.004   6.036   9.951 -0.5420  0.3062 -0.1430
  768MOL0     C 5889   8.108   6.136   9.999  0.6493 -0.4978  0.1821
  768MOL0     C 5890   8.247   6.117   9.939  0.3866 -0.0218 -0.0636
  768MOL0    Cl 5891   8.288   5.937   9.960 -0.2178 -0.1703 -0.0850
  768MOL0     C 5892   7.097   6.150  10.039 -0.5323  0.4917  0.1232
  768MOL0     C 5893   6.969   6.168  10.076  0.9865  0.0908 -0.3765
  768MOL0     O 5894   6.742   6.342   9.998  0.0359  0.0496  0.4631
  768MOL0     C 5895   6.480   6.180  10.160 -0.3417 -0.3039 -0.3375
  768MOL0     C 5896   6.344   6.185  10.207 -0.0540  0.2547  0.0281
  768MOL0     N 5897   5.505   6.338  10.297  0.3809 -0.1459  0.3539
  768MOL0     N 5898   5.435   6.336  10.400  0.7860  0.1493 -0.0792
  768MOL0     C 5899   4.492   5.849  10.762  0.1067  0.7816  0.9307
  768MOL0     C 5900   4.374   5.788  10.725  0.0443  0.1175  0.7862
  768MOL0     C 5901   4.037   5.596  10.517  0.0559 -0.7144  0.2147
  768MOL0     C 5902   3.972   5.606  10.384 -0.2462  1.1977 -0.5546
  768MOL0     C 5903   3.834   5.558  10.376 -0.7078  0.1292  0.0893
  768MOL0     C 5904   3.769   5.504  10.491  0.6056 -0.1703  0.9739
  768MOL0     O 5905   3.638   5.465  10.456 -1.1596  0.5095  0.3051
  768MOL0     C 5906   3.577   5.380  10.552 -0.4489 -0.0963 -0.1307
  768MOL0     C 5907   3.443   5.350  10.498  0.4519 -0.1801 -0.0436
  768MOL0     C 5908   3.349   5.252  10.573  0.1591  0.1094  0.5258
  768MOL0     C 5909   3.308   5.305  10.714  0.4959 -0.6190 -0.0313
  768MOL0     C 5910   3.176   5.255  10.760 -0.3318  0.3870 -1.0373
  768MOL0     C 5911   3.057   5.223  10.786  0.9249 -1.6534 -0.1461
  768MOL0     C 5912   3.829   5.506  10.612 -0.2506  0.4646 -0.1775
  768MOL0     C 5913   3.960   5.556  10.630 -0.4913 -0.1902  0.6084
  768MOL0     C 5914   4.005   5.580  10.769  0.9055  0.1102  0.0716
  768MOL0     H 5915   4.492   5.516  10.562 -0.2426  0.3101 -1.3384
  768MOL0     H 5916   4.715   5.652  10.614 -0.2444  0.4780  2.8191
  768MOL0     H 5917   4.724   5.837  10.973 -2.2587 -0.4808 -1.3221
  768MOL0     H 5918   4.693   6.008  10.909  1.1580  1.2393  1.9453
  768MOL0     H 5919   4.941   5.988  11.000  3.3253  2.1713 -2.4428
  768MOL0     H 5920   4.957   5.839  10.906  2.2116  1.2323 -1.5153
  768MOL0     H 5921   4.985   5.969  10.692 -1.5717  1.6261 -0.6546
  768MOL0     H 5922   4.921   6.108  10.772  0.1913 -0.5034 -1.3872
  768MOL0     H 5923   5.122   6.130  10.916  0.5494 -0.4890  1.4594
  768MOL0     H 5924   5.177   5.975  10.887 -0.3300 -1.3193 -0.3088
  768MOL0     H 5925   5.171   6.211  10.682  0.6179 -0.3681 -1.9859
  768MOL0     H 5926   5.241   6.057  10.631  1.6965  0.4581 -0.2492
  768MOL0     H 5927   5.325   6.231  10.863 -3.7177 -1.4859  1.7581
  768MOL0     H 5928   5.384   6.067  10.840  0.1448 -0.0749  0.3353
  768MOL0     H 5929   5.477   6.128  10.620 -0.3059  1.4115 -0.9362
  768MOL0     H 5930   5.548   6.194  10.770  0.5471  0.3123 -0.8772
  768MOL0     H 5931   5.358   6.382  10.650 -0.0893 -0.5945 -0.8540
  768MOL0     H 5932   5.527   6.401  10.713  0.6205  0.7277 -0.3848
  768MOL0     H 5933   5.722   6.420  10.523  1.2338 -1.0943 -0.2395
  768MOL0     H 5934   5.722   6.495  10.179  1.1267 -0.5559 -0.0622
  768MOL0     H 5935   5.719   6.334  10.142 -4.7173  0.2899  0.3005
  768MOL0     H 5936   5.937   6.447  10.217 -2.0830  0.6383 -0.8073
  768MOL0     H 5937   5.872   6.439  10.391  0.5884 -0.1680  0.7845
  768MOL0     H 5938   5.877   6.219  10.405 -0.3897 -1.5300 -0.6960
  768MOL0     H 5939   5.855   6.182  10.234  1.5089 -2.3924 -0.0715
  768MOL0     H 5940   6.123   6.225  10.369  0.6955 -2.5469  1.3493
  768MOL0     H 5941   6.077   6.090  10.262 -1.7273  0.0703 -1.1064
  768MOL0     H 5942   6.226   6.421  10.016 -1.0324 -1.4385  0.3851
  768MOL0     H 5943   6.553   6.517   9.912 -3.3899 -0.3159  1.2102
  768MOL0     H 5944   6.399   6.488   9.842  0.3853  1.9856 -2.1397
  768MOL0     H 5945   6.533   6.371   9.808 -1.5716 -2.5540  0.1859
  768MOL0     H 5946   6.820   5.935   9.876 -0.1729  0.7556 -1.6357
  768MOL0     H 5947   7.047   5.912   9.792  0.5698  1.2187 -0.5691
  768MOL0     H 5948   7.340   6.221   9.929 -0.1597 -0.1348  0.3973
  768MOL0     H 5949   7.362   6.094  10.060  0.0806 -3.4341 -0.6453
  768MOL0     H 5950   7.490   5.958   9.923  1.1873 -0.0126  0.3272
  768MOL0     H 5951   7.496   6.062   9.785 -2.1066 -2.3826  0.1151
  768MOL0     H 5952   7.606   6.100  10.068  0.8779 -0.8334  0.5600
  768MOL0     H 5953   7.623   6.228   9.944  0.6121  0.3918  2.0039
  768MOL0     H 5954   7.766   6.051   9.815  2.4101 -2.1460  0.8826
  768MOL0     H 5955   7.726   5.937   9.949  0.0201 -0.7158  0.1120
  768MOL0     H 5956   7.872   6.200   9.987  1.1862 -0.6689  2.0134
  768MOL0     H 5957   7.852   6.073  10.099 -1.8969 -1.4328 -0.9949
  768MOL0     H 5958   8.011   6.020   9.843  1.3823  0.2725 -0.0510
  768MOL0     H 5959   8.024   5.938   9.996  2.1309  0.5793 -0.5685
  768MOL0     H 5960   8.119   6.138  10.108 -3.0382  3.2625  0.7372
  768MOL0     H 5961   8.067   6.232   9.967  0.9002  0.5810  2.8192
  768MOL0     H 5962   8.317   6.174  10.001 -0.7409 -2.2161  3.5430
  768MOL0     H 5963   8.261   6.147   9.835  0.4773  1.4694  0.3650
  768MOL0     H 5964   7.161   6.217  10.097 -3.4740  3.7256 -0.0376
  768MOL0     H 5965   6.944   6.239  10.155  0.9200  2.3874 -2.3635
  768MOL0     H 5966   6.544   6.106  10.208 -0.3134 -1.9043 -2.6527
  768MOL0     H 5967   6.327   6.121  10.293  1.4119 -1.0300 -0.5888
  768MOL0     H 5968   4.480   5.938  10.823 -2.9036 -1.7483  4.5827
  768MOL0     H 5969   4.282   5.838  10.755  0.3693  0.4163  1.3069
  768MOL0     H 5970   4.029   5.648  10.302  3.2058  0.2656  1.1809
  768MOL0     H 5971   3.776   5.578  10.287 -1.9810  1.8623  1.2356
  768MOL0     H 5972   3.636   5.287  10.551 -1.7963 -0.9795 -0.0218
  768MOL0     H 5973   3.566   5.423  10.651  3.3133  2.2003 -0.5063
  768MOL0     H 5974   3.450   5.295  10.404 -1.1243 -2.1721  0.9308
  768MOL0     H 5975   3.394   5.448  10.487  1.4709  0.3127 -0.3160
  768MOL0     H 5976   3.261   5.228  10.513  1.0717  0.6410 -1.0747
  768MOL0     H 5977   3.404   5.159  10.588  1.2966  0.6135 -0.4166
  768MOL0     H 5978   3.296   5.411  10.691 -0.9455 -1.3780 -3.4577
  768MOL0     H 5979   3.394   5.298  10.780  0.7047  4.4893  0.6119
  768MOL0     H 5980   2.963   5.188  10.822  1.9934 -3.1528  1.3369
  768MOL0     H 5981   3.775   5.469  10.699 -0.8607  2.1897  0.2128
  768MOL0     H 5982   4.072   5.498  10.795 -0.5856 -1.8023 -1.7860
  768MOL0     H 5983   4.052   5.679  10.773 -0.2505  0.7115 -0.5854
  768MOL0     H 5984   3.917   5.578  10.833 -0.8382 -2.1499 -2.1851
  769MOL0     O 5985   3.482   3.822   7.135  0.2034 -0.0108 -0.3569
  769MOL0     C 5986   3.458   3.725   7.064  0.4446 -0.1256  0.2686
  769MOL0     O 5987   3.555   3.661   6.995 -0.1588  0.0025  0.1946
  769MOL0     C 5988   3.684   3.705   6.975  0.1694  0.4453  0.1543
  769MOL0     C 5989   3.758   3.761   7.080 -0.2925 -0.1457  0.2915
  769MOL0     C 5990   3.892   3.787   7.055  0.0323 -0.1453  0.0037
  769MOL0     C 5991   3.958   3.759   6.932  0.5654 -0.3487 -0.2035
  769MOL0     O 5992   4.095   3.774   6.909  0.3843  0.3684 -0.7102
  769MOL0     C 5993   4.175   3.753   7.027 -0.0630  0.3310  0.0981
  769MOL0     C 5994   4.322   3.734   6.986  0.3021 -0.3978 -0.5067
  769MOL0     C 5995   4.391   3.870   6.956 -0.4603  0.5421 -0.6415
  769MOL0     C 5996   4.555   3.852   6.959 -0.1465  0.3924 -0.2545
  769MOL0     C 5997   4.637   3.982   6.951  0.4604 -0.0542 -0.0363
  769MOL0     C 5998   4.608   4.073   6.829  0.8679 -0.6512 -0.0232
  769MOL0     C 5999   4.724   4.170   6.805 -0.2403 -0.1991  1.1592
  769MOL0     C 6000   4.767   4.252   6.923  0.3204  0.2952  0.3663
  769MOL0     N 6001   4.888   4.318   6.894 -0.0394 -0.0729  0.0118
  769MOL0     C 6002   5.012   4.269   6.873 -0.2614  0.3007  0.5494
  769MOL0     C 6003   5.086   4.364   6.801  0.4941 -0.0727  0.4392
  769MOL0     C 6004   5.231   4.345   6.745 -0.5798 -0.2787 -0.6839
  769MOL0     C 6005   5.341   4.410   6.824 -0.1372  0.1640 -0.7190
  769MOL0     C 6006   5.371   4.561   6.785 -0.6204  0.2635 -0.6643
  769MOL0     C 6007   5.476   4.604   6.895 -0.4234  0.3831  0.3533
  769MOL0     O 6008   5.601   4.537   6.873 -0.3845 -0.8195  0.6568
  769MOL0     C 6009   5.688   4.575   6.969 -0.7732 -0.0114 -0.0778
  769MOL0     C 6010   5.797   4.653   6.936 -0.5835 -0.0368  0.5279
  769MOL0     C 6011   5.881   4.701   7.035 -0.5323  0.2178  0.4545
  769MOL0     C 6012   6.004   4.774   6.992 -0.0642  0.1801 -0.4533
  769MOL0     C 6013   5.845   4.679   7.165 -0.0344 -0.5486  0.0638
  769MOL0     C 6014   5.912   4.760   7.273 -0.1996  0.5984 -0.2992
  769MOL0     O 6015   5.841   4.835   7.362  0.4123  0.6697  0.8250
  769MOL0     C 6016   5.910   4.906   7.453 -0.3813  0.6152  0.4755
  769MOL0     C 6017   5.867   4.892   7.584  0.2065 -1.1409  0.2441
  769MOL0     C 6018   5.936   4.949   7.687 -0.1461  0.1124 -0.0928
  769MOL0     C 6019   6.060   5.022   7.663  0.1035  0.0743  0.0685
  769MOL0     O 6020   6.148   5.067   7.755 -0.2099  0.0379  0.1853
  769MOL0     C 6021   6.122   5.050   7.901 -0.0179 -0.1788  0.4837
  769MOL0     C 6022   6.242   5.101   7.996  0.4655  0.2666 -0.4216
  769MOL0     C 6023   6.277   5.239   7.955  0.5609 -0.5611  0.8380
  769MOL0     C 6024   6.324   5.324   8.075  0.5382  0.6761  1.4651
  769MOL0     C 6025   6.350   5.466   8.034  0.0514 -0.3886  0.2544
  769MOL0     C 6026   6.363   5.561   8.159  0.0018  0.1830 -0.0866
  769MOL0     C 6027   6.497   5.524   8.226  0.1009 -0.7133 -0.1928
  769MOL0     C 6028   6.620   5.610   8.169  0.2504  0.5333 -0.4732
  769MOL0    Cl 6029   6.760   5.602   8.276 -0.0650  0.6021 -0.3950
  769MOL0     C 6030   6.108   5.031   7.530  0.2718 -0.4583  0.6398
  769MOL0     C 6031   6.027   4.976   7.426  0.2495 -0.2094 -0.4630
  769MOL0     O 6032   6.034   4.731   7.288  0.9501  0.6825 -0.1957
  769MOL0     C 6033   5.738   4.597   7.199 -0.2006  1.0343 -0.3426
  769MOL0     C 6034   5.659   4.536   7.099  0.3061 -0.1054 -0.5671
  769MOL0     N 6035   5.014   4.478   6.805 -0.0296  0.0106  0.2187
  769MOL0     N 6036   4.892   4.447   6.853  0.7299 -0.5253  0.2042
  769MOL0     C 6037   3.878   3.707   6.835  0.2805  0.7323  0.9809
  769MOL0     C 6038   3.742   3.678   6.850  0.1341  0.1189 -0.5037
  769MOL0     C 6039   3.321   3.667   7.073 -0.3536 -0.1995 -0.3951
  769MOL0     C 6040   3.248   3.695   7.199 -0.1977  0.6046  0.8163
  769MOL0     C 6041   3.113   3.668   7.204  0.1034  0.6958  0.3388
  769MOL0     C 6042   3.050   3.610   7.094 -0.4622 -0.2709 -0.0836
  769MOL0     O 6043   2.920   3.564   7.103 -0.9019  0.5685  0.3322
  769MOL0     C 6044   2.820   3.647   7.054  0.5113 -0.2632  0.0688
  769MOL0     C 6045   2.790   3.775   7.135  0.1333 -0.1493  1.4138
  769MOL0     C 6046   2.724   3.761   7.281  0.6429 -0.0160 -0.6246
  769MOL0     C 6047   2.590   3.683   7.305 -0.0139  0.0587 -0.1280
  769MOL0     C 6048   2.484   3.704   7.202  0.6634 -1.3186 -0.6143
  769MOL0     C 6049   2.403   3.708   7.110  0.1809  1.3998 -0.3057
  769MOL0     C 6050   3.120   3.581   6.978  0.1095  0.3100 -0.2677
  769MOL0     C 6051   3.253   3.618   6.958  0.0171  0.3781 -0.2957
  769MOL0     C 6052   3.311   3.575   6.824  0.3650 -0.0980 -0.2062
  769MOL0     H 6053   3.712   3.773   7.178  2.6082 -1.2573  1.8892
  769MOL0     H 6054   3.949   3.817   7.143 -0.5656  0.5515  0.1674
  769MOL0     H 6055   4.134   3.671   7.086 -0.9294  0.0889 -0.8050
  769MOL0     H 6056   4.166   3.846   7.084 -3.8789  0.7390 -0.8974
  769MOL0     H 6057   4.367   3.680   7.070 -0.4204 -2.6105 -1.4591
  769MOL0     H 6058   4.334   3.663   6.903  0.3159 -0.2800 -0.6051
  769MOL0     H 6059   4.359   3.916   6.863  0.2158  1.7114 -0.3109
  769MOL0     H 6060   4.369   3.936   7.040  0.3433  2.7794 -2.1185
  769MOL0     H 6061   4.572   3.795   7.051 -2.7545  0.1955  0.1713
  769MOL0     H 6062   4.595   3.783   6.884  3.1116  1.4622  0.3686
  769MOL0     H 6063   4.744   3.961   6.950  0.7930  1.4925 -0.4532
  769MOL0     H 6064   4.620   4.038   7.044 -2.5071 -0.8735  0.0360
  769MOL0     H 6065   4.594   3.995   6.754  1.3576 -2.8543  2.0684
  769MOL0     H 6066   4.515   4.130   6.839  0.9220 -0.5640 -0.0112
  769MOL0     H 6067   4.691   4.244   6.732 -1.7978  2.0849  3.9188
  769MOL0     H 6068   4.812   4.118   6.766  1.0525  1.3361  1.8834
  769MOL0     H 6069   4.682   4.312   6.956 -1.0552 -1.2291 -0.2534
  769MOL0     H 6070   4.785   4.176   7.000  1.7163  0.4353  0.2203
  769MOL0     H 6071   5.034   4.163   6.886 -1.7038 -0.1685 -0.5002
  769MOL0     H 6072   5.233   4.364   6.637  0.4977 -1.0928 -0.8291
  769MOL0     H 6073   5.243   4.236   6.756  0.0403 -0.1780 -0.2759
  769MOL0     H 6074   5.320   4.391   6.929 -2.4440 -1.2434 -1.3692
  769MOL0     H 6075   5.432   4.351   6.805  0.7031  1.6060 -1.3487
  769MOL0     H 6076   5.420   4.561   6.687 -2.0497  2.2043 -1.4520
  769MOL0     H 6077   5.285   4.628   6.787 -0.2426  0.7279  0.2685
  769MOL0     H 6078   5.482   4.713   6.893 -1.6760  0.5150  1.5721
  769MOL0     H 6079   5.434   4.577   6.993 -0.9123  0.1620  0.0862
  769MOL0     H 6080   5.833   4.662   6.834  1.7119 -0.9026  1.1956
  769MOL0     H 6081   5.992   4.805   6.888  0.0007 -0.7003 -0.7359
  769MOL0     H 6082   6.098   4.717   6.991 -0.4500 -0.4665 -0.3107
  769MOL0     H 6083   6.011   4.869   7.045 -1.2331 -0.4307  0.8466
  769MOL0     H 6084   5.777   4.838   7.610  0.8708 -1.7785  1.3034
  769MOL0     H 6085   5.895   4.932   7.786 -0.0384 -1.1814 -0.2446
  769MOL0     H 6086   6.033   5.111   7.920  1.0386  2.6087 -2.4229
  769MOL0     H 6087   6.097   4.946   7.923  0.6794  0.3915  4.7251
  769MOL0     H 6088   6.217   5.098   8.103 -1.8765  0.1395 -0.9356
  769MOL0     H 6089   6.334   5.045   7.979 -1.0971 -2.4909 -0.2379
  769MOL0     H 6090   6.191   5.280   7.902 -0.4282  0.0332  2.7905
  769MOL0     H 6091   6.359   5.226   7.883  1.5159  0.2362  1.7414
  769MOL0     H 6092   6.399   5.268   8.132 -1.1496 -2.0950  1.1605
  769MOL0     H 6093   6.241   5.324   8.146 -1.7432  1.4698 -1.0160
  769MOL0     H 6094   6.443   5.470   7.977 -0.8384  0.4435 -1.1805
  769MOL0     H 6095   6.266   5.510   7.980  1.0799 -0.4824 -1.4619
  769MOL0     H 6096   6.283   5.533   8.229  1.9066 -3.6695  0.8340
  769MOL0     H 6097   6.359   5.664   8.123 -0.6370  0.1377 -0.1713
  769MOL0     H 6098   6.534   5.422   8.214  1.2326 -0.6047  1.9285
  769MOL0     H 6099   6.484   5.549   8.332  1.5986  1.5004 -0.4786
  769MOL0     H 6100   6.589   5.714   8.157  0.4227  0.7105  0.4880
  769MOL0     H 6101   6.640   5.570   8.070 -0.2188  2.1606 -1.2489
  769MOL0     H 6102   6.202   5.078   7.503 -0.4268  0.7487  0.1825
  769MOL0     H 6103   6.049   4.989   7.321 -1.6821  1.4663 -0.7041
  769MOL0     H 6104   5.706   4.594   7.303 -0.7828  0.6491 -0.5233
  769MOL0     H 6105   5.572   4.476   7.123  0.4078  0.1827  0.5757
  769MOL0     H 6106   3.911   3.667   6.740 -0.8409  2.0785 -0.0267
  769MOL0     H 6107   3.681   3.624   6.778  2.0095  0.2773 -2.3083
  769MOL0     H 6108   3.299   3.748   7.279  0.1064  1.3386  0.1521
  769MOL0     H 6109   3.039   3.690   7.280 -1.0743 -0.9346 -0.2831
  769MOL0     H 6110   2.852   3.666   6.952  0.8628 -1.7963 -0.1389
  769MOL0     H 6111   2.731   3.586   7.035  1.7387 -1.2878 -2.9107
  769MOL0     H 6112   2.714   3.821   7.069  0.0019 -3.2575 -0.8379
  769MOL0     H 6113   2.882   3.833   7.139  0.4417 -0.6817  2.1775
  769MOL0     H 6114   2.804   3.720   7.344 -0.4128 -0.3232  0.5641
  769MOL0     H 6115   2.702   3.862   7.318  0.6034 -0.5376  0.8632
  769MOL0     H 6116   2.545   3.682   7.404  0.9720  0.1381  0.3321
  769MOL0     H 6117   2.611   3.576   7.290 -3.0790 -0.5702 -0.7571
  769MOL0     H 6118   2.343   3.692   7.023 -1.4799 -1.1028  1.1807
  769MOL0     H 6119   3.059   3.543   6.897 -1.3337  1.2821  0.3354
  769MOL0     H 6120   3.402   3.631   6.800 -0.1862  1.2985  0.7933
  769MOL0     H 6121   3.312   3.466   6.831 -2.4879 -0.4569 -3.0048
  769MOL0     H 6122   3.240   3.591   6.742 -0.4230 -0.6569  0.3454
  770MOL0     O 6123   6.756  10.710   6.354  0.3530 -0.6511 -0.0163
  770MOL0     C 6124   6.800  10.697   6.239  0.0160  0.0644  0.4801
  770MOL0     O 6125   6.747  10.612   6.150  0.4804 -0.1921 -0.1817
  770MOL0     C 6126   6.618  10.574   6.173  0.1079  0.1562 -0.8435
  770MOL0     C 6127   6.599  10.443   6.211  0.6411 -0.0543  0.0957
  770MOL0     C 6128   6.463  10.414   6.240  0.8759 -1.0027  0.0563
  770MOL0     C 6129   6.351  10.506   6.225  0.0060  0.0175  0.5982
  770MOL0     O 6130   6.227  10.453   6.252  0.6900  0.3324  0.2165
  770MOL0     C 6131   6.113  10.504   6.190  0.5012 -0.0092  0.7100
  770MOL0     C 6132   5.984  10.437   6.237 -0.6098 -0.3896  0.6813
  770MOL0     C 6133   5.861  10.491   6.152 -0.0642  0.0574  0.4658
  770MOL0     C 6134   5.848  10.410   6.017  0.1415 -0.9968 -0.4006
  770MOL0     C 6135   5.730  10.466   5.943  0.1532 -0.0411 -0.3107
  770MOL0     C 6136   5.724  10.614   5.886  0.5803  0.5718  0.0959
  770MOL0     C 6137   5.598  10.612   5.792  0.6429 -0.2800  0.2182
  770MOL0     C 6138   5.566  10.741   5.728 -0.0670 -0.5651  0.6286
  770MOL0     N 6139   5.660  10.793   5.633  0.4611  0.7446 -0.1332
  770MOL0     C 6140   5.771  10.867   5.670  0.7340 -0.0769 -0.5469
  770MOL0     C 6141   5.826  10.893   5.547 -1.1484  0.3232  0.3930
  770MOL0     C 6142   5.945  10.969   5.520  0.6850 -0.2104  0.2486
  770MOL0     C 6143   6.090  10.903   5.542 -1.0605  0.5489 -0.8811
  770MOL0     C 6144   6.126  10.892   5.691  0.0518 -0.0545 -0.1701
  770MOL0     C 6145   6.276  10.909   5.704  0.6500 -0.7015  0.6982
  770MOL0     O 6146   6.318  10.914   5.840  0.2713  0.4136 -1.0998
  770MOL0     C 6147   6.449  10.951   5.861  0.2069  0.0012 -0.0531
  770MOL0     C 6148   6.495  10.991   5.990  0.2543  0.0833  0.1144
  770MOL0     C 6149   6.630  11.023   6.025 -0.1557 -0.2688  0.3094
  770MOL0     C 6150   6.651  11.075   6.163  0.4923  0.1607 -1.2720
  770MOL0     C 6151   6.724  11.030   5.917  0.2997 -0.8083  0.1403
  770MOL0     C 6152   6.862  11.089   5.926 -0.6073 -0.1934  0.4752
  770MOL0     O 6153   6.954  11.040   5.838  0.7602 -0.1886  0.4046
  770MOL0     C 6154   7.078  11.100   5.818  0.1762  0.4655  0.0343
  770MOL0     C 6155   7.148  11.198   5.890 -0.1562  0.2852 -0.8547
  770MOL0     C 6156   7.281  11.235   5.858 -0.3518  1.1380  0.2715
  770MOL0     C 6157   7.349  11.183   5.746  0.7031 -0.6132 -0.7995
  770MOL0     O 6158   7.483  11.212   5.727  0.1546 -0.0541  0.1883
  770MOL0     C 6159   7.552  11.152   5.601  0.2022  0.1115 -0.3523
  770MOL0     C 6160   7.696  11.196   5.629  0.5212  0.3041  0.4329
  770MOL0     C 6161   7.782  11.118   5.523 -0.0842  0.3640  0.2433
  770MOL0     C 6162   7.931  11.138   5.516  0.4409 -0.1566  0.6421
  770MOL0     C 6163   7.993  11.101   5.387 -0.1108 -0.3705  0.1968
  770MOL0     C 6164   7.998  11.215   5.283  0.7234 -1.1907  0.3847
  770MOL0     C 6165   8.067  11.170   5.149 -0.7430 -0.4669 -0.3733
  770MOL0     C 6166   8.223  11.135   5.167 -0.3075 -0.4352 -0.1683
  770MOL0    Cl 6167   8.318  11.274   5.228 -0.1306  0.0045  0.0034
  770MOL0     C 6168   7.278  11.091   5.674  0.6363 -0.7095  0.2267
  770MOL0     C 6169   7.147  11.060   5.709  0.1330  0.0131 -0.6406
  770MOL0     O 6170   6.882  11.190   5.992  0.3057  0.6326  0.0596
  770MOL0     C 6171   6.681  10.988   5.791 -0.1406 -0.1645 -0.1352
  770MOL0     C 6172   6.553  10.944   5.767  0.9870  1.0251 -0.2382
  770MOL0     N 6173   5.765  10.828   5.445 -0.0614  0.5660  0.2498
  770MOL0     N 6174   5.658  10.772   5.497  0.5530  0.2805  0.7747
  770MOL0     C 6175   6.382  10.634   6.181 -0.5715 -0.1163 -0.7486
  770MOL0     C 6176   6.514  10.669   6.154  0.4222 -0.2468 -0.2210
  770MOL0     C 6177   6.927  10.771   6.211  0.5680  0.7237  0.0571
  770MOL0     C 6178   6.994  10.837   6.315  0.0613  0.6105  0.5277
  770MOL0     C 6179   7.113  10.907   6.294  0.3060  0.0638 -0.0122
  770MOL0     C 6180   7.172  10.907   6.173  0.1640 -0.5765  0.2399
  770MOL0     O 6181   7.299  10.962   6.157 -0.1814 -0.3348  0.5825
  770MOL0     C 6182   7.380  10.942   6.045  0.6308  0.0707 -0.5156
  770MOL0     C 6183   7.515  11.003   6.064 -0.5943  0.0111  0.5024
  770MOL0     C 6184   7.611  10.956   5.955 -0.2130  0.0315  0.4018
  770MOL0     C 6185   7.762  11.003   5.957 -0.2332 -0.3997 -0.4004
  770MOL0     C 6186   7.833  10.930   5.850 -0.0910  0.5003 -0.6787
  770MOL0     C 6187   7.913  10.875   5.782  0.3479  0.1846  0.8112
  770MOL0     C 6188   7.115  10.839   6.070  0.9245  0.0338 -0.6657
  770MOL0     C 6189   6.985  10.777   6.079 -0.7382 -0.1445 -0.1525
  770MOL0     C 6190   6.920  10.707   5.969 -0.4116 -0.7348  0.3100
  770MOL0     H 6191   6.686  10.378   6.222  0.7644  0.1998  0.7068
  770MOL0     H 6192   6.452  10.314   6.280  2.1963 -0.5170  1.7467
  770MOL0     H 6193   6.128  10.494   6.082 -0.3720  1.4785  0.4283
  770MOL0     H 6194   6.103  10.612   6.205 -0.7828 -0.0377  0.1526
  770MOL0     H 6195   5.992  10.328   6.240  1.2818 -0.2993  0.3419
  770MOL0     H 6196   5.969  10.472   6.339  0.8509  3.1765 -0.1836
  770MOL0     H 6197   5.768  10.488   6.210  0.4868 -1.2111  1.3182
  770MOL0     H 6198   5.874  10.599   6.134  1.1279 -0.0730  0.4555
  770MOL0     H 6199   5.939  10.408   5.955  0.1516 -3.3541 -0.4153
  770MOL0     H 6200   5.825  10.304   6.029 -0.6972 -0.8596 -0.7136
  770MOL0     H 6201   5.641  10.452   6.006  2.0126 -1.5033  2.1791
  770MOL0     H 6202   5.716  10.400   5.856  2.8797 -0.2023 -0.7121
  770MOL0     H 6203   5.717  10.696   5.957  1.8424  1.1883 -0.4826
  770MOL0     H 6204   5.806  10.633   5.817  1.8621  0.6127  1.6005
  770MOL0     H 6205   5.510  10.586   5.852 -0.1426 -1.0545 -1.2281
  770MOL0     H 6206   5.610  10.538   5.713  0.9927  0.1030 -0.0945
  770MOL0     H 6207   5.469  10.736   5.678  1.3701 -0.5778 -2.3237
  770MOL0     H 6208   5.562  10.813   5.810  3.0153 -0.0191  0.4165
  770MOL0     H 6209   5.792  10.907   5.769 -1.3309 -0.1801 -0.0190
  770MOL0     H 6210   5.929  11.069   5.563 -0.2651 -1.2162  2.3385
  770MOL0     H 6211   5.945  10.987   5.412  0.1716 -1.6021  0.0023
  770MOL0     H 6212   6.093  10.805   5.494 -3.9462 -0.3675  0.5248
  770MOL0     H 6213   6.154  10.968   5.482  1.7850  2.7843  3.9669
  770MOL0     H 6214   6.066  10.960   5.752 -0.9154 -1.1396  0.1259
  770MOL0     H 6215   6.091  10.795   5.727 -1.2618  0.7712  0.8543
  770MOL0     H 6216   6.323  10.819   5.663  0.6739 -1.0245  1.4237
  770MOL0     H 6217   6.305  11.006   5.662  1.3867  0.3642  3.4633
  770MOL0     H 6218   6.419  10.989   6.068 -1.2190 -1.3265 -1.2785
  770MOL0     H 6219   6.644  11.184   6.163 -0.2708  0.1240 -0.6410
  770MOL0     H 6220   6.744  11.040   6.209  0.1177  0.2624 -0.4184
  770MOL0     H 6221   6.571  11.037   6.228  1.8040  0.9329  0.9281
  770MOL0     H 6222   7.109  11.255   5.974  0.2286  1.0865 -1.2034
  770MOL0     H 6223   7.334  11.306   5.920  1.3975 -0.4972  0.7630
  770MOL0     H 6224   7.557  11.043   5.599  0.7549  0.0803  1.1360
  770MOL0     H 6225   7.505  11.192   5.511 -0.0648 -0.4988 -0.4911
  770MOL0     H 6226   7.706  11.304   5.612  3.1956  0.5094  2.6042
  770MOL0     H 6227   7.727  11.176   5.732 -0.3540 -2.7648  0.1845
  770MOL0     H 6228   7.751  11.145   5.421 -0.4102 -4.4768 -1.2266
  770MOL0     H 6229   7.768  11.010   5.534  2.2180  0.0498  0.6835
  770MOL0     H 6230   7.966  11.069   5.592 -0.9104 -2.4483 -0.7024
  770MOL0     H 6231   7.971  11.238   5.536  0.3187  0.0441 -0.0899
  770MOL0     H 6232   8.098  11.081   5.408 -0.3803  0.9722  3.3480
  770MOL0     H 6233   7.948  11.017   5.334 -1.0300  1.5444 -2.2621
  770MOL0     H 6234   8.057  11.298   5.325 -0.2219 -0.3573  0.1096
  770MOL0     H 6235   7.897  11.253   5.267  0.9621 -0.6474  0.1200
  770MOL0     H 6236   8.055  11.248   5.073 -1.4684 -1.1499 -0.9733
  770MOL0     H 6237   8.031  11.074   5.112 -2.6290  0.0157  0.0829
  770MOL0     H 6238   8.260  11.099   5.071 -1.5359  0.3292 -0.9547
  770MOL0     H 6239   8.237  11.058   5.243 -0.2731 -0.5734 -0.3157
  770MOL0     H 6240   7.332  11.040   5.595  3.6722 -0.9759  2.2730
  770MOL0     H 6241   7.091  10.985   5.653 -1.6831 -1.2197  2.5519
  770MOL0     H 6242   6.745  10.989   5.703 -1.6627 -2.0254 -1.3209
  770MOL0     H 6243   6.529  10.929   5.662  0.5367  2.5880 -0.3889
  770MOL0     H 6244   6.293  10.696   6.187 -1.8666 -2.0244  1.6630
  770MOL0     H 6245   6.550  10.769   6.130  1.4460 -1.0963 -2.6203
  770MOL0     H 6246   6.959  10.824   6.417 -1.9587  1.8286  0.0462
  770MOL0     H 6247   7.166  10.962   6.371 -0.1053 -0.7160  0.8390
  770MOL0     H 6248   7.394  10.837   6.020 -1.0700 -0.0099 -1.2086
  770MOL0     H 6249   7.330  10.993   5.962 -1.5518 -2.2845 -0.7724
  770MOL0     H 6250   7.556  10.981   6.164 -2.2659  2.2139  1.7631
  770MOL0     H 6251   7.511  11.112   6.055 -1.1561  0.2527  2.8369
  770MOL0     H 6252   7.603  10.847   5.956  0.7847 -0.0678 -0.6380
  770MOL0     H 6253   7.578  10.996   5.858  0.9357 -0.5566 -0.2520
  770MOL0     H 6254   7.815  10.964   6.044 -1.5367  0.4250  0.8057
  770MOL0     H 6255   7.769  11.112   5.959  3.9628 -0.4959  1.9529
  770MOL0     H 6256   7.988  10.828   5.723  2.5283  3.5137  0.6335
  770MOL0     H 6257   7.166  10.839   5.974  2.1796 -3.6207 -0.1436
  770MOL0     H 6258   6.972  10.730   5.876  0.4585 -0.7776  0.7707
  770MOL0     H 6259   6.921  10.597   5.973  2.2212 -1.0135 -3.4403
  770MOL0     H 6260   6.817  10.741   5.955  0.6243  2.4735 -0.2103
  771MOL0     O 6261   5.645   7.595  10.522 -0.6555  0.1084 -0.4726
  771MOL0     C 6262   5.670   7.484  10.465  0.3042  0.0240 -0.5135
  771MOL0     O 6263   5.800   7.430  10.459  0.4122 -0.0492 -0.1314
  771MOL0     C 6264   5.913   7.499  10.496  0.6658 -0.2680 -1.0647
  771MOL0     C 6265   6.024   7.418  10.502 -0.8783 -0.3336  0.4436
  771MOL0     C 6266   6.155   7.462  10.538 -0.0667  0.1605  0.5358
  771MOL0     C 6267   6.177   7.603  10.567  0.7608 -0.9305  0.0960
  771MOL0     O 6268   6.291   7.674  10.601  0.6810 -0.7634  0.3191
  771MOL0     C 6269   6.413   7.620  10.622 -0.6192 -0.1601  0.8047
  771MOL0     C 6270   6.423   7.548  10.756 -0.8294 -1.0383  0.4126
  771MOL0     C 6271   6.560   7.498  10.782 -0.2191  0.6206  0.3481
  771MOL0     C 6272   6.636   7.423  10.665 -0.2284 -0.2031 -0.5942
  771MOL0     C 6273   6.770   7.370  10.718  0.2181  0.1172 -0.0131
  771MOL0     C 6274   6.873   7.470  10.757  0.2942 -0.2872 -0.0351
  771MOL0     C 6275   6.978   7.390  10.834  0.0527 -0.1402  0.5483
  771MOL0     C 6276   7.074   7.492  10.884  0.1409  0.1514 -0.2686
  771MOL0     N 6277   7.159   7.537  10.779 -0.5001  0.1053 -0.4357
  771MOL0     C 6278   7.195   7.674  10.751  0.2659  0.2148  0.1435
  771MOL0     C 6279   7.283   7.661  10.652  1.0794 -0.1333  0.4364
  771MOL0     C 6280   7.343   7.768  10.555 -0.3288 -0.4288 -0.6610
  771MOL0     C 6281   7.489   7.802  10.596 -1.2863 -0.6378 -0.0719
  771MOL0     C 6282   7.538   7.927  10.521  0.7285 -0.5038  0.7377
  771MOL0     C 6283   7.678   7.973  10.546  0.2215  0.5111  0.4607
  771MOL0     O 6284   7.782   7.911  10.455  0.5096  0.4877 -0.4449
  771MOL0     C 6285   7.897   7.960  10.422 -0.0613 -0.3432 -0.1853
  771MOL0     C 6286   7.959   7.916  10.309  0.4593  0.0575 -0.9040
  771MOL0     C 6287   8.080   7.975  10.271 -0.0081  0.1888 -0.1334
  771MOL0     C 6288   8.160   7.899  10.162  0.0648  0.3860  0.5107
  771MOL0     C 6289   8.133   8.091  10.333 -0.3661 -0.4827  1.0321
  771MOL0     C 6290   8.258   8.161  10.279  0.7033 -0.0779 -0.3587
  771MOL0     O 6291   8.331   8.224  10.377  0.4144 -0.1502  0.1739
  771MOL0     C 6292   8.453   8.271  10.333 -0.0220  0.4445 -0.4348
  771MOL0     C 6293   8.446   8.403  10.282  0.0303  0.8823  0.0186
  771MOL0     C 6294   8.563   8.471  10.246  0.9209  1.2470 -0.3391
  771MOL0     C 6295   8.690   8.418  10.267 -0.1002 -0.1079 -0.6966
  771MOL0     O 6296   8.805   8.484  10.255 -0.0977 -0.8088 -0.7227
  771MOL0     C 6297   8.802   8.625  10.294  0.6806 -0.3410  0.0922
  771MOL0     C 6298   8.930   8.663  10.365 -0.9926  0.5197  0.0280
  771MOL0     C 6299   9.049   8.646  10.269  0.0053 -0.0918 -0.6793
  771MOL0     C 6300   9.177   8.632  10.354  0.3041 -0.3116  0.1884
  771MOL0     C 6301   9.307   8.664  10.277 -0.1365  0.3624  0.0147
  771MOL0     C 6302   9.430   8.628  10.349  0.5226 -0.6359 -0.0987
  771MOL0     C 6303   9.553   8.657  10.272 -0.0843 -0.9938  0.1347
  771MOL0     C 6304   9.676   8.583  10.321  0.3971 -0.0004 -0.2359
  771MOL0    Cl 6305   9.671   8.402  10.310  0.1424  0.3569 -0.1983
  771MOL0     C 6306   8.696   8.281  10.298  0.0343  0.1161  0.1747
  771MOL0     C 6307   8.576   8.207  10.333 -0.7829 -0.8802  0.0397
  771MOL0     O 6308   8.290   8.153  10.163 -0.2748 -0.0336 -0.1107
  771MOL0     C 6309   8.065   8.142  10.437  0.5270  0.9199 -0.1691
  771MOL0     C 6310   7.946   8.080  10.475  0.0801 -0.0121  0.1370
  771MOL0     N 6311   7.305   7.524  10.630 -0.1676 -0.3126  0.6490
  771MOL0     N 6312   7.232   7.452  10.702 -0.1680 -0.4665  0.2762
  771MOL0     C 6313   6.065   7.686  10.563 -0.3013 -0.2272 -0.1517
  771MOL0     C 6314   5.934   7.637  10.530  0.0951 -0.0421 -1.3622
  771MOL0     C 6315   5.567   7.417  10.389  0.0433 -0.4079  0.4037
  771MOL0     C 6316   5.446   7.481  10.365  0.6865 -0.0960 -0.3185
  771MOL0     C 6317   5.337   7.420  10.303  0.1993  0.1856  0.1866
  771MOL0     C 6318   5.349   7.292  10.259  0.0683 -0.1243 -0.9233
  771MOL0     O 6319   5.248   7.225  10.191 -0.4371 -0.1929 -0.0610
  771MOL0     C 6320   5.113   7.240  10.239  0.5595 -1.1894  0.8320
  771MOL0     C 6321   5.021   7.160  10.147  0.4948  1.1076 -0.9783
  771MOL0     C 6322   4.879   7.163  10.190 -0.0573 -0.5280 -0.3641
  771MOL0     C 6323   4.788   7.079  10.093 -0.5217 -0.2413  0.1688
  771MOL0     C 6324   4.648   7.087  10.135 -0.1273 -0.5608  0.0143
  771MOL0     C 6325   4.542   7.091  10.197 -0.5820  1.0751 -1.0014
  771MOL0     C 6326   5.474   7.227  10.268 -0.4095 -0.0934  0.5095
  771MOL0     C 6327   5.575   7.286  10.344 -0.3032  0.1952  0.0513
  771MOL0     C 6328   5.686   7.188  10.371 -0.5403  0.9758  0.1956
  771MOL0     H 6329   6.006   7.314  10.478 -1.8027  0.0494 -0.6037
  771MOL0     H 6330   6.245   7.401  10.533 -0.1541  0.0094  0.7903
  771MOL0     H 6331   6.486   7.700  10.636 -1.3265  0.5123  0.7051
  771MOL0     H 6332   6.440   7.554  10.539 -0.9122  0.0961  0.5025
  771MOL0     H 6333   6.392   7.619  10.833 -0.1886 -0.4874  0.1741
  771MOL0     H 6334   6.353   7.464  10.753 -1.8555 -0.3636  2.9568
  771MOL0     H 6335   6.611   7.594  10.795  0.8333 -0.0074  1.0366
  771MOL0     H 6336   6.570   7.437  10.873 -2.0111 -0.5344 -0.1982
  771MOL0     H 6337   6.573   7.336  10.644 -0.0190 -0.7784  1.0276
  771MOL0     H 6338   6.651   7.485  10.576  0.4200  0.9371  0.2873
  771MOL0     H 6339   6.811   7.302  10.643 -3.6054  0.9073 -3.0923
  771MOL0     H 6340   6.745   7.300  10.799  0.2702 -1.6678 -1.4863
  771MOL0     H 6341   6.918   7.520  10.670  1.1519 -0.0293  0.5391
  771MOL0     H 6342   6.823   7.547  10.817 -0.8064 -0.6041 -0.5146
  771MOL0     H 6343   7.020   7.314  10.767 -0.4124 -1.1532  1.3590
  771MOL0     H 6344   6.934   7.348  10.925 -1.0395  1.1475  0.6457
  771MOL0     H 6345   7.009   7.569  10.925 -0.3729 -1.2689  1.7579
  771MOL0     H 6346   7.139   7.450  10.962  1.8547  0.6125 -1.3871
  771MOL0     H 6347   7.153   7.764  10.795 -2.6484 -0.3503 -1.2184
  771MOL0     H 6348   7.295   7.866  10.566  3.0587  1.2985  0.0784
  771MOL0     H 6349   7.340   7.731  10.452  1.0199 -0.0957 -0.8393
  771MOL0     H 6350   7.495   7.815  10.704  1.2738  0.8653 -0.3301
  771MOL0     H 6351   7.544   7.714  10.561 -2.3174 -1.5359  0.4900
  771MOL0     H 6352   7.532   7.913  10.413  0.6293  0.3670  0.6192
  771MOL0     H 6353   7.462   8.001  10.549 -0.2785 -1.2873  0.1391
  771MOL0     H 6354   7.677   8.081  10.533 -2.1609  0.3345 -1.5978
  771MOL0     H 6355   7.704   7.948  10.649  3.0687 -0.0968 -0.3258
  771MOL0     H 6356   7.923   7.829  10.255  1.4961  0.0908 -1.6758
  771MOL0     H 6357   8.145   7.934  10.059 -1.3641  0.7057  0.8057
  771MOL0     H 6358   8.134   7.793  10.166 -0.6888  0.6043  2.3411
  771MOL0     H 6359   8.267   7.905  10.181  0.4348  1.0434 -1.4974
  771MOL0     H 6360   8.347   8.446  10.270 -1.3134 -1.5974  1.4864
  771MOL0     H 6361   8.560   8.572  10.205  1.1672  1.2106 -0.4436
  771MOL0     H 6362   8.796   8.692  10.208  0.0625 -1.5837 -0.8570
  771MOL0     H 6363   8.723   8.648  10.366  2.5301 -0.9753  2.4657
  771MOL0     H 6364   8.937   8.769  10.389 -0.0396  0.6648 -0.8091
  771MOL0     H 6365   8.946   8.612  10.460  3.4159  0.6499 -0.4247
  771MOL0     H 6366   9.050   8.737  10.208 -1.3860 -0.9699 -2.0897
  771MOL0     H 6367   9.028   8.558  10.207  0.3024  0.5569 -1.7178
  771MOL0     H 6368   9.191   8.533  10.400  0.8473  0.0839  0.9061
  771MOL0     H 6369   9.179   8.708  10.432  0.2361  2.4842 -2.3817
  771MOL0     H 6370   9.309   8.604  10.185  2.9536  1.0014 -0.4493
  771MOL0     H 6371   9.317   8.770  10.255  0.9664  0.2848  0.0959
  771MOL0     H 6372   9.424   8.519  10.360  0.6677 -0.6676 -0.3415
  771MOL0     H 6373   9.422   8.683  10.443 -3.0173  2.1168 -1.7796
  771MOL0     H 6374   9.576   8.764  10.278  0.3523 -1.1699  2.9137
  771MOL0     H 6375   9.536   8.624  10.169  1.5595  0.6636 -0.7292
  771MOL0     H 6376   9.697   8.616  10.423 -0.6743 -3.3336  1.1888
  771MOL0     H 6377   9.758   8.612  10.253 -0.8568 -0.5302 -2.0337
  771MOL0     H 6378   8.791   8.229  10.298  0.4221  0.8097  0.1957
  771MOL0     H 6379   8.589   8.104  10.362 -0.7356 -1.5930 -2.3425
  771MOL0     H 6380   8.099   8.232  10.487 -1.7015  1.4377  0.5333
  771MOL0     H 6381   7.880   8.129  10.545 -1.8180  0.2971 -1.7593
  771MOL0     H 6382   6.078   7.793  10.580  1.1482  0.2501 -3.5699
  771MOL0     H 6383   5.855   7.710  10.527 -0.1796 -0.1881  0.6635
  771MOL0     H 6384   5.426   7.585  10.389 -3.1679 -0.1880 -2.2668
  771MOL0     H 6385   5.240   7.469  10.303 -1.0957 -2.2455 -1.1054
  771MOL0     H 6386   5.096   7.209  10.343 -1.1776 -3.8353 -0.1298
  771MOL0     H 6387   5.085   7.345  10.239 -3.9719 -2.1910  0.3190
  771MOL0     H 6388   5.055   7.056  10.138 -1.9484  0.0317  0.8421
  771MOL0     H 6389   5.033   7.210  10.051 -0.8252  1.8843 -0.7659
  771MOL0     H 6390   4.870   7.118  10.289  2.0103 -3.7977 -1.4991
  771MOL0     H 6391   4.843   7.266  10.187  2.5395  0.4524 -0.5847
  771MOL0     H 6392   4.812   6.974  10.078  1.5663  0.2812 -0.6206
  771MOL0     H 6393   4.785   7.119   9.991 -0.1250 -0.8416 -0.0806
  771MOL0     H 6394   4.459   7.077  10.263  1.9320 -1.3579  1.9287
  771MOL0     H 6395   5.489   7.132  10.219  0.4077  1.2269 -1.9325
  771MOL0     H 6396   5.711   7.184  10.477  0.4743 -1.3931 -0.0599
  771MOL0     H 6397   5.659   7.089  10.331  0.2129  1.0363 -0.5062
  771MOL0     H 6398   5.775   7.213  10.313  0.9966 -2.5737  0.7524
  772MOL0     O 6399  10.430  10.727   2.896 -0.5489  0.4521  0.1651
  772MOL0     C 6400  10.311  10.750   2.878 -0.0598 -0.0399 -0.3838
  772MOL0     O 6401  10.260  10.879   2.860  0.1549  0.4490 -0.4477
  772MOL0     C 6402  10.344  10.985   2.861  0.1089  0.1496 -0.6467
  772MOL0     C 6403  10.467  10.989   2.791 -0.1140  0.0989  0.8040
  772MOL0     C 6404  10.532  11.107   2.775  0.4946 -0.6514  0.2566
  772MOL0     C 6405  10.484  11.222   2.835 -0.6589 -0.1322  0.2699
  772MOL0     O 6406  10.556  11.332   2.826 -0.3920 -0.5662  0.1047
  772MOL0     C 6407  10.600  11.373   2.954 -0.3353 -0.2272 -0.1986
  772MOL0     C 6408  10.731  11.456   2.939  0.0389  0.4735  0.3930
  772MOL0     C 6409  10.854  11.369   2.943  0.2438  0.4071  0.1588
  772MOL0     C 6410  10.981  11.451   2.940 -0.3881 -0.6941 -0.7507
  772MOL0     C 6411  11.114  11.373   2.903 -0.0131 -0.4641 -0.6366
  772MOL0     C 6412  11.187  11.337   3.038  0.6420 -0.4649 -0.3317
  772MOL0     C 6413  11.332  11.277   3.029  0.0026  0.5849 -0.0860
  772MOL0     C 6414  11.340  11.177   2.920  0.3153 -0.9642 -0.0589
  772MOL0     N 6415  11.465  11.095   2.930  0.1607  0.7628  0.0493
  772MOL0     C 6416  11.599  11.127   2.893  0.1363  0.3762  0.9258
  772MOL0     C 6417  11.657  11.003   2.889  0.0008 -0.3677 -0.6245
  772MOL0     C 6418  11.803  10.977   2.858 -0.7920  0.0615 -0.2408
  772MOL0     C 6419  11.825  10.835   2.827 -0.3185  0.1856 -0.0481
  772MOL0     C 6420  11.982  10.795   2.816 -0.3794 -0.2287 -0.5911
  772MOL0     C 6421  12.067  10.850   2.931  1.0719  0.0525  0.1810
  772MOL0     O 6422  12.196  10.808   2.905  0.3230 -0.2764  0.0211
  772MOL0     C 6423  12.299  10.855   2.982 -0.6814 -0.0297 -0.2634
  772MOL0     C 6424  12.419  10.789   2.978  0.5660 -0.2433 -0.0179
  772MOL0     C 6425  12.530  10.825   3.040 -1.0265  0.1362 -0.6017
  772MOL0     C 6426  12.653  10.746   3.011  0.5376  0.0796  0.0518
  772MOL0     C 6427  12.542  10.944   3.114 -1.1597 -0.3076 -0.3751
  772MOL0     C 6428  12.664  11.004   3.169 -0.6878  0.0083  0.3450
  772MOL0     O 6429  12.772  10.930   3.190  0.2432  0.3700  0.0042
  772MOL0     C 6430  12.900  10.971   3.174  0.1623  0.5520 -0.1817
  772MOL0     C 6431  12.945  11.101   3.159 -0.1749  0.6618  0.6445
  772MOL0     C 6432  13.085  11.118   3.178 -0.5976 -0.3296  0.5673
  772MOL0     C 6433  13.179  11.019   3.185 -0.8279  0.4170 -0.4398
  772MOL0     O 6434  13.310  11.058   3.191  0.1447  0.2712  0.8434
  772MOL0     C 6435  13.408  10.964   3.231 -0.8097 -1.1340  0.4216
  772MOL0     C 6436  13.546  11.025   3.198  0.1525 -0.2997  0.0917
  772MOL0     C 6437  13.584  11.147   3.277  0.3329 -0.8191 -0.2790
  772MOL0     C 6438  13.723  11.206   3.256 -1.4480  0.0010  0.2846
  772MOL0     C 6439  13.755  11.348   3.319  0.3951 -0.5896 -1.0247
  772MOL0     C 6440  13.907  11.370   3.326 -0.4487 -0.0535 -0.1195
  772MOL0     C 6441  13.952  11.497   3.400  0.4049 -0.1529  0.1225
  772MOL0     C 6442  13.953  11.614   3.297 -1.1124  0.1275 -0.6888
  772MOL0    Cl 6443  14.040  11.742   3.397  0.3513  0.0224  0.0597
  772MOL0     C 6444  13.132  10.887   3.191 -0.9801 -0.1036  0.5214
  772MOL0     C 6445  12.995  10.868   3.196 -0.0959 -0.7650 -0.5711
  772MOL0     O 6446  12.658  11.123   3.200 -0.7035 -0.1258  0.1011
  772MOL0     C 6447  12.419  11.007   3.125  0.1622  0.5686  0.8370
  772MOL0     C 6448  12.306  10.968   3.063 -0.6994  0.1470  0.6376
  772MOL0     N 6449  11.560  10.905   2.914  0.0749  0.1658  1.2108
  772MOL0     N 6450  11.455  10.957   2.934  0.7917  1.3168  0.0446
  772MOL0     C 6451  10.361  11.226   2.893  0.2289  0.0346 -0.9636
  772MOL0     C 6452  10.286  11.103   2.908 -0.3179 -0.3134 -0.1103
  772MOL0     C 6453  10.220  10.639   2.877  0.3616 -0.8742 -0.7090
  772MOL0     C 6454  10.087  10.675   2.863  0.8377  0.5823  0.1042
  772MOL0     C 6455   9.993  10.568   2.856  0.5723 -0.2112 -0.6009
  772MOL0     C 6456  10.019  10.433   2.862  1.0262  0.5866 -0.0472
  772MOL0     O 6457   9.926  10.331   2.862  0.6859  0.3567  0.7409
  772MOL0     C 6458   9.789  10.375   2.841  0.3612  0.4621 -0.3771
  772MOL0     C 6459   9.702  10.250   2.845 -0.7192 -0.1093 -1.0476
  772MOL0     C 6460   9.561  10.271   2.790 -0.4149  0.0972 -0.6237
  772MOL0     C 6461   9.487  10.134   2.787  0.2013 -0.4041 -0.5853
  772MOL0     C 6462   9.351  10.160   2.764  0.1919 -0.6354  0.0952
  772MOL0     C 6463   9.242  10.187   2.724  0.4605  0.1506  0.1982
  772MOL0     C 6464  10.151  10.397   2.873 -0.0590 -0.9413 -0.3805
  772MOL0     C 6465  10.247  10.505   2.871  0.9522  0.5522 -0.6609
  772MOL0     C 6466  10.386  10.456   2.881 -0.8046  0.2524  0.4019
  772MOL0     H 6467  10.508  10.902   2.740  1.8966  1.3142  0.2440
  772MOL0     H 6468  10.630  11.107   2.729  0.2145  0.5427 -0.3895
  772MOL0     H 6469  10.602  11.288   3.023 -1.2123 -0.4938 -0.4817
  772MOL0     H 6470  10.526  11.442   2.995 -0.5903  0.1431 -1.2542
  772MOL0     H 6471  10.730  11.521   2.851 -2.1649 -3.1219 -2.5462
  772MOL0     H 6472  10.741  11.527   3.022  2.8804 -0.5699  1.0687
  772MOL0     H 6473  10.866  11.309   3.034  1.1658 -1.2044 -0.9656
  772MOL0     H 6474  10.852  11.284   2.874 -1.2853 -0.8298  1.6496
  772MOL0     H 6475  10.976  11.543   2.880  2.0441  0.4446  0.6415
  772MOL0     H 6476  10.987  11.496   3.040  1.7563  0.2977 -1.2545
  772MOL0     H 6477  11.175  11.425   2.829 -1.3256  1.7359 -0.2437
  772MOL0     H 6478  11.085  11.283   2.847 -0.5126 -0.3652 -0.5404
  772MOL0     H 6479  11.194  11.429   3.099 -0.9632 -0.6113  0.1249
  772MOL0     H 6480  11.122  11.271   3.096 -0.5759 -0.2260 -1.3941
  772MOL0     H 6481  11.359  11.230   3.124  1.7992 -0.7663 -1.1770
  772MOL0     H 6482  11.406  11.353   3.004  1.0394 -0.3074  0.1820
  772MOL0     H 6483  11.252  11.112   2.918  1.3674 -2.4201 -1.2692
  772MOL0     H 6484  11.342  11.222   2.820 -1.0711 -0.8634 -0.0608
  772MOL0     H 6485  11.637  11.227   2.878 -1.6025  0.9439  0.0468
  772MOL0     H 6486  11.862  11.021   2.938  0.2468 -1.1226 -0.3209
  772MOL0     H 6487  11.835  11.031   2.769  1.5402 -0.8680 -0.0475
  772MOL0     H 6488  11.803  10.779   2.919  1.3916  0.3517  0.4855
  772MOL0     H 6489  11.759  10.796   2.749  0.6261 -1.6011 -0.0182
  772MOL0     H 6490  11.989  10.688   2.794 -1.6632 -0.9872  2.2115
  772MOL0     H 6491  12.023  10.839   2.725 -1.5350 -0.4147 -1.2293
  772MOL0     H 6492  12.051  10.959   2.929  0.2938 -0.0459  0.5720
  772MOL0     H 6493  12.038  10.814   3.030 -0.1195 -3.5428 -1.3272
  772MOL0     H 6494  12.426  10.709   2.906  0.9224 -1.3048  1.1687
  772MOL0     H 6495  12.641  10.656   2.949  1.2608  0.0398 -0.0304
  772MOL0     H 6496  12.706  10.711   3.100  0.0212  0.9720  0.7276
  772MOL0     H 6497  12.726  10.804   2.955  1.6224 -1.7997 -0.5587
  772MOL0     H 6498  12.883  11.185   3.130  2.2191  2.2502 -0.0866
  772MOL0     H 6499  13.121  11.221   3.170 -1.2135 -0.1950 -0.7689
  772MOL0     H 6500  13.405  10.952   3.339  4.8428  0.6777  1.0938
  772MOL0     H 6501  13.400  10.872   3.172 -0.3488  0.6649 -2.7009
  772MOL0     H 6502  13.625  10.949   3.199 -0.0148 -0.5065 -1.1519
  772MOL0     H 6503  13.536  11.062   3.096  0.1422  2.6248  1.0536
  772MOL0     H 6504  13.570  11.129   3.384 -1.5228 -0.3918 -0.4236
  772MOL0     H 6505  13.504  11.217   3.252  0.2363 -0.7293  0.2621
  772MOL0     H 6506  13.749  11.206   3.149  1.7045 -0.7497  0.9490
  772MOL0     H 6507  13.796  11.136   3.298  2.3900  1.5460 -3.1491
  772MOL0     H 6508  13.702  11.426   3.265  1.8812  1.5826  0.4960
  772MOL0     H 6509  13.721  11.357   3.422 -0.9134  0.3023 -1.5093
  772MOL0     H 6510  13.947  11.362   3.224 -0.6810  0.5222 -0.2595
  772MOL0     H 6511  13.962  11.287   3.371 -0.0930  1.0852  1.6788
  772MOL0     H 6512  14.056  11.484   3.434  0.1456 -0.4761  0.8117
  772MOL0     H 6513  13.891  11.541   3.479 -0.6864  1.3571 -1.4914
  772MOL0     H 6514  13.860  11.663   3.268  0.2724  2.0297 -2.1378
  772MOL0     H 6515  14.022  11.592   3.215  0.0036 -0.0645  0.2555
  772MOL0     H 6516  13.200  10.802   3.189 -0.8055 -0.0597  2.5169
  772MOL0     H 6517  12.959  10.769   3.224  0.1320 -0.0115  2.8155
  772MOL0     H 6518  12.409  11.093   3.190 -0.2769  0.0251  1.5056
  772MOL0     H 6519  12.216  11.026   3.083 -1.1042 -0.8640  1.8232
  772MOL0     H 6520  10.324  11.322   2.927  1.1512  1.4561 -3.7149
  772MOL0     H 6521  10.188  11.109   2.955  0.1117  1.9187  0.6042
  772MOL0     H 6522  10.032  10.768   2.860 -0.9732 -0.4100  1.0686
  772MOL0     H 6523   9.892  10.605   2.841  1.0016  1.2402 -0.0666
  772MOL0     H 6524   9.762  10.443   2.923 -3.5435  2.1537 -2.8121
  772MOL0     H 6525   9.780  10.417   2.741 -0.7232 -1.4749 -1.1443
  772MOL0     H 6526   9.687  10.230   2.952 -1.3095 -0.2211 -1.1514
  772MOL0     H 6527   9.759  10.168   2.800  1.3065 -0.8680  2.4944
  772MOL0     H 6528   9.504  10.339   2.854 -0.0081  0.7657 -0.9587
  772MOL0     H 6529   9.560  10.318   2.691  2.1213 -3.2555 -2.4345
  772MOL0     H 6530   9.493  10.080   2.883 -1.0175  2.4024  1.1849
  772MOL0     H 6531   9.509  10.067   2.704  0.2471 -3.5434  1.7399
  772MOL0     H 6532   9.151  10.218   2.678 -1.5588 -3.4571  1.3361
  772MOL0     H 6533  10.185  10.294   2.875 -1.7517 -1.5174  0.1151
  772MOL0     H 6534  10.448  10.486   2.796 -0.5781 -3.4938 -0.9361
  772MOL0     H 6535  10.425  10.473   2.982 -0.7194 -3.8995  1.2723
  772MOL0     H 6536  10.390  10.348   2.865  1.5728  0.4834 -1.0526
  773MOL0     O 6537   3.089   9.700   6.666 -0.1137 -0.0347 -0.8730
  773MOL0     C 6538   3.143   9.587   6.661 -0.3194  0.4386  0.7156
  773MOL0     O 6539   3.085   9.471   6.618 -0.3453  0.6509  0.2499
  773MOL0     C 6540   2.960   9.476   6.574  0.1977 -0.6985  0.4423
  773MOL0     C 6541   2.882   9.381   6.649 -1.0085  0.4362 -0.4337
  773MOL0     C 6542   2.748   9.355   6.600 -0.2038  0.6626 -0.1229
  773MOL0     C 6543   2.696   9.420   6.479  0.6784  0.2324  0.0014
  773MOL0     O 6544   2.580   9.384   6.422  0.0890  0.2586 -0.6957
  773MOL0     C 6545   2.476   9.343   6.515  0.2875  0.0546 -0.6513
  773MOL0     C 6546   2.358   9.311   6.434  0.8318  0.3492 -0.5048
  773MOL0     C 6547   2.244   9.274   6.529  0.2395  0.0417 -0.3508
  773MOL0     C 6548   2.117   9.264   6.452 -0.0805 -0.9690 -0.8267
  773MOL0     C 6549   2.003   9.230   6.545  0.4789  1.0203  0.0782
  773MOL0     C 6550   1.875   9.222   6.462  0.1579  0.4310 -0.0387
  773MOL0     C 6551   1.756   9.228   6.556  0.6886 -0.0178 -0.4243
  773MOL0     C 6552   1.738   9.113   6.650  0.0842  0.8881  0.1600
  773MOL0     N 6553   1.646   9.130   6.758 -0.2667 -0.2686 -0.2799
  773MOL0     C 6554   1.649   9.175   6.885  0.0603 -0.2354 -0.2846
  773MOL0     C 6555   1.522   9.155   6.938  0.1546 -0.7181 -0.2945
  773MOL0     C 6556   1.463   9.197   7.069  1.3011 -0.1379  0.1203
  773MOL0     C 6557   1.348   9.311   7.070 -0.3075  0.2974 -0.3242
  773MOL0     C 6558   1.391   9.451   7.115  0.5937  0.2212  0.1299
  773MOL0     C 6559   1.439   9.464   7.259 -0.6248  0.8937  0.0139
  773MOL0     O 6560   1.474   9.593   7.306  0.0486  0.3066  0.8934
  773MOL0     C 6561   1.617   9.608   7.299  0.3931 -0.5965  0.6784
  773MOL0     C 6562   1.675   9.701   7.392 -0.0219 -0.9163  0.3911
  773MOL0     C 6563   1.810   9.727   7.406 -0.4846 -0.4340 -0.1395
  773MOL0     C 6564   1.851   9.835   7.510  0.2834 -0.7648  0.5832
  773MOL0     C 6565   1.902   9.653   7.325  0.5695 -0.3659 -0.1998
  773MOL0     C 6566   2.049   9.663   7.349 -0.3653  0.9251 -0.2870
  773MOL0     O 6567   2.077   9.691   7.479 -0.1821 -0.2937  0.1217
  773MOL0     C 6568   2.202   9.716   7.513 -0.5011  1.1676 -0.9187
  773MOL0     C 6569   2.295   9.617   7.556 -0.1807 -0.5485 -0.3439
  773MOL0     C 6570   2.423   9.656   7.598  0.3874 -0.9454 -0.3833
  773MOL0     C 6571   2.471   9.789   7.588 -0.3238 -0.5434 -0.3588
  773MOL0     O 6572   2.590   9.836   7.645 -0.2501 -0.0342 -0.1928
  773MOL0     C 6573   2.687   9.749   7.712 -0.0663  0.6552  0.2171
  773MOL0     C 6574   2.784   9.701   7.610  0.0089 -0.3333 -0.7587
  773MOL0     C 6575   2.894   9.804   7.593  0.5822 -0.9924  0.4337
  773MOL0     C 6576   3.011   9.796   7.694  0.0874  0.0616  0.0662
  773MOL0     C 6577   3.114   9.897   7.660 -0.6169 -0.8114  0.7752
  773MOL0     C 6578   3.225   9.935   7.772 -0.2214  0.2538 -0.1077
  773MOL0     C 6579   3.302  10.070   7.737  0.1548  0.1320 -0.4836
  773MOL0     C 6580   3.397  10.120   7.846  1.1320 -0.9180 -0.2220
  773MOL0    Cl 6581   3.495  10.244   7.779  0.0849 -0.2016  0.0889
  773MOL0     C 6582   2.373   9.887   7.550 -0.4415 -0.0982 -0.0600
  773MOL0     C 6583   2.248   9.850   7.513  0.5374  0.3788 -0.0453
  773MOL0     O 6584   2.127   9.626   7.262 -0.1744 -0.1769  0.0836
  773MOL0     C 6585   1.852   9.565   7.226 -1.1305  0.0498 -1.2850
  773MOL0     C 6586   1.708   9.542   7.212  0.1160  0.1897  0.1292
  773MOL0     N 6587   1.448   9.097   6.834  0.0861  0.2740  0.3528
  773MOL0     N 6588   1.521   9.095   6.731 -0.2061  0.1208  0.0915
  773MOL0     C 6589   2.767   9.520   6.430 -0.1736  0.0017  0.3653
  773MOL0     C 6590   2.904   9.552   6.471  0.3495 -0.0955  1.2555
  773MOL0     C 6591   3.291   9.585   6.684 -0.5153  0.0316 -0.5162
  773MOL0     C 6592   3.384   9.505   6.619  1.0486  0.7326 -0.3500
  773MOL0     C 6593   3.518   9.501   6.640 -0.4608 -0.5844  0.9188
  773MOL0     C 6594   3.569   9.592   6.722 -0.6033 -0.3963 -0.1457
  773MOL0     O 6595   3.705   9.595   6.733  0.1853  0.5718  0.0732
  773MOL0     C 6596   3.771   9.673   6.837 -0.3696  0.2224  0.3747
  773MOL0     C 6597   3.912   9.627   6.851  0.2525  0.2296 -0.4650
  773MOL0     C 6598   3.939   9.487   6.913  0.0537 -0.3275  1.1397
  773MOL0     C 6599   3.891   9.472   7.064 -0.0107 -0.2395  0.3958
  773MOL0     C 6600   3.746   9.458   7.082  0.0351 -0.2292 -0.1951
  773MOL0     C 6601   3.629   9.424   7.093 -0.2987 -0.0913 -0.0504
  773MOL0     C 6602   3.487   9.684   6.792  0.4013 -0.0226 -0.5085
  773MOL0     C 6603   3.347   9.677   6.784  1.0709 -0.4893  0.4598
  773MOL0     C 6604   3.254   9.769   6.871 -0.2212 -0.2337 -0.4592
  773MOL0     H 6605   2.925   9.329   6.733 -1.2756  2.5565  1.0842
  773MOL0     H 6606   2.686   9.286   6.657  0.6288  0.4964  0.5995
  773MOL0     H 6607   2.449   9.419   6.589 -0.6532 -1.1984  0.3352
  773MOL0     H 6608   2.489   9.259   6.584 -2.4437  1.1034  1.3171
  773MOL0     H 6609   2.333   9.395   6.368  1.5779  1.3572  0.4475
  773MOL0     H 6610   2.390   9.225   6.374  0.8980 -1.5444  2.0889
  773MOL0     H 6611   2.251   9.179   6.583 -0.5126 -0.9687 -1.9508
  773MOL0     H 6612   2.232   9.358   6.598 -0.7321  0.3516 -0.8879
  773MOL0     H 6613   2.096   9.358   6.400 -0.8034  0.2143  1.4580
  773MOL0     H 6614   2.137   9.188   6.375 -2.2601 -2.6818  0.1678
  773MOL0     H 6615   1.996   9.301   6.628  1.4698  0.0301  1.0498
  773MOL0     H 6616   2.024   9.127   6.576 -0.8300  0.8042  0.3127
  773MOL0     H 6617   1.857   9.316   6.409 -1.3677 -0.7585 -1.7726
  773MOL0     H 6618   1.872   9.135   6.395  0.0988  1.0675 -0.8846
  773MOL0     H 6619   1.664   9.245   6.499  0.5800  0.5817 -0.0805
  773MOL0     H 6620   1.773   9.321   6.610  2.5047 -0.4010 -0.2728
  773MOL0     H 6621   1.693   9.034   6.590 -2.3785 -0.1657  3.1251
  773MOL0     H 6622   1.829   9.068   6.691 -0.4263 -0.6310 -0.3121
  773MOL0     H 6623   1.735   9.217   6.936 -0.1491  1.7656 -1.4954
  773MOL0     H 6624   1.550   9.227   7.128  1.0817  2.0551 -0.5615
  773MOL0     H 6625   1.417   9.116   7.127  2.1201  1.0783  2.6277
  773MOL0     H 6626   1.306   9.321   6.969  2.1372 -0.1101 -1.4422
  773MOL0     H 6627   1.267   9.288   7.140 -1.0508  2.0411 -0.5580
  773MOL0     H 6628   1.472   9.482   7.049 -1.0521  0.8469 -1.6789
  773MOL0     H 6629   1.308   9.517   7.087  0.3428 -1.1856 -2.7867
  773MOL0     H 6630   1.360   9.424   7.324  0.0617 -0.7811 -0.1474
  773MOL0     H 6631   1.523   9.396   7.272 -0.2653  1.3459  0.0611
  773MOL0     H 6632   1.605   9.748   7.461 -2.8942 -0.6048 -2.4595
  773MOL0     H 6633   1.888   9.781   7.598  0.0385 -1.9549 -0.0174
  773MOL0     H 6634   1.770   9.900   7.544 -0.3124 -1.7975  1.2194
  773MOL0     H 6635   1.925   9.902   7.465 -1.1733 -0.1586 -0.9984
  773MOL0     H 6636   2.266   9.512   7.557 -0.5531 -0.5657 -3.4351
  773MOL0     H 6637   2.496   9.585   7.635  0.4311  0.5217  2.6747
  773MOL0     H 6638   2.741   9.802   7.791  2.1556  0.8031 -1.3345
  773MOL0     H 6639   2.632   9.665   7.756  0.3182 -0.1275 -0.7513
  773MOL0     H 6640   2.819   9.598   7.624 -2.0527 -0.7427  2.3898
  773MOL0     H 6641   2.731   9.696   7.514  1.6790 -0.3481 -1.7205
  773MOL0     H 6642   2.850   9.903   7.607 -0.5264 -0.8110 -3.2698
  773MOL0     H 6643   2.935   9.806   7.492  3.3827 -2.0867  1.4713
  773MOL0     H 6644   3.056   9.696   7.690 -0.7106 -0.2896 -3.7089
  773MOL0     H 6645   2.981   9.813   7.798 -2.3752 -3.4238  0.0880
  773MOL0     H 6646   3.158   9.851   7.571 -3.3242 -0.4221 -0.8772
  773MOL0     H 6647   3.059   9.987   7.629  1.8803  1.6436  2.8759
  773MOL0     H 6648   3.297   9.852   7.780 -0.2290  0.3954  1.9914
  773MOL0     H 6649   3.186   9.957   7.872  1.2047  0.8055  0.3617
  773MOL0     H 6650   3.224  10.146   7.730 -0.7244 -0.5616  1.2539
  773MOL0     H 6651   3.346  10.055   7.637 -1.0221 -1.3603 -0.8173
  773MOL0     H 6652   3.465  10.043   7.883  1.7929 -1.0594 -1.6774
  773MOL0     H 6653   3.341  10.161   7.931 -0.0693 -0.5996 -1.1294
  773MOL0     H 6654   2.411   9.988   7.555 -0.2249 -0.2124  0.8710
  773MOL0     H 6655   2.176   9.920   7.472  0.4891 -1.4310 -3.3858
  773MOL0     H 6656   1.921   9.520   7.156  0.8692  0.8470  0.0864
  773MOL0     H 6657   1.668   9.472   7.140 -2.0656  2.4676 -1.0273
  773MOL0     H 6658   2.727   9.571   6.343 -0.4944 -0.3341  0.3145
  773MOL0     H 6659   2.964   9.624   6.417 -0.3609 -1.5425 -1.6159
  773MOL0     H 6660   3.342   9.428   6.554 -3.5844  2.7515 -0.1943
  773MOL0     H 6661   3.587   9.432   6.591 -0.8428 -2.5027  2.9390
  773MOL0     H 6662   3.771   9.776   6.802 -3.0552 -0.1408 -0.9468
  773MOL0     H 6663   3.717   9.667   6.932 -1.2517  3.1512  0.1461
  773MOL0     H 6664   3.961   9.697   6.919  0.0184 -0.8602  0.8841
  773MOL0     H 6665   3.961   9.628   6.754  1.4376 -0.0057  0.1072
  773MOL0     H 6666   3.893   9.412   6.849  2.1429 -0.7255  0.0179
  773MOL0     H 6667   4.046   9.464   6.917  0.0661 -0.3806  0.5544
  773MOL0     H 6668   3.935   9.551   7.127  1.4760 -0.6656 -0.0696
  773MOL0     H 6669   3.934   9.378   7.100  0.7915 -0.0892 -0.1271
  773MOL0     H 6670   3.533   9.381   7.111  0.5800 -2.5163 -0.6363
  773MOL0     H 6671   3.530   9.760   6.856 -0.4207  0.4051 -0.4520
  773MOL0     H 6672   3.195   9.845   6.819 -1.8617  0.4992  2.2810
  773MOL0     H 6673   3.185   9.716   6.937  1.2428 -0.1219  1.2296
  773MOL0     H 6674   3.317   9.827   6.940  0.3052 -1.1277 -0.1792
  774MOL0     O 6675  10.304   4.287   1.614 -0.1280 -0.3368 -0.0805
  774MOL0     C 6676  10.312   4.203   1.523 -0.2896  0.1888 -0.7343
  774MOL0     O 6677  10.422   4.125   1.491  0.3366  0.1366 -0.6813
  774MOL0     C 6678  10.554   4.149   1.525 -0.2060 -1.4529 -0.7616
  774MOL0     C 6679  10.603   4.252   1.612  0.1854 -1.4021  0.3395
  774MOL0     C 6680  10.738   4.268   1.636  0.3389  0.8415 -0.4562
  774MOL0     C 6681  10.835   4.180   1.588 -0.1115  0.1073 -0.1427
  774MOL0     O 6682  10.968   4.202   1.631 -0.0414 -0.3528 -0.5259
  774MOL0     C 6683  11.004   4.152   1.762  0.0708  0.0952 -0.6084
  774MOL0     C 6684  11.109   4.264   1.813 -0.2318  0.1024  0.2269
  774MOL0     C 6685  11.183   4.215   1.939 -0.0089 -1.2439  0.4819
  774MOL0     C 6686  11.293   4.110   1.903 -0.8080 -0.0342 -0.0436
  774MOL0     C 6687  11.427   4.184   1.837  0.7280 -0.7953  0.0762
  774MOL0     C 6688  11.556   4.097   1.851  0.3049 -0.2071 -0.1119
  774MOL0     C 6689  11.664   4.150   1.765  0.0919 -1.3214  0.2117
  774MOL0     C 6690  11.774   4.049   1.780 -0.3891 -0.1836  0.8138
  774MOL0     N 6691  11.880   4.072   1.683  0.3016  0.1409 -0.4920
  774MOL0     C 6692  11.956   3.969   1.619 -0.0724  0.1186 -0.1944
  774MOL0     C 6693  12.044   4.038   1.557 -0.1411  0.0501  0.3433
  774MOL0     C 6694  12.158   3.986   1.474  0.0023  0.5543 -0.1407
  774MOL0     C 6695  12.142   3.848   1.418  0.2447 -0.8852 -0.6244
  774MOL0     C 6696  12.217   3.817   1.300 -0.9728  0.5221  0.4344
  774MOL0     C 6697  12.373   3.830   1.302  0.2007  0.2002 -0.5432
  774MOL0     O 6698  12.443   3.866   1.181  0.1166  0.8822 -0.3795
  774MOL0     C 6699  12.494   3.755   1.110  0.2178 -0.7590 -0.4771
  774MOL0     C 6700  12.588   3.785   1.012 -0.7340 -0.0916  0.3621
  774MOL0     C 6701  12.630   3.680   0.922  0.2536  0.3546 -0.5574
  774MOL0     C 6702  12.722   3.726   0.809 -0.0851 -0.9646 -0.4267
  774MOL0     C 6703  12.594   3.551   0.945 -0.0675  0.4725 -0.9276
  774MOL0     C 6704  12.635   3.441   0.866 -0.8192  0.2971 -0.1686
  774MOL0     O 6705  12.539   3.376   0.792 -0.5871  0.0890 -0.6386
  774MOL0     C 6706  12.596   3.298   0.695  0.1854  0.1934 -0.3909
  774MOL0     C 6707  12.608   3.159   0.714  0.5354 -0.0307 -0.6245
  774MOL0     C 6708  12.643   3.069   0.610  0.0932  0.2157  0.0792
  774MOL0     C 6709  12.664   3.115   0.481  0.1092 -0.0193 -0.1344
  774MOL0     O 6710  12.688   3.032   0.377  0.7390  0.1653 -0.0191
  774MOL0     C 6711  12.646   3.071   0.243  0.1528  0.0673 -0.5817
  774MOL0     C 6712  12.628   2.952   0.149  0.0188  0.2862 -0.1569
  774MOL0     C 6713  12.573   3.003   0.016  0.4575 -0.3876  0.1960
  774MOL0     C 6714  12.414   2.978  -0.002 -0.6469 -0.1859  0.1345
  774MOL0     C 6715  12.368   3.027  -0.132 -0.0694  0.6335  1.2677
  774MOL0     C 6716  12.345   2.918  -0.238 -0.2131 -0.0553  0.5201
  774MOL0     C 6717  12.260   2.972  -0.356 -0.2299 -0.5419 -0.2975
  774MOL0     C 6718  12.212   2.863  -0.454  0.4839 -0.2088  1.1866
  774MOL0    Cl 6719  12.076   2.774  -0.385  0.4578  0.3533 -0.0019
  774MOL0     C 6720  12.670   3.257   0.466  1.3600  0.1886 -0.3299
  774MOL0     C 6721  12.631   3.349   0.571 -0.2015  0.0562 -0.5899
  774MOL0     O 6722  12.758   3.428   0.855 -0.2406 -0.6824 -0.7078
  774MOL0     C 6723  12.490   3.528   1.039  0.4121  0.5135 -0.0777
  774MOL0     C 6724  12.442   3.626   1.120 -0.9578  0.8023 -0.3807
  774MOL0     N 6725  12.025   4.171   1.571 -0.2960 -0.3937  0.4254
  774MOL0     N 6726  11.921   4.195   1.632  1.3833  0.4685 -0.5259
  774MOL0     C 6727  10.791   4.084   1.498 -0.2946  0.8120  0.9565
  774MOL0     C 6728  10.655   4.070   1.464  0.2154 -0.4095  0.6416
  774MOL0     C 6729  10.182   4.167   1.461 -1.6495 -0.2230  0.0681
  774MOL0     C 6730  10.178   4.033   1.417  0.2683  0.7516  0.2468
  774MOL0     C 6731  10.062   3.992   1.343  0.2897 -0.2169  0.6841
  774MOL0     C 6732   9.966   4.089   1.314  0.1536 -0.8759 -1.2258
  774MOL0     O 6733   9.868   4.042   1.226 -0.2084 -1.2032  0.0125
  774MOL0     C 6734   9.772   4.138   1.185 -0.0936  0.6924 -1.2276
  774MOL0     C 6735   9.680   4.074   1.081 -0.2617 -0.0633  0.4279
  774MOL0     C 6736   9.585   3.965   1.138  0.6822  0.3147  0.2254
  774MOL0     C 6737   9.510   3.874   1.035 -0.9050  1.0429 -0.6778
  774MOL0     C 6738   9.453   3.942   0.916  0.3045  0.2451  0.9420
  774MOL0     C 6739   9.409   4.008   0.823  0.7193 -0.5811  0.1165
  774MOL0     C 6740   9.967   4.218   1.373  0.6861  0.4796 -0.5212
  774MOL0     C 6741  10.078   4.260   1.443  0.1137  0.3165 -1.4599
  774MOL0     C 6742  10.088   4.406   1.480 -0.8302 -0.3451 -0.6585
  774MOL0     H 6743  10.536   4.319   1.664 -0.7952  0.8452 -3.4603
  774MOL0     H 6744  10.761   4.348   1.706  0.2038 -1.1670  2.0476
  774MOL0     H 6745  11.033   4.047   1.759 -0.2684 -0.0643  1.0390
  774MOL0     H 6746  10.919   4.148   1.831  0.6610 -2.7885  0.0961
  774MOL0     H 6747  11.190   4.291   1.744  0.0718 -0.1040  0.5038
  774MOL0     H 6748  11.053   4.353   1.841 -0.2557 -0.5471  2.3873
  774MOL0     H 6749  11.229   4.295   1.999  0.1052 -2.0920  1.5415
  774MOL0     H 6750  11.115   4.168   2.010 -0.4527 -4.2406 -1.7637
  774MOL0     H 6751  11.327   4.063   1.996  1.4602 -1.4442 -1.5018
  774MOL0     H 6752  11.261   4.030   1.835  0.5014 -1.0808  0.5322
  774MOL0     H 6753  11.454   4.279   1.883 -0.3726  0.6815 -2.1629
  774MOL0     H 6754  11.404   4.203   1.731  2.6835  1.8335  0.0304
  774MOL0     H 6755  11.591   4.107   1.954 -1.1072 -1.6419  0.5729
  774MOL0     H 6756  11.530   3.991   1.841 -0.4585 -0.0488  0.0824
  774MOL0     H 6757  11.707   4.239   1.812  0.6772 -1.0629 -0.8079
  774MOL0     H 6758  11.630   4.169   1.663 -0.7998 -0.6128  0.6168
  774MOL0     H 6759  11.807   4.065   1.883 -3.3265 -0.4452  1.8957
  774MOL0     H 6760  11.734   3.948   1.765  0.6483 -0.3959 -0.7013
  774MOL0     H 6761  11.943   3.861   1.613  2.1074 -0.2321  0.5493
  774MOL0     H 6762  12.250   3.982   1.534  1.8169 -0.5859 -2.8119
  774MOL0     H 6763  12.156   4.051   1.387 -3.2541  0.9915  0.1468
  774MOL0     H 6764  12.174   3.770   1.487  0.9971 -0.2609 -0.2453
  774MOL0     H 6765  12.035   3.835   1.403 -0.1535  1.3748 -0.1107
  774MOL0     H 6766  12.187   3.717   1.268 -0.3344  0.9429 -1.6545
  774MOL0     H 6767  12.181   3.873   1.213  2.0974  0.4677 -1.0198
  774MOL0     H 6768  12.387   3.907   1.379 -1.9357 -0.6418  0.7816
  774MOL0     H 6769  12.424   3.745   1.350  5.0286  2.5962 -0.8223
  774MOL0     H 6770  12.619   3.888   1.012  2.8819 -1.0034  3.0172
  774MOL0     H 6771  12.669   3.705   0.716 -1.5959  0.4924  0.0474
  774MOL0     H 6772  12.819   3.679   0.796  1.7631  3.0562 -3.2589
  774MOL0     H 6773  12.736   3.835   0.807  0.3181 -0.8718  2.4714
  774MOL0     H 6774  12.581   3.131   0.815 -2.2076  1.2794 -0.9012
  774MOL0     H 6775  12.647   2.962   0.627  2.1505  0.2734  0.1958
  774MOL0     H 6776  12.546   3.114   0.251  0.3831  0.2809  2.5899
  774MOL0     H 6777  12.722   3.134   0.195  0.2323  0.6933  0.3456
  774MOL0     H 6778  12.723   2.901   0.130  0.0753 -0.6474  2.2514
  774MOL0     H 6779  12.559   2.879   0.192 -0.5259  1.1022  0.3887
  774MOL0     H 6780  12.623   2.943  -0.060  1.5557  0.5694  0.1258
  774MOL0     H 6781  12.606   3.105  -0.008  2.6405 -0.7698  1.3302
  774MOL0     H 6782  12.363   3.030   0.079  0.4278  1.3190 -0.1086
  774MOL0     H 6783  12.402   2.872   0.021 -1.0685  0.3750  2.8529
  774MOL0     H 6784  12.278   3.089  -0.124 -1.0601 -0.7743  1.2693
  774MOL0     H 6785  12.440   3.096  -0.178  0.9248  0.3943  2.4244
  774MOL0     H 6786  12.291   2.834  -0.194  0.1307 -0.0807  0.8944
  774MOL0     H 6787  12.441   2.885  -0.280  0.7845  1.0558  1.8435
  774MOL0     H 6788  12.320   3.041  -0.417 -2.3742  0.6923 -1.1030
  774MOL0     H 6789  12.171   3.029  -0.331  0.6663  1.8051 -2.0612
  774MOL0     H 6790  12.302   2.805  -0.476 -0.3601 -0.6144 -1.4966
  774MOL0     H 6791  12.179   2.915  -0.545  2.7769  2.2616  1.6463
  774MOL0     H 6792  12.695   3.298   0.369 -0.9661  0.6244 -0.8228
  774MOL0     H 6793  12.624   3.457   0.560 -0.8509  0.3327  1.9199
  774MOL0     H 6794  12.436   3.435   1.046  0.9237  0.2967  1.0926
  774MOL0     H 6795  12.364   3.595   1.190  1.7885 -2.1664  1.6376
  774MOL0     H 6796  10.869   4.031   1.445  0.6651  3.0077  0.0577
  774MOL0     H 6797  10.623   3.994   1.393  1.5421  1.3460 -1.9662
  774MOL0     H 6798  10.247   3.957   1.453 -2.2722 -0.2483  3.4249
  774MOL0     H 6799  10.043   3.892   1.306  1.9810 -0.4557  0.3992
  774MOL0     H 6800   9.722   4.151   1.281 -0.9647 -1.7570 -1.2806
  774MOL0     H 6801   9.823   4.220   1.133 -0.6452  0.0664 -2.8232
  774MOL0     H 6802   9.744   4.040   0.999 -0.4833 -0.8085  0.5574
  774MOL0     H 6803   9.614   4.153   1.045 -1.7903 -1.3391  0.3588
  774MOL0     H 6804   9.642   3.901   1.206 -1.7290 -2.5145 -0.1953
  774MOL0     H 6805   9.510   4.013   1.201  0.9917  0.5615  0.4080
  774MOL0     H 6806   9.426   3.828   1.088  0.2593 -4.4904 -2.9186
  774MOL0     H 6807   9.578   3.799   0.995 -0.9095 -0.5767  2.1055
  774MOL0     H 6808   9.389   4.049   0.727 -1.2152 -2.9220 -0.5704
  774MOL0     H 6809   9.886   4.289   1.353 -1.6846 -2.5299 -2.5648
  774MOL0     H 6810   9.995   4.458   1.456 -1.6460 -1.5957 -0.3176
  774MOL0     H 6811  10.109   4.414   1.587  0.8265 -0.2584 -0.9696
  774MOL0     H 6812  10.168   4.458   1.426 -2.5993  1.6769 -1.4960
  775MOL0     O 6813   3.580   9.914  11.014 -0.0212 -0.0655  0.0751
  775MOL0     C 6814   3.586   9.963  10.906 -0.0572 -0.6500  0.2597
  775MOL0     O 6815   3.700   9.981  10.826  0.0532  0.2323 -0.7042
  775MOL0     C 6816   3.821   9.999  10.902 -0.4101  0.0151  0.0417
  775MOL0     C 6817   3.839  10.082  11.018 -0.1783 -0.8266 -0.2630
  775MOL0     C 6818   3.968  10.113  11.060  0.4686 -0.0112  0.1793
  775MOL0     C 6819   4.082  10.053  10.998 -0.5209 -0.5826  0.5521
  775MOL0     O 6820   4.211  10.069  11.048  0.3869 -0.3695  0.2565
  775MOL0     C 6821   4.322  10.023  10.981  0.7506 -0.0529  0.1912
  775MOL0     C 6822   4.461  10.075  11.014 -0.2006 -0.1643 -0.1131
  775MOL0     C 6823   4.455  10.224  11.036 -0.2782  0.0649 -0.6882
  775MOL0     C 6824   4.582  10.289  11.095  0.1530 -0.4847  0.4143
  775MOL0     C 6825   4.709  10.210  11.063 -0.0284 -0.3464  0.4200
  775MOL0     C 6826   4.836  10.289  11.107 -0.5326 -0.3692  0.1076
  775MOL0     C 6827   4.853  10.279  11.259 -0.6364  0.3929  0.2604
  775MOL0     C 6828   4.958  10.364  11.315  1.1343  0.1165  0.3674
  775MOL0     N 6829   5.084  10.349  11.246  0.3588  0.2809 -0.7310
  775MOL0     C 6830   5.170  10.449  11.205  0.6976 -0.2178 -0.2090
  775MOL0     C 6831   5.280  10.381  11.162  0.4553  0.3495 -0.9962
  775MOL0     C 6832   5.401  10.439  11.108 -0.0683  0.1074  0.1414
  775MOL0     C 6833   5.529  10.346  11.124  0.6397 -0.7300  0.3618
  775MOL0     C 6834   5.653  10.431  11.087  0.7110  0.2607  0.1099
  775MOL0     C 6835   5.783  10.358  11.086  0.5192 -0.1124 -0.3299
  775MOL0     O 6836   5.890  10.429  11.033  0.1702  0.1914  0.0827
  775MOL0     C 6837   6.013  10.372  11.039 -0.8845  0.5427 -0.0053
  775MOL0     C 6838   6.040  10.237  11.085  0.5644  0.2594  0.2421
  775MOL0     C 6839   6.171  10.191  11.104 -0.0821 -0.2423  0.1350
  775MOL0     C 6840   6.181  10.060  11.181  0.0570  0.1519  0.4986
  775MOL0     C 6841   6.282  10.265  11.058 -0.3723 -0.4051  0.0913
  775MOL0     C 6842   6.428  10.217  11.073 -0.8428 -1.1435  0.1251
  775MOL0     O 6843   6.513  10.281  10.985 -0.7704 -0.2674 -0.1340
  775MOL0     C 6844   6.640  10.220  10.987 -0.1816 -0.1734 -0.1135
  775MOL0     C 6845   6.674  10.104  10.906 -0.2297  0.6113 -0.6535
  775MOL0     C 6846   6.800  10.047  10.913  0.0754 -0.2817  0.1304
  775MOL0     C 6847   6.894  10.106  10.996 -0.1500 -0.2510  0.2495
  775MOL0     O 6848   7.022  10.057  11.026  0.0266  0.0695 -0.0162
  775MOL0     C 6849   7.070   9.929  10.976  0.2539 -0.7663  0.6659
  775MOL0     C 6850   7.175   9.875  11.061 -1.1691 -0.4980  0.7700
  775MOL0     C 6851   7.301   9.956  11.083 -0.9060  0.1099  0.2628
  775MOL0     C 6852   7.344  10.048  10.965  0.3688  0.7457 -0.4859
  775MOL0     C 6853   7.396   9.975  10.836 -0.5766  0.8619 -0.2516
  775MOL0     C 6854   7.512   9.871  10.868 -0.5187  0.1192 -0.3507
  775MOL0     C 6855   7.591   9.819  10.750  0.3686  0.4437 -0.3169
  775MOL0     C 6856   7.729   9.776  10.800 -0.0097  0.2198 -1.2471
  775MOL0    Cl 6857   7.813   9.700  10.660 -0.2312 -0.3777  0.0725
  775MOL0     C 6858   6.864  10.221  11.066  0.6120  0.6370 -0.0389
  775MOL0     C 6859   6.741  10.280  11.063  0.6707 -0.8797 -1.0043
  775MOL0     O 6860   6.463  10.146  11.166 -0.2229  0.1484  0.1531
  775MOL0     C 6861   6.255  10.393  11.013 -0.2941 -0.2388 -1.1247
  775MOL0     C 6862   6.126  10.446  11.010 -0.3585  0.5690  0.1880
  775MOL0     N 6863   5.259  10.245  11.161  0.8737 -0.0024 -0.6479
  775MOL0     N 6864   5.136  10.226  11.213 -0.1160  0.2152 -0.0422
  775MOL0     C 6865   4.063   9.967  10.890 -0.1934 -0.1383 -0.6594
  775MOL0     C 6866   3.938   9.939  10.849  0.4982  0.6271  0.0266
  775MOL0     C 6867   3.454   9.995  10.841 -0.3639 -0.4366 -0.6808
  775MOL0     C 6868   3.446   9.966  10.709 -0.8405  0.1077  0.3331
  775MOL0     C 6869   3.336  10.000  10.636 -0.7188 -0.3482  0.6240
  775MOL0     C 6870   3.219  10.060  10.692  0.6617  0.4073 -0.1440
  775MOL0     O 6871   3.102  10.095  10.623 -0.6179 -0.6257 -0.0705
  775MOL0     C 6872   3.105  10.056  10.483  0.1465 -0.6247 -0.4819
  775MOL0     C 6873   2.966  10.085  10.426  0.5051  0.3126  0.5297
  775MOL0     C 6874   2.858   9.999  10.488 -0.7336  0.3602 -0.4989
  775MOL0     C 6875   2.726  10.063  10.455 -0.1591  0.2798  0.0607
  775MOL0     C 6876   2.603   9.995  10.508  0.6103  0.6228 -0.3409
  775MOL0     C 6877   2.505   9.937  10.561 -0.6047  0.4925  0.7884
  775MOL0     C 6878   3.227  10.093  10.827 -0.5117 -0.1935  0.1403
  775MOL0     C 6879   3.345  10.054  10.904  0.0752  0.3250 -0.5010
  775MOL0     C 6880   3.345  10.108  11.043  0.2718  0.2065 -0.4358
  775MOL0     H 6881   3.762  10.138  11.070  0.0681 -2.3750  1.8981
  775MOL0     H 6882   3.984  10.172  11.150  1.9857  1.5930 -1.0686
  775MOL0     H 6883   4.309  10.052  10.877 -0.8696  1.2719  0.7146
  775MOL0     H 6884   4.323   9.915  11.000 -1.0085 -0.5440 -2.1593
  775MOL0     H 6885   4.497  10.028  11.107 -0.1006 -2.7801 -1.3819
  775MOL0     H 6886   4.525  10.060  10.927  0.0663 -0.3209  0.1080
  775MOL0     H 6887   4.422  10.273  10.944  1.1581 -1.3375 -2.0239
  775MOL0     H 6888   4.372  10.232  11.107  0.8653  0.2799  0.6863
  775MOL0     H 6889   4.596  10.387  11.049  2.0941 -1.1289 -0.4769
  775MOL0     H 6890   4.558  10.290  11.201 -3.1604  0.5500 -0.2418
  775MOL0     H 6891   4.710  10.200  10.954 -1.1390 -1.7995  0.5149
  775MOL0     H 6892   4.704  10.113  11.114 -0.4887 -0.4976  0.0878
  775MOL0     H 6893   4.923  10.236  11.069 -0.0694  1.7262 -1.9554
  775MOL0     H 6894   4.838  10.392  11.072 -1.9199 -0.3298  0.0873
  775MOL0     H 6895   4.877  10.175  11.287  2.0753  1.1087  0.8782
  775MOL0     H 6896   4.755  10.313  11.294 -2.2754 -1.2275 -2.4423
  775MOL0     H 6897   4.936  10.471  11.307 -0.5330 -0.0964  1.6534
  775MOL0     H 6898   4.966  10.343  11.423 -0.7888  1.2408  0.7763
  775MOL0     H 6899   5.151  10.555  11.199 -1.1009 -0.5687 -2.6456
  775MOL0     H 6900   5.410  10.538  11.156 -0.6378  0.0381  0.4001
  775MOL0     H 6901   5.379  10.452  11.002  0.5722 -1.7801 -0.2571
  775MOL0     H 6902   5.537  10.330  11.232  0.2512 -1.3790  0.3011
  775MOL0     H 6903   5.526  10.253  11.066  0.3301  0.3275 -1.3972
  775MOL0     H 6904   5.644  10.480  10.990 -3.5180 -0.0700  0.1588
  775MOL0     H 6905   5.652  10.517  11.155  0.4981  0.8587 -0.6410
  775MOL0     H 6906   5.808  10.336  11.190  2.5042  4.3534  0.3711
  775MOL0     H 6907   5.772  10.275  11.015  0.8236  0.2026 -0.7516
  775MOL0     H 6908   5.953  10.176  11.110 -0.2795  1.6020  0.6783
  775MOL0     H 6909   6.084  10.010  11.179 -2.1616  4.0584  0.4830
  775MOL0     H 6910   6.218  10.068  11.283  2.3557  0.8495 -0.3298
  775MOL0     H 6911   6.251   9.989  11.135  0.1217 -1.8182  3.3832
  775MOL0     H 6912   6.592  10.058  10.852 -0.3038 -1.8278  1.3433
  775MOL0     H 6913   6.833   9.964  10.851  3.6965  1.4731 -0.5607
  775MOL0     H 6914   6.994   9.850  10.980 -0.2524 -0.2736  0.8738
  775MOL0     H 6915   7.104   9.931  10.872 -0.6431  0.2639  0.3814
  775MOL0     H 6916   7.136   9.827  11.151 -0.7220  1.3735  2.0352
  775MOL0     H 6917   7.211   9.790  11.002 -1.6265  0.9742 -1.7974
  775MOL0     H 6918   7.372   9.880  11.118 -1.4973  0.0218  1.3110
  775MOL0     H 6919   7.285  10.016  11.172 -0.4060  0.6167  0.0158
  775MOL0     H 6920   7.418  10.120  10.999 -1.2308  1.3437  1.9487
  775MOL0     H 6921   7.254  10.107  10.943  0.0912  0.4676 -0.1060
  775MOL0     H 6922   7.320   9.917  10.782 -1.0673  0.9792  0.3086
  775MOL0     H 6923   7.430  10.044  10.757  2.5541 -0.0877  0.1461
  775MOL0     H 6924   7.470   9.782  10.916 -0.4978  0.3744  0.1478
  775MOL0     H 6925   7.584   9.917  10.937 -0.3923 -0.8518  0.1953
  775MOL0     H 6926   7.607   9.901  10.679  1.3277 -0.5994 -1.3333
  775MOL0     H 6927   7.547   9.737  10.694  2.4822  0.4754 -2.1976
  775MOL0     H 6928   7.709   9.695  10.872  0.0811  2.6479  1.7052
  775MOL0     H 6929   7.779   9.853  10.859 -1.7257  0.6432 -0.2825
  775MOL0     H 6930   6.947  10.267  11.119  2.7422 -0.5024 -2.1814
  775MOL0     H 6931   6.714  10.369  11.120  0.5036 -0.5963 -1.5123
  775MOL0     H 6932   6.336  10.455  10.974  0.3851  0.2737  0.9571
  775MOL0     H 6933   6.109  10.550  10.984 -0.4025  1.3076  2.8657
  775MOL0     H 6934   4.151   9.927  10.840  0.3258 -2.0412  1.6225
  775MOL0     H 6935   3.930   9.875  10.761  1.8600  0.7863 -0.2307
  775MOL0     H 6936   3.529   9.924  10.653  0.9015  2.4497  1.0086
  775MOL0     H 6937   3.337   9.978  10.529 -1.4218  2.5166 -0.0604
  775MOL0     H 6938   3.174  10.112  10.419 -2.4199  0.6079 -2.3505
  775MOL0     H 6939   3.120   9.948  10.479  3.0382 -0.5893  3.4450
  775MOL0     H 6940   2.951  10.050  10.323 -2.7064 -1.4535  1.4547
  775MOL0     H 6941   2.950  10.193  10.432  0.5058  0.5865 -2.5628
  775MOL0     H 6942   2.864   9.898  10.448  0.9670  0.6723 -1.1025
  775MOL0     H 6943   2.871   9.987  10.596  0.1838 -1.8080 -0.7910
  775MOL0     H 6944   2.713  10.055  10.347 -1.4229  0.4126  0.1884
  775MOL0     H 6945   2.723  10.163  10.499 -1.8796 -0.0828  0.8695
  775MOL0     H 6946   2.417   9.889  10.598 -0.3781  0.0104  0.7165
  775MOL0     H 6947   3.148  10.148  10.877 -0.4993  1.0084 -1.1150
  775MOL0     H 6948   3.440  10.155  11.072 -0.0900 -0.4470  2.0806
  775MOL0     H 6949   3.268  10.183  11.065  1.3765  1.8092 -1.7793
  775MOL0     H 6950   3.330  10.031  11.119  2.1496  3.0044  3.1430
  776MOL0     O 6951   4.981   1.853   2.018  0.3831  0.1545  0.3125
  776MOL0     C 6952   4.986   1.970   2.047 -1.1387 -1.0326 -0.5995
  776MOL0     O 6953   5.097   2.042   2.027 -0.0782 -0.2785 -0.6450
  776MOL0     C 6954   5.213   1.974   2.011  0.1051 -0.2361  0.6771
  776MOL0     C 6955   5.293   1.962   2.122 -0.3974  0.7106  0.2673
  776MOL0     C 6956   5.424   1.916   2.123 -1.5446  0.6333 -0.0045
  776MOL0     C 6957   5.492   1.883   2.004  0.4102 -0.7791  0.2456
  776MOL0     O 6958   5.623   1.838   2.000  0.3365 -0.3556  0.6550
  776MOL0     C 6959   5.687   1.818   1.876  0.4695  0.0520 -0.0914
  776MOL0     C 6960   5.828   1.766   1.906 -0.1665  0.3732 -0.4575
  776MOL0     C 6961   5.919   1.727   1.782  0.6340 -0.3185  0.4972
  776MOL0     C 6962   6.058   1.706   1.830 -1.1751  0.6705 -0.5641
  776MOL0     C 6963   6.154   1.687   1.718  0.0689 -0.1968  0.8295
  776MOL0     C 6964   6.299   1.694   1.774 -0.1054 -0.6683 -0.0240
  776MOL0     C 6965   6.408   1.716   1.670  0.4583  0.3401  0.7439
  776MOL0     C 6966   6.417   1.612   1.551 -0.9237 -0.5873  0.3207
  776MOL0     N 6967   6.462   1.486   1.604  0.0108  0.4278  0.4797
  776MOL0     C 6968   6.373   1.393   1.654  0.2365 -1.1084 -0.2237
  776MOL0     C 6969   6.458   1.296   1.705 -0.0976 -0.4086  0.6927
  776MOL0     C 6970   6.412   1.171   1.780  0.1283  0.1745 -0.2816
  776MOL0     C 6971   6.406   1.040   1.711  1.0822 -0.2475  0.1155
  776MOL0     C 6972   6.355   0.919   1.790 -0.1185  0.6101 -0.6313
  776MOL0     C 6973   6.460   0.828   1.847  0.3385  0.9858  0.0834
  776MOL0     O 6974   6.501   0.902   1.963 -0.5757 -0.1525  0.1366
  776MOL0     C 6975   6.605   0.854   2.045  0.5373 -0.1521  0.6302
  776MOL0     C 6976   6.669   0.734   2.027 -1.1094  0.1560  0.3755
  776MOL0     C 6977   6.768   0.688   2.118  1.3451  0.3639  0.3279
  776MOL0     C 6978   6.830   0.554   2.082 -0.6952 -0.0498  0.2894
  776MOL0     C 6979   6.796   0.762   2.236 -0.3143 -0.0833  0.6008
  776MOL0     C 6980   6.894   0.719   2.336 -0.0540  0.8028  0.6679
  776MOL0     O 6981   6.932   0.813   2.427 -0.4556  0.8755  0.3398
  776MOL0     C 6982   7.015   0.772   2.528  0.1721  0.4200  0.1485
  776MOL0     C 6983   7.144   0.814   2.523 -0.4952 -0.3854 -0.2252
  776MOL0     C 6984   7.237   0.777   2.625 -0.9515  0.5311  0.3407
  776MOL0     C 6985   7.208   0.694   2.731 -0.2083 -0.1450 -0.8630
  776MOL0     O 6986   7.289   0.672   2.845  0.1732 -0.0799  0.1894
  776MOL0     C 6987   7.416   0.749   2.844 -0.1905 -0.4859 -0.7944
  776MOL0     C 6988   7.483   0.727   2.988 -0.3803  0.0543  0.2523
  776MOL0     C 6989   7.505   0.578   3.013  0.6678  0.3186  1.0714
  776MOL0     C 6990   7.600   0.570   3.130  0.6724 -0.7242 -0.3258
  776MOL0     C 6991   7.603   0.431   3.192  0.1037  0.3640 -0.6773
  776MOL0     C 6992   7.660   0.318   3.103 -1.1254  0.4214  0.2673
  776MOL0     C 6993   7.810   0.338   3.058  0.0537 -0.1457 -0.1492
  776MOL0     C 6994   7.912   0.360   3.173 -0.2204  0.4233  0.3022
  776MOL0    Cl 6995   8.062   0.400   3.081  0.0279 -0.0226  0.2554
  776MOL0     C 6996   7.076   0.652   2.738 -0.5826 -0.1119  0.0880
  776MOL0     C 6997   6.982   0.689   2.631 -0.1602  0.4503 -0.3550
  776MOL0     O 6998   6.929   0.602   2.345 -0.9858 -0.0824  0.2833
  776MOL0     C 6999   6.735   0.891   2.252  0.0441  0.2337  0.2197
  776MOL0     C 7000   6.639   0.929   2.158  0.1101 -0.0432  0.1319
  776MOL0     N 7001   6.584   1.331   1.672  0.1775 -0.0641  0.4789
  776MOL0     N 7002   6.587   1.440   1.608 -0.3874 -0.1451  0.3244
  776MOL0     C 7003   5.404   1.894   1.882  0.0331  0.2633 -0.9119
  776MOL0     C 7004   5.270   1.940   1.888 -0.3674 -1.0627 -0.2423
  776MOL0     C 7005   4.862   2.037   2.089  0.2327  0.6889  0.6639
  776MOL0     C 7006   4.864   2.179   2.078 -0.1755  1.2023  0.6786
  776MOL0     C 7007   4.757   2.254   2.096  0.1942 -0.7920  0.5971
  776MOL0     C 7008   4.637   2.205   2.148  0.0689 -0.4476 -0.0637
  776MOL0     O 7009   4.538   2.302   2.179  0.0943  0.2561 -0.5145
  776MOL0     C 7010   4.412   2.272   2.243  0.1107  0.4691 -0.5227
  776MOL0     C 7011   4.416   2.209   2.389 -0.2326 -0.5459 -0.4357
  776MOL0     C 7012   4.530   2.242   2.488 -0.8429 -0.1947  0.6662
  776MOL0     C 7013   4.546   2.391   2.519 -0.3664  1.1327  1.1026
  776MOL0     C 7014   4.589   2.430   2.657 -0.2123 -0.4676 -0.1731
  776MOL0     C 7015   4.622   2.458   2.770 -0.6605 -0.8125 -0.0503
  776MOL0     C 7016   4.624   2.060   2.160  0.6651 -0.1191 -0.1731
  776MOL0     C 7017   4.739   1.978   2.142 -0.6556 -0.0322  1.4320
  776MOL0     C 7018   4.711   1.823   2.157  0.5967 -0.9178 -0.1302
  776MOL0     H 7019   5.250   1.980   2.221  0.4658 -0.8178  0.9449
  776MOL0     H 7020   5.469   1.902   2.221 -4.6236 -0.8034  1.3492
  776MOL0     H 7021   5.691   1.908   1.814 -0.6556 -0.7338 -1.3692
  776MOL0     H 7022   5.633   1.744   1.816 -2.6854  0.9738  1.4351
  776MOL0     H 7023   5.880   1.846   1.960 -1.2780  1.0858 -0.4088
  776MOL0     H 7024   5.832   1.676   1.968 -1.6103  0.1664 -0.6288
  776MOL0     H 7025   5.887   1.631   1.741  0.1362 -1.0945  2.5948
  776MOL0     H 7026   5.917   1.803   1.703  1.0432 -0.8779 -0.0547
  776MOL0     H 7027   6.087   1.789   1.895 -1.3659  0.7249 -0.5456
  776MOL0     H 7028   6.059   1.627   1.905  1.9856  1.8502  0.8036
  776MOL0     H 7029   6.138   1.779   1.662 -0.9236 -1.3934 -0.9284
  776MOL0     H 7030   6.134   1.601   1.654  0.0207  0.6330 -0.2940
  776MOL0     H 7031   6.293   1.790   1.826 -3.1436 -0.7224 -0.1202
  776MOL0     H 7032   6.317   1.615   1.848 -2.5131  1.8098  3.5344
  776MOL0     H 7033   6.502   1.712   1.724 -0.0324 -1.5315  1.5407
  776MOL0     H 7034   6.400   1.818   1.632 -0.1564 -0.2382 -0.7834
  776MOL0     H 7035   6.322   1.611   1.497 -0.8987  2.5743  0.0190
  776MOL0     H 7036   6.493   1.654   1.484 -0.0010  0.1606  1.7887
  776MOL0     H 7037   6.265   1.382   1.656  0.0764  0.1944  1.9931
  776MOL0     H 7038   6.310   1.196   1.813  0.2564  0.1571  0.1326
  776MOL0     H 7039   6.474   1.148   1.867 -0.4090 -2.1065 -0.4526
  776MOL0     H 7040   6.325   1.050   1.637 -0.3317  0.0282  1.6328
  776MOL0     H 7041   6.501   1.015   1.664  1.7131  0.9045  0.7268
  776MOL0     H 7042   6.284   0.957   1.864  1.5386  1.6787  0.4852
  776MOL0     H 7043   6.304   0.854   1.719  2.7732  0.0889 -2.3895
  776MOL0     H 7044   6.422   0.731   1.879  1.2883 -0.4190 -2.7069
  776MOL0     H 7045   6.533   0.807   1.769 -0.0712 -1.3512  0.2668
  776MOL0     H 7046   6.645   0.672   1.941  0.2303  0.6756 -0.4107
  776MOL0     H 7047   6.799   0.469   2.144 -0.6662  0.6789  1.3187
  776MOL0     H 7048   6.938   0.558   2.096 -1.1451  1.3083  4.6337
  776MOL0     H 7049   6.816   0.525   1.977 -0.1610  0.8257 -0.0301
  776MOL0     H 7050   7.178   0.878   2.442 -1.9627 -1.7875 -2.0218
  776MOL0     H 7051   7.338   0.812   2.608 -1.6090  2.2983 -0.1028
  776MOL0     H 7052   7.484   0.713   2.767  0.3465  0.4980 -0.7981
  776MOL0     H 7053   7.399   0.856   2.833 -1.5986 -0.2393  2.4608
  776MOL0     H 7054   7.574   0.789   2.988  0.1623 -0.6967  1.6500
  776MOL0     H 7055   7.412   0.753   3.066 -1.8297 -1.2073 -0.5895
  776MOL0     H 7056   7.549   0.521   2.931 -1.2803 -0.0067  0.2002
  776MOL0     H 7057   7.409   0.532   3.038  1.4276 -1.3197  1.0552
  776MOL0     H 7058   7.577   0.640   3.211 -0.5394 -0.1432 -1.1362
  776MOL0     H 7059   7.706   0.586   3.110  0.8663 -0.3138  0.9354
  776MOL0     H 7060   7.645   0.433   3.293 -0.0995  1.9566 -0.5945
  776MOL0     H 7061   7.501   0.404   3.222  0.8933  0.0030  1.9492
  776MOL0     H 7062   7.601   0.300   3.012 -1.7568  0.6961  0.6173
  776MOL0     H 7063   7.641   0.225   3.157 -0.1452 -0.7259 -1.2893
  776MOL0     H 7064   7.822   0.418   2.985 -2.4841  0.5310  0.0516
  776MOL0     H 7065   7.836   0.246   3.005 -2.1532 -0.4067 -0.8989
  776MOL0     H 7066   7.922   0.270   3.234  1.4380  1.3826  1.5051
  776MOL0     H 7067   7.876   0.439   3.239 -0.9369  2.1430 -2.0042
  776MOL0     H 7068   7.036   0.594   2.820  1.1437 -0.6132  0.6149
  776MOL0     H 7069   6.877   0.662   2.634 -0.2017  0.0534 -2.8259
  776MOL0     H 7070   6.754   0.950   2.341  1.2378  0.6170 -0.2732
  776MOL0     H 7071   6.582   1.020   2.176  2.2064  0.9091  2.4469
  776MOL0     H 7072   5.429   1.871   1.779 -0.6716 -0.2331 -0.9787
  776MOL0     H 7073   5.213   1.939   1.795 -0.4887  1.8239 -0.2903
  776MOL0     H 7074   4.946   2.226   2.025  0.3941 -0.9662 -0.5027
  776MOL0     H 7075   4.773   2.360   2.075 -2.6958  0.1548  2.5562
  776MOL0     H 7076   4.361   2.369   2.246  0.7001  0.7511  2.0450
  776MOL0     H 7077   4.353   2.211   2.174  0.7278 -0.3986 -0.3014
  776MOL0     H 7078   4.405   2.100   2.383 -0.0683 -0.8118  2.6235
  776MOL0     H 7079   4.330   2.243   2.448  1.1119  2.5416 -0.0679
  776MOL0     H 7080   4.516   2.191   2.584 -0.1524  2.1754  2.1154
  776MOL0     H 7081   4.624   2.199   2.452 -0.6744  2.6396 -2.8747
  776MOL0     H 7082   4.449   2.436   2.494 -2.2456 -2.7908  0.5620
  776MOL0     H 7083   4.620   2.430   2.448  0.9094  2.6868  3.1837
  776MOL0     H 7084   4.659   2.486   2.867  1.5352  1.0242 -1.3037
  776MOL0     H 7085   4.529   2.011   2.174  0.1263  0.6032 -1.1876
  776MOL0     H 7086   4.802   1.764   2.171  1.1358 -0.4604 -1.5081
  776MOL0     H 7087   4.630   1.805   2.229  1.8185  0.4976  1.7027
  776MOL0     H 7088   4.667   1.793   2.061  0.2780 -3.1828  0.6640
  777MOL0     O 7089   0.236   6.439   1.348 -0.7030 -0.3234 -0.5694
  777MOL0     C 7090   0.202   6.351   1.268  0.3104 -0.8986  0.0425
  777MOL0     O 7091   0.266   6.228   1.243  0.2116 -0.2916  0.1431
  777MOL0     C 7092   0.390   6.190   1.287  0.5736  0.5209  0.6056
  777MOL0     C 7093   0.467   6.244   1.394  0.8017  0.7183 -0.2189
  777MOL0     C 7094   0.594   6.207   1.429  0.1520  0.2978  0.7085
  777MOL0     C 7095   0.650   6.095   1.360  0.3864 -0.1506 -0.2751
  777MOL0     O 7096   0.766   6.033   1.395 -0.3326  0.7196  0.8389
  777MOL0     C 7097   0.809   6.040   1.531  0.1772  0.8588  0.1517
  777MOL0     C 7098   0.924   6.143   1.535  0.3219  0.6805 -0.2428
  777MOL0     C 7099   0.950   6.181   1.683  0.2330 -0.1099 -0.4271
  777MOL0     C 7100   1.078   6.262   1.692 -0.1251  0.4282  0.2335
  777MOL0     C 7101   1.121   6.274   1.839 -0.1817  0.7070  0.2297
  777MOL0     C 7102   1.044   6.385   1.915  0.2933 -0.4312  0.2772
  777MOL0     C 7103   1.101   6.396   2.050  0.3177 -0.0097 -0.2049
  777MOL0     C 7104   1.245   6.456   2.054  0.1144 -0.3720  0.4805
  777MOL0     N 7105   1.266   6.589   1.991  0.7073 -0.1855 -0.0157
  777MOL0     C 7106   1.291   6.699   2.070  0.1601  0.0713  0.4122
  777MOL0     C 7107   1.324   6.800   1.981  0.4793  0.4500 -0.0677
  777MOL0     C 7108   1.358   6.939   2.014  0.4282 -0.0082  0.1017
  777MOL0     C 7109   1.510   6.966   2.032 -0.2164  1.2681 -0.1004
  777MOL0     C 7110   1.579   6.983   1.897 -0.0205  0.6372  0.3771
  777MOL0     C 7111   1.725   7.025   1.928  0.3409  0.3474 -0.5193
  777MOL0     O 7112   1.779   7.035   1.800 -0.3337  1.1991 -0.0719
  777MOL0     C 7113   1.915   7.042   1.781  0.2178  0.6444  0.4327
  777MOL0     C 7114   1.975   6.988   1.673  0.3318 -0.2852 -0.4783
  777MOL0     C 7115   2.111   6.998   1.648 -0.5665  0.7624  0.1208
  777MOL0     C 7116   2.160   6.933   1.517 -0.9448 -0.2089 -0.8252
  777MOL0     C 7117   2.197   7.070   1.732 -0.4370  0.0772 -0.7592
  777MOL0     C 7118   2.343   7.075   1.727 -0.6558  0.4947 -0.7080
  777MOL0     O 7119   2.398   7.152   1.821  0.2066 -0.4796 -0.5960
  777MOL0     C 7120   2.533   7.135   1.840  1.0570  0.5831  0.0658
  777MOL0     C 7121   2.587   7.028   1.913  0.3450 -0.6742  1.0446
  777MOL0     C 7122   2.724   7.016   1.928 -0.2010 -0.2682 -0.1013
  777MOL0     C 7123   2.816   7.113   1.885 -0.2196  0.0194 -0.8112
  777MOL0     O 7124   2.953   7.113   1.905  0.2505 -0.4798 -0.4125
  777MOL0     C 7125   2.994   7.078   2.040 -0.0268 -0.2881 -0.6561
  777MOL0     C 7126   3.147   7.080   2.041  0.1958 -0.4049  0.0165
  777MOL0     C 7127   3.194   7.073   2.190 -0.6281  0.7010  0.2728
  777MOL0     C 7128   3.341   7.084   2.212 -0.0489  0.0419  0.2867
  777MOL0     C 7129   3.384   7.074   2.363  0.1747 -0.0512 -0.7038
  777MOL0     C 7130   3.533   7.057   2.375 -0.1836  0.3709  0.4439
  777MOL0     C 7131   3.582   7.056   2.523 -0.7873  0.2272  0.7202
  777MOL0     C 7132   3.729   7.014   2.550  0.1636  0.3919 -0.3194
  777MOL0    Cl 7133   3.776   6.859   2.463 -0.0887  0.1290 -0.0296
  777MOL0     C 7134   2.761   7.216   1.804  0.2183  0.3654  0.7380
  777MOL0     C 7135   2.621   7.228   1.788  0.6096 -0.4111  0.0753
  777MOL0     O 7136   2.398   7.014   1.644 -0.0030  0.3046 -0.0245
  777MOL0     C 7137   2.128   7.130   1.847 -0.4150 -0.3510  0.1048
  777MOL0     C 7138   1.993   7.118   1.866 -0.1335 -0.5358 -0.1740
  777MOL0     N 7139   1.281   6.761   1.853  0.2380  0.2967 -0.7186
  777MOL0     N 7140   1.263   6.635   1.856 -0.3096 -0.2908  0.4971
  777MOL0     C 7141   0.568   6.026   1.267  0.7227 -0.3017 -0.9511
  777MOL0     C 7142   0.443   6.073   1.226 -0.6606 -0.6319 -0.9150
  777MOL0     C 7143   0.083   6.358   1.195  0.2871 -0.4744  0.7080
  777MOL0     C 7144   0.013   6.230   1.168 -0.1160 -0.3194  0.0716
  777MOL0     C 7145  -0.098   6.230   1.087 -0.3984 -0.3810 -0.0810
  777MOL0     C 7146  -0.157   6.348   1.034  0.0786 -0.1515 -0.1958
  777MOL0     O 7147  -0.279   6.357   0.975  0.2657  0.1338 -0.3811
  777MOL0     C 7148  -0.294   6.313   0.840  0.3539  0.1124  0.6132
  777MOL0     C 7149  -0.397   6.403   0.771  0.2733 -0.2904  1.1100
  777MOL0     C 7150  -0.521   6.409   0.855 -0.1820  0.2721  0.0495
  777MOL0     C 7151  -0.610   6.502   0.785  0.1932  0.2708  0.1313
  777MOL0     C 7152  -0.734   6.547   0.861 -1.1042 -0.8137 -0.0541
  777MOL0     C 7153  -0.849   6.577   0.892  0.1369  0.0472 -0.1794
  777MOL0     C 7154  -0.104   6.472   1.071  0.7295 -1.1035  0.4934
  777MOL0     C 7155   0.017   6.482   1.149 -0.7996  0.3845 -0.0783
  777MOL0     C 7156   0.078   6.617   1.171 -0.8958  0.0154  0.6124
  777MOL0     H 7157   0.435   6.325   1.460  2.1171  0.0774  1.2820
  777MOL0     H 7158   0.639   6.249   1.518 -2.9756  1.8135  1.7264
  777MOL0     H 7159   0.851   5.943   1.560  1.5448  0.9245 -1.4889
  777MOL0     H 7160   0.727   6.067   1.599 -2.6005 -1.2979 -2.0583
  777MOL0     H 7161   1.005   6.084   1.491  0.0681  0.5946 -0.5973
  777MOL0     H 7162   0.897   6.238   1.488 -1.8352  0.2629  0.0661
  777MOL0     H 7163   0.858   6.229   1.717 -0.4760 -0.5101 -1.6952
  777MOL0     H 7164   0.962   6.085   1.734 -1.0627 -0.3558 -0.5465
  777MOL0     H 7165   1.155   6.204   1.640  0.4275  2.2645 -1.1179
  777MOL0     H 7166   1.070   6.361   1.647 -1.0377 -0.6802 -2.1867
  777MOL0     H 7167   1.228   6.297   1.843 -0.0007 -0.1857  3.3555
  777MOL0     H 7168   1.096   6.182   1.893 -2.9110  1.8859  1.1342
  777MOL0     H 7169   1.058   6.473   1.852 -0.8130 -2.0024 -2.3126
  777MOL0     H 7170   0.937   6.366   1.905  0.0038 -0.1901  2.3980
  777MOL0     H 7171   1.083   6.302   2.103  0.6458  0.0212 -0.0388
  777MOL0     H 7172   1.043   6.461   2.116  0.6882 -0.1851  0.3003
  777MOL0     H 7173   1.286   6.462   2.155 -0.2650  1.5726  0.5627
  777MOL0     H 7174   1.313   6.391   1.998 -0.6106 -0.5876 -0.1530
  777MOL0     H 7175   1.301   6.708   2.178 -1.9217 -1.5947  0.8088
  777MOL0     H 7176   1.299   6.956   2.105 -1.2974  0.6556 -1.0949
  777MOL0     H 7177   1.323   6.999   1.930  3.0539  0.3299 -0.8343
  777MOL0     H 7178   1.534   7.047   2.101 -0.1050  1.1071  0.0520
  777MOL0     H 7179   1.555   6.875   2.072 -2.7279 -0.2210 -0.4983
  777MOL0     H 7180   1.575   6.894   1.834 -1.9255  0.5464  0.5376
  777MOL0     H 7181   1.532   7.071   1.851  2.8736  1.5696 -1.0465
  777MOL0     H 7182   1.731   7.113   1.993  0.7650 -1.2247  1.6945
  777MOL0     H 7183   1.773   6.939   1.975 -3.6431 -2.8689 -1.8212
  777MOL0     H 7184   1.923   6.930   1.598 -2.5066  2.5422 -0.8852
  777MOL0     H 7185   2.203   7.008   1.451  0.8362 -1.5979 -1.3193
  777MOL0     H 7186   2.077   6.883   1.466 -1.1345  0.6738 -1.3869
  777MOL0     H 7187   2.239   6.859   1.534 -0.4536  0.6405  0.8926
  777MOL0     H 7188   2.524   6.948   1.951 -1.5026 -0.6742 -1.6992
  777MOL0     H 7189   2.748   6.924   1.980 -3.3977 -1.3834 -0.3701
  777MOL0     H 7190   2.952   7.156   2.104 -0.6672 -0.8432 -0.3882
  777MOL0     H 7191   2.957   6.983   2.080  1.6061 -1.4934 -1.8781
  777MOL0     H 7192   3.183   6.991   1.988  2.1569  0.5579 -0.3580
  777MOL0     H 7193   3.173   7.175   1.993  2.4971 -1.3988 -0.8597
  777MOL0     H 7194   3.150   6.983   2.232  0.1016  0.8198  1.3399
  777MOL0     H 7195   3.167   7.160   2.250 -0.0150 -0.2511  1.9779
  777MOL0     H 7196   3.378   7.183   2.181  0.1820 -0.0846  0.1506
  777MOL0     H 7197   3.388   7.004   2.155 -0.4135 -0.6922  1.0023
  777MOL0     H 7198   3.358   7.164   2.419  1.5568  0.0687 -0.2282
  777MOL0     H 7199   3.330   6.993   2.413 -0.5336  1.6277  1.3894
  777MOL0     H 7200   3.591   7.128   2.316  0.2704 -0.9795 -0.7730
  777MOL0     H 7201   3.551   6.958   2.331  0.9477 -0.4241  2.5533
  777MOL0     H 7202   3.514   6.992   2.581 -0.5396 -0.5812  0.1417
  777MOL0     H 7203   3.579   7.152   2.575 -1.7314 -0.0024  1.1199
  777MOL0     H 7204   3.748   6.999   2.657  3.9045  0.0954 -0.8820
  777MOL0     H 7205   3.800   7.092   2.518  0.9254 -0.4184 -0.6455
  777MOL0     H 7206   2.827   7.289   1.757  0.7965 -0.1345  0.7556
  777MOL0     H 7207   2.574   7.307   1.731 -0.6419 -0.0485  1.5603
  777MOL0     H 7208   2.191   7.192   1.909  1.2490 -1.8285 -0.0176
  777MOL0     H 7209   1.946   7.168   1.951 -1.7988  0.0893 -1.4125
  777MOL0     H 7210   0.605   5.933   1.224 -1.6613 -0.9667 -1.7507
  777MOL0     H 7211   0.379   6.022   1.154  0.7351  0.0480 -2.7029
  777MOL0     H 7212   0.051   6.132   1.196  0.5455  0.3340  1.5975
  777MOL0     H 7213  -0.146   6.135   1.066 -1.2061 -0.0490  0.2309
  777MOL0     H 7214  -0.195   6.324   0.797 -0.0704 -1.8241 -0.9970
  777MOL0     H 7215  -0.317   6.206   0.839 -0.1875  0.2161 -1.2117
  777MOL0     H 7216  -0.409   6.373   0.667 -0.5434 -1.0318  1.4039
  777MOL0     H 7217  -0.361   6.506   0.764 -1.8752  0.4944  0.7900
  777MOL0     H 7218  -0.579   6.321   0.882 -0.5741  1.3651  3.0908
  777MOL0     H 7219  -0.492   6.447   0.953 -2.0270  0.3256  0.6116
  777MOL0     H 7220  -0.653   6.446   0.702 -1.7054  0.6042  0.8443
  777MOL0     H 7221  -0.552   6.586   0.744  1.3143 -1.6249 -2.4638
  777MOL0     H 7222  -0.948   6.591   0.931  0.3810 -0.0762  0.4940
  777MOL0     H 7223  -0.152   6.563   1.037  2.4321 -0.3486  0.0127
  777MOL0     H 7224   0.186   6.603   1.162 -1.0444 -0.3318 -0.8805
  777MOL0     H 7225   0.057   6.675   1.080 -1.1531 -1.8092 -0.5466
  777MOL0     H 7226   0.035   6.673   1.255 -1.3631  2.5611 -1.2149
  778MOL0     O 7227   6.904   5.744   6.987  0.0399  0.3889  0.2566
  778MOL0     C 7228   6.913   5.622   7.000 -0.9845 -0.0063 -0.6755
  778MOL0     O 7229   7.012   5.552   7.065  1.0507 -0.0315  0.1605
  778MOL0     C 7230   7.091   5.620   7.149 -0.0489  0.2477  0.5706
  778MOL0     C 7231   7.046   5.679   7.269  0.2770  0.2976  0.0778
  778MOL0     C 7232   7.133   5.749   7.352  0.4098  0.2181 -0.6446
  778MOL0     C 7233   7.272   5.757   7.327  0.3661  0.2747  0.1433
  778MOL0     O 7234   7.362   5.803   7.417  0.0267  0.0419  0.0332
  778MOL0     C 7235   7.500   5.757   7.410 -0.0983  0.1513  0.0078
  778MOL0     C 7236   7.570   5.812   7.542  0.0913  0.3808  0.1141
  778MOL0     C 7237   7.728   5.813   7.527 -0.1329 -0.0681 -1.0050
  778MOL0     C 7238   7.771   5.914   7.415  0.1601 -0.1125  0.0223
  778MOL0     C 7239   7.915   5.962   7.449  0.0674  0.2406 -0.2007
  778MOL0     C 7240   8.025   5.860   7.421 -0.8542 -0.5112  0.7772
  778MOL0     C 7241   8.166   5.900   7.465  0.0857  0.2290 -1.2167
  778MOL0     C 7242   8.230   6.008   7.379 -0.2723 -0.3445  0.1608
  778MOL0     N 7243   8.201   6.151   7.414 -0.5381 -0.8175 -0.4614
  778MOL0     C 7244   8.189   6.217   7.537 -0.5121  0.0765  0.5342
  778MOL0     C 7245   8.201   6.358   7.511  0.1055 -0.3117 -0.2127
  778MOL0     C 7246   8.170   6.476   7.601 -0.0299 -0.6682 -0.7041
  778MOL0     C 7247   8.019   6.486   7.613 -0.0111  0.9258 -0.0193
  778MOL0     C 7248   7.967   6.598   7.708 -0.3520  0.0603  0.4910
  778MOL0     C 7249   8.018   6.743   7.672 -0.1904 -0.0780  0.8015
  778MOL0     O 7250   8.045   6.819   7.792  0.0226 -0.4430  0.4749
  778MOL0     C 7251   8.096   6.945   7.786  0.4686 -0.5304 -0.2685
  778MOL0     C 7252   8.183   6.990   7.688  0.8875  0.5585  0.6159
  778MOL0     C 7253   8.236   7.118   7.683 -1.1862  0.0131  0.4280
  778MOL0     C 7254   8.318   7.166   7.567 -0.1226  0.2885  0.2406
  778MOL0     C 7255   8.213   7.197   7.800  0.6308 -0.3199 -0.4478
  778MOL0     C 7256   8.258   7.333   7.808 -0.6476 -0.5629 -1.0770
  778MOL0     O 7257   8.179   7.434   7.778  1.3822  0.2470 -0.7230
  778MOL0     C 7258   8.251   7.554   7.782  0.5004  0.4274  0.3474
  778MOL0     C 7259   8.291   7.603   7.655  0.6671  0.1361  0.4818
  778MOL0     C 7260   8.351   7.734   7.657  0.8873 -0.1365  0.2429
  778MOL0     C 7261   8.388   7.798   7.778 -0.0472  0.5662  0.3012
  778MOL0     O 7262   8.454   7.920   7.785  0.1740 -0.1195 -0.7880
  778MOL0     C 7263   8.564   7.933   7.885  0.7262  0.5481 -0.4378
  778MOL0     C 7264   8.647   8.056   7.839 -0.1413 -0.2239  0.7424
  778MOL0     C 7265   8.588   8.198   7.878 -0.4861  0.1695  0.0315
  778MOL0     C 7266   8.498   8.253   7.768 -0.4014  0.0378  0.0770
  778MOL0     C 7267   8.448   8.397   7.795  0.3129 -0.7241 -0.2994
  778MOL0     C 7268   8.355   8.438   7.675  0.1446 -0.2928 -0.3576
  778MOL0     C 7269   8.295   8.581   7.687 -0.7199 -0.4352 -0.0509
  778MOL0     C 7270   8.183   8.601   7.579  0.0844 -0.8810  0.0004
  778MOL0    Cl 7271   8.063   8.475   7.571 -0.1708  0.6556  0.1496
  778MOL0     C 7272   8.334   7.745   7.894  0.0680 -0.4200  0.2684
  778MOL0     C 7273   8.260   7.631   7.896 -0.2851 -1.2728  0.1993
  778MOL0     O 7274   8.380   7.343   7.826 -0.0114  0.3416 -0.4839
  778MOL0     C 7275   8.137   7.153   7.899  0.6430  0.1392 -0.8954
  778MOL0     C 7276   8.081   7.021   7.900 -0.9464  0.3738  0.0343
  778MOL0     N 7277   8.225   6.371   7.376  0.6451 -0.1112 -0.5385
  778MOL0     N 7278   8.224   6.252   7.325  0.3409 -0.0722  0.2331
  778MOL0     C 7279   7.318   5.701   7.200  0.6717 -0.1813 -0.2530
  778MOL0     C 7280   7.226   5.637   7.104  0.1340 -0.4070  1.6744
  778MOL0     C 7281   6.817   5.543   6.916 -0.5360 -0.0348 -0.0699
  778MOL0     C 7282   6.771   5.599   6.795  0.5862  0.2846 -0.1586
  778MOL0     C 7283   6.681   5.538   6.700 -0.2507 -0.5826 -0.1037
  778MOL0     C 7284   6.633   5.411   6.729 -0.5490  0.3779  0.0073
  778MOL0     O 7285   6.577   5.322   6.639 -0.3439  0.6324  0.4969
  778MOL0     C 7286   6.500   5.382   6.533  0.2583  0.3587  0.4998
  778MOL0     C 7287   6.469   5.284   6.419  0.1071 -0.5266  0.4090
  778MOL0     C 7288   6.430   5.374   6.305  0.3599 -0.1018 -0.3540
  778MOL0     C 7289   6.290   5.419   6.317  0.5298 -0.6537 -0.7232
  778MOL0     C 7290   6.220   5.463   6.198  1.4629  0.0537  1.1949
  778MOL0     C 7291   6.155   5.494   6.099  0.0479  0.4207  0.0059
  778MOL0     C 7292   6.671   5.357   6.852 -0.2039  0.4603  0.3712
  778MOL0     C 7293   6.766   5.415   6.942  0.6036 -0.4543 -0.5681
  778MOL0     C 7294   6.775   5.353   7.087  0.1948 -0.0806 -0.6177
  778MOL0     H 7295   6.948   5.668   7.314  0.0111  0.0189 -0.5590
  778MOL0     H 7296   7.094   5.770   7.451 -2.2705 -1.6177 -1.2126
  778MOL0     H 7297   7.546   5.799   7.320  0.0287 -1.3470 -0.6564
  778MOL0     H 7298   7.510   5.649   7.412 -0.2945  0.1332 -0.0158
  778MOL0     H 7299   7.532   5.911   7.571 -3.4015 -0.2771 -1.6178
  778MOL0     H 7300   7.563   5.732   7.616  1.3015  0.4903  0.3660
  778MOL0     H 7301   7.772   5.842   7.623  0.9695 -0.5153 -1.3611
  778MOL0     H 7302   7.778   5.721   7.497 -1.4411 -0.6746 -1.3690
  778MOL0     H 7303   7.763   5.864   7.318  1.0162 -2.0665  0.9037
  778MOL0     H 7304   7.705   6.001   7.405 -1.2717 -1.4096 -3.2671
  778MOL0     H 7305   7.919   5.999   7.552  1.2625  2.3760 -0.9612
  778MOL0     H 7306   7.928   6.053   7.390 -3.4200  0.8870 -0.2091
  778MOL0     H 7307   8.010   5.766   7.475  0.0229 -1.0098  0.1771
  778MOL0     H 7308   8.026   5.844   7.313 -0.5297  0.8371  0.5720
  778MOL0     H 7309   8.227   5.811   7.448  1.5810  1.0378 -0.3073
  778MOL0     H 7310   8.171   5.928   7.570 -2.1191 -0.4346 -0.8844
  778MOL0     H 7311   8.337   6.001   7.399 -0.7303 -1.7846  2.5851
  778MOL0     H 7312   8.211   6.004   7.272  0.3165  3.6389 -0.2410
  778MOL0     H 7313   8.167   6.178   7.636  1.3234  1.5842  1.6133
  778MOL0     H 7314   8.211   6.566   7.554 -0.3717 -0.6820 -1.0333
  778MOL0     H 7315   8.209   6.463   7.702 -1.4617 -1.5548 -0.2389
  778MOL0     H 7316   7.972   6.499   7.516  0.9022  0.7106 -0.5040
  778MOL0     H 7317   7.966   6.398   7.650 -0.1446  0.5904 -0.9816
  778MOL0     H 7318   7.859   6.608   7.719 -0.0030  1.2664  4.4221
  778MOL0     H 7319   8.000   6.586   7.811  2.8545  2.8057 -0.0648
  778MOL0     H 7320   8.108   6.747   7.610 -0.8501  0.0486 -0.1670
  778MOL0     H 7321   7.942   6.783   7.604  0.7039 -0.2184 -0.3244
  778MOL0     H 7322   8.200   6.935   7.596 -0.8676 -3.6039  2.4991
  778MOL0     H 7323   8.253   7.225   7.502  1.3436  3.5685  1.5220
  778MOL0     H 7324   8.365   7.088   7.507 -0.6198  2.7101 -3.6167
  778MOL0     H 7325   8.404   7.226   7.596 -0.1513  0.4384  0.0158
  778MOL0     H 7326   8.251   7.542   7.574  2.4190 -1.1637  0.5247
  778MOL0     H 7327   8.384   7.771   7.560  1.8245  0.1614  0.6702
  778MOL0     H 7328   8.526   7.955   7.985 -2.0806 -0.0395 -1.2891
  778MOL0     H 7329   8.633   7.848   7.883 -1.3715 -1.2428 -0.0781
  778MOL0     H 7330   8.749   8.039   7.876  0.3820 -0.1511 -0.6260
  778MOL0     H 7331   8.663   8.044   7.732  0.7998  0.5648  0.7701
  778MOL0     H 7332   8.669   8.272   7.877 -0.2132  0.0643 -4.4653
  778MOL0     H 7333   8.529   8.184   7.969  1.2521 -2.0500  0.9015
  778MOL0     H 7334   8.414   8.184   7.759 -1.0763  0.8512  0.0653
  778MOL0     H 7335   8.551   8.252   7.672  3.5297  1.8819  1.9767
  778MOL0     H 7336   8.380   8.394   7.882  2.1368 -0.2597  1.2043
  778MOL0     H 7337   8.522   8.470   7.828  0.0868 -0.1805 -0.9790
  778MOL0     H 7338   8.274   8.364   7.674 -1.1542  0.9431  2.6838
  778MOL0     H 7339   8.406   8.438   7.578 -0.5364 -3.8564 -0.8427
  778MOL0     H 7340   8.380   8.648   7.671 -1.4495  0.3334 -0.8429
  778MOL0     H 7341   8.256   8.598   7.787 -1.4395  2.0821 -0.6677
  778MOL0     H 7342   8.226   8.606   7.479 -2.0395  0.9941 -0.9190
  778MOL0     H 7343   8.144   8.703   7.587 -1.8909 -1.6620  1.0904
  778MOL0     H 7344   8.361   7.785   7.991  1.2652 -2.0855  0.6700
  778MOL0     H 7345   8.223   7.605   7.995 -0.4964 -1.2523  0.1257
  778MOL0     H 7346   8.121   7.223   7.980 -0.7471  0.9666 -1.8511
  778MOL0     H 7347   8.034   6.973   7.986 -0.1403  1.0515  0.8730
  778MOL0     H 7348   7.422   5.718   7.173  0.9980 -3.7121 -1.7840
  778MOL0     H 7349   7.262   5.574   7.023  0.2825 -1.3241  2.4331
  778MOL0     H 7350   6.803   5.698   6.765  1.6463  0.1652  0.5338
  778MOL0     H 7351   6.663   5.593   6.609 -1.0546 -1.4983 -0.5197
  778MOL0     H 7352   6.408   5.430   6.570 -0.2499 -0.4534  0.3209
  778MOL0     H 7353   6.559   5.462   6.488  1.4912 -0.1670  1.1438
  778MOL0     H 7354   6.391   5.212   6.447  2.4997 -3.2057  0.6811
  778MOL0     H 7355   6.558   5.222   6.405  0.4957  0.3285 -1.1893
  778MOL0     H 7356   6.508   5.450   6.300 -1.3144  1.7689  0.2539
  778MOL0     H 7357   6.435   5.307   6.219  1.8891  0.7238 -0.9417
  778MOL0     H 7358   6.289   5.499   6.391 -2.9527 -0.4864 -0.7765
  778MOL0     H 7359   6.237   5.331   6.355 -0.3091 -0.3091 -1.0723
  778MOL0     H 7360   6.093   5.529   6.019 -0.0392  2.0488  0.7451
  778MOL0     H 7361   6.630   5.262   6.885 -1.4575  1.2941  1.3258
  778MOL0     H 7362   6.683   5.296   7.105 -1.7838  3.5116  1.8938
  778MOL0     H 7363   6.865   5.292   7.096  0.6874  0.4653 -1.6883
  778MOL0     H 7364   6.799   5.427   7.164  1.0131  0.4510 -1.3621
  779MOL0     O 7365   9.617  10.178   2.361  0.8368 -0.1753 -0.4400
  779MOL0     C 7366   9.640  10.295   2.382  0.5537 -0.9044 -0.5260
  779MOL0     O 7367   9.767  10.347   2.387 -0.7636 -0.9254  0.1503
  779MOL0     C 7368   9.879  10.264   2.384  0.8158  0.6627 -0.8396
  779MOL0     C 7369   9.972  10.316   2.476 -0.1733 -0.4330 -0.8143
  779MOL0     C 7370  10.093  10.254   2.492 -0.4591  0.2412  0.2728
  779MOL0     C 7371  10.129  10.142   2.408 -0.6279  0.5577  0.1610
  779MOL0     O 7372  10.254  10.088   2.438  0.1347  0.1150 -0.5912
  779MOL0     C 7373  10.282   9.962   2.394 -0.9051 -0.3306 -0.1149
  779MOL0     C 7374  10.419   9.918   2.446 -0.3874 -0.0817  0.7449
  779MOL0     C 7375  10.528   9.989   2.369 -0.5822  0.4221  0.0509
  779MOL0     C 7376  10.673   9.954   2.424  0.5161  0.1159 -0.8100
  779MOL0     C 7377  10.781  10.057   2.374 -0.2904 -0.3378 -0.6106
  779MOL0     C 7378  10.748  10.200   2.419 -0.1551 -0.1226 -0.1950
  779MOL0     C 7379  10.884  10.280   2.420 -0.0730  0.1914 -0.6961
  779MOL0     C 7380  10.962  10.240   2.550 -0.2185  0.7014  0.0926
  779MOL0     N 7381  11.102  10.282   2.550  0.9216  0.2054  0.3331
  779MOL0     C 7382  11.136  10.403   2.608  0.4542 -0.3729  0.9815
  779MOL0     C 7383  11.271  10.416   2.588  0.4231  0.7450 -0.7111
  779MOL0     C 7384  11.351  10.535   2.629 -0.0900 -0.2810 -0.1350
  779MOL0     C 7385  11.364  10.567   2.777 -0.5714 -0.9446 -0.5469
  779MOL0     C 7386  11.426  10.455   2.846 -0.6171 -0.8935 -0.9609
  779MOL0     C 7387  11.446  10.498   2.993 -0.9142 -0.1059 -0.4869
  779MOL0     O 7388  11.510  10.391   3.067  0.1815  0.3314 -0.2313
  779MOL0     C 7389  11.634  10.346   3.036 -0.6583  0.1326  0.4511
  779MOL0     C 7390  11.669  10.215   3.071  0.5982  1.1913 -0.1652
  779MOL0     C 7391  11.799  10.160   3.047  0.2081 -0.3137 -0.5187
  779MOL0     C 7392  11.812  10.021   3.102 -1.3960  0.7351  0.2801
  779MOL0     C 7393  11.893  10.247   2.990 -0.0546 -0.1759  0.3503
  779MOL0     C 7394  12.031  10.210   2.956  0.1815  0.1776  0.5926
  779MOL0     O 7395  12.124  10.307   2.943 -0.0979 -0.1742  0.8556
  779MOL0     C 7396  12.252  10.296   2.893 -0.3481  0.4295  0.3388
  779MOL0     C 7397  12.298  10.426   2.861 -0.1656 -0.1894  0.6815
  779MOL0     C 7398  12.426  10.435   2.790 -0.2987 -0.1703  0.7778
  779MOL0     C 7399  12.503  10.311   2.763 -0.2874  0.3994  0.9755
  779MOL0     O 7400  12.621  10.324   2.691 -0.6673 -0.2473  0.4604
  779MOL0     C 7401  12.696  10.199   2.666 -0.0088 -0.8117  0.2510
  779MOL0     C 7402  12.827  10.232   2.606  0.7787 -0.2440  0.1513
  779MOL0     C 7403  12.872  10.122   2.511  0.8251 -0.4504 -0.7555
  779MOL0     C 7404  12.995  10.168   2.431  0.8175  0.0811 -1.1100
  779MOL0     C 7405  13.083  10.047   2.397 -0.4204 -0.2421  0.2791
  779MOL0     C 7406  13.199  10.086   2.306  0.9475 -0.1310  0.3333
  779MOL0     C 7407  13.309   9.983   2.271 -0.2135  0.3326 -0.6779
  779MOL0     C 7408  13.424  10.042   2.178 -0.4805  0.3506  0.5759
  779MOL0    Cl 7409  13.507  10.175   2.270  0.3594 -0.2222  0.0392
  779MOL0     C 7410  12.446  10.185   2.799 -0.0339  0.0071 -0.4485
  779MOL0     C 7411  12.322  10.176   2.863 -0.1645 -0.2384 -0.4218
  779MOL0     O 7412  12.048  10.089   2.934  0.7602 -0.2510 -0.1751
  779MOL0     C 7413  11.858  10.379   2.964  0.4823  0.0667  0.0661
  779MOL0     C 7414  11.729  10.427   2.987  0.0146 -0.0159  0.0857
  779MOL0     N 7415  11.319  10.288   2.549 -0.1352 -0.2773 -0.5113
  779MOL0     N 7416  11.218  10.213   2.529 -0.3723 -0.1573 -0.1460
  779MOL0     C 7417  10.042  10.102   2.307  0.3987 -0.7434  0.1404
  779MOL0     C 7418   9.913  10.160   2.297 -0.0374  0.0653 -0.3573
  779MOL0     C 7419   9.523  10.382   2.429  0.1977  1.1941  0.2571
  779MOL0     C 7420   9.393  10.321   2.433  0.2019  1.0015 -0.2007
  779MOL0     C 7421   9.278  10.399   2.466  0.5957 -0.4250  0.5608
  779MOL0     C 7422   9.296  10.532   2.502 -0.0177 -0.4838 -0.1849
  779MOL0     O 7423   9.173  10.602   2.527 -0.2886  0.2443 -0.0571
  779MOL0     C 7424   9.179  10.734   2.569 -0.0344 -0.7635 -0.9934
  779MOL0     C 7425   9.033  10.766   2.611  0.8795 -0.1795 -0.2199
  779MOL0     C 7426   8.975  10.664   2.707 -0.5279  0.0826 -0.8214
  779MOL0     C 7427   8.848  10.733   2.766 -0.6948  0.7555  0.4565
  779MOL0     C 7428   8.744  10.736   2.663 -0.6329 -0.5162 -0.2413
  779MOL0     C 7429   8.666  10.751   2.581  0.5986 -0.2405  0.4159
  779MOL0     C 7430   9.425  10.586   2.502  0.3974 -0.2409  0.1659
  779MOL0     C 7431   9.534  10.516   2.466 -1.1316  1.1211 -0.2790
  779MOL0     C 7432   9.660  10.597   2.456  0.1663 -0.5261 -0.1154
  779MOL0     H 7433   9.935  10.390   2.545 -0.6528 -0.4001 -1.1032
  779MOL0     H 7434  10.159  10.289   2.570  0.1121  1.3190 -0.6657
  779MOL0     H 7435  10.274   9.960   2.285 -1.3540 -0.0848 -0.0899
  779MOL0     H 7436  10.206   9.902   2.446 -0.7904  1.1954  1.9562
  779MOL0     H 7437  10.442   9.941   2.550  4.9231 -0.5636 -0.0434
  779MOL0     H 7438  10.437   9.811   2.439  0.7570  0.1609 -0.5307
  779MOL0     H 7439  10.515   9.943   2.270 -0.4980 -2.6481  1.3405
  779MOL0     H 7440  10.509  10.097   2.366 -0.5528  0.4197 -0.3756
  779MOL0     H 7441  10.672   9.942   2.533 -0.4725 -1.1987 -0.9305
  779MOL0     H 7442  10.706   9.854   2.394 -2.8789 -1.6868  0.8512
  779MOL0     H 7443  10.786  10.061   2.265  1.2109 -0.2028 -0.5548
  779MOL0     H 7444  10.877  10.019   2.410  0.2373  0.4283 -1.1814
  779MOL0     H 7445  10.672  10.243   2.353  1.0413  0.4489 -1.2264
  779MOL0     H 7446  10.714  10.203   2.523  2.3586 -0.1765  0.6978
  779MOL0     H 7447  10.874  10.389   2.416  0.5031  0.2270 -1.4757
  779MOL0     H 7448  10.948  10.251   2.336 -0.4970 -3.6266  0.1159
  779MOL0     H 7449  10.910  10.279   2.638 -1.9379  2.4577 -1.5931
  779MOL0     H 7450  10.969  10.131   2.556  1.7167  0.7786 -0.0400
  779MOL0     H 7451  11.068  10.477   2.650 -0.9555 -2.3399  2.3675
  779MOL0     H 7452  11.311  10.623   2.579 -0.2431  1.5563  2.9425
  779MOL0     H 7453  11.454  10.519   2.596  0.6321  2.4930  0.5477
  779MOL0     H 7454  11.428  10.655   2.785 -0.0615 -1.4453  1.1222
  779MOL0     H 7455  11.265  10.580   2.821 -0.2707  1.9607 -0.5613
  779MOL0     H 7456  11.363  10.365   2.850 -2.2013  0.1969  1.6860
  779MOL0     H 7457  11.522  10.436   2.799  0.1318  1.6072 -0.5820
  779MOL0     H 7458  11.506  10.583   3.026  0.5355 -2.0918  2.4341
  779MOL0     H 7459  11.342  10.492   3.027 -2.3272 -3.1209 -4.5473
  779MOL0     H 7460  11.587  10.166   3.124  0.3669  2.4393  0.6962
  779MOL0     H 7461  11.864  10.035   3.197  1.4832  2.4567 -1.4047
  779MOL0     H 7462  11.873   9.964   3.032 -0.6448  1.8855 -0.0314
  779MOL0     H 7463  11.716   9.971   3.119  0.6684 -4.8452 -2.0890
  779MOL0     H 7464  12.251  10.522   2.879  0.1959  0.2616 -0.6498
  779MOL0     H 7465  12.474  10.524   2.749  1.1295 -2.3067 -2.5761
  779MOL0     H 7466  12.715  10.140   2.757  1.5285  0.2939  0.6722
  779MOL0     H 7467  12.641  10.132   2.598 -0.9136  0.0354  0.1203
  779MOL0     H 7468  12.827  10.328   2.554 -2.2110  1.0192  2.2098
  779MOL0     H 7469  12.894  10.247   2.691 -1.0882  1.2534  1.4490
  779MOL0     H 7470  12.805  10.091   2.431  1.5512 -0.7895 -1.2429
  779MOL0     H 7471  12.884  10.041   2.584 -3.0374  0.4068  1.0949
  779MOL0     H 7472  13.058  10.238   2.487  0.4105  1.6692 -2.5469
  779MOL0     H 7473  12.957  10.222   2.343 -1.3192  0.4673 -0.0065
  779MOL0     H 7474  13.121   9.992   2.483 -0.2695  0.0867  0.4262
  779MOL0     H 7475  13.022   9.978   2.338  0.7036 -1.2319  0.2264
  779MOL0     H 7476  13.248  10.181   2.329 -0.1836  0.6359 -0.2892
  779MOL0     H 7477  13.158  10.118   2.209  2.5414  0.5826 -0.1456
  779MOL0     H 7478  13.264   9.906   2.207 -2.0615  1.0544 -0.3171
  779MOL0     H 7479  13.355   9.949   2.364  2.6647  1.4717 -1.5705
  779MOL0     H 7480  13.383  10.079   2.084 -0.9313  0.1936  0.7057
  779MOL0     H 7481  13.496   9.964   2.153  0.7007  1.6025 -0.0768
  779MOL0     H 7482  12.503  10.095   2.775 -0.4700 -0.3608 -0.1205
  779MOL0     H 7483  12.284  10.075   2.879  0.8005 -0.6149 -0.3967
  779MOL0     H 7484  11.924  10.458   2.930  1.9434 -1.7180 -1.4467
  779MOL0     H 7485  11.693  10.526   2.963 -0.2626 -0.6491 -2.3659
  779MOL0     H 7486  10.054  10.013   2.245 -0.6796 -0.9893  0.2680
  779MOL0     H 7487   9.842  10.124   2.224 -1.4534 -1.0895  1.4983
  779MOL0     H 7488   9.383  10.225   2.383  1.1728  0.5049  0.5347
  779MOL0     H 7489   9.173  10.372   2.456 -0.0766  1.5615  1.6647
  779MOL0     H 7490   9.235  10.738   2.663  1.2921 -0.4061 -1.7827
  779MOL0     H 7491   9.219  10.793   2.487 -1.0355  0.5111 -0.6036
  779MOL0     H 7492   8.957  10.776   2.534 -0.2441  1.7210  1.0549
  779MOL0     H 7493   9.051  10.864   2.656  0.6998 -0.6093  0.8254
  779MOL0     H 7494   8.941  10.568   2.666 -1.9814 -0.5686  1.6641
  779MOL0     H 7495   9.049  10.642   2.785  0.5871  1.8327 -1.3421
  779MOL0     H 7496   8.883  10.828   2.809  2.4755  0.1632 -0.5605
  779MOL0     H 7497   8.809  10.691   2.859  3.1564 -1.2947  1.3359
  779MOL0     H 7498   8.588  10.748   2.508  1.9643 -1.2674 -1.0421
  779MOL0     H 7499   9.427  10.690   2.533  0.5116  0.0259 -0.7129
  779MOL0     H 7500   9.720  10.559   2.539  0.4557  0.6146  0.2162
  779MOL0     H 7501   9.699  10.601   2.354 -0.0554  0.0771 -0.1822
  779MOL0     H 7502   9.632  10.700   2.480 -4.4559 -1.6590  0.3508
  780MOL0     O 7503   2.442   3.989   7.853  0.1103  0.1040 -0.3375
  780MOL0     C 7504   2.410   3.911   7.760  0.0347  0.0181  0.3511
  780MOL0     O 7505   2.491   3.878   7.656 -0.1379  1.0367  0.0526
  780MOL0     C 7506   2.620   3.916   7.672 -0.4937 -0.0840 -0.2818
  780MOL0     C 7507   2.699   3.820   7.734 -0.1432  0.0173  0.6303
  780MOL0     C 7508   2.835   3.836   7.716 -0.4453 -1.0523 -0.5287
  780MOL0     C 7509   2.899   3.937   7.644 -0.3818 -0.4439  0.4428
  780MOL0     O 7510   3.032   3.920   7.625 -0.5162  0.0838 -0.4067
  780MOL0     C 7511   3.100   4.039   7.654 -0.4560 -0.1225 -0.2443
  780MOL0     C 7512   3.239   3.985   7.705  0.7113  0.6451  0.2114
  780MOL0     C 7513   3.332   4.097   7.724 -0.1430  0.9405  0.6564
  780MOL0     C 7514   3.475   4.041   7.725 -0.4053  0.5443  0.0118
  780MOL0     C 7515   3.576   4.144   7.792  0.2120  0.1623 -0.5004
  780MOL0     C 7516   3.594   4.117   7.943 -0.0411  0.3172  0.6393
  780MOL0     C 7517   3.662   4.237   8.000 -1.1048 -0.5499  0.3630
  780MOL0     C 7518   3.783   4.293   7.914  0.5881  0.2798  0.5658
  780MOL0     N 7519   3.881   4.348   7.998 -0.2215  1.5419  0.1935
  780MOL0     C 7520   3.884   4.473   8.044 -0.0521 -0.1498 -0.5781
  780MOL0     C 7521   3.983   4.461   8.139  0.2497 -0.6229  0.6848
  780MOL0     C 7522   4.045   4.585   8.208 -0.1312 -0.2854 -0.1689
  780MOL0     C 7523   4.171   4.612   8.128  0.0580  0.3275 -0.2042
  780MOL0     C 7524   4.225   4.752   8.170 -0.5041  1.2332 -0.0687
  780MOL0     C 7525   4.362   4.779   8.127 -0.8211 -0.6690  0.0712
  780MOL0     O 7526   4.370   4.781   7.985  0.0512 -1.0651 -0.0587
  780MOL0     C 7527   4.494   4.818   7.934 -0.5686 -0.0138  0.1837
  780MOL0     C 7528   4.613   4.844   8.000  0.6433  0.3780 -0.6904
  780MOL0     C 7529   4.718   4.901   7.931  0.2280  0.7642 -0.5626
  780MOL0     C 7530   4.837   4.927   8.012 -0.1385 -0.7230 -0.6408
  780MOL0     C 7531   4.724   4.900   7.788 -0.1585 -0.7561  0.5416
  780MOL0     C 7532   4.835   4.933   7.702  0.6664 -0.3413  0.2310
  780MOL0     O 7533   4.798   4.988   7.589  0.2391 -0.5404  0.3294
  780MOL0     C 7534   4.882   5.048   7.497  1.6805  0.5422 -0.3413
  780MOL0     C 7535   4.872   5.008   7.359 -0.6638  0.1068 -0.5716
  780MOL0     C 7536   4.947   5.080   7.264 -0.2041  0.8584  0.1513
  780MOL0     C 7537   5.030   5.184   7.307 -0.5403 -0.3159  0.6283
  780MOL0     O 7538   5.122   5.245   7.217  0.1088  0.1565  0.2377
  780MOL0     C 7539   5.094   5.376   7.188  0.5773 -0.3089 -0.2094
  780MOL0     C 7540   5.200   5.476   7.234  0.9330  0.8833 -0.7517
  780MOL0     C 7541   5.342   5.424   7.200 -0.0750  0.6198 -0.1426
  780MOL0     C 7542   5.443   5.531   7.248 -0.4493  0.5171  0.7462
  780MOL0     C 7543   5.588   5.497   7.217  0.1581 -0.1639  0.2589
  780MOL0     C 7544   5.636   5.361   7.269  1.0117  0.0965  0.4285
  780MOL0     C 7545   5.780   5.361   7.224  0.1009  0.5278  0.4249
  780MOL0     C 7546   5.840   5.232   7.275 -0.2115 -0.0570  0.1527
  780MOL0    Cl 7547   6.012   5.240   7.203  0.0185 -0.2019 -0.2104
  780MOL0     C 7548   5.046   5.212   7.442  0.1395  0.4028  0.8944
  780MOL0     C 7549   4.969   5.153   7.536 -0.4046  0.0295  0.0672
  780MOL0     O 7550   4.948   4.903   7.734 -0.9472  0.0126  0.3416
  780MOL0     C 7551   4.607   4.862   7.721 -0.0996  0.8158 -0.5325
  780MOL0     C 7552   4.492   4.823   7.789 -0.0699 -1.0463 -0.6634
  780MOL0     N 7553   4.041   4.341   8.145  0.0233  0.0990 -0.0124
  780MOL0     N 7554   3.984   4.273   8.049 -0.5124  0.2101 -0.0188
  780MOL0     C 7555   2.815   4.043   7.606  0.7926  0.3688  1.1987
  780MOL0     C 7556   2.673   4.033   7.614  0.7978  0.2500 -0.7369
  780MOL0     C 7557   2.282   3.839   7.779 -0.1507  0.1969  0.1515
  780MOL0     C 7558   2.184   3.893   7.864  0.1244 -0.2911  0.1789
  780MOL0     C 7559   2.054   3.851   7.866  0.0445 -0.1126  0.3163
  780MOL0     C 7560   2.019   3.745   7.792  0.1886  0.5003 -0.7185
  780MOL0     O 7561   1.898   3.679   7.801 -0.1447  0.5685  0.2960
  780MOL0     C 7562   1.765   3.724   7.863  0.4321 -0.5781 -0.4649
  780MOL0     C 7563   1.784   3.721   8.015 -0.2022  0.5523 -0.3321
  780MOL0     C 7564   1.651   3.747   8.088  0.0818 -0.0866 -0.0125
  780MOL0     C 7565   1.618   3.897   8.093  0.1404  0.5372  0.0706
  780MOL0     C 7566   1.483   3.930   8.146  0.1049 -0.9327 -0.5480
  780MOL0     C 7567   1.376   3.961   8.195  0.6599  0.5470  0.9081
  780MOL0     C 7568   2.106   3.687   7.707  0.4576  0.0124 -0.1558
  780MOL0     C 7569   2.240   3.733   7.694  0.3239  1.0086 -1.4681
  780MOL0     C 7570   2.336   3.649   7.621  1.2219 -0.0768 -0.8815
  780MOL0     H 7571   2.652   3.737   7.786 -1.1726  1.0325  1.3729
  780MOL0     H 7572   2.907   3.772   7.767  0.1858  0.2925  0.3250
  780MOL0     H 7573   3.060   4.082   7.746 -2.7107 -0.7831 -0.8685
  780MOL0     H 7574   3.097   4.094   7.559  1.5765  0.2126 -0.1756
  780MOL0     H 7575   3.224   3.913   7.786  0.8186 -0.6287 -0.8564
  780MOL0     H 7576   3.285   3.923   7.627  1.9691 -1.0957  2.2181
  780MOL0     H 7577   3.331   4.151   7.629  3.7707 -0.5187 -0.3892
  780MOL0     H 7578   3.300   4.151   7.814 -0.7673  0.8354  0.5011
  780MOL0     H 7579   3.485   3.948   7.782  1.0015  2.5634  3.3551
  780MOL0     H 7580   3.504   4.034   7.620 -0.3056  2.0519 -0.0797
  780MOL0     H 7581   3.541   4.244   7.766  0.2158  0.1818 -0.4291
  780MOL0     H 7582   3.674   4.119   7.751  0.8242 -3.1944  2.5314
  780MOL0     H 7583   3.497   4.097   7.990 -2.1290 -0.6059 -3.6254
  780MOL0     H 7584   3.662   4.032   7.959  0.6954  1.0142  1.3352
  780MOL0     H 7585   3.698   4.219   8.102 -0.4020 -0.4321  0.1382
  780MOL0     H 7586   3.581   4.309   8.010 -1.5867 -0.9272 -0.7508
  780MOL0     H 7587   3.828   4.215   7.852 -0.1908 -1.6658  2.3072
  780MOL0     H 7588   3.744   4.374   7.851  0.5822  0.5625  0.9300
  780MOL0     H 7589   3.824   4.563   8.034 -1.5078 -0.7465  1.8804
  780MOL0     H 7590   4.056   4.587   8.317  1.6864  0.2931 -0.3315
  780MOL0     H 7591   3.975   4.667   8.189 -1.2762 -1.4338 -1.1399
  780MOL0     H 7592   4.252   4.540   8.143  1.8561  2.0883 -0.8642
  780MOL0     H 7593   4.156   4.616   8.020  0.7155  2.5797 -0.2815
  780MOL0     H 7594   4.165   4.831   8.124  0.7786  0.8557 -2.5473
  780MOL0     H 7595   4.232   4.753   8.280  3.3835  0.9807 -0.1729
  780MOL0     H 7596   4.390   4.876   8.168  0.3746 -0.7083 -0.5903
  780MOL0     H 7597   4.434   4.699   8.146 -0.3349 -0.4891 -0.9168
  780MOL0     H 7598   4.607   4.844   8.109  0.5738  2.3037 -0.6537
  780MOL0     H 7599   4.933   4.889   7.976 -0.2605 -0.9053 -0.7773
  780MOL0     H 7600   4.817   4.858   8.095 -1.3583 -0.9723 -1.1237
  780MOL0     H 7601   4.851   5.030   8.047 -2.0079 -0.8156  0.5411
  780MOL0     H 7602   4.797   4.931   7.344 -1.1214  0.2267  0.9350
  780MOL0     H 7603   4.929   5.057   7.160  3.3643  0.1402 -0.4430
  780MOL0     H 7604   5.091   5.389   7.079 -0.2957 -1.3698 -0.3276
  780MOL0     H 7605   4.995   5.397   7.231 -0.0796 -1.3404 -1.1484
  780MOL0     H 7606   5.189   5.574   7.186 -0.0349  0.5215 -1.3121
  780MOL0     H 7607   5.181   5.490   7.341 -1.1555  2.8703 -1.3159
  780MOL0     H 7608   5.352   5.403   7.092 -2.5039 -1.6773 -0.0296
  780MOL0     H 7609   5.360   5.326   7.245  1.7279  0.4175 -1.1677
  780MOL0     H 7610   5.431   5.542   7.356  0.2017  4.5205  0.5645
  780MOL0     H 7611   5.423   5.631   7.208 -0.9187 -0.2931 -1.1611
  780MOL0     H 7612   5.600   5.510   7.109 -2.8851  3.9386  0.1936
  780MOL0     H 7613   5.645   5.578   7.265 -1.7693  2.1909 -1.2320
  780MOL0     H 7614   5.582   5.276   7.225  4.0382 -2.2982  0.9966
  780MOL0     H 7615   5.634   5.351   7.378  0.3400 -1.3368  0.3074
  780MOL0     H 7616   5.832   5.446   7.270  2.8683 -0.1499 -1.2350
  780MOL0     H 7617   5.779   5.360   7.115  5.0716 -1.0878  0.1171
  780MOL0     H 7618   5.793   5.144   7.230 -1.4287 -0.8312  2.7697
  780MOL0     H 7619   5.835   5.239   7.384 -1.9920  0.6003  0.0593
  780MOL0     H 7620   5.125   5.284   7.459 -1.4203  1.9779  1.6850
  780MOL0     H 7621   4.981   5.176   7.641 -0.9641  0.2596  0.0852
  780MOL0     H 7622   4.617   4.853   7.613  1.7911  3.5344 -0.6928
  780MOL0     H 7623   4.402   4.799   7.733  1.2495 -3.1653 -2.0216
  780MOL0     H 7624   2.868   4.115   7.546 -0.3011  1.4914  1.5397
  780MOL0     H 7625   2.603   4.106   7.573 -0.0540 -1.2678 -2.0807
  780MOL0     H 7626   2.210   3.974   7.931 -0.8118  1.1760 -1.1486
  780MOL0     H 7627   1.993   3.903   7.939  0.1096 -2.6718  2.3623
  780MOL0     H 7628   1.746   3.829   7.838  1.5019  0.1075  1.3362
  780MOL0     H 7629   1.675   3.666   7.844 -0.7800  1.3931 -0.9951
  780MOL0     H 7630   1.855   3.795   8.054 -0.3800  0.4635  0.1674
  780MOL0     H 7631   1.820   3.620   8.040 -0.3427  0.1302 -1.7446
  780MOL0     H 7632   1.572   3.685   8.045  0.5656  0.2231 -1.4200
  780MOL0     H 7633   1.667   3.717   8.192 -1.8082  0.6711  0.5222
  780MOL0     H 7634   1.619   3.937   7.992 -0.8286 -0.2035 -0.2452
  780MOL0     H 7635   1.699   3.953   8.141  1.0537 -0.0912 -0.7035
  780MOL0     H 7636   1.271   3.967   8.219  0.0703 -3.8916  0.3019
  780MOL0     H 7637   2.065   3.595   7.666  0.2717 -0.0228  0.1035
  780MOL0     H 7638   2.320   3.686   7.519 -1.4889  2.3463  0.2920
  780MOL0     H 7639   2.437   3.656   7.663  0.1720  1.5568  1.5800
  780MOL0     H 7640   2.305   3.544   7.624  1.9461 -0.2761  2.3791
  781MOL0     O 7641   2.843   2.175  10.936 -0.0598  0.5298 -0.0218
  781MOL0     C 7642   2.864   2.071  10.875 -0.7809  0.1070 -0.1788
  781MOL0     O 7643   2.976   2.001  10.884  0.4544 -0.1401 -0.2099
  781MOL0     C 7644   3.065   2.016  10.986 -1.2807 -0.5361 -0.4701
  781MOL0     C 7645   3.053   2.068  11.117  0.1850 -0.9049  0.1504
  781MOL0     C 7646   3.148   2.064  11.209  0.1917 -0.7698 -0.5062
  781MOL0     C 7647   3.273   2.020  11.174 -0.8372  0.4074 -0.0045
  781MOL0     O 7648   3.385   2.014  11.262 -0.0481 -0.4056  0.2379
  781MOL0     C 7649   3.360   2.039  11.397  0.2676 -0.3006 -0.4720
  781MOL0     C 7650   3.485   2.013  11.480  0.3736  0.2873 -0.3988
  781MOL0     C 7651   3.609   2.064  11.417 -0.1969 -0.5770  0.1017
  781MOL0     C 7652   3.713   2.074  11.529 -0.0384  0.2146  0.0935
  781MOL0     C 7653   3.850   2.128  11.473  0.8770  0.1400 -0.6815
  781MOL0     C 7654   3.922   2.023  11.387  0.6560 -0.0770 -0.8506
  781MOL0     C 7655   4.066   2.058  11.372 -0.4392  0.4105 -0.1862
  781MOL0     C 7656   4.133   1.973  11.266  0.4215 -0.4311 -0.5612
  781MOL0     N 7657   4.266   2.019  11.238  0.3858  0.3039  0.0186
  781MOL0     C 7658   4.293   2.107  11.141 -0.3262 -0.1924  0.3201
  781MOL0     C 7659   4.424   2.128  11.142 -0.9016  0.5869 -0.3156
  781MOL0     C 7660   4.506   2.230  11.066  0.2081  0.7885 -0.1843
  781MOL0     C 7661   4.633   2.174  11.010 -1.6913  0.3991  0.1320
  781MOL0     C 7662   4.720   2.288  10.962 -0.3660 -0.3790  0.2937
  781MOL0     C 7663   4.861   2.228  10.923  0.0448 -0.8082 -0.1069
  781MOL0     O 7664   4.926   2.176  11.030 -0.4075  0.0279 -0.8710
  781MOL0     C 7665   5.062   2.200  11.049  1.0481  0.0283 -0.9779
  781MOL0     C 7666   5.153   2.287  10.981  0.1964 -0.7641  0.3771
  781MOL0     C 7667   5.290   2.290  11.025  0.0985  0.0214  0.2029
  781MOL0     C 7668   5.386   2.368  10.941 -0.7666 -0.5114 -0.2817
  781MOL0     C 7669   5.341   2.210  11.123 -0.1772 -0.0178 -0.6516
  781MOL0     C 7670   5.477   2.203  11.167 -0.0603 -0.7505  0.6708
  781MOL0     O 7671   5.522   2.077  11.203 -0.7908 -0.5436  0.4182
  781MOL0     C 7672   5.650   2.055  11.242  0.0417 -0.0589 -0.2789
  781MOL0     C 7673   5.764   2.097  11.182 -0.0413  0.3283 -0.0014
  781MOL0     C 7674   5.888   2.061  11.229 -0.5899  1.0212 -0.1007
  781MOL0     C 7675   5.902   1.958  11.323 -0.9605  0.2151  0.4518
  781MOL0     O 7676   6.017   1.897  11.365 -0.4233 -0.5365 -0.3174
  781MOL0     C 7677   6.130   1.887  11.290 -0.9355  0.0104 -0.0741
  781MOL0     C 7678   6.257   1.896  11.380  0.4182  0.4928  0.2063
  781MOL0     C 7679   6.262   2.004  11.491 -0.3507  0.2395 -0.5200
  781MOL0     C 7680   6.398   1.997  11.568  0.2888  0.1699 -0.0621
  781MOL0     C 7681   6.519   2.065  11.493 -0.8065  0.1928  0.1558
  781MOL0     C 7682   6.494   2.211  11.469  0.0374  0.3941  0.1567
  781MOL0     C 7683   6.618   2.274  11.403 -0.6358 -0.1793 -0.0442
  781MOL0     C 7684   6.628   2.245  11.254 -0.3215 -0.0116 -0.0685
  781MOL0    Cl 7685   6.792   2.176  11.226 -0.1201  0.1216  0.4505
  781MOL0     C 7686   5.789   1.921  11.394 -0.4436  0.9861  1.0007
  781MOL0     C 7687   5.665   1.973  11.356  1.2658  0.9815  0.1167
  781MOL0     O 7688   5.543   2.308  11.180 -0.0231  0.0322  0.9428
  781MOL0     C 7689   5.251   2.113  11.173 -0.3807  0.4354 -0.3284
  781MOL0     C 7690   5.112   2.109  11.136 -0.2535  0.7988  0.8833
  781MOL0     N 7691   4.474   2.055  11.247 -0.1809  0.6387 -0.0226
  781MOL0     N 7692   4.377   1.992  11.309  0.8245 -0.0032  0.4613
  781MOL0     C 7693   3.303   1.981  11.049  0.5307 -0.6016 -1.3878
  781MOL0     C 7694   3.202   1.978  10.951  0.3306 -0.0423 -0.5849
  781MOL0     C 7695   2.756   2.022  10.779  0.6253  0.4003  0.3267
  781MOL0     C 7696   2.656   2.102  10.739  0.9249 -0.1253  0.3898
  781MOL0     C 7697   2.545   2.073  10.659 -0.1154  0.3914  0.3444
  781MOL0     C 7698   2.546   1.949  10.585  0.3520  0.7116 -0.8884
  781MOL0     O 7699   2.456   1.901  10.488  0.4424 -0.1110  0.2596
  781MOL0     C 7700   2.327   1.977  10.481 -0.3493 -0.4442  0.6275
  781MOL0     C 7701   2.229   1.941  10.590  0.2166  0.9743 -0.0731
  781MOL0     C 7702   2.159   1.801  10.569  0.7872 -0.7039  0.3037
  781MOL0     C 7703   2.063   1.783  10.689 -0.6694  0.3082 -0.4810
  781MOL0     C 7704   1.991   1.657  10.674 -0.7363 -0.4045 -0.3695
  781MOL0     C 7705   1.923   1.559  10.662  0.0202 -0.2983 -0.0078
  781MOL0     C 7706   2.658   1.857  10.618  0.7993  1.3650  0.1553
  781MOL0     C 7707   2.751   1.889  10.722 -0.6027 -0.5086  0.3810
  781MOL0     C 7708   2.848   1.786  10.767  0.1274  0.0954  0.1269
  781MOL0     H 7709   2.960   2.110  11.155 -0.4804 -0.5241 -1.7929
  781MOL0     H 7710   3.119   2.098  11.308  0.8834 -2.5927  0.3755
  781MOL0     H 7711   3.277   1.973  11.424  0.0946 -0.8963 -2.2727
  781MOL0     H 7712   3.338   2.145  11.412 -1.1627 -0.4912 -1.0631
  781MOL0     H 7713   3.482   2.051  11.582  3.3654  0.4977 -0.2936
  781MOL0     H 7714   3.500   1.908  11.509  1.3225  1.3801  3.7056
  781MOL0     H 7715   3.645   2.010  11.329  0.1905 -1.1699  0.6125
  781MOL0     H 7716   3.584   2.163  11.378  1.6945 -0.3725 -0.6971
  781MOL0     H 7717   3.676   2.141  11.606 -1.5483 -0.9183  0.3959
  781MOL0     H 7718   3.732   1.979  11.579  2.8895  1.6341  1.9540
  781MOL0     H 7719   3.907   2.139  11.566 -1.6903 -1.2656  1.1886
  781MOL0     H 7720   3.831   2.226  11.427  0.3069 -0.9685 -2.9313
  781MOL0     H 7721   3.905   1.922  11.424 -0.6257  0.9866  1.7333
  781MOL0     H 7722   3.873   2.015  11.290  0.8511 -3.1680 -0.7829
  781MOL0     H 7723   4.121   2.043  11.466 -1.6697  1.9361  0.8224
  781MOL0     H 7724   4.072   2.160  11.334  2.8823  0.2396 -0.4224
  781MOL0     H 7725   4.140   1.876  11.317  0.1001 -0.5413 -0.7233
  781MOL0     H 7726   4.063   1.964  11.183 -0.6066  2.5146 -0.1346
  781MOL0     H 7727   4.222   2.144  11.068  0.6761 -0.3624 -0.7590
  781MOL0     H 7728   4.525   2.311  11.136  0.4536  0.7353 -0.1909
  781MOL0     H 7729   4.452   2.268  10.978  1.6943  0.7186 -1.1551
  781MOL0     H 7730   4.681   2.137  11.100 -0.6749 -0.4125 -0.7178
  781MOL0     H 7731   4.618   2.100  10.931  0.1932  1.7008 -1.5376
  781MOL0     H 7732   4.661   2.325  10.877 -0.0631 -1.3170 -0.3375
  781MOL0     H 7733   4.737   2.361  11.041  1.8440 -0.1709 -0.3113
  781MOL0     H 7734   4.848   2.154  10.843 -2.2330  1.5659 -2.1466
  781MOL0     H 7735   4.921   2.303  10.871 -0.1242 -0.5074  0.1280
  781MOL0     H 7736   5.129   2.345  10.892  2.6990  0.0081  0.1368
  781MOL0     H 7737   5.349   2.371  10.838 -4.0570 -2.6786  0.6739
  781MOL0     H 7738   5.487   2.326  10.935  0.0040  1.3606 -1.2741
  781MOL0     H 7739   5.385   2.469  10.984  0.3814 -0.3719 -0.5476
  781MOL0     H 7740   5.767   2.165  11.097  1.4484  2.7069  1.8024
  781MOL0     H 7741   5.970   2.115  11.183  0.7271 -1.6167 -1.0717
  781MOL0     H 7742   6.132   1.796  11.230  1.3982  0.5718 -0.9911
  781MOL0     H 7743   6.145   1.968  11.218  2.2723 -0.6476 -0.3090
  781MOL0     H 7744   6.256   1.799  11.431 -1.8649 -0.2370 -1.0527
  781MOL0     H 7745   6.342   1.923  11.317  1.4139 -0.0653  1.2598
  781MOL0     H 7746   6.179   2.010  11.561 -2.0324 -0.8324 -2.3230
  781MOL0     H 7747   6.263   2.102  11.441  2.5032  1.1660  1.1243
  781MOL0     H 7748   6.411   1.890  11.588  0.1505  0.4590  1.7314
  781MOL0     H 7749   6.396   2.051  11.663 -1.7507  0.3965 -0.1802
  781MOL0     H 7750   6.603   2.053  11.562  0.2593 -2.1424 -1.4200
  781MOL0     H 7751   6.549   2.016  11.400 -2.6696  2.0403 -1.5206
  781MOL0     H 7752   6.485   2.264  11.564  0.3778  0.1303  0.3384
  781MOL0     H 7753   6.404   2.231  11.410 -0.4720 -0.5672  0.5908
  781MOL0     H 7754   6.708   2.236  11.452 -0.5266  0.7642  0.5015
  781MOL0     H 7755   6.604   2.382  11.413  1.4642  0.0842  0.5899
  781MOL0     H 7756   6.627   2.340  11.200  4.4674  0.4756  0.2051
  781MOL0     H 7757   6.551   2.179  11.215 -1.2653  1.0430 -0.0389
  781MOL0     H 7758   5.799   1.844  11.469  1.3791  0.0994 -0.0757
  781MOL0     H 7759   5.579   1.940  11.413  0.4931  2.1493 -0.3343
  781MOL0     H 7760   5.294   2.036  11.237  0.7022  0.4409 -1.0297
  781MOL0     H 7761   5.044   2.040  11.185 -0.4524  0.6468  0.4025
  781MOL0     H 7762   3.409   1.964  11.037  0.7413 -1.0518  0.7475
  781MOL0     H 7763   3.234   1.950  10.851 -1.0972 -3.6339 -0.1883
  781MOL0     H 7764   2.656   2.206  10.768 -4.2072 -0.1146  1.3108
  781MOL0     H 7765   2.473   2.152  10.643 -1.2496 -1.0226 -2.1550
  781MOL0     H 7766   2.342   2.085  10.487 -3.0406  0.0798 -0.7496
  781MOL0     H 7767   2.292   1.960  10.379  3.9270  0.0621 -1.1348
  781MOL0     H 7768   2.143   2.008  10.589 -1.5481 -1.1682  0.0807
  781MOL0     H 7769   2.277   1.943  10.689 -0.6666 -0.9227  0.4398
  781MOL0     H 7770   2.097   1.797  10.479 -2.7382  4.0213  2.0889
  781MOL0     H 7771   2.231   1.720  10.563 -0.2952 -1.7434  0.8863
  781MOL0     H 7772   1.988   1.863  10.681  0.9284  1.8211 -0.8229
  781MOL0     H 7773   2.112   1.784  10.787  0.5534 -1.1868 -1.0498
  781MOL0     H 7774   1.850   1.481  10.672 -2.0897  1.1168 -3.0335
  781MOL0     H 7775   2.663   1.759  10.571  0.2382  1.4588 -0.1002
  781MOL0     H 7776   2.850   1.784  10.876  1.7946 -0.2743  0.1134
  781MOL0     H 7777   2.817   1.688  10.728 -0.7332  1.1158 -1.8900
  781MOL0     H 7778   2.945   1.806  10.721 -0.5565  0.3625 -1.2744
  782MOL0     O 7779   6.563   0.435   1.102 -0.3048  0.3950  0.4405
  782MOL0     C 7780   6.517   0.547   1.076 -0.2341  0.2391  0.7987
  782MOL0     O 7781   6.593   0.649   1.033  0.7494 -0.0961  0.3112
  782MOL0     C 7782   6.721   0.629   0.999  0.7353  1.0249  0.5785
  782MOL0     C 7783   6.812   0.580   1.096  0.2714 -0.3578 -0.1190
  782MOL0     C 7784   6.937   0.545   1.040  0.3756  0.3321  0.3787
  782MOL0     C 7785   6.971   0.559   0.902 -0.5504  0.0604 -0.4524
  782MOL0     O 7786   7.103   0.520   0.860  0.0287 -0.2910 -0.2586
  782MOL0     C 7787   7.135   0.507   0.716  0.6541  0.4617 -1.0401
  782MOL0     C 7788   7.263   0.422   0.708  0.1114 -0.5176  0.3640
  782MOL0     C 7789   7.394   0.476   0.771  0.6187  0.1606 -0.3091
  782MOL0     C 7790   7.500   0.369   0.781 -0.0631  0.4482  0.2660
  782MOL0     C 7791   7.638   0.435   0.825  0.0451  0.4033 -1.1242
  782MOL0     C 7792   7.739   0.329   0.876  0.2749 -0.6274  0.0418
  782MOL0     C 7793   7.780   0.228   0.772 -0.1086 -0.3088 -0.3247
  782MOL0     C 7794   7.881   0.296   0.676  0.0469  0.3394 -0.3351
  782MOL0     N 7795   8.004   0.361   0.736 -0.3626  0.4200 -0.0949
  782MOL0     C 7796   8.011   0.497   0.768  1.3891  0.4639  0.1457
  782MOL0     C 7797   8.140   0.513   0.805  0.5382  0.1423 -0.4099
  782MOL0     C 7798   8.215   0.641   0.837  0.1500 -0.1634  0.1488
  782MOL0     C 7799   8.366   0.619   0.831 -0.3450  1.0567 -0.5918
  782MOL0     C 7800   8.448   0.746   0.838 -0.7789 -0.0180 -0.2667
  782MOL0     C 7801   8.601   0.717   0.819  0.6823  0.0921  0.2178
  782MOL0     O 7802   8.668   0.846   0.792 -0.5896  0.1190 -0.0122
  782MOL0     C 7803   8.800   0.834   0.743  0.4113  0.3082 -0.1410
  782MOL0     C 7804   8.872   0.958   0.734  0.0827 -0.1110 -1.2655
  782MOL0     C 7805   9.007   0.964   0.703 -0.6173 -0.8280 -0.2720
  782MOL0     C 7806   9.069   1.104   0.693 -0.5762 -0.2472 -0.0373
  782MOL0     C 7807   9.076   0.842   0.671 -0.5383  0.2020  0.0780
  782MOL0     C 7808   9.219   0.843   0.638  0.0931 -0.0373 -0.7851
  782MOL0     O 7809   9.262   0.783   0.517 -0.3629  0.4536  0.1209
  782MOL0     C 7810   9.393   0.754   0.498 -0.0647 -0.4440  0.0217
  782MOL0     C 7811   9.462   0.676   0.594 -0.7441  0.2831 -0.2693
  782MOL0     C 7812   9.597   0.645   0.570 -0.0625  0.5212  0.8588
  782MOL0     C 7813   9.661   0.693   0.452 -0.0766  0.1812 -0.3426
  782MOL0     O 7814   9.790   0.667   0.421  0.0058 -0.2981  0.2859
  782MOL0     C 7815   9.883   0.716   0.522 -0.6132  1.4941 -0.3608
  782MOL0     C 7816  10.023   0.667   0.481  0.0562  0.5701 -0.2697
  782MOL0     C 7817  10.079   0.742   0.368 -0.0416 -0.2307 -1.0407
  782MOL0     C 7818  10.230   0.727   0.345  0.2023 -0.2023  0.3533
  782MOL0     C 7819  10.291   0.863   0.322 -0.2064 -0.0333  0.6227
  782MOL0     C 7820  10.442   0.856   0.297  0.0256 -0.4667 -0.4467
  782MOL0     C 7821  10.509   0.995   0.296 -0.2048  0.1200  0.6711
  782MOL0     C 7822  10.557   1.044   0.428 -0.3375  0.1329  0.2872
  782MOL0    Cl 7823  10.422   1.090   0.544 -0.3557 -0.4953  0.0921
  782MOL0     C 7824   9.589   0.766   0.357 -0.7407  0.5247  0.4743
  782MOL0     C 7825   9.455   0.783   0.378 -0.0587  0.0363  0.1416
  782MOL0     O 7826   9.296   0.886   0.722 -0.0316 -0.3112 -0.7853
  782MOL0     C 7827   9.009   0.720   0.670  0.8223 -0.9922 -1.2984
  782MOL0     C 7828   8.869   0.719   0.702  0.5387 -0.6421 -0.4526
  782MOL0     N 7829   8.195   0.385   0.811 -0.1369  0.2507  0.1635
  782MOL0     N 7830   8.114   0.289   0.775 -0.9441  0.1979  0.4938
  782MOL0     C 7831   6.883   0.625   0.820 -0.0549  1.0883  0.6397
  782MOL0     C 7832   6.757   0.662   0.864 -0.1854  0.8812 -0.4260
  782MOL0     C 7833   6.374   0.571   1.100  0.3005  0.1903 -0.2075
  782MOL0     C 7834   6.327   0.706   1.098 -0.1199 -0.0961 -0.0417
  782MOL0     C 7835   6.198   0.735   1.144 -0.6657 -0.4486  0.6453
  782MOL0     C 7836   6.102   0.633   1.177 -0.4677  0.8546  0.4796
  782MOL0     O 7837   5.975   0.653   1.221  0.3228  0.2921 -0.5109
  782MOL0     C 7838   5.905   0.779   1.212 -0.2557 -0.2900 -0.6085
  782MOL0     C 7839   5.775   0.754   1.135 -0.2783 -0.1020 -0.3098
  782MOL0     C 7840   5.684   0.640   1.176  0.4629  0.4479 -0.7246
  782MOL0     C 7841   5.564   0.645   1.080  0.9235  0.5265  0.4298
  782MOL0     C 7842   5.478   0.531   1.121 -0.5428 -0.2774 -0.2931
  782MOL0     C 7843   5.394   0.450   1.163 -0.3487 -0.2496 -0.4919
  782MOL0     C 7844   6.146   0.493   1.168  0.5736  0.2828  0.0561
  782MOL0     C 7845   6.275   0.460   1.119  0.3185 -0.4122 -0.1519
  782MOL0     C 7846   6.306   0.313   1.107  0.2945 -0.6148  0.4407
  782MOL0     H 7847   6.776   0.572   1.199 -0.6149 -0.8273 -0.4538
  782MOL0     H 7848   7.017   0.506   1.102 -1.1138 -1.5425  1.2477
  782MOL0     H 7849   7.159   0.607   0.680 -1.3425  1.3700 -0.0238
  782MOL0     H 7850   7.050   0.461   0.666  0.5611 -0.3196 -0.1868
  782MOL0     H 7851   7.242   0.326   0.757 -0.8839 -0.3641  0.2591
  782MOL0     H 7852   7.283   0.403   0.602  1.4843 -2.4696  0.9173
  782MOL0     H 7853   7.432   0.552   0.703 -1.5672  2.5085  0.9002
  782MOL0     H 7854   7.373   0.531   0.863  2.6556 -2.4010  1.8295
  782MOL0     H 7855   7.477   0.288   0.852  1.9970 -0.9006 -0.5133
  782MOL0     H 7856   7.514   0.330   0.680  1.3736  2.8991 -0.5371
  782MOL0     H 7857   7.624   0.503   0.909 -2.9002  0.5672 -1.6716
  782MOL0     H 7858   7.677   0.497   0.743  3.3712  2.1558  1.5264
  782MOL0     H 7859   7.829   0.372   0.922 -0.2749  1.6746 -0.8899
  782MOL0     H 7860   7.698   0.267   0.955 -1.3626 -1.2296 -1.2258
  782MOL0     H 7861   7.693   0.184   0.721  1.3291 -1.2649 -2.0662
  782MOL0     H 7862   7.814   0.135   0.820 -5.2081 -1.2628  2.2457
  782MOL0     H 7863   7.921   0.214   0.615  1.5154 -0.2822  1.3743
  782MOL0     H 7864   7.827   0.365   0.611 -0.7096  0.5371  0.4967
  782MOL0     H 7865   7.936   0.571   0.739 -1.4300 -3.0317 -2.5390
  782MOL0     H 7866   8.187   0.684   0.933 -2.0239 -0.4402 -0.3197
  782MOL0     H 7867   8.184   0.716   0.763 -1.6711 -1.3899 -0.3920
  782MOL0     H 7868   8.395   0.557   0.916 -2.3171 -1.8364 -1.8806
  782MOL0     H 7869   8.391   0.558   0.743 -0.1335  0.6775 -0.2719
  782MOL0     H 7870   8.426   0.802   0.746 -2.7015  0.5688  0.5049
  782MOL0     H 7871   8.425   0.798   0.931 -0.3512 -0.1274 -0.0954
  782MOL0     H 7872   8.645   0.670   0.907  0.8669  2.0719  1.2511
  782MOL0     H 7873   8.605   0.653   0.731 -2.2483 -0.1695  0.1512
  782MOL0     H 7874   8.816   1.046   0.763 -0.3265 -1.1429  1.3910
  782MOL0     H 7875   9.005   1.185   0.728 -2.1299 -0.1604 -2.8310
  782MOL0     H 7876   9.074   1.136   0.589 -0.4069  0.3044  0.1368
  782MOL0     H 7877   9.164   1.107   0.747 -1.5212  2.6022  1.6580
  782MOL0     H 7878   9.416   0.651   0.689 -0.3529  0.1974 -0.1019
  782MOL0     H 7879   9.664   0.593   0.638  1.9893  0.8641 -0.7942
  782MOL0     H 7880   9.875   0.825   0.535  0.0438  1.6967 -1.5046
  782MOL0     H 7881   9.853   0.666   0.615 -0.5575  2.6011  0.2714
  782MOL0     H 7882  10.086   0.675   0.570 -0.6701  0.4414  0.2724
  782MOL0     H 7883  10.007   0.561   0.459 -3.3983  1.3061 -2.0631
  782MOL0     H 7884  10.053   0.848   0.374  0.7391 -0.1061  0.8185
  782MOL0     H 7885  10.021   0.718   0.278 -0.9721  1.2312 -0.8670
  782MOL0     H 7886  10.240   0.674   0.250 -0.3293 -0.3834  0.3945
  782MOL0     H 7887  10.289   0.677   0.422  2.6436  0.2243 -1.1589
  782MOL0     H 7888  10.250   0.918   0.236 -0.7082  2.5058  2.3496
  782MOL0     H 7889  10.263   0.926   0.407 -0.0225  0.6722  0.1716
  782MOL0     H 7890  10.448   0.806   0.200 -0.9005 -1.2140 -0.1376
  782MOL0     H 7891  10.489   0.791   0.372 -1.1012 -0.9411 -0.1285
  782MOL0     H 7892  10.438   1.066   0.253 -1.2917 -0.3011  1.7060
  782MOL0     H 7893  10.598   0.997   0.233 -1.9559 -0.1105 -1.9983
  782MOL0     H 7894  10.613   1.137   0.412 -0.9588  0.1941 -1.9191
  782MOL0     H 7895  10.637   0.981   0.465  1.8482  1.4376 -1.8750
  782MOL0     H 7896   9.640   0.804   0.269 -3.4197 -2.6941 -2.8032
  782MOL0     H 7897   9.400   0.829   0.296  0.4752 -2.0171 -1.4705
  782MOL0     H 7898   9.067   0.630   0.651  0.2281 -1.9853  1.1504
  782MOL0     H 7899   8.816   0.624   0.709 -1.2822  0.2408 -1.6132
  782MOL0     H 7900   6.921   0.650   0.721  1.2586  0.0596  0.8538
  782MOL0     H 7901   6.694   0.733   0.812  1.5156  3.2178  0.5178
  782MOL0     H 7902   6.383   0.798   1.083 -0.3462 -0.3753 -3.2124
  782MOL0     H 7903   6.174   0.840   1.146 -2.0258 -0.6810 -1.3681
  782MOL0     H 7904   5.891   0.821   1.312  0.7332  1.2555 -1.0777
  782MOL0     H 7905   5.959   0.860   1.161 -0.7826  0.8750  0.6013
  782MOL0     H 7906   5.811   0.734   1.034  1.9264  3.1299 -0.3112
  782MOL0     H 7907   5.719   0.847   1.133  1.8415  1.6470  4.9628
  782MOL0     H 7908   5.736   0.545   1.178  1.2040  0.8540  0.9769
  782MOL0     H 7909   5.645   0.665   1.275  0.4874  3.3250 -1.3407
  782MOL0     H 7910   5.593   0.626   0.976  1.0245 -3.3324  1.0155
  782MOL0     H 7911   5.506   0.738   1.085 -1.5709 -0.9348  0.5083
  782MOL0     H 7912   5.328   0.370   1.191 -1.0055  0.1235 -0.9786
  782MOL0     H 7913   6.077   0.410   1.174  0.8390  0.0597  0.0599
  782MOL0     H 7914   6.212   0.265   1.136  0.4356 -0.9333  0.3735
  782MOL0     H 7915   6.333   0.279   1.007 -2.8400  0.6050 -0.9471
  782MOL0     H 7916   6.374   0.280   1.186  2.4529  1.9609 -0.1957
  783MOL0     O 7917   6.695   2.952  10.300 -0.0403 -0.7410  0.3379
  783MOL0     C 7918   6.715   3.057  10.360 -0.1352  0.3199  0.5142
  783MOL0     O 7919   6.815   3.080  10.448  0.1493  0.1697  0.0094
  783MOL0     C 7920   6.946   3.038  10.422 -0.0411 -0.3405  0.2997
  783MOL0     C 7921   7.027   3.070  10.525  0.5939 -0.2953  0.4602
  783MOL0     C 7922   7.163   3.049  10.517  0.0513  0.1548 -0.6380
  783MOL0     C 7923   7.221   2.968  10.415  0.1919  0.2712  0.0958
  783MOL0     O 7924   7.352   2.926  10.421 -0.2369 -0.2990 -0.1029
  783MOL0     C 7925   7.438   2.958  10.537 -0.1953 -0.3331 -0.3844
  783MOL0     C 7926   7.586   2.911  10.524 -0.2720  0.7820  0.0955
  783MOL0     C 7927   7.655   2.990  10.408 -0.3415 -1.4539  0.1428
  783MOL0     C 7928   7.800   2.935  10.385  0.0204  0.2827 -0.1790
  783MOL0     C 7929   7.861   3.001  10.257  0.1682  0.1841 -0.0275
  783MOL0     C 7930   7.996   2.929  10.231 -0.0602  0.2072 -0.2058
  783MOL0     C 7931   8.083   2.961  10.106 -0.2421  0.7729  0.1515
  783MOL0     C 7932   8.218   2.872  10.096 -0.0743  0.2227  0.5528
  783MOL0     N 7933   8.195   2.747  10.024  0.2724 -0.6971  0.6411
  783MOL0     C 7934   8.112   2.651  10.066 -0.4830  0.3491  1.0616
  783MOL0     C 7935   8.090   2.574   9.953 -0.1081  0.1407 -0.2029
  783MOL0     C 7936   8.028   2.438   9.945  0.2752  0.5333 -0.1048
  783MOL0     C 7937   8.118   2.307   9.985 -0.6268  0.1358  0.8171
  783MOL0     C 7938   8.117   2.285  10.136  0.2089 -1.0480 -0.4772
  783MOL0     C 7939   8.220   2.181  10.163 -0.1562  0.3984  0.2698
  783MOL0     O 7940   8.203   2.122  10.292 -0.2332  0.6147  0.3600
  783MOL0     C 7941   8.292   2.028  10.342  0.8484 -1.0920 -0.1028
  783MOL0     C 7942   8.376   1.944  10.276 -0.9996  0.2599  0.0592
  783MOL0     C 7943   8.469   1.863  10.339 -0.4063 -1.2618 -0.2907
  783MOL0     C 7944   8.551   1.785  10.242 -0.0857  0.5507 -0.6331
  783MOL0     C 7945   8.476   1.862  10.480 -0.5380 -0.1282 -0.3063
  783MOL0     C 7946   8.588   1.795  10.547  0.5572  0.5950 -0.2557
  783MOL0     O 7947   8.714   1.786  10.477 -0.5099 -0.2594 -0.3967
  783MOL0     C 7948   8.833   1.732  10.532  1.1030  0.1363 -0.5396
  783MOL0     C 7949   8.846   1.680  10.658  0.6450 -0.1237 -0.2243
  783MOL0     C 7950   8.969   1.619  10.702  0.1537 -1.7605 -0.4335
  783MOL0     C 7951   9.072   1.601  10.614  0.2615  0.7070  0.3010
  783MOL0     O 7952   9.192   1.534  10.650 -0.1975  0.0067  0.3880
  783MOL0     C 7953   9.314   1.615  10.662 -0.0655 -0.6599 -0.4173
  783MOL0     C 7954   9.337   1.657  10.811  0.2223 -0.4513  0.0175
  783MOL0     C 7955   9.374   1.529  10.886  0.0686  0.2668  0.5084
  783MOL0     C 7956   9.387   1.539  11.039 -0.6115 -0.1827 -0.7634
  783MOL0     C 7957   9.244   1.531  11.096  0.3788  0.3310 -0.8146
  783MOL0     C 7958   9.250   1.533  11.247 -0.5987  0.2218 -0.6641
  783MOL0     C 7959   9.322   1.418  11.310  0.2321  0.3627 -0.7931
  783MOL0     C 7960   9.305   1.437  11.466  0.1220 -0.5091 -0.7140
  783MOL0    Cl 7961   9.133   1.419  11.509 -0.2736  0.0451  0.0789
  783MOL0     C 7962   9.061   1.658  10.489  0.0115  0.2633  0.6260
  783MOL0     C 7963   8.943   1.722  10.451 -0.0376  0.1169  0.2422
  783MOL0     O 7964   8.566   1.771  10.668 -0.2104 -0.0741  0.5889
  783MOL0     C 7965   8.388   1.945  10.550 -1.1282  0.3760 -0.5213
  783MOL0     C 7966   8.301   2.023  10.480 -0.1906  0.0732  0.5045
  783MOL0     N 7967   8.166   2.626   9.852 -0.2445  0.6724  0.5116
  783MOL0     N 7968   8.225   2.727   9.896 -0.1622 -0.2079  0.3314
  783MOL0     C 7969   7.136   2.923  10.317 -0.2954 -0.6964  0.2092
  783MOL0     C 7970   7.002   2.969  10.309  0.7072 -1.3299 -0.3010
  783MOL0     C 7971   6.618   3.165  10.332  0.4082  0.4916 -0.8773
  783MOL0     C 7972   6.667   3.290  10.294 -0.0585  0.6399 -0.0349
  783MOL0     C 7973   6.573   3.394  10.278  0.9174 -0.2232 -0.1613
  783MOL0     C 7974   6.432   3.387  10.315 -0.3819 -0.4852 -0.6447
  783MOL0     O 7975   6.336   3.489  10.319 -0.6273 -0.3673  0.4596
  783MOL0     C 7976   6.265   3.518  10.440 -0.4152  0.4908  0.8177
  783MOL0     C 7977   6.210   3.658  10.450 -0.4202 -0.6569 -0.2772
  783MOL0     C 7978   6.152   3.677  10.594  0.3128  0.1103 -0.2246
  783MOL0     C 7979   6.258   3.750  10.670 -0.6828  0.5670 -0.0010
  783MOL0     C 7980   6.236   3.769  10.813  0.1633 -0.5189  1.1497
  783MOL0     C 7981   6.239   3.787  10.932  0.4527 -0.6115  0.1394
  783MOL0     C 7982   6.390   3.263  10.359 -0.2760  0.3232  0.2318
  783MOL0     C 7983   6.476   3.147  10.361 -0.4840 -0.2621 -0.8444
  783MOL0     C 7984   6.420   3.019  10.421 -1.1237 -0.0450  0.5968
  783MOL0     H 7985   6.978   3.120  10.608 -2.5691 -0.6605 -1.0354
  783MOL0     H 7986   7.226   3.073  10.602  0.0561 -0.8573 -0.3404
  783MOL0     H 7987   7.397   2.908  10.626  2.1755  0.0581  0.9909
  783MOL0     H 7988   7.436   3.065  10.560  0.6936 -0.8000  2.1321
  783MOL0     H 7989   7.634   2.926  10.621  0.1545  2.9499 -0.4052
  783MOL0     H 7990   7.594   2.804  10.501 -1.8278  1.0033 -1.7132
  783MOL0     H 7991   7.589   2.984  10.321 -3.1335 -4.4496  2.2370
  783MOL0     H 7992   7.675   3.093  10.438  0.0397 -2.1076  2.2825
  783MOL0     H 7993   7.871   2.932  10.468 -1.0925 -0.0310  0.7891
  783MOL0     H 7994   7.791   2.827  10.372  0.1048 -0.6768  5.2955
  783MOL0     H 7995   7.880   3.108  10.261 -0.5944  0.3073  0.7444
  783MOL0     H 7996   7.790   2.989  10.175 -1.1584 -1.4534  1.2786
  783MOL0     H 7997   8.056   2.944  10.322 -3.6694  1.3019  2.1873
  783MOL0     H 7998   7.976   2.821  10.232  2.6083 -0.3640  0.1107
  783MOL0     H 7999   8.098   3.068  10.123  0.2557  0.9093 -1.0149
  783MOL0     H 8000   8.035   2.955  10.008 -2.2158  0.7403  1.0683
  783MOL0     H 8001   8.297   2.923  10.040 -2.3535 -0.6321 -3.8651
  783MOL0     H 8002   8.251   2.849  10.198  0.3613  1.7276  0.7763
  783MOL0     H 8003   8.052   2.630  10.153 -2.9939 -0.4440 -0.7545
  783MOL0     H 8004   8.003   2.424   9.839  0.6965 -3.1511  0.1453
  783MOL0     H 8005   7.935   2.436  10.003  0.4233  2.6676  0.2968
  783MOL0     H 8006   8.079   2.217   9.939 -2.1194  0.6810  0.9689
  783MOL0     H 8007   8.216   2.321   9.938 -1.7642  1.0806 -1.4520
  783MOL0     H 8008   8.141   2.379  10.186  0.0706 -0.7962 -0.8760
  783MOL0     H 8009   8.015   2.261  10.166  0.7655 -1.8124  0.8946
  783MOL0     H 8010   8.203   2.105  10.086 -0.5142 -0.9323  1.6119
  783MOL0     H 8011   8.315   2.233  10.150 -0.2453  1.1297  2.2392
  783MOL0     H 8012   8.364   1.952  10.168 -2.3691 -0.4031  0.1280
  783MOL0     H 8013   8.644   1.829  10.207 -1.3792  2.8457 -1.4173
  783MOL0     H 8014   8.490   1.777  10.151  0.0807 -0.4996 -0.6615
  783MOL0     H 8015   8.553   1.682  10.279  0.7274  0.3215 -1.2945
  783MOL0     H 8016   8.768   1.673  10.734  0.6994 -0.3655 -0.1889
  783MOL0     H 8017   8.977   1.583  10.804 -0.7010  1.1162  0.7506
  783MOL0     H 8018   9.396   1.555  10.623  0.4393 -1.3407  1.5435
  783MOL0     H 8019   9.313   1.705  10.600 -0.2228 -1.4571 -1.5956
  783MOL0     H 8020   9.429   1.717  10.812 -0.2998  0.4120 -1.2120
  783MOL0     H 8021   9.253   1.713  10.853 -0.3459  0.0007 -1.6630
  783MOL0     H 8022   9.464   1.480  10.847 -0.2612  0.5260 -0.6140
  783MOL0     H 8023   9.285   1.468  10.869 -1.2251  0.5607  4.8482
  783MOL0     H 8024   9.437   1.634  11.061  0.9117 -1.1592  0.1439
  783MOL0     H 8025   9.453   1.457  11.068  0.3484  1.4106  1.9835
  783MOL0     H 8026   9.167   1.601  11.061 -1.6438 -1.7889 -0.8751
  783MOL0     H 8027   9.199   1.436  11.067 -0.6068  0.8949 -1.1881
  783MOL0     H 8028   9.148   1.535  11.286 -0.8527 -1.1003 -1.2041
  783MOL0     H 8029   9.299   1.626  11.279 -0.6639  0.3671 -0.9780
  783MOL0     H 8030   9.430   1.415  11.291  1.0062 -4.0145  2.6303
  783MOL0     H 8031   9.296   1.320  11.269  0.5681 -0.4778  0.9044
  783MOL0     H 8032   9.348   1.532  11.498 -1.2041 -1.0178  2.9825
  783MOL0     H 8033   9.362   1.361  11.520  1.1290  1.1215  0.6100
  783MOL0     H 8034   9.144   1.655  10.419 -0.8975  1.6439 -0.5604
  783MOL0     H 8035   8.941   1.777  10.358 -0.6268  2.6247  1.6350
  783MOL0     H 8036   8.381   1.952  10.658 -2.0830  0.5598 -0.5807
  783MOL0     H 8037   8.240   2.095  10.535  0.5778  2.4095 -1.5431
  783MOL0     H 8038   7.179   2.863  10.238  0.1950  0.8961 -0.7818
  783MOL0     H 8039   6.939   2.941  10.225  2.7346  1.3173 -2.8982
  783MOL0     H 8040   6.771   3.311  10.270 -0.7040  1.3716 -2.4490
  783MOL0     H 8041   6.603   3.494  10.251  1.0376  0.2968  1.7420
  783MOL0     H 8042   6.186   3.444  10.452  0.7126 -1.0609 -0.7082
  783MOL0     H 8043   6.342   3.511  10.517  1.0170  1.6947 -0.4255
  783MOL0     H 8044   6.130   3.668  10.375  0.6751 -0.4705 -1.4506
  783MOL0     H 8045   6.289   3.725  10.416 -0.3562 -1.3052 -1.4752
  783MOL0     H 8046   6.060   3.733  10.610  1.3351  1.6968  0.4532
  783MOL0     H 8047   6.127   3.580  10.637  4.1914  0.4683  3.4479
  783MOL0     H 8048   6.281   3.845  10.621 -0.7469  1.0220  0.8309
  783MOL0     H 8049   6.352   3.694  10.670  0.2843  2.0386 -2.4962
  783MOL0     H 8050   6.263   3.818  11.031  1.7675 -1.0990 -0.0157
  783MOL0     H 8051   6.292   3.244  10.402 -1.4669 -0.4915 -2.6119
  783MOL0     H 8052   6.496   2.941  10.430 -0.5865  0.4876  0.6632
  783MOL0     H 8053   6.380   3.040  10.520 -0.8613  0.9519  0.5012
  783MOL0     H 8054   6.337   2.996  10.352  1.9581 -2.9505 -2.5526
  784MOL0     O 8055   0.055   4.866   1.250  0.0264  0.7636  0.8871
  784MOL0     C 8056   0.003   4.979   1.253  0.1436 -0.2540  0.7634
  784MOL0     O 8057   0.037   5.070   1.328 -0.3861 -0.6113  0.1880
  784MOL0     C 8058   0.154   5.053   1.404  0.7402  0.3773 -0.1611
  784MOL0     C 8059   0.146   5.016   1.540 -0.2606  0.0832  0.2925
  784MOL0     C 8060   0.260   4.996   1.613  0.2527 -0.3410 -0.3031
  784MOL0     C 8061   0.379   4.998   1.555 -0.4960 -0.3618 -0.0698
  784MOL0     O 8062   0.493   4.969   1.630 -0.5550 -0.2588  0.0585
  784MOL0     C 8063   0.564   4.848   1.600 -1.3473 -0.1439 -0.4878
  784MOL0     C 8064   0.561   4.751   1.708  0.4892  0.2178 -0.0099
  784MOL0     C 8065   0.657   4.633   1.682  0.7659  0.0697 -0.6531
  784MOL0     C 8066   0.693   4.563   1.816  0.1680  0.5130 -0.1899
  784MOL0     C 8067   0.798   4.451   1.782  0.5461 -0.0814 -1.0248
  784MOL0     C 8068   0.936   4.481   1.737 -0.9473  0.1454 -0.7219
  784MOL0     C 8069   1.018   4.348   1.724 -0.1289 -0.2621 -0.1093
  784MOL0     C 8070   0.962   4.249   1.626  0.4970  0.7243  0.4514
  784MOL0     N 8071   1.057   4.141   1.596 -0.3601  0.6703  0.0006
  784MOL0     C 8072   1.144   4.137   1.487  0.5224 -0.0214  0.3450
  784MOL0     C 8073   1.206   4.021   1.503 -0.9634  0.6608 -0.0613
  784MOL0     C 8074   1.300   3.956   1.396 -0.2481  0.1120  0.3286
  784MOL0     C 8075   1.446   4.006   1.405 -0.5372 -0.3483  0.1584
  784MOL0     C 8076   1.458   4.160   1.421  0.7369  0.5444  0.2155
  784MOL0     C 8077   1.601   4.198   1.400 -1.2708 -0.6948 -0.3658
  784MOL0     O 8078   1.626   4.331   1.454  0.2829  0.3031  0.5703
  784MOL0     C 8079   1.753   4.359   1.493  0.1547  0.4217 -0.2881
  784MOL0     C 8080   1.769   4.478   1.568  0.3122 -0.8736  0.1402
  784MOL0     C 8081   1.895   4.528   1.609 -0.3199  0.1757  0.7216
  784MOL0     C 8082   1.896   4.657   1.677  0.0276 -0.1614 -0.5809
  784MOL0     C 8083   2.013   4.461   1.562 -0.9463  0.0432  0.1456
  784MOL0     C 8084   2.149   4.501   1.602  0.2291 -0.7991 -0.2517
  784MOL0     O 8085   2.244   4.470   1.514 -0.3108 -0.1188 -0.2166
  784MOL0     C 8086   2.373   4.500   1.544  0.2903  0.0087  0.7431
  784MOL0     C 8087   2.430   4.458   1.664  0.4555 -1.0563  0.2480
  784MOL0     C 8088   2.553   4.508   1.702  0.0770  0.0903 -0.8176
  784MOL0     C 8089   2.635   4.592   1.617 -0.3875 -0.0774  0.5157
  784MOL0     O 8090   2.766   4.634   1.641  0.0903  0.0203  0.5849
  784MOL0     C 8091   2.814   4.624   1.773  0.2752 -0.7284 -0.3145
  784MOL0     C 8092   2.954   4.689   1.780  0.2645  0.3303  1.0185
  784MOL0     C 8093   3.058   4.647   1.671  0.0668 -0.2956 -0.5149
  784MOL0     C 8094   3.174   4.741   1.682 -0.4972 -0.2373  0.1913
  784MOL0     C 8095   3.260   4.728   1.555  0.2783 -0.1510  0.6073
  784MOL0     C 8096   3.339   4.853   1.529  0.0851  0.5669 -0.1735
  784MOL0     C 8097   3.447   4.851   1.432  0.2994 -1.0540  0.1774
  784MOL0     C 8098   3.412   4.866   1.288  0.4438 -1.0747  0.2692
  784MOL0    Cl 8099   3.565   4.852   1.198 -0.3003 -0.2035  0.1740
  784MOL0     C 8100   2.570   4.626   1.497  0.4314  0.6896  0.9368
  784MOL0     C 8101   2.446   4.576   1.451 -0.4599 -1.0034 -0.1721
  784MOL0     O 8102   2.165   4.547   1.712  0.1279 -0.4182  0.2575
  784MOL0     C 8103   1.992   4.344   1.481  1.1217  1.0951 -1.1537
  784MOL0     C 8104   1.867   4.292   1.454  0.9536 -1.1451  0.8929
  784MOL0     N 8105   1.161   3.945   1.613  0.3094  0.5743 -0.8230
  784MOL0     N 8106   1.079   4.024   1.669  0.3291 -0.6763 -0.3717
  784MOL0     C 8107   0.396   5.022   1.415 -0.7110  0.3218 -0.3986
  784MOL0     C 8108   0.281   5.058   1.344 -0.6685 -0.2689 -0.3665
  784MOL0     C 8109  -0.119   4.997   1.168 -0.1920 -0.4457  0.3442
  784MOL0     C 8110  -0.215   4.895   1.159  0.7655  0.4526 -0.3790
  784MOL0     C 8111  -0.330   4.917   1.081 -1.1411  0.4314 -1.1012
  784MOL0     C 8112  -0.352   5.037   1.023 -0.2277  0.2331  0.1963
  784MOL0     O 8113  -0.474   5.051   0.968 -0.8186  0.4991  0.0656
  784MOL0     C 8114  -0.487   5.117   0.845  0.1859 -0.4838 -0.1088
  784MOL0     C 8115  -0.619   5.095   0.781 -0.5187 -0.2320 -0.0127
  784MOL0     C 8116  -0.743   5.131   0.865 -0.9658 -0.0705  0.7681
  784MOL0     C 8117  -0.862   5.113   0.776 -0.0416  0.1993 -0.1902
  784MOL0     C 8118  -0.990   5.144   0.846 -0.0821  0.2266  0.0708
  784MOL0     C 8119  -1.094   5.177   0.910 -0.4354 -0.4484  0.3183
  784MOL0     C 8120  -0.252   5.141   1.026 -0.1547  0.8176 -0.0865
  784MOL0     C 8121  -0.131   5.115   1.092  0.1072 -0.2372  0.5188
  784MOL0     C 8122  -0.035   5.230   1.087  0.2364 -0.5985  0.0331
  784MOL0     H 8123   0.048   5.013   1.587 -0.4677  0.7357 -0.0858
  784MOL0     H 8124   0.257   4.967   1.718  0.2757  0.6041 -0.0234
  784MOL0     H 8125   0.670   4.875   1.589 -0.0518 -3.9527  0.8012
  784MOL0     H 8126   0.530   4.809   1.504  3.0006 -4.2016 -0.7525
  784MOL0     H 8127   0.602   4.798   1.798  3.5118  0.4455 -1.3909
  784MOL0     H 8128   0.460   4.720   1.737  0.0785 -0.1279 -1.7121
  784MOL0     H 8129   0.612   4.555   1.620  1.0456  0.6530 -1.6085
  784MOL0     H 8130   0.755   4.670   1.649  2.2588 -1.2346  1.9380
  784MOL0     H 8131   0.739   4.631   1.888 -1.4368  0.8179  0.5838
  784MOL0     H 8132   0.607   4.528   1.872 -0.8401 -1.8942 -3.0059
  784MOL0     H 8133   0.753   4.389   1.703  2.7086  1.7912 -3.9580
  784MOL0     H 8134   0.808   4.398   1.877  1.7576  0.7717 -0.6480
  784MOL0     H 8135   0.932   4.545   1.648 -1.0282  1.2296  0.0388
  784MOL0     H 8136   0.978   4.539   1.820  0.2336 -2.7558  0.8546
  784MOL0     H 8137   1.025   4.303   1.824 -3.4039 -2.4305 -0.7112
  784MOL0     H 8138   1.116   4.385   1.691  0.5851 -0.8600  1.2206
  784MOL0     H 8139   0.868   4.205   1.659  0.0934 -0.5253 -2.0678
  784MOL0     H 8140   0.942   4.303   1.533 -2.5861 -2.0399 -0.7232
  784MOL0     H 8141   1.160   4.207   1.405 -0.4622  1.2254  1.1653
  784MOL0     H 8142   1.258   3.975   1.297  1.3628 -1.9628 -0.8550
  784MOL0     H 8143   1.291   3.848   1.412 -2.3382  0.4273  1.6046
  784MOL0     H 8144   1.497   3.956   1.488 -1.0354 -0.9677  0.1017
  784MOL0     H 8145   1.500   3.969   1.317 -4.3461 -2.6852 -1.4356
  784MOL0     H 8146   1.391   4.220   1.359  0.9111  1.5177  0.9272
  784MOL0     H 8147   1.442   4.185   1.527  1.4056  0.8264  0.2573
  784MOL0     H 8148   1.669   4.125   1.444 -3.3316 -2.5106 -0.0225
  784MOL0     H 8149   1.635   4.183   1.297 -1.7159 -2.5796 -0.2836
  784MOL0     H 8150   1.685   4.535   1.607  1.1277 -0.2539  1.0404
  784MOL0     H 8151   1.976   4.720   1.636 -0.3743 -0.3808 -1.7544
  784MOL0     H 8152   1.901   4.644   1.786  0.3120  2.2207 -0.2608
  784MOL0     H 8153   1.806   4.714   1.655 -1.3849 -2.4481 -1.0398
  784MOL0     H 8154   2.361   4.393   1.717 -2.1723  0.0527 -1.6099
  784MOL0     H 8155   2.591   4.481   1.800 -2.8982 -2.3646 -0.1707
  784MOL0     H 8156   2.749   4.683   1.838  2.7577 -0.1526  1.7788
  784MOL0     H 8157   2.816   4.520   1.805  2.0421 -0.4998  0.3943
  784MOL0     H 8158   2.944   4.798   1.779 -1.3773  0.2016  0.5893
  784MOL0     H 8159   2.988   4.662   1.881  0.6907 -0.7166  0.6080
  784MOL0     H 8160   3.009   4.642   1.574  2.1913  1.5503 -1.7713
  784MOL0     H 8161   3.097   4.545   1.680 -0.2257 -0.2547  1.7697
  784MOL0     H 8162   3.244   4.728   1.765 -0.2957 -0.0043  0.0584
  784MOL0     H 8163   3.132   4.842   1.683  0.3186  0.2035  3.9081
  784MOL0     H 8164   3.314   4.633   1.562  2.0160  0.7414 -0.0067
  784MOL0     H 8165   3.188   4.730   1.473 -2.0361  1.4829  2.5283
  784MOL0     H 8166   3.378   4.871   1.630  2.5606  1.3652 -1.2042
  784MOL0     H 8167   3.273   4.936   1.502  0.7370  1.1012 -0.1463
  784MOL0     H 8168   3.502   4.757   1.440 -1.7404 -2.4934 -1.7626
  784MOL0     H 8169   3.507   4.941   1.453 -0.1280 -0.8375  0.4809
  784MOL0     H 8170   3.358   4.960   1.269 -0.3537 -1.8267 -1.2866
  784MOL0     H 8171   3.343   4.788   1.255 -2.5049  1.1381  0.7195
  784MOL0     H 8172   2.622   4.695   1.432  0.5623  0.6431  0.9910
  784MOL0     H 8173   2.408   4.606   1.354 -2.6369 -0.1942  0.8480
  784MOL0     H 8174   2.079   4.287   1.453 -0.6717 -2.2693 -0.3612
  784MOL0     H 8175   1.860   4.201   1.395 -2.0870 -0.9758  0.8392
  784MOL0     H 8176   0.489   5.017   1.361 -0.1739  0.2577  0.5140
  784MOL0     H 8177   0.285   5.087   1.239 -1.0301 -0.0495 -0.3221
  784MOL0     H 8178  -0.199   4.795   1.198  0.0454  0.2182 -0.6634
  784MOL0     H 8179  -0.400   4.835   1.070  1.2828 -1.5721 -2.8130
  784MOL0     H 8180  -0.472   5.224   0.859  2.1604 -0.6285 -0.8807
  784MOL0     H 8181  -0.414   5.080   0.773 -0.0077 -3.1384  0.9164
  784MOL0     H 8182  -0.616   4.994   0.739 -0.3187 -1.7441  3.2916
  784MOL0     H 8183  -0.619   5.163   0.695 -0.3583 -0.3257 -0.0860
  784MOL0     H 8184  -0.748   5.062   0.950  0.1203 -2.5812 -1.0827
  784MOL0     H 8185  -0.729   5.236   0.892 -1.1606 -0.5987  3.1508
  784MOL0     H 8186  -0.859   5.007   0.748  0.2789 -0.2727  1.4893
  784MOL0     H 8187  -0.841   5.187   0.699  2.0684  1.3045  1.3414
  784MOL0     H 8188  -1.182   5.200   0.966  0.6870  0.6347  1.6980
  784MOL0     H 8189  -0.273   5.233   0.972 -1.2887  0.0131 -1.0503
  784MOL0     H 8190  -0.065   5.311   1.155  0.9996  0.2900 -0.6714
  784MOL0     H 8191   0.070   5.201   1.098  0.5250 -0.2388 -1.5345
  784MOL0     H 8192  -0.037   5.270   0.985 -1.3088 -0.0445  0.2410
  785MOL0     O 8193   2.902  10.799   7.029 -0.1947 -0.1302 -0.0827
  785MOL0     C 8194   2.950  10.693   6.989  0.4336 -0.0754  0.5577
  785MOL0     O 8195   3.064  10.669   6.924 -0.2118 -0.0814  0.4595
  785MOL0     C 8196   3.170  10.730   6.969 -0.0015 -0.3229  0.8751
  785MOL0     C 8197   3.214  10.731   7.096 -0.5214 -0.0570 -0.2878
  785MOL0     C 8198   3.338  10.796   7.132  0.3559  0.6680  0.5176
  785MOL0     C 8199   3.397  10.879   7.041  0.0872 -0.2482 -0.6219
  785MOL0     O 8200   3.514  10.947   7.060 -0.3549  0.1956  0.1148
  785MOL0     C 8201   3.599  10.904   7.168  0.0192  0.5086 -0.2835
  785MOL0     C 8202   3.745  10.938   7.145  0.5186  0.4367  0.3531
  785MOL0     C 8203   3.766  11.081   7.168  0.3033  0.3189 -0.4212
  785MOL0     C 8204   3.922  11.097   7.137  0.2564  0.3538 -0.6122
  785MOL0     C 8205   3.969  11.217   7.070  0.0192 -0.6193 -0.2912
  785MOL0     C 8206   3.968  11.333   7.166  0.2205 -0.0289 -0.5974
  785MOL0     C 8207   4.054  11.459   7.109 -0.0132 -0.1729  0.0570
  785MOL0     C 8208   3.990  11.529   6.999  0.7132  1.6078 -0.1971
  785MOL0     N 8209   4.079  11.638   6.955  0.9681  0.7993 -0.0215
  785MOL0     C 8210   4.075  11.761   7.017 -0.5562  0.0627 -0.4671
  785MOL0     C 8211   4.164  11.839   6.941 -0.5369  0.2434 -0.5878
  785MOL0     C 8212   4.204  11.984   6.963  0.5922  0.1234 -0.5536
  785MOL0     C 8213   4.356  11.995   6.977  0.8517  0.4400 -0.6698
  785MOL0     C 8214   4.409  12.138   6.978  0.0957 -0.5054  0.5534
  785MOL0     C 8215   4.551  12.163   7.008  0.0624  0.6357 -0.5781
  785MOL0     O 8216   4.641  12.106   6.911 -0.5313  0.8391 -0.0998
  785MOL0     C 8217   4.780  12.108   6.936  0.1078 -1.1773 -0.1287
  785MOL0     C 8218   4.858  12.052   6.842  0.1103  0.4318  0.0605
  785MOL0     C 8219   5.004  12.065   6.845  0.4175 -0.3868  0.5234
  785MOL0     C 8220   5.071  12.012   6.719  0.0939  0.6682 -0.0040
  785MOL0     C 8221   5.068  12.123   6.955  0.5766  0.0910  0.1173
  785MOL0     C 8222   5.219  12.146   6.970 -0.4251 -0.3603  0.3273
  785MOL0     O 8223   5.274  12.124   7.093 -0.1334  0.6339  0.1534
  785MOL0     C 8224   5.412  12.125   7.106  0.7394 -1.0829 -0.4894
  785MOL0     C 8225   5.489  12.014   7.078 -0.4891  0.3153 -0.3328
  785MOL0     C 8226   5.624  12.016   7.088  0.3426 -0.5753  0.0455
  785MOL0     C 8227   5.695  12.130   7.124  0.1170  0.6402 -0.3400
  785MOL0     O 8228   5.831  12.138   7.121 -0.4094 -0.2040 -0.3183
  785MOL0     C 8229   5.901  12.024   7.072  0.5358 -0.3056 -0.7848
  785MOL0     C 8230   6.054  12.042   7.087  0.2416  0.0300  0.2325
  785MOL0     C 8231   6.130  11.928   7.014 -0.1513 -0.2273  0.6665
  785MOL0     C 8232   6.206  11.831   7.102 -0.0949  0.2311  0.3602
  785MOL0     C 8233   6.346  11.894   7.147 -1.2404 -0.4094  0.2741
  785MOL0     C 8234   6.438  11.957   7.040 -0.3920  0.3401  0.9440
  785MOL0     C 8235   6.468  11.863   6.923  0.2523 -0.1271  0.2743
  785MOL0     C 8236   6.535  11.735   6.966  0.5377 -0.8709 -0.2825
  785MOL0    Cl 8237   6.436  11.583   6.952 -0.0876  0.3119  0.6475
  785MOL0     C 8238   5.621  12.243   7.153  0.0120 -0.2978  0.2683
  785MOL0     C 8239   5.480  12.242   7.143 -0.1830  0.1273 -0.0117
  785MOL0     O 8240   5.292  12.173   6.871 -0.4787  0.8629 -0.1614
  785MOL0     C 8241   4.980  12.176   7.055  0.9938  0.1411  0.1731
  785MOL0     C 8242   4.846  12.180   7.042  0.8026  0.5915  0.6783
  785MOL0     N 8243   4.223  11.754   6.848 -0.1567 -0.0828 -0.1659
  785MOL0     N 8244   4.172  11.636   6.853 -0.0261 -0.6569  0.3652
  785MOL0     C 8245   3.350  10.889   6.907  1.2560  0.2942  0.2016
  785MOL0     C 8246   3.236  10.811   6.871 -0.0467 -0.7941  0.1980
  785MOL0     C 8247   2.860  10.579   7.016  0.9404  0.5044 -0.3071
  785MOL0     C 8248   2.906  10.452   7.047  0.6289 -0.0757  0.4351
  785MOL0     C 8249   2.814  10.346   7.062 -0.7550 -0.6973 -0.7874
  785MOL0     C 8250   2.676  10.364   7.050  0.3589  0.0561 -0.5018
  785MOL0     O 8251   2.594  10.252   7.081  0.1726  0.2272 -0.1707
  785MOL0     C 8252   2.469  10.281   7.157  0.1442  0.5981  0.1893
  785MOL0     C 8253   2.397  10.142   7.201  0.4752  0.5267  0.1334
  785MOL0     C 8254   2.348  10.072   7.081  0.3444 -0.0041 -0.1347
  785MOL0     C 8255   2.253   9.954   7.103  0.2739  0.3345  0.1162
  785MOL0     C 8256   2.122   9.996   7.165  0.0467  0.6998  0.3303
  785MOL0     C 8257   2.029  10.023   7.236  0.0741  0.0308 -0.6753
  785MOL0     C 8258   2.630  10.489   7.016  0.9132  0.4368 -0.3363
  785MOL0     C 8259   2.716  10.598   6.999 -0.0521  1.0406  0.6186
  785MOL0     C 8260   2.647  10.728   6.955 -0.5874  0.6264 -0.3146
  785MOL0     H 8261   3.158  10.676   7.171 -3.3038  0.6037 -1.7467
  785MOL0     H 8262   3.370  10.791   7.235  4.6140 -4.3603 -0.6170
  785MOL0     H 8263   3.590  10.795   7.178 -1.1993  0.7264  1.3329
  785MOL0     H 8264   3.561  10.939   7.264  0.5456 -2.3036  1.0556
  785MOL0     H 8265   3.800  10.876   7.217 -1.6024 -0.4219  1.3343
  785MOL0     H 8266   3.768  10.905   7.043  0.8840 -0.5201  0.7351
  785MOL0     H 8267   3.708  11.139   7.095  2.0576 -1.0872 -3.1067
  785MOL0     H 8268   3.742  11.109   7.271  4.4019  0.7148  0.6226
  785MOL0     H 8269   3.978  11.091   7.231  2.2766  3.2561 -1.4755
  785MOL0     H 8270   3.961  11.014   7.078  0.7958  0.0859  0.0948
  785MOL0     H 8271   3.901  11.244   6.990 -4.7440  1.4343  3.8813
  785MOL0     H 8272   4.071  11.205   7.033 -0.2569  0.3714 -1.4305
  785MOL0     H 8273   3.867  11.366   7.192  1.1951  2.1980  0.6462
  785MOL0     H 8274   4.023  11.309   7.258  0.3896  2.1108 -0.0969
  785MOL0     H 8275   4.155  11.430   7.077  1.1173  2.6420  0.7643
  785MOL0     H 8276   4.063  11.539   7.183 -1.6812 -0.2454  0.3659
  785MOL0     H 8277   3.969  11.466   6.912  2.7418  0.7151 -0.1059
  785MOL0     H 8278   3.892  11.564   7.032  0.6015  1.1886 -0.0715
  785MOL0     H 8279   4.015  11.796   7.100  0.5624  0.7726  0.0660
  785MOL0     H 8280   4.163  12.026   7.055  1.5259  0.1142 -0.1237
  785MOL0     H 8281   4.155  12.044   6.886  0.2866 -0.6174 -0.9480
  785MOL0     H 8282   4.374  11.944   7.072 -2.3893 -2.8210 -1.5699
  785MOL0     H 8283   4.402  11.937   6.896 -0.4317 -0.1592 -1.0061
  785MOL0     H 8284   4.377  12.160   6.875 -3.8372  1.2750  1.9556
  785MOL0     H 8285   4.351  12.198   7.048 -2.8686 -2.4963 -0.0105
  785MOL0     H 8286   4.580  12.268   7.018  0.4733  0.4266  0.5426
  785MOL0     H 8287   4.559  12.121   7.108 -2.0091  0.1395 -0.5640
  785MOL0     H 8288   4.807  12.001   6.761  1.0003  0.0229 -0.2523
  785MOL0     H 8289   5.136  12.086   6.671  0.8507 -0.5300 -0.8979
  785MOL0     H 8290   4.991  11.971   6.657 -0.1486  0.7410  0.2640
  785MOL0     H 8291   5.142  11.936   6.753 -2.3743 -1.7900 -0.0121
  785MOL0     H 8292   5.449  11.920   7.042  1.0518  0.3470 -2.2953
  785MOL0     H 8293   5.662  11.918   7.063 -1.3332 -0.9064 -1.4034
  785MOL0     H 8294   5.879  11.930   7.125 -0.3860  0.7613  0.7837
  785MOL0     H 8295   5.875  12.003   6.968  0.4731 -0.5709 -0.7175
  785MOL0     H 8296   6.081  12.139   7.043  1.1903 -0.4974 -0.3890
  785MOL0     H 8297   6.074  12.058   7.194  1.6556  3.5189 -0.4304
  785MOL0     H 8298   6.179  11.953   6.919 -1.7184 -1.9266 -0.6614
  785MOL0     H 8299   6.060  11.864   6.961  0.6479  0.1454 -0.9041
  785MOL0     H 8300   6.237  11.741   7.048  2.6310  2.0969 -1.4635
  785MOL0     H 8301   6.147  11.804   7.190  3.1284  0.0155  2.6053
  785MOL0     H 8302   6.331  11.979   7.213  1.4306  0.0935  0.3492
  785MOL0     H 8303   6.411  11.826   7.204  0.7163 -1.1931 -2.6106
  785MOL0     H 8304   6.531  11.991   7.087  0.6340 -1.2009  0.1011
  785MOL0     H 8305   6.390  12.049   7.005 -1.0239  0.5231  2.2465
  785MOL0     H 8306   6.524  11.919   6.847 -1.1908  1.5815  0.4008
  785MOL0     H 8307   6.381  11.831   6.865 -0.7746  0.3639  1.5136
  785MOL0     H 8308   6.577  11.741   7.067 -2.7403  4.3504  1.1395
  785MOL0     H 8309   6.628  11.718   6.912  0.3980 -1.0629 -0.4635
  785MOL0     H 8310   5.679  12.335   7.158 -0.1990 -0.0019 -1.7187
  785MOL0     H 8311   5.419  12.329   7.165 -0.5356  0.1020 -0.8701
  785MOL0     H 8312   5.026  12.225   7.140  2.8721 -0.2248 -0.5812
  785MOL0     H 8313   4.783  12.221   7.120  1.3659  1.6564  0.5867
  785MOL0     H 8314   3.393  10.951   6.828  1.0152  0.3213  0.0898
  785MOL0     H 8315   3.183  10.805   6.776 -1.5181  1.7514  0.7529
  785MOL0     H 8316   3.014  10.440   7.050  0.5073 -0.9983  1.7821
  785MOL0     H 8317   2.854  10.247   7.081  1.4454 -0.2408 -2.6114
  785MOL0     H 8318   2.496  10.337   7.247  0.5629 -2.9342  2.4743
  785MOL0     H 8319   2.404  10.339   7.091 -2.6389 -1.3115  1.0725
  785MOL0     H 8320   2.307  10.172   7.256 -0.0899  0.4667 -0.7399
  785MOL0     H 8321   2.464  10.075   7.256  2.4507  2.6265  0.4522
  785MOL0     H 8322   2.293  10.139   7.014  0.1022  0.7232  0.7872
  785MOL0     H 8323   2.433  10.029   7.027 -0.0584 -0.5512 -0.3481
  785MOL0     H 8324   2.301   9.876   7.162  2.2912  0.8549 -0.7539
  785MOL0     H 8325   2.219   9.911   7.008 -0.9736 -1.8919  1.4809
  785MOL0     H 8326   1.946  10.055   7.297  0.8100 -0.8601  0.8496
  785MOL0     H 8327   2.523  10.503   7.003  0.7820  0.7930  1.0109
  785MOL0     H 8328   2.626  10.799   7.035 -2.4155  0.0293 -0.2189
  785MOL0     H 8329   2.718  10.771   6.884  1.3666  0.3706  1.3992
  785MOL0     H 8330   2.553  10.717   6.900 -0.8686  0.0447  0.2719
  786MOL0     O 8331   6.072  10.305   3.903  0.2348  0.0177  0.0133
  786MOL0     C 8332   6.023  10.333   3.794 -0.3984  1.0908 -0.1003
  786MOL0     O 8333   6.086  10.356   3.678 -0.3997 -0.6112 -0.0478
  786MOL0     C 8334   6.217  10.370   3.682 -0.4668 -0.0536  0.4344
  786MOL0     C 8335   6.295  10.257   3.690  0.1802  0.0482  0.3033
  786MOL0     C 8336   6.433  10.263   3.704  0.3373  0.5614  0.2957
  786MOL0     C 8337   6.499  10.381   3.705 -0.1682  0.2413  0.8835
  786MOL0     O 8338   6.638  10.384   3.714 -0.0524 -0.1429  0.1474
  786MOL0     C 8339   6.706  10.280   3.780 -0.6757 -0.1384 -0.1260
  786MOL0     C 8340   6.812  10.348   3.863 -0.8178  0.2155 -0.3827
  786MOL0     C 8341   6.758  10.450   3.968 -0.0226  0.2775 -0.9310
  786MOL0     C 8342   6.869  10.514   4.058  0.5470  0.5835  0.9637
  786MOL0     C 8343   6.796  10.612   4.155 -0.3257  0.0459  1.2352
  786MOL0     C 8344   6.749  10.738   4.083  0.0980  0.2167 -0.1154
  786MOL0     C 8345   6.705  10.852   4.184  0.8956 -0.3139 -0.3112
  786MOL0     C 8346   6.651  10.982   4.110 -0.2332  0.4167  0.3208
  786MOL0     N 8347   6.757  11.052   4.057 -1.0431 -0.4794  0.5150
  786MOL0     C 8348   6.846  11.127   4.137  0.9064 -0.4632  0.4052
  786MOL0     C 8349   6.950  11.153   4.056 -0.1108 -1.0939 -0.0494
  786MOL0     C 8350   7.072  11.236   4.097 -0.1496  0.4985 -0.6379
  786MOL0     C 8351   7.196  11.144   4.085  0.6979 -0.7843  0.3139
  786MOL0     C 8352   7.329  11.212   4.129 -0.1592  0.0190  0.1414
  786MOL0     C 8353   7.450  11.120   4.116 -0.2023  0.0846  0.8358
  786MOL0     O 8354   7.572  11.181   4.165  0.0315  0.2501 -0.2253
  786MOL0     C 8355   7.697  11.145   4.136  0.2760  0.1931  0.3065
  786MOL0     C 8356   7.794  11.215   4.190  0.0058 -0.0266 -0.2041
  786MOL0     C 8357   7.925  11.198   4.158  0.5577 -0.6770  0.4698
  786MOL0     C 8358   8.032  11.269   4.233  0.2635  0.3584  0.3848
  786MOL0     C 8359   7.962  11.121   4.048 -0.5143  0.5982  0.1809
  786MOL0     C 8360   8.099  11.131   3.985  0.3043 -0.0492 -0.1513
  786MOL0     O 8361   8.155  11.013   3.960  0.2252 -0.2441  0.8454
  786MOL0     C 8362   8.286  10.998   3.903  0.7898  0.5692 -0.2026
  786MOL0     C 8363   8.383  11.094   3.880 -0.4064  0.0405 -0.1555
  786MOL0     C 8364   8.510  11.068   3.830 -0.3195 -0.7362  0.2630
  786MOL0     C 8365   8.557  10.933   3.807 -0.3626 -0.7798  0.1516
  786MOL0     O 8366   8.693  10.908   3.776  0.3835  0.1725 -0.0814
  786MOL0     C 8367   8.728  10.777   3.746 -0.0438  0.5858  0.4057
  786MOL0     C 8368   8.866  10.782   3.674 -0.3322  0.2822 -0.1875
  786MOL0     C 8369   8.939  10.650   3.681 -0.7196  0.6639  0.3023
  786MOL0     C 8370   9.084  10.675   3.640  0.4157  0.1853  0.3942
  786MOL0     C 8371   9.154  10.538   3.609 -0.3206  0.1836  0.1013
  786MOL0     C 8372   9.298  10.554   3.557  1.0890 -0.1123 -1.1537
  786MOL0     C 8373   9.380  10.563   3.678 -0.0823  0.4232  0.4994
  786MOL0     C 8374   9.519  10.593   3.651 -0.2944  0.3007  0.3404
  786MOL0    Cl 8375   9.538  10.765   3.596  0.1677 -0.2401  0.4202
  786MOL0     C 8376   8.459  10.834   3.831 -0.9959 -0.8852  0.0868
  786MOL0     C 8377   8.332  10.869   3.881  0.1865  0.1107  0.3352
  786MOL0     O 8378   8.147  11.239   3.965 -0.0481  0.1636 -1.1209
  786MOL0     C 8379   7.861  11.043   3.991 -0.2703  0.1809  0.0285
  786MOL0     C 8380   7.723  11.057   4.034 -0.9412  0.2338  0.0252
  786MOL0     N 8381   6.934  11.084   3.931  0.0095 -0.7830 -0.3895
  786MOL0     N 8382   6.813  11.029   3.937 -0.4215 -0.0922 -0.1239
  786MOL0     C 8383   6.423  10.494   3.698 -0.5042  0.2134  0.3397
  786MOL0     C 8384   6.283  10.493   3.688  0.2545 -0.4558  1.0565
  786MOL0     C 8385   5.881  10.310   3.800 -0.0956  0.2350 -0.1178
  786MOL0     C 8386   5.833  10.183   3.840 -0.5296 -0.7140  0.2336
  786MOL0     C 8387   5.699  10.149   3.836  0.1514 -0.0274 -0.1805
  786MOL0     C 8388   5.601  10.244   3.804  0.7800  0.0655 -0.3726
  786MOL0     O 8389   5.461  10.225   3.808 -0.2057  0.0634 -0.3991
  786MOL0     C 8390   5.415  10.098   3.867  0.5986  0.4512  0.5543
  786MOL0     C 8391   5.267  10.087   3.879  0.6974 -0.3564  0.1979
  786MOL0     C 8392   5.180  10.074   3.754 -0.4048  0.6207 -0.7797
  786MOL0     C 8393   5.196   9.931   3.694  0.0847  0.7899 -0.8942
  786MOL0     C 8394   5.103   9.836   3.765  0.1824  0.3539  0.1058
  786MOL0     C 8395   5.026   9.754   3.812  0.3465 -0.0865  0.4347
  786MOL0     C 8396   5.648  10.370   3.754  0.1503  0.1638 -0.9733
  786MOL0     C 8397   5.781  10.405   3.777 -0.3043 -0.8249  0.2158
  786MOL0     C 8398   5.819  10.555   3.748 -0.2776  0.4389 -1.0034
  786MOL0     H 8399   6.240  10.166   3.667  0.8849 -0.4500  0.5835
  786MOL0     H 8400   6.488  10.170   3.693 -0.1983  0.5490 -3.5005
  786MOL0     H 8401   6.744  10.201   3.715 -0.9459 -0.6572  0.3394
  786MOL0     H 8402   6.642  10.232   3.855  0.3118 -0.3517  0.6088
  786MOL0     H 8403   6.859  10.269   3.923 -0.2752 -0.3961 -1.5574
  786MOL0     H 8404   6.878  10.394   3.788 -1.0301 -2.2805 -2.2419
  786MOL0     H 8405   6.702  10.523   3.909  0.1640 -0.1883 -1.6969
  786MOL0     H 8406   6.692  10.406   4.043  0.1370  2.3265  0.5171
  786MOL0     H 8407   6.927  10.437   4.111  3.6792  0.4301 -2.2954
  786MOL0     H 8408   6.942  10.558   3.989  0.5136 -1.3907 -0.4059
  786MOL0     H 8409   6.856  10.629   4.245  0.7524 -1.6009  0.8775
  786MOL0     H 8410   6.702  10.564   4.187 -0.5498  0.2607  0.8992
  786MOL0     H 8411   6.841  10.783   4.044 -0.7126  0.6199 -1.6334
  786MOL0     H 8412   6.679  10.716   4.002  2.8234 -0.1085 -2.5454
  786MOL0     H 8413   6.784  10.879   4.255 -0.4658  1.6383  0.5788
  786MOL0     H 8414   6.626  10.820   4.253  3.2780  0.1633  2.8703
  786MOL0     H 8415   6.581  10.945   4.034 -1.0626  0.9839  0.7856
  786MOL0     H 8416   6.610  11.053   4.182  1.0133 -0.0851  1.5667
  786MOL0     H 8417   6.819  11.171   4.233  0.0691  0.7604 -0.3615
  786MOL0     H 8418   7.059  11.277   4.197 -1.5502  1.6403 -1.2388
  786MOL0     H 8419   7.082  11.324   4.032 -0.7630 -0.0657 -1.5196
  786MOL0     H 8420   7.180  11.059   4.152  2.2815 -0.1920  1.5299
  786MOL0     H 8421   7.194  11.112   3.981 -2.6913  1.1257 -0.3279
  786MOL0     H 8422   7.333  11.296   4.060 -0.3559  0.3491  0.5264
  786MOL0     H 8423   7.328  11.243   4.234 -0.2931  0.3520  0.0427
  786MOL0     H 8424   7.434  11.024   4.166  1.6778 -1.4349 -1.2605
  786MOL0     H 8425   7.465  11.103   4.009 -0.4005  2.6605  0.3381
  786MOL0     H 8426   7.760  11.292   4.259 -0.3560  0.1811 -0.6119
  786MOL0     H 8427   8.014  11.265   4.341 -2.2516  1.7686  0.0923
  786MOL0     H 8428   8.018  11.376   4.213  1.1731  0.4088 -0.0161
  786MOL0     H 8429   8.129  11.233   4.199  0.2805  0.3566  0.4357
  786MOL0     H 8430   8.365  11.201   3.886 -1.3651 -0.0926 -0.4186
  786MOL0     H 8431   8.581  11.150   3.822  0.4300 -1.0606  2.7602
  786MOL0     H 8432   8.736  10.717   3.837 -2.2836 -0.7225 -0.2003
  786MOL0     H 8433   8.659  10.728   3.676  0.5024  0.4092 -0.0149
  786MOL0     H 8434   8.859  10.832   3.577  2.0904  1.6645  0.2559
  786MOL0     H 8435   8.923  10.862   3.723  0.8735  0.0862 -1.2023
  786MOL0     H 8436   8.875  10.588   3.617 -1.8400  0.7920  1.2704
  786MOL0     H 8437   8.940  10.601   3.778 -3.6623  0.1444  0.1578
  786MOL0     H 8438   9.134  10.730   3.721 -1.7229  1.5133  0.8835
  786MOL0     H 8439   9.089  10.730   3.547  0.1393 -2.2461 -1.1567
  786MOL0     H 8440   9.157  10.462   3.688 -0.1008  2.8812  2.8735
  786MOL0     H 8441   9.094  10.490   3.531  1.7819 -3.8389  0.6941
  786MOL0     H 8442   9.292  10.647   3.500 -2.3215  0.3218 -0.3089
  786MOL0     H 8443   9.321  10.467   3.494 -0.8731 -0.1405 -1.9011
  786MOL0     H 8444   9.379  10.463   3.721 -1.1569  0.3016  0.2194
  786MOL0     H 8445   9.354  10.651   3.739 -0.5067  0.3989  0.3588
  786MOL0     H 8446   9.566  10.524   3.579  0.6704  0.1306  1.1153
  786MOL0     H 8447   9.572  10.581   3.745 -0.8384 -1.0546  0.5021
  786MOL0     H 8448   8.482  10.729   3.811 -3.4145 -1.1289 -1.8225
  786MOL0     H 8449   8.256  10.793   3.899 -1.5073  1.5170 -0.5442
  786MOL0     H 8450   7.881  10.976   3.909  2.0734  0.4975  0.2901
  786MOL0     H 8451   7.655  10.996   3.977  1.1140 -1.8084 -0.3916
  786MOL0     H 8452   6.469  10.591   3.678  0.3497 -0.4852 -1.3000
  786MOL0     H 8453   6.226  10.585   3.679  1.0714 -0.0992 -1.4003
  786MOL0     H 8454   5.907  10.107   3.867 -0.4074  0.1950  2.6454
  786MOL0     H 8455   5.662  10.048   3.854 -1.8764  0.7041 -0.0088
  786MOL0     H 8456   5.426  10.024   3.788 -3.6747 -2.3330  2.2373
  786MOL0     H 8457   5.467  10.075   3.961 -1.8999  0.5124  2.0377
  786MOL0     H 8458   5.235  10.171   3.942 -1.3336 -0.3471 -0.7537
  786MOL0     H 8459   5.250  10.003   3.948 -1.5816  0.1280  0.3125
  786MOL0     H 8460   5.074  10.091   3.774 -0.2424  0.5524  0.1884
  786MOL0     H 8461   5.211  10.147   3.678 -0.7746 -0.3296 -1.8541
  786MOL0     H 8462   5.301   9.899   3.699  0.0429  0.7183 -0.3295
  786MOL0     H 8463   5.155   9.938   3.593 -3.5106 -4.5450 -0.1927
  786MOL0     H 8464   4.953   9.690   3.858  2.8715 -2.4192  1.4460
  786MOL0     H 8465   5.578  10.449   3.729 -0.4761  0.6403  1.8968
  786MOL0     H 8466   5.744  10.599   3.681 -0.4616 -1.6381 -2.2630
  786MOL0     H 8467   5.811  10.616   3.839  1.7731 -0.8897  0.1286
  786MOL0     H 8468   5.920  10.563   3.708 -0.5539  2.1189 -1.4346
  787MOL0     O 8469   9.399   2.605   3.508  0.3174 -0.3035  0.5770
  787MOL0     C 8470   9.331   2.604   3.617 -0.1596 -1.4717  0.4815
  787MOL0     O 8471   9.390   2.589   3.746  1.2347  0.3244  0.5098
  787MOL0     C 8472   9.515   2.546   3.765  0.3598 -0.9706  1.0398
  787MOL0     C 8473   9.537   2.525   3.905  0.4380 -0.6411  0.5313
  787MOL0     C 8474   9.657   2.488   3.959  0.2042  0.6158  0.4152
  787MOL0     C 8475   9.761   2.476   3.869 -1.0624 -1.4441  0.4163
  787MOL0     O 8476   9.891   2.445   3.906  0.2505 -0.0192  0.2328
  787MOL0     C 8477   9.928   2.496   4.033 -0.0768 -0.8543 -0.0771
  787MOL0     C 8478  10.075   2.510   4.055 -0.6650  0.2140 -0.4491
  787MOL0     C 8479  10.144   2.374   4.074 -0.1107 -0.4115 -0.8729
  787MOL0     C 8480  10.281   2.392   4.134  0.5333 -0.3012 -0.7576
  787MOL0     C 8481  10.345   2.250   4.173  0.5989 -0.1181  0.7453
  787MOL0     C 8482  10.486   2.260   4.243 -0.6316  0.0164  0.3712
  787MOL0     C 8483  10.595   2.319   4.153 -0.4958 -0.9624  0.4137
  787MOL0     C 8484  10.734   2.260   4.195 -0.4474 -0.3199 -0.1298
  787MOL0     N 8485  10.758   2.120   4.159  0.6176 -0.1346 -0.0455
  787MOL0     C 8486  10.748   2.067   4.032  0.5945 -0.5204 -0.2644
  787MOL0     C 8487  10.786   1.932   4.049 -0.1451  0.2030 -0.2677
  787MOL0     C 8488  10.798   1.822   3.948 -0.6575 -0.0653  0.4639
  787MOL0     C 8489  10.749   1.685   4.010  0.3713 -0.4257 -0.0656
  787MOL0     C 8490  10.776   1.581   3.904 -0.9281  0.1801 -0.2732
  787MOL0     C 8491  10.754   1.443   3.962  0.1392  1.5292  0.5997
  787MOL0     O 8492  10.829   1.409   4.082 -0.3691  0.4025 -0.0646
  787MOL0     C 8493  10.962   1.398   4.078 -0.6246 -0.5098 -0.4157
  787MOL0     C 8494  11.039   1.345   3.968 -0.5748 -0.8529 -0.0321
  787MOL0     C 8495  11.183   1.380   3.964  0.6032 -0.8716 -0.3328
  787MOL0     C 8496  11.261   1.334   3.835  0.7001  0.0500 -0.0624
  787MOL0     C 8497  11.244   1.436   4.070 -0.2686  0.1530 -0.1228
  787MOL0     C 8498  11.388   1.486   4.067  0.9778 -0.7546  0.3754
  787MOL0     O 8499  11.458   1.485   4.182  0.0360  0.2580 -0.1419
  787MOL0     C 8500  11.580   1.548   4.185  0.5150 -0.1717  1.1639
  787MOL0     C 8501  11.688   1.520   4.104  0.9753  0.4424  0.3529
  787MOL0     C 8502  11.803   1.597   4.107 -0.4465 -0.1697  0.3891
  787MOL0     C 8503  11.810   1.705   4.185 -0.2959  0.2200  0.5870
  787MOL0     O 8504  11.922   1.772   4.187 -0.5620  0.1988  0.3867
  787MOL0     C 8505  11.907   1.912   4.165  0.0359 -0.2524  0.4068
  787MOL0     C 8506  12.036   1.998   4.161  0.0124  0.0026  1.0621
  787MOL0     C 8507  12.011   2.149   4.146 -0.2336 -0.0824 -0.0588
  787MOL0     C 8508  11.929   2.180   4.022 -0.2752  0.3941 -0.4871
  787MOL0     C 8509  11.783   2.210   4.068 -0.7134  0.2174  0.9849
  787MOL0     C 8510  11.718   2.316   3.974 -0.2380 -0.5281  0.2355
  787MOL0     C 8511  11.666   2.285   3.834 -0.3221  1.3533 -0.2611
  787MOL0     C 8512  11.617   2.405   3.759 -0.7123  0.4852  0.4146
  787MOL0    Cl 8513  11.435   2.429   3.769 -0.6732 -0.2040  0.5236
  787MOL0     C 8514  11.704   1.732   4.268 -0.1195 -0.3606  0.4112
  787MOL0     C 8515  11.589   1.655   4.261 -0.2401 -0.2539 -0.3108
  787MOL0     O 8516  11.427   1.532   3.959 -0.6869 -0.4732 -0.2874
  787MOL0     C 8517  11.172   1.447   4.188 -1.1362 -0.0638  0.6532
  787MOL0     C 8518  11.034   1.435   4.192  0.6353 -1.1906 -0.6186
  787MOL0     N 8519  10.819   1.915   4.185  0.6244  0.4697 -1.4622
  787MOL0     N 8520  10.797   2.025   4.249  0.7278  0.2242  0.5047
  787MOL0     C 8521   9.741   2.487   3.729  0.0528 -0.1261  0.6125
  787MOL0     C 8522   9.625   2.532   3.671  0.2543 -0.2889 -0.0451
  787MOL0     C 8523   9.183   2.632   3.616 -0.4610  1.0157  1.1169
  787MOL0     C 8524   9.117   2.646   3.737 -0.3006 -0.9082 -0.4837
  787MOL0     C 8525   8.994   2.693   3.758 -0.0953 -0.8597  0.2413
  787MOL0     C 8526   8.912   2.701   3.645 -0.0589 -0.5414  0.8295
  787MOL0     O 8527   8.779   2.726   3.640  0.8488 -0.0777 -0.3379
  787MOL0     C 8528   8.709   2.736   3.762  0.4464  0.2055 -0.6443
  787MOL0     C 8529   8.572   2.793   3.731 -0.5047  0.2247  0.5805
  787MOL0     C 8530   8.586   2.939   3.686 -0.3471  0.6809  0.9064
  787MOL0     C 8531   8.447   3.002   3.689  0.5323 -0.4270  0.3734
  787MOL0     C 8532   8.390   3.027   3.816  0.8001 -0.8692 -0.1577
  787MOL0     C 8533   8.336   3.070   3.918  0.3227 -0.7649 -0.8249
  787MOL0     C 8534   8.971   2.681   3.520 -0.8887 -0.2458 -0.3150
  787MOL0     C 8535   9.099   2.642   3.498 -1.2366 -0.4959 -0.0308
  787MOL0     C 8536   9.142   2.626   3.354 -0.1643 -0.5015  0.2285
  787MOL0     H 8537   9.447   2.516   3.964 -0.5145 -2.3043 -1.0957
  787MOL0     H 8538   9.664   2.480   4.067 -3.2519 -2.1007  0.6175
  787MOL0     H 8539   9.886   2.443   4.119 -0.4088  0.8558  0.8600
  787MOL0     H 8540   9.889   2.598   4.040 -1.4801 -1.2736 -1.2188
  787MOL0     H 8541  10.133   2.561   3.977  1.2471  0.0597  0.8076
  787MOL0     H 8542  10.084   2.571   4.145  1.3432  1.1993 -1.2524
  787MOL0     H 8543  10.087   2.310   4.142 -0.4879 -0.0618 -0.8555
  787MOL0     H 8544  10.144   2.319   3.979 -0.1306 -0.5292 -0.8044
  787MOL0     H 8545  10.337   2.445   4.056 -0.1532  1.3179 -0.1963
  787MOL0     H 8546  10.287   2.453   4.225  0.4998  0.8006 -1.4698
  787MOL0     H 8547  10.360   2.191   4.082 -3.8691 -0.6454  0.1267
  787MOL0     H 8548  10.274   2.194   4.234 -0.1107  1.5417  1.5180
  787MOL0     H 8549  10.467   2.317   4.334  1.8775  0.3634  0.7486
  787MOL0     H 8550  10.513   2.158   4.273  0.3439  0.4852  1.1243
  787MOL0     H 8551  10.604   2.426   4.176 -1.6310 -1.5549  4.4434
  787MOL0     H 8552  10.563   2.307   4.050  1.8819  0.5398 -0.5835
  787MOL0     H 8553  10.811   2.315   4.140 -1.2771 -0.7714 -1.8338
  787MOL0     H 8554  10.755   2.281   4.300 -0.2549 -0.6317 -0.1033
  787MOL0     H 8555  10.729   2.108   3.933  1.6330 -2.8821 -1.5335
  787MOL0     H 8556  10.900   1.829   3.908 -0.1364  3.5431  2.0844
  787MOL0     H 8557  10.731   1.850   3.867 -3.5619 -5.9307  0.3289
  787MOL0     H 8558  10.803   1.655   4.100  0.3005 -1.8949 -0.4817
  787MOL0     H 8559  10.644   1.689   4.040  0.4425 -1.3786  0.3465
  787MOL0     H 8560  10.720   1.590   3.810 -0.0029  0.8534 -0.7815
  787MOL0     H 8561  10.880   1.598   3.872 -0.1861 -2.5714  0.4452
  787MOL0     H 8562  10.646   1.444   3.976 -0.2751  0.5071 -2.0732
  787MOL0     H 8563  10.774   1.378   3.877 -5.2017  1.9714 -1.3126
  787MOL0     H 8564  10.986   1.294   3.888 -2.3302 -2.1383  1.8576
  787MOL0     H 8565  11.352   1.280   3.865  0.0105 -0.6473  0.8551
  787MOL0     H 8566  11.289   1.414   3.766 -0.0742  0.3856 -0.0047
  787MOL0     H 8567  11.188   1.276   3.777 -0.9743  2.1081 -0.1535
  787MOL0     H 8568  11.665   1.441   4.032 -1.6108  1.1524  0.2776
  787MOL0     H 8569  11.899   1.573   4.063  0.1791  1.3189  0.8668
  787MOL0     H 8570  11.852   1.915   4.070  0.4151 -2.0576  0.1084
  787MOL0     H 8571  11.834   1.967   4.226  0.7536  2.0680 -0.6857
  787MOL0     H 8572  12.091   1.985   4.254  0.6187 -0.1283  0.6903
  787MOL0     H 8573  12.098   1.962   4.078 -1.0935 -2.4691  1.2051
  787MOL0     H 8574  12.101   2.209   4.131 -0.8703  1.3876  1.6790
  787MOL0     H 8575  11.979   2.198   4.238  1.1051  1.5813 -0.4418
  787MOL0     H 8576  11.929   2.099   3.949 -3.0288  1.8416 -2.2517
  787MOL0     H 8577  11.971   2.265   3.968  0.3998 -0.4640 -1.3691
  787MOL0     H 8578  11.718   2.124   4.048  0.2686 -1.0719  3.0223
  787MOL0     H 8579  11.759   2.229   4.173  1.1778  2.3179  1.1127
  787MOL0     H 8580  11.781   2.406   3.968  0.5647 -1.1832 -1.7962
  787MOL0     H 8581  11.625   2.355   4.018 -2.1183  0.9650 -4.4626
  787MOL0     H 8582  11.598   2.200   3.825  1.2239  0.2062 -1.7661
  787MOL0     H 8583  11.757   2.245   3.789  1.4417  0.9805  3.2741
  787MOL0     H 8584  11.628   2.386   3.651 -2.4647  2.0742 -0.0953
  787MOL0     H 8585  11.672   2.496   3.783 -2.7316  1.2679  2.4040
  787MOL0     H 8586  11.702   1.818   4.334  1.9519  0.4457 -0.4848
  787MOL0     H 8587  11.496   1.685   4.309  0.1265  1.1517 -0.4301
  787MOL0     H 8588  11.221   1.473   4.281  0.1892 -0.1951  0.0073
  787MOL0     H 8589  10.979   1.446   4.286 -0.4545  1.5444 -1.4538
  787MOL0     H 8590   9.824   2.462   3.665 -0.6496 -0.1866 -0.2944
  787MOL0     H 8591   9.618   2.562   3.567 -2.2341  2.2734  0.7406
  787MOL0     H 8592   9.176   2.644   3.828  1.3067  1.7579 -1.3736
  787MOL0     H 8593   8.955   2.719   3.856  0.6442  1.8595 -0.1130
  787MOL0     H 8594   8.709   2.636   3.806  3.4953 -0.3161 -1.6063
  787MOL0     H 8595   8.759   2.805   3.830 -1.3314  0.8010  0.1275
  787MOL0     H 8596   8.508   2.787   3.821 -3.4664 -3.8552 -1.4524
  787MOL0     H 8597   8.527   2.739   3.647  1.9838  1.1462 -1.4617
  787MOL0     H 8598   8.653   3.007   3.740 -1.3045  2.6816 -0.2770
  787MOL0     H 8599   8.625   2.938   3.584  1.9999 -2.6971  1.6748
  787MOL0     H 8600   8.370   2.950   3.632 -0.3275  1.6403 -0.4796
  787MOL0     H 8601   8.462   3.098   3.639  1.8887  0.2085  1.9026
  787MOL0     H 8602   8.303   3.105   4.013  0.5818  1.0960 -1.3852
  787MOL0     H 8603   8.905   2.696   3.434 -1.2064 -0.3541 -0.0921
  787MOL0     H 8604   9.078   2.667   3.275 -0.1093  0.6756  0.7826
  787MOL0     H 8605   9.221   2.700   3.342  0.0287 -0.5409  1.2269
  787MOL0     H 8606   9.173   2.523   3.332  0.6307  0.2244 -2.4503
  788MOL0     O 8607   8.211   2.952   9.216  0.4085  0.0261 -0.1307
  788MOL0     C 8608   8.179   3.009   9.317  1.4266  1.0956  0.1615
  788MOL0     O 8609   8.212   3.140   9.351  0.1192 -0.0953 -0.0547
  788MOL0     C 8610   8.313   3.212   9.291 -0.4414 -0.7205 -0.2897
  788MOL0     C 8611   8.392   3.290   9.369  0.2139 -0.4928 -0.1874
  788MOL0     C 8612   8.490   3.376   9.308  0.4116 -0.2507  0.7197
  788MOL0     C 8613   8.507   3.373   9.172 -0.2529  0.4799  1.2109
  788MOL0     O 8614   8.595   3.460   9.111 -0.3240 -0.4285  0.1360
  788MOL0     C 8615   8.676   3.413   9.004 -0.2690  0.2454  0.6615
  788MOL0     C 8616   8.774   3.521   8.966  0.0246  0.3477 -0.2174
  788MOL0     C 8617   8.871   3.554   9.085 -0.3128 -0.8253 -0.0719
  788MOL0     C 8618   9.002   3.615   9.037 -0.3379 -1.1478  0.0944
  788MOL0     C 8619   9.090   3.673   9.152  0.4070 -0.0784 -1.0293
  788MOL0     C 8620   9.228   3.713   9.110 -0.1824 -0.0419  0.4873
  788MOL0     C 8621   9.217   3.821   9.007 -0.3122  0.3649  0.3231
  788MOL0     C 8622   9.159   3.958   9.055  0.7374  0.4823 -1.1496
  788MOL0     N 8623   9.260   4.033   9.129 -0.1082  0.2183  0.1348
  788MOL0     C 8624   9.353   4.115   9.066  0.4086  0.5914 -0.7136
  788MOL0     C 8625   9.426   4.165   9.169 -0.8309  0.3933  0.1573
  788MOL0     C 8626   9.524   4.279   9.170 -0.1030  0.0266  0.2209
  788MOL0     C 8627   9.577   4.319   9.026  0.1942  1.0887 -0.3159
  788MOL0     C 8628   9.667   4.206   8.978  0.5139  0.4834 -0.6787
  788MOL0     C 8629   9.687   4.215   8.826 -0.5151  0.1592  0.1136
  788MOL0     O 8630   9.739   4.336   8.763  0.0141 -0.8284 -1.0691
  788MOL0     C 8631   9.847   4.396   8.824  0.6588  0.7454 -0.0980
  788MOL0     C 8632   9.860   4.530   8.788 -0.7895 -0.0941  0.8078
  788MOL0     C 8633   9.967   4.595   8.830 -0.2367  0.4477 -0.3224
  788MOL0     C 8634   9.976   4.737   8.785  0.1512  0.2954  1.2059
  788MOL0     C 8635  10.065   4.536   8.921  0.7044  0.7561  0.6962
  788MOL0     C 8636  10.198   4.600   8.964 -0.5533 -0.4485 -0.0532
  788MOL0     O 8637  10.231   4.717   8.905  0.2536 -0.2812 -0.2093
  788MOL0     C 8638  10.354   4.782   8.925  0.1654 -0.6970  0.1920
  788MOL0     C 8639  10.381   4.885   9.024 -0.1566 -0.8065  0.5948
  788MOL0     C 8640  10.496   4.962   9.021  0.6231 -0.8032 -0.5568
  788MOL0     C 8641  10.600   4.928   8.926 -0.2487  0.1138 -0.5573
  788MOL0     O 8642  10.724   4.990   8.934 -0.4144  0.0333  0.2746
  788MOL0     C 8643  10.834   4.902   8.911 -0.5909 -0.1508 -0.0134
  788MOL0     C 8644  10.963   4.968   8.965 -0.0354  0.5664  0.2166
  788MOL0     C 8645  11.006   5.088   8.879 -0.4971 -0.1701 -0.5781
  788MOL0     C 8646  11.131   5.157   8.943 -0.1156 -0.4899 -0.1844
  788MOL0     C 8647  11.187   5.267   8.861 -0.5842 -0.3777  0.0166
  788MOL0     C 8648  11.310   5.332   8.927  0.2814 -0.0734  0.6409
  788MOL0     C 8649  11.399   5.423   8.842 -0.1174  0.3517  0.0179
  788MOL0     C 8650  11.507   5.485   8.933  0.1462  0.8273 -0.0660
  788MOL0    Cl 8651  11.624   5.360   8.977 -0.2806  0.2385 -0.4000
  788MOL0     C 8652  10.577   4.825   8.832  0.2346 -0.3757 -0.5189
  788MOL0     C 8653  10.463   4.756   8.831  0.9817 -1.1560 -0.3119
  788MOL0     O 8654  10.264   4.542   9.049  0.6027  0.4365  0.1357
  788MOL0     C 8655  10.044   4.404   8.957 -0.0971  0.6969 -0.2317
  788MOL0     C 8656   9.933   4.334   8.910  0.4990 -0.3003  0.8689
  788MOL0     N 8657   9.388   4.108   9.285 -0.3344 -1.0921 -0.3749
  788MOL0     N 8658   9.291   4.024   9.261 -0.0484  0.0266 -0.4183
  788MOL0     C 8659   8.432   3.289   9.090 -0.2137  1.1044  0.0896
  788MOL0     C 8660   8.335   3.214   9.151  0.0801  0.3451 -0.8760
  788MOL0     C 8661   8.068   2.942   9.392  0.1658 -0.6827  0.4329
  788MOL0     C 8662   7.943   3.008   9.384  0.2459  0.0037 -0.0987
  788MOL0     C 8663   7.832   2.963   9.458 -0.3635 -0.2929 -0.5490
  788MOL0     C 8664   7.847   2.852   9.542 -0.4932  0.2846 -0.2603
  788MOL0     O 8665   7.747   2.827   9.627  0.2844  0.0814 -0.6692
  788MOL0     C 8666   7.752   2.719   9.719  0.0463 -0.8988  0.4829
  788MOL0     C 8667   7.613   2.674   9.765 -0.6862 -0.0911 -0.0510
  788MOL0     C 8668   7.549   2.781   9.860 -0.0940 -0.2378  0.0148
  788MOL0     C 8669   7.639   2.842   9.975  0.0815  0.2921  0.0049
  788MOL0     C 8670   7.713   2.734  10.050 -0.9534 -0.3250 -0.0724
  788MOL0     C 8671   7.740   2.639  10.112  0.2181 -1.0837 -0.6116
  788MOL0     C 8672   7.973   2.789   9.556  0.1429 -0.5585 -0.1781
  788MOL0     C 8673   8.084   2.834   9.487 -0.3196  0.1835  0.1330
  788MOL0     C 8674   8.217   2.779   9.520 -0.6494 -0.0135 -0.0505
  788MOL0     H 8675   8.388   3.287   9.478  3.2179  4.4020  0.3475
  788MOL0     H 8676   8.544   3.458   9.356 -3.5967  1.9890  1.8968
  788MOL0     H 8677   8.609   3.394   8.920  0.5461 -2.0760  0.4559
  788MOL0     H 8678   8.730   3.321   9.029  1.9541  1.0073 -1.0027
  788MOL0     H 8679   8.835   3.487   8.882  0.9942 -0.2194  0.6905
  788MOL0     H 8680   8.724   3.616   8.945  1.8985  1.3434 -0.4356
  788MOL0     H 8681   8.822   3.624   9.153  1.1606 -0.9670  1.1908
  788MOL0     H 8682   8.893   3.467   9.148 -1.8521  0.5648  2.5473
  788MOL0     H 8683   9.057   3.544   8.974 -1.5988  0.5039 -3.0525
  788MOL0     H 8684   8.977   3.700   8.973  3.2168 -1.9721 -2.7155
  788MOL0     H 8685   9.104   3.606   9.237 -2.0038  2.5982  1.7440
  788MOL0     H 8686   9.033   3.756   9.196  3.2767  1.3552  0.1999
  788MOL0     H 8687   9.288   3.755   9.192  2.5259  1.1931 -1.9560
  788MOL0     H 8688   9.281   3.622   9.084 -0.2233 -0.6073  2.2489
  788MOL0     H 8689   9.158   3.789   8.920 -1.8746  0.6333  1.2350
  788MOL0     H 8690   9.318   3.844   8.973  0.2320 -0.8316  1.0871
  788MOL0     H 8691   9.131   4.014   8.965  2.5063  0.7266 -1.5877
  788MOL0     H 8692   9.070   3.943   9.116 -1.1219 -0.5019 -3.8725
  788MOL0     H 8693   9.332   4.153   8.966  0.7097 -0.6613 -1.2645
  788MOL0     H 8694   9.606   4.257   9.239 -0.0601 -1.4758 -0.2624
  788MOL0     H 8695   9.478   4.368   9.212  1.2031  0.3503  1.0297
  788MOL0     H 8696   9.503   4.344   8.949 -1.1957 -0.8062  0.3122
  788MOL0     H 8697   9.629   4.415   9.031  1.3412  0.4649  0.0523
  788MOL0     H 8698   9.758   4.207   9.039  0.5402 -0.2036 -0.7063
  788MOL0     H 8699   9.619   4.115   9.012 -0.6735  0.7647 -1.5373
  788MOL0     H 8700   9.746   4.129   8.795 -0.5916  0.8828 -2.2887
  788MOL0     H 8701   9.589   4.201   8.780 -0.5619 -0.7091  0.4811
  788MOL0     H 8702   9.797   4.581   8.716  1.4786 -0.6691 -1.7603
  788MOL0     H 8703   9.874   4.765   8.756 -0.3622 -1.7833  0.8392
  788MOL0     H 8704  10.051   4.749   8.707  0.4431 -1.7272  1.0982
  788MOL0     H 8705  10.006   4.804   8.866  0.2375  0.2963  1.1731
  788MOL0     H 8706  10.301   4.919   9.089  0.5301  1.6230  0.2839
  788MOL0     H 8707  10.514   5.043   9.091  0.9607 -0.3844 -1.1213
  788MOL0     H 8708  10.825   4.805   8.960  0.9544 -0.2856  0.0476
  788MOL0     H 8709  10.854   4.889   8.805 -0.3748 -0.5092  0.0711
  788MOL0     H 8710  10.938   4.992   9.069 -1.7499 -0.1188 -0.0168
  788MOL0     H 8711  11.048   4.899   8.965 -0.5484 -0.0592  0.2333
  788MOL0     H 8712  10.929   5.165   8.884 -0.4126  0.0586 -2.2874
  788MOL0     H 8713  11.028   5.062   8.775 -0.7260 -0.3941 -0.5702
  788MOL0     H 8714  11.214   5.085   8.943  2.4288  2.2448  1.2207
  788MOL0     H 8715  11.118   5.193   9.045  1.4230  0.6396 -0.3582
  788MOL0     H 8716  11.223   5.230   8.765 -0.7395 -2.5355  0.7468
  788MOL0     H 8717  11.109   5.339   8.833  0.9741  0.9744 -1.1420
  788MOL0     H 8718  11.383   5.254   8.951  1.7141  0.2986 -2.0427
  788MOL0     H 8719  11.285   5.397   9.011  3.2498  1.6822  0.3015
  788MOL0     H 8720  11.342   5.504   8.795 -1.3749 -0.9033 -0.7004
  788MOL0     H 8721  11.447   5.371   8.758  1.5981  0.7564  0.7113
  788MOL0     H 8722  11.468   5.523   9.028  0.6428 -1.4268  1.1150
  788MOL0     H 8723  11.550   5.574   8.887 -2.6823  2.1837 -0.2794
  788MOL0     H 8724  10.661   4.803   8.767  0.7307  0.0407 -0.0269
  788MOL0     H 8725  10.450   4.677   8.758 -1.9562 -1.2273  0.1258
  788MOL0     H 8726  10.123   4.349   9.007  0.0470  1.7570  0.7691
  788MOL0     H 8727   9.918   4.229   8.934 -1.4911 -0.6762 -1.5057
  788MOL0     H 8728   8.437   3.298   8.982  0.4896  0.6078  0.0719
  788MOL0     H 8729   8.258   3.170   9.088 -0.6815  1.1290 -0.5156
  788MOL0     H 8730   7.933   3.098   9.324  0.7610  1.1077  1.4138
  788MOL0     H 8731   7.738   3.017   9.444 -0.9216 -1.4440 -1.4692
  788MOL0     H 8732   7.784   2.634   9.658 -1.1382  0.2616 -1.9093
  788MOL0     H 8733   7.827   2.723   9.799  4.8998 -5.2322 -3.1541
  788MOL0     H 8734   7.623   2.581   9.820  1.8369  0.0369 -0.1919
  788MOL0     H 8735   7.559   2.658   9.671  0.9069 -1.6622 -0.7499
  788MOL0     H 8736   7.515   2.868   9.803 -1.6533 -1.4157 -0.9258
  788MOL0     H 8737   7.475   2.731   9.923  2.2107 -0.6495  2.5975
  788MOL0     H 8738   7.570   2.886  10.048 -1.1762  1.2718 -1.7098
  788MOL0     H 8739   7.703   2.921   9.935  0.9465 -1.0199 -1.2722
  788MOL0     H 8740   7.753   2.551  10.172 -0.6032 -1.3535 -0.8218
  788MOL0     H 8741   7.986   2.702   9.619 -1.4744  0.1839  1.2538
  788MOL0     H 8742   8.267   2.848   9.589  1.2753 -0.6878 -0.7080
  788MOL0     H 8743   8.209   2.680   9.565  2.6262 -0.0107  0.7727
  788MOL0     H 8744   8.270   2.769   9.426 -1.7162  0.1244 -0.6857
  789MOL0     O 8745   7.767   1.873   0.980 -0.1368  0.3864  0.6216
  789MOL0     C 8746   7.682   1.808   1.041 -0.5931  0.9003  0.4838
  789MOL0     O 8747   7.696   1.761   1.169 -0.8377 -0.4485 -0.7814
  789MOL0     C 8748   7.769   1.821   1.267 -0.4899 -0.6965  0.7309
  789MOL0     C 8749   7.759   1.958   1.300 -0.4575 -0.1360  0.5024
  789MOL0     C 8750   7.839   2.001   1.414 -0.7966 -0.2981 -0.2842
  789MOL0     C 8751   7.917   1.914   1.488 -0.1812  0.9931  0.3897
  789MOL0     O 8752   7.981   1.944   1.599  0.3080 -0.0244  0.0159
  789MOL0     C 8753   7.990   2.076   1.641  0.3737 -0.5858  0.9719
  789MOL0     C 8754   8.088   2.065   1.767 -0.5969 -0.0071  0.7121
  789MOL0     C 8755   8.226   2.037   1.709 -0.3650 -0.3357 -0.2296
  789MOL0     C 8756   8.334   2.091   1.800 -0.2341 -0.2097  0.3351
  789MOL0     C 8757   8.479   2.058   1.751 -0.5073 -0.0776  0.1728
  789MOL0     C 8758   8.524   2.143   1.625 -0.2097 -0.7453  0.4584
  789MOL0     C 8759   8.653   2.089   1.558  0.3528  0.8249 -0.1971
  789MOL0     C 8760   8.682   2.136   1.409 -0.5072  0.0792  0.3370
  789MOL0     N 8761   8.811   2.073   1.366 -0.0048  0.6133  0.3844
  789MOL0     C 8762   8.835   1.936   1.363 -0.7325 -0.1971  0.4931
  789MOL0     C 8763   8.960   1.929   1.309 -0.5844 -1.3556  0.2876
  789MOL0     C 8764   9.019   1.796   1.304 -0.2998 -0.0433 -0.2067
  789MOL0     C 8765   9.165   1.790   1.291 -0.5204  0.4571 -0.3819
  789MOL0     C 8766   9.215   1.652   1.350 -0.1455 -0.2686  0.2889
  789MOL0     C 8767   9.365   1.648   1.354  0.1080 -0.0687  0.3882
  789MOL0     O 8768   9.410   1.758   1.436 -0.4487 -0.8410  0.4544
  789MOL0     C 8769   9.535   1.817   1.421 -0.0591  1.3589  1.0598
  789MOL0     C 8770   9.641   1.782   1.335 -0.1141 -0.3504  0.0744
  789MOL0     C 8771   9.760   1.856   1.326 -0.2525  0.3377  0.6387
  789MOL0     C 8772   9.854   1.819   1.218 -0.5330 -0.0830  0.3054
  789MOL0     C 8773   9.784   1.965   1.414 -0.2135  0.2114 -0.5534
  789MOL0     C 8774   9.918   2.039   1.417  0.2996 -0.1750  0.2565
  789MOL0     O 8775  10.033   1.990   1.364  0.1072  0.5584  0.0622
  789MOL0     C 8776  10.143   2.061   1.391 -0.8269 -0.3368  0.4210
  789MOL0     C 8777  10.183   2.177   1.322 -0.2440 -1.1989 -0.5124
  789MOL0     C 8778  10.297   2.247   1.355 -0.4227  0.2760 -0.8416
  789MOL0     C 8779  10.382   2.193   1.449 -0.7495 -1.3599  0.4253
  789MOL0     O 8780  10.505   2.265   1.449  0.3800  0.0466 -0.2311
  789MOL0     C 8781  10.607   2.216   1.536 -0.5255 -0.2937  0.0695
  789MOL0     C 8782  10.738   2.286   1.494 -0.0095  0.2556  0.3316
  789MOL0     C 8783  10.864   2.221   1.554  0.5101 -0.1703  0.9359
  789MOL0     C 8784  10.979   2.325   1.578 -0.2677 -0.1434 -0.4655
  789MOL0     C 8785  11.100   2.262   1.653 -0.3432  0.2471  0.3927
  789MOL0     C 8786  11.230   2.343   1.669  0.1355 -0.2151 -0.0498
  789MOL0     C 8787  11.267   2.408   1.533  0.7618  0.3185 -0.6872
  789MOL0     C 8788  11.416   2.449   1.539 -0.0367  0.7150  0.2041
  789MOL0    Cl 8789  11.526   2.301   1.552  0.1944  0.0875 -0.0494
  789MOL0     C 8790  10.350   2.079   1.522  0.3621  0.8055 -0.1103
  789MOL0     C 8791  10.230   2.010   1.493  0.5052  0.6209  0.1866
  789MOL0     O 8792   9.907   2.146   1.479 -0.2945  1.1238  0.2746
  789MOL0     C 8793   9.677   1.993   1.508 -0.4740  0.4506  0.9124
  789MOL0     C 8794   9.558   1.928   1.506 -0.1842  0.4132 -0.3450
  789MOL0     N 8795   9.009   2.056   1.278  0.7443 -0.3162  0.2863
  789MOL0     N 8796   8.914   2.138   1.310 -0.3867  0.5125 -0.0170
  789MOL0     C 8797   7.914   1.781   1.451  0.2348 -0.5480  0.0635
  789MOL0     C 8798   7.848   1.730   1.336  0.4751  0.1561 -0.2890
  789MOL0     C 8799   7.567   1.735   0.968 -0.0193 -0.3735 -0.4694
  789MOL0     C 8800   7.530   1.605   1.014 -0.5751 -0.8116  0.1928
  789MOL0     C 8801   7.424   1.539   0.954 -0.4190 -0.3143  0.1874
  789MOL0     C 8802   7.348   1.594   0.851  0.3578 -0.0218 -0.4292
  789MOL0     O 8803   7.240   1.520   0.815 -0.4832  0.3653  0.6187
  789MOL0     C 8804   7.134   1.577   0.738  0.0906 -0.1738  0.4580
  789MOL0     C 8805   7.021   1.486   0.698  0.1389 -0.4860  0.8425
  789MOL0     C 8806   6.900   1.560   0.635  0.3908 -0.3378  0.1887
  789MOL0     C 8807   6.789   1.456   0.595  0.3321  0.2433  0.1826
  789MOL0     C 8808   6.660   1.529   0.582  0.3665  0.9229 -0.4099
  789MOL0     C 8809   6.570   1.604   0.561 -0.5125 -0.9230 -0.1585
  789MOL0     C 8810   7.381   1.720   0.807 -0.0670 -0.0641 -0.1623
  789MOL0     C 8811   7.492   1.789   0.863 -0.5813 -0.0354  0.1660
  789MOL0     C 8812   7.520   1.924   0.809 -0.2225  0.5554 -0.2600
  789MOL0     H 8813   7.688   2.026   1.254  1.6265  1.8993  0.0921
  789MOL0     H 8814   7.817   2.100   1.453  0.7093  0.6027 -1.5865
  789MOL0     H 8815   7.892   2.116   1.668 -1.7065 -2.9954 -2.3022
  789MOL0     H 8816   8.032   2.141   1.564  3.2930 -3.0484  0.2741
  789MOL0     H 8817   8.073   2.157   1.824  0.7388  0.7660 -0.1439
  789MOL0     H 8818   8.059   1.987   1.838 -2.6141 -0.3626 -0.4247
  789MOL0     H 8819   8.233   1.930   1.691  0.4830 -0.3752  0.2637
  789MOL0     H 8820   8.234   2.086   1.611 -2.1157 -1.4795 -1.0001
  789MOL0     H 8821   8.329   2.200   1.811 -1.6544 -0.3503  1.4070
  789MOL0     H 8822   8.322   2.047   1.900  1.3778  0.1830  0.7308
  789MOL0     H 8823   8.499   1.954   1.725  0.8426  0.5597 -1.5642
  789MOL0     H 8824   8.559   2.080   1.822 -0.1818 -1.7984  0.3780
  789MOL0     H 8825   8.454   2.147   1.541  0.3523  0.1385  0.0085
  789MOL0     H 8826   8.536   2.249   1.652 -1.6288 -0.8281  1.5576
  789MOL0     H 8827   8.647   1.980   1.560 -0.3176  0.8122 -1.7404
  789MOL0     H 8828   8.738   2.118   1.620  0.3864 -0.2106  0.2422
  789MOL0     H 8829   8.597   2.119   1.342 -1.0732  0.9717  0.8113
  789MOL0     H 8830   8.689   2.245   1.403  1.5575  0.1037  2.2033
  789MOL0     H 8831   8.774   1.853   1.395 -1.6337  1.1367  2.4127
  789MOL0     H 8832   8.969   1.758   1.214  0.0549  1.9622 -1.3006
  789MOL0     H 8833   8.989   1.730   1.386  0.9585  0.8913  1.0334
  789MOL0     H 8834   9.197   1.788   1.186  0.3904  1.7216 -0.1491
  789MOL0     H 8835   9.200   1.881   1.341 -2.0319 -0.0881  1.7720
  789MOL0     H 8836   9.184   1.637   1.454 -2.0676 -0.6846 -0.2853
  789MOL0     H 8837   9.166   1.576   1.289  0.7991  0.8452 -1.9545
  789MOL0     H 8838   9.407   1.556   1.397  0.1676 -0.3261 -0.2217
  789MOL0     H 8839   9.401   1.680   1.256 -2.0815  2.7406  0.3583
  789MOL0     H 8840   9.634   1.695   1.270 -0.2852 -0.4670  0.2481
  789MOL0     H 8841   9.882   1.903   1.154  1.2265  0.3064  1.4970
  789MOL0     H 8842   9.812   1.746   1.149 -1.3228  1.3865 -0.8170
  789MOL0     H 8843   9.946   1.786   1.268  0.3430  1.6171 -0.1012
  789MOL0     H 8844  10.115   2.237   1.261  0.4620  0.2092  0.0430
  789MOL0     H 8845  10.321   2.336   1.298 -2.1631 -0.0445 -2.1717
  789MOL0     H 8846  10.583   2.226   1.642  0.3828  1.1423  0.1638
  789MOL0     H 8847  10.618   2.109   1.512 -1.4490 -0.1891 -0.9147
  789MOL0     H 8848  10.750   2.291   1.385  0.8563 -3.8189  0.0773
  789MOL0     H 8849  10.729   2.389   1.528 -3.3580 -0.5106  2.1793
  789MOL0     H 8850  10.890   2.140   1.485 -0.2353  0.3594  0.0103
  789MOL0     H 8851  10.853   2.171   1.651  1.5044  1.1738  1.7801
  789MOL0     H 8852  10.952   2.416   1.633  0.3245  0.4055 -1.0536
  789MOL0     H 8853  11.013   2.369   1.483  0.7734  1.6432  0.6520
  789MOL0     H 8854  11.066   2.243   1.755 -1.2308  3.4858  0.8117
  789MOL0     H 8855  11.131   2.170   1.601  0.2125  1.6648 -1.9276
  789MOL0     H 8856  11.303   2.267   1.700 -1.6888 -2.3617 -0.7442
  789MOL0     H 8857  11.215   2.427   1.737  2.0927 -0.0691  0.2788
  789MOL0     H 8858  11.205   2.497   1.526 -0.8362 -0.7909 -1.0698
  789MOL0     H 8859  11.245   2.333   1.457  1.9532 -2.2596  1.3467
  789MOL0     H 8860  11.441   2.512   1.625 -1.0831 -0.1851  1.2069
  789MOL0     H 8861  11.437   2.507   1.449 -3.2451  1.3673 -0.2464
  789MOL0     H 8862  10.415   2.036   1.597 -1.2256 -2.9297 -0.6905
  789MOL0     H 8863  10.186   1.929   1.550  0.2434 -0.6899 -1.7697
  789MOL0     H 8864   9.703   2.065   1.585  3.5721 -0.4781  0.6614
  789MOL0     H 8865   9.476   1.958   1.570  0.4010  1.3600 -0.0270
  789MOL0     H 8866   7.962   1.707   1.515  1.1385  1.3003  1.6233
  789MOL0     H 8867   7.842   1.625   1.308 -0.6866 -0.1142  0.8751
  789MOL0     H 8868   7.583   1.558   1.096  3.0707  0.4244 -1.2499
  789MOL0     H 8869   7.393   1.441   0.988  1.0972 -0.0630  2.4724
  789MOL0     H 8870   7.099   1.673   0.777 -2.6231 -0.6497 -0.6013
  789MOL0     H 8871   7.174   1.597   0.638 -0.7577 -0.8837 -0.0407
  789MOL0     H 8872   6.990   1.438   0.791 -1.2541 -0.3127  0.4875
  789MOL0     H 8873   7.046   1.410   0.624  1.1678 -1.1064  1.8048
  789MOL0     H 8874   6.868   1.639   0.705 -2.3670 -1.3145  0.1421
  789MOL0     H 8875   6.930   1.616   0.546 -0.4042  0.9079  0.6742
  789MOL0     H 8876   6.778   1.378   0.671  1.1492 -0.2451 -0.1841
  789MOL0     H 8877   6.825   1.407   0.504  0.6494 -0.4700  0.6793
  789MOL0     H 8878   6.491   1.664   0.522  1.4175  1.2008 -1.0320
  789MOL0     H 8879   7.321   1.771   0.732  0.2313  0.6443  0.0757
  789MOL0     H 8880   7.464   1.940   0.716  0.4033  2.6803 -0.3318
  789MOL0     H 8881   7.486   2.008   0.870  1.2302  0.7309  0.3464
  789MOL0     H 8882   7.627   1.933   0.790  0.0532  2.5226  1.7488
  790MOL0     O 8883  10.912   7.292   0.389  0.0598  0.2556 -0.0140
  790MOL0     C 8884  10.934   7.289   0.513  0.8021  1.1552  0.2129
  790MOL0     O 8885  11.055   7.299   0.565 -0.1542  0.9137 -0.7058
  790MOL0     C 8886  11.171   7.298   0.491 -0.1982  0.4306  0.5757
  790MOL0     C 8887  11.195   7.351   0.360  0.1803 -0.2265 -0.3637
  790MOL0     C 8888  11.319   7.351   0.307 -0.4439  0.2813 -0.9634
  790MOL0     C 8889  11.431   7.301   0.381  0.6595 -0.1584  1.4993
  790MOL0     O 8890  11.547   7.304   0.311 -0.1138  0.3117  0.2409
  790MOL0     C 8891  11.660   7.253   0.378  0.2495 -0.4821 -0.2428
  790MOL0     C 8892  11.784   7.299   0.293 -0.2332 -0.2906 -0.6516
  790MOL0     C 8893  11.908   7.243   0.350  0.1990  1.0585 -0.6743
  790MOL0     C 8894  12.032   7.256   0.267  0.2922  0.1424 -0.2097
  790MOL0     C 8895  12.107   7.386   0.294 -0.6410 -0.5186 -0.7467
  790MOL0     C 8896  12.209   7.420   0.190  0.0449 -1.0550 -0.8040
  790MOL0     C 8897  12.337   7.493   0.254  0.0692  0.5332 -0.3320
  790MOL0     C 8898  12.454   7.417   0.299 -0.7536 -0.4803  0.0395
  790MOL0     N 8899  12.511   7.359   0.181  0.0772  0.7975  0.4558
  790MOL0     C 8900  12.510   7.227   0.150  0.3748 -0.0062 -0.2729
  790MOL0     C 8901  12.605   7.208   0.058  0.5420 -0.5294  0.7788
  790MOL0     C 8902  12.641   7.086  -0.025  0.3256  0.3335  0.4405
  790MOL0     C 8903  12.518   7.009  -0.063  1.1013  1.1696  0.3299
  790MOL0     C 8904  12.549   6.868  -0.115 -0.4286  0.1870  0.6556
  790MOL0     C 8905  12.619   6.860  -0.253  0.6612 -0.6380  0.0994
  790MOL0     O 8906  12.620   6.727  -0.281 -0.4439  0.6249  0.2038
  790MOL0     C 8907  12.710   6.694  -0.383  0.0055  0.1493  0.4092
  790MOL0     C 8908  12.653   6.664  -0.511 -0.2169  0.8585  0.7466
  790MOL0     C 8909  12.730   6.640  -0.627 -0.4234  0.3765 -0.4859
  790MOL0     C 8910  12.658   6.626  -0.760 -0.4566  0.9846  0.5059
  790MOL0     C 8911  12.874   6.660  -0.616 -0.4976  1.2480  0.4578
  790MOL0     C 8912  12.965   6.639  -0.729  0.4573 -0.0699 -0.3863
  790MOL0     O 8913  13.096   6.666  -0.697  0.7747 -0.5778  0.0009
  790MOL0     C 8914  13.200   6.650  -0.785 -0.1909 -0.6555 -0.3675
  790MOL0     C 8915  13.298   6.750  -0.795  0.0620  0.2648 -0.3356
  790MOL0     C 8916  13.412   6.728  -0.869 -0.5551  0.0841  0.3065
  790MOL0     C 8917  13.435   6.599  -0.926 -0.0922  0.5013 -0.2972
  790MOL0     O 8918  13.551   6.575  -0.988  0.3207  0.5100 -0.1519
  790MOL0     C 8919  13.576   6.441  -1.033  0.1550 -0.7146  0.3739
  790MOL0     C 8920  13.713   6.450  -1.100  0.0582  0.5457 -0.0276
  790MOL0     C 8921  13.824   6.476  -1.000 -0.2902 -0.0355  0.5998
  790MOL0     C 8922  13.858   6.625  -0.994 -0.0388 -0.1140 -0.4680
  790MOL0     C 8923  13.988   6.645  -0.896  1.1590 -0.1658 -0.0174
  790MOL0     C 8924  13.970   6.625  -0.744  0.5240 -0.5144  0.8759
  790MOL0     C 8925  13.844   6.709  -0.697 -0.4236 -0.2098 -0.4571
  790MOL0     C 8926  13.836   6.708  -0.545  0.1900  0.2752  0.2385
  790MOL0    Cl 8927  13.785   6.544  -0.489  0.6186  0.1238 -0.4782
  790MOL0     C 8928  13.334   6.497  -0.924 -0.4031  0.1980 -0.5370
  790MOL0     C 8929  13.218   6.526  -0.858  0.5320  0.2015  0.6906
  790MOL0     O 8930  12.928   6.587  -0.830 -0.5651  0.3404  0.5519
  790MOL0     C 8931  12.928   6.687  -0.489  0.6729 -0.4472  0.5569
  790MOL0     C 8932  12.849   6.698  -0.376  0.6666  0.0734  0.0923
  790MOL0     N 8933  12.660   7.331   0.029 -0.5113 -0.2597  0.3424
  790MOL0     N 8934  12.608   7.420   0.099 -0.0197 -0.7125  0.6020
  790MOL0     C 8935  11.413   7.244   0.508  0.1766 -1.2451  0.2086
  790MOL0     C 8936  11.282   7.250   0.566  0.8885 -0.0545 -0.5636
  790MOL0     C 8937  10.821   7.292   0.613  0.2995  0.5165  0.1384
  790MOL0     C 8938  10.845   7.314   0.755 -0.4941 -0.5689  0.2196
  790MOL0     C 8939  10.755   7.300   0.855 -0.5103 -0.0158 -0.5140
  790MOL0     C 8940  10.618   7.288   0.818 -0.4300 -0.8588 -0.7983
  790MOL0     O 8941  10.536   7.271   0.926 -0.4523 -0.0123  0.0442
  790MOL0     C 8942  10.400   7.291   0.895 -0.3392  0.0104 -1.0782
  790MOL0     C 8943  10.327   7.313   1.043 -0.7639 -0.1244  0.7507
  790MOL0     C 8944  10.315   7.184   1.120 -0.6921  0.8763 -0.0129
  790MOL0     C 8945  10.222   7.190   1.238 -0.5153  0.9506  0.1672
  790MOL0     C 8946  10.233   7.075   1.329 -0.7359 -0.5528 -0.6078
  790MOL0     C 8947  10.244   6.919   1.452 -0.5443  0.5255  0.5865
  790MOL0     C 8948  10.577   7.279   0.679 -0.0185 -1.0813 -0.0511
  790MOL0     C 8949  10.680   7.283   0.575  0.0130  0.8444  0.0914
  790MOL0     C 8950  10.635   7.257   0.435  0.2811 -0.0440  0.5728
  790MOL0     H 8951  11.125   7.408   0.300  1.6225  1.4586 -0.5566
  790MOL0     H 8952  11.334   7.408   0.215 -4.1867 -1.5564 -2.9447
  790MOL0     H 8953  11.669   7.144   0.387  3.5618 -0.1599  2.7201
  790MOL0     H 8954  11.671   7.290   0.480 -0.9432  0.3807 -0.4146
  790MOL0     H 8955  11.768   7.253   0.195  1.5025  0.6463 -1.4045
  790MOL0     H 8956  11.796   7.407   0.289  1.3492 -0.4462 -0.7944
  790MOL0     H 8957  11.922   7.269   0.455  1.4080  0.7975 -0.7531
  790MOL0     H 8958  11.888   7.135   0.349 -0.2191  1.1073  0.9320
  790MOL0     H 8959  12.094   7.167   0.284 -1.6002 -1.0807  0.7163
  790MOL0     H 8960  12.008   7.258   0.160 -0.9963 -0.8941  0.0256
  790MOL0     H 8961  12.159   7.376   0.389 -0.8933  2.8604 -0.1271
  790MOL0     H 8962  12.037   7.470   0.303  0.4514  0.6504 -2.5669
  790MOL0     H 8963  12.236   7.338   0.123 -1.2127 -0.3718 -2.2067
  790MOL0     H 8964  12.164   7.491   0.121 -0.9564 -3.0088 -2.2359
  790MOL0     H 8965  12.302   7.540   0.346  1.8371  0.2296  0.5318
  790MOL0     H 8966  12.379   7.570   0.189  0.1542  0.9470  0.2048
  790MOL0     H 8967  12.530   7.474   0.352  0.3582  1.2150 -3.1051
  790MOL0     H 8968  12.425   7.337   0.368  0.4443 -0.3514  0.7175
  790MOL0     H 8969  12.432   7.157   0.179  1.7651 -0.7415  1.8849
  790MOL0     H 8970  12.699   7.017   0.037 -2.1986 -3.2444 -0.8400
  790MOL0     H 8971  12.695   7.115  -0.115 -0.1068  1.2439  0.4694
  790MOL0     H 8972  12.442   7.001   0.016 -0.0853  3.5111 -0.4918
  790MOL0     H 8973  12.466   7.053  -0.149 -0.4057 -2.3242 -0.7614
  790MOL0     H 8974  12.609   6.814  -0.041 -2.3439 -0.7680  1.5701
  790MOL0     H 8975  12.460   6.806  -0.126 -0.0233 -0.5259  1.2883
  790MOL0     H 8976  12.560   6.918  -0.325  3.1623  0.3435 -1.2809
  790MOL0     H 8977  12.722   6.894  -0.244  1.5951 -3.4118  0.5218
  790MOL0     H 8978  12.546   6.666  -0.529 -0.2896  2.0971  1.2532
  790MOL0     H 8979  12.706   6.685  -0.839  1.7011 -3.0836 -1.5070
  790MOL0     H 8980  12.557   6.668  -0.755 -0.3417  1.4448 -0.6609
  790MOL0     H 8981  12.657   6.520  -0.787  1.4678  1.3440 -1.2419
  790MOL0     H 8982  13.290   6.849  -0.752 -0.5957  0.9104 -1.8800
  790MOL0     H 8983  13.482   6.810  -0.883 -0.6374  0.0029 -0.6394
  790MOL0     H 8984  13.571   6.366  -0.954  0.4067  0.5617  1.6339
  790MOL0     H 8985  13.508   6.403  -1.110 -0.7061 -1.1262  1.3114
  790MOL0     H 8986  13.730   6.358  -1.156  0.1467  1.0924 -0.9225
  790MOL0     H 8987  13.715   6.528  -1.176  0.8953  0.5613 -0.0007
  790MOL0     H 8988  13.919   6.429  -1.026  0.3994  1.3398  0.5859
  790MOL0     H 8989  13.805   6.442  -0.898  2.6859 -0.6164  1.0528
  790MOL0     H 8990  13.781   6.696  -0.965 -1.0449 -1.1392 -0.5447
  790MOL0     H 8991  13.874   6.651  -1.099  0.2394 -1.4106 -0.7755
  790MOL0     H 8992  14.074   6.583  -0.925  1.5550  0.7654 -0.8931
  790MOL0     H 8993  14.015   6.750  -0.905 -0.5715  0.1491 -2.6191
  790MOL0     H 8994  14.057   6.662  -0.690  1.0822  0.8981 -0.8912
  790MOL0     H 8995  13.957   6.518  -0.727 -0.5229 -0.2340  1.9547
  790MOL0     H 8996  13.750   6.667  -0.736  0.0774 -1.0493 -0.7799
  790MOL0     H 8997  13.861   6.808  -0.740 -1.6124  0.5110  0.6375
  790MOL0     H 8998  13.774   6.793  -0.513 -0.2930  0.2402 -0.5750
  790MOL0     H 8999  13.939   6.730  -0.515  0.0665  0.4102  0.5746
  790MOL0     H 9000  13.343   6.403  -0.978  0.8270  0.0729 -0.1418
  790MOL0     H 9001  13.144   6.447  -0.857  1.0806 -0.3260  0.5627
  790MOL0     H 9002  13.032   6.700  -0.463  0.6184 -2.6771  2.0979
  790MOL0     H 9003  12.899   6.722  -0.282  1.6682 -1.4228 -0.0365
  790MOL0     H 9004  11.492   7.211   0.574 -0.2297 -3.3214 -0.2686
  790MOL0     H 9005  11.250   7.207   0.660  0.1735 -2.0460 -1.6686
  790MOL0     H 9006  10.947   7.330   0.786 -0.5014  1.7874 -0.7724
  790MOL0     H 9007  10.785   7.319   0.957 -0.3673  0.7685 -0.6962
  790MOL0     H 9008  10.367   7.370   0.826 -4.0044 -1.5101 -1.2866
  790MOL0     H 9009  10.355   7.203   0.848  1.3234 -2.8484  2.3092
  790MOL0     H 9010  10.232   7.358   1.014 -0.8807 -1.8658 -1.9034
  790MOL0     H 9011  10.383   7.382   1.107  0.3447  0.2742 -0.6041
  790MOL0     H 9012  10.271   7.114   1.049 -3.4983  1.3111  1.1754
  790MOL0     H 9013  10.404   7.154   1.178  0.0492  1.0961 -1.0179
  790MOL0     H 9014  10.118   7.197   1.203 -0.8766 -0.0556  0.9720
  790MOL0     H 9015  10.234   7.283   1.296 -1.8041  2.0743 -1.2650
  790MOL0     H 9016  10.242   6.833   1.517  0.2439 -0.6132 -0.8301
  790MOL0     H 9017  10.474   7.260   0.652  0.3483 -0.6317 -1.9068
  790MOL0     H 9018  10.667   7.346   0.379 -0.0164 -0.2726  0.0406
  790MOL0     H 9019  10.692   7.168   0.409  2.0008  1.2049 -0.1094
  790MOL0     H 9020  10.527   7.245   0.427  0.3384  0.2089 -0.7810
  791MOL0     O 9021   7.734   0.822   5.990  0.2880 -0.0480  0.1712
  791MOL0     C 9022   7.750   0.707   6.031 -0.1024 -0.7653 -1.0879
  791MOL0     O 9023   7.873   0.649   6.060 -0.0257  0.7318 -0.0183
  791MOL0     C 9024   7.990   0.715   6.039 -0.3543 -0.2275  0.2183
  791MOL0     C 9025   8.041   0.731   5.913  0.3232 -0.3460  0.3136
  791MOL0     C 9026   8.167   0.788   5.895 -0.5596 -0.1444 -0.0498
  791MOL0     C 9027   8.245   0.833   6.011  0.0702  0.3418  0.0147
  791MOL0     O 9028   8.371   0.881   6.012  0.3953 -0.4792  0.1952
  791MOL0     C 9029   8.443   0.902   5.890  0.5012 -0.1831 -0.3445
  791MOL0     C 9030   8.590   0.877   5.929  0.2589  0.6025 -0.6025
  791MOL0     C 9031   8.652   0.999   5.987 -1.2118  0.0913  0.1638
  791MOL0     C 9032   8.811   0.965   6.003 -0.2130  0.1065 -0.4266
  791MOL0     C 9033   8.901   1.086   6.046  1.2083  0.5298 -0.5227
  791MOL0     C 9034   8.845   1.148   6.176 -0.8907 -1.4484  0.7867
  791MOL0     C 9035   8.942   1.249   6.234  0.1762  1.0194  0.8449
  791MOL0     C 9036   8.917   1.287   6.375  0.3584 -0.5796  0.0493
  791MOL0     N 9037   9.004   1.391   6.433 -0.8123 -0.1762  0.3178
  791MOL0     C 9038   8.981   1.466   6.539  0.3079 -0.6863 -0.2481
  791MOL0     C 9039   9.086   1.552   6.565  0.1618  0.2254 -0.0865
  791MOL0     C 9040   9.105   1.651   6.679  0.4048  0.4355  0.1758
  791MOL0     C 9041   9.009   1.772   6.658 -0.4681  0.4102 -0.7580
  791MOL0     C 9042   9.024   1.869   6.772  0.0061  0.6045 -0.9570
  791MOL0     C 9043   9.166   1.939   6.769 -0.4324 -0.2512  0.2847
  791MOL0     O 9044   9.167   2.049   6.855  0.2137  0.7167 -0.1885
  791MOL0     C 9045   9.284   2.087   6.907 -0.3815 -0.0397 -0.6482
  791MOL0     C 9046   9.299   2.217   6.963  0.1684  0.2343  0.3833
  791MOL0     C 9047   9.418   2.267   7.027  0.0720  0.6982 -0.1778
  791MOL0     C 9048   9.423   2.411   7.076  1.3047 -0.1899  0.3097
  791MOL0     C 9049   9.525   2.182   7.018  0.6032 -0.0876  0.0463
  791MOL0     C 9050   9.653   2.227   7.067 -1.5373 -1.1324  0.0599
  791MOL0     O 9051   9.722   2.139   7.139  0.1557 -0.2287  0.2551
  791MOL0     C 9052   9.841   2.177   7.194  0.1497 -0.4050 -0.6021
  791MOL0     C 9053   9.962   2.124   7.148  1.7278 -0.2004 -1.2984
  791MOL0     C 9054  10.087   2.168   7.188  0.2437  0.1408  0.4457
  791MOL0     C 9055  10.095   2.284   7.273 -0.8521 -0.4561  0.3524
  791MOL0     O 9056  10.211   2.348   7.320 -0.0722 -0.1549  0.3774
  791MOL0     C 9057  10.346   2.312   7.266  0.5252  0.5836  0.1412
  791MOL0     C 9058  10.459   2.409   7.310  0.9676  0.3924  0.4504
  791MOL0     C 9059  10.453   2.533   7.235  0.1531 -0.0405 -0.0124
  791MOL0     C 9060  10.559   2.648   7.278 -0.3923 -0.2024  0.1792
  791MOL0     C 9061  10.541   2.769   7.187  0.0105  0.5017 -0.7130
  791MOL0     C 9062  10.651   2.867   7.226  0.0851 -0.1243  0.5431
  791MOL0     C 9063  10.687   2.962   7.109 -0.7568 -0.3449  0.2364
  791MOL0     C 9064  10.769   2.897   7.005  0.5582  1.1650  0.7908
  791MOL0    Cl 9065  10.938   2.873   7.054  0.1765  0.0284  0.0379
  791MOL0     C 9066   9.981   2.330   7.333 -0.8244  0.4287 -0.3673
  791MOL0     C 9067   9.858   2.277   7.298 -0.3749 -0.2634  1.1317
  791MOL0     O 9068   9.688   2.347   7.050 -0.1044 -0.2322  0.4719
  791MOL0     C 9069   9.513   2.046   6.978 -0.5678 -0.1350  0.2583
  791MOL0     C 9070   9.395   2.009   6.914 -0.2130  0.8978  0.4410
  791MOL0     N 9071   9.180   1.521   6.470 -0.0129 -1.0267  0.3474
  791MOL0     N 9072   9.134   1.426   6.398 -0.9121 -0.5180 -0.0083
  791MOL0     C 9073   8.186   0.809   6.135 -0.4268  0.3568 -0.5756
  791MOL0     C 9074   8.057   0.759   6.150  0.0647 -0.2041 -0.1975
  791MOL0     C 9075   7.624   0.626   6.060 -0.1680 -0.0005  0.1189
  791MOL0     C 9076   7.638   0.515   6.136  0.5812  0.6914  0.6760
  791MOL0     C 9077   7.525   0.439   6.163 -0.5845  0.2491  0.0976
  791MOL0     C 9078   7.398   0.463   6.120 -0.3168 -0.5442  0.2885
  791MOL0     O 9079   7.301   0.377   6.165 -0.2206  0.2217  0.7335
  791MOL0     C 9080   7.173   0.366   6.109  0.2249 -0.2861 -0.3817
  791MOL0     C 9081   7.104   0.228   6.136 -0.0107 -0.1433  0.4501
  791MOL0     C 9082   6.968   0.233   6.065 -0.6902  0.0991  0.6951
  791MOL0     C 9083   6.887   0.113   6.099  0.6076  0.9194 -0.2672
  791MOL0     C 9084   6.762   0.128   6.031 -0.3367 -0.1486  0.0095
  791MOL0     C 9085   6.660   0.128   5.958 -0.8531  0.4664 -0.0115
  791MOL0     C 9086   7.389   0.575   6.031  0.2295  0.4500 -0.8347
  791MOL0     C 9087   7.498   0.665   6.007 -0.6566  0.0720 -0.1741
  791MOL0     C 9088   7.461   0.794   5.923  0.2187  1.1612 -0.3095
  791MOL0     H 9089   7.997   0.687   5.824 -0.3897 -2.1716  1.5187
  791MOL0     H 9090   8.211   0.798   5.796  1.8667  0.5153  1.0020
  791MOL0     H 9091   8.436   1.007   5.858  1.4982  0.4991  1.5236
  791MOL0     H 9092   8.417   0.838   5.805 -1.7879 -1.2987  1.0775
  791MOL0     H 9093   8.607   0.797   6.002 -0.9166  1.8032  1.0734
  791MOL0     H 9094   8.643   0.851   5.837  1.0974  3.9089 -1.1824
  791MOL0     H 9095   8.645   1.084   5.917  1.0926 -0.4435 -0.8182
  791MOL0     H 9096   8.600   1.027   6.079  2.0176  1.4169  1.7692
  791MOL0     H 9097   8.830   0.882   6.073 -1.2077 -0.0212 -0.3029
  791MOL0     H 9098   8.862   0.928   5.913  1.8944  1.0352  0.3063
  791MOL0     H 9099   8.885   1.156   5.964 -0.7872 -0.1575 -0.7549
  791MOL0     H 9100   9.006   1.056   6.052  1.5482  1.2281 -2.4238
  791MOL0     H 9101   8.750   1.196   6.152  1.0206  2.2992 -0.1285
  791MOL0     H 9102   8.822   1.079   6.258 -1.0157 -0.4170  1.6458
  791MOL0     H 9103   8.953   1.336   6.169  0.9609  1.5220  1.6198
  791MOL0     H 9104   9.043   1.206   6.231  0.4389  1.6801 -1.2553
  791MOL0     H 9105   8.817   1.329   6.387  1.5213  2.1830  0.8946
  791MOL0     H 9106   8.931   1.194   6.431 -1.3948  0.1116  1.7699
  791MOL0     H 9107   8.902   1.449   6.612  0.9833  3.0657  1.6157
  791MOL0     H 9108   9.210   1.675   6.665  0.5843 -0.2311  0.3239
  791MOL0     H 9109   9.090   1.594   6.771 -0.0144  3.2883  2.0106
  791MOL0     H 9110   9.025   1.821   6.562  0.6964  0.8588 -0.3580
  791MOL0     H 9111   8.907   1.733   6.662 -0.6456  0.9251 -0.1153
  791MOL0     H 9112   8.951   1.950   6.769 -0.2470  0.5262  1.1538
  791MOL0     H 9113   9.014   1.811   6.865  2.3560  2.1133  0.3261
  791MOL0     H 9114   9.245   1.866   6.788 -2.4811 -1.7723  4.0445
  791MOL0     H 9115   9.181   1.973   6.666 -0.8875 -3.2400 -0.8904
  791MOL0     H 9116   9.220   2.289   6.942 -0.6291 -0.5911  0.5304
  791MOL0     H 9117   9.478   2.467   7.000  0.0907  1.7467  0.7824
  791MOL0     H 9118   9.473   2.429   7.172 -1.5429  0.7638  1.7273
  791MOL0     H 9119   9.321   2.448   7.089  1.4034  0.3814 -0.4628
  791MOL0     H 9120   9.951   2.040   7.081 -0.0639 -1.2380  0.2136
  791MOL0     H 9121  10.175   2.122   7.142 -1.6508 -1.5209 -1.7839
  791MOL0     H 9122  10.371   2.215   7.310  1.2990 -1.0300 -3.4905
  791MOL0     H 9123  10.337   2.289   7.160  0.5147 -2.1263  0.6773
  791MOL0     H 9124  10.460   2.433   7.417  1.3472  0.7738  0.3653
  791MOL0     H 9125  10.553   2.362   7.280  0.0949  0.6982 -3.1291
  791MOL0     H 9126  10.347   2.560   7.241 -0.6718 -2.0546 -3.0976
  791MOL0     H 9127  10.462   2.502   7.131 -1.5869  1.1673 -0.5706
  791MOL0     H 9128  10.655   2.598   7.261 -0.4070  0.1698 -1.0458
  791MOL0     H 9129  10.541   2.684   7.380 -0.8418 -1.5388  0.5910
  791MOL0     H 9130  10.552   2.741   7.081  0.0562 -0.8846 -0.3692
  791MOL0     H 9131  10.439   2.805   7.198  0.5159  1.9031 -0.4369
  791MOL0     H 9132  10.742   2.815   7.256  0.0141 -1.3351 -1.1766
  791MOL0     H 9133  10.609   2.932   7.303 -4.2205  0.1811 -1.7173
  791MOL0     H 9134  10.746   3.049   7.138  1.3444  0.7569 -5.8645
  791MOL0     H 9135  10.598   3.004   7.060  0.1589  2.2732  0.6569
  791MOL0     H 9136  10.768   2.956   6.912 -0.6417  2.0287  1.3262
  791MOL0     H 9137  10.728   2.799   6.980 -1.5712  2.3110 -0.5793
  791MOL0     H 9138   9.978   2.406   7.410 -3.8762 -0.4120  0.4613
  791MOL0     H 9139   9.779   2.332   7.349  2.3962  2.5601  2.7017
  791MOL0     H 9140   9.602   1.984   6.982 -1.3413 -1.2690  0.3377
  791MOL0     H 9141   9.408   1.906   6.881  1.6324  1.2152  0.0648
  791MOL0     H 9142   8.250   0.838   6.218 -2.0530  1.4805  0.3258
  791MOL0     H 9143   8.006   0.757   6.245  3.0044 -1.8608  1.4940
  791MOL0     H 9144   7.726   0.475   6.187  0.2120  0.8255  1.4363
  791MOL0     H 9145   7.541   0.355   6.229  0.9637 -0.8672 -1.5734
  791MOL0     H 9146   7.107   0.439   6.156  1.9852  0.5133  0.9555
  791MOL0     H 9147   7.170   0.398   6.005  1.7912  0.6137 -0.1815
  791MOL0     H 9148   7.092   0.204   6.242  0.3682 -1.2073  0.2647
  791MOL0     H 9149   7.166   0.155   6.083  1.7179  2.5758 -1.5593
  791MOL0     H 9150   6.902   0.316   6.092 -1.3629 -0.3421  0.4390
  791MOL0     H 9151   6.988   0.247   5.958 -0.9158  0.8320  0.7424
  791MOL0     H 9152   6.867   0.111   6.207  2.1447 -0.5160  0.0286
  791MOL0     H 9153   6.932   0.019   6.064 -2.7269 -1.2389  0.7335
  791MOL0     H 9154   6.560   0.130   5.920 -1.7368 -0.9368  2.0466
  791MOL0     H 9155   7.293   0.586   5.982 -1.0818 -0.7093  1.3373
  791MOL0     H 9156   7.360   0.792   5.881  0.3157 -1.0545 -0.5354
  791MOL0     H 9157   7.471   0.885   5.982 -1.6611  0.0610  1.8526
  791MOL0     H 9158   7.522   0.802   5.832 -0.1162  2.8388 -0.4227
  792MOL0     O 9159   4.622   8.355   2.217 -0.4617 -0.4236 -0.2413
  792MOL0     C 9160   4.621   8.272   2.309 -0.4994  0.7981  0.1156
  792MOL0     O 9161   4.511   8.206   2.362 -0.2792  0.4595  0.8338
  792MOL0     C 9162   4.399   8.187   2.292 -1.2852 -0.1889  0.7896
  792MOL0     C 9163   4.295   8.157   2.371 -0.0718  0.5136 -0.2746
  792MOL0     C 9164   4.168   8.153   2.321  0.4646  0.0801 -0.7519
  792MOL0     C 9165   4.136   8.155   2.186 -0.1062 -0.6697  0.8807
  792MOL0     O 9166   4.001   8.160   2.157  0.3827 -0.6654  0.6482
  792MOL0     C 9167   3.946   8.138   2.021  0.4079 -0.6519  0.5460
  792MOL0     C 9168   3.802   8.093   2.041  0.6507  0.2585  0.4901
  792MOL0     C 9169   3.705   8.198   2.108 -1.0839  0.2613 -0.1331
  792MOL0     C 9170   3.570   8.145   2.162  0.2277  0.6086  0.7026
  792MOL0     C 9171   3.487   8.085   2.049  0.5548  0.4025 -0.2648
  792MOL0     C 9172   3.362   8.014   2.109 -0.9314 -0.6086 -1.0584
  792MOL0     C 9173   3.300   7.919   2.010  0.0006  1.5591 -0.0889
  792MOL0     C 9174   3.237   7.988   1.895  0.5067 -0.3961 -0.0472
  792MOL0     N 9175   3.319   7.987   1.774 -0.1528 -0.5533 -0.3245
  792MOL0     C 9176   3.356   8.104   1.704 -0.0368  0.2845  0.0673
  792MOL0     C 9177   3.434   8.058   1.604  0.1822 -0.1538  0.0320
  792MOL0     C 9178   3.492   8.154   1.502  0.5001  0.3193  0.0812
  792MOL0     C 9179   3.641   8.184   1.525 -0.7748  0.0889  0.3864
  792MOL0     C 9180   3.729   8.069   1.470  0.5498  0.4163  0.0883
  792MOL0     C 9181   3.849   8.045   1.561  0.4354  0.3805  1.0572
  792MOL0     O 9182   3.940   8.157   1.546  0.0365  0.0073  0.1630
  792MOL0     C 9183   4.067   8.132   1.592  0.6881  0.0118  0.5105
  792MOL0     C 9184   4.165   8.208   1.536 -0.4565 -0.2349 -0.0189
  792MOL0     C 9185   4.300   8.208   1.582  0.4863 -0.2184  0.8333
  792MOL0     C 9186   4.400   8.303   1.515 -0.3002 -1.1447 -0.1194
  792MOL0     C 9187   4.336   8.117   1.687  0.0165 -0.2931  0.6750
  792MOL0     C 9188   4.473   8.087   1.732 -0.1046  0.0052  0.1022
  792MOL0     O 9189   4.577   8.113   1.650 -0.4284 -0.5288 -0.7149
  792MOL0     C 9190   4.700   8.142   1.704  0.4753  0.4167 -0.3709
  792MOL0     C 9191   4.770   8.238   1.628 -0.2752 -1.1429 -0.9175
  792MOL0     C 9192   4.907   8.282   1.659  0.4619 -0.6533  0.0826
  792MOL0     C 9193   4.975   8.223   1.772 -0.3720  0.0023  0.1145
  792MOL0     O 9194   5.109   8.247   1.805  0.8952  0.7095  0.0180
  792MOL0     C 9195   5.141   8.391   1.814  0.1371 -0.1533  0.4247
  792MOL0     C 9196   5.273   8.407   1.887 -0.2880 -0.3058 -0.0288
  792MOL0     C 9197   5.253   8.407   2.043 -0.8633 -0.2201  0.2895
  792MOL0     C 9198   5.372   8.464   2.115  0.4508 -0.2824 -0.7974
  792MOL0     C 9199   5.338   8.504   2.263 -0.6114 -0.6722  0.3625
  792MOL0     C 9200   5.358   8.387   2.362  0.1539 -0.1994 -0.4697
  792MOL0     C 9201   5.333   8.433   2.509 -0.0940  0.3915 -0.5861
  792MOL0     C 9202   5.454   8.506   2.564  0.5763  0.1714 -0.8202
  792MOL0    Cl 9203   5.445   8.528   2.743 -0.0500 -0.1532  0.0456
  792MOL0     C 9204   4.910   8.123   1.839  0.4037  0.6628 -0.4585
  792MOL0     C 9205   4.776   8.085   1.808  0.4896  0.6126  0.2758
  792MOL0     O 9206   4.480   8.050   1.848  0.0886  0.0710 -0.5114
  792MOL0     C 9207   4.234   8.037   1.735  0.2566  0.2680 -0.2490
  792MOL0     C 9208   4.100   8.049   1.692 -0.2414  0.6330  0.4823
  792MOL0     N 9209   3.444   7.917   1.609  0.4211 -0.1088  1.6284
  792MOL0     N 9210   3.379   7.880   1.714  0.1287 -0.2300 -0.6097
  792MOL0     C 9211   4.244   8.183   2.097  0.8908 -0.3146 -0.6032
  792MOL0     C 9212   4.377   8.203   2.150  0.7675 -0.2659  0.0153
  792MOL0     C 9213   4.742   8.285   2.407 -0.4915 -0.6613 -0.0068
  792MOL0     C 9214   4.714   8.283   2.545 -0.2186 -0.0960 -0.8136
  792MOL0     C 9215   4.820   8.316   2.638  0.2222 -0.1914  1.1471
  792MOL0     C 9216   4.944   8.350   2.586 -0.3357  0.5908  0.0029
  792MOL0     O 9217   5.048   8.383   2.677  0.0478  0.0643  0.0671
  792MOL0     C 9218   5.029   8.358   2.819  0.2410 -1.1034  0.2608
  792MOL0     C 9219   5.149   8.405   2.893 -0.5383  0.1898 -0.6543
  792MOL0     C 9220   5.167   8.315   3.017  0.0883  0.9733  0.9853
  792MOL0     C 9221   5.264   8.360   3.126 -0.3264  0.1383 -0.0068
  792MOL0     C 9222   5.404   8.375   3.086  0.4857  0.7106  0.4548
  792MOL0     C 9223   5.521   8.395   3.074  0.1658  0.2549 -0.3685
  792MOL0     C 9224   4.979   8.344   2.458 -0.1152  0.1826 -0.2153
  792MOL0     C 9225   4.881   8.311   2.365  0.3072 -0.1226  0.8052
  792MOL0     C 9226   4.917   8.308   2.220  0.3541  0.7439  0.2061
  792MOL0     H 9227   4.307   8.150   2.479  0.6984 -0.4307 -0.4004
  792MOL0     H 9228   4.088   8.144   2.395  0.4616 -0.0668 -0.7725
  792MOL0     H 9229   3.986   8.051   1.967 -2.1729 -1.2540 -0.5744
  792MOL0     H 9230   3.952   8.226   1.957 -2.3552 -0.4687  0.4063
  792MOL0     H 9231   3.764   8.064   1.943  2.5170 -1.2083  0.1564
  792MOL0     H 9232   3.813   8.000   2.097  1.1149 -0.1337 -0.2447
  792MOL0     H 9233   3.753   8.243   2.196 -0.2860  0.6276 -0.7373
  792MOL0     H 9234   3.688   8.275   2.033 -0.6100  0.3631 -0.1408
  792MOL0     H 9235   3.584   8.078   2.247  0.3532 -1.8396 -1.1546
  792MOL0     H 9236   3.525   8.240   2.194 -2.8654 -0.7183  0.6631
  792MOL0     H 9237   3.556   8.022   1.992  1.0349 -0.4569  1.2043
  792MOL0     H 9238   3.461   8.162   1.977  0.6498  0.0942 -0.6327
  792MOL0     H 9239   3.392   7.951   2.192 -1.2948 -0.2292 -0.6342
  792MOL0     H 9240   3.290   8.085   2.150  0.4681  0.7157 -0.8223
  792MOL0     H 9241   3.224   7.855   2.056  2.3356 -0.2149  1.6124
  792MOL0     H 9242   3.380   7.851   1.977 -0.1201  1.9850 -1.2978
  792MOL0     H 9243   3.143   7.940   1.865 -0.6704  1.7578 -0.0339
  792MOL0     H 9244   3.209   8.092   1.918 -1.5826 -0.7137 -0.9264
  792MOL0     H 9245   3.328   8.209   1.710 -2.8069 -0.2369 -1.6398
  792MOL0     H 9246   3.430   8.244   1.496  2.1476  1.8218  3.0902
  792MOL0     H 9247   3.473   8.109   1.404 -0.8241 -2.5977  1.5412
  792MOL0     H 9248   3.663   8.285   1.488 -3.0728  0.5813  0.2433
  792MOL0     H 9249   3.653   8.196   1.634 -0.4884 -1.2087  0.5057
  792MOL0     H 9250   3.686   7.970   1.457 -0.3638  0.2898  3.1814
  792MOL0     H 9251   3.764   8.102   1.372  2.3793  2.1013  1.2221
  792MOL0     H 9252   3.814   8.029   1.664  0.8213  0.5904  1.2212
  792MOL0     H 9253   3.895   7.954   1.522 -3.3659 -0.2756 -2.7376
  792MOL0     H 9254   4.140   8.276   1.455  0.0791 -0.0842 -0.0675
  792MOL0     H 9255   4.352   8.397   1.489 -0.2141 -1.4264 -1.4062
  792MOL0     H 9256   4.455   8.282   1.422  1.9756  2.0263  0.3339
  792MOL0     H 9257   4.478   8.327   1.588 -1.8086  0.0366  1.1640
  792MOL0     H 9258   4.717   8.278   1.542 -1.8967 -0.6187  0.2692
  792MOL0     H 9259   4.958   8.351   1.592  0.6682 -0.3544  0.5502
  792MOL0     H 9260   5.144   8.422   1.710  3.5102  1.1818  0.7966
  792MOL0     H 9261   5.058   8.449   1.856  0.9046  1.0830  0.2797
  792MOL0     H 9262   5.335   8.327   1.846 -0.1230 -0.5252  0.6421
  792MOL0     H 9263   5.313   8.506   1.864 -0.3300 -0.2350  0.2080
  792MOL0     H 9264   5.231   8.305   2.076 -0.5781 -0.2184  0.4925
  792MOL0     H 9265   5.175   8.482   2.058  0.4136  1.9684 -2.7877
  792MOL0     H 9266   5.398   8.556   2.062 -0.2247  0.3066 -0.1311
  792MOL0     H 9267   5.458   8.397   2.123  0.1624 -0.4486  2.7840
  792MOL0     H 9268   5.395   8.593   2.289  0.7528 -0.7761 -2.0066
  792MOL0     H 9269   5.233   8.534   2.272 -0.1314  0.6669  2.0192
  792MOL0     H 9270   5.460   8.348   2.364  0.8264  1.5206  1.2452
  792MOL0     H 9271   5.286   8.309   2.336  0.2839  0.2629 -2.3481
  792MOL0     H 9272   5.313   8.347   2.573 -2.6954 -0.3210 -2.2164
  792MOL0     H 9273   5.245   8.498   2.512 -0.8564 -0.6599  0.8301
  792MOL0     H 9274   5.463   8.603   2.515  3.6098  0.9919  1.1016
  792MOL0     H 9275   5.541   8.445   2.540  0.3807 -0.2918 -0.3730
  792MOL0     H 9276   4.964   8.077   1.921  0.7149  1.2283 -0.3398
  792MOL0     H 9277   4.733   7.996   1.853 -2.7885  0.2804 -3.0521
  792MOL0     H 9278   4.255   7.952   1.800 -1.5730 -0.9230 -1.1314
  792MOL0     H 9279   4.030   7.982   1.740 -2.1952  1.1690 -1.4861
  792MOL0     H 9280   4.217   8.209   1.995 -0.9398  0.3864  0.0263
  792MOL0     H 9281   4.459   8.213   2.078 -0.3802 -1.2319 -1.4860
  792MOL0     H 9282   4.618   8.260   2.590 -0.3531 -1.1978 -1.6400
  792MOL0     H 9283   4.786   8.316   2.741 -0.4875  2.0354  0.9688
  792MOL0     H 9284   4.949   8.420   2.861  0.1847 -1.9428  1.4754
  792MOL0     H 9285   5.001   8.253   2.835  0.0412 -0.9783  0.7518
  792MOL0     H 9286   5.117   8.496   2.945 -0.7824 -0.2410 -0.0394
  792MOL0     H 9287   5.243   8.416   2.839 -0.9569  2.4616 -1.0081
  792MOL0     H 9288   5.071   8.282   3.056 -0.4135 -1.1571 -1.7029
  792MOL0     H 9289   5.205   8.216   2.988 -2.8359 -0.0362  0.2715
  792MOL0     H 9290   5.260   8.286   3.207 -2.9268  1.3319  1.0893
  792MOL0     H 9291   5.225   8.455   3.162  0.2338 -0.3748  2.1420
  792MOL0     H 9292   5.626   8.417   3.067  0.1703 -0.2309 -3.8289
  792MOL0     H 9293   5.081   8.360   2.426  0.6990  0.3180  2.2465
  792MOL0     H 9294   5.015   8.259   2.219  0.6612  0.9931  3.7126
  792MOL0     H 9295   4.839   8.252   2.168 -1.5311  1.5353  2.0243
  792MOL0     H 9296   4.909   8.411   2.183  1.3008  0.7755  0.0653
  793MOL0     O 9297   9.632   9.392   1.329 -0.7481 -0.5825  0.2045
  793MOL0     C 9298   9.517   9.414   1.329 -0.2581  0.2181 -0.1031
  793MOL0     O 9299   9.430   9.407   1.220 -0.1130 -0.0329 -0.1620
  793MOL0     C 9300   9.471   9.340   1.109 -0.8491  1.0192 -0.1425
  793MOL0     C 9301   9.433   9.204   1.094 -0.0917 -0.7143 -1.2107
  793MOL0     C 9302   9.475   9.123   0.988  0.3286 -0.8577  0.1850
  793MOL0     C 9303   9.542   9.183   0.885 -0.2080  1.1450  0.3850
  793MOL0     O 9304   9.571   9.121   0.768 -0.7388  0.1067  0.1256
  793MOL0     C 9305   9.587   8.984   0.752 -0.5537 -0.1011 -0.5328
  793MOL0     C 9306   9.716   8.936   0.817  0.1614  0.5328  0.8532
  793MOL0     C 9307   9.830   9.032   0.770 -0.0243  0.0162 -0.5048
  793MOL0     C 9308   9.965   8.952   0.795  0.0164 -0.0362  0.5146
  793MOL0     C 9309  10.099   9.036   0.788  0.2300  1.4675  0.4020
  793MOL0     C 9310  10.212   8.969   0.879  0.9544 -0.4600  0.1914
  793MOL0     C 9311  10.344   9.048   0.885 -0.7299 -1.0190 -0.9797
  793MOL0     C 9312  10.421   9.023   0.758  0.2216  0.5852  0.6812
  793MOL0     N 9313  10.541   9.102   0.749 -0.5292  0.5311 -0.2101
  793MOL0     C 9314  10.553   9.234   0.736  0.8760  0.4981  0.4037
  793MOL0     C 9315  10.687   9.246   0.720  0.3493 -0.1993 -0.6586
  793MOL0     C 9316  10.746   9.380   0.690 -0.3112  0.1273  0.5144
  793MOL0     C 9317  10.854   9.434   0.789 -0.4102  0.0288  0.4053
  793MOL0     C 9318  10.975   9.346   0.824 -0.2757  0.1058  0.2583
  793MOL0     C 9319  11.074   9.407   0.916 -0.1219 -0.0918 -0.6434
  793MOL0     O 9320  11.166   9.500   0.851 -1.1572  0.4391  0.5148
  793MOL0     C 9321  11.289   9.454   0.821 -1.1518 -0.4293 -0.4953
  793MOL0     C 9322  11.373   9.380   0.912 -0.1706 -0.4668 -0.4276
  793MOL0     C 9323  11.506   9.347   0.881  0.4790  0.3700  0.2914
  793MOL0     C 9324  11.565   9.249   0.979 -0.0176  0.0116 -0.1314
  793MOL0     C 9325  11.572   9.401   0.774 -0.4850  0.2798  0.4634
  793MOL0     C 9326  11.704   9.370   0.744 -0.1004 -0.3874  0.0230
  793MOL0     O 9327  11.794   9.315   0.836 -0.2016  0.2545 -0.3512
  793MOL0     C 9328  11.927   9.296   0.813 -0.6467 -1.1382 -0.4858
  793MOL0     C 9329  12.008   9.413   0.790  0.3310  0.7210  0.0631
  793MOL0     C 9330  12.146   9.388   0.787 -0.1243 -0.6039 -0.0143
  793MOL0     C 9331  12.209   9.258   0.804 -0.2705  0.1224  0.6713
  793MOL0     O 9332  12.346   9.229   0.810  0.1854  0.5862  0.0117
  793MOL0     C 9333  12.431   9.343   0.796 -0.0949  0.5889  0.1600
  793MOL0     C 9334  12.575   9.302   0.825  0.1176 -0.5680 -0.1654
  793MOL0     C 9335  12.689   9.409   0.825  0.6720 -0.6642 -0.2376
  793MOL0     C 9336  12.817   9.336   0.794 -0.4469  0.4724  0.1317
  793MOL0     C 9337  12.933   9.444   0.776  0.2649  0.2888 -0.0991
  793MOL0     C 9338  13.060   9.361   0.754  0.4861 -0.2493 -0.1187
  793MOL0     C 9339  13.174   9.455   0.722  0.2149 -0.7990  0.1378
  793MOL0     C 9340  13.314   9.386   0.730 -0.0655  0.0675  0.3139
  793MOL0    Cl 9341  13.450   9.498   0.683 -0.2700 -0.2237  0.4636
  793MOL0     C 9342  12.127   9.149   0.811  1.2026 -0.0775 -0.8789
  793MOL0     C 9343  11.987   9.169   0.822  0.2351  0.5521  0.3235
  793MOL0     O 9344  11.736   9.400   0.627  0.0364 -0.4893  0.1140
  793MOL0     C 9345  11.500   9.493   0.699  0.1039  0.7463  0.1297
  793MOL0     C 9346  11.355   9.515   0.712  0.1815 -0.0201 -0.0286
  793MOL0     N 9347  10.756   9.123   0.717 -0.0544  0.0013 -0.6543
  793MOL0     N 9348  10.658   9.037   0.742  0.5687  0.6695 -0.2295
  793MOL0     C 9349   9.577   9.321   0.892 -0.8112  1.2681  0.9200
  793MOL0     C 9350   9.536   9.398   0.998  0.0306 -0.5430 -0.5910
  793MOL0     C 9351   9.453   9.468   1.451  0.1046 -0.0903 -0.3368
  793MOL0     C 9352   9.322   9.426   1.487 -0.8269  0.4092 -0.5937
  793MOL0     C 9353   9.254   9.473   1.594 -0.0310 -0.3189 -0.1609
  793MOL0     C 9354   9.316   9.561   1.676 -0.1012 -0.0570  0.5709
  793MOL0     O 9355   9.258   9.591   1.795 -0.3415 -0.6614 -0.1753
  793MOL0     C 9356   9.220   9.724   1.810  0.3551  0.2423  0.8233
  793MOL0     C 9357   9.084   9.731   1.872 -0.0821 -0.7016 -0.3296
  793MOL0     C 9358   8.969   9.750   1.765 -0.2835  0.3144 -0.7852
  793MOL0     C 9359   8.911   9.615   1.716 -0.2385  0.7183 -0.2004
  793MOL0     C 9360   8.781   9.642   1.649  0.4902  0.1164  0.6424
  793MOL0     C 9361   8.679   9.648   1.582 -0.1983 -0.0086  1.1809
  793MOL0     C 9362   9.444   9.615   1.650  0.1941 -0.5790  0.3350
  793MOL0     C 9363   9.507   9.571   1.537  0.8567 -0.0079  1.1014
  793MOL0     C 9364   9.645   9.622   1.523 -0.5160  0.1451 -0.2989
  793MOL0     H 9365   9.377   9.163   1.177 -1.3085  1.6892 -0.7391
  793MOL0     H 9366   9.457   9.016   0.990 -1.9800 -0.5118  0.4052
  793MOL0     H 9367   9.596   8.961   0.646 -0.3918  0.8956 -0.7421
  793MOL0     H 9368   9.500   8.941   0.803 -1.9618  0.9149 -1.9962
  793MOL0     H 9369   9.715   8.937   0.927  1.7491  0.6671  0.9023
  793MOL0     H 9370   9.728   8.831   0.789  1.1267  0.7265  0.5063
  793MOL0     H 9371   9.813   9.063   0.667  1.9112 -0.4299 -0.9963
  793MOL0     H 9372   9.821   9.121   0.834 -0.1912  0.1239 -0.6796
  793MOL0     H 9373   9.954   8.920   0.899 -3.6701 -0.3296  0.1427
  793MOL0     H 9374   9.972   8.862   0.733 -1.2816 -0.7386  1.3508
  793MOL0     H 9375  10.102   9.139   0.823  3.1284  0.9228  2.0401
  793MOL0     H 9376  10.132   9.026   0.684 -1.8480  3.5088 -0.5208
  793MOL0     H 9377  10.196   8.971   0.987  1.7337  0.4296  0.3038
  793MOL0     H 9378  10.228   8.868   0.841 -2.0805 -0.7529 -0.5726
  793MOL0     H 9379  10.400   9.015   0.973  0.6303  0.4278 -1.2599
  793MOL0     H 9380  10.327   9.154   0.902 -1.9010 -1.3363  0.0192
  793MOL0     H 9381  10.445   8.917   0.768  1.2905  0.6491 -0.9113
  793MOL0     H 9382  10.361   9.039   0.668  0.0405  0.8346  0.8443
  793MOL0     H 9383  10.475   9.310   0.736 -0.5114 -0.8728  0.5277
  793MOL0     H 9384  10.664   9.453   0.680  1.3250  1.7443 -2.6205
  793MOL0     H 9385  10.781   9.379   0.586 -3.7551 -1.7533 -0.8010
  793MOL0     H 9386  10.898   9.527   0.753  1.1728 -0.3139  1.3709
  793MOL0     H 9387  10.808   9.467   0.882  1.2566  2.1362  0.5637
  793MOL0     H 9388  10.935   9.259   0.878 -0.5112  0.4260  0.5992
  793MOL0     H 9389  11.009   9.312   0.725 -2.9095  1.3833 -1.2089
  793MOL0     H 9390  11.033   9.455   1.006 -0.0827 -1.3527  0.0598
  793MOL0     H 9391  11.119   9.315   0.954 -2.4340 -1.3211 -0.7115
  793MOL0     H 9392  11.331   9.349   1.007 -0.4534 -1.6542 -0.9211
  793MOL0     H 9393  11.614   9.165   0.929  1.8390 -0.1880  1.8458
  793MOL0     H 9394  11.490   9.200   1.041  1.7028 -2.0735  0.4295
  793MOL0     H 9395  11.641   9.289   1.047  0.3931  1.6793 -1.4988
  793MOL0     H 9396  11.973   9.516   0.791  0.3893  0.7438 -0.1944
  793MOL0     H 9397  12.207   9.478   0.790 -0.9147 -0.0257 -0.5957
  793MOL0     H 9398  12.424   9.393   0.698 -2.0839 -1.5623 -0.9073
  793MOL0     H 9399  12.400   9.410   0.876  0.8743 -0.9541  1.8863
  793MOL0     H 9400  12.567   9.255   0.924 -2.1838 -0.4080 -0.2008
  793MOL0     H 9401  12.591   9.229   0.745 -2.8184 -1.7152  0.1683
  793MOL0     H 9402  12.688   9.456   0.923  0.1319 -0.5464 -0.2986
  793MOL0     H 9403  12.668   9.483   0.747  1.2494 -0.3930 -0.1475
  793MOL0     H 9404  12.803   9.280   0.702 -1.3955  0.0252  0.5401
  793MOL0     H 9405  12.841   9.265   0.874 -0.0839 -1.9105 -1.9710
  793MOL0     H 9406  12.909   9.504   0.687 -2.2691  0.3959  0.5602
  793MOL0     H 9407  12.946   9.511   0.861 -2.5909  2.1273 -0.9615
  793MOL0     H 9408  13.043   9.286   0.676 -2.0571 -1.9092  1.9005
  793MOL0     H 9409  13.077   9.294   0.839  1.0349 -2.1262 -1.6137
  793MOL0     H 9410  13.177   9.533   0.798 -1.3558 -0.6511  0.0810
  793MOL0     H 9411  13.158   9.501   0.624  0.1190 -4.0323 -1.5003
  793MOL0     H 9412  13.313   9.299   0.663 -0.7810 -0.9232  1.5672
  793MOL0     H 9413  13.326   9.346   0.831  0.8274 -1.2011 -0.2685
  793MOL0     H 9414  12.169   9.048   0.807 -0.4026 -0.8893  1.2499
  793MOL0     H 9415  11.916   9.087   0.829 -1.5920  1.7632 -2.2177
  793MOL0     H 9416  11.534   9.534   0.605 -2.0348 -0.8580 -1.4372
  793MOL0     H 9417  11.297   9.581   0.647 -0.2747 -2.1545 -1.9031
  793MOL0     H 9418   9.633   9.374   0.816 -1.7964  0.1355 -0.6553
  793MOL0     H 9419   9.578   9.498   1.006 -0.0285 -0.3770 -2.1284
  793MOL0     H 9420   9.275   9.355   1.419 -0.6425 -0.6561  0.3583
  793MOL0     H 9421   9.159   9.432   1.630  0.4815 -1.6471 -0.2488
  793MOL0     H 9422   9.283   9.770   1.885 -0.9744 -1.3398  3.0220
  793MOL0     H 9423   9.227   9.781   1.717 -2.8067 -1.0700 -0.3630
  793MOL0     H 9424   9.089   9.823   1.930  1.4442 -1.6811  1.1773
  793MOL0     H 9425   9.075   9.648   1.942 -1.3112  0.7622  1.3322
  793MOL0     H 9426   8.884   9.800   1.813  1.2724  2.1839  0.1150
  793MOL0     H 9427   9.002   9.801   1.674  0.6387 -1.3211 -1.3989
  793MOL0     H 9428   8.894   9.548   1.801 -1.3326  1.1721 -0.0458
  793MOL0     H 9429   8.977   9.560   1.649  1.2454  0.1316  1.6421
  793MOL0     H 9430   8.599   9.660   1.511  1.4603 -1.2493 -1.0405
  793MOL0     H 9431   9.488   9.683   1.722 -2.4878  3.1037 -1.1960
  793MOL0     H 9432   9.651   9.673   1.426  4.2161  2.0017  0.6669
  793MOL0     H 9433   9.666   9.696   1.601  0.4060 -0.3074 -0.0957
  793MOL0     H 9434   9.718   9.540   1.532  1.2377  1.7421  0.7456
  794MOL0     O 9435   3.925   1.878   8.825 -0.4296  0.0289 -0.8227
  794MOL0     C 9436   3.826   1.893   8.744 -0.6538  0.3484 -0.2275
  794MOL0     O 9437   3.838   1.870   8.614 -0.2512  0.8975  0.2798
  794MOL0     C 9438   3.946   1.908   8.542  0.1874 -1.1570 -0.6642
  794MOL0     C 9439   4.028   2.024   8.562 -0.6994 -1.2115 -0.6203
  794MOL0     C 9440   4.138   2.056   8.491  0.4641 -0.3148  0.5694
  794MOL0     C 9441   4.176   1.971   8.391  0.3317  0.4371 -0.3966
  794MOL0     O 9442   4.292   1.998   8.322 -0.0406 -0.0785  0.1853
  794MOL0     C 9443   4.328   1.937   8.201  0.2905 -0.0863  0.2435
  794MOL0     C 9444   4.468   1.989   8.182 -0.4909 -0.3133 -1.0088
  794MOL0     C 9445   4.533   1.941   8.056 -0.7060  0.2719 -0.5871
  794MOL0     C 9446   4.679   1.987   8.045 -0.4422 -1.1635 -0.5651
  794MOL0     C 9447   4.737   1.952   7.915  0.2502 -0.2042  0.6362
  794MOL0     C 9448   4.882   1.996   7.887  0.8564 -0.5671 -0.2640
  794MOL0     C 9449   4.959   1.916   7.781  0.8376  0.1356 -0.2105
  794MOL0     C 9450   5.102   1.975   7.743  0.4536  0.2945  0.5206
  794MOL0     N 9451   5.165   1.913   7.626  0.3245  0.0561  0.1961
  794MOL0     C 9452   5.297   1.905   7.602 -0.1567  0.7161 -0.5284
  794MOL0     C 9453   5.308   1.891   7.467  0.6402  0.0043  0.3100
  794MOL0     C 9454   5.433   1.907   7.377  1.0399  0.3885  0.2153
  794MOL0     C 9455   5.540   1.792   7.412  0.3845  0.7874  0.3069
  794MOL0     C 9456   5.642   1.775   7.301  0.0457  0.2159 -0.5315
  794MOL0     C 9457   5.721   1.904   7.267 -0.9858  0.9936 -0.2039
  794MOL0     O 9458   5.845   1.899   7.339 -0.0154 -0.5830  0.0652
  794MOL0     C 9459   5.920   2.012   7.360 -1.1969 -0.2036  0.0391
  794MOL0     C 9460   6.017   2.000   7.456  0.6575  0.5333  0.7326
  794MOL0     C 9461   6.115   2.103   7.491 -0.3497  0.2476  0.0447
  794MOL0     C 9462   6.222   2.052   7.586  0.4572 -0.9897  0.8805
  794MOL0     C 9463   6.115   2.217   7.406  0.1997 -0.0938 -0.6812
  794MOL0     C 9464   6.211   2.337   7.425 -0.2508  0.6133 -0.0957
  794MOL0     O 9465   6.209   2.444   7.338  0.4125  0.3129  0.3660
  794MOL0     C 9466   6.308   2.543   7.346  0.1621  0.0564 -0.1780
  794MOL0     C 9467   6.295   2.662   7.408 -0.0092 -0.2319  0.2700
  794MOL0     C 9468   6.391   2.763   7.392  0.3083  0.1768  0.1276
  794MOL0     C 9469   6.504   2.749   7.308  0.1153  0.2089 -0.1715
  794MOL0     O 9470   6.591   2.854   7.303 -0.0388 -0.0661 -0.2101
  794MOL0     C 9471   6.712   2.830   7.225  0.3014 -0.4399 -0.3055
  794MOL0     C 9472   6.811   2.948   7.249  0.6867 -0.2611 -0.0467
  794MOL0     C 9473   6.923   2.942   7.151  0.1313 -0.6658  0.3945
  794MOL0     C 9474   7.034   3.037   7.167  0.5517 -0.3038  1.4731
  794MOL0     C 9475   7.140   3.017   7.056 -0.6744  0.5327 -0.1039
  794MOL0     C 9476   7.254   3.116   7.060  0.6658 -0.3136 -1.0454
  794MOL0     C 9477   7.358   3.084   6.957 -0.3786  0.0546  0.6273
  794MOL0     C 9478   7.480   3.179   6.952  0.1998  0.3132 -0.5681
  794MOL0    Cl 9479   7.408   3.334   6.894  0.3171 -0.3800 -0.1977
  794MOL0     C 9480   6.501   2.634   7.232  0.2892 -0.1481 -1.1582
  794MOL0     C 9481   6.409   2.529   7.250  0.2358  0.1278  0.3878
  794MOL0     O 9482   6.293   2.328   7.515  0.2164 -0.3701 -0.3093
  794MOL0     C 9483   6.009   2.233   7.309 -0.0201 -0.6234 -0.1665
  794MOL0     C 9484   5.912   2.131   7.292 -0.3650  0.2207  0.5146
  794MOL0     N 9485   5.181   1.894   7.416  0.0844 -0.1831  0.4420
  794MOL0     N 9486   5.096   1.903   7.509  0.2353  0.0579 -0.0982
  794MOL0     C 9487   4.097   1.854   8.361 -0.2012 -0.4312 -0.6052
  794MOL0     C 9488   3.983   1.826   8.438  0.2757 -0.5406  0.4368
  794MOL0     C 9489   3.689   1.942   8.781 -0.2650 -0.4720  0.9411
  794MOL0     C 9490   3.592   1.936   8.679  0.1109  0.3407 -0.1163
  794MOL0     C 9491   3.452   1.969   8.706 -0.2897  0.1951  0.0166
  794MOL0     C 9492   3.419   2.002   8.840 -0.7043  0.0664 -0.4626
  794MOL0     O 9493   3.299   2.055   8.875 -0.3066  0.3041 -0.7679
  794MOL0     C 9494   3.186   1.964   8.867 -1.3634  0.0968  0.2615
  794MOL0     C 9495   3.138   1.920   9.008 -0.0893  0.4130  0.4086
  794MOL0     C 9496   3.111   2.033   9.111 -0.0556  0.8907 -0.3214
  794MOL0     C 9497   2.991   2.122   9.064  0.3701 -0.8019  0.0003
  794MOL0     C 9498   2.951   2.224   9.164  0.2464  0.5890  0.2831
  794MOL0     C 9499   2.910   2.290   9.253  0.1259  0.4138  0.1393
  794MOL0     C 9500   3.509   1.989   8.942 -0.4361 -0.2759  0.1422
  794MOL0     C 9501   3.646   1.969   8.919  0.0282  0.7730 -0.3533
  794MOL0     C 9502   3.741   1.970   9.039  0.7136 -0.1654  1.1186
  794MOL0     H 9503   4.004   2.077   8.654 -1.7939 -0.8877 -1.0693
  794MOL0     H 9504   4.201   2.144   8.507 -0.1745  0.4293 -0.8319
  794MOL0     H 9505   4.260   1.986   8.130  2.5624  2.1577 -0.5637
  794MOL0     H 9506   4.326   1.829   8.189 -0.9797  0.0381 -0.9765
  794MOL0     H 9507   4.463   2.098   8.187 -0.2663 -0.3511  2.4368
  794MOL0     H 9508   4.534   1.957   8.263  0.5773  2.1117 -0.8278
  794MOL0     H 9509   4.518   1.834   8.039  1.3629  0.2059 -2.4919
  794MOL0     H 9510   4.487   1.993   7.972  1.3305  2.4487 -0.4731
  794MOL0     H 9511   4.680   2.096   8.059  2.4133 -0.6054 -3.8399
  794MOL0     H 9512   4.744   1.938   8.119 -1.2621  2.6788  3.0772
  794MOL0     H 9513   4.677   1.994   7.834  0.1191  1.4906  1.5664
  794MOL0     H 9514   4.726   1.843   7.915 -1.3351 -0.1029  2.9107
  794MOL0     H 9515   4.887   2.102   7.862  0.2725  0.1700  2.4894
  794MOL0     H 9516   4.944   1.971   7.974 -1.8156 -1.0099  1.6194
  794MOL0     H 9517   4.908   1.903   7.685  0.8946 -1.8705 -0.0199
  794MOL0     H 9518   4.958   1.812   7.815 -3.2267  0.1990  0.3966
  794MOL0     H 9519   5.090   2.082   7.724  2.8090  0.4045 -0.7190
  794MOL0     H 9520   5.170   1.965   7.828 -1.3236  0.8797  2.0829
  794MOL0     H 9521   5.383   1.908   7.668 -1.0431  1.2212  0.6389
  794MOL0     H 9522   5.487   2.000   7.393  3.6156 -1.1331  0.9246
  794MOL0     H 9523   5.417   1.915   7.269 -1.1590  2.6151  0.5947
  794MOL0     H 9524   5.589   1.812   7.508  2.3346 -3.2388  0.3706
  794MOL0     H 9525   5.491   1.695   7.421  0.5137  0.7942  1.2061
  794MOL0     H 9526   5.725   1.709   7.326  1.2137  0.4704 -3.3882
  794MOL0     H 9527   5.596   1.739   7.209 -0.9634  0.8453 -0.2929
  794MOL0     H 9528   5.746   1.916   7.162  0.7601  2.3528  0.3175
  794MOL0     H 9529   5.669   1.991   7.307 -1.6480 -0.4286  2.2271
  794MOL0     H 9530   6.020   1.905   7.508 -1.7652  0.3435  0.6224
  794MOL0     H 9531   6.207   1.951   7.624  1.4445 -1.0844  1.0336
  794MOL0     H 9532   6.225   2.125   7.668  1.8959 -0.6935  0.5755
  794MOL0     H 9533   6.316   2.053   7.532  0.5795 -0.6095  1.0901
  794MOL0     H 9534   6.195   2.675   7.449  1.0412  2.8521  2.2239
  794MOL0     H 9535   6.377   2.847   7.459  0.5626 -0.0635  0.4863
  794MOL0     H 9536   6.760   2.740   7.265 -0.1488  0.5037  2.6013
  794MOL0     H 9537   6.683   2.802   7.124 -1.0791  0.7018 -0.2490
  794MOL0     H 9538   6.763   3.045   7.244 -3.5836 -2.1606 -0.0878
  794MOL0     H 9539   6.849   2.928   7.350  1.0412 -0.3779 -0.1987
  794MOL0     H 9540   6.889   2.954   7.048  1.1027  1.5531  0.2645
  794MOL0     H 9541   6.971   2.844   7.151  0.7702 -0.3784  1.5653
  794MOL0     H 9542   7.065   3.009   7.268  0.1660  0.5200  1.8229
  794MOL0     H 9543   6.992   3.136   7.152  0.1864 -0.8872 -2.3987
  794MOL0     H 9544   7.175   2.915   7.077  2.0365  1.6997  1.7450
  794MOL0     H 9545   7.100   3.013   6.955 -0.0139  0.7352 -0.3841
  794MOL0     H 9546   7.293   3.112   7.162 -2.7296 -0.8483  0.3661
  794MOL0     H 9547   7.207   3.214   7.048 -2.1384 -0.7716  3.4682
  794MOL0     H 9548   7.309   3.073   6.860 -0.9372  0.2617  0.8750
  794MOL0     H 9549   7.406   2.993   6.992  0.6435  1.8250  4.3320
  794MOL0     H 9550   7.570   3.156   6.894  0.8895  3.6013 -0.9900
  794MOL0     H 9551   7.506   3.191   7.057  0.1772  0.1870 -0.5487
  794MOL0     H 9552   6.576   2.610   7.157 -2.2736 -3.3729 -2.9499
  794MOL0     H 9553   6.414   2.430   7.207  1.1416 -0.4216  1.7043
  794MOL0     H 9554   6.006   2.320   7.244 -1.3207  0.7471  1.6209
  794MOL0     H 9555   5.831   2.140   7.220 -0.1941  0.0081  0.2931
  794MOL0     H 9556   4.116   1.796   8.272 -0.1072  2.5323 -2.6468
  794MOL0     H 9557   3.932   1.732   8.419  1.9470 -1.4361  0.1789
  794MOL0     H 9558   3.614   1.892   8.582 -0.3167 -1.3228  0.5098
  794MOL0     H 9559   3.383   1.959   8.623 -2.1081 -0.4849  1.5339
  794MOL0     H 9560   3.106   2.020   8.820  0.0582  0.3630 -1.9969
  794MOL0     H 9561   3.204   1.874   8.807 -0.8840  0.6643 -0.4515
  794MOL0     H 9562   3.208   1.844   9.044 -0.7352 -1.0555 -1.3034
  794MOL0     H 9563   3.041   1.868   8.998  0.0087 -0.8678  4.2168
  794MOL0     H 9564   3.087   1.999   9.212 -2.7061  1.1552 -0.8055
  794MOL0     H 9565   3.203   2.093   9.120 -0.1047  1.2312 -1.8057
  794MOL0     H 9566   2.911   2.057   9.027 -0.3036 -0.2707  0.5055
  794MOL0     H 9567   3.034   2.185   8.986 -1.9648  1.2508  0.2756
  794MOL0     H 9568   2.875   2.364   9.323 -1.6973 -0.6622  0.4422
  794MOL0     H 9569   3.478   1.994   9.046  4.1656  0.1861  1.7006
  794MOL0     H 9570   3.679   1.948   9.126 -1.5437 -1.7332 -0.7611
  794MOL0     H 9571   3.815   1.889   9.029 -1.7284 -2.3911 -0.0006
  794MOL0     H 9572   3.796   2.065   9.043 -0.0239  0.2832  0.7979
  795MOL0     O 9573   3.353   2.228  10.649  0.2137  0.3522 -0.1187
  795MOL0     C 9574   3.421   2.329  10.679  0.2491 -0.5032 -0.1234
  795MOL0     O 9575   3.554   2.334  10.700 -0.1702 -0.1746 -0.2665
  795MOL0     C 9576   3.613   2.213  10.732 -0.5296 -0.1416 -0.1908
  795MOL0     C 9577   3.574   2.139  10.841  0.8424  0.1493 -0.7326
  795MOL0     C 9578   3.649   2.030  10.874  0.0245  0.6991  0.7765
  795MOL0     C 9579   3.746   1.978  10.788 -0.0633  0.5045  0.1576
  795MOL0     O 9580   3.805   1.858  10.823  0.2126  0.6515 -0.1942
  795MOL0     C 9581   3.916   1.870  10.911 -0.8002  0.5869 -0.4039
  795MOL0     C 9582   4.016   1.756  10.890  0.4245 -0.7350 -0.8070
  795MOL0     C 9583   4.140   1.767  10.977  0.2503  0.0139 -0.6208
  795MOL0     C 9584   4.223   1.638  10.991  0.6548  0.0216 -0.7724
  795MOL0     C 9585   4.347   1.650  11.079 -0.1876  0.2904  0.0657
  795MOL0     C 9586   4.465   1.739  11.029  0.1087  0.2739 -0.4290
  795MOL0     C 9587   4.573   1.743  11.136  0.6592 -0.4898 -0.1308
  795MOL0     C 9588   4.664   1.620  11.126 -0.2941 -0.0642 -0.6021
  795MOL0     N 9589   4.780   1.639  11.216  0.1484 -0.5906 -0.5230
  795MOL0     C 9590   4.791   1.728  11.319 -0.3613 -0.0186 -0.4786
  795MOL0     C 9591   4.919   1.720  11.359  0.3100 -0.2775 -0.3098
  795MOL0     C 9592   4.957   1.800  11.486 -0.1741 -0.6377  0.2620
  795MOL0     C 9593   4.997   1.940  11.449 -0.4933 -1.0489  0.1177
  795MOL0     C 9594   5.020   2.030  11.568  0.5270 -0.1154 -0.5255
  795MOL0     C 9595   5.136   1.997  11.663 -0.0230  0.4773 -0.1724
  795MOL0     O 9596   5.251   1.981  11.578 -0.1769  0.2098 -0.2756
  795MOL0     C 9597   5.369   1.979  11.649 -0.0833  0.9068 -0.8485
  795MOL0     C 9598   5.465   2.082  11.632  0.3721  0.1993  0.4399
  795MOL0     C 9599   5.588   2.075  11.680  0.2697 -0.7584  0.3625
  795MOL0     C 9600   5.686   2.175  11.623  0.2680  0.1897 -0.8527
  795MOL0     C 9601   5.620   1.988  11.782 -0.2111  0.4261 -0.1438
  795MOL0     C 9602   5.754   1.983  11.852 -0.0375  0.2076 -0.9494
  795MOL0     O 9603   5.861   2.025  11.789  0.1010 -0.7700  0.2790
  795MOL0     C 9604   5.981   2.000  11.850  0.0022 -0.1245 -0.2269
  795MOL0     C 9605   6.061   1.890  11.814 -0.4205  0.1388 -0.2882
  795MOL0     C 9606   6.184   1.874  11.870  0.3112 -0.4464 -0.2545
  795MOL0     C 9607   6.238   1.960  11.965  0.1157  0.8339  0.0623
  795MOL0     O 9608   6.352   1.932  12.025 -0.4636 -0.1101  0.7082
  795MOL0     C 9609   6.401   2.007  12.133  0.6590 -0.2413  0.2068
  795MOL0     C 9610   6.530   1.947  12.178 -0.1021 -0.4735  0.3002
  795MOL0     C 9611   6.582   2.019  12.304 -0.5351 -0.7675  0.0860
  795MOL0     C 9612   6.722   1.957  12.332 -0.1723  0.3347 -0.3058
  795MOL0     C 9613   6.801   2.040  12.435  0.8688 -0.4307  0.9518
  795MOL0     C 9614   6.949   2.018  12.429 -0.3179  0.0003 -0.4097
  795MOL0     C 9615   7.000   1.880  12.484  0.4337 -1.2606 -0.3325
  795MOL0     C 9616   7.137   1.837  12.443 -0.5714 -0.0476  0.1501
  795MOL0    Cl 9617   7.256   1.961  12.495 -0.4395 -0.3823  0.5129
  795MOL0     C 9618   6.151   2.059  12.001 -1.1393 -0.1856 -0.2447
  795MOL0     C 9619   6.025   2.087  11.945  0.5285 -0.4705  1.1158
  795MOL0     O 9620   5.745   1.936  11.972 -0.3107  0.7318  0.4268
  795MOL0     C 9621   5.524   1.892  11.808 -0.6572 -0.6046 -1.3758
  795MOL0     C 9622   5.401   1.884  11.746  0.4171 -0.0826 -0.3267
  795MOL0     N 9623   4.981   1.629  11.278 -0.0554 -0.4095 -0.5064
  795MOL0     N 9624   4.897   1.582  11.191  0.9088 -0.6479 -0.0354
  795MOL0     C 9625   3.777   2.047  10.669 -0.1888  0.6919 -0.0065
  795MOL0     C 9626   3.716   2.167  10.648 -0.9348 -0.2394  0.5055
  795MOL0     C 9627   3.360   2.458  10.702  0.0390  0.1472  0.1233
  795MOL0     C 9628   3.430   2.582  10.673  0.2526  0.2135 -0.2814
  795MOL0     C 9629   3.371   2.702  10.700  0.2882 -1.2930 -0.1352
  795MOL0     C 9630   3.235   2.710  10.734  0.0368 -0.6825  0.7041
  795MOL0     O 9631   3.163   2.821  10.758 -0.2369 -0.0646  0.7050
  795MOL0     C 9632   3.224   2.947  10.722 -0.5778  0.8973 -0.0864
  795MOL0     C 9633   3.116   3.046  10.680  0.2124  0.3595 -0.6261
  795MOL0     C 9634   3.031   3.065  10.809  0.9915  0.8652 -0.5389
  795MOL0     C 9635   2.960   3.202  10.822 -0.9848 -0.1145  0.1292
  795MOL0     C 9636   2.830   3.208  10.877  0.6779 -0.0944 -0.2584
  795MOL0     C 9637   2.719   3.225  10.924  1.0981  0.4441  0.2025
  795MOL0     C 9638   3.171   2.593  10.748  0.1815 -0.0820 -0.1095
  795MOL0     C 9639   3.224   2.466  10.734  0.2350  0.8772  0.1272
  795MOL0     C 9640   3.132   2.351  10.776 -0.3401  0.6630  1.2882
  795MOL0     H 9641   3.499   2.169  10.913  2.5465 -0.5561  1.4522
  795MOL0     H 9642   3.629   1.973  10.964 -0.5499  1.4486  1.1313
  795MOL0     H 9643   3.886   1.864  11.016  0.8370  1.2909  0.1498
  795MOL0     H 9644   3.970   1.965  10.904  4.0557 -1.7510  0.6234
  795MOL0     H 9645   3.957   1.670  10.920 -2.2195  2.1436  3.1227
  795MOL0     H 9646   4.048   1.750  10.785  1.5751  4.4610 -1.0751
  795MOL0     H 9647   4.200   1.842  10.924 -0.5306  0.4826 -0.8456
  795MOL0     H 9648   4.113   1.804  11.077 -1.3757  0.6157 -1.2574
  795MOL0     H 9649   4.151   1.571  11.039  1.9670 -0.7006  0.2253
  795MOL0     H 9650   4.238   1.615  10.885 -4.0466 -1.7729 -1.3183
  795MOL0     H 9651   4.396   1.553  11.086 -1.1199 -0.1456  0.5832
  795MOL0     H 9652   4.305   1.680  11.175  0.0731 -0.1799  0.3325
  795MOL0     H 9653   4.516   1.695  10.942  4.5759  0.4255  1.8356
  795MOL0     H 9654   4.430   1.840  11.004  1.5239  0.6044 -1.1697
  795MOL0     H 9655   4.529   1.751  11.236  0.8539  1.2889 -0.1408
  795MOL0     H 9656   4.632   1.833  11.116 -2.5224  1.7685 -0.1390
  795MOL0     H 9657   4.612   1.527  11.150  1.4184 -0.0465  4.4441
  795MOL0     H 9658   4.707   1.607  11.026 -0.5915 -0.4316 -0.6813
  795MOL0     H 9659   4.716   1.788  11.369  0.8688  0.8463  0.4128
  795MOL0     H 9660   5.045   1.750  11.530  1.9932  1.4760 -1.3917
  795MOL0     H 9661   4.880   1.808  11.563 -2.1815 -1.4288 -1.5633
  795MOL0     H 9662   5.081   1.950  11.380  0.5390 -2.4104  1.1242
  795MOL0     H 9663   4.916   1.986  11.392  0.1814 -1.1546 -0.9595
  795MOL0     H 9664   5.038   2.130  11.527  1.8695 -0.9768 -2.1633
  795MOL0     H 9665   4.931   2.030  11.632  1.6556  0.1881  1.1191
  795MOL0     H 9666   5.146   2.081  11.733  1.8241 -0.7611  1.1616
  795MOL0     H 9667   5.127   1.907  11.725 -3.4495 -0.6175 -2.0147
  795MOL0     H 9668   5.446   2.161  11.559 -0.9708  0.1134  0.6633
  795MOL0     H 9669   5.633   2.243  11.555  1.5996 -0.1723 -2.3311
  795MOL0     H 9670   5.770   2.130  11.570  2.2237  1.0807  1.3175
  795MOL0     H 9671   5.731   2.234  11.703 -3.0241  1.4653  0.2098
  795MOL0     H 9672   6.024   1.825  11.735 -2.7260  1.3793 -0.2960
  795MOL0     H 9673   6.252   1.796  11.837  1.7113  0.3388  0.7175
  795MOL0     H 9674   6.415   2.113  12.106  1.5562 -0.0556  1.3010
  795MOL0     H 9675   6.324   1.990  12.209 -0.0763 -0.6758 -0.6142
  795MOL0     H 9676   6.515   1.841  12.201 -0.1722 -0.6259 -0.4303
  795MOL0     H 9677   6.608   1.952  12.101 -0.3684  0.5087  0.0844
  795MOL0     H 9678   6.519   1.992  12.389 -0.8235 -0.0124  0.1169
  795MOL0     H 9679   6.568   2.127  12.298 -4.2815 -1.1849 -0.7253
  795MOL0     H 9680   6.771   1.951  12.234 -1.5665 -0.9366 -0.9685
  795MOL0     H 9681   6.700   1.853  12.359  0.1973  0.9190  2.5119
  795MOL0     H 9682   6.782   2.145  12.410  0.0685 -0.7984 -0.0434
  795MOL0     H 9683   6.766   2.030  12.538  0.6570  0.7315  1.0076
  795MOL0     H 9684   6.997   2.101  12.482 -1.6078  1.0587 -0.8390
  795MOL0     H 9685   6.981   2.039  12.327 -1.1708  2.2137 -0.2803
  795MOL0     H 9686   6.929   1.804  12.451 -0.9372  0.0325 -0.4328
  795MOL0     H 9687   6.988   1.878  12.593  1.9610  0.0878 -0.1028
  795MOL0     H 9688   7.150   1.836  12.334  2.6558  2.0819  0.3800
  795MOL0     H 9689   7.160   1.738  12.484  3.9222  0.5816 -0.3252
  795MOL0     H 9690   6.182   2.124  12.082 -3.9581  0.9666  0.0189
  795MOL0     H 9691   5.969   2.171  11.986  0.5606 -1.3817  3.1526
  795MOL0     H 9692   5.537   1.806  11.873  0.9596  1.0767  0.6587
  795MOL0     H 9693   5.328   1.805  11.762 -0.6136  0.4712 -1.9873
  795MOL0     H 9694   3.848   2.004  10.598 -2.2561  0.7198 -2.2439
  795MOL0     H 9695   3.762   2.223  10.568  1.6099 -1.7334  0.8017
  795MOL0     H 9696   3.528   2.573  10.627  1.2126 -0.8179  1.8674
  795MOL0     H 9697   3.434   2.787  10.675  0.2686 -2.0917 -3.2972
  795MOL0     H 9698   3.290   2.982  10.802  2.1802 -1.2944 -1.2393
  795MOL0     H 9699   3.291   2.940  10.636  0.5674 -1.6850  0.9195
  795MOL0     H 9700   3.054   3.011  10.597 -1.4816  0.2973  0.5981
  795MOL0     H 9701   3.163   3.142  10.657 -0.6113  0.3567 -2.4898
  795MOL0     H 9702   2.959   2.983  10.814  0.6552  0.7710 -4.2799
  795MOL0     H 9703   3.097   3.060  10.897  0.9227  1.6749 -0.4388
  795MOL0     H 9704   2.941   3.236  10.720  1.2369  0.6259 -0.0885
  795MOL0     H 9705   3.030   3.271  10.870 -2.9014  0.8380  1.7096
  795MOL0     H 9706   2.620   3.235  10.962 -0.1963 -0.4802 -2.6377
  795MOL0     H 9707   3.066   2.606  10.771  0.8624  2.5127  2.0414
  795MOL0     H 9708   3.081   2.304  10.691  1.9020 -0.1812  0.3445
  795MOL0     H 9709   3.189   2.276  10.830  0.5228  0.9971  0.8625
  795MOL0     H 9710   3.056   2.392  10.844  0.0774 -0.2249  2.3104
  796MOL0     O 9711   0.413  10.380   6.795 -0.0249  0.2304  0.3709
  796MOL0     C 9712   0.416  10.379   6.918 -0.7082  0.4429  0.2275
  796MOL0     O 9713   0.529  10.380   6.998 -0.3097 -0.5375  0.4181
  796MOL0     C 9714   0.654  10.414   6.957  0.7792 -0.2368  0.2077
  796MOL0     C 9715   0.699  10.454   6.822 -0.1602  0.9059 -0.3489
  796MOL0     C 9716   0.838  10.486   6.795  0.1500  0.8158  0.7045
  796MOL0     C 9717   0.931  10.460   6.898  0.0945 -0.1221  0.5649
  796MOL0     O 9718   1.063  10.491   6.870  0.5870 -0.0332 -0.7772
  796MOL0     C 9719   1.148  10.407   6.941 -0.3429  0.4857 -0.5686
  796MOL0     C 9720   1.298  10.409   6.900  0.4532 -0.7180  0.7355
  796MOL0     C 9721   1.356  10.554   6.885  0.2019  0.6242 -0.5801
  796MOL0     C 9722   1.499  10.579   6.919  0.2035 -0.5989  0.5173
  796MOL0     C 9723   1.522  10.727   6.925  0.2332  0.1456 -0.8320
  796MOL0     C 9724   1.670  10.763   6.900  0.1794  0.3400 -0.4240
  796MOL0     C 9725   1.774  10.683   6.991  1.0530  1.1275 -0.7439
  796MOL0     C 9726   1.773  10.728   7.131 -0.1255 -0.4255  0.4284
  796MOL0     N 9727   1.832  10.863   7.143 -0.4745  0.0628 -0.3585
  796MOL0     C 9728   1.760  10.976   7.162  0.2311 -0.9824 -0.5593
  796MOL0     C 9729   1.858  11.064   7.202  0.4597 -0.6598 -0.3249
  796MOL0     C 9730   1.850  11.214   7.242 -0.2789  1.5441 -0.3271
  796MOL0     C 9731   1.874  11.294   7.119 -0.2620 -0.0335 -0.5047
  796MOL0     C 9732   2.021  11.276   7.064  0.4733  0.2584 -1.1808
  796MOL0     C 9733   2.121  11.328   7.174 -0.3291 -0.0335  0.2343
  796MOL0     O 9734   2.094  11.462   7.216  0.5572 -0.3660 -0.3353
  796MOL0     C 9735   2.185  11.515   7.307 -0.3963 -0.2279  0.1980
  796MOL0     C 9736   2.158  11.644   7.351 -0.2475 -0.7268  0.4715
  796MOL0     C 9737   2.248  11.713   7.432 -0.3027  0.7632  0.2841
  796MOL0     C 9738   2.214  11.854   7.472  0.0458  0.8497 -1.1748
  796MOL0     C 9739   2.373  11.658   7.460  0.2419  0.8150 -0.0702
  796MOL0     C 9740   2.479  11.734   7.533 -1.1352  0.7468  1.4690
  796MOL0     O 9741   2.580  11.662   7.592 -0.0980 -1.0601 -0.0626
  796MOL0     C 9742   2.689  11.731   7.629 -0.7349  0.1173  0.4992
  796MOL0     C 9743   2.725  11.743   7.762 -0.1480 -0.6255  0.6885
  796MOL0     C 9744   2.843  11.809   7.812  0.1850 -0.0581  0.4821
  796MOL0     C 9745   2.934  11.862   7.714  0.4732 -0.0157 -0.4860
  796MOL0     O 9746   3.052  11.922   7.732  0.0137  0.1201  0.3636
  796MOL0     C 9747   3.093  11.941   7.868  0.4506  0.9859  0.5615
  796MOL0     C 9748   3.062  12.076   7.937  0.5620 -0.5438  0.6601
  796MOL0     C 9749   3.054  12.045   8.094 -0.6140 -0.0811  0.5467
  796MOL0     C 9750   3.092  12.170   8.179 -0.7146 -0.2115 -0.2257
  796MOL0     C 9751   3.132  12.131   8.321 -0.0992  0.7499 -0.4164
  796MOL0     C 9752   3.197  12.259   8.395  0.0818  0.1827 -0.3045
  796MOL0     C 9753   3.224  12.224   8.546  0.3083  0.5356 -0.8742
  796MOL0     C 9754   3.229  12.347   8.629 -0.7423 -1.1601  0.0824
  796MOL0    Cl 9755   3.075  12.448   8.621  0.2431 -0.4710  0.4621
  796MOL0     C 9756   2.896  11.851   7.579  0.4660  0.6593  0.5182
  796MOL0     C 9757   2.776  11.789   7.536  0.6438  0.4604 -0.9395
  796MOL0     O 9758   2.474  11.858   7.524 -0.2962 -0.3694  0.4389
  796MOL0     C 9759   2.402  11.525   7.412 -0.5186 -0.2855  0.3663
  796MOL0     C 9760   2.300  11.452   7.349 -0.3718 -0.5255 -0.0145
  796MOL0     N 9761   1.980  11.006   7.203 -0.0266 -0.1739 -0.0690
  796MOL0     N 9762   1.964  10.885   7.163 -0.2246  0.0975  0.1964
  796MOL0     C 9763   0.880  10.406   7.024 -0.3318  0.1005 -0.3743
  796MOL0     C 9764   0.743  10.390   7.054 -0.3857 -0.5111 -0.1023
  796MOL0     C 9765   0.284  10.366   6.991 -0.5191 -0.0135 -0.7046
  796MOL0     C 9766   0.165  10.382   6.917 -0.0710  0.0075  0.0043
  796MOL0     C 9767   0.043  10.383   6.980 -0.2362 -0.5028  0.3313
  796MOL0     C 9768   0.033  10.368   7.117 -0.1106 -0.3107 -0.1056
  796MOL0     O 9769  -0.082  10.363   7.189 -0.3351 -0.2335  0.1969
  796MOL0     C 9770  -0.208  10.356   7.127  0.5636 -0.2596  0.0876
  796MOL0     C 9771  -0.319  10.361   7.231  0.4904 -0.4817 -0.1008
  796MOL0     C 9772  -0.310  10.499   7.302  0.0459 -0.3968 -0.1300
  796MOL0     C 9773  -0.423  10.510   7.416  0.4802 -0.2568 -0.0501
  796MOL0     C 9774  -0.550  10.474   7.359 -0.0284 -0.3663  0.0904
  796MOL0     C 9775  -0.660  10.453   7.307  0.3685 -0.2095 -0.3269
  796MOL0     C 9776   0.147  10.337   7.189 -0.3669  0.8484 -0.2964
  796MOL0     C 9777   0.272  10.349   7.128  0.1680  1.1957  0.4050
  796MOL0     C 9778   0.376  10.337   7.226 -0.7271  0.3730  0.3668
  796MOL0     H 9779   0.633  10.472   6.738  0.9260  1.1058 -1.1980
  796MOL0     H 9780   0.887  10.532   6.709 -0.9020 -3.4455 -2.4846
  796MOL0     H 9781   1.108  10.305   6.938 -1.0038  0.7009  0.2884
  796MOL0     H 9782   1.150  10.442   7.045 -0.0304 -0.3990 -0.2616
  796MOL0     H 9783   1.355  10.353   6.976 -0.6630 -0.6280  1.6708
  796MOL0     H 9784   1.312  10.355   6.806 -0.4372  0.2246  0.0500
  796MOL0     H 9785   1.349  10.577   6.778  1.1124  0.1302 -0.7559
  796MOL0     H 9786   1.294  10.627   6.937  0.6936  1.9552 -1.7988
  796MOL0     H 9787   1.528  10.533   7.014  0.3510  2.3683  2.0063
  796MOL0     H 9788   1.564  10.545   6.838  1.0077  0.6768  0.5987
  796MOL0     H 9789   1.491  10.767   7.022 -0.6492 -0.3436 -0.9057
  796MOL0     H 9790   1.474  10.775   6.839  1.0349  1.5975 -0.5120
  796MOL0     H 9791   1.696  10.733   6.798  1.7916  0.6528 -0.1356
  796MOL0     H 9792   1.681  10.872   6.901 -0.1305  0.3703 -0.3810
  796MOL0     H 9793   1.875  10.697   6.949  1.7804 -0.7287  0.2870
  796MOL0     H 9794   1.755  10.576   7.002 -1.2553  1.7241  2.4282
  796MOL0     H 9795   1.674  10.717   7.177  1.4479 -1.7414  3.8335
  796MOL0     H 9796   1.842  10.664   7.187 -0.5031 -1.8166 -0.6427
  796MOL0     H 9797   1.661  11.008   7.133 -0.3736 -0.2240  2.0295
  796MOL0     H 9798   1.914  11.245   7.326  0.1536 -0.7866  0.2717
  796MOL0     H 9799   1.750  11.207   7.287  1.0577 -2.0907  2.6520
  796MOL0     H 9800   1.806  11.261   7.040 -0.3257 -2.3986  0.4583
  796MOL0     H 9801   1.867  11.402   7.136 -1.5176 -0.2559  0.5145
  796MOL0     H 9802   2.027  11.174   7.024 -1.8843 -0.6621  0.5591
  796MOL0     H 9803   2.036  11.344   6.980  0.5435 -0.4459 -1.7466
  796MOL0     H 9804   2.126  11.262   7.262  2.2151 -3.3677 -2.1661
  796MOL0     H 9805   2.216  11.319   7.120 -0.3292 -0.3962  0.2881
  796MOL0     H 9806   2.062  11.684   7.319  0.4917 -1.2923 -2.7805
  796MOL0     H 9807   2.109  11.877   7.447  0.2507  2.6760 -0.4986
  796MOL0     H 9808   2.278  11.903   7.398  2.8270 -2.2086 -1.0505
  796MOL0     H 9809   2.232  11.883   7.575 -1.1190  0.7941 -0.9338
  796MOL0     H 9810   2.655  11.712   7.839  0.8705 -1.7956  1.1667
  796MOL0     H 9811   2.856  11.819   7.919 -2.1660  1.2447  0.7216
  796MOL0     H 9812   3.069  11.863   7.942  1.8871 -2.0567 -1.9169
  796MOL0     H 9813   3.202  11.927   7.863  0.2235 -2.4285  2.0981
  796MOL0     H 9814   3.148  12.142   7.920 -1.8639  3.3377  2.1478
  796MOL0     H 9815   2.969  12.125   7.908  0.5889  0.0154  1.4870
  796MOL0     H 9816   3.123  11.966   8.123 -0.0117  0.2639  0.0643
  796MOL0     H 9817   2.953  12.015   8.125  0.0059 -0.3883  2.4453
  796MOL0     H 9818   3.003  12.233   8.178 -1.6660 -1.5115 -0.5941
  796MOL0     H 9819   3.175  12.213   8.122 -0.9396  1.0881  0.4056
  796MOL0     H 9820   3.041  12.095   8.369 -0.1016  0.1130 -0.8876
  796MOL0     H 9821   3.202  12.046   8.318 -0.4353  0.3471  1.6420
  796MOL0     H 9822   3.130  12.345   8.381 -0.1935  0.0368  0.1071
  796MOL0     H 9823   3.292  12.283   8.346  1.0145  0.1252  1.3834
  796MOL0     H 9824   3.316  12.165   8.551 -0.0402  0.0736  2.7718
  796MOL0     H 9825   3.147  12.156   8.582  0.0646  0.7314 -1.0213
  796MOL0     H 9826   3.311  12.413   8.600 -1.2783 -1.0172 -1.1680
  796MOL0     H 9827   3.247  12.327   8.735  3.2742  1.5543  0.1075
  796MOL0     H 9828   2.961  11.898   7.505 -0.9528  1.1340 -0.4691
  796MOL0     H 9829   2.757  11.798   7.430 -1.3346  1.3731 -0.5429
  796MOL0     H 9830   2.505  11.493   7.420 -0.2969 -0.3151 -1.8600
  796MOL0     H 9831   2.320  11.348   7.326  1.9402 -0.4972  1.5658
  796MOL0     H 9832   0.952  10.377   7.099 -0.7610  1.3586  0.5658
  796MOL0     H 9833   0.725  10.343   7.151  2.2223 -1.2719  0.0731
  796MOL0     H 9834   0.162  10.383   6.809 -1.1802 -2.7169 -0.0567
  796MOL0     H 9835  -0.047  10.402   6.922 -0.5238  2.4247  1.5583
  796MOL0     H 9836  -0.209  10.445   7.062  0.5603  0.5906  1.2250
  796MOL0     H 9837  -0.228  10.269   7.064  0.1617 -1.1330  1.3765
  796MOL0     H 9838  -0.315  10.273   7.296  0.0605 -0.8724 -0.5920
  796MOL0     H 9839  -0.415  10.360   7.177 -0.2610 -2.1130  1.1676
  796MOL0     H 9840  -0.217  10.506   7.358 -1.7881  1.9867  2.9795
  796MOL0     H 9841  -0.317  10.583   7.232 -1.8353 -0.5383 -0.1641
  796MOL0     H 9842  -0.428  10.608   7.462 -2.6453  1.1661 -2.9562
  796MOL0     H 9843  -0.405  10.437   7.496  2.1927 -0.4243 -0.5368
  796MOL0     H 9844  -0.747  10.426   7.251 -0.3529  0.3488  0.4947
  796MOL0     H 9845   0.134  10.320   7.295 -0.3419 -0.2220 -0.4560
  796MOL0     H 9846   0.431  10.431   7.228 -1.9360  1.2817 -2.7677
  796MOL0     H 9847   0.339  10.319   7.327 -0.8723  3.7189  1.0146
  796MOL0     H 9848   0.437  10.248   7.206 -2.0945 -0.4829 -0.1496
  797MOL0     O 9849   3.106   6.925   0.178  1.0283 -0.5820  0.1799
  797MOL0     C 9850   3.029   6.847   0.121  0.3357 -0.4470 -0.1869
  797MOL0     O 9851   3.059   6.788  -0.006 -0.0815 -0.4141 -0.3826
  797MOL0     C 9852   3.187   6.786  -0.038 -0.8432  1.0313  0.8849
  797MOL0     C 9853   3.287   6.752   0.045 -1.4876 -0.3996  0.4563
  797MOL0     C 9854   3.418   6.755  -0.010  0.1589  0.2501  0.2471
  797MOL0     C 9855   3.451   6.783  -0.145  0.0558  0.0239  0.3652
  797MOL0     O 9856   3.585   6.769  -0.174  0.0114 -0.4321 -0.3070
  797MOL0     C 9857   3.620   6.768  -0.310 -1.2199  0.0286 -0.4338
  797MOL0     C 9858   3.771   6.780  -0.323 -0.5286  0.5511  0.0223
  797MOL0     C 9859   3.827   6.901  -0.246 -0.1613  0.0478 -0.5067
  797MOL0     C 9860   3.978   6.937  -0.276 -0.5787 -0.1068 -0.2357
  797MOL0     C 9861   4.072   6.849  -0.204  0.1382 -0.5703 -1.6480
  797MOL0     C 9862   4.097   6.862  -0.047  0.0992  0.1186  0.6095
  797MOL0     C 9863   4.119   7.005  -0.004 -0.3235 -0.5950  0.1119
  797MOL0     C 9864   4.105   7.007   0.147 -0.5182 -0.3631 -0.3213
  797MOL0     N 9865   4.100   7.150   0.193  0.9609 -0.3448  0.2506
  797MOL0     C 9866   4.174   7.260   0.153 -0.2748 -0.7598 -0.0063
  797MOL0     C 9867   4.130   7.358   0.230  0.1672 -0.5096 -0.4841
  797MOL0     C 9868   4.192   7.498   0.222  0.9054 -0.2496  0.3461
  797MOL0     C 9869   4.288   7.521   0.337  0.8469  1.4896  0.5687
  797MOL0     C 9870   4.421   7.463   0.304  0.3819 -0.3708  0.5417
  797MOL0     C 9871   4.506   7.432   0.423 -0.1059 -0.0560 -0.7008
  797MOL0     O 9872   4.521   7.554   0.495  0.2747 -0.0651  0.6708
  797MOL0     C 9873   4.606   7.568   0.600  0.3616 -0.0066  0.1685
  797MOL0     C 9874   4.626   7.687   0.657  0.4286  0.2223 -0.2024
  797MOL0     C 9875   4.724   7.704   0.762 -0.1471 -0.7452 -0.3841
  797MOL0     C 9876   4.732   7.846   0.826 -0.4318 -0.0577  0.2901
  797MOL0     C 9877   4.784   7.590   0.827 -0.3032 -0.3535  0.4173
  797MOL0     C 9878   4.871   7.592   0.946  0.0406  0.8189  0.4391
  797MOL0     O 9879   4.898   7.468   1.009 -1.2839 -0.2723  0.2940
  797MOL0     C 9880   4.977   7.460   1.121 -0.0861 -0.0266  0.5111
  797MOL0     C 9881   4.935   7.501   1.247 -0.3010  0.8408 -0.4022
  797MOL0     C 9882   5.027   7.509   1.356 -0.3289  0.9338  0.4360
  797MOL0     C 9883   5.167   7.481   1.340 -0.5397 -0.5207  0.0326
  797MOL0     O 9884   5.253   7.496   1.450 -0.1468 -0.4291 -0.3733
  797MOL0     C 9885   5.395   7.486   1.428 -0.3097  0.0398 -0.3888
  797MOL0     C 9886   5.462   7.573   1.530  0.6450  0.2121  0.1985
  797MOL0     C 9887   5.609   7.578   1.521 -0.2031 -0.0843 -0.6379
  797MOL0     C 9888   5.660   7.697   1.600  0.2539  0.3301  0.0357
  797MOL0     C 9889   5.619   7.705   1.748 -0.6850 -0.4915  0.1331
  797MOL0     C 9890   5.676   7.596   1.830  0.4004  0.6478  0.2064
  797MOL0     C 9891   5.817   7.629   1.873  0.2036 -0.5108  0.2552
  797MOL0     C 9892   5.884   7.511   1.940  0.4380 -0.4159 -0.3704
  797MOL0    Cl 9893   5.779   7.435   2.068  0.7428  0.5945 -0.0479
  797MOL0     C 9894   5.205   7.427   1.214  0.4777 -0.1591 -0.0647
  797MOL0     C 9895   5.111   7.417   1.110  1.4157  0.5207  0.0321
  797MOL0     O 9896   4.910   7.699   0.990 -0.2170  0.1367  0.0600
  797MOL0     C 9897   4.752   7.464   0.765 -0.0400 -0.0282 -0.1706
  797MOL0     C 9898   4.678   7.458   0.649  1.1528 -1.4674 -0.2423
  797MOL0     N 9899   4.026   7.315   0.305  0.1441  0.2280 -0.0005
  797MOL0     N 9900   3.993   7.193   0.275 -0.5693 -0.6560 -0.2164
  797MOL0     C 9901   3.339   6.813  -0.234 -0.2939 -0.3822 -0.0413
  797MOL0     C 9902   3.212   6.821  -0.175  0.9342 -0.1864  0.4791
  797MOL0     C 9903   2.902   6.818   0.184  0.3841  0.8208  0.4005
  797MOL0     C 9904   2.804   6.746   0.108 -0.0611  0.5486 -0.3585
  797MOL0     C 9905   2.684   6.714   0.162  0.3366 -0.2601 -0.6756
  797MOL0     C 9906   2.639   6.766   0.286 -0.2235  0.5938 -0.2877
  797MOL0     O 9907   2.509   6.753   0.319 -0.9750 -0.3869 -0.8600
  797MOL0     C 9908   2.466   6.784   0.455 -0.0789  0.2675 -0.1365
  797MOL0     C 9909   2.357   6.690   0.503  0.1059  0.4606  0.3090
  797MOL0     C 9910   2.336   6.708   0.653  0.1761 -0.1007  0.2792
  797MOL0     C 9911   2.277   6.584   0.726 -0.4500 -1.2538 -0.4019
  797MOL0     C 9912   2.226   6.627   0.857  0.1969  0.1173 -0.3884
  797MOL0     C 9913   2.185   6.663   0.966 -0.5831 -0.4390 -0.1729
  797MOL0     C 9914   2.738   6.828   0.363  0.7755 -0.2263  0.7862
  797MOL0     C 9915   2.870   6.855   0.319  0.7429  0.1055  0.2755
  797MOL0     C 9916   2.958   6.906   0.428  0.1831 -0.1084 -0.4318
  797MOL0     H 9917   3.257   6.728   0.146 -0.3349 -0.6457  0.7611
  797MOL0     H 9918   3.503   6.738   0.056  0.7732  3.8861  0.6114
  797MOL0     H 9919   3.575   6.851  -0.365 -2.5946 -1.5590 -1.8627
  797MOL0     H 9920   3.570   6.685  -0.361 -1.3421  0.7949 -1.6133
  797MOL0     H 9921   3.814   6.694  -0.272  1.4806  1.5071  0.0502
  797MOL0     H 9922   3.791   6.793  -0.430  0.4883  0.3373  0.1815
  797MOL0     H 9923   3.771   6.991  -0.274  1.4285  1.9502  1.9613
  797MOL0     H 9924   3.815   6.883  -0.139 -3.7644 -0.8036 -0.9218
  797MOL0     H 9925   3.985   6.923  -0.384 -1.9901 -1.2038 -0.2170
  797MOL0     H 9926   4.000   7.043  -0.258 -1.0564 -0.0427  0.0046
  797MOL0     H 9927   4.175   6.859  -0.241 -0.3923  0.0117 -3.0089
  797MOL0     H 9928   4.030   6.750  -0.222 -0.7010 -0.5217 -0.1351
  797MOL0     H 9929   4.012   6.808  -0.004 -1.9159  0.6783 -2.2956
  797MOL0     H 9930   4.182   6.804  -0.011 -1.7227 -1.0870  3.2738
  797MOL0     H 9931   4.029   7.059  -0.035  0.0853 -0.1841 -0.3716
  797MOL0     H 9932   4.206   7.055  -0.046  1.0841 -2.6100  0.4870
  797MOL0     H 9933   4.010   6.973   0.188 -2.3911  4.9670  0.5756
  797MOL0     H 9934   4.193   6.958   0.189 -1.0897 -0.5971  0.6171
  797MOL0     H 9935   4.264   7.265   0.092  0.0782 -0.1177  0.5548
  797MOL0     H 9936   4.104   7.562   0.230  0.5355 -0.9288  2.3624
  797MOL0     H 9937   4.242   7.509   0.125  0.0970  0.7437  0.0241
  797MOL0     H 9938   4.299   7.623   0.374  3.8033  2.1804 -1.8172
  797MOL0     H 9939   4.252   7.461   0.421  1.5246 -0.2030 -0.3060
  797MOL0     H 9940   4.402   7.371   0.248 -0.1298  1.4992 -2.6389
  797MOL0     H 9941   4.474   7.521   0.227  0.2587  0.3354  0.9789
  797MOL0     H 9942   4.453   7.359   0.485  0.1575  0.7744  0.5361
  797MOL0     H 9943   4.598   7.399   0.373 -1.0308 -1.1507 -1.7784
  797MOL0     H 9944   4.564   7.770   0.623 -0.0772  0.7750  1.9094
  797MOL0     H 9945   4.655   7.852   0.904 -1.5768 -1.7773 -0.6323
  797MOL0     H 9946   4.718   7.923   0.750  0.7104 -0.6559 -0.5546
  797MOL0     H 9947   4.829   7.875   0.867 -0.7804 -0.3962  1.3920
  797MOL0     H 9948   4.829   7.523   1.259 -0.6129 -1.3319  1.4990
  797MOL0     H 9949   4.995   7.538   1.455  0.9703 -3.0099  2.2039
  797MOL0     H 9950   5.422   7.381   1.422  2.0580  0.3454  2.4458
  797MOL0     H 9951   5.425   7.540   1.338 -0.4955 -1.6222 -1.4733
  797MOL0     H 9952   5.422   7.673   1.506 -3.2306 -1.6188 -1.9864
  797MOL0     H 9953   5.432   7.547   1.632 -0.6695  0.5929 -0.0642
  797MOL0     H 9954   5.644   7.603   1.420 -0.3995  0.6642 -0.5258
  797MOL0     H 9955   5.648   7.482   1.556 -0.7140  0.1130  0.5352
  797MOL0     H 9956   5.631   7.785   1.541  0.9188 -1.0078 -2.4235
  797MOL0     H 9957   5.769   7.692   1.595  0.2015 -1.0741  0.1625
  797MOL0     H 9958   5.650   7.801   1.790 -3.2849  0.9780 -1.0427
  797MOL0     H 9959   5.510   7.710   1.753 -0.6290  0.1098  0.8723
  797MOL0     H 9960   5.670   7.499   1.780 -1.8868  0.6486  0.4130
  797MOL0     H 9961   5.619   7.586   1.923 -0.7934 -1.5830 -0.6910
  797MOL0     H 9962   5.812   7.721   1.933 -1.8696  0.7688 -1.6852
  797MOL0     H 9963   5.877   7.664   1.788 -0.8301  0.4863 -0.0903
  797MOL0     H 9964   5.984   7.529   1.980  0.1811  0.6669 -0.1847
  797MOL0     H 9965   5.900   7.428   1.871  1.5780 -1.0114  0.5912
  797MOL0     H 9966   5.311   7.409   1.198  0.7069  1.0884 -0.0455
  797MOL0     H 9967   5.140   7.384   1.011  0.8545 -0.0319  0.0403
  797MOL0     H 9968   4.813   7.381   0.800 -3.4990 -1.9989  1.8196
  797MOL0     H 9969   4.664   7.365   0.595  0.6714 -1.6036  0.1120
  797MOL0     H 9970   3.367   6.838  -0.336  2.3456 -0.9392  0.4644
  797MOL0     H 9971   3.124   6.837  -0.235  0.4752  1.8973  1.5982
  797MOL0     H 9972   2.821   6.708   0.007  0.1265 -0.8560  0.1784
  797MOL0     H 9973   2.610   6.657   0.105 -1.7663 -0.3392  1.9390
  797MOL0     H 9974   2.555   6.785   0.519 -0.2669 -1.9459  0.2283
  797MOL0     H 9975   2.421   6.883   0.443  2.0985  1.4385  0.7949
  797MOL0     H 9976   2.382   6.586   0.479  2.7145  1.3825 -1.4068
  797MOL0     H 9977   2.261   6.700   0.452  0.1961  0.6410  0.1767
  797MOL0     H 9978   2.435   6.727   0.695  0.1828 -2.1617  1.2837
  797MOL0     H 9979   2.274   6.795   0.676  1.7649  1.7873 -2.1008
  797MOL0     H 9980   2.357   6.510   0.723 -0.1834 -1.0398  0.7007
  797MOL0     H 9981   2.193   6.546   0.667 -1.0095 -2.1979  0.9448
  797MOL0     H 9982   2.157   6.698   1.064 -1.7128 -0.7645 -0.3608
  797MOL0     H 9983   2.713   6.873   0.459 -3.0033 -1.1820  0.3820
  797MOL0     H 9984   3.059   6.866   0.418 -0.3591 -0.9931 -3.0953
  797MOL0     H 9985   2.968   7.015   0.422 -1.1226  0.1641  1.4298
  797MOL0     H 9986   2.910   6.877   0.522 -0.2128  0.3894 -0.4791
  798MOL0     O 9987   9.611   7.193   4.799 -0.3247 -0.1140  0.1696
  798MOL0     C 9988   9.573   7.281   4.721 -0.3419 -0.6088  0.4675
  798MOL0     O 9989   9.619   7.290   4.597 -0.4339  0.4051  0.0678
  798MOL0     C 9990   9.750   7.242   4.578 -0.1004 -0.7064 -0.0111
  798MOL0     C 9991   9.851   7.308   4.641  0.4914  0.4648 -0.0077
  798MOL0     C 9992   9.983   7.263   4.611  0.3902  1.4641 -1.6542
  798MOL0     C 9993  10.016   7.165   4.510  0.4211  0.0356 -0.3489
  798MOL0     O 9994  10.143   7.121   4.474  0.4629 -0.2046  0.0549
  798MOL0     C 9995  10.241   7.220   4.484 -0.7389  0.7678  0.4508
  798MOL0     C 9996  10.379   7.174   4.433 -0.5101 -0.7403  0.0603
  798MOL0     C 9997  10.371   7.126   4.291 -0.2348  0.1243  0.3981
  798MOL0     C 9998  10.512   7.111   4.235  0.3216 -0.1194  0.5880
  798MOL0     C 9999  10.503   7.098   4.082 -0.7250 -0.0804  0.2033
  798MOL0     C10000  10.485   6.951   4.039 -0.0177 -0.1749  0.8713
  798MOL0     C10001  10.617   6.885   4.008  0.5366  0.4185  0.4946
  798MOL0     C10002  10.659   6.903   3.857  0.0294 -0.4736 -0.6203
  798MOL0     N10003  10.787   6.840   3.822 -0.0433  0.0972  0.0088
  798MOL0     C10004  10.910   6.864   3.873  0.0553  0.5810  0.3813
  798MOL0     C10005  10.983   6.770   3.816  0.0046  0.1351 -0.6722
  798MOL0     C10006  11.130   6.745   3.830 -0.1641  0.4780 -0.4743
  798MOL0     C10007  11.174   6.725   3.980 -0.2428  0.6138  0.7742
  798MOL0     C10008  11.310   6.672   4.006 -0.4322  0.6318 -1.0331
  798MOL0     C10009  11.321   6.646   4.153  0.3704 -0.3859 -0.6371
  798MOL0     O10010  11.426   6.559   4.171  0.3473  0.0164  0.0485
  798MOL0     C10011  11.561   6.598   4.158 -0.1450  0.8867 -0.7293
  798MOL0     C10012  11.618   6.726   4.163  0.5827  0.6670  0.3017
  798MOL0     C10013  11.758   6.746   4.151 -0.0037 -0.0752  0.0074
  798MOL0     C10014  11.801   6.892   4.173 -0.4383 -0.6658 -0.0141
  798MOL0     C10015  11.839   6.633   4.139 -0.5221  0.7754 -0.4388
  798MOL0     C10016  11.987   6.641   4.141  0.2331  0.7614 -0.4136
  798MOL0     O10017  12.057   6.521   4.145 -0.7407  0.2261 -0.5846
  798MOL0     C10018  12.190   6.533   4.129 -0.0608  0.2332 -0.2835
  798MOL0     C10019  12.247   6.477   4.016  0.1422 -0.3960  0.3668
  798MOL0     C10020  12.388   6.486   3.988  0.5937  0.0285 -0.1701
  798MOL0     C10021  12.470   6.551   4.085  0.2452  0.3320 -0.0372
  798MOL0     O10022  12.609   6.563   4.069 -0.3431  0.0046  0.9361
  798MOL0     C10023  12.685   6.521   4.183 -0.4295 -0.6099 -0.5572
  798MOL0     C10024  12.838   6.547   4.161  0.3112 -0.2250 -0.3241
  798MOL0     C10025  12.929   6.521   4.288  0.8477  0.3604  0.2162
  798MOL0     C10026  13.079   6.530   4.254 -0.5412  0.7052  0.0992
  798MOL0     C10027  13.164   6.456   4.367 -0.1946 -1.0491 -0.3076
  798MOL0     C10028  13.152   6.522   4.509 -0.2319  1.0810 -0.1220
  798MOL0     C10029  13.258   6.442   4.600  0.7456  0.5022  0.2524
  798MOL0     C10030  13.220   6.477   4.746  0.3403  0.1219 -0.2333
  798MOL0    Cl10031  13.354   6.416   4.837 -0.1321  0.1611  0.3620
  798MOL0     C10032  12.406   6.605   4.200  1.0156 -0.2498 -0.9252
  798MOL0     C10033  12.276   6.590   4.228 -0.3428  0.8201  0.1948
  798MOL0     O10034  12.041   6.754   4.119  0.2662  0.6547  0.0473
  798MOL0     C10035  11.778   6.503   4.136  0.9615 -0.7280 -0.4497
  798MOL0     C10036  11.642   6.491   4.139 -0.2262 -0.0951 -0.6931
  798MOL0     N10037  10.907   6.683   3.734 -0.0528  0.7098  0.2303
  798MOL0     N10038  10.786   6.721   3.737  0.8038 -0.9294 -0.2284
  798MOL0     C10039   9.902   7.093   4.458 -0.2065  0.7816  0.4659
  798MOL0     C10040   9.772   7.133   4.490 -0.7727  0.7598  0.0700
  798MOL0     C10041   9.449   7.360   4.750 -0.1596 -0.1867 -0.4546
  798MOL0     C10042   9.348   7.373   4.647 -0.9653 -0.7137  0.5313
  798MOL0     C10043   9.226   7.441   4.677 -0.1182 -0.9655  0.8363
  798MOL0     C10044   9.199   7.494   4.801  0.0966  0.5434 -0.3356
  798MOL0     O10045   9.082   7.554   4.834 -0.3560 -0.4191 -0.3958
  798MOL0     C10046   9.065   7.644   4.948  0.3407  0.4193 -0.3726
  798MOL0     C10047   9.011   7.572   5.065 -0.1418 -0.6126  0.6127
  798MOL0     C10048   9.027   7.663   5.184  0.1633 -0.7400 -0.1144
  798MOL0     C10049   8.915   7.781   5.183  0.2133 -0.8237  0.7110
  798MOL0     C10050   8.958   7.855   5.302  0.1281 -0.4755  0.6642
  798MOL0     C10051   8.986   7.929   5.393  0.3283 -1.1367 -0.2196
  798MOL0     C10052   9.305   7.481   4.899  0.1730 -0.5153  0.1383
  798MOL0     C10053   9.424   7.418   4.876 -1.2975  0.6437  0.0428
  798MOL0     C10054   9.514   7.405   4.991 -0.1826 -0.3088  1.6251
  798MOL0     H10055   9.842   7.397   4.701 -0.8417 -0.4096  1.1639
  798MOL0     H10056  10.059   7.316   4.667  0.3998  0.3120 -0.5392
  798MOL0     H10057  10.258   7.247   4.588  0.9868 -0.1782  0.4424
  798MOL0     H10058  10.221   7.314   4.431 -2.0917  0.4221  0.2885
  798MOL0     H10059  10.453   7.254   4.445  0.8325 -1.1476 -3.8697
  798MOL0     H10060  10.406   7.084   4.488 -0.4557 -2.0398 -1.9905
  798MOL0     H10061  10.328   7.025   4.285 -0.1807  0.1914 -3.0977
  798MOL0     H10062  10.319   7.196   4.225  3.4314  1.1441 -1.6803
  798MOL0     H10063  10.575   7.198   4.253 -0.7486  0.6032  0.9677
  798MOL0     H10064  10.555   7.028   4.291  1.9948  0.1870 -0.1786
  798MOL0     H10065  10.596   7.131   4.036 -0.9416  1.1528  0.6073
  798MOL0     H10066  10.436   7.174   4.040  2.5426  1.2183 -3.2645
  798MOL0     H10067  10.440   6.889   4.118  0.1956 -2.0487 -0.4338
  798MOL0     H10068  10.417   6.943   3.954  1.9916 -1.3022 -0.7055
  798MOL0     H10069  10.609   6.778   4.028  0.3097  0.7127  2.1240
  798MOL0     H10070  10.690   6.922   4.082  1.3973  0.0957 -0.1694
  798MOL0     H10071  10.575   6.874   3.795 -2.7456  3.5252  0.8398
  798MOL0     H10072  10.679   7.011   3.854 -3.6110  0.4453  1.5638
  798MOL0     H10073  10.935   6.933   3.953  2.7915 -1.5835  1.5774
  798MOL0     H10074  11.178   6.833   3.787 -1.2042  1.4610  0.2917
  798MOL0     H10075  11.143   6.660   3.763 -2.9046  1.3465 -2.2807
  798MOL0     H10076  11.168   6.818   4.038 -3.7227  0.9679  0.0642
  798MOL0     H10077  11.099   6.659   4.025 -3.1298  1.9900 -1.7014
  798MOL0     H10078  11.321   6.575   3.957  1.5909 -1.3575  2.8172
  798MOL0     H10079  11.392   6.729   3.962  1.0676 -1.0811 -0.6225
  798MOL0     H10080  11.331   6.741   4.206 -1.1445 -0.6437  0.1711
  798MOL0     H10081  11.232   6.589   4.183 -0.4497  1.0740 -0.2126
  798MOL0     H10082  11.549   6.808   4.179  0.6831  1.0636 -1.1911
  798MOL0     H10083  11.719   6.947   4.125 -0.0655 -1.0526 -1.1309
  798MOL0     H10084  11.894   6.921   4.124  0.7989 -0.8949  2.0958
  798MOL0     H10085  11.803   6.910   4.280  1.3284  1.2791 -0.3250
  798MOL0     H10086  12.176   6.429   3.950  0.5719  1.9537 -2.0118
  798MOL0     H10087  12.431   6.454   3.894 -0.4664 -0.4279 -0.5144
  798MOL0     H10088  12.657   6.566   4.279  1.7255 -1.7451  0.6737
  798MOL0     H10089  12.681   6.414   4.207  2.0341 -0.8199 -0.8216
  798MOL0     H10090  12.862   6.472   4.085  0.3759  4.0113 -4.9613
  798MOL0     H10091  12.869   6.647   4.128 -0.3966 -0.2120 -0.9707
  798MOL0     H10092  12.916   6.419   4.325  0.5001  1.7671  4.4519
  798MOL0     H10093  12.906   6.589   4.370  1.0934  1.1100 -0.3267
  798MOL0     H10094  13.094   6.639   4.258 -1.5465  0.8155  1.3495
  798MOL0     H10095  13.096   6.490   4.153  0.6818 -0.3081  0.6817
  798MOL0     H10096  13.160   6.347   4.366 -0.6717 -1.0365 -0.5018
  798MOL0     H10097  13.267   6.476   4.337 -0.4448  2.2892  0.6984
  798MOL0     H10098  13.047   6.500   4.532  0.1195 -3.1068 -1.5551
  798MOL0     H10099  13.159   6.631   4.513 -2.0088  1.2984 -1.5400
  798MOL0     H10100  13.362   6.470   4.582  0.2443  1.1613 -1.8719
  798MOL0     H10101  13.248   6.335   4.580 -4.6136  0.0719  3.2705
  798MOL0     H10102  13.122   6.436   4.772  0.2876  0.2334 -0.2593
  798MOL0     H10103  13.213   6.585   4.759 -0.3575  0.2440 -1.5228
  798MOL0     H10104  12.466   6.656   4.274  0.3050 -1.0561  0.2426
  798MOL0     H10105  12.231   6.620   4.322 -3.3742  1.5548 -1.3740
  798MOL0     H10106  11.824   6.406   4.147  1.4864 -0.3466  1.0825
  798MOL0     H10107  11.603   6.390   4.137  0.5848 -0.4298 -0.2415
  798MOL0     H10108   9.914   7.008   4.391 -0.5641  1.4854 -0.5196
  798MOL0     H10109   9.688   7.072   4.458 -2.0562  1.8734  1.2509
  798MOL0     H10110   9.368   7.344   4.545 -0.3542 -1.5256  0.8659
  798MOL0     H10111   9.154   7.460   4.599 -2.0318 -2.3286  2.1727
  798MOL0     H10112   9.156   7.703   4.956 -0.3089  1.3497  0.3840
  798MOL0     H10113   8.981   7.705   4.912 -0.4601 -2.0353 -3.0917
  798MOL0     H10114   9.070   7.481   5.076  2.7328  0.9293 -0.9243
  798MOL0     H10115   8.906   7.546   5.050 -0.8578  0.5250  3.1179
  798MOL0     H10116   9.026   7.613   5.282  1.5110  2.9129  1.9248
  798MOL0     H10117   9.132   7.693   5.180  0.5225 -1.8190  0.7605
  798MOL0     H10118   8.818   7.731   5.192  0.7261 -1.9611  0.1358
  798MOL0     H10119   8.918   7.835   5.088  0.1528 -2.1189 -0.0537
  798MOL0     H10120   9.003   7.994   5.476 -0.2117 -2.1103  0.6919
  798MOL0     H10121   9.281   7.522   4.996  0.0096 -1.8624  0.6893
  798MOL0     H10122   9.508   7.304   5.033  1.7960 -2.1347 -2.0204
  798MOL0     H10123   9.616   7.421   4.956 -0.8749 -0.1263 -0.4449
  798MOL0     H10124   9.490   7.479   5.068 -1.5939  1.5154 -0.4406
  799MOL0     O10125   4.140   9.820   4.511  0.0519 -0.2495 -0.1044
  799MOL0     C10126   4.070   9.861   4.600  0.0177 -0.3305 -0.7163
  799MOL0     O10127   4.123   9.919   4.716 -0.0608  0.4999  0.0234
  799MOL0     C10128   4.261   9.902   4.738  0.1179  0.2514 -0.4570
  799MOL0     C10129   4.310   9.796   4.813 -0.3901 -0.1541  0.0053
  799MOL0     C10130   4.451   9.777   4.814  0.0854  0.4284  0.1982
  799MOL0     C10131   4.539   9.864   4.747  0.4883 -0.9392 -0.0101
  799MOL0     O10132   4.667   9.835   4.718  0.0556  0.8784  0.3981
  799MOL0     C10133   4.702   9.693   4.702 -0.6506 -0.5304  0.3722
  799MOL0     C10134   4.830   9.690   4.628 -0.4642  0.2268 -0.2176
  799MOL0     C10135   4.943   9.727   4.717  0.5158 -0.6845  0.3762
  799MOL0     C10136   5.071   9.734   4.640 -0.1610  0.2362  0.9203
  799MOL0     C10137   5.181   9.796   4.722 -0.2025  1.1066 -0.0494
  799MOL0     C10138   5.312   9.821   4.628  0.0704 -0.2220 -0.4298
  799MOL0     C10139   5.433   9.883   4.705  0.7725  0.3467 -0.4751
  799MOL0     C10140   5.422  10.035   4.694 -0.1786 -0.7041 -0.0531
  799MOL0     N10141   5.494  10.109   4.791 -0.3814 -1.0939  1.0692
  799MOL0     C10142   5.443  10.212   4.858 -0.4441 -0.6580  0.1130
  799MOL0     C10143   5.555  10.261   4.915 -1.0372 -0.2208  0.2392
  799MOL0     C10144   5.556  10.393   4.988 -0.9863 -0.5408  0.4717
  799MOL0     C10145   5.686  10.416   5.052  0.8947 -0.5915 -0.6355
  799MOL0     C10146   5.698  10.555   5.118  0.2596  0.7010  0.3271
  799MOL0     C10147   5.839  10.579   5.175  0.5590  0.2609  0.3091
  799MOL0     O10148   5.899  10.705   5.123 -0.1667 -0.9809  0.6665
  799MOL0     C10149   6.016  10.752   5.170 -0.1858  0.6166  0.6485
  799MOL0     C10150   6.101  10.678   5.248 -1.3805  0.0246 -1.2147
  799MOL0     C10151   6.228  10.728   5.291 -0.7835 -0.2902  0.1714
  799MOL0     C10152   6.317  10.629   5.365  0.0014  0.2886 -0.1994
  799MOL0     C10153   6.271  10.863   5.261  0.6154 -0.0890 -0.5335
  799MOL0     C10154   6.393  10.931   5.321 -0.3297 -0.1647 -0.2528
  799MOL0     O10155   6.419  11.054   5.280 -0.2915 -0.5092  0.0458
  799MOL0     C10156   6.512  11.124   5.350 -0.7197 -0.7762 -0.9128
  799MOL0     C10157   6.652  11.095   5.366  0.0525  1.4526  0.2209
  799MOL0     C10158   6.731  11.183   5.441  0.1648  0.1720  0.6840
  799MOL0     C10159   6.686  11.313   5.482  0.6397 -0.0651  0.1642
  799MOL0     O10160   6.778  11.403   5.506 -0.2097  0.7900  0.3413
  799MOL0     C10161   6.804  11.404   5.643 -0.4181  0.6981  0.4033
  799MOL0     C10162   6.929  11.480   5.665 -0.6053 -0.4954 -0.2611
  799MOL0     C10163   6.940  11.628   5.634  0.3411 -0.8199  0.6814
  799MOL0     C10164   7.081  11.686   5.648  0.0483 -0.0785 -0.7816
  799MOL0     C10165   7.088  11.832   5.601  0.3755  0.1620 -0.6084
  799MOL0     C10166   7.232  11.885   5.629  0.9925  0.4147  0.2868
  799MOL0     C10167   7.260  12.026   5.587  0.2152  0.2355 -0.6702
  799MOL0     C10168   7.404  12.040   5.614 -0.0877 -0.3223  0.3164
  799MOL0    Cl10169   7.437  12.215   5.594  0.0746 -0.1564  0.5270
  799MOL0     C10170   6.551  11.347   5.455  0.0788  0.0334 -0.6656
  799MOL0     C10171   6.471  11.252   5.398  1.1040  0.2730  0.8280
  799MOL0     O10172   6.467  10.870   5.402  0.2736  0.0933 -0.6916
  799MOL0     C10173   6.181  10.929   5.179 -0.3982 -0.3768  0.4883
  799MOL0     C10174   6.066  10.877   5.125 -0.1295 -0.7572  0.6589
  799MOL0     N10175   5.664  10.178   4.911 -0.1426 -0.3163 -0.5762
  799MOL0     N10176   5.631  10.094   4.818 -0.3549 -0.1961 -0.5689
  799MOL0     C10177   4.479   9.983   4.690 -0.4241 -0.1151 -1.1281
  799MOL0     C10178   4.343  10.003   4.689 -0.2602 -0.3427 -0.3879
  799MOL0     C10179   3.921   9.845   4.594  0.2979 -0.1453 -0.3513
  799MOL0     C10180   3.846   9.851   4.713  0.1925 -0.3653  0.7488
  799MOL0     C10181   3.706   9.887   4.713  1.1288 -0.2885 -0.0697
  799MOL0     C10182   3.637   9.908   4.593  0.4341 -0.3201  0.4240
  799MOL0     O10183   3.505   9.951   4.601 -0.4476  0.7976  0.0168
  799MOL0     C10184   3.396   9.856   4.556 -0.0171 -1.1348  0.3801
  799MOL0     C10185   3.381   9.834   4.406 -0.5629 -0.6487  1.1774
  799MOL0     C10186   3.371   9.968   4.334 -0.1778 -0.1059  0.0560
  799MOL0     C10187   3.348   9.969   4.178  0.2459  0.5972 -1.0381
  799MOL0     C10188   3.228   9.906   4.127  0.2924 -0.0717  0.5938
  799MOL0     C10189   3.114   9.870   4.108  0.1173 -0.7377 -0.5672
  799MOL0     C10190   3.705   9.889   4.472  0.0113  0.0887 -0.1679
  799MOL0     C10191   3.843   9.857   4.476 -0.8454 -0.0007  1.0048
  799MOL0     C10192   3.898   9.840   4.337 -0.2834  0.3692  0.8253
  799MOL0     H10193   4.232   9.737   4.860  0.2969 -2.6065 -1.7736
  799MOL0     H10194   4.481   9.689   4.870 -1.5341 -0.1518  0.2011
  799MOL0     H10195   4.632   9.634   4.642 -0.6206  1.2996 -1.5736
  799MOL0     H10196   4.708   9.652   4.803  0.7670  1.3758  1.1201
  799MOL0     H10197   4.843   9.586   4.596  1.0053 -0.2753  1.8362
  799MOL0     H10198   4.818   9.751   4.538 -1.8814  2.0440  1.1242
  799MOL0     H10199   4.919   9.823   4.763  0.0549 -0.2597 -0.7277
  799MOL0     H10200   4.959   9.657   4.800  1.4838  0.5328  1.2557
  799MOL0     H10201   5.098   9.631   4.615 -1.9128 -0.6144  2.3331
  799MOL0     H10202   5.051   9.793   4.550 -0.1566  0.3656  1.0034
  799MOL0     H10203   5.214   9.734   4.805  2.3717  2.1323 -0.2088
  799MOL0     H10204   5.142   9.887   4.769 -3.9118 -0.3637  0.0848
  799MOL0     H10205   5.352   9.734   4.576  1.2355  0.1686 -0.2414
  799MOL0     H10206   5.278   9.878   4.541  0.9480 -1.8358 -1.8868
  799MOL0     H10207   5.522   9.847   4.653 -0.5201 -2.5334 -0.8585
  799MOL0     H10208   5.431   9.846   4.808 -0.8826  2.8195  0.4731
  799MOL0     H10209   5.454  10.047   4.590  0.7183  0.6822  0.3580
  799MOL0     H10210   5.319  10.073   4.689  0.8161  2.3863  0.5126
  799MOL0     H10211   5.346  10.259   4.853 -0.3637 -0.3609  1.0332
  799MOL0     H10212   5.484  10.392   5.071  0.2041 -1.7426  1.5234
  799MOL0     H10213   5.530  10.476   4.922  2.7122  3.1780  3.2077
  799MOL0     H10214   5.692  10.340   5.131  2.9382  0.7950  0.6510
  799MOL0     H10215   5.772  10.392   4.989 -0.7021 -2.6501 -2.1653
  799MOL0     H10216   5.692  10.636   5.045  3.9596  0.6009 -0.3221
  799MOL0     H10217   5.632  10.566   5.205  1.3743  1.7262  1.0907
  799MOL0     H10218   5.819  10.597   5.281  0.1611 -0.7872  0.4242
  799MOL0     H10219   5.893  10.485   5.178  2.5778  1.3694  0.4481
  799MOL0     H10220   6.068  10.576   5.269 -1.4302  0.0893 -0.9724
  799MOL0     H10221   6.312  10.633   5.474  0.9039 -2.0239 -0.0096
  799MOL0     H10222   6.425  10.636   5.347  0.6797 -3.2376  1.5844
  799MOL0     H10223   6.287  10.528   5.334  2.1718  0.1940 -2.2728
  799MOL0     H10224   6.679  10.997   5.329 -2.0868  0.1013  1.9903
  799MOL0     H10225   6.834  11.151   5.457 -0.3875 -1.9531  0.2209
  799MOL0     H10226   6.728  11.456   5.701  0.6805  2.5535  0.2579
  799MOL0     H10227   6.820  11.300   5.675  0.0339  0.0806 -1.7051
  799MOL0     H10228   6.949  11.463   5.772  2.6914 -0.6281 -0.7780
  799MOL0     H10229   7.015  11.432   5.617  0.1541 -0.0104  0.5690
  799MOL0     H10230   6.866  11.684   5.692  0.0511 -3.6369  3.3248
  799MOL0     H10231   6.920  11.634   5.527  1.7567 -0.0061  0.4405
  799MOL0     H10232   7.152  11.627   5.589 -0.4948 -0.8722 -0.6612
  799MOL0     H10233   7.114  11.688   5.753  0.5631  2.6688 -0.9325
  799MOL0     H10234   7.069  11.844   5.494 -0.4596  1.8148 -0.3264
  799MOL0     H10235   7.010  11.890   5.653 -1.3740 -2.3188 -0.2818
  799MOL0     H10236   7.295  11.821   5.567  3.2556  0.6349  2.1992
  799MOL0     H10237   7.259  11.868   5.734 -0.1605  0.1977  0.5562
  799MOL0     H10238   7.206  12.099   5.647 -0.7528 -1.5154  0.6889
  799MOL0     H10239   7.234  12.043   5.482  4.0460  2.8395 -1.3786
  799MOL0     H10240   7.465  11.988   5.540  0.7183  0.2831  0.5382
  799MOL0     H10241   7.422  12.018   5.720 -1.5278 -0.7464  0.4960
  799MOL0     H10242   6.520  11.449   5.473  3.7243  1.4623 -1.4537
  799MOL0     H10243   6.367  11.275   5.375 -0.4564 -4.3302  2.2588
  799MOL0     H10244   6.201  11.025   5.132 -1.0500 -1.6614 -2.6276
  799MOL0     H10245   6.016  10.931   5.045  4.3766  2.9538 -0.0815
  799MOL0     H10246   4.547  10.049   4.636  0.4694 -0.5568 -0.5576
  799MOL0     H10247   4.296  10.082   4.631 -0.2177  0.9032  1.2376
  799MOL0     H10248   3.895   9.840   4.809 -2.8498 -0.5055  2.4432
  799MOL0     H10249   3.649   9.907   4.803  0.6289  0.1020 -0.4668
  799MOL0     H10250   3.424   9.760   4.601  0.1985 -0.5550  1.5235
  799MOL0     H10251   3.300   9.892   4.595 -0.1296  0.1121 -0.9541
  799MOL0     H10252   3.291   9.773   4.390  1.3717 -3.1447 -1.3629
  799MOL0     H10253   3.458   9.775   4.354 -1.2761 -0.1937 -0.4598
  799MOL0     H10254   3.297  10.030   4.386 -1.5429 -0.8443 -0.9276
  799MOL0     H10255   3.466  10.021   4.346 -0.4713  0.9168 -1.8066
  799MOL0     H10256   3.437   9.925   4.133  0.2942  0.1392 -0.5095
  799MOL0     H10257   3.352  10.076   4.155  0.1668  1.3798  2.0893
  799MOL0     H10258   3.011   9.845   4.093 -0.9924  3.1225 -0.3604
  799MOL0     H10259   3.646   9.899   4.381  0.2589 -0.2159 -0.3636
  799MOL0     H10260   3.956   9.747   4.332 -0.3081  0.1580  3.3479
  799MOL0     H10261   3.821   9.826   4.260 -1.5918 -1.4467  2.3583
  799MOL0     H10262   3.959   9.926   4.310  0.0850 -0.6576 -2.0457
  800MOL0     O10263   7.451   7.559   7.400 -0.2561 -0.3294 -0.4125
  800MOL0     C10264   7.499   7.467   7.463 -0.7496 -0.0990 -0.0491
  800MOL0     O10265   7.631   7.446   7.470 -0.0941 -0.2274  0.3172
  800MOL0     C10266   7.724   7.549   7.471 -0.7316 -1.2877 -0.1078
  800MOL0     C10267   7.695   7.672   7.526  0.9999  0.2520 -0.3022
  800MOL0     C10268   7.782   7.779   7.497  0.0599  0.4629 -0.2612
  800MOL0     C10269   7.910   7.767   7.432  0.9378  0.1102  0.3274
  800MOL0     O10270   7.999   7.864   7.429  0.0488  0.6469  0.8929
  800MOL0     C10271   7.976   7.989   7.491  0.5175  0.2007 -0.6297
  800MOL0     C10272   8.115   8.061   7.499 -0.3949  0.2294  0.0445
  800MOL0     C10273   8.167   8.113   7.358  0.7884 -0.4535 -0.2526
  800MOL0     C10274   8.311   8.121   7.350 -0.0833 -0.0578 -0.8344
  800MOL0     C10275   8.356   7.982   7.317 -0.1690  0.0622  1.1138
  800MOL0     C10276   8.504   8.000   7.273  0.1150 -0.7590 -0.2420
  800MOL0     C10277   8.592   8.040   7.394  0.2043 -0.2083  0.4689
  800MOL0     C10278   8.743   8.022   7.361 -0.1930  0.0059 -1.6332
  800MOL0     N10279   8.830   8.042   7.484 -0.1210 -0.2899  0.0893
  800MOL0     C10280   8.886   8.160   7.523 -0.1354  0.3931  0.4282
  800MOL0     C10281   8.970   8.123   7.623 -0.7192 -0.9222  1.0027
  800MOL0     C10282   9.064   8.217   7.702 -0.2859 -0.5796  0.1312
  800MOL0     C10283   9.199   8.237   7.635 -0.1011 -0.3687  0.0095
  800MOL0     C10284   9.297   8.120   7.654 -0.9140  0.0823  0.5022
  800MOL0     C10285   9.451   8.143   7.630 -0.6379  0.1443  0.2200
  800MOL0     O10286   9.497   8.255   7.712  0.0908  0.7486  0.5384
  800MOL0     C10287   9.637   8.262   7.721 -0.3065  0.3784 -0.1415
  800MOL0     C10288   9.693   8.356   7.808 -0.2418  0.4621 -0.4630
  800MOL0     C10289   9.826   8.345   7.843 -0.4672 -0.3570 -0.3166
  800MOL0     C10290   9.861   8.440   7.963 -0.0457 -0.3226  0.4061
  800MOL0     C10291   9.919   8.263   7.773  0.1748 -0.5092 -0.3542
  800MOL0     C10292  10.060   8.263   7.787  0.0264  0.7886 -0.5665
  800MOL0     O10293  10.116   8.140   7.767  0.0610 -0.1753 -0.6735
  800MOL0     C10294  10.244   8.122   7.720  0.6261  0.0813 -0.2809
  800MOL0     C10295  10.304   8.212   7.637  0.1933  0.6168 -0.5584
  800MOL0     C10296  10.431   8.195   7.588  0.0289 -0.3463 -0.1446
  800MOL0     C10297  10.516   8.090   7.639  0.8272  0.7474 -0.2545
  800MOL0     O10298  10.647   8.059   7.607  0.1862  0.0540  0.7181
  800MOL0     C10299  10.711   8.124   7.495  0.4153 -0.2551  0.3723
  800MOL0     C10300  10.863   8.106   7.485 -0.6809  0.7645 -0.0797
  800MOL0     C10301  10.907   8.178   7.350  0.0835 -0.5829  0.3450
  800MOL0     C10302  11.052   8.219   7.351  0.3375 -0.2773  0.5728
  800MOL0     C10303  11.092   8.307   7.228  0.5083  0.4531  0.2901
  800MOL0     C10304  11.062   8.248   7.088  0.4410  0.8374 -0.2248
  800MOL0     C10305  11.120   8.336   6.978 -0.2089 -0.2071 -0.0191
  800MOL0     C10306  11.112   8.263   6.845 -0.4272 -0.0831  0.0685
  800MOL0    Cl10307  11.139   8.373   6.715  0.2398  0.1130 -0.3917
  800MOL0     C10308  10.456   7.990   7.722 -0.2435  0.1325  0.5106
  800MOL0     C10309  10.319   8.006   7.762  0.0235  0.5719  1.2273
  800MOL0     O10310  10.118   8.362   7.837  1.0101 -0.2209  0.3108
  800MOL0     C10311   9.862   8.183   7.674 -0.1678 -0.0790  0.7690
  800MOL0     C10312   9.725   8.170   7.657 -0.0772  1.1091  0.2363
  800MOL0     N10313   8.962   7.984   7.634  0.1602  0.5879 -0.1032
  800MOL0     N10314   8.883   7.938   7.550  0.7608  0.2630 -0.2806
  800MOL0     C10315   7.936   7.635   7.400  0.0097  0.5233  0.2903
  800MOL0     C10316   7.852   7.528   7.417 -0.2227  0.4064 -1.2273
  800MOL0     C10317   7.405   7.370   7.521 -0.1542  0.2755  1.0987
  800MOL0     C10318   7.416   7.241   7.465  0.5742 -0.4944 -0.1489
  800MOL0     C10319   7.343   7.134   7.523  0.5901  0.5379 -0.1462
  800MOL0     C10320   7.261   7.159   7.634  0.2064  0.4864 -1.0051
  800MOL0     O10321   7.190   7.065   7.710  0.3636  0.2141 -0.2928
  800MOL0     C10322   7.224   6.926   7.678  0.5735 -0.3624 -0.0039
  800MOL0     C10323   7.166   6.840   7.784  0.2616 -0.3876 -0.3937
  800MOL0     C10324   7.024   6.884   7.816  0.7141 -0.1154 -1.0039
  800MOL0     C10325   6.967   6.804   7.936 -0.1950 -0.1864 -0.2643
  800MOL0     C10326   6.934   6.665   7.899 -0.3172 -0.1268 -0.9591
  800MOL0     C10327   6.888   6.559   7.866 -0.0924 -0.2220  0.5638
  800MOL0     C10328   7.233   7.291   7.673 -0.2476 -0.2078 -0.7237
  800MOL0     C10329   7.315   7.397   7.622 -0.4089  0.5138  0.0606
  800MOL0     C10330   7.286   7.535   7.677 -0.5082 -0.6644  0.3140
  800MOL0     H10331   7.611   7.669   7.594 -0.2529  5.5130 -1.1541
  800MOL0     H10332   7.745   7.878   7.522 -0.2836  1.5608 -4.3901
  800MOL0     H10333   7.942   7.977   7.594  1.6229  1.5686 -0.0724
  800MOL0     H10334   7.897   8.049   7.447  0.6482  0.7277 -0.1504
  800MOL0     H10335   8.114   8.147   7.567 -1.5568  0.1002  0.2127
  800MOL0     H10336   8.188   7.992   7.543 -1.0176  1.5646  3.4750
  800MOL0     H10337   8.125   8.061   7.272  1.4180 -1.1436 -0.1488
  800MOL0     H10338   8.120   8.212   7.360 -1.7505 -1.5235  2.8943
  800MOL0     H10339   8.340   8.193   7.274 -0.7785 -1.3575 -2.4046
  800MOL0     H10340   8.345   8.156   7.447 -1.6706  3.4775 -1.4113
  800MOL0     H10341   8.305   7.950   7.225  0.3575 -2.8438  1.7557
  800MOL0     H10342   8.347   7.901   7.389 -0.0470 -1.4121 -0.4580
  800MOL0     H10343   8.547   7.908   7.233  2.3825  0.5104 -0.8633
  800MOL0     H10344   8.497   8.072   7.191  1.4169  1.3015  1.3654
  800MOL0     H10345   8.574   7.979   7.482 -0.1678 -1.2163 -0.2784
  800MOL0     H10346   8.580   8.147   7.410  5.3064  0.5513  0.8806
  800MOL0     H10347   8.756   7.921   7.320 -1.3338 -1.1568  0.6740
  800MOL0     H10348   8.778   8.100   7.292 -0.0991 -0.0730 -1.6759
  800MOL0     H10349   8.866   8.260   7.487 -1.5265  0.2053  0.6084
  800MOL0     H10350   9.089   8.191   7.805  1.3305  0.0188 -0.0882
  800MOL0     H10351   9.008   8.311   7.706  1.5360  0.4908  2.4990
  800MOL0     H10352   9.186   8.269   7.531 -1.5198 -1.7275 -0.2582
  800MOL0     H10353   9.261   8.315   7.681  0.8034 -0.4627 -1.0003
  800MOL0     H10354   9.295   8.080   7.756 -0.8440 -0.8563  0.1512
  800MOL0     H10355   9.264   8.046   7.580 -0.6748  1.1153 -0.6620
  800MOL0     H10356   9.497   8.046   7.651  2.2446  1.5213  0.7749
  800MOL0     H10357   9.481   8.164   7.527 -2.5043 -0.2195 -0.4387
  800MOL0     H10358   9.628   8.424   7.863 -0.4163 -0.4327  0.4854
  800MOL0     H10359   9.889   8.386   8.053 -0.1076 -0.0676  0.5787
  800MOL0     H10360   9.776   8.497   7.999  1.1909  2.1990 -0.4345
  800MOL0     H10361   9.945   8.504   7.934 -0.6623 -0.2127 -1.3035
  800MOL0     H10362  10.251   8.297   7.597  1.5857  0.7605 -2.2181
  800MOL0     H10363  10.458   8.274   7.517 -2.1628  0.3234 -0.2985
  800MOL0     H10364  10.664   8.087   7.403 -3.3629 -1.5494  2.5996
  800MOL0     H10365  10.698   8.232   7.502 -1.1375 -0.4212  0.5545
  800MOL0     H10366  10.901   8.148   7.578  0.5815 -0.2215 -0.1216
  800MOL0     H10367  10.889   8.000   7.484 -0.8153  0.7317 -0.7880
  800MOL0     H10368  10.844   8.267   7.342 -1.2513 -1.0650  3.6301
  800MOL0     H10369  10.891   8.117   7.261  0.9500  0.4686 -0.5593
  800MOL0     H10370  11.103   8.122   7.353  0.7896 -0.0770 -0.5998
  800MOL0     H10371  11.068   8.270   7.447 -1.2169  0.2555  0.5776
  800MOL0     H10372  11.037   8.398   7.253  0.8684  0.2946  1.7398
  800MOL0     H10373  11.197   8.337   7.240  0.7609  0.3055 -1.3375
  800MOL0     H10374  10.954   8.234   7.083  0.3943 -1.1822  3.3866
  800MOL0     H10375  11.109   8.149   7.091  2.1683  1.5136 -2.1673
  800MOL0     H10376  11.224   8.365   6.994  0.9356 -4.0131  0.2221
  800MOL0     H10377  11.073   8.435   6.973  0.2812  0.0874  0.8379
  800MOL0     H10378  11.012   8.222   6.830  1.3036 -4.2634 -1.7742
  800MOL0     H10379  11.184   8.180   6.840 -0.0282  0.2890 -0.4583
  800MOL0     H10380  10.512   7.907   7.763 -2.4977 -1.1089  1.3016
  800MOL0     H10381  10.267   7.934   7.824 -0.0331 -3.3044 -2.8623
  800MOL0     H10382   9.925   8.121   7.611 -1.0631 -1.5703  1.2913
  800MOL0     H10383   9.697   8.101   7.578  1.5839  0.1046  0.4854
  800MOL0     H10384   8.033   7.614   7.356 -0.3482 -1.2758  0.2860
  800MOL0     H10385   7.905   7.434   7.405 -0.2304  0.0170  1.2333
  800MOL0     H10386   7.477   7.230   7.376  0.3064 -0.2909 -0.3585
  800MOL0     H10387   7.360   7.032   7.490 -0.7216  0.8417 -1.8431
  800MOL0     H10388   7.188   6.885   7.583 -2.9612 -2.2931  1.9379
  800MOL0     H10389   7.331   6.909   7.688  0.6722 -0.3566 -1.0210
  800MOL0     H10390   7.233   6.848   7.870 -0.4816  0.3390  0.1337
  800MOL0     H10391   7.169   6.738   7.742 -1.4412 -0.1487 -1.2275
  800MOL0     H10392   7.020   6.988   7.849 -0.3496  0.8151 -3.7594
  800MOL0     H10393   6.962   6.898   7.727 -1.3710 -2.0974  0.0174
  800MOL0     H10394   6.876   6.851   7.976  0.5845 -0.4915  1.9971
  800MOL0     H10395   7.052   6.800   8.004  1.9172  1.4390 -2.6450
  800MOL0     H10396   6.834   6.469   7.846 -0.9060  0.2301  0.6486
  800MOL0     H10397   7.194   7.314   7.772  0.2027  0.1411 -0.6255
  800MOL0     H10398   7.370   7.603   7.659 -1.7663  0.6681 -0.7469
  800MOL0     H10399   7.190   7.569   7.639 -0.6674 -0.9876  0.4270
  800MOL0     H10400   7.275   7.531   7.786 -0.9124  3.9876  0.6233
  801MOL0     O10401   2.863  11.053   0.530  0.2175 -0.2745  0.1423
  801MOL0     C10402   2.842  11.096   0.633  0.7115  0.1422  0.5875
  801MOL0     O10403   2.760  11.046   0.728 -0.0791  0.2431 -0.3376
  801MOL0     C10404   2.655  10.958   0.728 -0.5066 -0.9845 -0.1373
  801MOL0     C10405   2.615  10.901   0.847 -0.0212 -0.3317  0.2737
  801MOL0     C10406   2.529  10.794   0.855 -0.0990  0.5176 -1.0376
  801MOL0     C10407   2.463  10.746   0.739  0.2902  0.0603  0.9387
  801MOL0     O10408   2.357  10.658   0.754  0.4823 -0.5633  0.0149
  801MOL0     C10409   2.292  10.616   0.633  0.4496  0.2518 -0.4080
  801MOL0     C10410   2.156  10.544   0.668  0.6869 -0.0595  0.1887
  801MOL0     C10411   2.075  10.498   0.544  0.5192 -0.6408  0.6497
  801MOL0     C10412   1.969  10.395   0.578  0.6079  0.0681 -0.0347
  801MOL0     C10413   1.896  10.350   0.445  0.2095 -0.0980  0.4606
  801MOL0     C10414   1.782  10.262   0.483 -1.0597  0.9246 -0.1252
  801MOL0     C10415   1.700  10.255   0.363  0.6570  0.3714 -0.6931
  801MOL0     C10416   1.590  10.148   0.388 -0.8295 -0.2846  0.2346
  801MOL0     N10417   1.490  10.122   0.290  0.5706 -0.2378 -0.3283
  801MOL0     C10418   1.481  10.027   0.196 -0.7864 -0.4327  0.4876
  801MOL0     C10419   1.368  10.066   0.128  0.4741  0.4096  0.2606
  801MOL0     C10420   1.308  10.001   0.006 -0.0675 -0.3381 -0.5498
  801MOL0     C10421   1.398  10.018  -0.114 -0.4990 -0.4224 -0.1847
  801MOL0     C10422   1.402  10.154  -0.181  1.5915  0.0330 -0.4244
  801MOL0     C10423   1.483  10.136  -0.305 -0.3433 -0.7089  0.1648
  801MOL0     O10424   1.620  10.128  -0.256 -0.7755 -0.2290 -0.5962
  801MOL0     C10425   1.719  10.147  -0.346 -0.4455  0.9383  0.3522
  801MOL0     C10426   1.705  10.170  -0.485 -0.3825  0.3211  0.3156
  801MOL0     C10427   1.813  10.187  -0.568 -0.4769 -0.4999 -0.2214
  801MOL0     C10428   1.787  10.214  -0.718 -0.6059  0.1625 -0.4578
  801MOL0     C10429   1.941  10.178  -0.512 -0.1038  0.5860 -0.6207
  801MOL0     C10430   2.071  10.174  -0.591  0.6994 -0.0775  0.4309
  801MOL0     O10431   2.187  10.225  -0.533 -0.6077 -0.6581 -0.3801
  801MOL0     C10432   2.285  10.289  -0.612 -0.1992  0.4638 -0.9233
  801MOL0     C10433   2.340  10.237  -0.734 -0.8179 -0.5571  0.1190
  801MOL0     C10434   2.441  10.301  -0.802  0.3378  0.1284  0.9079
  801MOL0     C10435   2.484  10.422  -0.759 -0.4305 -0.6083 -1.1660
  801MOL0     O10436   2.577  10.466  -0.852 -0.5319 -0.2229 -0.3126
  801MOL0     C10437   2.682  10.537  -0.790  0.3459 -0.8957 -0.4522
  801MOL0     C10438   2.764  10.597  -0.903  0.1426  0.0182  0.4066
  801MOL0     C10439   2.890  10.679  -0.856  1.1778 -0.0294 -0.7196
  801MOL0     C10440   2.892  10.810  -0.926 -0.0233 -0.0578  0.2344
  801MOL0     C10441   2.994  10.910  -0.881 -0.7771  0.5948 -0.1640
  801MOL0     C10442   3.009  11.040  -0.967  0.6473  0.7839 -0.3066
  801MOL0     C10443   3.057  11.018  -1.113  0.0224 -0.2523  0.2991
  801MOL0     C10444   3.189  10.947  -1.136 -0.2332  0.1809  0.8006
  801MOL0    Cl10445   3.319  11.038  -1.065 -0.0539  0.5445  0.1456
  801MOL0     C10446   2.445  10.474  -0.629  0.2027  0.6947  0.5502
  801MOL0     C10447   2.335  10.411  -0.560  0.0281  1.0670  0.0287
  801MOL0     O10448   2.058  10.134  -0.705 -0.6419  0.2580  0.1461
  801MOL0     C10449   1.959  10.161  -0.372  0.2397  0.4355 -0.0428
  801MOL0     C10450   1.845  10.153  -0.291 -0.2614 -0.4630 -1.0583
  801MOL0     N10451   1.320  10.185   0.175 -0.2095 -0.5191 -0.0993
  801MOL0     N10452   1.391  10.220   0.277 -1.3076 -0.8251  0.0966
  801MOL0     C10453   2.512  10.794   0.617  0.3234 -0.1169  0.4124
  801MOL0     C10454   2.602  10.899   0.613 -0.7427 -0.2911  0.2479
  801MOL0     C10455   2.926  11.200   0.678 -0.9748  0.1332 -0.1713
  801MOL0     C10456   2.974  11.185   0.810 -0.4740  0.4000  0.3932
  801MOL0     C10457   3.064  11.279   0.866  0.2873  0.0066  0.0582
  801MOL0     C10458   3.102  11.386   0.795 -0.6592  0.1257 -0.5572
  801MOL0     O10459   3.193  11.478   0.836 -0.2177 -0.1654  0.4153
  801MOL0     C10460   3.165  11.535   0.966 -0.3278 -0.1199 -0.1428
  801MOL0     C10461   3.276  11.647   0.993 -0.0699  0.5383 -0.2854
  801MOL0     C10462   3.252  11.766   0.901  1.0561  1.0977 -0.3259
  801MOL0     C10463   3.369  11.862   0.891  0.5604 -0.0197 -0.3946
  801MOL0     C10464   3.336  11.986   0.820  0.0851 -0.1656 -0.0873
  801MOL0     C10465   3.314  12.093   0.761  0.1332 -0.6506  1.1284
  801MOL0     C10466   3.056  11.397   0.653  0.2631  0.1318 -0.0086
  801MOL0     C10467   2.973  11.302   0.592  0.3029  0.1204 -0.5751
  801MOL0     C10468   2.911  11.335   0.460  0.9535 -0.2440  0.3859
  801MOL0     H10469   2.670  10.931   0.936  0.0182  1.5755 -0.3674
  801MOL0     H10470   2.517  10.738   0.947  0.1470  0.2136 -1.1874
  801MOL0     H10471   2.359  10.547   0.579  2.2354  2.0020 -0.5552
  801MOL0     H10472   2.277  10.708   0.576  0.8861  0.2276 -0.5648
  801MOL0     H10473   2.187  10.456   0.724  1.8955 -0.0218 -0.4024
  801MOL0     H10474   2.093  10.607   0.732 -1.5393 -2.5985  0.6972
  801MOL0     H10475   2.023  10.589   0.513  0.8083 -0.4900  0.6097
  801MOL0     H10476   2.145  10.456   0.472 -0.7734 -1.6173 -0.0880
  801MOL0     H10477   2.017  10.311   0.630  1.1832  0.7839  0.6178
  801MOL0     H10478   1.899  10.437   0.651  2.2052  0.6634  1.2218
  801MOL0     H10479   1.969  10.298   0.382  2.0351  0.5207  1.9766
  801MOL0     H10480   1.852  10.436   0.394  0.8292 -1.0317 -1.7581
  801MOL0     H10481   1.811  10.163   0.517 -3.1298  0.5675  0.7928
  801MOL0     H10482   1.733  10.307   0.570  1.5733  2.9200  0.4342
  801MOL0     H10483   1.756  10.213   0.278  0.0746 -1.6699 -0.1180
  801MOL0     H10484   1.655  10.352   0.338  1.0302  1.2532  1.7762
  801MOL0     H10485   1.626  10.051   0.423  0.5012  0.4365  0.9211
  801MOL0     H10486   1.530  10.193   0.468 -0.0601  2.8033 -0.7775
  801MOL0     H10487   1.557   9.955   0.169 -1.2471 -0.8317  0.2400
  801MOL0     H10488   1.222  10.063  -0.020  0.1632 -0.0250 -0.5694
  801MOL0     H10489   1.285   9.894   0.013  0.0441 -0.3226  0.1555
  801MOL0     H10490   1.503   9.997  -0.092  0.2255  0.6519 -2.3546
  801MOL0     H10491   1.376   9.944  -0.192 -0.2008  1.1920 -1.8571
  801MOL0     H10492   1.300  10.185  -0.207  0.4301 -1.1159  2.3187
  801MOL0     H10493   1.432  10.239  -0.118 -2.2475  0.5804  0.9177
  801MOL0     H10494   1.455  10.050  -0.368 -1.7271  0.5129 -0.9799
  801MOL0     H10495   1.469  10.222  -0.372  3.2029  0.3877  0.6296
  801MOL0     H10496   1.606  10.192  -0.524 -0.0122  1.5592  0.0337
  801MOL0     H10497   1.816  10.126  -0.775  0.2398 -0.9269  1.5542
  801MOL0     H10498   1.853  10.294  -0.752  0.8472 -0.1510  1.4439
  801MOL0     H10499   1.682  10.242  -0.729 -0.3969  2.2267  1.7480
  801MOL0     H10500   2.316  10.137  -0.767  0.8151 -0.9358 -0.0256
  801MOL0     H10501   2.478  10.260  -0.895 -0.9414  0.4086  0.2444
  801MOL0     H10502   2.654  10.625  -0.730  0.0701  1.2347 -3.4745
  801MOL0     H10503   2.742  10.466  -0.732  0.2889 -1.6025 -1.2502
  801MOL0     H10504   2.799  10.526  -0.979  1.4851  1.0602 -0.0009
  801MOL0     H10505   2.694  10.658  -0.961 -0.0813 -0.8494 -0.2612
  801MOL0     H10506   2.981  10.627  -0.886  2.8736  0.8140  2.4865
  801MOL0     H10507   2.882  10.693  -0.748 -1.4010 -2.2447 -0.5323
  801MOL0     H10508   2.799  10.868  -0.916  0.5382  0.5709  2.5007
  801MOL0     H10509   2.903  10.788  -1.032  1.8284 -2.3980  0.8418
  801MOL0     H10510   2.977  10.938  -0.776 -1.4331 -1.8371  0.4548
  801MOL0     H10511   3.092  10.863  -0.885 -1.1050 -0.0878 -0.3325
  801MOL0     H10512   3.086  11.105  -0.924  0.0576  0.4980  1.2367
  801MOL0     H10513   2.917  11.098  -0.978  0.2086  0.3159  0.7615
  801MOL0     H10514   3.051  11.111  -1.171  0.9249 -1.5504 -2.0626
  801MOL0     H10515   2.977  10.958  -1.157  0.6953 -3.2945  2.9195
  801MOL0     H10516   3.211  10.952  -1.242 -0.3472 -0.2366  0.7545
  801MOL0     H10517   3.194  10.845  -1.096 -2.4386 -0.9237 -1.5095
  801MOL0     H10518   2.489  10.564  -0.587  0.1686  0.3452  1.3433
  801MOL0     H10519   2.300  10.449  -0.465  2.0901 -0.8686  1.6856
  801MOL0     H10520   2.058  10.150  -0.329  1.3451 -1.9573 -2.8409
  801MOL0     H10521   1.855  10.133  -0.185 -3.2642  1.0625 -0.3681
  801MOL0     H10522   2.478  10.742   0.527  1.3012  1.2436 -0.7918
  801MOL0     H10523   2.636  10.919   0.512 -0.1800  0.1545  0.5201
  801MOL0     H10524   2.934  11.108   0.875 -0.8074  0.5908  0.4172
  801MOL0     H10525   3.093  11.258   0.968 -0.6718 -0.4969  0.2449
  801MOL0     H10526   3.064  11.577   0.974  0.2887  1.1072  1.9107
  801MOL0     H10527   3.165  11.458   1.043  1.7365 -0.9218 -0.8874
  801MOL0     H10528   3.370  11.595   0.974 -0.1511 -0.5831  1.9662
  801MOL0     H10529   3.288  11.675   1.099  0.6613  0.7795 -0.4238
  801MOL0     H10530   3.204  11.734   0.808 -3.0309 -0.2681  1.9740
  801MOL0     H10531   3.172  11.826   0.946 -0.3831 -2.6003  2.6791
  801MOL0     H10532   3.445  11.823   0.823 -1.5326 -0.8148 -2.3902
  801MOL0     H10533   3.413  11.884   0.989 -2.3190  0.4700  0.8627
  801MOL0     H10534   3.284  12.182   0.708  0.4263 -1.5564 -0.6227
  801MOL0     H10535   3.080  11.486   0.595 -0.6106 -0.1009 -0.7478
  801MOL0     H10536   2.805  11.328   0.487  1.6024 -3.2730  2.7945
  801MOL0     H10537   2.939  11.431   0.418 -2.9822  0.0273 -2.0627
  801MOL0     H10538   2.929  11.251   0.393  1.2886 -0.8647  1.2262
  802MOL0     O10539   3.245   2.765   3.528 -0.3784  0.6430  0.1616
  802MOL0     C10540   3.159   2.829   3.581  0.1450 -0.1660  0.5110
  802MOL0     O10541   3.142   2.970   3.570  0.0434  0.2438 -0.1354
  802MOL0     C10542   3.209   3.047   3.477 -0.2176 -0.0596  0.6757
  802MOL0     C10543   3.141   3.146   3.411  0.2243 -0.9230 -0.5524
  802MOL0     C10544   3.204   3.234   3.313  0.2555 -0.6070  0.3622
  802MOL0     C10545   3.338   3.210   3.282 -0.1722  0.6608 -0.0804
  802MOL0     O10546   3.407   3.287   3.188 -0.1630  0.0602  0.2625
  802MOL0     C10547   3.509   3.224   3.110 -0.1149  0.3774  0.5996
  802MOL0     C10548   3.565   3.329   3.012 -1.1848  1.0539 -0.9428
  802MOL0     C10549   3.648   3.435   3.093 -0.4212  0.2674  0.6817
  802MOL0     C10550   3.749   3.507   2.997  0.1738  0.0271 -0.0189
  802MOL0     C10551   3.878   3.432   2.972 -0.3186 -0.1339 -0.1861
  802MOL0     C10552   3.959   3.416   3.099 -0.8329 -0.5224  0.0986
  802MOL0     C10553   4.106   3.394   3.062 -0.5434 -0.1693  0.2467
  802MOL0     C10554   4.167   3.530   3.042 -1.0914 -0.1421 -0.0213
  802MOL0     N10555   4.220   3.581   3.165 -0.2716  0.2070 -0.4328
  802MOL0     C10556   4.323   3.525   3.237  0.0463  0.0382  1.1012
  802MOL0     C10557   4.370   3.625   3.316  0.5434  0.8762 -0.3469
  802MOL0     C10558   4.476   3.626   3.418 -0.4533  0.9684 -0.1371
  802MOL0     C10559   4.612   3.675   3.357 -0.2059  0.1164 -0.6894
  802MOL0     C10560   4.647   3.819   3.395 -0.8939  0.5558  0.3337
  802MOL0     C10561   4.805   3.846   3.363 -0.7980  0.1533  0.3775
  802MOL0     O10562   4.893   3.749   3.432 -0.1100 -0.5066  0.4805
  802MOL0     C10563   5.031   3.760   3.435  0.6133  0.6652  0.3469
  802MOL0     C10564   5.096   3.665   3.509 -0.5176  0.6804  0.0061
  802MOL0     C10565   5.235   3.668   3.520  1.6269 -0.0381  0.8410
  802MOL0     C10566   5.284   3.560   3.607 -0.4045 -0.6034 -0.9168
  802MOL0     C10567   5.315   3.767   3.455  0.1883  0.9542 -0.3923
  802MOL0     C10568   5.459   3.782   3.481 -0.2114 -0.4730  0.0679
  802MOL0     O10569   5.514   3.898   3.440  0.1186 -0.9219  0.2176
  802MOL0     C10570   5.632   3.938   3.506  0.1169  0.5010  0.4152
  802MOL0     C10571   5.753   3.941   3.426  0.1792 -0.3155  0.5483
  802MOL0     C10572   5.876   3.986   3.476 -0.0359 -0.2088  0.1227
  802MOL0     C10573   5.891   4.033   3.611  0.3500 -0.8899  0.9804
  802MOL0     O10574   6.006   4.078   3.671  0.7274  0.0602  0.3413
  802MOL0     C10575   6.110   4.126   3.590  1.3285  0.0615  0.7524
  802MOL0     C10576   6.213   4.154   3.696  0.1200 -0.7852 -0.1702
  802MOL0     C10577   6.339   4.209   3.631 -1.0233 -0.1023  0.1391
  802MOL0     C10578   6.437   4.239   3.744 -1.1214  0.5748  0.3279
  802MOL0     C10579   6.580   4.271   3.689 -0.0030 -0.6855 -0.0150
  802MOL0     C10580   6.689   4.242   3.796 -0.5299  0.7411  0.1875
  802MOL0     C10581   6.830   4.234   3.735 -0.3617  0.2679  0.3974
  802MOL0     C10582   6.945   4.269   3.829  0.0348 -0.1596  0.5252
  802MOL0    Cl10583   6.929   4.155   3.974 -0.4326 -0.2312  0.2275
  802MOL0     C10584   5.774   4.030   3.683  0.2066  0.0364 -0.9536
  802MOL0     C10585   5.650   3.983   3.635  0.1209  0.5557 -0.7534
  802MOL0     O10586   5.523   3.684   3.519  0.5436  0.2146 -0.2476
  802MOL0     C10587   5.252   3.860   3.379  0.5993  0.2484  0.2855
  802MOL0     C10588   5.113   3.853   3.369 -0.3604 -0.0474  0.8592
  802MOL0     N10589   4.285   3.738   3.293  0.2661  0.0802 -0.3383
  802MOL0     N10590   4.201   3.708   3.209  0.3605 -0.0748 -0.3109
  802MOL0     C10591   3.404   3.127   3.374  0.0791  0.5221 -0.1625
  802MOL0     C10592   3.343   3.036   3.462 -0.5126 -0.0555 -0.0536
  802MOL0     C10593   3.064   2.754   3.673 -0.5257 -0.2614  0.0948
  802MOL0     C10594   3.091   2.613   3.683 -0.3182 -0.5571  0.2693
  802MOL0     C10595   3.019   2.526   3.763 -0.1016 -0.5008 -0.0790
  802MOL0     C10596   2.923   2.591   3.842  0.2176  0.5150 -0.1808
  802MOL0     O10597   2.856   2.519   3.939  0.7612  0.5617  0.2311
  802MOL0     C10598   2.903   2.388   3.977 -0.4732 -0.3730 -1.1116
  802MOL0     C10599   2.834   2.358   4.108  0.6228 -0.1399 -0.3188
  802MOL0     C10600   2.805   2.210   4.138  0.0748 -0.8707  0.1884
  802MOL0     C10601   2.675   2.190   4.208  0.3693 -0.2804  0.2228
  802MOL0     C10602   2.552   2.224   4.132  0.5532 -0.0226  0.0123
  802MOL0     C10603   2.446   2.254   4.086  0.7206  0.6776  0.3997
  802MOL0     C10604   2.883   2.719   3.816  0.6020 -0.0958  0.5409
  802MOL0     C10605   2.953   2.808   3.737 -0.4249  0.0183  0.3900
  802MOL0     C10606   2.918   2.954   3.741 -0.2618  0.1675 -0.1264
  802MOL0     H10607   3.034   3.150   3.423  0.3651 -1.0248  0.8842
  802MOL0     H10608   3.139   3.297   3.255  0.5970 -0.9314 -0.3854
  802MOL0     H10609   3.462   3.148   3.047 -1.1818  2.5088 -1.3024
  802MOL0     H10610   3.587   3.188   3.178 -0.7129  2.5256  2.5377
  802MOL0     H10611   3.628   3.278   2.938 -1.7404 -0.1541 -0.6156
  802MOL0     H10612   3.491   3.375   2.946 -0.0365  3.5927 -0.5611
  802MOL0     H10613   3.567   3.498   3.132 -1.6295  0.6078 -2.1676
  802MOL0     H10614   3.701   3.387   3.176 -1.9310 -0.8603  1.0296
  802MOL0     H10615   3.696   3.532   2.904 -3.3502  3.1632  2.5304
  802MOL0     H10616   3.769   3.604   3.044 -2.1932  1.2916 -1.4258
  802MOL0     H10617   3.931   3.488   2.895  0.9129 -1.5664 -0.4319
  802MOL0     H10618   3.858   3.338   2.921  0.0394  0.1135 -0.7873
  802MOL0     H10619   3.951   3.507   3.159 -2.3872 -0.9616  0.6100
  802MOL0     H10620   3.930   3.328   3.158  0.5687 -0.5777  0.7462
  802MOL0     H10621   4.108   3.336   2.969 -2.0191  2.1921 -1.3842
  802MOL0     H10622   4.171   3.342   3.133  0.5350  0.0518 -0.5461
  802MOL0     H10623   4.240   3.523   2.960  0.1004 -0.0293  1.0023
  802MOL0     H10624   4.086   3.595   3.006 -1.1552 -0.8009 -1.1315
  802MOL0     H10625   4.365   3.425   3.235 -0.4956 -0.1814 -0.0663
  802MOL0     H10626   4.476   3.525   3.459 -2.0636  1.3812  0.9540
  802MOL0     H10627   4.458   3.696   3.499  0.3175  0.2769  0.6536
  802MOL0     H10628   4.695   3.617   3.400  0.6832  2.0749  0.3487
  802MOL0     H10629   4.619   3.649   3.251 -2.0658  2.0311 -1.3418
  802MOL0     H10630   4.583   3.893   3.346 -1.1502 -0.9173 -1.6872
  802MOL0     H10631   4.632   3.830   3.503 -0.8445 -0.8216  0.5041
  802MOL0     H10632   4.809   3.823   3.256 -3.3904 -1.0445  0.4721
  802MOL0     H10633   4.841   3.946   3.391  1.3359 -0.3372 -0.4348
  802MOL0     H10634   5.040   3.578   3.542  0.4607 -0.3254 -0.9290
  802MOL0     H10635   5.213   3.477   3.620 -1.0678  0.2318  1.2050
  802MOL0     H10636   5.296   3.604   3.706 -2.9747 -0.3149 -0.6654
  802MOL0     H10637   5.376   3.511   3.574  2.0839  2.0894  1.5313
  802MOL0     H10638   5.749   3.908   3.323 -1.6871 -2.6471  1.2951
  802MOL0     H10639   5.964   3.989   3.411 -1.4352  1.1807 -1.8309
  802MOL0     H10640   6.155   4.052   3.523  1.8554  2.3820 -1.6570
  802MOL0     H10641   6.083   4.215   3.532 -1.4184  0.2111  2.1263
  802MOL0     H10642   6.184   4.225   3.774 -0.2193  0.9800 -1.8504
  802MOL0     H10643   6.234   4.060   3.749  1.9907 -1.7231 -2.4014
  802MOL0     H10644   6.321   4.304   3.580 -0.9224  0.1481  0.5681
  802MOL0     H10645   6.383   4.133   3.566  0.8260 -3.4518  4.7434
  802MOL0     H10646   6.443   4.150   3.807  0.6508 -0.3778 -1.0887
  802MOL0     H10647   6.395   4.320   3.804 -1.6400  0.4007  0.2099
  802MOL0     H10648   6.607   4.210   3.602  2.0960  1.8130 -1.2356
  802MOL0     H10649   6.583   4.374   3.653 -2.3297 -0.5103  0.0979
  802MOL0     H10650   6.670   4.148   3.848 -1.1734  1.3652  1.1320
  802MOL0     H10651   6.708   4.319   3.872  0.4976 -0.6154  1.3577
  802MOL0     H10652   6.840   4.304   3.652  1.2620 -0.8821 -0.4325
  802MOL0     H10653   6.854   4.137   3.691 -2.4596 -0.9495  1.7855
  802MOL0     H10654   6.930   4.375   3.854 -0.7850  0.2390 -1.4599
  802MOL0     H10655   7.042   4.254   3.781  0.0448  0.4292  0.3435
  802MOL0     H10656   5.780   4.059   3.787  2.3803  1.4205 -1.4077
  802MOL0     H10657   5.573   3.961   3.709  0.3481 -2.1180 -1.2005
  802MOL0     H10658   5.297   3.927   3.306 -2.0760  0.8888 -0.8985
  802MOL0     H10659   5.060   3.928   3.311  1.5311  0.6787 -0.0310
  802MOL0     H10660   3.513   3.125   3.365  0.1970  3.4217 -0.1960
  802MOL0     H10661   3.407   2.974   3.524  1.3425  0.7228 -1.0868
  802MOL0     H10662   3.177   2.574   3.630  1.3210  1.0524  1.6332
  802MOL0     H10663   3.041   2.420   3.756 -2.2938 -1.1302  1.6051
  802MOL0     H10664   2.888   2.322   3.891 -1.0756 -1.0398 -0.5113
  802MOL0     H10665   3.011   2.393   3.993 -0.7608 -0.2593  1.0598
  802MOL0     H10666   2.741   2.412   4.126 -0.0199 -0.7306 -1.7077
  802MOL0     H10667   2.901   2.392   4.187 -2.0534 -0.2627  2.1463
  802MOL0     H10668   2.805   2.162   4.040  2.9628 -0.4478 -0.0954
  802MOL0     H10669   2.884   2.175   4.206  0.0723 -1.3373 -0.0457
  802MOL0     H10670   2.683   2.255   4.295 -0.1195 -3.6193  2.9700
  802MOL0     H10671   2.667   2.084   4.234 -0.0924 -1.2781 -3.3464
  802MOL0     H10672   2.351   2.271   4.040  0.6891 -0.2290  0.1087
  802MOL0     H10673   2.794   2.761   3.860  0.9366  3.7745 -1.9858
  802MOL0     H10674   2.988   3.007   3.805  0.2931 -0.1801 -0.4407
  802MOL0     H10675   2.915   2.995   3.640  0.6893 -1.7007 -0.9661
  802MOL0     H10676   2.814   2.966   3.774 -0.6737 -1.1712 -0.8518
  803MOL0     O10677   0.427   8.214   7.663 -0.1163 -0.4692 -0.4116
  803MOL0     C10678   0.498   8.264   7.576  0.8233 -0.3780 -0.1484
  803MOL0     O10679   0.629   8.292   7.589 -0.8296  0.3841 -0.0471
  803MOL0     C10680   0.704   8.222   7.681 -0.1592  0.1850  0.6549
  803MOL0     C10681   0.757   8.296   7.784  0.2519 -0.1151 -0.0415
  803MOL0     C10682   0.840   8.239   7.874  0.2929  0.1225 -0.3361
  803MOL0     C10683   0.876   8.103   7.861 -0.3397  0.9064  0.9413
  803MOL0     O10684   0.957   8.049   7.955  1.0532 -0.0557 -0.2466
  803MOL0     C10685   0.966   7.903   7.959 -1.0137 -0.6391 -0.0805
  803MOL0     C10686   1.086   7.849   7.879 -0.1673 -0.3773 -0.2363
  803MOL0     C10687   1.212   7.925   7.895  0.4658 -0.3529  0.1934
  803MOL0     C10688   1.335   7.832   7.849  0.2511  0.1868  0.6327
  803MOL0     C10689   1.462   7.864   7.919 -0.5134  0.5212 -0.2016
  803MOL0     C10690   1.515   7.999   7.869  0.3023 -0.4108  0.2888
  803MOL0     C10691   1.638   8.057   7.936  0.1040  0.6664 -0.2147
  803MOL0     C10692   1.700   8.160   7.834 -0.3918 -1.1032 -0.8388
  803MOL0     N10693   1.810   8.240   7.880  0.4318  0.6386  0.4227
  803MOL0     C10694   1.802   8.375   7.876 -0.1218 -0.9750 -0.0187
  803MOL0     C10695   1.923   8.413   7.930  0.0687  0.7391 -0.2526
  803MOL0     C10696   1.957   8.558   7.948  0.0251  1.0624  0.1795
  803MOL0     C10697   2.014   8.628   7.826 -0.7442 -0.4854  0.4389
  803MOL0     C10698   2.147   8.580   7.754 -0.2321  0.3076  0.0846
  803MOL0     C10699   2.270   8.559   7.842  0.8606 -0.1739  0.1905
  803MOL0     O10700   2.325   8.685   7.882 -0.0603  0.5212 -0.6408
  803MOL0     C10701   2.447   8.731   7.827  1.1887 -0.1306  0.4272
  803MOL0     C10702   2.507   8.831   7.903  0.0610  0.1014 -0.1765
  803MOL0     C10703   2.628   8.884   7.868 -0.2349 -0.2737 -1.0491
  803MOL0     C10704   2.688   8.990   7.966 -0.0361 -0.0175  0.2816
  803MOL0     C10705   2.695   8.842   7.762  0.1487 -0.3878  0.1335
  803MOL0     C10706   2.831   8.893   7.726  0.6439  0.0856  0.1633
  803MOL0     O10707   2.925   8.911   7.817 -0.2167 -0.1730 -0.4434
  803MOL0     C10708   3.039   8.984   7.792  0.5144 -0.6502 -0.0901
  803MOL0     C10709   3.072   9.061   7.668  0.5133 -0.8187  0.0077
  803MOL0     C10710   3.202   9.111   7.665  0.1242 -0.6915 -0.4284
  803MOL0     C10711   3.284   9.113   7.776  0.0442  0.2280  0.7777
  803MOL0     O10712   3.408   9.159   7.752  0.0412  0.2440 -0.4236
  803MOL0     C10713   3.522   9.134   7.839  0.2166 -0.7976 -1.1466
  803MOL0     C10714   3.654   9.160   7.767  0.1310 -0.1587  0.1878
  803MOL0     C10715   3.780   9.093   7.834  0.6168 -0.2774 -0.7452
  803MOL0     C10716   3.819   9.140   7.983 -0.1002  0.2996 -0.1649
  803MOL0     C10717   3.825   9.289   8.005 -0.6168  0.4962  0.6733
  803MOL0     C10718   3.884   9.324   8.147  0.0135 -0.5835  0.2475
  803MOL0     C10719   3.841   9.468   8.185 -0.0403  0.0692  0.5350
  803MOL0     C10720   3.925   9.518   8.300 -0.0773 -1.1303  0.6578
  803MOL0    Cl10721   4.066   9.623   8.242  0.2850 -0.0558 -0.1322
  803MOL0     C10722   3.250   9.053   7.895  0.5359 -0.1034  0.3967
  803MOL0     C10723   3.128   8.992   7.901  0.2579  0.5475 -0.0403
  803MOL0     O10724   2.852   8.898   7.608  0.6308 -0.5167 -0.7685
  803MOL0     C10725   2.639   8.739   7.680 -0.2316 -0.1865 -0.0454
  803MOL0     C10726   2.521   8.677   7.715  0.5289 -0.3291  0.6039
  803MOL0     N10727   2.001   8.299   7.962  0.0689 -0.6514 -0.8392
  803MOL0     N10728   1.931   8.196   7.926 -0.2870 -0.3753  0.2162
  803MOL0     C10729   0.830   8.034   7.747  0.1787 -0.1835 -0.2728
  803MOL0     C10730   0.741   8.089   7.657  0.1090  0.1489 -0.1310
  803MOL0     C10731   0.433   8.307   7.451  0.0544 -0.5813  0.5614
  803MOL0     C10732   0.523   8.314   7.336 -0.6037 -0.0541 -0.0518
  803MOL0     C10733   0.473   8.351   7.219  0.3963  0.1177 -0.2335
  803MOL0     C10734   0.340   8.386   7.204  0.1332  0.2200  0.5975
  803MOL0     O10735   0.308   8.456   7.089  0.2201  0.2011  0.2200
  803MOL0     C10736   0.189   8.426   7.014  0.2819  0.5622  0.4171
  803MOL0     C10737   0.206   8.452   6.859 -0.5027  0.4093 -0.5662
  803MOL0     C10738   0.099   8.384   6.779 -0.1752 -0.4116  0.4428
  803MOL0     C10739   0.088   8.422   6.628  0.0778  0.1149 -0.1146
  803MOL0     C10740   0.214   8.390   6.558  0.2114 -0.5944  1.0742
  803MOL0     C10741   0.311   8.369   6.484  0.5269  0.0427  0.7839
  803MOL0     C10742   0.252   8.368   7.303  0.1664 -0.2133 -0.0877
  803MOL0     C10743   0.293   8.323   7.431  0.2706  0.3755 -1.0158
  803MOL0     C10744   0.187   8.313   7.539  0.4163  0.8632 -0.5611
  803MOL0     H10745   0.734   8.400   7.806  1.0983  0.1852 -0.5391
  803MOL0     H10746   0.889   8.286   7.959  2.9482 -0.3546 -1.4930
  803MOL0     H10747   0.874   7.851   7.931 -2.3032  1.3245  0.3551
  803MOL0     H10748   0.984   7.874   8.063  1.4845  0.3786 -0.1603
  803MOL0     H10749   1.102   7.747   7.916  1.4789  0.1951  0.7304
  803MOL0     H10750   1.054   7.844   7.774 -1.0499  0.4849 -0.0239
  803MOL0     H10751   1.215   8.019   7.839 -1.5803  1.2411  2.5382
  803MOL0     H10752   1.227   7.958   7.998  2.0302  1.8156 -0.6374
  803MOL0     H10753   1.317   7.726   7.868 -0.6689  0.5572  1.9869
  803MOL0     H10754   1.352   7.849   7.742  1.9232  0.8683  0.9744
  803MOL0     H10755   1.533   7.784   7.897 -0.7368  0.8173 -2.1612
  803MOL0     H10756   1.435   7.866   8.025 -3.2803  1.8542 -0.8589
  803MOL0     H10757   1.518   8.001   7.760 -0.9617 -0.4599  0.2397
  803MOL0     H10758   1.440   8.078   7.879  1.7890  1.2368 -1.0191
  803MOL0     H10759   1.719   7.984   7.945  0.1808  0.7889  0.1006
  803MOL0     H10760   1.604   8.109   8.026  1.5302  0.4075  0.5134
  803MOL0     H10761   1.731   8.108   7.743  1.1753 -0.9170 -0.4285
  803MOL0     H10762   1.616   8.225   7.810 -0.0183  0.5150  1.8378
  803MOL0     H10763   1.717   8.437   7.850  0.8572  0.3412 -0.1622
  803MOL0     H10764   2.024   8.560   8.034 -0.9513 -3.5936  1.3092
  803MOL0     H10765   1.866   8.616   7.968 -1.9010 -1.8087  0.3262
  803MOL0     H10766   1.935   8.648   7.753 -0.2485  1.6093  0.3933
  803MOL0     H10767   2.052   8.727   7.853  1.1573 -1.0917  0.1233
  803MOL0     H10768   2.112   8.494   7.696 -0.1483  1.3253 -1.5338
  803MOL0     H10769   2.174   8.647   7.672  2.5550 -0.9923 -0.1790
  803MOL0     H10770   2.242   8.504   7.933 -2.4332 -0.6677 -0.9974
  803MOL0     H10771   2.349   8.505   7.789  0.1140 -1.7399  0.6040
  803MOL0     H10772   2.446   8.856   7.989  0.4224 -1.3085  0.5128
  803MOL0     H10773   2.760   9.056   7.916  0.7845 -0.9528  0.2067
  803MOL0     H10774   2.737   8.946   8.053 -2.3419  0.0109  1.6756
  803MOL0     H10775   2.600   9.052   7.989 -0.9104 -1.1283  0.0231
  803MOL0     H10776   2.999   9.074   7.589  1.6506 -0.6444 -1.0409
  803MOL0     H10777   3.232   9.146   7.566  1.0511 -0.8012 -0.1978
  803MOL0     H10778   3.508   9.188   7.932 -0.2856 -2.0590 -0.4559
  803MOL0     H10779   3.535   9.031   7.872  0.5527 -0.4003 -0.0296
  803MOL0     H10780   3.645   9.126   7.664  1.2508  0.1474 -0.0125
  803MOL0     H10781   3.669   9.268   7.765  0.3617 -0.1813 -2.4596
  803MOL0     H10782   3.876   9.115   7.786  2.5116 -2.4768  1.7295
  803MOL0     H10783   3.761   8.985   7.841 -1.1352  0.0821  0.8730
  803MOL0     H10784   3.913   9.091   8.011 -0.1759 -0.0863 -0.5639
  803MOL0     H10785   3.746   9.107   8.057  0.4700  3.2009  1.8323
  803MOL0     H10786   3.879   9.343   7.928 -0.9939  2.3047  1.6192
  803MOL0     H10787   3.718   9.309   7.995 -0.7385 -0.8921 -1.3619
  803MOL0     H10788   3.992   9.311   8.149  0.1638 -0.6100 -3.0329
  803MOL0     H10789   3.845   9.260   8.228  0.8921  0.2124  1.3349
  803MOL0     H10790   3.734   9.473   8.206 -0.5994 -2.6318 -1.0923
  803MOL0     H10791   3.860   9.537   8.103 -0.7822 -1.5457 -1.0528
  803MOL0     H10792   3.960   9.441   8.370  3.0066 -0.5860 -0.1176
  803MOL0     H10793   3.872   9.590   8.363  2.1553  0.8440  0.4598
  803MOL0     H10794   3.317   9.047   7.981 -1.6873  0.0989  2.2379
  803MOL0     H10795   3.117   8.929   7.989  3.8161 -0.8439 -0.4505
  803MOL0     H10796   2.694   8.699   7.596 -1.5386 -0.0115 -1.0123
  803MOL0     H10797   2.493   8.603   7.641  1.1435 -0.0060  0.0400
  803MOL0     H10798   0.858   7.932   7.725  0.2708  0.5109 -3.9914
  803MOL0     H10799   0.727   8.032   7.565  2.2544  0.8277 -0.9437
  803MOL0     H10800   0.629   8.306   7.355 -0.5302  1.6806  0.4134
  803MOL0     H10801   0.541   8.359   7.135 -0.8520 -0.0627 -1.2947
  803MOL0     H10802   0.171   8.319   7.029  1.5801  0.4372  1.2052
  803MOL0     H10803   0.104   8.479   7.058 -0.6102  0.2390 -0.8336
  803MOL0     H10804   0.306   8.414   6.835  0.5078  2.1262  0.7058
  803MOL0     H10805   0.206   8.560   6.840 -2.3475  0.1394 -2.5170
  803MOL0     H10806   0.123   8.278   6.790  0.9946 -0.2212 -0.1102
  803MOL0     H10807   0.002   8.405   6.826 -0.2493  0.5804 -0.1074
  803MOL0     H10808   0.056   8.524   6.605 -0.5284  0.1344  0.7892
  803MOL0     H10809   0.002   8.363   6.596 -0.6480 -0.7160  3.0880
  803MOL0     H10810   0.390   8.340   6.417  1.3136 -1.6161  2.3372
  803MOL0     H10811   0.148   8.389   7.282 -1.0690 -3.2377  2.3683
  803MOL0     H10812   0.093   8.360   7.509 -0.6262  0.5349  2.0088
  803MOL0     H10813   0.165   8.207   7.553  1.8597  0.3871 -1.5882
  803MOL0     H10814   0.219   8.353   7.635  2.5607  0.3973 -1.0321
  804MOL0     O10815   0.740   9.470   1.884 -0.4273 -0.5078  0.4116
  804MOL0     C10816   0.672   9.442   1.788  0.2977  0.2014  0.4803
  804MOL0     O10817   0.716   9.432   1.659 -0.4411  0.0012 -0.2938
  804MOL0     C10818   0.849   9.453   1.633  0.2719 -0.3430 -0.1120
  804MOL0     C10819   0.921   9.559   1.685  0.0339  0.1863  0.0997
  804MOL0     C10820   1.058   9.565   1.660 -1.1609 -0.1355 -0.8446
  804MOL0     C10821   1.123   9.475   1.581 -0.9711  0.7287 -0.3061
  804MOL0     O10822   1.259   9.476   1.573 -0.1015  1.1636 -0.4039
  804MOL0     C10823   1.314   9.486   1.441 -1.2273 -0.7523 -0.3336
  804MOL0     C10824   1.463   9.468   1.447  1.0198  0.1582 -0.3569
  804MOL0     C10825   1.511   9.322   1.470  0.5575  0.5738 -0.9151
  804MOL0     C10826   1.654   9.310   1.434 -0.5455  0.0196  0.1555
  804MOL0     C10827   1.662   9.294   1.277 -0.4128  0.1302  0.4440
  804MOL0     C10828   1.781   9.192   1.251 -0.1440 -0.3631  0.4435
  804MOL0     C10829   1.773   9.126   1.115 -0.4478  0.5978  0.5145
  804MOL0     C10830   1.879   9.014   1.095  0.4766  0.8342 -0.2941
  804MOL0     N10831   2.020   9.062   1.101  0.8927 -0.4318 -0.3088
  804MOL0     C10832   2.101   8.982   1.165 -0.7040  0.2518 -0.3664
  804MOL0     C10833   2.228   9.035   1.136  0.0709  0.1517 -0.4542
  804MOL0     C10834   2.361   8.980   1.170 -0.1325  0.5046  0.4715
  804MOL0     C10835   2.489   9.033   1.108  0.1800 -0.1089  0.4931
  804MOL0     C10836   2.523   9.015   0.961  0.4602 -0.6469 -0.1324
  804MOL0     C10837   2.623   9.126   0.918  0.1073  0.6741 -0.1372
  804MOL0     O10838   2.755   9.108   0.983  0.1666  0.2603 -0.7019
  804MOL0     C10839   2.867   9.157   0.923  0.4167 -0.2374 -0.3417
  804MOL0     C10840   2.874   9.256   0.821  0.4144  0.2177  0.0366
  804MOL0     C10841   2.990   9.307   0.759  0.5815 -0.2597 -0.2989
  804MOL0     C10842   2.982   9.412   0.651  0.1022  0.4805  0.3967
  804MOL0     C10843   3.113   9.269   0.819  0.0021 -0.0610  0.0689
  804MOL0     C10844   3.247   9.333   0.786  0.2204  0.9627 -1.0749
  804MOL0     O10845   3.332   9.334   0.888 -0.4450  0.5572 -0.3943
  804MOL0     C10846   3.446   9.414   0.889 -0.1992  0.3785 -0.3438
  804MOL0     C10847   3.488   9.466   1.014  0.8177  0.6374  0.0460
  804MOL0     C10848   3.599   9.545   1.042 -0.8078  0.5108  0.4363
  804MOL0     C10849   3.663   9.601   0.931  0.0206  0.1667 -0.3454
  804MOL0     O10850   3.775   9.685   0.954 -0.0412  0.3647 -0.0883
  804MOL0     C10851   3.820   9.770   0.843 -0.5534  0.0991 -0.5276
  804MOL0     C10852   3.928   9.862   0.899  0.0010 -0.1615 -0.4379
  804MOL0     C10853   3.984   9.966   0.805 -0.5110 -0.2970  0.8139
  804MOL0     C10854   4.079  10.056   0.885  0.3597  0.1123 -0.0099
  804MOL0     C10855   4.145  10.165   0.805 -0.1474  0.5526  0.0585
  804MOL0     C10856   4.233  10.253   0.889 -0.6945  0.6560  0.7103
  804MOL0     C10857   4.358  10.176   0.943  0.1332 -0.5052  0.6185
  804MOL0     C10858   4.443  10.271   1.025  0.0766  0.5213  0.0112
  804MOL0    Cl10859   4.341  10.315   1.161  0.2483  0.1929  0.2915
  804MOL0     C10860   3.622   9.568   0.799  0.4863 -0.1325  0.3989
  804MOL0     C10861   3.516   9.478   0.781  0.6853 -0.0013  0.2685
  804MOL0     O10862   3.264   9.370   0.671 -0.5142  0.6826 -0.1797
  804MOL0     C10863   3.112   9.164   0.915 -0.3332  0.0806 -0.1648
  804MOL0     C10864   2.990   9.111   0.961 -0.1348  0.2633 -0.3150
  804MOL0     N10865   2.215   9.152   1.066 -0.0291 -0.6459  0.6487
  804MOL0     N10866   2.090   9.166   1.046  0.1236 -0.3556  0.3385
  804MOL0     C10867   1.035   9.380   1.503  0.4331 -0.8144  0.1075
  804MOL0     C10868   0.896   9.370   1.533  0.3209 -0.0919 -0.5221
  804MOL0     C10869   0.531   9.405   1.804 -0.2370  0.4023 -0.4245
  804MOL0     C10870   0.452   9.382   1.689 -0.0262 -0.0448 -0.3176
  804MOL0     C10871   0.313   9.368   1.704  0.6058 -0.1040  0.5468
  804MOL0     C10872   0.257   9.377   1.832 -0.1143 -0.9897  0.7361
  804MOL0     O10873   0.117   9.372   1.837  0.0060 -0.7968 -0.3437
  804MOL0     C10874   0.047   9.380   1.960  0.2949  0.1618 -0.9777
  804MOL0     C10875  -0.104   9.368   1.938 -0.0765 -0.1777 -0.7426
  804MOL0     C10876  -0.144   9.216   1.914 -0.1584  0.1772  0.3323
  804MOL0     C10877  -0.091   9.155   1.786  1.2669  0.5884 -0.0386
  804MOL0     C10878  -0.178   9.036   1.742 -0.0084 -0.4499  0.9109
  804MOL0     C10879  -0.234   8.933   1.708  0.8270 -0.4452 -0.3451
  804MOL0     C10880   0.339   9.397   1.938  0.5643 -0.7072 -0.1466
  804MOL0     C10881   0.471   9.402   1.932 -0.9093  0.4884 -0.0531
  804MOL0     C10882   0.547   9.398   2.065  0.7056 -0.6365 -0.3300
  804MOL0     H10883   0.869   9.618   1.760 -0.1612 -2.2894  2.0279
  804MOL0     H10884   1.117   9.638   1.714  0.2842 -1.0149 -1.1968
  804MOL0     H10885   1.303   9.589   1.405  0.1192 -0.4512  0.0633
  804MOL0     H10886   1.277   9.415   1.367 -2.0191 -1.1532  0.4299
  804MOL0     H10887   1.507   9.507   1.355 -1.7061  0.4967 -1.6019
  804MOL0     H10888   1.483   9.520   1.541 -1.4408  1.2394 -0.3368
  804MOL0     H10889   1.508   9.303   1.577  1.5207 -1.7918 -1.2556
  804MOL0     H10890   1.452   9.239   1.430 -0.8488  1.0770  0.0373
  804MOL0     H10891   1.721   9.390   1.465  0.9094 -0.6979 -1.0112
  804MOL0     H10892   1.696   9.223   1.484 -0.5192  1.0024  1.9020
  804MOL0     H10893   1.700   9.386   1.231  0.4365 -0.8533 -0.8868
  804MOL0     H10894   1.560   9.275   1.244 -0.4335  0.5110  0.2842
  804MOL0     H10895   1.869   9.255   1.269 -1.4676  1.3301  1.3294
  804MOL0     H10896   1.782   9.109   1.322 -0.2789 -0.0006  0.8799
  804MOL0     H10897   1.787   9.213   1.051 -1.2616  0.1767 -0.2733
  804MOL0     H10898   1.674   9.085   1.092 -0.2605  0.3373  0.1465
  804MOL0     H10899   1.865   8.939   1.174 -2.6986  3.5866  2.0325
  804MOL0     H10900   1.856   8.965   1.000 -1.5844  2.4108 -0.6698
  804MOL0     H10901   2.089   8.905   1.240  1.1076 -0.0757 -0.3633
  804MOL0     H10902   2.353   8.874   1.145 -1.2140  0.4456  0.9993
  804MOL0     H10903   2.374   8.988   1.278 -0.7202  0.3942  0.5555
  804MOL0     H10904   2.495   9.139   1.135 -0.0662  0.4852 -1.5938
  804MOL0     H10905   2.567   8.977   1.161 -1.4252 -3.8181 -0.7047
  804MOL0     H10906   2.569   8.917   0.952 -0.3829 -0.8612 -2.9546
  804MOL0     H10907   2.433   9.006   0.899  1.1314 -2.1200 -0.9389
  804MOL0     H10908   2.644   9.121   0.811 -0.9940  2.6105 -0.4797
  804MOL0     H10909   2.586   9.224   0.947 -0.7166  0.6682 -1.1251
  804MOL0     H10910   2.788   9.305   0.778  0.6967  0.0533 -0.7258
  804MOL0     H10911   3.027   9.373   0.559  0.7176 -2.3400  1.8038
  804MOL0     H10912   3.031   9.508   0.672  0.0195  1.0207 -1.6437
  804MOL0     H10913   2.880   9.444   0.629 -0.5725 -1.2364  0.9308
  804MOL0     H10914   3.407   9.450   1.084 -0.4152 -0.8875 -1.6069
  804MOL0     H10915   3.613   9.582   1.143  2.5461 -2.0071  1.0773
  804MOL0     H10916   3.866   9.707   0.765 -0.0107 -2.8126  1.9742
  804MOL0     H10917   3.735   9.826   0.804 -0.7344  3.1289  3.6393
  804MOL0     H10918   3.887   9.911   0.988  3.0140  0.9689  0.4602
  804MOL0     H10919   4.010   9.801   0.940 -0.7813 -0.3090  0.9853
  804MOL0     H10920   3.900  10.024   0.764  1.2645  0.4758 -2.0229
  804MOL0     H10921   4.031   9.920   0.717 -1.1597  1.8247 -0.7306
  804MOL0     H10922   4.147   9.990   0.940  0.3419  0.6940  0.7250
  804MOL0     H10923   4.016  10.092   0.966  0.1445 -1.8819  0.7554
  804MOL0     H10924   4.196  10.113   0.723  0.4876  0.2787  0.6114
  804MOL0     H10925   4.064  10.226   0.766  1.4412  1.0464 -2.7357
  804MOL0     H10926   4.171  10.286   0.973  0.4231  0.8339  1.4916
  804MOL0     H10927   4.260  10.338   0.826  0.8013 -1.3136 -1.4635
  804MOL0     H10928   4.403  10.150   0.847  0.4038 -0.1342  0.6430
  804MOL0     H10929   4.331  10.091   1.005 -2.6539  0.6014  1.0608
  804MOL0     H10930   4.472  10.353   0.958  1.3733 -0.4038 -0.6304
  804MOL0     H10931   4.533  10.216   1.056 -0.5280 -0.5887 -0.1679
  804MOL0     H10932   3.662   9.610   0.707 -0.7936 -1.0236 -0.5933
  804MOL0     H10933   3.473   9.464   0.682 -1.6565  1.1181  1.0536
  804MOL0     H10934   3.203   9.130   0.965  0.9441  0.6120 -2.0173
  804MOL0     H10935   2.983   9.044   1.046  0.5335  2.5880  1.6788
  804MOL0     H10936   1.071   9.296   1.445  0.5341 -0.9479  0.3621
  804MOL0     H10937   0.831   9.290   1.495  1.2114 -0.7360 -0.7240
  804MOL0     H10938   0.490   9.384   1.587 -0.2477  0.5717 -0.3931
  804MOL0     H10939   0.250   9.360   1.616 -1.2783  1.8646  1.6074
  804MOL0     H10940   0.081   9.294   2.018 -3.1136 -1.7438 -1.5473
  804MOL0     H10941   0.075   9.472   2.012 -0.4109 -1.0048  1.6141
  804MOL0     H10942  -0.127   9.435   1.855  3.3058  1.6587 -0.3809
  804MOL0     H10943  -0.157   9.403   2.027 -4.0986 -2.2240 -2.0874
  804MOL0     H10944  -0.124   9.157   2.004 -2.2244 -0.6279  0.3182
  804MOL0     H10945  -0.251   9.232   1.903 -0.4308 -0.6826  1.4881
  804MOL0     H10946   0.012   9.121   1.794  2.3961  3.4193 -1.2973
  804MOL0     H10947  -0.101   9.234   1.712 -1.0376  0.5248  0.1238
  804MOL0     H10948  -0.297   8.852   1.676 -1.9506 -1.1550  5.5780
  804MOL0     H10949   0.294   9.395   2.037 -0.5218 -2.3967 -0.6254
  804MOL0     H10950   0.483   9.378   2.152 -0.5493  2.4107 -0.4159
  804MOL0     H10951   0.630   9.327   2.066 -0.3126 -1.8519 -0.2897
  804MOL0     H10952   0.601   9.491   2.084  1.7847 -1.2950 -0.1286
  805MOL0     O10953  10.935   2.578   9.090  0.3056  0.0593  0.5446
  805MOL0     C10954  10.811   2.552   9.109 -0.2962  0.1060  0.1128
  805MOL0     O10955  10.760   2.441   9.176 -0.1047 -0.1415 -0.0642
  805MOL0     C10956  10.862   2.353   9.204 -0.6308 -0.1195 -0.2135
  805MOL0     C10957  10.914   2.275   9.102 -0.1907  0.9230 -0.2741
  805MOL0     C10958  11.016   2.184   9.122 -0.1367 -0.7463  0.2378
  805MOL0     C10959  11.080   2.169   9.244 -0.1794 -0.8735 -0.3175
  805MOL0     O10960  11.187   2.090   9.283  0.4619  0.2776  0.3997
  805MOL0     C10961  11.262   2.008   9.182  1.0126 -0.1080  0.0644
  805MOL0     C10962  11.396   1.984   9.237  0.2198 -0.4567  0.0632
  805MOL0     C10963  11.464   2.114   9.273 -0.0130 -0.0030  0.2562
  805MOL0     C10964  11.613   2.121   9.217 -0.2615 -0.1272 -0.8893
  805MOL0     C10965  11.684   2.252   9.250 -0.3123 -0.4595  0.1385
  805MOL0     C10966  11.816   2.265   9.177 -1.2751 -0.5519  0.1783
  805MOL0     C10967  11.907   2.362   9.255 -0.1201 -0.4655 -0.2236
  805MOL0     C10968  12.040   2.398   9.176  0.4244  0.3937  0.3367
  805MOL0     N10969  12.017   2.461   9.048 -0.1855 -0.1758  0.6545
  805MOL0     C10970  12.055   2.420   8.923 -0.6500 -0.0466 -0.5396
  805MOL0     C10971  12.037   2.525   8.841  0.3877  0.7666  0.1218
  805MOL0     C10972  12.087   2.521   8.694 -0.7763  0.0129  0.3961
  805MOL0     C10973  12.198   2.632   8.676 -0.0602 -0.4208 -0.5691
  805MOL0     C10974  12.280   2.604   8.545 -0.0181 -0.1859 -0.5876
  805MOL0     C10975  12.202   2.657   8.425 -0.2863  0.4639 -0.2063
  805MOL0     O10976  12.260   2.619   8.299 -0.1725  0.2249 -0.0477
  805MOL0     C10977  12.383   2.671   8.262 -0.5110 -0.2877 -0.9523
  805MOL0     C10978  12.411   2.806   8.248  0.3425  0.3169  0.9546
  805MOL0     C10979  12.526   2.848   8.175 -0.1429  0.4981 -0.1292
  805MOL0     C10980  12.551   2.997   8.164 -0.7305  0.5165 -0.7311
  805MOL0     C10981  12.625   2.752   8.123 -0.1274 -0.1490 -0.4503
  805MOL0     C10982  12.744   2.788   8.057 -0.4380 -0.7790  0.4260
  805MOL0     O10983  12.784   2.706   7.959  0.2944  0.2072  0.4838
  805MOL0     C10984  12.900   2.745   7.894 -0.0046  0.2667  0.0230
  805MOL0     C10985  12.883   2.800   7.764  0.0395  0.3108  0.4661
  805MOL0     C10986  12.992   2.857   7.690 -0.0842  0.1229  0.1510
  805MOL0     C10987  13.121   2.865   7.753 -0.0709  1.2030  0.5147
  805MOL0     O10988  13.231   2.923   7.699  0.3401 -0.0689  0.4161
  805MOL0     C10989  13.199   3.014   7.586 -0.1344  1.0080 -0.7181
  805MOL0     C10990  13.331   3.107   7.577 -0.0875  0.9724  0.4102
  805MOL0     C10991  13.462   3.033   7.542  0.1830 -0.0033  0.0270
  805MOL0     C10992  13.461   2.966   7.408 -0.3151  0.1661 -0.0334
  805MOL0     C10993  13.599   2.913   7.380 -0.5164  0.3291 -0.0203
  805MOL0     C10994  13.599   2.804   7.270  0.1573  1.5169 -0.0345
  805MOL0     C10995  13.729   2.721   7.279  0.1868 -0.3816  0.0470
  805MOL0     C10996  13.724   2.616   7.173 -0.0658  0.2464  0.2282
  805MOL0    Cl10997  13.875   2.515   7.154 -0.4095  0.4666 -0.0702
  805MOL0     C10998  13.136   2.813   7.879  0.4785  0.1347  0.1502
  805MOL0     C10999  13.028   2.755   7.951 -0.9659 -0.5838  0.3675
  805MOL0     O11000  12.803   2.891   8.098  0.5337 -0.0119 -0.3872
  805MOL0     C11001  12.594   2.616   8.150 -0.4112  0.1262 -0.3147
  805MOL0     C11002  12.479   2.579   8.223  0.1380  0.6251  0.1242
  805MOL0     N11003  11.981   2.623   8.913  0.2132 -0.2784 -0.2277
  805MOL0     N11004  11.964   2.590   9.036 -0.7667  0.0360 -0.7284
  805MOL0     C11005  11.025   2.248   9.347  0.0298 -0.2750 -0.1285
  805MOL0     C11006  10.911   2.330   9.329  0.5750 -0.4639 -0.0174
  805MOL0     C11007  10.701   2.629   9.024  0.7169  0.3983 -0.3631
  805MOL0     C11008  10.568   2.570   9.002  0.2719  0.1898 -0.2555
  805MOL0     C11009  10.475   2.631   8.922  0.7116  0.4170 -0.7090
  805MOL0     C11010  10.493   2.763   8.892  0.2048  0.4793  0.2256
  805MOL0     O11011  10.397   2.819   8.810  0.8097 -0.2160 -0.2712
  805MOL0     C11012  10.417   2.947   8.751  0.5758  0.1462  0.4690
  805MOL0     C11013  10.319   2.963   8.640  0.1483 -0.0157 -0.2766
  805MOL0     C11014  10.354   2.890   8.508 -0.8382  1.4678  0.6520
  805MOL0     C11015  10.343   2.738   8.506  0.9582 -0.2040  0.1289
  805MOL0     C11016  10.203   2.679   8.519 -0.0182 -0.9412 -0.2450
  805MOL0     C11017  10.086   2.649   8.525 -1.1568  0.4014  1.2152
  805MOL0     C11018  10.611   2.827   8.918 -0.2165  0.5120  0.6383
  805MOL0     C11019  10.715   2.758   8.981 -0.3152 -0.2340  0.9405
  805MOL0     C11020  10.842   2.834   8.995 -0.3015  0.2745  1.0067
  805MOL0     H11021  10.894   2.278   8.996 -2.5954  2.4666  0.1380
  805MOL0     H11022  11.044   2.124   9.036 -1.1063 -0.4376 -0.3038
  805MOL0     H11023  11.263   2.060   9.086  1.0606  2.3995  1.3311
  805MOL0     H11024  11.207   1.915   9.169 -0.7316  0.7375  0.8921
  805MOL0     H11025  11.396   1.920   9.325 -0.0486  0.2285  0.5694
  805MOL0     H11026  11.453   1.933   9.159 -1.2665 -3.2347  0.6552
  805MOL0     H11027  11.422   2.207   9.233  0.8156  1.1034  1.8828
  805MOL0     H11028  11.466   2.123   9.381  0.5278  0.8795  0.1776
  805MOL0     H11029  11.682   2.047   9.260  1.7870  1.4534 -1.3282
  805MOL0     H11030  11.614   2.104   9.109 -0.4687 -1.9295 -0.6473
  805MOL0     H11031  11.704   2.267   9.356  3.5050  0.5944 -0.5703
  805MOL0     H11032  11.620   2.335   9.217  2.5562  1.4017 -1.1048
  805MOL0     H11033  11.875   2.174   9.162  2.8641  1.8405  0.3861
  805MOL0     H11034  11.797   2.287   9.072 -1.2128 -1.1465  0.0369
  805MOL0     H11035  11.932   2.336   9.358  1.7848  1.0799 -0.2386
  805MOL0     H11036  11.843   2.451   9.265  1.8948  0.8799  1.5042
  805MOL0     H11037  12.083   2.473   9.244 -0.9922  0.9062  0.7211
  805MOL0     H11038  12.112   2.316   9.173  0.9465  0.8703 -0.3034
  805MOL0     H11039  12.099   2.321   8.912 -2.4734 -0.6627 -3.2615
  805MOL0     H11040  12.010   2.553   8.623  0.7012 -1.2329 -1.8771
  805MOL0     H11041  12.126   2.425   8.661 -0.7308  0.4850 -1.0085
  805MOL0     H11042  12.144   2.727   8.682 -1.4472 -0.9290 -3.5273
  805MOL0     H11043  12.267   2.621   8.760  1.0556 -0.0654 -1.4137
  805MOL0     H11044  12.381   2.647   8.543 -0.4466  0.8550 -2.5776
  805MOL0     H11045  12.309   2.500   8.530  3.4496  0.7034 -0.8776
  805MOL0     H11046  12.108   2.602   8.423  1.4594 -2.7687 -0.9012
  805MOL0     H11047  12.190   2.765   8.436  3.1082  0.8773  0.7350
  805MOL0     H11048  12.344   2.881   8.288 -0.4249 -0.3770  0.9909
  805MOL0     H11049  12.591   3.025   8.066  3.5781 -2.6485 -0.1794
  805MOL0     H11050  12.621   3.013   8.247  0.7474  1.1466 -2.0572
  805MOL0     H11051  12.456   3.046   8.188 -1.1674 -1.0752  1.0789
  805MOL0     H11052  12.778   2.800   7.737  0.2132 -2.1089 -0.4525
  805MOL0     H11053  12.970   2.907   7.596 -0.4426  2.9639  1.6555
  805MOL0     H11054  13.192   2.950   7.498 -0.3637  0.1501 -0.0906
  805MOL0     H11055  13.107   3.071   7.603 -0.9988 -0.3501 -0.7315
  805MOL0     H11056  13.318   3.192   7.510  0.0646  1.3402  0.8466
  805MOL0     H11057  13.356   3.142   7.677 -0.0454  1.1574  0.3341
  805MOL0     H11058  13.487   2.961   7.620  2.5689 -1.1095 -1.6322
  805MOL0     H11059  13.545   3.103   7.540  1.4477 -1.4593 -0.7660
  805MOL0     H11060  13.438   3.031   7.323  0.6827  1.2638  0.5073
  805MOL0     H11061  13.377   2.897   7.421 -0.6163  0.8655  2.0498
  805MOL0     H11062  13.658   3.000   7.349  1.9525 -1.4683 -0.7228
  805MOL0     H11063  13.642   2.866   7.469  3.6498  2.4410 -0.6641
  805MOL0     H11064  13.586   2.847   7.170 -1.7565 -0.8284 -0.8710
  805MOL0     H11065  13.518   2.736   7.295  1.9484 -0.6595  0.2168
  805MOL0     H11066  13.738   2.678   7.379 -1.6524  0.9007  0.8240
  805MOL0     H11067  13.811   2.790   7.259 -2.3374  2.0867 -2.7614
  805MOL0     H11068  13.710   2.661   7.074  0.8627 -2.2876 -1.1385
  805MOL0     H11069  13.644   2.543   7.187  1.9929 -1.9749  1.2567
  805MOL0     H11070  13.233   2.829   7.925  0.3632 -0.1108  0.4726
  805MOL0     H11071  13.057   2.705   8.043 -0.0277  1.6172  1.3380
  805MOL0     H11072  12.651   2.532   8.112  0.4609  0.9544 -0.8795
  805MOL0     H11073  12.462   2.474   8.242  2.0380  0.3992  0.8213
  805MOL0     H11074  11.071   2.245   9.445 -0.1168 -3.5071 -0.0476
  805MOL0     H11075  10.863   2.376   9.414 -0.1156 -1.3771  0.0992
  805MOL0     H11076  10.553   2.466   9.027  0.1045 -0.1738 -1.7644
  805MOL0     H11077  10.381   2.580   8.906  1.0130 -0.9708  1.4312
  805MOL0     H11078  10.397   3.023   8.827 -4.9103 -1.0650  0.6420
  805MOL0     H11079  10.515   2.962   8.704 -1.0269  1.9954 -2.6260
  805MOL0     H11080  10.317   3.069   8.613  3.8948  0.5133  0.9693
  805MOL0     H11081  10.216   2.938   8.669 -0.2326  0.9196 -0.7644
  805MOL0     H11082  10.297   2.933   8.425 -0.9133  1.4757  0.7074
  805MOL0     H11083  10.456   2.915   8.480 -1.1922 -0.1337 -2.5347
  805MOL0     H11084  10.402   2.703   8.591  0.7394  1.8154  1.1675
  805MOL0     H11085  10.377   2.695   8.411  0.2024 -2.8367  0.9691
  805MOL0     H11086   9.980   2.633   8.531 -1.2531 -0.5488 -1.4837
  805MOL0     H11087  10.625   2.934   8.901 -1.0187  0.6134  0.6009
  805MOL0     H11088  10.842   2.930   8.943  1.5990  0.2881  0.9508
  805MOL0     H11089  10.858   2.850   9.102  1.0057  0.7269  0.7638
  805MOL0     H11090  10.928   2.779   8.956 -1.3338 -1.7801  1.4689
  806MOL0     O11091   7.339   9.549   7.455  0.0177 -0.6901  0.2548
  806MOL0     C11092   7.334   9.436   7.408  0.3289  0.7035  0.8432
  806MOL0     O11093   7.381   9.400   7.275  0.2500 -0.5408 -0.4138
  806MOL0     C11094   7.448   9.490   7.197  0.0152  0.3218  0.1291
  806MOL0     C11095   7.584   9.464   7.169  0.0492  0.7864  0.3228
  806MOL0     C11096   7.662   9.552   7.098 -0.4467 -0.1455 -0.3856
  806MOL0     C11097   7.613   9.675   7.051  0.1967 -0.1337 -0.9704
  806MOL0     O11098   7.702   9.767   6.992 -0.2759 -0.1297 -1.3085
  806MOL0     C11099   7.650   9.835   6.879  0.1750 -0.3345  0.2103
  806MOL0     C11100   7.627   9.977   6.916 -0.1215 -0.3689  0.2689
  806MOL0     C11101   7.752  10.058   6.884  0.1037  0.2038 -0.6453
  806MOL0     C11102   7.758  10.199   6.934 -0.2251 -0.2579  0.3013
  806MOL0     C11103   7.832  10.210   7.073 -0.0104  0.0054  0.0548
  806MOL0     C11104   7.853  10.359   7.119 -0.0256  0.2096  0.2124
  806MOL0     C11105   7.943  10.379   7.240  0.9593 -0.5205 -0.2620
  806MOL0     C11106   7.940  10.518   7.294 -0.9728 -1.2695 -0.0435
  806MOL0     N11107   7.958  10.635   7.196 -0.0942  0.0537 -0.2894
  806MOL0     C11108   8.055  10.636   7.101 -0.4419 -0.1107  0.6460
  806MOL0     C11109   8.026  10.737   7.015 -0.5872 -0.1391 -0.3635
  806MOL0     C11110   8.117  10.770   6.894 -0.1065 -0.8605  0.5457
  806MOL0     C11111   8.185  10.905   6.898  0.1293  0.2319 -0.2273
  806MOL0     C11112   8.308  10.930   6.801  0.1294  0.3481 -0.4541
  806MOL0     C11113   8.356  11.070   6.779 -0.1726 -0.7168 -0.3616
  806MOL0     O11114   8.261  11.158   6.722 -0.0080 -0.3536  0.0803
  806MOL0     C11115   8.283  11.292   6.701  0.0913 -0.1858 -0.9727
  806MOL0     C11116   8.228  11.379   6.796 -0.3255  0.3248  0.6635
  806MOL0     C11117   8.248  11.517   6.791 -0.3850  0.9082  0.3862
  806MOL0     C11118   8.199  11.601   6.906  0.9865 -0.1103 -0.4296
  806MOL0     C11119   8.313  11.575   6.684  0.7354  0.9784 -0.7484
  806MOL0     C11120   8.336  11.717   6.673 -1.0980  0.3944 -0.6372
  806MOL0     O11121   8.220  11.790   6.654  0.4151 -0.4563  0.2712
  806MOL0     C11122   8.218  11.928   6.621  0.2333 -0.0693 -0.2254
  806MOL0     C11123   8.097  11.986   6.648 -0.5408  0.9562 -0.0423
  806MOL0     C11124   8.089  12.126   6.628 -0.2781  0.6822  0.1557
  806MOL0     C11125   8.187  12.206   6.584 -0.0921  0.4379  0.3393
  806MOL0     O11126   8.151  12.337   6.576  0.3302 -0.1765  0.2301
  806MOL0     C11127   8.245  12.435   6.554 -0.6467  0.6865 -0.8387
  806MOL0     C11128   8.214  12.583   6.585 -0.0930 -0.5468 -0.6595
  806MOL0     C11129   8.075  12.628   6.537  0.7237  0.0086 -0.2896
  806MOL0     C11130   8.056  12.611   6.386 -0.0384  0.1683 -0.2432
  806MOL0     C11131   7.928  12.667   6.325 -1.0512 -0.0363  0.7225
  806MOL0     C11132   7.938  12.654   6.170  0.3031  0.0137 -0.0607
  806MOL0     C11133   7.925  12.508   6.112 -0.1921 -0.0355  0.1991
  806MOL0     C11134   7.968  12.519   5.972  0.8928 -0.6910  0.1442
  806MOL0    Cl11135   7.841  12.605   5.868 -0.2055 -0.5885 -0.4640
  806MOL0     C11136   8.309  12.143   6.552  0.0472  0.2329 -0.2305
  806MOL0     C11137   8.326  12.008   6.577  0.5739 -0.0217 -0.2822
  806MOL0     O11138   8.451  11.769   6.678 -0.2063  0.8698 -0.3457
  806MOL0     C11139   8.379  11.489   6.592  0.0788  0.6650  0.7683
  806MOL0     C11140   8.365  11.353   6.602  0.2004  0.4099 -0.7418
  806MOL0     N11141   7.900  10.778   7.051  0.3255  0.0368  0.0600
  806MOL0     N11142   7.853  10.713   7.146 -0.2556  0.4271  0.6921
  806MOL0     C11143   7.481   9.702   7.077 -0.0971 -0.6897  0.4165
  806MOL0     C11144   7.397   9.611   7.143  0.9469  0.1499  0.0426
  806MOL0     C11145   7.269   9.327   7.482  0.1367  0.4357  0.2273
  806MOL0     C11146   7.253   9.195   7.427  0.3971  0.2955  1.5314
  806MOL0     C11147   7.190   9.091   7.494  0.5758  0.8279  0.6666
  806MOL0     C11148   7.148   9.099   7.625  0.3974  0.0516  0.6631
  806MOL0     O11149   7.082   9.001   7.692 -0.1834  0.3944 -0.4906
  806MOL0     C11150   7.093   8.864   7.645 -0.2469 -0.0829  0.3184
  806MOL0     C11151   7.024   8.758   7.740  0.2309 -0.9769  0.3635
  806MOL0     C11152   6.870   8.751   7.717  0.0154  0.0971 -0.1059
  806MOL0     C11153   6.801   8.654   7.804  0.4663  0.5979 -0.3527
  806MOL0     C11154   6.812   8.661   7.949 -0.4740 -0.0383 -0.3763
  806MOL0     C11155   6.839   8.643   8.066  0.1834 -0.0121 -0.9394
  806MOL0     C11156   7.162   9.228   7.686  0.4201 -0.3475  0.3947
  806MOL0     C11157   7.232   9.336   7.612  0.1990  0.1904 -0.2214
  806MOL0     C11158   7.265   9.448   7.705 -0.5562 -0.2417  0.0995
  806MOL0     H11159   7.625   9.368   7.200  1.2203  1.2032  0.1394
  806MOL0     H11160   7.767   9.532   7.081  0.1333  1.0547  1.4515
  806MOL0     H11161   7.559   9.789   6.839  0.9545 -3.3878  1.6181
  806MOL0     H11162   7.714   9.835   6.791  0.2053  2.6416  0.1370
  806MOL0     H11163   7.549  10.011   6.847 -0.4779 -1.3020  0.2043
  806MOL0     H11164   7.599   9.983   7.022 -0.6810 -4.3040  0.4856
  806MOL0     H11165   7.843  10.006   6.914 -0.2375 -1.0500 -1.7038
  806MOL0     H11166   7.752  10.055   6.775  0.5333 -0.4792 -0.6285
  806MOL0     H11167   7.794  10.267   6.857 -0.2754  0.8033  1.1904
  806MOL0     H11168   7.658  10.242   6.943 -2.1737 -4.6215  2.9415
  806MOL0     H11169   7.927  10.156   7.065 -1.0518 -2.0314  0.6010
  806MOL0     H11170   7.777  10.159   7.153  2.0620 -0.4838  1.2544
  806MOL0     H11171   7.910  10.408   7.040 -1.5068 -1.3846 -1.9398
  806MOL0     H11172   7.754  10.404   7.123  0.4507  1.4428 -0.9266
  806MOL0     H11173   8.048  10.363   7.212  1.5998  0.3329  1.5068
  806MOL0     H11174   7.916  10.322   7.329  1.0775  1.0148  0.8016
  806MOL0     H11175   7.843  10.531   7.341 -1.6838  1.1059 -1.9105
  806MOL0     H11176   8.014  10.540   7.372 -2.9350  0.3497  1.4750
  806MOL0     H11177   8.137  10.565   7.090  0.0987  0.7484 -1.1599
  806MOL0     H11178   8.052  10.769   6.806  0.6514  1.1890 -0.0941
  806MOL0     H11179   8.182  10.682   6.882  0.9854  0.0815 -0.8160
  806MOL0     H11180   8.111  10.980   6.868  1.1637  1.5308  0.3781
  806MOL0     H11181   8.214  10.932   7.000 -2.5424  1.5568  0.2758
  806MOL0     H11182   8.390  10.867   6.835  0.4282 -0.1616 -2.0447
  806MOL0     H11183   8.281  10.886   6.705 -1.4925 -0.2543  0.2357
  806MOL0     H11184   8.403  11.109   6.870  0.6388  0.2230 -1.1638
  806MOL0     H11185   8.442  11.057   6.713 -0.0379 -0.6327 -0.2036
  806MOL0     H11186   8.181  11.334   6.883  0.4908 -1.6569  0.1427
  806MOL0     H11187   8.150  11.542   6.984 -0.2829 -0.4333 -1.4340
  806MOL0     H11188   8.146  11.691   6.874  1.5255  0.4402  0.2215
  806MOL0     H11189   8.286  11.638   6.960 -0.1464  0.4224  1.0973
  806MOL0     H11190   8.016  11.922   6.682  1.3447  0.1976  3.5032
  806MOL0     H11191   7.996  12.179   6.645 -0.7164  0.0249 -0.1507
  806MOL0     H11192   8.333  12.405   6.611 -0.4976 -0.0956 -1.4795
  806MOL0     H11193   8.272  12.424   6.449  0.1370  1.1358 -0.6904
  806MOL0     H11194   8.229  12.600   6.692  0.5103  0.7421 -0.9284
  806MOL0     H11195   8.303  12.631   6.543  1.1030 -1.3818  0.7658
  806MOL0     H11196   8.049  12.730   6.569  0.0762  0.2289 -1.4270
  806MOL0     H11197   7.997  12.564   6.578  0.9875 -0.1641 -0.0562
  806MOL0     H11198   8.062  12.502   6.379  0.8206  0.1541  0.5541
  806MOL0     H11199   8.143  12.664   6.345  1.7592 -1.9845  0.6053
  806MOL0     H11200   7.841  12.618   6.369 -0.0951  0.1951  3.0386
  806MOL0     H11201   7.917  12.774   6.349  0.6103  0.7858 -1.7667
  806MOL0     H11202   8.031  12.707   6.146  0.0556  1.2265  1.4847
  806MOL0     H11203   7.856  12.704   6.117  0.9336  0.6627 -0.4414
  806MOL0     H11204   7.826  12.464   6.128 -0.3599  0.0688 -0.4909
  806MOL0     H11205   7.994  12.435   6.154  0.1158 -0.0979 -0.3967
  806MOL0     H11206   7.982  12.420   5.928 -0.4085 -0.9153  0.2123
  806MOL0     H11207   8.065  12.569   5.963  0.7281  0.6016  3.7972
  806MOL0     H11208   8.394  12.206   6.525 -0.8331  1.1867 -0.8559
  806MOL0     H11209   8.420  11.961   6.549  2.0182  1.0350  2.4063
  806MOL0     H11210   8.439  11.528   6.511 -1.2490  2.0149  0.3960
  806MOL0     H11211   8.418  11.280   6.542  1.1046  0.2575  0.2149
  806MOL0     H11212   7.444   9.800   7.049  2.4601 -0.5308 -3.0117
  806MOL0     H11213   7.300   9.643   7.180  0.6692 -2.3636  1.7085
  806MOL0     H11214   7.283   9.191   7.323 -0.6185  1.9922  1.1441
  806MOL0     H11215   7.185   9.000   7.436  1.2129  0.1436  1.6606
  806MOL0     H11216   7.047   8.851   7.546  2.2065  1.2045 -1.0774
  806MOL0     H11217   7.197   8.830   7.643  0.3632  1.6680 -0.1291
  806MOL0     H11218   7.055   8.765   7.845  3.2325  2.0111 -0.5527
  806MOL0     H11219   7.065   8.663   7.705  1.3494 -2.0398  4.0529
  806MOL0     H11220   6.831   8.852   7.736  0.7030  0.2246  0.6663
  806MOL0     H11221   6.852   8.727   7.611 -0.4062 -0.1436  0.0164
  806MOL0     H11222   6.828   8.551   7.779  1.3853  0.9148 -0.7142
  806MOL0     H11223   6.696   8.661   7.773  0.5367  0.1221 -0.7059
  806MOL0     H11224   6.861   8.619   8.168 -1.2384  1.1519 -0.3223
  806MOL0     H11225   7.106   9.253   7.775  1.2573 -1.6530  1.3291
  806MOL0     H11226   7.366   9.433   7.743 -0.2884 -1.2516 -0.9633
  806MOL0     H11227   7.259   9.549   7.665 -0.1579  0.3634  1.5157
  806MOL0     H11228   7.192   9.455   7.786 -0.4612  1.1260  0.0843
  807MOL0     O11229   6.075   4.272   1.907  0.3021  0.2696  0.0704
  807MOL0     C11230   6.088   4.251   2.030 -0.4356 -0.5740 -0.5314
  807MOL0     O11231   6.201   4.293   2.108 -0.5761 -0.2788 -0.2454
  807MOL0     C11232   6.290   4.384   2.059 -0.3523  0.7980  0.2131
  807MOL0     C11233   6.430   4.367   2.080  0.2983  0.0925 -0.8365
  807MOL0     C11234   6.521   4.458   2.026  0.1367 -0.1004 -0.6827
  807MOL0     C11235   6.473   4.562   1.948  0.1175 -0.5476  0.7988
  807MOL0     O11236   6.566   4.652   1.894 -0.0110  0.5266  0.2375
  807MOL0     C11237   6.523   4.735   1.776  0.7407  0.0507 -0.7064
  807MOL0     C11238   6.651   4.810   1.747 -0.1626 -0.2637 -0.4715
  807MOL0     C11239   6.749   4.725   1.659 -0.1942  0.5857 -0.1481
  807MOL0     C11240   6.872   4.812   1.633  0.4503  0.9062 -0.0510
  807MOL0     C11241   6.998   4.752   1.560  0.5232 -0.1754 -0.3803
  807MOL0     C11242   7.059   4.632   1.637 -0.1782  0.2107 -0.1046
  807MOL0     C11243   7.170   4.571   1.550 -0.0071  0.5856  0.5336
  807MOL0     C11244   7.274   4.501   1.641  0.0975  0.2595  0.4994
  807MOL0     N11245   7.371   4.430   1.551 -0.3645 -0.4549 -0.1075
  807MOL0     C11246   7.430   4.493   1.449  0.1233 -1.0454  0.3886
  807MOL0     C11247   7.486   4.394   1.376  0.9493 -0.6122  0.1065
  807MOL0     C11248   7.557   4.416   1.251 -0.0398  0.4626  0.0888
  807MOL0     C11249   7.487   4.376   1.127 -0.0773 -0.1473 -0.1979
  807MOL0     C11250   7.345   4.437   1.103  0.2364  0.0445  0.1954
  807MOL0     C11251   7.272   4.410   0.967 -0.7733 -0.6529 -0.5052
  807MOL0     O11252   7.153   4.486   0.954  0.1182  0.4198 -0.4237
  807MOL0     C11253   7.091   4.484   0.834 -0.2569  0.3221 -0.2219
  807MOL0     C11254   6.976   4.559   0.822  0.2036 -0.1483  0.1295
  807MOL0     C11255   6.913   4.573   0.698  0.0388 -0.0054 -0.2633
  807MOL0     C11256   6.796   4.686   0.701  0.0364  0.2985  0.4635
  807MOL0     C11257   6.966   4.509   0.581  0.4094  0.0429 -0.4551
  807MOL0     C11258   6.914   4.527   0.452 -0.9078 -0.4564 -0.6944
  807MOL0     O11259   6.826   4.626   0.424  0.7218  0.0666  0.1169
  807MOL0     C11260   6.774   4.641   0.297  0.1590 -0.4534 -0.5583
  807MOL0     C11261   6.855   4.644   0.181 -0.2737 -0.5774 -0.7902
  807MOL0     C11262   6.809   4.712   0.061  0.5183 -0.1409  0.6362
  807MOL0     C11263   6.671   4.757   0.061  0.8786  0.5545 -0.6260
  807MOL0     O11264   6.615   4.807  -0.055  0.0495 -0.6944  0.6213
  807MOL0     C11265   6.476   4.787  -0.077 -0.0512  0.5404 -0.6878
  807MOL0     C11266   6.459   4.836  -0.214  0.3164  0.3600  0.1404
  807MOL0     C11267   6.305   4.841  -0.239 -0.1093 -0.3815 -0.2724
  807MOL0     C11268   6.270   4.874  -0.382 -0.1206 -0.3814 -0.7598
  807MOL0     C11269   6.117   4.829  -0.408 -0.1451  0.4177 -0.3094
  807MOL0     C11270   6.068   4.846  -0.554 -0.1286 -0.1738  0.0874
  807MOL0     C11271   5.918   4.803  -0.567 -0.3125  0.1897  0.7422
  807MOL0     C11272   5.839   4.864  -0.683  0.4450 -0.2637  0.1781
  807MOL0    Cl11273   5.824   5.039  -0.685  0.2091 -0.2911  0.0385
  807MOL0     C11274   6.596   4.755   0.182  0.5088  0.4682 -0.2146
  807MOL0     C11275   6.647   4.694   0.298  0.3443 -0.5959  0.9706
  807MOL0     O11276   6.954   4.450   0.368 -0.0981 -0.9511  0.0472
  807MOL0     C11277   7.072   4.417   0.603  0.5029  0.6646  0.7607
  807MOL0     C11278   7.131   4.411   0.726 -0.5188  0.5419  0.6504
  807MOL0     N11279   7.450   4.276   1.435  0.2551 -0.2928  0.4478
  807MOL0     N11280   7.374   4.294   1.537 -0.6007 -0.6874  0.5761
  807MOL0     C11281   6.334   4.587   1.935 -0.4366 -0.3612 -0.3021
  807MOL0     C11282   6.240   4.502   1.996  0.3859 -0.8512  1.0921
  807MOL0     C11283   5.977   4.179   2.107 -0.4554  0.0374 -1.0802
  807MOL0     C11284   6.005   4.135   2.238  0.4991 -0.4956 -0.2646
  807MOL0     C11285   5.902   4.078   2.316 -0.4529 -0.4032  0.8536
  807MOL0     C11286   5.785   4.044   2.259  1.1526  0.3324  0.5562
  807MOL0     O11287   5.698   3.963   2.337  0.0651 -0.8506  0.4352
  807MOL0     C11288   5.558   3.947   2.308  0.2036 -0.2392 -0.4883
  807MOL0     C11289   5.538   3.820   2.229 -0.3363 -0.2407 -0.8102
  807MOL0     C11290   5.389   3.805   2.209 -0.5412  0.2948 -0.2631
  807MOL0     C11291   5.355   3.676   2.134 -0.1154 -0.1458 -0.0309
  807MOL0     C11292   5.209   3.667   2.106  0.4286  0.7015  0.2790
  807MOL0     C11293   5.093   3.660   2.079 -1.0779 -0.1398  0.2396
  807MOL0     C11294   5.757   4.084   2.129 -0.2279 -0.5220 -0.0355
  807MOL0     C11295   5.849   4.158   2.053 -0.7952 -0.2508  0.9595
  807MOL0     C11296   5.822   4.165   1.903 -0.3762 -0.9862  0.0121
  807MOL0     H11297   6.472   4.288   2.142  2.2983  1.5417 -0.2336
  807MOL0     H11298   6.628   4.452   2.041 -0.0936  0.8451  1.7518
  807MOL0     H11299   6.443   4.807   1.797  0.4538 -0.4260 -0.1410
  807MOL0     H11300   6.485   4.673   1.695 -3.8049  2.3840 -0.6836
  807MOL0     H11301   6.640   4.901   1.688 -0.4112  0.6666  0.9606
  807MOL0     H11302   6.703   4.838   1.839  1.7354  2.5820 -2.2485
  807MOL0     H11303   6.779   4.635   1.714  2.5287  1.2355 -0.4225
  807MOL0     H11304   6.697   4.707   1.565 -0.5062 -3.2029  0.6002
  807MOL0     H11305   6.832   4.893   1.571 -0.9788 -2.0790 -3.3485
  807MOL0     H11306   6.913   4.847   1.729 -0.2681  0.6849  0.3415
  807MOL0     H11307   7.063   4.840   1.562 -2.4762  2.2057 -1.4332
  807MOL0     H11308   6.974   4.725   1.456 -1.0357 -0.8765  0.1379
  807MOL0     H11309   7.094   4.670   1.733 -2.0670 -0.3129  0.8500
  807MOL0     H11310   6.990   4.552   1.666 -0.5079 -0.3636 -2.2678
  807MOL0     H11311   7.222   4.647   1.492 -1.6311  0.0799 -1.7565
  807MOL0     H11312   7.123   4.494   1.487  0.1466 -0.2206  1.3809
  807MOL0     H11313   7.316   4.582   1.702 -0.1042  0.4486  0.3894
  807MOL0     H11314   7.224   4.435   1.712 -0.1162 -1.4667 -1.1839
  807MOL0     H11315   7.431   4.601   1.436 -1.0112 -1.3290 -2.7747
  807MOL0     H11316   7.650   4.357   1.254 -0.2136  0.2151  0.7276
  807MOL0     H11317   7.590   4.520   1.237  0.9834 -0.0318 -1.4030
  807MOL0     H11318   7.549   4.409   1.044 -0.1089 -0.5861 -0.4009
  807MOL0     H11319   7.481   4.266   1.125 -1.5461 -0.0904 -0.2838
  807MOL0     H11320   7.267   4.417   1.177  0.2734  0.4252  0.3408
  807MOL0     H11321   7.349   4.546   1.112 -1.7181  0.2017 -0.3586
  807MOL0     H11322   7.341   4.449   0.892 -1.4516 -1.0557 -1.3606
  807MOL0     H11323   7.247   4.303   0.961 -0.5419 -0.7866  0.5998
  807MOL0     H11324   6.957   4.614   0.914 -1.7819 -1.2000  0.4090
  807MOL0     H11325   6.787   4.733   0.799  3.1551  0.3471  0.8201
  807MOL0     H11326   6.703   4.652   0.654  1.0591  0.3590 -1.7491
  807MOL0     H11327   6.835   4.766   0.638  0.4443  1.1404  1.7609
  807MOL0     H11328   6.955   4.603   0.175  0.1401  0.3496 -0.4764
  807MOL0     H11329   6.865   4.711  -0.032 -0.4136 -0.7505  0.0627
  807MOL0     H11330   6.441   4.685  -0.061 -0.6364  0.7035 -0.8989
  807MOL0     H11331   6.425   4.850  -0.003  0.4939 -1.1684  1.2106
  807MOL0     H11332   6.500   4.937  -0.223  0.8547  0.0542 -1.0201
  807MOL0     H11333   6.515   4.759  -0.268  1.1323  0.9444  0.1474
  807MOL0     H11334   6.259   4.906  -0.164 -0.4414 -2.3060  1.2946
  807MOL0     H11335   6.269   4.739  -0.217 -0.6103 -0.2049 -0.2646
  807MOL0     H11336   6.342   4.822  -0.446  0.9186 -1.1352  0.9496
  807MOL0     H11337   6.275   4.981  -0.403  1.1944  0.4320  3.0695
  807MOL0     H11338   6.113   4.727  -0.370  1.2751  1.5222  3.1593
  807MOL0     H11339   6.056   4.897  -0.348 -1.2669  1.0112 -2.0353
  807MOL0     H11340   6.127   4.798  -0.633  0.7818  1.4322 -0.2711
  807MOL0     H11341   6.078   4.953  -0.575  0.6258 -0.4609 -1.1892
  807MOL0     H11342   5.866   4.819  -0.473  0.9785  1.7269  1.2497
  807MOL0     H11343   5.931   4.695  -0.571  1.7629  0.2053  3.7008
  807MOL0     H11344   5.739   4.820  -0.691  0.7151 -1.0473  0.9630
  807MOL0     H11345   5.887   4.857  -0.781  0.9943  3.7442 -0.0219
  807MOL0     H11346   6.496   4.791   0.208  0.5572  0.4106  0.0555
  807MOL0     H11347   6.595   4.695   0.394  1.2556 -0.1947  1.4744
  807MOL0     H11348   7.107   4.346   0.529 -2.7705 -1.5190  1.0862
  807MOL0     H11349   7.220   4.351   0.741 -0.1186  0.7883 -0.5875
  807MOL0     H11350   6.296   4.674   1.883 -1.0714 -0.7411 -0.4847
  807MOL0     H11351   6.136   4.527   1.975  0.1837 -1.9233  0.7704
  807MOL0     H11352   6.104   4.137   2.282 -0.1278  1.3569  1.1795
  807MOL0     H11353   5.919   4.035   2.414 -0.0931 -0.8018  0.6190
  807MOL0     H11354   5.509   3.936   2.405 -2.1160  1.5592 -1.3573
  807MOL0     H11355   5.515   4.034   2.258  0.1206  1.1242  1.8216
  807MOL0     H11356   5.579   3.744   2.296  1.2825  1.7883  0.6592
  807MOL0     H11357   5.594   3.827   2.135 -0.7013 -0.2200 -1.0254
  807MOL0     H11358   5.334   3.809   2.303  0.8088 -3.0467  0.8034
  807MOL0     H11359   5.360   3.896   2.154  0.7850  0.7548 -0.2294
  807MOL0     H11360   5.385   3.586   2.189 -1.8573 -0.5220  0.3652
  807MOL0     H11361   5.393   3.671   2.032 -3.4595 -1.8253 -1.3671
  807MOL0     H11362   4.987   3.665   2.071 -1.1947  1.3519  1.9545
  807MOL0     H11363   5.663   4.043   2.094 -1.4399 -0.3634  2.7636
  807MOL0     H11364   5.846   4.266   1.868  3.8965 -1.8621 -0.2148
  807MOL0     H11365   5.885   4.091   1.852 -2.8307 -2.4081 -1.1197
  807MOL0     H11366   5.716   4.145   1.884 -0.1583  0.1357 -2.9343
  808MOL0     O11367   5.662   6.301   4.775 -0.0842  0.1746 -0.2731
  808MOL0     C11368   5.706   6.239   4.677 -0.0518 -0.7224  0.5717
  808MOL0     O11369   5.832   6.255   4.621 -0.0046  0.6482  0.3832
  808MOL0     C11370   5.915   6.342   4.682  0.5519 -1.3257  0.3066
  808MOL0     C11371   5.974   6.449   4.604 -0.4027 -0.5016  0.3027
  808MOL0     C11372   6.072   6.536   4.652  0.0516 -0.0857  0.7318
  808MOL0     C11373   6.116   6.523   4.787 -0.5556  0.2252  0.8783
  808MOL0     O11374   6.218   6.594   4.838 -0.3157 -0.1013 -0.4283
  808MOL0     C11375   6.229   6.734   4.804  0.2466  0.1238  1.0144
  808MOL0     C11376   6.328   6.793   4.899 -0.3626 -0.2700  0.4516
  808MOL0     C11377   6.474   6.778   4.854  0.0678  0.2469 -0.1135
  808MOL0     C11378   6.572   6.837   4.961 -0.4368 -0.4440  0.7619
  808MOL0     C11379   6.711   6.825   4.904  0.4909  0.2243  0.4771
  808MOL0     C11380   6.835   6.889   4.962 -0.7363 -0.0388  0.7632
  808MOL0     C11381   6.964   6.886   4.879  0.4183 -0.5235  0.4304
  808MOL0     C11382   7.081   6.958   4.949  0.9412  0.6826 -0.4807
  808MOL0     N11383   7.062   7.099   4.977  0.3076 -0.0490 -0.4720
  808MOL0     C11384   7.072   7.143   5.107 -0.2345 -0.3520  1.0386
  808MOL0     C11385   7.038   7.273   5.099 -0.4862  0.0724  0.3192
  808MOL0     C11386   7.039   7.365   5.220  0.6657 -0.2468  0.1821
  808MOL0     C11387   7.166   7.449   5.237  0.1841  1.2764 -0.8557
  808MOL0     C11388   7.242   7.507   5.117 -0.3074  0.0052 -0.4311
  808MOL0     C11389   7.166   7.613   5.046 -0.0357 -0.7030  0.5025
  808MOL0     O11390   7.104   7.698   5.142 -0.0649 -0.1209  0.1167
  808MOL0     C11391   6.998   7.769   5.097  0.2280 -1.3040 -0.1908
  808MOL0     C11392   6.914   7.820   5.198 -0.7703  0.6551 -0.6441
  808MOL0     C11393   6.792   7.884   5.178 -0.2444  0.1488 -0.3743
  808MOL0     C11394   6.731   7.942   5.303  1.2526  0.0256  0.1098
  808MOL0     C11395   6.743   7.890   5.042  0.2372 -0.9379 -0.2062
  808MOL0     C11396   6.612   7.953   5.004  0.0613 -0.2890 -0.1468
  808MOL0     O11397   6.586   7.971   4.868 -0.0848 -0.0914  0.2157
  808MOL0     C11398   6.472   8.024   4.812  0.8092  0.1432 -0.5924
  808MOL0     C11399   6.368   8.098   4.888 -0.5207  0.0829 -0.3392
  808MOL0     C11400   6.260   8.144   4.823 -0.2686 -0.1369  0.3800
  808MOL0     C11401   6.232   8.130   4.686 -1.6780  0.1417  0.0611
  808MOL0     O11402   6.120   8.183   4.636  0.7045 -0.3699  0.3022
  808MOL0     C11403   6.098   8.176   4.489  0.5186 -0.0653 -1.4698
  808MOL0     C11404   6.043   8.037   4.463  0.3661  0.4864 -0.7045
  808MOL0     C11405   5.908   8.016   4.523  0.2081  0.0763  0.3920
  808MOL0     C11406   5.888   7.866   4.544  0.2584 -1.0223  0.1763
  808MOL0     C11407   5.745   7.826   4.587 -0.8259 -0.2538 -0.0395
  808MOL0     C11408   5.726   7.677   4.627  0.3798  0.2354 -0.0843
  808MOL0     C11409   5.578   7.635   4.639 -0.3176  0.7635  0.7252
  808MOL0     C11410   5.501   7.615   4.503  0.0499 -0.0498  0.0777
  808MOL0    Cl11411   5.344   7.538   4.526 -0.1253  0.1161 -0.2283
  808MOL0     C11412   6.334   8.053   4.617  0.2653  0.0005 -0.8802
  808MOL0     C11413   6.448   8.005   4.680 -0.3880  0.5065  0.0868
  808MOL0     O11414   6.532   7.983   5.098  0.1775 -0.6088  0.0752
  808MOL0     C11415   6.828   7.843   4.939 -0.6570  0.6967  0.3401
  808MOL0     C11416   6.953   7.787   4.966  0.0389 -0.4514 -0.1560
  808MOL0     N11417   7.001   7.304   4.971  0.4507 -0.3403 -0.5051
  808MOL0     N11418   7.018   7.202   4.896 -0.2221  0.9047  0.4988
  808MOL0     C11419   6.057   6.428   4.865 -0.2773  0.2151 -0.5816
  808MOL0     C11420   5.960   6.336   4.816 -0.3443 -1.5802 -1.0353
  808MOL0     C11421   5.608   6.147   4.611 -0.7668 -0.4981  0.7355
  808MOL0     C11422   5.647   6.086   4.490  0.2084 -0.4083 -0.2250
  808MOL0     C11423   5.568   5.995   4.424  0.3741  0.0109 -0.5064
  808MOL0     C11424   5.448   5.952   4.476  1.0545 -0.4342  0.0182
  808MOL0     O11425   5.374   5.862   4.412  0.5890  0.5867  0.3154
  808MOL0     C11426   5.243   5.825   4.453  0.2789  0.4151  0.3222
  808MOL0     C11427   5.171   5.730   4.354 -0.9163  0.6124  0.2148
  808MOL0     C11428   5.028   5.704   4.403  0.9313 -0.8433 -0.1201
  808MOL0     C11429   4.947   5.621   4.311  0.0550  0.0711  0.1178
  808MOL0     C11430   4.806   5.642   4.341  0.1002  0.2752 -0.3963
  808MOL0     C11431   4.693   5.653   4.375  0.1365 -1.0196 -0.2328
  808MOL0     C11432   5.411   6.005   4.603 -0.2278 -0.3412  0.8906
  808MOL0     C11433   5.481   6.105   4.665 -0.3445  0.3780 -0.4667
  808MOL0     C11434   5.418   6.158   4.795  0.2282 -0.3396 -0.1452
  808MOL0     H11435   5.940   6.456   4.501  3.5668 -1.0240 -1.2361
  808MOL0     H11436   6.097   6.621   4.589 -2.0024  0.3519  0.4356
  808MOL0     H11437   6.132   6.783   4.815 -0.0167 -0.5324  1.7124
  808MOL0     H11438   6.238   6.761   4.698 -1.5661  2.6123  1.4061
  808MOL0     H11439   6.307   6.900   4.898  0.2608  0.0339 -4.1616
  808MOL0     H11440   6.321   6.761   5.003 -1.1494 -1.5235  0.0425
  808MOL0     H11441   6.492   6.672   4.837 -1.4427  0.1847 -1.5663
  808MOL0     H11442   6.496   6.818   4.755  0.0309  1.4884  0.3523
  808MOL0     H11443   6.538   6.937   4.988 -1.4110 -1.0105  1.7498
  808MOL0     H11444   6.571   6.773   5.049 -0.3591  0.6556  1.5757
  808MOL0     H11445   6.704   6.874   4.806 -3.6990  1.0953  1.0406
  808MOL0     H11446   6.727   6.719   4.881 -1.3947  0.5705 -3.0683
  808MOL0     H11447   6.800   6.990   4.987 -0.8426 -0.3116  1.7845
  808MOL0     H11448   6.852   6.837   5.057  1.0498 -0.0084  0.4863
  808MOL0     H11449   6.948   6.931   4.781 -5.7311  2.3129  2.2362
  808MOL0     H11450   6.993   6.781   4.863  0.7013 -0.3064 -0.5382
  808MOL0     H11451   7.116   6.899   5.034  0.9124  0.5599 -0.5533
  808MOL0     H11452   7.161   6.939   4.877  0.1482 -0.8374 -1.0217
  808MOL0     H11453   7.113   7.098   5.197  2.0469  0.6488  0.5801
  808MOL0     H11454   7.032   7.312   5.315 -0.1326  1.5645  1.1758
  808MOL0     H11455   6.953   7.431   5.212  0.7398 -0.2057 -0.2802
  808MOL0     H11456   7.130   7.524   5.309 -0.6942 -2.4726  3.0599
  808MOL0     H11457   7.236   7.394   5.300  0.0087  1.6268 -0.3503
  808MOL0     H11458   7.332   7.554   5.159  0.8996 -0.8608 -1.9570
  808MOL0     H11459   7.284   7.435   5.047  0.5376  2.2879 -2.4143
  808MOL0     H11460   7.229   7.678   4.983 -2.1301  0.1064 -0.8650
  808MOL0     H11461   7.086   7.566   4.987 -1.5107  1.1278  0.9828
  808MOL0     H11462   6.962   7.832   5.295  2.1068  5.5595 -2.3423
  808MOL0     H11463   6.625   7.915   5.309  1.3552 -0.5542 -0.5603
  808MOL0     H11464   6.735   8.052   5.294  0.0793  0.1510  0.9627
  808MOL0     H11465   6.781   7.912   5.395  1.7200  1.7978  0.4848
  808MOL0     H11466   6.379   8.112   4.995  1.3435 -1.4944 -0.2694
  808MOL0     H11467   6.185   8.191   4.886 -0.6432 -0.7555  0.3973
  808MOL0     H11468   6.017   8.245   4.464  0.0403 -0.3884 -0.8453
  808MOL0     H11469   6.183   8.203   4.426 -0.1366  3.1091 -1.1530
  808MOL0     H11470   6.049   8.010   4.357  3.0291 -0.5617 -0.3525
  808MOL0     H11471   6.115   7.969   4.509  0.8310  0.5976 -1.2445
  808MOL0     H11472   5.832   8.052   4.453  2.6819  0.4942 -2.2426
  808MOL0     H11473   5.894   8.059   4.623 -1.9933 -0.5566  0.4190
  808MOL0     H11474   5.961   7.827   4.616  0.2295  1.6647  1.7970
  808MOL0     H11475   5.904   7.813   4.450 -1.6454 -2.2806  0.5018
  808MOL0     H11476   5.697   7.892   4.659 -0.0495  1.4777 -1.0326
  808MOL0     H11477   5.685   7.855   4.499 -2.9654  0.3581  1.5396
  808MOL0     H11478   5.759   7.672   4.731  0.6674  2.2353 -0.0313
  808MOL0     H11479   5.790   7.611   4.568 -0.5115 -0.3505 -0.4117
  808MOL0     H11480   5.527   7.712   4.698 -0.2144  0.9782  0.5334
  808MOL0     H11481   5.569   7.536   4.685  0.9683 -0.3425 -1.2604
  808MOL0     H11482   5.562   7.540   4.451  1.7222  0.9229  0.5621
  808MOL0     H11483   5.496   7.708   4.447  1.7918 -0.3408 -0.6351
  808MOL0     H11484   6.335   8.027   4.511 -0.1116  0.2200 -0.9423
  808MOL0     H11485   6.513   7.940   4.623  2.3196  0.0836  3.3538
  808MOL0     H11486   6.800   7.853   4.835  1.8727 -0.7086 -0.5615
  808MOL0     H11487   7.019   7.770   4.881  0.8823 -1.4264  0.6805
  808MOL0     H11488   6.099   6.398   4.961  0.2552  1.8764 -0.2589
  808MOL0     H11489   5.928   6.256   4.881  2.6425 -2.9911 -1.1391
  808MOL0     H11490   5.739   6.117   4.443  0.3189  3.2575  1.9857
  808MOL0     H11491   5.599   5.956   4.327 -1.0312 -2.2135 -0.1363
  808MOL0     H11492   5.247   5.767   4.546  1.0277  0.8623  0.5844
  808MOL0     H11493   5.179   5.913   4.457  0.4425  0.7242 -2.3556
  808MOL0     H11494   5.230   5.638   4.350 -0.4596  0.8876  0.6032
  808MOL0     H11495   5.179   5.787   4.260  1.7746  0.5189  0.3342
  808MOL0     H11496   5.032   5.655   4.500 -1.6535 -0.1132  0.4370
  808MOL0     H11497   4.978   5.801   4.417  1.9907 -0.2014 -0.6666
  808MOL0     H11498   4.981   5.517   4.313 -1.6196 -0.5621 -1.6923
  808MOL0     H11499   4.950   5.657   4.208  1.1280 -0.1009  0.0700
  808MOL0     H11500   4.588   5.662   4.392  0.0054  2.7645 -2.0559
  808MOL0     H11501   5.326   5.956   4.650  0.6178 -3.3710 -0.4519
  808MOL0     H11502   5.472   6.114   4.880 -1.7071 -2.9434 -0.1226
  808MOL0     H11503   5.428   6.265   4.814 -2.1009 -0.1333  0.2603
  808MOL0     H11504   5.314   6.125   4.802  0.7391 -2.2302 -0.9371
  809MOL0     O11505   2.795  10.320   1.373 -0.1808  0.5642  0.2433
  809MOL0     C11506   2.861  10.303   1.269  0.6691 -0.7119 -0.3777
  809MOL0     O11507   2.987  10.353   1.253 -0.1707  0.0963 -0.2829
  809MOL0     C11508   3.022  10.467   1.316 -0.2082 -0.0684  0.4461
  809MOL0     C11509   3.048  10.588   1.253  0.4776  0.5808  1.3231
  809MOL0     C11510   3.094  10.698   1.327 -0.0090  0.0959  0.8672
  809MOL0     C11511   3.106  10.691   1.467  0.6868 -0.4183 -0.8803
  809MOL0     O11512   3.138  10.798   1.543 -0.2570  1.0395  0.6109
  809MOL0     C11513   3.129  10.922   1.488  0.3422 -0.5264 -0.0771
  809MOL0     C11514   3.154  11.033   1.599 -0.0594 -0.0295 -1.7099
  809MOL0     C11515   3.294  11.005   1.668 -0.0729 -0.8043  0.1513
  809MOL0     C11516   3.374  11.138   1.698 -0.6120 -0.7868 -0.8092
  809MOL0     C11517   3.524  11.125   1.753  0.1364 -0.4155  0.0005
  809MOL0     C11518   3.525  11.058   1.891 -0.2170  0.5423 -0.0999
  809MOL0     C11519   3.671  11.042   1.941 -0.7426  0.4620  0.1640
  809MOL0     C11520   3.685  10.979   2.084  0.1743 -0.4952  0.2038
  809MOL0     N11521   3.606  10.857   2.104 -0.4817  0.1387  0.7612
  809MOL0     C11522   3.627  10.735   2.043 -0.5900  0.3683  0.1516
  809MOL0     C11523   3.534  10.652   2.086 -0.6382  0.0515  0.3302
  809MOL0     C11524   3.537  10.507   2.047 -0.6882  0.0780  0.0337
  809MOL0     C11525   3.665  10.446   2.094  0.1426 -0.8237 -0.0398
  809MOL0     C11526   3.666  10.320   2.016  0.3941  0.1253 -0.5754
  809MOL0     C11527   3.768  10.216   2.066  0.0788  0.6953 -0.1160
  809MOL0     O11528   3.696  10.100   2.117 -0.0677  0.3071  0.3103
  809MOL0     C11529   3.763  10.009   2.201 -0.0219 -0.1468 -0.4091
  809MOL0     C11530   3.685   9.913   2.266  0.3779 -0.2917  0.9381
  809MOL0     C11531   3.742   9.820   2.362  0.5791  0.3641  0.6138
  809MOL0     C11532   3.645   9.728   2.443  1.0763 -0.3256 -1.2261
  809MOL0     C11533   3.881   9.823   2.389 -0.0896  0.6161  0.2836
  809MOL0     C11534   3.953   9.731   2.482 -0.9143 -0.6936  0.0029
  809MOL0     O11535   4.080   9.771   2.510  0.1186  0.1158  1.0971
  809MOL0     C11536   4.152   9.683   2.581  0.0783  1.0231  0.2390
  809MOL0     C11537   4.195   9.561   2.526  0.9346  0.1613 -0.6708
  809MOL0     C11538   4.263   9.459   2.595  0.5256  0.6699  0.2165
  809MOL0     C11539   4.279   9.473   2.731  0.3644  0.2887  0.3403
  809MOL0     O11540   4.349   9.371   2.795  0.2383 -0.4142  0.3546
  809MOL0     C11541   4.377   9.379   2.931  0.1875 -0.3545 -0.7773
  809MOL0     C11542   4.482   9.273   2.968 -0.7059 -0.2738  0.6629
  809MOL0     C11543   4.443   9.126   2.956  0.4976 -0.2585  0.0394
  809MOL0     C11544   4.543   9.028   3.020 -0.9170  0.3441  0.2329
  809MOL0     C11545   4.487   8.888   3.022  0.2993 -0.4930 -0.4236
  809MOL0     C11546   4.412   8.850   3.149  0.6670 -0.4547  0.4496
  809MOL0     C11547   4.371   8.692   3.151  0.4816  0.3875  0.2969
  809MOL0     C11548   4.247   8.663   3.069  0.3514  0.7513  0.5654
  809MOL0    Cl11549   4.104   8.762   3.134 -0.4401 -0.0594  0.2587
  809MOL0     C11550   4.230   9.598   2.792 -0.8367  0.5655  0.2229
  809MOL0     C11551   4.170   9.702   2.714  0.3821 -0.0332 -0.7564
  809MOL0     O11552   3.902   9.631   2.532  0.2181 -0.0382  0.6263
  809MOL0     C11553   3.952   9.912   2.313 -0.7454 -0.5644  0.1242
  809MOL0     C11554   3.900  10.007   2.221  0.3304 -0.2484  0.3487
  809MOL0     N11555   3.468  10.716   2.190 -0.0330 -0.4659 -0.0096
  809MOL0     N11556   3.501  10.841   2.193 -0.4787  0.4058  0.3897
  809MOL0     C11557   3.091  10.566   1.531  0.4045  0.0960  0.1977
  809MOL0     C11558   3.050  10.457   1.451 -0.2787  0.7564  0.2889
  809MOL0     C11559   2.811  10.224   1.150 -0.5607  0.2280  0.3116
  809MOL0     C11560   2.913  10.147   1.092  0.1536  0.4207  0.5707
  809MOL0     C11561   2.878  10.057   0.991 -0.3969  0.9461  0.4919
  809MOL0     C11562   2.757  10.056   0.924  1.1465 -1.2321 -0.8885
  809MOL0     O11563   2.729   9.973   0.818  0.3904 -0.1377 -0.1793
  809MOL0     C11564   2.603   9.978   0.751  0.0842 -0.4876 -0.3176
  809MOL0     C11565   2.639   9.932   0.614 -0.5358 -0.7107 -0.3047
  809MOL0     C11566   2.716   9.804   0.611  0.9166  0.3891  0.9765
  809MOL0     C11567   2.668   9.731   0.484 -0.5504  0.4751  0.3392
  809MOL0     C11568   2.563   9.633   0.501 -0.7106  0.8267  0.4468
  809MOL0     C11569   2.465   9.568   0.523  0.4340 -0.3870  0.6622
  809MOL0     C11570   2.657  10.134   0.987 -0.9652  0.2000 -0.2987
  809MOL0     C11571   2.680  10.210   1.096 -0.5991  0.1977 -0.7675
  809MOL0     C11572   2.555  10.267   1.169 -0.6339  0.0149  0.6641
  809MOL0     H11573   3.042  10.593   1.145  2.5290 -1.0931  1.0623
  809MOL0     H11574   3.109  10.784   1.263 -0.4757 -1.6641 -1.7883
  809MOL0     H11575   3.029  10.942   1.451  0.7812  4.1881  0.5732
  809MOL0     H11576   3.199  10.929   1.404  2.2742 -0.1776  1.4704
  809MOL0     H11577   3.153  11.136   1.561  4.3747  1.9933  2.5788
  809MOL0     H11578   3.079  11.024   1.679  2.1936 -3.2969  0.2810
  809MOL0     H11579   3.288  10.950   1.762  1.0901 -0.2296  0.5822
  809MOL0     H11580   3.343  10.941   1.594 -0.7133 -0.0647 -0.9595
  809MOL0     H11581   3.383  11.195   1.605  4.0029 -0.7870 -0.5958
  809MOL0     H11582   3.323  11.202   1.771  0.5881 -0.3760 -0.3128
  809MOL0     H11583   3.569  11.224   1.766  0.4876 -0.3324 -1.6570
  809MOL0     H11584   3.578  11.070   1.676 -0.6568  0.7963 -1.4775
  809MOL0     H11585   3.472  11.117   1.967 -1.0966 -2.8555  2.1214
  809MOL0     H11586   3.467  10.966   1.899 -0.7873  0.8443 -0.6548
  809MOL0     H11587   3.712  11.143   1.933 -0.3130  0.2204 -0.9413
  809MOL0     H11588   3.725  10.970   1.879 -0.1165  2.6392 -1.9765
  809MOL0     H11589   3.788  10.945   2.092 -0.1262 -1.8217 -1.1341
  809MOL0     H11590   3.668  11.054   2.162  0.6544 -1.2154  1.0298
  809MOL0     H11591   3.714  10.717   1.980 -0.3712 -0.8500  0.7645
  809MOL0     H11592   3.524  10.491   1.940 -1.2769  0.5018  0.0324
  809MOL0     H11593   3.457  10.454   2.101 -1.9322  1.1247 -0.7138
  809MOL0     H11594   3.744  10.518   2.071  0.7514 -1.5380 -0.2361
  809MOL0     H11595   3.674  10.417   2.200  0.4976  0.0459  0.1731
  809MOL0     H11596   3.566  10.275   2.015  0.8511 -1.0311  1.5287
  809MOL0     H11597   3.694  10.349   1.914 -2.2287  5.3624 -0.1190
  809MOL0     H11598   3.829  10.199   1.977 -1.5854  2.3800 -1.6525
  809MOL0     H11599   3.840  10.252   2.140  2.9319 -1.3409 -1.6894
  809MOL0     H11600   3.580   9.915   2.237  0.8396  0.1771 -0.7693
  809MOL0     H11601   3.541   9.760   2.444  1.1636  0.4046  2.8741
  809MOL0     H11602   3.675   9.717   2.548 -0.5183 -0.6103 -0.7777
  809MOL0     H11603   3.623   9.629   2.403 -0.8116 -1.3756  2.0831
  809MOL0     H11604   4.172   9.542   2.421 -0.4211 -0.2645 -0.3196
  809MOL0     H11605   4.273   9.367   2.539 -2.7980 -0.6205  1.4368
  809MOL0     H11606   4.409   9.477   2.967  1.3434 -1.6432  1.9646
  809MOL0     H11607   4.286   9.350   2.984  0.8025 -1.0790 -0.1143
  809MOL0     H11608   4.567   9.293   2.902 -1.4638 -2.9780 -1.3412
  809MOL0     H11609   4.513   9.289   3.072  2.4636  0.8542 -0.3403
  809MOL0     H11610   4.427   9.099   2.851 -1.8324  0.1532  0.2334
  809MOL0     H11611   4.341   9.118   2.995 -0.0014  0.1121 -1.1682
  809MOL0     H11612   4.560   9.061   3.123 -0.7372 -1.4058  0.7946
  809MOL0     H11613   4.645   9.034   2.981 -1.6871  1.0169 -1.7553
  809MOL0     H11614   4.421   8.872   2.936  0.3335  0.5862 -0.6714
  809MOL0     H11615   4.574   8.826   3.002  0.1354 -0.3337 -1.6855
  809MOL0     H11616   4.320   8.910   3.152  0.9004 -0.0374 -0.3133
  809MOL0     H11617   4.475   8.863   3.237  0.2307  1.8677  0.4787
  809MOL0     H11618   4.362   8.652   3.253  0.5265  1.6226  0.8095
  809MOL0     H11619   4.447   8.636   3.097  1.3528  0.1019  1.7427
  809MOL0     H11620   4.222   8.557   3.065  3.5484 -0.0938  0.6948
  809MOL0     H11621   4.273   8.693   2.967 -0.5457 -1.4879 -0.3869
  809MOL0     H11622   4.243   9.613   2.899 -1.2980  2.1244  0.0855
  809MOL0     H11623   4.126   9.791   2.759  0.2225 -0.3502 -0.2816
  809MOL0     H11624   4.058   9.918   2.332 -0.5080  2.2700 -1.6257
  809MOL0     H11625   3.961  10.086   2.181 -1.7265  1.4614  0.3936
  809MOL0     H11626   3.100  10.557   1.639  0.1816  3.4400  0.5784
  809MOL0     H11627   3.043  10.354   1.486  0.9666  0.0695 -1.3772
  809MOL0     H11628   3.011  10.145   1.138  0.9099 -0.6500 -1.0153
  809MOL0     H11629   2.958   9.996   0.950 -1.1931  0.1414  0.1043
  809MOL0     H11630   2.541   9.898   0.793 -0.6122  0.1660 -0.0808
  809MOL0     H11631   2.550  10.074   0.748 -1.2695 -1.0526  2.2930
  809MOL0     H11632   2.695  10.009   0.561 -0.1865 -0.6380  0.1636
  809MOL0     H11633   2.539   9.920   0.572 -1.0767 -1.5209  1.1347
  809MOL0     H11634   2.820   9.837   0.618  1.0427 -0.0646  1.2405
  809MOL0     H11635   2.695   9.744   0.700 -0.5668 -0.8201 -0.1329
  809MOL0     H11636   2.753   9.675   0.446  0.6007  1.8011  0.8725
  809MOL0     H11637   2.646   9.799   0.401 -0.9223 -0.4109 -0.3062
  809MOL0     H11638   2.375   9.518   0.552  0.5788 -0.1024  1.6609
  809MOL0     H11639   2.554  10.143   0.953 -0.4635 -1.5449 -2.5538
  809MOL0     H11640   2.510  10.208   1.249 -0.2240 -2.5140 -0.8698
  809MOL0     H11641   2.568  10.372   1.196 -0.9475  0.4333 -0.7310
  809MOL0     H11642   2.475  10.276   1.095 -2.3224 -0.6964  2.3200
  810MOL0     O11643  11.097   6.335   4.662  0.0381  0.4435  0.6649
  810MOL0     C11644  11.146   6.422   4.738 -0.7083  0.9996 -0.3126
  810MOL0     O11645  11.278   6.468   4.727  0.1600 -0.2638 -0.0718
  810MOL0     C11646  11.358   6.362   4.679 -0.8716 -0.0708  0.6013
  810MOL0     C11647  11.406   6.266   4.764 -0.4937 -0.1861  0.1895
  810MOL0     C11648  11.514   6.186   4.724  0.3956 -0.6099 -0.7364
  810MOL0     C11649  11.559   6.182   4.586  0.2125 -0.5109  0.1602
  810MOL0     O11650  11.648   6.089   4.535  0.7903  0.5590 -0.6673
  810MOL0     C11651  11.724   6.013   4.633  0.0284 -0.0439  0.2780
  810MOL0     C11652  11.856   5.981   4.555 -0.0370 -0.6389 -0.1036
  810MOL0     C11653  11.960   5.891   4.610  0.3740  0.3254 -0.1556
  810MOL0     C11654  12.090   5.965   4.639 -0.3389 -0.8874 -0.1815
  810MOL0     C11655  12.184   5.868   4.721  0.5728  0.0876  0.9108
  810MOL0     C11656  12.310   5.948   4.752 -0.0146  0.1313  0.0287
  810MOL0     C11657  12.437   5.868   4.812  0.8043 -0.3095 -0.2125
  810MOL0     C11658  12.548   5.977   4.817 -0.6132  0.6744 -0.2517
  810MOL0     N11659  12.678   5.919   4.866  0.0408 -0.5899  0.0578
  810MOL0     C11660  12.724   5.945   4.992 -0.7336  0.3365  0.2088
  810MOL0     C11661  12.822   5.859   5.012  0.0368  0.3412  0.0991
  810MOL0     C11662  12.913   5.836   5.134  0.7694  0.1001  0.4888
  810MOL0     C11663  13.063   5.824   5.107  0.1978 -0.7060  0.5078
  810MOL0     C11664  13.142   5.947   5.058 -0.3198  0.4158  0.0400
  810MOL0     C11665  13.296   5.917   5.056 -0.4235 -0.4822 -0.8071
  810MOL0     O11666  13.363   6.042   5.053 -0.4054  0.3021 -1.0882
  810MOL0     C11667  13.498   6.055   5.030 -0.3056  0.1186 -0.4006
  810MOL0     C11668  13.537   6.134   4.923 -0.1875  0.1873  0.7749
  810MOL0     C11669  13.672   6.138   4.883 -0.2217  0.8673  0.1366
  810MOL0     C11670  13.704   6.219   4.762 -1.2484  0.1940 -0.2611
  810MOL0     C11671  13.770   6.068   4.953 -0.1264  0.1908  0.3703
  810MOL0     C11672  13.917   6.062   4.922 -0.4277 -0.4638 -0.2933
  810MOL0     O11673  13.989   5.966   4.986  0.0055 -0.0734 -0.5830
  810MOL0     C11674  14.114   5.961   4.963 -1.0056  0.4214  0.6678
  810MOL0     C11675  14.168   5.920   4.837 -0.0891 -0.3328  0.4254
  810MOL0     C11676  14.300   5.914   4.806 -0.3776  0.6682 -0.1589
  810MOL0     C11677  14.399   5.953   4.896 -0.6478  0.3897 -0.1954
  810MOL0     O11678  14.532   5.953   4.858  0.6990  0.7148  0.1531
  810MOL0     C11679  14.615   5.878   4.950 -0.2579  0.1600  0.9366
  810MOL0     C11680  14.753   5.879   4.891 -0.2124  0.4504  0.3834
  810MOL0     C11681  14.832   6.005   4.887  0.4114  1.6530 -0.4635
  810MOL0     C11682  14.976   5.986   4.832  0.2173  0.0557 -0.1450
  810MOL0     C11683  15.059   6.112   4.853 -0.4340  0.0064  0.0879
  810MOL0     C11684  15.206   6.086   4.808 -0.1603  1.0798 -0.3044
  810MOL0     C11685  15.290   6.201   4.846 -0.5215 -0.8383  0.4385
  810MOL0     C11686  15.421   6.196   4.766  0.5917  0.3666 -0.6247
  810MOL0    Cl11687  15.534   6.060   4.810  0.4560  0.0081  0.5027
  810MOL0     C11688  14.351   5.991   5.022 -0.2878 -0.2833 -0.0196
  810MOL0     C11689  14.211   5.995   5.061 -0.5842 -0.0761 -0.0487
  810MOL0     O11690  13.968   6.153   4.850 -0.4884  0.4066  0.0789
  810MOL0     C11691  13.728   5.995   5.066 -0.7417 -0.0188 -0.4269
  810MOL0     C11692  13.592   5.985   5.098 -0.4206  0.5193  0.6318
  810MOL0     N11693  12.824   5.776   4.907  0.3885  0.0922  0.1128
  810MOL0     N11694  12.736   5.810   4.823 -0.3081  0.3897  0.1835
  810MOL0     C11695  11.496   6.268   4.494  0.4785  0.4064 -0.5424
  810MOL0     C11696  11.405   6.358   4.544 -0.1096 -0.3769 -0.1335
  810MOL0     C11697  11.062   6.494   4.850  0.5520  0.0245 -0.5906
  810MOL0     C11698  11.127   6.531   4.965 -0.7035  0.5121 -0.8225
  810MOL0     C11699  11.059   6.588   5.081  0.0256  0.5097  0.1347
  810MOL0     C11700  10.920   6.592   5.081  0.9653 -0.4770 -0.7845
  810MOL0     O11701  10.848   6.635   5.196 -0.4266  0.2658  0.4034
  810MOL0     C11702  10.869   6.545   5.309  0.5460 -0.8359  0.4092
  810MOL0     C11703  10.727   6.511   5.358  0.1969  0.1445 -0.3816
  810MOL0     C11704  10.621   6.445   5.266 -0.1354  0.0690 -0.3388
  810MOL0     C11705  10.507   6.391   5.345  0.4807  0.3527 -0.4305
  810MOL0     C11706  10.528   6.265   5.416  0.0745  0.3060 -0.1740
  810MOL0     C11707  10.527   6.176   5.493  0.0925  0.5201  0.0923
  810MOL0     C11708  10.850   6.578   4.958  0.6757  0.2297 -0.5504
  810MOL0     C11709  10.924   6.526   4.842  0.2362 -0.5948 -0.1467
  810MOL0     C11710  10.855   6.511   4.710 -0.2071 -0.0669  0.5216
  810MOL0     H11711  11.384   6.275   4.870  0.8204  0.1177  0.4623
  810MOL0     H11712  11.562   6.124   4.799 -0.3748  0.9805  1.1731
  810MOL0     H11713  11.677   5.916   4.653  0.5401 -0.7994 -1.9568
  810MOL0     H11714  11.743   6.061   4.729 -3.1971  0.3569  0.8542
  810MOL0     H11715  11.846   5.943   4.453  2.9629  0.3541 -0.8859
  810MOL0     H11716  11.894   6.082   4.536 -2.3165  0.0923 -1.0828
  810MOL0     H11717  11.926   5.855   4.708 -1.9865 -0.3447 -1.1348
  810MOL0     H11718  11.976   5.803   4.547  0.6074 -1.1196  1.8444
  810MOL0     H11719  12.142   5.999   4.549  1.4767 -0.0706  1.1171
  810MOL0     H11720  12.066   6.051   4.703  0.5082 -0.0420 -0.9657
  810MOL0     H11721  12.212   5.782   4.661  0.1053 -0.0872  0.9397
  810MOL0     H11722  12.129   5.835   4.810 -2.9489  2.3342 -0.1969
  810MOL0     H11723  12.337   5.997   4.658 -2.7801 -0.7921 -1.3532
  810MOL0     H11724  12.278   6.029   4.819  0.1459 -1.1922  1.7748
  810MOL0     H11725  12.465   5.789   4.741 -2.0834 -0.6232 -1.1427
  810MOL0     H11726  12.404   5.825   4.907 -1.9225 -1.0215 -1.3716
  810MOL0     H11727  12.564   6.014   4.715 -2.1423  2.8307  0.2271
  810MOL0     H11728  12.508   6.055   4.882 -2.4595  0.7061 -1.3647
  810MOL0     H11729  12.690   6.018   5.065 -0.3436 -2.0745  3.0047
  810MOL0     H11730  12.869   5.756   5.194 -1.1028  1.1992  0.6449
  810MOL0     H11731  12.903   5.925   5.198  1.8422 -0.7078  1.8375
  810MOL0     H11732  13.113   5.792   5.199 -1.6550 -0.0342  1.8004
  810MOL0     H11733  13.080   5.741   5.037 -0.3457  1.4567 -2.4012
  810MOL0     H11734  13.105   5.975   4.959 -1.9362 -0.8887  0.2430
  810MOL0     H11735  13.126   6.027   5.131 -2.1389 -0.3137  0.5047
  810MOL0     H11736  13.316   5.867   5.152 -0.0467 -2.0215 -1.6530
  810MOL0     H11737  13.336   5.858   4.973  1.8421  3.4925 -2.8745
  810MOL0     H11738  13.460   6.176   4.859  0.2488 -0.5375 -0.2650
  810MOL0     H11739  13.767   6.163   4.693  1.7742  1.9375  0.8978
  810MOL0     H11740  13.769   6.300   4.795  0.6489 -1.2802 -0.1856
  810MOL0     H11741  13.617   6.255   4.706 -0.2324  1.1531 -1.2665
  810MOL0     H11742  14.099   5.899   4.756  2.7810  1.9614 -2.9097
  810MOL0     H11743  14.321   5.888   4.703  1.7444 -1.2285  0.6593
  810MOL0     H11744  14.620   5.926   5.048  0.7738 -0.0386  0.9852
  810MOL0     H11745  14.589   5.771   4.957 -0.2272 -0.0211 -1.0997
  810MOL0     H11746  14.813   5.806   4.947 -0.9886  0.7667  1.6816
  810MOL0     H11747  14.737   5.836   4.792 -1.0408  0.1364  0.6453
  810MOL0     H11748  14.850   6.038   4.990  0.5211 -3.7682  1.5453
  810MOL0     H11749  14.775   6.081   4.831 -3.3040  0.0038  0.7595
  810MOL0     H11750  14.955   5.964   4.727 -1.3781 -0.0611  0.1677
  810MOL0     H11751  15.027   5.906   4.886  0.6533  1.8274  2.2449
  810MOL0     H11752  15.020   6.187   4.784  1.7693  0.2125 -1.0142
  810MOL0     H11753  15.055   6.151   4.955  2.6720 -1.5159  0.9110
  810MOL0     H11754  15.201   6.071   4.700 -0.9244 -0.1420 -0.1141
  810MOL0     H11755  15.245   5.992   4.848  1.4835 -0.1674 -4.3692
  810MOL0     H11756  15.327   6.210   4.949  0.6415 -1.0933  0.0551
  810MOL0     H11757  15.237   6.295   4.830 -1.4493 -1.0970  1.8274
  810MOL0     H11758  15.477   6.285   4.796 -0.4762  0.0389  2.8793
  810MOL0     H11759  15.403   6.206   4.659 -1.2728  1.3782 -0.2624
  810MOL0     H11760  14.427   6.021   5.093 -0.9412  3.1103 -0.5507
  810MOL0     H11761  14.179   6.030   5.159  4.1761  4.0093  0.4402
  810MOL0     H11762  13.808   5.961   5.131  0.5649  1.0604 -1.4023
  810MOL0     H11763  13.557   5.926   5.182 -1.5006 -0.7863 -0.6740
  810MOL0     H11764  11.533   6.284   4.393  2.0587 -1.4001 -0.2983
  810MOL0     H11765  11.367   6.437   4.480  0.4922  1.3071  1.4804
  810MOL0     H11766  11.230   6.501   4.979 -0.7355  0.1601 -1.3451
  810MOL0     H11767  11.123   6.623   5.162 -0.3647 -0.1047  0.7172
  810MOL0     H11768  10.928   6.458   5.276  0.6444 -0.9171  0.7955
  810MOL0     H11769  10.914   6.597   5.394  3.3056  0.0345 -1.4429
  810MOL0     H11770  10.686   6.601   5.405 -0.4686  0.0288 -0.7264
  810MOL0     H11771  10.739   6.438   5.438  2.8386  0.7818 -0.0957
  810MOL0     H11772  10.591   6.504   5.179 -0.5856 -0.1722 -0.3524
  810MOL0     H11773  10.664   6.360   5.212 -0.3432 -0.6621  0.6137
  810MOL0     H11774  10.417   6.375   5.285  1.3349  1.0363 -1.9408
  810MOL0     H11775  10.473   6.470   5.413  1.2593 -0.2004  0.6440
  810MOL0     H11776  10.524   6.093   5.560 -2.5755 -0.2383 -0.8253
  810MOL0     H11777  10.741   6.582   4.958  0.6390  1.3312  1.9519
  810MOL0     H11778  10.909   6.561   4.628 -1.6707  2.5082  0.9872
  810MOL0     H11779  10.852   6.405   4.684 -0.1325  0.0318  0.0959
  810MOL0     H11780  10.757   6.560   4.716 -1.2949 -2.2442  1.4241
  811MOL0     O11781  10.757   9.988   5.192 -0.0347  0.0141 -0.0020
  811MOL0     C11782  10.697   9.881   5.213 -0.7742  0.0488 -0.7620
  811MOL0     O11783  10.743   9.787   5.301 -0.3180 -0.1063 -0.7088
  811MOL0     C11784  10.878   9.760   5.299 -0.5963  0.0922  0.0769
  811MOL0     C11785  10.973   9.833   5.376  0.4729  0.0531  0.5302
  811MOL0     C11786  11.109   9.810   5.371 -0.3263 -0.5533  0.1115
  811MOL0     C11787  11.163   9.699   5.294  0.6875 -0.2090  0.1113
  811MOL0     O11788  11.297   9.687   5.297  0.2175 -0.1388  0.2570
  811MOL0     C11789  11.356   9.595   5.206 -0.1261  0.3627  0.2743
  811MOL0     C11790  11.508   9.594   5.208  0.3498  0.3659 -0.6006
  811MOL0     C11791  11.573   9.534   5.086  0.5960 -0.2214 -0.5985
  811MOL0     C11792  11.724   9.566   5.086  0.7580 -0.7344  0.0654
  811MOL0     C11793  11.800   9.535   4.956  0.7916  0.7852 -0.7167
  811MOL0     C11794  11.755   9.610   4.839 -1.1311 -0.6309  0.1699
  811MOL0     C11795  11.797   9.752   4.833 -0.0328 -0.8685 -0.0772
  811MOL0     C11796  11.910   9.788   4.748 -0.9211 -0.3189  0.0231
  811MOL0     N11797  11.931   9.932   4.721  0.8050  1.0095  0.5228
  811MOL0     C11798  11.939  10.031   4.806 -0.5117  0.5430 -0.7116
  811MOL0     C11799  11.959  10.141   4.733 -0.3411 -0.5729 -0.1625
  811MOL0     C11800  11.958  10.285   4.787  0.5331  0.2907  0.2742
  811MOL0     C11801  12.097  10.327   4.844 -0.0382 -0.6656 -0.4499
  811MOL0     C11802  12.119  10.481   4.859 -0.5775 -0.0748  0.0653
  811MOL0     C11803  12.255  10.517   4.914  0.6489 -0.2885  0.1770
  811MOL0     O11804  12.334  10.543   4.799  0.7898 -0.0959  0.1057
  811MOL0     C11805  12.457  10.554   4.838 -0.3947  0.2345  0.0894
  811MOL0     C11806  12.519  10.678   4.839  0.6046 -0.0535 -0.7392
  811MOL0     C11807  12.659  10.696   4.859 -0.4601 -0.4379  0.0286
  811MOL0     C11808  12.710  10.838   4.840 -0.2450  0.1705 -0.1077
  811MOL0     C11809  12.741  10.584   4.865  0.7668  0.4136  0.5335
  811MOL0     C11810  12.887  10.576   4.868 -0.3751  0.1521  0.0704
  811MOL0     O11811  12.945  10.671   4.792  0.5956 -0.4856  0.6081
  811MOL0     C11812  13.080  10.677   4.764 -0.0288  0.0214 -0.1228
  811MOL0     C11813  13.159  10.566   4.735  0.5268  0.1523  0.5859
  811MOL0     C11814  13.292  10.572   4.706  0.3058  0.2155  0.1958
  811MOL0     C11815  13.354  10.696   4.685 -0.4898  0.5197  0.6994
  811MOL0     O11816  13.486  10.692   4.644  0.2037  0.1762 -0.1694
  811MOL0     C11817  13.563  10.810   4.623 -0.2687 -0.1307  0.4111
  811MOL0     C11818  13.637  10.787   4.501 -0.4121 -0.3488 -0.0839
  811MOL0     C11819  13.765  10.699   4.529  0.2422  0.5697  0.2646
  811MOL0     C11820  13.880  10.786   4.568 -0.2995 -0.3564  0.2837
  811MOL0     C11821  14.008  10.710   4.590  0.0472  0.9121 -0.0374
  811MOL0     C11822  14.123  10.803   4.601 -0.2346 -0.8403  0.4871
  811MOL0     C11823  14.158  10.861   4.742  0.3538  0.4393 -0.5436
  811MOL0     C11824  14.249  10.987   4.745 -0.1414 -0.4989  0.1327
  811MOL0    Cl11825  14.158  11.125   4.677 -0.1578  0.2353 -0.3032
  811MOL0     C11826  13.281  10.811   4.707 -0.3402 -0.5267 -1.2219
  811MOL0     C11827  13.148  10.798   4.753  0.5017 -0.9525  0.0958
  811MOL0     O11828  12.946  10.490   4.934  0.2483  0.1969  0.3624
  811MOL0     C11829  12.675  10.459   4.874 -0.3522 -0.6787 -0.0045
  811MOL0     C11830  12.539  10.440   4.865  0.0250 -0.0818  0.0375
  811MOL0     N11831  11.975  10.107   4.601 -0.1501  0.0308  0.4260
  811MOL0     N11832  11.949   9.981   4.597 -0.1216 -0.6246 -0.1582
  811MOL0     C11833  11.072   9.635   5.206 -0.1746 -0.4515  0.6118
  811MOL0     C11834  10.934   9.658   5.220 -0.2670  0.2477  0.3299
  811MOL0     C11835  10.550   9.865   5.173 -0.6020  0.1891  0.1920
  811MOL0     C11836  10.485   9.749   5.218  0.4653  0.1426 -0.6936
  811MOL0     C11837  10.346   9.734   5.206 -0.3224 -0.7019  0.0638
  811MOL0     C11838  10.276   9.823   5.132  0.5750  0.2019 -0.4028
  811MOL0     O11839  10.142   9.803   5.142  0.2277 -0.7358  0.2043
  811MOL0     C11840  10.055   9.882   5.058 -1.0226  0.0298 -0.7391
  811MOL0     C11841   9.924   9.803   5.028 -0.8759 -0.5090 -0.3433
  811MOL0     C11842   9.886   9.841   4.879 -0.5121  0.2014 -0.4785
  811MOL0     C11843   9.729   9.810   4.849 -0.7626  0.4642  0.0310
  811MOL0     C11844   9.711   9.678   4.791 -0.0650  0.1411  0.1344
  811MOL0     C11845   9.695   9.562   4.750 -0.0322  0.3186  0.0025
  811MOL0     C11846  10.339   9.937   5.075  0.5315 -0.3452  0.0739
  811MOL0     C11847  10.473   9.967   5.102  0.4516  0.4575 -0.0798
  811MOL0     C11848  10.536  10.085   5.040 -0.1141 -0.8213  0.4236
  811MOL0     H11849  10.932   9.906   5.445 -0.2731 -1.4237  1.7233
  811MOL0     H11850  11.182   9.874   5.419  0.5945 -1.9488  0.6383
  811MOL0     H11851  11.320   9.635   5.111 -0.5315 -0.3990  0.1029
  811MOL0     H11852  11.314   9.496   5.224 -0.2071  0.6857  2.0325
  811MOL0     H11853  11.542   9.699   5.209  0.7887  0.2318 -0.9485
  811MOL0     H11854  11.539   9.551   5.303 -0.6449  0.5065 -0.2029
  811MOL0     H11855  11.554   9.426   5.093 -2.4815  0.3293  1.2307
  811MOL0     H11856  11.520   9.569   4.997 -1.6997 -1.6761  0.1277
  811MOL0     H11857  11.740   9.673   5.101 -0.8214  0.5376 -5.0742
  811MOL0     H11858  11.764   9.505   5.168 -2.0378 -5.1167 -1.4710
  811MOL0     H11859  11.788   9.432   4.920  3.0544  0.0984  0.3044
  811MOL0     H11860  11.907   9.545   4.979  0.9985 -0.2343 -1.1644
  811MOL0     H11861  11.800   9.552   4.758  1.2027 -1.7458  2.1520
  811MOL0     H11862  11.646   9.616   4.845 -1.0298  0.4653  1.3931
  811MOL0     H11863  11.819   9.784   4.935 -0.8982 -1.3553  0.2790
  811MOL0     H11864  11.715   9.809   4.788 -0.4535 -0.9225  0.6187
  811MOL0     H11865  12.005   9.740   4.775 -0.3039  0.7969 -0.0788
  811MOL0     H11866  11.895   9.744   4.649  1.5914  3.2325 -2.2015
  811MOL0     H11867  11.922  10.026   4.913  3.9323  1.4239  0.2449
  811MOL0     H11868  11.890  10.272   4.872  1.4555  1.0421  1.1447
  811MOL0     H11869  11.919  10.347   4.705  2.6375 -0.0219 -1.0260
  811MOL0     H11870  12.122  10.277   4.938 -0.9103 -0.1365  0.0814
  811MOL0     H11871  12.173  10.292   4.773  2.1703 -0.0786  1.4870
  811MOL0     H11872  12.094  10.533   4.766  1.8744  2.4202  0.6763
  811MOL0     H11873  12.041  10.519   4.926 -3.1963 -0.2739 -2.6076
  811MOL0     H11874  12.254  10.606   4.978  2.2436  1.5958 -2.2270
  811MOL0     H11875  12.303  10.435   4.967 -0.4239 -0.6654  0.5783
  811MOL0     H11876  12.453  10.765   4.836  1.6337  0.7277 -1.1285
  811MOL0     H11877  12.633  10.913   4.820 -1.8474 -1.9507 -2.4501
  811MOL0     H11878  12.775  10.839   4.752 -0.8688 -2.2615 -0.6629
  811MOL0     H11879  12.770  10.873   4.925  0.7892  1.2442 -1.2448
  811MOL0     H11880  13.111  10.470   4.747  2.0927 -0.5546  1.4215
  811MOL0     H11881  13.344  10.479   4.684 -1.9513 -0.8316 -1.1696
  811MOL0     H11882  13.503  10.900   4.603 -0.1645 -0.2516 -0.4913
  811MOL0     H11883  13.630  10.819   4.708 -2.0348 -1.7487  2.0737
  811MOL0     H11884  13.575  10.737   4.426 -0.7145  1.4241 -1.0773
  811MOL0     H11885  13.680  10.869   4.443 -0.3819 -0.7766 -0.6779
  811MOL0     H11886  13.788  10.648   4.435 -3.4795 -1.8235  0.4344
  811MOL0     H11887  13.756  10.625   4.609 -0.8734 -2.2611 -2.2979
  811MOL0     H11888  13.858  10.849   4.655 -1.0176 -2.6467  1.8731
  811MOL0     H11889  13.908  10.850   4.484  3.2644 -2.9347 -0.7643
  811MOL0     H11890  14.004  10.645   4.678 -1.5421  0.9111 -0.0727
  811MOL0     H11891  14.026  10.644   4.506  0.9425  0.5141  0.4563
  811MOL0     H11892  14.115  10.888   4.532 -2.7290 -3.4214 -2.7051
  811MOL0     H11893  14.210  10.749   4.562  0.0890  0.6926 -1.0690
  811MOL0     H11894  14.210  10.784   4.799 -0.7773 -0.6952 -0.9999
  811MOL0     H11895  14.074  10.885   4.808  0.5060  2.3008 -0.9617
  811MOL0     H11896  14.348  10.968   4.704 -0.2789 -0.0888 -0.3982
  811MOL0     H11897  14.251  11.011   4.852 -0.8328  0.1179  0.0204
  811MOL0     H11898  13.318  10.911   4.685  0.7894 -0.6098  0.1626
  811MOL0     H11899  13.098  10.891   4.779  1.0730 -0.9321  1.1715
  811MOL0     H11900  12.735  10.370   4.889 -1.8354 -1.7521 -0.1347
  811MOL0     H11901  12.498  10.340   4.862 -1.7188  0.6206 -1.4805
  811MOL0     H11902  11.097   9.561   5.130 -1.3795 -0.1574 -0.0960
  811MOL0     H11903  10.864   9.599   5.162 -1.1139  0.5187  1.0639
  811MOL0     H11904  10.540   9.665   5.258  0.4658  0.3067 -0.3442
  811MOL0     H11905  10.293   9.652   5.252 -0.6362 -1.3159 -1.3339
  811MOL0     H11906  10.024   9.973   5.112 -2.2103  0.1143 -1.5260
  811MOL0     H11907  10.102   9.907   4.963 -0.4806  0.6683 -0.3150
  811MOL0     H11908   9.847   9.839   5.097 -0.3035 -1.7899  1.0184
  811MOL0     H11909   9.942   9.696   5.039  1.3549 -0.1568 -0.2117
  811MOL0     H11910   9.907   9.948   4.875  2.7483  0.0938  4.2482
  811MOL0     H11911   9.950   9.785   4.809  2.9374  1.7348  1.1859
  811MOL0     H11912   9.689   9.879   4.776  0.7985  1.2783 -0.1035
  811MOL0     H11913   9.674   9.810   4.944 -0.3749 -2.0103  0.3402
  811MOL0     H11914   9.675   9.469   4.702  0.1823  1.2158 -1.9352
  811MOL0     H11915  10.281  10.011   5.019 -1.6228 -0.1554  2.3905
  811MOL0     H11916  10.473  10.148   4.976  0.1536  3.3210  3.7752
  811MOL0     H11917  10.582  10.145   5.119 -0.3021 -1.8851  1.3490
  811MOL0     H11918  10.619  10.043   4.983  1.0329  0.7590  0.8606
  812MOL0     O11919  10.682   2.083  10.788 -0.0161  0.3502 -1.0904
  812MOL0     C11920  10.647   2.079  10.672  0.4846 -0.9043 -0.7566
  812MOL0     O11921  10.682   2.169  10.580 -0.0684  0.2855 -0.0623
  812MOL0     C11922  10.782   2.266  10.602 -0.3880 -0.6341 -0.5687
  812MOL0     C11923  10.913   2.227  10.618 -0.8838  0.6697 -0.0949
  812MOL0     C11924  11.015   2.324  10.624  0.6442 -1.1088 -1.0781
  812MOL0     C11925  10.986   2.463  10.598 -0.1430 -0.2127 -0.8192
  812MOL0     O11926  11.100   2.539  10.592 -0.2129  0.6371  0.0391
  812MOL0     C11927  11.086   2.668  10.528  0.2308  0.0016  0.3868
  812MOL0     C11928  11.226   2.725  10.476  0.5929  0.8933 -0.5539
  812MOL0     C11929  11.293   2.624  10.376 -0.1758  0.8098 -0.1422
  812MOL0     C11930  11.194   2.580  10.261 -0.2082 -0.6932  0.0363
  812MOL0     C11931  11.255   2.462  10.167 -0.2828  0.1636  0.4184
  812MOL0     C11932  11.309   2.341  10.244  0.3229  0.2721 -0.7390
  812MOL0     C11933  11.218   2.271  10.348  0.3111 -0.3996 -0.5816
  812MOL0     C11934  11.273   2.154  10.421 -1.1370  0.7035 -0.2221
  812MOL0     N11935  11.406   2.190  10.471 -0.5567  0.4278 -1.0045
  812MOL0     C11936  11.437   2.288  10.568  0.6567 -0.2157  0.8863
  812MOL0     C11937  11.570   2.289  10.578  0.3866 -0.3421 -0.9085
  812MOL0     C11938  11.650   2.376  10.682  0.6771 -0.6100  0.2592
  812MOL0     C11939  11.727   2.297  10.798  0.2935 -0.5264  0.7828
  812MOL0     C11940  11.825   2.190  10.732  1.0895 -0.3208 -0.1091
  812MOL0     C11941  11.930   2.134  10.825  0.0489 -0.4457 -0.1602
  812MOL0     O11942  12.033   2.229  10.855  0.0224 -0.0741 -0.5631
  812MOL0     C11943  12.144   2.246  10.773  0.4449 -0.0479 -0.2625
  812MOL0     C11944  12.166   2.175  10.654 -0.4688 -0.7261 -0.1895
  812MOL0     C11945  12.268   2.216  10.568 -1.2692  0.0683 -1.0843
  812MOL0     C11946  12.276   2.158  10.431 -0.0089 -0.2959  0.9230
  812MOL0     C11947  12.365   2.306  10.610  0.0924 -0.5530 -0.0768
  812MOL0     C11948  12.478   2.346  10.520  0.6564  0.5090 -0.0865
  812MOL0     O11949  12.551   2.249  10.457 -0.9095  0.0285 -1.2564
  812MOL0     C11950  12.660   2.299  10.388  0.4510 -0.5522 -1.2166
  812MOL0     C11951  12.789   2.273  10.443  0.1029  0.5567  0.7056
  812MOL0     C11952  12.900   2.330  10.383 -0.0954 -0.3166  0.1227
  812MOL0     C11953  12.896   2.414  10.270 -0.1758 -0.5352  0.7149
  812MOL0     O11954  13.005   2.466  10.207  1.0663  0.1152  0.1854
  812MOL0     C11955  13.110   2.510  10.281 -0.8220  0.6036  0.1810
  812MOL0     C11956  13.197   2.608  10.195  0.8030  0.9191 -0.1415
  812MOL0     C11957  13.315   2.539  10.118 -0.2254  0.1194 -0.5110
  812MOL0     C11958  13.379   2.642  10.022 -0.8619  0.9381  0.1461
  812MOL0     C11959  13.505   2.577   9.965 -0.5005  0.1607 -0.2097
  812MOL0     C11960  13.564   2.666   9.856  0.3634  0.1471 -0.8309
  812MOL0     C11961  13.624   2.795   9.919  0.7532  0.2706 -0.3330
  812MOL0     C11962  13.697   2.868   9.812  0.3058  0.6214  0.0626
  812MOL0    Cl11963  13.860   2.785   9.789  0.0003  0.3516  0.1671
  812MOL0     C11964  12.767   2.431  10.220  0.3906  0.6536  0.0271
  812MOL0     C11965  12.649   2.379  10.274  0.5570  0.0512 -1.0212
  812MOL0     O11966  12.510   2.466  10.522 -0.6042  0.0551 -0.5996
  812MOL0     C11967  12.350   2.361  10.740  0.3768  0.4417  0.0304
  812MOL0     C11968  12.237   2.340  10.816  0.2343 -0.3649  0.9558
  812MOL0     N11969  11.615   2.205  10.486  0.2263 -0.1203  0.2120
  812MOL0     N11970  11.521   2.143  10.423 -0.1831  0.2321  0.4588
  812MOL0     C11971  10.854   2.503  10.580 -0.0789  0.4780 -0.6688
  812MOL0     C11972  10.750   2.404  10.570  0.9723  0.7176  0.1899
  812MOL0     C11973  10.531   1.997  10.629 -0.3155 -0.0408  0.5003
  812MOL0     C11974  10.426   2.052  10.535 -0.1638  1.9608 -0.3654
  812MOL0     C11975  10.305   1.981  10.515  0.2806  0.8121  0.4834
  812MOL0     C11976  10.275   1.861  10.576 -0.7128 -0.3103  0.0355
  812MOL0     O11977  10.157   1.797  10.567 -0.5025  0.1195  0.1353
  812MOL0     C11978  10.035   1.872  10.535 -0.7751  0.1309  0.6384
  812MOL0     C11979   9.905   1.797  10.553  0.8630 -0.0898 -0.1388
  812MOL0     C11980   9.859   1.790  10.704  0.5706  0.1200  0.4469
  812MOL0     C11981   9.729   1.712  10.699 -0.7338 -0.7516  0.1003
  812MOL0     C11982   9.622   1.795  10.645 -0.3054  0.5634 -0.3118
  812MOL0     C11983   9.523   1.857  10.604  0.4275 -0.7862 -0.2541
  812MOL0     C11984  10.379   1.807  10.660 -0.4773 -0.1616  0.6042
  812MOL0     C11985  10.502   1.869  10.683  0.7987  0.3520  0.2336
  812MOL0     C11986  10.600   1.799  10.773  0.6289  0.1898  0.4223
  812MOL0     H11987  10.944   2.123  10.620  3.1241  1.7030  1.3393
  812MOL0     H11988  11.121   2.307  10.642  0.6878 -1.0419 -1.2601
  812MOL0     H11989  11.057   2.735  10.610 -0.8404 -2.4300  2.1190
  812MOL0     H11990  11.011   2.659  10.450  0.1428  0.1694  0.4497
  812MOL0     H11991  11.208   2.818  10.420 -1.3969  0.6879 -0.3192
  812MOL0     H11992  11.293   2.741  10.561 -1.4217 -1.6300  1.6615
  812MOL0     H11993  11.389   2.667  10.347 -0.6106  2.2728  0.5130
  812MOL0     H11994  11.325   2.540  10.438  0.8252  1.3488  0.0955
  812MOL0     H11995  11.103   2.538  10.304  0.9726 -2.8611  0.5099
  812MOL0     H11996  11.177   2.660  10.188  0.3885 -0.7254 -0.1466
  812MOL0     H11997  11.339   2.498  10.107  0.3575 -1.8155  0.0352
  812MOL0     H11998  11.175   2.421  10.105  1.3391  1.0079 -2.4304
  812MOL0     H11999  11.337   2.266  10.170  1.6283 -0.2194  0.1958
  812MOL0     H12000  11.407   2.363  10.289 -0.0195 -0.1678  0.2484
  812MOL0     H12001  11.126   2.243  10.296  0.2809  0.6593 -1.1509
  812MOL0     H12002  11.198   2.347  10.424  1.4736  3.3717 -3.6902
  812MOL0     H12003  11.208   2.127  10.504  0.1766 -1.8816  0.0421
  812MOL0     H12004  11.276   2.076  10.344 -0.3604  3.0468 -2.7689
  812MOL0     H12005  11.366   2.343  10.630  0.8019  2.6755 -1.3220
  812MOL0     H12006  11.580   2.439  10.737 -0.8041 -1.0812 -1.0228
  812MOL0     H12007  11.709   2.438  10.614 -1.2048  1.2711  0.2494
  812MOL0     H12008  11.788   2.371  10.851 -0.5816  1.8090 -1.2815
  812MOL0     H12009  11.659   2.249  10.869 -0.6005  0.3950  0.5645
  812MOL0     H12010  11.772   2.104  10.692  0.8183 -1.5279  2.6560
  812MOL0     H12011  11.880   2.239  10.650  1.6971 -1.2995 -0.3008
  812MOL0     H12012  11.872   2.096  10.910  1.5439 -0.3264  0.9589
  812MOL0     H12013  11.974   2.044  10.783 -0.2553 -0.7469  0.1568
  812MOL0     H12014  12.103   2.093  10.622 -2.4068 -1.5388  4.8928
  812MOL0     H12015  12.344   2.072  10.427 -0.0142 -0.2919  0.7717
  812MOL0     H12016  12.299   2.233  10.355 -0.8177  1.3976  2.2749
  812MOL0     H12017  12.177   2.121  10.401  0.0941  0.1279  0.0668
  812MOL0     H12018  12.795   2.207  10.529 -0.8237 -0.7940 -0.2211
  812MOL0     H12019  12.998   2.296  10.415  0.7793  0.2174 -1.8719
  812MOL0     H12020  13.078   2.566  10.370 -3.7628 -0.4912 -0.0589
  812MOL0     H12021  13.168   2.425  10.316  0.8702  1.4471 -0.4868
  812MOL0     H12022  13.140   2.667  10.123 -1.2994  0.6720  1.2471
  812MOL0     H12023  13.251   2.677  10.262  2.6934  1.2079 -1.8665
  812MOL0     H12024  13.271   2.455  10.063 -4.8898  1.5742  0.5156
  812MOL0     H12025  13.387   2.511  10.195  2.5198 -0.9660 -3.2821
  812MOL0     H12026  13.406   2.733  10.075  2.4107  2.5900 -3.8001
  812MOL0     H12027  13.307   2.664   9.943  0.2140 -0.4798 -1.3170
  812MOL0     H12028  13.579   2.569  10.045 -0.1870 -1.3911 -0.6195
  812MOL0     H12029  13.495   2.475   9.925 -0.0081  0.4034 -0.9772
  812MOL0     H12030  13.485   2.691   9.785 -3.4077 -3.3286  1.7194
  812MOL0     H12031  13.640   2.601   9.810  0.5759 -0.5687  0.4794
  812MOL0     H12032  13.687   2.757  10.000 -5.4201 -2.2902  4.0651
  812MOL0     H12033  13.545   2.863   9.950  1.0702  1.5980 -2.2508
  812MOL0     H12034  13.700   2.976   9.825 -2.0789  1.1638 -2.6706
  812MOL0     H12035  13.640   2.856   9.719  0.6221 -2.1345  0.1316
  812MOL0     H12036  12.760   2.489  10.128  0.2269  1.1806  0.3669
  812MOL0     H12037  12.552   2.390  10.227  0.0639  0.0190 -0.0489
  812MOL0     H12038  12.425   2.430  10.777  1.3045 -1.3133  1.6294
  812MOL0     H12039  12.222   2.413  10.895  1.2473  1.7393 -0.7123
  812MOL0     H12040  10.833   2.604  10.548  0.4090  0.8610  0.1889
  812MOL0     H12041  10.645   2.428  10.552  0.6730 -1.1897 -0.8051
  812MOL0     H12042  10.440   2.145  10.483  0.5921  0.9426 -2.0630
  812MOL0     H12043  10.224   2.020  10.455 -0.4155 -2.1660 -0.7394
  812MOL0     H12044  10.025   1.971  10.579 -1.4643  0.8888 -1.1557
  812MOL0     H12045  10.049   1.867  10.427  0.4370 -0.0284  0.7839
  812MOL0     H12046   9.917   1.694  10.520 -0.6124 -0.8075  1.4092
  812MOL0     H12047   9.825   1.841  10.492  0.5316 -0.1931  0.2173
  812MOL0     H12048   9.934   1.732  10.759  1.8306  1.2867  0.0163
  812MOL0     H12049   9.856   1.887  10.754  1.4484  1.7248 -2.3484
  812MOL0     H12050   9.699   1.671  10.795 -2.6106 -0.4973 -0.3437
  812MOL0     H12051   9.741   1.626  10.633  1.5695  0.3683 -1.0834
  812MOL0     H12052   9.441   1.901  10.551  0.2776 -0.6232  0.1054
  812MOL0     H12053  10.352   1.708  10.697  2.6111 -1.8959 -1.3606
  812MOL0     H12054  10.556   1.771  10.869  2.3043 -2.7438  0.4715
  812MOL0     H12055  10.626   1.709  10.717  0.7669  0.8888 -0.6695
  812MOL0     H12056  10.698   1.848  10.783  0.1834  1.1975 -0.0187
  813MOL0     O12057  10.614   0.859   0.828  0.4507 -0.3863  0.3423
  813MOL0     C12058  10.595   0.790   0.723  0.7889 -0.1066  0.5165
  813MOL0     O12059  10.470   0.740   0.683  0.5488 -0.6845 -0.8096
  813MOL0     C12060  10.370   0.768   0.776  0.3662  0.2240  0.4137
  813MOL0     C12061  10.367   0.718   0.908 -0.6095  0.3910  0.9494
  813MOL0     C12062  10.268   0.746   1.003 -0.2165 -0.2799  0.4150
  813MOL0     C12063  10.162   0.829   0.966  0.9307 -0.3589  0.4402
  813MOL0     O12064  10.044   0.856   1.032  0.0488  0.1901 -0.1356
  813MOL0     C12065  10.041   0.827   1.173 -1.0998 -0.3411 -0.2767
  813MOL0     C12066   9.991   0.677   1.185  0.1651 -0.3233  0.3792
  813MOL0     C12067   9.989   0.600   1.321  0.7926 -0.4883  0.7631
  813MOL0     C12068  10.140   0.592   1.364  0.7188  0.4365 -0.3315
  813MOL0     C12069  10.163   0.482   1.466  0.6861  0.2686  0.8254
  813MOL0     C12070  10.092   0.503   1.605 -0.4677  0.3909 -0.1534
  813MOL0     C12071  10.155   0.409   1.717  0.3015  0.0989  0.2115
  813MOL0     C12072  10.157   0.256   1.681  0.5385 -0.9518  0.0877
  813MOL0     N12073  10.028   0.183   1.669 -0.0417 -0.4501 -0.1265
  813MOL0     C12074   9.976   0.093   1.760  0.0262 -0.3185  0.5896
  813MOL0     C12075   9.863   0.043   1.705  0.8268 -0.0019 -0.0154
  813MOL0     C12076   9.768  -0.060   1.766 -0.3919  0.3952  0.9052
  813MOL0     C12077   9.809  -0.202   1.762 -0.7535  0.6010  0.5167
  813MOL0     C12078   9.877  -0.256   1.891  0.0220 -0.4464  1.6246
  813MOL0     C12079   9.877  -0.407   1.904 -0.0131 -0.6945 -0.8230
  813MOL0     O12080   9.956  -0.474   1.807 -0.0235  0.1088  0.6900
  813MOL0     C12081  10.093  -0.498   1.820  0.6405 -0.1548  0.3404
  813MOL0     C12082  10.165  -0.490   1.935  0.0797  0.1275 -0.9028
  813MOL0     C12083  10.304  -0.495   1.934  0.5775 -0.2258  0.8490
  813MOL0     C12084  10.383  -0.477   2.069  0.3394 -0.3498  0.8518
  813MOL0     C12085  10.371  -0.512   1.810  0.4800 -0.1260  0.3185
  813MOL0     C12086  10.515  -0.500   1.790 -0.0524  0.1085  0.1427
  813MOL0     O12087  10.571  -0.544   1.668 -0.9269  0.3093 -0.9422
  813MOL0     C12088  10.691  -0.492   1.632 -1.3637 -0.8207  0.0877
  813MOL0     C12089  10.803  -0.522   1.719 -0.6887  0.1252  0.1381
  813MOL0     C12090  10.940  -0.496   1.669 -0.4367  1.0395  0.1346
  813MOL0     C12091  10.964  -0.435   1.542  0.1504 -0.3357  0.0960
  813MOL0     O12092  11.083  -0.396   1.489  0.0381 -0.3315 -0.2710
  813MOL0     C12093  11.201  -0.429   1.563  0.2117  0.2355 -0.5520
  813MOL0     C12094  11.316  -0.360   1.493  0.8885 -0.5673  0.2548
  813MOL0     C12095  11.443  -0.397   1.577  0.1605  1.3033 -0.5639
  813MOL0     C12096  11.555  -0.319   1.511 -0.7731  0.1585 -0.0348
  813MOL0     C12097  11.691  -0.368   1.573  0.0676 -0.3201  0.2910
  813MOL0     C12098  11.809  -0.285   1.505 -0.0462  0.2059  0.3601
  813MOL0     C12099  11.946  -0.300   1.591  0.6020  0.5846  0.0556
  813MOL0     C12100  12.027  -0.167   1.600 -0.4600 -0.0973 -0.1311
  813MOL0    Cl12101  12.151  -0.196   1.721 -0.1066 -0.0196  0.0801
  813MOL0     C12102  10.851  -0.403   1.466  0.2359  0.1345  0.6342
  813MOL0     C12103  10.718  -0.431   1.508 -0.3996 -0.5896 -0.3620
  813MOL0     O12104  10.581  -0.444   1.875 -0.0259  0.1112 -0.3375
  813MOL0     C12105  10.292  -0.522   1.690  0.7104  0.1550 -0.7304
  813MOL0     C12106  10.152  -0.516   1.702  0.2708  0.0343 -0.2295
  813MOL0     N12107   9.854   0.084   1.575 -0.2840  0.0643  0.8915
  813MOL0     N12108   9.951   0.175   1.563  0.4606 -0.0140  0.4232
  813MOL0     C12109  10.162   0.871   0.833  0.3361  0.0291  0.0894
  813MOL0     C12110  10.266   0.846   0.738  0.0333 -0.1844 -0.3387
  813MOL0     C12111  10.710   0.732   0.645 -0.1007  0.4442 -1.0060
  813MOL0     C12112  10.693   0.604   0.582  0.2931  1.1619  0.3521
  813MOL0     C12113  10.794   0.542   0.507  0.1240  0.1387  0.2178
  813MOL0     C12114  10.916   0.621   0.485 -0.2059  0.2659 -0.2364
  813MOL0     O12115  11.019   0.576   0.407 -0.4055 -0.5721 -1.0106
  813MOL0     C12116  11.077   0.669   0.313  0.2905 -0.5861 -0.2819
  813MOL0     C12117  11.228   0.637   0.307  0.1130  0.1686 -0.0337
  813MOL0     C12118  11.308   0.721   0.406 -0.5534 -0.1588  0.9173
  813MOL0     C12119  11.295   0.659   0.552 -0.8918  0.2031  0.1785
  813MOL0     C12120  11.276   0.767   0.654  0.2908  0.1591  0.3959
  813MOL0     C12121  11.254   0.840   0.752 -0.8120  0.0828 -0.0527
  813MOL0     C12122  10.931   0.738   0.561 -0.6253 -0.2018 -1.0075
  813MOL0     C12123  10.835   0.789   0.644 -0.5964 -0.2279  0.1368
  813MOL0     C12124  10.864   0.919   0.705 -0.5291  0.5257  0.1676
  813MOL0     H12125  10.451   0.653   0.931  1.0929  1.7940 -0.9018
  813MOL0     H12126  10.289   0.703   1.100  0.3780 -3.3982 -0.9575
  813MOL0     H12127   9.970   0.881   1.236 -0.3201  0.0910  0.2574
  813MOL0     H12128  10.142   0.837   1.215 -2.2879  2.2403  2.3373
  813MOL0     H12129   9.887   0.675   1.153  0.5791  1.0782 -1.1626
  813MOL0     H12130  10.047   0.617   1.113  0.9805 -1.2065  1.6815
  813MOL0     H12131   9.928   0.652   1.396  2.6817  0.7917  1.4911
  813MOL0     H12132   9.949   0.500   1.301  3.5710 -1.6179  0.4108
  813MOL0     H12133  10.207   0.572   1.280  1.7547  1.8869  0.1152
  813MOL0     H12134  10.178   0.685   1.407  1.7378  0.6348 -1.5956
  813MOL0     H12135  10.269   0.479   1.493  1.0357 -0.0793 -0.5251
  813MOL0     H12136  10.127   0.392   1.415 -2.5791  1.1619  1.3474
  813MOL0     H12137  10.102   0.605   1.644  0.5399  0.1018  0.3865
  813MOL0     H12138   9.986   0.480   1.591 -0.3685  0.0951 -0.4381
  813MOL0     H12139  10.091   0.410   1.806 -1.6874 -0.8483 -1.1519
  813MOL0     H12140  10.255   0.443   1.747  0.3700 -0.6360  0.8698
  813MOL0     H12141  10.207   0.247   1.584 -1.1163  0.7551 -0.9887
  813MOL0     H12142  10.210   0.215   1.768 -1.5811  3.3673  3.8650
  813MOL0     H12143  10.019   0.060   1.855 -0.4565 -2.3253  0.1375
  813MOL0     H12144   9.674  -0.059   1.710 -0.8181 -0.9358  1.5343
  813MOL0     H12145   9.749  -0.039   1.872  2.5526  0.5060  1.4905
  813MOL0     H12146   9.725  -0.264   1.732  1.2797 -0.6325 -3.3199
  813MOL0     H12147   9.888  -0.217   1.688 -1.1678 -1.5018  0.4341
  813MOL0     H12148   9.979  -0.218   1.881 -1.0309  1.9576 -2.3143
  813MOL0     H12149   9.824  -0.212   1.976  2.6779 -0.2169  3.2722
  813MOL0     H12150   9.916  -0.408   2.006  0.2948  2.7602 -0.7885
  813MOL0     H12151   9.775  -0.447   1.908 -0.0140 -0.5846  0.8556
  813MOL0     H12152  10.111  -0.475   2.029 -0.9645 -1.1165 -1.2778
  813MOL0     H12153  10.429  -0.378   2.059  0.6267 -0.4327  1.3220
  813MOL0     H12154  10.462  -0.552   2.070 -1.0434 -2.1205 -2.6950
  813MOL0     H12155  10.324  -0.473   2.161  0.4379  0.0953  0.8988
  813MOL0     H12156  10.802  -0.566   1.818 -1.6389 -2.6261 -1.0029
  813MOL0     H12157  11.026  -0.526   1.727 -0.5564  0.9192  0.2522
  813MOL0     H12158  11.191  -0.394   1.667  1.6354  0.6467 -0.5335
  813MOL0     H12159  11.229  -0.534   1.559  1.9674  0.7180 -3.1564
  813MOL0     H12160  11.324  -0.379   1.385  0.0041 -2.5215  0.4856
  813MOL0     H12161  11.279  -0.258   1.508 -3.3604 -2.0502  1.3425
  813MOL0     H12162  11.470  -0.503   1.578  0.5038  1.2543  3.6908
  813MOL0     H12163  11.422  -0.365   1.680 -0.1116 -1.3301  0.2967
  813MOL0     H12164  11.547  -0.212   1.531 -4.7815 -0.1435  0.8090
  813MOL0     H12165  11.559  -0.331   1.402  2.3177 -0.8872  0.1022
  813MOL0     H12166  11.693  -0.346   1.681 -0.8754 -0.3108  0.3132
  813MOL0     H12167  11.701  -0.477   1.565  1.3243 -0.3982  2.0530
  813MOL0     H12168  11.777  -0.181   1.515 -3.3401 -0.3463 -2.6132
  813MOL0     H12169  11.818  -0.302   1.398 -2.5258  0.7684 -0.0015
  813MOL0     H12170  12.000  -0.374   1.532 -2.5252 -1.0890 -0.9353
  813MOL0     H12171  11.930  -0.339   1.692 -0.7375  1.4336  0.1941
  813MOL0     H12172  11.952  -0.100   1.642  0.1477  0.7791 -0.3899
  813MOL0     H12173  12.060  -0.134   1.500  0.7923 -1.3141 -0.1623
  813MOL0     H12174  10.870  -0.349   1.374  0.6604  0.2278  0.7721
  813MOL0     H12175  10.636  -0.414   1.440 -0.9657 -0.1076  0.4331
  813MOL0     H12176  10.335  -0.521   1.590 -0.7837  3.4894 -1.5069
  813MOL0     H12177  10.089  -0.511   1.614 -1.4586  1.2779  1.0339
  813MOL0     H12178  10.086   0.940   0.797  1.4464 -0.2878 -3.2289
  813MOL0     H12179  10.264   0.885   0.636 -2.3304 -0.3294 -0.3867
  813MOL0     H12180  10.599   0.550   0.592  1.5116 -1.1245  0.2617
  813MOL0     H12181  10.769   0.448   0.459 -1.8299  0.7240 -0.0114
  813MOL0     H12182  11.030   0.641   0.218 -0.0632 -2.1354  0.3281
  813MOL0     H12183  11.062   0.775   0.336  1.8937 -0.5397  0.7710
  813MOL0     H12184  11.253   0.650   0.201  2.0464  0.2840  0.3986
  813MOL0     H12185  11.246   0.531   0.325 -1.1051 -0.3037 -1.3701
  813MOL0     H12186  11.415   0.716   0.386 -0.4603 -0.1007  1.3854
  813MOL0     H12187  11.279   0.827   0.405 -0.8827 -0.2243 -0.9133
  813MOL0     H12188  11.389   0.608   0.575 -1.4995  0.0464  2.4890
  813MOL0     H12189  11.221   0.579   0.566  0.7132 -1.0678  1.8855
  813MOL0     H12190  11.255   0.905   0.836 -1.0934 -0.6302  0.5152
  813MOL0     H12191  11.029   0.781   0.545 -1.0628  0.2419 -2.7670
  813MOL0     H12192  10.829   0.934   0.807 -1.8291 -0.3722 -0.1258
  813MOL0     H12193  10.971   0.942   0.704 -0.7461  1.7266  1.7764
  813MOL0     H12194  10.814   0.994   0.642 -1.5686  1.0869  1.6193
  814MOL0     O12195   7.358   6.716   5.922  0.3343 -0.1931  0.0246
  814MOL0     C12196   7.272   6.719   6.013  0.9824  0.9709 -0.0869
  814MOL0     O12197   7.298   6.712   6.144 -0.2099 -1.0159 -0.1422
  814MOL0     C12198   7.428   6.722   6.184 -0.2434  0.1953  0.9258
  814MOL0     C12199   7.496   6.606   6.207  0.3267 -0.0758 -0.8752
  814MOL0     C12200   7.611   6.616   6.294  0.8986 -0.6526  0.4855
  814MOL0     C12201   7.656   6.742   6.347  0.1247 -0.2992 -0.9285
  814MOL0     O12202   7.749   6.753   6.449 -0.5425 -0.0342 -0.4659
  814MOL0     C12203   7.860   6.832   6.417  0.2003  0.6004 -0.6596
  814MOL0     C12204   7.964   6.813   6.523  0.3452  0.5596  0.8009
  814MOL0     C12205   8.094   6.892   6.517  0.1163  0.0157  0.6986
  814MOL0     C12206   8.206   6.821   6.604  0.2362 -0.2657  0.5467
  814MOL0     C12207   8.168   6.811   6.751  0.0889 -0.0042  1.1374
  814MOL0     C12208   8.195   6.947   6.814  1.0559  0.0721  1.1172
  814MOL0     C12209   8.351   6.966   6.855 -0.1766 -0.2910  1.0645
  814MOL0     C12210   8.366   7.073   6.970 -0.6941  0.1827 -0.2551
  814MOL0     N12211   8.507   7.124   6.978 -0.3843  0.7428 -0.3621
  814MOL0     C12212   8.588   7.121   7.088 -0.0560  0.4162 -0.0010
  814MOL0     C12213   8.717   7.144   7.056  0.2704  0.5101 -0.5368
  814MOL0     C12214   8.838   7.146   7.148  0.0683  0.2132 -1.1269
  814MOL0     C12215   8.917   7.030   7.149 -0.9253  0.1549  0.9345
  814MOL0     C12216   8.854   6.916   7.218 -0.8769  0.0410 -0.3083
  814MOL0     C12217   8.945   6.795   7.220  0.2194 -0.0542 -0.5044
  814MOL0     O12218   9.057   6.812   7.304  0.3902 -0.0739 -0.2410
  814MOL0     C12219   9.060   6.735   7.417  0.7543 -0.1177 -0.4423
  814MOL0     C12220   8.959   6.741   7.512  0.7740  0.2850  0.0353
  814MOL0     C12221   8.971   6.677   7.641  1.1767 -0.0328  0.3779
  814MOL0     C12222   8.843   6.701   7.734  0.0725 -0.1822  0.0440
  814MOL0     C12223   9.090   6.606   7.667  0.4140  0.2826 -0.6131
  814MOL0     C12224   9.103   6.532   7.798 -0.0437  0.2210 -0.1022
  814MOL0     O12225   9.227   6.500   7.835 -0.1940  0.5258 -0.1853
  814MOL0     C12226   9.250   6.417   7.943 -0.5333  0.3664  0.4799
  814MOL0     C12227   9.152   6.346   8.022 -0.2135  0.4458 -0.9002
  814MOL0     C12228   9.203   6.285   8.152 -0.9024 -0.2287  0.4941
  814MOL0     C12229   9.336   6.293   8.193  1.4131  0.3431 -0.3110
  814MOL0     O12230   9.384   6.234   8.306  0.2330  0.1990 -1.0043
  814MOL0     C12231   9.498   6.147   8.284 -0.2821 -0.5153  0.3390
  814MOL0     C12232   9.620   6.214   8.347 -0.1973  0.2497 -0.4210
  814MOL0     C12233   9.728   6.114   8.398  0.6290  0.3747  0.8793
  814MOL0     C12234   9.794   6.051   8.275  0.0379  0.4645  0.5419
  814MOL0     C12235   9.889   6.153   8.208  0.6711  0.6107  0.0801
  814MOL0     C12236   9.995   6.089   8.113  0.3389  0.7537 -0.6689
  814MOL0     C12237  10.079   6.186   8.030 -0.1916 -0.3667 -0.3607
  814MOL0     C12238  10.145   6.297   8.119  0.2351  0.0955  0.3228
  814MOL0    Cl12239  10.238   6.227   8.247  0.1717 -0.1320 -0.4162
  814MOL0     C12240   9.428   6.374   8.107  0.4021  0.5988  0.0437
  814MOL0     C12241   9.382   6.417   7.985  0.2074 -0.2467  0.3429
  814MOL0     O12242   9.001   6.511   7.861 -0.0350  0.2948 -0.1676
  814MOL0     C12243   9.190   6.595   7.564  0.0584 -0.1831 -0.3554
  814MOL0     C12244   9.171   6.658   7.443  0.5482  0.3088 -0.2348
  814MOL0     N12245   8.712   7.185   6.927  0.3453 -0.6413  0.3795
  814MOL0     N12246   8.592   7.177   6.885  0.3662  0.8585  0.1268
  814MOL0     C12247   7.578   6.849   6.317  0.5642 -0.1195  0.8548
  814MOL0     C12248   7.464   6.845   6.240  0.2181 -0.0822  0.7379
  814MOL0     C12249   7.125   6.712   5.974 -0.9158 -0.3273  0.3076
  814MOL0     C12250   7.090   6.664   5.849 -0.8855 -0.5989 -0.0122
  814MOL0     C12251   6.951   6.655   5.807 -0.8759 -0.0265  0.3045
  814MOL0     C12252   6.856   6.696   5.888  0.2912  0.4318 -0.3541
  814MOL0     O12253   6.721   6.700   5.854  0.3614  0.3625 -0.8259
  814MOL0     C12254   6.681   6.693   5.715  0.2301 -0.0644  0.4891
  814MOL0     C12255   6.553   6.612   5.693 -0.5030 -0.3970  0.0661
  814MOL0     C12256   6.507   6.618   5.547  0.4354 -0.3154 -0.0953
  814MOL0     C12257   6.375   6.543   5.531  0.9096  0.3504  0.9525
  814MOL0     C12258   6.322   6.590   5.408 -0.5712 -0.3992 -0.1460
  814MOL0     C12259   6.294   6.642   5.294  0.7122  0.2099 -0.5687
  814MOL0     C12260   6.891   6.731   6.020  0.2051  0.7388  0.6780
  814MOL0     C12261   7.020   6.753   6.065 -0.3612  0.0706  0.4679
  814MOL0     C12262   7.032   6.838   6.191 -0.8040 -1.4966  0.1777
  814MOL0     H12263   7.453   6.517   6.163 -3.5952  0.9289  0.5270
  814MOL0     H12264   7.658   6.525   6.332  0.3105 -0.4250  1.8369
  814MOL0     H12265   7.829   6.935   6.403  1.1712  0.6950 -2.2768
  814MOL0     H12266   7.888   6.809   6.314  0.7728  2.5137 -0.9583
  814MOL0     H12267   7.907   6.851   6.608  1.2425  0.0752  1.6413
  814MOL0     H12268   7.983   6.705   6.532 -0.4847  0.4103  0.8272
  814MOL0     H12269   8.132   6.916   6.417 -0.9809 -0.7805  0.0728
  814MOL0     H12270   8.067   6.988   6.562  0.5777 -0.4278  1.9653
  814MOL0     H12271   8.207   6.719   6.562  0.1180  0.1999 -0.6326
  814MOL0     H12272   8.304   6.866   6.588 -0.1618  0.3890 -0.1313
  814MOL0     H12273   8.230   6.736   6.800  1.3996 -1.7309 -2.7201
  814MOL0     H12274   8.064   6.778   6.752 -0.7835  2.3465 -0.4987
  814MOL0     H12275   8.159   7.030   6.753  0.4896 -1.5332 -0.8458
  814MOL0     H12276   8.146   6.937   6.912  3.5466  0.4547  2.4958
  814MOL0     H12277   8.397   6.994   6.760 -2.2801 -0.5378 -0.0827
  814MOL0     H12278   8.391   6.870   6.888 -2.2709 -1.5994  0.0179
  814MOL0     H12279   8.296   7.155   6.956 -0.4529  0.5114  0.4262
  814MOL0     H12280   8.323   7.034   7.063 -0.2235  2.9427  1.2140
  814MOL0     H12281   8.557   7.083   7.185 -1.0048  2.0792  0.3924
  814MOL0     H12282   8.800   7.171   7.247  0.1072 -0.3833 -0.9569
  814MOL0     H12283   8.905   7.224   7.110 -0.5038  1.0741 -0.4084
  814MOL0     H12284   8.941   7.001   7.046  0.4527  0.0055  1.2718
  814MOL0     H12285   9.017   7.042   7.191 -1.4343 -0.5424  2.4088
  814MOL0     H12286   8.839   6.943   7.323  2.2876 -0.8223  0.4988
  814MOL0     H12287   8.757   6.884   7.178 -0.7936 -1.3968  0.5498
  814MOL0     H12288   8.881   6.716   7.261  0.8789  0.7168  2.2710
  814MOL0     H12289   8.989   6.776   7.122  0.6599 -1.3917 -0.0833
  814MOL0     H12290   8.870   6.800   7.489 -0.0959 -1.8320 -2.4523
  814MOL0     H12291   8.880   6.723   7.835  1.8308  0.1035 -0.6250
  814MOL0     H12292   8.782   6.610   7.733 -0.9407  0.4771  0.3679
  814MOL0     H12293   8.777   6.784   7.707  0.6813 -0.5163 -2.7251
  814MOL0     H12294   9.048   6.321   8.005 -0.7039  0.6822  1.4392
  814MOL0     H12295   9.134   6.223   8.207 -0.5937 -1.1246 -0.1120
  814MOL0     H12296   9.485   6.047   8.324 -0.1852  0.6374  3.5107
  814MOL0     H12297   9.516   6.145   8.176 -1.4230  3.5395 -0.1130
  814MOL0     H12298   9.671   6.284   8.279  2.5920 -3.1588 -2.1713
  814MOL0     H12299   9.586   6.268   8.436 -1.1585  1.1802 -1.3258
  814MOL0     H12300   9.686   6.032   8.456  2.7598 -0.7504  0.9343
  814MOL0     H12301   9.803   6.167   8.458  2.3963 -2.6911  1.5703
  814MOL0     H12302   9.721   6.022   8.198 -0.0968  0.1496  0.7863
  814MOL0     H12303   9.846   5.956   8.295 -1.8425 -0.9558 -0.8930
  814MOL0     H12304   9.824   6.217   8.148 -0.9150  0.8315  1.9242
  814MOL0     H12305   9.932   6.214   8.288  0.0699  1.1744 -0.0191
  814MOL0     H12306   9.936   6.025   8.047  2.2348 -2.1296  0.2820
  814MOL0     H12307  10.055   6.021   8.173 -0.1554  0.6215 -0.3275
  814MOL0     H12308  10.029   6.235   7.946  1.2214  2.3203  0.2358
  814MOL0     H12309  10.151   6.130   7.970  0.2240  0.1389 -0.3413
  814MOL0     H12310  10.065   6.358   8.159 -2.1798 -2.5549 -0.1429
  814MOL0     H12311  10.199   6.370   8.057 -2.0198  2.1137  0.5903
  814MOL0     H12312   9.535   6.371   8.120  0.4436 -3.6644  0.2335
  814MOL0     H12313   9.451   6.467   7.917  1.0958 -0.5079  1.0363
  814MOL0     H12314   9.285   6.542   7.574  0.7241  0.9651 -0.3840
  814MOL0     H12315   9.238   6.637   7.361 -0.6043 -0.4154 -1.0244
  814MOL0     H12316   7.595   6.939   6.375  0.4770 -0.4968  1.4727
  814MOL0     H12317   7.402   6.932   6.221 -0.4027 -0.8746 -1.0907
  814MOL0     H12318   7.172   6.637   5.784  1.3676  1.7704  1.6460
  814MOL0     H12319   6.939   6.621   5.705 -0.8152  3.2039 -0.9114
  814MOL0     H12320   6.676   6.797   5.679  0.4031  0.1967  1.2116
  814MOL0     H12321   6.762   6.660   5.649  0.3737  1.3494 -0.0925
  814MOL0     H12322   6.469   6.657   5.747 -2.2061 -1.2640 -1.7248
  814MOL0     H12323   6.573   6.508   5.718 -2.7240 -0.9222 -0.1374
  814MOL0     H12324   6.505   6.726   5.527 -1.1265 -0.0757  1.1176
  814MOL0     H12325   6.586   6.582   5.482  1.6820 -0.7305  1.5872
  814MOL0     H12326   6.303   6.555   5.613 -0.1225 -2.0246  0.4567
  814MOL0     H12327   6.399   6.437   5.525 -2.3334 -0.4240 -0.1659
  814MOL0     H12328   6.261   6.680   5.200 -1.9378 -1.9810 -0.6302
  814MOL0     H12329   6.812   6.755   6.090 -2.2440  0.7179 -1.8882
  814MOL0     H12330   6.977   6.931   6.174  1.1820 -0.1949  0.5668
  814MOL0     H12331   6.997   6.793   6.285 -0.4048 -1.1917  0.4741
  814MOL0     H12332   7.136   6.866   6.207 -0.5154 -2.8035  0.7921
  815MOL0     O12333   6.002   1.097   9.940  0.1135 -0.2601 -0.0635
  815MOL0     C12334   5.928   1.127  10.033 -0.3603 -0.3454 -0.0360
  815MOL0     O12335   5.973   1.152  10.158  0.4255 -0.3803  0.0379
  815MOL0     C12336   6.109   1.172  10.175  0.4993 -0.2216 -0.7475
  815MOL0     C12337   6.192   1.087  10.254  0.3716  0.2829 -0.1950
  815MOL0     C12338   6.323   1.121  10.283  0.2697  0.2858 -0.4692
  815MOL0     C12339   6.381   1.228  10.215  0.3936  0.2527 -0.0717
  815MOL0     O12340   6.504   1.270  10.244  0.1692  0.1785  0.7435
  815MOL0     C12341   6.577   1.187  10.334  0.4554  0.6545 -0.3856
  815MOL0     C12342   6.699   1.272  10.347  0.2131 -0.0690  0.5174
  815MOL0     C12343   6.821   1.184  10.388  0.0572 -1.1508  0.4038
  815MOL0     C12344   6.934   1.286  10.424  0.1569 -0.0949 -0.4182
  815MOL0     C12345   7.046   1.223  10.501  0.3588 -0.0683  0.4240
  815MOL0     C12346   7.166   1.304  10.485 -0.7906 -0.1834  0.3265
  815MOL0     C12347   7.287   1.236  10.567  0.0494 -0.9619 -0.0624
  815MOL0     C12348   7.415   1.285  10.499 -0.9100 -0.4923 -0.5771
  815MOL0     N12349   7.534   1.280  10.582 -0.3360 -0.1850  0.4758
  815MOL0     C12350   7.656   1.225  10.557  0.2893  0.5157 -0.2296
  815MOL0     C12351   7.719   1.231  10.678 -0.0460 -0.4031 -0.8900
  815MOL0     C12352   7.854   1.178  10.702 -0.1704  0.4770  0.0092
  815MOL0     C12353   7.943   1.279  10.782  0.2084  0.1844 -0.8146
  815MOL0     C12354   8.091   1.235  10.809  0.0898  0.6037  0.2332
  815MOL0     C12355   8.112   1.102  10.883 -0.6977 -0.4653  0.2009
  815MOL0     O12356   8.247   1.086  10.926  0.0423 -0.2576  0.3545
  815MOL0     C12357   8.340   1.042  10.827 -0.7417 -0.6937  0.5983
  815MOL0     C12358   8.320   0.978  10.704 -0.2544 -0.2382  0.7086
  815MOL0     C12359   8.431   0.937  10.624 -0.3669  0.5775 -0.1219
  815MOL0     C12360   8.405   0.851  10.496 -0.3078 -0.5981 -0.6086
  815MOL0     C12361   8.560   0.961  10.665  0.7735 -0.1534  0.3915
  815MOL0     C12362   8.681   0.930  10.585 -0.3112 -0.0038  0.8134
  815MOL0     O12363   8.789   0.889  10.654  0.4190 -0.5080 -0.0438
  815MOL0     C12364   8.898   0.829  10.585  0.4771 -0.5959 -0.8500
  815MOL0     C12365   8.889   0.790  10.451 -0.5651  0.2632 -0.6484
  815MOL0     C12366   9.009   0.759  10.393 -0.6400  0.2521  1.0158
  815MOL0     C12367   9.138   0.766  10.454  0.2924  0.7367 -0.7332
  815MOL0     O12368   9.263   0.735  10.405  0.4701 -0.0939  0.1743
  815MOL0     C12369   9.284   0.727  10.263  0.3000 -0.2705 -0.1351
  815MOL0     C12370   9.279   0.573  10.222  0.5642 -0.7054 -0.4772
  815MOL0     C12371   9.392   0.492  10.265  0.6478 -0.7039  0.0555
  815MOL0     C12372   9.513   0.506  10.172 -1.0458  0.3506  0.5435
  815MOL0     C12373   9.619   0.408  10.220 -0.0350 -0.0748  0.5190
  815MOL0     C12374   9.752   0.445  10.146 -0.2645 -0.3894  0.3784
  815MOL0     C12375   9.881   0.372  10.204 -0.5760  1.4409 -0.0004
  815MOL0     C12376  10.004   0.392  10.115  0.1856  0.0205 -0.2697
  815MOL0    Cl12377  10.143   0.314  10.188 -0.0983 -0.0177  0.0120
  815MOL0     C12378   9.133   0.798  10.589 -0.0835 -0.1441 -0.3857
  815MOL0     C12379   9.016   0.823  10.660 -0.1009 -0.9614  0.2762
  815MOL0     O12380   8.682   0.961  10.464  0.4036 -0.0392 -0.2362
  815MOL0     C12381   8.576   1.039  10.783  0.2573  0.3942 -0.0024
  815MOL0     C12382   8.467   1.082  10.863  0.1366  0.3157 -0.6141
  815MOL0     N12383   7.634   1.288  10.775  1.2549 -0.6120 -0.0903
  815MOL0     N12384   7.526   1.317  10.710  0.3556 -0.1244  0.2461
  815MOL0     C12385   6.302   1.307  10.132 -0.3305  0.8228 -0.6980
  815MOL0     C12386   6.163   1.283  10.118  0.3755 -0.1665  0.4816
  815MOL0     C12387   5.784   1.117  10.014  0.8042  0.2531  0.0958
  815MOL0     C12388   5.698   1.089  10.129 -0.2177 -0.0358 -0.4741
  815MOL0     C12389   5.565   1.070  10.118  0.5790 -0.8814 -0.1289
  815MOL0     C12390   5.509   1.075   9.995  0.6151  0.6425  0.0914
  815MOL0     O12391   5.367   1.067   9.998  0.4181  0.4466 -0.5624
  815MOL0     C12392   5.286   1.091   9.886  0.0054 -0.4096  0.1704
  815MOL0     C12393   5.266   0.974   9.795  0.4013  0.4477 -0.3408
  815MOL0     C12394   5.243   0.846   9.878 -0.5359  0.4489 -0.6171
  815MOL0     C12395   5.101   0.843   9.936  0.4146  0.2751  0.1441
  815MOL0     C12396   5.013   0.742   9.872 -0.0710 -0.8539 -1.0032
  815MOL0     C12397   4.940   0.665   9.815 -0.1846 -0.1493 -0.3896
  815MOL0     C12398   5.582   1.093   9.882 -0.2465  0.1679 -0.2989
  815MOL0     C12399   5.714   1.122   9.896 -0.5838 -0.8423  0.6281
  815MOL0     C12400   5.784   1.150   9.773 -0.8032  0.6232  0.1527
  815MOL0     H12401   6.153   0.999  10.302 -2.5863  2.2839  1.3345
  815MOL0     H12402   6.378   1.055  10.350  0.1506  2.7284  2.2457
  815MOL0     H12403   6.606   1.092  10.287 -2.3211  0.7003 -2.4064
  815MOL0     H12404   6.523   1.164  10.426 -1.5579  0.5368 -1.5481
  815MOL0     H12405   6.718   1.321  10.252 -1.9871  1.6689  0.9002
  815MOL0     H12406   6.666   1.348  10.418 -0.9727 -1.8451  1.9770
  815MOL0     H12407   6.796   1.123  10.475 -3.4857  0.5015  0.7041
  815MOL0     H12408   6.860   1.119  10.308 -0.2090 -2.5118  1.3403
  815MOL0     H12409   6.973   1.338  10.336  1.0088 -0.4469 -0.2634
  815MOL0     H12410   6.903   1.367  10.491  0.9258 -0.0310 -0.1234
  815MOL0     H12411   7.058   1.120  10.466 -1.0464  0.3921 -1.5994
  815MOL0     H12412   7.027   1.219  10.608 -0.1237 -1.1879  0.3133
  815MOL0     H12413   7.189   1.307  10.379  1.1236  0.9836  0.7324
  815MOL0     H12414   7.146   1.406  10.519 -0.8729 -0.0035 -0.2655
  815MOL0     H12415   7.286   1.126  10.566 -1.4122 -0.9754  0.0715
  815MOL0     H12416   7.280   1.275  10.669  2.4730 -0.5200 -0.0201
  815MOL0     H12417   7.438   1.245  10.400  2.2128 -1.1870  0.3167
  815MOL0     H12418   7.401   1.392  10.484  1.1743 -0.0874  0.1025
  815MOL0     H12419   7.693   1.167  10.472 -0.6266 -2.3511  1.2058
  815MOL0     H12420   7.896   1.168  10.602 -3.7574 -0.0514 -1.5911
  815MOL0     H12421   7.842   1.087  10.762 -1.1144  0.6538  0.1109
  815MOL0     H12422   7.944   1.370  10.722 -0.8396  1.4664  1.0017
  815MOL0     H12423   7.892   1.301  10.877 -0.0654  0.3413 -0.9962
  815MOL0     H12424   8.146   1.231  10.715  0.2348 -2.1248  0.3409
  815MOL0     H12425   8.145   1.313  10.863  1.5471  0.5887 -1.1386
  815MOL0     H12426   8.045   1.094  10.969 -1.7718 -0.9198 -0.6364
  815MOL0     H12427   8.084   1.033  10.802  2.9007 -0.7616 -0.9771
  815MOL0     H12428   8.226   0.961  10.653  0.6453  1.2127 -1.6219
  815MOL0     H12429   8.422   0.902  10.401  0.5878 -3.4802 -2.1042
  815MOL0     H12430   8.300   0.822  10.508  0.1316 -1.5965  1.3010
  815MOL0     H12431   8.463   0.758  10.499 -2.2479 -1.8759  1.2082
  815MOL0     H12432   8.799   0.788  10.391 -2.3931 -1.6869  1.9370
  815MOL0     H12433   9.015   0.739  10.286 -0.9484 -2.4330  1.4352
  815MOL0     H12434   9.212   0.774  10.196 -0.7510 -0.6605  0.6796
  815MOL0     H12435   9.377   0.775  10.232  0.9394 -2.0511 -1.1419
  815MOL0     H12436   9.187   0.521  10.249  0.1363  0.3146  0.0972
  815MOL0     H12437   9.273   0.567  10.113 -0.3326  1.2584 -0.5714
  815MOL0     H12438   9.368   0.385  10.272  0.8327 -0.7679 -0.2470
  815MOL0     H12439   9.427   0.514  10.366 -1.6345 -2.8651  1.4376
  815MOL0     H12440   9.545   0.610  10.174 -0.8306  0.2797  1.2665
  815MOL0     H12441   9.502   0.484  10.066  3.4402 -0.4961  0.0738
  815MOL0     H12442   9.626   0.415  10.329 -0.4614  1.7352  0.4610
  815MOL0     H12443   9.593   0.306  10.187  1.3541 -0.0238 -0.8800
  815MOL0     H12444   9.772   0.552  10.148  0.6812 -0.4545 -2.2591
  815MOL0     H12445   9.735   0.417  10.042  3.2158  0.7973 -0.6434
  815MOL0     H12446   9.855   0.266  10.199  1.0217  1.0220  0.0042
  815MOL0     H12447   9.906   0.414  10.302  1.1719  1.7343 -0.5156
  815MOL0     H12448  10.033   0.497  10.104  1.4873 -0.5164 -2.5557
  815MOL0     H12449   9.978   0.350  10.018  3.1463  1.3853 -1.7960
  815MOL0     H12450   9.228   0.810  10.640 -0.5502  2.4859  0.0477
  815MOL0     H12451   9.028   0.873  10.755 -1.5239 -0.9181  0.4628
  815MOL0     H12452   8.679   1.063  10.804  0.1338  1.0712 -0.1601
  815MOL0     H12453   8.477   1.135  10.957 -0.3512 -2.4145  1.1127
  815MOL0     H12454   6.355   1.396  10.100  0.1595  0.0938 -1.9751
  815MOL0     H12455   6.100   1.348  10.058 -0.5093 -0.0573  1.5015
  815MOL0     H12456   5.739   1.074  10.228 -0.6832  1.0462 -0.1112
  815MOL0     H12457   5.510   1.059  10.210  0.8433 -0.8535  0.0340
  815MOL0     H12458   5.184   1.110   9.923 -0.3514 -2.0742  0.1287
  815MOL0     H12459   5.326   1.174   9.827  2.1509 -0.6535  1.1854
  815MOL0     H12460   5.360   0.958   9.742 -0.6216  0.7064 -2.3521
  815MOL0     H12461   5.188   1.002   9.724  1.9380  3.3147 -1.0571
  815MOL0     H12462   5.253   0.765   9.806 -2.2236  2.3041 -3.1517
  815MOL0     H12463   5.319   0.848   9.956 -1.9608  0.9871  0.8136
  815MOL0     H12464   5.060   0.944   9.927  5.1487  2.5823  1.3304
  815MOL0     H12465   5.111   0.828  10.044 -1.4243  4.3091  1.0748
  815MOL0     H12466   4.862   0.605   9.774  0.1250 -0.2486 -0.8377
  815MOL0     H12467   5.537   1.085   9.784  0.1448  0.6524 -0.5230
  815MOL0     H12468   5.847   1.067   9.738  2.3604  1.8422  2.5042
  815MOL0     H12469   5.711   1.176   9.696 -0.4920  1.6128  0.1792
  815MOL0     H12470   5.844   1.241   9.775  0.9150 -0.4822  1.0230
  816MOL0     O12471   7.646   0.803   3.940 -0.0819 -0.1525 -0.0550
  816MOL0     C12472   7.528   0.759   3.920  0.9238  0.8154  0.6998
  816MOL0     O12473   7.465   0.734   3.802 -0.2123 -0.8588 -0.1337
  816MOL0     C12474   7.549   0.748   3.692  0.5170  0.8197 -0.4308
  816MOL0     C12475   7.587   0.640   3.625  0.3204  0.8185 -0.0199
  816MOL0     C12476   7.662   0.651   3.509 -0.7065 -0.1213  0.8502
  816MOL0     C12477   7.695   0.780   3.460  0.2900  0.6617 -0.9484
  816MOL0     O12478   7.775   0.789   3.350  0.4993  0.2033  0.0425
  816MOL0     C12479   7.898   0.851   3.376 -0.1536  0.7195  0.1341
  816MOL0     C12480   7.983   0.812   3.259 -0.0243  0.1219  0.4201
  816MOL0     C12481   8.113   0.896   3.242  0.3921  0.4593 -0.5191
  816MOL0     C12482   8.206   0.852   3.352 -0.1421 -0.1348  0.4188
  816MOL0     C12483   8.352   0.899   3.331  0.4515 -0.8247 -1.0106
  816MOL0     C12484   8.427   0.876   3.466 -0.6038 -0.8702 -0.1889
  816MOL0     C12485   8.577   0.931   3.462  0.8214 -0.5356  0.3661
  816MOL0     C12486   8.659   0.843   3.371 -0.0175  0.4260  0.2783
  816MOL0     N12487   8.799   0.869   3.380  0.2636  0.1991 -0.6964
  816MOL0     C12488   8.884   0.831   3.487  1.0648 -0.0475  0.2384
  816MOL0     C12489   8.993   0.900   3.462 -0.2772  0.6086  0.6393
  816MOL0     C12490   9.114   0.880   3.555  0.0024 -0.7612  0.6015
  816MOL0     C12491   9.242   0.857   3.467 -0.2141  0.1875  0.1666
  816MOL0     C12492   9.297   0.729   3.513  0.4193 -0.3525 -0.6441
  816MOL0     C12493   9.410   0.665   3.426 -0.9160 -0.0612 -0.1457
  816MOL0     O12494   9.540   0.709   3.475  0.0595 -0.5421  0.3524
  816MOL0     C12495   9.651   0.648   3.427  0.2938  0.4751  0.0448
  816MOL0     C12496   9.654   0.547   3.327  0.3290 -0.1014  0.3254
  816MOL0     C12497   9.772   0.479   3.294 -0.5202  0.2938  0.2478
  816MOL0     C12498   9.757   0.358   3.208  0.2169  0.3551 -0.0732
  816MOL0     C12499   9.890   0.512   3.369  0.1065  0.2069  0.9481
  816MOL0     C12500  10.015   0.454   3.346 -1.4020  0.3299  0.2783
  816MOL0     O12501  10.116   0.488   3.428 -0.5318  0.4390  0.4225
  816MOL0     C12502  10.239   0.429   3.397 -0.4273  0.6054  0.7567
  816MOL0     C12503  10.333   0.486   3.302  0.7580  0.1798 -0.3272
  816MOL0     C12504  10.464   0.433   3.287  0.1194  0.2215 -0.5023
  816MOL0     C12505  10.494   0.312   3.344 -0.9227  0.3708 -0.2239
  816MOL0     O12506  10.618   0.250   3.335  0.2607 -0.0727  0.0913
  816MOL0     C12507  10.727   0.325   3.269  0.6758  1.1062 -0.2955
  816MOL0     C12508  10.855   0.249   3.306  0.2636 -1.0925 -0.2698
  816MOL0     C12509  10.891   0.261   3.458 -0.1991 -0.1898 -0.3530
  816MOL0     C12510  11.007   0.172   3.509 -0.7881 -0.3906  0.6571
  816MOL0     C12511  11.149   0.201   3.452 -0.5418 -0.2593  0.6154
  816MOL0     C12512  11.244   0.095   3.508 -0.0202 -0.9195  0.6302
  816MOL0     C12513  11.387   0.131   3.464  0.4063 -0.0575  0.0892
  816MOL0     C12514  11.413   0.101   3.316 -0.3826  0.4173  0.7679
  816MOL0    Cl12515  11.576   0.168   3.270  0.1162 -0.2377 -0.0399
  816MOL0     C12516  10.408   0.246   3.436  0.5009 -0.1313  0.9555
  816MOL0     C12517  10.281   0.308   3.459  0.0898  0.0952  0.0588
  816MOL0     O12518  10.020   0.367   3.260  0.3907  0.2984 -0.0151
  816MOL0     C12519   9.887   0.608   3.470  0.0986 -0.3460  0.1378
  816MOL0     C12520   9.769   0.680   3.498  0.6534  0.0430  0.2117
  816MOL0     N12521   8.980   0.978   3.353 -0.8137  0.8163  0.5329
  816MOL0     N12522   8.856   0.966   3.303 -0.6080 -0.3183 -0.3784
  816MOL0     C12523   7.653   0.898   3.530 -0.7893  0.6870  0.1125
  816MOL0     C12524   7.582   0.882   3.651  0.0252  0.6197 -0.8256
  816MOL0     C12525   7.445   0.744   4.046 -0.1217  0.6885  0.1884
  816MOL0     C12526   7.365   0.626   4.062  1.2897 -0.3470 -0.3768
  816MOL0     C12527   7.298   0.602   4.184 -0.2403  0.0722 -0.5904
  816MOL0     C12528   7.306   0.702   4.292 -1.2685 -1.1917  0.0706
  816MOL0     O12529   7.246   0.688   4.412  0.3332 -0.0376 -1.0775
  816MOL0     C12530   7.121   0.622   4.407 -0.0986 -0.0111 -0.6175
  816MOL0     C12531   7.009   0.706   4.334 -0.1802  0.7363 -1.1783
  816MOL0     C12532   6.898   0.619   4.282  1.0818  0.8836 -0.0753
  816MOL0     C12533   6.770   0.699   4.265 -0.9895 -0.2622 -0.8831
  816MOL0     C12534   6.772   0.815   4.171  0.5305  0.7127  0.6023
  816MOL0     C12535   6.757   0.914   4.104  0.2701  0.1707 -0.0904
  816MOL0     C12536   7.393   0.809   4.273 -0.2990  0.3789  0.9584
  816MOL0     C12537   7.458   0.833   4.154  0.3213  0.1466 -0.1788
  816MOL0     C12538   7.531   0.963   4.153 -0.6125  0.0479  0.0599
  816MOL0     H12539   7.558   0.542   3.661  1.4376 -0.4627 -2.3113
  816MOL0     H12540   7.693   0.567   3.448  0.8343  1.2786 -0.3960
  816MOL0     H12541   7.947   0.823   3.470  2.2151  0.0883 -1.2190
  816MOL0     H12542   7.875   0.958   3.378  2.0863  1.3053  3.4882
  816MOL0     H12543   7.998   0.705   3.249  2.7006  0.4564  0.0397
  816MOL0     H12544   7.927   0.842   3.169  1.2367  0.7579 -0.1848
  816MOL0     H12545   8.155   0.867   3.146 -2.0050 -3.7310 -0.5436
  816MOL0     H12546   8.095   1.004   3.233 -1.8463  0.1240 -0.7259
  816MOL0     H12547   8.167   0.890   3.447  0.1701  0.8744  0.1548
  816MOL0     H12548   8.213   0.742   3.353 -1.5141 -0.2773 -1.5238
  816MOL0     H12549   8.345   1.002   3.294  2.5758 -0.3519 -0.2206
  816MOL0     H12550   8.404   0.854   3.246 -1.9808  0.8358 -3.5805
  816MOL0     H12551   8.371   0.924   3.547 -1.2862 -1.8334 -0.0764
  816MOL0     H12552   8.422   0.768   3.479 -1.7798 -0.5584  2.7713
  816MOL0     H12553   8.626   0.947   3.559  0.8421  2.4152 -0.0460
  816MOL0     H12554   8.581   1.027   3.409 -0.1568 -1.0957 -0.7774
  816MOL0     H12555   8.662   0.737   3.396  2.0836  0.7009  1.4203
  816MOL0     H12556   8.618   0.862   3.272 -3.5100  1.3829  1.7483
  816MOL0     H12557   8.878   0.757   3.566  0.8196 -0.7727 -0.4484
  816MOL0     H12558   9.091   0.795   3.620  0.8718  0.6783  2.8694
  816MOL0     H12559   9.105   0.970   3.616 -4.2745 -0.7155  0.2120
  816MOL0     H12560   9.212   0.844   3.363 -3.0818 -1.4043  1.0908
  816MOL0     H12561   9.320   0.934   3.474  0.7679 -0.4713 -2.2807
  816MOL0     H12562   9.328   0.740   3.617  1.1943 -2.8694 -0.5432
  816MOL0     H12563   9.219   0.654   3.528  0.9839 -1.4145 -2.6330
  816MOL0     H12564   9.415   0.557   3.412  1.8951  0.0016 -0.3459
  816MOL0     H12565   9.399   0.716   3.330 -0.7510 -0.5085 -0.4005
  816MOL0     H12566   9.566   0.513   3.274  0.3876 -0.8642  0.7028
  816MOL0     H12567   9.650   0.351   3.189  0.2263 -2.2980  0.4157
  816MOL0     H12568   9.792   0.269   3.262 -0.3481  1.7577  2.7695
  816MOL0     H12569   9.808   0.379   3.114 -0.1729  1.7296 -0.0018
  816MOL0     H12570  10.305   0.580   3.255 -0.2456  0.7407  1.2859
  816MOL0     H12571  10.535   0.480   3.219  0.2949  1.9956  0.8177
  816MOL0     H12572  10.708   0.334   3.162 -0.4289  3.9663  0.0486
  816MOL0     H12573  10.734   0.428   3.303 -1.4979  1.6461 -1.2760
  816MOL0     H12574  10.842   0.145   3.277  0.4893 -1.5045  1.0406
  816MOL0     H12575  10.944   0.289   3.256  0.7818  2.2976  2.9281
  816MOL0     H12576  10.805   0.234   3.521 -1.4150  2.0067 -0.9678
  816MOL0     H12577  10.924   0.363   3.478 -0.0735 -0.4984  1.1307
  816MOL0     H12578  10.986   0.070   3.475  0.9879 -0.2874 -0.9122
  816MOL0     H12579  11.013   0.180   3.617  0.3864 -3.3481  0.9112
  816MOL0     H12580  11.156   0.190   3.344  2.0524 -2.1567  0.8787
  816MOL0     H12581  11.188   0.303   3.456  1.8496 -0.9887 -1.4342
  816MOL0     H12582  11.220  -0.006   3.472  1.7659 -1.3094  0.4328
  816MOL0     H12583  11.243   0.090   3.618 -0.8135  1.7630  0.8158
  816MOL0     H12584  11.448   0.067   3.528  0.9996  0.9182  0.5249
  816MOL0     H12585  11.408   0.237   3.483 -0.8187  0.2369 -0.0590
  816MOL0     H12586  11.334   0.137   3.250 -0.0601  1.7565  1.0934
  816MOL0     H12587  11.412  -0.007   3.295  1.2605  0.3922  0.7142
  816MOL0     H12588  10.430   0.147   3.476  2.3154  0.3018  1.0857
  816MOL0     H12589  10.221   0.266   3.538  0.6203 -2.2312 -0.6970
  816MOL0     H12590   9.975   0.637   3.527 -1.3950  4.4894  0.3942
  816MOL0     H12591   9.757   0.760   3.571  0.0405  1.1880 -1.0857
  816MOL0     H12592   7.683   0.996   3.496  1.5391  1.2166  3.2052
  816MOL0     H12593   7.544   0.968   3.704  1.3962  0.1540  1.0196
  816MOL0     H12594   7.360   0.546   3.989 -1.6897 -2.6733  2.1033
  816MOL0     H12595   7.257   0.502   4.188 -1.0173  0.3725 -0.8401
  816MOL0     H12596   7.131   0.522   4.364 -1.9052 -0.0238 -1.0710
  816MOL0     H12597   7.091   0.594   4.508 -1.2223  1.4121 -0.5273
  816MOL0     H12598   7.051   0.749   4.243  1.8126 -0.0380 -0.6708
  816MOL0     H12599   6.969   0.787   4.396  1.4289  0.0155  0.9323
  816MOL0     H12600   6.924   0.565   4.191 -0.0778 -1.1817  0.7703
  816MOL0     H12601   6.866   0.553   4.363 -0.7998 -0.6101 -1.9369
  816MOL0     H12602   6.740   0.727   4.367  1.0926 -1.5255  0.1681
  816MOL0     H12603   6.693   0.628   4.233  0.8877 -2.4045 -0.9390
  816MOL0     H12604   6.758   1.003   4.045  2.4287  0.7868  0.7504
  816MOL0     H12605   7.406   0.876   4.358  1.9934 -1.6729  2.3445
  816MOL0     H12606   7.470   1.029   4.216  1.0962  1.1128  0.6918
  816MOL0     H12607   7.625   0.962   4.209  2.0919  1.5158 -3.9603
  816MOL0     H12608   7.555   0.995   4.051  1.9797  0.7946  0.8107
  817MOL0     O12609   8.900  10.454   1.508  0.0912  0.0998 -0.0623
  817MOL0     C12610   8.840  10.557   1.488  0.3399 -0.4054  0.7702
  817MOL0     O12611   8.898  10.678   1.488  0.1742 -0.2069 -0.3702
  817MOL0     C12612   9.036  10.686   1.499 -0.9722  0.1562 -0.2315
  817MOL0     C12613   9.087  10.698   1.625 -0.3302  0.3113 -0.3848
  817MOL0     C12614   9.223  10.677   1.646  0.7182 -0.7762  0.5855
  817MOL0     C12615   9.315  10.670   1.533  1.2454 -0.7078 -0.3636
  817MOL0     O12616   9.451  10.650   1.550  0.1456 -0.4261  0.4259
  817MOL0     C12617   9.511  10.655   1.685 -0.0252 -0.2173 -0.0752
  817MOL0     C12618   9.660  10.615   1.685 -0.3038 -0.8141 -0.4919
  817MOL0     C12619   9.695  10.517   1.570 -0.2136 -0.0563 -0.8071
  817MOL0     C12620   9.840  10.474   1.585 -0.5870 -1.6267  0.4186
  817MOL0     C12621   9.953  10.582   1.556  0.0753  0.8699  0.3747
  817MOL0     C12622  10.065  10.513   1.497 -0.4822 -0.8641 -0.3175
  817MOL0     C12623  10.180  10.606   1.458  0.4808  0.0878  0.4329
  817MOL0     C12624  10.260  10.538   1.351  0.7588  0.5958 -0.3822
  817MOL0     N12625  10.357  10.630   1.290  0.3202  0.1493 -0.7314
  817MOL0     C12626  10.445  10.589   1.190  1.1322 -0.6268  0.1759
  817MOL0     C12627  10.519  10.705   1.168 -1.0938  0.4528  0.0702
  817MOL0     C12628  10.637  10.723   1.073 -0.8878  0.1254 -0.3679
  817MOL0     C12629  10.765  10.695   1.146 -0.7584  0.2058  0.0080
  817MOL0     C12630  10.892  10.686   1.056 -0.2612 -0.7674 -0.2584
  817MOL0     C12631  11.018  10.694   1.138  0.7239  0.0324 -0.3860
  817MOL0     O12632  11.126  10.672   1.046 -0.1799 -0.7175 -0.4111
  817MOL0     C12633  11.252  10.708   1.084  0.2862 -0.3652 -0.0336
  817MOL0     C12634  11.346  10.681   0.990 -0.3835 -0.5398  0.5605
  817MOL0     C12635  11.476  10.726   0.999 -0.3533 -0.3504  0.0504
  817MOL0     C12636  11.571  10.715   0.883  0.6668  0.9592 -1.1938
  817MOL0     C12637  11.514  10.791   1.121  0.7906 -0.2502 -0.3181
  817MOL0     C12638  11.649  10.842   1.146 -0.3183 -0.2839 -0.0998
  817MOL0     O12639  11.757  10.766   1.107  0.3490 -0.0333  0.8142
  817MOL0     C12640  11.883  10.810   1.150  0.8575 -0.9445  0.2079
  817MOL0     C12641  11.977  10.874   1.063  0.2193 -0.1348 -0.0628
  817MOL0     C12642  12.109  10.900   1.105  0.4473 -0.2879 -0.8093
  817MOL0     C12643  12.139  10.871   1.237 -0.6767 -0.3462 -0.1931
  817MOL0     O12644  12.265  10.894   1.300  0.7157 -0.3701 -0.5782
  817MOL0     C12645  12.340  11.006   1.243  1.1427  0.1327 -0.5520
  817MOL0     C12646  12.447  11.044   1.349 -0.4189  0.5875  0.4341
  817MOL0     C12647  12.388  11.083   1.480 -0.1998  0.4278 -0.6346
  817MOL0     C12648  12.508  11.108   1.583 -0.4249  0.9085 -0.5368
  817MOL0     C12649  12.471  11.179   1.709 -0.2136 -0.0413  1.3291
  817MOL0     C12650  12.600  11.238   1.762  0.2569  0.4248  0.1106
  817MOL0     C12651  12.567  11.317   1.889  0.2459  0.0893 -0.4243
  817MOL0     C12652  12.703  11.361   1.948 -0.1177  0.0978  0.1895
  817MOL0    Cl12653  12.702  11.470   2.088  0.3035 -0.1552 -0.2825
  817MOL0     C12654  12.037  10.834   1.322  0.0250  0.1092 -0.3642
  817MOL0     C12655  11.909  10.801   1.286 -0.1233 -0.2677  1.1380
  817MOL0     O12656  11.655  10.953   1.197  0.0196  0.1764 -0.4276
  817MOL0     C12657  11.420  10.801   1.232 -0.3845  0.5297  0.2338
  817MOL0     C12658  11.285  10.773   1.207 -0.0890  0.5799  0.0847
  817MOL0     N12659  10.478  10.795   1.255  0.1939  0.5782  0.7151
  817MOL0     N12660  10.385  10.762   1.324 -0.2188  0.1160 -0.3348
  817MOL0     C12661   9.252  10.663   1.402  0.2778 -1.5091 -0.5498
  817MOL0     C12662   9.114  10.676   1.389 -0.4965  0.8668  0.5397
  817MOL0     C12663   8.698  10.547   1.468  0.2182 -0.3618 -0.0134
  817MOL0     C12664   8.628  10.665   1.493 -0.2456  0.8371 -0.6581
  817MOL0     C12665   8.491  10.666   1.487 -0.3944 -0.0572  0.1137
  817MOL0     C12666   8.416  10.554   1.474 -0.0686  0.3991 -0.2202
  817MOL0     O12667   8.279  10.542   1.468 -1.0891  0.1836  0.0622
  817MOL0     C12668   8.221  10.460   1.570  0.8398 -0.1716 -0.6418
  817MOL0     C12669   8.081  10.518   1.599 -0.2568 -0.2287 -0.3841
  817MOL0     C12670   8.072  10.667   1.630 -0.4897 -0.6681  0.1523
  817MOL0     C12671   8.112  10.687   1.781 -0.0643 -0.4926  0.0882
  817MOL0     C12672   8.263  10.697   1.793 -0.2176  0.0611  0.0513
  817MOL0     C12673   8.379  10.676   1.809 -0.7703 -0.1904 -0.5492
  817MOL0     C12674   8.490  10.433   1.450 -0.2728 -0.6129 -0.6870
  817MOL0     C12675   8.628  10.427   1.428 -1.0361  0.0792 -1.0235
  817MOL0     C12676   8.689  10.290   1.386 -0.0623  0.0421 -0.5016
  817MOL0     H12677   9.023  10.708   1.712 -0.4935 -4.0329  0.1911
  817MOL0     H12678   9.262  10.686   1.747  2.0626 -0.5225  0.0679
  817MOL0     H12679   9.463  10.589   1.758  1.1155 -1.2533 -0.2272
  817MOL0     H12680   9.504  10.757   1.725  0.6333 -0.0698 -0.3186
  817MOL0     H12681   9.721  10.705   1.676 -1.1285 -0.2812 -0.8561
  817MOL0     H12682   9.693  10.576   1.782  1.8634  0.3435 -0.6961
  817MOL0     H12683   9.638  10.425   1.586 -1.1908  0.7350  0.5428
  817MOL0     H12684   9.684  10.559   1.470  1.8269  0.5109 -0.8241
  817MOL0     H12685   9.848  10.437   1.688 -0.3092  0.7344  1.3102
  817MOL0     H12686   9.852  10.398   1.508  0.9344  2.7075 -4.1837
  817MOL0     H12687   9.984  10.640   1.644 -1.7407  3.2547 -0.4447
  817MOL0     H12688   9.918  10.656   1.483  1.3430  0.7170 -0.4129
  817MOL0     H12689  10.105  10.444   1.572  0.7383 -2.3584 -2.2347
  817MOL0     H12690  10.035  10.460   1.406 -2.0209  1.0498 -0.9785
  817MOL0     H12691  10.250  10.626   1.540  0.5598  1.1670  0.1165
  817MOL0     H12692  10.150  10.699   1.409  1.8089  1.1198  1.4953
  817MOL0     H12693  10.312  10.453   1.394 -2.2526  0.0158  2.5782
  817MOL0     H12694  10.209  10.497   1.263  1.5501 -0.3456 -0.4110
  817MOL0     H12695  10.447  10.491   1.144 -0.8420 -1.1993  1.2081
  817MOL0     H12696  10.634  10.829   1.049  0.1316  0.6290  1.5309
  817MOL0     H12697  10.622  10.653   0.990 -1.8540 -1.0138  0.7123
  817MOL0     H12698  10.774  10.773   1.222 -1.3163 -1.8509  2.3201
  817MOL0     H12699  10.765  10.597   1.193  1.8030  0.4437  0.6513
  817MOL0     H12700  10.884  10.592   1.001  1.1469  0.0490 -1.9430
  817MOL0     H12701  10.881  10.763   0.979 -2.0801 -2.4022 -1.7731
  817MOL0     H12702  11.010  10.793   1.184 -3.1429 -1.1595  2.0305
  817MOL0     H12703  11.021  10.620   1.219  0.4150  0.2484 -0.1730
  817MOL0     H12704  11.320  10.621   0.904 -0.5747 -2.1018  1.6660
  817MOL0     H12705  11.629  10.623   0.894 -3.0585 -2.2062 -4.5345
  817MOL0     H12706  11.634  10.804   0.878 -0.8282  2.0577 -0.9935
  817MOL0     H12707  11.521  10.699   0.787 -0.5478  1.3099 -0.6346
  817MOL0     H12708  11.947  10.887   0.959  2.1398  3.8531 -0.2961
  817MOL0     H12709  12.182  10.935   1.033 -1.1181  2.6540 -1.1469
  817MOL0     H12710  12.382  10.986   1.144 -1.0181 -5.2556 -0.7230
  817MOL0     H12711  12.266  11.087   1.239  0.5661 -0.0006  3.5607
  817MOL0     H12712  12.518  10.962   1.359  0.0258  0.5605 -2.1228
  817MOL0     H12713  12.502  11.127   1.304 -1.0847  0.8970  0.1818
  817MOL0     H12714  12.317  11.007   1.515 -0.0812 -1.1370 -3.4526
  817MOL0     H12715  12.328  11.175   1.471 -0.3870  0.2685 -1.0440
  817MOL0     H12716  12.580  11.165   1.524 -1.2622  2.7015  0.0790
  817MOL0     H12717  12.553  11.012   1.608 -1.7956 -0.4131 -2.8145
  817MOL0     H12718  12.406  11.266   1.691 -0.3576 -0.1300  1.4176
  817MOL0     H12719  12.424  11.105   1.774 -2.4814 -2.5642 -2.7243
  817MOL0     H12720  12.642  11.305   1.687 -0.2383 -0.4784 -0.9923
  817MOL0     H12721  12.663  11.153   1.790  0.3122  1.2460  2.8232
  817MOL0     H12722  12.524  11.252   1.966  1.0831  1.1918  1.0160
  817MOL0     H12723  12.507  11.404   1.860  1.0963  0.2323 -1.8816
  817MOL0     H12724  12.763  11.401   1.866 -1.1564  0.0179 -0.6326
  817MOL0     H12725  12.757  11.274   1.986 -0.6600 -0.7299 -0.9036
  817MOL0     H12726  12.063  10.826   1.427 -0.2017 -0.1516 -0.3269
  817MOL0     H12727  11.828  10.780   1.354 -2.1143  1.9782 -0.3836
  817MOL0     H12728  11.465  10.833   1.325  2.8913  0.8215 -1.3018
  817MOL0     H12729  11.205  10.788   1.280  0.6500  0.9660  0.8381
  817MOL0     H12730   9.315  10.643   1.316  1.2684 -2.4404  0.3584
  817MOL0     H12731   9.068  10.674   1.291 -0.0170 -0.5483  0.3268
  817MOL0     H12732   8.673  10.753   1.538 -1.8211  1.0325  0.6251
  817MOL0     H12733   8.431  10.757   1.495 -1.2749 -0.6696  0.6908
  817MOL0     H12734   8.225  10.361   1.523  1.8227 -1.0355  1.1505
  817MOL0     H12735   8.277  10.476   1.663  0.2073  1.7940 -0.5482
  817MOL0     H12736   8.033  10.467   1.682 -1.5740 -0.8452 -1.4832
  817MOL0     H12737   8.017  10.504   1.511 -0.5208  0.2139 -0.2676
  817MOL0     H12738   8.133  10.720   1.557  2.5026 -1.0712  2.1826
  817MOL0     H12739   7.969  10.701   1.617 -0.2154  0.6041  1.0645
  817MOL0     H12740   8.074  10.615   1.853 -0.4925  1.2004  1.6375
  817MOL0     H12741   8.078  10.787   1.808  1.4196  0.2964 -0.7940
  817MOL0     H12742   8.484  10.659   1.826 -1.3569 -1.2687  2.7424
  817MOL0     H12743   8.434  10.342   1.428  0.1375 -1.0672  0.0932
  817MOL0     H12744   8.632  10.235   1.311 -0.2408 -0.3176 -0.1063
  817MOL0     H12745   8.792  10.301   1.351  0.1840  0.7178  0.4048
  817MOL0     H12746   8.688  10.222   1.472  0.7457 -2.1935 -2.1471
  818MOL0     O12747   2.042   2.925   9.143 -0.0324  0.6037 -0.0858
  818MOL0     C12748   1.988   3.018   9.192 -0.1955 -0.7743 -0.2926
  818MOL0     O12749   1.931   3.122   9.113 -1.1706  0.2281 -0.5181
  818MOL0     C12750   1.983   3.154   8.991 -0.4356 -0.4344  0.1047
  818MOL0     C12751   1.985   3.056   8.885  0.0096  0.0481  0.1991
  818MOL0     C12752   2.040   3.095   8.757 -0.2057  0.0201 -0.3860
  818MOL0     C12753   2.097   3.223   8.745  0.0106  0.1524  0.1824
  818MOL0     O12754   2.144   3.254   8.619  0.3163 -0.0483 -0.0351
  818MOL0     C12755   2.184   3.388   8.589 -0.7781  0.1546  0.1137
  818MOL0     C12756   2.324   3.423   8.638 -0.7389  0.4143 -0.1978
  818MOL0     C12757   2.392   3.529   8.542 -0.5204  0.0626  0.6234
  818MOL0     C12758   2.537   3.565   8.582 -0.7641 -0.3606 -0.2249
  818MOL0     C12759   2.600   3.633   8.457  0.5346  0.4080 -0.6148
  818MOL0     C12760   2.732   3.686   8.487 -0.8187  0.2192 -0.4891
  818MOL0     C12761   2.827   3.670   8.371  0.7683  0.5598 -0.6631
  818MOL0     C12762   2.970   3.682   8.420 -0.3544 -0.4984 -0.8230
  818MOL0     N12763   3.015   3.573   8.507  0.2024 -0.1125  0.1800
  818MOL0     C12764   3.049   3.598   8.639 -0.1055 -0.5191 -0.8359
  818MOL0     C12765   3.133   3.494   8.675  0.4370  0.2331  0.2625
  818MOL0     C12766   3.197   3.485   8.801  0.4501  0.0964 -0.6651
  818MOL0     C12767   3.316   3.589   8.815  0.0944  0.2256 -0.4445
  818MOL0     C12768   3.365   3.622   8.957 -0.9189 -0.3757 -0.1704
  818MOL0     C12769   3.378   3.499   9.047  0.0696 -0.2287  0.1054
  818MOL0     O12770   3.470   3.404   9.000  0.0645  0.2687  1.0599
  818MOL0     C12771   3.609   3.425   8.991 -0.4080 -0.2112 -0.0633
  818MOL0     C12772   3.690   3.341   8.913  0.3809  0.1696  0.5020
  818MOL0     C12773   3.826   3.341   8.908 -0.2311  0.3701 -0.1249
  818MOL0     C12774   3.900   3.236   8.837  0.1062 -0.1010  0.4449
  818MOL0     C12775   3.886   3.440   8.989  0.2927 -0.1022  0.2041
  818MOL0     C12776   4.038   3.462   9.002  0.2042  0.7768 -0.3037
  818MOL0     O12777   4.086   3.588   9.004  0.0317 -0.2202 -0.2553
  818MOL0     C12778   4.219   3.602   9.032  0.5252 -0.2634  0.6468
  818MOL0     C12779   4.284   3.641   8.916  0.4972  0.4505  0.3672
  818MOL0     C12780   4.419   3.671   8.921 -0.6223  0.1283 -0.2208
  818MOL0     C12781   4.491   3.669   9.037  0.2519 -0.1653 -0.3116
  818MOL0     O12782   4.627   3.692   9.045 -0.3819  0.2913 -0.5807
  818MOL0     C12783   4.662   3.811   9.119 -0.7131 -0.1429 -0.5144
  818MOL0     C12784   4.807   3.814   9.153 -0.3066  0.7806  0.4408
  818MOL0     C12785   4.834   3.940   9.234  0.2563 -0.3387 -0.5214
  818MOL0     C12786   4.980   3.938   9.280 -0.1514 -0.4476 -0.1914
  818MOL0     C12787   5.040   4.059   9.356  0.2173  1.9528  0.2693
  818MOL0     C12788   5.191   4.072   9.373 -0.7647  0.4271 -0.3378
  818MOL0     C12789   5.237   4.211   9.422  0.0361  0.9974  0.5314
  818MOL0     C12790   5.272   4.308   9.316  0.0801  0.3165  0.2903
  818MOL0    Cl12791   5.402   4.244   9.197  0.1045 -0.2858  0.1544
  818MOL0     C12792   4.423   3.619   9.155  0.0642  0.0091  0.4880
  818MOL0     C12793   4.282   3.595   9.150  0.0213 -0.3002 -0.5488
  818MOL0     O12794   4.104   3.361   8.984 -0.4905  0.2552  0.0624
  818MOL0     C12795   3.807   3.531   9.065 -0.8271 -0.6156 -0.7579
  818MOL0     C12796   3.668   3.524   9.061  0.8670 -0.8688 -0.4636
  818MOL0     N12797   3.147   3.411   8.564 -0.3461 -0.2901 -0.5908
  818MOL0     N12798   3.079   3.460   8.466  0.4338  0.9773  0.0596
  818MOL0     C12799   2.090   3.318   8.848  0.1732 -0.1345  0.6835
  818MOL0     C12800   2.036   3.280   8.968 -1.0199 -0.8422 -0.0477
  818MOL0     C12801   1.942   3.016   9.333  0.2338  0.2967  0.1457
  818MOL0     C12802   1.846   3.110   9.371  0.2450  0.3346  0.4049
  818MOL0     C12803   1.800   3.113   9.501 -0.1718  0.2168 -0.7937
  818MOL0     C12804   1.855   3.037   9.603  0.0465 -0.4017  0.4262
  818MOL0     O12805   1.802   3.045   9.724  0.1335  0.1044 -1.2900
  818MOL0     C12806   1.828   2.945   9.833 -0.3126 -0.1020 -0.0955
  818MOL0     C12807   1.706   2.956   9.927 -0.2460  0.4722  0.9001
  818MOL0     C12808   1.707   3.089  10.004 -1.1821  0.2467  0.3454
  818MOL0     C12809   1.569   3.148  10.023 -0.7592  0.9679 -0.8072
  818MOL0     C12810   1.500   3.176   9.895  0.4239  0.7195 -0.0756
  818MOL0     C12811   1.436   3.207   9.800  0.5217 -0.3827 -0.1731
  818MOL0     C12812   1.948   2.936   9.570 -0.2090 -0.6752  0.5908
  818MOL0     C12813   1.991   2.929   9.436 -0.0005  0.5326 -0.0926
  818MOL0     C12814   2.102   2.834   9.412  0.2603  0.4062 -0.3023
  818MOL0     H12815   1.940   2.959   8.901  2.0087 -1.5255 -2.7205
  818MOL0     H12816   2.038   3.026   8.674  1.4651  0.2684 -0.6629
  818MOL0     H12817   2.113   3.468   8.613  0.4244  0.5510  2.7464
  818MOL0     H12818   2.191   3.381   8.480 -0.1890 -1.5418  0.2294
  818MOL0     H12819   2.332   3.462   8.739  1.5731  0.5318 -0.3933
  818MOL0     H12820   2.384   3.332   8.644 -1.4290  0.0428  1.6204
  818MOL0     H12821   2.390   3.482   8.443 -2.8282  2.3512 -0.5272
  818MOL0     H12822   2.336   3.622   8.527  1.3364  1.2522  0.8164
  818MOL0     H12823   2.537   3.637   8.664  1.8244  0.8864 -1.1878
  818MOL0     H12824   2.588   3.476   8.620 -1.6698 -0.0665  1.7762
  818MOL0     H12825   2.532   3.714   8.429 -1.1315 -0.2547  1.2872
  818MOL0     H12826   2.595   3.562   8.373 -2.7740 -1.3148  0.8489
  818MOL0     H12827   2.713   3.788   8.522  2.9423 -0.0241  3.0488
  818MOL0     H12828   2.776   3.622   8.564 -0.2426 -2.1411 -2.6276
  818MOL0     H12829   2.806   3.741   8.290  0.8214  1.7384  0.3310
  818MOL0     H12830   2.823   3.569   8.330  0.1449  0.8028 -1.2033
  818MOL0     H12831   3.048   3.685   8.344  1.1450 -3.8176  0.3969
  818MOL0     H12832   2.989   3.780   8.466 -3.0728 -1.2093  2.1566
  818MOL0     H12833   3.033   3.684   8.704  1.4703 -0.6967 -0.1583
  818MOL0     H12834   3.239   3.384   8.807 -0.5063 -0.2292  0.9805
  818MOL0     H12835   3.114   3.507   8.869  2.3449  0.0799  1.7965
  818MOL0     H12836   3.400   3.561   8.751  0.0914 -3.1470  0.8363
  818MOL0     H12837   3.285   3.689   8.781 -0.1817 -0.2181 -1.5519
  818MOL0     H12838   3.458   3.680   8.953 -0.9604 -0.3718 -1.8540
  818MOL0     H12839   3.289   3.683   9.008 -1.3182  0.8200 -2.0545
  818MOL0     H12840   3.411   3.523   9.149 -0.9595 -1.0095  0.6347
  818MOL0     H12841   3.277   3.458   9.052 -0.2657  0.5998  0.3890
  818MOL0     H12842   3.634   3.260   8.868  0.0722  0.3529  0.5582
  818MOL0     H12843   3.995   3.264   8.791 -0.3371 -0.8278 -0.9741
  818MOL0     H12844   3.847   3.192   8.752 -0.5914  0.8366  0.3795
  818MOL0     H12845   3.919   3.155   8.909  2.0810  0.9926  1.2175
  818MOL0     H12846   4.246   3.648   8.814  3.2143  2.1408 -0.6670
  818MOL0     H12847   4.479   3.700   8.835 -0.6338  1.5336  0.2157
  818MOL0     H12848   4.637   3.899   9.059  0.9890  0.5279 -0.2800
  818MOL0     H12849   4.604   3.803   9.211 -2.1655  0.5021 -1.3325
  818MOL0     H12850   4.834   3.727   9.213 -0.7780  1.0642  1.0744
  818MOL0     H12851   4.863   3.815   9.059  1.6930 -0.1387  1.5594
  818MOL0     H12852   4.781   3.936   9.329 -0.8826  0.3794 -1.1062
  818MOL0     H12853   4.798   4.024   9.175 -2.2445  0.4958  2.0135
  818MOL0     H12854   5.044   3.927   9.191  1.2735  1.4350  0.5366
  818MOL0     H12855   4.992   3.850   9.345 -0.9863  0.1559  0.8100
  818MOL0     H12856   5.019   4.153   9.304 -0.9588  2.5116  1.6776
  818MOL0     H12857   5.000   4.061   9.458 -1.6317  2.0913 -0.4060
  818MOL0     H12858   5.238   4.051   9.277  1.8720  1.2217  0.6679
  818MOL0     H12859   5.228   3.989   9.434  2.1175 -0.2423 -2.7768
  818MOL0     H12860   5.323   4.201   9.489 -1.4467  2.4550  2.7739
  818MOL0     H12861   5.158   4.233   9.495 -1.5477 -1.8814 -0.1578
  818MOL0     H12862   5.316   4.403   9.347  1.6019 -0.0976 -0.5301
  818MOL0     H12863   5.186   4.333   9.253 -0.7492 -0.9667  0.8696
  818MOL0     H12864   4.478   3.591   9.244 -0.7026  3.5320  2.2462
  818MOL0     H12865   4.244   3.558   9.245  1.5095  1.5404  0.8319
  818MOL0     H12866   3.862   3.598   9.131  1.6698 -2.9442 -0.2724
  818MOL0     H12867   3.617   3.595   9.125  0.9213 -0.7630 -0.5375
  818MOL0     H12868   2.114   3.423   8.835 -1.6365  0.0306 -2.2942
  818MOL0     H12869   2.026   3.360   9.041 -1.5847  0.8077 -1.8137
  818MOL0     H12870   1.795   3.176   9.302 -1.0172  0.9860  1.9092
  818MOL0     H12871   1.722   3.185   9.524  1.2023  1.8713 -1.0427
  818MOL0     H12872   1.844   2.843   9.796 -1.0188 -0.2539  0.0078
  818MOL0     H12873   1.917   2.970   9.892 -0.6378 -0.9271  0.7755
  818MOL0     H12874   1.714   2.867   9.991  2.3145 -1.3439 -1.6384
  818MOL0     H12875   1.613   2.948   9.870 -0.4710  0.1158  1.3051
  818MOL0     H12876   1.752   3.071  10.102 -3.1335 -0.6169  1.1286
  818MOL0     H12877   1.772   3.167   9.964 -3.0277  1.9499  0.5622
  818MOL0     H12878   1.583   3.237  10.085  0.9237  0.2633 -0.1102
  818MOL0     H12879   1.503   3.082  10.081 -3.0640  1.0105 -3.1861
  818MOL0     H12880   1.379   3.246   9.719  0.8102 -0.1920 -0.2856
  818MOL0     H12881   2.000   2.877   9.644 -2.6501 -4.7263 -0.5812
  818MOL0     H12882   2.175   2.874   9.341 -1.7984 -1.6353 -3.8734
  818MOL0     H12883   2.154   2.815   9.507 -2.3495  3.2530  1.8568
  818MOL0     H12884   2.062   2.738   9.377 -0.2812  0.3689  0.3863
  819MOL0     O12885   0.513   1.277   9.740  0.2950 -0.6140 -0.1092
  819MOL0     C12886   0.503   1.179   9.816  0.0389  1.1021  0.6810
  819MOL0     O12887   0.606   1.098   9.866 -0.8277  0.6022  0.2444
  819MOL0     C12888   0.738   1.127   9.824  0.5100 -0.9738 -0.0000
  819MOL0     C12889   0.819   1.218   9.894  0.2586 -0.5885 -0.2685
  819MOL0     C12890   0.948   1.248   9.844 -0.5038  0.9855  0.0736
  819MOL0     C12891   1.004   1.164   9.745  0.4492 -0.2461  0.2799
  819MOL0     O12892   1.135   1.181   9.698 -0.2036  0.5335 -0.0785
  819MOL0     C12893   1.235   1.150   9.792  0.5034  0.0597  0.0371
  819MOL0     C12894   1.301   1.285   9.859 -0.3829  0.5762  0.3674
  819MOL0     C12895   1.416   1.242   9.947 -0.1440  0.0839 -0.4192
  819MOL0     C12896   1.550   1.223   9.862 -0.4624  0.4902 -0.0378
  819MOL0     C12897   1.654   1.159   9.963 -0.2957 -0.1976  0.6234
  819MOL0     C12898   1.772   1.090   9.892 -0.2199 -0.4006  0.6133
  819MOL0     C12899   1.855   0.998   9.992  0.2382 -0.4274  0.0451
  819MOL0     C12900   1.994   0.956   9.930 -0.0315 -0.6603  0.0465
  819MOL0     N12901   2.072   0.866  10.018  0.3368  0.3682  0.2844
  819MOL0     C12902   2.174   0.895  10.091 -0.8408 -0.1000  0.8641
  819MOL0     C12903   2.221   0.782  10.145 -0.0639 -0.1905 -0.8666
  819MOL0     C12904   2.341   0.749  10.226 -0.5649  0.2815  0.6689
  819MOL0     C12905   2.469   0.712  10.145 -0.5114 -0.2465  0.4026
  819MOL0     C12906   2.538   0.834  10.093 -0.1770  0.1187 -0.0556
  819MOL0     C12907   2.591   0.939  10.188  0.4708 -0.1864 -0.0766
  819MOL0     O12908   2.683   0.901  10.288 -0.6422  0.1708  0.1682
  819MOL0     C12909   2.803   0.833  10.251  0.4104  0.1003 -0.6424
  819MOL0     C12910   2.867   0.760  10.349 -0.5528 -0.2925  0.8475
  819MOL0     C12911   2.984   0.680  10.323 -0.7291 -0.8429 -0.0265
  819MOL0     C12912   3.012   0.578  10.428  0.4241  0.6812 -1.4332
  819MOL0     C12913   3.058   0.695  10.206 -1.1088  0.1048  0.4093
  819MOL0     C12914   3.196   0.632  10.165  0.5114 -0.2775 -0.6923
  819MOL0     O12915   3.247   0.642  10.034  0.0926 -0.2848 -0.8405
  819MOL0     C12916   3.379   0.612  10.021 -0.7965  0.4013 -0.5381
  819MOL0     C12917   3.462   0.720  10.001 -0.2745 -0.6384 -0.1529
  819MOL0     C12918   3.600   0.700   9.986 -1.1139  0.5350 -0.2577
  819MOL0     C12919   3.650   0.569   9.982  0.4129  0.4861  0.3421
  819MOL0     O12920   3.780   0.557   9.950  0.4188 -0.6059  0.0259
  819MOL0     C12921   3.838   0.437   9.980  0.4860 -0.3451 -0.5659
  819MOL0     C12922   3.987   0.467   9.984  1.1612  0.3912  0.3848
  819MOL0     C12923   4.042   0.568  10.088  0.2378 -0.0265 -0.0604
  819MOL0     C12924   4.188   0.613  10.052  0.4116 -0.2016 -0.7492
  819MOL0     C12925   4.303   0.506  10.073 -0.6262 -0.5624  0.2126
  819MOL0     C12926   4.443   0.567  10.052 -0.4784 -0.4202 -0.2628
  819MOL0     C12927   4.559   0.464  10.037  0.8211  0.0004 -0.3250
  819MOL0     C12928   4.534   0.347  10.127 -0.0123 -0.2049 -0.7610
  819MOL0    Cl12929   4.684   0.247  10.150  0.2956 -0.0268  0.1592
  819MOL0     C12930   3.563   0.459   9.998 -0.6541 -0.0220 -0.1133
  819MOL0     C12931   3.427   0.488  10.019 -0.8915  0.0829 -0.2596
  819MOL0     O12932   3.250   0.577  10.261 -0.1096  0.6605 -0.1086
  819MOL0     C12933   3.005   0.785  10.113 -0.4379  0.4427 -0.4578
  819MOL0     C12934   2.868   0.834  10.127  0.1512 -0.2503 -0.0511
  819MOL0     N12935   2.144   0.680  10.095 -0.3700  0.0936  0.2563
  819MOL0     N12936   2.047   0.730  10.019 -0.3407 -0.1083 -0.1138
  819MOL0     C12937   0.925   1.093   9.668  0.1927 -0.4438  1.2818
  819MOL0     C12938   0.790   1.072   9.706 -0.6009 -0.1582 -0.6585
  819MOL0     C12939   0.373   1.145   9.876  1.0199  0.7263 -0.3807
  819MOL0     C12940   0.371   1.064   9.994 -0.1306 -0.1987  0.5120
  819MOL0     C12941   0.259   1.028  10.065 -0.0803 -0.1559  0.1707
  819MOL0     C12942   0.137   1.088  10.033  0.6211 -0.3172  0.0852
  819MOL0     O12943   0.036   1.072  10.125 -0.0279  0.4765  0.0660
  819MOL0     C12944   0.047   1.148  10.245  0.1068  0.2566  0.9599
  819MOL0     C12945  -0.094   1.170  10.293  0.3455 -0.6456 -0.6705
  819MOL0     C12946  -0.172   1.272  10.207 -0.1509  1.0227  0.0252
  819MOL0     C12947  -0.253   1.365  10.302  0.4992 -0.6969 -0.5320
  819MOL0     C12948  -0.175   1.455  10.385 -0.2020  0.2989  0.2073
  819MOL0     C12949  -0.124   1.524  10.464 -0.4243  0.6680 -1.4343
  819MOL0     C12950   0.123   1.172   9.921 -0.1540 -0.1447 -0.4249
  819MOL0     C12951   0.240   1.197   9.835 -0.1761  1.3384 -0.1737
  819MOL0     C12952   0.218   1.293   9.725 -0.0451  0.5768 -0.3683
  819MOL0     H12953   0.779   1.278   9.975  0.9088 -1.0798  0.4337
  819MOL0     H12954   1.011   1.322   9.892 -0.4439 -0.4803  2.3663
  819MOL0     H12955   1.316   1.095   9.743 -1.0246 -1.3550 -1.0233
  819MOL0     H12956   1.200   1.073   9.860 -0.7390  0.4429 -0.1451
  819MOL0     H12957   1.330   1.364   9.790  0.2507  0.4052  0.4342
  819MOL0     H12958   1.218   1.319   9.921 -2.3569 -1.3346 -1.0375
  819MOL0     H12959   1.437   1.323  10.017  1.0487 -0.4370 -0.1542
  819MOL0     H12960   1.394   1.161  10.016 -1.5051 -0.2426 -1.1982
  819MOL0     H12961   1.537   1.169   9.768  0.3210  2.6850 -1.4730
  819MOL0     H12962   1.590   1.316   9.822 -0.4819  0.2686 -0.5766
  819MOL0     H12963   1.596   1.096  10.031 -1.6151 -0.3082 -0.5776
  819MOL0     H12964   1.693   1.234  10.033 -0.3328 -1.2441  1.8083
  819MOL0     H12965   1.730   1.031   9.810 -0.9213 -0.0267  0.6941
  819MOL0     H12966   1.837   1.165   9.847  1.0468 -1.4372  0.6493
  819MOL0     H12967   1.788   0.915  10.015 -0.5876 -0.3775 -1.9495
  819MOL0     H12968   1.859   1.042  10.092 -1.9386 -1.3477  0.6165
  819MOL0     H12969   1.970   0.902   9.839 -0.3270 -0.7903  0.1993
  819MOL0     H12970   2.062   1.039   9.908  0.4476 -0.5147  1.8707
  819MOL0     H12971   2.236   0.984  10.094 -1.5986  0.5397 -0.9849
  819MOL0     H12972   2.305   0.661  10.280  0.6516 -0.7516 -0.1381
  819MOL0     H12973   2.360   0.826  10.301  0.1189 -0.7143  1.5530
  819MOL0     H12974   2.536   0.654  10.210  2.3263  0.7064 -1.4466
  819MOL0     H12975   2.439   0.647  10.062 -1.9435  2.5359 -1.4423
  819MOL0     H12976   2.623   0.798  10.034  0.1364  1.1409 -0.2443
  819MOL0     H12977   2.477   0.884  10.018 -1.4552 -1.2787 -0.0054
  819MOL0     H12978   2.635   1.020  10.128  0.1868  0.5021  0.6270
  819MOL0     H12979   2.500   0.979  10.235  0.4367 -0.0921 -0.2196
  819MOL0     H12980   2.819   0.752  10.446  1.4075  0.9785  1.9879
  819MOL0     H12981   2.942   0.606  10.508  1.8481  1.4926 -0.4239
  819MOL0     H12982   3.114   0.577  10.469 -0.9975 -0.8407  2.6033
  819MOL0     H12983   2.987   0.478  10.393 -1.6686  1.0579 -1.1213
  819MOL0     H12984   3.416   0.819  10.004  3.2292  1.2284 -1.8053
  819MOL0     H12985   3.664   0.786   9.969 -1.7730  1.2999  1.0050
  819MOL0     H12986   3.813   0.389  10.075  0.5587 -1.1311 -0.9396
  819MOL0     H12987   3.804   0.369   9.902  0.3144  1.0105 -1.7181
  819MOL0     H12988   4.050   0.378   9.985 -0.4352 -0.7845  1.6094
  819MOL0     H12989   4.002   0.515   9.887 -0.6807  2.8451  1.2017
  819MOL0     H12990   4.045   0.515  10.184 -1.3001  1.9282  1.1408
  819MOL0     H12991   3.975   0.653  10.100 -0.1951 -0.6215  2.3586
  819MOL0     H12992   4.198   0.703  10.113 -3.7533 -0.0377 -0.0097
  819MOL0     H12993   4.197   0.656   9.952 -0.9517 -2.0969 -1.7625
  819MOL0     H12994   4.303   0.476  10.178  0.9028 -1.8462 -0.1120
  819MOL0     H12995   4.294   0.413  10.016  2.2003 -0.0102 -1.3350
  819MOL0     H12996   4.459   0.645  10.127  0.5758 -0.0790 -0.8249
  819MOL0     H12997   4.449   0.617   9.954  0.9963 -0.9925 -0.4911
  819MOL0     H12998   4.652   0.513  10.064  0.5652  0.2873  0.0445
  819MOL0     H12999   4.579   0.426   9.936 -2.8308 -1.5059 -0.6564
  819MOL0     H13000   4.445   0.287  10.104 -0.8885  0.2963  1.0792
  819MOL0     H13001   4.513   0.385  10.228 -1.0844  0.4084 -1.1984
  819MOL0     H13002   3.586   0.352   9.994  0.2513  0.0395  1.8413
  819MOL0     H13003   3.358   0.409  10.045 -1.9847  0.5581 -1.6014
  819MOL0     H13004   3.063   0.806  10.024  0.7487 -1.9854 -0.3421
  819MOL0     H13005   2.816   0.885  10.046 -1.8224  0.8290  1.7919
  819MOL0     H13006   0.965   1.040   9.582 -2.0337 -1.5112  0.8348
  819MOL0     H13007   0.721   1.015   9.644 -0.9126  0.2343 -0.6725
  819MOL0     H13008   0.461   1.042  10.049 -1.3870  0.0070  2.7970
  819MOL0     H13009   0.276   0.979  10.160  4.9399  0.1744 -0.2765
  819MOL0     H13010   0.097   1.084  10.318  1.9385  0.1722 -0.2983
  819MOL0     H13011   0.111   1.237  10.240  0.8969 -0.2917  1.1073
  819MOL0     H13012  -0.073   1.202  10.396  0.9167  2.4811 -1.6243
  819MOL0     H13013  -0.148   1.076  10.304  0.1308 -0.4439  0.0839
  819MOL0     H13014  -0.094   1.327  10.152  3.6914 -3.8271 -0.1074
  819MOL0     H13015  -0.228   1.208  10.137 -0.0505 -0.8234  1.5523
  819MOL0     H13016  -0.314   1.293  10.358  2.6865 -2.8568 -0.7417
  819MOL0     H13017  -0.323   1.415  10.235  2.2092  2.8739  0.1348
  819MOL0     H13018  -0.069   1.579  10.538  0.9821 -1.8580 -0.4782
  819MOL0     H13019   0.027   1.219   9.908 -0.6259  0.2815  3.3790
  819MOL0     H13020   0.116   1.293   9.687 -0.2341 -1.0153  0.0701
  819MOL0     H13021   0.257   1.392   9.751  0.4896  0.5205 -0.9421
  819MOL0     H13022   0.276   1.261   9.638  0.8922  3.4393 -0.9143
  820MOL0     O13023   0.044   1.868   6.794 -0.0213  0.5289 -0.2915
  820MOL0     C13024  -0.039   1.791   6.844 -0.7159 -0.5792  0.3679
  820MOL0     O13025  -0.014   1.656   6.844  0.2191 -0.2299  0.0111
  820MOL0     C13026   0.111   1.608   6.824 -0.8320  0.5333  0.8410
  820MOL0     C13027   0.119   1.500   6.742 -0.2361  0.0882  0.6601
  820MOL0     C13028   0.236   1.435   6.718 -0.6168  0.4959 -0.5633
  820MOL0     C13029   0.350   1.471   6.781  0.1215  0.3340 -0.3519
  820MOL0     O13030   0.454   1.389   6.743 -0.4146 -0.3291 -0.2375
  820MOL0     C13031   0.588   1.442   6.727 -0.0294  0.5235  0.1729
  820MOL0     C13032   0.689   1.328   6.739 -0.0684  0.1445 -0.3942
  820MOL0     C13033   0.820   1.354   6.670 -0.3970  0.2718  0.7633
  820MOL0     C13034   0.939   1.272   6.730 -0.3666  0.5640 -0.1928
  820MOL0     C13035   1.072   1.309   6.662 -0.7514  0.5638 -0.1952
  820MOL0     C13036   1.097   1.238   6.523 -0.0604 -0.5503 -0.3371
  820MOL0     C13037   1.242   1.246   6.487 -0.0987 -0.5385  0.2003
  820MOL0     C13038   1.261   1.238   6.342 -0.6148 -0.4355  0.3532
  820MOL0     N13039   1.238   1.102   6.290 -0.6357  0.3111 -0.1518
  820MOL0     C13040   1.316   1.000   6.300 -0.1958 -0.1303  0.1540
  820MOL0     C13041   1.264   0.914   6.211  0.0971  1.4469  0.7602
  820MOL0     C13042   1.329   0.780   6.166  0.8106  0.6458  0.5973
  820MOL0     C13043   1.476   0.812   6.117  0.0787 -0.2107  0.5411
  820MOL0     C13044   1.490   0.917   6.001  0.5579 -0.2978 -0.1352
  820MOL0     C13045   1.630   0.958   5.962  0.4458  0.3469  0.3563
  820MOL0     O13046   1.706   0.843   5.918  0.2284  0.0142 -1.0407
  820MOL0     C13047   1.842   0.851   5.925 -0.5741 -0.8580  0.2673
  820MOL0     C13048   1.913   0.736   5.959 -0.6623 -0.8451  0.3457
  820MOL0     C13049   2.055   0.743   5.974  0.4656 -0.9085  1.1497
  820MOL0     C13050   2.120   0.618   5.993 -0.3407  0.8630 -0.6355
  820MOL0     C13051   2.125   0.869   5.971  0.2499  0.2026 -0.5879
  820MOL0     C13052   2.269   0.894   5.993 -0.1629 -0.0330  0.1233
  820MOL0     O13053   2.305   1.018   6.027 -0.7397 -0.5597 -0.3991
  820MOL0     C13054   2.429   1.058   6.000  0.0381 -1.2149 -0.4932
  820MOL0     C13055   2.541   0.985   6.032 -0.0392 -0.6879 -0.0818
  820MOL0     C13056   2.670   1.022   5.986 -0.1688  0.1170 -0.2637
  820MOL0     C13057   2.689   1.140   5.919 -0.0962  0.6281 -0.0316
  820MOL0     O13058   2.810   1.182   5.873  0.2827 -0.5493  0.1122
  820MOL0     C13059   2.862   1.293   5.943 -0.4136 -0.2157  0.3890
  820MOL0     C13060   2.967   1.363   5.853 -1.0433 -0.6255  0.7850
  820MOL0     C13061   3.054   1.458   5.930  0.9219  0.8474  0.3772
  820MOL0     C13062   3.133   1.552   5.832 -0.3527  0.4654 -0.0139
  820MOL0     C13063   3.253   1.628   5.889 -0.0768 -0.3637 -0.2577
  820MOL0     C13064   3.325   1.716   5.781  0.4464  0.1645 -1.0192
  820MOL0     C13065   3.464   1.736   5.830  0.4563  1.0415 -0.0003
  820MOL0     C13066   3.508   1.875   5.794 -0.4615 -0.7734 -0.0105
  820MOL0    Cl13067   3.417   1.984   5.900 -0.3242 -0.0341 -0.2946
  820MOL0     C13068   2.572   1.223   5.905 -0.9897  0.1487 -0.5721
  820MOL0     C13069   2.448   1.181   5.949 -0.0747  1.8579 -0.7858
  820MOL0     O13070   2.344   0.801   5.959  0.3355  0.1235  0.7380
  820MOL0     C13071   2.057   0.981   5.933  0.2520  0.2153 -0.2401
  820MOL0     C13072   1.911   0.977   5.926 -0.8117 -0.4357  0.3487
  820MOL0     N13073   1.161   0.971   6.141 -0.0474 -0.7218 -0.1569
  820MOL0     N13074   1.143   1.083   6.193 -0.0756  0.1866 -0.4718
  820MOL0     C13075   0.351   1.577   6.867 -0.8362  0.7580 -0.3307
  820MOL0     C13076   0.230   1.652   6.886 -0.0910  1.4177  0.2931
  820MOL0     C13077  -0.169   1.857   6.886  0.5213  0.2588  0.8028
  820MOL0     C13078  -0.172   1.990   6.939  0.0685  0.4337  0.1967
  820MOL0     C13079  -0.288   2.041   7.007  0.5479  0.0091 -0.0127
  820MOL0     C13080  -0.412   1.960   7.007 -0.1647 -0.1136 -0.0003
  820MOL0     O13081  -0.534   2.001   7.050 -1.0134  0.2027 -0.2419
  820MOL0     C13082  -0.552   2.146   7.067  0.7151 -0.2369  0.6682
  820MOL0     C13083  -0.692   2.165   7.128 -0.0922  0.6553  0.9488
  820MOL0     C13084  -0.796   2.142   7.016 -0.3854  0.6848 -0.6418
  820MOL0     C13085  -0.840   1.998   6.991 -0.2986 -0.0607  0.3429
  820MOL0     C13086  -0.947   1.937   7.062  0.1931 -0.4029 -0.8982
  820MOL0     C13087  -1.054   1.901   7.116 -0.0638 -0.3406  0.3908
  820MOL0     C13088  -0.407   1.835   6.939 -0.5196  0.4728  0.9056
  820MOL0     C13089  -0.287   1.783   6.883 -0.1959  0.2518  0.5992
  820MOL0     C13090  -0.294   1.649   6.815 -0.7391 -0.2501  0.3809
  820MOL0     H13091   0.031   1.451   6.700 -0.1608  0.5787 -0.0846
  820MOL0     H13092   0.233   1.346   6.655 -0.3434 -2.3536  3.1016
  820MOL0     H13093   0.620   1.516   6.800 -1.3159  1.2126  0.0611
  820MOL0     H13094   0.592   1.493   6.631  3.6099 -0.3915 -0.2903
  820MOL0     H13095   0.709   1.320   6.847  1.4641 -0.7765 -0.7059
  820MOL0     H13096   0.643   1.232   6.715  2.4475 -1.2634 -0.0614
  820MOL0     H13097   0.806   1.342   6.562 -2.4290 -0.0895  1.0383
  820MOL0     H13098   0.837   1.460   6.691 -3.1697  0.6777  1.2736
  820MOL0     H13099   0.931   1.308   6.833 -1.3232 -1.7966  0.6287
  820MOL0     H13100   0.914   1.165   6.725 -1.6026  0.8844 -1.6127
  820MOL0     H13101   1.158   1.287   6.725  0.7956 -3.0465 -3.1999
  820MOL0     H13102   1.075   1.418   6.654 -0.6477  0.5616 -0.1796
  820MOL0     H13103   1.069   1.134   6.538 -1.7434  0.2235  2.9263
  820MOL0     H13104   1.041   1.287   6.443 -1.3389  0.5489  1.1492
  820MOL0     H13105   1.294   1.165   6.540  0.7103  0.1944  0.5443
  820MOL0     H13106   1.277   1.346   6.514 -2.2086  0.7597 -1.5744
  820MOL0     H13107   1.197   1.304   6.283  2.4192 -1.9382 -5.3971
  820MOL0     H13108   1.367   1.260   6.326  0.2405  0.2577  5.3456
  820MOL0     H13109   1.405   0.992   6.362  0.3981  3.2422 -0.0956
  820MOL0     H13110   1.267   0.736   6.087 -1.7964 -0.5910  3.1156
  820MOL0     H13111   1.319   0.700   6.241 -4.0494  0.2319 -0.1617
  820MOL0     H13112   1.529   0.851   6.204  1.7864  1.9271 -1.3485
  820MOL0     H13113   1.533   0.724   6.088 -0.1226  0.2097 -1.2327
  820MOL0     H13114   1.443   0.879   5.909  0.4360 -0.7381  0.1048
  820MOL0     H13115   1.445   1.011   6.035  1.0214  0.5599 -1.8047
  820MOL0     H13116   1.637   1.042   5.892 -0.7794  1.1308  1.1504
  820MOL0     H13117   1.678   1.004   6.049  1.1233 -2.4608  1.5751
  820MOL0     H13118   1.851   0.647   5.959 -0.3867 -1.0584  1.5525
  820MOL0     H13119   2.211   0.611   5.934  1.2565 -0.5931  1.8144
  820MOL0     H13120   2.055   0.536   5.961 -1.4699  1.7639 -0.7287
  820MOL0     H13121   2.140   0.596   6.099 -0.4639 -2.0497 -1.1340
  820MOL0     H13122   2.539   0.890   6.084  1.2019 -1.7663 -1.9047
  820MOL0     H13123   2.758   0.967   6.017  0.2780  1.8411  1.7734
  820MOL0     H13124   2.788   1.367   5.976  0.2942  0.2146  1.0326
  820MOL0     H13125   2.925   1.253   6.023  3.0206  1.4582 -1.2588
  820MOL0     H13126   3.039   1.290   5.814  1.0046 -0.2413  3.5447
  820MOL0     H13127   2.916   1.396   5.762 -1.0390 -2.9369 -0.1420
  820MOL0     H13128   3.124   1.397   5.988  2.7283  1.8547 -0.6750
  820MOL0     H13129   2.995   1.519   5.999  0.5987 -0.4380  1.2802
  820MOL0     H13130   3.065   1.626   5.788  0.2871  0.1753 -1.5475
  820MOL0     H13131   3.179   1.503   5.746  0.5813  1.8123 -0.3124
  820MOL0     H13132   3.204   1.693   5.962  1.0919  0.1793  0.0761
  820MOL0     H13133   3.321   1.564   5.945 -0.7379 -0.0983  0.8871
  820MOL0     H13134   3.263   1.802   5.755  1.5794  0.8952 -1.3543
  820MOL0     H13135   3.341   1.651   5.694  0.2424 -2.0047  0.4711
  820MOL0     H13136   3.531   1.662   5.787 -1.1367 -0.0256 -0.7410
  820MOL0     H13137   3.463   1.719   5.939 -2.0108  0.4132 -0.0516
  820MOL0     H13138   3.494   1.903   5.689  1.1101 -1.6761 -0.4853
  820MOL0     H13139   3.615   1.884   5.813 -0.0176  1.8671 -2.9908
  820MOL0     H13140   2.586   1.326   5.874  0.1948  0.2972  0.3641
  820MOL0     H13141   2.366   1.249   5.929  0.2519  2.3299 -0.5487
  820MOL0     H13142   2.111   1.075   5.940 -1.8354  1.4531  0.1691
  820MOL0     H13143   1.858   1.071   5.914  1.0268  0.7624  1.1765
  820MOL0     H13144   0.442   1.599   6.921 -0.5146 -1.1698 -0.0182
  820MOL0     H13145   0.231   1.737   6.952  1.0554  3.3035 -1.9940
  820MOL0     H13146  -0.088   2.058   6.951 -0.2458  0.7226  0.7948
  820MOL0     H13147  -0.287   2.134   7.063 -2.1163  0.5391 -0.7077
  820MOL0     H13148  -0.478   2.176   7.142  2.2991 -1.6807 -0.2640
  820MOL0     H13149  -0.545   2.201   6.973 -2.6254 -3.1267 -1.5338
  820MOL0     H13150  -0.698   2.272   7.151  1.6375  1.1131 -0.4760
  820MOL0     H13151  -0.698   2.104   7.219 -1.5277 -1.7005 -0.6122
  820MOL0     H13152  -0.881   2.203   7.047 -0.4544  0.0813  0.4203
  820MOL0     H13153  -0.763   2.172   6.916  0.4644  0.9960 -0.2839
  820MOL0     H13154  -0.754   1.937   7.018 -0.2947 -0.9510 -1.5618
  820MOL0     H13155  -0.866   1.985   6.886 -1.5703 -1.4239  0.7818
  820MOL0     H13156  -1.146   1.862   7.154 -0.6860  1.3655  0.7044
  820MOL0     H13157  -0.503   1.791   6.915 -0.5715 -0.2819  2.3700
  820MOL0     H13158  -0.269   1.569   6.886 -0.7821  1.5703  2.5560
  820MOL0     H13159  -0.399   1.632   6.790 -0.5377  0.3456 -0.9265
  820MOL0     H13160  -0.229   1.652   6.727 -1.7120  2.1748 -0.3244
  821MOL0     O13161   0.732   9.412   8.623  0.2171 -0.1772 -0.1287
  821MOL0     C13162   0.805   9.510   8.653 -0.7244 -0.0955 -0.0232
  821MOL0     O13163   0.761   9.630   8.670  0.2737 -0.0873 -0.6621
  821MOL0     C13164   0.628   9.658   8.669 -1.2808 -0.3951  0.2310
  821MOL0     C13165   0.535   9.615   8.579 -0.2296 -0.3465  0.4351
  821MOL0     C13166   0.400   9.671   8.586 -0.0351 -0.0771 -0.2953
  821MOL0     C13167   0.360   9.770   8.680  0.5713 -0.2037  0.2611
  821MOL0     O13168   0.222   9.805   8.678  0.4556  1.2545 -0.5045
  821MOL0     C13169   0.180   9.894   8.778 -0.2866 -0.0593  0.0832
  821MOL0     C13170   0.033   9.938   8.747  1.1365  0.0352 -0.0459
  821MOL0     C13171  -0.069   9.817   8.744  0.3917 -0.6348 -0.8916
  821MOL0     C13172  -0.214   9.869   8.744 -0.3134  0.2710  0.4705
  821MOL0     C13173  -0.239   9.902   8.597  0.1068 -0.0065  0.1462
  821MOL0     C13174  -0.387   9.944   8.574  0.3138  0.5637 -0.3704
  821MOL0     C13175  -0.414   9.983   8.424  0.0471  0.7382 -0.3691
  821MOL0     C13176  -0.514  10.093   8.416 -0.3476 -0.1291 -0.1737
  821MOL0     N13177  -0.446  10.226   8.445 -0.4205  0.7629  0.1022
  821MOL0     C13178  -0.353  10.281   8.363 -0.4767  0.8552 -0.4191
  821MOL0     C13179  -0.344  10.412   8.406 -0.6983 -0.2792 -0.7944
  821MOL0     C13180  -0.280  10.518   8.328 -0.2861  0.1629 -0.4071
  821MOL0     C13181  -0.371  10.548   8.217  0.2195  0.1232 -0.0377
  821MOL0     C13182  -0.320  10.654   8.115  0.1607  0.5733  0.2491
  821MOL0     C13183  -0.174  10.654   8.089 -0.8682 -0.8757 -0.2519
  821MOL0     O13184  -0.133  10.529   8.028 -0.0201  0.9915 -0.0970
  821MOL0     C13185  -0.008  10.520   7.983 -0.2757  0.2447  0.4678
  821MOL0     C13186   0.044  10.403   7.948  0.8396 -0.2165 -0.4142
  821MOL0     C13187   0.181  10.394   7.891 -1.0055 -0.5825  0.6308
  821MOL0     C13188   0.224  10.260   7.845  0.6522 -0.0077 -0.4231
  821MOL0     C13189   0.263  10.513   7.886 -0.4216 -0.3099 -0.6890
  821MOL0     C13190   0.409  10.520   7.853  0.1502  0.7996  0.7996
  821MOL0     O13191   0.476  10.629   7.893  0.2502 -0.3784 -0.0989
  821MOL0     C13192   0.604  10.647   7.860  0.0982  0.2971  0.2082
  821MOL0     C13193   0.639  10.658   7.723  0.2986 -0.4149  0.1806
  821MOL0     C13194   0.764  10.688   7.676 -0.2544 -0.3818 -0.0569
  821MOL0     C13195   0.864  10.715   7.770 -0.7782 -0.3171  0.4733
  821MOL0     O13196   0.985  10.766   7.714 -0.2941 -0.0132  0.2078
  821MOL0     C13197   1.097  10.722   7.793 -0.0273  0.1117  0.8419
  821MOL0     C13198   1.214  10.720   7.703  0.3674 -0.3819  0.5978
  821MOL0     C13199   1.212  10.594   7.608 -1.0506  1.1813 -0.0889
  821MOL0     C13200   1.345  10.568   7.557 -0.5621  0.2484 -1.3002
  821MOL0     C13201   1.351  10.478   7.431  0.0578 -0.3339  0.0623
  821MOL0     C13202   1.486  10.426   7.395 -0.4439  0.6218  0.5733
  821MOL0     C13203   1.479  10.332   7.280 -0.5997  0.3856 -0.5373
  821MOL0     C13204   1.620  10.257   7.265  0.5136 -0.2411 -0.5931
  821MOL0    Cl13205   1.628  10.114   7.378  0.1342  0.0827 -0.0690
  821MOL0     C13206   0.838  10.712   7.909 -1.0042 -0.3189  0.9073
  821MOL0     C13207   0.708  10.675   7.950 -0.3262 -0.6497  0.5931
  821MOL0     O13208   0.450  10.430   7.781 -0.5716  0.0325  0.4423
  821MOL0     C13209   0.215  10.627   7.949  0.2643 -0.2577  0.1792
  821MOL0     C13210   0.079  10.630   7.994 -0.0808  0.2202  0.0990
  821MOL0     N13211  -0.433  10.427   8.514 -0.4294 -0.7276 -0.4328
  821MOL0     N13212  -0.489  10.308   8.538 -0.9359  0.2188 -0.2330
  821MOL0     C13213   0.463   9.816   8.765  0.2590 -0.1264  0.3065
  821MOL0     C13214   0.595   9.770   8.753  0.5601  0.0278 -0.4391
  821MOL0     C13215   0.953   9.506   8.625  0.4237 -0.9796  0.2757
  821MOL0     C13216   1.012   9.619   8.566 -0.9325  0.3976  0.0215
  821MOL0     C13217   1.144   9.623   8.530 -0.7071 -0.1309 -0.0143
  821MOL0     C13218   1.234   9.512   8.556  0.3481 -0.2453 -0.1742
  821MOL0     O13219   1.360   9.554   8.520  0.7805 -0.0450 -0.3728
  821MOL0     C13220   1.469   9.472   8.570  0.8310  0.0491 -0.6125
  821MOL0     C13221   1.509   9.503   8.718 -0.3408  0.8052  0.2257
  821MOL0     C13222   1.635   9.430   8.753  0.5992  0.3102  0.2912
  821MOL0     C13223   1.671   9.451   8.899  0.0931 -0.6720  0.6105
  821MOL0     C13224   1.789   9.364   8.908 -0.1228  0.0233  0.6563
  821MOL0     C13225   1.896   9.314   8.944  0.3206 -0.0267  0.5492
  821MOL0     C13226   1.179   9.400   8.612  0.2526 -0.4315  0.0058
  821MOL0     C13227   1.039   9.399   8.654 -0.2604  0.6806 -0.6618
  821MOL0     C13228   0.999   9.279   8.732 -0.3462  0.5421  0.3142
  821MOL0     H13229   0.568   9.542   8.506 -0.6468 -0.1034 -0.0045
  821MOL0     H13230   0.324   9.628   8.522 -0.9702  1.7777 -0.5057
  821MOL0     H13231   0.244   9.982   8.788  0.5405 -0.7317  0.8111
  821MOL0     H13232   0.173   9.850   8.878  0.3982  1.4208  0.8147
  821MOL0     H13233  -0.004   9.999   8.829 -0.8955 -2.5418  1.1238
  821MOL0     H13234   0.036   9.989   8.650  1.2778 -1.4864 -0.8924
  821MOL0     H13235  -0.043   9.739   8.672 -0.7458 -1.1473 -0.7657
  821MOL0     H13236  -0.068   9.763   8.839  0.4677 -0.4435 -0.7846
  821MOL0     H13237  -0.287   9.791   8.768  0.2504 -0.5841 -0.4868
  821MOL0     H13238  -0.235   9.951   8.813 -2.6028 -2.7597  3.8000
  821MOL0     H13239  -0.223   9.821   8.526 -1.6191 -1.8149  1.7056
  821MOL0     H13240  -0.174   9.987   8.573 -1.3362  0.6194 -1.7600
  821MOL0     H13241  -0.443   9.853   8.600  1.6093 -0.3779 -0.7584
  821MOL0     H13242  -0.408  10.025   8.645  2.9389  0.0851  1.1084
  821MOL0     H13243  -0.464   9.892   8.390  0.5497 -0.9075  2.8561
  821MOL0     H13244  -0.320  10.001   8.371  1.1338 -1.9756  0.4669
  821MOL0     H13245  -0.556  10.111   8.317 -2.3069  0.5149  0.7178
  821MOL0     H13246  -0.600  10.069   8.479 -0.5380 -2.4650 -1.2483
  821MOL0     H13247  -0.311  10.220   8.284  2.6492 -0.1983  1.8659
  821MOL0     H13248  -0.179  10.490   8.297  1.1467  3.4953  0.7790
  821MOL0     H13249  -0.277  10.610   8.388  1.7301  0.7043 -1.2598
  821MOL0     H13250  -0.399  10.461   8.157 -2.1598  1.3785 -0.8585
  821MOL0     H13251  -0.466  10.578   8.261  0.5985 -3.1138  3.5153
  821MOL0     H13252  -0.369  10.637   8.019 -0.0383 -1.5451  0.6790
  821MOL0     H13253  -0.348  10.756   8.143  0.1706  0.2678  1.4722
  821MOL0     H13254  -0.160  10.729   8.010 -1.1972 -0.8922 -0.3299
  821MOL0     H13255  -0.109  10.676   8.174 -0.9792 -1.3403 -0.0478
  821MOL0     H13256  -0.014  10.312   7.947 -0.2645  0.3967 -3.7947
  821MOL0     H13257   0.135  10.202   7.873  1.2315 -0.6896  0.0180
  821MOL0     H13258   0.302  10.214   7.906 -2.0076 -2.7765  1.1669
  821MOL0     H13259   0.236  10.252   7.737 -2.0581  0.5923 -0.8567
  821MOL0     H13260   0.564  10.643   7.646  1.1150  1.1528 -0.9688
  821MOL0     H13261   0.784  10.697   7.570 -3.2137 -0.0990 -0.6523
  821MOL0     H13262   1.117  10.782   7.882  0.2389  1.2556  0.0384
  821MOL0     H13263   1.073  10.623   7.831 -1.1917  0.5134  1.1733
  821MOL0     H13264   1.217  10.815   7.649 -0.4794 -0.6163  0.1123
  821MOL0     H13265   1.298  10.718   7.772 -0.8372  2.2249  2.2685
  821MOL0     H13266   1.149  10.621   7.522  0.0532  1.5780 -0.7923
  821MOL0     H13267   1.169  10.510   7.663 -0.0032  1.9129  1.9543
  821MOL0     H13268   1.396  10.506   7.631  2.3592  2.1235 -1.6173
  821MOL0     H13269   1.401  10.660   7.542 -1.1491  0.6574 -1.0258
  821MOL0     H13270   1.280  10.394   7.433 -0.1658 -0.2419 -2.2107
  821MOL0     H13271   1.323  10.548   7.352 -1.1798 -1.5030 -0.5693
  821MOL0     H13272   1.528  10.376   7.482  1.4300  1.3549  0.1323
  821MOL0     H13273   1.550  10.511   7.369  0.3674  0.6713  2.6083
  821MOL0     H13274   1.469  10.385   7.185  1.0957 -1.7555 -2.0330
  821MOL0     H13275   1.397  10.263   7.298 -1.2713  1.2583 -0.2003
  821MOL0     H13276   1.701  10.327   7.285  0.7335 -1.5970  4.8117
  821MOL0     H13277   1.631  10.236   7.158  2.2254 -0.1814 -0.4564
  821MOL0     H13278   0.918  10.735   7.979  1.8050  5.4609 -3.3707
  821MOL0     H13279   0.693  10.675   8.057  0.0563  2.7893  0.7470
  821MOL0     H13280   0.274  10.715   7.972 -3.1063  1.7282  1.9826
  821MOL0     H13281   0.046  10.727   8.030  0.1433  1.7692 -3.3872
  821MOL0     H13282   0.443   9.890   8.842 -1.1820  0.0350 -0.1913
  821MOL0     H13283   0.678   9.822   8.798 -1.1997  6.9717 -3.8862
  821MOL0     H13284   0.952   9.708   8.550 -0.6024  0.9045  1.4434
  821MOL0     H13285   1.172   9.719   8.489 -1.4448  0.4942  0.8812
  821MOL0     H13286   1.440   9.367   8.558 -0.0393 -0.0210  1.5753
  821MOL0     H13287   1.559   9.483   8.509  0.4171 -2.0130 -1.6819
  821MOL0     H13288   1.436   9.459   8.787 -0.4829 -1.6638 -1.3922
  821MOL0     H13289   1.524   9.612   8.725  0.5268  0.9764 -2.9493
  821MOL0     H13290   1.628   9.325   8.721 -0.6937  0.6099 -0.4905
  821MOL0     H13291   1.725   9.465   8.701  0.4239 -1.1335 -1.0593
  821MOL0     H13292   1.595   9.414   8.969 -0.3707 -0.8396  0.0315
  821MOL0     H13293   1.692   9.557   8.912 -1.6230 -0.2693  0.4118
  821MOL0     H13294   1.981   9.253   8.967  1.4856  1.1426 -0.4511
  821MOL0     H13295   1.232   9.307   8.630 -2.2575 -2.3524 -1.7499
  821MOL0     H13296   0.953   9.209   8.662 -0.8875  2.7012 -1.6514
  821MOL0     H13297   1.089   9.240   8.781 -0.6639  0.3647  0.7550
  821MOL0     H13298   0.927   9.295   8.812 -2.3205 -3.9691 -0.2682
  822MOL0     O13299   8.040   8.795  10.638 -0.5325 -0.6534 -0.3343
  822MOL0     C13300   7.977   8.891  10.686 -0.2798 -0.0751 -0.3436
  822MOL0     O13301   8.037   8.997  10.759  0.5965  0.1542 -0.1652
  822MOL0     C13302   8.169   9.007  10.764  0.4549  0.1176 -0.3278
  822MOL0     C13303   8.238   9.066  10.664 -0.0646 -0.2475  0.5051
  822MOL0     C13304   8.378   9.062  10.667 -0.6551  0.1708  0.2784
  822MOL0     C13305   8.456   9.007  10.767  0.3029 -0.2042  0.8584
  822MOL0     O13306   8.593   9.023  10.752  0.0640 -0.2785 -0.4731
  822MOL0     C13307   8.656   8.899  10.796 -0.6984 -0.4641  0.4338
  822MOL0     C13308   8.776   8.876  10.717 -0.4624 -0.3382 -0.0284
  822MOL0     C13309   8.901   8.969  10.736  0.6208  0.6438  0.1162
  822MOL0     C13310   9.012   8.914  10.640 -0.4728  1.4749  0.2311
  822MOL0     C13311   9.147   8.982  10.671  0.1842  0.3034  0.1631
  822MOL0     C13312   9.270   8.938  10.596 -0.6022 -0.2129  0.0028
  822MOL0     C13313   9.394   9.007  10.633  0.3860  0.4655  0.3337
  822MOL0     C13314   9.517   8.951  10.555 -0.1074  0.5650 -0.8438
  822MOL0     N13315   9.632   8.963  10.649 -0.2304  0.1617 -0.2167
  822MOL0     C13316   9.649   8.879  10.756 -0.0586  0.5690  0.9193
  822MOL0     C13317   9.751   8.927  10.826  0.2909  0.3981  0.2055
  822MOL0     C13318   9.804   8.867  10.959  0.7079  0.3214  0.0826
  822MOL0     C13319   9.823   8.982  11.071 -0.1458  0.1133 -0.1149
  822MOL0     C13320   9.860   8.907  11.202 -0.0709 -0.4935 -0.5579
  822MOL0     C13321  10.015   8.892  11.203  0.0787 -0.2573  0.1031
  822MOL0     O13322  10.085   9.021  11.196 -0.2216 -0.1491 -0.1407
  822MOL0     C13323  10.220   9.030  11.234  1.0765  0.4683  0.1205
  822MOL0     C13324  10.277   9.148  11.237  0.2500 -0.2437  0.5204
  822MOL0     C13325  10.413   9.168  11.254 -0.4081 -0.5536  0.2651
  822MOL0     C13326  10.455   9.308  11.280 -0.1134  0.4470 -1.0545
  822MOL0     C13327  10.497   9.055  11.271  0.5155  0.3961 -0.4311
  822MOL0     C13328  10.649   9.055  11.266  0.1558  0.9293  0.3516
  822MOL0     O13329  10.717   8.928  11.256  0.0427  0.4061  0.3574
  822MOL0     C13330  10.837   8.919  11.198 -0.8240 -0.2092  1.1597
  822MOL0     C13331  10.911   9.006  11.118 -0.3746 -0.7725  0.1370
  822MOL0     C13332  11.049   8.980  11.082 -0.0255 -0.1401 -1.1006
  822MOL0     C13333  11.102   8.856  11.117  0.0825 -0.0769  0.6853
  822MOL0     O13334  11.223   8.827  11.063  0.6775 -0.7932 -0.7969
  822MOL0     C13335  11.252   8.692  11.035  0.2649  0.3927  0.2129
  822MOL0     C13336  11.383   8.700  10.956 -0.3469  0.2233  0.1354
  822MOL0     C13337  11.443   8.557  10.946  0.2089  1.0947  0.1239
  822MOL0     C13338  11.585   8.573  10.884 -0.7180  0.0637 -0.5883
  822MOL0     C13339  11.641   8.432  10.857  0.6216  0.1143  0.0635
  822MOL0     C13340  11.782   8.441  10.801 -0.1487  0.3698  0.3584
  822MOL0     C13341  11.857   8.308  10.809 -0.4395 -0.2363 -1.3140
  822MOL0     C13342  12.010   8.330  10.797  0.1900 -0.3777 -0.7829
  822MOL0    Cl13343  12.050   8.433  10.664  0.1461 -0.6665  0.0027
  822MOL0     C13344  11.025   8.769  11.188 -0.5310 -0.1386  0.7405
  822MOL0     C13345  10.893   8.798  11.227 -0.0030 -0.5245 -0.3451
  822MOL0     O13346  10.699   9.169  11.265  0.3626 -0.5525  0.5423
  822MOL0     C13347  10.430   8.930  11.288  0.2398  0.7023  0.7941
  822MOL0     C13348  10.296   8.918  11.266  0.2661  0.8903  1.0368
  822MOL0     N13349   9.784   9.052  10.771 -0.4965 -0.0029  0.5679
  822MOL0     N13350   9.712   9.071  10.666  0.1446  0.9246  0.2580
  822MOL0     C13351   8.384   8.939  10.870  0.3238 -0.6403 -1.2819
  822MOL0     C13352   8.240   8.935  10.867 -0.2326 -0.4696  0.6152
  822MOL0     C13353   7.824   8.899  10.663 -0.4773 -0.0843  0.5415
  822MOL0     C13354   7.777   9.022  10.642  0.1832 -0.2667 -0.0198
  822MOL0     C13355   7.640   9.038  10.612  0.9597  0.3179  0.5084
  822MOL0     C13356   7.556   8.927  10.601 -0.4281 -0.4327  0.2114
  822MOL0     O13357   7.426   8.945  10.589  0.3593 -1.0287  0.7513
  822MOL0     C13358   7.353   8.966  10.709 -0.0376 -0.3101 -0.8654
  822MOL0     C13359   7.202   9.028  10.687  0.0216  0.5377  0.3974
  822MOL0     C13360   7.133   9.040  10.830 -0.1522  0.1057  1.1215
  822MOL0     C13361   7.044   9.153  10.857 -0.3306  0.1609  0.9729
  822MOL0     C13362   6.981   9.143  10.993  0.2753 -0.4677  0.6870
  822MOL0     C13363   6.924   9.109  11.094  0.3218 -0.3313 -0.2294
  822MOL0     C13364   7.608   8.803  10.640  0.0803  0.2960  0.2747
  822MOL0     C13365   7.740   8.786  10.669  0.0991 -0.0713 -0.2615
  822MOL0     C13366   7.786   8.637  10.667  0.9181  0.2310 -0.1804
  822MOL0     H13367   8.191   9.110  10.577 -1.1292  1.5612  1.9271
  822MOL0     H13368   8.418   9.096  10.572 -0.2182 -0.2844  0.2996
  822MOL0     H13369   8.592   8.812  10.786 -1.3990  0.2869 -2.8294
  822MOL0     H13370   8.690   8.907  10.900  0.4244  0.9867 -0.0027
  822MOL0     H13371   8.802   8.773  10.743 -1.8735 -1.1931 -1.7608
  822MOL0     H13372   8.742   8.873  10.613  1.4643 -1.9844 -0.6785
  822MOL0     H13373   8.886   9.073  10.703 -0.2663 -0.1704 -2.3264
  822MOL0     H13374   8.938   8.945  10.836 -1.2439 -4.0253 -0.0861
  822MOL0     H13375   9.029   8.806  10.654 -0.2589  1.1558 -2.0704
  822MOL0     H13376   8.980   8.924  10.536 -1.6517  0.9768  0.5310
  822MOL0     H13377   9.163   8.978  10.779 -0.0421 -1.1273  0.1608
  822MOL0     H13378   9.147   9.087  10.639  3.4549  0.2447 -0.3994
  822MOL0     H13379   9.285   8.830  10.601  0.1555 -0.0595  2.4576
  822MOL0     H13380   9.244   8.950  10.491  0.4645 -2.3807 -0.5625
  822MOL0     H13381   9.400   8.999  10.742  0.6172 -0.8873  0.2362
  822MOL0     H13382   9.375   9.111  10.604 -1.5487  0.0171 -0.1607
  822MOL0     H13383   9.495   8.845  10.536 -2.6285  0.9225 -0.1910
  822MOL0     H13384   9.533   8.996  10.457 -2.0199  1.7770 -0.6376
  822MOL0     H13385   9.599   8.787  10.785 -0.2939  0.9646  1.8089
  822MOL0     H13386   9.905   8.830  10.941  0.1425 -0.9847 -0.5582
  822MOL0     H13387   9.728   8.797  10.995 -1.3479  2.2429 -0.3081
  822MOL0     H13388   9.897   9.049  11.026  0.7880 -2.1669 -2.2201
  822MOL0     H13389   9.734   9.041  11.095 -1.9328 -1.8840 -1.4973
  822MOL0     H13390   9.834   8.967  11.289  1.8084  2.3934 -1.8269
  822MOL0     H13391   9.814   8.809  11.218 -0.4457  0.2066  4.0477
  822MOL0     H13392  10.038   8.840  11.297 -0.6516  1.2895  1.1778
  822MOL0     H13393  10.054   8.840  11.115  3.3170  4.1609 -1.4169
  822MOL0     H13394  10.206   9.227  11.214 -0.6300 -1.2813 -0.4461
  822MOL0     H13395  10.374   9.372  11.316 -1.0133 -1.0071 -0.3944
  822MOL0     H13396  10.484   9.354  11.185 -0.8571 -0.9075 -1.9673
  822MOL0     H13397  10.533   9.318  11.356 -0.2849  1.3680 -0.9888
  822MOL0     H13398  10.877   9.103  11.084 -0.1936  0.0525  2.1469
  822MOL0     H13399  11.100   9.051  11.018 -0.9509  1.7869  0.2087
  822MOL0     H13400  11.269   8.642  11.131  1.0786  1.7925  0.8205
  822MOL0     H13401  11.178   8.636  10.977  0.0024 -0.8581  1.6884
  822MOL0     H13402  11.356   8.736  10.857 -0.6213 -0.0011  0.1288
  822MOL0     H13403  11.454   8.767  11.006 -0.8245  1.0260 -0.2571
  822MOL0     H13404  11.366   8.502  10.891  1.8440 -2.2759  0.9489
  822MOL0     H13405  11.449   8.498  11.038  1.8063  2.4477  0.9344
  822MOL0     H13406  11.646   8.636  10.949 -0.3155  0.4732 -1.3537
  822MOL0     H13407  11.581   8.623  10.787  2.0604  0.9750 -0.3012
  822MOL0     H13408  11.635   8.370  10.947  0.9520 -1.0045 -0.6546
  822MOL0     H13409  11.584   8.377  10.781  1.3853 -0.4437 -0.1214
  822MOL0     H13410  11.834   8.519  10.857  2.7901 -2.1404  1.4443
  822MOL0     H13411  11.774   8.467  10.695  3.2592 -0.2514 -0.1672
  822MOL0     H13412  11.820   8.235  10.737  0.4805 -0.1326 -1.9058
  822MOL0     H13413  11.843   8.273  10.912 -1.7118  1.9997 -0.6352
  822MOL0     H13414  12.063   8.235  10.785  2.3959  0.7674 -0.6042
  822MOL0     H13415  12.044   8.381  10.887 -1.7530  1.1000 -0.8136
  822MOL0     H13416  11.064   8.669  11.206  0.3192  0.0054 -0.1954
  822MOL0     H13417  10.839   8.717  11.276  0.2791  1.8062  4.4305
  822MOL0     H13418  10.487   8.838  11.293  1.4277  1.3587 -0.1291
  822MOL0     H13419  10.254   8.818  11.257  0.8636  0.7978 -1.4078
  822MOL0     H13420   8.428   8.881  10.950  0.4841  1.8256  0.5140
  822MOL0     H13421   8.193   8.879  10.947  1.4895 -1.1167  1.2160
  822MOL0     H13422   7.838   9.111  10.638 -1.0800  0.6251 -0.2632
  822MOL0     H13423   7.597   9.137  10.601 -0.2129 -0.1522  0.7445
  822MOL0     H13424   7.331   8.869  10.754 -1.7505  0.3163 -0.2495
  822MOL0     H13425   7.416   9.015  10.784 -1.0100  1.0016 -0.8698
  822MOL0     H13426   7.148   8.960  10.622  0.1171 -0.4995  1.3619
  822MOL0     H13427   7.216   9.126  10.641  0.0257  0.9125  1.1732
  822MOL0     H13428   7.063   8.956  10.837 -0.5364  0.4556  1.5742
  822MOL0     H13429   7.207   9.031  10.910  0.9634  0.2170  0.1278
  822MOL0     H13430   6.967   9.159  10.779 -1.5987  0.2662  2.1939
  822MOL0     H13431   7.106   9.242  10.872  1.6049 -1.1979  1.3989
  822MOL0     H13432   6.868   9.092  11.184  0.6489 -2.3905 -0.3466
  822MOL0     H13433   7.545   8.715  10.646  0.4587 -0.0581 -0.6825
  822MOL0     H13434   7.706   8.561  10.666  1.7460 -0.6560 -0.2646
  822MOL0     H13435   7.854   8.618  10.584  0.0575  2.5868 -1.5201
  822MOL0     H13436   7.834   8.610  10.762 -1.0404 -0.2428  0.7355
  823MOL0     O13437  11.333   1.417   8.155 -0.5773  0.0505 -0.6404
  823MOL0     C13438  11.307   1.536   8.177 -0.2896  0.5718 -0.4633
  823MOL0     O13439  11.331   1.600   8.290  0.0543  0.3244  0.4572
  823MOL0     C13440  11.414   1.545   8.379  0.2116 -0.2765  0.1736
  823MOL0     C13441  11.366   1.446   8.458 -0.7232  0.2394 -1.0614
  823MOL0     C13442  11.448   1.382   8.552  0.4268 -0.8831  0.1665
  823MOL0     C13443  11.585   1.414   8.560  0.1513  1.0514 -0.4047
  823MOL0     O13444  11.657   1.355   8.665 -0.0109 -0.0336  0.5065
  823MOL0     C13445  11.775   1.422   8.721  0.8530  0.8872  0.0505
  823MOL0     C13446  11.831   1.346   8.845  0.3082  0.0337  0.5364
  823MOL0     C13447  11.984   1.345   8.837 -0.2875  0.9454 -0.0060
  823MOL0     C13448  12.037   1.296   8.968 -0.5567  0.0443  0.3596
  823MOL0     C13449  12.189   1.281   8.956  0.2314  0.1420 -0.1667
  823MOL0     C13450  12.253   1.418   8.974  0.9845 -0.8198  0.1653
  823MOL0     C13451  12.404   1.399   8.965 -0.5352  0.3460  0.0125
  823MOL0     C13452  12.495   1.517   9.007 -0.5092 -0.5261 -0.2454
  823MOL0     N13453  12.489   1.629   8.914  0.1779 -0.2209  0.5346
  823MOL0     C13454  12.503   1.636   8.779 -0.1996  0.2958  0.1809
  823MOL0     C13455  12.485   1.765   8.754  0.4524  0.5872  0.3783
  823MOL0     C13456  12.487   1.830   8.624 -0.4568  0.1736 -0.0424
  823MOL0     C13457  12.579   1.785   8.516  0.2273 -0.6485  0.4924
  823MOL0     C13458  12.565   1.867   8.387  0.5079 -0.1877 -0.2027
  823MOL0     C13459  12.681   1.845   8.296  1.4950  0.8389  0.0792
  823MOL0     O13460  12.678   1.726   8.221  0.0415  0.5456 -0.9820
  823MOL0     C13461  12.795   1.676   8.170  0.2693  0.3359 -0.2971
  823MOL0     C13462  12.921   1.735   8.184  0.5918  0.4378 -0.4547
  823MOL0     C13463  13.031   1.676   8.126 -0.0005 -0.4451  0.7757
  823MOL0     C13464  13.162   1.746   8.160 -0.0006  0.8851  0.1782
  823MOL0     C13465  13.025   1.555   8.054 -0.1387  0.2760  0.3527
  823MOL0     C13466  13.131   1.496   7.974 -0.6924  0.7342  0.0441
  823MOL0     O13467  13.097   1.382   7.894  1.3394  0.0506 -0.9764
  823MOL0     C13468  13.201   1.327   7.827 -0.7179 -0.3201 -0.3376
  823MOL0     C13469  13.206   1.326   7.691 -0.1949  0.0032  1.2688
  823MOL0     C13470  13.316   1.271   7.613 -0.0569 -0.2070  0.7348
  823MOL0     C13471  13.426   1.209   7.682  0.3714  0.3580  0.3838
  823MOL0     O13472  13.547   1.174   7.620  0.7498  0.4615  0.5181
  823MOL0     C13473  13.582   1.030   7.631 -0.5117 -1.2987 -1.0925
  823MOL0     C13474  13.724   1.034   7.686 -0.1282  0.3456  0.5912
  823MOL0     C13475  13.768   0.895   7.715 -0.6038  0.3822 -0.1606
  823MOL0     C13476  13.908   0.892   7.779 -0.2025 -0.4379  0.0909
  823MOL0     C13477  13.920   0.769   7.875 -0.6610  0.7212 -0.3262
  823MOL0     C13478  14.067   0.730   7.916  0.6806  0.1454 -0.1374
  823MOL0     C13479  14.058   0.607   8.021  0.2693  0.4854 -0.0848
  823MOL0     C13480  14.005   0.653   8.158 -0.4501  0.4346  0.6788
  823MOL0    Cl13481  14.107   0.782   8.224  0.0737 -0.1899 -0.0758
  823MOL0     C13482  13.423   1.219   7.816 -0.3245 -0.6951 -0.7399
  823MOL0     C13483  13.317   1.274   7.891 -0.0309 -0.4105 -0.2114
  823MOL0     O13484  13.245   1.544   7.975  0.2497  0.4227 -0.1973
  823MOL0     C13485  12.895   1.497   8.052  0.3651 -0.4558  0.0397
  823MOL0     C13486  12.784   1.551   8.102  1.0802 -0.0422  0.1749
  823MOL0     N13487  12.453   1.830   8.873 -0.4255 -0.2356 -0.0912
  823MOL0     N13488  12.459   1.749   8.965 -0.3650 -1.1445 -0.1774
  823MOL0     C13489  11.631   1.512   8.473 -0.0600 -0.9443 -0.0092
  823MOL0     C13490  11.548   1.593   8.393  0.2469  0.8365  0.5558
  823MOL0     C13491  11.229   1.608   8.072 -0.6816 -0.0726 -0.0390
  823MOL0     C13492  11.208   1.546   7.955 -0.0133  0.3863 -0.2994
  823MOL0     C13493  11.132   1.597   7.857  0.3723  0.8078  0.3790
  823MOL0     C13494  11.077   1.724   7.873 -0.3516 -0.2082 -0.0024
  823MOL0     O13495  11.014   1.789   7.776  0.2485 -0.5204  0.0435
  823MOL0     C13496  10.883   1.738   7.734 -0.8005 -0.4969 -0.0465
  823MOL0     C13497  10.849   1.801   7.598 -0.4759  0.3329 -0.1330
  823MOL0     C13498  10.920   1.737   7.479 -0.2783 -0.1113  0.7925
  823MOL0     C13499  10.870   1.782   7.337 -1.1526 -0.4043 -0.0334
  823MOL0     C13500  10.737   1.730   7.305  0.1852  0.3183  0.0473
  823MOL0     C13501  10.627   1.685   7.283  0.1900  0.3421 -1.2330
  823MOL0     C13502  11.105   1.794   7.992  0.7324  0.3259  1.1828
  823MOL0     C13503  11.178   1.738   8.098 -0.3366  0.3566  0.0986
  823MOL0     C13504  11.159   1.819   8.227 -0.1200  0.3161 -0.0701
  823MOL0     H13505  11.262   1.416   8.458 -0.4154 -1.1585  1.8059
  823MOL0     H13506  11.403   1.308   8.618 -0.7013  0.6394  1.1589
  823MOL0     H13507  11.742   1.524   8.743 -1.0717  0.8453 -2.1584
  823MOL0     H13508  11.842   1.428   8.635  0.6938 -2.4994 -0.4672
  823MOL0     H13509  11.800   1.396   8.938  0.7312 -2.2668  2.0089
  823MOL0     H13510  11.782   1.249   8.859 -3.0064  1.5346  0.1990
  823MOL0     H13511  12.011   1.279   8.754  1.3015  0.0741  1.1601
  823MOL0     H13512  12.018   1.446   8.812 -2.0448  1.9015  1.2597
  823MOL0     H13513  12.007   1.374   9.038  0.1640 -1.0967  2.0075
  823MOL0     H13514  11.997   1.197   8.994  1.2837 -1.8635 -3.2847
  823MOL0     H13515  12.214   1.233   8.861 -0.3400  1.6743 -1.1141
  823MOL0     H13516  12.221   1.213   9.036 -0.8740  2.5963  2.5135
  823MOL0     H13517  12.226   1.481   8.889 -0.9688 -1.2494  0.4238
  823MOL0     H13518  12.215   1.461   9.067 -3.1294 -1.8805 -0.7970
  823MOL0     H13519  12.435   1.371   8.864  2.2030 -0.2869  0.9506
  823MOL0     H13520  12.419   1.320   9.040  1.7208  2.5087  1.9980
  823MOL0     H13521  12.452   1.549   9.103  0.1748 -2.3431  0.7100
  823MOL0     H13522  12.597   1.481   9.023  0.0359 -1.3000 -4.3890
  823MOL0     H13523  12.532   1.559   8.708  1.3506 -0.3463  1.4448
  823MOL0     H13524  12.508   1.937   8.638  0.6472  0.4648 -3.0023
  823MOL0     H13525  12.383   1.819   8.591 -1.0846 -2.1909  2.4199
  823MOL0     H13526  12.678   1.798   8.560 -0.0940 -0.1497  1.0867
  823MOL0     H13527  12.565   1.681   8.485  1.2765 -0.1880 -1.7096
  823MOL0     H13528  12.470   1.844   8.338 -0.6390 -0.5430  2.0583
  823MOL0     H13529  12.562   1.970   8.425  1.4106 -1.5982  4.3221
  823MOL0     H13530  12.675   1.923   8.220  0.4066  1.4308  0.7631
  823MOL0     H13531  12.768   1.849   8.362 -1.1571  0.0222  3.9432
  823MOL0     H13532  12.940   1.832   8.228 -2.3655  0.4404  1.0507
  823MOL0     H13533  13.201   1.776   8.063 -1.5373  0.2507 -0.6717
  823MOL0     H13534  13.218   1.663   8.206 -0.2495  0.5972 -0.0327
  823MOL0     H13535  13.162   1.832   8.227  0.0280 -1.0506  2.8588
  823MOL0     H13536  13.117   1.369   7.647  0.3902 -1.7768 -1.9712
  823MOL0     H13537  13.326   1.281   7.505 -2.6362  2.4299  0.6267
  823MOL0     H13538  13.518   0.975   7.700  4.0266 -0.9523  4.0008
  823MOL0     H13539  13.578   0.982   7.532 -0.2524  0.3693 -1.9569
  823MOL0     H13540  13.797   1.080   7.618  0.7886 -1.1916  0.4729
  823MOL0     H13541  13.718   1.097   7.775  0.2239  2.0437 -0.5275
  823MOL0     H13542  13.776   0.844   7.619  1.2646  1.6169 -0.7238
  823MOL0     H13543  13.695   0.854   7.786  0.0815 -0.9357 -0.1865
  823MOL0     H13544  13.940   0.984   7.828 -0.5332 -0.3911  0.2199
  823MOL0     H13545  13.988   0.887   7.704 -0.3366 -0.3441 -0.0588
  823MOL0     H13546  13.852   0.778   7.960 -0.6183 -2.6187  0.2026
  823MOL0     H13547  13.882   0.690   7.811  1.1491  0.4132 -1.0880
  823MOL0     H13548  14.117   0.818   7.956  3.5096 -1.6007  0.4789
  823MOL0     H13549  14.126   0.694   7.831 -1.6954 -1.7620 -1.1061
  823MOL0     H13550  14.161   0.572   8.033 -0.3608 -2.0269 -1.3008
  823MOL0     H13551  14.002   0.521   7.983 -0.3491 -0.1579  2.1225
  823MOL0     H13552  13.997   0.560   8.215 -0.5015  0.1504  0.2122
  823MOL0     H13553  13.901   0.683   8.146 -0.6060  0.1881  1.3472
  823MOL0     H13554  13.516   1.190   7.865 -1.0471 -1.3350  0.3036
  823MOL0     H13555  13.332   1.279   7.998 -2.0822 -0.3252  0.1045
  823MOL0     H13556  12.875   1.411   7.989  0.7095 -0.7437  0.3203
  823MOL0     H13557  12.685   1.510   8.086  0.8465 -0.5838  2.5755
  823MOL0     H13558  11.738   1.518   8.462 -0.1138 -2.3510 -1.6292
  823MOL0     H13559  11.585   1.665   8.321  0.0363  1.2121  0.8216
  823MOL0     H13560  11.259   1.455   7.928 -0.5603  0.5209 -1.8545
  823MOL0     H13561  11.122   1.544   7.763 -1.5212  2.4204 -0.3992
  823MOL0     H13562  10.891   1.630   7.718  1.4143 -0.5301  0.8625
  823MOL0     H13563  10.809   1.757   7.812  0.5033 -0.6518  1.2737
  823MOL0     H13564  10.865   1.909   7.598  1.4237  0.0988 -1.0324
  823MOL0     H13565  10.740   1.790   7.592 -0.4911 -1.3214  2.0040
  823MOL0     H13566  11.026   1.761   7.487 -0.8497  2.4110  1.9015
  823MOL0     H13567  10.923   1.628   7.487 -0.6182 -0.4486 -2.3806
  823MOL0     H13568  10.942   1.756   7.259  1.8947  2.0482  1.7348
  823MOL0     H13569  10.871   1.891   7.336  2.0008 -0.3440 -1.8119
  823MOL0     H13570  10.525   1.669   7.254 -1.0219  1.7263  1.8811
  823MOL0     H13571  11.053   1.889   7.997 -2.6943 -1.4196  2.0327
  823MOL0     H13572  11.255   1.861   8.259  1.0110 -1.0052 -1.5432
  823MOL0     H13573  11.069   1.881   8.223 -0.3077  0.0517 -0.0150
  823MOL0     H13574  11.131   1.748   8.306 -1.1603  1.4002  0.5643
  824MOL0     O13575   5.412   6.273   1.560  0.1938  0.2413 -0.6874
  824MOL0     C13576   5.347   6.228   1.655 -0.2645 -0.5335  0.9129
  824MOL0     O13577   5.391   6.212   1.780  0.2258  0.1275 -0.1894
  824MOL0     C13578   5.504   6.282   1.815 -0.3096 -0.1608 -0.3894
  824MOL0     C13579   5.625   6.217   1.816  0.1373 -0.5353 -0.8370
  824MOL0     C13580   5.749   6.279   1.850  0.1495 -0.4807  0.3162
  824MOL0     C13581   5.746   6.423   1.863  0.1240  0.9204 -0.1798
  824MOL0     O13582   5.853   6.495   1.905 -0.4813 -0.1109 -0.0544
  824MOL0     C13583   5.966   6.428   1.952 -0.0684 -0.4672 -0.5322
  824MOL0     C13584   6.073   6.535   1.984  0.2711  0.0455 -0.9280
  824MOL0     C13585   6.194   6.476   2.057  0.5808  0.9692  0.1588
  824MOL0     C13586   6.264   6.578   2.143 -0.0077  0.0932  0.6622
  824MOL0     C13587   6.396   6.531   2.200 -0.2411 -0.0366  0.0705
  824MOL0     C13588   6.522   6.532   2.103 -0.0182 -0.5641 -0.1950
  824MOL0     C13589   6.656   6.478   2.167  0.6755 -0.4459  0.2094
  824MOL0     C13590   6.655   6.318   2.171  1.3228  0.3551 -0.0551
  824MOL0     N13591   6.787   6.261   2.176  0.2460 -0.0699 -0.0582
  824MOL0     C13592   6.858   6.218   2.066 -0.7130  0.3111  0.0788
  824MOL0     C13593   6.968   6.166   2.117 -0.2343  0.6830  0.0519
  824MOL0     C13594   7.085   6.103   2.039 -0.9114 -0.5282  0.7907
  824MOL0     C13595   7.164   6.214   1.969 -0.3693  0.6604  0.9972
  824MOL0     C13596   7.287   6.152   1.888  0.0033  0.7065  0.7833
  824MOL0     C13597   7.349   6.253   1.794  0.8288  0.8679  0.5912
  824MOL0     O13598   7.383   6.373   1.868 -0.7410  0.1582  0.1843
  824MOL0     C13599   7.480   6.457   1.819  0.1592 -0.0245  0.0782
  824MOL0     C13600   7.498   6.474   1.682 -0.7663  0.3362  0.2740
  824MOL0     C13601   7.575   6.574   1.631  0.1087  0.4512  0.2992
  824MOL0     C13602   7.608   6.571   1.479 -0.5519 -0.3945 -0.4250
  824MOL0     C13603   7.638   6.670   1.721 -0.8179 -0.3740 -0.9407
  824MOL0     C13604   7.740   6.771   1.670  0.5298 -0.0112  0.4374
  824MOL0     O13605   7.831   6.815   1.757 -0.6066 -0.4359 -1.1765
  824MOL0     C13606   7.934   6.894   1.722 -0.4286  0.1528 -0.4760
  824MOL0     C13607   8.027   6.860   1.615  0.8458 -0.5681 -0.5935
  824MOL0     C13608   8.135   6.938   1.584 -0.2611  0.2199 -0.5079
  824MOL0     C13609   8.153   7.055   1.654  0.2078 -0.3734  0.4202
  824MOL0     O13610   8.248   7.144   1.601 -0.5861  0.2051 -0.2878
  824MOL0     C13611   8.376   7.101   1.635 -0.7819  0.1987 -0.6860
  824MOL0     C13612   8.471   7.199   1.571  0.1102  0.1778 -0.5859
  824MOL0     C13613   8.441   7.218   1.423  0.6030  0.8451  0.0120
  824MOL0     C13614   8.577   7.221   1.346 -0.2592  0.6509  0.1949
  824MOL0     C13615   8.568   7.258   1.205  0.6628 -0.5917  0.4256
  824MOL0     C13616   8.545   7.405   1.175 -0.1773  0.1290  0.1264
  824MOL0     C13617   8.398   7.445   1.156 -0.2472 -0.1152  0.5162
  824MOL0     C13618   8.390   7.581   1.079 -0.7921  0.0945 -0.3108
  824MOL0    Cl13619   8.242   7.664   1.096  0.0745  0.1244  0.1203
  824MOL0     C13620   8.064   7.087   1.754  0.2481 -0.2863  1.3125
  824MOL0     C13621   7.961   7.010   1.795 -0.5551 -0.1833  0.0585
  824MOL0     O13622   7.729   6.809   1.550  0.0067 -0.8108 -0.0660
  824MOL0     C13623   7.610   6.656   1.864 -0.0314 -0.0016 -0.0282
  824MOL0     C13624   7.521   6.554   1.909  0.1624 -0.6562  0.4066
  824MOL0     N13625   6.965   6.176   2.254  0.0246 -0.2815  0.0936
  824MOL0     N13626   6.850   6.226   2.290 -0.1159 -0.6260 -0.1809
  824MOL0     C13627   5.623   6.482   1.855  0.2854 -0.0360  0.2939
  824MOL0     C13628   5.500   6.418   1.825 -0.5346  0.1723  0.1397
  824MOL0     C13629   5.217   6.171   1.613 -0.4192  0.6124  0.7006
  824MOL0     C13630   5.144   6.110   1.719 -0.5272 -0.7290 -0.6589
  824MOL0     C13631   5.018   6.063   1.698 -0.1436 -0.7417  0.1045
  824MOL0     C13632   4.957   6.051   1.568  0.4421  0.0649 -0.7302
  824MOL0     O13633   4.840   5.979   1.538 -0.0335 -0.3188 -0.0068
  824MOL0     C13634   4.726   5.971   1.624  0.2373  0.4081  0.7257
  824MOL0     C13635   4.620   5.873   1.565 -0.0493  0.2850 -0.2862
  824MOL0     C13636   4.680   5.736   1.543 -0.9588  1.4108 -0.3137
  824MOL0     C13637   4.599   5.610   1.597 -0.1531 -0.0020  0.6379
  824MOL0     C13638   4.463   5.615   1.543  0.4555 -0.3855  0.0958
  824MOL0     C13639   4.344   5.608   1.504  0.1422  0.0861 -0.0317
  824MOL0     C13640   5.037   6.097   1.467 -0.0137 -0.2257  0.7463
  824MOL0     C13641   5.160   6.164   1.486 -0.4100 -0.7005 -0.0156
  824MOL0     C13642   5.225   6.224   1.367 -0.1839  0.2757 -0.7391
  824MOL0     H13643   5.638   6.112   1.792  4.0691  0.0335 -1.8516
  824MOL0     H13644   5.847   6.233   1.857 -0.3679 -1.4242  1.9065
  824MOL0     H13645   6.011   6.365   1.874  3.0788  2.0636 -0.9423
  824MOL0     H13646   5.943   6.374   2.044 -0.0679  0.1731 -0.1561
  824MOL0     H13647   6.111   6.591   1.898  2.9584 -3.0051 -1.9303
  824MOL0     H13648   6.024   6.604   2.053  0.1602 -2.0139  1.1619
  824MOL0     H13649   6.163   6.404   2.133 -0.4921  0.2178 -0.9647
  824MOL0     H13650   6.255   6.434   1.977 -3.0959  0.1995 -2.4428
  824MOL0     H13651   6.286   6.664   2.080  0.5653  0.9359  1.9807
  824MOL0     H13652   6.192   6.606   2.221 -1.3144  1.6870 -1.0170
  824MOL0     H13653   6.387   6.424   2.224  1.9805 -1.0396 -2.9010
  824MOL0     H13654   6.423   6.582   2.292 -0.6134  1.7313 -0.7667
  824MOL0     H13655   6.491   6.477   2.014  1.3741 -2.0091  0.1776
  824MOL0     H13656   6.545   6.634   2.069  1.2215 -1.0891 -0.9686
  824MOL0     H13657   6.657   6.517   2.269 -0.0950  1.4596 -0.4531
  824MOL0     H13658   6.738   6.506   2.100 -0.7738 -1.2819 -2.0402
  824MOL0     H13659   6.594   6.286   2.256 -2.4329 -1.4575 -3.0933
  824MOL0     H13660   6.601   6.283   2.083 -0.1784 -0.7252  1.2380
  824MOL0     H13661   6.825   6.217   1.963  0.8591 -1.0748 -0.4593
  824MOL0     H13662   7.044   6.045   1.956  1.0587  0.6426 -1.0968
  824MOL0     H13663   7.152   6.046   2.104 -1.2898 -0.6769  1.0543
  824MOL0     H13664   7.103   6.271   1.897  0.4713  0.3676  0.0273
  824MOL0     H13665   7.195   6.290   2.040  3.8977  1.0504 -0.9821
  824MOL0     H13666   7.360   6.121   1.962 -1.3224 -0.5514  1.6177
  824MOL0     H13667   7.259   6.058   1.839 -0.4395 -0.8180  3.7257
  824MOL0     H13668   7.427   6.211   1.730 -0.0024  1.6939 -1.0272
  824MOL0     H13669   7.269   6.274   1.723  0.3255 -0.1702  0.8290
  824MOL0     H13670   7.445   6.415   1.608 -1.2044  0.1900  0.7011
  824MOL0     H13671   7.579   6.654   1.415  0.3760 -1.1899 -1.9411
  824MOL0     H13672   7.558   6.483   1.435 -1.8939  0.8259 -1.4646
  824MOL0     H13673   7.716   6.558   1.475 -0.5335 -1.1671  1.5350
  824MOL0     H13674   8.008   6.764   1.567 -1.1007 -0.2295 -0.5686
  824MOL0     H13675   8.206   6.899   1.513 -0.9291 -4.3511  1.0299
  824MOL0     H13676   8.389   7.099   1.744 -0.4443 -2.0917 -0.7243
  824MOL0     H13677   8.391   6.998   1.602 -0.6619 -0.5939  1.6041
  824MOL0     H13678   8.472   7.296   1.622  3.5192  0.5120 -1.0316
  824MOL0     H13679   8.570   7.155   1.589  0.0430  0.4493  0.5458
  824MOL0     H13680   8.382   7.306   1.394 -0.2174 -0.4113 -2.4103
  824MOL0     H13681   8.388   7.130   1.386  2.9099  0.2503 -2.1114
  824MOL0     H13682   8.630   7.126   1.354 -0.4062  0.4533 -0.9175
  824MOL0     H13683   8.648   7.292   1.389  1.0288  1.1011 -2.4416
  824MOL0     H13684   8.663   7.226   1.161 -0.2839 -1.2549 -1.2280
  824MOL0     H13685   8.486   7.196   1.167  0.0431 -0.5032  1.5573
  824MOL0     H13686   8.598   7.429   1.083 -2.3865 -2.2953 -1.9444
  824MOL0     H13687   8.590   7.462   1.257 -0.7596 -1.2097  1.4362
  824MOL0     H13688   8.347   7.466   1.251 -2.0802 -0.2175 -0.3952
  824MOL0     H13689   8.347   7.370   1.094  1.4484 -1.1570  0.3072
  824MOL0     H13690   8.413   7.564   0.973 -1.3011 -0.7013 -0.3030
  824MOL0     H13691   8.467   7.652   1.109 -1.4004  0.2985  0.8071
  824MOL0     H13692   8.071   7.183   1.804  0.6085  0.8281 -0.7426
  824MOL0     H13693   7.898   7.042   1.878  0.0677 -0.2485  0.5613
  824MOL0     H13694   7.636   6.729   1.940 -0.1250 -1.6024  1.6019
  824MOL0     H13695   7.493   6.550   2.013  0.5971  0.4031  0.5767
  824MOL0     H13696   5.612   6.588   1.877 -0.3691 -0.1045  0.3149
  824MOL0     H13697   5.407   6.474   1.815 -0.2800  0.5254 -0.2826
  824MOL0     H13698   5.180   6.114   1.822  1.0613 -2.0548 -1.1144
  824MOL0     H13699   4.954   6.029   1.779  0.2801 -1.5461  0.1089
  824MOL0     H13700   4.758   5.937   1.723 -0.4836  1.4646  1.3510
  824MOL0     H13701   4.680   6.069   1.638  0.2665  0.4910  0.2628
  824MOL0     H13702   4.579   5.894   1.466  1.0012  1.7419 -0.4461
  824MOL0     H13703   4.528   5.884   1.623  1.0952  2.6262  1.2603
  824MOL0     H13704   4.695   5.725   1.435  1.9405 -0.4077  0.1449
  824MOL0     H13705   4.785   5.721   1.570 -0.4615 -1.4321 -3.1803
  824MOL0     H13706   4.597   5.616   1.706 -1.5013  1.4445  0.5682
  824MOL0     H13707   4.643   5.512   1.577 -2.1955 -0.9995  0.7883
  824MOL0     H13708   4.238   5.600   1.486 -0.3631  1.1051  2.1273
  824MOL0     H13709   4.996   6.093   1.366 -2.1463  0.6652  1.5246
  824MOL0     H13710   5.154   6.252   1.288 -1.2741  0.2136  0.1871
  824MOL0     H13711   5.273   6.320   1.388  0.7557 -0.5962  1.2579
  824MOL0     H13712   5.302   6.153   1.335 -0.3873 -0.1395 -0.3268
  825MOL0     O13713   3.249  10.109   2.125 -0.7939 -0.2113  0.0237
  825MOL0     C13714   3.150  10.111   2.204 -1.4143 -0.6186  0.0677
  825MOL0     O13715   3.065  10.013   2.221 -0.0772  0.6476 -0.0245
  825MOL0     C13716   3.086   9.900   2.144 -0.4122  0.3978  0.5578
  825MOL0     C13717   2.983   9.880   2.057 -0.2254 -0.6169 -0.3520
  825MOL0     C13718   2.987   9.765   1.975  0.0649 -1.4694  0.1133
  825MOL0     C13719   3.095   9.677   1.968 -0.0104 -0.0316  0.6881
  825MOL0     O13720   3.089   9.562   1.888  0.0588 -0.5176 -0.4552
  825MOL0     C13721   3.145   9.445   1.940 -0.1733  1.0143  0.1017
  825MOL0     C13722   3.124   9.352   1.826 -0.3125  0.1188  0.2894
  825MOL0     C13723   3.144   9.206   1.857  0.7575 -0.2277  0.6305
  825MOL0     C13724   3.182   9.128   1.732  0.0139  0.2836  0.1129
  825MOL0     C13725   3.221   8.989   1.769 -0.4171 -0.1226  0.3716
  825MOL0     C13726   3.291   8.915   1.653  0.7878  0.3304 -0.7663
  825MOL0     C13727   3.343   8.781   1.705 -0.8542  0.2007  0.0192
  825MOL0     C13728   3.382   8.693   1.590 -0.2037 -0.6579 -0.0617
  825MOL0     N13729   3.463   8.580   1.620  0.8078  1.0180 -0.0543
  825MOL0     C13730   3.604   8.575   1.628 -0.1284  0.0749  0.2538
  825MOL0     C13731   3.627   8.472   1.709 -0.7421  0.4104 -0.5046
  825MOL0     C13732   3.763   8.429   1.765  0.0807  0.2881 -0.0891
  825MOL0     C13733   3.886   8.508   1.715 -0.4378 -0.9596  0.0712
  825MOL0     C13734   4.018   8.449   1.780 -0.7256 -0.2421  0.6251
  825MOL0     C13735   4.137   8.527   1.727 -0.4321 -0.0344 -0.1714
  825MOL0     O13736   4.243   8.504   1.818 -0.3831  0.0896 -0.5348
  825MOL0     C13737   4.370   8.546   1.775  0.1397 -0.6760  0.5535
  825MOL0     C13738   4.481   8.497   1.841  0.0342 -0.4767 -0.2853
  825MOL0     C13739   4.609   8.543   1.816 -0.0738 -0.6075  0.4551
  825MOL0     C13740   4.729   8.489   1.886 -0.1610 -0.0817  0.6841
  825MOL0     C13741   4.626   8.647   1.717 -0.2934  0.0348  0.4710
  825MOL0     C13742   4.758   8.697   1.690  0.5868 -0.1555 -1.8023
  825MOL0     O13743   4.789   8.708   1.560  0.1752  0.2394 -0.1357
  825MOL0     C13744   4.905   8.765   1.513  0.5672  0.0995 -0.3337
  825MOL0     C13745   4.929   8.896   1.510  0.3036 -0.2169 -0.2046
  825MOL0     C13746   5.047   8.951   1.457  0.0477  0.0499 -0.0650
  825MOL0     C13747   5.140   8.863   1.407 -0.4193 -0.3059  0.6260
  825MOL0     O13748   5.254   8.905   1.347  0.1132 -0.0952  0.4267
  825MOL0     C13749   5.300   9.036   1.364  0.3731 -0.2101 -0.7749
  825MOL0     C13750   5.454   9.056   1.342 -0.3808  0.2480  0.4002
  825MOL0     C13751   5.546   8.978   1.435 -0.5364 -0.1291 -0.1918
  825MOL0     C13752   5.659   8.891   1.360 -0.5344  0.4601 -0.0725
  825MOL0     C13753   5.776   8.864   1.449 -0.0175  0.3936  0.1630
  825MOL0     C13754   5.862   8.985   1.475  0.6551 -0.1729 -0.4395
  825MOL0     C13755   5.999   8.945   1.526 -0.4086  1.4929  0.7236
  825MOL0     C13756   6.066   9.049   1.608  0.8266 -0.3916 -0.4148
  825MOL0    Cl13757   6.215   8.992   1.675 -0.2784  0.3982 -0.4229
  825MOL0     C13758   5.125   8.727   1.409  0.1937 -0.0432 -0.2870
  825MOL0     C13759   5.005   8.676   1.463 -0.3956 -0.1971  0.7823
  825MOL0     O13760   4.835   8.727   1.785 -0.5178  0.0051  0.4737
  825MOL0     C13761   4.517   8.691   1.638 -0.5385  0.3383  1.2811
  825MOL0     C13762   4.388   8.641   1.666  0.2797 -0.2528 -0.1940
  825MOL0     N13763   3.511   8.420   1.755  0.5729  0.9989  0.3744
  825MOL0     N13764   3.416   8.485   1.700  0.1906 -0.2558  0.6602
  825MOL0     C13765   3.212   9.716   2.045  0.2215  0.0261 -0.2624
  825MOL0     C13766   3.204   9.822   2.140  0.0327  0.7464 -0.3111
  825MOL0     C13767   3.121  10.233   2.272 -0.2559 -0.7724  0.9414
  825MOL0     C13768   3.234  10.310   2.307  0.0240 -0.1937 -0.4910
  825MOL0     C13769   3.209  10.424   2.373  0.7011  0.2720 -0.7983
  825MOL0     C13770   3.085  10.458   2.432  0.5327  0.8769  0.3098
  825MOL0     O13771   3.075  10.570   2.503  0.2106 -0.0081 -0.6154
  825MOL0     C13772   2.948  10.610   2.560 -0.1961  0.1583  0.2793
  825MOL0     C13773   2.991  10.743   2.635  0.4446 -0.2498  0.0956
  825MOL0     C13774   2.867  10.800   2.712 -0.1403 -1.0134  0.8511
  825MOL0     C13775   2.907  10.917   2.801 -0.8140  0.2088 -0.0301
  825MOL0     C13776   2.960  10.866   2.930 -0.5173 -0.1913  0.5896
  825MOL0     C13777   3.003  10.839   3.037 -0.2708 -0.4503 -0.3410
  825MOL0     C13778   2.979  10.384   2.393  0.4823  0.5332  0.7654
  825MOL0     C13779   2.986  10.275   2.305 -0.1449  0.0257  1.3230
  825MOL0     C13780   2.855  10.207   2.274  0.2894  0.8124 -0.7075
  825MOL0     H13781   2.891   9.936   2.072  1.7425  2.5998  0.7062
  825MOL0     H13782   2.898   9.726   1.926 -1.0101 -0.0379  0.8506
  825MOL0     H13783   3.082   9.411   2.022  0.4857 -0.7863 -0.0784
  825MOL0     H13784   3.247   9.458   1.977  0.8026 -0.6939 -1.7338
  825MOL0     H13785   3.024   9.367   1.783  0.1210 -1.0762 -1.2339
  825MOL0     H13786   3.200   9.371   1.751  0.8694 -1.3288  1.0664
  825MOL0     H13787   3.223   9.193   1.932  2.0010  2.1339 -0.1474
  825MOL0     H13788   3.045   9.173   1.890 -0.0594 -0.1842 -1.6425
  825MOL0     H13789   3.093   9.114   1.670  0.7089  1.3746 -1.1765
  825MOL0     H13790   3.266   9.180   1.685 -0.5691  0.9757 -0.1667
  825MOL0     H13791   3.127   8.942   1.800 -1.9663  1.4989 -1.5432
  825MOL0     H13792   3.293   8.994   1.851  1.4962 -1.0586 -1.1538
  825MOL0     H13793   3.223   8.915   1.567  0.2342  1.1054 -0.3478
  825MOL0     H13794   3.371   8.980   1.619 -0.7451  3.0396  0.4450
  825MOL0     H13795   3.272   8.739   1.777 -0.7444  1.3363  0.8100
  825MOL0     H13796   3.430   8.798   1.769 -1.5260 -0.0794  1.0339
  825MOL0     H13797   3.293   8.655   1.540 -2.1134  0.5660  2.2227
  825MOL0     H13798   3.433   8.750   1.512  0.8206  0.2358  1.2311
  825MOL0     H13799   3.681   8.640   1.587  0.5350  0.7931  2.4665
  825MOL0     H13800   3.782   8.323   1.748 -0.3776  0.0638  0.7487
  825MOL0     H13801   3.757   8.448   1.872 -2.1519 -1.1321  0.1061
  825MOL0     H13802   3.899   8.500   1.606  2.1102  1.3165  0.0947
  825MOL0     H13803   3.883   8.613   1.745 -1.2118 -0.1702 -2.4930
  825MOL0     H13804   4.013   8.453   1.889 -2.7139 -1.2010  0.6167
  825MOL0     H13805   4.031   8.340   1.772 -1.7092 -0.4957  2.0869
  825MOL0     H13806   4.162   8.475   1.633 -0.5830 -2.1588  0.9067
  825MOL0     H13807   4.110   8.632   1.715 -3.7963 -1.0266 -2.8003
  825MOL0     H13808   4.467   8.413   1.908 -2.0044  0.8885  1.1499
  825MOL0     H13809   4.806   8.466   1.812 -0.1722 -1.8505  1.1708
  825MOL0     H13810   4.718   8.397   1.945  1.1094 -1.0803 -0.5718
  825MOL0     H13811   4.765   8.570   1.949  0.9108  1.4406 -1.7444
  825MOL0     H13812   4.860   8.974   1.539  0.1607 -0.4108 -0.0154
  825MOL0     H13813   5.060   9.058   1.445 -3.0025  0.6528  1.0799
  825MOL0     H13814   5.251   9.097   1.287  0.6468 -1.0062 -1.6013
  825MOL0     H13815   5.276   9.080   1.461 -0.2677  1.2427 -1.5620
  825MOL0     H13816   5.472   9.006   1.247 -0.0917 -0.3609  0.7726
  825MOL0     H13817   5.482   9.162   1.342 -0.3591  0.2505  1.6105
  825MOL0     H13818   5.488   8.905   1.493 -0.8282 -0.9067 -1.4291
  825MOL0     H13819   5.574   9.055   1.507  0.5363  1.3609 -2.1359
  825MOL0     H13820   5.695   8.944   1.271  0.1446 -1.4786 -1.0129
  825MOL0     H13821   5.613   8.799   1.322 -1.2546  0.6210  0.3949
  825MOL0     H13822   5.757   8.816   1.546  1.3425 -0.6953 -0.0590
  825MOL0     H13823   5.833   8.788   1.394  1.6433  0.4063  1.7610
  825MOL0     H13824   5.801   9.042   1.545  0.7172  0.0009 -0.5267
  825MOL0     H13825   5.882   9.046   1.386  2.2770 -1.0350 -0.7071
  825MOL0     H13826   6.061   8.923   1.439 -1.8847  0.7651 -0.1966
  825MOL0     H13827   6.000   8.854   1.585 -1.0595  0.9677 -0.0405
  825MOL0     H13828   6.002   9.079   1.691  1.4592 -1.7812  0.6106
  825MOL0     H13829   6.076   9.140   1.548 -2.1447 -0.0270 -0.5139
  825MOL0     H13830   5.192   8.653   1.366 -1.5508 -1.2914 -0.9708
  825MOL0     H13831   4.972   8.572   1.460 -2.0650  0.2859  1.4830
  825MOL0     H13832   4.531   8.759   1.555  0.6765 -0.3419  0.8926
  825MOL0     H13833   4.310   8.685   1.605 -0.3387 -1.8657 -0.6382
  825MOL0     H13834   3.304   9.662   2.030  0.8070  1.1584 -0.8606
  825MOL0     H13835   3.288   9.855   2.199  0.9496 -0.2446 -1.0314
  825MOL0     H13836   3.339  10.284   2.309  0.8221  2.7255  0.9193
  825MOL0     H13837   3.296  10.482   2.399 -0.7582  1.9835  0.4653
  825MOL0     H13838   2.867  10.625   2.489  0.1198  2.0269  0.2609
  825MOL0     H13839   2.905  10.535   2.628 -0.5509  1.3932  1.4710
  825MOL0     H13840   3.026  10.816   2.561 -0.0639  0.5303  0.6059
  825MOL0     H13841   3.067  10.729   2.713 -2.4721  0.9652  3.4656
  825MOL0     H13842   2.789  10.833   2.642  0.7727  1.1050  0.7639
  825MOL0     H13843   2.823  10.718   2.770 -3.4935 -0.1717 -0.2717
  825MOL0     H13844   2.836  10.992   2.839 -0.7070 -0.2654  1.1486
  825MOL0     H13845   2.980  10.970   2.740  1.6336 -1.6791  1.1084
  825MOL0     H13846   3.070  10.813   3.117  0.1058 -1.1148 -0.8506
  825MOL0     H13847   2.881  10.412   2.432  0.5787  0.2038  1.2575
  825MOL0     H13848   2.809  10.242   2.181 -0.8203  2.0377  0.2704
  825MOL0     H13849   2.860  10.098   2.286 -0.0723  1.0570  2.5686
  825MOL0     H13850   2.787  10.234   2.355  0.9780  0.8914 -0.1440
  826MOL0     O13851   6.067  10.345   9.112 -0.6569 -0.2307  0.2882
  826MOL0     C13852   6.003  10.446   9.135  0.0553  0.1150 -0.9483
  826MOL0     O13853   6.064  10.567   9.168  1.1295 -0.0206 -0.1577
  826MOL0     C13854   6.196  10.566   9.201  0.3019  0.5385 -0.2257
  826MOL0     C13855   6.238  10.605   9.324 -0.2563 -0.3437 -0.8935
  826MOL0     C13856   6.367  10.626   9.348  0.5643 -0.6267  0.4791
  826MOL0     C13857   6.468  10.589   9.254  0.1657  0.4045  0.4394
  826MOL0     O13858   6.591  10.612   9.307 -0.0539 -0.0700  0.2803
  826MOL0     C13859   6.686  10.658   9.206 -0.2075  0.3771 -0.6211
  826MOL0     C13860   6.821  10.677   9.272 -0.2461 -0.9122  0.3570
  826MOL0     C13861   6.885  10.539   9.288  0.0500  0.4751  0.3427
  826MOL0     C13862   7.012  10.549   9.360 -0.2570 -0.1369  0.0467
  826MOL0     C13863   7.047  10.412   9.430  0.0007 -0.0941 -0.6536
  826MOL0     C13864   7.072  10.290   9.339  0.2674 -0.6210  0.1354
  826MOL0     C13865   7.191  10.299   9.246 -0.2736  0.2561  0.1558
  826MOL0     C13866   7.240  10.153   9.199  0.1537  0.0206 -0.0448
  826MOL0     N13867   7.345  10.147   9.098 -0.2459  0.0629 -0.2014
  826MOL0     C13868   7.318  10.178   8.973 -0.0238  0.2696 -0.1176
  826MOL0     C13869   7.434  10.159   8.908  0.1337 -0.1252  0.4020
  826MOL0     C13870   7.451  10.179   8.757  0.0468 -0.6176 -0.6126
  826MOL0     C13871   7.385  10.321   8.707  0.9490 -0.4203  0.3427
  826MOL0     C13872   7.400  10.448   8.796  0.1550 -0.3636  0.2909
  826MOL0     C13873   7.551  10.476   8.816  0.0021 -0.0141 -0.4258
  826MOL0     O13874   7.622  10.477   8.691 -0.8563  0.3215  0.0855
  826MOL0     C13875   7.757  10.495   8.707 -0.6738 -0.1193  0.4549
  826MOL0     C13876   7.837  10.524   8.829  0.2603  0.7896 -0.0556
  826MOL0     C13877   7.979  10.536   8.823  0.5208 -1.4475  0.9653
  826MOL0     C13878   8.041  10.558   8.955  0.5278  0.5672 -0.4744
  826MOL0     C13879   8.048  10.530   8.695 -0.4733 -0.0947 -0.0828
  826MOL0     C13880   8.202  10.542   8.684 -0.1070 -0.4427  0.2559
  826MOL0     O13881   8.245  10.525   8.554 -0.1864 -0.4493 -0.3927
  826MOL0     C13882   8.379  10.514   8.526 -0.4722 -0.8303  0.0874
  826MOL0     C13883   8.456  10.629   8.543 -0.2051 -0.2686  0.3152
  826MOL0     C13884   8.596  10.620   8.515  0.2710  0.0809 -0.5617
  826MOL0     C13885   8.652  10.501   8.479  0.8934 -0.4982  0.3074
  826MOL0     O13886   8.783  10.500   8.445 -0.9749  0.0225 -0.5271
  826MOL0     C13887   8.823  10.412   8.337 -0.7827  0.1790 -0.1970
  826MOL0     C13888   8.971  10.428   8.294  0.4107 -1.2035 -0.4743
  826MOL0     C13889   9.073  10.387   8.405 -0.7415 -0.4082  0.4839
  826MOL0     C13890   9.216  10.404   8.346  0.3322 -0.8527 -0.3870
  826MOL0     C13891   9.331  10.398   8.451  0.3763 -0.4146  0.1226
  826MOL0     C13892   9.461  10.368   8.396 -0.5646  0.5720  0.8991
  826MOL0     C13893   9.557  10.346   8.511 -0.6947  0.2165 -0.6538
  826MOL0     C13894   9.704  10.338   8.473 -0.5717  1.0449  0.5391
  826MOL0    Cl13895   9.735  10.307   8.302  0.2621  0.0537 -0.0647
  826MOL0     C13896   8.577  10.389   8.474 -0.5116 -0.2999 -0.2079
  826MOL0     C13897   8.433  10.393   8.498 -0.0932  0.2640 -0.2256
  826MOL0     O13898   8.278  10.546   8.780 -0.0877 -0.4307  0.2804
  826MOL0     C13899   7.974  10.496   8.584  0.0380 -0.1100 -0.1202
  826MOL0     C13900   7.838  10.467   8.589 -0.0012 -0.2858 -0.9721
  826MOL0     N13901   7.530  10.107   8.994 -0.5855 -0.6229 -0.8319
  826MOL0     N13902   7.477  10.106   9.114 -0.0623  0.4875 -0.2737
  826MOL0     C13903   6.428  10.535   9.132  0.4647 -0.6401 -0.3347
  826MOL0     C13904   6.294  10.529   9.100  0.4639  0.3670  0.2348
  826MOL0     C13905   5.865  10.437   9.084 -0.2735  0.2888  0.0511
  826MOL0     C13906   5.817  10.550   9.021 -0.1523 -0.5753 -0.1122
  826MOL0     C13907   5.689  10.565   8.964 -0.7498 -0.0625 -0.2248
  826MOL0     C13908   5.611  10.462   8.969  0.8094  1.0901 -0.6725
  826MOL0     O13909   5.481  10.484   8.924  0.0371  0.4488  0.2725
  826MOL0     C13910   5.407  10.369   8.881 -0.1752 -0.2514  0.2239
  826MOL0     C13911   5.479  10.285   8.773  0.0481 -0.2474  1.0384
  826MOL0     C13912   5.385  10.213   8.680 -0.7489 -0.1386 -0.2586
  826MOL0     C13913   5.461  10.120   8.587  0.1964  0.5825 -0.1390
  826MOL0     C13914   5.549  10.173   8.479  0.8764  0.5295 -0.4003
  826MOL0     C13915   5.614  10.237   8.397  0.6159  0.1723  0.6809
  826MOL0     C13916   5.646  10.350   9.043 -0.5305 -0.7015  0.0254
  826MOL0     C13917   5.768  10.330   9.096 -0.2286  0.2014  0.3096
  826MOL0     C13918   5.785  10.215   9.191  0.6223 -0.1233  1.1446
  826MOL0     H13919   6.169  10.625   9.405  0.9817 -2.0814  0.6894
  826MOL0     H13920   6.394  10.667   9.444  3.4485  0.5893 -0.7273
  826MOL0     H13921   6.651  10.753   9.165 -1.0999 -1.2836 -4.0386
  826MOL0     H13922   6.702  10.595   9.119  3.5822 -0.7330  0.6939
  826MOL0     H13923   6.891  10.736   9.212  0.1352 -2.9003 -1.2485
  826MOL0     H13924   6.804  10.718   9.372 -4.8843 -1.6872  0.1335
  826MOL0     H13925   6.824  10.464   9.338  1.1815 -0.7923 -0.1124
  826MOL0     H13926   6.894  10.492   9.189  0.0821 -0.0235  0.5826
  826MOL0     H13927   7.084  10.571   9.280 -2.4718 -2.5030 -2.8272
  826MOL0     H13928   7.004  10.624   9.439  1.4887 -1.4121  1.5324
  826MOL0     H13929   6.970  10.383   9.501  1.9245 -1.5013  0.9811
  826MOL0     H13930   7.132  10.435   9.495  0.5348 -2.7914 -0.2627
  826MOL0     H13931   7.085  10.204   9.406 -0.5576 -2.1962 -1.6086
  826MOL0     H13932   6.981  10.277   9.280 -1.3279 -1.3898  2.6167
  826MOL0     H13933   7.276  10.351   9.291  0.7242  0.2212 -1.5770
  826MOL0     H13934   7.153  10.345   9.154 -2.9199 -1.6565  0.1838
  826MOL0     H13935   7.268  10.087   9.282  1.4820  2.1469  1.2788
  826MOL0     H13936   7.147  10.114   9.156 -0.8685  4.3121 -2.2823
  826MOL0     H13937   7.219  10.209   8.941 -1.3221 -1.1543  2.2146
  826MOL0     H13938   7.411  10.091   8.706 -0.7800 -0.3593 -0.4331
  826MOL0     H13939   7.556  10.181   8.728 -0.5911 -2.4923 -3.4528
  826MOL0     H13940   7.410  10.335   8.601 -0.8659 -1.2531 -0.2408
  826MOL0     H13941   7.277  10.308   8.694  0.6754  0.4398  1.6350
  826MOL0     H13942   7.359  10.528   8.734 -0.6091 -0.0075  1.2375
  826MOL0     H13943   7.341  10.452   8.888 -0.1357  0.6253  0.0798
  826MOL0     H13944   7.561  10.581   8.845 -1.9298 -0.2318  1.2520
  826MOL0     H13945   7.600  10.417   8.893 -4.4416  0.8403  3.5386
  826MOL0     H13946   7.778  10.543   8.918 -0.5578  0.9363 -0.6243
  826MOL0     H13947   8.068  10.456   8.982  3.8623  0.4607 -3.5223
  826MOL0     H13948   7.971  10.607   9.024 -1.4236  2.5679 -3.6332
  826MOL0     H13949   8.134  10.613   8.946 -0.9004  2.8565 -2.5563
  826MOL0     H13950   8.408  10.717   8.586 -1.2272 -1.9554  2.8554
  826MOL0     H13951   8.662  10.705   8.524  2.0322 -1.3350  0.3214
  826MOL0     H13952   8.809  10.308   8.367 -1.9338 -1.4575 -5.3778
  826MOL0     H13953   8.758  10.427   8.250  0.7344  0.4053 -1.3328
  826MOL0     H13954   8.982  10.391   8.192  0.1810 -0.4292 -0.7845
  826MOL0     H13955   8.983  10.535   8.276  0.1304 -0.7535  1.7361
  826MOL0     H13956   9.051  10.285   8.436 -1.5973 -0.9102 -1.5782
  826MOL0     H13957   9.072  10.460   8.486  1.6556 -0.5472  0.7246
  826MOL0     H13958   9.227  10.499   8.292  2.4631 -0.0398  1.3034
  826MOL0     H13959   9.243  10.331   8.270  2.2461  0.0320 -0.6148
  826MOL0     H13960   9.337  10.496   8.500  2.8239 -0.1551 -0.5920
  826MOL0     H13961   9.300  10.320   8.522  0.1137 -0.1126  0.3421
  826MOL0     H13962   9.499  10.451   8.335  0.9135 -0.4299  0.4027
  826MOL0     H13963   9.459  10.280   8.332 -1.5110  0.2699  1.3326
  826MOL0     H13964   9.531  10.246   8.547 -1.6207  0.1116 -1.5479
  826MOL0     H13965   9.541  10.415   8.595 -3.5197 -2.2857  1.0662
  826MOL0     H13966   9.754  10.261   8.532  2.4069  1.3262 -1.3884
  826MOL0     H13967   9.745  10.436   8.500  3.2967  0.2641 -1.6619
  826MOL0     H13968   8.608  10.287   8.457 -0.4865 -0.4037  0.4507
  826MOL0     H13969   8.369  10.307   8.483 -1.7923  1.6614 -1.3748
  826MOL0     H13970   8.017  10.473   8.487 -2.0290 -5.8135 -0.0644
  826MOL0     H13971   7.805  10.421   8.496  2.7370 -0.1730 -2.0894
  826MOL0     H13972   6.498  10.512   9.053  0.3218 -3.2128  0.2073
  826MOL0     H13973   6.276  10.500   8.997 -0.0580 -0.9322  0.6742
  826MOL0     H13974   5.878  10.640   9.029 -1.7312  0.4767  0.5929
  826MOL0     H13975   5.660  10.660   8.921 -2.3078 -0.6351 -0.5215
  826MOL0     H13976   5.385  10.300   8.962 -1.4398 -0.1728 -0.0432
  826MOL0     H13977   5.318  10.409   8.833  0.0119  2.2017  1.7339
  826MOL0     H13978   5.543  10.217   8.829  0.2989 -0.4142  0.5607
  826MOL0     H13979   5.544  10.342   8.705 -0.9412 -1.4521 -1.0350
  826MOL0     H13980   5.323  10.151   8.745  0.2708  0.4806  1.3541
  826MOL0     H13981   5.326  10.287   8.626  0.7626  2.2679  1.2291
  826MOL0     H13982   5.384  10.058   8.540  2.5933  0.4920 -4.4536
  826MOL0     H13983   5.516  10.051   8.651  0.1669 -1.4980 -2.2027
  826MOL0     H13984   5.655  10.290   8.314 -0.1431 -1.1073 -0.5528
  826MOL0     H13985   5.573  10.272   9.064  0.1594 -2.3480 -3.1147
  826MOL0     H13986   5.852  10.144   9.142  0.8197  0.4231  0.6071
  826MOL0     H13987   5.818  10.242   9.292  1.2040  3.3669  0.1593
  826MOL0     H13988   5.691  10.160   9.205 -0.6947  2.0812  1.5749
  827MOL0     O13989   6.037   7.323   7.300 -0.5404 -0.4999 -0.8283
  827MOL0     C13990   5.978   7.401   7.377  0.4256 -0.0013 -1.5142
  827MOL0     O13991   5.957   7.530   7.353 -0.6041 -0.5754  0.1819
  827MOL0     C13992   6.050   7.607   7.285  0.2773  0.8504 -0.0574
  827MOL0     C13993   6.001   7.735   7.228 -0.9377 -0.2533 -0.5458
  827MOL0     C13994   6.096   7.815   7.151 -0.2053 -0.3828  0.4268
  827MOL0     C13995   6.226   7.777   7.129  0.3053  0.6850 -0.2901
  827MOL0     O13996   6.323   7.858   7.079  0.3831 -0.3967  0.8200
  827MOL0     C13997   6.373   7.831   6.940  0.2865 -0.6743  0.2632
  827MOL0     C13998   6.510   7.768   6.942 -0.0785 -0.0846  0.7547
  827MOL0     C13999   6.599   7.866   7.021 -0.6563 -0.1943 -0.1008
  827MOL0     C14000   6.737   7.809   7.043  0.5775  0.0735 -0.2066
  827MOL0     C14001   6.810   7.881   7.158  0.2297  0.4119 -0.1879
  827MOL0     C14002   6.943   7.818   7.198 -0.4381  0.4756 -0.4759
  827MOL0     C14003   6.997   7.902   7.315 -0.3276 -0.2510  0.1218
  827MOL0     C14004   7.148   7.874   7.339  0.4956  1.0546 -1.0949
  827MOL0     N14005   7.191   7.910   7.475  0.1681 -0.2416  0.0471
  827MOL0     C14006   7.290   7.846   7.544  0.4073 -0.3301  0.5881
  827MOL0     C14007   7.268   7.884   7.672  0.1588  0.1508  0.1075
  827MOL0     C14008   7.357   7.871   7.801 -0.0463 -0.4586  0.8428
  827MOL0     C14009   7.444   8.000   7.817 -0.2122  0.1049  0.0168
  827MOL0     C14010   7.550   8.023   7.705  0.4834  0.0163  0.4281
  827MOL0     C14011   7.623   8.153   7.726 -0.2018 -0.1939 -1.3349
  827MOL0     O14012   7.671   8.209   7.608 -0.2315  0.7321 -0.2502
  827MOL0     C14013   7.612   8.314   7.542  0.4593  0.3313 -0.0856
  827MOL0     C14014   7.674   8.415   7.471 -0.1437 -0.3531 -0.4241
  827MOL0     C14015   7.593   8.519   7.418  0.8542 -1.3713 -0.0932
  827MOL0     C14016   7.672   8.624   7.347  0.2627  0.5896  0.1086
  827MOL0     C14017   7.453   8.520   7.431 -0.0879  0.4871 -0.0605
  827MOL0     C14018   7.369   8.637   7.389  0.0504 -0.2311  0.3519
  827MOL0     O14019   7.229   8.609   7.379 -0.2234  0.6643  0.5990
  827MOL0     C14020   7.129   8.697   7.337  0.1979  0.2579 -1.0828
  827MOL0     C14021   7.153   8.813   7.263 -0.0255  0.3590  0.1681
  827MOL0     C14022   7.050   8.888   7.207  0.1645 -0.5272 -0.6169
  827MOL0     C14023   6.919   8.855   7.225 -0.0714  0.0067 -0.2817
  827MOL0     O14024   6.835   8.945   7.172  0.8180  0.2237 -0.3305
  827MOL0     C14025   6.691   8.914   7.199  0.0788 -0.1473  0.8857
  827MOL0     C14026   6.599   9.031   7.143  0.3250  0.2762  0.6859
  827MOL0     C14027   6.448   8.990   7.139  0.1143  0.1182  0.0332
  827MOL0     C14028   6.430   8.886   7.033  0.1097  0.4097 -0.1285
  827MOL0     C14029   6.283   8.877   7.004 -0.6853  0.1600 -0.5863
  827MOL0     C14030   6.252   8.771   6.894 -0.0482  0.3980 -0.1682
  827MOL0     C14031   6.124   8.817   6.827  0.8203 -1.1927 -0.3746
  827MOL0     C14032   6.076   8.706   6.730  0.7254  0.1335  0.2419
  827MOL0    Cl14033   6.057   8.546   6.825  0.6158  0.1912  0.1050
  827MOL0     C14034   6.892   8.739   7.305 -0.0992  0.6536  0.6263
  827MOL0     C14035   6.995   8.664   7.350  0.3405  0.1095 -0.0334
  827MOL0     O14036   7.420   8.750   7.374 -0.8878 -0.9174  0.0124
  827MOL0     C14037   7.386   8.403   7.475 -0.6684  0.5463  0.4381
  827MOL0     C14038   7.465   8.303   7.529 -0.7156 -0.1552  0.2911
  827MOL0     N14039   7.158   7.972   7.678  0.4972  0.5301 -0.2970
  827MOL0     N14040   7.119   7.991   7.558  0.2139 -0.2371 -0.3069
  827MOL0     C14041   6.274   7.662   7.187 -0.0461 -0.3916 -0.5443
  827MOL0     C14042   6.186   7.572   7.254  0.1179  0.9081  0.2597
  827MOL0     C14043   5.919   7.343   7.498  0.5332  0.3064 -0.2382
  827MOL0     C14044   5.918   7.202   7.516  0.0753  0.4598 -0.6071
  827MOL0     C14045   5.870   7.144   7.634  0.5011 -0.0866  0.7361
  827MOL0     C14046   5.833   7.225   7.740 -0.8436 -0.6497 -0.4583
  827MOL0     O14047   5.783   7.176   7.857 -0.0081 -0.0414  0.4466
  827MOL0     C14048   5.650   7.214   7.880  0.4764 -0.4751 -0.1891
  827MOL0     C14049   5.579   7.095   7.944  0.0305 -0.2251 -0.0329
  827MOL0     C14050   5.584   7.099   8.100  0.2369 -0.2334  0.5361
  827MOL0     C14051   5.561   6.968   8.158  0.1920  0.1312  0.1533
  827MOL0     C14052   5.673   6.874   8.133 -1.0142 -0.7062  0.1628
  827MOL0     C14053   5.764   6.795   8.112  0.0306  0.4394  0.3269
  827MOL0     C14054   5.839   7.362   7.723 -0.0529 -0.0136  0.1892
  827MOL0     C14055   5.873   7.422   7.607  0.0918 -0.7007  0.6518
  827MOL0     C14056   5.871   7.570   7.617  0.3469 -0.6640 -0.4172
  827MOL0     H14057   5.906   7.776   7.260  0.6085  3.4731 -0.2540
  827MOL0     H14058   6.074   7.913   7.109 -3.3515 -1.5425 -0.9050
  827MOL0     H14059   6.374   7.932   6.898 -1.7819 -0.5990  0.3156
  827MOL0     H14060   6.305   7.762   6.889 -0.1672 -0.0398  0.0013
  827MOL0     H14061   6.515   7.669   6.990  1.5528 -1.6120 -2.2539
  827MOL0     H14062   6.543   7.749   6.839  1.3465  0.7338  1.0448
  827MOL0     H14063   6.618   7.962   6.972 -0.7768 -0.4375 -0.6362
  827MOL0     H14064   6.551   7.884   7.117 -2.1343 -0.8916 -0.6736
  827MOL0     H14065   6.743   7.705   7.077  3.7410  0.7135  1.6002
  827MOL0     H14066   6.796   7.819   6.952  0.4086  1.7109 -0.1753
  827MOL0     H14067   6.755   7.868   7.252  1.2137 -1.2426  0.2028
  827MOL0     H14068   6.820   7.987   7.135  2.2461  0.6624  1.5616
  827MOL0     H14069   6.926   7.715   7.232  0.3820  0.5885  0.3209
  827MOL0     H14070   7.007   7.819   7.109  1.3334 -1.5689  0.6696
  827MOL0     H14071   6.936   7.877   7.403 -1.3354 -2.2355 -1.0578
  827MOL0     H14072   6.983   8.007   7.287 -0.8703 -0.7753 -1.7038
  827MOL0     H14073   7.165   7.766   7.338 -0.0417  0.9557 -0.2683
  827MOL0     H14074   7.212   7.919   7.262  1.2567 -0.3988 -1.3415
  827MOL0     H14075   7.370   7.784   7.505 -0.2176 -0.1314 -1.1234
  827MOL0     H14076   7.429   7.789   7.790  1.9609  1.3414 -0.1029
  827MOL0     H14077   7.305   7.859   7.896 -2.5681 -0.4550 -0.4551
  827MOL0     H14078   7.378   8.087   7.825 -1.3906 -0.7316 -0.2806
  827MOL0     H14079   7.500   7.983   7.909  1.2366  0.7472 -0.7212
  827MOL0     H14080   7.627   7.945   7.705  0.7901  0.3082  1.7347
  827MOL0     H14081   7.515   8.017   7.601  0.4964 -0.3670  0.4428
  827MOL0     H14082   7.573   8.231   7.785  0.4558 -1.3008  0.7660
  827MOL0     H14083   7.706   8.130   7.794  0.3034  2.9095 -0.7051
  827MOL0     H14084   7.782   8.418   7.472 -0.0746 -1.3580 -1.9070
  827MOL0     H14085   7.633   8.634   7.245 -0.2528  2.3056  0.4311
  827MOL0     H14086   7.774   8.589   7.362 -0.7800 -1.4921  3.6473
  827MOL0     H14087   7.665   8.723   7.394  1.4272  1.0287 -0.5954
  827MOL0     H14088   7.250   8.850   7.230  1.2199 -2.9785 -0.2696
  827MOL0     H14089   7.071   8.984   7.160 -0.9435 -0.0068 -0.0726
  827MOL0     H14090   6.663   8.819   7.154  3.0213  0.1121 -1.8847
  827MOL0     H14091   6.678   8.912   7.308  0.3533 -2.2440  0.9196
  827MOL0     H14092   6.616   9.120   7.204 -1.9593  0.8630  0.5535
  827MOL0     H14093   6.634   9.059   7.043  0.1700 -0.2375  0.4798
  827MOL0     H14094   6.384   9.078   7.130 -2.4900 -1.3781  2.3980
  827MOL0     H14095   6.415   8.949   7.235 -1.2805  0.8094 -0.1352
  827MOL0     H14096   6.469   8.785   7.051 -1.4467 -0.0916  0.5440
  827MOL0     H14097   6.466   8.926   6.938  0.8117  1.5268  0.5861
  827MOL0     H14098   6.238   8.845   7.099  1.3526 -0.1263  0.3377
  827MOL0     H14099   6.251   8.976   6.972 -1.1462 -0.3474 -1.7455
  827MOL0     H14100   6.246   8.676   6.948  3.1903  0.2700  0.1973
  827MOL0     H14101   6.342   8.774   6.832  0.0580  3.4630  0.0112
  827MOL0     H14102   6.137   8.909   6.770 -3.0892 -0.2617  0.0118
  827MOL0     H14103   6.052   8.833   6.908 -0.3872  2.1244 -1.9353
  827MOL0     H14104   6.147   8.683   6.651 -1.6268 -0.3774 -1.8710
  827MOL0     H14105   5.977   8.729   6.689  1.5524 -0.4184 -2.2631
  827MOL0     H14106   6.792   8.698   7.316  1.1257 -2.3259  1.4995
  827MOL0     H14107   6.969   8.571   7.399 -2.2349  0.3703 -0.7803
  827MOL0     H14108   7.278   8.408   7.467 -0.5054  1.2555 -2.5501
  827MOL0     H14109   7.406   8.219   7.565 -1.8698 -0.4044 -2.0058
  827MOL0     H14110   6.375   7.625   7.174 -0.1293 -1.2945  1.1138
  827MOL0     H14111   6.226   7.477   7.288 -3.2187 -0.2107  1.4296
  827MOL0     H14112   5.969   7.131   7.451  1.5714 -0.2285  1.2187
  827MOL0     H14113   5.854   7.037   7.651  0.7346 -0.4616 -1.2365
  827MOL0     H14114   5.637   7.304   7.940  1.6251 -1.2206  1.2192
  827MOL0     H14115   5.600   7.230   7.784 -2.0366 -2.9347  0.5849
  827MOL0     H14116   5.622   6.999   7.912  1.7895  1.6966 -4.1769
  827MOL0     H14117   5.474   7.092   7.913 -0.7256  1.9873  2.0364
  827MOL0     H14118   5.680   7.139   8.131  0.4796 -0.7812  0.5110
  827MOL0     H14119   5.500   7.163   8.129 -1.3478 -1.6852 -0.5569
  827MOL0     H14120   5.480   6.914   8.110 -1.1421  0.1303  2.2808
  827MOL0     H14121   5.536   6.973   8.264  0.0549 -1.2136  0.1932
  827MOL0     H14122   5.843   6.724   8.102 -1.1261 -0.6893 -1.3863
  827MOL0     H14123   5.820   7.422   7.811 -2.6517 -0.4507  0.0190
  827MOL0     H14124   5.831   7.620   7.529 -0.2629 -0.0685  0.1906
  827MOL0     H14125   5.803   7.604   7.696  1.6444 -1.5632  1.1519
  827MOL0     H14126   5.971   7.608   7.640 -0.1294  2.2453 -2.6340
  828MOL0     O14127   9.072   7.893  11.257 -0.1822  0.6849 -0.2938
  828MOL0     C14128   9.035   7.810  11.345 -0.4886 -0.3293  0.4979
  828MOL0     O14129   9.135   7.737  11.417 -0.7523 -0.7016  0.1160
  828MOL0     C14130   9.267   7.721  11.373  0.0037  0.4097  0.0919
  828MOL0     C14131   9.371   7.714  11.477 -0.5891 -0.2179 -0.0819
  828MOL0     C14132   9.498   7.686  11.435 -0.1785 -0.3164 -0.5988
  828MOL0     C14133   9.531   7.669  11.301  0.2101  0.3722 -0.6962
  828MOL0     O14134   9.658   7.642  11.280  0.5838 -0.3623  0.3016
  828MOL0     C14135   9.702   7.661  11.143 -1.0913  0.9638  0.2943
  828MOL0     C14136   9.714   7.529  11.071 -1.0713  0.9302 -0.1988
  828MOL0     C14137   9.821   7.436  11.143 -0.3134  1.0222 -0.5219
  828MOL0     C14138   9.854   7.318  11.050 -0.0461 -1.6384  0.0596
  828MOL0     C14139   9.948   7.221  11.127 -0.0137 -0.6401 -0.1151
  828MOL0     C14140   9.949   7.086  11.066 -0.1176  0.3045  0.3082
  828MOL0     C14141  10.079   7.010  11.086  0.2736 -0.0336 -0.5852
  828MOL0     C14142  10.115   6.976  11.230 -1.3417 -0.5125  0.0650
  828MOL0     N14143  10.248   6.914  11.239 -0.0942  0.5816 -0.2178
  828MOL0     C14144  10.283   6.789  11.201  0.4283 -0.1009  0.6838
  828MOL0     C14145  10.417   6.790  11.220  0.4148  0.0788  0.1902
  828MOL0     C14146  10.513   6.674  11.218  0.5271 -0.8308 -0.1261
  828MOL0     C14147  10.638   6.706  11.129 -0.0273 -0.2990 -0.2773
  828MOL0     C14148  10.740   6.590  11.149  0.0629 -0.3003  0.0117
  828MOL0     C14149  10.797   6.583  11.298 -0.8922 -0.1059  0.7203
  828MOL0     O14150  10.931   6.518  11.286  0.5332 -0.0189 -0.1726
  828MOL0     C14151  11.037   6.599  11.250 -0.5885 -0.3737 -0.6201
  828MOL0     C14152  11.157   6.534  11.219  1.0196  0.2528  0.3629
  828MOL0     C14153  11.263   6.608  11.165 -0.3478  0.2024 -0.1950
  828MOL0     C14154  11.391   6.527  11.114 -0.5195  0.3577  0.7558
  828MOL0     C14155  11.264   6.750  11.145  0.6521 -0.1145 -0.3191
  828MOL0     C14156  11.388   6.825  11.110 -0.4953 -0.9670 -0.1618
  828MOL0     O14157  11.371   6.952  11.057 -0.2044  0.3097 -0.3297
  828MOL0     C14158  11.474   7.009  10.991 -0.5175 -0.7810  0.5670
  828MOL0     C14159  11.566   6.936  10.915 -0.3934  0.2345 -0.0206
  828MOL0     C14160  11.674   7.000  10.853 -0.0806 -0.1303 -0.5714
  828MOL0     C14161  11.688   7.140  10.869  0.7257 -0.1888  0.5362
  828MOL0     O14162  11.796   7.203  10.806 -0.0754 -0.0689  0.4075
  828MOL0     C14163  11.798   7.337  10.750 -0.1533  0.1802 -0.5125
  828MOL0     C14164  11.920   7.348  10.658 -0.2595 -0.5983  0.4178
  828MOL0     C14165  11.935   7.496  10.622 -0.2831  0.2991  0.3424
  828MOL0     C14166  12.009   7.519  10.496  0.6362 -0.0641  1.0165
  828MOL0     C14167  12.045   7.663  10.471  0.4104  0.1534  0.2465
  828MOL0     C14168  12.097   7.701  10.331  0.3050  0.4552  0.9176
  828MOL0     C14169  12.234   7.622  10.314  0.4227  0.4231  0.9752
  828MOL0     C14170  12.289   7.629  10.165  0.2969  0.0430  0.4059
  828MOL0    Cl14171  12.364   7.783  10.119 -0.0287  0.6010  0.0763
  828MOL0     C14172  11.586   7.216  10.935  0.1145 -0.1848 -0.6934
  828MOL0     C14173  11.482   7.148  10.995  0.0622  0.4709  0.3270
  828MOL0     O14174  11.499   6.772  11.132  0.4149 -0.3608  0.3421
  828MOL0     C14175  11.141   6.815  11.173 -0.1257  1.0264  0.0079
  828MOL0     C14176  11.032   6.736  11.224  0.2116 -1.0214  0.6743
  828MOL0     N14177  10.451   6.922  11.274 -0.0770 -0.2049 -0.5482
  828MOL0     N14178  10.348   6.984  11.292  0.2183  0.6026 -0.8209
  828MOL0     C14179   9.432   7.665  11.202 -0.3121 -0.8110 -0.1058
  828MOL0     C14180   9.304   7.705  11.236 -0.4282  0.5392  0.1542
  828MOL0     C14181   8.898   7.790  11.390  1.3209 -0.1927 -0.7830
  828MOL0     C14182   8.873   7.738  11.523 -0.1346  0.4688  0.2321
  828MOL0     C14183   8.743   7.718  11.576  0.6724  0.2338 -0.1531
  828MOL0     C14184   8.630   7.755  11.499  1.0259  0.1179  0.1282
  828MOL0     O14185   8.495   7.765  11.528 -0.2832  0.2321  0.5972
  828MOL0     C14186   8.462   7.768  11.663 -0.7989  0.3597  0.0458
  828MOL0     C14187   8.474   7.913  11.712  0.6385 -0.2946 -0.2273
  828MOL0     C14188   8.346   7.994  11.666 -0.4238 -0.7090  0.3547
  828MOL0     C14189   8.369   8.087  11.546  0.7828  0.7986  0.1605
  828MOL0     C14190   8.239   8.154  11.521  0.2504  0.2817  0.4455
  828MOL0     C14191   8.130   8.195  11.531 -0.3816 -0.3069 -0.0952
  828MOL0     C14192   8.659   7.794  11.366  0.8205 -0.0351  0.1569
  828MOL0     C14193   8.784   7.820  11.313  0.2722  0.5154  0.1556
  828MOL0     C14194   8.788   7.890  11.175  0.0044  0.0263 -0.4302
  828MOL0     H14195   9.363   7.730  11.584  3.3590 -0.6236  0.4026
  828MOL0     H14196   9.574   7.690  11.512  0.6417  3.0834 -1.3978
  828MOL0     H14197   9.802   7.706  11.148 -0.5138 -0.3130  0.6750
  828MOL0     H14198   9.640   7.734  11.090  0.1236  1.0605 -1.0827
  828MOL0     H14199   9.619   7.475  11.066 -1.9628  2.4172  0.0871
  828MOL0     H14200   9.757   7.551  10.974  0.0063  4.0289  0.8566
  828MOL0     H14201   9.914   7.489  11.165  0.8026 -0.4918 -1.3740
  828MOL0     H14202   9.775   7.390  11.231  1.6763  1.7000  0.9411
  828MOL0     H14203   9.763   7.269  11.015 -1.6411  1.2211 -0.1093
  828MOL0     H14204   9.915   7.349  10.965 -1.2259 -3.4659 -1.5408
  828MOL0     H14205   9.942   7.214  11.236  3.3366  2.2421  0.4479
  828MOL0     H14206  10.052   7.252  11.113 -0.0722  0.2461  1.1665
  828MOL0     H14207   9.877   7.016  11.108 -1.8145  0.5957 -1.8988
  828MOL0     H14208   9.913   7.085  10.963 -0.7440  0.6587  0.5200
  828MOL0     H14209  10.157   7.078  11.051  1.6974 -0.6341  1.2373
  828MOL0     H14210  10.065   6.920  11.025 -0.6095 -0.4231  0.1520
  828MOL0     H14211  10.112   7.064  11.295  0.8041 -0.1048 -0.3111
  828MOL0     H14212  10.044   6.909  11.280 -0.3798 -1.1310  0.6253
  828MOL0     H14213  10.217   6.704  11.186  0.2197 -0.0391  1.2511
  828MOL0     H14214  10.468   6.576  11.201  0.0057 -0.2546 -2.2602
  828MOL0     H14215  10.551   6.673  11.321  0.2968 -1.1459 -0.0437
  828MOL0     H14216  10.598   6.713  11.028  0.1123 -0.9170 -0.3802
  828MOL0     H14217  10.686   6.800  11.158  0.9000 -0.5515 -0.9271
  828MOL0     H14218  10.692   6.503  11.103  1.8356 -1.0562 -0.5182
  828MOL0     H14219  10.829   6.604  11.086 -0.6325  0.7064 -0.7805
  828MOL0     H14220  10.797   6.678  11.354 -1.5301  0.0704  0.4304
  828MOL0     H14221  10.743   6.516  11.365 -0.9651  0.5058  1.2808
  828MOL0     H14222  11.158   6.428  11.239  1.5365  0.0139 -0.8527
  828MOL0     H14223  11.369   6.422  11.133  2.2148 -0.1954  1.2865
  828MOL0     H14224  11.481   6.535  11.175 -0.0760 -2.6896  0.6597
  828MOL0     H14225  11.416   6.547  11.009  0.5755 -0.0443  0.9242
  828MOL0     H14226  11.542   6.831  10.901 -2.4054  0.4612  1.2434
  828MOL0     H14227  11.747   6.946  10.794 -1.6107 -0.2174 -2.5090
  828MOL0     H14228  11.704   7.364  10.701 -0.0307  0.4158 -0.6185
  828MOL0     H14229  11.821   7.407  10.830 -1.8506  0.4368 -0.2065
  828MOL0     H14230  12.016   7.319  10.701  1.9539  2.8623 -1.6162
  828MOL0     H14231  11.896   7.289  10.569 -0.9104 -0.4037  0.4561
  828MOL0     H14232  11.991   7.543  10.703  0.8804  0.1743 -0.3645
  828MOL0     H14233  11.835   7.540  10.614  0.1853  1.0489 -3.0243
  828MOL0     H14234  11.942   7.483  10.417  1.4181 -3.9656  1.9165
  828MOL0     H14235  12.102   7.462  10.491 -1.1085 -3.0122 -0.3031
  828MOL0     H14236  11.957   7.725  10.489 -2.6108 -2.7499 -3.2106
  828MOL0     H14237  12.122   7.688  10.545  1.6030 -0.6067 -0.6908
  828MOL0     H14238  12.108   7.808  10.310 -1.1520  0.3099 -0.9102
  828MOL0     H14239  12.022   7.673  10.256  1.3467  1.2550 -0.4895
  828MOL0     H14240  12.217   7.515  10.331 -0.6886  0.4825  0.3727
  828MOL0     H14241  12.310   7.657  10.384  1.0238 -0.5062  0.8203
  828MOL0     H14242  12.209   7.629  10.090  0.2751  2.6949  0.3491
  828MOL0     H14243  12.357   7.544  10.149  1.0232  0.5903  0.5252
  828MOL0     H14244  11.601   7.322  10.950  2.0014 -0.4737 -0.2094
  828MOL0     H14245  11.404   7.189  11.058 -2.2845 -3.6597  0.4616
  828MOL0     H14246  11.143   6.923  11.159 -0.4944  1.4251  2.5919
  828MOL0     H14247  10.943   6.795  11.243  0.5441  0.6622 -2.3496
  828MOL0     H14248   9.454   7.624  11.104 -1.3763 -2.5571  0.3352
  828MOL0     H14249   9.225   7.716  11.162 -0.5621  2.0529  0.4938
  828MOL0     H14250   8.961   7.705  11.578  2.9469  1.9593 -3.3555
  828MOL0     H14251   8.728   7.679  11.677 -0.3809  3.1541  0.9376
  828MOL0     H14252   8.359   7.730  11.663 -0.0634 -1.9290  2.5748
  828MOL0     H14253   8.509   7.699  11.734  0.4355  0.1315 -0.9754
  828MOL0     H14254   8.559   7.961  11.663  0.1353  1.2438  0.3681
  828MOL0     H14255   8.495   7.929  11.819 -1.7607  0.7413  0.1573
  828MOL0     H14256   8.265   7.925  11.642 -0.5606 -0.1753 -0.7531
  828MOL0     H14257   8.319   8.064  11.746  2.2525  1.2398 -0.2980
  828MOL0     H14258   8.396   8.038  11.452 -1.3034  0.6202 -0.3837
  828MOL0     H14259   8.451   8.153  11.576  2.2708 -0.6132 -0.6418
  828MOL0     H14260   8.033   8.238  11.544 -1.0884 -1.0393 -2.4579
  828MOL0     H14261   8.566   7.818  11.315  1.6926  4.3173  0.2620
  828MOL0     H14262   8.732   7.984  11.181  0.4452  0.3256 -0.9625
  828MOL0     H14263   8.883   7.892  11.122  0.1323 -1.9366 -0.3359
  828MOL0     H14264   8.726   7.833  11.105 -3.0422  2.0544  0.3854
  829MOL0     O14265   1.973   4.128  10.098  0.0206  0.1948 -0.0555
  829MOL0     C14266   2.072   4.107  10.029 -0.0744 -0.8795 -0.1108
  829MOL0     O14267   2.156   4.206   9.978 -0.1193 -0.2210  0.6882
  829MOL0     C14268   2.125   4.340   9.999  0.6916 -0.6211  0.2029
  829MOL0     C14269   2.150   4.423   9.893 -0.5747  0.7058  1.0040
  829MOL0     C14270   2.139   4.567   9.902 -0.5677  0.0905  0.4941
  829MOL0     C14271   2.097   4.625  10.021 -0.0109  0.2609 -0.1515
  829MOL0     O14272   2.058   4.747  10.040  0.6072 -0.4261  0.1002
  829MOL0     C14273   2.086   4.857   9.946 -0.1242  0.0823 -0.0905
  829MOL0     C14274   1.994   4.854   9.821 -0.1046 -0.0921 -0.0950
  829MOL0     C14275   1.841   4.863   9.864 -0.0704  0.9630  0.0715
  829MOL0     C14276   1.745   4.871   9.745  1.2383  0.0161 -0.5169
  829MOL0     C14277   1.604   4.914   9.796  0.3989  0.2004  0.5901
  829MOL0     C14278   1.494   4.924   9.691  0.8686  0.2301  0.6685
  829MOL0     C14279   1.355   4.952   9.751  0.0528  0.1854 -0.2249
  829MOL0     C14280   1.252   4.979   9.641  0.5936  0.5442  0.0068
  829MOL0     N14281   1.260   5.112   9.582  0.5825 -0.1264  0.4765
  829MOL0     C14282   1.256   5.112   9.444  0.0258  0.6122 -0.5278
  829MOL0     C14283   1.220   5.238   9.411  0.0496  0.1229  0.1259
  829MOL0     C14284   1.211   5.299   9.269  0.6745 -0.1537  0.0615
  829MOL0     C14285   1.327   5.382   9.208 -0.1074  0.6758 -0.1096
  829MOL0     C14286   1.369   5.509   9.289  0.3714 -0.0040  0.3481
  829MOL0     C14287   1.468   5.598   9.217  0.2596  0.6665 -0.0722
  829MOL0     O14288   1.596   5.531   9.209  0.8797 -0.8047 -0.1481
  829MOL0     C14289   1.682   5.547   9.099  0.0532  0.0736  0.3855
  829MOL0     C14290   1.783   5.457   9.101  0.0323  0.1198  0.5379
  829MOL0     C14291   1.890   5.454   9.008 -0.6361 -0.3980  0.4564
  829MOL0     C14292   2.017   5.371   9.040  0.1274 -0.5918 -0.6623
  829MOL0     C14293   1.882   5.538   8.898 -0.3437 -0.4330  0.0915
  829MOL0     C14294   1.977   5.553   8.788  0.0098  0.7592  0.5848
  829MOL0     O14295   1.993   5.674   8.727  0.1969  1.2265 -0.4164
  829MOL0     C14296   2.090   5.689   8.637 -0.7208 -0.3299 -0.5910
  829MOL0     C14297   2.212   5.742   8.664  0.0058  0.1241  0.0910
  829MOL0     C14298   2.307   5.761   8.567 -0.1326 -0.0033 -0.3632
  829MOL0     C14299   2.293   5.713   8.441  0.3915 -0.5624  0.3739
  829MOL0     O14300   2.405   5.707   8.367  0.1463 -0.7205 -0.3790
  829MOL0     C14301   2.396   5.644   8.236 -0.1195 -0.0495 -0.5598
  829MOL0     C14302   2.520   5.689   8.154  0.5089  0.1701  0.2286
  829MOL0     C14303   2.651   5.614   8.201  0.5660 -0.0835 -0.3124
  829MOL0     C14304   2.778   5.644   8.124  0.7421 -0.1567 -0.6448
  829MOL0     C14305   2.906   5.583   8.185 -0.2577  0.0989  0.5985
  829MOL0     C14306   3.024   5.615   8.096  0.3657 -0.5513 -1.6363
  829MOL0     C14307   3.159   5.561   8.157 -0.1116  0.0700  0.5091
  829MOL0     C14308   3.290   5.588   8.078 -0.4418  0.7130  0.4644
  829MOL0    Cl14309   3.314   5.766   8.061  0.1405  0.2225 -0.1195
  829MOL0     C14310   2.160   5.656   8.418  0.1666 -0.8719  0.0157
  829MOL0     C14311   2.067   5.636   8.516 -0.0440  0.1369 -0.0839
  829MOL0     O14312   2.037   5.451   8.766  0.8059  0.0190  1.1408
  829MOL0     C14313   1.775   5.638   8.899  0.1428  0.9529  0.4344
  829MOL0     C14314   1.678   5.646   9.001  0.4590 -0.2406  0.3702
  829MOL0     N14315   1.201   5.304   9.528 -0.0970  0.5893  0.1192
  829MOL0     N14316   1.219   5.226   9.632  0.0230 -0.1825 -0.5236
  829MOL0     C14317   2.065   4.544  10.124  0.3291 -0.4557 -0.0935
  829MOL0     C14318   2.080   4.402  10.120  0.1228  0.3315  0.2653
  829MOL0     C14319   2.111   3.971   9.995  0.0794  0.6650 -0.1783
  829MOL0     C14320   2.201   3.944   9.887 -0.0440 -0.3664  0.2262
  829MOL0     C14321   2.235   3.822   9.834  1.3808 -0.7190  0.0473
  829MOL0     C14322   2.180   3.719   9.907 -0.7799 -0.8231  0.9107
  829MOL0     O14323   2.193   3.589   9.879  0.2008 -0.8158  0.3147
  829MOL0     C14324   2.239   3.543   9.755  0.1064 -0.8738 -0.1613
  829MOL0     C14325   2.169   3.414   9.708  0.0928  0.3523 -0.2462
  829MOL0     C14326   2.212   3.298   9.804 -0.7053 -0.4784 -0.2964
  829MOL0     C14327   2.128   3.271   9.930  0.5727 -0.0530 -0.5378
  829MOL0     C14328   2.177   3.165  10.022  0.6545  0.6575  0.7559
  829MOL0     C14329   2.222   3.081  10.088  0.3051 -0.6439 -0.4383
  829MOL0     C14330   2.108   3.733  10.024  0.2832  0.3538 -0.7825
  829MOL0     C14331   2.062   3.856  10.069 -0.1452 -0.0398  0.0136
  829MOL0     C14332   1.974   3.854  10.191 -0.1148  0.1719 -0.2584
  829MOL0     H14333   2.186   4.372   9.805  1.6371 -0.6563  2.6008
  829MOL0     H14334   2.165   4.627   9.815  2.0006 -1.4639  0.0604
  829MOL0     H14335   2.189   4.858   9.909 -0.3803  1.2281 -0.8270
  829MOL0     H14336   2.064   4.950  10.000 -2.7870 -0.4085 -0.1770
  829MOL0     H14337   2.026   4.945   9.770  0.0370  0.7951  1.5087
  829MOL0     H14338   2.014   4.768   9.756  4.0346 -0.6688  1.6436
  829MOL0     H14339   1.822   4.773   9.922  2.3687 -0.5454 -1.2979
  829MOL0     H14340   1.828   4.952   9.926  1.0097  1.5676 -0.5307
  829MOL0     H14341   1.791   4.940   9.673  0.0573  0.1442 -1.1805
  829MOL0     H14342   1.742   4.782   9.682 -0.7442  0.4238 -1.0620
  829MOL0     H14343   1.605   5.007   9.853 -1.4894  1.3539 -1.1583
  829MOL0     H14344   1.576   4.839   9.871  1.5031 -0.1058  0.7141
  829MOL0     H14345   1.517   4.994   9.610  0.4958 -1.2338 -0.7606
  829MOL0     H14346   1.489   4.823   9.649  1.0896  0.7908 -0.7476
  829MOL0     H14347   1.345   5.042   9.812  1.1872  0.9076 -1.0575
  829MOL0     H14348   1.330   4.869   9.818 -2.1859  1.7041  0.9526
  829MOL0     H14349   1.253   4.894   9.572  0.1754 -0.1486  0.8265
  829MOL0     H14350   1.157   4.961   9.692  1.6237 -0.1976  1.7633
  829MOL0     H14351   1.278   5.034   9.373  3.7518  0.5830  0.4558
  829MOL0     H14352   1.123   5.364   9.270  0.5344 -0.2159 -2.0730
  829MOL0     H14353   1.184   5.229   9.190  0.3846  0.4046 -0.3467
  829MOL0     H14354   1.410   5.311   9.200 -1.2499 -0.8369  0.9175
  829MOL0     H14355   1.296   5.408   9.106 -0.2744 -1.1891 -0.5674
  829MOL0     H14356   1.274   5.563   9.293 -0.2951 -1.0252 -0.8800
  829MOL0     H14357   1.405   5.488   9.390 -0.4247 -0.6978  0.4920
  829MOL0     H14358   1.422   5.608   9.117 -0.8663 -0.4256  0.3084
  829MOL0     H14359   1.480   5.696   9.263  0.1209  0.3287  0.7021
  829MOL0     H14360   1.777   5.387   9.183  1.7772 -1.4233 -0.5528
  829MOL0     H14361   2.099   5.443   9.034 -0.6976  0.5041  0.7346
  829MOL0     H14362   2.032   5.285   8.974  0.7860 -0.7683 -0.2843
  829MOL0     H14363   2.026   5.328   9.140  1.0884 -0.9085 -0.8723
  829MOL0     H14364   2.240   5.787   8.758 -2.0498  1.0374  0.3246
  829MOL0     H14365   2.400   5.808   8.597  0.6094 -1.6993  0.0534
  829MOL0     H14366   2.401   5.538   8.259  1.9829  0.4225  1.5842
  829MOL0     H14367   2.301   5.677   8.193  0.9689  3.4021 -0.6778
  829MOL0     H14368   2.494   5.671   8.049 -0.5232 -0.5013  0.5888
  829MOL0     H14369   2.554   5.793   8.166 -0.9239  0.6660  0.2030
  829MOL0     H14370   2.631   5.507   8.192  0.5861 -0.4059  2.5504
  829MOL0     H14371   2.666   5.646   8.304 -2.6842  0.7556  0.0042
  829MOL0     H14372   2.788   5.753   8.116 -1.3938  0.7255  4.4648
  829MOL0     H14373   2.763   5.613   8.021  0.4506 -0.4879 -0.5036
  829MOL0     H14374   2.917   5.627   8.285 -1.7764  2.4647 -0.1892
  829MOL0     H14375   2.894   5.475   8.175 -0.4652  0.2858 -1.7265
  829MOL0     H14376   3.023   5.724   8.103  1.2352 -0.6637  1.6628
  829MOL0     H14377   3.017   5.577   7.993 -3.3257 -0.4778 -1.5632
  829MOL0     H14378   3.143   5.453   8.160 -0.4446  0.0555 -1.1166
  829MOL0     H14379   3.167   5.604   8.257  0.8515  0.3887  0.3025
  829MOL0     H14380   3.271   5.534   7.985 -2.1295 -2.8523  2.6863
  829MOL0     H14381   3.370   5.531   8.126 -1.1943  0.3828  1.3516
  829MOL0     H14382   2.140   5.605   8.324 -2.2857  0.5060 -0.3045
  829MOL0     H14383   1.969   5.603   8.485  0.3880 -0.5378 -0.7429
  829MOL0     H14384   1.775   5.715   8.822  0.8831  0.3864 -0.1486
  829MOL0     H14385   1.590   5.710   9.002 -0.1658 -1.0520 -0.7548
  829MOL0     H14386   2.016   4.582  10.212 -0.8510  0.3911 -1.0801
  829MOL0     H14387   2.065   4.342  10.209  1.1302 -0.5465 -0.1375
  829MOL0     H14388   2.245   4.031   9.839  1.0098 -0.9589  0.0913
  829MOL0     H14389   2.296   3.804   9.746 -0.3470  2.3202 -1.9496
  829MOL0     H14390   2.218   3.619   9.679 -1.3586  0.7955  1.8075
  829MOL0     H14391   2.347   3.529   9.766  0.0106 -4.2550 -2.1199
  829MOL0     H14392   2.216   3.398   9.610 -1.6096 -0.1402 -1.0318
  829MOL0     H14393   2.061   3.433   9.708 -0.1888 -1.0902 -0.7719
  829MOL0     H14394   2.215   3.206   9.746  0.0244  0.6547 -2.1685
  829MOL0     H14395   2.310   3.321   9.849 -0.3264  0.8719 -1.6929
  829MOL0     H14396   2.035   3.226   9.894  0.0103  0.2519  0.5009
  829MOL0     H14397   2.091   3.365   9.973  1.3762  0.6865 -1.3972
  829MOL0     H14398   2.249   3.001  10.154 -0.2345 -0.5940 -0.1516
  829MOL0     H14399   2.096   3.642  10.081  0.6299  0.3454 -0.7187
  829MOL0     H14400   1.872   3.872  10.154  0.0729 -0.1232 -0.9286
  829MOL0     H14401   1.991   3.760  10.243 -0.6558  0.3262  0.2025
  829MOL0     H14402   2.017   3.935  10.250  2.1354  0.2469 -1.8395
  830MOL0     O14403   8.104   5.277   1.182 -0.1372  0.5374  0.5436
  830MOL0     C14404   8.005   5.207   1.166  0.4175  0.6392  0.3909
  830MOL0     O14405   7.975   5.087   1.227 -0.3783 -0.8484  0.4795
  830MOL0     C14406   8.053   5.056   1.331  0.4406  0.1452 -0.0494
  830MOL0     C14407   8.129   4.938   1.326 -0.4049 -0.4975 -0.4844
  830MOL0     C14408   8.219   4.898   1.430 -0.1444 -0.9329  0.4887
  830MOL0     C14409   8.228   4.971   1.545  0.9933 -0.0996  0.1244
  830MOL0     O14410   8.302   4.936   1.654 -0.2006 -0.2129 -0.1478
  830MOL0     C14411   8.411   4.845   1.649  0.4196 -0.1644 -0.3198
  830MOL0     C14412   8.482   4.828   1.780  0.6677 -0.4072  0.7579
  830MOL0     C14413   8.608   4.740   1.768  0.6596  0.0056  0.5979
  830MOL0     C14414   8.661   4.708   1.903 -1.2332 -0.0220 -0.0485
  830MOL0     C14415   8.810   4.656   1.892 -0.0607 -0.1848 -0.5428
  830MOL0     C14416   8.877   4.606   2.015 -0.2508  0.6833 -0.3110
  830MOL0     C14417   9.021   4.595   2.002 -0.2119  0.1960  0.2628
  830MOL0     C14418   9.091   4.555   2.131  0.1148  0.1518  0.3751
  830MOL0     N14419   9.220   4.478   2.115 -0.0795 -0.4204 -0.0955
  830MOL0     C14420   9.333   4.508   2.051 -0.9470 -0.2151  0.6124
  830MOL0     C14421   9.422   4.405   2.079  0.2249  0.4464  0.0624
  830MOL0     C14422   9.553   4.381   2.007  0.5410 -0.1344 -0.0853
  830MOL0     C14423   9.666   4.365   2.097 -0.1498  0.1503  0.2602
  830MOL0     C14424   9.799   4.350   2.031  0.1942 -0.3402  0.2786
  830MOL0     C14425   9.905   4.297   2.130 -0.5755  0.0907 -0.6353
  830MOL0     O14426   9.901   4.150   2.130  0.0508 -0.4050  0.0668
  830MOL0     C14427  10.014   4.086   2.175 -0.2143 -0.1933  0.7603
  830MOL0     C14428  10.014   3.954   2.200  0.6529 -0.2506 -1.0709
  830MOL0     C14429  10.125   3.876   2.240 -1.2045  0.5026 -1.0172
  830MOL0     C14430  10.104   3.729   2.258 -0.4122 -0.5122 -0.2865
  830MOL0     C14431  10.251   3.939   2.261 -0.8298 -0.3570 -0.4706
  830MOL0     C14432  10.368   3.879   2.321 -0.0788 -0.4584 -0.5790
  830MOL0     O14433  10.480   3.957   2.361 -0.0276  0.0104 -0.1085
  830MOL0     C14434  10.573   3.890   2.444 -0.8267 -0.1303  0.5785
  830MOL0     C14435  10.711   3.914   2.425 -0.3363 -0.6919 -0.1773
  830MOL0     C14436  10.812   3.854   2.505  0.1212 -0.3848  0.7087
  830MOL0     C14437  10.776   3.786   2.622 -0.0228 -0.0823  0.2190
  830MOL0     O14438  10.887   3.742   2.692  0.0881  0.5054 -0.1047
  830MOL0     C14439  10.849   3.659   2.806 -0.8448  0.1751  0.6591
  830MOL0     C14440  10.981   3.614   2.879 -0.2331 -0.7506  0.2297
  830MOL0     C14441  11.026   3.745   2.947  0.8974  0.0890  0.2132
  830MOL0     C14442  11.142   3.711   3.047  0.0130 -0.1796  0.2023
  830MOL0     C14443  11.220   3.831   3.109  0.0566 -0.1275  0.0801
  830MOL0     C14444  11.311   3.800   3.223 -0.0076  0.4133 -0.5266
  830MOL0     C14445  11.407   3.912   3.258  0.2735  0.8865  0.5208
  830MOL0     C14446  11.523   3.858   3.338 -0.1102  0.1485 -0.2939
  830MOL0    Cl14447  11.651   3.792   3.228  0.4005 -0.0342  0.0424
  830MOL0     C14448  10.636   3.767   2.643 -0.1209  0.6801 -0.1448
  830MOL0     C14449  10.537   3.826   2.562  0.5483  0.3880 -0.0309
  830MOL0     O14450  10.372   3.755   2.330 -0.8093 -0.1467  0.2674
  830MOL0     C14451  10.255   4.077   2.241 -0.0114  0.3782  0.2845
  830MOL0     C14452  10.145   4.143   2.199  0.0589 -0.3938  0.0272
  830MOL0     N14453   9.354   4.312   2.157  0.7884  0.3385  0.7929
  830MOL0     N14454   9.241   4.368   2.188  0.5574 -0.2699  0.3309
  830MOL0     C14455   8.150   5.094   1.541  0.0848  0.3869  0.1243
  830MOL0     C14456   8.064   5.134   1.444  0.8468  0.7682  0.2060
  830MOL0     C14457   7.893   5.250   1.073 -1.0495  0.3711  0.4712
  830MOL0     C14458   7.832   5.145   1.002  0.6130  0.1053  0.3415
  830MOL0     C14459   7.717   5.181   0.931 -0.6044  1.1165 -0.4813
  830MOL0     C14460   7.665   5.307   0.922  0.9419  0.1918  0.0285
  830MOL0     O14461   7.544   5.345   0.860  0.4497 -0.2134  0.0844
  830MOL0     C14462   7.464   5.254   0.784  0.7108 -0.8110 -0.3859
  830MOL0     C14463   7.364   5.328   0.697 -0.6830  0.0343 -0.2537
  830MOL0     C14464   7.234   5.358   0.757  0.0039 -0.8855 -0.7126
  830MOL0     C14465   7.137   5.399   0.644 -0.4509 -1.3253 -0.2533
  830MOL0     C14466   7.094   5.293   0.546  0.7550 -0.8810 -0.1445
  830MOL0     C14467   7.032   5.238   0.460  0.4836  0.4075  0.1792
  830MOL0     C14468   7.740   5.411   0.981 -0.6115 -0.7774  0.2125
  830MOL0     C14469   7.854   5.380   1.055  0.6817  0.2694 -0.0062
  830MOL0     C14470   7.935   5.497   1.122  0.6858 -0.0715 -0.6556
  830MOL0     H14471   8.126   4.871   1.241  1.7085 -1.7544  0.3436
  830MOL0     H14472   8.275   4.806   1.412  3.0746  1.0751 -0.6837
  830MOL0     H14473   8.485   4.878   1.576  1.3418  0.8769  1.0300
  830MOL0     H14474   8.372   4.746   1.625 -1.9429  0.0940  2.0303
  830MOL0     H14475   8.523   4.925   1.811 -0.4643  0.4410 -0.3247
  830MOL0     H14476   8.410   4.795   1.855 -1.6748 -1.4289 -1.7914
  830MOL0     H14477   8.587   4.653   1.705  1.3004 -0.3863  0.9095
  830MOL0     H14478   8.680   4.798   1.710  0.7851  0.0801  0.8238
  830MOL0     H14479   8.669   4.791   1.974  0.1059  0.2678 -0.5011
  830MOL0     H14480   8.613   4.621   1.950 -1.4232 -1.1483 -2.1881
  830MOL0     H14481   8.869   4.737   1.849  2.0903 -2.3379 -1.8753
  830MOL0     H14482   8.816   4.576   1.818  0.4873 -2.0730  1.4555
  830MOL0     H14483   8.862   4.671   2.103  0.9465 -0.7726  1.0275
  830MOL0     H14484   8.838   4.507   2.042 -0.5859  0.5653 -1.2016
  830MOL0     H14485   9.062   4.688   1.960 -1.0035 -0.2640 -1.6040
  830MOL0     H14486   9.034   4.505   1.943 -1.4530  1.0676 -1.4198
  830MOL0     H14487   9.108   4.654   2.175 -3.2073  3.2131 -4.3610
  830MOL0     H14488   9.025   4.490   2.189  1.0703 -1.0936  0.1160
  830MOL0     H14489   9.340   4.603   1.998  2.8040 -0.4928  0.3942
  830MOL0     H14490   9.575   4.463   1.937  1.6274  0.5850  1.0545
  830MOL0     H14491   9.538   4.289   1.950  0.2181  0.1489 -0.4689
  830MOL0     H14492   9.682   4.446   2.168  0.7500 -0.3497  0.6532
  830MOL0     H14493   9.648   4.287   2.171 -0.2305  0.1534  0.2435
  830MOL0     H14494   9.796   4.297   1.936 -0.2680 -0.1144  0.1670
  830MOL0     H14495   9.829   4.453   2.008 -1.1214 -0.0531 -0.2358
  830MOL0     H14496  10.001   4.329   2.088 -1.1605  0.2387 -1.9091
  830MOL0     H14497   9.885   4.333   2.231  1.4237 -0.5145  0.0187
  830MOL0     H14498   9.933   3.889   2.170  1.8029 -0.8075 -3.1912
  830MOL0     H14499   9.998   3.708   2.244 -0.7224  0.8518 -0.0987
  830MOL0     H14500  10.116   3.704   2.364 -3.1849 -1.0431 -0.0161
  830MOL0     H14501  10.158   3.658   2.195 -1.4473 -1.2462 -0.3584
  830MOL0     H14502  10.732   3.979   2.341 -2.1167 -0.8988 -0.8194
  830MOL0     H14503  10.916   3.877   2.483  0.0837  0.3053  1.2299
  830MOL0     H14504  10.777   3.698   2.878  0.8225  1.4875  1.6815
  830MOL0     H14505  10.809   3.567   2.762  1.0637 -0.0941 -0.6246
  830MOL0     H14506  10.957   3.535   2.950 -0.8866 -1.5079 -0.8229
  830MOL0     H14507  11.063   3.586   2.812  0.4919 -1.0964  1.2277
  830MOL0     H14508  10.943   3.793   2.999 -1.0795 -0.9279 -1.8630
  830MOL0     H14509  11.053   3.811   2.865  0.7828  1.6756  1.4108
  830MOL0     H14510  11.215   3.648   2.994 -0.2247 -1.5075  1.3926
  830MOL0     H14511  11.100   3.652   3.129 -0.0245 -0.5001 -0.0436
  830MOL0     H14512  11.263   3.887   3.025  0.3886 -1.5397 -0.7367
  830MOL0     H14513  11.144   3.895   3.155  0.8763 -0.1363  1.4987
  830MOL0     H14514  11.367   3.712   3.190  0.1402 -0.0805  1.0026
  830MOL0     H14515  11.257   3.761   3.309  0.0726 -0.3655 -0.8264
  830MOL0     H14516  11.356   3.991   3.315 -0.5680  0.6407  0.1301
  830MOL0     H14517  11.450   3.949   3.164 -1.9307  2.4757  0.0388
  830MOL0     H14518  11.493   3.782   3.411 -1.2779  0.4387 -0.4494
  830MOL0     H14519  11.582   3.931   3.394  2.0634 -1.3125 -0.5659
  830MOL0     H14520  10.594   3.707   2.723 -0.6999 -0.1754 -1.0734
  830MOL0     H14521  10.430   3.827   2.582  0.5354 -1.1232  0.1050
  830MOL0     H14522  10.345   4.137   2.246  0.3648 -0.2816  1.6860
  830MOL0     H14523  10.164   4.247   2.175  1.8261 -0.4048  1.2580
  830MOL0     H14524   8.166   5.147   1.635 -0.5138 -1.8406  1.5719
  830MOL0     H14525   8.009   5.227   1.439 -0.9313 -0.3047 -3.0407
  830MOL0     H14526   7.886   5.052   0.999  1.8965  0.5222  4.1948
  830MOL0     H14527   7.668   5.093   0.889 -0.8370  0.3527  1.3169
  830MOL0     H14528   7.533   5.201   0.718  0.4348 -1.0908 -0.4521
  830MOL0     H14529   7.420   5.179   0.850  0.3075 -1.3904 -1.2947
  830MOL0     H14530   7.340   5.260   0.614 -2.4416 -0.6131  0.7551
  830MOL0     H14531   7.402   5.426   0.665 -0.4627  1.4169  3.7229
  830MOL0     H14532   7.192   5.264   0.795  1.1742 -2.2721 -2.6927
  830MOL0     H14533   7.232   5.435   0.834  3.2744  0.5183 -1.8722
  830MOL0     H14534   7.166   5.489   0.589  0.1206  0.6600  3.0244
  830MOL0     H14535   7.043   5.431   0.691 -1.3416 -0.0493 -2.7516
  830MOL0     H14536   6.977   5.196   0.379 -1.1602 -0.0915  1.5002
  830MOL0     H14537   7.714   5.516   0.974  2.6121  0.2158  1.1015
  830MOL0     H14538   7.943   5.482   1.230  4.1221  0.9152 -0.6636
  830MOL0     H14539   8.033   5.509   1.075 -0.3332  2.4260 -2.3216
  830MOL0     H14540   7.878   5.588   1.104  2.0113  0.4953 -2.2226
  831MOL0     O14541   2.203   4.656   0.105 -0.1356  0.5857  0.3393
  831MOL0     C14542   2.146   4.590   0.015 -0.0019  0.6017 -0.0226
  831MOL0     O14543   2.174   4.603  -0.114 -0.3257  0.0868  0.6138
  831MOL0     C14544   2.287   4.690  -0.147 -0.3213  0.0893 -0.1489
  831MOL0     C14545   2.267   4.826  -0.154  0.5829 -0.7875  0.1075
  831MOL0     C14546   2.370   4.915  -0.190  0.0142 -0.3018  0.5818
  831MOL0     C14547   2.501   4.867  -0.207  0.2748  0.5426 -0.2816
  831MOL0     O14548   2.601   4.955  -0.231  0.2541  0.2050 -0.5612
  831MOL0     C14549   2.680   4.932  -0.348  0.2109  0.7671 -0.1289
  831MOL0     C14550   2.813   5.006  -0.352  0.0809  0.1084 -0.1006
  831MOL0     C14551   2.927   4.947  -0.271 -0.5641  0.1995  0.5260
  831MOL0     C14552   3.064   5.002  -0.299 -0.8205  0.1521  0.1667
  831MOL0     C14553   3.169   4.938  -0.214  0.1078 -0.1907  0.0837
  831MOL0     C14554   3.281   5.029  -0.185 -0.3948  0.5828  0.0666
  831MOL0     C14555   3.362   5.067  -0.311 -0.5391 -0.2699  0.1617
  831MOL0     C14556   3.503   5.128  -0.279  1.0532  0.0553  0.7089
  831MOL0     N14557   3.577   5.159  -0.408  0.0190  0.3279 -0.2977
  831MOL0     C14558   3.630   5.061  -0.489 -0.6437  0.2051 -0.0137
  831MOL0     C14559   3.712   5.127  -0.571 -0.6848  0.1628 -0.3641
  831MOL0     C14560   3.799   5.063  -0.677 -0.7545 -0.0488 -0.3896
  831MOL0     C14561   3.906   5.154  -0.738 -0.1271  1.0857  0.8422
  831MOL0     C14562   3.938   5.123  -0.891  0.0979  0.3296  0.1448
  831MOL0     C14563   3.995   4.984  -0.895  0.2844  0.2491 -0.3939
  831MOL0     O14564   3.966   4.924  -1.018 -0.5101 -0.2515 -0.0875
  831MOL0     C14565   4.041   4.961  -1.130 -0.5035  0.2964  0.2096
  831MOL0     C14566   4.011   4.886  -1.238 -0.4977  0.2730  0.1259
  831MOL0     C14567   4.079   4.904  -1.360 -0.5623 -0.0239 -0.5780
  831MOL0     C14568   4.033   4.812  -1.478 -0.4070  0.2374 -0.1527
  831MOL0     C14569   4.166   5.008  -1.378 -0.6328  0.7290 -0.0195
  831MOL0     C14570   4.250   5.019  -1.506  1.0158 -0.7023 -0.8618
  831MOL0     O14571   4.270   5.157  -1.543 -0.1741  0.1168 -0.2612
  831MOL0     C14572   4.336   5.169  -1.662  0.0600 -1.1804 -0.2305
  831MOL0     C14573   4.464   5.131  -1.692  0.1638  0.5053  0.5508
  831MOL0     C14574   4.533   5.179  -1.799  0.2454  0.3075 -0.0280
  831MOL0     C14575   4.461   5.245  -1.899 -0.3124 -0.3568 -0.2805
  831MOL0     O14576   4.515   5.291  -2.017  0.3262  0.5241 -0.8723
  831MOL0     C14577   4.648   5.242  -2.049  0.0990  0.0366 -0.2893
  831MOL0     C14578   4.704   5.322  -2.172  0.2072 -1.0240 -0.5112
  831MOL0     C14579   4.707   5.478  -2.156  0.0786  0.0604  0.3145
  831MOL0     C14580   4.848   5.528  -2.121 -0.2126  0.9374 -0.9285
  831MOL0     C14581   4.856   5.680  -2.125  0.0314  0.5581 -1.0403
  831MOL0     C14582   4.988   5.731  -2.073 -0.1555  0.0406  0.0420
  831MOL0     C14583   5.006   5.878  -2.109  0.1844  0.4330 -0.6261
  831MOL0     C14584   5.144   5.933  -2.054  0.0411  0.1162  1.1099
  831MOL0    Cl14585   5.172   5.897  -1.882 -0.0844 -0.3947  0.3054
  831MOL0     C14586   4.329   5.277  -1.881  0.4787  0.0493  0.6280
  831MOL0     C14587   4.270   5.246  -1.759 -0.1695  0.0425 -0.4451
  831MOL0     O14588   4.282   4.914  -1.571  0.2967  0.0844  0.0179
  831MOL0     C14589   4.198   5.092  -1.265  0.0062  0.4019 -1.4258
  831MOL0     C14590   4.134   5.067  -1.137  1.2911  0.2121  0.0726
  831MOL0     N14591   3.693   5.261  -0.551 -0.5650  0.9315  0.2909
  831MOL0     N14592   3.627   5.281  -0.450 -0.7418  0.2695  0.0669
  831MOL0     C14593   2.525   4.730  -0.183  0.7025 -0.4832 -0.1019
  831MOL0     C14594   2.418   4.638  -0.157 -0.1484 -0.0382 -0.3520
  831MOL0     C14595   2.029   4.496   0.054  0.7496  0.3565  0.4450
  831MOL0     C14596   1.943   4.443  -0.051  0.3615  0.4030 -0.6570
  831MOL0     C14597   1.841   4.352  -0.024  0.0746 -0.1357  0.0823
  831MOL0     C14598   1.812   4.317   0.107  0.0970 -0.0478 -0.5421
  831MOL0     O14599   1.714   4.226   0.127 -0.4877  0.1158 -0.5843
  831MOL0     C14600   1.719   4.138   0.240 -0.2882  0.7340  1.1229
  831MOL0     C14601   1.840   4.041   0.233  0.7376  0.6206  0.4551
  831MOL0     C14602   1.829   3.930   0.131  0.3594 -1.0450 -1.3449
  831MOL0     C14603   1.833   3.977  -0.013 -0.0501  0.4226 -0.0783
  831MOL0     C14604   1.835   3.865  -0.105  0.6025  0.1782 -0.8869
  831MOL0     C14605   1.848   3.772  -0.182  0.3066 -0.4896  0.0006
  831MOL0     C14606   1.890   4.367   0.208  0.6047  0.3243 -1.1536
  831MOL0     C14607   1.999   4.462   0.186 -0.2732 -0.1439 -0.2152
  831MOL0     C14608   2.078   4.509   0.313  0.1524 -0.1924  0.6431
  831MOL0     H14609   2.170   4.868  -0.128  1.0750 -1.7103  3.9400
  831MOL0     H14610   2.358   5.022  -0.205  0.9366 -0.3426 -0.6210
  831MOL0     H14611   2.627   4.958  -0.440 -0.5564  1.1957  0.4216
  831MOL0     H14612   2.709   4.827  -0.358  0.7191  1.0790 -2.5406
  831MOL0     H14613   2.847   5.003  -0.456 -1.6005 -2.1713 -0.6698
  831MOL0     H14614   2.792   5.109  -0.321 -2.3073 -0.0903 -0.8272
  831MOL0     H14615   2.907   4.962  -0.164  0.6362  0.3210  0.7488
  831MOL0     H14616   2.928   4.839  -0.292 -1.5793  0.9958 -4.8901
  831MOL0     H14617   3.087   4.973  -0.402 -0.7112  0.0144  0.2301
  831MOL0     H14618   3.067   5.111  -0.294 -3.3660  0.3214 -0.4207
  831MOL0     H14619   3.212   4.854  -0.268  0.6591  1.9431 -3.0623
  831MOL0     H14620   3.128   4.912  -0.116  0.2049 -1.6969 -0.2624
  831MOL0     H14621   3.230   5.118  -0.145 -2.7961 -0.0323 -1.4024
  831MOL0     H14622   3.341   4.982  -0.107  1.7790  2.7066 -0.2014
  831MOL0     H14623   3.311   5.143  -0.371  0.9290 -0.5468 -1.5138
  831MOL0     H14624   3.367   4.972  -0.366 -1.9996 -0.0885 -0.3566
  831MOL0     H14625   3.496   5.217  -0.217  1.1642  4.6161 -5.0019
  831MOL0     H14626   3.556   5.052  -0.220  0.1524  0.0252  1.5046
  831MOL0     H14627   3.618   4.955  -0.467 -0.2056  0.1274 -0.1447
  831MOL0     H14628   3.730   5.015  -0.747 -1.6053  0.5150  0.0371
  831MOL0     H14629   3.856   4.991  -0.617  0.8562  1.7982  0.4154
  831MOL0     H14630   3.881   5.260  -0.745  0.3606  1.1806  0.4496
  831MOL0     H14631   3.993   5.143  -0.673  1.0187  1.6087 -0.5452
  831MOL0     H14632   3.844   5.132  -0.947  0.3077 -0.3070 -0.3171
  831MOL0     H14633   4.010   5.193  -0.934  0.0827 -0.2409 -0.8496
  831MOL0     H14634   4.102   4.977  -0.872  1.1243 -0.6231 -4.0312
  831MOL0     H14635   3.957   4.917  -0.817  1.9869  0.0112  0.2791
  831MOL0     H14636   3.942   4.803  -1.237  1.4718 -1.5868 -2.5646
  831MOL0     H14637   4.004   4.878  -1.560  0.3070 -0.3973 -0.9405
  831MOL0     H14638   3.945   4.758  -1.443  0.6145 -1.4467 -0.0718
  831MOL0     H14639   4.113   4.754  -1.525  0.5648  2.2292 -1.1038
  831MOL0     H14640   4.502   5.062  -1.617  2.0021 -1.5468 -2.1019
  831MOL0     H14641   4.638   5.153  -1.799  0.0171 -0.6414  0.6570
  831MOL0     H14642   4.721   5.237  -1.968  0.1204  0.2347 -0.2962
  831MOL0     H14643   4.630   5.139  -2.082  0.8991 -0.0331 -0.5120
  831MOL0     H14644   4.807   5.285  -2.178  0.4295 -0.2841 -1.3337
  831MOL0     H14645   4.645   5.294  -2.259 -0.1027 -2.6555  0.1842
  831MOL0     H14646   4.632   5.491  -2.077  0.4072 -0.5056  0.7346
  831MOL0     H14647   4.664   5.522  -2.246 -0.0909 -1.4598 -0.3787
  831MOL0     H14648   4.919   5.488  -2.194 -0.5089 -2.0247  0.2608
  831MOL0     H14649   4.875   5.492  -2.021 -0.6545  0.2327 -1.0548
  831MOL0     H14650   4.836   5.712  -2.228  0.4896 -2.8263 -2.3144
  831MOL0     H14651   4.775   5.735  -2.077 -1.9773 -1.3013 -2.0773
  831MOL0     H14652   5.063   5.675  -2.131 -0.3694 -0.3067  0.0957
  831MOL0     H14653   4.983   5.710  -1.966 -1.2544 -0.3892 -0.0720
  831MOL0     H14654   4.926   5.943  -2.073 -1.5698  0.5825 -4.2951
  831MOL0     H14655   4.998   5.898  -2.216 -2.3470  2.3794 -0.1815
  831MOL0     H14656   5.151   6.041  -2.068  4.2716 -0.0486  0.6825
  831MOL0     H14657   5.228   5.888  -2.108 -1.5583 -1.7561 -0.0058
  831MOL0     H14658   4.272   5.316  -1.964  4.2681  1.0731 -1.7612
  831MOL0     H14659   4.167   5.275  -1.741  0.2135  0.4561  1.3077
  831MOL0     H14660   4.262   5.179  -1.278  0.3931  0.4687  0.6776
  831MOL0     H14661   4.164   5.124  -1.050  0.6073  0.2244  0.3066
  831MOL0     H14662   2.626   4.689  -0.186 -0.0491 -2.4171 -0.6396
  831MOL0     H14663   2.424   4.530  -0.148  2.0396 -0.1517 -2.2066
  831MOL0     H14664   1.965   4.474  -0.153  3.5030 -0.0292 -0.2284
  831MOL0     H14665   1.782   4.309  -0.104  0.1878 -0.6299  0.2647
  831MOL0     H14666   1.724   4.182   0.340  0.6028 -0.1214  1.4599
  831MOL0     H14667   1.622   4.089   0.232  0.0746  0.3427 -3.4712
  831MOL0     H14668   1.845   3.989   0.329 -1.4770  0.3095  0.4405
  831MOL0     H14669   1.929   4.102   0.214  0.1371  1.1336 -0.8380
  831MOL0     H14670   1.915   3.861   0.135 -0.6745 -2.3602 -0.9961
  831MOL0     H14671   1.735   3.881   0.159  0.5666  0.1524  1.7158
  831MOL0     H14672   1.926   4.035  -0.015 -0.4313  1.1164  1.1977
  831MOL0     H14673   1.751   4.044  -0.041 -1.5048 -0.9743  0.7161
  831MOL0     H14674   1.852   3.694  -0.255  2.4352  1.4658 -2.1747
  831MOL0     H14675   1.848   4.347   0.306  1.8196  0.8459 -0.5028
  831MOL0     H14676   2.177   4.464   0.323 -0.9121 -2.2957  2.3040
  831MOL0     H14677   2.087   4.618   0.314 -0.4658 -0.0605 -1.7203
  831MOL0     H14678   2.025   4.473   0.401  0.5823 -1.2065  0.4964
  832MOL0     O14679   7.233   2.591   5.129  0.4233 -0.8049  0.7875
  832MOL0     C14680   7.139   2.542   5.066  0.0658 -0.1802 -0.7110
  832MOL0     O14681   7.146   2.423   4.996 -0.0140 -0.1691  0.0810
  832MOL0     C14682   7.259   2.342   5.010 -0.1957 -0.4879 -0.1895
  832MOL0     C14683   7.361   2.364   4.918 -0.9671  0.9229 -1.0670
  832MOL0     C14684   7.481   2.304   4.916  0.4889  0.4311 -0.5239
  832MOL0     C14685   7.508   2.206   5.016  0.9532  0.2254  0.0408
  832MOL0     O14686   7.641   2.148   5.020  0.5652 -0.7133  0.5913
  832MOL0     C14687   7.680   2.041   5.115 -0.2141 -0.0286  0.3816
  832MOL0     C14688   7.829   2.015   5.074  0.7442 -0.1223  0.0131
  832MOL0     C14689   7.836   1.986   4.918  0.1781 -0.1409  0.0784
  832MOL0     C14690   7.987   1.952   4.893 -0.1029  0.0097 -0.9074
  832MOL0     C14691   8.014   1.934   4.746  0.0581  0.5076  0.2809
  832MOL0     C14692   8.162   1.908   4.713 -0.8293 -0.6861 -0.1911
  832MOL0     C14693   8.188   1.934   4.562 -0.1658 -0.7411  0.1228
  832MOL0     C14694   8.095   1.856   4.467 -0.0090 -0.2216 -0.4810
  832MOL0     N14695   8.150   1.815   4.340 -0.6096 -0.0123 -1.1337
  832MOL0     C14696   8.245   1.719   4.327  0.7917  0.0693 -0.2672
  832MOL0     C14697   8.299   1.728   4.206  0.7019 -0.0963 -0.2907
  832MOL0     C14698   8.400   1.627   4.152  0.3842 -0.1428 -0.3618
  832MOL0     C14699   8.534   1.613   4.247 -1.0202 -0.4483  0.3818
  832MOL0     C14700   8.632   1.515   4.198  0.1721  0.1117  0.7585
  832MOL0     C14701   8.692   1.548   4.069 -0.3856 -0.7954  0.1605
  832MOL0     O14702   8.776   1.441   4.009  0.5435  0.1489 -1.1246
  832MOL0     C14703   8.715   1.332   3.953  0.3267 -0.5474  0.6389
  832MOL0     C14704   8.782   1.207   3.957 -0.1734 -0.0801  0.0182
  832MOL0     C14705   8.717   1.080   3.930  0.2197 -0.3566 -0.1334
  832MOL0     C14706   8.797   0.953   3.947 -0.8479 -0.3647 -0.4593
  832MOL0     C14707   8.582   1.085   3.876 -0.1468 -0.0197  0.0530
  832MOL0     C14708   8.505   0.967   3.831 -0.9947  0.9009  0.2923
  832MOL0     O14709   8.363   0.975   3.823  0.1668 -0.4234  0.7298
  832MOL0     C14710   8.288   0.871   3.872  0.2120  0.4185  0.7388
  832MOL0     C14711   8.341   0.767   3.956  0.8760  1.0611 -0.3268
  832MOL0     C14712   8.245   0.678   4.014 -0.4246 -0.1513 -0.5152
  832MOL0     C14713   8.109   0.677   3.978  0.2385 -0.1919 -0.4349
  832MOL0     O14714   8.032   0.583   4.050  1.0503 -0.4133 -0.3816
  832MOL0     C14715   7.892   0.601   4.063  0.3514 -0.7246 -0.3729
  832MOL0     C14716   7.868   0.719   4.166 -0.3498 -0.2312  0.1066
  832MOL0     C14717   7.830   0.665   4.307 -1.4401  0.3869  0.1261
  832MOL0     C14718   7.700   0.610   4.331  0.0949  0.4023 -0.7182
  832MOL0     C14719   7.693   0.586   4.484 -0.6250  0.4324  0.1394
  832MOL0     C14720   7.551   0.555   4.535 -0.1124  0.4865  0.2706
  832MOL0     C14721   7.578   0.523   4.681 -0.3812  0.2445 -0.6017
  832MOL0     C14722   7.449   0.526   4.756  0.1463 -0.5660 -1.0418
  832MOL0    Cl14723   7.318   0.415   4.699 -0.3092 -0.0623 -0.3583
  832MOL0     C14724   8.063   0.773   3.884  0.1680 -0.1584  0.2804
  832MOL0     C14725   8.149   0.871   3.833  0.0003 -0.1818 -0.5059
  832MOL0     O14726   8.568   0.870   3.802 -0.4281  0.1806  0.2874
  832MOL0     C14727   8.510   1.215   3.868 -0.5008 -1.2129 -0.8646
  832MOL0     C14728   8.575   1.335   3.903  0.3163 -0.4773  0.0701
  832MOL0     N14729   8.231   1.838   4.147 -0.1521 -0.2588  0.1019
  832MOL0     N14730   8.141   1.888   4.233 -1.0240  0.4892  0.3704
  832MOL0     C14731   7.399   2.178   5.115  0.1771  0.0499  0.5018
  832MOL0     C14732   7.268   2.235   5.098  0.3850  0.0571 -0.4949
  832MOL0     C14733   7.008   2.613   5.079  0.0773 -0.3991  0.3606
  832MOL0     C14734   6.894   2.533   5.087  0.1947 -0.0089 -0.4725
  832MOL0     C14735   6.765   2.577   5.119 -0.5898 -0.3545 -0.1782
  832MOL0     C14736   6.741   2.713   5.139  0.2580 -0.1268 -0.8011
  832MOL0     O14737   6.623   2.773   5.172 -0.7345 -0.1598 -0.5573
  832MOL0     C14738   6.505   2.696   5.135 -0.1409 -0.0473 -0.5830
  832MOL0     C14739   6.487   2.692   4.978 -0.6840 -0.3894  0.3930
  832MOL0     C14740   6.465   2.832   4.925  0.3271  0.8869 -0.6425
  832MOL0     C14741   6.327   2.866   4.861 -0.1015 -0.9773  0.1420
  832MOL0     C14742   6.220   2.823   4.946  0.7159  0.1229  0.1331
  832MOL0     C14743   6.125   2.776   5.001 -0.3859  0.5860 -0.3653
  832MOL0     C14744   6.852   2.802   5.118 -0.3243 -0.5241  0.1430
  832MOL0     C14745   6.985   2.755   5.093  0.4428  0.7051  0.2286
  832MOL0     C14746   7.090   2.854   5.067  0.4596 -0.1041 -0.2073
  832MOL0     H14747   7.357   2.449   4.851 -1.2625  1.0338 -0.9064
  832MOL0     H14748   7.564   2.336   4.853  2.3350  2.8186  2.7866
  832MOL0     H14749   7.609   1.963   5.085 -0.1245  0.5445 -1.4937
  832MOL0     H14750   7.675   2.060   5.222 -0.1123 -1.3557  0.6387
  832MOL0     H14751   7.882   2.109   5.093 -1.5317  1.7723 -2.2993
  832MOL0     H14752   7.872   1.930   5.129 -0.9383 -0.4031  0.9632
  832MOL0     H14753   7.773   1.897   4.904 -1.9775  0.9142  2.4266
  832MOL0     H14754   7.799   2.065   4.853  0.3801 -0.3687 -0.3232
  832MOL0     H14755   8.066   2.008   4.943  1.9123 -1.5313 -2.2060
  832MOL0     H14756   8.007   1.851   4.930  2.1252  0.9978  0.8018
  832MOL0     H14757   7.982   2.024   4.692 -2.4348  1.2690  2.8357
  832MOL0     H14758   7.946   1.857   4.708 -1.4699  2.9106 -2.2869
  832MOL0     H14759   8.221   1.979   4.771  0.3195 -1.5351 -0.2825
  832MOL0     H14760   8.197   1.808   4.741  2.7579  0.9070  1.6522
  832MOL0     H14761   8.295   1.923   4.543 -0.0042  0.1122  0.4686
  832MOL0     H14762   8.172   2.039   4.537  2.1186  0.2718  2.4162
  832MOL0     H14763   8.063   1.765   4.519  0.7985  0.6083  1.5966
  832MOL0     H14764   8.008   1.919   4.447 -0.5719 -0.5267  0.8587
  832MOL0     H14765   8.273   1.643   4.400  1.6187  1.9228  1.4495
  832MOL0     H14766   8.424   1.657   4.049 -2.4883 -1.1107 -1.4124
  832MOL0     H14767   8.361   1.526   4.142  0.8458 -0.5112  1.3104
  832MOL0     H14768   8.577   1.712   4.231  0.6677 -1.0849  0.6818
  832MOL0     H14769   8.505   1.614   4.353 -0.6730  0.8545  0.4749
  832MOL0     H14770   8.708   1.507   4.277 -2.9543 -0.8366  3.9707
  832MOL0     H14771   8.578   1.420   4.196 -0.4364  0.4707 -0.2414
  832MOL0     H14772   8.615   1.589   4.003 -1.8174 -0.9348  1.6629
  832MOL0     H14773   8.759   1.632   4.091 -0.4389 -0.7278  0.0670
  832MOL0     H14774   8.888   1.206   3.979 -0.1563  1.8661  0.2695
  832MOL0     H14775   8.891   0.965   4.001 -0.3139 -1.8037 -1.0060
  832MOL0     H14776   8.814   0.901   3.852 -0.0407  0.6448 -0.8978
  832MOL0     H14777   8.745   0.882   4.011 -2.2388  0.8528 -0.1842
  832MOL0     H14778   8.444   0.769   3.990  0.4430 -2.6265  1.6937
  832MOL0     H14779   8.277   0.604   4.087 -0.1489 -1.7424 -2.1757
  832MOL0     H14780   7.845   0.622   3.967 -2.5070  0.0179  1.0768
  832MOL0     H14781   7.841   0.510   4.095 -2.0074 -0.2562 -2.4734
  832MOL0     H14782   7.953   0.789   4.168 -1.5888  1.4216 -1.3469
  832MOL0     H14783   7.791   0.787   4.128  1.3269  1.1020 -1.1057
  832MOL0     H14784   7.843   0.750   4.374 -1.0503  0.8371 -0.5124
  832MOL0     H14785   7.911   0.596   4.334  1.2359  2.4067 -2.1556
  832MOL0     H14786   7.691   0.509   4.290  2.0997 -0.7053  1.3519
  832MOL0     H14787   7.619   0.676   4.296  0.6645  0.7559 -1.4140
  832MOL0     H14788   7.751   0.495   4.502  1.0177  1.2576 -0.7328
  832MOL0     H14789   7.736   0.667   4.543  1.0385  0.3754 -0.9309
  832MOL0     H14790   7.503   0.485   4.466  0.9079  0.6824 -0.6620
  832MOL0     H14791   7.489   0.645   4.527  1.0615  1.2078 -1.0573
  832MOL0     H14792   7.650   0.596   4.717  1.2699 -2.2730  1.5575
  832MOL0     H14793   7.626   0.425   4.687 -3.5734 -1.3828  2.6387
  832MOL0     H14794   7.415   0.630   4.756  3.7299  0.7698  0.4128
  832MOL0     H14795   7.465   0.513   4.864 -1.8448 -1.3708 -0.8073
  832MOL0     H14796   7.958   0.783   3.859 -0.1473  0.5570  1.8214
  832MOL0     H14797   8.113   0.956   3.776 -1.2389 -0.1668  0.2704
  832MOL0     H14798   8.410   1.207   3.825 -0.6900  0.7700 -0.9017
  832MOL0     H14799   8.512   1.424   3.903 -0.0351 -0.6860  1.7366
  832MOL0     H14800   7.417   2.110   5.197 -0.7643  0.9197  1.4589
  832MOL0     H14801   7.183   2.203   5.157  0.7525  2.0290  1.2053
  832MOL0     H14802   6.912   2.428   5.067  1.9903  0.5567 -2.1850
  832MOL0     H14803   6.689   2.500   5.132 -0.9750 -0.1094 -0.9191
  832MOL0     H14804   6.512   2.598   5.182  1.1215  0.1201 -0.3675
  832MOL0     H14805   6.418   2.752   5.171  1.0766  3.1551 -2.1560
  832MOL0     H14806   6.403   2.629   4.950 -1.7224  1.4744 -0.8635
  832MOL0     H14807   6.571   2.639   4.931 -1.2660 -0.2450 -0.8265
  832MOL0     H14808   6.474   2.907   5.004  1.9100 -1.5378  1.6223
  832MOL0     H14809   6.553   2.852   4.863  2.5006  0.7820  2.1913
  832MOL0     H14810   6.314   2.818   4.764 -5.8329  0.4761 -0.1656
  832MOL0     H14811   6.314   2.971   4.836 -0.7708 -0.9309  0.6418
  832MOL0     H14812   6.040   2.747   5.061  0.5049 -0.7276  0.3215
  832MOL0     H14813   6.832   2.908   5.135  1.0094  0.2770 -2.7073
  832MOL0     H14814   7.052   2.951   5.035  1.5992 -0.4003 -2.6691
  832MOL0     H14815   7.147   2.860   5.160  0.6542 -1.0311 -0.2505
  832MOL0     H14816   7.158   2.824   4.987  2.0006  2.1789  0.1708
  833MOL0     O14817   8.165   3.540   4.653  0.1132 -0.2465 -0.4673
  833MOL0     C14818   8.124   3.628   4.715 -0.0982 -0.6313 -0.4116
  833MOL0     O14819   8.200   3.699   4.803 -0.1719  0.2318 -0.5809
  833MOL0     C14820   8.305   3.652   4.867  0.4967 -0.4761  0.0312
  833MOL0     C14821   8.386   3.743   4.941  0.0672 -0.5085 -0.2570
  833MOL0     C14822   8.505   3.709   5.002  0.2897 -0.2052 -0.7253
  833MOL0     C14823   8.547   3.576   4.992  0.7220  0.3740  0.3784
  833MOL0     O14824   8.667   3.526   5.031 -0.5330 -0.4975  0.7950
  833MOL0     C14825   8.776   3.609   5.081 -0.5975  0.3881 -0.2256
  833MOL0     C14826   8.877   3.523   5.152 -0.7717  0.4873  0.6967
  833MOL0     C14827   8.994   3.606   5.200 -0.4307 -0.1319  0.1833
  833MOL0     C14828   9.081   3.530   5.292  0.2188  0.2753 -0.3428
  833MOL0     C14829   9.204   3.609   5.354 -0.0810  0.2366 -0.3659
  833MOL0     C14830   9.331   3.613   5.267 -1.4214  0.1425  0.0458
  833MOL0     C14831   9.436   3.705   5.340 -0.4551 -0.5090  0.7294
  833MOL0     C14832   9.511   3.643   5.458 -0.1801  0.1986  0.4503
  833MOL0     N14833   9.610   3.730   5.512 -0.7634 -0.5807 -0.0256
  833MOL0     C14834   9.688   3.702   5.623  0.0048 -0.5215 -0.3696
  833MOL0     C14835   9.748   3.822   5.647  0.3864  0.0728  0.1191
  833MOL0     C14836   9.832   3.857   5.774  0.0547  0.3008 -0.0770
  833MOL0     C14837   9.767   3.798   5.898 -0.4959 -1.0688  0.6842
  833MOL0     C14838   9.855   3.815   6.013  0.6217 -0.9893 -0.5372
  833MOL0     C14839   9.787   3.768   6.141 -0.6586 -0.1733 -0.9196
  833MOL0     O14840   9.739   3.632   6.139 -0.6575  0.7101  0.0061
  833MOL0     C14841   9.819   3.524   6.179 -0.2572 -0.3311  0.9469
  833MOL0     C14842   9.755   3.402   6.147  0.4357 -0.7157 -0.0826
  833MOL0     C14843   9.815   3.271   6.174 -0.0195 -0.2728 -0.7322
  833MOL0     C14844   9.752   3.149   6.120  0.3662  1.0906  0.2112
  833MOL0     C14845   9.937   3.270   6.235 -0.3703  0.5406 -0.6787
  833MOL0     C14846  10.015   3.144   6.270 -0.2861 -0.0330 -0.2733
  833MOL0     O14847  10.155   3.158   6.291  0.4440  0.0236 -0.0256
  833MOL0     C14848  10.237   3.051   6.306  0.3373  0.4714 -0.8859
  833MOL0     C14849  10.353   3.058   6.384 -0.0903  0.2573  0.2388
  833MOL0     C14850  10.441   2.959   6.395 -0.2484  1.2676 -0.1877
  833MOL0     C14851  10.410   2.835   6.339 -0.9659  0.6206 -0.2589
  833MOL0     O14852  10.482   2.732   6.392 -0.0244  0.2556 -0.4483
  833MOL0     C14853  10.524   2.639   6.293  0.0127  0.6692 -0.0338
  833MOL0     C14854  10.573   2.503   6.352  0.7735  0.0206  0.1537
  833MOL0     C14855  10.636   2.413   6.249  0.2512  0.7536  0.3755
  833MOL0     C14856  10.667   2.280   6.312 -0.5517  1.0837 -0.4791
  833MOL0     C14857  10.710   2.171   6.208 -0.1341  0.0174  0.1469
  833MOL0     C14858  10.853   2.187   6.151 -0.1102  0.1506 -0.3113
  833MOL0     C14859  10.877   2.078   6.044 -0.0067  0.6966 -0.4387
  833MOL0     C14860  10.870   1.934   6.099 -0.6002 -0.1775 -0.1384
  833MOL0    Cl14861  10.898   1.825   5.974 -0.5691 -0.1172  0.2379
  833MOL0     C14862  10.292   2.817   6.263  0.6666 -0.2143  0.5456
  833MOL0     C14863  10.206   2.925   6.238  0.0943  0.2197 -0.1063
  833MOL0     O14864   9.952   3.039   6.278 -0.0256 -0.3760  0.5183
  833MOL0     C14865  10.004   3.393   6.271  0.2371 -0.4954  0.0160
  833MOL0     C14866   9.942   3.518   6.246 -0.3391  0.1508  0.4521
  833MOL0     N14867   9.704   3.916   5.561  0.5931 -0.3489  0.1850
  833MOL0     N14868   9.625   3.862   5.476  0.6632 -0.2825 -0.2662
  833MOL0     C14869   8.465   3.489   4.931  1.0868  0.6587 -0.1536
  833MOL0     C14870   8.341   3.512   4.874 -0.3311 -0.4269  0.7098
  833MOL0     C14871   7.988   3.682   4.690  0.2358  0.2221  0.0902
  833MOL0     C14872   7.943   3.796   4.764  0.0449 -0.9799  0.2618
  833MOL0     C14873   7.814   3.839   4.753  0.3081  0.0238  0.5154
  833MOL0     C14874   7.719   3.778   4.674 -0.0723  0.3515  0.7424
  833MOL0     O14875   7.591   3.813   4.679  0.5794  0.8206  0.0779
  833MOL0     C14876   7.556   3.952   4.700  0.0457  0.0754 -0.6262
  833MOL0     C14877   7.408   3.970   4.661 -0.2293  0.4076  1.3190
  833MOL0     C14878   7.315   3.908   4.762  0.0080  0.6239  0.2580
  833MOL0     C14879   7.199   4.005   4.806  0.8679  0.8047  0.0133
  833MOL0     C14880   7.099   4.049   4.702 -0.6147 -0.4574  0.0585
  833MOL0     C14881   7.013   4.080   4.621 -0.4253 -0.5373  0.2703
  833MOL0     C14882   7.759   3.665   4.602 -0.9281  0.3286 -0.2196
  833MOL0     C14883   7.895   3.618   4.603 -0.1730 -0.8192  0.9689
  833MOL0     C14884   7.923   3.486   4.528  0.1919 -0.4799 -0.2826
  833MOL0     H14885   8.366   3.850   4.936 -1.1602 -0.7299 -0.5423
  833MOL0     H14886   8.559   3.785   5.058 -2.0088  1.0652 -0.0841
  833MOL0     H14887   8.732   3.672   5.159 -1.7179 -1.9629  1.1492
  833MOL0     H14888   8.816   3.681   5.009 -2.8788  0.6118 -1.3783
  833MOL0     H14889   8.828   3.480   5.240  0.9175 -0.0972  1.3939
  833MOL0     H14890   8.920   3.443   5.091  0.0908 -0.3685  2.3712
  833MOL0     H14891   9.060   3.644   5.121 -0.8776  4.6790  1.7810
  833MOL0     H14892   8.955   3.690   5.258  2.6898  1.7632 -0.2313
  833MOL0     H14893   9.020   3.476   5.365 -0.9584 -1.3520 -2.4421
  833MOL0     H14894   9.123   3.443   5.242 -1.5303 -0.5880 -0.3515
  833MOL0     H14895   9.227   3.562   5.451  1.2966  0.7273 -0.4427
  833MOL0     H14896   9.171   3.711   5.375 -1.1892 -0.0066 -0.8710
  833MOL0     H14897   9.372   3.514   5.244 -1.0520 -0.1135  1.7250
  833MOL0     H14898   9.306   3.663   5.173 -3.5752 -0.4181  0.2575
  833MOL0     H14899   9.378   3.794   5.367 -1.9085 -1.6524  1.5108
  833MOL0     H14900   9.513   3.723   5.265 -1.4997 -1.9534 -0.7457
  833MOL0     H14901   9.441   3.620   5.539 -2.7042  1.9859 -1.0730
  833MOL0     H14902   9.567   3.559   5.415 -0.0006  0.6885 -0.3026
  833MOL0     H14903   9.682   3.607   5.676  2.7089 -1.0992 -0.9863
  833MOL0     H14904   9.852   3.963   5.790  0.2128 -0.0649  2.4847
  833MOL0     H14905   9.930   3.809   5.776 -1.1231 -2.3116  2.3995
  833MOL0     H14906   9.675   3.854   5.914  1.7936  4.1279 -1.9173
  833MOL0     H14907   9.748   3.690   5.896 -1.0380 -0.9687 -0.2253
  833MOL0     H14908   9.954   3.770   5.998  1.5829  0.5547  0.7969
  833MOL0     H14909   9.879   3.921   6.022  1.5208 -1.2562  0.4989
  833MOL0     H14910   9.843   3.783   6.234  1.3020  1.0711 -2.2348
  833MOL0     H14911   9.700   3.834   6.149 -0.2234  0.5438 -1.9870
  833MOL0     H14912   9.663   3.391   6.091  1.7319 -3.3121 -1.9246
  833MOL0     H14913   9.668   3.165   6.052  2.0679 -2.3157 -3.0306
  833MOL0     H14914   9.720   3.088   6.206  1.9957  0.0113  0.0886
  833MOL0     H14915   9.819   3.085   6.063 -0.4793  0.2506  0.1214
  833MOL0     H14916  10.361   3.152   6.437  0.3397 -0.3847  1.3245
  833MOL0     H14917  10.526   2.950   6.462 -0.6157  0.5566  0.2018
  833MOL0     H14918  10.446   2.617   6.220  1.8698  1.7893 -2.4952
  833MOL0     H14919  10.597   2.689   6.229  1.2389  1.3775  1.8117
  833MOL0     H14920  10.646   2.518   6.432  1.5268  4.3048 -1.1090
  833MOL0     H14921  10.479   2.460   6.387 -0.8551  1.8508 -1.7235
  833MOL0     H14922  10.727   2.456   6.206  1.6584 -3.0895 -0.8426
  833MOL0     H14923  10.566   2.386   6.170  0.7302  1.7040 -0.3983
  833MOL0     H14924  10.572   2.241   6.350  0.3939 -1.6513 -0.6904
  833MOL0     H14925  10.736   2.289   6.397 -0.8390 -1.3354  0.0928
  833MOL0     H14926  10.719   2.075   6.261  1.1000  0.3649  0.6157
  833MOL0     H14927  10.635   2.160   6.130  1.5633 -0.7195 -1.4690
  833MOL0     H14928  10.920   2.162   6.234 -1.0463 -1.0081  0.1242
  833MOL0     H14929  10.865   2.286   6.105  0.7305 -0.2699 -1.0386
  833MOL0     H14930  10.973   2.098   5.996  0.6185 -0.6353  0.1739
  833MOL0     H14931  10.804   2.088   5.964  2.5236 -1.8889 -3.3460
  833MOL0     H14932  10.769   1.924   6.139  0.2262  0.1358  2.1651
  833MOL0     H14933  10.951   1.924   6.173  0.9246 -2.1809 -1.9457
  833MOL0     H14934  10.274   2.722   6.215  0.1941 -0.1970  0.6892
  833MOL0     H14935  10.131   2.896   6.165  0.9625  1.2096 -1.4361
  833MOL0     H14936  10.100   3.398   6.322  1.1348 -3.3426 -1.1466
  833MOL0     H14937   9.998   3.609   6.268  1.4921 -0.5163 -1.1839
  833MOL0     H14938   8.499   3.386   4.935  0.5435  0.3417 -2.3179
  833MOL0     H14939   8.277   3.431   4.841 -0.0452  0.4078 -2.2187
  833MOL0     H14940   8.006   3.840   4.841  0.8314 -0.9381 -0.3949
  833MOL0     H14941   7.791   3.917   4.825  1.2405 -1.0718  2.0712
  833MOL0     H14942   7.577   3.973   4.806  0.6251 -1.0618 -0.5039
  833MOL0     H14943   7.623   4.019   4.646  1.5141 -0.5888  0.2944
  833MOL0     H14944   7.394   3.934   4.559  3.4345  2.4756 -0.0837
  833MOL0     H14945   7.383   4.076   4.650  1.2688  0.7792  1.2494
  833MOL0     H14946   7.277   3.814   4.722  1.4409  0.9510 -2.0141
  833MOL0     H14947   7.372   3.876   4.850 -0.8033  0.7675  0.8509
  833MOL0     H14948   7.239   4.095   4.853 -1.9800  1.2626  1.7675
  833MOL0     H14949   7.142   3.959   4.887  3.3166 -1.2944  0.6709
  833MOL0     H14950   6.927   4.092   4.558 -0.9700  1.3026  1.2562
  833MOL0     H14951   7.677   3.627   4.542 -2.0545  1.6975  0.3776
  833MOL0     H14952   8.021   3.488   4.479  1.0944  1.8234  1.4459
  833MOL0     H14953   7.948   3.410   4.603  0.2084  0.7895  1.0312
  833MOL0     H14954   7.846   3.441   4.465 -1.1733  2.1939 -0.6441
  834MOL0     O14955   2.319   9.104  10.947 -0.9641 -0.5968  0.0717
  834MOL0     C14956   2.339   8.981  10.948  0.3748 -0.3472  0.0408
  834MOL0     O14957   2.461   8.924  10.952 -0.5651  0.4501  0.0242
  834MOL0     C14958   2.576   8.996  10.952 -0.0309 -0.8066  0.2893
  834MOL0     C14959   2.628   9.080  10.856 -0.6141  0.2950  1.1669
  834MOL0     C14960   2.747   9.149  10.890  0.7076 -0.6415  0.2953
  834MOL0     C14961   2.818   9.133  11.010  0.1331  0.4653  1.2325
  834MOL0     O14962   2.930   9.203  11.046  0.4534  0.1550 -0.2252
  834MOL0     C14963   3.012   9.271  10.947  0.6064  0.3249  0.2073
  834MOL0     C14964   3.144   9.309  11.008 -0.4641  0.1152  0.6748
  834MOL0     C14965   3.128   9.445  11.066 -0.5480 -0.2608 -0.0092
  834MOL0     C14966   3.217   9.459  11.190 -0.1595  0.1786 -0.6283
  834MOL0     C14967   3.254   9.609  11.217  0.3910  0.2040  0.2247
  834MOL0     C14968   3.332   9.638  11.344  0.3644 -0.2558 -0.0026
  834MOL0     C14969   3.349   9.788  11.372 -0.8720  0.3577 -0.2674
  834MOL0     C14970   3.410   9.824  11.511 -0.0992 -0.5434  0.0978
  834MOL0     N14971   3.459   9.965  11.514  0.5301 -0.8787 -0.3434
  834MOL0     C14972   3.560  10.024  11.435  0.6949 -0.2137 -0.9436
  834MOL0     C14973   3.567  10.149  11.482  0.3755  0.6865 -0.2456
  834MOL0     C14974   3.657  10.244  11.426 -0.9593  0.1408  0.3958
  834MOL0     C14975   3.775  10.247  11.512  0.0704 -0.0787  0.7888
  834MOL0     C14976   3.888  10.326  11.442  0.9042 -0.2506  0.1816
  834MOL0     C14977   4.020  10.322  11.530 -0.2730  0.4494 -0.2752
  834MOL0     O14978   4.112  10.419  11.483 -0.1817 -0.4290 -0.4734
  834MOL0     C14979   4.228  10.399  11.555 -0.8097  0.1127 -0.6556
  834MOL0     C14980   4.255  10.407  11.693  0.2268 -1.1380  0.9709
  834MOL0     C14981   4.389  10.401  11.741  0.1827  0.1687 -0.3586
  834MOL0     C14982   4.405  10.423  11.890 -0.2374 -0.4152 -0.0872
  834MOL0     C14983   4.498  10.395  11.646  1.2372  0.1496  0.5222
  834MOL0     C14984   4.643  10.387  11.688 -1.1105  0.8971 -0.5426
  834MOL0     O14985   4.674  10.384  11.818 -0.0920  0.4857 -0.8212
  834MOL0     C14986   4.804  10.394  11.851  0.2510 -0.8006  0.3846
  834MOL0     C14987   4.882  10.284  11.852  1.0705 -0.7034 -0.4127
  834MOL0     C14988   5.009  10.296  11.921  0.0855 -0.4193  0.1283
  834MOL0     C14989   5.055  10.418  11.972  0.9091  0.2438  0.0724
  834MOL0     O14990   5.177  10.429  12.028  0.6700 -0.6959  0.5506
  834MOL0     C14991   5.185  10.409  12.170 -0.4591  0.0839 -0.4173
  834MOL0     C14992   5.330  10.355  12.200  0.1502  0.0620 -0.6526
  834MOL0     C14993   5.398  10.430  12.311 -0.5745 -0.1651 -0.2764
  834MOL0     C14994   5.533  10.377  12.339 -0.0129  0.0463 -0.0407
  834MOL0     C14995   5.614  10.464  12.437  0.3051 -0.5421  0.0985
  834MOL0     C14996   5.741  10.399  12.502  0.2242  0.0789  0.8705
  834MOL0     C14997   5.839  10.342  12.400 -0.5092  0.3353 -0.0777
  834MOL0     C14998   5.986  10.337  12.464  0.0989  0.2464 -0.4623
  834MOL0    Cl14999   6.113  10.269  12.351  0.4534 -0.6039 -0.0231
  834MOL0     C15000   4.971  10.536  11.968  0.6886  0.5401  0.6210
  834MOL0     C15001   4.845  10.519  11.906  0.0486 -1.0013  0.8569
  834MOL0     O15002   4.729  10.373  11.600  0.0094 -0.1608  0.8902
  834MOL0     C15003   4.468  10.381  11.508 -0.6311  1.3804 -0.0934
  834MOL0     C15004   4.337  10.380  11.467 -0.0103  0.1412  0.1843
  834MOL0     N15005   3.483  10.159  11.582  0.1094  0.3611 -0.0143
  834MOL0     N15006   3.425  10.047  11.615 -0.1355 -0.6837 -0.0360
  834MOL0     C15007   2.758   9.048  11.105  0.5606 -0.6026 -0.1993
  834MOL0     C15008   2.644   8.977  11.068  0.1369  0.4216  0.2581
  834MOL0     C15009   2.222   8.887  10.955  0.4479 -0.1912  0.1072
  834MOL0     C15010   2.241   8.750  10.983  0.3992  1.0397  0.2753
  834MOL0     C15011   2.135   8.656  10.977 -0.1864 -0.3702  0.6202
  834MOL0     C15012   2.012   8.700  10.949  0.3179 -0.1042 -0.2273
  834MOL0     O15013   1.926   8.592  10.947  0.6558 -0.3027 -0.1217
  834MOL0     C15014   1.806   8.607  10.870  0.5910  0.4299  0.2262
  834MOL0     C15015   1.815   8.560  10.724 -0.7589  0.0254  0.0463
  834MOL0     C15016   1.927   8.644  10.643  0.2569  0.0232  0.1774
  834MOL0     C15017   1.904   8.621  10.494 -0.6474  0.2277 -0.7153
  834MOL0     C15018   1.963   8.496  10.454  0.4616  0.0521  0.8043
  834MOL0     C15019   2.007   8.386  10.421 -0.4853  0.1781 -0.9498
  834MOL0     C15020   1.985   8.831  10.915  0.6447 -0.2794  0.4736
  834MOL0     C15021   2.090   8.928  10.926 -0.3538 -0.8363  0.0800
  834MOL0     C15022   2.059   9.063  10.853 -0.3261  0.2686  0.0206
  834MOL0     H15023   2.578   9.081  10.759 -0.8892 -5.8409  0.8262
  834MOL0     H15024   2.787   9.212  10.811 -1.4143  0.4043 -0.0409
  834MOL0     H15025   2.962   9.352  10.893  0.1641 -0.6075 -0.8231
  834MOL0     H15026   3.030   9.195  10.870  2.5067  2.7897 -1.9570
  834MOL0     H15027   3.163   9.243  11.093 -2.0654  0.7835  1.5987
  834MOL0     H15028   3.227   9.302  10.938 -0.3386  4.4574  0.1122
  834MOL0     H15029   3.167   9.521  10.997 -0.0787 -0.7732 -0.3112
  834MOL0     H15030   3.024   9.477  11.078 -0.3138  1.4298 -1.8506
  834MOL0     H15031   3.167   9.411  11.274 -0.7824 -2.2591 -2.2957
  834MOL0     H15032   3.310   9.401  11.184  1.3621  2.0549  2.4821
  834MOL0     H15033   3.162   9.669  11.216  0.2525 -0.0082  0.3837
  834MOL0     H15034   3.314   9.647  11.133  1.4218 -2.3470 -0.2639
  834MOL0     H15035   3.283   9.596  11.432 -0.6230  2.8817  1.0737
  834MOL0     H15036   3.426   9.582  11.338  0.9677  0.8634 -1.5293
  834MOL0     H15037   3.254   9.842  11.364 -1.2518 -0.0760  1.1340
  834MOL0     H15038   3.411   9.835  11.294 -1.9630  0.3434 -1.1617
  834MOL0     H15039   3.326   9.814  11.581 -0.5235 -2.2412 -0.6065
  834MOL0     H15040   3.484   9.747  11.535 -0.0842 -0.3755  0.6076
  834MOL0     H15041   3.610   9.981  11.348  1.5247 -0.6362 -0.2643
  834MOL0     H15042   3.623  10.348  11.424 -0.1159  0.4700  1.8380
  834MOL0     H15043   3.688  10.217  11.324 -1.5642 -1.3101  0.5814
  834MOL0     H15044   3.741  10.306  11.598 -1.0531  0.1477  0.2086
  834MOL0     H15045   3.806  10.146  11.540  0.6058  0.0208  0.5676
  834MOL0     H15046   3.911  10.281  11.345  0.3370 -1.4294  0.5816
  834MOL0     H15047   3.870  10.434  11.441 -0.3650 -0.4136  1.5994
  834MOL0     H15048   3.996  10.339  11.635  1.6291 -0.4874  0.3706
  834MOL0     H15049   4.051  10.217  11.526 -0.9075  0.2507 -0.1487
  834MOL0     H15050   4.167  10.427  11.754 -2.1955 -0.6580 -2.3601
  834MOL0     H15051   4.456  10.340  11.939  1.7473 -0.2886 -1.8095
  834MOL0     H15052   4.310  10.443  11.940  0.8098  0.7568  1.5604
  834MOL0     H15053   4.468  10.512  11.894 -0.4223 -0.2988  0.2908
  834MOL0     H15054   4.846  10.188  11.818  2.2118 -1.3728  0.1889
  834MOL0     H15055   5.075  10.212  11.941  1.3571  0.5392  0.0830
  834MOL0     H15056   5.181  10.502  12.226  0.9544  0.7829 -1.4002
  834MOL0     H15057   5.112  10.338  12.210  1.4946 -1.6394  0.3003
  834MOL0     H15058   5.318  10.249  12.225 -0.2715  0.3591  0.4427
  834MOL0     H15059   5.380  10.354  12.103 -2.1694 -2.3738 -1.9431
  834MOL0     H15060   5.340  10.420  12.403  2.8227 -0.0488  2.0589
  834MOL0     H15061   5.412  10.535  12.284 -0.4077  0.5089  2.1563
  834MOL0     H15062   5.588  10.376  12.245 -1.0964 -4.2603 -0.8824
  834MOL0     H15063   5.525  10.278  12.386  0.3918  0.3008  0.5764
  834MOL0     H15064   5.646  10.551  12.378 -1.1575  0.2697  0.4649
  834MOL0     H15065   5.551  10.497  12.520  0.0915 -0.2842 -0.1658
  834MOL0     H15066   5.712  10.322  12.574  2.3623 -1.5763  0.0629
  834MOL0     H15067   5.784  10.488  12.550 -3.1277  3.1643 -1.3796
  834MOL0     H15068   5.844  10.405  12.311  3.2887  0.8692  0.3395
  834MOL0     H15069   5.805  10.243  12.369 -1.3055  1.1777 -2.0634
  834MOL0     H15070   5.984  10.287  12.561  0.7358  0.4417 -0.3417
  834MOL0     H15071   6.019  10.441  12.478  0.6498 -0.2947  3.1618
  834MOL0     H15072   4.991  10.633  12.011  1.4979  0.7826 -0.2550
  834MOL0     H15073   4.784  10.608  11.912  3.6199  2.1790 -3.2733
  834MOL0     H15074   4.539  10.371  11.427  0.0070 -0.9748  0.6827
  834MOL0     H15075   4.320  10.367  11.361  1.7285  0.3020 -0.1373
  834MOL0     H15076   2.806   9.021  11.198  2.0200 -0.5901 -0.9228
  834MOL0     H15077   2.607   8.899  11.135  0.3155  0.6310  0.6005
  834MOL0     H15078   2.340   8.706  10.991  0.1702 -0.2065 -2.4923
  834MOL0     H15079   2.159   8.552  10.993  0.9685 -1.1494 -4.4222
  834MOL0     H15080   1.721   8.552  10.912  0.0537 -0.5771 -2.0264
  834MOL0     H15081   1.767   8.709  10.871 -0.9663 -0.0500 -2.2799
  834MOL0     H15082   1.716   8.584  10.681  0.4514 -0.5518 -3.3837
  834MOL0     H15083   1.827   8.452  10.712 -1.5049 -0.4474  2.9232
  834MOL0     H15084   1.928   8.752  10.661 -0.8561  0.0877 -0.0697
  834MOL0     H15085   2.024   8.606  10.678 -0.7193 -2.8445  0.0509
  834MOL0     H15086   1.961   8.692  10.433  0.5036  1.9393  2.1564
  834MOL0     H15087   1.800   8.632  10.460 -1.0510 -0.2336  0.3510
  834MOL0     H15088   2.054   8.304  10.369 -0.3995  1.3353 -2.7708
  834MOL0     H15089   1.895   8.878  10.877 -0.9579 -3.2990  0.1932
  834MOL0     H15090   2.130   9.081  10.772 -1.2451  1.3180 -0.5780
  834MOL0     H15091   1.957   9.072  10.816 -0.3471  0.4565  0.1215
  834MOL0     H15092   2.077   9.149  10.918  1.3794  1.8996 -2.4199
  835MOL0     O15093   6.253   1.885   7.196  0.3521  0.9413 -0.1653
  835MOL0     C15094   6.292   1.905   7.082 -0.5026  1.0109 -0.7171
  835MOL0     O15095   6.233   1.850   6.975  0.5278  0.5653 -0.1870
  835MOL0     C15096   6.122   1.778   6.968  0.1346  0.1196  0.3233
  835MOL0     C15097   6.059   1.782   6.846 -0.2759  0.6602 -0.2922
  835MOL0     C15098   5.941   1.708   6.820  0.2860  0.3139  0.3768
  835MOL0     C15099   5.891   1.622   6.915  0.8734 -0.4773  0.0809
  835MOL0     O15100   5.791   1.527   6.891  0.4175 -0.1813 -0.0440
  835MOL0     C15101   5.756   1.502   6.753 -0.0333 -0.9082 -1.2736
  835MOL0     C15102   5.642   1.405   6.761  0.8096  0.4359  0.0196
  835MOL0     C15103   5.522   1.466   6.831  0.6374  0.5609  0.1187
  835MOL0     C15104   5.396   1.378   6.864  0.4684 -0.4045 -1.2507
  835MOL0     C15105   5.421   1.262   6.966  0.2853 -0.9451  0.5598
  835MOL0     C15106   5.284   1.218   7.009 -0.8094  0.3920 -0.6565
  835MOL0     C15107   5.210   1.132   6.905  0.7577 -0.0702 -0.4126
  835MOL0     C15108   5.062   1.095   6.951 -0.1908 -0.3308  0.7255
  835MOL0     N15109   4.972   1.206   6.987  0.3690  0.3073  0.3758
  835MOL0     C15110   4.950   1.321   6.914 -0.2039  0.3512 -0.4102
  835MOL0     C15111   4.875   1.406   6.997 -0.3598 -0.0623 -0.3699
  835MOL0     C15112   4.818   1.538   6.968  0.6382  0.0715 -0.4501
  835MOL0     C15113   4.919   1.643   7.000 -0.3795  0.3301  0.4967
  835MOL0     C15114   4.869   1.788   6.961 -0.6491 -0.3341  0.6236
  835MOL0     C15115   4.975   1.894   6.982 -0.3283  0.5886  0.2013
  835MOL0     O15116   5.103   1.857   6.916 -0.1377  0.4423  0.2665
  835MOL0     C15117   5.227   1.926   6.936 -0.4198  0.6129 -0.4176
  835MOL0     C15118   5.339   1.876   6.865  0.0703  0.4621  0.3357
  835MOL0     C15119   5.466   1.926   6.864  0.1286 -0.3703  0.1823
  835MOL0     C15120   5.581   1.847   6.803 -0.4009 -0.9494  0.5668
  835MOL0     C15121   5.480   2.042   6.943 -0.4949 -0.3142  1.4071
  835MOL0     C15122   5.611   2.112   6.959 -0.1124 -0.1414  0.2436
  835MOL0     O15123   5.687   2.126   6.845 -0.0786  0.4922 -0.3223
  835MOL0     C15124   5.817   2.173   6.862  0.0244 -0.1486  0.5628
  835MOL0     C15125   5.903   2.096   6.928  0.3310  0.7455 -0.9767
  835MOL0     C15126   6.036   2.134   6.939  0.5319  0.0822  0.3083
  835MOL0     C15127   6.084   2.248   6.878 -0.9854 -0.4658  0.1206
  835MOL0     O15128   6.215   2.269   6.886 -0.3404  0.3511 -0.3130
  835MOL0     C15129   6.265   2.391   6.847  0.2199  0.3814 -0.0997
  835MOL0     C15130   6.411   2.395   6.890 -0.3006 -0.7921 -0.1026
  835MOL0     C15131   6.473   2.526   6.838  0.0126 -0.8210 -0.0032
  835MOL0     C15132   6.623   2.525   6.849 -0.6334 -0.1616 -0.4101
  835MOL0     C15133   6.684   2.662   6.802 -0.2775 -0.0917  0.9577
  835MOL0     C15134   6.832   2.664   6.782  0.4092 -1.5948 -0.1378
  835MOL0     C15135   6.873   2.805   6.739 -0.3304  0.1863 -0.3342
  835MOL0     C15136   7.024   2.815   6.707  0.2754  0.7061  0.2428
  835MOL0    Cl15137   7.074   2.978   6.660 -0.0078 -0.5672  0.3073
  835MOL0     C15138   5.989   2.330   6.817  1.1380  0.7327  0.1262
  835MOL0     C15139   5.861   2.293   6.808  0.2625 -0.9389  0.0969
  835MOL0     O15140   5.644   2.152   7.066 -0.4385  0.2659  0.0284
  835MOL0     C15141   5.367   2.098   7.023  0.1934 -0.0782  0.4036
  835MOL0     C15142   5.245   2.033   7.022  0.2333 -0.3006  0.0771
  835MOL0     N15143   4.839   1.331   7.107 -0.1857 -0.4181  0.6402
  835MOL0     N15144   4.894   1.214   7.104 -0.7612 -0.1364  0.3228
  835MOL0     C15145   5.948   1.613   7.043  0.2338 -0.0831 -0.2737
  835MOL0     C15146   6.056   1.696   7.075 -0.3479  0.5868  0.0304
  835MOL0     C15147   6.423   1.972   7.048  0.4040 -0.5604  0.0827
  835MOL0     C15148   6.477   1.959   6.914 -0.3306 -0.8811 -0.0270
  835MOL0     C15149   6.588   2.030   6.879 -0.0220 -0.0078  0.6713
  835MOL0     C15150   6.643   2.128   6.963  0.0199 -0.2021 -0.5472
  835MOL0     O15151   6.752   2.213   6.943  0.3727  0.1640 -0.1852
  835MOL0     C15152   6.854   2.161   6.864  0.9216  0.8605  0.3066
  835MOL0     C15153   6.967   2.262   6.852  0.3712  0.3931  0.8776
  835MOL0     C15154   6.992   2.334   6.981 -0.3534 -0.6006 -0.0991
  835MOL0     C15155   7.108   2.434   6.966  0.2729  0.2409 -0.6187
  835MOL0     C15156   7.138   2.496   7.096 -0.1023  0.4856 -0.9584
  835MOL0     C15157   7.156   2.550   7.203  0.7988  0.1712 -0.7175
  835MOL0     C15158   6.597   2.146   7.092  0.3960 -0.2411  0.4947
  835MOL0     C15159   6.492   2.059   7.138  0.2941  0.0876  1.0019
  835MOL0     C15160   6.433   2.100   7.271  0.1595  0.5059  0.1990
  835MOL0     H15161   6.095   1.837   6.760  1.8407  0.0711  0.1401
  835MOL0     H15162   5.900   1.712   6.719 -0.9997 -2.1835  0.7401
  835MOL0     H15163   5.844   1.456   6.707  0.3286 -1.2635 -0.2558
  835MOL0     H15164   5.731   1.597   6.705  2.1947  0.0938 -0.6187
  835MOL0     H15165   5.615   1.370   6.660  0.4972  0.9533 -0.0786
  835MOL0     H15166   5.673   1.315   6.816  0.3467 -0.0718 -0.5296
  835MOL0     H15167   5.559   1.509   6.924 -2.3168  1.8040  0.8358
  835MOL0     H15168   5.484   1.546   6.766 -2.7999  1.0727  2.5328
  835MOL0     H15169   5.313   1.436   6.905 -0.0718 -3.3013  2.2959
  835MOL0     H15170   5.359   1.336   6.770 -2.8775  2.3608 -1.3710
  835MOL0     H15171   5.487   1.299   7.045  2.9158  0.4348 -2.0830
  835MOL0     H15172   5.470   1.179   6.915 -0.1285 -0.3186 -0.9140
  835MOL0     H15173   5.306   1.158   7.098 -2.9573 -0.3634 -0.5764
  835MOL0     H15174   5.216   1.294   7.050 -0.3945 -0.2502  1.3430
  835MOL0     H15175   5.263   1.039   6.884  1.6185  0.8779 -2.6737
  835MOL0     H15176   5.211   1.185   6.809 -0.5455 -1.3538 -1.1803
  835MOL0     H15177   5.013   1.042   6.869  0.9259 -0.8606  0.3845
  835MOL0     H15178   5.057   1.027   7.036  0.9014 -2.1039 -0.5649
  835MOL0     H15179   4.995   1.343   6.817 -0.1754 -2.3482 -1.0945
  835MOL0     H15180   4.719   1.558   7.011  1.1847  0.8668  0.4680
  835MOL0     H15181   4.807   1.548   6.860 -3.2415  2.6446 -0.0138
  835MOL0     H15182   4.936   1.648   7.108 -3.1133  1.7701  0.9481
  835MOL0     H15183   5.012   1.607   6.955 -1.8497 -0.3735 -2.1657
  835MOL0     H15184   4.824   1.786   6.861  1.9101 -4.1536 -0.6947
  835MOL0     H15185   4.783   1.815   7.023  0.0209  0.7326  1.1170
  835MOL0     H15186   4.943   1.996   6.961  0.5428  0.7263 -0.5254
  835MOL0     H15187   4.993   1.890   7.090 -0.2993 -1.4549  0.1572
  835MOL0     H15188   5.326   1.781   6.814  2.8174  1.2932 -2.2085
  835MOL0     H15189   5.635   1.904   6.727  0.1041  0.2556  1.7964
  835MOL0     H15190   5.546   1.757   6.751 -2.2955  0.6457 -1.0979
  835MOL0     H15191   5.652   1.826   6.884 -0.4744  2.1271  1.5638
  835MOL0     H15192   5.859   2.017   6.987 -0.3862  2.3827  0.7640
  835MOL0     H15193   6.092   2.067   7.003 -0.0012  0.0600  0.7540
  835MOL0     H15194   6.258   2.392   6.738 -0.0046  0.7561 -0.0840
  835MOL0     H15195   6.207   2.478   6.880  1.6636  0.4131  2.6722
  835MOL0     H15196   6.419   2.392   6.999  0.2950 -2.0750 -0.1692
  835MOL0     H15197   6.477   2.315   6.856  1.5034  1.2936 -1.8579
  835MOL0     H15198   6.443   2.606   6.906  1.1647 -0.3564 -0.0199
  835MOL0     H15199   6.431   2.531   6.737  0.9401 -0.6139 -0.3913
  835MOL0     H15200   6.662   2.440   6.792  2.2866  1.0025 -0.3248
  835MOL0     H15201   6.642   2.506   6.955  2.6802 -1.1812 -1.0681
  835MOL0     H15202   6.644   2.672   6.701  0.3440 -1.6114  0.5247
  835MOL0     H15203   6.649   2.742   6.867 -0.1157 -0.4200  1.4588
  835MOL0     H15204   6.861   2.589   6.707  0.6260 -0.7224 -0.9488
  835MOL0     H15205   6.876   2.643   6.879  0.2835 -0.2079  0.2345
  835MOL0     H15206   6.846   2.877   6.817 -1.8529 -0.6240 -0.0797
  835MOL0     H15207   6.822   2.841   6.650  1.6430 -0.0691 -1.6416
  835MOL0     H15208   7.039   2.758   6.614  3.7315  1.7303  0.0376
  835MOL0     H15209   7.087   2.778   6.788  2.8036  1.3726 -1.3139
  835MOL0     H15210   6.019   2.427   6.777  1.9276  0.1937 -0.6219
  835MOL0     H15211   5.806   2.366   6.750  0.6980 -1.1273 -0.5611
  835MOL0     H15212   5.375   2.178   7.096  0.1513 -0.4933  0.8678
  835MOL0     H15213   5.162   2.065   7.084  0.0259  2.0266 -1.2767
  835MOL0     H15214   5.910   1.546   7.119 -0.5745  1.5672  0.8139
  835MOL0     H15215   6.108   1.686   7.170  2.0913  1.8842 -1.0730
  835MOL0     H15216   6.428   1.906   6.833 -0.1855  1.1681 -1.5446
  835MOL0     H15217   6.624   2.014   6.778  1.4995  0.7063  1.0689
  835MOL0     H15218   6.891   2.067   6.905 -0.5159  0.6430  1.1575
  835MOL0     H15219   6.825   2.141   6.760  0.4529  0.7847  0.4494
  835MOL0     H15220   6.939   2.332   6.773 -2.7383  0.3913  1.8659
  835MOL0     H15221   7.057   2.203   6.829 -1.0022 -1.9373  1.1239
  835MOL0     H15222   6.901   2.386   7.014 -0.6070 -1.3480  0.4125
  835MOL0     H15223   7.020   2.259   7.056  0.3392 -0.6103 -0.3670
  835MOL0     H15224   7.078   2.516   6.900 -1.5883  0.8987  0.9146
  835MOL0     H15225   7.208   2.398   6.942  1.1085 -0.1072  2.8016
  835MOL0     H15226   7.171   2.583   7.304 -0.2543  0.1558 -0.5462
  835MOL0     H15227   6.643   2.206   7.169  1.4776 -0.1159 -0.2305
  835MOL0     H15228   6.335   2.141   7.247 -0.8332 -2.3215 -0.9216
  835MOL0     H15229   6.404   2.020   7.340 -1.2217 -0.1961 -1.1444
  835MOL0     H15230   6.492   2.179   7.320 -0.7728  1.0288  0.5046
  836MOL0     O15231   8.676   1.671   4.562 -0.3001  0.8987 -0.2823
  836MOL0     C15232   8.694   1.769   4.626  0.0421  0.6720 -0.5032
  836MOL0     O15233   8.777   1.871   4.595 -0.6349 -0.2235  0.1156
  836MOL0     C15234   8.867   1.850   4.493  0.0702 -0.1427  0.1362
  836MOL0     C15235   9.002   1.824   4.522 -0.2792 -0.5184 -0.2128
  836MOL0     C15236   9.104   1.826   4.431  0.1297  0.4478 -0.8227
  836MOL0     C15237   9.072   1.857   4.300 -0.5929  0.4999  0.7615
  836MOL0     O15238   9.182   1.860   4.216 -0.3712  0.2683 -0.2859
  836MOL0     C15239   9.176   1.833   4.084 -0.3249 -0.1656  0.4187
  836MOL0     C15240   9.193   1.691   4.039  0.5602  0.3834 -0.0251
  836MOL0     C15241   9.315   1.612   4.089 -0.0242 -0.1381  0.8465
  836MOL0     C15242   9.441   1.690   4.052 -0.5391  0.5319  0.0183
  836MOL0     C15243   9.576   1.622   4.100  0.0735  0.5310  0.4863
  836MOL0     C15244   9.612   1.484   4.028 -0.0669  0.0482 -0.9468
  836MOL0     C15245   9.592   1.475   3.876  0.6073 -0.1238  0.6641
  836MOL0     C15246   9.673   1.361   3.807 -0.5467  0.7031 -0.1293
  836MOL0     N15247   9.808   1.395   3.768  0.2020 -0.0015  0.7242
  836MOL0     C15248   9.854   1.409   3.642  0.1403  0.6654  0.3253
  836MOL0     C15249   9.992   1.419   3.651 -0.6427  0.1696  0.2605
  836MOL0     C15250  10.080   1.439   3.529 -0.3435 -0.7454 -0.2336
  836MOL0     C15251  10.099   1.584   3.488 -0.7831  0.3131 -0.3466
  836MOL0     C15252  10.193   1.601   3.372  0.3760 -0.0825 -0.2023
  836MOL0     C15253  10.307   1.700   3.411 -0.2114 -0.1687  0.7578
  836MOL0     O15254  10.428   1.660   3.338 -0.4768  0.2407 -0.1519
  836MOL0     C15255  10.534   1.585   3.390 -0.5469 -0.2563  0.3113
  836MOL0     C15256  10.536   1.484   3.489  0.1408  0.0686  0.3998
  836MOL0     C15257  10.651   1.414   3.533  0.0310 -0.3239  0.1312
  836MOL0     C15258  10.626   1.287   3.612 -0.0997 -0.2182  0.2763
  836MOL0     C15259  10.774   1.451   3.478  0.1448 -0.1045 -0.4800
  836MOL0     C15260  10.897   1.365   3.496  1.1800 -0.2685  0.6995
  836MOL0     O15261  10.978   1.343   3.386 -0.0311 -0.3318 -0.1040
  836MOL0     C15262  11.103   1.295   3.419  0.3455 -0.5671 -1.0935
  836MOL0     C15263  11.203   1.385   3.393  0.6886  0.4567  0.9355
  836MOL0     C15264  11.336   1.352   3.421  0.8164 -0.0253  0.1433
  836MOL0     C15265  11.376   1.237   3.479  0.3002 -0.1509  0.5338
  836MOL0     O15266  11.502   1.197   3.479 -0.1515  1.0161  0.3272
  836MOL0     C15267  11.537   1.057   3.436 -0.0976 -0.9201  1.1197
  836MOL0     C15268  11.675   1.070   3.374 -0.2080  0.5173  0.4211
  836MOL0     C15269  11.701   1.200   3.292 -0.0107 -0.1214 -0.1269
  836MOL0     C15270  11.739   1.165   3.146 -0.5500 -0.7631  0.8670
  836MOL0     C15271  11.759   1.287   3.055  0.5705  0.3124  0.0527
  836MOL0     C15272  11.801   1.249   2.913  0.6442  0.5135 -0.0891
  836MOL0     C15273  11.946   1.186   2.906  0.1281  0.7104 -0.3265
  836MOL0     C15274  12.003   1.173   2.759 -0.9672 -0.3305 -0.1376
  836MOL0    Cl15275  12.179   1.157   2.767  0.2325  0.0360 -0.5809
  836MOL0     C15276  11.273   1.143   3.512 -0.3826 -1.2744 -1.0530
  836MOL0     C15277  11.144   1.168   3.477 -0.0773 -0.7529  0.9398
  836MOL0     O15278  10.920   1.333   3.606  0.4708  0.4348  0.0967
  836MOL0     C15279  10.783   1.555   3.384 -1.1482  0.4993  0.0433
  836MOL0     C15280  10.664   1.620   3.349  1.0550 -0.0285  0.1219
  836MOL0     N15281  10.025   1.413   3.788 -0.0064 -0.5556 -0.7389
  836MOL0     N15282   9.911   1.396   3.853 -0.0914 -0.3407 -0.2525
  836MOL0     C15283   8.938   1.865   4.261 -0.3359  0.6806 -0.3192
  836MOL0     C15284   8.833   1.864   4.362  0.1453  0.1863  1.0425
  836MOL0     C15285   8.597   1.799   4.734  0.0754  1.0165 -0.5583
  836MOL0     C15286   8.575   1.928   4.767 -1.0992  0.4919 -0.3286
  836MOL0     C15287   8.487   1.969   4.869 -0.2076  0.3686  0.4201
  836MOL0     C15288   8.419   1.878   4.943 -0.6585  0.2380  0.3318
  836MOL0     O15289   8.333   1.907   5.040  0.2727 -0.7329 -0.9360
  836MOL0     C15290   8.393   1.940   5.167 -0.6925  0.3719  0.0376
  836MOL0     C15291   8.292   1.930   5.284  0.2009 -0.4740  0.2389
  836MOL0     C15292   8.170   2.032   5.268 -0.1172  0.6556 -0.5980
  836MOL0     C15293   8.063   1.996   5.374 -0.2293 -0.2246  0.0188
  836MOL0     C15294   7.961   2.101   5.399 -0.1483  0.2248  0.1573
  836MOL0     C15295   7.868   2.179   5.404  0.8542  0.0482 -0.0366
  836MOL0     C15296   8.432   1.744   4.904  0.3246 -0.2608 -0.6174
  836MOL0     C15297   8.510   1.701   4.799 -0.9219  0.4705 -0.5161
  836MOL0     C15298   8.512   1.552   4.757  0.0512 -0.0754  0.1484
  836MOL0     H15299   9.029   1.837   4.626  0.6880  0.3839 -0.5553
  836MOL0     H15300   9.203   1.814   4.475 -0.3466  2.0572  0.7881
  836MOL0     H15301   9.262   1.879   4.033 -0.0235 -0.6907  0.4417
  836MOL0     H15302   9.087   1.882   4.045 -1.5124 -0.8936  2.1290
  836MOL0     H15303   9.103   1.634   4.063  1.2692 -0.3340  1.0558
  836MOL0     H15304   9.196   1.693   3.930 -1.8372 -2.6989 -0.2820
  836MOL0     H15305   9.310   1.602   4.198 -1.9652  2.5801  1.1195
  836MOL0     H15306   9.318   1.514   4.040  0.1099  1.2512 -2.1364
  836MOL0     H15307   9.446   1.721   3.947  1.4725  0.0107 -0.0866
  836MOL0     H15308   9.443   1.786   4.104  0.5338  1.7422 -2.1198
  836MOL0     H15309   9.558   1.595   4.205 -0.7987 -0.4304  0.1003
  836MOL0     H15310   9.659   1.693   4.091  0.6803 -0.2653 -0.3260
  836MOL0     H15311   9.720   1.485   4.042 -0.0288 -1.4729 -0.9474
  836MOL0     H15312   9.577   1.397   4.083  1.7178 -0.6766 -0.8995
  836MOL0     H15313   9.620   1.563   3.817 -0.8650 -0.0552  0.0339
  836MOL0     H15314   9.486   1.461   3.855  0.8557 -1.9500  0.4510
  836MOL0     H15315   9.672   1.273   3.872 -3.0738  0.4716 -0.3835
  836MOL0     H15316   9.624   1.332   3.713 -1.4443  3.8754 -0.7504
  836MOL0     H15317   9.796   1.412   3.550  1.9193 -0.2086 -0.8678
  836MOL0     H15318  10.034   1.391   3.442 -2.3152 -0.0204  0.3547
  836MOL0     H15319  10.180   1.397   3.540 -0.5612 -0.9717  1.0622
  836MOL0     H15320  10.001   1.616   3.450 -1.6077 -0.4527  1.0178
  836MOL0     H15321  10.127   1.645   3.574  4.0572  0.2939 -1.6639
  836MOL0     H15322  10.233   1.502   3.351 -1.7101 -1.0020 -0.0398
  836MOL0     H15323  10.150   1.642   3.280  4.5170  1.1183 -1.8581
  836MOL0     H15324  10.260   1.792   3.376 -1.2794 -1.1600 -0.5496
  836MOL0     H15325  10.336   1.708   3.516 -0.0514  2.6588  0.5807
  836MOL0     H15326  10.440   1.450   3.527  0.3688 -1.6481 -0.4816
  836MOL0     H15327  10.647   1.309   3.717  1.0677  1.9268 -0.3472
  836MOL0     H15328  10.688   1.205   3.575 -2.6531 -0.9205 -2.8508
  836MOL0     H15329  10.522   1.255   3.601 -1.3025  2.1333  3.3154
  836MOL0     H15330  11.183   1.488   3.367 -1.1931  0.3279  1.7406
  836MOL0     H15331  11.411   1.421   3.386  0.4281 -0.7422 -2.2887
  836MOL0     H15332  11.535   0.980   3.513 -0.6820 -0.4894  1.5494
  836MOL0     H15333  11.463   1.029   3.361  1.2336 -1.7680  0.0807
  836MOL0     H15334  11.742   1.060   3.460  1.4421 -1.5516 -0.9730
  836MOL0     H15335  11.702   0.985   3.311 -0.8900 -0.1294  0.9905
  836MOL0     H15336  11.785   1.255   3.335 -2.0814  2.6271  0.6546
  836MOL0     H15337  11.620   1.273   3.290 -0.5964 -0.7421  0.7563
  836MOL0     H15338  11.664   1.103   3.096 -0.4737  1.3537 -2.1901
  836MOL0     H15339  11.836   1.115   3.152 -0.6357 -1.0714 -0.2213
  836MOL0     H15340  11.664   1.341   3.055  0.6583  0.6163 -2.9914
  836MOL0     H15341  11.832   1.356   3.099 -0.5829  1.1137  0.7624
  836MOL0     H15342  11.796   1.336   2.846 -1.3183  0.9674  0.5658
  836MOL0     H15343  11.732   1.175   2.873  3.5639 -1.8888 -1.0417
  836MOL0     H15344  11.961   1.091   2.958 -1.1339 -0.2065 -1.5436
  836MOL0     H15345  12.016   1.255   2.953  2.2297 -0.1108 -2.0792
  836MOL0     H15346  11.974   1.263   2.704  1.8793  2.4945  2.4746
  836MOL0     H15347  11.967   1.082   2.711  1.2671 -1.7380  0.6876
  836MOL0     H15348  11.285   1.047   3.562  0.7997  0.2087  1.7341
  836MOL0     H15349  11.063   1.098   3.494  0.6659 -1.9741 -0.3793
  836MOL0     H15350  10.877   1.585   3.339 -1.7208 -0.4962 -1.9526
  836MOL0     H15351  10.672   1.702   3.278 -0.9418 -0.4265 -0.6149
  836MOL0     H15352   8.910   1.884   4.158 -3.1267  2.8262  0.7050
  836MOL0     H15353   8.732   1.891   4.334 -0.3666 -2.4741 -0.0038
  836MOL0     H15354   8.632   2.009   4.723 -1.7342 -0.0134 -2.1754
  836MOL0     H15355   8.474   2.075   4.888 -0.9621  0.9233 -2.6557
  836MOL0     H15356   8.468   1.866   5.198 -1.2440  0.0891  0.7236
  836MOL0     H15357   8.429   2.044   5.167 -0.3853  0.2655  0.0213
  836MOL0     H15358   8.341   1.945   5.381 -0.4780 -2.3461  0.9190
  836MOL0     H15359   8.265   1.824   5.289 -0.7941 -0.1980  1.5097
  836MOL0     H15360   8.203   2.135   5.288  1.4649  0.0559  0.0835
  836MOL0     H15361   8.136   2.022   5.165  1.8081  2.5827 -1.5088
  836MOL0     H15362   8.110   1.986   5.473  3.4345 -0.6905 -1.5948
  836MOL0     H15363   8.020   1.896   5.359 -0.0427 -0.7993  2.7384
  836MOL0     H15364   7.797   2.258   5.392 -0.2661 -0.8155  0.6434
  836MOL0     H15365   8.383   1.664   4.960 -1.5806 -0.2754 -2.1900
  836MOL0     H15366   8.451   1.509   4.837 -0.2806 -0.8513 -0.5052
  836MOL0     H15367   8.470   1.540   4.657  0.6087  2.1076 -0.4022
  836MOL0     H15368   8.603   1.490   4.759 -0.6594 -1.1837 -0.5769
  837MOL0     O15369   4.675   0.694   8.064 -0.1540  0.2391 -0.3013
  837MOL0     C15370   4.651   0.653   8.175  0.4462  0.2750 -0.6725
  837MOL0     O15371   4.742   0.623   8.276  0.3289 -0.1897  0.4297
  837MOL0     C15372   4.879   0.638   8.241  1.0718  0.2199 -0.1459
  837MOL0     C15373   4.962   0.751   8.263 -0.3971  0.5717  0.8568
  837MOL0     C15374   5.091   0.746   8.218 -0.0811 -0.3124  0.4577
  837MOL0     C15375   5.153   0.626   8.169  0.2314  0.4199  0.3917
  837MOL0     O15376   5.288   0.613   8.153 -0.3747 -0.5519 -0.0947
  837MOL0     C15377   5.338   0.516   8.062  1.1710  0.0539  0.5671
  837MOL0     C15378   5.470   0.544   8.000 -0.0006 -0.4896  0.0125
  837MOL0     C15379   5.575   0.456   8.061 -0.3587 -0.6809  0.5478
  837MOL0     C15380   5.706   0.483   7.990 -0.2934  0.3800  0.0522
  837MOL0     C15381   5.819   0.392   8.029  1.1375  0.1262  0.4951
  837MOL0     C15382   5.945   0.426   7.948 -0.1730 -0.0762  0.3657
  837MOL0     C15383   6.070   0.370   8.015 -0.0134 -0.4170  0.8775
  837MOL0     C15384   6.120   0.472   8.122 -0.3281 -0.3410  0.3607
  837MOL0     N15385   6.253   0.427   8.164  0.9170 -0.6008 -0.4032
  837MOL0     C15386   6.276   0.326   8.249 -0.4328  0.2010  0.0741
  837MOL0     C15387   6.410   0.320   8.269 -0.2780 -0.1843 -0.4605
  837MOL0     C15388   6.487   0.207   8.337  0.0222  0.3668 -0.2048
  837MOL0     C15389   6.631   0.201   8.310  0.0214 -0.4569  0.2033
  837MOL0     C15390   6.670   0.094   8.198  0.0841  0.7460 -0.0446
  837MOL0     C15391   6.824   0.106   8.183  0.1852 -0.1196  0.0261
  837MOL0     O15392   6.892   0.041   8.298  0.1154  0.2647 -0.6809
  837MOL0     C15393   7.031   0.056   8.299 -0.6593  0.0374 -0.0222
  837MOL0     C15394   7.102   0.080   8.186 -0.2142 -0.1555  0.8354
  837MOL0     C15395   7.245   0.094   8.193  0.2985  0.2489 -0.0896
  837MOL0     C15396   7.319   0.131   8.076  0.6994  0.1695  0.8506
  837MOL0     C15397   7.320   0.074   8.315  0.5530 -0.2665 -0.5561
  837MOL0     C15398   7.467   0.075   8.337  0.4578  0.3945 -0.4944
  837MOL0     O15399   7.538   0.051   8.229  0.0352  0.8998 -0.5437
  837MOL0     C15400   7.671   0.047   8.213 -0.0053 -0.1249  0.4488
  837MOL0     C15401   7.708   0.081   8.086  0.0544  1.3038 -0.2029
  837MOL0     C15402   7.841   0.079   8.049 -0.6504 -0.5943  0.3444
  837MOL0     C15403   7.947   0.046   8.135 -0.0595  0.7999  0.2489
  837MOL0     O15404   8.075   0.029   8.087 -0.6106 -0.4507  0.2641
  837MOL0     C15405   8.193   0.053   8.163 -0.4462 -0.1065  0.1207
  837MOL0     C15406   8.312  -0.026   8.101 -0.1807 -0.9201  0.1709
  837MOL0     C15407   8.447   0.016   8.163  0.3381 -0.2062 -0.1773
  837MOL0     C15408   8.552  -0.083   8.116 -0.6563  0.2542 -0.6698
  837MOL0     C15409   8.688  -0.035   8.186 -0.2012 -0.0556 -0.1356
  837MOL0     C15410   8.811  -0.130   8.164 -0.0438 -1.3714  0.7494
  837MOL0     C15411   8.805  -0.279   8.194 -0.1918  0.1009 -0.9622
  837MOL0     C15412   8.776  -0.308   8.340  0.2406 -0.0556  0.0884
  837MOL0    Cl15413   8.774  -0.491   8.348  0.2758  0.0755 -0.2333
  837MOL0     C15414   7.907   0.008   8.264 -0.2374 -0.5627  0.5507
  837MOL0     C15415   7.770   0.003   8.304 -0.0547 -0.2224  0.1773
  837MOL0     O15416   7.514   0.098   8.452 -0.0910 -0.3801  0.1079
  837MOL0     C15417   7.236   0.058   8.428 -0.4571 -0.8514 -0.5837
  837MOL0     C15418   7.100   0.046   8.416  1.2603  0.6296 -0.3833
  837MOL0     N15419   6.461   0.426   8.192 -0.7160  0.0018  0.4418
  837MOL0     N15420   6.366   0.493   8.136  0.5423  1.1308 -0.1296
  837MOL0     C15421   5.069   0.513   8.163 -0.1224  0.1420  0.3825
  837MOL0     C15422   4.937   0.520   8.189  1.2148  0.2190 -0.2272
  837MOL0     C15423   4.508   0.638   8.208  0.3113 -0.2621 -0.1637
  837MOL0     C15424   4.419   0.730   8.157 -0.3742 -0.6021  1.1644
  837MOL0     C15425   4.284   0.721   8.184  0.3305 -0.0692  0.5496
  837MOL0     C15426   4.230   0.623   8.270 -0.1400 -0.2807  0.2525
  837MOL0     O15427   4.093   0.638   8.300 -0.3921 -0.1058 -0.0712
  837MOL0     C15428   4.052   0.581   8.422  0.0495  0.4388 -0.1375
  837MOL0     C15429   4.123   0.642   8.540  0.2795  0.4513 -0.6035
  837MOL0     C15430   4.108   0.566   8.672  0.6465  0.1281  0.3747
  837MOL0     C15431   4.190   0.431   8.673  0.6753  0.0485 -0.9120
  837MOL0     C15432   4.329   0.460   8.679 -0.5522 -0.1724  0.2593
  837MOL0     C15433   4.447   0.489   8.682 -0.7196  0.3523  0.3689
  837MOL0     C15434   4.323   0.526   8.324  0.4906  0.6276  0.1869
  837MOL0     C15435   4.456   0.535   8.286  0.0463  0.3765  0.8117
  837MOL0     C15436   4.531   0.407   8.324  0.2493 -0.2033  0.1613
  837MOL0     H15437   4.923   0.851   8.281 -3.2508  0.0628 -1.5705
  837MOL0     H15438   5.145   0.841   8.217 -0.9427  0.1829  0.1654
  837MOL0     H15439   5.268   0.503   7.979  1.2132  0.1282  0.5191
  837MOL0     H15440   5.323   0.417   8.106 -0.6616 -1.3792 -2.8905
  837MOL0     H15441   5.464   0.550   7.891 -1.8308  2.1865  0.1449
  837MOL0     H15442   5.498   0.647   8.021  1.8940 -1.4239  2.5574
  837MOL0     H15443   5.583   0.477   8.168  0.3766  0.4908  0.2724
  837MOL0     H15444   5.542   0.352   8.049  1.8328 -1.3425 -0.2948
  837MOL0     H15445   5.690   0.490   7.882  1.4189  1.0952 -0.1923
  837MOL0     H15446   5.735   0.584   8.019 -4.1201  1.6042  0.1055
  837MOL0     H15447   5.789   0.287   8.021 -0.1147  0.3403  2.0627
  837MOL0     H15448   5.833   0.408   8.136 -2.5339 -2.5514  1.5873
  837MOL0     H15449   5.928   0.385   7.848 -0.7138 -1.3126  0.9430
  837MOL0     H15450   5.946   0.534   7.936 -2.4796  0.0492  0.7519
  837MOL0     H15451   6.150   0.363   7.942  1.6861 -0.3362  2.6495
  837MOL0     H15452   6.053   0.274   8.064 -1.3374 -0.4847  0.3342
  837MOL0     H15453   6.125   0.574   8.084  0.5068 -1.1031 -1.7711
  837MOL0     H15454   6.044   0.474   8.200 -0.3158  0.1578  0.3582
  837MOL0     H15455   6.208   0.249   8.283 -0.5179  0.0092 -0.5215
  837MOL0     H15456   6.444   0.112   8.303  1.7033  0.5269 -3.0750
  837MOL0     H15457   6.463   0.223   8.443 -1.4699 -0.8896 -0.3197
  837MOL0     H15458   6.669   0.302   8.289  1.8051 -0.9503  0.8726
  837MOL0     H15459   6.678   0.167   8.402  2.3742 -0.3777 -0.8725
  837MOL0     H15460   6.637  -0.009   8.211  0.8584  0.6589  1.4127
  837MOL0     H15461   6.626   0.135   8.106 -3.1413 -0.7683  0.6830
  837MOL0     H15462   6.849   0.058   8.088  1.4241 -0.2667  0.4095
  837MOL0     H15463   6.852   0.211   8.176 -0.3868  0.0511  0.2698
  837MOL0     H15464   7.069   0.093   8.083  0.4889  0.9462  0.7315
  837MOL0     H15465   7.367   0.040   8.039  1.0546 -0.8015  3.5175
  837MOL0     H15466   7.395   0.207   8.095  1.0980  0.2751 -0.9825
  837MOL0     H15467   7.255   0.176   7.999  1.4962  1.0349  0.6719
  837MOL0     H15468   7.628   0.108   8.018 -0.9910 -1.5876 -0.2877
  837MOL0     H15469   7.866   0.103   7.946 -0.3022  0.1503  0.5918
  837MOL0     H15470   8.206   0.161   8.156  0.8673 -0.2915 -0.6404
  837MOL0     H15471   8.178   0.025   8.267 -0.2436 -1.1924 -0.1244
  837MOL0     H15472   8.292  -0.133   8.112  0.6165 -1.3489 -1.9639
  837MOL0     H15473   8.312  -0.005   7.994 -1.0031 -3.3148 -0.3722
  837MOL0     H15474   8.443   0.009   8.272 -0.7714  4.5941  0.3264
  837MOL0     H15475   8.473   0.121   8.146 -0.3845  0.0495  0.2515
  837MOL0     H15476   8.562  -0.081   8.007  1.1345  2.9147 -0.5561
  837MOL0     H15477   8.533  -0.188   8.142  0.7229  0.0770 -0.2899
  837MOL0     H15478   8.701   0.061   8.135 -0.5783 -0.0468 -0.2183
  837MOL0     H15479   8.676  -0.030   8.294 -1.1937 -3.0719 -0.0085
  837MOL0     H15480   8.889  -0.084   8.225 -2.9247  2.6364  1.8304
  837MOL0     H15481   8.844  -0.110   8.061  1.4889  1.5742  1.7126
  837MOL0     H15482   8.906  -0.312   8.169  0.8218  2.4253 -0.2688
  837MOL0     H15483   8.724  -0.324   8.135 -1.7444  1.0631  0.3408
  837MOL0     H15484   8.679  -0.266   8.367  0.9068  0.1528  2.3847
  837MOL0     H15485   8.859  -0.262   8.396 -0.2377  0.6366  0.2435
  837MOL0     H15486   7.979  -0.024   8.338 -0.4799 -0.6495  0.7511
  837MOL0     H15487   7.745  -0.042   8.400  0.5974  0.5347  0.7191
  837MOL0     H15488   7.290   0.038   8.520 -2.9226  0.2290  1.2025
  837MOL0     H15489   7.042   0.027   8.506 -0.2918  0.9216 -1.2863
  837MOL0     H15490   5.096   0.414   8.128 -1.0623  0.2977 -0.8678
  837MOL0     H15491   4.865   0.440   8.180  1.2903 -0.2850  2.5963
  837MOL0     H15492   4.469   0.799   8.091  1.3122 -2.1904  0.7033
  837MOL0     H15493   4.224   0.806   8.154 -0.5006  2.1074  6.8924
  837MOL0     H15494   3.943   0.587   8.432  0.1758  0.0010  2.0357
  837MOL0     H15495   4.069   0.473   8.408 -0.8922  0.2667 -0.0564
  837MOL0     H15496   4.090   0.743   8.564 -1.4103 -0.7649  2.8306
  837MOL0     H15497   4.231   0.653   8.529  0.2017  1.9845 -0.0652
  837MOL0     H15498   4.128   0.627   8.761 -0.5587  0.2138  0.6073
  837MOL0     H15499   4.002   0.539   8.683 -0.6006  3.4934 -1.5217
  837MOL0     H15500   4.176   0.362   8.589  2.2863 -0.7961 -0.5208
  837MOL0     H15501   4.152   0.370   8.755  1.3257 -1.4065 -1.6501
  837MOL0     H15502   4.551   0.516   8.686 -1.1820  2.1200  3.2432
  837MOL0     H15503   4.301   0.445   8.392 -0.0008 -1.4843 -2.3313
  837MOL0     H15504   4.623   0.401   8.267 -0.3018  0.7629 -0.8694
  837MOL0     H15505   4.554   0.387   8.429 -0.1653 -2.7175 -0.1663
  837MOL0     H15506   4.473   0.318   8.298  1.1131 -0.9665  0.8010
  838MOL0     O15507   1.362   2.466   9.269 -0.2672  0.5381 -0.4042
  838MOL0     C15508   1.336   2.444   9.387 -0.8235  0.4017 -0.6647
  838MOL0     O15509   1.383   2.351   9.467  0.6517  0.7195 -1.1501
  838MOL0     C15510   1.486   2.280   9.410 -0.3098  0.0150  0.4437
  838MOL0     C15511   1.460   2.188   9.315  0.5481 -0.7691  0.1939
  838MOL0     C15512   1.561   2.117   9.254 -0.0185  0.0879  0.3260
  838MOL0     C15513   1.692   2.130   9.293 -0.1219  0.8120  0.4278
  838MOL0     O15514   1.773   2.058   9.211 -0.1561 -0.4301  0.0035
  838MOL0     C15515   1.911   2.094   9.190  0.3200  0.5541  0.2353
  838MOL0     C15516   1.978   1.977   9.125  0.2294  0.0342 -0.3913
  838MOL0     C15517   1.937   1.975   8.975  0.5594 -0.5904  1.2041
  838MOL0     C15518   2.035   1.916   8.877  0.4099  0.4820  0.9651
  838MOL0     C15519   2.101   1.786   8.911  0.3571 -0.2799 -0.1081
  838MOL0     C15520   2.188   1.735   8.789  0.4854 -0.1523 -0.7153
  838MOL0     C15521   2.103   1.693   8.670  0.5911  0.7496  0.9333
  838MOL0     C15522   2.130   1.785   8.549 -0.0016 -0.3077 -0.3551
  838MOL0     N15523   2.268   1.753   8.506 -0.2198 -0.7925 -0.0708
  838MOL0     C15524   2.313   1.646   8.431 -0.1460  0.1196 -0.2005
  838MOL0     C15525   2.446   1.676   8.404 -0.4799 -0.4124 -0.0545
  838MOL0     C15526   2.541   1.590   8.320  0.3485 -0.4364 -0.0668
  838MOL0     C15527   2.536   1.621   8.174  0.4069  0.0002  0.0237
  838MOL0     C15528   2.649   1.563   8.093  0.8544 -0.0143  0.4758
  838MOL0     C15529   2.686   1.666   7.981  0.0832 -0.0582 -0.4136
  838MOL0     O15530   2.796   1.618   7.905  0.2804  0.4381  0.1788
  838MOL0     C15531   2.833   1.669   7.786 -0.5061 -1.0498 -0.8211
  838MOL0     C15532   2.761   1.769   7.723 -0.3325  0.4141  0.1564
  838MOL0     C15533   2.822   1.850   7.626 -0.1773 -0.4418  0.1699
  838MOL0     C15534   2.744   1.965   7.579  0.7865 -0.1209 -0.6983
  838MOL0     C15535   2.952   1.827   7.576  0.1607  0.1631  0.5085
  838MOL0     C15536   3.025   1.901   7.470  0.8175  0.5186 -0.9274
  838MOL0     O15537   3.143   1.847   7.428  0.2499 -0.4081  0.2770
  838MOL0     C15538   3.242   1.925   7.369 -0.3222  0.6818 -0.3817
  838MOL0     C15539   3.308   2.028   7.444 -0.1942  0.3167 -0.0272
  838MOL0     C15540   3.410   2.098   7.384  0.3604  0.0589  0.8721
  838MOL0     C15541   3.448   2.073   7.250  0.5212 -0.3169 -0.4747
  838MOL0     O15542   3.524   2.157   7.171 -0.4665  0.4910 -0.1967
  838MOL0     C15543   3.555   2.290   7.224 -0.0941 -0.2179  0.1199
  838MOL0     C15544   3.593   2.395   7.112 -0.4897  0.8984  0.3666
  838MOL0     C15545   3.704   2.335   7.015  0.3803  0.0555  0.2455
  838MOL0     C15546   3.795   2.441   6.940  0.1504  0.2593  0.5310
  838MOL0     C15547   3.907   2.484   7.038  0.0404  0.9802 -0.0427
  838MOL0     C15548   3.974   2.603   6.978  0.0012 -0.1193  0.0883
  838MOL0     C15549   4.032   2.695   7.091  0.3437  0.1275  0.0902
  838MOL0     C15550   4.084   2.831   7.036  0.6995 -0.5563  0.4049
  838MOL0    Cl15551   4.250   2.820   6.970  0.0224  0.3937 -0.1277
  838MOL0     C15552   3.379   1.974   7.180  0.6416 -0.2265  0.2725
  838MOL0     C15553   3.283   1.895   7.236 -1.1510  0.6102  0.5513
  838MOL0     O15554   2.992   2.022   7.459 -0.9466  0.1482 -0.2107
  838MOL0     C15555   3.012   1.708   7.631  0.7072  0.6554 -0.5101
  838MOL0     C15556   2.961   1.647   7.746 -0.4666  0.2114 -0.1655
  838MOL0     N15557   2.469   1.804   8.453 -0.8140 -0.6023 -0.4661
  838MOL0     N15558   2.370   1.842   8.522 -0.1506  0.2902 -0.0296
  838MOL0     C15559   1.729   2.222   9.394 -0.8702  0.0760  0.0956
  838MOL0     C15560   1.622   2.296   9.458  0.0262 -0.7738 -0.3473
  838MOL0     C15561   1.234   2.531   9.451 -0.6658  0.5325  1.0045
  838MOL0     C15562   1.144   2.465   9.541  0.6626  0.7582  0.4656
  838MOL0     C15563   1.050   2.542   9.596  0.3613 -0.4556 -0.7845
  838MOL0     C15564   1.036   2.676   9.570  0.6166 -0.7827 -1.1299
  838MOL0     O15565   0.926   2.752   9.618  0.4355  0.4291  0.6192
  838MOL0     C15566   0.814   2.678   9.686  0.3409 -0.0874  0.5515
  838MOL0     C15567   0.734   2.782   9.763 -0.5562  0.9622  0.2052
  838MOL0     C15568   0.601   2.723   9.803  0.6531  0.3718  0.6844
  838MOL0     C15569   0.513   2.823   9.880 -0.9394  0.4703  0.9013
  838MOL0     C15570   0.564   2.861  10.007  0.7235 -0.3915 -0.0093
  838MOL0     C15571   0.601   2.897  10.121  0.5650  0.0268 -0.2916
  838MOL0     C15572   1.127   2.739   9.484  0.5006  0.1539  0.5971
  838MOL0     C15573   1.228   2.669   9.420 -0.4644  0.6781 -0.5049
  838MOL0     C15574   1.323   2.762   9.336 -0.1811  0.0950  0.2258
  838MOL0     H15575   1.357   2.169   9.286 -0.3934  2.8516  0.7058
  838MOL0     H15576   1.532   2.036   9.188 -1.7329 -2.8089  4.2311
  838MOL0     H15577   1.947   2.110   9.292 -3.0083 -2.2018  2.0506
  838MOL0     H15578   1.924   2.185   9.132  0.6859 -0.3506 -1.1578
  838MOL0     H15579   2.087   1.984   9.132  0.2376  0.8016 -1.1020
  838MOL0     H15580   1.953   1.884   9.176  1.3171  1.8615  3.9575
  838MOL0     H15581   1.835   1.936   8.974  0.0978  0.4669 -1.2522
  838MOL0     H15582   1.925   2.079   8.945 -0.2703 -0.0946  3.1304
  838MOL0     H15583   1.974   1.902   8.788  0.6347  2.2898  0.4971
  838MOL0     H15584   2.111   1.992   8.857 -2.0041  3.0889  1.1267
  838MOL0     H15585   2.022   1.716   8.938 -0.1635  0.4457  0.2582
  838MOL0     H15586   2.173   1.791   8.993  1.4928 -0.0001 -1.0761
  838MOL0     H15587   2.262   1.809   8.757  0.4239 -0.3156 -1.2508
  838MOL0     H15588   2.245   1.645   8.813  2.4348  0.8723 -1.2985
  838MOL0     H15589   1.997   1.699   8.695 -0.3548  1.4716 -2.7470
  838MOL0     H15590   2.129   1.591   8.640  0.0314  1.6251 -3.1419
  838MOL0     H15591   2.055   1.762   8.473 -1.3157  0.5407  0.6415
  838MOL0     H15592   2.124   1.887   8.586 -1.1065 -0.4106 -0.2219
  838MOL0     H15593   2.267   1.553   8.401 -0.2269  0.1934 -0.3038
  838MOL0     H15594   2.510   1.485   8.323 -0.2315 -0.2864 -0.6675
  838MOL0     H15595   2.644   1.601   8.356  1.3570 -2.1480 -2.1574
  838MOL0     H15596   2.445   1.583   8.127  0.5303  0.1624 -0.3420
  838MOL0     H15597   2.533   1.729   8.160  3.8508  0.2829  0.4875
  838MOL0     H15598   2.743   1.558   8.150  0.4225  0.1215  1.2072
  838MOL0     H15599   2.637   1.469   8.039 -0.5136  1.4477 -1.9500
  838MOL0     H15600   2.594   1.676   7.923 -1.3017 -1.7032  1.3553
  838MOL0     H15601   2.721   1.761   8.022  0.1423 -1.0659  2.0630
  838MOL0     H15602   2.662   1.803   7.750 -0.5399  0.1681 -0.2942
  838MOL0     H15603   2.746   1.990   7.473  0.1875  0.1631 -0.6492
  838MOL0     H15604   2.769   2.054   7.638  0.3303 -0.1930 -0.3960
  838MOL0     H15605   2.640   1.948   7.607  1.4411 -4.0014 -0.0807
  838MOL0     H15606   3.286   2.054   7.547  0.8559  1.8247 -0.1572
  838MOL0     H15607   3.445   2.185   7.438 -1.3118  0.8351  0.7496
  838MOL0     H15608   3.480   2.337   7.289  0.7536  1.6972 -0.2310
  838MOL0     H15609   3.641   2.257   7.284  2.6980 -3.1889 -4.8621
  838MOL0     H15610   3.514   2.434   7.047 -1.4670  1.3334  1.7712
  838MOL0     H15611   3.641   2.485   7.152 -0.4216  0.7434  0.6309
  838MOL0     H15612   3.653   2.293   6.928  1.7373  0.6224 -0.8633
  838MOL0     H15613   3.760   2.256   7.066 -0.3664 -0.5031  0.2113
  838MOL0     H15614   3.733   2.529   6.920  1.9689  1.7666  1.2417
  838MOL0     H15615   3.843   2.401   6.851  1.8627  3.8585 -0.3448
  838MOL0     H15616   3.860   2.502   7.135  0.8401  1.6741  0.2306
  838MOL0     H15617   3.977   2.401   7.051 -3.4107 -2.1709 -0.1201
  838MOL0     H15618   3.909   2.664   6.915 -1.2321 -0.2174  1.1969
  838MOL0     H15619   4.052   2.561   6.915  1.3638 -1.5541  2.5795
  838MOL0     H15620   4.121   2.644   7.129  1.7749  1.0009 -1.8950
  838MOL0     H15621   3.955   2.718   7.166 -0.6056  0.3303 -0.9237
  838MOL0     H15622   4.083   2.915   7.106 -3.2074  3.1621 -3.4535
  838MOL0     H15623   4.011   2.864   6.962 -0.7705  0.9449  2.4203
  838MOL0     H15624   3.408   1.975   7.075 -1.7535 -2.1156 -0.4824
  838MOL0     H15625   3.224   1.816   7.193 -1.6308  0.5598  1.2838
  838MOL0     H15626   3.111   1.681   7.595  0.8625  0.5459 -0.0171
  838MOL0     H15627   3.019   1.581   7.809 -3.5709 -2.2152  0.3897
  838MOL0     H15628   1.833   2.249   9.411 -0.9026  1.5690 -1.7760
  838MOL0     H15629   1.644   2.370   9.534 -1.2441 -0.0550 -0.6657
  838MOL0     H15630   1.158   2.364   9.576 -4.4987  0.6718  3.1866
  838MOL0     H15631   0.984   2.489   9.665  1.1265 -1.4362 -0.7772
  838MOL0     H15632   0.753   2.617   9.619 -0.2648  0.7988  0.2811
  838MOL0     H15633   0.862   2.604   9.751  3.5959  0.1661 -1.3430
  838MOL0     H15634   0.714   2.866   9.696 -1.1012  0.1720 -0.6592
  838MOL0     H15635   0.775   2.823   9.856  1.2143 -0.2348  0.0105
  838MOL0     H15636   0.558   2.690   9.708  3.0821  1.2263 -0.8154
  838MOL0     H15637   0.618   2.641   9.873 -1.3178  0.2313  1.0689
  838MOL0     H15638   0.414   2.776   9.887 -1.5383  1.7381  1.1947
  838MOL0     H15639   0.498   2.909   9.815 -0.2879 -0.8906 -1.1698
  838MOL0     H15640   0.627   2.914  10.224 -0.2509 -2.0614  0.3277
  838MOL0     H15641   1.114   2.844   9.461 -3.7035 -0.5439 -1.0908
  838MOL0     H15642   1.282   2.776   9.235  0.4932  0.1013 -0.0536
  838MOL0     H15643   1.344   2.865   9.368  2.4767  0.1923 -1.5620
  838MOL0     H15644   1.418   2.709   9.333 -1.4773 -2.4085 -2.3770
  839MOL0     O15645  10.096   0.989   9.695 -1.0544  0.6265 -0.5691
  839MOL0     C15646  10.026   1.069   9.637  0.0663 -0.2469 -0.1439
  839MOL0     O15647  10.036   1.199   9.636 -0.2304 -0.4386  0.8545
  839MOL0     C15648  10.106   1.260   9.740  0.5536  0.1927  0.1135
  839MOL0     C15649  10.188   1.365   9.699 -0.1737 -0.7889 -0.7118
  839MOL0     C15650  10.242   1.444   9.804 -0.1886  0.6711 -0.3914
  839MOL0     C15651  10.211   1.421   9.937  0.1508  0.0590  0.8911
  839MOL0     O15652  10.266   1.512  10.026 -0.5474  0.2068 -0.1565
  839MOL0     C15653  10.239   1.497  10.177  0.2639 -0.1504  0.8235
  839MOL0     C15654  10.309   1.590  10.275  0.4124 -0.1246 -0.1800
  839MOL0     C15655  10.466   1.588  10.285  0.4907  0.0352  0.8760
  839MOL0     C15656  10.517   1.719  10.344 -0.0097 -0.0154 -0.1881
  839MOL0     C15657  10.624   1.776  10.250 -0.7791 -0.1676 -0.0043
  839MOL0     C15658  10.685   1.908  10.310  0.1077 -0.5325 -0.7173
  839MOL0     C15659  10.803   1.973  10.229  0.1224 -0.0233  0.1975
  839MOL0     C15660  10.776   1.983  10.079  0.5218  0.4601  0.1180
  839MOL0     N15661  10.876   2.061  10.018  0.1766 -0.0941  0.3960
  839MOL0     C15662  10.922   2.038   9.890  0.5409  0.6732  0.7242
  839MOL0     C15663  11.037   2.105   9.876  0.7574 -0.0147  0.3768
  839MOL0     C15664  11.116   2.119   9.753 -0.7368  0.8990  0.6975
  839MOL0     C15665  11.266   2.073   9.775 -0.8374  0.7036 -0.3340
  839MOL0     C15666  11.367   2.186   9.801 -0.6717 -0.4039  1.0445
  839MOL0     C15667  11.514   2.134   9.769  1.2721 -1.5029  0.4451
  839MOL0     O15668  11.601   2.246   9.791  0.5651  0.3829 -0.2365
  839MOL0     C15669  11.724   2.236   9.733 -0.1394 -0.2283  0.2092
  839MOL0     C15670  11.771   2.131   9.643 -0.6493 -0.4365  0.4501
  839MOL0     C15671  11.901   2.131   9.588 -0.4596  0.1653  0.1332
  839MOL0     C15672  11.936   2.023   9.488  0.7805 -0.2194  0.3543
  839MOL0     C15673  11.991   2.238   9.620 -0.3893 -0.0075  0.3140
  839MOL0     C15674  12.125   2.253   9.566 -0.9210 -0.2466 -0.2871
  839MOL0     O15675  12.163   2.157   9.481 -0.3279  0.1954  0.2997
  839MOL0     C15676  12.272   2.175   9.400  0.0308  0.7305 -0.3457
  839MOL0     C15677  12.312   2.300   9.346 -0.4370  0.0947 -0.2317
  839MOL0     C15678  12.408   2.311   9.247 -0.3379  0.2107 -0.4260
  839MOL0     C15679  12.470   2.197   9.200  0.3141  0.4523 -0.0765
  839MOL0     O15680  12.564   2.206   9.096 -0.2177 -0.1469 -0.6371
  839MOL0     C15681  12.601   2.090   9.018 -0.5429  0.4828  0.9979
  839MOL0     C15682  12.730   2.123   8.934  0.2681 -0.3803  0.2726
  839MOL0     C15683  12.735   2.041   8.811 -0.1848  0.2136 -0.7777
  839MOL0     C15684  12.862   2.088   8.741  0.4954 -0.0540  0.2811
  839MOL0     C15685  12.882   2.031   8.600  0.6845 -0.2849 -1.0363
  839MOL0     C15686  13.018   2.089   8.553  1.2251  0.1242 -0.0401
  839MOL0     C15687  13.051   2.041   8.412  0.4300  0.1319 -0.5823
  839MOL0     C15688  13.190   2.091   8.369  0.4370 -0.2540 -0.7355
  839MOL0    Cl15689  13.322   2.023   8.469  0.0930 -0.3053 -0.4884
  839MOL0     C15690  12.431   2.072   9.249  0.3160  0.4130  0.5088
  839MOL0     C15691  12.336   2.064   9.354 -0.2209  0.1321  0.3099
  839MOL0     O15692  12.196   2.348   9.601  0.2426 -0.5888 -0.3526
  839MOL0     C15693  11.941   2.345   9.706  0.1829  0.1557 -0.1802
  839MOL0     C15694  11.807   2.342   9.759 -0.4885 -0.0983  0.2285
  839MOL0     N15695  11.070   2.165  10.000 -0.2382 -0.4750  0.3377
  839MOL0     N15696  10.974   2.140  10.074  0.7575 -0.3835  0.3370
  839MOL0     C15697  10.125   1.314   9.972 -0.6523  0.0000 -0.0135
  839MOL0     C15698  10.065   1.242   9.871  0.2236  0.2718  0.5021
  839MOL0     C15699   9.929   1.020   9.536 -0.5942 -0.6809 -0.5983
  839MOL0     C15700   9.824   1.101   9.492  0.4566 -0.7203 -0.7465
  839MOL0     C15701   9.712   1.054   9.420  0.7736 -0.0973  0.0284
  839MOL0     C15702   9.705   0.923   9.386 -0.1023  0.4614  0.2726
  839MOL0     O15703   9.586   0.890   9.324  0.0575 -0.2150 -0.7562
  839MOL0     C15704   9.582   0.770   9.242 -0.3715 -0.0228 -0.1293
  839MOL0     C15705   9.494   0.799   9.125  0.1738 -0.1436  0.4207
  839MOL0     C15706   9.360   0.872   9.164  0.1102  0.5133  0.0066
  839MOL0     C15707   9.247   0.851   9.063 -0.1965 -0.0681  0.6429
  839MOL0     C15708   9.125   0.890   9.129  0.4195  0.1200 -0.7517
  839MOL0     C15709   9.016   0.918   9.178 -0.4215 -0.4738  0.1267
  839MOL0     C15710   9.806   0.833   9.425  0.7802  0.7215  0.0266
  839MOL0     C15711   9.921   0.875   9.497  0.4018 -0.9172 -0.1957
  839MOL0     C15712  10.029   0.776   9.528  0.4335  0.6320  0.2220
  839MOL0     H15713  10.205   1.398   9.597 -1.1942  2.1370 -0.0572
  839MOL0     H15714  10.308   1.528   9.787  3.1520 -1.5732  0.5933
  839MOL0     H15715  10.259   1.396  10.215 -3.2140 -2.0365 -1.7967
  839MOL0     H15716  10.130   1.495  10.186  0.3925  0.8422  3.6786
  839MOL0     H15717  10.267   1.689  10.252 -1.4256 -0.7221  0.4082
  839MOL0     H15718  10.275   1.567  10.377  1.0159 -1.2160 -0.2156
  839MOL0     H15719  10.500   1.503  10.344  0.1905 -0.9532 -0.3393
  839MOL0     H15720  10.501   1.576  10.182  1.4175 -3.5228  1.4800
  839MOL0     H15721  10.431   1.786  10.348 -2.1683 -2.6713  1.5872
  839MOL0     H15722  10.552   1.709  10.447  0.1072 -0.8618 -0.2988
  839MOL0     H15723  10.593   1.787  10.146  1.8121 -0.9939 -0.9563
  839MOL0     H15724  10.699   1.696  10.242  0.0679  0.7745 -2.5720
  839MOL0     H15725  10.608   1.986  10.317  1.8020  1.3020 -1.6016
  839MOL0     H15726  10.727   1.881  10.407  3.0785  0.0304 -1.7490
  839MOL0     H15727  10.891   1.910  10.246 -0.0291 -0.7166 -1.4282
  839MOL0     H15728  10.824   2.069  10.276  2.3431 -0.0202 -0.6942
  839MOL0     H15729  10.767   1.886  10.029 -5.3557  1.7844 -2.1858
  839MOL0     H15730  10.679   2.031  10.065  1.2060  1.4869 -1.4594
  839MOL0     H15731  10.878   1.976   9.813  2.3963 -2.1998  1.8148
  839MOL0     H15732  11.117   2.222   9.714  1.2315 -0.1949 -2.4972
  839MOL0     H15733  11.073   2.057   9.673  2.2339 -0.4046 -0.0429
  839MOL0     H15734  11.270   1.993   9.849 -0.6942 -0.2157 -1.3111
  839MOL0     H15735  11.294   2.025   9.681  2.8577 -2.0991  1.9584
  839MOL0     H15736  11.343   2.271   9.738 -1.3883 -0.2846  1.4638
  839MOL0     H15737  11.364   2.219   9.905 -1.2617 -0.0490  0.9190
  839MOL0     H15738  11.533   2.043   9.827  1.5066 -2.7408 -1.4805
  839MOL0     H15739  11.510   2.096   9.667  0.6487  0.4199 -0.2825
  839MOL0     H15740  11.700   2.052   9.621 -1.1176 -0.3338  1.5525
  839MOL0     H15741  11.956   2.064   9.388  3.0673  0.6747  1.1179
  839MOL0     H15742  11.873   1.934   9.477 -3.0555  2.5360 -2.3889
  839MOL0     H15743  12.020   1.969   9.534 -1.0239 -2.1130  1.5789
  839MOL0     H15744  12.277   2.395   9.386 -1.5360 -1.5274  3.0849
  839MOL0     H15745  12.431   2.408   9.205 -1.3680  0.0482 -1.4275
  839MOL0     H15746  12.627   2.002   9.077  1.4536 -2.6757 -3.9329
  839MOL0     H15747  12.519   2.071   8.949  0.7277 -0.0274 -0.4224
  839MOL0     H15748  12.724   2.229   8.909 -0.4851  0.2665  2.8864
  839MOL0     H15749  12.811   2.122   9.007 -0.4531  0.2745  1.1058
  839MOL0     H15750  12.642   2.064   8.758 -1.7395  1.1653  2.1098
  839MOL0     H15751  12.735   1.934   8.835  1.6549  0.1642 -0.8613
  839MOL0     H15752  12.947   2.055   8.801  0.1666  0.8053  1.2453
  839MOL0     H15753  12.863   2.197   8.736 -0.6585 -0.0356  0.0148
  839MOL0     H15754  12.875   1.922   8.591  1.3467 -0.5772  1.3807
  839MOL0     H15755  12.803   2.069   8.534  1.2862  4.2555  0.5268
  839MOL0     H15756  13.094   2.065   8.628 -1.0177 -1.5553  1.8361
  839MOL0     H15757  13.008   2.198   8.543 -0.0584  0.1234  0.9869
  839MOL0     H15758  12.972   2.075   8.345  0.8615  0.9410 -0.6983
  839MOL0     H15759  13.050   1.931   8.416  1.7682  0.1313  0.9090
  839MOL0     H15760  13.181   2.199   8.384 -2.0982 -0.3285 -1.2666
  839MOL0     H15761  13.209   2.063   8.265 -2.2186  1.5005 -1.8172
  839MOL0     H15762  12.472   1.976   9.220 -1.0778 -0.2580  0.6660
  839MOL0     H15763  12.295   1.967   9.380 -0.9142  0.3295 -0.0431
  839MOL0     H15764  12.003   2.432   9.722 -0.3008  0.5045 -0.1734
  839MOL0     H15765  11.779   2.425   9.822  2.8228  1.5114 -0.1847
  839MOL0     H15766  10.108   1.286  10.075 -2.3010  2.4826  0.4630
  839MOL0     H15767   9.998   1.163   9.902 -1.8358  2.1305  0.9822
  839MOL0     H15768   9.813   1.208   9.511  0.1954 -0.7924 -0.4856
  839MOL0     H15769   9.629   1.121   9.400  2.5950  1.8035 -1.7576
  839MOL0     H15770   9.684   0.750   9.208 -0.2845  0.2068 -0.0027
  839MOL0     H15771   9.524   0.695   9.296  1.2839  0.1468  1.9803
  839MOL0     H15772   9.475   0.701   9.080  4.6708 -0.3810 -1.3999
  839MOL0     H15773   9.549   0.862   9.055 -4.1140  2.6859 -0.8550
  839MOL0     H15774   9.328   0.829   9.259  0.2525 -0.0676 -0.2069
  839MOL0     H15775   9.371   0.980   9.179  0.3283  0.1630  2.7272
  839MOL0     H15776   9.241   0.744   9.040  3.8324 -0.7766  2.0996
  839MOL0     H15777   9.265   0.908   8.970  3.1244  1.5800  2.0904
  839MOL0     H15778   8.929   0.948   9.232  0.6813  1.2157  1.0583
  839MOL0     H15779   9.787   0.727   9.407  2.9397  0.3222 -0.1284
  839MOL0     H15780  10.119   0.807   9.473  2.0809 -0.5986  2.0828
  839MOL0     H15781  10.054   0.777   9.635  0.1618  2.2587  0.3071
  839MOL0     H15782   9.998   0.677   9.494  4.5303  0.0366 -2.6328
  840MOL0     O15783   5.320   3.085   6.594 -0.1160  0.1616  0.1682
  840MOL0     C15784   5.331   3.012   6.498 -0.1951  0.1658 -0.0797
  840MOL0     O15785   5.416   3.029   6.390  0.6989  0.0712  0.5670
  840MOL0     C15786   5.490   3.143   6.368 -0.5588  0.0054 -0.1409
  840MOL0     C15787   5.576   3.190   6.474  0.0211  0.1374 -0.3013
  840MOL0     C15788   5.676   3.287   6.456  0.4542 -0.0124  0.4320
  840MOL0     C15789   5.701   3.335   6.331 -1.1064  0.1404  0.6050
  840MOL0     O15790   5.810   3.416   6.293  0.0726 -0.0705  0.5762
  840MOL0     C15791   5.879   3.502   6.388 -0.9007  0.2010  0.3227
  840MOL0     C15792   5.977   3.595   6.313 -0.0019  0.0248 -0.1239
  840MOL0     C15793   6.103   3.535   6.249  0.0590  0.4089 -0.5572
  840MOL0     C15794   6.206   3.636   6.202 -0.4696 -0.1353 -0.0010
  840MOL0     C15795   6.341   3.573   6.182 -0.6312 -0.1639 -0.3801
  840MOL0     C15796   6.430   3.674   6.114  0.3227  0.2291 -0.0061
  840MOL0     C15797   6.572   3.634   6.139 -0.3177  0.6220  1.1660
  840MOL0     C15798   6.633   3.537   6.036 -0.3126  1.0330  0.8777
  840MOL0     N15799   6.767   3.480   6.075  0.9272  0.5238 -0.2191
  840MOL0     C15800   6.795   3.420   6.195  0.0008 -0.1135 -0.6131
  840MOL0     C15801   6.930   3.413   6.202 -0.5392  0.0036 -0.0629
  840MOL0     C15802   6.999   3.355   6.320 -0.6605 -0.4676  0.0143
  840MOL0     C15803   7.122   3.446   6.346 -1.0364  0.7406 -0.9475
  840MOL0     C15804   7.168   3.427   6.488  0.3849 -0.0359  0.7599
  840MOL0     C15805   7.178   3.277   6.548 -0.7261  0.4383  0.4183
  840MOL0     O15806   7.247   3.180   6.467  0.5661  0.6604  0.1890
  840MOL0     C15807   7.385   3.171   6.452 -0.2600  0.3405 -0.0518
  840MOL0     C15808   7.463   3.272   6.501 -1.1183  0.1210 -0.1365
  840MOL0     C15809   7.603   3.269   6.484 -0.0798 -0.4667  0.1423
  840MOL0     C15810   7.672   3.377   6.560 -0.3156 -0.2098 -0.3395
  840MOL0     C15811   7.663   3.174   6.399 -0.3267  0.0425 -0.6377
  840MOL0     C15812   7.805   3.166   6.365  0.8693 -0.2936 -0.0147
  840MOL0     O15813   7.877   3.278   6.380 -0.0323  0.7440 -0.8387
  840MOL0     C15814   8.021   3.269   6.364  0.5843 -0.1485 -0.5156
  840MOL0     C15815   8.081   3.376   6.302  0.1201  0.9783  0.0814
  840MOL0     C15816   8.221   3.373   6.272 -0.4246  0.3509  0.7218
  840MOL0     C15817   8.299   3.261   6.315 -0.3884  0.8550 -0.2486
  840MOL0     O15818   8.443   3.254   6.284 -0.0442  0.3832  0.2163
  840MOL0     C15819   8.478   3.155   6.180 -0.4183 -0.5349  0.5561
  840MOL0     C15820   8.639   3.157   6.171  0.0528 -0.3111  0.3366
  840MOL0     C15821   8.700   3.053   6.080  0.2273 -0.0965 -0.0437
  840MOL0     C15822   8.849   3.078   6.040 -0.4864 -0.5980  0.3374
  840MOL0     C15823   8.947   3.094   6.158 -0.1062  0.0464  0.0778
  840MOL0     C15824   8.968   2.962   6.227 -0.1665  0.8639  0.1611
  840MOL0     C15825   9.070   2.875   6.150  0.2776  0.0489  0.5692
  840MOL0     C15826   9.004   2.765   6.067 -0.3216 -0.7510  0.0215
  840MOL0    Cl15827   8.915   2.655   6.179  0.1493  0.4232  0.6850
  840MOL0     C15828   8.246   3.173   6.413 -1.2124  0.2188  0.5448
  840MOL0     C15829   8.105   3.178   6.432 -0.1045 -0.2769 -0.7596
  840MOL0     O15830   7.850   3.059   6.328 -0.1063  0.2356 -0.1233
  840MOL0     C15831   7.580   3.075   6.346 -0.8581  0.5211 -0.0661
  840MOL0     C15832   7.446   3.072   6.379  0.2024 -0.0899  0.2999
  840MOL0     N15833   6.983   3.469   6.088 -0.1492  0.4081 -0.6129
  840MOL0     N15834   6.881   3.510   6.018 -1.0174  0.2111  0.0507
  840MOL0     C15835   5.620   3.289   6.223 -0.8592 -0.1108  0.8069
  840MOL0     C15836   5.520   3.198   6.240  0.5549 -0.0868 -0.6984
  840MOL0     C15837   5.234   2.896   6.492  0.3199 -0.2181  0.0399
  840MOL0     C15838   5.228   2.818   6.374 -0.4592 -0.4763 -0.1239
  840MOL0     C15839   5.154   2.698   6.355 -0.0029  0.3292 -0.6108
  840MOL0     C15840   5.077   2.649   6.458 -0.7805 -0.1323 -0.5805
  840MOL0     O15841   5.026   2.521   6.454 -0.5248 -0.1273  0.2764
  840MOL0     C15842   4.916   2.511   6.368 -0.0386 -0.3685  0.8512
  840MOL0     C15843   4.779   2.544   6.439  0.1244  1.0353  0.0064
  840MOL0     C15844   4.661   2.480   6.362  0.0224 -0.0865 -0.0433
  840MOL0     C15845   4.530   2.554   6.401 -0.0177  0.8319  0.5821
  840MOL0     C15846   4.482   2.517   6.530  1.1953  0.1178 -0.8492
  840MOL0     C15847   4.422   2.496   6.640 -0.5758 -0.4221 -0.2413
  840MOL0     C15848   5.068   2.734   6.570 -0.0467  0.5301 -0.2854
  840MOL0     C15849   5.143   2.853   6.591  0.3680  1.2201 -0.8336
  840MOL0     C15850   5.122   2.923   6.723 -0.1580  0.1515 -0.2191
  840MOL0     H15851   5.557   3.157   6.576  3.0254 -1.0920 -0.0461
  840MOL0     H15852   5.716   3.323   6.550 -0.4191  2.7031 -0.1293
  840MOL0     H15853   5.934   3.448   6.466 -0.4450  0.8931  0.4791
  840MOL0     H15854   5.801   3.560   6.437 -1.9237 -0.4084 -0.5396
  840MOL0     H15855   5.921   3.647   6.235 -1.4497  0.0013  0.8483
  840MOL0     H15856   6.023   3.672   6.375  1.6864 -0.3106 -0.9129
  840MOL0     H15857   6.166   3.471   6.313  2.1170  1.9787 -0.9222
  840MOL0     H15858   6.085   3.465   6.167 -0.0383  2.1759 -2.0989
  840MOL0     H15859   6.163   3.681   6.112 -1.0408  3.8484  2.0510
  840MOL0     H15860   6.214   3.721   6.271  1.9514 -1.2045  1.1746
  840MOL0     H15861   6.342   3.480   6.124  0.2589  1.1810 -2.6223
  840MOL0     H15862   6.382   3.544   6.280  2.9993 -1.5779 -2.1242
  840MOL0     H15863   6.422   3.683   6.005  1.4295  3.2853  0.0527
  840MOL0     H15864   6.408   3.768   6.165 -0.6262  0.0582 -0.0834
  840MOL0     H15865   6.570   3.587   6.238 -1.2745  0.1267  0.9270
  840MOL0     H15866   6.632   3.726   6.145 -1.6197  1.9272 -2.7742
  840MOL0     H15867   6.575   3.446   6.019 -0.7764  1.4033  0.4449
  840MOL0     H15868   6.644   3.587   5.939 -1.5255 -2.1260 -1.0339
  840MOL0     H15869   6.728   3.387   6.274 -0.4965  2.3758  0.1141
  840MOL0     H15870   7.028   3.253   6.296 -0.8944 -0.1999 -1.4934
  840MOL0     H15871   6.930   3.360   6.405 -0.7626 -2.1346  0.0637
  840MOL0     H15872   7.201   3.408   6.280 -0.9368 -1.2436  0.2149
  840MOL0     H15873   7.094   3.551   6.345  0.0790  1.2283  2.6412
  840MOL0     H15874   7.265   3.477   6.500  0.5698 -0.4097  0.8659
  840MOL0     H15875   7.101   3.487   6.550  1.1879  1.1714  0.5034
  840MOL0     H15876   7.234   3.283   6.642 -0.7065 -0.5047  0.4750
  840MOL0     H15877   7.077   3.238   6.560  0.7926 -3.1695  3.2119
  840MOL0     H15878   7.420   3.348   6.565 -3.1256 -1.0046 -0.0870
  840MOL0     H15879   7.610   3.408   6.645 -1.2604  2.6080 -1.9349
  840MOL0     H15880   7.686   3.465   6.497  3.2548 -0.4337 -0.0618
  840MOL0     H15881   7.771   3.355   6.600  0.8551  2.8764 -1.2455
  840MOL0     H15882   8.032   3.465   6.262 -0.2278  1.5320  1.6706
  840MOL0     H15883   8.258   3.443   6.197 -1.8098  1.7168  1.2542
  840MOL0     H15884   8.436   3.056   6.201 -0.0552 -0.9867 -0.7742
  840MOL0     H15885   8.439   3.178   6.080  0.1962 -2.4308 -0.1583
  840MOL0     H15886   8.661   3.254   6.124 -2.9510 -1.5589 -4.1996
  840MOL0     H15887   8.669   3.139   6.275 -1.6662  0.2975  0.9747
  840MOL0     H15888   8.640   3.033   5.991  0.0357 -1.0860  0.2981
  840MOL0     H15889   8.699   2.962   6.140 -1.4754  0.3199  0.6442
  840MOL0     H15890   8.843   3.169   5.980 -1.0252 -2.0850 -1.9855
  840MOL0     H15891   8.884   3.004   5.968  0.9409  0.0535  0.3334
  840MOL0     H15892   9.048   3.120   6.123 -0.2449  0.3508 -0.0962
  840MOL0     H15893   8.910   3.163   6.234 -0.8963  1.5465 -1.5886
  840MOL0     H15894   8.874   2.909   6.242  0.4618 -0.4510 -0.4080
  840MOL0     H15895   9.005   2.992   6.326 -0.4724  0.7394  0.3122
  840MOL0     H15896   9.138   2.819   6.214 -0.8766 -0.2573  1.5698
  840MOL0     H15897   9.132   2.929   6.078 -1.8918 -1.7280 -2.9263
  840MOL0     H15898   9.085   2.706   6.023  0.5770  0.1666  0.4164
  840MOL0     H15899   8.945   2.810   5.986  1.6447  0.0280 -1.0280
  840MOL0     H15900   8.305   3.093   6.457 -0.3993  0.3873 -0.2327
  840MOL0     H15901   8.056   3.113   6.503 -0.6240  0.6872 -0.2137
  840MOL0     H15902   7.604   2.998   6.273  0.3353  0.7312  0.0901
  840MOL0     H15903   7.384   2.992   6.340 -0.1152  0.2565  0.0830
  840MOL0     H15904   5.618   3.333   6.123 -4.5826 -2.9137 -0.5886
  840MOL0     H15905   5.464   3.151   6.160  0.0125  0.3584 -0.5947
  840MOL0     H15906   5.298   2.834   6.292 -0.0364 -0.6235  0.2021
  840MOL0     H15907   5.167   2.640   6.264 -1.3107 -0.4930 -0.3010
  840MOL0     H15908   4.928   2.578   6.283 -0.7788 -0.2652  0.8243
  840MOL0     H15909   4.926   2.414   6.320  0.5705 -1.2801  2.7040
  840MOL0     H15910   4.770   2.653   6.452  2.2000  1.2142  0.1658
  840MOL0     H15911   4.779   2.501   6.539  1.5467  1.4071  0.1881
  840MOL0     H15912   4.677   2.488   6.254  2.8701  2.8151  0.4364
  840MOL0     H15913   4.651   2.380   6.404 -2.3673  1.3559  3.2439
  840MOL0     H15914   4.450   2.541   6.327 -2.2073  0.4774  2.8575
  840MOL0     H15915   4.555   2.660   6.409  1.9008  0.3669  1.1213
  840MOL0     H15916   4.364   2.476   6.727 -0.5782  1.6941  0.2967
  840MOL0     H15917   4.993   2.705   6.643 -0.9016 -0.1797 -1.4070
  840MOL0     H15918   5.040   2.883   6.783  0.7515 -1.2523  0.1284
  840MOL0     H15919   5.209   2.923   6.790 -0.0869 -0.3394 -0.3108
  840MOL0     H15920   5.113   3.032   6.718 -0.4487  0.3183  2.6178
  841MOL0     O15921   0.294  10.306   1.114  0.5027  0.1747  0.0882
  841MOL0     C15922   0.227  10.332   1.212  0.2837  0.4276  0.3740
  841MOL0     O15923   0.268  10.368   1.327  1.0544 -0.5745 -0.7896
  841MOL0     C15924   0.404  10.372   1.350 -0.7306  0.3015  0.4570
  841MOL0     C15925   0.490  10.466   1.294 -0.3822 -0.2980 -0.3804
  841MOL0     C15926   0.623  10.468   1.330 -0.4928 -0.9502 -0.5006
  841MOL0     C15927   0.676  10.359   1.406 -0.2676  0.5292 -0.4785
  841MOL0     O15928   0.805  10.337   1.452 -0.3715 -0.1670 -1.2065
  841MOL0     C15929   0.910  10.426   1.408 -0.3565  1.0938 -0.0959
  841MOL0     C15930   0.947  10.553   1.483 -0.5432  0.0852  1.4170
  841MOL0     C15931   0.924  10.538   1.636 -1.2750 -0.1846  0.0949
  841MOL0     C15932   0.960  10.664   1.713  0.2970  0.6120  0.2524
  841MOL0     C15933   0.943  10.643   1.865 -0.8054 -0.1763  0.2449
  841MOL0     C15934   0.968  10.781   1.934  1.2101  0.6999 -0.0134
  841MOL0     C15935   0.965  10.758   2.084  0.1940 -0.2159  0.7382
  841MOL0     C15936   0.989  10.895   2.156 -0.1307  0.3929  0.5678
  841MOL0     N15937   1.130  10.930   2.115 -0.4631  0.4949  0.0976
  841MOL0     C15938   1.241  10.849   2.156  0.3033  0.3859  0.2034
  841MOL0     C15939   1.345  10.898   2.088 -0.1455 -0.7873 -0.6050
  841MOL0     C15940   1.492  10.872   2.103 -0.3336  0.4475 -0.2223
  841MOL0     C15941   1.577  10.958   2.010 -0.3102 -0.0823 -0.1148
  841MOL0     C15942   1.721  10.915   2.024  0.1329  0.5020 -0.5842
  841MOL0     C15943   1.822  11.004   1.963  0.1674 -0.3356  0.3741
  841MOL0     O15944   1.808  11.119   2.048  0.4397  0.5458 -0.5573
  841MOL0     C15945   1.856  11.235   1.997 -0.7783  0.5686 -1.1525
  841MOL0     C15946   1.793  11.354   2.037  0.0544  0.6002  0.3730
  841MOL0     C15947   1.837  11.484   2.009 -0.3513 -0.5654  0.8087
  841MOL0     C15948   1.742  11.596   2.063 -0.4970 -0.1007  0.3566
  841MOL0     C15949   1.964  11.496   1.945 -1.1077 -0.1787 -0.1490
  841MOL0     C15950   2.024  11.629   1.894  0.3598 -0.1030  1.4611
  841MOL0     O15951   2.146  11.610   1.837 -0.5114  0.0468 -0.1309
  841MOL0     C15952   2.215  11.708   1.770  0.4890 -0.1130  0.3501
  841MOL0     C15953   2.254  11.822   1.836  0.5371 -0.7892  0.4977
  841MOL0     C15954   2.330  11.919   1.767 -1.2339 -0.0778  1.2542
  841MOL0     C15955   2.368  11.908   1.631  0.1452 -0.1961  0.0193
  841MOL0     O15956   2.424  12.001   1.548 -0.3261 -0.6895 -0.5936
  841MOL0     C15957   2.514  12.104   1.597  0.0979 -0.0693 -1.0252
  841MOL0     C15958   2.470  12.235   1.536  0.0168 -0.0534  0.2305
  841MOL0     C15959   2.559  12.347   1.569 -0.0401  0.2741 -0.6056
  841MOL0     C15960   2.547  12.472   1.475  0.6377  0.7466 -0.0073
  841MOL0     C15961   2.509  12.596   1.569 -0.6622 -0.0892  0.0180
  841MOL0     C15962   2.534  12.731   1.490  0.3391 -0.0321 -0.2571
  841MOL0     C15963   2.692  12.759   1.468  0.7007  0.5413 -0.0617
  841MOL0     C15964   2.730  12.911   1.454  0.0240  0.7421  1.0313
  841MOL0    Cl15965   2.879  12.929   1.371  0.0398  0.2396  0.6604
  841MOL0     C15966   2.322  11.792   1.566  0.4339 -1.2645  0.3331
  841MOL0     C15967   2.254  11.688   1.636 -0.2720  0.0435 -0.3025
  841MOL0     O15968   1.964  11.738   1.906 -0.6215  0.1094  0.2914
  841MOL0     C15969   2.033  11.375   1.916 -0.2865 -0.6688 -0.8927
  841MOL0     C15970   1.984  11.252   1.941  0.0941  0.2564 -0.1731
  841MOL0     N15971   1.299  11.001   2.014  0.1236 -0.6907  0.1926
  841MOL0     N15972   1.174  11.025   2.030 -0.6984 -0.5941  0.0849
  841MOL0     C15973   0.593  10.248   1.437 -0.2725  0.6186 -0.1436
  841MOL0     C15974   0.454  10.263   1.413  0.3620  0.1780  0.2848
  841MOL0     C15975   0.083  10.311   1.178 -1.3834 -0.0232  0.2778
  841MOL0     C15976   0.032  10.383   1.078  0.1270  0.2512 -0.1258
  841MOL0     C15977  -0.094  10.346   1.021 -0.2111 -0.1429  0.7106
  841MOL0     C15978  -0.178  10.255   1.089  0.8175 -0.1358 -0.4252
  841MOL0     O15979  -0.307  10.214   1.057 -0.1727  0.2604 -0.0457
  841MOL0     C15980  -0.368  10.289   0.946  0.3296 -0.2125  0.3747
  841MOL0     C15981  -0.522  10.278   0.956  0.2987 -0.5407 -1.0925
  841MOL0     C15982  -0.592  10.328   0.823 -0.4260  0.7912 -1.1039
  841MOL0     C15983  -0.743  10.301   0.849 -0.2300  0.1014  0.3735
  841MOL0     C15984  -0.807  10.338   0.720  0.6072  0.4965  0.0052
  841MOL0     C15985  -0.853  10.364   0.605 -0.1716 -0.2650  0.8243
  841MOL0     C15986  -0.124  10.189   1.202  0.2254 -0.5668 -0.0806
  841MOL0     C15987   0.000  10.217   1.245 -1.0018  0.0139 -0.4634
  841MOL0     C15988   0.058  10.138   1.370  0.3958 -0.0824 -0.3101
  841MOL0     H15989   0.443  10.543   1.234  2.1418 -0.3985 -2.6368
  841MOL0     H15990   0.693  10.546   1.302 -2.5409  2.2983  2.6255
  841MOL0     H15991   0.894  10.448   1.302 -0.5222  2.2195  0.1437
  841MOL0     H15992   1.005  10.372   1.414 -1.9107 -1.6168  1.8960
  841MOL0     H15993   1.051  10.583   1.465 -0.4264 -0.7280  0.6696
  841MOL0     H15994   0.875  10.628   1.450 -1.4355 -1.5375 -0.4802
  841MOL0     H15995   0.825  10.498   1.660 -0.8865 -0.0549  2.0704
  841MOL0     H15996   0.991  10.462   1.679  0.6582  1.5595  0.2742
  841MOL0     H15997   1.065  10.693   1.698  0.1767  1.9440  1.7412
  841MOL0     H15998   0.901  10.748   1.675 -2.1748 -0.4330  1.5724
  841MOL0     H15999   1.015  10.569   1.902 -0.0933  0.8400  0.9397
  841MOL0     H16000   0.838  10.613   1.875 -1.3920  1.5422 -0.5008
  841MOL0     H16001   1.065  10.821   1.902  1.3503 -1.5615 -2.8648
  841MOL0     H16002   0.900  10.859   1.899  1.9794  1.1397 -0.5645
  841MOL0     H16003   1.046  10.691   2.113 -1.1516 -1.8451  0.8590
  841MOL0     H16004   0.869  10.721   2.120  0.8354 -2.5221  0.2318
  841MOL0     H16005   0.920  10.966   2.107 -2.5619 -0.1599  2.9672
  841MOL0     H16006   0.970  10.893   2.263  1.7366 -1.2837  0.9187
  841MOL0     H16007   1.233  10.770   2.229  0.4909  1.9156  1.9479
  841MOL0     H16008   1.500  10.764   2.088 -1.2121  0.1748  1.1496
  841MOL0     H16009   1.516  10.894   2.207 -0.7195 -1.1851  0.2383
  841MOL0     H16010   1.545  10.941   1.906  1.8204 -0.2888 -0.7864
  841MOL0     H16011   1.579  11.064   2.036  2.9514 -0.2981  0.9107
  841MOL0     H16012   1.737  10.898   2.131 -2.0806 -4.3814 -0.7406
  841MOL0     H16013   1.735  10.822   1.969 -1.5068  1.7661 -3.3965
  841MOL0     H16014   1.924  10.966   1.977  1.7556  2.5104 -2.1351
  841MOL0     H16015   1.804  11.024   1.856  1.2944  0.8374  0.3770
  841MOL0     H16016   1.700  11.337   2.090 -0.0377 -0.0286  0.0070
  841MOL0     H16017   1.693  11.651   1.982  0.9418 -0.1461 -0.5725
  841MOL0     H16018   1.807  11.666   2.116  0.0752 -0.8677  0.6920
  841MOL0     H16019   1.666  11.548   2.125  0.7129 -4.7367 -1.3341
  841MOL0     H16020   2.221  11.840   1.938  1.9800  2.1051  0.5426
  841MOL0     H16021   2.357  12.016   1.808  0.0084  0.5088 -0.8014
  841MOL0     H16022   2.516  12.111   1.706 -3.4298  1.6525 -0.9238
  841MOL0     H16023   2.618  12.088   1.566  1.7146 -0.3538  3.6515
  841MOL0     H16024   2.471  12.235   1.426 -0.5484  1.5164  0.1920
  841MOL0     H16025   2.370  12.259   1.573  1.2188  3.8690  1.3777
  841MOL0     H16026   2.664  12.318   1.555 -0.1299 -0.0597 -0.5872
  841MOL0     H16027   2.551  12.375   1.674 -2.0886 -0.1997 -0.6069
  841MOL0     H16028   2.465  12.456   1.404 -0.7368  0.0086  1.6851
  841MOL0     H16029   2.640  12.493   1.421  0.7797  0.0562 -0.0437
  841MOL0     H16030   2.410  12.594   1.615  0.6235  1.4400  3.1738
  841MOL0     H16031   2.573  12.604   1.658 -3.8471  1.9146  2.3693
  841MOL0     H16032   2.500  12.819   1.546  1.7595  1.2110 -1.2823
  841MOL0     H16033   2.480  12.729   1.395 -0.6941 -2.6744  0.2950
  841MOL0     H16034   2.729  12.715   1.375  0.7367  1.4738 -0.5092
  841MOL0     H16035   2.748  12.713   1.550  1.2966  0.8394 -0.2932
  841MOL0     H16036   2.735  12.956   1.553 -0.1347  1.1871  0.8399
  841MOL0     H16037   2.656  12.958   1.389  3.3913  1.5336 -2.6287
  841MOL0     H16038   2.326  11.783   1.458 -1.2558  0.1993  0.1137
  841MOL0     H16039   2.225  11.597   1.584  1.1823 -0.0039 -1.0801
  841MOL0     H16040   2.131  11.375   1.869  0.0801 -1.5790 -0.1542
  841MOL0     H16041   2.028  11.157   1.910 -0.0501  0.0715  0.1790
  841MOL0     H16042   0.634  10.164   1.492 -0.1592 -0.8657 -2.3850
  841MOL0     H16043   0.378  10.193   1.447  0.9066  0.0473  1.2745
  841MOL0     H16044   0.096  10.456   1.029  1.9063 -0.4958  0.9786
  841MOL0     H16045  -0.131  10.392   0.930  0.2702 -1.3739 -0.1448
  841MOL0     H16046  -0.353  10.398   0.952 -0.3753  0.1728 -2.8897
  841MOL0     H16047  -0.325  10.255   0.852 -3.2684  0.1891 -1.5560
  841MOL0     H16048  -0.575  10.340   1.030 -0.3597 -3.3653  0.9503
  841MOL0     H16049  -0.559  10.179   0.982 -0.4989 -0.7393 -2.8640
  841MOL0     H16050  -0.572  10.434   0.806  0.4377  0.8494  0.1602
  841MOL0     H16051  -0.559  10.279   0.731 -0.0099  2.4697 -1.8864
  841MOL0     H16052  -0.793  10.362   0.924  0.5160  0.8431  0.2735
  841MOL0     H16053  -0.772  10.196   0.857 -2.2163  0.3906 -1.8739
  841MOL0     H16054  -0.894  10.389   0.510 -0.2652 -3.7319 -0.1784
  841MOL0     H16055  -0.180  10.120   1.265 -0.6368  2.1668  2.3714
  841MOL0     H16056   0.137  10.064   1.354 -1.1687 -2.2626  1.3676
  841MOL0     H16057   0.099  10.213   1.438  0.1992 -1.9723  2.0135
  841MOL0     H16058  -0.020  10.088   1.429 -0.6163  2.2786  0.4869
  842MOL0     O16059  11.078   3.237   9.149 -0.6204 -0.2130  0.2200
  842MOL0     C16060  11.032   3.244   9.265  0.4138 -0.4106  0.7551
  842MOL0     O16061  10.903   3.222   9.295  0.0275  0.4249 -0.2269
  842MOL0     C16062  10.807   3.231   9.199 -0.0970 -0.0579  0.6633
  842MOL0     C16063  10.707   3.139   9.198  0.6299  0.2887  0.0612
  842MOL0     C16064  10.600   3.134   9.105 -0.4553 -0.2766 -0.2130
  842MOL0     C16065  10.588   3.244   9.027  0.0806  0.2994  0.1335
  842MOL0     O16066  10.476   3.239   8.950  0.3284  0.3208 -0.0508
  842MOL0     C16067  10.424   3.365   8.909 -0.2478  0.2451 -0.2253
  842MOL0     C16068  10.272   3.347   8.885  0.8783 -0.5006  0.1564
  842MOL0     C16069  10.205   3.484   8.852 -0.5929 -0.6735 -0.5095
  842MOL0     C16070  10.054   3.483   8.848  0.2036  0.5559  0.5863
  842MOL0     C16071   9.987   3.621   8.854 -0.0946  0.3564 -0.4490
  842MOL0     C16072   9.858   3.651   8.783 -0.0225  0.7198  0.9822
  842MOL0     C16073   9.735   3.570   8.831 -0.8544  0.2201  0.1621
  842MOL0     C16074   9.613   3.641   8.897 -0.2014  0.0667  0.2491
  842MOL0     N16075   9.547   3.749   8.812 -0.1503  0.0257 -0.1917
  842MOL0     C16076   9.445   3.733   8.719 -0.0398 -0.5404  1.6732
  842MOL0     C16077   9.413   3.862   8.682 -0.2464 -0.2718 -0.5683
  842MOL0     C16078   9.333   3.905   8.569 -0.3150 -1.0068  0.7513
  842MOL0     C16079   9.226   3.800   8.542 -0.3335  0.7902 -0.0525
  842MOL0     C16080   9.112   3.831   8.444  0.0525  0.6472 -0.1291
  842MOL0     C16081   8.988   3.897   8.503 -0.4043 -0.0095  0.6638
  842MOL0     O16082   8.899   3.806   8.580 -0.5637  0.4026  0.3894
  842MOL0     C16083   8.805   3.729   8.510 -0.3556  0.0080  0.2147
  842MOL0     C16084   8.792   3.734   8.377 -0.2358  0.3748  0.5893
  842MOL0     C16085   8.694   3.644   8.312  0.4550 -0.2063 -0.6460
  842MOL0     C16086   8.663   3.670   8.167 -0.5233  0.0383  0.3186
  842MOL0     C16087   8.628   3.546   8.389  0.4300  0.2023 -0.1860
  842MOL0     C16088   8.520   3.461   8.332  1.1818  0.9679 -0.3521
  842MOL0     O16089   8.557   3.376   8.231 -0.1543  0.4969 -0.3147
  842MOL0     C16090   8.480   3.276   8.184  0.5508  0.2241  0.2779
  842MOL0     C16091   8.382   3.211   8.259  0.4159  0.0126 -0.4043
  842MOL0     C16092   8.298   3.111   8.208 -1.3039 -0.4586 -0.5717
  842MOL0     C16093   8.304   3.080   8.069 -0.7334 -0.1788 -0.8542
  842MOL0     O16094   8.230   2.987   7.996 -0.2111 -0.1328 -0.2524
  842MOL0     C16095   8.129   2.907   8.069 -0.8454  0.3804 -0.3014
  842MOL0     C16096   8.037   2.842   7.971  0.3090 -0.7493  0.2558
  842MOL0     C16097   7.965   2.727   8.039 -0.1711  0.9978 -1.2738
  842MOL0     C16098   7.893   2.641   7.941  0.7566  0.1983  0.6801
  842MOL0     C16099   7.761   2.706   7.874 -0.5847 -0.1206  0.3601
  842MOL0     C16100   7.660   2.762   7.989  0.3655 -0.0418  1.8101
  842MOL0     C16101   7.616   2.646   8.074  1.0771 -0.4361  0.5190
  842MOL0     C16102   7.463   2.654   8.091 -0.2997  0.6993  0.0220
  842MOL0    Cl16103   7.396   2.604   7.919  0.2753 -0.0399 -0.2279
  842MOL0     C16104   8.409   3.146   7.995  0.2102 -0.7308  0.6053
  842MOL0     C16105   8.495   3.238   8.056 -0.4768  0.2218 -0.1885
  842MOL0     O16106   8.407   3.480   8.374 -1.1336  0.3326 -0.1827
  842MOL0     C16107   8.647   3.549   8.527 -0.0470 -0.0587  0.1920
  842MOL0     C16108   8.729   3.640   8.589 -0.3967 -0.6271 -0.0156
  842MOL0     N16109   9.503   3.946   8.749 -0.8641  0.0828  0.3940
  842MOL0     N16110   9.578   3.881   8.823 -0.2545  0.6251 -0.5801
  842MOL0     C16111  10.692   3.336   9.013  0.6465  0.2041 -0.4820
  842MOL0     C16112  10.798   3.328   9.098  1.4276 -0.6117 -0.2928
  842MOL0     C16113  11.119   3.277   9.380  0.5286 -0.9269 -1.0819
  842MOL0     C16114  11.058   3.261   9.511 -0.0660  0.2611 -0.5195
  842MOL0     C16115  11.128   3.299   9.633  0.1402 -0.7031  0.2251
  842MOL0     C16116  11.260   3.352   9.623  0.7375 -0.9139  0.6716
  842MOL0     O16117  11.325   3.402   9.735  0.0932 -0.2152 -0.2423
  842MOL0     C16118  11.275   3.366   9.866  0.3311 -0.1992 -0.7910
  842MOL0     C16119  11.376   3.405   9.974  0.1861 -0.7567  0.1206
  842MOL0     C16120  11.384   3.559  10.013 -0.3895  0.0484 -0.2016
  842MOL0     C16121  11.441   3.637   9.901 -0.2652 -0.0639 -0.3023
  842MOL0     C16122  11.583   3.595   9.881  0.2069 -0.6914  0.0880
  842MOL0     C16123  11.706   3.579   9.871  0.6294  0.1441  0.0750
  842MOL0     C16124  11.321   3.364   9.498 -0.6747 -0.6330 -0.3405
  842MOL0     C16125  11.254   3.334   9.380 -0.6974 -0.1586  0.0256
  842MOL0     C16126  11.324   3.360   9.244  0.7422 -0.3888 -0.0358
  842MOL0     H16127  10.699   3.057   9.268  0.5633 -0.0708 -0.3676
  842MOL0     H16128  10.510   3.073   9.101 -0.1541 -0.6719 -3.9405
  842MOL0     H16129  10.470   3.397   8.815 -0.0490 -0.8574 -0.5217
  842MOL0     H16130  10.444   3.439   8.987 -0.6986  1.6306 -1.3738
  842MOL0     H16131  10.249   3.275   8.807  0.8818 -0.3999  0.0619
  842MOL0     H16132  10.221   3.309   8.975  2.1331  0.3643  1.2836
  842MOL0     H16133  10.223   3.547   8.940  2.1291 -1.1782 -0.5981
  842MOL0     H16134  10.239   3.535   8.761 -0.9751 -1.7441 -1.2787
  842MOL0     H16135  10.015   3.427   8.763  3.1905 -0.6364 -0.1084
  842MOL0     H16136  10.013   3.422   8.930  3.6536  1.0246  2.8425
  842MOL0     H16137  10.065   3.692   8.824 -0.3481  0.7700 -0.1464
  842MOL0     H16138   9.966   3.625   8.961  0.1825  1.5664 -0.4262
  842MOL0     H16139   9.842   3.756   8.808  2.7502  1.6208 -0.6204
  842MOL0     H16140   9.882   3.640   8.677  1.4341  2.1330  1.1265
  842MOL0     H16141   9.773   3.488   8.892  2.1795  1.1067 -0.3711
  842MOL0     H16142   9.691   3.530   8.739 -1.7720  0.7440  0.3538
  842MOL0     H16143   9.535   3.572   8.931  0.5031  0.4429  2.7679
  842MOL0     H16144   9.650   3.700   8.981  1.3736  0.4390 -0.6574
  842MOL0     H16145   9.391   3.643   8.691  0.2766 -1.5709  4.1174
  842MOL0     H16146   9.391   3.921   8.477 -0.5013 -1.7584  0.5000
  842MOL0     H16147   9.293   4.001   8.604  0.5726 -1.2555  2.5431
  842MOL0     H16148   9.284   3.720   8.497  1.6999  1.4593  1.2503
  842MOL0     H16149   9.176   3.777   8.637  1.9629  2.9324  1.8220
  842MOL0     H16150   9.158   3.900   8.373 -0.1542 -0.5098 -1.4203
  842MOL0     H16151   9.082   3.734   8.404 -2.8762  0.7558  1.5518
  842MOL0     H16152   9.019   3.966   8.582  1.8391 -2.2057  1.8437
  842MOL0     H16153   8.923   3.954   8.436 -2.7533 -3.5612 -0.3725
  842MOL0     H16154   8.848   3.803   8.315 -0.6891  1.3865  1.2948
  842MOL0     H16155   8.554   3.670   8.159 -0.4720  0.4064 -0.4367
  842MOL0     H16156   8.706   3.603   8.093 -1.8657  1.4160 -1.8418
  842MOL0     H16157   8.699   3.772   8.149  1.0318  0.0334  2.9187
  842MOL0     H16158   8.367   3.242   8.362  0.3063  0.9360 -0.6942
  842MOL0     H16159   8.218   3.078   8.274 -0.8050 -0.3914  0.0764
  842MOL0     H16160   8.192   2.836   8.125  0.5320  1.5442 -0.2978
  842MOL0     H16161   8.066   2.960   8.141 -1.5650  0.6944 -1.1593
  842MOL0     H16162   7.957   2.906   7.934  1.2497 -0.8300 -2.1487
  842MOL0     H16163   8.090   2.814   7.879 -1.3702  1.0346 -1.3416
  842MOL0     H16164   7.892   2.757   8.113 -1.1921 -1.5920 -1.1397
  842MOL0     H16165   8.039   2.659   8.082 -0.7195 -0.0256 -1.9161
  842MOL0     H16166   7.863   2.548   7.990 -0.1756 -0.2051 -0.5858
  842MOL0     H16167   7.964   2.620   7.861 -0.9058  3.9364 -2.1222
  842MOL0     H16168   7.794   2.783   7.805 -2.6653 -0.6677 -1.3587
  842MOL0     H16169   7.715   2.629   7.810 -0.3174  0.0613 -0.0519
  842MOL0     H16170   7.575   2.807   7.937  0.3495 -2.4005 -0.4285
  842MOL0     H16171   7.707   2.837   8.052  1.2555 -1.4213  2.8515
  842MOL0     H16172   7.672   2.634   8.167 -0.6294 -2.9822  1.2950
  842MOL0     H16173   7.631   2.550   8.023 -1.1223  0.0797 -1.2372
  842MOL0     H16174   7.437   2.755   8.122  2.3943  1.9141 -1.2750
  842MOL0     H16175   7.425   2.579   8.160 -3.0221  1.3140 -0.7162
  842MOL0     H16176   8.421   3.146   7.887  3.6189  3.3373  0.6949
  842MOL0     H16177   8.562   3.286   7.986 -0.3985  1.3783  0.6517
  842MOL0     H16178   8.590   3.482   8.589 -3.0870  0.9268 -1.3117
  842MOL0     H16179   8.753   3.654   8.694 -1.4708  2.1967 -0.0796
  842MOL0     H16180  10.693   3.410   8.933  1.8671 -0.5735 -1.2112
  842MOL0     H16181  10.873   3.405   9.087  1.1356 -0.1240  0.9325
  842MOL0     H16182  10.960   3.213   9.513 -0.9172  1.8520 -1.8721
  842MOL0     H16183  11.067   3.299   9.722 -1.7555 -2.2643 -0.9813
  842MOL0     H16184  11.175   3.402   9.892  0.2099 -2.4007  2.3525
  842MOL0     H16185  11.264   3.257   9.869 -0.3461 -0.1482  2.5015
  842MOL0     H16186  11.476   3.383   9.936  0.5122  0.7763  0.0411
  842MOL0     H16187  11.354   3.354  10.068  0.0895 -1.5971 -0.3372
  842MOL0     H16188  11.284   3.599  10.031 -0.5970 -0.4311 -0.2870
  842MOL0     H16189  11.447   3.571  10.102  0.4624 -4.3054 -0.0272
  842MOL0     H16190  11.448   3.742   9.931 -0.9432 -0.0455 -0.1734
  842MOL0     H16191  11.390   3.627   9.805 -2.2727  1.2238  0.5553
  842MOL0     H16192  11.803   3.536   9.859 -0.5007 -2.6570  0.2313
  842MOL0     H16193  11.424   3.395   9.492 -0.9677  0.2366 -1.0968
  842MOL0     H16194  11.254   3.402   9.171  0.3374  0.4677  0.8030
  842MOL0     H16195  11.402   3.434   9.267  0.7421  0.5529 -2.7282
  842MOL0     H16196  11.365   3.264   9.213 -0.3525 -0.3240 -1.8516
  843MOL0     O16197   7.475   7.102   6.497 -0.0042  0.0152 -0.1932
  843MOL0     C16198   7.441   7.203   6.434 -0.9258  0.5505  0.0984
  843MOL0     O16199   7.525   7.280   6.359  0.1139 -0.0491 -0.3283
  843MOL0     C16200   7.658   7.297   6.398  0.1458  0.0480  0.0889
  843MOL0     C16201   7.733   7.245   6.503  0.3337  0.1013 -0.7393
  843MOL0     C16202   7.865   7.260   6.523 -0.5825 -0.3367 -0.0088
  843MOL0     C16203   7.945   7.316   6.423  0.3639 -0.2353 -0.2129
  843MOL0     O16204   8.085   7.331   6.453 -0.1174 -0.8397  0.0654
  843MOL0     C16205   8.166   7.423   6.383  0.7528 -0.3681 -0.2111
  843MOL0     C16206   8.312   7.417   6.432 -0.0444 -0.1078 -0.8292
  843MOL0     C16207   8.401   7.296   6.392 -0.6262 -0.1050 -0.1262
  843MOL0     C16208   8.398   7.198   6.507 -0.0282  0.0223  0.2786
  843MOL0     C16209   8.489   7.084   6.469  0.6330  0.1838  0.1890
  843MOL0     C16210   8.438   6.989   6.356  0.4031  0.3304  0.5523
  843MOL0     C16211   8.513   6.854   6.357  0.7513  0.4425 -0.7097
  843MOL0     C16212   8.495   6.780   6.232  0.3757 -0.9267 -0.5198
  843MOL0     N16213   8.354   6.745   6.194 -0.2833 -0.1953 -0.3997
  843MOL0     C16214   8.300   6.725   6.073 -0.0172 -0.6421  0.0213
  843MOL0     C16215   8.170   6.699   6.107  0.1776  0.7090  0.4376
  843MOL0     C16216   8.071   6.680   5.986 -0.0746  0.5958  0.1216
  843MOL0     C16217   7.928   6.681   6.021 -0.2028  0.5322 -1.0730
  843MOL0     C16218   7.871   6.550   6.080  0.3282 -0.8612 -0.2075
  843MOL0     C16219   7.892   6.445   5.986  0.2202  0.2070  0.2467
  843MOL0     O16220   7.864   6.477   5.847  0.2532  0.2959  0.5501
  843MOL0     C16221   7.741   6.449   5.799  0.0151 -0.6605 -0.4666
  843MOL0     C16222   7.720   6.467   5.666 -1.2439 -0.1948  0.5947
  843MOL0     C16223   7.594   6.450   5.600  0.1615  0.2338 -0.9493
  843MOL0     C16224   7.589   6.459   5.446 -0.3463  0.2816 -0.0695
  843MOL0     C16225   7.483   6.405   5.681  0.1117 -0.2561 -0.8984
  843MOL0     C16226   7.348   6.396   5.632  0.7508  0.5114  0.2146
  843MOL0     O16227   7.267   6.315   5.704 -0.6816  0.5562  1.0723
  843MOL0     C16228   7.149   6.280   5.633 -0.4796  0.7117 -0.5661
  843MOL0     C16229   7.153   6.223   5.502  0.4358 -0.9714  0.5034
  843MOL0     C16230   7.041   6.212   5.422  1.4969 -0.9854 -0.0068
  843MOL0     C16231   6.916   6.256   5.474 -0.3238 -0.3829 -0.5290
  843MOL0     O16232   6.794   6.238   5.404  0.3714  0.2065 -0.0776
  843MOL0     C16233   6.771   6.101   5.369 -0.2212 -0.1893  1.1400
  843MOL0     C16234   6.628   6.090   5.334  0.7620 -0.8478 -0.0663
  843MOL0     C16235   6.529   6.133   5.441  0.5050 -0.1469  0.4840
  843MOL0     C16236   6.463   6.010   5.505  0.1013  0.8605 -0.6919
  843MOL0     C16237   6.352   6.059   5.594 -1.0277 -0.5331 -0.1576
  843MOL0     C16238   6.221   6.064   5.507 -0.2743  0.3311  0.5812
  843MOL0     C16239   6.126   6.159   5.582  0.1142  0.0556 -0.4500
  843MOL0     C16240   5.993   6.135   5.517 -0.0221 -0.0522  0.5892
  843MOL0    Cl16241   5.904   5.991   5.565 -0.1001  0.2801 -0.1955
  843MOL0     C16242   6.912   6.311   5.601 -0.1599  0.8546  0.4366
  843MOL0     C16243   7.027   6.312   5.684  0.0516  0.4396 -0.6018
  843MOL0     O16244   7.316   6.472   5.532 -0.1535  0.7132  0.2728
  843MOL0     C16245   7.507   6.388   5.821  0.3209  0.2246 -0.4354
  843MOL0     C16246   7.634   6.417   5.880 -0.2348  0.4609  0.0923
  843MOL0     N16247   8.144   6.697   6.241 -0.6573 -1.2424 -0.4086
  843MOL0     N16248   8.261   6.717   6.297  0.7925  0.3326 -0.7691
  843MOL0     C16249   7.883   7.373   6.312  0.0359 -0.7596 -0.0963
  843MOL0     C16250   7.738   7.360   6.307  0.2534  0.3081 -0.3415
  843MOL0     C16251   7.295   7.231   6.431  0.1439  0.3768 -0.2214
  843MOL0     C16252   7.200   7.126   6.479  0.3331 -0.2671  0.1967
  843MOL0     C16253   7.065   7.154   6.483 -0.1704  0.7363  0.4308
  843MOL0     C16254   7.017   7.271   6.417  0.0752  0.1765  0.4438
  843MOL0     O16255   6.884   7.309   6.399  0.0196  0.5125 -0.5161
  843MOL0     C16256   6.789   7.198   6.393 -0.4252  0.3615 -0.4288
  843MOL0     C16257   6.658   7.255   6.360 -0.5971  0.4957  0.1057
  843MOL0     C16258   6.542   7.147   6.365  0.5231  0.0422  0.0994
  843MOL0     C16259   6.403   7.218   6.341  0.0446  0.0665  0.1849
  843MOL0     C16260   6.307   7.117   6.304  0.2670 -0.4478 -0.8171
  843MOL0     C16261   6.241   7.032   6.264 -0.3310 -0.0287  0.2477
  843MOL0     C16262   7.109   7.365   6.360 -0.1623 -0.3493 -0.1676
  843MOL0     C16263   7.250   7.352   6.372 -0.6664 -0.5410  0.2650
  843MOL0     C16264   7.332   7.477   6.322 -0.8864 -0.1824 -0.1290
  843MOL0     H16265   7.678   7.189   6.578  0.1947 -0.5877 -1.3492
  843MOL0     H16266   7.894   7.214   6.617 -0.9955 -1.2291 -0.3097
  843MOL0     H16267   8.131   7.525   6.400  0.3633 -0.5411  0.0186
  843MOL0     H16268   8.170   7.417   6.273 -1.0762 -1.7432 -0.2604
  843MOL0     H16269   8.362   7.507   6.395  1.6174 -0.4238  0.4958
  843MOL0     H16270   8.316   7.421   6.541 -0.9659 -3.4206 -0.5522
  843MOL0     H16271   8.356   7.264   6.298 -2.2622  1.1114  0.2068
  843MOL0     H16272   8.503   7.327   6.367 -0.4617 -0.2409  0.3634
  843MOL0     H16273   8.428   7.235   6.606  4.0110 -1.6948 -0.1192
  843MOL0     H16274   8.298   7.156   6.522 -0.1468  0.1847 -0.0503
  843MOL0     H16275   8.487   7.023   6.560  0.7627  2.3468  1.6959
  843MOL0     H16276   8.590   7.122   6.447  0.6746  0.9713  1.6328
  843MOL0     H16277   8.330   6.975   6.368  0.5187 -0.8534  0.2961
  843MOL0     H16278   8.461   7.046   6.265  2.1264 -0.1106  0.6809
  843MOL0     H16279   8.484   6.795   6.445 -1.6071  1.4154 -0.7539
  843MOL0     H16280   8.622   6.855   6.361  0.8834 -0.2906 -2.8520
  843MOL0     H16281   8.530   6.852   6.157  1.1924  0.1075  0.8103
  843MOL0     H16282   8.552   6.687   6.237 -0.4354 -1.3974  0.4825
  843MOL0     H16283   8.330   6.733   5.970 -0.8273  1.6512 -0.0846
  843MOL0     H16284   8.091   6.587   5.930 -1.8771 -0.1378  0.6138
  843MOL0     H16285   8.098   6.766   5.924  0.2904 -1.0640 -2.1713
  843MOL0     H16286   7.910   6.761   6.093  1.7307 -1.9317  2.4698
  843MOL0     H16287   7.865   6.715   5.938 -2.1072  0.3394  0.2442
  843MOL0     H16288   7.904   6.526   6.182  3.4334 -2.2317 -1.4183
  843MOL0     H16289   7.763   6.570   6.086  0.4948  1.1264 -2.3661
  843MOL0     H16290   7.990   6.397   5.993 -0.2504 -0.8472 -0.2290
  843MOL0     H16291   7.834   6.360   6.024  2.0024 -0.0592  2.6315
  843MOL0     H16292   7.802   6.503   5.604 -0.0963  0.9362  2.6197
  843MOL0     H16293   7.529   6.546   5.419 -1.3349  0.7835  3.2426
  843MOL0     H16294   7.542   6.372   5.398  0.7657  1.2426 -3.1195
  843MOL0     H16295   7.691   6.468   5.407 -0.5058  0.4953 -0.4398
  843MOL0     H16296   7.254   6.197   5.469  1.4134 -1.8347  3.8093
  843MOL0     H16297   7.061   6.171   5.324  1.8320  0.9140 -0.7837
  843MOL0     H16298   6.835   6.080   5.283  0.2074  0.1097  1.3777
  843MOL0     H16299   6.798   6.042   5.458  0.1555 -2.7536 -0.5794
  843MOL0     H16300   6.603   6.148   5.245 -1.3029  1.1437  1.6760
  843MOL0     H16301   6.617   5.985   5.304 -0.1778 -0.0459 -2.8557
  843MOL0     H16302   6.447   6.196   5.403  1.3833  0.3967 -0.5627
  843MOL0     H16303   6.581   6.194   5.516 -1.2681  1.5434  0.4345
  843MOL0     H16304   6.536   5.956   5.566 -1.7318 -0.7352  0.1744
  843MOL0     H16305   6.428   5.942   5.426 -1.5850  1.2434 -0.2998
  843MOL0     H16306   6.332   5.982   5.669  2.5440  0.1127  1.6884
  843MOL0     H16307   6.374   6.161   5.625 -1.2147 -0.2853 -0.8157
  843MOL0     H16308   6.182   5.962   5.503 -1.9630  0.9040  1.2562
  843MOL0     H16309   6.231   6.100   5.404 -0.5979 -0.8059  0.1385
  843MOL0     H16310   6.144   6.266   5.583 -0.5301  0.2153 -2.0308
  843MOL0     H16311   6.125   6.119   5.684  1.6344  0.9524 -0.0606
  843MOL0     H16312   6.004   6.124   5.409  0.0355  0.7781  0.5063
  843MOL0     H16313   5.922   6.215   5.541  1.3505  0.7962  2.0149
  843MOL0     H16314   6.812   6.340   5.631 -0.0385  2.2242 -0.4086
  843MOL0     H16315   7.030   6.360   5.782 -2.5419 -4.5568  2.3258
  843MOL0     H16316   7.431   6.356   5.892 -0.6781  1.9491 -0.6943
  843MOL0     H16317   7.647   6.404   5.987  1.0019  0.9251  0.0191
  843MOL0     H16318   7.941   7.429   6.240  0.6745 -1.2987 -0.0126
  843MOL0     H16319   7.690   7.400   6.218  0.0307 -0.1363 -0.4255
  843MOL0     H16320   7.235   7.033   6.523  2.4928  0.9582  1.2331
  843MOL0     H16321   6.997   7.081   6.525  1.5940 -0.9303  0.5541
  843MOL0     H16322   6.815   7.117   6.324 -0.1181  0.1674 -0.0941
  843MOL0     H16323   6.788   7.150   6.492  1.0746  3.5462  1.2653
  843MOL0     H16324   6.664   7.295   6.258  1.1800  0.6449  0.2403
  843MOL0     H16325   6.646   7.339   6.429 -0.0590  0.6454  0.0244
  843MOL0     H16326   6.563   7.072   6.288  1.5404  0.6613 -0.2554
  843MOL0     H16327   6.544   7.088   6.457  2.2709 -0.2184 -0.0685
  843MOL0     H16328   6.408   7.282   6.252  1.9685 -1.0767 -0.5828
  843MOL0     H16329   6.372   7.277   6.428  1.6283  3.3032 -1.2675
  843MOL0     H16330   6.187   6.942   6.241 -0.0107 -1.2169  3.6056
  843MOL0     H16331   7.064   7.446   6.303  0.0740  0.2394  0.4767
  843MOL0     H16332   7.262   7.561   6.323 -1.0431 -0.2323  2.8900
  843MOL0     H16333   7.418   7.493   6.387 -0.1768 -2.1236 -0.5211
  843MOL0     H16334   7.372   7.461   6.222  0.7872 -0.8558  0.6048
  844MOL0     O16335   1.571   7.458   6.693 -0.3676 -0.3186 -1.1588
  844MOL0     C16336   1.546   7.396   6.803 -0.6607 -0.0254  0.7484
  844MOL0     O16337   1.643   7.320   6.860  0.2631  0.2320 -0.1757
  844MOL0     C16338   1.780   7.348   6.858 -0.1509  0.1293 -0.0918
  844MOL0     C16339   1.865   7.253   6.924  0.5645  0.3056 -0.0478
  844MOL0     C16340   2.006   7.265   6.934 -0.2216 -0.1499  0.2740
  844MOL0     C16341   2.070   7.376   6.872  0.1970  0.5156  0.9020
  844MOL0     O16342   2.203   7.399   6.879  0.2942  0.8714  0.1325
  844MOL0     C16343   2.276   7.341   6.986  0.2136 -0.2025 -0.7702
  844MOL0     C16344   2.421   7.393   6.970 -0.7519 -0.4372 -0.0930
  844MOL0     C16345   2.466   7.490   7.081  1.0483 -0.1551  0.7649
  844MOL0     C16346   2.604   7.550   7.055 -0.0455 -0.7344 -0.4429
  844MOL0     C16347   2.635   7.640   7.172 -0.0861  0.3976 -0.0539
  844MOL0     C16348   2.788   7.619   7.200  0.2048 -0.1896  0.2702
  844MOL0     C16349   2.884   7.703   7.116 -0.5622 -0.2942 -0.7139
  844MOL0     C16350   3.028   7.666   7.163 -1.0328 -0.2830  0.3091
  844MOL0     N16351   3.133   7.706   7.072  0.0738  0.0108 -0.4211
  844MOL0     C16352   3.165   7.834   7.026 -0.4345  0.2933  0.8093
  844MOL0     C16353   3.288   7.814   6.958 -0.5042 -0.0983 -0.6317
  844MOL0     C16354   3.361   7.923   6.874  0.3184  0.1303  0.4661
  844MOL0     C16355   3.508   7.935   6.909  0.9198 -0.1663 -0.2165
  844MOL0     C16356   3.551   7.926   7.060  0.6791  0.7048 -0.0061
  844MOL0     C16357   3.705   7.910   7.070 -0.6945 -0.4565  0.9383
  844MOL0     O16358   3.773   8.029   7.019  1.3100  0.3058 -0.0181
  844MOL0     C16359   3.907   8.058   7.032 -0.5044 -0.5043 -0.1839
  844MOL0     C16360   3.948   8.193   7.008  0.3342 -0.2398 -0.5034
  844MOL0     C16361   4.081   8.236   7.024 -0.4328  0.2643 -0.1515
  844MOL0     C16362   4.124   8.376   7.003 -0.2539 -0.5197  0.4384
  844MOL0     C16363   4.171   8.136   7.068 -0.2112 -0.5347 -0.6391
  844MOL0     C16364   4.311   8.163   7.102 -0.6484 -0.4743 -0.1431
  844MOL0     O16365   4.332   8.277   7.173  0.3323  0.4102 -0.1525
  844MOL0     C16366   4.454   8.321   7.210 -0.4851 -0.0221 -0.5181
  844MOL0     C16367   4.560   8.338   7.123 -0.0965 -0.7425 -0.2014
  844MOL0     C16368   4.677   8.418   7.151  0.3139 -0.2484 -1.1295
  844MOL0     C16369   4.684   8.496   7.265  0.1542  0.6545  0.6637
  844MOL0     O16370   4.795   8.568   7.301  1.5458 -0.4843  0.0234
  844MOL0     C16371   4.886   8.624   7.206  0.7104 -0.5843 -0.3473
  844MOL0     C16372   5.003   8.518   7.201 -0.3195  0.8326  0.2630
  844MOL0     C16373   5.105   8.570   7.100  0.7737 -0.1269 -1.1441
  844MOL0     C16374   5.235   8.481   7.081 -0.1060 -0.2681  0.2384
  844MOL0     C16375   5.333   8.540   6.979 -0.0016 -0.5397 -0.0951
  844MOL0     C16376   5.475   8.465   6.986 -0.4252 -0.5177 -1.0521
  844MOL0     C16377   5.596   8.544   6.931  0.7031 -0.3045 -0.1011
  844MOL0     C16378   5.555   8.577   6.779  0.8283  0.1653  0.0686
  844MOL0    Cl16379   5.709   8.632   6.699  0.4861  0.1089 -0.1253
  844MOL0     C16380   4.572   8.488   7.354 -0.1257 -0.4941 -0.0980
  844MOL0     C16381   4.460   8.399   7.325 -1.0866 -0.3357 -0.4190
  844MOL0     O16382   4.401   8.095   7.048  0.3559 -0.2126 -0.0740
  844MOL0     C16383   4.131   8.005   7.083  1.2429  0.5944 -0.3287
  844MOL0     C16384   3.999   7.962   7.058  0.0580 -0.2573  0.4300
  844MOL0     N16385   3.333   7.684   6.978  0.6360  0.0161 -0.8453
  844MOL0     N16386   3.239   7.619   7.041  1.1209 -0.8107 -0.4190
  844MOL0     C16387   1.990   7.465   6.801  0.4027 -0.1877 -0.7544
  844MOL0     C16388   1.850   7.455   6.795 -0.5151 -0.9786  0.6632
  844MOL0     C16389   1.423   7.387   6.876 -0.5335 -0.3137  0.0591
  844MOL0     C16390   1.427   7.329   7.003 -1.0171  0.8687 -0.1034
  844MOL0     C16391   1.309   7.319   7.085  0.5810 -0.1227  0.2924
  844MOL0     C16392   1.180   7.359   7.032  0.3189 -0.6331 -0.2879
  844MOL0     O16393   1.073   7.321   7.112  0.5328  0.1312  0.0280
  844MOL0     C16394   0.948   7.381   7.063  0.1721 -0.3321  1.1825
  844MOL0     C16395   0.856   7.380   7.186 -0.5574  0.3202 -0.7150
  844MOL0     C16396   0.717   7.399   7.142  0.8327 -0.8309 -0.5755
  844MOL0     C16397   0.621   7.429   7.265 -0.7802 -0.1346 -0.5965
  844MOL0     C16398   0.488   7.475   7.214 -0.5254  0.2126 -0.1452
  844MOL0     C16399   0.384   7.501   7.159  0.4495  0.2498  0.5962
  844MOL0     C16400   1.184   7.413   6.899 -0.0453  0.7877 -0.0318
  844MOL0     C16401   1.299   7.419   6.816 -0.1934  0.0757 -0.0026
  844MOL0     C16402   1.281   7.466   6.673 -0.5200 -0.4019 -0.8719
  844MOL0     H16403   1.827   7.178   6.993 -2.7085  1.8640  0.0194
  844MOL0     H16404   2.062   7.187   6.985 -1.2051 -0.3643  1.0552
  844MOL0     H16405   2.277   7.232   6.993 -0.8812 -0.1521  0.5120
  844MOL0     H16406   2.242   7.376   7.084 -1.6235 -2.2124 -0.6224
  844MOL0     H16407   2.481   7.302   6.978 -1.2544 -0.5923  3.0146
  844MOL0     H16408   2.430   7.451   6.877  1.8293 -0.6426 -0.0382
  844MOL0     H16409   2.387   7.561   7.105 -1.2574 -2.0346 -0.8365
  844MOL0     H16410   2.474   7.426   7.170  1.0061 -1.0707  0.1285
  844MOL0     H16411   2.679   7.475   7.027  0.5032 -0.4877  0.3271
  844MOL0     H16412   2.598   7.629   6.980 -0.0327  0.2883  0.6086
  844MOL0     H16413   2.579   7.615   7.263 -1.1291 -3.2325 -1.5054
  844MOL0     H16414   2.615   7.744   7.146 -1.5030 -0.0138 -0.7267
  844MOL0     H16415   2.807   7.653   7.302 -2.0560  2.3946 -0.0698
  844MOL0     H16416   2.818   7.514   7.194  0.6312  0.0153 -2.2743
  844MOL0     H16417   2.855   7.808   7.131 -0.6014 -0.3772 -0.1726
  844MOL0     H16418   2.872   7.690   7.008 -4.0433 -0.2035 -0.4291
  844MOL0     H16419   3.051   7.710   7.261 -0.9340 -2.7648  1.4631
  844MOL0     H16420   3.036   7.560   7.188 -1.7248  0.0141  1.9449
  844MOL0     H16421   3.112   7.928   7.028  1.8624  1.7773 -1.5461
  844MOL0     H16422   3.315   8.017   6.904 -0.1044 -0.5487  2.0989
  844MOL0     H16423   3.344   7.913   6.767 -0.2571  0.1193  0.5593
  844MOL0     H16424   3.550   7.856   6.847 -0.1029 -0.5409 -0.4533
  844MOL0     H16425   3.535   8.031   6.863 -0.2576  0.7693  0.9324
  844MOL0     H16426   3.515   8.014   7.114 -3.5636 -0.8311  0.0242
  844MOL0     H16427   3.506   7.849   7.124 -0.3211  1.9365  0.8247
  844MOL0     H16428   3.729   7.879   7.172  2.4827 -2.6791 -0.3544
  844MOL0     H16429   3.740   7.828   7.008  0.3293  2.1087 -2.1626
  844MOL0     H16430   3.868   8.259   6.978 -0.3238 -0.4462  0.7177
  844MOL0     H16431   4.225   8.376   6.961 -0.7722 -4.6981 -1.3056
  844MOL0     H16432   4.125   8.425   7.100 -1.7574 -0.1208  0.2743
  844MOL0     H16433   4.055   8.420   6.930 -2.8704 -3.3690  1.0158
  844MOL0     H16434   4.542   8.294   7.025 -1.5194  1.1874 -0.8890
  844MOL0     H16435   4.755   8.416   7.076  0.0727  2.7748 -1.5983
  844MOL0     H16436   4.830   8.634   7.113 -1.7602  0.4132  1.1391
  844MOL0     H16437   4.928   8.717   7.244  1.4525 -0.3152 -1.7437
  844MOL0     H16438   5.057   8.510   7.296  1.5313 -2.4897 -0.9040
  844MOL0     H16439   4.962   8.423   7.167 -1.9048  1.2517  0.9015
  844MOL0     H16440   5.143   8.665   7.139  0.1654 -0.6008  0.6652
  844MOL0     H16441   5.056   8.580   7.003 -1.8043 -0.6084  0.0280
  844MOL0     H16442   5.206   8.377   7.066 -1.5197 -0.0134  1.0842
  844MOL0     H16443   5.295   8.469   7.172 -0.7935 -1.7161  0.5260
  844MOL0     H16444   5.291   8.536   6.878 -0.8830  1.9049  0.0970
  844MOL0     H16445   5.349   8.646   7.003  1.2216 -1.3630  3.1764
  844MOL0     H16446   5.477   8.368   6.937  2.9042 -0.9115 -0.3310
  844MOL0     H16447   5.489   8.454   7.094 -0.2101 -0.4023 -1.0682
  844MOL0     H16448   5.685   8.479   6.930 -0.0222 -1.3385 -1.5850
  844MOL0     H16449   5.627   8.633   6.987  0.5545 -0.7175  0.6385
  844MOL0     H16450   5.476   8.651   6.765 -1.1327 -2.0466 -1.2815
  844MOL0     H16451   5.521   8.486   6.730  1.0006  0.7358 -1.1550
  844MOL0     H16452   4.572   8.528   7.455  0.0847 -1.1859  0.1807
  844MOL0     H16453   4.373   8.408   7.389  1.1485  0.2139  2.7606
  844MOL0     H16454   4.187   7.918   7.115 -1.9361 -2.5577 -2.5113
  844MOL0     H16455   3.971   7.860   7.083 -1.1973 -0.1015 -0.2752
  844MOL0     H16456   2.029   7.560   6.767  1.5383  0.1975  1.4729
  844MOL0     H16457   1.795   7.531   6.740  2.0627 -0.6484 -1.6687
  844MOL0     H16458   1.520   7.293   7.045  1.3260  2.3693 -3.5928
  844MOL0     H16459   1.314   7.278   7.186 -2.2897 -1.4414  0.0087
  844MOL0     H16460   0.959   7.489   7.046  1.9829 -0.3739  1.8601
  844MOL0     H16461   0.917   7.323   6.976 -1.4092  0.7993  0.9537
  844MOL0     H16462   0.882   7.460   7.257  0.2126  0.1714 -0.8197
  844MOL0     H16463   0.854   7.294   7.253 -1.5383  0.8843 -0.0054
  844MOL0     H16464   0.710   7.489   7.079 -0.0360 -1.0754 -0.8494
  844MOL0     H16465   0.678   7.318   7.081  2.1526 -0.4755 -1.9429
  844MOL0     H16466   0.674   7.498   7.332  0.5836 -0.6076 -1.1531
  844MOL0     H16467   0.610   7.334   7.318  0.6917  0.9314  1.7979
  844MOL0     H16468   0.295   7.518   7.100 -1.9102 -1.7427  3.3057
  844MOL0     H16469   1.089   7.431   6.849  1.1259 -0.8396 -3.1512
  844MOL0     H16470   1.287   7.392   6.594  1.4209  0.8359 -1.9592
  844MOL0     H16471   1.187   7.523   6.673  0.5924  1.5382  0.0307
  844MOL0     H16472   1.353   7.547   6.654  0.7726 -1.4357 -0.5190
  845MOL0     O16473  10.040   5.701   9.179 -0.3775  0.4300 -0.3701
  845MOL0     C16474   9.990   5.785   9.246 -0.4896 -0.6853 -0.1452
  845MOL0     O16475  10.056   5.882   9.310 -0.2505 -0.3139  0.1737
  845MOL0     C16476  10.190   5.892   9.296  0.0097 -0.7830  0.0583
  845MOL0     C16477  10.277   5.828   9.386 -0.9751  0.0133 -0.9095
  845MOL0     C16478  10.422   5.822   9.367  0.5674 -1.0457  0.4515
  845MOL0     C16479  10.472   5.874   9.249  0.0449  0.1660  0.0800
  845MOL0     O16480  10.612   5.851   9.242  0.2404  0.6913  0.5638
  845MOL0     C16481  10.683   5.892   9.131 -0.5208  0.2569 -0.4465
  845MOL0     C16482  10.831   5.898   9.175  0.2104 -0.2221  0.9070
  845MOL0     C16483  10.850   6.015   9.262 -0.2091  0.0420  0.1281
  845MOL0     C16484  10.959   5.986   9.359 -0.8314 -0.3149 -1.6263
  845MOL0     C16485  11.000   6.114   9.435  0.0148 -0.0781 -0.2522
  845MOL0     C16486  11.098   6.215   9.371 -0.1931  0.9842  1.2754
  845MOL0     C16487  11.117   6.335   9.462 -0.0603  0.2080  0.0645
  845MOL0     C16488  11.220   6.437   9.409  0.0725  0.0834  0.2935
  845MOL0     N16489  11.357   6.386   9.406 -0.0508 -0.6050 -0.2367
  845MOL0     C16490  11.448   6.374   9.513  0.0064 -0.1378 -0.1818
  845MOL0     C16491  11.558   6.320   9.462  0.4391  0.1613 -0.3437
  845MOL0     C16492  11.680   6.269   9.537  0.3372 -0.5959  0.6381
  845MOL0     C16493  11.743   6.389   9.614 -0.5722 -0.9992  0.2020
  845MOL0     C16494  11.866   6.354   9.707  0.0123 -0.5294 -0.0324
  845MOL0     C16495  11.980   6.283   9.629  1.1513  0.2467  0.4751
  845MOL0     O16496  12.090   6.277   9.715  0.1178 -0.4388  0.1849
  845MOL0     C16497  12.218   6.292   9.669  0.9527 -0.3360 -0.6351
  845MOL0     C16498  12.257   6.272   9.537 -0.4219 -0.4746  0.1330
  845MOL0     C16499  12.386   6.292   9.499  0.4176  0.1859 -0.3051
  845MOL0     C16500  12.411   6.251   9.354 -0.2896  0.4090  0.1748
  845MOL0     C16501  12.476   6.336   9.593 -0.5150 -0.2371 -0.4908
  845MOL0     C16502  12.619   6.351   9.552  0.0008 -0.3688 -0.2092
  845MOL0     O16503  12.714   6.319   9.656  0.1841 -0.2425  0.3345
  845MOL0     C16504  12.844   6.338   9.626  0.8578 -0.6996  0.2261
  845MOL0     C16505  12.906   6.240   9.557 -0.3236  0.2030 -0.3954
  845MOL0     C16506  13.040   6.247   9.527  0.3704  0.5994 -0.2490
  845MOL0     C16507  13.113   6.353   9.560 -0.1207 -0.8044  0.4464
  845MOL0     O16508  13.247   6.350   9.548  0.4554 -0.5519 -0.9952
  845MOL0     C16509  13.320   6.246   9.476 -1.1406 -0.6118 -0.6605
  845MOL0     C16510  13.470   6.292   9.479 -0.5094  0.1465 -0.6997
  845MOL0     C16511  13.558   6.184   9.417 -0.2363  0.3693  0.2335
  845MOL0     C16512  13.690   6.251   9.383  0.0175  0.1564 -0.3988
  845MOL0     C16513  13.781   6.175   9.285  0.7905 -0.0900 -0.3089
  845MOL0     C16514  13.857   6.069   9.364  0.1874 -1.3396  0.4890
  845MOL0     C16515  13.919   5.971   9.257 -0.2241 -0.4290  0.6450
  845MOL0     C16516  14.011   6.034   9.154 -0.0314  1.3532  0.1300
  845MOL0    Cl16517  14.150   6.117   9.217 -0.2098  0.3985  0.4213
  845MOL0     C16518  13.058   6.457   9.633 -0.6352  0.0451 -0.0353
  845MOL0     C16519  12.925   6.445   9.668  0.6790 -0.3618 -0.3838
  845MOL0     O16520  12.646   6.399   9.441  0.2177  0.2417 -0.1253
  845MOL0     C16521  12.445   6.352   9.731  0.5567 -0.8147 -0.1850
  845MOL0     C16522  12.313   6.324   9.764 -0.5183 -0.4249  0.2120
  845MOL0     N16523  11.549   6.335   9.329  0.2977  0.4644 -0.3273
  845MOL0     N16524  11.428   6.367   9.298  0.5099  0.4850  0.7058
  845MOL0     C16525  10.386   5.942   9.158  0.6478  0.8621  0.3592
  845MOL0     C16526  10.244   5.948   9.185 -0.3773 -0.7728  0.2245
  845MOL0     C16527   9.847   5.783   9.275  0.0228 -1.4320 -0.2444
  845MOL0     C16528   9.801   5.835   9.394  0.1017  0.7461  0.3900
  845MOL0     C16529   9.676   5.828   9.439  0.1593  0.1556  0.1202
  845MOL0     C16530   9.583   5.760   9.365  0.8734 -0.0451 -1.1832
  845MOL0     O16531   9.458   5.748   9.419  1.0755  0.2678 -0.4203
  845MOL0     C16532   9.355   5.798   9.333 -0.0250 -0.7681 -1.1272
  845MOL0     C16533   9.304   5.944   9.364 -0.0786  0.2246 -0.1231
  845MOL0     C16534   9.237   5.967   9.503  0.2036  0.6251 -0.3048
  845MOL0     C16535   9.340   5.962   9.629 -0.0783  0.6845  0.5588
  845MOL0     C16536   9.453   6.058   9.618  0.0255  0.2695 -0.2288
  845MOL0     C16537   9.547   6.138   9.620  0.3032 -0.1669 -0.1314
  845MOL0     C16538   9.617   5.706   9.237  0.0505 -0.2833  0.6136
  845MOL0     C16539   9.751   5.717   9.193 -1.2010  0.0920 -0.8437
  845MOL0     C16540   9.787   5.640   9.065  0.1529 -0.5833 -0.0565
  845MOL0     H16541  10.248   5.776   9.477 -2.1433  0.7046 -0.8695
  845MOL0     H16542  10.487   5.789   9.448  1.8394  2.2932  0.9094
  845MOL0     H16543  10.649   5.991   9.099 -1.0242  0.1888 -0.1305
  845MOL0     H16544  10.682   5.816   9.052 -1.0076  0.9710 -1.1404
  845MOL0     H16545  10.859   5.802   9.219 -2.6217 -1.0511  1.0793
  845MOL0     H16546  10.885   5.910   9.081 -0.1451 -3.6385  0.1466
  845MOL0     H16547  10.883   6.105   9.210  1.4654 -0.2198  0.6832
  845MOL0     H16548  10.761   6.024   9.325 -0.5965 -1.4455 -0.1791
  845MOL0     H16549  10.920   5.916   9.433  0.9919 -0.1125 -0.4107
  845MOL0     H16550  11.048   5.940   9.316 -1.5320 -3.1845 -0.2524
  845MOL0     H16551  11.047   6.083   9.529  2.3316  0.8539 -1.0152
  845MOL0     H16552  10.910   6.169   9.463  0.5916  1.9410 -2.0668
  845MOL0     H16553  11.195   6.169   9.354 -0.9241 -0.6868  1.4068
  845MOL0     H16554  11.066   6.246   9.271 -0.6261  0.5931  1.2881
  845MOL0     H16555  11.154   6.297   9.558  3.2910  2.0216 -0.3759
  845MOL0     H16556  11.022   6.387   9.479 -0.7631 -1.6109  2.1617
  845MOL0     H16557  11.192   6.461   9.306 -0.3253  0.5117  0.4959
  845MOL0     H16558  11.222   6.526   9.473 -0.0394 -0.5581  1.2046
  845MOL0     H16559  11.432   6.394   9.618 -0.1256  1.9035 -0.5467
  845MOL0     H16560  11.747   6.230   9.460  1.3848  0.3518  1.0408
  845MOL0     H16561  11.641   6.196   9.609 -1.9153  0.0157  0.1220
  845MOL0     H16562  11.775   6.468   9.545  0.5696 -3.7427 -2.6632
  845MOL0     H16563  11.670   6.424   9.687 -0.1604 -2.6097  1.4286
  845MOL0     H16564  11.911   6.450   9.735 -1.2017 -0.0667  0.4194
  845MOL0     H16565  11.836   6.299   9.797 -2.6519  1.8058  0.6756
  845MOL0     H16566  11.936   6.187   9.602 -0.0089  0.5351  1.2663
  845MOL0     H16567  12.002   6.354   9.549 -0.3826 -0.4024 -0.5506
  845MOL0     H16568  12.184   6.245   9.461 -1.1934 -1.4784  1.1924
  845MOL0     H16569  12.350   6.163   9.331 -1.3308  1.9528 -3.8333
  845MOL0     H16570  12.513   6.216   9.338 -0.5127  0.0531 -0.5362
  845MOL0     H16571  12.399   6.330   9.279 -0.4985 -2.1534 -2.7267
  845MOL0     H16572  12.844   6.159   9.521 -0.7573 -0.9615  2.6572
  845MOL0     H16573  13.082   6.163   9.472 -0.5065  1.5645 -2.4876
  845MOL0     H16574  13.308   6.155   9.534  1.4501  1.6545  4.0978
  845MOL0     H16575  13.298   6.239   9.369  0.4403 -1.1858 -0.9867
  845MOL0     H16576  13.483   6.388   9.427  2.7065 -0.9597 -2.2371
  845MOL0     H16577  13.499   6.304   9.584  4.0597  0.3514 -1.7635
  845MOL0     H16578  13.501   6.146   9.332 -0.2518  0.4064  0.2277
  845MOL0     H16579  13.579   6.104   9.488 -3.5552 -1.9323 -1.1260
  845MOL0     H16580  13.745   6.270   9.476  1.8013 -1.4826 -1.0460
  845MOL0     H16581  13.665   6.343   9.330  2.3157  0.4635 -1.0780
  845MOL0     H16582  13.726   6.128   9.203  0.9731 -0.7453 -0.0605
  845MOL0     H16583  13.846   6.248   9.235 -1.4902 -0.0628 -3.6067
  845MOL0     H16584  13.792   6.008   9.427 -1.4468 -1.9704 -1.6816
  845MOL0     H16585  13.936   6.122   9.417 -2.1436  1.8479  1.0798
  845MOL0     H16586  13.829   5.925   9.217 -2.3061  1.8383  2.4475
  845MOL0     H16587  13.978   5.896   9.311  1.2270  0.2775  0.1138
  845MOL0     H16588  13.949   6.099   9.092 -2.0925  0.2192  0.8991
  845MOL0     H16589  14.055   5.954   9.094 -2.2164 -1.3345  1.8857
  845MOL0     H16590  13.121   6.534   9.677 -0.1644 -0.8691  0.9612
  845MOL0     H16591  12.884   6.526   9.727 -0.7079  0.5111 -2.4543
  845MOL0     H16592  12.518   6.380   9.807  0.2820  0.6141 -0.4198
  845MOL0     H16593  12.268   6.346   9.861  1.7922  2.7302  0.7009
  845MOL0     H16594  10.419   5.989   9.066 -0.9141 -0.4851 -0.9498
  845MOL0     H16595  10.168   5.997   9.124 -0.1325 -0.0451  0.4952
  845MOL0     H16596   9.870   5.880   9.465  0.6023  1.0010 -0.2513
  845MOL0     H16597   9.645   5.870   9.534  0.8535 -2.2889  1.5092
  845MOL0     H16598   9.383   5.791   9.227 -2.6281  0.9413 -2.0263
  845MOL0     H16599   9.265   5.735   9.335 -2.5496  2.6033  0.0016
  845MOL0     H16600   9.230   5.983   9.294  0.4897 -0.3738 -1.0888
  845MOL0     H16601   9.388   6.013   9.354  0.1736  0.7208  3.7297
  845MOL0     H16602   9.187   6.064   9.502  2.1361  1.6728 -0.0595
  845MOL0     H16603   9.155   5.897   9.520  1.5896 -0.8853  0.5111
  845MOL0     H16604   9.380   5.864   9.655 -1.6614 -0.6159 -1.5913
  845MOL0     H16605   9.283   6.000   9.714 -2.8834  0.3411 -1.0453
  845MOL0     H16606   9.627   6.208   9.634  0.2634  0.1995 -1.6210
  845MOL0     H16607   9.544   5.646   9.184 -2.4203  0.3307  3.0874
  845MOL0     H16608   9.867   5.567   9.084  0.2001 -0.3442  0.7141
  845MOL0     H16609   9.693   5.608   9.021  0.0725  0.4940 -0.6928
  845MOL0     H16610   9.831   5.711   8.994  1.0479 -2.1097 -1.1084
  846MOL0     O16611   9.948   0.756   6.282  1.0649 -0.2128  0.3066
  846MOL0     C16612   9.934   0.638   6.240 -0.1546  0.0647 -1.0817
  846MOL0     O16613  10.020   0.534   6.270  0.2163 -0.0872  0.6120
  846MOL0     C16614  10.136   0.564   6.337  0.1879  0.8450  0.2362
  846MOL0     C16615  10.126   0.600   6.471 -0.1537 -0.4119  0.0817
  846MOL0     C16616  10.243   0.619   6.550 -0.5868 -0.2531  0.7897
  846MOL0     C16617  10.376   0.600   6.488  0.1332 -0.6578 -0.7095
  846MOL0     O16618  10.479   0.606   6.578 -0.0944  0.0701  0.6827
  846MOL0     C16619  10.598   0.529   6.540  0.2972 -0.1810  0.5085
  846MOL0     C16620  10.707   0.523   6.648 -0.7694  0.4890 -0.9016
  846MOL0     C16621  10.825   0.433   6.605 -0.5496 -0.0126 -0.1078
  846MOL0     C16622  10.942   0.460   6.704 -0.2694  0.0678  0.2458
  846MOL0     C16623  11.062   0.372   6.681  0.3873 -0.3493 -0.2651
  846MOL0     C16624  11.125   0.376   6.544  0.5316 -0.2390 -0.2676
  846MOL0     C16625  11.275   0.341   6.560 -0.2271  0.2895 -0.8494
  846MOL0     C16626  11.337   0.320   6.416  0.7486 -0.2994  0.2933
  846MOL0     N16627  11.281   0.202   6.363  0.6295  0.6753 -0.5462
  846MOL0     C16628  11.321   0.075   6.398 -0.0685  0.4860 -0.0690
  846MOL0     C16629  11.254  -0.006   6.319 -0.0118  0.1342  1.0416
  846MOL0     C16630  11.284  -0.156   6.302  0.1135 -0.8120  0.1174
  846MOL0     C16631  11.284  -0.232   6.435  0.2385  0.7728  0.8698
  846MOL0     C16632  11.330  -0.377   6.415  0.3593  0.6254  0.8354
  846MOL0     C16633  11.466  -0.401   6.481 -0.2327  1.3230  0.2176
  846MOL0     O16634  11.548  -0.338   6.382 -0.7359 -0.2891 -0.1779
  846MOL0     C16635  11.603  -0.417   6.285 -0.0335  0.0294  0.4869
  846MOL0     C16636  11.550  -0.408   6.160 -0.5829  0.0660  0.9141
  846MOL0     C16637  11.604  -0.476   6.045 -0.2163 -0.0169  0.2841
  846MOL0     C16638  11.525  -0.454   5.910 -0.6340 -0.2388 -0.0835
  846MOL0     C16639  11.716  -0.565   6.061  0.6154  0.4246  0.1403
  846MOL0     C16640  11.776  -0.649   5.954  0.9272  0.0295  0.9734
  846MOL0     O16641  11.881  -0.727   5.998  0.9312 -0.0041 -0.1851
  846MOL0     C16642  11.986  -0.767   5.915 -0.6938 -1.0427 -0.1765
  846MOL0     C16643  12.066  -0.871   5.951  0.1563  0.7177  0.1421
  846MOL0     C16644  12.168  -0.920   5.869 -0.8358  0.2852  0.4285
  846MOL0     C16645  12.202  -0.850   5.751  1.0665  0.3032  0.3999
  846MOL0     O16646  12.307  -0.887   5.673 -0.3870  0.5337  0.0495
  846MOL0     C16647  12.431  -0.875   5.739 -0.9713 -0.1293  0.1475
  846MOL0     C16648  12.535  -0.875   5.632  0.0570 -0.5674  0.2966
  846MOL0     C16649  12.670  -0.849   5.694  0.6373  0.0130  0.4005
  846MOL0     C16650  12.735  -0.991   5.712 -0.7538 -0.1106  0.3762
  846MOL0     C16651  12.866  -0.989   5.784 -1.1295  0.2675 -0.9287
  846MOL0     C16652  12.858  -0.929   5.924  0.2623 -0.2115  0.1241
  846MOL0     C16653  12.975  -0.962   6.020 -0.7191 -0.2017  0.2086
  846MOL0     C16654  12.987  -0.873   6.147  0.0928  0.4491  0.0581
  846MOL0    Cl16655  13.035  -0.709   6.101 -0.1101  0.2708  0.1389
  846MOL0     C16656  12.135  -0.729   5.728 -0.5743  0.4044 -0.1458
  846MOL0     C16657  12.023  -0.691   5.807 -0.0066 -0.0672 -1.1003
  846MOL0     O16658  11.730  -0.654   5.840 -0.0120  0.5973  0.4742
  846MOL0     C16659  11.769  -0.573   6.188  0.8308  0.3355 -0.3129
  846MOL0     C16660  11.718  -0.499   6.301  0.2547 -0.5490 -0.0417
  846MOL0     N16661  11.186   0.073   6.230  0.1883  0.2612 -0.3839
  846MOL0     N16662  11.194   0.204   6.258  0.0815  0.6056  1.2867
  846MOL0     C16663  10.381   0.570   6.355  0.4475 -0.1488  0.0816
  846MOL0     C16664  10.264   0.554   6.276  0.8299 -0.1019  0.5010
  846MOL0     C16665   9.809   0.590   6.180 -0.0168 -0.4081 -0.1455
  846MOL0     C16666   9.811   0.457   6.129  0.6253 -0.2752 -0.2348
  846MOL0     C16667   9.694   0.392   6.088  0.1507  0.0786  0.4670
  846MOL0     C16668   9.569   0.460   6.093 -0.7190  0.6042 -0.2127
  846MOL0     O16669   9.443   0.414   6.078 -0.3597 -0.5963 -0.0579
  846MOL0     C16670   9.426   0.273   6.073  0.8774 -0.5513 -0.0913
  846MOL0     C16671   9.274   0.237   6.084 -0.1782  0.7656  0.6481
  846MOL0     C16672   9.185   0.283   5.953 -1.0512  0.4497  0.4194
  846MOL0     C16673   9.188   0.193   5.832 -0.1154 -0.0404 -0.3686
  846MOL0     C16674   9.147   0.054   5.868  0.0578  0.4233  0.0560
  846MOL0     C16675   9.092  -0.056   5.874 -0.2061 -0.5630  0.0214
  846MOL0     C16676   9.567   0.595   6.135 -0.8422 -0.1888  0.2808
  846MOL0     C16677   9.688   0.669   6.173  0.7068 -0.3967  0.8829
  846MOL0     C16678   9.683   0.829   6.202  0.1946 -0.1376 -0.2097
  846MOL0     H16679  10.035   0.608   6.530 -0.4207  0.3013 -0.4081
  846MOL0     H16680  10.229   0.632   6.657  2.1752  3.9978  0.8797
  846MOL0     H16681  10.640   0.565   6.446 -0.7873  1.0626  0.4774
  846MOL0     H16682  10.565   0.424   6.537  1.4969 -0.6082  1.2416
  846MOL0     H16683  10.745   0.621   6.678 -0.1005 -0.3180  1.0022
  846MOL0     H16684  10.662   0.486   6.740  3.1117 -0.2074  0.9231
  846MOL0     H16685  10.789   0.330   6.615  1.9539 -0.9137  0.3016
  846MOL0     H16686  10.859   0.446   6.501 -0.3981 -2.8309 -0.4794
  846MOL0     H16687  10.961   0.565   6.681 -2.8466  0.8252  1.1585
  846MOL0     H16688  10.907   0.459   6.807 -3.0642  0.6029 -0.5995
  846MOL0     H16689  11.030   0.270   6.705  0.1142  0.0910  1.3214
  846MOL0     H16690  11.141   0.397   6.752 -3.1914 -0.2675  4.0924
  846MOL0     H16691  11.083   0.306   6.471  1.6123  1.3757 -2.5905
  846MOL0     H16692  11.110   0.479   6.508 -1.8622 -1.1478 -2.2445
  846MOL0     H16693  11.278   0.251   6.623  0.5483  0.0140 -1.2729
  846MOL0     H16694  11.324   0.425   6.611 -0.8956 -0.1951  0.6672
  846MOL0     H16695  11.312   0.409   6.356 -0.4095 -0.2998  0.7533
  846MOL0     H16696  11.446   0.309   6.415  0.8392  0.4680  0.8049
  846MOL0     H16697  11.401   0.039   6.462  0.8846  0.2471 -1.3441
  846MOL0     H16698  11.387  -0.171   6.268  2.4039  1.8508  4.8573
  846MOL0     H16699  11.208  -0.198   6.235 -0.4958 -0.3269  0.4972
  846MOL0     H16700  11.347  -0.173   6.502 -1.7728  5.2899 -0.7978
  846MOL0     H16701  11.185  -0.228   6.481 -0.1948 -0.4896  0.0918
  846MOL0     H16702  11.251  -0.444   6.451 -0.5884 -2.0725 -5.0787
  846MOL0     H16703  11.335  -0.392   6.307  0.2950 -0.8565  1.0208
  846MOL0     H16704  11.465  -0.353   6.579  1.3023 -0.0678  0.9561
  846MOL0     H16705  11.500  -0.504   6.490  0.0415  1.5721  2.9546
  846MOL0     H16706  11.459  -0.353   6.138  0.4331  1.4372 -0.0935
  846MOL0     H16707  11.588  -0.425   5.825  0.3351 -2.0105 -0.0174
  846MOL0     H16708  11.450  -0.376   5.926 -0.8226 -0.1420 -1.3065
  846MOL0     H16709  11.461  -0.535   5.873 -1.7516  1.1622 -1.3794
  846MOL0     H16710  12.034  -0.906   6.049 -3.1089  3.2158  0.1365
  846MOL0     H16711  12.226  -1.010   5.890 -0.7974  0.1825 -0.1127
  846MOL0     H16712  12.424  -0.783   5.798 -3.9728  0.1329 -0.4566
  846MOL0     H16713  12.445  -0.966   5.798  1.1853 -0.6397 -1.0463
  846MOL0     H16714  12.527  -0.970   5.578 -0.8955 -1.0015  1.1595
  846MOL0     H16715  12.512  -0.795   5.561  2.5576 -0.2701 -0.2754
  846MOL0     H16716  12.659  -0.801   5.792  3.3833  2.3141 -0.2769
  846MOL0     H16717  12.728  -0.782   5.630  0.1383 -1.4878 -1.7235
  846MOL0     H16718  12.758  -1.021   5.610 -0.7796  4.2102 -1.1323
  846MOL0     H16719  12.661  -1.051   5.767 -1.1075  1.8230  2.1439
  846MOL0     H16720  12.915  -1.086   5.787  1.0041  1.1662 -2.9494
  846MOL0     H16721  12.929  -0.923   5.723 -2.2297  0.1667 -2.2232
  846MOL0     H16722  12.760  -0.947   5.969 -1.9376  1.7424 -3.4326
  846MOL0     H16723  12.860  -0.821   5.913  3.3607 -0.2257 -0.4116
  846MOL0     H16724  13.068  -0.954   5.962 -1.3143  0.2307 -0.7146
  846MOL0     H16725  12.953  -1.067   6.041 -1.1070  0.2971  2.5908
  846MOL0     H16726  13.064  -0.919   6.209 -1.3850 -1.4675  0.5412
  846MOL0     H16727  12.896  -0.871   6.207  1.6022  0.1455  2.5048
  846MOL0     H16728  12.178  -0.672   5.646 -2.6266 -0.3688 -1.8582
  846MOL0     H16729  11.975  -0.595   5.789 -0.7154  0.2979  2.2432
  846MOL0     H16730  11.844  -0.645   6.221 -0.2414 -0.5654  0.2487
  846MOL0     H16731  11.760  -0.508   6.401 -0.7313  2.0864  0.6978
  846MOL0     H16732  10.476   0.557   6.304 -0.6454 -1.1273 -1.8302
  846MOL0     H16733  10.277   0.539   6.169  1.5857 -0.6984  0.6641
  846MOL0     H16734   9.905   0.403   6.134  0.2451 -1.0577 -1.2034
  846MOL0     H16735   9.693   0.286   6.065 -3.2242 -0.1849  1.3204
  846MOL0     H16736   9.467   0.232   5.980  1.2025 -0.4303 -0.0006
  846MOL0     H16737   9.480   0.233   6.159  0.6041 -0.8404 -0.0534
  846MOL0     H16738   9.237   0.285   6.175  0.8700  2.8375  0.0498
  846MOL0     H16739   9.263   0.129   6.097 -0.6572  0.6010 -0.9583
  846MOL0     H16740   9.083   0.295   5.990 -0.8852  3.9805  0.0699
  846MOL0     H16741   9.223   0.381   5.924 -1.8005  1.3134  2.2025
  846MOL0     H16742   9.290   0.187   5.792  0.3508 -0.7341  0.8701
  846MOL0     H16743   9.128   0.242   5.756 -3.3926  0.3873  2.2621
  846MOL0     H16744   9.043  -0.150   5.887  3.8794 -2.8714  0.3911
  846MOL0     H16745   9.474   0.649   6.122  0.4322  1.8966 -0.6798
  846MOL0     H16746   9.584   0.865   6.173 -0.1523 -2.4633 -2.2930
  846MOL0     H16747   9.704   0.859   6.305 -1.7464  1.6356 -0.2799
  846MOL0     H16748   9.754   0.883   6.139  2.1751  0.6250  2.4815
  847MOL0     O16749   2.303  10.169   3.370 -0.0592 -0.3555 -0.4063
  847MOL0     C16750   2.333  10.222   3.264  0.0613 -0.0487 -0.2883
  847MOL0     O16751   2.454  10.273   3.234 -0.2687 -0.4026  0.0691
  847MOL0     C16752   2.574  10.237   3.297  0.2771 -0.1002 -0.5279
  847MOL0     C16753   2.665  10.156   3.230  0.8187 -0.3546  0.8479
  847MOL0     C16754   2.790  10.117   3.280 -0.9183 -1.1045 -0.3942
  847MOL0     C16755   2.836  10.178   3.398 -0.0718  0.5759  0.3436
  847MOL0     O16756   2.968  10.166   3.448  0.3943 -0.2022 -0.6293
  847MOL0     C16757   3.080  10.182   3.357 -0.8218  0.0100 -0.4804
  847MOL0     C16758   3.112  10.333   3.327  0.1267  0.0283  0.2482
  847MOL0     C16759   3.225  10.354   3.232  1.2098  0.1489  0.3581
  847MOL0     C16760   3.198  10.446   3.113  0.1392 -1.0524  0.4538
  847MOL0     C16761   3.331  10.453   3.032  0.0841  0.8487 -0.4485
  847MOL0     C16762   3.304  10.549   2.910  0.1208 -0.6819 -0.9819
  847MOL0     C16763   3.431  10.570   2.825  0.8364  0.8755 -0.1690
  847MOL0     C16764   3.419  10.679   2.717 -0.0880  0.6755 -0.7189
  847MOL0     N16765   3.407  10.813   2.775 -0.0688  0.5311  0.1269
  847MOL0     C16766   3.509  10.888   2.828  0.5643 -0.9153  0.7633
  847MOL0     C16767   3.467  11.020   2.822  1.4850  0.7907 -0.1358
  847MOL0     C16768   3.520  11.148   2.872 -0.6123 -0.1976  0.0861
  847MOL0     C16769   3.661  11.171   2.812 -0.3175  0.6289  0.4402
  847MOL0     C16770   3.702  11.312   2.848  0.3508  0.0703 -0.0358
  847MOL0     C16771   3.809  11.360   2.756  0.0628  0.1884  0.4283
  847MOL0     O16772   3.920  11.276   2.746 -0.4024 -0.2978 -0.5956
  847MOL0     C16773   4.034  11.316   2.694 -1.6319 -0.6524 -0.3318
  847MOL0     C16774   4.153  11.272   2.750  0.0931 -0.1933  0.1282
  847MOL0     C16775   4.274  11.324   2.705  0.0138 -0.3849 -0.0765
  847MOL0     C16776   4.391  11.257   2.758 -0.1580 -0.1189  0.4091
  847MOL0     C16777   4.279  11.424   2.614 -0.1969  0.2220 -0.0153
  847MOL0     C16778   4.400  11.482   2.567 -0.7108  0.6142  0.0482
  847MOL0     O16779   4.498  11.491   2.664  0.1108  0.5710  0.3981
  847MOL0     C16780   4.600  11.575   2.637  0.4458 -0.9115  0.6979
  847MOL0     C16781   4.717  11.538   2.571  0.1648  1.0236 -1.0237
  847MOL0     C16782   4.817  11.631   2.539 -0.7434  0.5222 -0.2101
  847MOL0     C16783   4.813  11.768   2.577 -0.1572  0.4401  0.1297
  847MOL0     O16784   4.916  11.852   2.551 -0.4308  0.1841 -0.0225
  847MOL0     C16785   4.920  11.896   2.421  0.0433 -0.2522  0.3097
  847MOL0     C16786   4.898  12.047   2.405 -0.2533 -1.0310  0.1319
  847MOL0     C16787   4.762  12.112   2.450 -0.3508 -0.1580  0.7222
  847MOL0     C16788   4.663  12.100   2.333 -0.2852 -0.6883  0.8776
  847MOL0     C16789   4.527  12.152   2.373 -0.4749  0.1640 -0.4021
  847MOL0     C16790   4.410  12.082   2.300  0.1771  0.0398  0.9588
  847MOL0     C16791   4.277  12.146   2.362 -0.2846  0.4953 -0.4895
  847MOL0     C16792   4.151  12.093   2.300  0.1463 -1.2147 -0.1179
  847MOL0    Cl16793   4.122  11.923   2.343 -0.0347  0.1363  0.1018
  847MOL0     C16794   4.713  11.794   2.673  0.0230  1.1075  0.0470
  847MOL0     C16795   4.611  11.699   2.697  0.2735 -0.4066 -0.9563
  847MOL0     O16796   4.411  11.532   2.455 -0.6163  0.0209 -0.0469
  847MOL0     C16797   4.163  11.473   2.559 -0.2202 -0.4547  1.2716
  847MOL0     C16798   4.034  11.425   2.602  0.4422  0.0563  1.0807
  847MOL0     N16799   3.337  11.023   2.772 -0.0449 -0.3405 -0.5517
  847MOL0     N16800   3.315  10.906   2.729 -0.8060 -0.1018  0.0077
  847MOL0     C16801   2.746  10.262   3.468  0.8447 -0.1481  0.0707
  847MOL0     C16802   2.618  10.291   3.420  0.3848  0.3020  0.2934
  847MOL0     C16803   2.226  10.262   3.170  0.9395  0.3356  0.0419
  847MOL0     C16804   2.237  10.379   3.095 -0.7093 -0.7457 -0.2146
  847MOL0     C16805   2.139  10.431   3.005 -0.1013  0.1052  0.1872
  847MOL0     C16806   2.022  10.354   2.989  0.5453  0.6014 -0.1409
  847MOL0     O16807   1.904  10.400   2.926  0.4877  0.5466 -0.3217
  847MOL0     C16808   1.853  10.523   2.976  0.0421  0.2673 -0.3387
  847MOL0     C16809   1.706  10.539   2.944 -0.0778  0.0356 -0.3305
  847MOL0     C16810   1.623  10.418   2.975 -0.7489 -0.0687 -0.1252
  847MOL0     C16811   1.480  10.449   2.966  0.4775  0.1999  0.8204
  847MOL0     C16812   1.395  10.335   3.027 -0.4543 -0.1460  0.0782
  847MOL0     C16813   1.331  10.250   3.092 -0.2991 -0.1158 -0.7137
  847MOL0     C16814   2.012  10.221   3.045  0.6620 -0.7164 -0.8148
  847MOL0     C16815   2.112  10.180   3.138 -1.8442 -0.1538  0.4706
  847MOL0     C16816   2.092  10.049   3.212 -0.0964 -0.2801 -0.4789
  847MOL0     H16817   2.634  10.129   3.129  0.0838  2.0342  0.3758
  847MOL0     H16818   2.855  10.054   3.221  1.0187  0.4692 -0.0366
  847MOL0     H16819   3.061  10.131   3.262 -1.5304  1.1437 -0.9759
  847MOL0     H16820   3.170  10.136   3.397  0.3077  2.3209 -0.2311
  847MOL0     H16821   3.019  10.374   3.285  0.6429 -0.6846 -1.6852
  847MOL0     H16822   3.122  10.399   3.414  0.5198  2.3888 -1.5031
  847MOL0     H16823   3.309  10.386   3.295 -0.8914 -0.9918  4.0475
  847MOL0     H16824   3.254  10.255   3.196 -2.0932 -1.5491  1.9746
  847MOL0     H16825   3.119  10.395   3.058 -0.9270 -0.9812  1.8776
  847MOL0     H16826   3.154  10.542   3.141  0.6061 -0.1361 -1.7240
  847MOL0     H16827   3.357  10.355   2.991  0.1628  0.1483  1.1946
  847MOL0     H16828   3.423  10.485   3.083  0.0232  0.4476 -0.0812
  847MOL0     H16829   3.224  10.513   2.844 -1.6354  1.8292 -0.3892
  847MOL0     H16830   3.262  10.639   2.955  1.3389  1.3339 -3.5956
  847MOL0     H16831   3.445  10.473   2.777 -0.8999  1.0709 -1.1710
  847MOL0     H16832   3.509  10.588   2.899  0.2838  1.7217  0.2225
  847MOL0     H16833   3.508  10.680   2.653 -1.1188 -0.5808 -2.2366
  847MOL0     H16834   3.329  10.656   2.661 -1.5683 -3.5374  2.7642
  847MOL0     H16835   3.601  10.850   2.870 -0.2407 -1.7929  1.8169
  847MOL0     H16836   3.508  11.150   2.981  1.5197 -1.6796  0.4123
  847MOL0     H16837   3.453  11.225   2.834  1.1207 -0.5249 -4.2441
  847MOL0     H16838   3.731  11.099   2.855 -0.3047 -0.3633 -1.1705
  847MOL0     H16839   3.657  11.154   2.704  0.0869 -0.8840  0.6314
  847MOL0     H16840   3.612  11.374   2.848  1.8756  2.4154  1.1427
  847MOL0     H16841   3.747  11.317   2.948  4.7915 -2.2674 -1.6154
  847MOL0     H16842   3.765  11.379   2.658  1.2506 -1.5684 -0.4933
  847MOL0     H16843   3.848  11.456   2.791 -0.8108  0.3258  1.0676
  847MOL0     H16844   4.157  11.196   2.827 -1.8878 -0.3139  0.1754
  847MOL0     H16845   4.372  11.161   2.807  2.5377 -0.6103  0.6472
  847MOL0     H16846   4.443  11.313   2.836  0.6735  0.0993 -0.2825
  847MOL0     H16847   4.459  11.220   2.681 -0.6764 -2.8014  1.1471
  847MOL0     H16848   4.736  11.432   2.553  2.7382  1.6395 -2.5348
  847MOL0     H16849   4.910  11.602   2.492  0.0685  3.2629 -0.4752
  847MOL0     H16850   5.015  11.857   2.381  0.6167 -1.8285  2.9597
  847MOL0     H16851   4.840  11.850   2.362 -1.9671  1.2909  1.7218
  847MOL0     H16852   4.984  12.091   2.456  1.1264 -0.1211 -2.7431
  847MOL0     H16853   4.910  12.058   2.297  0.4426  0.1580  0.3188
  847MOL0     H16854   4.780  12.213   2.490  1.3888 -0.4873  0.8245
  847MOL0     H16855   4.722  12.052   2.532 -0.0571 -1.1701  0.1417
  847MOL0     H16856   4.662  11.995   2.302 -1.6093 -0.1282 -1.2434
  847MOL0     H16857   4.687  12.155   2.241 -2.1785 -1.5699 -0.2122
  847MOL0     H16858   4.515  12.135   2.480  2.1814  1.5369  0.2150
  847MOL0     H16859   4.530  12.258   2.345 -1.3184 -0.5629 -3.6212
  847MOL0     H16860   4.408  11.974   2.317  1.6185 -0.2706 -0.6282
  847MOL0     H16861   4.416  12.102   2.193 -1.7920 -0.7911  0.6512
  847MOL0     H16862   4.285  12.255   2.355 -0.0236  0.7974  3.0044
  847MOL0     H16863   4.288  12.125   2.469  0.8498 -2.7408 -1.1003
  847MOL0     H16864   4.157  12.099   2.191 -2.2506 -2.9930 -0.4502
  847MOL0     H16865   4.066  12.156   2.327  1.0205 -0.3248  0.5917
  847MOL0     H16866   4.704  11.894   2.715 -1.2625  1.3243 -0.6896
  847MOL0     H16867   4.534  11.725   2.768  0.5463 -1.3388 -0.3154
  847MOL0     H16868   4.163  11.557   2.491 -1.2447 -2.2487 -1.0989
  847MOL0     H16869   3.939  11.462   2.564  0.8697  0.0254 -0.0296
  847MOL0     H16870   2.781  10.313   3.557  1.1378 -0.9965  0.4519
  847MOL0     H16871   2.555  10.356   3.480  2.5769  0.1837  2.9221
  847MOL0     H16872   2.318  10.445   3.125  1.3814 -2.5950 -1.4839
  847MOL0     H16873   2.168  10.524   2.957  0.8712 -0.7910 -1.0027
  847MOL0     H16874   1.860  10.541   3.084 -2.3114 -1.4133  0.1816
  847MOL0     H16875   1.907  10.604   2.926  0.3045  0.0777 -0.3656
  847MOL0     H16876   1.688  10.581   2.844 -1.9750  0.6494  0.2397
  847MOL0     H16877   1.677  10.623   3.007  1.4104  1.1195 -1.0110
  847MOL0     H16878   1.644  10.342   2.899  0.3816  2.1481 -2.1370
  847MOL0     H16879   1.640  10.384   3.078 -3.3963  0.2909  0.4887
  847MOL0     H16880   1.441  10.472   2.867 -1.4928  1.3586  1.8155
  847MOL0     H16881   1.454  10.534   3.029 -0.1003  0.8330 -0.2575
  847MOL0     H16882   1.292  10.170   3.151 -1.2382  1.0427  0.2877
  847MOL0     H16883   1.917  10.169   3.041  0.0547  0.3352 -0.1598
  847MOL0     H16884   2.000   9.997   3.183  0.6245 -1.2481 -1.1052
  847MOL0     H16885   2.167   9.971   3.192  0.1960 -0.4749  1.2367
  847MOL0     H16886   2.080  10.074   3.318  0.8066  0.0255 -0.4416
  848MOL0     O16887   6.246  10.433   9.912  0.1880  0.1682  0.2437
  848MOL0     C16888   6.159  10.351   9.901 -0.2366 -0.0557  0.5721
  848MOL0     O16889   6.161  10.228   9.961 -0.4375  0.4696 -0.5429
  848MOL0     C16890   6.269  10.202  10.047 -0.0527 -0.7141  0.5472
  848MOL0     C16891   6.397  10.211  10.012  0.0438 -0.6335  0.1641
  848MOL0     C16892   6.491  10.172  10.099  0.5663  0.5532  0.3869
  848MOL0     C16893   6.459  10.135  10.232  0.4451  0.3620  0.1469
  848MOL0     O16894   6.565  10.099  10.317  0.4987 -0.2217 -0.0095
  848MOL0     C16895   6.551  10.124  10.458 -0.8884 -0.1754  0.1979
  848MOL0     C16896   6.673  10.216  10.501  0.3007  0.7472 -0.5969
  848MOL0     C16897   6.809  10.140  10.494 -0.2170  0.3336  0.4329
  848MOL0     C16898   6.910  10.204  10.590 -0.4439 -0.9297  0.5924
  848MOL0     C16899   7.041  10.144  10.608  0.8367 -0.0861 -0.1774
  848MOL0     C16900   7.124  10.161  10.484 -0.3426 -0.1143  0.2326
  848MOL0     C16901   7.264  10.098  10.501 -0.0746  0.3933 -0.2849
  848MOL0     C16902   7.338  10.066  10.366  0.4676  0.4590 -0.4750
  848MOL0     N16903   7.480  10.022  10.383 -0.0184 -0.3479 -0.0596
  848MOL0     C16904   7.548   9.950  10.287 -0.6218  0.8045 -0.7653
  848MOL0     C16905   7.676   9.942  10.335  0.2746 -0.4398  0.0621
  848MOL0     C16906   7.793   9.885  10.258 -0.0470 -0.5383 -0.5225
  848MOL0     C16907   7.808   9.733  10.257  0.0086 -0.3442 -0.1697
  848MOL0     C16908   7.877   9.687  10.128 -0.1157  0.4245 -0.5550
  848MOL0     C16909   8.016   9.734  10.115 -0.8134 -0.4257  0.1243
  848MOL0     O16910   8.073   9.663  10.004 -0.3722 -0.6626 -0.2585
  848MOL0     C16911   8.199   9.703   9.967 -0.2074  0.6432  0.0205
  848MOL0     C16912   8.305   9.714  10.068 -0.4470 -0.0476 -0.4205
  848MOL0     C16913   8.441   9.739  10.026  0.1323 -0.2993  0.7630
  848MOL0     C16914   8.546   9.758  10.130  0.1052  0.0929 -0.3700
  848MOL0     C16915   8.466   9.765   9.891 -0.5779 -0.7014  0.0078
  848MOL0     C16916   8.610   9.800   9.841 -0.0697  0.2767  0.1660
  848MOL0     O16917   8.604   9.813   9.703 -0.2002 -0.4579  0.4454
  848MOL0     C16918   8.730   9.808   9.646  0.1233 -0.6742 -0.1009
  848MOL0     C16919   8.792   9.691   9.648 -0.4573  0.8149  0.1832
  848MOL0     C16920   8.913   9.673   9.581  0.2373 -0.0176 -0.3709
  848MOL0     C16921   8.977   9.784   9.520 -0.6665  0.0293  0.1087
  848MOL0     O16922   9.094   9.775   9.456  0.2942 -0.3356  0.0685
  848MOL0     C16923   9.202   9.683   9.517 -0.3964 -0.3813  0.1140
  848MOL0     C16924   9.329   9.700   9.439 -0.1596 -0.5845  0.5023
  848MOL0     C16925   9.452   9.645   9.510 -0.0148  0.3674  0.7934
  848MOL0     C16926   9.580   9.685   9.430 -0.6234 -0.2582 -0.1583
  848MOL0     C16927   9.709   9.620   9.492 -0.1124  0.3225 -0.9440
  848MOL0     C16928   9.825   9.611   9.395  0.0664 -1.3097  0.4566
  848MOL0     C16929   9.918   9.506   9.440 -0.2969  1.1211 -0.3692
  848MOL0     C16930  10.026   9.477   9.332 -0.4017  0.3812 -0.3690
  848MOL0    Cl16931  10.163   9.386   9.402  0.2833  0.2553 -0.3773
  848MOL0     C16932   8.905   9.906   9.509  0.0215 -0.3703 -0.1244
  848MOL0     C16933   8.780   9.917   9.573  0.1436  0.2208  0.4277
  848MOL0     O16934   8.711   9.821   9.908  0.3207  0.6149 -0.2055
  848MOL0     C16935   8.360   9.754   9.797  0.2858  0.0219 -0.2280
  848MOL0     C16936   8.230   9.722   9.834  0.2298 -0.2303  0.5676
  848MOL0     N16937   7.677  10.013  10.454  0.8520  0.1255  0.0300
  848MOL0     N16938   7.568  10.074  10.473  0.2951 -0.9377  0.3453
  848MOL0     C16939   6.322  10.139  10.265  0.1459 -0.9897  0.3724
  848MOL0     C16940   6.232  10.163  10.172 -0.2085 -0.5294 -0.7330
  848MOL0     C16941   6.060  10.373   9.803  0.2047  0.6564  0.5219
  848MOL0     C16942   5.936  10.418   9.846  0.4440  0.6998 -0.0338
  848MOL0     C16943   5.837  10.465   9.766 -0.1045 -0.1105 -1.3394
  848MOL0     C16944   5.851  10.457   9.628 -0.4018  0.9082 -0.7902
  848MOL0     O16945   5.742  10.511   9.559  0.1640 -1.2787  0.7956
  848MOL0     C16946   5.751  10.523   9.422 -0.5295  0.1416  0.0959
  848MOL0     C16947   5.606  10.518   9.371  0.9602 -0.0976  0.2508
  848MOL0     C16948   5.537  10.391   9.420  0.3110 -0.4838  0.5699
  848MOL0     C16949   5.412  10.352   9.336 -0.6607 -0.9708  0.5733
  848MOL0     C16950   5.350  10.234   9.403  0.1963 -1.0546  0.0343
  848MOL0     C16951   5.291  10.130   9.442  0.2402 -1.5174  0.4477
  848MOL0     C16952   5.974  10.403   9.577  0.6533  0.5681 -0.2194
  848MOL0     C16953   6.078  10.359   9.670 -0.0649 -0.5106  0.6053
  848MOL0     C16954   6.209  10.295   9.618 -0.3937 -0.4492  0.4926
  848MOL0     H16955   6.430  10.226   9.910  0.9194  0.2543  0.5604
  848MOL0     H16956   6.593  10.163  10.063  0.0856 -4.9058 -0.3555
  848MOL0     H16957   6.551  10.032  10.517  0.9869 -0.8349 -0.7711
  848MOL0     H16958   6.455  10.172  10.481 -1.1907 -1.8096  2.7768
  848MOL0     H16959   6.671  10.321  10.467 -2.2099  3.1305  5.4662
  848MOL0     H16960   6.660  10.246  10.605  0.2275 -0.2769 -0.3063
  848MOL0     H16961   6.790  10.035  10.517  1.1388 -0.9257 -3.3830
  848MOL0     H16962   6.847  10.136  10.391 -0.2266 -2.0261  0.4678
  848MOL0     H16963   6.921  10.305  10.547  0.9993 -1.9587 -1.6704
  848MOL0     H16964   6.855  10.209  10.684  0.3516 -1.3607  1.0856
  848MOL0     H16965   7.046  10.035  10.621  2.7773 -0.1852 -1.3530
  848MOL0     H16966   7.091  10.185  10.695  0.9274 -3.2476  1.3995
  848MOL0     H16967   7.082  10.116  10.393 -1.4633  1.6666 -0.1688
  848MOL0     H16968   7.142  10.268  10.468 -2.5561  0.0888 -1.4364
  848MOL0     H16969   7.254  10.001  10.551 -0.3104  0.8283  0.5293
  848MOL0     H16970   7.318  10.172  10.562 -1.4624  1.7048 -0.5906
  848MOL0     H16971   7.293   9.986  10.307  1.8664 -0.6764 -0.0428
  848MOL0     H16972   7.331  10.147  10.293  0.5458 -1.0710 -2.2179
  848MOL0     H16973   7.508   9.907  10.195  0.7164 -1.3763 -0.3979
  848MOL0     H16974   7.886   9.921  10.302 -0.0391 -0.7504 -0.3642
  848MOL0     H16975   7.798   9.929  10.158 -1.3078  2.3554  0.5737
  848MOL0     H16976   7.871   9.717  10.345 -0.0920  5.2777  1.3626
  848MOL0     H16977   7.707   9.691  10.264 -1.3277  2.7960  3.6212
  848MOL0     H16978   7.874   9.579  10.116  0.9467  0.2338  0.7687
  848MOL0     H16979   7.813   9.727  10.048 -0.4144 -2.7371 -2.0378
  848MOL0     H16980   8.013   9.843  10.100 -0.8127 -0.6900 -2.2951
  848MOL0     H16981   8.073   9.711  10.205 -1.1140 -2.0811 -0.0799
  848MOL0     H16982   8.291   9.690  10.173 -0.7136  0.6548 -0.2897
  848MOL0     H16983   8.509   9.733  10.230  1.7498  1.1056  0.5390
  848MOL0     H16984   8.583   9.861  10.132  3.4578 -0.9344 -1.5799
  848MOL0     H16985   8.627   9.687  10.107  0.3033  1.2056 -3.5998
  848MOL0     H16986   8.762   9.609   9.712 -0.7541  0.0537 -0.8885
  848MOL0     H16987   8.973   9.584   9.600  3.2334  1.8378 -0.3924
  848MOL0     H16988   9.218   9.706   9.622 -0.0291 -2.8794  0.6844
  848MOL0     H16989   9.162   9.581   9.513 -0.1923 -0.4317 -1.9783
  848MOL0     H16990   9.319   9.655   9.340 -0.9039 -1.5478  1.0014
  848MOL0     H16991   9.345   9.808   9.423 -0.7229  0.0591  3.7022
  848MOL0     H16992   9.444   9.536   9.513 -0.7346  0.4221  1.2750
  848MOL0     H16993   9.460   9.689   9.610  1.0264 -2.5683  2.1169
  848MOL0     H16994   9.589   9.794   9.431 -3.4754  0.1562 -2.9460
  848MOL0     H16995   9.565   9.651   9.327 -1.3145  0.2605 -0.2352
  848MOL0     H16996   9.731   9.664   9.589 -1.4434  0.0532 -0.4976
  848MOL0     H16997   9.683   9.515   9.506  0.7137  0.5329  3.7430
  848MOL0     H16998   9.880   9.706   9.396 -1.9603 -0.0596 -0.1144
  848MOL0     H16999   9.793   9.592   9.292 -0.8930  2.1167 -0.0243
  848MOL0     H17000   9.854   9.417   9.443  1.8108 -0.5091 -0.7910
  848MOL0     H17001   9.957   9.526   9.540 -1.8636  0.4744  0.4143
  848MOL0     H17002  10.068   9.569   9.289 -0.3816  0.4552 -0.1906
  848MOL0     H17003   9.971   9.426   9.252 -3.3995 -2.4343  3.1267
  848MOL0     H17004   8.959   9.982   9.454 -0.1467  0.7175  1.1745
  848MOL0     H17005   8.718  10.004   9.553 -1.2622 -1.4079 -3.1962
  848MOL0     H17006   8.390   9.757   9.692  0.8938  1.5264 -0.0445
  848MOL0     H17007   8.162   9.703   9.752  0.6913  1.2898 -0.1907
  848MOL0     H17008   6.287  10.127  10.367  1.3353  1.3053  1.1267
  848MOL0     H17009   6.129  10.173  10.207 -0.0600  2.3825 -0.8850
  848MOL0     H17010   5.920  10.421   9.953  2.1335  1.8026  0.2270
  848MOL0     H17011   5.749  10.494   9.822  2.0010  0.1149  2.1209
  848MOL0     H17012   5.796  10.621   9.404 -2.2507  1.0605  0.5705
  848MOL0     H17013   5.809  10.449   9.366 -0.3616  2.6309 -3.3264
  848MOL0     H17014   5.606  10.534   9.262 -1.9236  3.6049  0.6189
  848MOL0     H17015   5.561  10.612   9.403 -0.0525 -0.5549  0.1953
  848MOL0     H17016   5.604  10.305   9.422 -0.3269 -0.9721  2.6211
  848MOL0     H17017   5.506  10.417   9.522  0.5952  3.9834 -0.2706
  848MOL0     H17018   5.437  10.316   9.236 -1.4936 -2.4651  0.8706
  848MOL0     H17019   5.344  10.437   9.330 -0.5765 -0.9622 -0.3366
  848MOL0     H17020   5.232  10.045   9.472 -3.4117  0.1894 -1.2000
  848MOL0     H17021   5.990  10.393   9.470 -1.7037 -1.5864 -0.4677
  848MOL0     H17022   6.214  10.310   9.510  0.6049  1.6999  0.7961
  848MOL0     H17023   6.295  10.340   9.669  1.1626 -1.4196 -1.1608
  848MOL0     H17024   6.219  10.191   9.651 -0.0738  0.0550  2.0720
  849MOL0     O17025   8.040   2.474   0.176 -0.0106  0.2018  0.1154
  849MOL0     C17026   8.036   2.593   0.141 -0.4689 -0.4976 -0.0743
  849MOL0     O17027   8.129   2.689   0.182 -0.7524  0.1726  0.7173
  849MOL0     C17028   8.227   2.648   0.268 -0.0214 -0.7370 -0.0519
  849MOL0     C17029   8.355   2.637   0.220 -0.2848  0.2443  0.0165
  849MOL0     C17030   8.455   2.609   0.310 -0.0104 -0.3039  0.5590
  849MOL0     C17031   8.432   2.593   0.448 -0.3627 -0.0131 -0.5195
  849MOL0     O17032   8.531   2.594   0.542  0.1959  0.3758 -0.0410
  849MOL0     C17033   8.674   2.589   0.505  0.8494 -0.1729  0.4262
  849MOL0     C17034   8.756   2.624   0.623 -0.3650  0.3038 -0.3785
  849MOL0     C17035   8.747   2.532   0.741  0.4077  0.6978  0.0339
  849MOL0     C17036   8.817   2.589   0.864 -0.6020 -0.2918 -0.3536
  849MOL0     C17037   8.779   2.519   0.997 -0.9551  0.1356 -0.1598
  849MOL0     C17038   8.864   2.558   1.117  0.0477  0.3974  0.1339
  849MOL0     C17039   9.016   2.528   1.103 -0.8620  0.1789  0.3936
  849MOL0     C17040   9.046   2.383   1.082 -0.0847  0.6003  0.1599
  849MOL0     N17041   9.189   2.353   1.063  1.2236  0.2775  0.4738
  849MOL0     C17042   9.267   2.265   1.139  0.6372  0.2949 -0.2815
  849MOL0     C17043   9.391   2.282   1.106 -1.3133 -0.4890  0.2680
  849MOL0     C17044   9.516   2.218   1.160  0.2265 -0.6791  0.0970
  849MOL0     C17045   9.546   2.261   1.297 -0.4157  0.7673 -0.3870
  849MOL0     C17046   9.566   2.408   1.320 -0.1377 -0.7562  0.2789
  849MOL0     C17047   9.618   2.444   1.457 -0.3871 -0.2644 -0.0920
  849MOL0     O17048   9.652   2.582   1.454 -0.4056  0.3803 -0.2093
  849MOL0     C17049   9.785   2.616   1.470  0.0688  0.6217 -0.8523
  849MOL0     C17050   9.792   2.740   1.537 -0.3856  0.9063  0.8569
  849MOL0     C17051   9.918   2.786   1.582  0.4533 -0.4248  0.2907
  849MOL0     C17052   9.927   2.921   1.653 -0.1740  0.0186 -0.7691
  849MOL0     C17053  10.035   2.708   1.565 -0.7212  0.1984  0.1920
  849MOL0     C17054  10.160   2.752   1.611  0.1526  0.2229 -0.1108
  849MOL0     O17055  10.187   2.882   1.609  0.3059  0.4456 -0.0111
  849MOL0     C17056  10.315   2.923   1.636  0.6240  0.0942 -0.5492
  849MOL0     C17057  10.410   2.942   1.536  0.3195 -0.4609  0.5172
  849MOL0     C17058  10.539   2.984   1.566 -0.4597  0.2695 -0.5643
  849MOL0     C17059  10.566   3.004   1.701 -0.5999 -0.2485 -0.5135
  849MOL0     O17060  10.684   3.048   1.740  0.1658 -0.9220 -0.4764
  849MOL0     C17061  10.779   3.111   1.645 -0.0946  0.0240 -0.9682
  849MOL0     C17062  10.902   3.158   1.732  0.2313 -0.3259  0.1246
  849MOL0     C17063  11.009   3.199   1.640  0.2783  0.0425  0.6119
  849MOL0     C17064  11.134   3.218   1.717 -0.3359 -0.5978  0.6491
  849MOL0     C17065  11.253   3.243   1.627  0.6745 -1.0268  0.5472
  849MOL0     C17066  11.242   3.376   1.558 -0.0763  0.2915  0.0006
  849MOL0     C17067  11.371   3.400   1.482  0.3181  0.4122 -0.2059
  849MOL0     C17068  11.393   3.533   1.417 -0.4845 -0.0092 -0.0500
  849MOL0    Cl17069  11.548   3.554   1.343 -0.1227  0.0596  0.0973
  849MOL0     C17070  10.473   2.987   1.804  0.6308  0.2595 -0.3223
  849MOL0     C17071  10.335   2.958   1.766  0.2426  0.5406 -0.3966
  849MOL0     O17072  10.243   2.665   1.645  0.1729 -0.3884  0.1100
  849MOL0     C17073  10.022   2.577   1.512 -0.0934 -0.5496  0.3773
  849MOL0     C17074   9.899   2.535   1.455 -0.2234 -0.7648 -0.0734
  849MOL0     N17075   9.388   2.365   0.994  0.4613 -0.4043  0.5933
  849MOL0     N17076   9.265   2.403   0.968 -0.5747  0.3855 -0.3449
  849MOL0     C17077   8.302   2.601   0.487 -0.1461  0.7661  0.0985
  849MOL0     C17078   8.197   2.627   0.399  0.3561 -0.0542  0.3073
  849MOL0     C17079   7.936   2.642   0.046  1.3446  0.3094  0.5613
  849MOL0     C17080   7.958   2.759  -0.022  0.3522 -0.0896  0.9584
  849MOL0     C17081   7.873   2.806  -0.125  0.6825 -0.6803 -0.0567
  849MOL0     C17082   7.759   2.735  -0.170 -1.0732  0.2204  0.7687
  849MOL0     O17083   7.685   2.788  -0.268 -0.6289 -0.1087  0.1665
  849MOL0     C17084   7.554   2.729  -0.297  0.2290 -0.1874 -0.0290
  849MOL0     C17085   7.555   2.610  -0.389 -0.0203 -0.7178 -0.3670
  849MOL0     C17086   7.421   2.594  -0.472  0.7064  0.1757  0.1311
  849MOL0     C17087   7.442   2.471  -0.567 -0.1868 -0.5500  0.2082
  849MOL0     C17088   7.507   2.525  -0.679  0.1793  0.8959 -0.2471
  849MOL0     C17089   7.569   2.567  -0.773  1.0986  0.3658  0.3803
  849MOL0     C17090   7.738   2.616  -0.095  0.6374  0.2019 -1.0299
  849MOL0     C17091   7.821   2.569   0.007  0.1303 -0.2013 -0.3539
  849MOL0     C17092   7.772   2.444   0.072  0.4173  0.1223  0.4117
  849MOL0     H17093   8.367   2.667   0.116 -1.8343  2.9931  0.5149
  849MOL0     H17094   8.555   2.601   0.268 -0.9668  3.7509 -3.1776
  849MOL0     H17095   8.692   2.656   0.420  1.2475 -1.4682 -0.5433
  849MOL0     H17096   8.696   2.492   0.460  2.6948  0.7528 -0.7587
  849MOL0     H17097   8.864   2.630   0.606 -0.5871  1.8076 -1.3818
  849MOL0     H17098   8.724   2.725   0.650  0.8941  0.7281 -0.3718
  849MOL0     H17099   8.642   2.509   0.759 -0.3260 -1.2108 -4.9577
  849MOL0     H17100   8.793   2.437   0.711  2.7236  1.8869 -0.4250
  849MOL0     H17101   8.920   2.576   0.828 -0.1589  1.2082  0.2817
  849MOL0     H17102   8.797   2.696   0.877 -2.5490 -0.8817  2.1651
  849MOL0     H17103   8.790   2.410   0.988  0.7671  0.1145  1.4705
  849MOL0     H17104   8.675   2.546   1.014 -1.0174  1.5480 -2.4667
  849MOL0     H17105   8.871   2.666   1.129  0.1870  0.4752 -0.6128
  849MOL0     H17106   8.814   2.519   1.206 -1.2327  1.1662 -0.2227
  849MOL0     H17107   9.065   2.563   1.195 -0.0002 -0.6330  0.2621
  849MOL0     H17108   9.059   2.585   1.021  2.0509 -1.9471  0.2573
  849MOL0     H17109   9.013   2.322   1.166  1.4725 -0.4760  0.0400
  849MOL0     H17110   8.989   2.346   0.997 -0.2956  1.9725 -0.3299
  849MOL0     H17111   9.231   2.191   1.210  0.0443  0.9072  0.0649
  849MOL0     H17112   9.601   2.236   1.092 -1.0937 -0.4935 -1.5866
  849MOL0     H17113   9.503   2.110   1.170  0.2252 -0.6733  0.1596
  849MOL0     H17114   9.465   2.226   1.362 -0.5820  0.5472 -0.7118
  849MOL0     H17115   9.636   2.203   1.320 -0.5148  0.7482 -0.0234
  849MOL0     H17116   9.631   2.446   1.241 -0.3843 -3.2554 -1.2234
  849MOL0     H17117   9.469   2.459   1.308 -0.2042 -0.9745 -0.1370
  849MOL0     H17118   9.534   2.433   1.527  1.0035  2.0845  2.0725
  849MOL0     H17119   9.703   2.384   1.491 -0.6712 -0.0843  0.9661
  849MOL0     H17120   9.696   2.790   1.540 -1.2251 -0.3311 -1.9474
  849MOL0     H17121   9.984   2.899   1.744 -2.1957 -2.0135  0.0869
  849MOL0     H17122   9.824   2.949   1.678  0.1712  1.9133 -1.3045
  849MOL0     H17123   9.981   2.993   1.591  2.1196 -1.0809 -0.1553
  849MOL0     H17124  10.375   2.923   1.434 -0.5372 -2.8351  1.1778
  849MOL0     H17125  10.596   2.991   1.474 -2.4776 -0.7241 -1.9513
  849MOL0     H17126  10.805   3.029   1.577 -0.1058 -1.3579  0.6347
  849MOL0     H17127  10.731   3.193   1.591  1.2032  1.1499 -0.4539
  849MOL0     H17128  10.875   3.233   1.807  1.0771  1.5795 -1.4067
  849MOL0     H17129  10.928   3.065   1.785 -0.7686 -1.2128 -0.8889
  849MOL0     H17130  10.971   3.283   1.582 -1.6845  1.5615  3.7791
  849MOL0     H17131  11.027   3.118   1.569 -0.1332  0.5316 -0.0617
  849MOL0     H17132  11.162   3.135   1.782  0.0215 -0.3013  0.8801
  849MOL0     H17133  11.127   3.306   1.782  1.6936  0.9879 -1.1350
  849MOL0     H17134  11.346   3.246   1.685  1.6987  1.0176 -1.0379
  849MOL0     H17135  11.258   3.162   1.555 -1.1384 -0.1932 -0.5788
  849MOL0     H17136  11.215   3.455   1.629  0.2073  0.3791  0.0108
  849MOL0     H17137  11.168   3.365   1.478 -1.7610  0.0266  1.5163
  849MOL0     H17138  11.387   3.318   1.411  0.9139  0.0953  0.2843
  849MOL0     H17139  11.453   3.381   1.553 -0.2394 -3.5097 -0.3610
  849MOL0     H17140  11.393   3.606   1.498 -3.7273  1.4266 -1.1564
  849MOL0     H17141  11.319   3.562   1.342  0.2240 -0.5178 -0.9680
  849MOL0     H17142  10.503   3.010   1.906  1.3737 -2.0024  0.0279
  849MOL0     H17143  10.257   2.967   1.841  1.8357 -1.8208  1.7304
  849MOL0     H17144  10.102   2.506   1.498  0.1075 -0.7206  2.1519
  849MOL0     H17145   9.899   2.444   1.396 -0.2725 -1.2982  0.7300
  849MOL0     H17146   8.298   2.571   0.591  0.3079 -1.5096 -0.4734
  849MOL0     H17147   8.094   2.612   0.431  0.0914 -1.1412 -0.9449
  849MOL0     H17148   8.050   2.815  -0.010  0.3904  0.6229 -1.8015
  849MOL0     H17149   7.906   2.896  -0.176 -0.7297 -0.3460 -0.4402
  849MOL0     H17150   7.502   2.687  -0.210 -0.0545 -0.9643 -0.5572
  849MOL0     H17151   7.491   2.805  -0.343 -2.8833 -1.5188  1.6804
  849MOL0     H17152   7.585   2.521  -0.332  3.4176  0.0611 -0.7751
  849MOL0     H17153   7.630   2.627  -0.467 -2.2715 -1.3303 -2.7993
  849MOL0     H17154   7.332   2.560  -0.418  0.3808 -1.6786 -1.4751
  849MOL0     H17155   7.384   2.684  -0.521 -1.3163 -0.1471  0.9293
  849MOL0     H17156   7.341   2.437  -0.594 -0.5609 -0.1329  1.0256
  849MOL0     H17157   7.503   2.392  -0.521  0.3513  0.0257  0.4898
  849MOL0     H17158   7.621   2.606  -0.859 -2.4534  2.1109 -1.1769
  849MOL0     H17159   7.648   2.559  -0.116  0.1434  0.5770 -0.0012
  849MOL0     H17160   7.778   2.450   0.181 -0.5787 -0.5540  0.5105
  849MOL0     H17161   7.667   2.419   0.054  0.0225  1.6354  0.4840
  849MOL0     H17162   7.828   2.356   0.038 -0.1068  0.4945 -1.5782
  850MOL0     O17163   2.094   1.433   3.579 -0.4118  0.3359  0.7040
  850MOL0     C17164   2.097   1.450   3.699 -0.0427  0.3170  1.1213
  850MOL0     O17165   2.162   1.548   3.764 -1.2298 -0.0428  0.5165
  850MOL0     C17166   2.247   1.628   3.684 -0.4137  0.3516  0.5347
  850MOL0     C17167   2.384   1.615   3.696  0.2121  0.3211  1.2594
  850MOL0     C17168   2.481   1.677   3.616  0.6997 -0.5497 -0.0188
  850MOL0     C17169   2.429   1.758   3.517 -0.1882 -0.3363 -0.5096
  850MOL0     O17170   2.524   1.814   3.433  0.3804  0.3212  0.5409
  850MOL0     C17171   2.487   1.881   3.312 -0.1950 -0.0974  0.1446
  850MOL0     C17172   2.617   1.915   3.244 -0.6494 -0.5506 -0.1726
  850MOL0     C17173   2.613   1.996   3.119 -0.3672 -0.3821  0.4060
  850MOL0     C17174   2.751   2.018   3.066 -0.1443  0.6909 -0.3308
  850MOL0     C17175   2.748   2.098   2.937  0.0598  0.2574  0.1053
  850MOL0     C17176   2.691   2.243   2.944  0.1696  0.2830 -0.3957
  850MOL0     C17177   2.678   2.314   2.805 -0.4617  0.0206 -0.2989
  850MOL0     C17178   2.804   2.312   2.717  0.3132 -0.1475  0.2442
  850MOL0     N17179   2.773   2.388   2.591 -0.4528 -0.2308  0.4137
  850MOL0     C17180   2.752   2.520   2.583 -0.7696 -0.6813  0.4425
  850MOL0     C17181   2.727   2.539   2.456  0.1399  0.5985  0.0147
  850MOL0     C17182   2.708   2.675   2.389 -0.1953 -0.2881  0.2427
  850MOL0     C17183   2.559   2.692   2.371  0.3083  0.9376  0.4156
  850MOL0     C17184   2.524   2.816   2.292  0.0586 -0.6100 -0.9661
  850MOL0     C17185   2.570   2.945   2.368  0.0447  0.2065  0.3688
  850MOL0     O17186   2.577   3.069   2.297  0.4961  0.5400  0.4797
  850MOL0     C17187   2.656   3.066   2.186  0.3066 -0.5821  0.6324
  850MOL0     C17188   2.772   2.977   2.170 -0.0889 -0.2337 -0.7071
  850MOL0     C17189   2.847   2.978   2.053  0.3621 -0.5334 -0.0512
  850MOL0     C17190   2.935   2.859   2.044 -0.6914  0.1668  0.0509
  850MOL0     C17191   2.836   3.079   1.956  0.1470  0.1513  0.3916
  850MOL0     C17192   2.918   3.076   1.825 -0.1642  0.2797 -0.2107
  850MOL0     O17193   2.923   3.192   1.756  0.0749  0.8928  0.8277
  850MOL0     C17194   3.006   3.217   1.643 -0.7649 -0.2927  0.4760
  850MOL0     C17195   2.976   3.338   1.576  0.5137 -0.2802  0.3487
  850MOL0     C17196   3.048   3.370   1.461  0.2950 -0.3660 -0.2246
  850MOL0     C17197   3.156   3.292   1.413  0.8327 -0.2759  0.1809
  850MOL0     O17198   3.225   3.344   1.304 -0.6836 -0.5777  0.0773
  850MOL0     C17199   3.269   3.249   1.217  0.3078 -0.4464  0.3367
  850MOL0     C17200   3.257   3.316   1.079  0.4450  0.2617  0.6633
  850MOL0     C17201   3.287   3.208   0.970  0.1615  0.5133  0.5332
  850MOL0     C17202   3.432   3.160   0.958 -0.4553  0.1047  0.0124
  850MOL0     C17203   3.522   3.270   0.907 -0.8117  0.1754 -0.7397
  850MOL0     C17204   3.670   3.216   0.903  0.9766  1.0652 -0.2740
  850MOL0     C17205   3.766   3.339   0.893 -0.0044 -0.3964  0.1062
  850MOL0     C17206   3.910   3.300   0.858  0.5205  0.3798  0.4401
  850MOL0    Cl17207   4.000   3.454   0.846  0.6160 -0.3976  0.1713
  850MOL0     C17208   3.182   3.165   1.481  0.1309  0.7137 -0.6052
  850MOL0     C17209   3.105   3.136   1.592  0.2252 -0.0490 -0.3773
  850MOL0     O17210   2.956   2.968   1.781  0.3378 -0.2087  0.1146
  850MOL0     C17211   2.744   3.179   1.984  0.5033  0.1151  0.6168
  850MOL0     C17212   2.648   3.173   2.089 -0.4577 -0.1623 -0.1210
  850MOL0     N17213   2.724   2.415   2.388 -0.3284 -0.2383 -0.7106
  850MOL0     N17214   2.739   2.325   2.472 -0.6992 -0.4678  0.2767
  850MOL0     C17215   2.294   1.793   3.514  0.6007 -0.1384 -0.3117
  850MOL0     C17216   2.202   1.719   3.587  0.9511  0.0483 -0.0336
  850MOL0     C17217   2.012   1.361   3.783 -0.6894 -0.3222  0.6863
  850MOL0     C17218   1.876   1.358   3.755  0.1678 -0.2276  0.4488
  850MOL0     C17219   1.793   1.273   3.828 -0.3257 -0.0625  0.5988
  850MOL0     C17220   1.844   1.179   3.916 -0.0606  0.7532 -0.0544
  850MOL0     O17221   1.749   1.108   3.984  0.1235  0.0368 -0.5885
  850MOL0     C17222   1.757   1.099   4.133 -0.6580  0.3312  0.7310
  850MOL0     C17223   1.744   1.244   4.198 -0.0896  0.1442 -0.5496
  850MOL0     C17224   1.796   1.248   4.346 -0.2310  0.0181  0.4334
  850MOL0     C17225   1.699   1.181   4.445 -0.2795 -0.2146 -0.4137
  850MOL0     C17226   1.725   1.038   4.462 -0.1048 -1.1205 -0.3920
  850MOL0     C17227   1.750   0.926   4.504 -0.1547  0.5381  0.3119
  850MOL0     C17228   1.985   1.165   3.930  0.0615 -0.2548 -0.5345
  850MOL0     C17229   2.068   1.264   3.867  0.6273  0.5364  0.4459
  850MOL0     C17230   2.219   1.256   3.884  0.5743 -0.3044 -0.1206
  850MOL0     H17231   2.424   1.547   3.770  0.6980 -1.5065 -0.5736
  850MOL0     H17232   2.583   1.643   3.628 -0.0389 -2.7064  0.6404
  850MOL0     H17233   2.444   1.978   3.335  0.1828  0.2151 -0.4515
  850MOL0     H17234   2.417   1.825   3.250 -0.2549  0.5909 -0.4078
  850MOL0     H17235   2.692   1.956   3.313 -2.2653  1.1702  0.6329
  850MOL0     H17236   2.659   1.820   3.208  0.6083 -0.4566  0.9527
  850MOL0     H17237   2.549   1.931   3.058 -1.9692  0.7650  0.7779
  850MOL0     H17238   2.570   2.096   3.130  1.8717  0.8460 -1.2671
  850MOL0     H17239   2.812   2.072   3.138  0.4802  1.1882 -1.2067
  850MOL0     H17240   2.812   1.929   3.046  0.4966  1.1159 -0.2940
  850MOL0     H17241   2.694   2.049   2.855  0.8262 -0.4893  0.0172
  850MOL0     H17242   2.853   2.108   2.907 -0.0911  0.3342 -0.4058
  850MOL0     H17243   2.589   2.247   2.983  0.3798  2.7708  0.1089
  850MOL0     H17244   2.764   2.299   3.004 -0.6853  1.9125 -0.8238
  850MOL0     H17245   2.638   2.416   2.807  0.0156  0.2213 -0.6084
  850MOL0     H17246   2.594   2.267   2.753  1.1488 -0.4818 -2.6206
  850MOL0     H17247   2.882   2.362   2.777  0.7979 -0.2236 -0.3082
  850MOL0     H17248   2.828   2.210   2.689 -3.9654 -0.8184 -1.7443
  850MOL0     H17249   2.752   2.598   2.658 -3.1838  1.1107 -1.2854
  850MOL0     H17250   2.763   2.668   2.295 -0.8405  0.5827 -0.2063
  850MOL0     H17251   2.745   2.756   2.452 -0.1414 -0.4763  0.4553
  850MOL0     H17252   2.520   2.610   2.311  0.1060 -0.2962  2.1635
  850MOL0     H17253   2.500   2.684   2.463 -1.2420 -0.2701 -0.6226
  850MOL0     H17254   2.566   2.817   2.191  2.4525 -0.0310 -0.0357
  850MOL0     H17255   2.415   2.820   2.280 -0.5859 -4.6145  1.6591
  850MOL0     H17256   2.508   2.955   2.458 -1.1706  3.1119 -0.6712
  850MOL0     H17257   2.673   2.933   2.402  0.1114  0.3922  0.2367
  850MOL0     H17258   2.795   2.902   2.245 -1.6091 -0.9134 -0.8898
  850MOL0     H17259   3.027   2.862   1.984 -1.4439 -3.9578 -1.6287
  850MOL0     H17260   2.884   2.776   1.996  1.2472 -0.6139 -0.7629
  850MOL0     H17261   2.970   2.811   2.136  1.1527 -1.5518 -1.4557
  850MOL0     H17262   2.898   3.398   1.621 -0.2269 -1.5016  0.7365
  850MOL0     H17263   3.025   3.468   1.421  2.2504  0.2228 -0.0161
  850MOL0     H17264   3.373   3.220   1.236 -0.3703 -1.8105  2.3124
  850MOL0     H17265   3.219   3.152   1.225  1.3597 -0.8780  2.2807
  850MOL0     H17266   3.161   3.357   1.047  0.1598 -0.0937  1.0542
  850MOL0     H17267   3.330   3.397   1.085 -1.4974  2.2337 -0.7185
  850MOL0     H17268   3.263   3.242   0.869 -0.2128  2.3028  1.1877
  850MOL0     H17269   3.215   3.127   0.979  3.2470 -2.6124 -0.4109
  850MOL0     H17270   3.428   3.074   0.892  1.2028 -0.4883  0.6216
  850MOL0     H17271   3.470   3.127   1.055  2.3625  0.0828 -1.0218
  850MOL0     H17272   3.499   3.303   0.805  1.3117  0.1447 -1.2870
  850MOL0     H17273   3.529   3.356   0.974  3.1919  1.2195 -2.1729
  850MOL0     H17274   3.701   3.136   0.835 -0.7376  2.1610 -2.5011
  850MOL0     H17275   3.690   3.174   1.002 -0.5009  0.7111 -0.1097
  850MOL0     H17276   3.776   3.399   0.984  1.8859  1.0505 -0.9748
  850MOL0     H17277   3.727   3.403   0.814  0.3319  1.1145  1.1227
  850MOL0     H17278   3.935   3.243   0.768 -0.6161  2.2361 -1.1222
  850MOL0     H17279   3.952   3.251   0.947 -4.3046  0.5835  3.2032
  850MOL0     H17280   3.257   3.093   1.447 -1.7109 -2.6709  1.9780
  850MOL0     H17281   3.128   3.045   1.646 -2.8929 -0.2085  0.8913
  850MOL0     H17282   2.725   3.258   1.912  1.8481  0.8077  0.9950
  850MOL0     H17283   2.562   3.238   2.085 -0.4259 -0.0812  0.4367
  850MOL0     H17284   2.254   1.857   3.436 -0.1555 -0.9560 -0.6060
  850MOL0     H17285   2.099   1.744   3.566  1.1714  3.6361  2.3343
  850MOL0     H17286   1.830   1.416   3.676  0.9396  0.8088  0.7400
  850MOL0     H17287   1.686   1.264   3.815 -0.3618 -0.3444  1.0894
  850MOL0     H17288   1.684   1.027   4.174  2.0378 -1.5374  2.5920
  850MOL0     H17289   1.846   1.049   4.171 -0.6419 -0.3929 -0.2284
  850MOL0     H17290   1.637   1.268   4.195 -0.0247  0.3764 -1.3393
  850MOL0     H17291   1.782   1.328   4.139 -5.2546  1.3966 -2.6495
  850MOL0     H17292   1.891   1.196   4.353 -0.3893 -0.2490  0.6309
  850MOL0     H17293   1.803   1.352   4.382 -1.8695 -0.0873  1.1778
  850MOL0     H17294   1.598   1.207   4.412 -0.3921 -0.4566 -0.2603
  850MOL0     H17295   1.702   1.219   4.547 -1.2751 -0.2472 -0.3588
  850MOL0     H17296   1.768   0.830   4.547 -3.8205 -0.4108  0.0614
  850MOL0     H17297   2.017   1.086   3.997  0.9273  0.9091  0.4562
  850MOL0     H17298   2.249   1.165   3.937  3.1701 -1.7133 -3.6254
  850MOL0     H17299   2.258   1.243   3.783 -0.8995  0.3939 -0.7957
  850MOL0     H17300   2.252   1.342   3.944  0.2852 -0.3044  0.0388
  851MOL0     O17301   1.601   8.845  10.733 -0.4827 -0.9658  0.1230
  851MOL0     C17302   1.563   8.967  10.736 -0.2270  1.0226  0.7948
  851MOL0     O17303   1.584   9.050  10.633 -0.0251 -0.0392 -0.4543
  851MOL0     C17304   1.651   9.008  10.522 -0.1465  0.1793  0.6038
  851MOL0     C17305   1.785   9.047  10.499 -0.1846 -0.3896 -0.8088
  851MOL0     C17306   1.851   8.997  10.379 -0.2126 -0.2664  0.5102
  851MOL0     C17307   1.783   8.916  10.283 -0.2725 -0.1208 -0.0952
  851MOL0     O17308   1.843   8.868  10.159 -0.4741  0.3221 -0.1774
  851MOL0     C17309   1.962   8.939  10.117  0.1497  0.0975  0.1261
  851MOL0     C17310   2.089   8.867  10.171  0.6078 -0.0091 -0.9293
  851MOL0     C17311   2.219   8.938  10.128  0.6237 -0.5438  0.7326
  851MOL0     C17312   2.336   8.853  10.154  0.7214  0.3327  0.0521
  851MOL0     C17313   2.471   8.914  10.100 -0.2335  0.2069  0.0799
  851MOL0     C17314   2.601   8.839  10.124 -0.5434 -1.1694  1.3011
  851MOL0     C17315   2.721   8.932  10.072  1.4497  0.5128  0.6987
  851MOL0     C17316   2.844   8.845  10.058 -0.2060  0.0913 -0.4682
  851MOL0     N17317   2.884   8.774  10.180 -0.0354  0.6702  0.3204
  851MOL0     C17318   2.912   8.843  10.295  0.4416 -0.2710 -0.2178
  851MOL0     C17319   2.950   8.753  10.386  0.2400  0.9483  0.5654
  851MOL0     C17320   2.970   8.780  10.535  0.3635 -0.7080 -0.0909
  851MOL0     C17321   2.851   8.752  10.625  0.6631  0.4119 -0.6113
  851MOL0     C17322   2.861   8.806  10.766  0.0309 -0.7790 -0.8895
  851MOL0     C17323   2.988   8.761  10.840 -0.0212  0.2847  0.5452
  851MOL0     O17324   3.015   8.841  10.955  0.1001 -0.2713  0.1389
  851MOL0     C17325   3.131   8.818  11.026 -0.3138 -0.3541  0.3391
  851MOL0     C17326   3.152   8.900  11.137 -0.6434 -0.2000 -0.1249
  851MOL0     C17327   3.251   8.881  11.234  0.2433  0.5644  0.4608
  851MOL0     C17328   3.256   8.967  11.359  0.1969 -0.3287  0.7577
  851MOL0     C17329   3.341   8.768  11.208 -0.1431 -0.5436 -0.0641
  851MOL0     C17330   3.466   8.738  11.286  0.4931  0.1419  0.4092
  851MOL0     O17331   3.533   8.625  11.252  0.0551 -0.8266  0.4263
  851MOL0     C17332   3.653   8.601  11.312 -0.0054  1.1578 -0.2004
  851MOL0     C17333   3.653   8.545  11.441 -0.3456 -0.4682 -1.0440
  851MOL0     C17334   3.772   8.507  11.506  0.9222  0.1290  0.3461
  851MOL0     C17335   3.897   8.530  11.450  0.4241  0.0760  0.4594
  851MOL0     O17336   4.009   8.508  11.528  0.2945  0.1397 -0.0380
  851MOL0     C17337   4.133   8.581  11.506  0.2934  0.1119 -0.5997
  851MOL0     C17338   4.117   8.740  11.506 -0.3059  0.7017 -0.4379
  851MOL0     C17339   4.236   8.818  11.433  1.3921 -0.4649  0.6958
  851MOL0     C17340   4.369   8.815  11.502 -0.2980 -0.6220  0.6864
  851MOL0     C17341   4.486   8.897  11.439 -0.1326 -0.2835 -0.0616
  851MOL0     C17342   4.619   8.881  11.510  0.2175  0.2850  0.0828
  851MOL0     C17343   4.659   8.732  11.520  0.1792  0.3077 -0.0056
  851MOL0     C17344   4.812   8.729  11.526 -0.0277  0.5465  0.3575
  851MOL0    Cl17345   4.859   8.845  11.639  0.1534  0.2024  0.2193
  851MOL0     C17346   3.900   8.577  11.316  0.3752  0.5448  0.9641
  851MOL0     C17347   3.775   8.616  11.249 -0.3666  0.5177  0.5510
  851MOL0     O17348   3.504   8.808  11.381  0.4443  0.4126 -0.2933
  851MOL0     C17349   3.326   8.686  11.094 -0.1620  0.2554 -0.9138
  851MOL0     C17350   3.222   8.708  11.003  0.3875 -1.3495  0.4888
  851MOL0     N17351   2.955   8.629  10.324 -0.1974  0.0971 -0.1905
  851MOL0     N17352   2.915   8.642  10.201 -0.4112  0.0207 -0.2802
  851MOL0     C17353   1.650   8.896  10.309  1.2720  0.1169 -0.2069
  851MOL0     C17354   1.583   8.941  10.425  0.1021  0.6353  0.1773
  851MOL0     C17355   1.506   9.021  10.860  0.1612  0.2947 -0.8704
  851MOL0     C17356   1.528   9.159  10.890  0.9265 -0.0836  0.2570
  851MOL0     C17357   1.495   9.215  11.011  0.7564 -0.9242  0.6551
  851MOL0     C17358   1.422   9.141  11.101 -0.8432 -0.6603 -0.2177
  851MOL0     O17359   1.385   9.205  11.216 -0.2897  0.2021 -0.1163
  851MOL0     C17360   1.331   9.123  11.322 -0.0451 -1.2017 -0.3464
  851MOL0     C17361   1.346   9.213  11.455  0.0088 -0.3946 -0.1838
  851MOL0     C17362   1.482   9.182  11.526  0.3583  1.1601  0.3556
  851MOL0     C17363   1.488   9.052  11.607  0.1112  0.4880  0.2922
  851MOL0     C17364   1.548   9.075  11.737 -0.0801  0.7593  0.0241
  851MOL0     C17365   1.592   9.093  11.847 -0.2948 -0.4964 -1.3035
  851MOL0     C17366   1.380   9.014  11.063 -0.1967  0.3554  0.2869
  851MOL0     C17367   1.421   8.956  10.941 -0.2696 -0.0380 -0.2737
  851MOL0     C17368   1.356   8.822  10.908 -0.1097  0.4676 -0.9008
  851MOL0     H17369   1.839   9.096  10.579 -1.1142 -0.7679  0.0671
  851MOL0     H17370   1.953   9.032  10.368 -0.0410 -1.4233 -2.8579
  851MOL0     H17371   1.966   9.044  10.148 -0.9285  0.6178 -1.4176
  851MOL0     H17372   1.962   8.927  10.009  3.1084  0.6920 -0.0046
  851MOL0     H17373   2.091   8.841  10.277  0.9508 -1.8232 -1.3508
  851MOL0     H17374   2.099   8.769  10.124 -0.5032 -0.1552 -0.8711
  851MOL0     H17375   2.222   8.958  10.021  1.1878  3.7128  1.4024
  851MOL0     H17376   2.233   9.033  10.179  3.0834  0.5682 -1.7967
  851MOL0     H17377   2.348   8.833  10.261  1.5902 -1.1742 -0.2951
  851MOL0     H17378   2.311   8.763  10.097 -1.1314 -1.7584  3.7954
  851MOL0     H17379   2.478   9.018  10.131 -1.7157  0.4471 -0.3000
  851MOL0     H17380   2.464   8.925   9.991  0.3511  1.1876  0.1326
  851MOL0     H17381   2.624   8.810  10.227 -0.9978 -1.5985  1.2883
  851MOL0     H17382   2.592   8.751  10.059  0.4327  2.3510 -4.3385
  851MOL0     H17383   2.737   9.008  10.149  1.9010  1.7243 -0.5607
  851MOL0     H17384   2.702   8.978   9.974  2.4497 -1.7018 -0.6001
  851MOL0     H17385   2.825   8.769   9.981 -1.4938 -0.1203  0.0404
  851MOL0     H17386   2.934   8.893  10.018 -0.0710  0.3021  0.0782
  851MOL0     H17387   2.907   8.951  10.302  1.6870 -0.2918  1.6787
  851MOL0     H17388   2.995   8.884  10.555 -0.8795 -0.3486 -0.2987
  851MOL0     H17389   3.058   8.726  10.571  0.0560  0.0170  1.8260
  851MOL0     H17390   2.759   8.789  10.578 -1.3751 -0.5193  2.3547
  851MOL0     H17391   2.838   8.644  10.632 -0.7143  0.5796 -0.1568
  851MOL0     H17392   2.856   8.914  10.750  0.3931 -0.6375 -0.0943
  851MOL0     H17393   2.777   8.767  10.825 -0.2328  2.4668  1.0893
  851MOL0     H17394   2.971   8.657  10.871  0.4093  0.1617  0.3756
  851MOL0     H17395   3.079   8.764  10.780 -2.1548  0.2689 -2.9270
  851MOL0     H17396   3.074   8.976  11.146 -1.1485 -0.5766 -1.1873
  851MOL0     H17397   3.333   9.043  11.348 -0.6361  0.4106 -0.1103
  851MOL0     H17398   3.264   8.905  11.449 -0.4944 -2.4849 -0.5662
  851MOL0     H17399   3.161   9.021  11.370 -2.0703 -4.0590  1.6168
  851MOL0     H17400   3.561   8.534  11.497  0.4812  0.0817  0.4856
  851MOL0     H17401   3.785   8.458  11.602  2.8370  0.1296  0.1198
  851MOL0     H17402   4.202   8.559  11.587  0.1874 -0.9810 -0.7955
  851MOL0     H17403   4.175   8.542  11.413  3.8233 -1.4122  1.4326
  851MOL0     H17404   4.028   8.773  11.451 -2.0259  3.6988  3.6468
  851MOL0     H17405   4.096   8.777  11.607 -2.2840 -0.5792 -0.3307
  851MOL0     H17406   4.213   8.925  11.431 -1.5366 -1.0152  1.0531
  851MOL0     H17407   4.249   8.788  11.329  0.0405 -0.4132  0.5001
  851MOL0     H17408   4.397   8.710  11.509 -0.4646 -0.6800  0.4908
  851MOL0     H17409   4.352   8.833  11.609 -1.3083  0.9571  0.2897
  851MOL0     H17410   4.493   8.869  11.333 -3.4238 -0.8223 -0.2548
  851MOL0     H17411   4.457   9.003  11.441 -2.5356 -0.8638  2.5664
  851MOL0     H17412   4.613   8.926  11.610 -0.6757  0.2633  0.0453
  851MOL0     H17413   4.689   8.946  11.457  0.0534  1.9525  1.7814
  851MOL0     H17414   4.628   8.683  11.427 -2.9375 -0.2391  1.2099
  851MOL0     H17415   4.609   8.699  11.611  1.7313  1.4938  1.3374
  851MOL0     H17416   4.865   8.763  11.436  0.3021 -0.2168  0.2488
  851MOL0     H17417   4.859   8.635  11.556  2.4567  2.0131  1.3358
  851MOL0     H17418   3.996   8.594  11.269  0.8308 -2.3077  0.7127
  851MOL0     H17419   3.777   8.658  11.149  0.2516 -2.4285 -0.7838
  851MOL0     H17420   3.379   8.597  11.061  1.9798  1.5721 -1.1772
  851MOL0     H17421   3.205   8.647  10.915  1.2525 -0.3046 -0.4261
  851MOL0     H17422   1.597   8.824  10.247  0.2164  1.4227 -0.8911
  851MOL0     H17423   1.483   8.908  10.453  1.0871 -1.3913  1.5613
  851MOL0     H17424   1.590   9.220  10.825  2.4330  0.0632  1.7592
  851MOL0     H17425   1.504   9.322  11.030 -3.1739  0.1160 -2.0961
  851MOL0     H17426   1.225   9.107  11.301 -0.2311  0.6601 -0.9879
  851MOL0     H17427   1.384   9.028  11.327 -0.4366 -1.3480  2.1300
  851MOL0     H17428   1.272   9.187  11.532  0.4942  2.6181  1.4663
  851MOL0     H17429   1.342   9.314  11.414  2.4676  0.8658  2.3267
  851MOL0     H17430   1.553   9.175  11.443 -0.8628  0.9427 -0.7167
  851MOL0     H17431   1.520   9.268  11.580 -0.9283  3.0219 -1.5165
  851MOL0     H17432   1.546   8.979  11.549  0.5918 -0.4844  1.9156
  851MOL0     H17433   1.388   9.010  11.623  0.0695 -0.0664 -1.2462
  851MOL0     H17434   1.639   9.115  11.941 -2.0670 -1.9515  0.0069
  851MOL0     H17435   1.317   8.957  11.132  0.7728 -0.3518  0.6054
  851MOL0     H17436   1.278   8.796  10.981  0.6053  2.9483  0.8866
  851MOL0     H17437   1.318   8.820  10.806  1.4473  0.2514 -1.4915
  851MOL0     H17438   1.431   8.743  10.918 -1.2370 -0.3190  3.7569
  852MOL0     O17439   4.264   3.689   6.117  0.2363 -0.6029 -0.1564
  852MOL0     C17440   4.213   3.615   6.036 -0.3605  0.2031 -0.0543
  852MOL0     O17441   4.277   3.520   5.971 -0.9324  0.0993  0.6126
  852MOL0     C17442   4.412   3.487   5.979  0.3600 -0.2713  0.4156
  852MOL0     C17443   4.507   3.589   5.975 -0.1152 -1.6815  0.3060
  852MOL0     C17444   4.645   3.563   5.979  0.6000 -0.9069  0.6874
  852MOL0     C17445   4.691   3.428   5.991  0.5076 -0.2020  0.0500
  852MOL0     O17446   4.819   3.390   6.016  0.5196  0.0064  0.6160
  852MOL0     C17447   4.922   3.485   6.039  0.4766 -0.4577  0.1090
  852MOL0     C17448   5.054   3.425   5.981 -0.5342 -0.1848 -0.3944
  852MOL0     C17449   5.165   3.511   6.059  0.0136 -0.2649  0.5781
  852MOL0     C17450   5.307   3.466   6.030 -0.1406 -0.1072  0.0075
  852MOL0     C17451   5.404   3.580   6.020 -0.4396  0.0240 -1.6386
  852MOL0     C17452   5.410   3.682   6.134  0.5878  0.6924 -1.4181
  852MOL0     C17453   5.523   3.783   6.109 -0.4216 -0.6636 -0.3650
  852MOL0     C17454   5.660   3.733   6.138  0.4192 -0.2718 -1.1086
  852MOL0     N17455   5.763   3.843   6.124 -0.0375  0.1551  0.1763
  852MOL0     C17456   5.846   3.846   6.017 -0.9024  0.3064  0.4832
  852MOL0     C17457   5.928   3.956   6.043  0.0547  0.6081  0.1576
  852MOL0     C17458   6.035   4.005   5.962  0.2600  0.0112  0.1876
  852MOL0     C17459   6.142   4.094   6.019 -0.4902  0.6069  0.7086
  852MOL0     C17460   6.200   4.045   6.157  0.7051 -0.6005  0.2682
  852MOL0     C17461   6.336   4.099   6.174 -0.5704  0.1267  0.4466
  852MOL0     O17462   6.426   4.017   6.094  0.5178 -0.1442 -0.1441
  852MOL0     C17463   6.562   4.035   6.108  0.4268 -0.2377  0.3078
  852MOL0     C17464   6.623   4.135   6.188  0.3795  0.5946 -0.5790
  852MOL0     C17465   6.759   4.173   6.172 -0.0445 -0.4099 -0.8823
  852MOL0     C17466   6.800   4.303   6.238  0.1548  0.3945 -0.3512
  852MOL0     C17467   6.835   4.094   6.070 -0.1129  0.1835 -0.0700
  852MOL0     C17468   6.984   4.123   6.040  0.4417 -0.1147 -0.6372
  852MOL0     O17469   7.065   4.028   5.975 -0.0342  0.2996 -0.4481
  852MOL0     C17470   7.196   4.071   5.939  0.0570 -0.2854  0.6303
  852MOL0     C17471   7.221   4.114   5.804  0.0884 -0.0302 -0.6907
  852MOL0     C17472   7.338   4.190   5.778  0.4595 -0.0187  0.7384
  852MOL0     C17473   7.431   4.215   5.877  0.8007 -0.4730  0.5945
  852MOL0     O17474   7.547   4.282   5.837  0.1661  0.1483 -0.2722
  852MOL0     C17475   7.566   4.412   5.905 -0.0701  0.3901  0.5011
  852MOL0     C17476   7.695   4.470   5.868 -0.1976  0.2658  0.5714
  852MOL0     C17477   7.800   4.379   5.945  0.5200 -0.3148  0.7545
  852MOL0     C17478   7.944   4.423   5.918  0.0895  0.0190 -0.4729
  852MOL0     C17479   7.987   4.556   5.995 -1.0580  0.6559  0.5985
  852MOL0     C17480   8.143   4.554   6.007 -0.2857 -0.6223 -0.4211
  852MOL0     C17481   8.185   4.701   6.054  0.7825 -0.7101  0.1894
  852MOL0     C17482   8.323   4.759   5.990 -0.1457 -0.2613 -0.3736
  852MOL0    Cl17483   8.279   4.908   5.901 -0.4576 -0.0401 -0.2255
  852MOL0     C17484   7.409   4.158   6.000 -0.8414 -0.3343  0.6537
  852MOL0     C17485   7.288   4.099   6.034  0.9460 -0.0582 -0.4573
  852MOL0     O17486   7.022   4.235   6.083 -0.6792  0.0580 -0.4050
  852MOL0     C17487   6.770   3.996   5.999 -0.0764 -0.2171  0.3989
  852MOL0     C17488   6.642   3.968   6.015 -0.1346 -0.9676 -0.0616
  852MOL0     N17489   5.883   4.011   6.164 -0.5655  0.2039 -0.7991
  852MOL0     N17490   5.786   3.935   6.216 -0.4367 -0.4587 -0.4135
  852MOL0     C17491   4.594   3.331   5.989 -0.3464  0.1454  0.1956
  852MOL0     C17492   4.458   3.360   5.994  0.1684  0.3713  0.8133
  852MOL0     C17493   4.072   3.625   6.012  0.9283 -0.1173 -0.0440
  852MOL0     C17494   3.996   3.710   6.100 -0.1106  1.3679  1.0834
  852MOL0     C17495   3.861   3.722   6.087  0.1327  0.6593 -0.1332
  852MOL0     C17496   3.795   3.654   5.982  0.1205  0.2690  0.2390
  852MOL0     O17497   3.659   3.658   5.989  0.3663 -0.5728  0.1415
  852MOL0     C17498   3.579   3.553   5.929  0.8340 -0.8905  0.1944
  852MOL0     C17499   3.441   3.565   5.988 -0.1035 -0.1865 -0.0667
  852MOL0     C17500   3.349   3.473   5.899 -0.3895 -0.6748  0.1014
  852MOL0     C17501   3.220   3.437   5.967 -0.0712  0.3586  0.0951
  852MOL0     C17502   3.137   3.343   5.892 -0.7460 -0.7494 -0.0233
  852MOL0     C17503   3.071   3.270   5.825 -0.6585 -0.2411  0.2240
  852MOL0     C17504   3.872   3.572   5.894 -1.2548  0.5214  0.4208
  852MOL0     C17505   4.010   3.568   5.897  0.1337 -0.1301 -0.8032
  852MOL0     C17506   4.073   3.500   5.781  0.2568 -0.6076  0.0151
  852MOL0     H17507   4.479   3.691   5.952  2.3190 -0.7555  1.1234
  852MOL0     H17508   4.714   3.643   5.957 -2.6815  1.8897 -0.3954
  852MOL0     H17509   4.932   3.496   6.147  1.0756  0.0922  0.0036
  852MOL0     H17510   4.907   3.586   6.001  1.3642 -1.5005 -3.3767
  852MOL0     H17511   5.064   3.324   6.023  1.6619  0.1771  0.1012
  852MOL0     H17512   5.059   3.418   5.872 -1.3529  1.0157 -0.5249
  852MOL0     H17513   5.148   3.615   6.029 -1.9379 -1.0880 -1.4102
  852MOL0     H17514   5.149   3.499   6.166  1.1829  0.1929  0.8199
  852MOL0     H17515   5.335   3.386   6.100  2.5508  0.9669  0.2790
  852MOL0     H17516   5.321   3.425   5.930  1.4284  1.4430 -0.4566
  852MOL0     H17517   5.379   3.646   5.936 -2.8240  2.5395  0.8395
  852MOL0     H17518   5.501   3.540   5.990  1.9659  3.1363  1.1783
  852MOL0     H17519   5.311   3.727   6.146  0.9987  1.0843  1.0228
  852MOL0     H17520   5.420   3.624   6.227 -1.3789 -0.1284 -1.6606
  852MOL0     H17521   5.495   3.867   6.173  0.0070 -0.1990 -0.7836
  852MOL0     H17522   5.517   3.817   6.005  0.4476 -1.0239 -0.5418
  852MOL0     H17523   5.650   3.710   6.245 -1.3005  1.2917 -0.8734
  852MOL0     H17524   5.684   3.640   6.086 -0.7282 -1.1341 -0.1775
  852MOL0     H17525   5.857   3.775   5.935  0.3162  0.8742  0.1171
  852MOL0     H17526   5.993   4.062   5.878 -0.4086  1.0795  1.2045
  852MOL0     H17527   6.086   3.925   5.908  3.3712  1.8544  0.2057
  852MOL0     H17528   6.224   4.075   5.950 -0.4510 -0.0098  0.9217
  852MOL0     H17529   6.111   4.199   6.028 -0.2554  0.8342 -0.8804
  852MOL0     H17530   6.130   4.083   6.232 -0.3871 -1.2769 -0.3857
  852MOL0     H17531   6.210   3.936   6.162  0.0023 -0.6963 -0.2734
  852MOL0     H17532   6.338   4.202   6.139  2.2389  0.5665  1.6249
  852MOL0     H17533   6.363   4.095   6.280  1.7041 -1.7162 -0.1322
  852MOL0     H17534   6.567   4.199   6.256  0.7025  0.2057  0.0675
  852MOL0     H17535   6.804   4.371   6.152  0.4289 -2.2733 -2.6032
  852MOL0     H17536   6.901   4.286   6.277 -0.6782 -0.0287  1.7473
  852MOL0     H17537   6.736   4.335   6.321  1.3014 -0.2394  0.8152
  852MOL0     H17538   7.156   4.091   5.721  0.0197  2.9591 -1.5685
  852MOL0     H17539   7.355   4.219   5.675 -0.2588 -1.6681  0.1041
  852MOL0     H17540   7.492   4.479   5.861  0.3598  1.0443  0.7529
  852MOL0     H17541   7.548   4.406   6.013 -0.3060 -2.5085  0.3864
  852MOL0     H17542   7.701   4.488   5.760 -2.5001  1.5085  0.5917
  852MOL0     H17543   7.713   4.569   5.911 -2.7152  0.5778  1.0269
  852MOL0     H17544   7.790   4.276   5.908 -0.5540 -0.0935  0.3834
  852MOL0     H17545   7.763   4.366   6.047  0.2291 -1.0879  0.5575
  852MOL0     H17546   7.963   4.436   5.811  0.1597 -2.1336 -0.7542
  852MOL0     H17547   8.011   4.341   5.945 -0.1325 -0.0057  0.0140
  852MOL0     H17548   7.957   4.643   5.936 -3.2265 -0.4213  0.0115
  852MOL0     H17549   7.938   4.555   6.093  1.1635 -2.4031  1.8579
  852MOL0     H17550   8.187   4.553   5.907 -0.8035  3.6255 -0.8598
  852MOL0     H17551   8.176   4.483   6.083  0.7250 -2.1015 -2.1643
  852MOL0     H17552   8.206   4.698   6.161  2.3708 -0.6911 -0.1103
  852MOL0     H17553   8.104   4.771   6.030  0.5456 -0.9762  0.1960
  852MOL0     H17554   8.351   4.679   5.920  1.4365  0.6046 -0.7912
  852MOL0     H17555   8.395   4.777   6.070  1.6526 -1.4019 -1.6505
  852MOL0     H17556   7.488   4.177   6.072 -0.3954 -0.1938  0.1364
  852MOL0     H17557   7.270   4.060   6.133  0.0757 -0.6324 -0.8247
  852MOL0     H17558   6.833   3.935   5.935  0.1606  1.9961 -1.5992
  852MOL0     H17559   6.593   3.888   5.960 -1.1504 -0.9449  0.7752
  852MOL0     H17560   4.613   3.224   5.985  0.0191  0.2279 -0.4071
  852MOL0     H17561   4.381   3.285   6.011 -0.0036  0.3717  0.0771
  852MOL0     H17562   4.038   3.764   6.184  1.0897  3.7866 -0.9295
  852MOL0     H17563   3.811   3.787   6.158 -0.8972 -1.0641  0.8067
  852MOL0     H17564   3.577   3.555   5.820  0.1678 -3.8679  0.0712
  852MOL0     H17565   3.615   3.453   5.952 -1.0471 -1.8476 -0.7667
  852MOL0     H17566   3.419   3.672   5.983  1.5579  0.2413  0.8732
  852MOL0     H17567   3.438   3.529   6.092  0.2705  0.2863  0.1115
  852MOL0     H17568   3.336   3.528   5.805  1.7805  2.5871  1.5335
  852MOL0     H17569   3.404   3.381   5.879 -0.2987 -0.7700  0.7644
  852MOL0     H17570   3.146   3.512   5.998 -1.5233 -2.0888  3.0269
  852MOL0     H17571   3.258   3.381   6.053 -0.9405 -0.1183  0.1737
  852MOL0     H17572   3.008   3.201   5.772  0.8638  0.8956 -3.3731
  852MOL0     H17573   3.820   3.525   5.811 -1.2779  1.1874  0.0456
  852MOL0     H17574   4.125   3.409   5.813  1.9666  0.7611  1.3993
  852MOL0     H17575   3.995   3.477   5.708 -1.2283  2.3544  0.5178
  852MOL0     H17576   4.150   3.567   5.741  0.6643  0.5886  2.5577
  853MOL0     O17577   3.407   1.042   9.774 -0.2391  0.3538  0.6125
  853MOL0     C17578   3.343   1.095   9.862 -0.5419  0.2565  0.7946
  853MOL0     O17579   3.397   1.182   9.947 -0.0937 -0.0414 -0.2160
  853MOL0     C17580   3.527   1.178   9.984 -0.1051 -1.1627 -0.2413
  853MOL0     C17581   3.630   1.238   9.910  0.8948 -0.0383 -0.2572
  853MOL0     C17582   3.760   1.208   9.931 -0.5919  0.6550 -0.3228
  853MOL0     C17583   3.798   1.123  10.034  0.4668 -0.9343 -0.4116
  853MOL0     O17584   3.924   1.092  10.074  0.1129 -0.3963 -0.1140
  853MOL0     C17585   4.034   1.076   9.977  0.5343  0.1241  0.2755
  853MOL0     C17586   4.161   1.016  10.045 -0.3645  0.1708 -0.8388
  853MOL0     C17587   4.272   1.049   9.945 -1.1541  0.4544  0.5521
  853MOL0     C17588   4.404   0.973   9.979  0.3844  0.5718 -0.2093
  853MOL0     C17589   4.508   0.994   9.877  0.6047  0.0142 -0.0112
  853MOL0     C17590   4.640   0.927   9.901 -0.8342 -0.0011  0.1928
  853MOL0     C17591   4.738   1.014   9.984  0.0525  0.2736  1.0837
  853MOL0     C17592   4.712   1.033  10.134 -0.1630  0.6892  0.2909
  853MOL0     N17593   4.722   0.905  10.205 -0.0514 -0.1867  0.2311
  853MOL0     C17594   4.829   0.823  10.196 -0.6369  0.8772  0.4025
  853MOL0     C17595   4.801   0.723  10.278  0.9324  0.5829  0.6341
  853MOL0     C17596   4.893   0.610  10.299 -0.2731  0.8579 -0.9038
  853MOL0     C17597   4.951   0.600  10.440  0.3364  0.2603 -0.4386
  853MOL0     C17598   5.087   0.519  10.459 -0.2677  1.0297 -0.2400
  853MOL0     C17599   5.110   0.466  10.595 -0.3890 -0.2350 -0.5354
  853MOL0     O17600   5.121   0.587  10.674  0.6387  0.0357  0.4043
  853MOL0     C17601   5.246   0.623  10.709 -0.0110  0.2428  0.0172
  853MOL0     C17602   5.358   0.545  10.727  0.1132 -0.0319 -1.0993
  853MOL0     C17603   5.479   0.598  10.775 -0.2236  0.7284  0.0938
  853MOL0     C17604   5.585   0.488  10.814 -0.9284 -0.1950  0.3491
  853MOL0     C17605   5.496   0.740  10.783 -1.2380 -0.0291 -0.3165
  853MOL0     C17606   5.623   0.805  10.808 -0.1285  0.6853  0.4095
  853MOL0     O17607   5.620   0.938  10.839  0.7799 -0.5710  0.1652
  853MOL0     C17608   5.733   0.990  10.893 -0.3640  1.1021  0.0126
  853MOL0     C17609   5.783   1.104  10.827  0.0806  1.0955  0.5049
  853MOL0     C17610   5.895   1.167  10.882 -0.5810 -0.8804 -0.0185
  853MOL0     C17611   5.962   1.118  10.994 -0.1472  0.0909  0.3399
  853MOL0     O17612   6.063   1.197  11.053  0.1737  0.4201 -0.6874
  853MOL0     C17613   6.178   1.119  11.091  0.1360  0.3846 -0.0237
  853MOL0     C17614   6.292   1.211  11.048  1.1877  0.1679  0.1793
  853MOL0     C17615   6.280   1.341  11.117 -0.8516 -0.0279  0.5140
  853MOL0     C17616   6.408   1.424  11.089 -0.6832  0.7527  0.6531
  853MOL0     C17617   6.427   1.536  11.189  0.3375  1.0074  0.8740
  853MOL0     C17618   6.541   1.628  11.140 -0.1329 -0.1530 -0.0518
  853MOL0     C17619   6.558   1.753  11.221  0.1852 -0.8840 -0.4663
  853MOL0     C17620   6.704   1.799  11.227 -0.0310 -0.3132 -0.3505
  853MOL0    Cl17621   6.771   1.817  11.072  0.0101 -0.1206 -0.0337
  853MOL0     C17622   5.903   1.004  11.057 -0.0700 -0.2106  0.6370
  853MOL0     C17623   5.800   0.934  11.001  0.1498 -1.4092 -0.3660
  853MOL0     O17624   5.726   0.737  10.810  0.3114 -0.0339  0.3064
  853MOL0     C17625   5.390   0.822  10.744 -0.6189  0.3548  0.4097
  853MOL0     C17626   5.271   0.757  10.709 -0.2006 -0.0935  0.2069
  853MOL0     N17627   4.679   0.743  10.340 -0.0264  0.1065 -0.6972
  853MOL0     N17628   4.632   0.850  10.291 -0.2285 -0.7458  0.0970
  853MOL0     C17629   3.698   1.075  10.117  0.7351 -0.8746  0.0785
  853MOL0     C17630   3.565   1.101  10.089  0.8697  0.0799 -0.3459
  853MOL0     C17631   3.199   1.086   9.858  0.3532  0.9505 -0.6087
  853MOL0     C17632   3.118   1.189   9.906  0.3272  0.2937 -0.1321
  853MOL0     C17633   2.979   1.182   9.912 -0.3369 -0.1359  0.3106
  853MOL0     C17634   2.912   1.071   9.862  0.0772 -0.1679 -0.3072
  853MOL0     O17635   2.777   1.048   9.872 -0.2516  0.2333  0.1571
  853MOL0     C17636   2.680   1.154   9.887  0.0329  0.1860 -0.1873
  853MOL0     C17637   2.679   1.246   9.763  0.0236 -0.5933 -0.5024
  853MOL0     C17638   2.592   1.364   9.765  0.8201 -0.3881 -1.1708
  853MOL0     C17639   2.671   1.501   9.770  0.0387  0.4966  0.3620
  853MOL0     C17640   2.576   1.605   9.757 -0.1593 -0.2529 -0.4232
  853MOL0     C17641   2.495   1.694   9.767 -0.1096 -0.8573  0.9017
  853MOL0     C17642   2.988   0.966   9.814  0.0080 -0.3431 -0.3504
  853MOL0     C17643   3.131   0.972   9.800 -0.0475  0.0043 -0.4526
  853MOL0     C17644   3.198   0.860   9.730  0.2242 -0.2278  0.6282
  853MOL0     H17645   3.597   1.309   9.834 -0.8317 -0.2237  0.2952
  853MOL0     H17646   3.835   1.258   9.871  1.7977 -2.2686  0.0182
  853MOL0     H17647   4.065   1.176   9.946 -3.9900  1.4144 -0.9792
  853MOL0     H17648   3.996   1.010   9.898 -1.2106 -1.6423  2.4549
  853MOL0     H17649   4.176   1.070  10.139  0.8828 -1.7586  0.1312
  853MOL0     H17650   4.156   0.909  10.067  0.8878  0.5779  1.8182
  853MOL0     H17651   4.237   1.035   9.842  0.1220  0.4071  0.1028
  853MOL0     H17652   4.296   1.154   9.962 -0.9362  0.1877  1.9478
  853MOL0     H17653   4.441   1.002  10.078 -1.2003 -0.2203  0.6539
  853MOL0     H17654   4.373   0.869   9.987  0.5030  0.6420  1.8115
  853MOL0     H17655   4.531   1.101   9.866  0.8962 -0.3005 -5.0122
  853MOL0     H17656   4.463   0.958   9.784 -1.7731  1.7023  0.3847
  853MOL0     H17657   4.626   0.835   9.958  4.4768 -0.3776  1.3947
  853MOL0     H17658   4.682   0.914   9.801 -1.1155 -1.2707  0.2229
  853MOL0     H17659   4.742   1.109   9.931 -3.5232  0.8766  1.6541
  853MOL0     H17660   4.841   0.980   9.974 -0.3406 -0.5971 -0.3521
  853MOL0     H17661   4.786   1.099  10.179  0.0272  0.7912 -0.1725
  853MOL0     H17662   4.613   1.075  10.156 -0.2929  0.0915  0.8903
  853MOL0     H17663   4.907   0.832  10.121  0.2241  0.0160  1.1829
  853MOL0     H17664   4.979   0.614  10.232 -0.0381 -0.4108 -0.6936
  853MOL0     H17665   4.839   0.519  10.270  1.8557 -0.6126 -0.4781
  853MOL0     H17666   4.957   0.705  10.471 -2.9921  0.1786  1.0026
  853MOL0     H17667   4.869   0.555  10.498  0.8667 -0.2045 -0.0417
  853MOL0     H17668   5.074   0.434  10.390 -1.6264 -0.5633  1.8468
  853MOL0     H17669   5.172   0.584  10.438  1.4784 -1.1190 -0.2831
  853MOL0     H17670   5.022   0.411  10.629  0.2887 -0.6945  0.4962
  853MOL0     H17671   5.196   0.400  10.589 -0.9599 -1.1002  0.4880
  853MOL0     H17672   5.352   0.437  10.726  0.4614 -0.0760  0.1725
  853MOL0     H17673   5.682   0.502  10.764 -0.5517 -0.1929  1.0640
  853MOL0     H17674   5.545   0.389  10.792 -1.2562  0.2025 -0.8867
  853MOL0     H17675   5.610   0.487  10.921  0.4981 -0.6096  0.0358
  853MOL0     H17676   5.730   1.154  10.747 -0.4604 -1.8322 -1.1094
  853MOL0     H17677   5.935   1.257  10.838  1.1361 -2.0208 -0.9002
  853MOL0     H17678   6.185   1.093  11.197 -0.4030 -1.4806 -0.4135
  853MOL0     H17679   6.180   1.023  11.039  0.5296 -0.4157  1.4045
  853MOL0     H17680   6.392   1.174  11.074  0.8920 -0.1303  0.8950
  853MOL0     H17681   6.281   1.218  10.939 -1.5036 -1.2734  0.2906
  853MOL0     H17682   6.258   1.319  11.222 -0.5747 -1.6647  0.2556
  853MOL0     H17683   6.191   1.397  11.084  1.1043  2.5126 -0.7829
  853MOL0     H17684   6.405   1.451  10.983  1.0141 -1.4794 -0.0336
  853MOL0     H17685   6.492   1.355  11.098 -2.9394 -2.3429 -0.2526
  853MOL0     H17686   6.330   1.585  11.203 -0.3877  0.2291 -1.1794
  853MOL0     H17687   6.457   1.489  11.284 -3.1674 -2.5833  0.4392
  853MOL0     H17688   6.524   1.663  11.038  0.3619 -2.4028 -0.9842
  853MOL0     H17689   6.635   1.572  11.140  0.5895  1.0098 -1.1150
  853MOL0     H17690   6.530   1.748  11.327  3.0290  0.0528  0.4310
  853MOL0     H17691   6.495   1.830  11.176 -0.3108 -1.0870 -0.1283
  853MOL0     H17692   6.759   1.724  11.285 -1.0741  0.1692  1.3329
  853MOL0     H17693   6.706   1.891  11.286 -0.4225 -0.5754  0.0798
  853MOL0     H17694   5.951   0.964  11.146  0.1584 -0.9483  0.2011
  853MOL0     H17695   5.773   0.844  11.055  2.4690 -1.2352  1.2378
  853MOL0     H17696   5.359   0.925  10.734 -4.4713 -0.7138 -0.2422
  853MOL0     H17697   5.192   0.822  10.672 -0.2257 -1.1099 -1.6119
  853MOL0     H17698   3.714   1.015  10.205 -1.1922 -0.4919  0.7349
  853MOL0     H17699   3.488   1.067  10.158  0.3561 -0.8063 -1.3339
  853MOL0     H17700   3.156   1.276   9.960  1.4997  0.4154 -1.1088
  853MOL0     H17701   2.924   1.268   9.948 -0.1942  0.5907 -1.1258
  853MOL0     H17702   2.584   1.104   9.904  0.4132  0.5850  4.4316
  853MOL0     H17703   2.706   1.213   9.975  1.3233 -2.8407  1.6453
  853MOL0     H17704   2.651   1.179   9.681  0.6012 -2.7989  1.0154
  853MOL0     H17705   2.783   1.275   9.747 -0.5418  1.7631 -0.2829
  853MOL0     H17706   2.522   1.351   9.682 -0.1981 -1.2457 -0.1980
  853MOL0     H17707   2.537   1.366   9.859  1.9552  0.5760 -0.4996
  853MOL0     H17708   2.751   1.502   9.695 -0.4025  0.2410 -0.1181
  853MOL0     H17709   2.718   1.501   9.869 -2.1364 -1.7768  1.4763
  853MOL0     H17710   2.424   1.772   9.786 -1.2340 -2.0319  1.7062
  853MOL0     H17711   2.926   0.883   9.781 -0.2820  0.0713 -0.8667
  853MOL0     H17712   3.262   0.801   9.796  0.6791  2.0070  2.3108
  853MOL0     H17713   3.124   0.791   9.688 -1.7472  2.6926 -1.0844
  853MOL0     H17714   3.248   0.900   9.641  0.8491 -0.2965  0.9426
  854MOL0     O17715   9.558  10.826   0.656  0.5878  0.8615 -0.2985
  854MOL0     C17716   9.538  10.835   0.533 -0.1680 -0.6686  0.4236
  854MOL0     O17717   9.627  10.840   0.439  0.1056  0.8109 -0.4681
  854MOL0     C17718   9.763  10.837   0.456 -0.6274  0.3145 -0.2101
  854MOL0     C17719   9.835  10.827   0.335 -0.2701 -0.0099  0.0538
  854MOL0     C17720   9.971  10.815   0.335 -0.2749  0.8626 -0.6731
  854MOL0     C17721  10.050  10.824   0.455  1.5343 -0.1258 -0.4388
  854MOL0     O17722  10.180  10.833   0.450  0.1742  0.1957 -0.6170
  854MOL0     C17723  10.261  10.724   0.507  0.2209  0.1243  0.1513
  854MOL0     C17724  10.413  10.737   0.483  0.4558  0.3116  0.0963
  854MOL0     C17725  10.477  10.823   0.595  0.3886 -0.1758 -0.4760
  854MOL0     C17726  10.630  10.815   0.578  0.6716 -0.4064 -0.3943
  854MOL0     C17727  10.691  10.890   0.691  0.2334 -0.0594  0.4646
  854MOL0     C17728  10.850  10.911   0.683 -0.3353 -0.0633  0.5696
  854MOL0     C17729  10.925  10.788   0.640 -0.5014  0.8478 -0.2075
  854MOL0     C17730  11.068  10.783   0.687 -0.1914  0.6243 -0.0607
  854MOL0     N17731  11.159  10.873   0.623  0.1566  0.3015 -0.5368
  854MOL0     C17732  11.274  10.931   0.673 -0.1861 -0.3524  0.1035
  854MOL0     C17733  11.316  11.009   0.564 -0.8933  0.7334  0.1109
  854MOL0     C17734  11.427  11.110   0.558  0.4048 -0.6508 -0.1884
  854MOL0     C17735  11.500  11.138   0.685 -0.7038  0.4642 -0.4466
  854MOL0     C17736  11.590  11.262   0.676 -0.4062 -0.1059 -0.3662
  854MOL0     C17737  11.696  11.260   0.783  0.4967 -0.5595  0.6127
  854MOL0     O17738  11.811  11.185   0.722  0.2103  0.4020  0.4154
  854MOL0     C17739  11.929  11.202   0.796  0.5825  0.0578 -0.7860
  854MOL0     C17740  12.043  11.185   0.724 -0.4204  0.4098  0.6327
  854MOL0     C17741  12.172  11.189   0.771  0.5319 -0.5722 -0.4315
  854MOL0     C17742  12.285  11.168   0.672  1.2391 -0.3328 -0.0667
  854MOL0     C17743  12.186  11.222   0.907 -0.0357  0.7520  0.5031
  854MOL0     C17744  12.321  11.225   0.975 -0.0565  0.9411  0.0857
  854MOL0     O17745  12.415  11.145   0.921  0.1671 -0.2665 -0.4187
  854MOL0     C17746  12.541  11.144   0.981  0.7254  0.8472 -0.2654
  854MOL0     C17747  12.610  11.025   0.994 -0.4249  0.4102 -0.6305
  854MOL0     C17748  12.742  11.021   1.052  0.2525  0.1120  0.0311
  854MOL0     C17749  12.809  11.132   1.081  0.6065  0.2373 -0.3991
  854MOL0     O17750  12.942  11.130   1.127  0.5155  0.6866  0.4298
  854MOL0     C17751  12.964  11.128   1.267  0.0621  0.1223  0.5561
  854MOL0     C17752  12.948  10.987   1.332  0.3126 -0.0780  0.1542
  854MOL0     C17753  12.977  10.995   1.484  0.5514 -0.6576 -0.0534
  854MOL0     C17754  12.993  10.860   1.549  1.3580  1.1348  0.8028
  854MOL0     C17755  12.857  10.780   1.538 -1.2559  0.8182  0.4797
  854MOL0     C17756  12.860  10.656   1.622 -0.2742  0.1741  0.2576
  854MOL0     C17757  12.726  10.587   1.629  0.2835 -0.3131  0.0606
  854MOL0     C17758  12.713  10.472   1.727 -0.5149 -0.3196  0.1935
  854MOL0    Cl17759  12.825  10.338   1.680 -0.2621  0.0237  0.1303
  854MOL0     C17760  12.738  11.249   1.080  0.7948  0.1616 -0.8663
  854MOL0     C17761  12.608  11.255   1.033  0.6132 -0.5648  0.6102
  854MOL0     O17762  12.337  11.295   1.075 -0.5286 -0.1052  0.1814
  854MOL0     C17763  12.072  11.252   0.986 -0.7809 -0.0824  0.5611
  854MOL0     C17764  11.943  11.242   0.925 -0.0465 -0.0185  0.3910
  854MOL0     N17765  11.222  10.998   0.464 -0.6025  0.4710 -0.3790
  854MOL0     N17766  11.129  10.923   0.501 -0.4381 -0.1009  0.5561
  854MOL0     C17767   9.977  10.846   0.571  0.1123 -0.2050 -0.2093
  854MOL0     C17768   9.834  10.856   0.572  0.6559  0.2344 -0.2824
  854MOL0     C17769   9.407  10.812   0.482  0.4725  0.1229  0.4817
  854MOL0     C17770   9.395  10.728   0.368  0.6559 -0.0988 -0.1183
  854MOL0     C17771   9.270  10.686   0.334 -0.4503 -0.4843  0.5506
  854MOL0     C17772   9.151  10.745   0.393 -0.7801 -0.5566  0.0565
  854MOL0     O17773   9.024  10.732   0.343  0.0870 -0.5072 -0.0691
  854MOL0     C17774   9.008  10.618   0.266  0.1304 -0.4472  0.0939
  854MOL0     C17775   8.857  10.577   0.259  0.5063 -0.1775 -0.6479
  854MOL0     C17776   8.804  10.521   0.399 -0.1574  0.8010 -0.0959
  854MOL0     C17777   8.897  10.420   0.473  0.0056 -0.2477  0.4877
  854MOL0     C17778   8.836  10.335   0.581  0.7155  0.9720  0.3826
  854MOL0     C17779   8.769  10.279   0.661 -0.4699 -0.3073 -1.1438
  854MOL0     C17780   9.167  10.821   0.507  0.9913 -0.2055  0.0957
  854MOL0     C17781   9.288  10.857   0.553 -0.4955  1.0838 -0.2298
  854MOL0     C17782   9.286  10.972   0.651 -0.1900 -0.1778 -0.5737
  854MOL0     H17783   9.775  10.799   0.250 -0.0426  0.5200 -0.2868
  854MOL0     H17784  10.014  10.799   0.237 -1.7145  1.6273 -1.4550
  854MOL0     H17785  10.229  10.630   0.462  2.0066 -0.5634  0.2389
  854MOL0     H17786  10.249  10.722   0.616 -3.1966 -2.1118 -0.1473
  854MOL0     H17787  10.464  10.640   0.479 -0.7168 -0.3020 -1.6867
  854MOL0     H17788  10.432  10.789   0.389  2.4605 -0.1393  0.2131
  854MOL0     H17789  10.439  10.926   0.592 -0.5417 -0.5128 -0.6897
  854MOL0     H17790  10.457  10.785   0.695  0.2913  1.5870  0.2141
  854MOL0     H17791  10.674  10.715   0.579 -0.7550 -1.1525  3.2655
  854MOL0     H17792  10.650  10.875   0.489 -2.3428  1.6203  0.1457
  854MOL0     H17793  10.677  10.834   0.784 -1.2171 -0.2182  0.1699
  854MOL0     H17794  10.638  10.986   0.693 -0.3804 -0.4003  0.8763
  854MOL0     H17795  10.867  10.989   0.608  0.8255  2.0938  2.9223
  854MOL0     H17796  10.902  10.946   0.773 -0.2674  0.0483  0.4873
  854MOL0     H17797  10.919  10.773   0.531  0.1709  0.7980 -0.2404
  854MOL0     H17798  10.892  10.696   0.688  0.1481 -1.6302 -4.0387
  854MOL0     H17799  11.057  10.802   0.795 -1.1119  1.4999 -0.2901
  854MOL0     H17800  11.107  10.682   0.670  4.5898  1.6478  2.7198
  854MOL0     H17801  11.315  10.929   0.773 -1.6188  1.8037  0.8052
  854MOL0     H17802  11.385  11.202   0.517  0.4172 -1.3667 -1.9274
  854MOL0     H17803  11.501  11.074   0.485  0.8977 -0.1971  0.0848
  854MOL0     H17804  11.425  11.143   0.765 -0.0163  1.3539  0.1565
  854MOL0     H17805  11.570  11.056   0.703 -0.9531  0.2326 -0.5234
  854MOL0     H17806  11.647  11.271   0.583 -1.6275 -0.4610 -1.1794
  854MOL0     H17807  11.529  11.351   0.689  0.5770  0.3395  1.5346
  854MOL0     H17808  11.723  11.363   0.807 -2.5757  0.6552 -0.5798
  854MOL0     H17809  11.649  11.203   0.863 -3.1753  2.6194  0.9969
  854MOL0     H17810  12.034  11.165   0.618 -1.6637  2.1949  0.3544
  854MOL0     H17811  12.243  11.180   0.572 -1.1147 -0.0596  0.8936
  854MOL0     H17812  12.336  11.072   0.663  0.2643 -0.9450  0.6708
  854MOL0     H17813  12.359  11.249   0.670  0.1778  0.6477 -0.5016
  854MOL0     H17814  12.562  10.928   0.986  0.7612 -0.4933  1.8229
  854MOL0     H17815  12.787  10.926   1.078  1.1228  0.4565 -0.1854
  854MOL0     H17816  13.066  11.164   1.279 -0.2552  0.9217  0.8876
  854MOL0     H17817  12.894  11.203   1.305  0.1682  0.9325 -0.7971
  854MOL0     H17818  12.844  10.955   1.321 -0.8320  3.1069  0.7893
  854MOL0     H17819  13.012  10.911   1.284 -1.8685 -0.9214 -1.5631
  854MOL0     H17820  12.894  11.054   1.523  0.3374  0.0101 -1.4468
  854MOL0     H17821  13.067  11.056   1.494  0.4833 -0.1729 -1.9600
  854MOL0     H17822  13.023  10.876   1.653  1.9571  1.0564  0.6472
  854MOL0     H17823  13.074  10.812   1.495  0.4648  1.1514 -0.5959
  854MOL0     H17824  12.776  10.838   1.583 -0.9572  4.5305 -3.0519
  854MOL0     H17825  12.846  10.765   1.430  2.7047 -1.3793  0.1934
  854MOL0     H17826  12.889  10.684   1.723  0.1001  0.1359  0.1647
  854MOL0     H17827  12.931  10.581   1.584 -0.2769 -0.2935  1.1383
  854MOL0     H17828  12.690  10.553   1.531 -0.5798  0.5888  0.0496
  854MOL0     H17829  12.662  10.671   1.658 -1.4240 -0.6298 -2.5140
  854MOL0     H17830  12.612  10.429   1.725 -0.6256 -0.1244  1.1887
  854MOL0     H17831  12.738  10.515   1.824  1.2233 -1.0356  0.0991
  854MOL0     H17832  12.799  11.334   1.112 -0.6867 -0.1740  3.5514
  854MOL0     H17833  12.559  11.352   1.026 -0.8980 -1.3113  0.2758
  854MOL0     H17834  12.070  11.282   1.090 -2.7109  2.0870 -0.0251
  854MOL0     H17835  11.851  11.264   0.979 -0.0425  0.4666  0.2031
  854MOL0     H17836  10.028  10.860   0.666  1.1044  0.1693 -0.7788
  854MOL0     H17837   9.785  10.874   0.668 -0.5267 -2.7340 -0.2304
  854MOL0     H17838   9.475  10.685   0.309 -0.8420 -0.2619 -2.1454
  854MOL0     H17839   9.252  10.632   0.242 -1.5666 -1.1646  1.1336
  854MOL0     H17840   9.056  10.634   0.170  4.2619  1.3523  2.2013
  854MOL0     H17841   9.055  10.527   0.307  1.8154 -0.5059 -1.8414
  854MOL0     H17842   8.848  10.490   0.194 -1.6738 -0.3647 -0.1653
  854MOL0     H17843   8.795  10.658   0.222 -0.9539  0.0250  1.9796
  854MOL0     H17844   8.790  10.604   0.469  2.2707  0.6327  0.6952
  854MOL0     H17845   8.707  10.481   0.371 -0.4690  0.9590  0.7147
  854MOL0     H17846   8.975  10.477   0.523  0.1756 -1.1807  1.3242
  854MOL0     H17847   8.937  10.363   0.389  2.3436  0.7304  0.8642
  854MOL0     H17848   8.715  10.226   0.737  0.3858 -1.9076 -1.6228
  854MOL0     H17849   9.073  10.865   0.541  1.4208  1.9085 -1.2800
  854MOL0     H17850   9.311  10.936   0.751 -1.6076 -0.7995 -0.4156
  854MOL0     H17851   9.369  11.036   0.620  0.1815 -0.6117 -0.4940
  854MOL0     H17852   9.189  11.022   0.658 -0.7927 -0.8900 -2.9372
  855MOL0     O17853   3.887  11.348   6.715  0.0356  0.0017  0.6466
  855MOL0     C17854   3.842  11.288   6.619  0.0962 -0.2074 -0.0597
  855MOL0     O17855   3.899  11.280   6.499 -0.3089  0.4304  0.3496
  855MOL0     C17856   4.030  11.322   6.502 -0.9466 -0.0242 -0.4958
  855MOL0     C17857   4.139  11.229   6.520 -1.0760  0.9693  0.7788
  855MOL0     C17858   4.269  11.260   6.503 -0.1364 -0.1135 -0.1045
  855MOL0     C17859   4.304  11.382   6.456  0.2606 -0.2912 -0.4852
  855MOL0     O17860   4.444  11.397   6.432  0.2033  0.3261  0.1913
  855MOL0     C17861   4.489  11.531   6.401  0.4609 -0.4129 -0.2987
  855MOL0     C17862   4.642  11.523   6.412 -0.6960  0.1689  0.4229
  855MOL0     C17863   4.700  11.499   6.554 -0.2439  0.2983 -0.3478
  855MOL0     C17864   4.685  11.640   6.629 -0.4563  0.7967 -0.2046
  855MOL0     C17865   4.730  11.630   6.776 -0.1239  0.2055  0.4611
  855MOL0     C17866   4.665  11.525   6.866  0.5688 -0.5313  0.2852
  855MOL0     C17867   4.515  11.557   6.885 -0.7287  0.0433 -0.1152
  855MOL0     C17868   4.454  11.472   7.001 -0.7881  0.0310  0.5715
  855MOL0     N17869   4.455  11.325   6.978  0.6158  0.2844  0.3390
  855MOL0     C17870   4.357  11.241   6.939  1.1671 -0.0429 -0.3644
  855MOL0     C17871   4.418  11.118   6.924  0.2622  0.1689  0.4452
  855MOL0     C17872   4.351  10.990   6.883  0.1951  0.5424 -0.2474
  855MOL0     C17873   4.438  10.918   6.776  0.5169 -0.2309 -0.5723
  855MOL0     C17874   4.367  10.804   6.702  0.5609  0.1493  0.3448
  855MOL0     C17875   4.272  10.857   6.592 -0.1082  0.3193 -0.3612
  855MOL0     O17876   4.147  10.893   6.653  0.8554  0.9180 -0.1391
  855MOL0     C17877   4.025  10.861   6.594 -0.1638 -0.0057  0.8571
  855MOL0     C17878   3.907  10.897   6.660  0.3562 -0.1877  0.3340
  855MOL0     C17879   3.779  10.872   6.620  0.8034 -0.0270  0.8240
  855MOL0     C17880   3.675  10.887   6.733 -0.2411 -0.0330  0.4579
  855MOL0     C17881   3.768  10.810   6.484  0.0879 -0.1302  0.3018
  855MOL0     C17882   3.634  10.773   6.420  0.1096 -0.1441 -0.0655
  855MOL0     O17883   3.641  10.719   6.293  0.5682  0.3146  0.8082
  855MOL0     C17884   3.531  10.648   6.246  0.5581  0.0938 -0.1404
  855MOL0     C17885   3.427  10.583   6.317  0.2453 -0.8265  0.5349
  855MOL0     C17886   3.328  10.511   6.253  0.5611 -0.1138 -0.2654
  855MOL0     C17887   3.316  10.520   6.113 -0.2120  0.6764 -0.4929
  855MOL0     O17888   3.209  10.473   6.042  0.1160  0.7348  0.0057
  855MOL0     C17889   3.101  10.429   6.133  0.4318 -0.3018  0.2099
  855MOL0     C17890   2.978  10.404   6.046 -0.2285  0.2520 -0.1272
  855MOL0     C17891   2.855  10.363   6.120 -0.7521 -0.1172 -0.3160
  855MOL0     C17892   2.876  10.229   6.195  1.0455 -0.1020 -0.1382
  855MOL0     C17893   2.764  10.199   6.294  1.4589 -0.8325  0.1429
  855MOL0     C17894   2.643  10.160   6.212  0.9906  0.0745  0.1395
  855MOL0     C17895   2.517  10.149   6.303 -0.1539  0.8060  0.3072
  855MOL0     C17896   2.415  10.040   6.256 -0.9619 -0.4149 -0.9613
  855MOL0    Cl17897   2.353  10.080   6.090  0.0982  0.4462 -0.5858
  855MOL0     C17898   3.413  10.583   6.044  0.8917 -0.1134  0.4750
  855MOL0     C17899   3.522  10.645   6.109  0.3125 -0.2471 -0.6132
  855MOL0     O17900   3.530  10.792   6.486  0.1868  0.4484 -0.1681
  855MOL0     C17901   3.883  10.785   6.419  0.1616  0.4168 -0.6154
  855MOL0     C17902   4.006  10.810   6.473 -1.0172  0.5746 -0.2386
  855MOL0     N17903   4.550  11.132   6.967  0.1478 -0.8687  0.2750
  855MOL0     N17904   4.572  11.256   6.993  1.1356  0.3621 -0.0842
  855MOL0     C17905   4.206  11.482   6.443 -0.0653  0.3955 -0.0161
  855MOL0     C17906   4.064  11.447   6.461 -0.6364 -0.7845 -0.0738
  855MOL0     C17907   3.693  11.242   6.629  0.5706 -0.2343 -0.2326
  855MOL0     C17908   3.638  11.172   6.521  0.4235 -0.4925  0.8586
  855MOL0     C17909   3.504  11.140   6.506  1.6253  0.0740  0.2231
  855MOL0     C17910   3.410  11.202   6.597  0.2219 -0.2385  0.4074
  855MOL0     O17911   3.277  11.183   6.597  0.3792  0.5142  0.1368
  855MOL0     C17912   3.214  11.101   6.493  0.6403  0.2081 -0.3001
  855MOL0     C17913   3.065  11.094   6.514 -0.1425  0.6055 -0.6758
  855MOL0     C17914   3.042  11.020   6.646  0.3011 -0.1409  0.1090
  855MOL0     C17915   2.896  11.029   6.694 -0.6633  0.0190  0.1471
  855MOL0     C17916   2.823  11.154   6.698  1.6338  0.0480 -0.2123
  855MOL0     C17917   2.758  11.260   6.702 -0.0971  0.7554 -0.1640
  855MOL0     C17918   3.463  11.284   6.694  0.1244 -0.8120 -0.0544
  855MOL0     C17919   3.601  11.310   6.717  0.0561  1.3367  0.1376
  855MOL0     C17920   3.629  11.388   6.838 -0.7806 -0.0706  0.4846
  855MOL0     H17921   4.114  11.124   6.525 -0.4937  0.5470 -2.7332
  855MOL0     H17922   4.344  11.182   6.493  2.4715  2.4369 -1.9354
  855MOL0     H17923   4.453  11.598   6.479 -1.0264 -0.3289 -1.0176
  855MOL0     H17924   4.459  11.573   6.305 -2.4007  0.0786  0.7107
  855MOL0     H17925   4.675  11.433   6.358  2.6839  0.7506  1.2688
  855MOL0     H17926   4.678  11.617   6.368 -2.5475  1.1406  0.9198
  855MOL0     H17927   4.652  11.415   6.606 -0.6722 -0.8088 -2.4388
  855MOL0     H17928   4.806  11.475   6.549 -0.4038 -0.4230 -0.4712
  855MOL0     H17929   4.752  11.714   6.585  2.3447 -1.2149  0.4199
  855MOL0     H17930   4.583  11.680   6.623  0.2624  2.4458 -3.4009
  855MOL0     H17931   4.698  11.728   6.811 -0.3630  1.0471 -1.9351
  855MOL0     H17932   4.838  11.614   6.787 -0.0689  0.5062  0.3540
  855MOL0     H17933   4.689  11.424   6.832  0.3065 -1.3880  2.4525
  855MOL0     H17934   4.724  11.550   6.955  2.6655  1.0106 -1.4352
  855MOL0     H17935   4.454  11.551   6.795  1.7291 -3.0956 -1.7431
  855MOL0     H17936   4.516  11.663   6.912 -0.4826  0.1258 -0.4403
  855MOL0     H17937   4.499  11.496   7.098 -1.5564 -0.2332  0.9982
  855MOL0     H17938   4.348  11.498   7.001 -0.9296 -0.4190 -0.9810
  855MOL0     H17939   4.257  11.267   6.904  0.3851 -0.2905  1.5813
  855MOL0     H17940   4.248  11.004   6.849  0.5558  0.6202 -1.3276
  855MOL0     H17941   4.353  10.931   6.975  2.6908  0.0923 -0.5223
  855MOL0     H17942   4.477  10.988   6.701 -0.1908  2.5862  1.4965
  855MOL0     H17943   4.527  10.874   6.821 -0.3254 -2.5310 -0.9979
  855MOL0     H17944   4.445  10.738   6.664 -0.7956 -1.4472  0.2052
  855MOL0     H17945   4.315  10.731   6.765  2.0136 -1.0803  0.1916
  855MOL0     H17946   4.308  10.950   6.548  1.0047  0.6556  1.2123
  855MOL0     H17947   4.271  10.784   6.509  2.8013  2.1109 -2.1224
  855MOL0     H17948   3.923  10.954   6.752  0.3067  0.3507  0.0115
  855MOL0     H17949   3.708  10.868   6.835 -1.0022  0.1076  0.7398
  855MOL0     H17950   3.589  10.821   6.718 -0.6618  0.9048 -1.6756
  855MOL0     H17951   3.642  10.991   6.728  0.2307  0.0883 -0.1940
  855MOL0     H17952   3.432  10.584   6.425  0.2009 -0.6459  0.5352
  855MOL0     H17953   3.253  10.452   6.305 -0.7763  0.6907 -1.1970
  855MOL0     H17954   3.128  10.338   6.189  0.6829  0.6654  1.7304
  855MOL0     H17955   3.081  10.504   6.210  0.9949  0.4772 -0.3828
  855MOL0     H17956   2.950  10.500   6.002  1.4460  1.7015  1.7691
  855MOL0     H17957   2.999  10.327   5.971 -2.4757 -1.2047  0.6615
  855MOL0     H17958   2.771  10.352   6.051 -0.5134 -0.4061 -0.5632
  855MOL0     H17959   2.827  10.440   6.193 -0.9902 -0.9675  0.5134
  855MOL0     H17960   2.961  10.234   6.264  0.4779  0.9560  0.5142
  855MOL0     H17961   2.882  10.150   6.119  1.8566 -0.3692  0.1964
  855MOL0     H17962   2.785  10.124   6.370 -2.4641 -3.6214 -1.2126
  855MOL0     H17963   2.752  10.294   6.348 -2.0800  3.0461 -6.0803
  855MOL0     H17964   2.665  10.062   6.168 -1.9548 -0.6923  0.1810
  855MOL0     H17965   2.622  10.227   6.128  0.4036  0.3998  0.5465
  855MOL0     H17966   2.469  10.248   6.307  0.6653  1.2842 -0.9714
  855MOL0     H17967   2.548  10.106   6.398  2.3544  1.0774 -0.3152
  855MOL0     H17968   2.331  10.045   6.326 -1.2859  1.1759 -1.4241
  855MOL0     H17969   2.470   9.946   6.258  1.8756  1.1207 -1.0200
  855MOL0     H17970   3.405  10.588   5.936  1.1807  1.2721  0.5007
  855MOL0     H17971   3.603  10.695   6.056  1.7940 -1.4361  0.4456
  855MOL0     H17972   3.880  10.731   6.325 -4.1727 -1.1380  0.1610
  855MOL0     H17973   4.096  10.796   6.414 -0.5498 -0.4220  0.6835
  855MOL0     H17974   4.223  11.586   6.417 -0.5705  0.1271 -1.5697
  855MOL0     H17975   3.983  11.517   6.447 -1.1956 -1.8265 -2.6820
  855MOL0     H17976   3.701  11.124   6.446 -2.4405 -3.5320  0.1727
  855MOL0     H17977   3.469  11.071   6.430 -1.7835 -1.1832  2.6484
  855MOL0     H17978   3.235  11.153   6.399  0.9359 -2.0687 -1.5719
  855MOL0     H17979   3.263  11.003   6.499  1.3629  0.1568 -4.2511
  855MOL0     H17980   3.013  11.046   6.430 -1.0696  0.8345 -0.2445
  855MOL0     H17981   3.020  11.193   6.516 -0.8106  0.2987  0.1918
  855MOL0     H17982   3.077  10.918   6.627 -2.6673 -0.8005 -2.5753
  855MOL0     H17983   3.104  11.061   6.727 -1.2208 -0.5172  1.5098
  855MOL0     H17984   2.893  10.987   6.795  1.7821  0.2851  0.3863
  855MOL0     H17985   2.839  10.963   6.629 -1.1349  2.8140 -2.4876
  855MOL0     H17986   2.704  11.352   6.697  1.0738  1.4824  0.1984
  855MOL0     H17987   3.392  11.332   6.761 -0.1243 -2.2166  0.7347
  855MOL0     H17988   3.538  11.403   6.897 -0.5881  1.1726  0.5009
  855MOL0     H17989   3.698  11.337   6.906 -1.5432 -3.4982 -1.0898
  855MOL0     H17990   3.659  11.489   6.808 -0.2712 -0.8707 -1.9172
  856MOL0     O17991   5.890   5.448   0.117 -0.0732  0.0476 -0.3551
  856MOL0     C17992   5.791   5.511   0.157  0.2699  0.1959 -0.3023
  856MOL0     O17993   5.796   5.644   0.205 -0.0038 -0.2669  0.4097
  856MOL0     C17994   5.883   5.729   0.151  0.4079 -0.2413 -0.2475
  856MOL0     C17995   5.903   5.740   0.014 -0.2496  0.0453 -0.5423
  856MOL0     C17996   5.986   5.830  -0.041  0.2506  0.2760  0.7237
  856MOL0     C17997   6.038   5.929   0.042  0.1800 -0.7131  0.3933
  856MOL0     O17998   6.121   6.018  -0.013  0.0354 -0.6983 -0.1734
  856MOL0     C17999   6.241   6.056   0.052 -0.5418  0.0746  0.0176
  856MOL0     C18000   6.329   6.123  -0.054  0.2504  0.9266 -0.0340
  856MOL0     C18001   6.468   6.149   0.004  0.7221  0.0968  0.0869
  856MOL0     C18002   6.546   6.249  -0.086 -0.1892 -0.2910  0.1498
  856MOL0     C18003   6.693   6.270  -0.032  0.1509 -0.0513  0.0465
  856MOL0     C18004   6.783   6.147  -0.054 -0.9091  0.8304 -0.7799
  856MOL0     C18005   6.926   6.185  -0.022 -0.1866 -0.0228  0.1737
  856MOL0     C18006   7.016   6.068   0.009 -0.0541 -0.3805  0.6589
  856MOL0     N18007   7.060   5.993  -0.107 -0.0648  0.5629  0.4553
  856MOL0     C18008   6.989   5.885  -0.156  0.2016  0.1753  0.4510
  856MOL0     C18009   7.047   5.859  -0.278  0.8883 -0.3296 -0.6110
  856MOL0     C18010   7.020   5.749  -0.375  0.5126  0.2732 -0.4764
  856MOL0     C18011   6.924   5.791  -0.488  0.7354  0.1230 -0.0144
  856MOL0     C18012   6.895   5.688  -0.601 -0.0747  0.7951  0.4223
  856MOL0     C18013   6.785   5.736  -0.700  0.2884 -0.7258  0.4767
  856MOL0     O18014   6.677   5.762  -0.615 -0.3264 -0.0216  0.4057
  856MOL0     C18015   6.556   5.801  -0.666  0.9649  0.4046 -0.3591
  856MOL0     C18016   6.442   5.774  -0.592  0.0557  0.1025 -0.0525
  856MOL0     C18017   6.320   5.818  -0.632  0.0949  1.2240 -0.3577
  856MOL0     C18018   6.203   5.795  -0.535 -0.8328  0.1717  0.0117
  856MOL0     C18019   6.311   5.880  -0.759 -0.4063  0.7604  0.1064
  856MOL0     C18020   6.185   5.934  -0.812 -0.3615  0.1182  0.5555
  856MOL0     O18021   6.079   5.844  -0.803  0.5721 -0.3283 -0.2516
  856MOL0     C18022   5.963   5.881  -0.862 -0.1855  0.4335  0.1660
  856MOL0     C18023   5.879   5.982  -0.806  0.2917  0.0585  0.3314
  856MOL0     C18024   5.770   6.018  -0.883  0.6248 -0.0085  0.5217
  856MOL0     C18025   5.734   5.950  -0.998  0.7211 -0.0181  0.3993
  856MOL0     O18026   5.622   5.995  -1.064  0.1508 -0.5023  0.7418
  856MOL0     C18027   5.562   5.928  -1.175  0.6049 -0.0394  0.8761
  856MOL0     C18028   5.432   5.997  -1.218  0.5487 -0.0058  0.0276
  856MOL0     C18029   5.324   5.981  -1.107 -0.1387 -0.2464  0.8065
  856MOL0     C18030   5.183   5.995  -1.162 -0.3515  0.6133  0.8834
  856MOL0     C18031   5.089   5.996  -1.041 -0.3008 -0.1976 -1.1825
  856MOL0     C18032   4.940   6.002  -1.083  0.1791  0.0837  0.8031
  856MOL0     C18033   4.860   6.005  -0.957 -0.0543 -0.4622  0.3314
  856MOL0     C18034   4.713   5.998  -0.982 -0.3595  0.7822  1.2970
  856MOL0    Cl18035   4.658   5.845  -1.046  0.4010 -0.1059  0.0167
  856MOL0     C18036   5.816   5.852  -1.044 -0.4078 -0.1769  0.1029
  856MOL0     C18037   5.929   5.818  -0.977 -0.5525 -0.5290 -0.0213
  856MOL0     O18038   6.192   6.044  -0.863  0.4339  0.9583 -0.0942
  856MOL0     C18039   6.428   5.900  -0.830  0.4565 -0.8968 -0.2443
  856MOL0     C18040   6.550   5.862  -0.792  0.1390  0.5881  0.4443
  856MOL0     N18041   7.154   5.945  -0.285 -0.4060  0.2258  0.2176
  856MOL0     N18042   7.163   6.027  -0.185 -0.5973 -0.1844  0.1597
  856MOL0     C18043   6.012   5.932   0.180  0.5459 -0.6480  0.2593
  856MOL0     C18044   5.938   5.834   0.229 -0.0400  0.4287  0.2304
  856MOL0     C18045   5.658   5.448   0.187 -0.8723 -1.0175 -0.0697
  856MOL0     C18046   5.562   5.528   0.253 -0.5062 -0.2862 -0.2860
  856MOL0     C18047   5.431   5.477   0.284  0.4514  0.4195 -0.5619
  856MOL0     C18048   5.397   5.346   0.251 -0.2705  0.8374  0.1259
  856MOL0     O18049   5.277   5.288   0.274 -0.2218 -0.1754  0.2402
  856MOL0     C18050   5.169   5.354   0.337 -0.3209 -1.1604  0.6133
  856MOL0     C18051   5.055   5.256   0.357  0.0189  0.4331  0.6788
  856MOL0     C18052   4.935   5.320   0.421 -0.3538 -0.6913 -0.4847
  856MOL0     C18053   4.848   5.214   0.493 -0.1451 -0.0968  0.2087
  856MOL0     C18054   4.730   5.276   0.541  0.3691 -0.1126  0.2643
  856MOL0     C18055   4.625   5.323   0.583  0.9846  0.1923  0.4670
  856MOL0     C18056   5.495   5.266   0.194  0.4509 -0.1097  0.4178
  856MOL0     C18057   5.616   5.318   0.152  0.3452 -0.5718  0.1458
  856MOL0     C18058   5.713   5.226   0.070 -0.3250 -0.0407 -0.6589
  856MOL0     H18059   5.853   5.670  -0.053  1.9809  0.9596 -3.3366
  856MOL0     H18060   6.020   5.825  -0.144 -0.5870 -2.6887  0.5046
  856MOL0     H18061   6.289   5.963   0.086 -2.8005 -1.2111 -0.1184
  856MOL0     H18062   6.225   6.120   0.140  0.0349  0.9166 -0.4812
  856MOL0     H18063   6.335   6.035  -0.120  1.3430  0.1546  1.0637
  856MOL0     H18064   6.283   6.211  -0.101 -1.4551 -0.2478 -0.6768
  856MOL0     H18065   6.461   6.201   0.099  1.6317 -0.9990  0.7826
  856MOL0     H18066   6.514   6.052   0.026  0.2577 -0.0267  0.5249
  856MOL0     H18067   6.550   6.204  -0.186  2.0772 -0.0131  0.0580
  856MOL0     H18068   6.500   6.348  -0.094 -1.4677 -0.6195  2.4014
  856MOL0     H18069   6.695   6.294   0.075  0.9697  0.0416  0.0114
  856MOL0     H18070   6.727   6.348  -0.100 -1.3945  0.3964 -0.2435
  856MOL0     H18071   6.756   6.075   0.024  2.3626 -0.2536 -0.5233
  856MOL0     H18072   6.769   6.109  -0.155 -2.1913 -0.1456 -0.2704
  856MOL0     H18073   6.920   6.243   0.071 -0.5029  2.8933 -1.5197
  856MOL0     H18074   6.971   6.248  -0.100 -0.3685  2.0160  1.6258
  856MOL0     H18075   7.099   6.115   0.062 -0.9384  2.0073  0.0720
  856MOL0     H18076   6.963   5.996   0.071 -3.4366  0.7708 -0.6739
  856MOL0     H18077   6.895   5.842  -0.122 -1.4885  3.3050  0.0941
  856MOL0     H18078   6.986   5.658  -0.324  1.9537  0.6233  1.2351
  856MOL0     H18079   7.109   5.703  -0.420 -0.1894 -1.2947 -0.3446
  856MOL0     H18080   6.831   5.815  -0.437  1.7508 -0.1158  2.0461
  856MOL0     H18081   6.963   5.883  -0.533  1.6259 -0.4425 -0.4276
  856MOL0     H18082   6.989   5.671  -0.653  0.9228  2.8128  1.4505
  856MOL0     H18083   6.867   5.589  -0.563  0.1426 -0.2151 -1.8680
  856MOL0     H18084   6.818   5.831  -0.742  1.5885  0.2613  3.4288
  856MOL0     H18085   6.764   5.655  -0.771  0.8217  1.5672 -2.4822
  856MOL0     H18086   6.463   5.738  -0.491  0.1907  1.8957  0.5979
  856MOL0     H18087   6.131   5.729  -0.584 -2.8741 -0.5775  3.6408
  856MOL0     H18088   6.150   5.891  -0.529  0.7943  1.3402 -2.5807
  856MOL0     H18089   6.226   5.749  -0.439 -0.6340  1.1490  0.4450
  856MOL0     H18090   5.898   6.048  -0.722  1.0038 -2.5425  2.3690
  856MOL0     H18091   5.707   6.104  -0.864  0.7079  0.8161 -2.4684
  856MOL0     H18092   5.624   5.916  -1.264  0.2450  0.0129  0.6129
  856MOL0     H18093   5.544   5.823  -1.149 -0.2112 -0.4819 -1.2348
  856MOL0     H18094   5.438   6.102  -1.246 -1.0619 -0.0993 -0.7904
  856MOL0     H18095   5.390   5.941  -1.302 -0.8041 -1.4548  1.5952
  856MOL0     H18096   5.340   6.048  -1.022 -1.1641 -2.1345  2.5849
  856MOL0     H18097   5.340   5.885  -1.056  2.5918  0.8719  2.2622
  856MOL0     H18098   5.171   5.909  -1.227 -1.8252  1.7032 -0.3679
  856MOL0     H18099   5.171   6.087  -1.221  0.2538 -0.4624 -0.9677
  856MOL0     H18100   5.117   5.914  -0.975  1.2647  1.5581  0.4378
  856MOL0     H18101   5.113   6.090  -0.991  2.1432 -1.8427  0.9500
  856MOL0     H18102   4.922   5.920  -1.153  3.6146 -0.9487  0.9587
  856MOL0     H18103   4.926   6.098  -1.135  1.4102  1.2342  2.5031
  856MOL0     H18104   4.882   6.092  -0.895 -0.7901  0.4108 -0.6046
  856MOL0     H18105   4.882   5.915  -0.899 -0.9709 -0.5828  0.4983
  856MOL0     H18106   4.685   6.077  -1.052 -0.2577 -0.9692 -0.8361
  856MOL0     H18107   4.655   6.011  -0.891 -0.1316  3.1698  1.1556
  856MOL0     H18108   5.797   5.795  -1.135 -1.7145 -1.3743  1.0723
  856MOL0     H18109   5.982   5.725  -0.995 -1.8034 -1.3576  0.4827
  856MOL0     H18110   6.422   5.952  -0.925 -1.6611  2.9197  1.7383
  856MOL0     H18111   6.631   5.889  -0.859  0.6982  2.5225  1.7990
  856MOL0     H18112   6.047   6.017   0.238 -0.8069  0.9582 -1.1777
  856MOL0     H18113   5.914   5.825   0.334 -1.4557  0.5342 -0.0549
  856MOL0     H18114   5.579   5.632   0.278 -1.4255 -0.0380 -0.6469
  856MOL0     H18115   5.356   5.542   0.327 -1.3817 -1.1125 -1.2762
  856MOL0     H18116   5.203   5.405   0.429 -0.4657 -0.0249  0.0620
  856MOL0     H18117   5.132   5.426   0.263 -0.3175 -2.1852 -0.4033
  856MOL0     H18118   5.090   5.162   0.402  0.2771 -1.1510 -2.5255
  856MOL0     H18119   5.026   5.229   0.254  0.5039  1.0732  0.3687
  856MOL0     H18120   4.979   5.393   0.490 -0.1771 -0.6653 -0.6232
  856MOL0     H18121   4.884   5.371   0.339 -2.2806  4.1716  3.2590
  856MOL0     H18122   4.905   5.164   0.572  1.9888 -0.5557 -1.5084
  856MOL0     H18123   4.810   5.146   0.417  2.6838  0.0197 -1.4815
  856MOL0     H18124   4.534   5.350   0.632 -0.7393 -2.8118 -0.7871
  856MOL0     H18125   5.461   5.166   0.173  1.5341 -0.6165  1.0049
  856MOL0     H18126   5.664   5.134   0.036 -0.1024 -1.0553  1.5827
  856MOL0     H18127   5.756   5.277  -0.017  0.7357 -0.4503 -0.3943
  856MOL0     H18128   5.794   5.197   0.138 -2.4072  0.4649  2.2158
  857MOL0     O18129  10.862   4.739   9.449  0.0950  0.2650 -0.0934
  857MOL0     C18130  10.820   4.840   9.396 -0.9440  0.0814  0.6014
  857MOL0     O18131  10.900   4.946   9.358 -0.0644 -0.3500  0.2077
  857MOL0     C18132  11.036   4.938   9.349  0.5768 -0.2350 -0.3711
  857MOL0     C18133  11.093   5.063   9.334 -0.5106  0.0693  0.0043
  857MOL0     C18134  11.238   5.070   9.323 -0.2596  0.5864 -0.9641
  857MOL0     C18135  11.311   4.949   9.316  0.0554 -1.7507 -0.1016
  857MOL0     O18136  11.443   4.954   9.278 -0.7458  0.2695 -0.2002
  857MOL0     C18137  11.478   5.039   9.173  0.3278  0.3043  0.3666
  857MOL0     C18138  11.480   4.961   9.038 -0.2591  0.8542 -0.3027
  857MOL0     C18139  11.553   4.823   9.032  0.2426  0.5141 -0.5303
  857MOL0     C18140  11.589   4.798   8.883  0.7685 -0.0485  0.1813
  857MOL0     C18141  11.716   4.871   8.831 -0.4219  0.9128  0.7699
  857MOL0     C18142  11.740   4.839   8.687 -0.3559 -1.2741  0.4461
  857MOL0     C18143  11.859   4.917   8.630  0.4089  0.0330 -0.2221
  857MOL0     C18144  11.988   4.865   8.678 -0.1107  0.6921 -0.2013
  857MOL0     N18145  12.098   4.953   8.623 -0.5037 -0.1607  0.0191
  857MOL0     C18146  12.196   4.928   8.534 -0.3955 -0.3660  0.5702
  857MOL0     C18147  12.275   5.035   8.529  1.4485 -0.5647  0.2421
  857MOL0     C18148  12.386   5.071   8.444  0.4090 -0.2071  0.0510
  857MOL0     C18149  12.515   5.014   8.506 -0.0123 -1.5644  0.0208
  857MOL0     C18150  12.546   5.056   8.652  0.4189  0.1383 -0.3958
  857MOL0     C18151  12.553   5.205   8.675  0.3134  0.3691 -0.1072
  857MOL0     O18152  12.639   5.259   8.574 -0.9335  0.5709 -0.0481
  857MOL0     C18153  12.688   5.387   8.585  0.3428 -0.1340 -0.0717
  857MOL0     C18154  12.824   5.405   8.550  0.3687  0.3222 -0.3754
  857MOL0     C18155  12.879   5.533   8.556  0.6810  0.1077  0.3586
  857MOL0     C18156  13.014   5.551   8.498 -0.0516  0.0854  0.0054
  857MOL0     C18157  12.795   5.645   8.606  0.3258 -0.0377  0.1996
  857MOL0     C18158  12.853   5.769   8.615 -0.8454 -0.0643  0.0605
  857MOL0     O18159  12.796   5.867   8.544 -0.0853 -0.4531  0.5056
  857MOL0     C18160  12.828   5.993   8.596 -0.4078  0.3127  0.3349
  857MOL0     C18161  12.756   6.038   8.704  0.1825  0.1591  0.8948
  857MOL0     C18162  12.781   6.160   8.755 -0.5515  0.4171  0.2004
  857MOL0     C18163  12.883   6.242   8.703 -0.1615 -0.2520  0.6534
  857MOL0     O18164  12.914   6.361   8.756 -1.1720  0.1233  0.0751
  857MOL0     C18165  12.844   6.471   8.705 -0.0449  0.0101  0.0844
  857MOL0     C18166  12.942   6.593   8.725  0.3073  0.4899 -0.2723
  857MOL0     C18167  13.063   6.582   8.634 -0.4609 -0.6024 -0.4424
  857MOL0     C18168  13.154   6.704   8.624 -0.1578  0.0120 -0.1741
  857MOL0     C18169  13.284   6.663   8.564 -0.1244 -0.5811  0.2947
  857MOL0     C18170  13.337   6.782   8.479  0.2318 -0.6335  0.6645
  857MOL0     C18171  13.472   6.757   8.417 -0.1890  0.3609 -0.7654
  857MOL0     C18172  13.525   6.882   8.346  0.4919  0.4681 -0.9121
  857MOL0    Cl18173  13.657   6.831   8.237 -0.5097  0.1826  0.1664
  857MOL0     C18174  12.951   6.192   8.578  0.4359 -0.4483 -0.2444
  857MOL0     C18175  12.919   6.068   8.525 -0.6540  0.2097 -0.1010
  857MOL0     O18176  12.944   5.781   8.702  0.1380  0.0405 -0.7866
  857MOL0     C18177  12.664   5.624   8.640 -0.5316  0.3154 -0.7964
  857MOL0     C18178  12.607   5.493   8.627  0.2369  1.1327  0.1230
  857MOL0     N18179  12.230   5.122   8.632 -1.0865 -0.7294 -0.2508
  857MOL0     N18180  12.120   5.071   8.678 -0.9471 -0.2430  0.2365
  857MOL0     C18181  11.243   4.829   9.335  0.2323  0.1047 -0.0598
  857MOL0     C18182  11.111   4.826   9.357 -0.3516  0.8085 -0.1467
  857MOL0     C18183  10.676   4.870   9.393  0.4212 -0.4336 -0.3819
  857MOL0     C18184  10.636   5.004   9.389  0.3001  0.2785 -0.0009
  857MOL0     C18185  10.501   5.050   9.377 -0.5477  0.2570  0.9806
  857MOL0     C18186  10.399   4.961   9.376  0.3545  0.0602  0.5223
  857MOL0     O18187  10.271   5.003   9.375  0.6159 -0.3561 -0.1366
  857MOL0     C18188  10.160   4.918   9.405  0.0065  0.0314 -0.7499
  857MOL0     C18189  10.113   4.864   9.274  0.1368 -0.0920 -0.3636
  857MOL0     C18190   9.983   4.797   9.297 -0.2147 -1.2791 -0.1225
  857MOL0     C18191   9.925   4.724   9.178 -0.4453  0.0244  0.5441
  857MOL0     C18192   9.785   4.681   9.201 -0.5892 -0.3506  0.1382
  857MOL0     C18193   9.679   4.635   9.216  0.0830 -0.5411  0.0976
  857MOL0     C18194  10.439   4.826   9.372 -0.2161  0.0079 -0.6707
  857MOL0     C18195  10.572   4.773   9.382 -0.2096 -0.0897 -0.4105
  857MOL0     C18196  10.594   4.628   9.339 -0.4382 -1.3952 -0.5737
  857MOL0     H18197  11.038   5.157   9.329 -0.2163  0.3309  1.2738
  857MOL0     H18198  11.288   5.166   9.312 -1.7841  1.4011 -1.0315
  857MOL0     H18199  11.581   5.074   9.182  0.5520  0.9660 -3.0758
  857MOL0     H18200  11.421   5.132   9.163  0.1450  0.1681  0.1100
  857MOL0     H18201  11.379   4.930   9.011  0.6997 -2.2925 -0.6163
  857MOL0     H18202  11.521   5.024   8.959  0.3799 -1.0220 -1.5213
  857MOL0     H18203  11.645   4.825   9.091 -1.2283 -0.8838  1.9627
  857MOL0     H18204  11.489   4.749   9.080  1.0726  1.4663  2.1975
  857MOL0     H18205  11.603   4.690   8.881 -0.7042 -0.4525  3.5655
  857MOL0     H18206  11.503   4.817   8.818  3.3109  0.9189 -3.1727
  857MOL0     H18207  11.796   4.840   8.898 -1.5652  1.1867  2.3293
  857MOL0     H18208  11.709   4.979   8.844  0.5373  1.3792 -1.9318
  857MOL0     H18209  11.763   4.733   8.677 -0.8003 -1.3619  0.3406
  857MOL0     H18210  11.647   4.853   8.631 -0.8517 -0.3295  1.4571
  857MOL0     H18211  11.851   5.026   8.635 -2.5964  0.1161 -3.1007
  857MOL0     H18212  11.871   4.892   8.524  3.3220 -2.1726  0.4866
  857MOL0     H18213  12.004   4.851   8.785 -0.3176  0.2420 -0.2276
  857MOL0     H18214  11.999   4.766   8.633 -0.9148  1.3818 -2.0166
  857MOL0     H18215  12.203   4.836   8.477 -1.5675 -1.2048  1.7099
  857MOL0     H18216  12.381   5.179   8.432 -2.0794 -0.3987 -1.5442
  857MOL0     H18217  12.360   5.025   8.348  0.5696 -1.7547  0.7083
  857MOL0     H18218  12.504   4.906   8.493 -1.5554 -1.4015 -0.1834
  857MOL0     H18219  12.600   5.049   8.446 -1.8794  1.4031 -1.1484
  857MOL0     H18220  12.464   5.027   8.718  2.1080 -1.4658  1.1073
  857MOL0     H18221  12.639   5.002   8.673 -1.6556 -3.7364 -0.1909
  857MOL0     H18222  12.456   5.255   8.679  0.0850 -0.0718 -0.0548
  857MOL0     H18223  12.590   5.225   8.776  0.2237 -0.1631  0.0357
  857MOL0     H18224  12.895   5.327   8.524 -2.5845 -2.4135 -0.7369
  857MOL0     H18225  13.039   5.631   8.428 -0.0180  0.9787  1.0057
  857MOL0     H18226  13.059   5.462   8.453  3.6621  2.0626 -0.5618
  857MOL0     H18227  13.079   5.586   8.579 -0.6562  1.9145 -0.2589
  857MOL0     H18228  12.684   5.978   8.759 -0.5924  0.9644  0.7855
  857MOL0     H18229  12.723   6.194   8.840  1.1668  1.1335  1.1409
  857MOL0     H18230  12.828   6.453   8.599  1.2260  1.5335 -0.4024
  857MOL0     H18231  12.750   6.493   8.757 -0.5215 -1.8730  0.1037
  857MOL0     H18232  12.890   6.687   8.703  3.1485  2.5369  1.0855
  857MOL0     H18233  12.967   6.606   8.830  0.0610  3.0460 -0.4684
  857MOL0     H18234  13.036   6.553   8.532 -0.3199  0.0911 -0.6853
  857MOL0     H18235  13.122   6.495   8.665 -1.1548 -1.2823 -1.0046
  857MOL0     H18236  13.170   6.746   8.724  0.0173 -0.3755 -0.0358
  857MOL0     H18237  13.111   6.772   8.550  2.1945  0.1648 -1.5035
  857MOL0     H18238  13.365   6.634   8.632  2.3422 -0.7007 -2.4766
  857MOL0     H18239  13.276   6.570   8.507  0.7649 -1.4815  1.5680
  857MOL0     H18240  13.356   6.867   8.546  0.3201 -0.3239  0.2521
  857MOL0     H18241  13.262   6.809   8.404  1.1653 -0.7169 -0.3233
  857MOL0     H18242  13.458   6.690   8.332 -0.6105  1.3776 -1.5007
  857MOL0     H18243  13.546   6.707   8.481  0.6452 -0.7758 -2.5387
  857MOL0     H18244  13.563   6.955   8.417  2.7401 -0.9303 -0.5941
  857MOL0     H18245  13.447   6.932   8.287  0.3400 -1.1963 -2.2149
  857MOL0     H18246  13.012   6.261   8.520  1.5094  0.1775  1.5393
  857MOL0     H18247  12.959   6.030   8.431 -0.0957  0.0672  0.1899
  857MOL0     H18248  12.605   5.715   8.650 -0.4602  0.6998 -3.2625
  857MOL0     H18249  12.501   5.477   8.649  1.0413 -1.4851  2.7147
  857MOL0     H18250  11.303   4.739   9.340  2.6873  1.7368  2.0489
  857MOL0     H18251  11.062   4.729   9.359 -2.7835  1.9455  1.9141
  857MOL0     H18252  10.704   5.085   9.413 -0.5537  1.2296 -0.7286
  857MOL0     H18253  10.478   5.156   9.382 -1.5431  0.2122 -1.2279
  857MOL0     H18254  10.189   4.835   9.470  0.2362  0.2700 -0.5468
  857MOL0     H18255  10.071   4.967   9.447 -0.5324 -0.2987 -1.4814
  857MOL0     H18256  10.194   4.803   9.233  1.4898  2.2132 -1.3160
  857MOL0     H18257  10.096   4.947   9.204  2.0479  0.9405  0.3306
  857MOL0     H18258   9.990   4.729   9.383  2.3152 -1.5843 -0.4839
  857MOL0     H18259   9.907   4.872   9.317 -0.1478 -1.3082  0.2440
  857MOL0     H18260   9.990   4.642   9.146 -0.6152 -0.9128  2.3990
  857MOL0     H18261   9.915   4.798   9.098 -2.3976 -0.8443 -0.0912
  857MOL0     H18262   9.584   4.592   9.240 -0.2531  0.3533  0.4080
  857MOL0     H18263  10.359   4.755   9.354 -0.4788  0.1932 -0.2533
  857MOL0     H18264  10.629   4.628   9.236  1.2827  0.7670 -0.0592
  857MOL0     H18265  10.675   4.574   9.389 -0.5482 -2.1649 -1.2032
  857MOL0     H18266  10.500   4.576   9.360 -1.7138  1.3530  1.0670
  858MOL0     O18267  10.076   1.069   5.841  0.2970 -0.4027 -0.0060
  858MOL0     C18268  10.037   0.963   5.882 -1.1520 -0.3192 -0.1820
  858MOL0     O18269  10.114   0.874   5.956 -0.9833 -0.4377 -0.6338
  858MOL0     C18270  10.235   0.908   6.008 -0.3530  0.4670  0.0726
  858MOL0     C18271  10.259   0.877   6.147 -0.2042  0.0903 -1.4478
  858MOL0     C18272  10.383   0.898   6.207 -0.0365  0.1152 -0.0811
  858MOL0     C18273  10.494   0.949   6.131 -0.5486 -0.2832  1.0769
  858MOL0     O18274  10.621   0.968   6.174 -0.0207  0.5571  0.1744
  858MOL0     C18275  10.660   0.944   6.314  0.3410 -0.5949  0.1363
  858MOL0     C18276  10.795   0.880   6.336 -0.5240  0.8883  0.6725
  858MOL0     C18277  10.790   0.743   6.264 -0.0084  0.6434  0.0039
  858MOL0     C18278  10.918   0.650   6.252  0.2795  0.3778  0.0776
  858MOL0     C18279  10.887   0.535   6.152  0.1976 -0.9462 -0.5589
  858MOL0     C18280  11.000   0.433   6.152  0.3525  0.3011 -0.4632
  858MOL0     C18281  11.124   0.478   6.080 -0.5177  0.2788  0.3567
  858MOL0     C18282  11.116   0.533   5.942 -0.3402 -0.4077  0.1072
  858MOL0     N18283  11.246   0.560   5.885 -0.5083  0.3954  0.2951
  858MOL0     C18284  11.271   0.681   5.812  0.5030 -0.1554  1.0067
  858MOL0     C18285  11.404   0.680   5.790 -0.1114  0.6104  0.0502
  858MOL0     C18286  11.487   0.794   5.745 -0.1684 -0.2841  1.0732
  858MOL0     C18287  11.628   0.751   5.694  0.2881  0.9784 -0.2019
  858MOL0     C18288  11.729   0.858   5.722 -0.0204  0.4309 -0.0526
  858MOL0     C18289  11.716   0.983   5.630 -0.5500 -0.7234 -0.5127
  858MOL0     O18290  11.829   1.068   5.661 -0.0424 -0.3209  0.6309
  858MOL0     C18291  11.948   1.029   5.597 -0.1991  1.5200 -0.3835
  858MOL0     C18292  12.054   0.972   5.677  0.2404  0.0361  0.2638
  858MOL0     C18293  12.175   0.934   5.620  0.8101  0.0434  0.4142
  858MOL0     C18294  12.256   0.835   5.702  0.4239 -0.2526 -0.1120
  858MOL0     C18295  12.198   0.957   5.488  0.6918 -0.0260  1.1503
  858MOL0     C18296  12.324   0.933   5.420 -0.5900 -0.1695 -0.5620
  858MOL0     O18297  12.316   0.832   5.328 -0.1103  0.2751  1.0300
  858MOL0     C18298  12.434   0.794   5.259  0.5088 -0.1841  0.3797
  858MOL0     C18299  12.467   0.656   5.254  0.3412  0.1879  0.5633
  858MOL0     C18300  12.588   0.619   5.204  0.2724  0.4645  0.0976
  858MOL0     C18301  12.676   0.698   5.156 -0.2766  0.2908 -0.1969
  858MOL0     O18302  12.797   0.648   5.100  0.4483 -0.3503  0.7873
  858MOL0     C18303  12.914   0.705   5.158 -0.1502  0.1683 -0.7283
  858MOL0     C18304  12.935   0.633   5.293 -0.4208  0.5905  0.4292
  858MOL0     C18305  12.987   0.492   5.291 -0.3561 -0.8384 -1.2396
  858MOL0     C18306  13.124   0.475   5.231  0.8305 -0.7278 -0.4073
  858MOL0     C18307  13.183   0.342   5.275 -0.0862 -0.3147  0.4073
  858MOL0     C18308  13.313   0.295   5.198 -0.2503 -0.5388  0.4049
  858MOL0     C18309  13.354   0.147   5.223 -0.2885  0.0290 -0.2262
  858MOL0     C18310  13.499   0.114   5.190  0.7693  0.2476  1.2781
  858MOL0    Cl18311  13.548   0.165   5.024 -0.0186 -0.1714  0.0362
  858MOL0     C18312  12.649   0.838   5.170 -0.2467 -0.0531  0.3703
  858MOL0     C18313  12.534   0.884   5.225  0.0389 -0.2456  0.7621
  858MOL0     O18314  12.426   0.993   5.461 -0.1087 -0.3760 -0.2381
  858MOL0     C18315  12.096   1.016   5.403  0.5183  0.2382 -0.3990
  858MOL0     C18316  11.978   1.060   5.464 -0.3329 -0.0733  0.0841
  858MOL0     N18317  11.456   0.571   5.850 -0.3286 -0.2384  0.9238
  858MOL0     N18318  11.365   0.504   5.916 -0.6536 -0.1192 -0.9886
  858MOL0     C18319  10.470   0.974   5.995 -0.2258 -0.4245  0.0650
  858MOL0     C18320  10.344   0.953   5.936 -0.5121 -0.4931  0.8589
  858MOL0     C18321   9.907   0.925   5.849 -0.2923 -0.2341 -0.3732
  858MOL0     C18322   9.875   0.787   5.862 -0.7983  0.6139  0.1728
  858MOL0     C18323   9.747   0.744   5.839  0.5302 -0.0909  0.8505
  858MOL0     C18324   9.640   0.841   5.835  0.1598 -0.4913  0.2009
  858MOL0     O18325   9.508   0.818   5.832  0.1931 -0.6000 -0.5817
  858MOL0     C18326   9.466   0.693   5.786 -0.4035 -0.2149 -0.0494
  858MOL0     C18327   9.312   0.694   5.765 -0.2458  0.0581 -0.0691
  858MOL0     C18328   9.242   0.700   5.897  0.0288 -0.0118  0.1280
  858MOL0     C18329   9.093   0.724   5.877 -0.4810 -0.4376  0.3571
  858MOL0     C18330   9.050   0.599   5.821  0.5928 -0.2493  0.5421
  858MOL0     C18331   8.998   0.500   5.770  0.0111 -0.7782 -0.5099
  858MOL0     C18332   9.676   0.976   5.839  0.0725 -0.2124 -0.3227
  858MOL0     C18333   9.805   1.021   5.825  0.1225 -0.3970 -0.6398
  858MOL0     C18334   9.817   1.168   5.823 -1.1059 -0.6832  0.3738
  858MOL0     H18335  10.188   0.824   6.209  2.9836 -1.7882  0.9230
  858MOL0     H18336  10.403   0.872   6.311  0.2186  0.5008 -0.0309
  858MOL0     H18337  10.589   0.877   6.363  2.0484 -1.2013  1.8844
  858MOL0     H18338  10.653   1.035   6.373  0.4093 -0.3375 -0.2491
  858MOL0     H18339  10.876   0.944   6.299  0.6625 -1.0325 -0.2528
  858MOL0     H18340  10.819   0.863   6.441 -0.3526 -1.9630  0.2644
  858MOL0     H18341  10.712   0.678   6.304  0.4078 -1.5516 -2.5052
  858MOL0     H18342  10.759   0.750   6.160  2.3055  0.7821 -0.7373
  858MOL0     H18343  11.000   0.697   6.196  0.1627 -2.0642 -2.3756
  858MOL0     H18344  10.950   0.608   6.348 -3.0816 -2.0797  0.3109
  858MOL0     H18345  10.860   0.573   6.053 -2.6645 -2.5045 -0.5022
  858MOL0     H18346  10.801   0.480   6.191 -0.4300 -1.8234 -3.0380
  858MOL0     H18347  11.013   0.391   6.252 -2.1783 -0.4298 -0.3720
  858MOL0     H18348  10.960   0.341   6.107  2.7716 -1.0209 -0.1241
  858MOL0     H18349  11.187   0.390   6.065 -1.6259 -0.5616  0.5263
  858MOL0     H18350  11.177   0.554   6.139 -3.3047  2.9972 -0.4037
  858MOL0     H18351  11.061   0.464   5.877 -0.8298 -0.2690  0.3687
  858MOL0     H18352  11.063   0.628   5.934 -1.5290 -0.8379  2.1805
  858MOL0     H18353  11.202   0.763   5.795 -0.9366 -1.3762  0.7142
  858MOL0     H18354  11.504   0.848   5.838  0.0267  1.9685 -0.1922
  858MOL0     H18355  11.443   0.861   5.671 -2.6440  3.0157  5.0968
  858MOL0     H18356  11.662   0.659   5.742 -2.3373  0.5241  0.9520
  858MOL0     H18357  11.621   0.729   5.587 -1.2291 -1.4370  0.3184
  858MOL0     H18358  11.729   0.890   5.827  2.9282 -2.2413  0.9083
  858MOL0     H18359  11.827   0.812   5.708  0.1186  0.2978  1.2727
  858MOL0     H18360  11.731   0.955   5.526 -0.8423 -0.9775 -0.4905
  858MOL0     H18361  11.618   1.031   5.638 -0.9349 -1.4718 -0.6418
  858MOL0     H18362  12.041   0.958   5.784 -0.0871 -0.0225  0.2173
  858MOL0     H18363  12.196   0.754   5.746  1.1624 -0.9843 -0.4390
  858MOL0     H18364  12.290   0.897   5.786 -0.0066 -0.4738  0.2305
  858MOL0     H18365  12.345   0.785   5.664  0.9341 -0.0339  0.7591
  858MOL0     H18366  12.400   0.578   5.289  2.5847 -1.6667  0.9434
  858MOL0     H18367  12.612   0.513   5.208  1.9841  0.8371  0.9748
  858MOL0     H18368  13.006   0.700   5.100  0.0335 -0.0022 -0.4231
  858MOL0     H18369  12.902   0.813   5.164  1.5782  0.3223  0.7442
  858MOL0     H18370  12.986   0.700   5.362 -2.3598 -0.1508  2.7429
  858MOL0     H18371  12.838   0.635   5.345 -0.6644  0.1286 -0.0013
  858MOL0     H18372  12.936   0.435   5.212 -2.8319  0.0636 -0.3674
  858MOL0     H18373  12.973   0.438   5.385 -1.3507 -0.4453 -1.1503
  858MOL0     H18374  13.182   0.562   5.264  0.0519  0.6299 -2.4480
  858MOL0     H18375  13.116   0.473   5.122 -1.7277 -0.5129 -0.2986
  858MOL0     H18376  13.196   0.348   5.384  3.2177  1.4434  0.0446
  858MOL0     H18377  13.112   0.263   5.250  0.2335 -0.6009  0.3929
  858MOL0     H18378  13.400   0.347   5.239 -2.7100  1.8970  2.9638
  858MOL0     H18379  13.312   0.310   5.090 -0.9439 -1.2365  0.3047
  858MOL0     H18380  13.286   0.083   5.166 -0.4799  1.8563 -2.1363
  858MOL0     H18381  13.334   0.115   5.326 -0.5508 -4.6424 -1.4790
  858MOL0     H18382  13.522   0.008   5.201  0.6875  0.2371  1.3439
  858MOL0     H18383  13.552   0.182   5.258  1.4689  0.3980  0.5933
  858MOL0     H18384  12.730   0.894   5.125 -0.5464  0.4436  0.4504
  858MOL0     H18385  12.517   0.991   5.229 -2.0287 -0.4895 -0.2332
  858MOL0     H18386  12.111   1.036   5.297  3.2292 -0.0807 -0.1546
  858MOL0     H18387  11.926   1.135   5.405  0.0864  1.0809  1.1156
  858MOL0     H18388  10.548   1.022   5.936 -0.4440 -1.6186 -1.2332
  858MOL0     H18389  10.324   0.975   5.832 -1.0945  2.9358  1.5911
  858MOL0     H18390   9.952   0.717   5.895  0.3791  2.1656  0.8760
  858MOL0     H18391   9.728   0.637   5.850  1.2029 -0.4976 -1.3641
  858MOL0     H18392   9.520   0.666   5.695  0.9057 -0.2260  0.6994
  858MOL0     H18393   9.490   0.613   5.858  1.3696 -0.2841 -0.6671
  858MOL0     H18394   9.289   0.605   5.706 -0.2505  0.0735 -0.0904
  858MOL0     H18395   9.292   0.778   5.698  0.9777  2.1231  2.0185
  858MOL0     H18396   9.257   0.609   5.957  1.5133  0.6880  0.8565
  858MOL0     H18397   9.286   0.781   5.956 -1.3087 -2.2750  4.7532
  858MOL0     H18398   9.083   0.810   5.810  2.7064  0.8816  1.4296
  858MOL0     H18399   9.029   0.740   5.964 -0.5618  1.1248  0.0423
  858MOL0     H18400   8.938   0.421   5.729 -0.6235 -0.3677 -0.3930
  858MOL0     H18401   9.587   1.037   5.826  0.3367  0.2170 -0.1352
  858MOL0     H18402   9.874   1.209   5.908 -0.3230 -0.9639 -0.0116
  858MOL0     H18403   9.871   1.187   5.730  1.4097 -1.1919  1.6472
  858MOL0     H18404   9.722   1.222   5.826 -0.4903  0.5226  4.0693
  859MOL0     O18405   9.131   1.088  11.143  0.1236 -0.7091  0.4409
  859MOL0     C18406   9.104   1.133  11.026 -1.1205 -0.1775  0.0669
  859MOL0     O18407   9.191   1.121  10.911  0.5437 -0.5594 -0.4300
  859MOL0     C18408   9.304   1.061  10.934 -0.0814  0.1140  0.3252
  859MOL0     C18409   9.305   0.918  10.934 -0.2993  0.3199 -0.3598
  859MOL0     C18410   9.428   0.844  10.956 -0.7519 -1.2192  0.3070
  859MOL0     C18411   9.547   0.922  10.979  0.3211 -0.9208  0.5520
  859MOL0     O18412   9.660   0.858  11.007 -0.2936 -0.2298 -0.6534
  859MOL0     C18413   9.724   0.783  10.909 -0.3975  0.5568  0.2047
  859MOL0     C18414   9.789   0.860  10.793  0.1239 -0.8483 -0.1943
  859MOL0     C18415   9.894   0.966  10.826  0.2400 -0.5746  0.9165
  859MOL0     C18416  10.011   0.910  10.900  0.9590 -0.0320 -0.7489
  859MOL0     C18417  10.091   0.811  10.823 -0.4277  0.3185  0.7756
  859MOL0     C18418  10.200   0.737  10.898  0.0336 -0.0364  0.1550
  859MOL0     C18419  10.232   0.605  10.830  0.1458 -0.2553  1.3098
  859MOL0     C18420  10.347   0.533  10.899 -0.3756 -0.1459  0.9844
  859MOL0     N18421  10.469   0.609  10.926  0.6250 -0.4807 -0.7557
  859MOL0     C18422  10.563   0.637  10.833 -0.0622  0.0741 -0.1871
  859MOL0     C18423  10.640   0.732  10.899 -0.6954  0.1309  0.0234
  859MOL0     C18424  10.755   0.796  10.836  0.3473  0.8714  0.9731
  859MOL0     C18425  10.879   0.747  10.903 -0.5274  0.8737 -0.1745
  859MOL0     C18426  10.887   0.597  10.933 -0.0789  0.9304 -0.8003
  859MOL0     C18427  11.015   0.568  10.995 -1.2881 -0.0663 -0.5533
  859MOL0     O18428  11.119   0.545  10.896  0.4771  0.4036  0.3776
  859MOL0     C18429  11.253   0.525  10.936  0.2706 -0.7979 -0.2716
  859MOL0     C18430  11.288   0.481  11.062  0.3604 -0.6599 -0.5922
  859MOL0     C18431  11.418   0.465  11.105 -0.0334  0.0106 -0.2525
  859MOL0     C18432  11.459   0.418  11.238  0.8117 -0.9750  0.0482
  859MOL0     C18433  11.521   0.509  11.025 -0.0821  0.4130 -0.5883
  859MOL0     C18434  11.661   0.520  11.053 -0.1071 -0.1436 -0.4839
  859MOL0     O18435  11.744   0.444  10.974 -0.6493 -0.9625 -0.5230
  859MOL0     C18436  11.882   0.449  10.999  0.5595 -0.0153 -0.9043
  859MOL0     C18437  11.968   0.448  10.893 -0.1347 -0.3636 -0.0963
  859MOL0     C18438  12.108   0.449  10.911 -0.6514  0.3189 -0.4658
  859MOL0     C18439  12.163   0.455  11.039 -0.7562 -0.0232  0.6896
  859MOL0     O18440  12.300   0.437  11.052  0.5823  0.1648 -0.6464
  859MOL0     C18441  12.361   0.552  11.105  0.8831 -0.2058  0.0319
  859MOL0     C18442  12.513   0.554  11.089 -0.1330  0.0497 -0.8477
  859MOL0     C18443  12.581   0.472  11.195 -0.1505 -0.8233 -0.6259
  859MOL0     C18444  12.728   0.520  11.232  0.5604  0.0961  0.9729
  859MOL0     C18445  12.783   0.454  11.366  0.0886 -0.1124  0.3198
  859MOL0     C18446  12.911   0.522  11.414 -0.4581  0.3008  0.3343
  859MOL0     C18447  12.971   0.465  11.544  0.1629  0.0682 -0.1812
  859MOL0     C18448  13.112   0.513  11.577  0.0450 -0.0524  0.2393
  859MOL0    Cl18449  13.102   0.693  11.598  0.0709  0.3770  0.1689
  859MOL0     C18450  12.066   0.454  11.144 -0.7431  0.0210  0.4047
  859MOL0     C18451  11.932   0.447  11.126  1.1141 -0.2971 -0.1764
  859MOL0     O18452  11.698   0.580  11.156  0.1165 -0.0274  0.1514
  859MOL0     C18453  11.492   0.557  10.898  0.6959 -0.3297 -0.7034
  859MOL0     C18454  11.361   0.566  10.854  0.9324 -0.3684  0.1490
  859MOL0     N18455  10.596   0.742  11.025 -0.2732  0.1385 -0.3611
  859MOL0     N18456  10.496   0.666  11.045 -0.5915 -0.5369  0.0490
  859MOL0     C18457   9.547   1.060  10.971  0.6522 -0.6249 -0.0948
  859MOL0     C18458   9.423   1.126  10.956 -0.1230  0.1766 -0.5563
  859MOL0     C18459   8.982   1.210  11.001 -0.3481 -0.0238 -0.3997
  859MOL0     C18460   8.937   1.239  10.874 -0.6404  0.5813  0.1159
  859MOL0     C18461   8.816   1.294  10.847  0.0752  0.0064  0.3937
  859MOL0     C18462   8.720   1.319  10.945 -0.3154 -0.0300  0.6466
  859MOL0     O18463   8.589   1.346  10.914  0.3196  0.4861 -0.2160
  859MOL0     C18464   8.555   1.485  10.905  0.1172  0.4621  0.2092
  859MOL0     C18465   8.421   1.521  10.969  0.0890  0.2805  0.1900
  859MOL0     C18466   8.407   1.463  11.111  0.1717  1.0497  0.6695
  859MOL0     C18467   8.284   1.539  11.171 -0.0231 -0.0147 -0.0876
  859MOL0     C18468   8.155   1.496  11.128  0.7641  0.2381 -0.0079
  859MOL0     C18469   8.055   1.450  11.088  0.6377 -0.1023  0.5291
  859MOL0     C18470   8.769   1.307  11.072  0.2613  0.0222  0.3325
  859MOL0     C18471   8.895   1.258  11.106  1.0214 -0.2129  0.0438
  859MOL0     C18472   8.940   1.248  11.251  0.1068 -0.5120  0.8536
  859MOL0     H18473   9.211   0.865  10.920  1.0913 -2.3792 -0.1496
  859MOL0     H18474   9.432   0.736  10.946 -1.1448 -1.3392  1.3626
  859MOL0     H18475   9.647   0.712  10.877 -0.1716 -0.6342  2.1423
  859MOL0     H18476   9.798   0.716  10.953  1.2644  1.8380 -0.5551
  859MOL0     H18477   9.831   0.788  10.722  0.8173 -2.1106  1.4358
  859MOL0     H18478   9.705   0.917  10.753  2.0315  2.7503  0.4414
  859MOL0     H18479   9.930   1.017  10.736 -0.8610  1.5981  1.6374
  859MOL0     H18480   9.855   1.052  10.881  2.6984  1.2122  0.0794
  859MOL0     H18481  10.080   0.982  10.943  0.1461 -0.9870  2.4071
  859MOL0     H18482   9.974   0.854  10.987  0.2850  1.6884  0.1126
  859MOL0     H18483  10.142   0.856  10.737  0.3705 -1.9329  0.0081
  859MOL0     H18484  10.019   0.733  10.795 -0.4441  0.2893  0.9016
  859MOL0     H18485  10.281   0.808  10.908  0.5439 -0.3133 -1.6144
  859MOL0     H18486  10.166   0.722  11.001 -1.0717 -1.4000 -0.3614
  859MOL0     H18487  10.260   0.636  10.728  2.1949  2.9482  2.6825
  859MOL0     H18488  10.142   0.543  10.826 -0.4429  0.5258  2.1671
  859MOL0     H18489  10.311   0.503  10.998 -0.4103 -1.8730  0.4720
  859MOL0     H18490  10.370   0.447  10.835  0.9164  1.0156 -0.2017
  859MOL0     H18491  10.561   0.614  10.727  1.7129  2.0625 -0.7194
  859MOL0     H18492  10.750   0.905  10.847  0.9727  0.7019  3.9044
  859MOL0     H18493  10.764   0.771  10.730 -0.6204  1.2641  0.7985
  859MOL0     H18494  10.967   0.769  10.842 -1.2143  0.7804 -1.2282
  859MOL0     H18495  10.901   0.785  11.003  1.8057 -1.5360  0.3554
  859MOL0     H18496  10.810   0.562  11.003  0.4046  1.8981  0.2496
  859MOL0     H18497  10.882   0.539  10.841 -1.2874 -0.4304  0.0807
  859MOL0     H18498  11.050   0.638  11.072 -1.9738 -0.3586  0.0398
  859MOL0     H18499  11.005   0.479  11.058  3.6067  0.4997  1.5078
  859MOL0     H18500  11.209   0.448  11.129 -1.9312  3.1031 -1.1392
  859MOL0     H18501  11.559   0.374  11.244  0.8486 -0.8229  0.5830
  859MOL0     H18502  11.395   0.336  11.271  0.9751 -1.0915  0.0752
  859MOL0     H18503  11.444   0.505  11.302 -1.0627 -1.6770  0.6260
  859MOL0     H18504  11.923   0.447  10.794  1.8659 -0.4316 -1.0551
  859MOL0     H18505  12.180   0.443  10.831 -0.4155 -1.0666 -0.1768
  859MOL0     H18506  12.309   0.639  11.065  0.6006 -0.0975  0.6154
  859MOL0     H18507  12.323   0.567  11.207 -0.0344  0.9498 -0.4506
  859MOL0     H18508  12.550   0.522  10.991  0.9387  2.0618 -1.1624
  859MOL0     H18509  12.541   0.657  11.111 -0.3161  0.1076 -0.8886
  859MOL0     H18510  12.583   0.369  11.157 -0.8972 -0.8686 -0.5411
  859MOL0     H18511  12.522   0.454  11.285  1.8613  1.5210  1.3365
  859MOL0     H18512  12.728   0.629  11.231 -2.8240  0.1920  1.5549
  859MOL0     H18513  12.797   0.487  11.153 -1.7644  0.5835 -1.3830
  859MOL0     H18514  12.706   0.453  11.444 -1.2239 -1.9150 -0.9397
  859MOL0     H18515  12.799   0.347  11.353  1.8593  0.2354 -0.6749
  859MOL0     H18516  12.885   0.626  11.437  0.9663  1.1661 -1.6815
  859MOL0     H18517  12.994   0.516  11.343  0.5773 -2.0404  1.6211
  859MOL0     H18518  12.966   0.357  11.563 -1.1660  0.1607  0.0882
  859MOL0     H18519  12.917   0.505  11.630  1.0393  1.7538 -0.3720
  859MOL0     H18520  13.174   0.479  11.494  0.6455 -0.9118  1.0280
  859MOL0     H18521  13.132   0.471  11.676 -0.8982 -0.3265  0.3239
  859MOL0     H18522  12.108   0.440  11.243 -1.3103 -0.8727  0.5329
  859MOL0     H18523  11.868   0.440  11.213 -1.6981  0.8169 -2.0340
  859MOL0     H18524  11.578   0.586  10.840  0.9511  0.9644  0.2876
  859MOL0     H18525  11.341   0.611  10.757 -1.8048  0.6452  1.0810
  859MOL0     H18526   9.638   1.118  10.978  0.7803 -0.7361 -0.7559
  859MOL0     H18527   9.420   1.234  10.941 -1.4473  0.0045 -1.6819
  859MOL0     H18528   9.014   1.210  10.803  0.7751  0.6606  1.5684
  859MOL0     H18529   8.775   1.307  10.748  0.9083  0.0284  0.0486
  859MOL0     H18530   8.630   1.546  10.956  3.3185 -1.9493 -1.2773
  859MOL0     H18531   8.563   1.504  10.797  0.5050 -1.3802 -0.1214
  859MOL0     H18532   8.340   1.501  10.899 -0.1721  0.3346  0.4756
  859MOL0     H18533   8.436   1.629  10.976 -0.1670  0.3262  0.0505
  859MOL0     H18534   8.384   1.356  11.107  2.1690  0.5989 -1.9515
  859MOL0     H18535   8.496   1.481  11.171  0.0991 -0.4664  1.2830
  859MOL0     H18536   8.297   1.642  11.138  0.0351  0.0728  0.2063
  859MOL0     H18537   8.294   1.535  11.280  2.2133  2.5036 -0.1050
  859MOL0     H18538   7.966   1.397  11.061  0.5708 -0.2867  1.0796
  859MOL0     H18539   8.701   1.335  11.153 -1.1665  4.5212 -2.0436
  859MOL0     H18540   8.872   1.310  11.310 -0.0429  1.1358 -0.9742
  859MOL0     H18541   8.918   1.145  11.283 -1.6423 -0.1153  1.0025
  859MOL0     H18542   9.046   1.272  11.266  0.7920 -2.1768 -0.8250
  860MOL0     O18543   1.993   8.189   2.662 -0.0257 -0.7989 -0.2691
  860MOL0     C18544   1.914   8.234   2.581 -0.9634 -0.1667 -0.8264
  860MOL0     O18545   1.953   8.311   2.480  0.0475 -0.7900 -0.1385
  860MOL0     C18546   2.082   8.327   2.429 -0.8695  0.8273 -0.8260
  860MOL0     C18547   2.113   8.442   2.374 -0.3772 -0.8358 -0.0423
  860MOL0     C18548   2.233   8.460   2.304 -0.1969 -0.4213 -0.4123
  860MOL0     C18549   2.332   8.363   2.307 -0.0310  0.3722 -0.8136
  860MOL0     O18550   2.458   8.375   2.243 -0.2303 -0.2977 -0.6907
  860MOL0     C18551   2.515   8.508   2.223  0.6422 -0.8396 -0.4299
  860MOL0     C18552   2.659   8.495   2.189  0.5719  0.3438  0.9616
  860MOL0     C18553   2.757   8.450   2.301  0.1429  0.6653 -0.2792
  860MOL0     C18554   2.888   8.395   2.249  0.1282  0.5006 -0.3636
  860MOL0     C18555   2.982   8.356   2.359  0.0480 -0.6168 -0.7726
  860MOL0     C18556   3.112   8.320   2.300  0.1985  0.1035  0.4775
  860MOL0     C18557   3.181   8.215   2.383  0.3028 -0.5800 -0.3560
  860MOL0     C18558   3.218   8.274   2.517  0.3572 -1.2552 -0.1984
  860MOL0     N18559   3.265   8.164   2.596  0.3072 -0.2570  0.4509
  860MOL0     C18560   3.399   8.143   2.626 -0.6489  0.1347  0.2644
  860MOL0     C18561   3.398   8.044   2.711  0.0806 -0.7066 -1.2314
  860MOL0     C18562   3.521   7.988   2.782  0.1203 -0.1555  0.3250
  860MOL0     C18563   3.511   8.031   2.925  0.7288 -0.2604  0.3674
  860MOL0     C18564   3.566   7.920   3.013 -0.6013 -0.2674 -1.3367
  860MOL0     C18565   3.719   7.899   2.987  0.1632 -0.0879 -0.6470
  860MOL0     O18566   3.776   7.859   3.118  0.5308 -0.3020  0.4322
  860MOL0     C18567   3.916   7.834   3.120 -0.2638 -0.1553  0.4455
  860MOL0     C18568   3.997   7.831   3.000  0.2178 -0.5831  0.0434
  860MOL0     C18569   4.139   7.813   3.004 -0.4368 -0.2440 -0.5303
  860MOL0     C18570   4.204   7.789   2.874  0.1270 -0.2453  0.3670
  860MOL0     C18571   4.203   7.798   3.129 -0.4942  0.7007  0.4248
  860MOL0     C18572   4.352   7.777   3.141  0.1317 -0.1770  0.3560
  860MOL0     O18573   4.400   7.670   3.069  0.1448 -0.2956 -0.9770
  860MOL0     C18574   4.534   7.648   3.075 -0.2104  0.4168 -0.2811
  860MOL0     C18575   4.583   7.538   3.137  0.1909  1.1823  0.1028
  860MOL0     C18576   4.722   7.504   3.117  0.4239  0.2342 -0.8626
  860MOL0     C18577   4.812   7.593   3.046 -0.4001 -0.5171 -0.1029
  860MOL0     O18578   4.947   7.578   3.027 -0.1673 -0.0890 -0.2527
  860MOL0     C18579   4.999   7.451   3.051  0.4292  0.0615 -0.0101
  860MOL0     C18580   5.139   7.438   2.998 -0.2996 -0.1487 -0.4613
  860MOL0     C18581   5.247   7.512   3.069 -0.4305 -0.1864 -0.2086
  860MOL0     C18582   5.387   7.488   3.016  0.1894 -0.9096 -1.0806
  860MOL0     C18583   5.485   7.575   3.086  0.5443  0.0051  0.3168
  860MOL0     C18584   5.632   7.543   3.053 -0.1518  0.2236 -0.0853
  860MOL0     C18585   5.662   7.547   2.901  0.0668 -0.2038 -0.0135
  860MOL0     C18586   5.808   7.567   2.868 -0.6397 -0.3441 -0.3983
  860MOL0    Cl18587   5.908   7.420   2.898 -0.1071 -0.2550 -0.1914
  860MOL0     C18588   4.758   7.721   3.008 -0.0328 -0.1958  0.0779
  860MOL0     C18589   4.617   7.741   3.021 -0.6276 -0.6608  0.1812
  860MOL0     O18590   4.410   7.845   3.225 -0.0476  0.4079 -0.2497
  860MOL0     C18591   4.126   7.803   3.243  0.1889 -0.0616 -0.2810
  860MOL0     C18592   3.983   7.811   3.242  0.4825  0.2860  0.1585
  860MOL0     N18593   3.269   8.008   2.739 -0.0340  0.1752 -0.1357
  860MOL0     N18594   3.191   8.076   2.670  0.0839 -0.5054  0.0337
  860MOL0     C18595   2.310   8.241   2.380 -0.1268  0.6464  0.3571
  860MOL0     C18596   2.177   8.222   2.440  0.1385  0.1701  0.5364
  860MOL0     C18597   1.773   8.195   2.588  0.2973 -0.6819 -0.1771
  860MOL0     C18598   1.675   8.278   2.530  0.3445 -0.1433 -0.1152
  860MOL0     C18599   1.539   8.251   2.538  0.2441 -0.0210 -0.3052
  860MOL0     C18600   1.496   8.136   2.608  0.2806 -0.2080  0.5984
  860MOL0     O18601   1.367   8.112   2.641  0.6420  0.0759 -0.1726
  860MOL0     C18602   1.261   8.204   2.595 -1.0307  0.6772 -0.1508
  860MOL0     C18603   1.122   8.138   2.607 -0.0191  0.3467 -0.8337
  860MOL0     C18604   1.090   8.111   2.754  0.1342  1.1005  0.2165
  860MOL0     C18605   0.963   8.028   2.781 -0.0820  0.5970  0.1801
  860MOL0     C18606   0.843   8.093   2.737 -0.3028 -0.1656  0.0140
  860MOL0     C18607   0.736   8.134   2.689  0.0665 -0.3700 -1.2587
  860MOL0     C18608   1.593   8.058   2.667  0.2409  0.7259 -0.3854
  860MOL0     C18609   1.727   8.078   2.654  0.3027  1.2338 -0.1901
  860MOL0     C18610   1.812   7.989   2.742 -0.1965 -0.0150  0.1765
  860MOL0     H18611   2.039   8.521   2.382  0.9655  0.3186  1.8754
  860MOL0     H18612   2.247   8.555   2.254  0.3195 -0.2392  0.0774
  860MOL0     H18613   2.506   8.566   2.315 -0.9006 -0.8601 -0.5344
  860MOL0     H18614   2.462   8.561   2.143 -0.0773 -0.9918 -0.0660
  860MOL0     H18615   2.669   8.425   2.106  0.9611 -2.5633  3.2840
  860MOL0     H18616   2.689   8.594   2.152 -1.1686 -0.2019 -2.3386
  860MOL0     H18617   2.794   8.531   2.365  2.9696 -0.7892  0.1230
  860MOL0     H18618   2.710   8.380   2.370 -0.4635  0.7878 -0.5593
  860MOL0     H18619   2.861   8.313   2.182  0.4700  1.8612 -2.2558
  860MOL0     H18620   2.931   8.473   2.186 -0.2867  0.3998 -0.7807
  860MOL0     H18621   2.934   8.278   2.419  1.8390 -1.3598 -0.2041
  860MOL0     H18622   2.990   8.440   2.428 -0.6111 -1.6265  0.5764
  860MOL0     H18623   3.098   8.273   2.201  1.3478 -2.1523  1.3144
  860MOL0     H18624   3.184   8.400   2.283 -0.0721 -0.1724 -2.7128
  860MOL0     H18625   3.269   8.191   2.324  0.0288 -0.2506 -0.9075
  860MOL0     H18626   3.113   8.129   2.393  1.3671 -1.5106 -0.9721
  860MOL0     H18627   3.296   8.350   2.508 -2.1163  1.3857 -0.8198
  860MOL0     H18628   3.133   8.318   2.571  0.5095 -0.1451 -0.8471
  860MOL0     H18629   3.490   8.195   2.599  0.2573  1.2798  4.7449
  860MOL0     H18630   3.612   8.028   2.736 -0.6147  2.1927  0.7891
  860MOL0     H18631   3.523   7.879   2.776 -0.3725 -0.1476 -0.1717
  860MOL0     H18632   3.576   8.117   2.941 -3.3147  3.2609 -0.3263
  860MOL0     H18633   3.406   8.044   2.953  0.0654 -2.3442 -0.8784
  860MOL0     H18634   3.550   7.944   3.118 -2.3104 -2.9957 -0.8638
  860MOL0     H18635   3.502   7.832   3.002 -0.2942 -0.6875  0.0514
  860MOL0     H18636   3.737   7.828   2.905 -3.7352 -2.0030 -0.0505
  860MOL0     H18637   3.761   7.994   2.952  0.6794  0.4982  1.4531
  860MOL0     H18638   3.950   7.836   2.902 -2.0696 -0.6554  1.0934
  860MOL0     H18639   4.289   7.721   2.881  2.1313  2.1677  1.2441
  860MOL0     H18640   4.247   7.884   2.840  2.8204 -1.4567  0.1221
  860MOL0     H18641   4.131   7.751   2.802 -0.0906  2.1109 -0.7599
  860MOL0     H18642   4.515   7.482   3.200  0.3022 -1.5373 -2.0009
  860MOL0     H18643   4.764   7.427   3.181 -0.9701 -0.7577 -1.1006
  860MOL0     H18644   4.997   7.428   3.158  1.9041 -1.7602 -0.3213
  860MOL0     H18645   4.941   7.386   2.985  0.9678  1.9491 -2.4886
  860MOL0     H18646   5.156   7.331   3.012  0.7801  0.2302  1.4150
  860MOL0     H18647   5.127   7.460   2.892 -4.9482  2.2771  0.3107
  860MOL0     H18648   5.248   7.490   3.176 -2.7851  2.3698  0.4652
  860MOL0     H18649   5.222   7.618   3.059  3.1357  0.6997 -1.0014
  860MOL0     H18650   5.388   7.511   2.909 -1.0515  1.7114 -0.6073
  860MOL0     H18651   5.413   7.382   3.029 -1.5396 -1.2958 -0.4797
  860MOL0     H18652   5.471   7.679   3.055  2.9138  0.8964  1.9111
  860MOL0     H18653   5.473   7.564   3.194  0.1919  1.6731  0.4692
  860MOL0     H18654   5.668   7.442   3.077 -1.6055 -0.7412 -1.6908
  860MOL0     H18655   5.693   7.615   3.109 -1.2481 -0.3317  1.9182
  860MOL0     H18656   5.600   7.617   2.845 -2.2705 -1.8318  0.3939
  860MOL0     H18657   5.637   7.454   2.849 -0.3049  0.8120 -1.7331
  860MOL0     H18658   5.848   7.646   2.932  1.4155 -1.6479  0.0158
  860MOL0     H18659   5.816   7.595   2.762 -2.3010 -0.2566 -0.5204
  860MOL0     H18660   4.823   7.789   2.955 -1.4676 -0.2814 -1.9193
  860MOL0     H18661   4.569   7.823   2.969  0.4308 -0.8433 -1.1581
  860MOL0     H18662   4.172   7.790   3.340  0.4160 -2.5873 -0.6496
  860MOL0     H18663   3.928   7.817   3.335 -0.4106  1.2563 -0.4165
  860MOL0     H18664   2.393   8.173   2.399 -1.0578 -0.9910 -1.1529
  860MOL0     H18665   2.154   8.127   2.487 -2.4954 -0.5946 -2.0492
  860MOL0     H18666   1.699   8.364   2.469  0.7073  0.0245  0.2561
  860MOL0     H18667   1.467   8.322   2.498 -1.4715 -2.1498 -1.2297
  860MOL0     H18668   1.260   8.291   2.660 -1.2874 -1.4028  2.8401
  860MOL0     H18669   1.273   8.235   2.491 -0.4403  1.6187  0.1835
  860MOL0     H18670   1.114   8.045   2.549  1.8609  0.1874 -0.8931
  860MOL0     H18671   1.053   8.204   2.553  0.6606  0.1256 -1.9989
  860MOL0     H18672   1.174   8.050   2.787 -0.4543 -1.1447 -2.0898
  860MOL0     H18673   1.090   8.200   2.817 -3.2807 -0.0127  2.0788
  860MOL0     H18674   0.961   8.016   2.890  0.6940  0.5506  0.2012
  860MOL0     H18675   0.963   7.928   2.735 -1.5455  1.7194 -2.4704
  860MOL0     H18676   0.639   8.153   2.649  0.5919  0.3707 -2.2254
  860MOL0     H18677   1.575   7.970   2.729  1.4598  1.2434  0.7723
  860MOL0     H18678   1.820   8.033   2.841  0.6641  0.7878 -0.2337
  860MOL0     H18679   1.773   7.890   2.770  2.1420 -0.2136  3.1262
  860MOL0     H18680   1.911   7.974   2.697 -0.9594  0.3960 -1.7511
  861MOL0     O18681   9.829   4.758   0.117 -0.2485  0.5860 -0.5573
  861MOL0     C18682   9.729   4.731   0.184 -0.3545 -0.5014 -1.1972
  861MOL0     O18683   9.732   4.729   0.326 -0.3306  0.0299 -0.0462
  861MOL0     C18684   9.849   4.724   0.388 -0.4073  0.9232 -0.3192
  861MOL0     C18685   9.921   4.603   0.379 -0.4275 -0.0134  0.5194
  861MOL0     C18686  10.047   4.599   0.446  0.2468  0.2427 -0.4788
  861MOL0     C18687  10.085   4.703   0.535 -0.1676 -0.5467  0.1152
  861MOL0     O18688  10.204   4.693   0.599 -0.3886 -0.4297  0.2191
  861MOL0     C18689  10.231   4.764   0.720  0.6633 -1.0063 -0.0378
  861MOL0     C18690  10.346   4.698   0.800  0.3124 -0.3771 -0.3648
  861MOL0     C18691  10.378   4.756   0.939  0.0664 -0.2553 -0.3520
  861MOL0     C18692  10.531   4.720   0.960  0.6670 -0.0115  0.0935
  861MOL0     C18693  10.557   4.758   1.107  0.5770 -0.3649  0.0527
  861MOL0     C18694  10.710   4.748   1.133 -0.3387 -0.3799 -0.2873
  861MOL0     C18695  10.742   4.746   1.283  0.3376 -0.4473 -0.5705
  861MOL0     C18696  10.728   4.607   1.351  0.3326 -0.2831  0.1836
  861MOL0     N18697  10.838   4.513   1.340 -0.2205 -0.2376  0.5164
  861MOL0     C18698  10.942   4.511   1.428 -0.1271  0.3464 -0.2880
  861MOL0     C18699  11.033   4.415   1.380 -0.0683  0.3268 -0.6005
  861MOL0     C18700  11.158   4.366   1.451  0.1136 -0.0234 -0.6719
  861MOL0     C18701  11.284   4.383   1.373 -0.0781 -0.1248  0.1187
  861MOL0     C18702  11.299   4.300   1.245 -0.4455 -0.2233  0.6030
  861MOL0     C18703  11.435   4.323   1.172 -0.0830  0.5934 -0.7612
  861MOL0     O18704  11.552   4.322   1.260  0.6421  0.1131 -0.4251
  861MOL0     C18705  11.684   4.324   1.214  0.8241  0.1644 -0.0848
  861MOL0     C18706  11.711   4.307   1.084 -0.1971  0.4204  0.0749
  861MOL0     C18707  11.840   4.312   1.024  0.3326  0.1530 -0.6500
  861MOL0     C18708  11.863   4.285   0.879  0.5304  0.5957  0.5276
  861MOL0     C18709  11.947   4.324   1.120  0.5507  0.2047  0.2447
  861MOL0     C18710  12.092   4.319   1.081  0.0804 -0.3869 -0.2998
  861MOL0     O18711  12.176   4.300   1.186 -0.3474 -0.2833  0.8269
  861MOL0     C18712  12.307   4.314   1.143 -0.0656  0.3912 -0.9017
  861MOL0     C18713  12.385   4.196   1.138  0.4990  0.0382 -0.1222
  861MOL0     C18714  12.517   4.200   1.096  0.2462  0.0824 -1.3078
  861MOL0     C18715  12.572   4.319   1.065 -0.2825 -0.2637  0.5121
  861MOL0     O18716  12.708   4.336   1.039  0.3134  0.1353  0.0535
  861MOL0     C18717  12.790   4.220   1.042 -0.3170  0.1450  0.0659
  861MOL0     C18718  12.934   4.258   0.992 -0.0945 -0.3620  0.5604
  861MOL0     C18719  13.004   4.374   1.060 -0.5478  0.7933 -0.4872
  861MOL0     C18720  13.134   4.407   0.986 -0.4844 -0.1769  0.2791
  861MOL0     C18721  13.235   4.498   1.058  0.3010 -0.7308 -0.4289
  861MOL0     C18722  13.381   4.479   1.011  0.3970 -0.0907 -0.0432
  861MOL0     C18723  13.403   4.484   0.854 -0.2968 -0.5987 -0.0888
  861MOL0     C18724  13.548   4.504   0.823 -0.0809  0.5935 -0.2442
  861MOL0    Cl18725  13.586   4.500   0.641  0.7128  0.1419  0.2896
  861MOL0     C18726  12.501   4.438   1.079 -1.1647  0.9465 -0.0866
  861MOL0     C18727  12.363   4.440   1.113  0.5701  0.1705  0.0017
  861MOL0     O18728  12.123   4.329   0.961 -1.0619 -0.7754 -0.0149
  861MOL0     C18729  11.917   4.333   1.259 -0.3080 -0.4391 -0.3964
  861MOL0     C18730  11.790   4.341   1.304 -0.0689 -0.1896 -0.5599
  861MOL0     N18731  10.982   4.370   1.259  0.0184 -0.4591 -0.0258
  861MOL0     N18732  10.860   4.414   1.241  0.2731  0.6330  0.1897
  861MOL0     C18733  10.006   4.815   0.550  0.1312 -0.9559  0.3502
  861MOL0     C18734   9.891   4.830   0.468 -0.5685  0.0888 -0.1841
  861MOL0     C18735   9.600   4.716   0.117  0.1213 -0.4337  0.3274
  861MOL0     C18736   9.496   4.666   0.195 -0.6657  0.2375 -0.8021
  861MOL0     C18737   9.373   4.644   0.139  0.1750 -0.3557  0.3214
  861MOL0     C18738   9.340   4.678   0.006  0.1242  0.1957  0.0177
  861MOL0     O18739   9.215   4.654  -0.052 -0.1228 -0.0018  0.4156
  861MOL0     C18740   9.112   4.598   0.024  0.2223  0.8238  0.0528
  861MOL0     C18741   8.976   4.583  -0.045  0.9813 -0.0154  0.6257
  861MOL0     C18742   8.975   4.560  -0.200  0.6351  0.6137 -0.3437
  861MOL0     C18743   8.855   4.482  -0.252 -1.3031 -0.2993  0.2278
  861MOL0     C18744   8.726   4.549  -0.248 -0.3569  0.1985 -0.1712
  861MOL0     C18745   8.620   4.606  -0.259 -0.0968  0.3188 -0.8117
  861MOL0     C18746   9.447   4.713  -0.074  1.7305  0.5057 -0.8823
  861MOL0     C18747   9.579   4.736  -0.023 -0.9675 -0.3383  0.2833
  861MOL0     C18748   9.678   4.771  -0.124  0.2458 -0.0812 -0.1343
  861MOL0     H18749   9.880   4.523   0.319 -0.4344 -0.5697  1.2532
  861MOL0     H18750  10.115   4.515   0.433 -0.2811 -0.4608  1.0388
  861MOL0     H18751  10.141   4.771   0.782 -0.6774 -0.8699 -1.9186
  861MOL0     H18752  10.258   4.867   0.694  0.5310 -0.9015  0.2312
  861MOL0     H18753  10.322   4.594   0.822  0.5309  0.0319  1.9810
  861MOL0     H18754  10.430   4.709   0.731  2.4347 -2.2062  1.7624
  861MOL0     H18755  10.361   4.864   0.936 -0.3838 -0.2975  0.4783
  861MOL0     H18756  10.321   4.716   1.023  0.8303 -0.1599  0.2313
  861MOL0     H18757  10.537   4.613   0.937 -3.0788 -0.5231  0.8171
  861MOL0     H18758  10.590   4.779   0.889  0.5850  1.3839  1.1331
  861MOL0     H18759  10.505   4.684   1.170  1.9109 -1.8693 -0.5328
  861MOL0     H18760  10.526   4.862   1.121 -1.0806 -0.8117 -0.0441
  861MOL0     H18761  10.756   4.666   1.078  0.3906  0.8615 -1.6217
  861MOL0     H18762  10.755   4.838   1.091  2.3771 -0.0867  2.8590
  861MOL0     H18763  10.684   4.815   1.345  2.7439  2.2820 -1.0986
  861MOL0     H18764  10.846   4.778   1.301 -0.6452  1.3522  2.7178
  861MOL0     H18765  10.720   4.634   1.457  1.0840  1.6199 -0.2031
  861MOL0     H18766  10.635   4.566   1.309 -0.7654  1.2002  1.0425
  861MOL0     H18767  10.960   4.565   1.520 -0.2775 -0.5882  0.3088
  861MOL0     H18768  11.141   4.262   1.480  0.9108  0.6204  2.5204
  861MOL0     H18769  11.164   4.419   1.547  0.0169 -2.0791  0.5186
  861MOL0     H18770  11.290   4.488   1.342  1.6246 -0.6182 -1.4300
  861MOL0     H18771  11.368   4.369   1.440  0.0817 -0.3814 -0.1350
  861MOL0     H18772  11.283   4.195   1.273 -2.3463  0.0859  0.7905
  861MOL0     H18773  11.229   4.332   1.167  2.8042 -0.7635 -2.7949
  861MOL0     H18774  11.442   4.234   1.109  0.6961 -1.8984  2.5675
  861MOL0     H18775  11.440   4.410   1.107  1.9943  0.1059 -1.3186
  861MOL0     H18776  11.629   4.296   1.012 -1.4243 -0.4577  1.5461
  861MOL0     H18777  11.911   4.187   0.870 -1.4844 -0.4349  0.4143
  861MOL0     H18778  11.928   4.355   0.825  0.0236 -1.8928 -3.7787
  861MOL0     H18779  11.765   4.283   0.829 -1.0990  2.7630  3.3485
  861MOL0     H18780  12.329   4.110   1.173 -1.3913  0.6577 -1.4596
  861MOL0     H18781  12.577   4.109   1.098 -0.1626 -0.2511  1.8565
  861MOL0     H18782  12.799   4.175   1.141  1.1029 -1.5127 -0.7546
  861MOL0     H18783  12.764   4.144   0.968  1.5891  0.8504 -1.4251
  861MOL0     H18784  12.992   4.167   1.011 -2.8752 -1.8560  2.7172
  861MOL0     H18785  12.925   4.274   0.884  1.3766  3.5938  0.8497
  861MOL0     H18786  13.037   4.347   1.161  0.4872  1.5704 -0.5989
  861MOL0     H18787  12.955   4.471   1.054  1.9354  2.1098 -0.6769
  861MOL0     H18788  13.106   4.445   0.887 -0.7772 -1.4465 -0.1445
  861MOL0     H18789  13.182   4.310   0.966 -2.1461 -1.1642  0.8821
  861MOL0     H18790  13.207   4.603   1.045  0.5710 -0.8686 -2.4908
  861MOL0     H18791  13.236   4.470   1.164  1.3978 -0.3108 -0.3194
  861MOL0     H18792  13.424   4.386   1.050  1.9597  1.3321  1.7957
  861MOL0     H18793  13.443   4.561   1.049  1.2287 -0.0704 -1.3597
  861MOL0     H18794  13.348   4.571   0.817 -0.2692 -0.4332  0.2614
  861MOL0     H18795  13.369   4.395   0.800  0.6973  0.3568 -2.4623
  861MOL0     H18796  13.600   4.423   0.875  0.7247  1.7625  0.8336
  861MOL0     H18797  13.583   4.601   0.858 -0.2986  1.3286 -1.9429
  861MOL0     H18798  12.548   4.536   1.075 -3.8360  2.5166  2.5996
  861MOL0     H18799  12.315   4.537   1.116  1.8663  0.9339 -1.7976
  861MOL0     H18800  11.993   4.350   1.335  0.2436  0.5539 -1.1414
  861MOL0     H18801  11.771   4.348   1.410  2.7046 -1.1232  0.0795
  861MOL0     H18802  10.036   4.904   0.604 -3.1131  3.0673 -3.7074
  861MOL0     H18803   9.839   4.926   0.471 -1.1039 -0.1521 -1.2737
  861MOL0     H18804   9.512   4.647   0.300 -2.8272  0.4387 -0.3762
  861MOL0     H18805   9.295   4.599   0.199  0.4071  0.5188  1.3064
  861MOL0     H18806   9.145   4.497   0.048  0.6903  1.0914  0.5817
  861MOL0     H18807   9.091   4.645   0.121 -3.2036 -2.7237  1.2993
  861MOL0     H18808   8.916   4.675  -0.044  0.2590 -0.2476 -3.6169
  861MOL0     H18809   8.922   4.504   0.010  0.0527 -0.0362 -0.2700
  861MOL0     H18810   8.982   4.656  -0.252 -3.5677  1.3781  0.1493
  861MOL0     H18811   9.067   4.509  -0.229 -0.7422 -0.7614 -2.5308
  861MOL0     H18812   8.851   4.387  -0.198  2.8078 -0.8073 -0.0215
  861MOL0     H18813   8.876   4.455  -0.356  0.2524  0.1361  0.4077
  861MOL0     H18814   8.535   4.670  -0.256  1.3333  2.2654  1.1176
  861MOL0     H18815   9.419   4.751  -0.172 -2.1445 -0.7907 -0.4476
  861MOL0     H18816   9.631   4.776  -0.223 -1.9397 -0.7283  0.7934
  861MOL0     H18817   9.730   4.865  -0.108  1.2517 -0.5618 -0.5047
  861MOL0     H18818   9.748   4.687  -0.126  0.6410  0.2487 -0.0380
  862MOL0     O18819   4.162   0.202   3.389 -0.4485 -0.4146 -0.8442
  862MOL0     C18820   4.095   0.225   3.493 -0.1372  0.4223 -0.4380
  862MOL0     O18821   4.146   0.238   3.619 -0.0960 -0.3437 -0.4051
  862MOL0     C18822   4.275   0.189   3.628  0.7285 -0.5667  0.4598
  862MOL0     C18823   4.280   0.055   3.632 -0.0539  0.3499  0.3709
  862MOL0     C18824   4.391  -0.013   3.663 -0.0750 -0.2650 -0.0716
  862MOL0     C18825   4.509   0.047   3.673 -0.0733 -0.0212 -0.3440
  862MOL0     O18826   4.626  -0.028   3.684 -0.2893 -0.6293 -0.3986
  862MOL0     C18827   4.752   0.031   3.654  0.3454 -0.0899 -1.2226
  862MOL0     C18828   4.856  -0.078   3.682  0.1519  0.3186 -0.5541
  862MOL0     C18829   4.991  -0.010   3.698  0.4100 -0.4524 -0.9818
  862MOL0     C18830   5.106  -0.107   3.729  0.2650  0.4315  0.7034
  862MOL0     C18831   5.245  -0.033   3.749  0.6576  0.0297 -0.4483
  862MOL0     C18832   5.364  -0.126   3.760 -0.3157 -0.9035 -0.9075
  862MOL0     C18833   5.494  -0.070   3.702  0.1742 -0.2552  1.0214
  862MOL0     C18834   5.581  -0.194   3.670  0.3786  0.0348  0.1920
  862MOL0     N18835   5.719  -0.158   3.624  0.5735 -0.4848  0.5757
  862MOL0     C18836   5.824  -0.152   3.712 -0.0561 -0.0720  0.4517
  862MOL0     C18837   5.939  -0.136   3.642  0.4209  1.0200  0.1671
  862MOL0     C18838   6.079  -0.125   3.705 -0.3959 -0.1053 -0.2169
  862MOL0     C18839   6.082   0.028   3.719 -0.9133 -0.0033  0.3821
  862MOL0     C18840   6.229   0.064   3.753  0.5857  0.3879 -0.1731
  862MOL0     C18841   6.233   0.203   3.809 -0.3659 -0.0909  0.0849
  862MOL0     O18842   6.203   0.189   3.945 -0.2281  0.4254 -0.5116
  862MOL0     C18843   6.168   0.306   4.013  0.5375  0.0954 -0.0545
  862MOL0     C18844   6.144   0.289   4.143 -0.0843 -0.8434 -0.7327
  862MOL0     C18845   6.137   0.398   4.233 -0.2186  0.0758  0.2094
  862MOL0     C18846   6.112   0.373   4.376  0.5707  0.2386  0.8085
  862MOL0     C18847   6.121   0.533   4.177 -0.3859  1.6442 -0.4430
  862MOL0     C18848   6.090   0.649   4.262 -0.3323  0.1999  0.0210
  862MOL0     O18849   6.122   0.767   4.199 -0.2862 -0.4388  0.2654
  862MOL0     C18850   6.032   0.860   4.230  0.2979 -0.8274  0.9071
  862MOL0     C18851   5.943   0.891   4.126  0.1645  0.0941  0.1850
  862MOL0     C18852   5.836   0.979   4.154  0.3145 -0.5701  0.1805
  862MOL0     C18853   5.845   1.068   4.261 -0.4551 -1.0149 -0.2346
  862MOL0     O18854   5.762   1.168   4.258  0.2899 -0.5611  1.0673
  862MOL0     C18855   5.715   1.242   4.379 -0.0806  0.6565  0.0804
  862MOL0     C18856   5.633   1.160   4.481  0.0400 -0.2943  0.0076
  862MOL0     C18857   5.493   1.148   4.433 -0.7299  0.1690 -0.3155
  862MOL0     C18858   5.401   1.054   4.522  0.6521  0.1751  0.5069
  862MOL0     C18859   5.265   1.054   4.468 -0.6548 -0.0372  0.2266
  862MOL0     C18860   5.182   0.966   4.546 -0.2451  0.3752 -0.5331
  862MOL0     C18861   5.031   0.991   4.516  0.2760  0.2798  0.5059
  862MOL0     C18862   4.954   0.886   4.580  0.0916 -0.4036 -0.8265
  862MOL0    Cl18863   4.771   0.893   4.556  0.0713 -0.3651 -0.0685
  862MOL0     C18864   5.937   1.039   4.365 -0.2149 -0.0068 -0.6162
  862MOL0     C18865   6.029   0.932   4.348 -0.2090  0.8467  0.0318
  862MOL0     O18866   6.018   0.634   4.361  1.3780 -0.7403  0.0287
  862MOL0     C18867   6.150   0.553   4.039  0.1684  0.1260 -0.4699
  862MOL0     C18868   6.168   0.440   3.963 -0.1954 -0.0274  0.1501
  862MOL0     N18869   5.900  -0.144   3.508 -0.4504  0.2816  0.0639
  862MOL0     N18870   5.774  -0.143   3.502 -0.5492  0.0569 -0.9990
  862MOL0     C18871   4.511   0.193   3.686  0.0082 -0.4915 -0.2707
  862MOL0     C18872   4.395   0.261   3.658  0.0368  0.4518  0.3542
  862MOL0     C18873   3.948   0.231   3.497 -1.1409 -0.0205  0.4897
  862MOL0     C18874   3.875   0.224   3.623 -0.3793 -0.4211  0.5409
  862MOL0     C18875   3.737   0.219   3.629 -0.0927  0.2308 -0.7349
  862MOL0     C18876   3.664   0.237   3.514 -0.7324 -0.4556 -1.3857
  862MOL0     O18877   3.528   0.241   3.515  0.2958  0.0922  0.0336
  862MOL0     C18878   3.446   0.221   3.626  0.7815  0.0343 -0.1238
  862MOL0     C18879   3.294   0.200   3.598 -0.8498  0.3293 -0.6556
  862MOL0     C18880   3.212   0.143   3.717 -0.2937 -0.6389 -0.1269
  862MOL0     C18881   3.067   0.143   3.674  1.3281  0.4855  0.3984
  862MOL0     C18882   2.980   0.119   3.781 -0.0269  0.1324 -1.0397
  862MOL0     C18883   2.907   0.085   3.870 -0.0406  0.0816  0.2124
  862MOL0     C18884   3.726   0.246   3.392 -0.9836 -0.0314 -0.0164
  862MOL0     C18885   3.867   0.231   3.381  1.0005  0.0077  0.2507
  862MOL0     C18886   3.924   0.257   3.246  0.3304  0.2299  0.9705
  862MOL0     H18887   4.184   0.008   3.621  0.6464 -1.2345  0.7536
  862MOL0     H18888   4.366  -0.116   3.689  2.7135 -0.3892  2.6653
  862MOL0     H18889   4.767   0.118   3.719 -0.0618 -0.9610  0.0681
  862MOL0     H18890   4.763   0.063   3.550 -1.7266 -0.1720 -1.5026
  862MOL0     H18891   4.827  -0.126   3.776 -1.5165 -0.4172 -1.4084
  862MOL0     H18892   4.869  -0.157   3.607 -0.4556 -0.7036  0.3812
  862MOL0     H18893   5.006   0.048   3.606 -3.9009  0.6308 -1.1835
  862MOL0     H18894   4.999   0.058   3.783  0.3079 -0.7825 -0.7053
  862MOL0     H18895   5.088  -0.168   3.818 -1.5938  0.1961  0.2109
  862MOL0     H18896   5.125  -0.171   3.643  1.7334  1.2423  0.3866
  862MOL0     H18897   5.241   0.018   3.846  2.1288  0.1789 -0.4553
  862MOL0     H18898   5.263   0.042   3.671 -2.1389  3.0741  1.5312
  862MOL0     H18899   5.370  -0.158   3.865 -1.5473  3.4692  0.7505
  862MOL0     H18900   5.346  -0.219   3.706  1.8097 -1.4327 -0.7738
  862MOL0     H18901   5.547   0.010   3.755 -1.2460  2.5919 -1.5625
  862MOL0     H18902   5.464  -0.020   3.610  0.3338 -1.1556  0.4730
  862MOL0     H18903   5.603  -0.253   3.760  0.4648 -0.6930 -0.2917
  862MOL0     H18904   5.527  -0.257   3.598 -1.9423 -1.0412  2.6655
  862MOL0     H18905   5.816  -0.157   3.820  0.6242  3.0863  0.7583
  862MOL0     H18906   6.150  -0.176   3.639 -0.8432  0.9308 -1.5471
  862MOL0     H18907   6.083  -0.169   3.805  1.2542 -0.8637 -0.5793
  862MOL0     H18908   6.049   0.086   3.633 -1.9192  2.5119  2.3312
  862MOL0     H18909   6.004   0.062   3.789 -0.9477  0.6622  0.0269
  862MOL0     H18910   6.263  -0.006   3.830 -1.3837  0.6734  1.0323
  862MOL0     H18911   6.291   0.050   3.664  0.4489 -1.2135 -0.0547
  862MOL0     H18912   6.334   0.246   3.804 -0.2295 -0.5094 -0.9350
  862MOL0     H18913   6.162   0.268   3.756  2.1271  0.0771 -3.4287
  862MOL0     H18914   6.135   0.189   4.183 -0.6633 -0.6383 -0.3382
  862MOL0     H18915   6.168   0.439   4.443  0.3939  1.1462  0.0824
  862MOL0     H18916   6.148   0.272   4.394 -0.7737 -0.6285 -0.9665
  862MOL0     H18917   6.004   0.381   4.391  0.5651  2.7026 -0.0794
  862MOL0     H18918   5.941   0.837   4.032 -1.5251  1.6951 -0.7668
  862MOL0     H18919   5.760   0.981   4.076 -0.3776 -4.0463  0.6033
  862MOL0     H18920   5.803   1.283   4.429  0.0984  1.7046 -1.0567
  862MOL0     H18921   5.652   1.321   4.337 -2.4288 -1.3453 -0.4163
  862MOL0     H18922   5.667   1.057   4.493 -0.7923 -0.5132  0.5968
  862MOL0     H18923   5.638   1.211   4.577 -2.0087  0.0315 -0.0043
  862MOL0     H18924   5.499   1.109   4.331  2.2070 -1.7216  0.4485
  862MOL0     H18925   5.440   1.243   4.421 -2.2046 -0.9403 -4.0817
  862MOL0     H18926   5.402   1.097   4.623  0.7078  0.4336  0.3982
  862MOL0     H18927   5.434   0.950   4.525 -1.4824 -0.6804 -1.9433
  862MOL0     H18928   5.231   1.158   4.473 -2.0805 -0.4668  0.0215
  862MOL0     H18929   5.257   1.021   4.365 -1.9972 -2.8541  1.1363
  862MOL0     H18930   5.191   0.984   4.653 -1.5513  1.6662 -0.6122
  862MOL0     H18931   5.207   0.862   4.526 -1.4411 -0.2749  1.1624
  862MOL0     H18932   5.016   0.984   4.408  1.5608 -2.5757  0.4277
  862MOL0     H18933   4.996   1.088   4.552  1.3203 -0.1127  2.7442
  862MOL0     H18934   4.960   0.887   4.689  2.0956 -2.0916 -0.8611
  862MOL0     H18935   4.994   0.792   4.540 -0.7793  0.0768 -2.9657
  862MOL0     H18936   5.934   1.102   4.454  0.6213 -0.1414 -0.4838
  862MOL0     H18937   6.104   0.902   4.421  0.1710 -1.6167 -1.2702
  862MOL0     H18938   6.149   0.653   3.998 -1.1447  1.4588  2.4831
  862MOL0     H18939   6.202   0.460   3.862  0.9975 -1.0879  0.3228
  862MOL0     H18940   4.601   0.253   3.693 -0.3507  0.0728 -0.4141
  862MOL0     H18941   4.396   0.369   3.658  0.6393  0.4538 -0.4582
  862MOL0     H18942   3.932   0.198   3.712 -1.1690 -0.8554  0.9338
  862MOL0     H18943   3.695   0.210   3.729  1.8543 -0.0748  0.1018
  862MOL0     H18944   3.479   0.134   3.685  1.5973  0.1081 -0.4580
  862MOL0     H18945   3.465   0.307   3.691 -0.2115  0.2429 -0.0966
  862MOL0     H18946   3.301   0.115   3.530  0.4133 -1.2624  1.3826
  862MOL0     H18947   3.256   0.296   3.559 -2.4348 -0.2947 -0.7217
  862MOL0     H18948   3.241   0.041   3.745  0.6134 -0.9635 -2.0828
  862MOL0     H18949   3.244   0.201   3.804  0.9101 -4.4985  2.2721
  862MOL0     H18950   3.046   0.063   3.602 -4.6809  2.3381 -0.5200
  862MOL0     H18951   3.039   0.227   3.610 -2.3965 -1.8094 -1.3980
  862MOL0     H18952   2.843   0.057   3.952  0.1140  0.2353  0.3849
  862MOL0     H18953   3.662   0.267   3.307  1.5860  3.0899 -1.4196
  862MOL0     H18954   3.851   0.273   3.166  0.2617 -0.6853  0.8397
  862MOL0     H18955   3.979   0.352   3.245  0.8417 -0.0499 -0.7023
  862MOL0     H18956   3.988   0.173   3.218  2.3919  1.2154  2.5005
  863MOL0     O18957   2.764   3.850   1.316  0.1907  0.3750 -0.2553
  863MOL0     C18958   2.795   3.742   1.272  0.6053  0.0562  0.2761
  863MOL0     O18959   2.923   3.692   1.256 -1.4844  0.4477  0.0967
  863MOL0     C18960   3.035   3.767   1.263  0.2674 -0.5579  0.4588
  863MOL0     C18961   3.155   3.697   1.251  0.2343  0.1329 -0.0887
  863MOL0     C18962   3.276   3.757   1.255 -0.9359 -0.2184  0.3044
  863MOL0     C18963   3.288   3.897   1.272 -0.4555  0.2778  0.3306
  863MOL0     O18964   3.416   3.945   1.278 -0.4442 -0.0932  0.1466
  863MOL0     C18965   3.455   4.066   1.348 -0.2899 -0.1905 -0.1767
  863MOL0     C18966   3.597   4.027   1.395  0.6067  0.6541 -0.4742
  863MOL0     C18967   3.694   4.141   1.363  0.0025  0.4024 -0.1928
  863MOL0     C18968   3.842   4.109   1.402 -0.4988 -0.2730  0.3736
  863MOL0     C18969   3.947   4.195   1.333  0.6034 -0.2302 -0.1377
  863MOL0     C18970   4.084   4.144   1.390  0.7165 -0.1071 -0.1841
  863MOL0     C18971   4.191   4.242   1.380 -0.3144 -0.2809  0.0542
  863MOL0     C18972   4.221   4.280   1.235  0.6765  0.1352 -0.1139
  863MOL0     N18973   4.327   4.377   1.221 -0.1287  0.4186  0.5858
  863MOL0     C18974   4.308   4.513   1.239  0.3257  0.2270  0.4968
  863MOL0     C18975   4.434   4.560   1.252 -0.7088 -0.3422 -0.8824
  863MOL0     C18976   4.471   4.710   1.289 -0.0838  0.1008 -0.1599
  863MOL0     C18977   4.616   4.725   1.355 -0.0617 -0.7923  0.2019
  863MOL0     C18978   4.672   4.872   1.358 -0.1175  0.6576 -0.0033
  863MOL0     C18979   4.700   4.919   1.217 -0.2512  0.7955  0.2325
  863MOL0     O18980   4.786   5.033   1.200 -0.4213 -0.3442 -0.1421
  863MOL0     C18981   4.922   5.005   1.169 -0.7013 -0.2913 -1.0631
  863MOL0     C18982   4.984   5.110   1.099  0.1621 -0.0267  0.3162
  863MOL0     C18983   5.108   5.106   1.039 -0.0745 -0.9081  0.7254
  863MOL0     C18984   5.156   5.204   0.934 -0.3808 -0.2685  0.8656
  863MOL0     C18985   5.200   5.003   1.081  0.4484 -0.6736  0.5532
  863MOL0     C18986   5.345   4.991   1.048  0.5518  0.1615  0.3232
  863MOL0     O18987   5.422   4.895   1.111  0.3600 -0.0443  0.0752
  863MOL0     C18988   5.557   4.897   1.092 -0.2213  0.2390  0.1728
  863MOL0     C18989   5.634   5.004   1.143 -0.3579  0.0840  0.0937
  863MOL0     C18990   5.776   4.995   1.131  0.7242  0.3782 -0.3980
  863MOL0     C18991   5.834   4.884   1.058 -0.1118  0.7303 -0.4062
  863MOL0     O18992   5.969   4.894   1.042 -0.1540 -0.3813 -0.3961
  863MOL0     C18993   6.024   4.766   1.073 -1.9149 -0.6218 -1.3766
  863MOL0     C18994   6.173   4.777   1.042 -0.5061  0.0429  0.1836
  863MOL0     C18995   6.260   4.834   1.147 -0.2836  0.5113  0.0581
  863MOL0     C18996   6.393   4.781   1.174  0.1499 -0.5262  0.7136
  863MOL0     C18997   6.491   4.812   1.058  0.2764 -0.5810  0.1346
  863MOL0     C18998   6.635   4.789   1.094  0.6963 -0.9580  0.1982
  863MOL0     C18999   6.668   4.644   1.076  0.0252  1.0448 -0.6071
  863MOL0     C19000   6.814   4.608   1.111 -0.4139  0.1261 -0.7535
  863MOL0    Cl19001   6.833   4.572   1.282 -0.3721 -0.0485 -0.0108
  863MOL0     C19002   5.755   4.780   1.013  0.7225 -0.0731  0.4843
  863MOL0     C19003   5.615   4.791   1.021  0.1788  0.4104  0.0299
  863MOL0     O19004   5.391   5.068   0.966  1.3840  0.2761 -0.1080
  863MOL0     C19005   5.140   4.901   1.161  0.8999 -0.3804  0.1755
  863MOL0     C19006   5.004   4.893   1.190 -0.0472  0.2345 -0.0664
  863MOL0     N19007   4.532   4.456   1.234  1.0624 -0.3367 -0.2517
  863MOL0     N19008   4.460   4.346   1.223 -0.9067  0.0406  0.4073
  863MOL0     C19009   3.173   3.973   1.292  0.8034  0.3782 -1.0932
  863MOL0     C19010   3.047   3.912   1.285  0.7096  0.3125 -0.2077
  863MOL0     C19011   2.684   3.632   1.260 -0.4088 -0.4325 -0.1682
  863MOL0     C19012   2.711   3.499   1.307  1.4369  0.4586  0.0517
  863MOL0     C19013   2.607   3.404   1.302  0.8021 -0.4931  0.4368
  863MOL0     C19014   2.492   3.427   1.227 -0.0823 -0.0307  0.3349
  863MOL0     O19015   2.383   3.345   1.217 -0.1689  0.1949 -0.5232
  863MOL0     C19016   2.385   3.218   1.280  0.3718 -0.8297  0.4189
  863MOL0     C19017   2.328   3.232   1.421 -0.1248  0.2227 -0.3491
  863MOL0     C19018   2.185   3.288   1.420 -0.1505 -0.2502  0.3584
  863MOL0     C19019   2.171   3.378   1.539  0.7302  0.7583  0.7772
  863MOL0     C19020   2.198   3.307   1.666 -0.2405 -0.3167 -0.4002
  863MOL0     C19021   2.229   3.250   1.764 -0.8730 -1.4187 -0.7409
  863MOL0     C19022   2.473   3.562   1.176  0.6337  0.0609 -0.4744
  863MOL0     C19023   2.562   3.658   1.196 -0.0859  0.0301  0.1633
  863MOL0     C19024   2.524   3.794   1.155  0.5370 -0.0061 -0.0114
  863MOL0     H19025   3.152   3.591   1.227  4.4259 -0.0557 -0.4761
  863MOL0     H19026   3.371   3.704   1.248 -0.1778  0.2743  4.3142
  863MOL0     H19027   3.388   4.087   1.431 -0.3297 -1.6395  0.1784
  863MOL0     H19028   3.461   4.154   1.283 -0.0757  0.4633  0.7090
  863MOL0     H19029   3.597   3.999   1.500 -3.3095  0.3722 -0.4020
  863MOL0     H19030   3.629   3.938   1.340  2.9608  1.4832 -0.5553
  863MOL0     H19031   3.681   4.150   1.255  1.8673  0.1676 -0.4736
  863MOL0     H19032   3.665   4.241   1.398  1.3075  0.5947  0.4243
  863MOL0     H19033   3.849   4.138   1.507  3.0372 -2.2409  0.8181
  863MOL0     H19034   3.867   4.002   1.394 -0.3860 -0.4358  2.3850
  863MOL0     H19035   3.939   4.301   1.359 -0.1646 -0.6440  1.4542
  863MOL0     H19036   3.956   4.189   1.224  0.7409  2.9765 -0.3871
  863MOL0     H19037   4.079   4.123   1.497 -0.2008 -0.4371 -0.2788
  863MOL0     H19038   4.105   4.049   1.341 -1.3494 -0.6320 -0.1403
  863MOL0     H19039   4.282   4.196   1.419  1.2365  0.1780 -2.7064
  863MOL0     H19040   4.167   4.333   1.436 -0.4731 -1.0303  1.2238
  863MOL0     H19041   4.255   4.195   1.175  1.9962  1.7460 -1.8090
  863MOL0     H19042   4.128   4.315   1.190 -0.4146  1.4505  2.8738
  863MOL0     H19043   4.213   4.561   1.258  0.5867  0.4344  1.3281
  863MOL0     H19044   4.396   4.763   1.349  1.2145  1.6214  0.1759
  863MOL0     H19045   4.473   4.758   1.191 -2.5213  2.2450  0.7217
  863MOL0     H19046   4.617   4.695   1.460  1.7142  2.4751  1.2679
  863MOL0     H19047   4.680   4.655   1.301  2.3394  1.5796 -0.2626
  863MOL0     H19048   4.610   4.936   1.423 -0.3502  0.1683  0.2623
  863MOL0     H19049   4.769   4.860   1.407 -0.8386 -2.0040  0.9163
  863MOL0     H19050   4.733   4.838   1.151  0.9419  2.1115 -0.8371
  863MOL0     H19051   4.603   4.957   1.185 -0.4111  2.9500  2.9421
  863MOL0     H19052   4.912   5.185   1.067 -1.5445 -0.6095  2.5448
  863MOL0     H19053   5.186   5.160   0.838  2.1634 -0.5938  1.7353
  863MOL0     H19054   5.240   5.263   0.974 -0.1192 -1.0895  1.5555
  863MOL0     H19055   5.076   5.275   0.914 -0.7769 -1.0143 -0.2623
  863MOL0     H19056   5.587   5.082   1.202  0.8643 -0.3696  1.7294
  863MOL0     H19057   5.850   5.065   1.169  3.1447 -2.7519  1.1771
  863MOL0     H19058   6.009   4.730   1.175 -0.6628  0.0494 -0.9369
  863MOL0     H19059   5.983   4.688   1.007 -2.5759 -1.5928  0.1187
  863MOL0     H19060   6.206   4.674   1.027 -1.0395 -0.0879 -0.1309
  863MOL0     H19061   6.192   4.842   0.956 -0.6025  1.0599  0.9142
  863MOL0     H19062   6.215   4.822   1.246  0.3783 -1.1264  0.1798
  863MOL0     H19063   6.269   4.942   1.129  0.1746  0.7274  1.4697
  863MOL0     H19064   6.396   4.675   1.201 -0.6430 -0.2030  2.1972
  863MOL0     H19065   6.431   4.823   1.268 -0.4323 -2.9295  2.1177
  863MOL0     H19066   6.482   4.754   0.966  0.7450  1.9121 -1.5669
  863MOL0     H19067   6.481   4.917   1.026 -1.0661 -1.5038 -2.8623
  863MOL0     H19068   6.656   4.831   1.193  1.3552 -1.4820  0.2935
  863MOL0     H19069   6.681   4.853   1.018  0.6652 -0.2470  0.7704
  863MOL0     H19070   6.648   4.609   0.974 -1.5946 -1.2631  0.4107
  863MOL0     H19071   6.604   4.582   1.138 -1.0798  0.8458 -1.9051
  863MOL0     H19072   6.876   4.698   1.096 -2.6483  2.0540  0.8718
  863MOL0     H19073   6.842   4.514   1.063  1.0259  1.0082 -1.7368
  863MOL0     H19074   5.782   4.699   0.945 -2.0464 -0.7695  0.1204
  863MOL0     H19075   5.561   4.709   0.976  2.9321 -2.0496  0.8887
  863MOL0     H19076   5.192   4.811   1.192 -1.6556 -1.6862  0.9729
  863MOL0     H19077   4.971   4.807   1.247  3.4268  0.4940  2.7472
  863MOL0     H19078   3.175   4.082   1.289 -2.4527  0.5431 -0.9014
  863MOL0     H19079   2.956   3.971   1.281  0.1003 -0.6418 -3.1827
  863MOL0     H19080   2.808   3.491   1.354  2.4767  1.2611 -1.8695
  863MOL0     H19081   2.618   3.302   1.337 -3.8584 -0.3917  2.9270
  863MOL0     H19082   2.312   3.153   1.231 -1.9670  1.0822  1.1096
  863MOL0     H19083   2.485   3.177   1.271  1.0793  0.6976  0.9486
  863MOL0     H19084   2.395   3.295   1.480  0.8070 -1.0340 -0.0059
  863MOL0     H19085   2.337   3.129   1.457  1.4197  0.4616  0.0305
  863MOL0     H19086   2.165   3.340   1.326  0.0172 -0.0866  0.4122
  863MOL0     H19087   2.111   3.207   1.422 -1.3119  0.7933  1.9735
  863MOL0     H19088   2.075   3.430   1.538  0.3445  0.0518 -0.1840
  863MOL0     H19089   2.246   3.456   1.523 -0.0971  1.2910 -0.6355
  863MOL0     H19090   2.261   3.203   1.856  0.2580  0.3656 -0.1740
  863MOL0     H19091   2.384   3.589   1.120 -0.5240  1.3993  1.8578
  863MOL0     H19092   2.511   3.850   1.248  2.4560  1.1444 -0.3850
  863MOL0     H19093   2.610   3.830   1.098  0.1527 -1.4478 -1.6060
  863MOL0     H19094   2.441   3.792   1.085  1.3356  1.2849 -1.0349
  864MOL0     O19095  10.114   8.781   3.431  0.5491  0.1927 -0.1186
  864MOL0     C19096  10.124   8.807   3.545 -0.0978  0.0850  0.9337
  864MOL0     O19097  10.247   8.838   3.601 -0.1300 -0.1171 -0.3583
  864MOL0     C19098  10.358   8.863   3.520  0.2588 -0.0662  1.1030
  864MOL0     C19099  10.400   8.761   3.435 -0.1481  0.0740 -0.0796
  864MOL0     C19100  10.513   8.771   3.352 -0.5854  0.8706 -0.0801
  864MOL0     C19101  10.588   8.890   3.358  0.1025 -0.4088  0.2118
  864MOL0     O19102  10.686   8.908   3.260  0.4785 -0.2050  0.0590
  864MOL0     C19103  10.788   9.010   3.291  0.5026  0.8985 -0.1115
  864MOL0     C19104  10.914   9.001   3.200  0.5961  0.3674  0.0750
  864MOL0     C19105  10.889   8.989   3.050 -0.3778 -0.0998  0.1895
  864MOL0     C19106  11.003   8.923   2.981  0.4615  0.3048  0.2867
  864MOL0     C19107  10.975   8.909   2.837  0.4940 -0.3761 -0.5021
  864MOL0     C19108  11.094   8.827   2.777 -0.1910 -0.3639  0.2452
  864MOL0     C19109  11.082   8.824   2.621  0.0368  0.2116 -0.1372
  864MOL0     C19110  11.183   8.741   2.563 -0.3468  0.4249  0.5582
  864MOL0     N19111  11.174   8.594   2.569 -0.0610  0.5505  0.6054
  864MOL0     C19112  11.058   8.523   2.588  0.0730  0.3065  0.1035
  864MOL0     C19113  11.094   8.394   2.612  0.0719 -0.3070 -0.1236
  864MOL0     C19114  11.000   8.279   2.613 -0.0902 -0.3581 -0.7238
  864MOL0     C19115  10.902   8.306   2.725  1.1211 -0.3195 -0.6515
  864MOL0     C19116  10.982   8.313   2.860  0.0749  0.0127  0.0032
  864MOL0     C19117  10.888   8.338   2.976  0.9075  0.7664 -0.1298
  864MOL0     O19118  10.806   8.230   3.014  0.3756  0.1925 -0.7390
  864MOL0     C19119  10.709   8.254   3.104 -0.5993 -0.9354  0.3189
  864MOL0     C19120  10.618   8.144   3.117 -0.0223  0.7248 -0.5866
  864MOL0     C19121  10.508   8.150   3.221 -0.0951 -1.0466  0.1724
  864MOL0     C19122  10.407   8.040   3.247  0.7206  0.1022  0.2383
  864MOL0     C19123  10.494   8.271   3.292 -0.3793 -1.0199  0.1031
  864MOL0     C19124  10.395   8.285   3.404  0.1846  0.3628 -0.0457
  864MOL0     O19125  10.368   8.408   3.441  0.2634  0.7395 -0.0871
  864MOL0     C19126  10.272   8.421   3.546 -0.1390 -0.0396 -0.2029
  864MOL0     C19127  10.138   8.368   3.535 -0.4860 -0.4314  0.9160
  864MOL0     C19128  10.052   8.382   3.637  1.0839 -0.7773  0.1156
  864MOL0     C19129  10.088   8.438   3.761 -0.8093 -0.6073 -0.0006
  864MOL0     O19130   9.993   8.445   3.860  0.1179 -0.4135 -0.1858
  864MOL0     C19131  10.029   8.501   3.988 -0.2531  0.3858  0.2723
  864MOL0     C19132   9.908   8.506   4.079 -0.3053 -0.5801  0.0930
  864MOL0     C19133   9.812   8.386   4.090 -0.5873  0.0659  0.3081
  864MOL0     C19134   9.701   8.416   4.193 -0.0827 -0.1759  0.3039
  864MOL0     C19135   9.612   8.291   4.199  0.7121 -1.0059 -0.6730
  864MOL0     C19136   9.504   8.284   4.313 -0.1197  0.1136 -0.0539
  864MOL0     C19137   9.398   8.183   4.288  0.8594  0.0079 -1.0629
  864MOL0     C19138   9.306   8.223   4.173 -0.0473 -0.3604  0.5736
  864MOL0    Cl19139   9.150   8.137   4.192  0.1151  0.1065  0.4363
  864MOL0     C19140  10.219   8.493   3.768  0.0818  0.6524 -0.3411
  864MOL0     C19141  10.312   8.481   3.659 -0.0075  0.0222 -0.0063
  864MOL0     O19142  10.372   8.188   3.472 -0.0684 -0.5018  0.2860
  864MOL0     C19143  10.584   8.381   3.264 -0.5564  0.1228  0.0029
  864MOL0     C19144  10.686   8.368   3.170 -0.1675 -0.4687  0.6704
  864MOL0     N19145  11.234   8.384   2.610 -0.6809 -0.7109  0.2113
  864MOL0     N19146  11.280   8.506   2.588 -0.0652 -0.6898  0.2290
  864MOL0     C19147  10.552   8.994   3.451  0.1048  0.4644 -0.3418
  864MOL0     C19148  10.433   8.976   3.528 -0.8135 -0.6091  0.4118
  864MOL0     C19149  10.003   8.796   3.630 -0.1445 -0.2163 -0.6942
  864MOL0     C19150   9.911   8.691   3.600  0.2901 -0.6334  0.0371
  864MOL0     C19151   9.795   8.666   3.676 -1.0442 -0.6054 -0.2725
  864MOL0     C19152   9.763   8.750   3.789  0.3790  0.0370  0.0166
  864MOL0     O19153   9.645   8.741   3.868 -0.2267  0.9783 -0.3319
  864MOL0     C19154   9.576   8.611   3.864 -0.5379  0.0047  0.3695
  864MOL0     C19155   9.460   8.630   3.956 -0.1407  0.4120 -0.4173
  864MOL0     C19156   9.367   8.747   3.927  0.1805  0.4882  0.2115
  864MOL0     C19157   9.328   8.752   3.775  0.5780  0.1700  1.1531
  864MOL0     C19158   9.202   8.817   3.741  0.0489  0.1398 -0.3791
  864MOL0     C19159   9.097   8.863   3.704 -0.7507 -0.1807  0.7577
  864MOL0     C19160   9.866   8.845   3.822  0.1703  0.1709 -0.6835
  864MOL0     C19161   9.975   8.865   3.743 -0.1183 -0.0514 -0.1613
  864MOL0     C19162  10.052   8.985   3.774  0.0918 -0.0320 -0.3747
  864MOL0     H19163  10.337   8.674   3.418 -1.3856  0.9252  0.0228
  864MOL0     H19164  10.525   8.693   3.278 -0.9959 -1.1037  1.8310
  864MOL0     H19165  10.815   9.019   3.396 -2.1909  2.3058  0.5327
  864MOL0     H19166  10.749   9.107   3.260 -0.3078  0.3621 -0.8373
  864MOL0     H19167  10.962   9.097   3.219 -0.3610  0.9086 -0.1593
  864MOL0     H19168  10.974   8.918   3.238 -0.8582 -0.2305  1.1804
  864MOL0     H19169  10.792   8.941   3.030 -1.4921  2.0012  0.2388
  864MOL0     H19170  10.878   9.093   3.018 -3.0290 -0.4358 -0.2803
  864MOL0     H19171  11.083   8.996   2.999 -1.8473  3.5499 -1.5291
  864MOL0     H19172  11.023   8.820   3.011  0.7112  0.4938  0.7828
  864MOL0     H19173  10.959   9.010   2.800 -2.2616 -0.7919 -0.6218
  864MOL0     H19174  10.880   8.857   2.825  0.5478 -0.4061 -0.8035
  864MOL0     H19175  11.192   8.869   2.801 -0.4677  1.5402 -1.6419
  864MOL0     H19176  11.103   8.722   2.806  0.1355 -1.3935 -3.1411
  864MOL0     H19177  11.099   8.927   2.587  1.6419  0.7237  2.0001
  864MOL0     H19178  10.984   8.783   2.594 -0.4904  0.9093  0.6632
  864MOL0     H19179  11.177   8.760   2.455  1.4934  1.5086  0.5906
  864MOL0     H19180  11.282   8.777   2.593  0.6507  0.5846 -2.5627
  864MOL0     H19181  10.960   8.567   2.578  0.5590  1.4390  0.2551
  864MOL0     H19182  11.056   8.190   2.642  0.9104  0.5805  0.3248
  864MOL0     H19183  10.933   8.270   2.527 -1.5602 -0.1250  0.3545
  864MOL0     H19184  10.844   8.395   2.701 -1.3290 -2.4143 -3.2129
  864MOL0     H19185  10.825   8.228   2.729  0.6673  0.1561  2.6023
  864MOL0     H19186  11.025   8.217   2.890 -2.1706 -0.0984  3.4581
  864MOL0     H19187  11.063   8.386   2.859  1.9327 -1.7693  3.3148
  864MOL0     H19188  10.949   8.355   3.066  2.4233 -2.0822 -0.5019
  864MOL0     H19189  10.834   8.429   2.946  2.3245  1.2718 -1.2480
  864MOL0     H19190  10.625   8.058   3.052 -0.9643  0.7471 -0.7205
  864MOL0     H19191  10.416   7.967   3.166 -2.2425  2.1767 -2.1928
  864MOL0     H19192  10.305   8.079   3.246  0.3585 -0.8129  0.7234
  864MOL0     H19193  10.414   7.990   3.343 -0.9904  1.8162  1.3392
  864MOL0     H19194  10.108   8.312   3.447 -0.1070 -1.8212  1.6438
  864MOL0     H19195   9.951   8.342   3.633  0.0146  1.7881 -0.0426
  864MOL0     H19196  10.104   8.440   4.040  0.6952  1.2865  0.0075
  864MOL0     H19197  10.066   8.603   3.978 -0.4413  0.7734  2.9312
  864MOL0     H19198   9.944   8.527   4.181 -0.8069  0.4619  0.0679
  864MOL0     H19199   9.846   8.593   4.057  0.7271  0.0990 -0.2227
  864MOL0     H19200   9.868   8.298   4.125 -0.0579  0.7640  1.2590
  864MOL0     H19201   9.771   8.364   3.991  1.3869  1.0964 -0.8019
  864MOL0     H19202   9.638   8.494   4.148 -3.2883 -4.0921 -2.8067
  864MOL0     H19203   9.742   8.437   4.292 -4.5218  0.0413  2.3768
  864MOL0     H19204   9.556   8.290   4.105 -2.0607  1.0569  0.7983
  864MOL0     H19205   9.679   8.207   4.214  0.9576 -0.2944  3.2181
  864MOL0     H19206   9.455   8.381   4.316  1.2193  0.7949  0.9855
  864MOL0     H19207   9.554   8.267   4.409  0.5866  0.7696 -0.3004
  864MOL0     H19208   9.344   8.162   4.380  2.5586  0.7150  0.1603
  864MOL0     H19209   9.439   8.084   4.269 -1.7828 -1.9800  2.5032
  864MOL0     H19210   9.352   8.200   4.076  0.0808  2.6217 -0.1891
  864MOL0     H19211   9.287   8.330   4.156  0.9680 -0.3376 -0.6815
  864MOL0     H19212  10.251   8.529   3.865 -0.0106 -2.8618  1.1140
  864MOL0     H19213  10.414   8.518   3.666 -0.5375  1.1707  3.7715
  864MOL0     H19214  10.583   8.479   3.311  0.9874  0.9778 -1.6063
  864MOL0     H19215  10.742   8.460   3.155  0.3103 -0.2706  3.2822
  864MOL0     H19216  10.609   9.083   3.478 -1.1198  0.6340  1.9360
  864MOL0     H19217  10.392   9.059   3.585  1.2681  0.5795  0.2533
  864MOL0     H19218   9.924   8.623   3.516 -0.2293 -0.7001  0.0120
  864MOL0     H19219   9.733   8.581   3.648 -0.3657 -0.4222 -2.5123
  864MOL0     H19220   9.548   8.595   3.759 -1.5464  0.2756  0.5849
  864MOL0     H19221   9.638   8.522   3.881  0.9570  0.7687 -0.8721
  864MOL0     H19222   9.498   8.643   4.058  0.1318  0.8520 -0.5713
  864MOL0     H19223   9.401   8.539   3.969  3.3010 -1.5964  3.2729
  864MOL0     H19224   9.282   8.743   3.996  0.5277 -0.0025  0.6186
  864MOL0     H19225   9.428   8.831   3.962 -1.2242  1.3992  0.5531
  864MOL0     H19226   9.293   8.652   3.746 -4.1011  2.3670 -1.8388
  864MOL0     H19227   9.413   8.781   3.713  0.8267 -1.3208  0.7383
  864MOL0     H19228   9.007   8.907   3.666  0.5540 -1.2162 -4.3024
  864MOL0     H19229   9.855   8.910   3.909  0.4656 -0.2507 -0.3221
  864MOL0     H19230   9.990   9.072   3.749  0.0847  0.0114 -0.2046
  864MOL0     H19231  10.080   8.986   3.880 -1.2816 -0.5817  0.0207
  864MOL0     H19232  10.148   8.996   3.723  0.7221 -2.1049  0.2757
  865MOL0     O19233   5.111   3.536   7.964  0.2252 -0.4315 -0.2683
  865MOL0     C19234   5.159   3.585   7.860 -0.3045 -0.5373 -0.3250
  865MOL0     O19235   5.292   3.580   7.820 -0.4672 -0.3789 -0.0086
  865MOL0     C19236   5.378   3.499   7.889 -0.1405 -0.8731  0.1607
  865MOL0     C19237   5.442   3.399   7.816  0.2601 -0.5766 -0.0544
  865MOL0     C19238   5.556   3.343   7.876 -0.9314  0.2466 -0.1834
  865MOL0     C19239   5.599   3.368   8.007  0.4625  1.2769 -0.5033
  865MOL0     O19240   5.700   3.291   8.054  0.0451 -0.6080  0.0090
  865MOL0     C19241   5.749   3.318   8.187 -0.1378  0.5884  0.3181
  865MOL0     C19242   5.836   3.433   8.198  0.1790  0.2777  0.9132
  865MOL0     C19243   5.973   3.408   8.144 -0.1698  0.0004  0.5833
  865MOL0     C19244   6.066   3.523   8.158  0.1833  0.2875 -0.0211
  865MOL0     C19245   6.203   3.483   8.202 -0.1450  0.9892 -0.5824
  865MOL0     C19246   6.305   3.600   8.184  0.5843  0.2525  0.3297
  865MOL0     C19247   6.433   3.589   8.260 -0.0140 -1.0970 -0.3684
  865MOL0     C19248   6.512   3.725   8.243  0.4106  0.1508  0.6343
  865MOL0     N19249   6.650   3.711   8.304 -0.1832  0.1633 -0.0778
  865MOL0     C19250   6.755   3.642   8.252  0.8221  0.2570  0.6363
  865MOL0     C19251   6.858   3.680   8.323  0.2550  0.3683  0.1109
  865MOL0     C19252   6.998   3.632   8.323 -0.0623  0.5931  0.3889
  865MOL0     C19253   7.011   3.505   8.402  0.2228  0.4795 -0.1713
  865MOL0     C19254   6.958   3.378   8.334  0.1961  0.1147 -0.1646
  865MOL0     C19255   6.982   3.245   8.412 -0.8238 -0.2317  0.0577
  865MOL0     O19256   7.121   3.218   8.432  0.2921  0.4729 -0.3506
  865MOL0     C19257   7.169   3.157   8.538  0.0117  0.9848 -0.4965
  865MOL0     C19258   7.297   3.187   8.577  1.1474 -0.6645 -0.1473
  865MOL0     C19259   7.365   3.130   8.684  0.3177 -0.6092  0.3864
  865MOL0     C19260   7.503   3.182   8.713  0.4726  0.1268  0.5095
  865MOL0     C19261   7.297   3.031   8.758 -0.0191  0.0367  0.6506
  865MOL0     C19262   7.361   2.952   8.874 -0.7691 -0.6594  0.6318
  865MOL0     O19263   7.278   2.883   8.949  0.0093 -0.1794 -0.0478
  865MOL0     C19264   7.316   2.827   9.068 -0.3209 -0.0365  0.2542
  865MOL0     C19265   7.299   2.688   9.068  0.6161 -0.3757 -0.3901
  865MOL0     C19266   7.341   2.611   9.181 -0.0746 -0.5091 -0.5416
  865MOL0     C19267   7.402   2.682   9.290 -0.1700  0.0580  0.0531
  865MOL0     O19268   7.446   2.627   9.413  0.5393 -0.1058  1.3310
  865MOL0     C19269   7.411   2.488   9.442 -0.1311  0.7604  0.5064
  865MOL0     C19270   7.269   2.482   9.503  0.2717  0.1746 -0.6447
  865MOL0     C19271   7.263   2.530   9.651 -0.0276  0.0371  0.8727
  865MOL0     C19272   7.123   2.526   9.722 -0.2929 -0.4014  0.6665
  865MOL0     C19273   7.112   2.610   9.842 -0.4006 -0.6310 -0.3318
  865MOL0     C19274   6.991   2.575   9.926  0.5123  0.0674 -0.8461
  865MOL0     C19275   6.980   2.673  10.041 -0.1847 -0.7185 -0.0315
  865MOL0     C19276   6.865   2.633  10.143  0.0238 -0.8335 -0.5499
  865MOL0    Cl19277   6.705   2.666  10.063  0.0966  0.2164 -0.3737
  865MOL0     C19278   7.416   2.823   9.288 -0.9322  0.1722  0.2046
  865MOL0     C19279   7.378   2.891   9.175  0.1545  0.5344  0.1574
  865MOL0     O19280   7.482   2.961   8.886 -0.2837 -0.3995 -0.6067
  865MOL0     C19281   7.170   2.990   8.713 -1.4736  1.2350  0.1563
  865MOL0     C19282   7.103   3.053   8.610 -0.1859  1.1459 -0.4054
  865MOL0     N19283   6.817   3.744   8.437  0.0430 -0.3860 -0.5300
  865MOL0     N19284   6.693   3.778   8.417 -0.0635 -0.7304  0.2783
  865MOL0     C19285   5.516   3.459   8.078 -0.3564  0.4772  0.1225
  865MOL0     C19286   5.415   3.529   8.017  0.5094 -0.3245  0.4737
  865MOL0     C19287   5.063   3.652   7.779  0.5116 -1.1645 -0.5003
  865MOL0     C19288   5.108   3.728   7.666  0.2151  0.2226 -0.1643
  865MOL0     C19289   5.015   3.782   7.575 -0.3769 -0.8617  0.4383
  865MOL0     C19290   4.884   3.784   7.606  0.3682  0.1525  0.4224
  865MOL0     O19291   4.810   3.842   7.508 -0.1315  1.0139 -0.3711
  865MOL0     C19292   4.671   3.817   7.514  0.1805 -0.2791  0.3116
  865MOL0     C19293   4.605   3.901   7.409  0.4239 -0.1054  0.0762
  865MOL0     C19294   4.452   3.879   7.412 -0.2666  0.6455  0.8469
  865MOL0     C19295   4.409   3.736   7.382 -0.1590 -0.3699 -0.4054
  865MOL0     C19296   4.263   3.722   7.379  0.3237  0.8367  0.3416
  865MOL0     C19297   4.145   3.687   7.379  0.1079  0.0875  0.4186
  865MOL0     C19298   4.837   3.731   7.721 -0.0805  0.0708  0.2590
  865MOL0     C19299   4.926   3.667   7.815 -0.3576  0.5409 -0.0033
  865MOL0     C19300   4.857   3.609   7.943 -0.4668 -0.3326 -0.4611
  865MOL0     H19301   5.407   3.397   7.713 -2.1007  0.2114  0.6537
  865MOL0     H19302   5.627   3.291   7.812 -0.0321  1.7516 -0.4722
  865MOL0     H19303   5.796   3.225   8.221 -0.7037  0.0400 -0.3657
  865MOL0     H19304   5.673   3.339   8.262  0.1678 -1.6187  1.3189
  865MOL0     H19305   5.795   3.510   8.133  0.3097 -0.0393  0.4494
  865MOL0     H19306   5.842   3.468   8.301  0.1107  0.0150  1.0077
  865MOL0     H19307   6.010   3.316   8.190 -1.5628 -1.4576 -1.0717
  865MOL0     H19308   5.970   3.389   8.036  0.7638 -0.4067  0.6107
  865MOL0     H19309   6.071   3.586   8.069 -0.0718 -2.1612 -1.8677
  865MOL0     H19310   6.019   3.575   8.242  2.9054  0.9452  1.2259
  865MOL0     H19311   6.238   3.398   8.142 -2.6949 -0.4036 -0.2318
  865MOL0     H19312   6.203   3.442   8.303  2.6129  0.4853 -0.6947
  865MOL0     H19313   6.320   3.601   8.076 -1.2772  0.9444  0.0300
  865MOL0     H19314   6.252   3.691   8.215 -0.4653 -1.1188  2.8665
  865MOL0     H19315   6.498   3.516   8.210 -0.5971 -1.4381 -0.6448
  865MOL0     H19316   6.425   3.570   8.367 -3.9846 -0.0382 -0.3502
  865MOL0     H19317   6.514   3.756   8.138  0.6469  0.7348  0.8068
  865MOL0     H19318   6.467   3.801   8.307  1.5390 -1.2422  3.2744
  865MOL0     H19319   6.756   3.572   8.169 -2.6023 -0.4932  1.0974
  865MOL0     H19320   7.059   3.711   8.366  0.0839  0.6812  0.0236
  865MOL0     H19321   7.030   3.621   8.219 -0.9878  4.4156 -0.4493
  865MOL0     H19322   7.112   3.466   8.419 -0.7636 -3.0167 -1.5671
  865MOL0     H19323   6.962   3.522   8.499 -1.1802  2.1475 -1.1209
  865MOL0     H19324   6.849   3.389   8.331  0.3280  1.5004 -0.5093
  865MOL0     H19325   6.978   3.363   8.227 -1.5256 -1.6027 -0.3161
  865MOL0     H19326   6.939   3.249   8.513 -1.3761 -0.2080 -0.1785
  865MOL0     H19327   6.951   3.157   8.355 -1.8875  0.2800 -0.1888
  865MOL0     H19328   7.351   3.256   8.512 -1.0197  1.7393  0.4322
  865MOL0     H19329   7.571   3.102   8.682 -1.1526  0.0686 -3.6476
  865MOL0     H19330   7.506   3.204   8.820  1.0487  0.0378  0.5135
  865MOL0     H19331   7.527   3.272   8.656  0.5165 -1.6826 -2.5464
  865MOL0     H19332   7.261   2.646   8.976  0.2697 -0.5275 -0.1805
  865MOL0     H19333   7.341   2.502   9.175 -1.7672 -0.5699 -0.1556
  865MOL0     H19334   7.414   2.418   9.358 -2.9619 -0.3151  1.2022
  865MOL0     H19335   7.481   2.448   9.517  1.3397  1.9413 -0.1946
  865MOL0     H19336   7.190   2.534   9.449 -2.0232 -1.8723  0.5466
  865MOL0     H19337   7.253   2.374   9.515 -2.1265  0.7672  3.1109
  865MOL0     H19338   7.286   2.637   9.649 -0.3080  0.1113 -1.1275
  865MOL0     H19339   7.344   2.484   9.708  2.6057  1.3462 -1.5099
  865MOL0     H19340   7.103   2.423   9.753 -0.6442 -1.1744 -1.9214
  865MOL0     H19341   7.043   2.562   9.656  0.7351 -0.0982 -0.4511
  865MOL0     H19342   7.199   2.597   9.907  1.5338  0.5237 -2.5613
  865MOL0     H19343   7.105   2.717   9.824 -0.3531 -0.4768  0.5312
  865MOL0     H19344   6.991   2.469   9.953 -0.4505  0.0724 -0.7874
  865MOL0     H19345   6.903   2.597   9.865 -0.2475 -1.0402 -0.1894
  865MOL0     H19346   6.956   2.770   9.995  4.3923 -0.7218 -3.0889
  865MOL0     H19347   7.067   2.695  10.103 -0.7932  1.9882  0.0177
  865MOL0     H19348   6.863   2.688  10.237 -0.9026 -0.6112 -0.6914
  865MOL0     H19349   6.880   2.525  10.152  0.3048 -0.7281  0.3222
  865MOL0     H19350   7.457   2.883   9.369 -1.5176  0.9248 -0.0382
  865MOL0     H19351   7.407   2.995   9.165  1.2816 -0.0196 -4.2014
  865MOL0     H19352   7.127   2.907   8.768  2.8049 -4.0106 -3.3564
  865MOL0     H19353   6.998   3.028   8.605  0.2151 -0.4291 -2.2205
  865MOL0     H19354   5.542   3.477   8.182  1.9143  0.5725 -0.4182
  865MOL0     H19355   5.373   3.613   8.073  0.9123  0.9031 -0.9769
  865MOL0     H19356   5.214   3.724   7.643 -0.1884  2.0724 -2.8234
  865MOL0     H19357   5.048   3.816   7.477 -2.2760 -2.9231 -1.0108
  865MOL0     H19358   4.650   3.712   7.491  0.3318 -0.2068 -0.1675
  865MOL0     H19359   4.628   3.842   7.612  0.6312  1.1163  0.1741
  865MOL0     H19360   4.643   3.878   7.309 -0.4615 -0.6619 -0.1413
  865MOL0     H19361   4.621   4.006   7.433  0.2518 -0.4678  1.9567
  865MOL0     H19362   4.409   3.921   7.503 -0.1903  0.8453  0.7924
  865MOL0     H19363   4.423   3.942   7.327  4.1797  0.0906 -1.3859
  865MOL0     H19364   4.435   3.671   7.466  0.1520 -0.6548 -0.7234
  865MOL0     H19365   4.457   3.705   7.289 -2.5793 -0.4319 -1.7104
  865MOL0     H19366   4.040   3.669   7.370 -0.1049  0.3460  1.9729
  865MOL0     H19367   4.733   3.735   7.752 -0.3106 -0.8468 -0.3531
  865MOL0     H19368   4.752   3.638   7.937 -1.0658 -2.1001  0.6956
  865MOL0     H19369   4.865   3.501   7.958  2.5338 -0.0231  0.9670
  865MOL0     H19370   4.894   3.668   8.028  1.3184 -0.5261 -1.0623
  866MOL0     O19371   0.848   4.607   3.462 -0.0994 -0.3266 -0.7142
  866MOL0     C19372   0.914   4.699   3.516  0.2031  0.5226  0.4974
  866MOL0     O19373   1.049   4.693   3.537  0.7586 -0.4752 -0.0982
  866MOL0     C19374   1.127   4.638   3.436  1.1981 -0.3943  0.6363
  866MOL0     C19375   1.229   4.550   3.472 -0.9683 -0.0132  0.5335
  866MOL0     C19376   1.333   4.531   3.379  0.2746  0.2303  0.8184
  866MOL0     C19377   1.320   4.580   3.248 -0.3476 -0.5990 -0.0228
  866MOL0     O19378   1.398   4.549   3.145 -0.2622 -0.5749  0.2692
  866MOL0     C19379   1.519   4.472   3.169  0.4240 -0.6087  0.2472
  866MOL0     C19380   1.604   4.466   3.036 -0.3962  0.4484  0.0032
  866MOL0     C19381   1.517   4.394   2.923 -0.2276 -0.5077 -0.3221
  866MOL0     C19382   1.620   4.335   2.822  0.4476 -0.9210  0.5907
  866MOL0     C19383   1.685   4.440   2.735  0.0290  0.7083 -0.3485
  866MOL0     C19384   1.802   4.404   2.644 -0.2453 -0.2153  0.0393
  866MOL0     C19385   1.925   4.365   2.736 -0.2802 -0.1369  0.0230
  866MOL0     C19386   2.044   4.324   2.649 -0.7272  0.2432 -0.3891
  866MOL0     N19387   2.096   4.429   2.561  0.5322 -0.2476 -0.4328
  866MOL0     C19388   2.199   4.520   2.590  0.1138  0.3049 -0.0437
  866MOL0     C19389   2.209   4.595   2.482  0.4001 -0.8937 -0.6229
  866MOL0     C19390   2.310   4.713   2.475 -0.2570  0.1195  0.9564
  866MOL0     C19391   2.394   4.692   2.347  0.2177  0.5893 -0.0584
  866MOL0     C19392   2.489   4.573   2.352 -0.5437  0.3743  0.1308
  866MOL0     C19393   2.584   4.571   2.231 -1.6130  0.3563  0.0381
  866MOL0     O19394   2.708   4.642   2.256  0.2055  0.3544  0.2487
  866MOL0     C19395   2.839   4.610   2.216 -0.2102  0.5837  0.4312
  866MOL0     C19396   2.861   4.511   2.113 -0.0931  0.3160  0.0562
  866MOL0     C19397   2.988   4.478   2.060 -0.3911  0.0338 -0.0075
  866MOL0     C19398   3.004   4.377   1.946  0.1777 -0.3319  0.2968
  866MOL0     C19399   3.100   4.536   2.126  0.0336  0.2323  1.0593
  866MOL0     C19400   3.243   4.509   2.078  0.0255 -0.5637 -0.0955
  866MOL0     O19401   3.333   4.576   2.146 -0.0862 -0.2813  0.1343
  866MOL0     C19402   3.469   4.563   2.132 -0.1846 -0.0962  0.4365
  866MOL0     C19403   3.542   4.576   2.251  0.0623 -0.1128 -0.1131
  866MOL0     C19404   3.680   4.556   2.254  0.0288 -0.8351 -0.3328
  866MOL0     C19405   3.751   4.536   2.136  0.2877 -0.5934 -0.1218
  866MOL0     O19406   3.888   4.527   2.145  0.1210 -0.0440  0.4876
  866MOL0     C19407   3.956   4.626   2.072 -0.1069 -0.7280  0.9449
  866MOL0     C19408   4.093   4.622   2.137 -0.0262  0.8194 -1.1708
  866MOL0     C19409   4.159   4.486   2.130 -0.3271  0.0588 -0.3340
  866MOL0     C19410   4.295   4.490   2.197  0.2063 -0.2805 -0.4118
  866MOL0     C19411   4.365   4.357   2.173 -0.5446  1.0727  0.4941
  866MOL0     C19412   4.507   4.345   2.234 -0.3786 -0.2783  1.2846
  866MOL0     C19413   4.566   4.204   2.213 -0.5798 -1.5413 -0.1864
  866MOL0     C19414   4.718   4.199   2.249 -0.6982 -0.4989  0.3104
  866MOL0    Cl19415   4.806   4.297   2.130 -0.6322 -0.1404 -0.0975
  866MOL0     C19416   3.680   4.550   2.017 -0.0896  0.1718  0.5348
  866MOL0     C19417   3.540   4.563   2.009 -0.3893  0.7017  0.3915
  866MOL0     O19418   3.264   4.425   1.994  0.1048 -0.2662  0.4530
  866MOL0     C19419   3.081   4.622   2.235  0.2482 -0.4788  0.4913
  866MOL0     C19420   2.951   4.669   2.268 -1.2740 -0.4135  0.6345
  866MOL0     N19421   2.122   4.548   2.386 -0.2681 -0.0574 -0.5575
  866MOL0     N19422   2.045   4.461   2.433  0.3728  1.2001 -0.4972
  866MOL0     C19423   1.213   4.666   3.216  0.3457  0.2256  0.8299
  866MOL0     C19424   1.119   4.700   3.310 -0.8216 -0.5124 -0.0972
  866MOL0     C19425   0.833   4.787   3.599  0.4949  0.2368 -0.4695
  866MOL0     C19426   0.890   4.843   3.717 -0.0851 -0.4383 -0.6122
  866MOL0     C19427   0.814   4.921   3.805 -0.3790  0.3354  0.2522
  866MOL0     C19428   0.684   4.951   3.778 -0.6336 -0.1584  0.1152
  866MOL0     O19429   0.621   5.049   3.857 -0.6516  0.4895  0.1372
  866MOL0     C19430   0.488   5.090   3.831 -0.0915 -0.5587 -0.2712
  866MOL0     C19431   0.453   5.191   3.939  0.7906 -0.1007  0.3312
  866MOL0     C19432   0.559   5.302   3.946 -0.6394 -0.9512 -0.3409
  866MOL0     C19433   0.494   5.429   4.001 -0.2273 -0.4115 -0.7525
  866MOL0     C19434   0.411   5.485   3.893 -0.2655 -0.5575 -0.8122
  866MOL0     C19435   0.336   5.535   3.814  0.1653 -0.3496  0.7853
  866MOL0     C19436   0.631   4.904   3.657 -0.5995  0.3458  0.1955
  866MOL0     C19437   0.703   4.831   3.555 -0.2007  0.0623 -0.2307
  866MOL0     C19438   0.639   4.805   3.413 -0.6815 -0.2510 -0.2795
  866MOL0     H19439   1.239   4.490   3.562  2.3640 -0.4825 -0.0208
  866MOL0     H19440   1.421   4.476   3.412 -0.5471 -1.8124 -0.2483
  866MOL0     H19441   1.490   4.374   3.208  0.2199 -1.1170 -1.1317
  866MOL0     H19442   1.572   4.521   3.251  0.4729  0.3331 -0.3313
  866MOL0     H19443   1.633   4.565   3.000  4.1421 -1.5139 -2.5776
  866MOL0     H19444   1.688   4.407   3.074 -1.3427 -0.9084  0.0437
  866MOL0     H19445   1.459   4.317   2.975  1.7933 -0.9681  1.4032
  866MOL0     H19446   1.454   4.468   2.873  2.5036  0.7851 -2.0484
  866MOL0     H19447   1.702   4.285   2.875  0.8022 -0.3060  0.6345
  866MOL0     H19448   1.576   4.251   2.768 -0.4927 -0.5295  0.7208
  866MOL0     H19449   1.716   4.524   2.799  0.8965 -1.0239  1.6078
  866MOL0     H19450   1.607   4.478   2.668 -0.3107 -1.4233 -1.2431
  866MOL0     H19451   1.779   4.330   2.567 -0.9539 -1.9300  1.8418
  866MOL0     H19452   1.823   4.497   2.589 -3.5115 -0.0076 -1.0733
  866MOL0     H19453   1.897   4.273   2.788 -0.6368 -1.0285 -1.6755
  866MOL0     H19454   1.952   4.445   2.805  2.3590  0.3587 -1.4543
  866MOL0     H19455   2.120   4.292   2.721  1.9065 -1.5573 -3.7039
  866MOL0     H19456   2.014   4.229   2.604 -1.0791  0.0080  0.3167
  866MOL0     H19457   2.263   4.523   2.678 -0.0271  1.8664  0.0316
  866MOL0     H19458   2.379   4.718   2.560 -0.1174  2.0588  0.7687
  866MOL0     H19459   2.263   4.811   2.466  1.5486  1.1906  2.5393
  866MOL0     H19460   2.327   4.685   2.260  1.3423  2.4043 -1.1397
  866MOL0     H19461   2.444   4.787   2.326 -1.4265  1.4225 -0.2961
  866MOL0     H19462   2.543   4.579   2.447  0.4248 -0.3712 -0.3523
  866MOL0     H19463   2.427   4.483   2.357  1.4066 -1.1268 -1.2205
  866MOL0     H19464   2.606   4.465   2.219 -1.5470  0.5195 -1.4820
  866MOL0     H19465   2.527   4.596   2.141 -0.1269 -0.5224 -1.1835
  866MOL0     H19466   2.770   4.467   2.073 -0.9213  2.3998 -0.4798
  866MOL0     H19467   3.046   4.282   1.980  1.4217  0.3228  0.6923
  866MOL0     H19468   3.065   4.415   1.864  1.0947 -0.8904  0.7058
  866MOL0     H19469   2.905   4.342   1.916  0.6382 -1.3546 -0.0695
  866MOL0     H19470   3.487   4.579   2.344  2.1684  0.9397  1.1611
  866MOL0     H19471   3.717   4.545   2.356 -2.8517 -3.6320  0.5828
  866MOL0     H19472   3.960   4.610   1.964  2.4625 -0.6464  0.9645
  866MOL0     H19473   3.903   4.721   2.083 -1.1893 -0.8653 -2.0576
  866MOL0     H19474   4.155   4.697   2.085 -0.2167  0.0376 -2.5684
  866MOL0     H19475   4.092   4.647   2.243  1.3204  0.3141 -1.0120
  866MOL0     H19476   4.160   4.463   2.023 -1.0106 -1.5933 -0.0096
  866MOL0     H19477   4.097   4.411   2.179 -1.1726  1.1497  0.3276
  866MOL0     H19478   4.281   4.517   2.302  3.2087 -0.5904  0.1666
  866MOL0     H19479   4.352   4.570   2.150 -0.1570 -0.8789 -1.9409
  866MOL0     H19480   4.308   4.274   2.217  0.3171 -0.2712 -0.8129
  866MOL0     H19481   4.382   4.339   2.067  0.2727  3.2290  0.2046
  866MOL0     H19482   4.501   4.376   2.338 -2.6068  1.8309  0.6227
  866MOL0     H19483   4.573   4.424   2.197  0.3474 -1.5411 -0.2480
  866MOL0     H19484   4.557   4.174   2.109 -2.5012 -0.4855 -0.3607
  866MOL0     H19485   4.527   4.130   2.283 -0.3841 -1.6085 -0.1467
  866MOL0     H19486   4.761   4.099   2.238 -0.0953  0.0375 -3.1103
  866MOL0     H19487   4.743   4.233   2.350 -0.4184  0.9049 -0.2116
  866MOL0     H19488   3.750   4.536   1.935  2.4960  0.3257  2.6000
  866MOL0     H19489   3.489   4.559   1.914  1.3152  1.9868 -0.6409
  866MOL0     H19490   3.158   4.677   2.288 -0.8978  0.4086  1.2793
  866MOL0     H19491   2.940   4.748   2.342  2.7167 -0.2336  1.2133
  866MOL0     H19492   1.199   4.710   3.118 -1.1281  2.0614  1.7953
  866MOL0     H19493   1.030   4.758   3.288 -2.7300 -2.1948  2.6298
  866MOL0     H19494   0.990   4.809   3.744 -0.4480 -0.1104  1.3630
  866MOL0     H19495   0.870   4.960   3.890  2.7373  0.8447 -1.8705
  866MOL0     H19496   0.481   5.140   3.734  2.8045 -2.8064 -1.7871
  866MOL0     H19497   0.412   5.011   3.831 -1.7473  0.9223  1.6960
  866MOL0     H19498   0.427   5.146   4.035  1.9548 -0.0856  0.6748
  866MOL0     H19499   0.355   5.232   3.913  0.8467  1.3000  2.1510
  866MOL0     H19500   0.640   5.267   4.010 -1.5178  0.8643  1.9106
  866MOL0     H19501   0.617   5.324   3.856  1.6840 -1.0849  1.0436
  866MOL0     H19502   0.581   5.495   4.012  1.4786 -2.4999 -1.0537
  866MOL0     H19503   0.439   5.428   4.095  2.5455  1.0627  1.0231
  866MOL0     H19504   0.268   5.563   3.736  1.4751  0.3704 -0.1345
  866MOL0     H19505   0.531   4.932   3.624  1.3509  3.3074 -3.9784
  866MOL0     H19506   0.591   4.896   3.376 -1.0939 -0.3500 -0.0022
  866MOL0     H19507   0.715   4.783   3.338 -0.9173  0.9365 -0.8901
  866MOL0     H19508   0.559   4.730   3.412 -2.4285  1.4584  1.4462
  867MOL0     O19509   4.070   8.930   5.583  1.0412 -0.3952  0.3605
  867MOL0     C19510   4.121   8.844   5.511 -0.6975 -0.0005 -0.0737
  867MOL0     O19511   4.253   8.849   5.471 -0.4587 -0.0790 -0.3980
  867MOL0     C19512   4.331   8.938   5.543 -0.6346  0.0771 -0.1602
  867MOL0     C19513   4.420   8.900   5.639  0.3026  0.5036 -0.3217
  867MOL0     C19514   4.504   9.002   5.694  0.4900 -0.3256 -0.1885
  867MOL0     C19515   4.498   9.133   5.658  0.1134  0.3143 -0.4160
  867MOL0     O19516   4.585   9.231   5.692  0.3965 -0.5025 -0.0224
  867MOL0     C19517   4.682   9.206   5.804 -0.1935 -0.1460 -0.6157
  867MOL0     C19518   4.813   9.130   5.755 -0.6001  0.1864  0.1039
  867MOL0     C19519   4.930   9.155   5.840 -0.0130  0.2813  0.5868
  867MOL0     C19520   5.052   9.061   5.800  0.0552 -0.0638  0.7879
  867MOL0     C19521   5.164   9.086   5.910  1.0145 -0.6909 -0.1531
  867MOL0     C19522   5.269   8.980   5.914  0.4369  0.5842 -0.1373
  867MOL0     C19523   5.411   9.035   5.909 -0.7095 -0.9850  0.2464
  867MOL0     C19524   5.507   8.915   5.906 -0.2251  0.2892  0.3468
  867MOL0     N19525   5.646   8.951   5.895 -0.5791 -0.4647  0.2320
  867MOL0     C19526   5.707   9.052   5.815  0.0036  0.1099  0.5823
  867MOL0     C19527   5.836   9.030   5.826  0.4698  0.3369  0.1414
  867MOL0     C19528   5.938   9.112   5.756 -0.7932  0.7579  0.8006
  867MOL0     C19529   6.083   9.054   5.747  0.7950 -0.4988 -0.2300
  867MOL0     C19530   6.175   9.074   5.867  0.4796 -0.1936  0.2590
  867MOL0     C19531   6.266   8.955   5.891 -0.3047 -0.0306  1.1810
  867MOL0     O19532   6.371   8.939   5.791  0.5382 -0.5146 -0.0276
  867MOL0     C19533   6.461   9.040   5.784 -0.1485  0.5964 -0.2178
  867MOL0     C19534   6.487   9.135   5.874 -0.1765 -0.3837  0.0135
  867MOL0     C19535   6.588   9.232   5.866  0.0348 -0.2923 -0.7656
  867MOL0     C19536   6.587   9.333   5.985  0.1044  0.3605  0.4410
  867MOL0     C19537   6.680   9.228   5.756  0.1717  0.3683 -0.1768
  867MOL0     C19538   6.794   9.312   5.737  0.3942 -0.8135 -0.1008
  867MOL0     O19539   6.804   9.358   5.608  0.0217 -0.0200 -0.3248
  867MOL0     C19540   6.932   9.381   5.559  0.0047 -1.0172  0.3963
  867MOL0     C19541   7.010   9.280   5.507 -0.2601 -0.1454  0.0374
  867MOL0     C19542   7.145   9.301   5.461  0.7456 -0.6608 -0.2104
  867MOL0     C19543   7.201   9.426   5.475 -0.1040 -1.4661  0.3663
  867MOL0     O19544   7.339   9.456   5.452 -0.2927  0.2726  0.0311
  867MOL0     C19545   7.433   9.347   5.432  0.6257  0.2702 -0.6807
  867MOL0     C19546   7.576   9.393   5.451 -0.4810 -0.3649  0.2691
  867MOL0     C19547   7.689   9.285   5.455 -0.3367  1.0164 -0.2298
  867MOL0     C19548   7.736   9.235   5.313  0.5177 -0.7167 -0.2791
  867MOL0     C19549   7.828   9.338   5.255 -0.1911  0.5251 -0.3125
  867MOL0     C19550   7.808   9.365   5.100 -0.1751 -0.3466 -1.1354
  867MOL0     C19551   7.673   9.436   5.067  0.3298  0.7561 -0.1126
  867MOL0     C19552   7.644   9.422   4.919  0.1673 -0.0851  0.7671
  867MOL0    Cl19553   7.488   9.500   4.896 -0.0533 -0.5588 -0.1084
  867MOL0     C19554   7.119   9.536   5.510  0.1822 -0.5758 -0.6877
  867MOL0     C19555   6.987   9.513   5.545  0.8575 -0.3721  0.3047
  867MOL0     O19556   6.868   9.342   5.828 -0.1522  0.0085  0.5994
  867MOL0     C19557   6.645   9.127   5.656 -0.0470 -0.4497  0.3538
  867MOL0     C19558   6.539   9.040   5.674 -0.8161 -0.8743 -1.0153
  867MOL0     N19559   5.856   8.930   5.924 -0.0430  0.0754 -0.2053
  867MOL0     N19560   5.743   8.891   5.968 -0.4972  0.2216 -0.2450
  867MOL0     C19561   4.400   9.167   5.564  0.5663  0.4666 -0.0931
  867MOL0     C19562   4.319   9.071   5.502 -0.3357  0.4184 -0.2802
  867MOL0     C19563   4.027   8.754   5.441 -0.4104 -0.4164  0.2482
  867MOL0     C19564   3.890   8.761   5.483  0.9481  0.1685 -0.4920
  867MOL0     C19565   3.785   8.687   5.424 -0.3105 -0.4669 -0.3805
  867MOL0     C19566   3.813   8.615   5.305 -0.6528  0.9631 -0.0080
  867MOL0     O19567   3.720   8.541   5.239 -0.8410 -0.1500  0.9836
  867MOL0     C19568   3.597   8.523   5.294 -0.0241 -0.0032 -0.5808
  867MOL0     C19569   3.528   8.418   5.219  0.1438  0.6259  0.2451
  867MOL0     C19570   3.599   8.290   5.254  0.2247 -0.3164  0.1226
  867MOL0     C19571   3.556   8.168   5.177  0.5534  0.1258 -0.5363
  867MOL0     C19572   3.416   8.147   5.222 -0.9272 -0.7585  0.0593
  867MOL0     C19573   3.309   8.129   5.264  0.6632 -0.5235 -1.3398
  867MOL0     C19574   3.949   8.609   5.262 -0.2045  0.4212 -0.7576
  867MOL0     C19575   4.058   8.677   5.330 -0.3241  0.2441  0.8484
  867MOL0     C19576   4.194   8.642   5.267 -1.1778  0.0461  0.1450
  867MOL0     H19577   4.425   8.793   5.655  0.0072  0.3814 -0.9836
  867MOL0     H19578   4.583   8.968   5.761 -1.2619 -1.6456  1.3071
  867MOL0     H19579   4.643   9.162   5.896 -0.5917  1.3903 -0.0238
  867MOL0     H19580   4.713   9.303   5.843 -0.3832 -0.5459  0.5512
  867MOL0     H19581   4.782   9.026   5.744 -1.2081  0.3574  0.1419
  867MOL0     H19582   4.840   9.178   5.660 -1.6688  4.9604  1.9570
  867MOL0     H19583   4.965   9.259   5.839 -2.3040  1.1140  0.3196
  867MOL0     H19584   4.900   9.130   5.942 -1.0859 -1.1207 -0.0464
  867MOL0     H19585   5.017   8.957   5.800 -0.3537  0.0277 -1.4672
  867MOL0     H19586   5.082   9.085   5.698  2.8199 -3.5523  0.5990
  867MOL0     H19587   5.121   9.116   6.006 -1.8235  0.2018 -1.5867
  867MOL0     H19588   5.221   9.174   5.879  0.7821 -0.2817  0.5465
  867MOL0     H19589   5.257   8.902   5.990  3.8109 -2.8273 -2.6996
  867MOL0     H19590   5.262   8.925   5.820  0.6744 -1.1600  0.8368
  867MOL0     H19591   5.426   9.099   5.997 -1.1545 -2.5584  1.5090
  867MOL0     H19592   5.429   9.093   5.818  2.1659  0.2177  1.4475
  867MOL0     H19593   5.472   8.861   5.994 -0.7800 -1.2609 -0.7789
  867MOL0     H19594   5.478   8.848   5.824  3.9109 -0.7533 -0.4545
  867MOL0     H19595   5.677   9.124   5.739  3.5728  0.9660 -0.2031
  867MOL0     H19596   5.944   9.196   5.825  2.4866 -0.7392  2.5810
  867MOL0     H19597   5.902   9.133   5.655 -1.3833 -0.1887  0.8027
  867MOL0     H19598   6.066   8.949   5.721 -0.1650 -0.7377  1.2898
  867MOL0     H19599   6.125   9.093   5.654  0.1106  1.3406  0.1845
  867MOL0     H19600   6.228   9.168   5.848 -0.8134  0.3659 -0.6754
  867MOL0     H19601   6.130   9.094   5.964  2.6035 -1.1340  1.5092
  867MOL0     H19602   6.318   8.962   5.987  0.4179 -1.7962  0.9551
  867MOL0     H19603   6.200   8.868   5.879 -0.5096  0.4701 -2.4302
  867MOL0     H19604   6.427   9.140   5.964  1.5366  1.4472  1.1251
  867MOL0     H19605   6.622   9.292   6.081  0.2101  0.4201  0.4275
  867MOL0     H19606   6.484   9.366   6.000  0.1940  1.0400 -0.4025
  867MOL0     H19607   6.657   9.415   5.969 -0.5523  0.8672  0.1455
  867MOL0     H19608   6.983   9.175   5.499 -1.3733 -0.0013  1.5778
  867MOL0     H19609   7.197   9.215   5.420  1.1918  0.0292 -1.1290
  867MOL0     H19610   7.417   9.263   5.500 -2.4720  0.2752 -1.2724
  867MOL0     H19611   7.415   9.311   5.330  0.1169  0.9267 -0.8293
  867MOL0     H19612   7.609   9.456   5.368 -0.1642 -0.7630  0.0938
  867MOL0     H19613   7.580   9.452   5.543  2.9824 -0.7580  0.4712
  867MOL0     H19614   7.656   9.197   5.511 -0.1155  0.4822 -0.9187
  867MOL0     H19615   7.783   9.322   5.497  1.4247 -2.7121 -0.4229
  867MOL0     H19616   7.643   9.208   5.264 -1.8757 -0.7293  3.8267
  867MOL0     H19617   7.793   9.142   5.328  1.6475 -0.3984 -2.2325
  867MOL0     H19618   7.827   9.440   5.295 -1.5770  0.4325 -0.0625
  867MOL0     H19619   7.928   9.296   5.267 -0.2368  0.3114 -0.6633
  867MOL0     H19620   7.803   9.262   5.064 -1.5009 -0.5364 -0.4485
  867MOL0     H19621   7.898   9.416   5.064  0.0795  0.1836  0.2083
  867MOL0     H19622   7.683   9.541   5.097  1.0915  0.8828 -0.7660
  867MOL0     H19623   7.589   9.390   5.121  0.3896 -0.6077 -1.1240
  867MOL0     H19624   7.657   9.317   4.892  4.0225  0.5282 -0.3577
  867MOL0     H19625   7.714   9.486   4.865  0.6613 -1.7339 -0.6457
  867MOL0     H19626   7.149   9.640   5.509 -1.5006 -0.0643 -1.1188
  867MOL0     H19627   6.915   9.592   5.564 -0.1364 -1.3469  0.7169
  867MOL0     H19628   6.704   9.139   5.566 -0.4340  4.0186  0.4757
  867MOL0     H19629   6.523   8.971   5.591  0.4506 -0.7690 -1.3741
  867MOL0     H19630   4.385   9.270   5.531 -1.4676 -0.0865 -1.0544
  867MOL0     H19631   4.252   9.090   5.419  0.9868 -0.7350 -1.6575
  867MOL0     H19632   3.852   8.825   5.562  1.9577 -1.0459  1.0287
  867MOL0     H19633   3.684   8.698   5.463  0.6388  1.0326  1.8563
  867MOL0     H19634   3.606   8.496   5.400  1.3675  3.2690  0.2605
  867MOL0     H19635   3.538   8.614   5.281  0.4110  0.1836 -1.3191
  867MOL0     H19636   3.526   8.447   5.113 -0.2714  1.1765  0.4019
  867MOL0     H19637   3.424   8.417   5.253  0.1619 -1.0899  0.3573
  867MOL0     H19638   3.707   8.303   5.237 -0.0881  3.1021  0.1327
  867MOL0     H19639   3.589   8.271   5.361 -1.0721  2.0674  0.4891
  867MOL0     H19640   3.609   8.076   5.204 -1.6286 -1.6684 -2.0245
  867MOL0     H19641   3.571   8.177   5.070 -2.5188  0.9739 -0.9937
  867MOL0     H19642   3.213   8.091   5.292  0.1785  0.5430 -1.4853
  867MOL0     H19643   3.980   8.550   5.176  0.2806 -0.0221 -0.2951
  867MOL0     H19644   4.275   8.645   5.341  0.1977  0.3346 -1.3198
  867MOL0     H19645   4.195   8.538   5.234  1.2393 -0.2345  0.9106
  867MOL0     H19646   4.224   8.712   5.189  0.4482 -2.6247 -1.8012
  868MOL0     O19647   4.576   1.317  10.987 -0.3654  0.6684  0.2740
  868MOL0     C19648   4.573   1.350  10.869 -0.2849 -0.0057  0.2156
  868MOL0     O19649   4.684   1.380  10.796 -0.1394  0.1729  0.1320
  868MOL0     C19650   4.807   1.337  10.831 -0.1656  0.4587  0.4814
  868MOL0     C19651   4.826   1.203  10.855  0.3869 -0.6268  0.0133
  868MOL0     C19652   4.957   1.164  10.883  0.2666  0.3570 -0.2756
  868MOL0     C19653   5.066   1.251  10.873  0.4465  0.5873  0.1159
  868MOL0     O19654   5.186   1.199  10.895 -0.1326 -0.1648  0.5395
  868MOL0     C19655   5.298   1.244  10.818 -0.8914 -0.8238 -0.2844
  868MOL0     C19656   5.425   1.212  10.897  0.1699 -0.1753  0.3368
  868MOL0     C19657   5.429   1.265  11.038  0.1243 -0.1332  0.6041
  868MOL0     C19658   5.517   1.185  11.139  0.6309  0.2120 -0.3254
  868MOL0     C19659   5.522   1.250  11.269 -0.2239  0.3205 -0.2145
  868MOL0     C19660   5.581   1.165  11.381 -0.1805  0.0830  0.5179
  868MOL0     C19661   5.725   1.105  11.341 -0.2157  0.3702  0.5132
  868MOL0     C19662   5.799   1.042  11.461 -0.6329 -0.2239  1.4302
  868MOL0     N19663   5.896   0.937  11.432  0.4155 -0.8050 -0.2934
  868MOL0     C19664   6.029   0.957  11.411  0.6449  0.0637  0.2512
  868MOL0     C19665   6.077   0.836  11.383 -0.5613 -0.1369 -0.6507
  868MOL0     C19666   6.219   0.809  11.337  0.3159 -0.6001 -0.0341
  868MOL0     C19667   6.320   0.859  11.440 -0.4367 -0.4911  0.5114
  868MOL0     C19668   6.442   0.764  11.426  1.6313  0.0176  0.2873
  868MOL0     C19669   6.524   0.799  11.304 -0.5893 -0.3403  0.0234
  868MOL0     O19670   6.566   0.946  11.295  0.0326 -0.3379  0.4583
  868MOL0     C19671   6.677   0.994  11.361  0.6981 -0.0035 -0.3353
  868MOL0     C19672   6.714   1.124  11.322 -1.2149  0.9225 -0.3231
  868MOL0     C19673   6.830   1.186  11.372 -1.3150 -0.2900 -0.1458
  868MOL0     C19674   6.852   1.326  11.321  0.0169  0.2686 -0.0921
  868MOL0     C19675   6.917   1.119  11.462 -0.5801  0.1374  0.2535
  868MOL0     C19676   7.043   1.178  11.524  0.0916 -0.1827 -0.4626
  868MOL0     O19677   7.026   1.300  11.594  0.7323 -0.7054  0.4439
  868MOL0     C19678   7.125   1.379  11.635 -0.5550 -1.2529 -0.0709
  868MOL0     C19679   7.157   1.491  11.558  0.2643 -0.4171 -0.1715
  868MOL0     C19680   7.247   1.584  11.621 -0.2467 -0.4060 -0.2375
  868MOL0     C19681   7.317   1.550  11.736  0.6381  0.7094  0.3596
  868MOL0     O19682   7.410   1.643  11.783 -0.0629 -0.3580  0.3067
  868MOL0     C19683   7.504   1.606  11.886 -0.6689 -0.4192  0.0783
  868MOL0     C19684   7.600   1.496  11.833  0.2452 -0.2163  0.3142
  868MOL0     C19685   7.726   1.497  11.924  0.0504 -0.1283 -1.0884
  868MOL0     C19686   7.705   1.417  12.060  0.5768 -0.2681  0.0858
  868MOL0     C19687   7.827   1.431  12.146 -0.2258  0.4241 -0.6531
  868MOL0     C19688   7.796   1.346  12.281 -0.0833 -0.1804 -0.8015
  868MOL0     C19689   7.874   1.389  12.400  0.4247 -0.6285 -0.2991
  868MOL0     C19690   7.856   1.270  12.500  0.2663  0.6131  0.1906
  868MOL0    Cl19691   7.907   1.323  12.663  0.2525 -0.2916 -0.0530
  868MOL0     C19692   7.294   1.423  11.802 -0.1355 -0.5815 -0.3329
  868MOL0     C19693   7.200   1.340  11.748  1.4474 -0.0194 -0.3320
  868MOL0     O19694   7.132   1.106  11.547  0.3146 -0.6719 -0.4268
  868MOL0     C19695   6.880   0.989  11.501  0.0397  0.1335  0.2447
  868MOL0     C19696   6.756   0.926  11.461 -1.0054  0.3924 -0.8025
  868MOL0     N19697   5.974   0.742  11.373  0.7231 -0.3670  0.3076
  868MOL0     N19698   5.869   0.800  11.422 -0.4341 -0.7910 -0.3471
  868MOL0     C19699   5.048   1.385  10.839 -0.4835 -0.2550  0.3961
  868MOL0     C19700   4.911   1.426  10.818  0.0539  0.7845  0.3499
  868MOL0     C19701   4.440   1.355  10.800  0.4037  0.1532 -0.1920
  868MOL0     C19702   4.328   1.289  10.859 -0.3872  0.3464  0.4083
  868MOL0     C19703   4.206   1.263  10.789 -1.0324 -0.7568 -0.8055
  868MOL0     C19704   4.187   1.329  10.670  0.5920 -0.8452 -0.5960
  868MOL0     O19705   4.068   1.335  10.606 -0.1432 -0.3715 -0.0784
  868MOL0     C19706   3.951   1.264  10.650 -0.3258  0.2789  0.1625
  868MOL0     C19707   3.876   1.226  10.524 -0.3723 -0.9374  0.5122
  868MOL0     C19708   3.765   1.319  10.494  0.7112 -0.0274 -0.0371
  868MOL0     C19709   3.670   1.280  10.379  0.6390  0.5932  1.0047
  868MOL0     C19710   3.539   1.347  10.388  0.4635  0.4906  0.1184
  868MOL0     C19711   3.431   1.408  10.402 -0.1698 -0.4596 -0.3666
  868MOL0     C19712   4.287   1.410  10.612  0.0364  0.2614 -0.3855
  868MOL0     C19713   4.415   1.422  10.669  0.1837 -0.2633  0.2164
  868MOL0     C19714   4.507   1.517  10.588 -0.6328  0.1311 -0.3175
  868MOL0     H19715   4.742   1.134  10.866  1.4723 -1.8966  0.6159
  868MOL0     H19716   4.970   1.057  10.900  0.9403  0.6847  1.4720
  868MOL0     H19717   5.305   1.352  10.803  0.2621 -0.8653 -0.1851
  868MOL0     H19718   5.290   1.192  10.722 -2.9124 -1.4150  0.1626
  868MOL0     H19719   5.423   1.103  10.909 -1.1548 -0.1543  0.3909
  868MOL0     H19720   5.512   1.250  10.842 -1.8150  2.6208 -1.1152
  868MOL0     H19721   5.464   1.369  11.032  0.9247 -0.4121  0.3299
  868MOL0     H19722   5.326   1.272  11.074  0.2905  3.1597  0.7520
  868MOL0     H19723   5.471   1.087  11.155  1.0973  0.2979  1.7064
  868MOL0     H19724   5.619   1.170  11.104  1.1445 -0.6775  1.4365
  868MOL0     H19725   5.430   1.293  11.310  0.1711 -0.6912  1.8643
  868MOL0     H19726   5.582   1.339  11.246 -0.3712  0.9218  1.5271
  868MOL0     H19727   5.608   1.233  11.463 -0.7279  1.0221 -0.0634
  868MOL0     H19728   5.513   1.088  11.419  0.9737 -1.7474 -0.9932
  868MOL0     H19729   5.790   1.175  11.288 -0.0009  0.7068  1.2058
  868MOL0     H19730   5.709   1.029  11.265  0.5081  1.1420 -0.4355
  868MOL0     H19731   5.853   1.120  11.517 -1.5010  2.4943 -1.2353
  868MOL0     H19732   5.726   0.988  11.523 -0.0168 -0.1989  2.1917
  868MOL0     H19733   6.080   1.052  11.404 -2.3751  1.6901 -4.0441
  868MOL0     H19734   6.228   0.871  11.247  0.1391  0.1451  0.4524
  868MOL0     H19735   6.232   0.702  11.317 -2.0962 -1.1865  1.1326
  868MOL0     H19736   6.338   0.966  11.423  1.3432 -0.3215  3.0148
  868MOL0     H19737   6.284   0.857  11.543 -0.5865  2.2667  0.5982
  868MOL0     H19738   6.504   0.775  11.515 -1.7265  0.9977  2.6969
  868MOL0     H19739   6.413   0.660  11.414  4.3743 -0.5338 -3.4068
  868MOL0     H19740   6.613   0.737  11.300 -1.4319 -1.6102  0.3797
  868MOL0     H19741   6.472   0.768  11.213  0.9276  2.4120 -1.9272
  868MOL0     H19742   6.653   1.179  11.251 -1.4076 -0.6106 -1.4004
  868MOL0     H19743   6.955   1.361  11.330 -1.1086  3.9270 -0.1067
  868MOL0     H19744   6.783   1.396  11.368 -0.0198 -0.3565  0.8038
  868MOL0     H19745   6.833   1.311  11.214 -1.7391 -0.9855  0.3482
  868MOL0     H19746   7.095   1.527  11.476  3.3233  1.9835 -1.6467
  868MOL0     H19747   7.273   1.673  11.564 -1.7976 -0.0937 -0.5002
  868MOL0     H19748   7.556   1.694  11.926 -2.2319  0.6091 -0.0770
  868MOL0     H19749   7.451   1.561  11.970 -1.6997 -1.6950 -1.2263
  868MOL0     H19750   7.543   1.403  11.823 -0.0417  0.0065 -0.1654
  868MOL0     H19751   7.638   1.530  11.736 -1.8702  1.3356 -0.0332
  868MOL0     H19752   7.761   1.597  11.953  0.3508 -0.0864 -1.5789
  868MOL0     H19753   7.801   1.445  11.864 -0.2347 -1.9335  0.0660
  868MOL0     H19754   7.688   1.311  12.040  0.0733 -0.5432  1.7730
  868MOL0     H19755   7.616   1.457  12.109 -0.0031  0.1198 -1.2313
  868MOL0     H19756   7.919   1.392  12.100 -0.8325 -0.8349 -0.8564
  868MOL0     H19757   7.835   1.535  12.177  2.5663  0.1136  0.0084
  868MOL0     H19758   7.812   1.238  12.268 -2.6743 -1.2295  3.1064
  868MOL0     H19759   7.690   1.354  12.307 -0.2089 -1.7811 -0.6986
  868MOL0     H19760   7.822   1.480  12.432  1.6043 -0.6003  1.6965
  868MOL0     H19761   7.979   1.400  12.369  0.9704 -1.0503  1.2814
  868MOL0     H19762   7.909   1.180  12.466 -1.7709 -0.8554  0.7150
  868MOL0     H19763   7.749   1.245  12.499  0.0332  1.5637 -0.4516
  868MOL0     H19764   7.357   1.388  11.883  0.0958 -0.1296 -0.3129
  868MOL0     H19765   7.176   1.247  11.798 -1.1965 -0.5028 -2.2503
  868MOL0     H19766   6.949   0.934  11.565 -0.2813 -0.5640  0.0032
  868MOL0     H19767   6.731   0.824  11.490 -2.4425  0.2475 -2.4116
  868MOL0     H19768   5.127   1.458  10.833  0.7130 -1.4400  1.1011
  868MOL0     H19769   4.889   1.532  10.809 -1.4581  0.5541  0.8776
  868MOL0     H19770   4.343   1.252  10.960  2.9552 -4.5083 -1.4927
  868MOL0     H19771   4.129   1.209  10.844 -2.7362  2.4048  0.1529
  868MOL0     H19772   3.957   1.182  10.722 -2.2126  2.3062  2.8574
  868MOL0     H19773   3.899   1.335  10.716 -0.9095 -1.9889  2.2973
  868MOL0     H19774   3.838   1.124  10.534 -1.4567 -0.3925  2.4461
  868MOL0     H19775   3.937   1.232  10.434 -0.3818 -0.1924  0.5480
  868MOL0     H19776   3.710   1.336  10.587  0.4588 -1.7945  0.1741
  868MOL0     H19777   3.811   1.412  10.459  1.0562 -0.0310  0.3912
  868MOL0     H19778   3.647   1.173  10.381 -2.1600  1.1145  1.7324
  868MOL0     H19779   3.721   1.308  10.286  1.0822 -2.5638  0.1901
  868MOL0     H19780   3.343   1.467  10.419  0.5645  0.0382  2.0698
  868MOL0     H19781   4.263   1.469  10.525 -1.7725  0.7953  0.4199
  868MOL0     H19782   4.585   1.462  10.534 -1.0973 -0.9896  0.1252
  868MOL0     H19783   4.441   1.575  10.523  0.6798  1.2971 -0.6569
  868MOL0     H19784   4.558   1.587  10.654  1.3128 -1.2713 -0.2460
  869MOL0     O19785   3.301   8.276   8.820 -0.2759  0.0909  0.2455
  869MOL0     C19786   3.205   8.340   8.779  0.3249 -0.4932  0.2366
  869MOL0     O19787   3.194   8.476   8.743  0.4821  0.0431 -0.9039
  869MOL0     C19788   3.290   8.575   8.777  0.1923  0.2948  1.1401
  869MOL0     C19789   3.423   8.556   8.756 -0.1617 -0.3434 -0.9413
  869MOL0     C19790   3.516   8.657   8.798  0.3648 -0.4299  0.1972
  869MOL0     C19791   3.470   8.772   8.868  0.6043 -0.4004 -0.4830
  869MOL0     O19792   3.550   8.874   8.910  0.1874  0.1383 -0.5078
  869MOL0     C19793   3.676   8.833   8.971  0.5748 -0.0621  1.0711
  869MOL0     C19794   3.720   8.950   9.061 -0.7104 -1.0091  0.2580
  869MOL0     C19795   3.616   8.985   9.168  0.3479  0.6943 -0.4451
  869MOL0     C19796   3.682   9.052   9.282  0.4838 -0.6928 -0.7949
  869MOL0     C19797   3.581   9.106   9.381 -0.6738  0.0465  0.5000
  869MOL0     C19798   3.523   8.993   9.454  0.2426 -0.9340 -1.3193
  869MOL0     C19799   3.429   9.049   9.567  0.3736  0.2160  0.3973
  869MOL0     C19800   3.350   8.946   9.648  0.2823  0.9142 -0.0196
  869MOL0     N19801   3.443   8.854   9.720  0.0075 -0.2009 -0.1403
  869MOL0     C19802   3.495   8.879   9.846 -0.7305  0.7781 -0.1005
  869MOL0     C19803   3.601   8.795   9.868  0.4083  0.1387  0.9064
  869MOL0     C19804   3.672   8.780   9.998 -0.0251  0.0335  1.1036
  869MOL0     C19805   3.785   8.882  10.002  0.3025 -0.1640  0.1468
  869MOL0     C19806   3.851   8.881  10.135 -0.7480 -0.3991  0.7768
  869MOL0     C19807   3.969   8.980  10.142 -0.2543  0.7935  0.0184
  869MOL0     O19808   4.016   8.963  10.277  0.6960  0.7922  0.2484
  869MOL0     C19809   4.116   9.039  10.316 -0.1548 -1.3920  0.3409
  869MOL0     C19810   4.159   9.027  10.446  0.2439 -0.0843 -0.7315
  869MOL0     C19811   4.263   9.095  10.500  0.4275 -1.3622 -0.0324
  869MOL0     C19812   4.289   9.085  10.647 -0.8916 -0.2331  0.1603
  869MOL0     C19813   4.334   9.190  10.420  0.4857  0.7553 -0.6147
  869MOL0     C19814   4.458   9.253  10.460 -0.8151 -0.4322 -0.0779
  869MOL0     O19815   4.558   9.264  10.365 -0.2716  0.4527 -0.7202
  869MOL0     C19816   4.683   9.316  10.398 -0.0351 -0.1312 -0.7456
  869MOL0     C19817   4.712   9.437  10.334  0.2063  0.2415  0.1491
  869MOL0     C19818   4.830   9.490  10.367 -0.1664 -0.5623 -0.9487
  869MOL0     C19819   4.926   9.442  10.464 -0.0394 -0.8163 -0.1337
  869MOL0     O19820   5.045   9.506  10.489 -0.3493 -0.4834  0.1214
  869MOL0     C19821   5.058   9.645  10.480  0.0940 -0.1629 -0.1425
  869MOL0     C19822   5.176   9.681  10.570  0.0546 -0.0510 -0.2670
  869MOL0     C19823   5.301   9.687  10.476 -0.0639 -0.5167 -0.0104
  869MOL0     C19824   5.432   9.698  10.563  0.2537  0.2642  0.1073
  869MOL0     C19825   5.554   9.672  10.473 -0.7746 -0.3043  0.2298
  869MOL0     C19826   5.587   9.527  10.460  0.2546  0.3587 -0.5872
  869MOL0     C19827   5.720   9.512  10.383 -0.8659 -0.0388 -0.1391
  869MOL0     C19828   5.709   9.403  10.272  0.6555  0.0078 -0.1929
  869MOL0    Cl19829   5.675   9.235  10.332 -0.0464  0.1954  0.0274
  869MOL0     C19830   4.889   9.324  10.525 -0.0175 -0.2739 -0.3807
  869MOL0     C19831   4.767   9.259  10.499  0.1985  0.3841  0.3257
  869MOL0     O19832   4.467   9.295  10.578  0.6938 -0.4479 -0.6931
  869MOL0     C19833   4.299   9.189  10.285 -0.3255 -0.9322 -0.7183
  869MOL0     C19834   4.191   9.121  10.230  0.2603  0.0644  0.0765
  869MOL0     N19835   3.614   8.721   9.750  0.4077 -0.0057 -0.6935
  869MOL0     N19836   3.516   8.756   9.665  0.2233  0.1542  0.2657
  869MOL0     C19837   3.335   8.786   8.891 -0.1533 -0.8996  0.2607
  869MOL0     C19838   3.246   8.690   8.845 -1.1941 -0.8047  0.3931
  869MOL0     C19839   3.082   8.262   8.749 -0.0960 -0.4026 -0.7056
  869MOL0     C19840   2.997   8.312   8.642 -0.5680  0.1916  0.0609
  869MOL0     C19841   2.887   8.251   8.601 -0.0392  0.2168  0.6616
  869MOL0     C19842   2.845   8.136   8.669  0.5085  0.4633 -0.4638
  869MOL0     O19843   2.722   8.078   8.647  0.3793 -0.1765  0.1427
  869MOL0     C19844   2.707   7.996   8.529 -0.3750 -0.2194 -0.0603
  869MOL0     C19845   2.633   7.865   8.565  0.2105 -0.4729  0.4846
  869MOL0     C19846   2.695   7.806   8.696  0.9434 -0.0032 -0.0048
  869MOL0     C19847   2.613   7.680   8.722  0.2974 -0.1200 -0.6757
  869MOL0     C19848   2.681   7.600   8.818 -0.2237 -0.5065  0.3224
  869MOL0     C19849   2.732   7.537   8.911  0.7669 -0.9928  0.2255
  869MOL0     C19850   2.930   8.078   8.764 -0.5859 -0.7795  0.0296
  869MOL0     C19851   3.045   8.149   8.817  0.0414  0.2838 -0.0223
  869MOL0     C19852   3.113   8.095   8.938  0.6942  0.0380  0.7467
  869MOL0     H19853   3.455   8.466   8.705 -3.1685 -2.1853  0.1003
  869MOL0     H19854   3.617   8.650   8.759 -0.2498 -1.0466 -1.3662
  869MOL0     H19855   3.754   8.804   8.900  0.3766  0.7734  0.4916
  869MOL0     H19856   3.660   8.745   9.033 -3.0443 -2.1244 -2.3324
  869MOL0     H19857   3.809   8.914   9.113 -1.0583 -0.9699  0.8940
  869MOL0     H19858   3.743   9.041   9.004  1.8792 -0.7828  1.5195
  869MOL0     H19859   3.532   9.047   9.136  2.0147  2.9029 -0.8744
  869MOL0     H19860   3.574   8.892   9.207 -3.2930  2.4018  0.0339
  869MOL0     H19861   3.762   8.992   9.326  0.9004  0.3095 -0.1629
  869MOL0     H19862   3.745   9.126   9.232  2.3153 -2.0325 -0.5561
  869MOL0     H19863   3.501   9.161   9.331 -0.6381 -1.5312 -1.4672
  869MOL0     H19864   3.627   9.177   9.449 -0.0557  2.6312 -2.3802
  869MOL0     H19865   3.466   8.925   9.390 -0.2197 -0.0632 -1.8575
  869MOL0     H19866   3.604   8.940   9.507  2.9035  1.2551 -2.9524
  869MOL0     H19867   3.365   9.124   9.519 -0.6959  0.0356  1.4818
  869MOL0     H19868   3.482   9.104   9.645  1.1597  0.1935 -0.1197
  869MOL0     H19869   3.276   8.988   9.716 -2.6212 -2.6539 -0.6136
  869MOL0     H19870   3.289   8.880   9.585  2.0688 -0.5786 -0.2805
  869MOL0     H19871   3.445   8.939   9.921 -1.7106  0.8950 -0.8317
  869MOL0     H19872   3.705   8.678  10.021 -1.2864 -0.3960  1.0734
  869MOL0     H19873   3.602   8.807  10.077 -1.7657  2.0404 -0.9727
  869MOL0     H19874   3.852   8.885   9.916 -1.1809  3.1373 -1.0730
  869MOL0     H19875   3.745   8.983   9.989 -0.2203 -0.3343  0.4173
  869MOL0     H19876   3.776   8.903  10.212 -0.7591  2.1409  0.1370
  869MOL0     H19877   3.894   8.781  10.145  3.2506  1.1752  1.2444
  869MOL0     H19878   4.044   8.946  10.070  1.1284  2.1964  0.7314
  869MOL0     H19879   3.944   9.085  10.125 -0.3335  1.0997  1.8414
  869MOL0     H19880   4.104   8.963  10.514  3.4659 -0.7430  1.4628
  869MOL0     H19881   4.209   9.026  10.693 -0.0033 -1.6199 -0.0190
  869MOL0     H19882   4.293   9.185  10.691 -1.4339 -0.7699  1.4866
  869MOL0     H19883   4.380   9.030  10.672 -0.9475 -1.9114 -2.7617
  869MOL0     H19884   4.633   9.479  10.273 -0.2599 -0.3358  0.3425
  869MOL0     H19885   4.860   9.587  10.328  2.1137  0.7654  3.3637
  869MOL0     H19886   5.062   9.678  10.375 -2.3666  0.2525 -0.1691
  869MOL0     H19887   4.970   9.699  10.516 -0.4331  0.4202 -2.1702
  869MOL0     H19888   5.179   9.781  10.613  2.2522  1.0386 -2.6684
  869MOL0     H19889   5.191   9.599  10.642 -4.0226 -1.0558 -0.3294
  869MOL0     H19890   5.299   9.773  10.407  0.6673 -0.1540  0.4123
  869MOL0     H19891   5.307   9.598  10.413 -2.8898 -0.1765 -0.8969
  869MOL0     H19892   5.425   9.621  10.640 -2.3391  2.3045  2.1262
  869MOL0     H19893   5.449   9.792  10.617 -0.6443  0.4842  0.0268
  869MOL0     H19894   5.557   9.730  10.380  0.6198 -0.1093  0.3668
  869MOL0     H19895   5.642   9.714  10.524  0.9204 -1.7937 -1.3167
  869MOL0     H19896   5.510   9.476  10.402 -0.4558 -0.3372  0.9080
  869MOL0     H19897   5.594   9.472  10.554 -1.4180 -0.1471 -0.7342
  869MOL0     H19898   5.797   9.480  10.454 -1.8302 -0.9596  0.5247
  869MOL0     H19899   5.750   9.606  10.335  1.3969  0.2204  1.6130
  869MOL0     H19900   5.799   9.406  10.210  0.5513 -1.0079 -0.4085
  869MOL0     H19901   5.624   9.435  10.211  1.1543  2.4571  0.2701
  869MOL0     H19902   4.963   9.293  10.599  0.1026  3.5235  1.3534
  869MOL0     H19903   4.724   9.175  10.553 -1.5660  0.5344 -0.7382
  869MOL0     H19904   4.368   9.236  10.216  1.3136  0.2039  1.5594
  869MOL0     H19905   4.164   9.125  10.125 -1.8703  1.8545  0.6261
  869MOL0     H19906   3.305   8.874   8.947  0.2549 -1.1898  0.9451
  869MOL0     H19907   3.140   8.711   8.853 -0.6472  1.8142  2.4171
  869MOL0     H19908   3.028   8.411   8.612  0.2120 -0.2571 -0.6594
  869MOL0     H19909   2.818   8.300   8.532 -1.2185  2.6327  3.3593
  869MOL0     H19910   2.641   8.043   8.455 -3.0985 -3.2290  0.2239
  869MOL0     H19911   2.800   7.976   8.476 -0.8044 -0.6587 -0.6683
  869MOL0     H19912   2.634   7.795   8.482 -0.4584 -0.3139  0.3394
  869MOL0     H19913   2.527   7.891   8.576  0.0081  0.0362 -2.1061
  869MOL0     H19914   2.799   7.779   8.674  1.4413  1.1368  0.8539
  869MOL0     H19915   2.685   7.871   8.784 -3.6709 -0.2076 -0.1430
  869MOL0     H19916   2.615   7.625   8.627 -0.0273  0.0854 -0.8063
  869MOL0     H19917   2.512   7.698   8.759 -0.1207 -2.8480 -0.2769
  869MOL0     H19918   2.780   7.495   8.997  0.3572  1.9475  2.0210
  869MOL0     H19919   2.891   7.989   8.812  2.0146 -2.1592 -0.2427
  869MOL0     H19920   3.146   8.177   9.002  1.2748  0.8654 -0.5853
  869MOL0     H19921   3.051   8.017   8.984 -1.1190  1.2752  0.4695
  869MOL0     H19922   3.203   8.038   8.910  1.0212 -0.3497  2.4723
  870MOL0     O19923   2.984   4.498   9.189 -0.0048  0.3000  0.0148
  870MOL0     C19924   3.073   4.568   9.240 -1.0182  0.9943  0.0489
  870MOL0     O19925   3.176   4.513   9.318 -0.8309  0.6785 -0.1338
  870MOL0     C19926   3.245   4.403   9.276  0.2647 -0.4201 -0.2090
  870MOL0     C19927   3.383   4.406   9.290  0.6413  0.0083 -0.1759
  870MOL0     C19928   3.477   4.309   9.252 -0.9535  1.2069  0.5905
  870MOL0     C19929   3.430   4.204   9.178 -0.2090  0.7462 -0.4950
  870MOL0     O19930   3.525   4.113   9.147  0.2308  0.1828 -0.3662
  870MOL0     C19931   3.517   4.035   9.031  0.5295 -0.3101  0.5039
  870MOL0     C19932   3.652   4.028   8.967 -0.0829 -0.0891 -0.3928
  870MOL0     C19933   3.650   3.916   8.862  0.3424  0.3995 -0.3991
  870MOL0     C19934   3.762   3.935   8.768 -0.2748  0.3405 -0.2199
  870MOL0     C19935   3.778   3.834   8.653 -0.3404  0.1972  0.6426
  870MOL0     C19936   3.806   3.688   8.693 -0.0901  0.6704 -0.4369
  870MOL0     C19937   3.777   3.582   8.596 -0.4437  0.5733 -0.1162
  870MOL0     C19938   3.847   3.583   8.460  0.0451  0.3990 -0.4851
  870MOL0     N19939   3.989   3.549   8.485  0.3664 -0.8681  0.2482
  870MOL0     C19940   4.035   3.427   8.512  1.0109 -0.4061  0.6567
  870MOL0     C19941   4.159   3.442   8.572 -0.1667  0.0441 -0.2273
  870MOL0     C19942   4.232   3.331   8.632  0.1479  0.4305 -0.2278
  870MOL0     C19943   4.384   3.358   8.646 -0.2987  0.7235 -0.5910
  870MOL0     C19944   4.424   3.308   8.795 -0.1751 -0.4214  1.1527
  870MOL0     C19945   4.565   3.339   8.836  0.0188  0.7450  0.2811
  870MOL0     O19946   4.574   3.324   8.977 -0.0267 -0.4842 -0.0904
  870MOL0     C19947   4.687   3.368   9.048 -0.3113  0.0841  0.7987
  870MOL0     C19948   4.684   3.343   9.182  0.4637 -0.3950  0.6124
  870MOL0     C19949   4.791   3.365   9.268  0.1237  0.4556  0.1414
  870MOL0     C19950   4.773   3.313   9.400  0.1790  0.6663 -0.4024
  870MOL0     C19951   4.909   3.417   9.217  0.0417 -0.3513  0.8512
  870MOL0     C19952   5.020   3.429   9.308 -0.9688 -1.0459  0.3707
  870MOL0     O19953   5.073   3.313   9.355 -0.1239  0.1046 -0.5363
  870MOL0     C19954   5.173   3.314   9.451  0.6598 -0.1183 -0.8077
  870MOL0     C19955   5.146   3.376   9.573 -0.4133 -0.8583 -0.0102
  870MOL0     C19956   5.233   3.373   9.679 -0.0225  0.0242  0.2800
  870MOL0     C19957   5.352   3.308   9.669 -0.5428  0.8328  0.1368
  870MOL0     O19958   5.441   3.330   9.772 -0.5042  0.5018 -0.2422
  870MOL0     C19959   5.543   3.428   9.735 -0.0097  0.7484 -0.7189
  870MOL0     C19960   5.648   3.432   9.842 -0.0630 -0.5359  0.2428
  870MOL0     C19961   5.768   3.519   9.799 -0.4609 -0.5135  0.6300
  870MOL0     C19962   5.883   3.517   9.903 -0.0627 -0.3849  0.3450
  870MOL0     C19963   6.018   3.554   9.828  0.4643 -0.1100 -0.0346
  870MOL0     C19964   6.132   3.558   9.928  0.2987  0.5884  0.1349
  870MOL0     C19965   6.252   3.624   9.865 -0.2589  0.1120 -0.9482
  870MOL0     C19966   6.371   3.641   9.973  0.2393 -0.8604 -0.8140
  870MOL0    Cl19967   6.307   3.723  10.128 -0.4150 -0.1134  0.0144
  870MOL0     C19968   5.385   3.244   9.548 -0.2429  0.2048  0.3005
  870MOL0     C19969   5.296   3.239   9.440 -0.6689 -0.1235  0.6065
  870MOL0     O19970   5.070   3.545   9.328 -0.1397  1.0181  0.4650
  870MOL0     C19971   4.916   3.450   9.079  0.1331 -0.0976  0.6263
  870MOL0     C19972   4.801   3.424   8.997  0.1209  0.9002 -0.4559
  870MOL0     N19973   4.189   3.579   8.568  0.6478 -0.3646  0.4037
  870MOL0     N19974   4.091   3.640   8.505  0.0770 -0.1678 -0.2392
  870MOL0     C19975   3.286   4.195   9.156  0.5338  0.3252  0.4028
  870MOL0     C19976   3.193   4.288   9.212  0.2141 -0.5097  0.0785
  870MOL0     C19977   3.052   4.714   9.227  0.1476 -0.5315 -0.0984
  870MOL0     C19978   2.935   4.759   9.163 -0.5415  1.7795 -0.1221
  870MOL0     C19979   2.911   4.893   9.135 -0.6957 -0.4178  0.0071
  870MOL0     C19980   3.003   4.996   9.187 -0.7756  1.4047  0.1225
  870MOL0     O19981   2.991   5.132   9.186  0.4809  0.0801  0.8783
  870MOL0     C19982   2.874   5.196   9.130 -0.3152 -0.9816  0.3098
  870MOL0     C19983   2.885   5.352   9.085  0.9157  0.2688  0.0870
  870MOL0     C19984   2.832   5.442   9.191  0.2495  0.0997 -0.2491
  870MOL0     C19985   2.833   5.590   9.141  0.3523 -0.0559 -1.0913
  870MOL0     C19986   2.734   5.627   9.042 -0.1404  0.1859 -0.2546
  870MOL0     C19987   2.663   5.666   8.953  0.3479  0.4172 -0.0206
  870MOL0     C19988   3.128   4.950   9.251 -0.0713 -1.0325  0.5108
  870MOL0     C19989   3.154   4.809   9.262  0.0463 -0.2748 -0.4949
  870MOL0     C19990   3.286   4.777   9.338  1.0174  0.7857  0.5325
  870MOL0     H19991   3.429   4.494   9.333  1.1563 -0.7733  0.9381
  870MOL0     H19992   3.576   4.328   9.294 -1.3779  2.6923  0.9859
  870MOL0     H19993   3.445   4.092   8.971 -1.5624 -0.6979  2.4962
  870MOL0     H19994   3.478   3.936   9.056 -0.7161  0.4163  1.6153
  870MOL0     H19995   3.666   4.127   8.923 -1.0558 -0.0921 -0.7309
  870MOL0     H19996   3.728   4.016   9.044  0.5103 -0.3968 -1.0097
  870MOL0     H19997   3.674   3.819   8.907 -1.7990 -0.3309 -0.6977
  870MOL0     H19998   3.558   3.908   8.804  1.2372  0.1097 -1.8114
  870MOL0     H19999   3.748   4.031   8.718 -2.2513  0.4448  0.4633
  870MOL0     H20000   3.858   3.941   8.821 -0.1629  2.3897 -0.5455
  870MOL0     H20001   3.864   3.864   8.593 -0.6343  2.4776  1.2756
  870MOL0     H20002   3.695   3.838   8.582  0.0106 -2.9888 -0.1138
  870MOL0     H20003   3.911   3.682   8.724 -0.5351  3.0804  1.8956
  870MOL0     H20004   3.762   3.659   8.789  1.6761 -4.9863 -0.9340
  870MOL0     H20005   3.673   3.606   8.571 -0.1289 -0.5022 -2.7633
  870MOL0     H20006   3.794   3.482   8.638 -0.7967 -0.8018 -2.9698
  870MOL0     H20007   3.797   3.513   8.392 -0.9323 -1.6755  2.1689
  870MOL0     H20008   3.835   3.682   8.415 -2.5369 -1.0781 -3.4043
  870MOL0     H20009   3.977   3.337   8.494 -1.8859  1.7984 -2.1005
  870MOL0     H20010   4.226   3.238   8.576  2.2953  0.2882 -0.3003
  870MOL0     H20011   4.189   3.325   8.732 -1.7090  0.5877 -0.9749
  870MOL0     H20012   4.433   3.295   8.571 -0.0846  0.1154  0.0512
  870MOL0     H20013   4.411   3.463   8.641  2.3558  0.4581  3.6023
  870MOL0     H20014   4.366   3.357   8.874  0.4461  0.0605  1.3235
  870MOL0     H20015   4.402   3.203   8.816 -0.7570 -0.6166 -0.3346
  870MOL0     H20016   4.633   3.269   8.786 -0.5131 -1.0698  1.9675
  870MOL0     H20017   4.590   3.440   8.802  1.7208  1.1748  2.6092
  870MOL0     H20018   4.590   3.302   9.216  0.4583 -0.1390  0.9135
  870MOL0     H20019   4.773   3.204   9.402  1.2413  0.5952 -2.0677
  870MOL0     H20020   4.685   3.356   9.449  0.2333  1.3413 -0.8785
  870MOL0     H20021   4.856   3.344   9.464  0.8649  0.0865 -0.9946
  870MOL0     H20022   5.053   3.427   9.598  0.8564  0.2095  3.0056
  870MOL0     H20023   5.199   3.408   9.775 -2.2455 -1.1774 -0.0033
  870MOL0     H20024   5.592   3.394   9.644  1.6793  0.9661  0.0773
  870MOL0     H20025   5.486   3.520   9.719 -1.3530  0.3750  1.5305
  870MOL0     H20026   5.601   3.485   9.925 -2.4786  2.1352 -2.5804
  870MOL0     H20027   5.668   3.328   9.868  0.3788 -0.1165  1.6927
  870MOL0     H20028   5.736   3.620   9.771 -1.7889 -1.4643 -1.5716
  870MOL0     H20029   5.793   3.466   9.707  0.5616  1.9718 -0.6251
  870MOL0     H20030   5.882   3.415   9.942 -1.3558 -0.6351 -0.2693
  870MOL0     H20031   5.871   3.583   9.989 -0.5303 -0.8631  0.6504
  870MOL0     H20032   6.038   3.484   9.747 -0.1633  1.7322 -1.8582
  870MOL0     H20033   6.009   3.652   9.781  0.3571 -1.1371 -2.2482
  870MOL0     H20034   6.164   3.459   9.964  1.1784  1.2043  1.0993
  870MOL0     H20035   6.100   3.617  10.014  1.6498  2.1929 -0.4136
  870MOL0     H20036   6.235   3.729   9.838 -0.3646 -0.4596 -3.3292
  870MOL0     H20037   6.286   3.573   9.775 -2.7526 -0.1826 -1.7881
  870MOL0     H20038   6.438   3.713   9.926 -0.8554 -0.0297 -1.1474
  870MOL0     H20039   6.425   3.552  10.006  2.4698  0.2797 -1.2105
  870MOL0     H20040   5.491   3.231   9.531 -0.2054 -1.6379  1.6251
  870MOL0     H20041   5.326   3.199   9.344  1.4810  1.1231  0.7143
  870MOL0     H20042   5.010   3.485   9.038  0.2842  2.1188  2.6823
  870MOL0     H20043   4.816   3.442   8.891  0.8819  3.4694  0.0221
  870MOL0     H20044   3.239   4.112   9.104 -2.1297  2.4709 -0.8761
  870MOL0     H20045   3.090   4.272   9.184 -0.1168  0.2350  0.8121
  870MOL0     H20046   2.865   4.686   9.124 -0.3791  1.5584  0.0005
  870MOL0     H20047   2.834   4.914   9.062  0.8016 -2.0915 -2.1753
  870MOL0     H20048   2.839   5.137   9.045 -0.8323  0.0286 -0.1925
  870MOL0     H20049   2.798   5.192   9.208 -0.3695  1.8300  0.4910
  870MOL0     H20050   2.830   5.376   8.993  0.0883  1.7565  0.9453
  870MOL0     H20051   2.988   5.371   9.053  1.1180 -0.6748  0.1258
  870MOL0     H20052   2.728   5.415   9.214  0.4862 -0.0677  0.6558
  870MOL0     H20053   2.893   5.442   9.282 -0.9559 -1.0770  0.6039
  870MOL0     H20054   2.936   5.612   9.112  0.9453 -1.9075 -0.5520
  870MOL0     H20055   2.807   5.650   9.228  0.8826  1.5412 -1.9902
  870MOL0     H20056   2.603   5.687   8.866 -0.6654 -2.6964 -0.1809
  870MOL0     H20057   3.204   5.021   9.280 -0.9002  0.0060  0.2094
  870MOL0     H20058   3.353   4.864   9.339  2.4189 -0.2484  2.1747
  870MOL0     H20059   3.263   4.749   9.441 -2.2522  1.3130  0.0639
  870MOL0     H20060   3.331   4.687   9.294 -3.3171 -0.7773 -1.2820
  871MOL0     O20061   0.637   4.150   6.120  0.1499 -0.8382  0.0866
  871MOL0     C20062   0.585   4.108   6.017 -0.6655 -0.0294 -0.4579
  871MOL0     O20063   0.632   3.996   5.946 -0.1050 -1.0162 -0.1092
  871MOL0     C20064   0.757   3.941   5.964 -0.3249  0.6038 -0.0587
  871MOL0     C20065   0.865   4.008   6.027 -0.1237  0.3315  0.2708
  871MOL0     C20066   0.990   3.956   6.054  0.1324  1.2920  0.4446
  871MOL0     C20067   1.013   3.824   6.014  0.2340  0.4482 -0.3494
  871MOL0     O20068   1.132   3.757   6.035  0.7982  0.4737 -0.2550
  871MOL0     C20069   1.250   3.835   6.069 -0.3258 -0.4094  0.2270
  871MOL0     C20070   1.373   3.749   6.041 -0.2026 -0.5224  0.0035
  871MOL0     C20071   1.505   3.825   6.060 -0.6003  0.0234 -0.1921
  871MOL0     C20072   1.623   3.749   5.987  0.1116 -0.6502 -0.0082
  871MOL0     C20073   1.761   3.754   6.053  0.1708 -0.1368  0.3520
  871MOL0     C20074   1.809   3.899   6.075 -0.4264  1.2625  0.3726
  871MOL0     C20075   1.959   3.907   6.114 -0.2747  0.7098  0.5225
  871MOL0     C20076   1.984   4.045   6.174 -0.8610  0.6522  0.7503
  871MOL0     N20077   2.121   4.067   6.220  0.6694  0.3687  0.4775
  871MOL0     C20078   2.203   3.975   6.283  0.4675 -0.3552  0.2573
  871MOL0     C20079   2.318   4.043   6.302 -0.4481  0.1867  0.1148
  871MOL0     C20080   2.455   3.988   6.353  0.0733 -0.0460 -0.5166
  871MOL0     C20081   2.459   3.994   6.506  0.2286  0.5190  0.3721
  871MOL0     C20082   2.466   4.142   6.554 -0.1840  0.2217  0.1468
  871MOL0     C20083   2.582   4.220   6.504 -0.3267 -0.2920  0.7716
  871MOL0     O20084   2.702   4.181   6.570  0.0847 -0.3729  0.0188
  871MOL0     C20085   2.805   4.156   6.494 -0.4414  0.9116 -0.4974
  871MOL0     C20086   2.828   4.026   6.445  0.1269  0.1931  0.6563
  871MOL0     C20087   2.947   3.994   6.379 -1.1820 -0.4403  0.1524
  871MOL0     C20088   2.967   3.858   6.322  0.2946  0.2160  0.4802
  871MOL0     C20089   3.058   4.088   6.366  0.3665  0.7657  0.0067
  871MOL0     C20090   3.188   4.055   6.306 -0.6850  0.1145  0.9422
  871MOL0     O20091   3.245   4.149   6.225 -0.4258  0.5730 -0.1873
  871MOL0     C20092   3.372   4.129   6.168  0.3047 -0.5150 -0.1625
  871MOL0     C20093   3.420   4.245   6.105 -0.4861  0.1430 -0.2277
  871MOL0     C20094   3.536   4.246   6.026 -0.0768  0.1096 -0.9587
  871MOL0     C20095   3.606   4.125   6.005  0.9484  0.3747  0.5148
  871MOL0     O20096   3.714   4.138   5.933  0.2232  0.1816 -0.0662
  871MOL0     C20097   3.798   4.020   5.911  0.0936 -0.5919  0.7255
  871MOL0     C20098   3.927   4.050   5.830  0.1106  0.8338  0.1530
  871MOL0     C20099   4.044   3.954   5.867  0.3734 -0.4299 -0.1719
  871MOL0     C20100   4.155   3.981   5.759 -0.1247 -0.9180  0.2469
  871MOL0     C20101   4.268   3.885   5.772 -0.5532  0.1794 -0.6051
  871MOL0     C20102   4.355   3.881   5.645  0.0329 -0.5555 -0.9609
  871MOL0     C20103   4.503   3.872   5.683 -0.0963  0.4460 -0.8190
  871MOL0     C20104   4.597   3.868   5.557  0.2475  0.0327 -0.8018
  871MOL0    Cl20105   4.761   3.832   5.600 -0.1298  0.4496 -0.3841
  871MOL0     C20106   3.562   4.003   6.068 -0.3096  0.8162  0.0086
  871MOL0     C20107   3.443   4.005   6.141  0.0060  0.3102 -0.8436
  871MOL0     O20108   3.241   3.951   6.343  0.1575 -0.0471  0.5290
  871MOL0     C20109   3.033   4.216   6.423  0.1208  0.1598  0.0484
  871MOL0     C20110   2.910   4.243   6.492 -0.6186  0.5036  0.5177
  871MOL0     N20111   2.299   4.172   6.253 -0.0604  0.2420 -0.6191
  871MOL0     N20112   2.180   4.182   6.217  0.1484 -0.2989  0.5312
  871MOL0     C20113   0.914   3.750   5.960  0.1311 -1.1284 -0.0956
  871MOL0     C20114   0.790   3.804   5.929  0.2474 -0.0792  0.2731
  871MOL0     C20115   0.467   4.175   5.968 -0.7928  0.4638  0.2965
  871MOL0     C20116   0.389   4.101   5.870 -0.1379  0.4204  0.1198
  871MOL0     C20117   0.265   4.148   5.818 -0.6879  0.2232 -0.0443
  871MOL0     C20118   0.213   4.267   5.872 -0.2670  0.4542 -1.1996
  871MOL0     O20119   0.090   4.318   5.837 -0.4467  0.0372 -0.0331
  871MOL0     C20120   0.015   4.266   5.725  0.1893  0.0081 -0.7375
  871MOL0     C20121  -0.123   4.345   5.731  0.6905 -0.1341 -0.2838
  871MOL0     C20122  -0.217   4.304   5.616 -0.4628  0.7751  0.2317
  871MOL0     C20123  -0.336   4.393   5.588 -0.3013 -0.5388  0.2175
  871MOL0     C20124  -0.287   4.526   5.544 -0.4374  0.2300 -0.3344
  871MOL0     C20125  -0.240   4.633   5.508 -0.4187  0.9324  0.5584
  871MOL0     C20126   0.280   4.336   5.971  0.0549  0.9274  0.1357
  871MOL0     C20127   0.413   4.298   6.014  0.3617 -0.3710  0.0833
  871MOL0     C20128   0.463   4.394   6.116 -0.5854  0.6410 -0.1626
  871MOL0     H20129   0.847   4.112   6.054 -0.5168  0.5306 -0.7181
  871MOL0     H20130   1.076   4.014   6.084  1.9874 -0.6802 -0.7537
  871MOL0     H20131   1.257   3.850   6.177  3.4621 -1.3770  0.2510
  871MOL0     H20132   1.258   3.933   6.021  1.5617 -0.8555 -0.4547
  871MOL0     H20133   1.380   3.663   6.109 -1.9933  0.8100  1.9800
  871MOL0     H20134   1.358   3.711   5.940 -2.3127  3.1949 -1.2577
  871MOL0     H20135   1.496   3.927   6.020 -3.3715  0.7471  1.9004
  871MOL0     H20136   1.527   3.832   6.167  1.2531 -0.4706 -0.5148
  871MOL0     H20137   1.611   3.641   5.980  1.1146 -0.7419 -0.5446
  871MOL0     H20138   1.628   3.792   5.886  1.5638  1.4818  0.8938
  871MOL0     H20139   1.836   3.695   6.000 -0.4298  1.6343 -2.7000
  871MOL0     H20140   1.746   3.708   6.151  2.4204 -1.7866 -0.0121
  871MOL0     H20141   1.792   3.961   5.986 -1.0765  3.1886  1.7731
  871MOL0     H20142   1.742   3.936   6.154 -3.3019 -2.4676 -0.0147
  871MOL0     H20143   2.033   3.892   6.035 -0.5323 -0.6586  0.5085
  871MOL0     H20144   1.974   3.823   6.182 -3.4372 -0.6577 -0.2954
  871MOL0     H20145   1.956   4.116   6.097  0.0253  1.3052  1.0151
  871MOL0     H20146   1.917   4.061   6.259 -2.5166 -0.6506 -0.2577
  871MOL0     H20147   2.190   3.869   6.305 -1.7073  0.0854  1.2660
  871MOL0     H20148   2.545   4.029   6.305  2.1470  0.0787  3.1011
  871MOL0     H20149   2.460   3.881   6.329 -2.7266 -0.5108  0.6878
  871MOL0     H20150   2.367   3.946   6.541 -0.3793  1.5271  0.2062
  871MOL0     H20151   2.538   3.930   6.546 -0.6050 -1.4007 -0.8931
  871MOL0     H20152   2.368   4.178   6.522 -0.9477 -1.4565  0.5041
  871MOL0     H20153   2.467   4.150   6.664 -0.7749 -0.4214  0.2064
  871MOL0     H20154   2.596   4.205   6.397  0.1124  0.0993  0.7728
  871MOL0     H20155   2.568   4.326   6.523  0.4519  0.2709 -1.5503
  871MOL0     H20156   2.748   3.956   6.469 -1.3864  1.1565 -1.2728
  871MOL0     H20157   3.035   3.850   6.237 -2.1213 -1.1538 -1.4403
  871MOL0     H20158   2.873   3.809   6.296  0.3567 -0.2135  1.0367
  871MOL0     H20159   3.009   3.800   6.405 -2.5990 -0.2516  1.7305
  871MOL0     H20160   3.367   4.339   6.118 -0.1278  0.3218 -0.0376
  871MOL0     H20161   3.563   4.341   5.979 -1.9931  0.7589 -0.8218
  871MOL0     H20162   3.828   3.970   6.003 -0.2714 -0.4962  0.8984
  871MOL0     H20163   3.744   3.943   5.854  0.1984  0.1613 -0.4324
  871MOL0     H20164   3.901   4.029   5.726 -1.1781  0.0038  0.6157
  871MOL0     H20165   3.954   4.155   5.848  0.2535  0.9116 -0.5032
  871MOL0     H20166   4.014   3.850   5.855  4.9500 -1.8756 -0.9613
  871MOL0     H20167   4.069   3.964   5.973  2.7309  1.8548 -0.8228
  871MOL0     H20168   4.188   4.085   5.766 -1.0995 -0.5443 -0.4059
  871MOL0     H20169   4.120   3.961   5.657  1.7329 -3.8155  0.0632
  871MOL0     H20170   4.326   3.921   5.857 -2.0650 -2.1422  1.5379
  871MOL0     H20171   4.243   3.780   5.790 -0.1490  0.1571 -0.1420
  871MOL0     H20172   4.338   3.978   5.596  0.1299  1.3137  2.3952
  871MOL0     H20173   4.327   3.796   5.582 -1.1640 -1.5999  0.8978
  871MOL0     H20174   4.516   3.782   5.743 -1.1893 -0.3906 -1.7799
  871MOL0     H20175   4.535   3.953   5.749 -1.2604 -0.2939  0.7104
  871MOL0     H20176   4.594   3.971   5.519  0.6586 -0.3882 -2.0452
  871MOL0     H20177   4.564   3.798   5.480 -1.2740 -2.2279  1.7558
  871MOL0     H20178   3.610   3.907   6.057 -0.5643  0.8516 -1.6473
  871MOL0     H20179   3.408   3.915   6.191  1.4061  2.4641  4.8230
  871MOL0     H20180   3.113   4.289   6.422 -1.6286  2.2187 -1.6690
  871MOL0     H20181   2.905   4.342   6.536  0.8595  1.6636 -1.7323
  871MOL0     H20182   0.935   3.649   5.925 -1.8117 -2.0795  1.2786
  871MOL0     H20183   0.718   3.751   5.867 -3.0684  2.2926  1.8081
  871MOL0     H20184   0.401   4.000   5.830 -4.0165  1.5059 -4.7866
  871MOL0     H20185   0.208   4.084   5.752 -0.6492 -0.1549  0.2865
  871MOL0     H20186   0.063   4.287   5.629  0.5301  0.1101 -0.5448
  871MOL0     H20187  -0.003   4.160   5.745 -0.3317 -0.0018 -1.2022
  871MOL0     H20188  -0.112   4.453   5.746  1.4789 -0.3712  0.9926
  871MOL0     H20189  -0.167   4.310   5.825  1.3358  1.3100  0.5867
  871MOL0     H20190  -0.161   4.284   5.525  1.0249 -2.4832  1.7203
  871MOL0     H20191  -0.247   4.202   5.642  1.5913 -0.1260 -0.7331
  871MOL0     H20192  -0.399   4.397   5.677 -0.3387  0.6165  0.1564
  871MOL0     H20193  -0.391   4.345   5.507 -1.3861 -0.8161  1.0962
  871MOL0     H20194  -0.204   4.721   5.459  1.3072 -0.5256 -0.9069
  871MOL0     H20195   0.223   4.414   6.021 -2.0660 -1.3907  1.5523
  871MOL0     H20196   0.570   4.380   6.137 -0.9820  1.2379  2.6754
  871MOL0     H20197   0.435   4.499   6.103 -1.4791  0.3643 -0.5433
  871MOL0     H20198   0.408   4.366   6.206  0.8221 -1.0286  0.2376
  872MOL0     O20199   0.339   5.972   5.502 -0.0608  0.1982 -0.3088
  872MOL0     C20200   0.401   5.971   5.610  0.2354  0.3578  0.0843
  872MOL0     O20201   0.347   5.935   5.725 -0.0401  0.1224  0.3309
  872MOL0     C20202   0.235   5.853   5.737  0.4372 -0.5563 -0.6635
  872MOL0     C20203   0.170   5.850   5.863 -0.9591 -1.1029 -0.0151
  872MOL0     C20204   0.044   5.783   5.883  0.6062 -0.1182 -0.1418
  872MOL0     C20205  -0.024   5.721   5.780 -0.6804 -0.3084 -0.4917
  872MOL0     O20206  -0.139   5.660   5.814  0.0440  0.1895  0.5135
  872MOL0     C20207  -0.213   5.566   5.731 -0.2152 -0.1931  0.2461
  872MOL0     C20208  -0.356   5.545   5.794 -0.6579  0.2717  0.5918
  872MOL0     C20209  -0.420   5.417   5.740 -0.6108  0.2220 -1.1154
  872MOL0     C20210  -0.573   5.401   5.773  0.7637  0.0319  0.5861
  872MOL0     C20211  -0.626   5.316   5.889  0.7782 -0.8106  0.6416
  872MOL0     C20212  -0.603   5.397   6.018 -0.3540  0.1886 -0.1917
  872MOL0     C20213  -0.704   5.513   6.031 -0.1139 -0.1215 -0.4728
  872MOL0     C20214  -0.681   5.586   6.165  0.4159 -1.0251 -0.0107
  872MOL0     N20215  -0.605   5.712   6.155 -0.4217 -1.2286 -0.5945
  872MOL0     C20216  -0.483   5.724   6.093  0.2881  0.4797  0.6218
  872MOL0     C20217  -0.449   5.855   6.096 -0.1847 -0.5461 -0.8079
  872MOL0     C20218  -0.321   5.897   6.034 -0.2854 -0.7455  0.0703
  872MOL0     C20219  -0.226   5.948   6.145  0.6493 -0.7164  0.1257
  872MOL0     C20220  -0.276   6.086   6.206 -0.7136  1.0643 -0.4952
  872MOL0     C20221  -0.154   6.149   6.271  0.1883 -0.0799 -0.7301
  872MOL0     O20222  -0.065   6.179   6.165 -0.3798  0.2756  0.5223
  872MOL0     C20223   0.066   6.198   6.211 -0.0484  0.5984  0.9670
  872MOL0     C20224   0.111   6.235   6.339  0.4177 -0.3529 -1.0537
  872MOL0     C20225   0.246   6.268   6.372  0.3385  0.2073  0.4198
  872MOL0     C20226   0.270   6.304   6.516  0.5622  1.0128 -0.4527
  872MOL0     C20227   0.345   6.245   6.273  0.1443 -0.5221 -0.0496
  872MOL0     C20228   0.497   6.279   6.288 -0.2247  0.0899  0.2631
  872MOL0     O20229   0.553   6.292   6.413 -0.6452 -0.2487 -0.1063
  872MOL0     C20230   0.689   6.310   6.424 -0.0607 -0.8202 -0.0256
  872MOL0     C20231   0.779   6.356   6.320 -0.5131 -0.7887 -0.4877
  872MOL0     C20232   0.924   6.361   6.345  0.7914  0.0455  0.0335
  872MOL0     C20233   0.977   6.322   6.468 -0.0559 -0.8433 -0.3228
  872MOL0     O20234   1.109   6.323   6.500 -0.3597 -0.5463  0.6864
  872MOL0     C20235   1.201   6.418   6.435  0.0702  0.2471 -0.1529
  872MOL0     C20236   1.336   6.353   6.421  0.7260 -0.6156  0.5995
  872MOL0     C20237   1.397   6.306   6.548 -0.9187 -0.2550 -0.1997
  872MOL0     C20238   1.551   6.282   6.537 -0.1202  0.7479  0.5173
  872MOL0     C20239   1.594   6.173   6.632 -1.4591  0.3303 -0.0323
  872MOL0     C20240   1.736   6.114   6.607 -0.4269 -0.1840  0.4395
  872MOL0     C20241   1.767   6.048   6.477  0.3383 -0.0540  0.3748
  872MOL0     C20242   1.911   6.038   6.434 -0.1062  0.1453 -0.4080
  872MOL0    Cl20243   2.010   5.911   6.518  0.1218  0.0683  0.3493
  872MOL0     C20244   0.882   6.288   6.566  0.3214  0.0986 -1.0068
  872MOL0     C20245   0.745   6.274   6.540 -0.3558  1.4047  0.2017
  872MOL0     O20246   0.557   6.276   6.179 -0.4933  0.1949  0.5355
  872MOL0     C20247   0.307   6.188   6.148  0.2493 -0.9469  0.0242
  872MOL0     C20248   0.167   6.172   6.114 -0.3502  0.8643  0.6712
  872MOL0     N20249  -0.554   5.924   6.144  0.2121  0.2917 -0.2080
  872MOL0     N20250  -0.651   5.838   6.177  0.2758  0.1162 -0.4269
  872MOL0     C20251   0.045   5.716   5.655 -0.2676 -0.0170 -0.1407
  872MOL0     C20252   0.168   5.784   5.634 -0.1385  0.2366  0.5100
  872MOL0     C20253   0.543   5.988   5.606  0.3104 -1.0485  0.6856
  872MOL0     C20254   0.617   5.945   5.708 -1.0567  0.5929  0.3394
  872MOL0     C20255   0.750   5.978   5.726 -0.1682  0.1369  0.1652
  872MOL0     C20256   0.817   6.062   5.633 -0.6302  0.3557 -0.1968
  872MOL0     O20257   0.952   6.079   5.643  0.2790  0.0549 -0.0800
  872MOL0     C20258   1.005   6.199   5.594 -0.2520  0.4752  0.7543
  872MOL0     C20259   1.154   6.213   5.646  0.2202  0.3417 -0.0607
  872MOL0     C20260   1.229   6.316   5.571  0.2852 -0.5140 -1.1197
  872MOL0     C20261   1.266   6.287   5.425  0.2928  0.1366  0.1213
  872MOL0     C20262   1.315   6.152   5.404 -0.3653  0.4262  0.6607
  872MOL0     C20263   1.331   6.027   5.382  0.7020 -1.1008 -0.1213
  872MOL0     C20264   0.746   6.103   5.518  0.4772  0.0538 -0.0362
  872MOL0     C20265   0.610   6.067   5.503  0.4491 -0.2272  0.1049
  872MOL0     C20266   0.543   6.135   5.385  0.0401 -0.1917  0.2652
  872MOL0     H20267   0.209   5.911   5.943 -1.6364  0.2240 -0.6632
  872MOL0     H20268   0.006   5.790   5.984 -2.1461 -1.5098 -0.9869
  872MOL0     H20269  -0.163   5.469   5.728  0.3024 -0.0294  2.1135
  872MOL0     H20270  -0.217   5.605   5.629 -1.4205  1.0236  0.7167
  872MOL0     H20271  -0.333   5.543   5.901 -0.2117  0.1823  0.4942
  872MOL0     H20272  -0.419   5.632   5.768  0.3634  1.0747  0.7364
  872MOL0     H20273  -0.408   5.427   5.632 -1.6279  0.7147 -1.2003
  872MOL0     H20274  -0.372   5.327   5.779  1.0975  1.7562  0.5271
  872MOL0     H20275  -0.613   5.503   5.780  1.5013  0.5835 -2.0710
  872MOL0     H20276  -0.617   5.353   5.685 -0.4842 -1.3832  1.9284
  872MOL0     H20277  -0.573   5.221   5.899  0.5650 -0.7854  2.1687
  872MOL0     H20278  -0.731   5.289   5.871  0.6591 -0.9768  1.5450
  872MOL0     H20279  -0.606   5.330   6.104 -0.2713  0.0010 -0.3343
  872MOL0     H20280  -0.503   5.441   6.022 -0.5630  0.5900  1.5790
  872MOL0     H20281  -0.802   5.466   6.032  0.6394 -1.7405  0.5978
  872MOL0     H20282  -0.711   5.588   5.951 -2.6233 -1.0184 -1.1806
  872MOL0     H20283  -0.783   5.606   6.199  0.7957  0.8286  0.1219
  872MOL0     H20284  -0.636   5.517   6.237 -2.3416  1.0613  4.0825
  872MOL0     H20285  -0.424   5.642   6.056 -0.5215  0.4763 -0.7170
  872MOL0     H20286  -0.328   5.967   5.950 -1.3711 -1.9259 -0.8418
  872MOL0     H20287  -0.268   5.811   5.992 -0.3240  0.8549 -3.6358
  872MOL0     H20288  -0.209   5.868   6.217  1.5124 -0.4350  0.2567
  872MOL0     H20289  -0.128   5.955   6.096 -0.8202 -0.6973 -3.0733
  872MOL0     H20290  -0.322   6.149   6.130 -3.7191  0.3717  0.6410
  872MOL0     H20291  -0.352   6.062   6.281 -1.3749 -2.1215 -1.9773
  872MOL0     H20292  -0.183   6.240   6.324 -1.2449 -1.3058  0.7316
  872MOL0     H20293  -0.104   6.082   6.341  0.8125 -0.2904 -1.3736
  872MOL0     H20294   0.033   6.249   6.414 -0.7177  1.0568 -2.4151
  872MOL0     H20295   0.316   6.216   6.562  1.5570  1.5709 -0.3459
  872MOL0     H20296   0.181   6.340   6.568  0.8466 -1.2583  1.7723
  872MOL0     H20297   0.340   6.388   6.515  0.5995  0.9887 -0.0812
  872MOL0     H20298   0.747   6.407   6.230  2.3123  1.4178 -0.3740
  872MOL0     H20299   0.985   6.409   6.269  1.7127 -2.0761 -0.6262
  872MOL0     H20300   1.171   6.444   6.333 -0.0454 -2.3617 -0.8539
  872MOL0     H20301   1.200   6.506   6.500  0.3508  0.1887 -0.0683
  872MOL0     H20302   1.322   6.271   6.350 -0.7410  1.4628 -1.6755
  872MOL0     H20303   1.404   6.419   6.366  0.1562 -0.1997  0.3806
  872MOL0     H20304   1.338   6.217   6.568 -2.3304  0.4716 -0.9994
  872MOL0     H20305   1.370   6.374   6.630 -2.5065 -0.8761 -0.1793
  872MOL0     H20306   1.606   6.374   6.558  1.7733  0.4476 -2.4653
  872MOL0     H20307   1.576   6.250   6.435 -2.0197 -0.9264  0.5129
  872MOL0     H20308   1.592   6.219   6.731 -2.5392  4.1543 -1.6789
  872MOL0     H20309   1.521   6.092   6.622 -0.4231 -0.9334  1.8631
  872MOL0     H20310   1.748   6.041   6.688 -4.9669 -0.0363  1.5704
  872MOL0     H20311   1.808   6.192   6.631  1.9648 -2.5867  1.6867
  872MOL0     H20312   1.706   6.097   6.400  1.5949  0.0792 -0.5790
  872MOL0     H20313   1.723   5.948   6.479 -1.8805  0.8073 -1.2809
  872MOL0     H20314   1.973   6.128   6.439  1.9168 -1.2317  0.8043
  872MOL0     H20315   1.907   6.011   6.328 -2.0854  2.1357 -0.9272
  872MOL0     H20316   0.924   6.258   6.662  0.3605  1.2812 -0.6328
  872MOL0     H20317   0.672   6.233   6.609 -0.4877 -2.5840 -2.0486
  872MOL0     H20318   0.383   6.164   6.075  1.0594 -0.1800  0.5912
  872MOL0     H20319   0.122   6.144   6.019  1.1936 -0.8908  0.3905
  872MOL0     H20320   0.014   5.665   5.564  0.3105 -0.3427 -0.1597
  872MOL0     H20321   0.216   5.776   5.537  1.3356  1.4207  1.0946
  872MOL0     H20322   0.564   5.883   5.779 -0.7551 -1.4208 -1.0949
  872MOL0     H20323   0.816   5.944   5.806  0.3307 -0.0028 -0.3017
  872MOL0     H20324   1.020   6.193   5.486 -0.1837 -2.3695  0.8258
  872MOL0     H20325   0.935   6.279   5.619 -0.9876  0.3457 -0.7539
  872MOL0     H20326   1.203   6.115   5.652 -0.4009  0.0327  0.0268
  872MOL0     H20327   1.139   6.248   5.749 -0.0997 -0.2488  0.0989
  872MOL0     H20328   1.172   6.410   5.575  1.3290  0.1047  0.0746
  872MOL0     H20329   1.322   6.337   5.624 -1.8510 -1.6333  3.5303
  872MOL0     H20330   1.337   6.361   5.387  0.0054 -0.9490 -2.7582
  872MOL0     H20331   1.175   6.292   5.364  0.4686  0.0014 -0.1554
  872MOL0     H20332   1.328   5.929   5.339 -1.1066 -2.3703  2.6043
  872MOL0     H20333   0.789   6.174   5.447  0.3853  0.9759  0.8032
  872MOL0     H20334   0.555   6.064   5.303 -3.1438 -2.8614  1.8879
  872MOL0     H20335   0.443   6.173   5.407  0.5555  0.9947  0.6371
  872MOL0     H20336   0.591   6.230   5.362 -0.6662 -0.4339 -2.6149
  873MOL0     O20337   2.168   5.656   3.666 -0.3783  0.5195  0.6451
  873MOL0     C20338   2.111   5.549   3.686  0.9814  0.7548 -0.9737
  873MOL0     O20339   2.179   5.430   3.693 -0.1389  0.1072 -0.6156
  873MOL0     C20340   2.317   5.445   3.716 -0.2031  0.3971  0.2904
  873MOL0     C20341   2.406   5.480   3.610 -0.5783  0.5781 -0.3821
  873MOL0     C20342   2.541   5.515   3.637  0.0187  0.2050 -0.3133
  873MOL0     C20343   2.594   5.502   3.762  0.4242 -0.8733  0.4782
  873MOL0     O20344   2.729   5.532   3.785  0.6149 -0.3424  0.0635
  873MOL0     C20345   2.777   5.502   3.914 -0.5286 -0.1958 -0.3722
  873MOL0     C20346   2.928   5.516   3.897  0.2065 -0.0888  0.5381
  873MOL0     C20347   3.006   5.502   4.024 -0.3020  0.0536  0.7723
  873MOL0     C20348   3.161   5.521   4.008  0.2024  0.2885 -0.5434
  873MOL0     C20349   3.240   5.477   4.137 -0.3008  0.6469 -0.7735
  873MOL0     C20350   3.394   5.515   4.120  0.0381  0.0751  0.7036
  873MOL0     C20351   3.477   5.462   4.238  0.7127  0.0336  0.8659
  873MOL0     C20352   3.618   5.511   4.242 -0.5458 -0.1079 -0.4191
  873MOL0     N20353   3.687   5.490   4.379  0.9866  0.3851  0.4822
  873MOL0     C20354   3.672   5.573   4.493 -0.5519  0.4296  0.0725
  873MOL0     C20355   3.758   5.517   4.585 -0.2448  0.1177  0.2084
  873MOL0     C20356   3.777   5.591   4.715 -0.5271  0.7598  0.1323
  873MOL0     C20357   3.926   5.614   4.734  0.5366 -0.5017 -0.5332
  873MOL0     C20358   3.948   5.683   4.873 -0.0716  0.7346  0.0228
  873MOL0     C20359   4.101   5.695   4.902  1.2308  0.9619 -0.2226
  873MOL0     O20360   4.101   5.712   5.046 -0.6738  0.1275 -0.8164
  873MOL0     C20361   4.232   5.670   5.090 -0.0122 -0.7425 -0.7450
  873MOL0     C20362   4.236   5.585   5.200 -0.3288  0.0107  0.8808
  873MOL0     C20363   4.354   5.523   5.247  0.2217  0.3916 -0.4660
  873MOL0     C20364   4.367   5.448   5.384 -0.2860  0.2310  1.0237
  873MOL0     C20365   4.475   5.552   5.168 -0.2263  1.1748  0.3549
  873MOL0     C20366   4.612   5.488   5.193  0.5481 -0.0925 -0.2939
  873MOL0     O20367   4.708   5.507   5.092 -0.1226 -0.3217  0.3368
  873MOL0     C20368   4.844   5.482   5.115 -0.1750 -0.9396  0.1936
  873MOL0     C20369   4.903   5.383   5.045  0.3410  0.0958 -0.7237
  873MOL0     C20370   5.045   5.371   5.056 -0.4129  0.4155 -0.4861
  873MOL0     C20371   5.115   5.449   5.147  0.2432 -0.0896  0.5039
  873MOL0     O20372   5.241   5.413   5.187 -0.4873  0.5071  0.5832
  873MOL0     C20373   5.255   5.271   5.215  0.7185 -0.3761  0.5510
  873MOL0     C20374   5.398   5.252   5.259 -0.9713  0.0060 -0.3771
  873MOL0     C20375   5.493   5.307   5.145 -0.0125  0.3131  0.0536
  873MOL0     C20376   5.604   5.206   5.115  0.2433 -0.0938  0.1325
  873MOL0     C20377   5.689   5.232   4.995 -0.4077 -0.3987 -0.3783
  873MOL0     C20378   5.759   5.362   4.981 -0.9726  0.6654  0.3294
  873MOL0     C20379   5.851   5.361   4.866 -0.2600  0.3853  0.4204
  873MOL0     C20380   5.914   5.509   4.859 -0.8738  0.4460 -0.1607
  873MOL0    Cl20381   5.997   5.577   5.008 -0.6417  0.1017 -0.4082
  873MOL0     C20382   5.049   5.552   5.216 -0.0289 -0.5616 -0.7262
  873MOL0     C20383   4.920   5.576   5.190  0.5147 -0.0537  0.1465
  873MOL0     O20384   4.633   5.418   5.294 -0.2556  0.1949  0.5969
  873MOL0     C20385   4.469   5.639   5.066  0.2007 -0.2729 -0.1371
  873MOL0     C20386   4.353   5.703   5.023  0.2351  0.1607  0.8007
  873MOL0     N20387   3.816   5.408   4.528 -0.3603 -0.2710  0.1413
  873MOL0     N20388   3.774   5.393   4.404 -0.1957  0.6095 -0.5717
  873MOL0     C20389   2.512   5.454   3.871 -0.8637 -0.3901  0.2967
  873MOL0     C20390   2.371   5.427   3.842  0.2431 -0.1227  0.1917
  873MOL0     C20391   1.969   5.547   3.676 -0.1032 -0.3074  0.4886
  873MOL0     C20392   1.903   5.422   3.656 -0.4068 -0.7602  0.9288
  873MOL0     C20393   1.763   5.430   3.640  0.7830  0.1896  0.3238
  873MOL0     C20394   1.689   5.546   3.642 -0.3092  0.8023 -0.3227
  873MOL0     O20395   1.554   5.545   3.638 -0.4418  0.3012  0.7943
  873MOL0     C20396   1.468   5.449   3.574 -0.2147  0.0695 -0.0618
  873MOL0     C20397   1.365   5.527   3.479 -1.1461 -0.7182 -0.2110
  873MOL0     C20398   1.302   5.653   3.552  0.2025 -0.4842  0.1965
  873MOL0     C20399   1.177   5.705   3.473  0.0165  0.9886  0.4302
  873MOL0     C20400   1.203   5.758   3.336  0.1997 -0.2750 -0.0629
  873MOL0     C20401   1.224   5.798   3.222 -0.2306  0.2110  0.1852
  873MOL0     C20402   1.749   5.666   3.677  0.8638 -0.6953  0.1185
  873MOL0     C20403   1.889   5.665   3.696  0.4479  0.4394  0.4485
  873MOL0     C20404   1.947   5.796   3.756 -0.8433 -0.7130 -0.5007
  873MOL0     H20405   2.363   5.511   3.515 -0.3480 -0.6782 -0.9129
  873MOL0     H20406   2.608   5.550   3.559 -2.1190  2.9847 -1.0625
  873MOL0     H20407   2.772   5.397   3.945  2.5512 -1.2449 -2.9445
  873MOL0     H20408   2.749   5.572   3.994  0.7616 -0.2286  0.1203
  873MOL0     H20409   2.962   5.440   3.826  1.5727  0.5256  0.5093
  873MOL0     H20410   2.956   5.612   3.854 -1.8018  0.3765  0.1975
  873MOL0     H20411   2.966   5.573   4.097 -3.9020  0.0320 -0.9516
  873MOL0     H20412   2.985   5.401   4.060  1.3036 -0.6458 -0.1455
  873MOL0     H20413   3.197   5.448   3.935 -2.1614 -0.5508 -0.9375
  873MOL0     H20414   3.189   5.623   3.981  2.1385  0.0625  0.4677
  873MOL0     H20415   3.228   5.369   4.147 -2.6376  0.9907  0.8130
  873MOL0     H20416   3.199   5.523   4.227 -0.5345  0.6524 -0.8835
  873MOL0     H20417   3.427   5.476   4.023  0.0583  3.2512 -0.6698
  873MOL0     H20418   3.414   5.622   4.118  2.1491 -0.2766 -0.2283
  873MOL0     H20419   3.482   5.354   4.227  0.1697  0.1737 -1.3141
  873MOL0     H20420   3.419   5.492   4.325 -2.6554 -1.8504 -0.5548
  873MOL0     H20421   3.679   5.464   4.164  0.1508 -0.3279  0.2413
  873MOL0     H20422   3.624   5.619   4.226  0.5354 -0.1918 -0.6695
  873MOL0     H20423   3.607   5.660   4.502 -0.8447  0.0621  2.0125
  873MOL0     H20424   3.725   5.535   4.794 -1.1701 -0.4935 -1.1256
  873MOL0     H20425   3.730   5.690   4.715 -2.7703 -0.1563  2.4652
  873MOL0     H20426   3.985   5.522   4.745  0.7692 -0.2509  0.3685
  873MOL0     H20427   3.972   5.671   4.652  2.9780 -0.5750  0.6778
  873MOL0     H20428   3.902   5.781   4.888 -2.9501 -0.8866  3.2763
  873MOL0     H20429   3.899   5.617   4.945  3.2432 -1.1741  0.7163
  873MOL0     H20430   4.148   5.600   4.873 -1.5501 -0.0355 -1.8672
  873MOL0     H20431   4.148   5.770   4.837  2.1769 -3.4837 -5.3680
  873MOL0     H20432   4.143   5.563   5.252  0.1350 -2.6719  0.6918
  873MOL0     H20433   4.392   5.344   5.364  0.3172  1.0490 -3.3264
  873MOL0     H20434   4.266   5.440   5.426 -1.0763 -2.8070 -1.1446
  873MOL0     H20435   4.442   5.499   5.446  1.4229  0.6984 -1.3005
  873MOL0     H20436   4.844   5.313   4.985 -3.3430  0.1452  2.4548
  873MOL0     H20437   5.097   5.292   5.003  0.4018  0.8329 -0.3204
  873MOL0     H20438   5.181   5.242   5.290 -1.7408 -1.9229 -2.2430
  873MOL0     H20439   5.237   5.202   5.131 -2.2880  0.2047  0.6391
  873MOL0     H20440   5.422   5.306   5.351 -0.6936  0.7972 -0.9123
  873MOL0     H20441   5.425   5.147   5.274  2.0937  0.6407 -0.8195
  873MOL0     H20442   5.533   5.404   5.177 -2.1334  1.4095 -0.4455
  873MOL0     H20443   5.439   5.310   5.050 -0.5478 -3.4909  0.0872
  873MOL0     H20444   5.546   5.113   5.105 -0.2162  0.1115  0.7962
  873MOL0     H20445   5.662   5.192   5.206 -1.0396 -4.0355  0.5196
  873MOL0     H20446   5.770   5.159   5.008  2.8365  2.4768 -2.7460
  873MOL0     H20447   5.632   5.202   4.907 -1.1319 -1.7776  0.5298
  873MOL0     H20448   5.821   5.386   5.068  1.3819  0.9422 -1.3420
  873MOL0     H20449   5.691   5.446   4.970  0.8666  2.0959 -0.6981
  873MOL0     H20450   5.795   5.332   4.776  0.2830 -0.5620  0.3698
  873MOL0     H20451   5.930   5.286   4.875 -1.3510 -0.8470  0.0900
  873MOL0     H20452   5.835   5.578   4.826 -0.3230  0.9908 -0.3697
  873MOL0     H20453   5.986   5.504   4.776 -1.0671  0.5360 -0.3336
  873MOL0     H20454   5.097   5.615   5.290  2.5265 -0.0224 -2.6815
  873MOL0     H20455   4.870   5.650   5.252  1.8928  0.2568  0.9330
  873MOL0     H20456   4.557   5.664   5.008  1.4323 -1.2477  1.2481
  873MOL0     H20457   4.366   5.763   4.933 -1.5188 -2.6741 -1.5283
  873MOL0     H20458   2.543   5.457   3.975 -0.6500  1.3598  0.2113
  873MOL0     H20459   2.290   5.394   3.906 -0.9326  1.4752 -0.3986
  873MOL0     H20460   1.956   5.328   3.650 -2.5549 -2.0309  0.8642
  873MOL0     H20461   1.707   5.337   3.631  0.3514  0.4975 -0.2172
  873MOL0     H20462   1.518   5.367   3.522 -0.1368 -0.7712  1.2744
  873MOL0     H20463   1.414   5.403   3.658  1.0267  0.6403  1.0817
  873MOL0     H20464   1.283   5.463   3.444 -0.6650 -1.9609  0.8333
  873MOL0     H20465   1.417   5.555   3.388  0.3910 -0.3578  0.7431
  873MOL0     H20466   1.265   5.624   3.651 -0.2300 -1.2782 -0.1869
  873MOL0     H20467   1.371   5.737   3.560  0.2945 -0.4612 -0.7383
  873MOL0     H20468   1.138   5.791   3.528 -3.0956  0.2039 -0.3722
  873MOL0     H20469   1.099   5.630   3.476  1.3302 -0.3957  1.2932
  873MOL0     H20470   1.239   5.828   3.121  2.1080 -1.2945 -0.0042
  873MOL0     H20471   1.698   5.760   3.694  0.0794 -1.1503  0.3624
  873MOL0     H20472   1.872   5.866   3.792  2.0272  0.0103  5.3772
  873MOL0     H20473   1.999   5.778   3.851 -0.8610  1.5534 -0.0043
  873MOL0     H20474   2.009   5.857   3.689 -0.7728  3.2450  2.7343
  874MOL0     O20475   0.700   6.997   3.056  0.0225 -0.2401  0.5818
  874MOL0     C20476   0.744   6.998   3.166 -0.7629 -0.0160 -0.4801
  874MOL0     O20477   0.682   6.945   3.278  0.3177 -0.1835 -0.7332
  874MOL0     C20478   0.590   6.843   3.262 -0.1874 -0.6639 -0.4468
  874MOL0     C20479   0.599   6.743   3.163  0.1572 -0.8202  1.0145
  874MOL0     C20480   0.525   6.623   3.166  0.0709  0.3949  0.0397
  874MOL0     C20481   0.425   6.621   3.263  0.1476  0.4349  0.8932
  874MOL0     O20482   0.346   6.515   3.296 -0.1022  0.4796 -0.0418
  874MOL0     C20483   0.325   6.396   3.211 -0.1028  1.0260 -0.1259
  874MOL0     C20484   0.389   6.275   3.280 -0.2690 -0.0642  0.2764
  874MOL0     C20485   0.299   6.216   3.390 -0.2232  0.5690 -0.4620
  874MOL0     C20486   0.325   6.061   3.404 -0.8042  0.7157 -0.6433
  874MOL0     C20487   0.450   6.033   3.492 -0.4303 -0.1268  0.4408
  874MOL0     C20488   0.472   5.885   3.486 -0.0619 -0.0450  0.1616
  874MOL0     C20489   0.600   5.845   3.563  1.0827 -0.5941 -0.3042
  874MOL0     C20490   0.637   5.699   3.541 -0.2762  0.0167 -0.4154
  874MOL0     N20491   0.739   5.671   3.636  0.1689  0.6433  0.6874
  874MOL0     C20492   0.719   5.645   3.769  0.9132  0.4863 -0.4313
  874MOL0     C20493   0.839   5.627   3.820 -0.1996 -0.1248 -0.8179
  874MOL0     C20494   0.874   5.588   3.960 -0.2706  0.1147 -0.6774
  874MOL0     C20495   0.996   5.649   4.032 -0.0079  0.1604  0.1956
  874MOL0     C20496   1.126   5.583   3.980  0.5805  0.3430  0.0503
  874MOL0     C20497   1.249   5.617   4.078 -0.7378 -0.4180  0.4660
  874MOL0     O20498   1.368   5.617   4.004 -0.2064  0.8224 -0.1253
  874MOL0     C20499   1.494   5.609   4.068  0.1318  0.2603 -0.1542
  874MOL0     C20500   1.514   5.640   4.202 -0.0411 -0.3432 -0.2834
  874MOL0     C20501   1.637   5.619   4.269 -0.2268  0.6109  0.3675
  874MOL0     C20502   1.638   5.635   4.420 -0.3931  0.0498 -0.6464
  874MOL0     C20503   1.749   5.573   4.189  0.1252 -0.3153  0.2893
  874MOL0     C20504   1.887   5.567   4.234  0.8691 -0.8957 -1.0758
  874MOL0     O20505   1.983   5.511   4.153 -0.6448  0.1509  0.0349
  874MOL0     C20506   2.118   5.537   4.182  0.3403  0.0040  0.0428
  874MOL0     C20507   2.196   5.447   4.255  0.9531 -0.6271 -0.0196
  874MOL0     C20508   2.338   5.468   4.263  0.4203 -0.4993 -0.1570
  874MOL0     C20509   2.396   5.562   4.196 -0.6022 -0.7586 -0.4125
  874MOL0     O20510   2.527   5.565   4.198 -0.3583 -0.3464 -0.5701
  874MOL0     C20511   2.588   5.673   4.279  0.0228 -0.1953  0.0010
  874MOL0     C20512   2.664   5.619   4.401  0.3777  0.5213  0.5811
  874MOL0     C20513   2.805   5.555   4.366 -0.4443 -0.2571 -0.4029
  874MOL0     C20514   2.855   5.487   4.505  0.0854  0.2019 -0.0044
  874MOL0     C20515   2.962   5.389   4.469 -0.9195 -0.2281  0.5420
  874MOL0     C20516   3.029   5.344   4.599 -0.7074 -0.6910 -0.1766
  874MOL0     C20517   3.112   5.212   4.577 -0.4118 -1.1628 -0.2026
  874MOL0     C20518   3.237   5.243   4.489 -0.1187 -0.7280  0.2239
  874MOL0    Cl20519   3.347   5.381   4.541 -0.0834  0.2458 -0.0732
  874MOL0     C20520   2.323   5.659   4.128  0.1745 -1.3374  0.0086
  874MOL0     C20521   2.180   5.649   4.125  0.2933  0.7461  0.2782
  874MOL0     O20522   1.921   5.622   4.338  0.4076  0.1806  0.6601
  874MOL0     C20523   1.732   5.552   4.055 -0.1934 -0.2602  0.1978
  874MOL0     C20524   1.607   5.559   4.000 -0.2064 -0.4921  0.8401
  874MOL0     N20525   0.932   5.621   3.713 -0.5454 -0.0610 -0.3756
  874MOL0     N20526   0.868   5.648   3.603 -0.5043 -0.5441  1.1083
  874MOL0     C20527   0.408   6.725   3.357  0.0730  0.9328 -0.6699
  874MOL0     C20528   0.487   6.836   3.356 -0.1411  0.0184  0.8902
  874MOL0     C20529   0.880   7.063   3.184  0.4342  0.1032  0.1913
  874MOL0     C20530   0.982   6.987   3.253 -0.5311  0.7684  0.3557
  874MOL0     C20531   1.116   7.029   3.283 -0.4341 -0.2552  0.6529
  874MOL0     C20532   1.148   7.158   3.244  0.2229 -0.4345 -0.9446
  874MOL0     O20533   1.275   7.197   3.274 -1.5018  0.0149 -0.1314
  874MOL0     C20534   1.331   7.313   3.217  0.6717 -0.2997 -0.7805
  874MOL0     C20535   1.480   7.335   3.257  0.6984 -0.1036  0.3043
  874MOL0     C20536   1.582   7.245   3.179  0.0618 -0.7065  0.1941
  874MOL0     C20537   1.643   7.314   3.062 -0.4292  0.2411  0.2164
  874MOL0     C20538   1.732   7.222   2.995 -0.2986 -0.2074 -0.5034
  874MOL0     C20539   1.831   7.168   2.955 -0.4944  0.3596  0.0849
  874MOL0     C20540   1.052   7.239   3.177  0.6738  0.1312 -0.4112
  874MOL0     C20541   0.915   7.197   3.152 -0.1981  0.2248  0.6343
  874MOL0     C20542   0.810   7.289   3.110  0.8210 -0.7772 -0.4171
  874MOL0     H20543   0.675   6.769   3.091 -1.2523  6.3574  1.3311
  874MOL0     H20544   0.551   6.542   3.098 -1.1890 -0.3533  0.3955
  874MOL0     H20545   0.370   6.411   3.112  0.4755 -1.7536 -0.3556
  874MOL0     H20546   0.217   6.383   3.203 -0.3951  2.3290  1.2563
  874MOL0     H20547   0.390   6.202   3.198 -0.2095 -2.3257  2.2094
  874MOL0     H20548   0.482   6.306   3.328 -1.6283  3.9967  0.6490
  874MOL0     H20549   0.316   6.248   3.494  0.6560 -0.5049 -0.2480
  874MOL0     H20550   0.195   6.232   3.361 -0.5536 -0.8063 -0.0715
  874MOL0     H20551   0.236   6.012   3.444  0.8890 -2.8693 -0.8672
  874MOL0     H20552   0.341   6.016   3.306 -2.6439 -1.0665 -0.1984
  874MOL0     H20553   0.429   6.069   3.593 -2.8765  1.3443 -0.4943
  874MOL0     H20554   0.532   6.084   3.442 -1.8503 -1.6037 -3.8122
  874MOL0     H20555   0.384   5.839   3.531 -2.7782  3.7597 -0.7561
  874MOL0     H20556   0.483   5.852   3.382 -0.1530  1.7215 -0.4422
  874MOL0     H20557   0.586   5.866   3.670  0.0144  1.3325 -0.7723
  874MOL0     H20558   0.684   5.912   3.544  1.6787 -1.7924 -2.1207
  874MOL0     H20559   0.549   5.636   3.555 -0.5339  0.1199 -1.4330
  874MOL0     H20560   0.672   5.689   3.438 -0.0820  0.4481 -0.3941
  874MOL0     H20561   0.623   5.639   3.820  0.9041 -0.7759 -0.5589
  874MOL0     H20562   0.881   5.479   3.954 -3.5361 -0.1714 -1.5200
  874MOL0     H20563   0.788   5.615   4.023 -0.3696  0.0335 -0.7774
  874MOL0     H20564   0.986   5.758   4.031  0.7526  0.3264  2.7191
  874MOL0     H20565   1.003   5.613   4.135  1.9096 -1.4452 -0.4423
  874MOL0     H20566   1.104   5.476   3.982 -0.4981  0.5596  0.4101
  874MOL0     H20567   1.139   5.621   3.878  0.0241 -3.6636 -1.7032
  874MOL0     H20568   1.225   5.717   4.114  0.6399  0.4252 -0.8465
  874MOL0     H20569   1.260   5.547   4.162 -0.7736 -2.6058 -1.2537
  874MOL0     H20570   1.429   5.679   4.257 -0.2096 -1.9245  0.6589
  874MOL0     H20571   1.534   5.614   4.446 -1.1850  1.7273 -2.2132
  874MOL0     H20572   1.673   5.731   4.460  0.8355 -0.7306  0.2036
  874MOL0     H20573   1.701   5.569   4.481 -1.4798 -0.8774 -0.4950
  874MOL0     H20574   2.138   5.370   4.304 -0.8255  0.3459 -0.4916
  874MOL0     H20575   2.401   5.407   4.327  1.8273  1.5472  0.5140
  874MOL0     H20576   2.640   5.732   4.203 -1.5418  0.4203 -0.6562
  874MOL0     H20577   2.510   5.739   4.319  0.6687  0.6775 -0.1373
  874MOL0     H20578   2.682   5.707   4.462  1.7222  1.1491 -0.6588
  874MOL0     H20579   2.603   5.549   4.458 -2.0071  2.0542  0.0240
  874MOL0     H20580   2.867   5.634   4.323 -0.3700  0.4717  0.9802
  874MOL0     H20581   2.798   5.482   4.285  0.9276  1.9760 -2.6631
  874MOL0     H20582   2.768   5.427   4.531 -0.1283  1.1825  1.6361
  874MOL0     H20583   2.888   5.558   4.581  3.2004 -0.6516 -0.4310
  874MOL0     H20584   2.920   5.310   4.407 -0.2734  0.2629 -0.5590
  874MOL0     H20585   3.038   5.443   4.411 -1.7105  1.7358  1.2251
  874MOL0     H20586   2.950   5.308   4.665 -0.9733 -1.1433 -0.7347
  874MOL0     H20587   3.081   5.426   4.649 -1.1920 -0.7369  0.4043
  874MOL0     H20588   3.051   5.137   4.526 -1.5269 -1.7079  1.8064
  874MOL0     H20589   3.140   5.170   4.674 -1.9589 -1.2222  0.2523
  874MOL0     H20590   3.214   5.256   4.383 -0.2990 -1.4071  0.1749
  874MOL0     H20591   3.302   5.156   4.493  1.3247  0.3528  2.4559
  874MOL0     H20592   2.372   5.741   4.076 -1.5751 -0.0892  0.2286
  874MOL0     H20593   2.115   5.707   4.061  0.6530  1.8984  0.9447
  874MOL0     H20594   1.813   5.525   3.988  1.7204 -1.6397  2.8895
  874MOL0     H20595   1.591   5.530   3.897 -0.5357  0.9462  0.4677
  874MOL0     H20596   0.331   6.723   3.433  2.1564  0.4203  1.5259
  874MOL0     H20597   0.462   6.907   3.435 -0.7683  2.3142 -1.2573
  874MOL0     H20598   0.942   6.897   3.300 -2.8360  2.4343  1.8239
  874MOL0     H20599   1.185   6.988   3.355  1.3742  0.6796 -0.4792
  874MOL0     H20600   1.324   7.317   3.108 -0.2008  0.5223 -0.7080
  874MOL0     H20601   1.269   7.396   3.252 -2.0417 -2.3203 -0.4662
  874MOL0     H20602   1.486   7.322   3.366 -0.3524  0.7057  0.4849
  874MOL0     H20603   1.496   7.443   3.249  0.1084  0.0301  0.8362
  874MOL0     H20604   1.660   7.218   3.251 -1.0392 -1.2655  1.2008
  874MOL0     H20605   1.526   7.157   3.149 -2.6479  1.1947 -0.7318
  874MOL0     H20606   1.684   7.411   3.092 -3.4708  1.6193  0.2862
  874MOL0     H20607   1.562   7.340   2.993  0.6497  0.2935 -1.0661
  874MOL0     H20608   1.922   7.139   2.906 -0.3536  1.4827 -0.3412
  874MOL0     H20609   1.088   7.337   3.148  1.8565  0.2465  1.2996
  874MOL0     H20610   0.849   7.390   3.093 -0.4439  0.5753  3.6123
  874MOL0     H20611   0.781   7.260   3.009 -1.6374 -2.2362  0.6113
  874MOL0     H20612   0.715   7.284   3.163  0.7152 -2.9621 -0.7591
  875MOL0     O20613   0.658   1.169   4.924  0.1563  0.1253  0.2346
  875MOL0     C20614   0.662   1.222   4.815 -0.4807  0.0727  0.4655
  875MOL0     O20615   0.780   1.223   4.736 -0.2278  0.1577  0.0455
  875MOL0     C20616   0.901   1.199   4.803 -0.7517  0.0695  0.1907
  875MOL0     C20617   0.991   1.307   4.807 -1.4340 -0.1830 -0.0813
  875MOL0     C20618   1.119   1.285   4.862  0.1981 -0.4477 -0.6864
  875MOL0     C20619   1.156   1.168   4.936  0.2297 -0.3364 -0.1969
  875MOL0     O20620   1.280   1.148   4.992 -0.7662  0.2622  0.0685
  875MOL0     C20621   1.385   1.245   4.976 -0.0854 -0.5316  0.4140
  875MOL0     C20622   1.516   1.201   5.042 -0.4525  0.2103 -0.2092
  875MOL0     C20623   1.572   1.084   4.962 -0.0802 -0.0025  0.9383
  875MOL0     C20624   1.699   1.014   5.015  1.0664 -0.6026  0.1820
  875MOL0     C20625   1.777   0.932   4.911 -0.9321 -0.1437 -0.4409
  875MOL0     C20626   1.856   0.827   4.990 -0.2952 -0.5820  0.8159
  875MOL0     C20627   1.923   0.725   4.884 -0.7396  0.1154  0.0022
  875MOL0     C20628   1.962   0.596   4.962  0.0057  0.1729 -0.0010
  875MOL0     N20629   2.090   0.618   5.040 -0.0732 -0.2259 -0.1471
  875MOL0     C20630   2.206   0.542   5.028  0.2049 -0.2812 -0.7573
  875MOL0     C20631   2.302   0.607   5.084  0.6796  0.1792 -0.0086
  875MOL0     C20632   2.433   0.544   5.115 -0.6932 -0.4034 -0.3306
  875MOL0     C20633   2.515   0.481   4.993  0.4016  0.1730 -0.6821
  875MOL0     C20634   2.474   0.330   4.977  0.7802 -0.2489  0.5278
  875MOL0     C20635   2.550   0.228   5.062 -0.2134  0.3772 -0.0890
  875MOL0     O20636   2.688   0.233   5.022 -0.2725  0.0757 -0.0687
  875MOL0     C20637   2.772   0.127   5.060  0.6588  0.3950  0.2175
  875MOL0     C20638   2.748   0.068   5.184  0.1756  0.5200 -0.1488
  875MOL0     C20639   2.829  -0.047   5.218 -0.0936 -1.0415  0.1817
  875MOL0     C20640   2.798  -0.104   5.358  0.1507 -0.4225  0.2709
  875MOL0     C20641   2.938  -0.093   5.131  0.3023  0.0376 -0.3049
  875MOL0     C20642   3.030  -0.211   5.160  0.3448  0.2603 -0.5290
  875MOL0     O20643   3.171  -0.185   5.164  0.1925 -0.2123  0.0200
  875MOL0     C20644   3.245  -0.292   5.208 -0.7822  0.0593 -0.5245
  875MOL0     C20645   3.222  -0.356   5.337 -0.5149  0.3285 -0.1557
  875MOL0     C20646   3.311  -0.451   5.388 -0.1370 -1.0501 -0.2731
  875MOL0     C20647   3.417  -0.490   5.312 -0.2990  0.2950  0.9537
  875MOL0     O20648   3.508  -0.565   5.382 -0.6452  0.0905  0.1647
  875MOL0     C20649   3.650  -0.547   5.349 -0.0759  0.3698 -0.1221
  875MOL0     C20650   3.733  -0.499   5.465  0.0593  0.7670  0.0533
  875MOL0     C20651   3.877  -0.478   5.445 -0.1550 -0.1085  0.4038
  875MOL0     C20652   3.931  -0.381   5.550  0.3200 -0.3190  0.0346
  875MOL0     C20653   4.069  -0.347   5.504  0.1301  0.3239  0.0577
  875MOL0     C20654   4.139  -0.263   5.613  0.6197 -0.2961  0.0095
  875MOL0     C20655   4.280  -0.232   5.565 -0.4249  0.4036  0.4173
  875MOL0     C20656   4.368  -0.178   5.682  0.4321  1.1239  0.3268
  875MOL0    Cl20657   4.302  -0.027   5.755  0.0446 -0.2304  0.1162
  875MOL0     C20658   3.438  -0.441   5.183  0.4154 -0.3853  0.5205
  875MOL0     C20659   3.351  -0.344   5.135 -0.1596 -0.2981  0.1083
  875MOL0     O20660   2.969  -0.322   5.185 -0.4707 -0.2641 -0.7876
  875MOL0     C20661   2.953  -0.029   5.009  0.3769  0.2438  0.4172
  875MOL0     C20662   2.868   0.072   4.975  0.4466 -0.4084  0.8156
  875MOL0     N20663   2.251   0.722   5.146  0.1025 -0.5562 -0.1219
  875MOL0     N20664   2.124   0.721   5.122  0.1706  0.3319 -0.3281
  875MOL0     C20665   1.062   1.061   4.930  0.2424 -0.1935 -0.2767
  875MOL0     C20666   0.940   1.074   4.855  0.0854  0.1108 -0.5909
  875MOL0     C20667   0.528   1.251   4.763  0.0665 -0.4030 -0.3497
  875MOL0     C20668   0.432   1.319   4.845  0.1762  0.6410 -0.1199
  875MOL0     C20669   0.308   1.350   4.800  0.0255  0.9471  0.8974
  875MOL0     C20670   0.270   1.320   4.669 -0.0918 -0.5531  0.7336
  875MOL0     O20671   0.147   1.355   4.615 -0.4536  0.1573  0.1682
  875MOL0     C20672   0.150   1.474   4.534 -1.4212  1.4622  0.5286
  875MOL0     C20673   0.091   1.595   4.600  0.1049 -0.2383  0.4638
  875MOL0     C20674  -0.061   1.592   4.618  0.1427  0.0444  0.3600
  875MOL0     C20675  -0.100   1.667   4.749  0.3056  0.6589  0.6112
  875MOL0     C20676  -0.080   1.811   4.743 -0.7541 -0.2098 -0.1431
  875MOL0     C20677  -0.065   1.930   4.737 -0.3703 -0.1246 -0.3047
  875MOL0     C20678   0.361   1.257   4.588  0.1131  0.7490  0.4304
  875MOL0     C20679   0.491   1.221   4.626  0.0299 -0.2223  0.2099
  875MOL0     C20680   0.580   1.151   4.526 -0.3737 -0.7670  0.0360
  875MOL0     H20681   0.965   1.398   4.754  1.5238  0.0464 -1.3098
  875MOL0     H20682   1.202   1.353   4.843  0.8647  0.9641  5.3335
  875MOL0     H20683   1.349   1.328   5.037  1.5128 -0.0570  0.7377
  875MOL0     H20684   1.403   1.284   4.875  1.9133 -1.3538  0.4137
  875MOL0     H20685   1.587   1.284   5.043 -2.2862  1.8757 -1.2413
  875MOL0     H20686   1.489   1.177   5.145 -2.1062  2.3142 -0.0990
  875MOL0     H20687   1.502   1.000   4.949  0.8871 -0.5140 -1.6645
  875MOL0     H20688   1.596   1.121   4.862 -1.0184 -0.6698  0.4403
  875MOL0     H20689   1.769   1.090   5.054 -0.4590 -0.2432  2.3724
  875MOL0     H20690   1.661   0.960   5.102 -0.0425  1.8968  1.3505
  875MOL0     H20691   1.846   0.990   4.849  0.9890  1.4935  2.9683
  875MOL0     H20692   1.708   0.882   4.843 -2.4359  1.9999 -0.5711
  875MOL0     H20693   1.936   0.868   5.052 -1.4357 -1.8217  3.2696
  875MOL0     H20694   1.797   0.753   5.045  2.3048 -2.3674  1.3744
  875MOL0     H20695   2.014   0.773   4.846 -0.1765  0.1395  1.3255
  875MOL0     H20696   1.858   0.697   4.801 -1.0572 -1.8139  0.8370
  875MOL0     H20697   1.881   0.567   5.030  0.9487 -0.4711  0.8729
  875MOL0     H20698   1.980   0.511   4.896  2.0146  0.2915  0.3244
  875MOL0     H20699   2.211   0.445   4.980  0.4803 -1.7141  1.9907
  875MOL0     H20700   2.420   0.477   5.201 -0.1197 -1.2875 -0.9188
  875MOL0     H20701   2.501   0.624   5.145  0.1191 -0.4057 -2.0878
  875MOL0     H20702   2.501   0.537   4.900 -0.9915  1.1429  0.0752
  875MOL0     H20703   2.623   0.464   5.006 -0.1153 -3.9233 -0.4064
  875MOL0     H20704   2.371   0.314   5.010  0.6400  1.1791  0.8730
  875MOL0     H20705   2.468   0.301   4.872  2.1381 -0.5301  0.5111
  875MOL0     H20706   2.541   0.261   5.166 -0.8643  0.8905 -0.2959
  875MOL0     H20707   2.504   0.130   5.051 -0.3063  0.6895 -3.9164
  875MOL0     H20708   2.663   0.097   5.244 -1.7451 -1.0715 -1.9540
  875MOL0     H20709   2.777  -0.209   5.337  0.9030 -0.6399  0.5787
  875MOL0     H20710   2.710  -0.061   5.406 -0.8947 -1.2877 -0.8135
  875MOL0     H20711   2.883  -0.112   5.426 -1.5365  1.1241  2.6832
  875MOL0     H20712   3.139  -0.324   5.400  1.0604  0.5314  1.9258
  875MOL0     H20713   3.296  -0.491   5.487 -2.8163 -1.9541 -0.9538
  875MOL0     H20714   3.686  -0.645   5.319 -0.2274 -1.1217  4.0019
  875MOL0     H20715   3.663  -0.475   5.267  3.8355 -1.4809 -1.3481
  875MOL0     H20716   3.690  -0.407   5.505 -2.7024 -1.6774  3.3543
  875MOL0     H20717   3.725  -0.572   5.547  0.1076  1.4914  0.7155
  875MOL0     H20718   3.895  -0.441   5.344  1.1954 -0.9369  0.3145
  875MOL0     H20719   3.934  -0.570   5.461  2.2833  0.8401 -2.1243
  875MOL0     H20720   3.923  -0.431   5.647  0.5868  0.4107  0.4419
  875MOL0     H20721   3.864  -0.295   5.542 -2.9227 -2.7081 -0.7235
  875MOL0     H20722   4.104  -0.450   5.489 -1.9741 -0.2016 -1.6596
  875MOL0     H20723   4.076  -0.297   5.407  0.8792 -0.4971 -0.3334
  875MOL0     H20724   4.142  -0.323   5.704  2.5869  0.9275  0.8099
  875MOL0     H20725   4.077  -0.177   5.639  2.1412  1.5657 -2.1270
  875MOL0     H20726   4.260  -0.163   5.483 -2.6166 -0.8259 -0.1499
  875MOL0     H20727   4.334  -0.317   5.525  2.3162  2.8006 -1.3539
  875MOL0     H20728   4.468  -0.160   5.641  0.4230  0.8678  0.1913
  875MOL0     H20729   4.366  -0.251   5.764 -1.6255  1.2703  0.4518
  875MOL0     H20730   3.521  -0.478   5.123 -0.6547 -1.2781 -0.4474
  875MOL0     H20731   3.354  -0.305   5.033 -1.0224  1.8539  0.8506
  875MOL0     H20732   3.035  -0.055   4.944 -0.4741  1.8280 -1.3767
  875MOL0     H20733   2.877   0.099   4.870  2.7888 -5.4598 -0.5855
  875MOL0     H20734   1.079   0.967   4.981  0.0296  0.7458  1.5952
  875MOL0     H20735   0.872   0.990   4.853  0.8913 -0.5514 -1.0830
  875MOL0     H20736   0.446   1.357   4.946  0.0429  2.3779 -0.7254
  875MOL0     H20737   0.244   1.395   4.876 -1.2617 -1.0852  1.0959
  875MOL0     H20738   0.252   1.498   4.501 -1.8449  1.4078 -0.9117
  875MOL0     H20739   0.099   1.456   4.439  1.5827  0.3556 -1.0076
  875MOL0     H20740   0.129   1.687   4.554  0.6842 -0.0436  1.3025
  875MOL0     H20741   0.127   1.595   4.703 -1.4525  0.1397  1.0530
  875MOL0     H20742  -0.111   1.630   4.528  1.3560 -0.4942 -0.5619
  875MOL0     H20743  -0.101   1.491   4.627 -0.6888 -0.0092 -2.7432
  875MOL0     H20744  -0.059   1.633   4.845 -3.0643  0.9296  2.3380
  875MOL0     H20745  -0.207   1.656   4.769  0.6555 -1.7381  1.5015
  875MOL0     H20746  -0.071   2.034   4.713 -1.5570 -0.4939 -1.7603
  875MOL0     H20747   0.333   1.226   4.488 -1.0134 -0.1982  1.0116
  875MOL0     H20748   0.661   1.206   4.475 -1.4890  0.5687 -0.3657
  875MOL0     H20749   0.620   1.061   4.573  0.5861  0.2737  1.2812
  875MOL0     H20750   0.528   1.121   4.435  0.1323  0.6796 -0.7741
  876MOL0     O20751   5.224   9.015   4.605 -0.4365 -0.2228 -0.3000
  876MOL0     C20752   5.306   8.957   4.673  0.0190 -0.2241  0.0036
  876MOL0     O20753   5.279   8.891   4.790 -0.3542  0.2286  0.1310
  876MOL0     C20754   5.155   8.865   4.834  0.1950  0.4228  0.4475
  876MOL0     C20755   5.048   8.954   4.837 -0.2068 -0.2020 -0.0880
  876MOL0     C20756   4.925   8.908   4.877 -0.0746  0.1415 -1.0574
  876MOL0     C20757   4.901   8.784   4.937  0.1810  0.6699  0.5917
  876MOL0     O20758   4.774   8.764   4.982  0.1629  0.3180  0.0419
  876MOL0     C20759   4.725   8.642   5.041 -0.1613  0.8503 -0.0362
  876MOL0     C20760   4.591   8.673   5.106 -0.1226  0.0117 -0.0959
  876MOL0     C20761   4.599   8.793   5.206  0.1316 -0.3996 -0.7511
  876MOL0     C20762   4.615   8.751   5.356 -0.6946 -0.2285  0.5767
  876MOL0     C20763   4.768   8.716   5.389 -0.4207 -0.2130 -0.2737
  876MOL0     C20764   4.784   8.745   5.536 -0.1256  0.4576 -0.0142
  876MOL0     C20765   4.906   8.670   5.597 -0.1559 -0.0305  0.7039
  876MOL0     C20766   5.036   8.736   5.545 -0.0551  0.1379  0.9673
  876MOL0     N20767   5.150   8.673   5.612 -0.3827  0.5338  0.1371
  876MOL0     C20768   5.160   8.635   5.737  0.2088  0.5721 -0.2797
  876MOL0     C20769   5.280   8.565   5.745  0.1489 -0.4963  0.2468
  876MOL0     C20770   5.327   8.494   5.869 -0.5939  0.3339 -0.4251
  876MOL0     C20771   5.388   8.588   5.968 -0.0675  1.2259  1.4421
  876MOL0     C20772   5.466   8.519   6.080 -0.4578  0.2462 -0.6812
  876MOL0     C20773   5.599   8.446   6.045  0.2273  0.3836 -0.4044
  876MOL0     O20774   5.703   8.542   6.024  0.0683 -0.0819  0.3560
  876MOL0     C20775   5.825   8.493   5.976 -0.1483  0.4571 -0.0742
  876MOL0     C20776   5.858   8.357   5.946  0.1034 -0.1974 -0.6077
  876MOL0     C20777   5.982   8.320   5.903 -0.7171  0.6633 -0.7104
  876MOL0     C20778   6.004   8.176   5.885 -0.0042  0.2556  0.1977
  876MOL0     C20779   6.091   8.419   5.879  0.2028  0.1632 -0.1968
  876MOL0     C20780   6.227   8.392   5.824 -1.2577  0.8681  0.3066
  876MOL0     O20781   6.321   8.477   5.874 -0.1509 -0.2949 -0.3166
  876MOL0     C20782   6.435   8.502   5.804 -0.8099 -0.5219 -0.3047
  876MOL0     C20783   6.503   8.429   5.708  0.7422 -0.3985 -0.2637
  876MOL0     C20784   6.640   8.470   5.672  0.1609  0.1951  0.0154
  876MOL0     C20785   6.701   8.576   5.728 -0.2634  0.1800 -0.5215
  876MOL0     O20786   6.830   8.605   5.694 -0.7186  0.6037 -0.2193
  876MOL0     C20787   6.927   8.591   5.801 -0.3629 -0.2973 -0.1526
  876MOL0     C20788   7.039   8.696   5.791  0.1659  0.0131  0.1162
  876MOL0     C20789   7.117   8.690   5.661 -1.0309 -0.4961 -0.5214
  876MOL0     C20790   7.236   8.594   5.683  0.3985 -0.1100  0.6677
  876MOL0     C20791   7.333   8.610   5.559  0.2095  0.9327 -0.4177
  876MOL0     C20792   7.461   8.529   5.590  1.3175  0.0892  0.4731
  876MOL0     C20793   7.574   8.531   5.483  0.4866  0.4767  0.3665
  876MOL0     C20794   7.524   8.539   5.335 -0.4733  0.6911 -0.0826
  876MOL0    Cl20795   7.419   8.397   5.304  0.4027  0.3237 -0.1766
  876MOL0     C20796   6.629   8.659   5.811 -0.1240 -0.4729  0.3962
  876MOL0     C20797   6.499   8.620   5.846  0.1480  0.7337  0.4113
  876MOL0     O20798   6.256   8.296   5.747  0.6785 -0.0351 -0.2721
  876MOL0     C20799   6.057   8.555   5.915 -0.0329  0.0852  0.7449
  876MOL0     C20800   5.927   8.587   5.973 -0.7186  0.0278 -0.2259
  876MOL0     N20801   5.332   8.575   5.619 -0.4529  0.3777 -0.2788
  876MOL0     N20802   5.250   8.626   5.545  0.9239 -0.4590  0.5243
  876MOL0     C20803   5.010   8.691   4.941  0.5627 -0.4413 -0.0911
  876MOL0     C20804   5.134   8.732   4.888 -0.2124 -0.5254  0.3347
  876MOL0     C20805   5.438   8.939   4.611 -0.2771 -0.1436  0.9759
  876MOL0     C20806   5.495   9.045   4.540 -0.1376  0.3326  0.0720
  876MOL0     C20807   5.613   9.026   4.472  0.1779  0.3483  0.0665
  876MOL0     C20808   5.684   8.904   4.486 -0.5894 -0.2442  0.6003
  876MOL0     O20809   5.804   8.886   4.431 -0.9042  0.4446  0.2452
  876MOL0     C20810   5.807   8.920   4.288  0.0436 -0.0452 -0.1929
  876MOL0     C20811   5.911   9.025   4.256  0.4504 -1.0089 -0.0633
  876MOL0     C20812   5.896   9.083   4.110 -0.6385 -0.9252  0.0938
  876MOL0     C20813   5.954   9.012   4.001 -0.0233 -0.1995  0.3169
  876MOL0     C20814   5.894   8.886   3.973  0.3866  0.0099  0.0657
  876MOL0     C20815   5.849   8.773   3.961 -0.2095  0.0147 -0.4226
  876MOL0     C20816   5.620   8.801   4.558 -0.4614 -0.0880  0.5497
  876MOL0     C20817   5.502   8.813   4.621 -0.9101 -1.1606 -0.3718
  876MOL0     C20818   5.462   8.695   4.710 -0.8181  0.1408  0.1092
  876MOL0     H20819   5.062   9.058   4.810 -1.0999 -0.3315 -1.1324
  876MOL0     H20820   4.839   8.975   4.873 -2.4241 -2.6993 -1.3180
  876MOL0     H20821   4.794   8.606   5.119 -1.3086 -0.4142  0.4349
  876MOL0     H20822   4.727   8.563   4.966  0.6994 -0.4647  1.3063
  876MOL0     H20823   4.521   8.711   5.031 -0.2706  2.9711  1.3858
  876MOL0     H20824   4.552   8.580   5.148 -0.2876  0.1417  0.0433
  876MOL0     H20825   4.672   8.868   5.173 -0.1881 -0.4707 -1.6360
  876MOL0     H20826   4.502   8.843   5.208  0.2787 -0.0556 -1.8535
  876MOL0     H20827   4.583   8.836   5.416  1.1392  2.1733 -1.6065
  876MOL0     H20828   4.546   8.667   5.373 -1.0820 -0.1318 -0.4291
  876MOL0     H20829   4.831   8.785   5.333  3.8378 -0.7590  3.3094
  876MOL0     H20830   4.805   8.614   5.375  4.2092  1.3523 -1.0838
  876MOL0     H20831   4.784   8.853   5.550 -1.2086  0.9729 -3.1210
  876MOL0     H20832   4.701   8.706   5.596 -1.1358 -0.4171 -1.8770
  876MOL0     H20833   4.907   8.564   5.572 -2.5635 -0.8883  3.6340
  876MOL0     H20834   4.900   8.690   5.704  3.0170  1.7772  0.6537
  876MOL0     H20835   5.059   8.708   5.442 -1.8579  1.3974  0.1614
  876MOL0     H20836   5.041   8.845   5.550  2.0656  0.0562  1.2885
  876MOL0     H20837   5.090   8.644   5.819  2.0042  0.0110  1.3859
  876MOL0     H20838   5.399   8.416   5.842  1.5212  1.4221  1.7338
  876MOL0     H20839   5.255   8.428   5.920  1.6145 -1.6233  0.3478
  876MOL0     H20840   5.461   8.641   5.906 -0.1870 -0.3283 -0.0936
  876MOL0     H20841   5.309   8.653   6.007 -1.8615  0.3865 -0.6309
  876MOL0     H20842   5.479   8.594   6.158  1.7313 -2.2987  1.5913
  876MOL0     H20843   5.401   8.447   6.130 -0.3336 -0.2000 -1.1538
  876MOL0     H20844   5.631   8.386   6.131 -0.7157 -2.2839 -1.8261
  876MOL0     H20845   5.596   8.381   5.957  1.2967  1.3904 -1.2097
  876MOL0     H20846   5.786   8.275   5.944  0.6350 -0.6722 -0.5500
  876MOL0     H20847   6.109   8.159   5.913  1.1265  1.2829 -3.0167
  876MOL0     H20848   5.993   8.136   5.784  1.4176  0.6593 -0.1462
  876MOL0     H20849   5.941   8.110   5.945  1.3342 -2.1633 -0.9218
  876MOL0     H20850   6.458   8.341   5.664  2.2857 -0.9932 -0.7107
  876MOL0     H20851   6.694   8.414   5.596  2.6635  2.2108  0.1666
  876MOL0     H20852   6.880   8.604   5.899  2.6370 -0.1290  1.3672
  876MOL0     H20853   6.972   8.492   5.806  1.4489  0.2603 -3.2014
  876MOL0     H20854   6.988   8.793   5.786  0.9382  0.3896 -1.2594
  876MOL0     H20855   7.097   8.689   5.883  0.3144 -1.3373 -0.0520
  876MOL0     H20856   7.159   8.789   5.641  3.1070 -1.9941 -0.0568
  876MOL0     H20857   7.059   8.658   5.574  1.1915 -1.3540 -1.7564
  876MOL0     H20858   7.190   8.496   5.687  1.9010 -0.8903 -0.1657
  876MOL0     H20859   7.279   8.596   5.783 -1.3946 -1.3473  1.4981
  876MOL0     H20860   7.291   8.568   5.467 -0.6384 -0.6422  0.6323
  876MOL0     H20861   7.363   8.713   5.539  0.4867  0.6467 -1.5439
  876MOL0     H20862   7.436   8.425   5.610 -3.0461  0.7479 -0.5332
  876MOL0     H20863   7.498   8.571   5.684 -1.6138 -0.6175  2.0587
  876MOL0     H20864   7.636   8.445   5.509  0.9419  1.1368  1.5423
  876MOL0     H20865   7.636   8.621   5.489 -0.3809  1.3937 -2.5027
  876MOL0     H20866   7.610   8.554   5.270  0.1717 -0.6060  0.4263
  876MOL0     H20867   7.459   8.625   5.321  1.6775  2.3605 -0.3345
  876MOL0     H20868   6.685   8.738   5.860  1.0840 -0.5979 -0.7339
  876MOL0     H20869   6.451   8.695   5.909  0.7663  2.3918 -1.0091
  876MOL0     H20870   6.126   8.638   5.901 -0.8035  0.9180  1.7402
  876MOL0     H20871   5.892   8.687   5.996 -0.4695 -0.1498  1.0326
  876MOL0     H20872   5.002   8.593   4.988 -0.8991 -1.0431 -1.4843
  876MOL0     H20873   5.207   8.653   4.898 -1.5982 -1.6944  1.7334
  876MOL0     H20874   5.440   9.138   4.531  3.1762  2.3721 -1.0532
  876MOL0     H20875   5.648   9.110   4.414 -0.4657  0.6259  0.0751
  876MOL0     H20876   5.829   8.825   4.238  2.2953 -1.7341  3.5879
  876MOL0     H20877   5.711   8.959   4.254 -1.1812 -0.5898  2.3654
  876MOL0     H20878   6.015   9.001   4.281 -0.0430 -1.8735  1.2718
  876MOL0     H20879   5.894   9.116   4.316 -3.2795 -0.1599 -2.1147
  876MOL0     H20880   5.791   9.104   4.089 -1.0486  0.1242  2.7991
  876MOL0     H20881   5.937   9.184   4.123 -0.2387 -1.2438  1.4825
  876MOL0     H20882   6.062   9.010   4.019 -0.1339 -0.5836  0.9695
  876MOL0     H20883   5.945   9.082   3.918  0.7126 -0.6947 -0.2051
  876MOL0     H20884   5.806   8.675   3.955 -1.6053  0.6185 -0.7283
  876MOL0     H20885   5.664   8.701   4.561 -0.1987  0.0331  0.8381
  876MOL0     H20886   5.517   8.607   4.678 -1.3761  0.6106 -2.3080
  876MOL0     H20887   5.481   8.725   4.814 -1.1865 -0.7465  0.4416
  876MOL0     H20888   5.357   8.669   4.696 -1.4223  2.8187 -1.0251
  877MOL0     O20889  10.109   6.952   8.500  0.0141  0.1533 -0.5423
  877MOL0     C20890  10.111   7.046   8.424  0.5596 -0.7428  0.0582
  877MOL0     O20891  10.228   7.114   8.376  0.3111  0.1938  0.5582
  877MOL0     C20892  10.345   7.087   8.435 -0.5141  0.3094 -0.5576
  877MOL0     C20893  10.390   6.953   8.452 -0.0289  0.0720  0.3351
  877MOL0     C20894  10.509   6.931   8.527  0.5112  0.3129  0.1416
  877MOL0     C20895  10.582   7.041   8.585  0.8233 -0.2587 -0.4040
  877MOL0     O20896  10.697   7.038   8.663 -0.0542 -0.2804  0.4711
  877MOL0     C20897  10.753   6.913   8.685 -0.5251 -0.1014  1.0342
  877MOL0     C20898  10.905   6.928   8.664 -0.2705 -0.6267  0.3484
  877MOL0     C20899  10.987   6.791   8.671  0.5442  0.1605 -0.3008
  877MOL0     C20900  11.128   6.801   8.639 -1.7377 -0.2679 -0.8550
  877MOL0     C20901  11.199   6.673   8.608  0.2025  0.6044  0.9259
  877MOL0     C20902  11.343   6.689   8.563  0.6837  0.9910 -0.0874
  877MOL0     C20903  11.379   6.552   8.512  0.4532 -0.5614 -0.1681
  877MOL0     C20904  11.525   6.529   8.481  0.1220  0.0377 -0.0100
  877MOL0     N20905  11.561   6.569   8.344  0.5160 -0.1637 -0.7919
  877MOL0     C20906  11.603   6.699   8.338 -0.3378  0.4726 -0.5917
  877MOL0     C20907  11.681   6.698   8.233  0.3088  0.2258 -0.7747
  877MOL0     C20908  11.734   6.829   8.174  0.3007 -0.0653 -0.5238
  877MOL0     C20909  11.829   6.888   8.264 -0.4345 -0.6905  1.4954
  877MOL0     C20910  11.938   6.798   8.310 -0.1408 -0.6915  0.2416
  877MOL0     C20911  12.049   6.783   8.204  0.4275 -0.3741 -0.4501
  877MOL0     O20912  12.144   6.890   8.202  0.8095 -0.3933 -0.5114
  877MOL0     C20913  12.267   6.896   8.267  0.6812 -0.3192 -0.3137
  877MOL0     C20914  12.323   6.790   8.354  0.0402  0.4641  0.2690
  877MOL0     C20915  12.458   6.813   8.412 -0.0117 -0.7596  0.8339
  877MOL0     C20916  12.507   6.705   8.505 -0.8566  0.4948  0.1146
  877MOL0     C20917  12.527   6.932   8.389  0.1039  0.3752 -0.6217
  877MOL0     C20918  12.660   6.957   8.444  0.1779 -0.0431 -0.7654
  877MOL0     O20919  12.669   7.086   8.476  0.5560  0.8349  0.0397
  877MOL0     C20920  12.793   7.148   8.470 -0.5496  0.2243  0.3522
  877MOL0     C20921  12.899   7.116   8.562 -0.2504  0.8446 -0.0568
  877MOL0     C20922  13.023   7.193   8.569  1.1006 -0.1361  1.0204
  877MOL0     C20923  13.049   7.281   8.468  0.2262 -0.0324  0.7352
  877MOL0     O20924  13.172   7.334   8.451 -0.3810  0.1726  0.6105
  877MOL0     C20925  13.293   7.253   8.461  0.2505 -0.0584 -0.7254
  877MOL0     C20926  13.413   7.297   8.364 -0.3235 -0.1743 -0.3328
  877MOL0     C20927  13.447   7.444   8.414 -0.1526 -0.3979 -0.1333
  877MOL0     C20928  13.598   7.477   8.407  0.6083  0.4743  0.1214
  877MOL0     C20929  13.689   7.381   8.489  0.4141 -0.2733 -0.4466
  877MOL0     C20930  13.700   7.439   8.627 -0.3447 -0.9404 -0.2315
  877MOL0     C20931  13.804   7.363   8.714  0.1081 -0.5441  0.1765
  877MOL0     C20932  13.784   7.382   8.862  0.0131 -0.2122 -0.0859
  877MOL0    Cl20933  13.707   7.546   8.890  0.1113 -0.0091 -0.0655
  877MOL0     C20934  12.943   7.322   8.385  0.1297 -0.4797 -1.3205
  877MOL0     C20935  12.814   7.256   8.386 -0.5126 -0.0224 -0.6937
  877MOL0     O20936  12.746   6.875   8.467 -0.6971  0.6456  0.2229
  877MOL0     C20937  12.455   7.033   8.322 -0.8468 -0.3959  0.4046
  877MOL0     C20938  12.332   7.014   8.261 -0.5710  0.6296  0.4870
  877MOL0     N20939  11.694   6.574   8.176  0.8091 -0.4264 -0.3155
  877MOL0     N20940  11.631   6.493   8.254 -0.5162 -0.4819 -0.0684
  877MOL0     C20941  10.537   7.172   8.547  0.1885  0.4690 -0.1248
  877MOL0     C20942  10.420   7.195   8.480 -0.6476  0.4076 -0.5159
  877MOL0     C20943   9.982   7.095   8.370 -0.0410 -0.2913  0.6639
  877MOL0     C20944   9.872   7.015   8.408  0.4336  0.1696 -0.4337
  877MOL0     C20945   9.743   7.036   8.359 -0.2766 -0.2785  0.0890
  877MOL0     C20946   9.716   7.149   8.294  0.5207  0.2564  0.2641
  877MOL0     O20947   9.594   7.172   8.236 -0.7450  0.2530  0.3331
  877MOL0     C20948   9.487   7.083   8.265 -0.7520 -0.6396 -0.3444
  877MOL0     C20949   9.379   7.127   8.179 -0.1856 -0.1063 -0.0735
  877MOL0     C20950   9.329   7.273   8.211 -0.1323  0.4977  0.0439
  877MOL0     C20951   9.243   7.332   8.096  0.5340 -0.6030  0.0110
  877MOL0     C20952   9.098   7.296   8.118  0.4542  0.3684 -0.5530
  877MOL0     C20953   8.988   7.261   8.134  0.5411  0.0439  0.3931
  877MOL0     C20954   9.817   7.242   8.265 -0.4320  0.0069 -0.5508
  877MOL0     C20955   9.950   7.214   8.299 -0.3640  0.1030  0.5948
  877MOL0     C20956  10.055   7.321   8.276  0.2872 -0.0236  1.1116
  877MOL0     H20957  10.336   6.862   8.427  0.0228 -0.1601  1.0430
  877MOL0     H20958  10.547   6.830   8.536  0.9388 -0.0815 -4.0321
  877MOL0     H20959  10.727   6.840   8.608 -1.6111 -0.9721  2.1703
  877MOL0     H20960  10.737   6.878   8.788  3.6320 -0.3461  1.7536
  877MOL0     H20961  10.918   6.972   8.565  0.5250 -0.1416  0.6649
  877MOL0     H20962  10.945   6.993   8.741 -0.9239 -0.1043  0.2558
  877MOL0     H20963  10.972   6.756   8.773  2.3081  1.5286  0.4775
  877MOL0     H20964  10.935   6.726   8.600  0.9052 -1.7326  1.1191
  877MOL0     H20965  11.135   6.873   8.557  1.4102 -0.1289 -0.5773
  877MOL0     H20966  11.182   6.839   8.726  0.9633  0.3405 -2.6778
  877MOL0     H20967  11.136   6.622   8.533  0.3768 -0.0834  1.2432
  877MOL0     H20968  11.205   6.606   8.694 -0.5677 -2.0893 -0.9770
  877MOL0     H20969  11.354   6.756   8.478 -0.3948  2.7268  1.0804
  877MOL0     H20970  11.398   6.718   8.653 -0.3971  0.5923  0.7264
  877MOL0     H20971  11.323   6.545   8.419  0.1588 -0.9399  0.0317
  877MOL0     H20972  11.357   6.477   8.589  3.5718  0.0688  1.5066
  877MOL0     H20973  11.584   6.580   8.558 -0.3338  1.6841 -0.7000
  877MOL0     H20974  11.549   6.423   8.494  0.4189  0.1692  0.5339
  877MOL0     H20975  11.584   6.776   8.411 -0.9538  0.1940 -0.4488
  877MOL0     H20976  11.653   6.902   8.166  1.1158  0.7676 -1.5717
  877MOL0     H20977  11.772   6.808   8.073  0.2028 -1.4387 -0.2831
  877MOL0     H20978  11.881   6.975   8.223 -0.3292 -0.9624  1.0445
  877MOL0     H20979  11.783   6.912   8.360  2.2348 -3.8386  3.8273
  877MOL0     H20980  11.993   6.839   8.395  1.4646  0.0072 -1.0866
  877MOL0     H20981  11.889   6.711   8.355 -1.4482 -0.0967 -0.0028
  877MOL0     H20982  12.103   6.688   8.211  2.5221  0.8644  1.3493
  877MOL0     H20983  12.001   6.772   8.106 -1.5767 -2.3227  0.6655
  877MOL0     H20984  12.273   6.695   8.370  2.4341 -1.0100 -0.6357
  877MOL0     H20985  12.436   6.624   8.521 -0.8168 -0.0911 -2.3075
  877MOL0     H20986  12.550   6.743   8.598  0.6094  1.2722 -0.8492
  877MOL0     H20987  12.587   6.650   8.455 -2.5488 -0.5506 -1.5839
  877MOL0     H20988  12.888   7.029   8.627 -1.8568  0.0841 -1.2665
  877MOL0     H20989  13.110   7.165   8.628  2.1890  1.3236  0.1794
  877MOL0     H20990  13.322   7.257   8.566  0.1342 -0.9293 -0.6529
  877MOL0     H20991  13.263   7.150   8.439 -0.1350  0.0333 -0.6327
  877MOL0     H20992  13.498   7.229   8.372  1.5156  2.0951  0.3724
  877MOL0     H20993  13.375   7.313   8.263  2.9188 -0.1164 -1.6568
  877MOL0     H20994  13.415   7.457   8.518 -0.6333  0.6520 -0.4051
  877MOL0     H20995  13.392   7.520   8.357 -2.8832 -1.7878  0.4477
  877MOL0     H20996  13.621   7.580   8.436  1.5222  0.8382 -1.7262
  877MOL0     H20997  13.621   7.465   8.300 -2.7250  1.9806 -0.8988
  877MOL0     H20998  13.659   7.275   8.493  0.8586 -0.4193 -0.8226
  877MOL0     H20999  13.795   7.382   8.460  1.1294  2.7570  1.8618
  877MOL0     H21000  13.602   7.441   8.676  0.6031 -0.5482  1.7306
  877MOL0     H21001  13.740   7.540   8.624  1.3617 -1.5955 -0.5803
  877MOL0     H21002  13.901   7.407   8.687  1.0742 -2.7393 -0.1027
  877MOL0     H21003  13.811   7.256   8.694 -2.5286 -1.2232  2.3250
  877MOL0     H21004  13.884   7.375   8.905  0.4880 -0.1462 -1.1344
  877MOL0     H21005  13.720   7.303   8.902 -1.4641  2.0845  2.4359
  877MOL0     H21006  12.971   7.367   8.291  3.7184 -2.2233 -1.2757
  877MOL0     H21007  12.751   7.281   8.301  0.7879 -0.1764 -1.7228
  877MOL0     H21008  12.512   7.124   8.308  0.4038 -1.3109 -0.7719
  877MOL0     H21009  12.283   7.096   8.210  0.7362  1.5388  0.6489
  877MOL0     H21010  10.586   7.257   8.594 -1.9868  2.5310 -1.3486
  877MOL0     H21011  10.388   7.298   8.471  0.5367  0.8273 -0.0990
  877MOL0     H21012   9.888   6.933   8.477  1.0499  1.1357  0.6149
  877MOL0     H21013   9.665   6.965   8.383 -1.2295  0.0319 -1.9101
  877MOL0     H21014   9.508   6.978   8.244 -1.5454 -0.7626 -0.5699
  877MOL0     H21015   9.462   7.102   8.370 -0.5963 -1.1911 -0.2049
  877MOL0     H21016   9.293   7.060   8.175 -0.0177 -0.3215 -3.9112
  877MOL0     H21017   9.421   7.124   8.078  2.9153 -0.1697  1.0931
  877MOL0     H21018   9.286   7.295   8.309 -0.9821  1.7365 -0.5840
  877MOL0     H21019   9.423   7.329   8.209 -0.0039  0.2593 -0.7551
  877MOL0     H21020   9.274   7.287   8.001 -0.0839 -0.4101 -0.2881
  877MOL0     H21021   9.253   7.441   8.101  1.4256 -0.5321 -2.2107
  877MOL0     H21022   8.885   7.231   8.136  0.2949  0.6633 -1.3720
  877MOL0     H21023   9.802   7.332   8.206  0.8123  0.7712  0.2612
  877MOL0     H21024  10.107   7.307   8.181  0.1070 -1.7084  1.2259
  877MOL0     H21025  10.007   7.419   8.272  0.6677  0.1105 -0.4563
  877MOL0     H21026  10.130   7.338   8.355  2.2686  1.5078 -0.9692
  878MOL0     O21027   3.276   4.509  10.188 -0.0363 -0.1861  0.4302
  878MOL0     C21028   3.250   4.557  10.298  0.3804  0.1683  0.4685
  878MOL0     O21029   3.299   4.515  10.415 -0.8117 -0.3990  0.1802
  878MOL0     C21030   3.388   4.412  10.418 -0.1771  0.3182 -0.3781
  878MOL0     C21031   3.361   4.301  10.491  0.4023  1.1662 -0.1320
  878MOL0     C21032   3.454   4.195  10.513  0.2555 -0.6066 -0.2342
  878MOL0     C21033   3.583   4.205  10.465 -0.1663 -0.1991 -0.0758
  878MOL0     O21034   3.684   4.116  10.492  0.7932 -0.5878  0.1669
  878MOL0     C21035   3.664   3.982  10.548 -0.3240 -1.1498 -0.0994
  878MOL0     C21036   3.714   3.960  10.690  0.0468  0.1967  0.0381
  878MOL0     C21037   3.738   3.813  10.733 -0.4546 -0.1071  0.8288
  878MOL0     C21038   3.879   3.751  10.687  1.4106  0.7692  0.3346
  878MOL0     C21039   3.984   3.793  10.786 -0.0379 -0.8187 -0.6888
  878MOL0     C21040   4.116   3.719  10.774  0.6478 -0.5813  0.3968
  878MOL0     C21041   4.197   3.796  10.670  0.4206 -0.0471  0.0741
  878MOL0     C21042   4.320   3.727  10.617 -0.4304 -0.7262 -0.5296
  878MOL0     N21043   4.304   3.597  10.556  0.2499  0.3653 -0.3013
  878MOL0     C21044   4.306   3.474  10.616  0.5302 -0.4407 -0.6963
  878MOL0     C21045   4.281   3.389  10.526  0.0584  1.2089  0.0636
  878MOL0     C21046   4.272   3.245  10.565 -0.2429 -0.4633 -0.3125
  878MOL0     C21047   4.413   3.179  10.543 -0.0345  0.3889 -0.5047
  878MOL0     C21048   4.460   3.085  10.654  0.0573 -0.3792 -0.2858
  878MOL0     C21049   4.593   3.020  10.610  0.6400  0.4601  0.2625
  878MOL0     O21050   4.645   2.935  10.713 -0.1330 -0.5612 -0.0594
  878MOL0     C21051   4.774   2.883  10.699  1.0846 -0.0028 -0.1694
  878MOL0     C21052   4.801   2.798  10.804 -0.1769  0.1208  0.0344
  878MOL0     C21053   4.913   2.711  10.800  0.0139  0.1856 -0.4514
  878MOL0     C21054   4.931   2.620  10.925 -0.2819 -0.5835  0.3302
  878MOL0     C21055   5.013   2.734  10.702 -0.7796 -0.1452  0.6855
  878MOL0     C21056   5.147   2.665  10.694  0.2233 -0.9490  0.1750
  878MOL0     O21057   5.208   2.658  10.574  0.3712  0.0437 -0.4055
  878MOL0     C21058   5.330   2.594  10.571 -0.2703  0.2066  0.1544
  878MOL0     C21059   5.447   2.659  10.583 -0.2049 -0.4333 -0.0027
  878MOL0     C21060   5.569   2.591  10.612  0.0853  0.4237 -0.0558
  878MOL0     C21061   5.571   2.449  10.603  0.2117 -1.3669  0.0886
  878MOL0     O21062   5.683   2.369  10.628  0.1389 -0.1269 -0.5150
  878MOL0     C21063   5.758   2.409  10.742 -1.0650 -0.9179 -0.4636
  878MOL0     C21064   5.892   2.467  10.687  0.0623 -0.3152  0.2485
  878MOL0     C21065   5.986   2.506  10.806 -0.5682 -0.6216 -0.6003
  878MOL0     C21066   5.959   2.647  10.858  0.1772 -0.2010 -0.1007
  878MOL0     C21067   6.076   2.679  10.957 -0.5609  0.2895 -0.2433
  878MOL0     C21068   6.051   2.817  11.023 -0.5066  0.4563 -0.0742
  878MOL0     C21069   6.179   2.871  11.093 -0.3088  0.3271  1.0173
  878MOL0     C21070   6.168   3.015  11.153  0.0696  0.3884  0.2482
  878MOL0    Cl21071   6.318   3.058  11.240 -0.2463  0.4851 -0.4675
  878MOL0     C21072   5.450   2.387  10.564  0.1557 -0.0376 -0.5724
  878MOL0     C21073   5.332   2.460  10.543  0.0651 -0.5724 -0.4152
  878MOL0     O21074   5.189   2.618  10.794 -0.0743 -0.1491 -0.2880
  878MOL0     C21075   4.982   2.824  10.600 -0.0952  0.2363 -0.5862
  878MOL0     C21076   4.867   2.909  10.599 -0.0276  0.4895 -0.4820
  878MOL0     N21077   4.273   3.454  10.406  0.0919  1.0681  0.6305
  878MOL0     N21078   4.277   3.575  10.426  0.5480  0.1355  0.2109
  878MOL0     C21079   3.610   4.317  10.385  0.5467  0.1409 -0.1025
  878MOL0     C21080   3.519   4.422  10.364 -0.1197 -0.2733 -0.3172
  878MOL0     C21081   3.143   4.667  10.295 -0.4695 -0.3622 -1.3109
  878MOL0     C21082   3.033   4.639  10.221  0.5388  0.2704  0.2986
  878MOL0     C21083   2.918   4.725  10.223  0.1100 -0.4407  1.1216
  878MOL0     C21084   2.918   4.837  10.303  0.0321  0.4606  0.1961
  878MOL0     O21085   2.813   4.921  10.275 -0.6913  0.0827  0.5727
  878MOL0     C21086   2.786   5.038  10.357  0.5431  0.2710 -0.0831
  878MOL0     C21087   2.753   4.983  10.499 -0.1294 -0.5476  0.2576
  878MOL0     C21088   2.744   5.090  10.610  0.5085  0.4003 -0.4630
  878MOL0     C21089   2.637   5.195  10.579  0.6966 -0.1656  0.4267
  878MOL0     C21090   2.634   5.291  10.684 -0.1408  0.0578  0.6367
  878MOL0     C21091   2.628   5.344  10.795  0.2617 -0.0751 -0.4602
  878MOL0     C21092   3.045   4.884  10.361  0.1183  0.6880 -0.2880
  878MOL0     C21093   3.154   4.789  10.366 -0.2354 -0.1317  0.2084
  878MOL0     C21094   3.276   4.818  10.443  0.4106 -0.3958 -0.2605
  878MOL0     H21095   3.259   4.286  10.526  0.8298 -0.4598  0.5156
  878MOL0     H21096   3.406   4.112  10.564 -0.8834  2.4501  4.3267
  878MOL0     H21097   3.716   3.921  10.474  2.8503  1.5754 -0.3421
  878MOL0     H21098   3.558   3.955  10.546 -0.6984  0.0685  1.3628
  878MOL0     H21099   3.802   4.020  10.712  1.9462 -2.0743 -0.9238
  878MOL0     H21100   3.631   3.988  10.756  0.6547  1.9166  0.1304
  878MOL0     H21101   3.730   3.804  10.842 -0.2182 -1.3225  0.7489
  878MOL0     H21102   3.656   3.749  10.698 -0.1295 -0.9167  1.5035
  878MOL0     H21103   3.875   3.642  10.678  3.3382  0.8361 -2.8406
  878MOL0     H21104   3.895   3.800  10.591  2.7557  2.6954  1.4520
  878MOL0     H21105   3.957   3.791  10.892  1.1721  0.9897 -0.2911
  878MOL0     H21106   4.002   3.900  10.767  1.9040 -0.5770  1.9533
  878MOL0     H21107   4.153   3.723  10.876 -0.3435  3.5867  0.7639
  878MOL0     H21108   4.098   3.614  10.748  2.1463 -0.4095 -1.5814
  878MOL0     H21109   4.228   3.888  10.721  1.1863 -0.1229 -0.2474
  878MOL0     H21110   4.129   3.825  10.590 -0.3056  0.9842  1.0303
  878MOL0     H21111   4.368   3.803  10.554 -3.7725  2.2920  0.2617
  878MOL0     H21112   4.375   3.700  10.708 -0.4057  1.4259  0.1714
  878MOL0     H21113   4.320   3.451  10.721 -1.3817 -0.5073 -0.4109
  878MOL0     H21114   4.209   3.192  10.493  2.0130 -1.5132 -1.6454
  878MOL0     H21115   4.220   3.233  10.661  1.8511 -0.9407  0.8310
  878MOL0     H21116   4.398   3.121  10.452 -3.2737 -1.2168  0.8890
  878MOL0     H21117   4.484   3.261  10.529 -1.0310  1.4236  0.3157
  878MOL0     H21118   4.476   3.142  10.746  1.0619 -1.3290  0.1561
  878MOL0     H21119   4.399   2.995  10.672  2.5813 -2.4098 -1.2134
  878MOL0     H21120   4.586   2.953  10.523 -0.1290 -0.7746  1.2377
  878MOL0     H21121   4.665   3.099  10.585  2.5693 -1.4435 -0.5428
  878MOL0     H21122   4.735   2.787  10.890  1.5424  2.7780  1.8530
  878MOL0     H21123   4.833   2.584  10.957 -0.0473 -0.3824  1.2996
  878MOL0     H21124   4.983   2.661  11.012 -0.5253 -1.7058  1.0183
  878MOL0     H21125   4.976   2.525  10.897  2.0040 -0.0739  2.0247
  878MOL0     H21126   5.451   2.767  10.569 -0.3906 -0.3725  0.4058
  878MOL0     H21127   5.649   2.662  10.628 -0.0534  0.1988  1.7820
  878MOL0     H21128   5.708   2.485  10.803 -0.9631 -0.7996 -0.5244
  878MOL0     H21129   5.790   2.328  10.808  2.4105  0.7073  0.0787
  878MOL0     H21130   5.942   2.397  10.619 -0.2846  0.6786 -1.0785
  878MOL0     H21131   5.870   2.555  10.627 -2.9547 -2.4343 -2.1029
  878MOL0     H21132   6.087   2.499  10.765 -0.6068 -0.4796 -0.7210
  878MOL0     H21133   5.990   2.440  10.893  1.9114 -0.4102 -0.4741
  878MOL0     H21134   5.863   2.661  10.908 -0.0799  0.1300 -0.6764
  878MOL0     H21135   5.968   2.723  10.780 -0.2396  1.2683  1.2245
  878MOL0     H21136   6.075   2.603  11.036  0.9231 -0.3544 -0.8020
  878MOL0     H21137   6.171   2.673  10.902  0.6470 -0.4048  1.8335
  878MOL0     H21138   5.976   2.804  11.101 -0.5268 -1.6207 -0.3769
  878MOL0     H21139   6.029   2.888  10.943 -0.6167  1.5748  0.9222
  878MOL0     H21140   6.263   2.873  11.023  1.4216 -1.2668  2.9450
  878MOL0     H21141   6.206   2.804  11.175  0.9951  0.3941  0.6709
  878MOL0     H21142   6.084   3.029  11.221 -1.2026  1.0651 -1.3845
  878MOL0     H21143   6.136   3.084  11.074 -0.4541 -1.3667 -1.1259
  878MOL0     H21144   5.454   2.286  10.525 -1.8874 -0.5818  0.4816
  878MOL0     H21145   5.234   2.414  10.530  0.5406 -2.5313  2.0779
  878MOL0     H21146   5.048   2.847  10.518  0.2544  1.6221  0.0671
  878MOL0     H21147   4.860   2.976  10.514  0.0597 -1.7253 -2.3529
  878MOL0     H21148   3.707   4.322  10.337  1.5571  0.0990  1.8415
  878MOL0     H21149   3.544   4.509  10.304 -3.6244  1.2053  0.1693
  878MOL0     H21150   3.032   4.549  10.161 -2.0101 -0.8426  1.8727
  878MOL0     H21151   2.838   4.705  10.152  0.6293 -0.0518  0.4173
  878MOL0     H21152   2.872   5.105  10.358 -1.1856  2.6014  0.3320
  878MOL0     H21153   2.709   5.101  10.313  1.1923 -0.7880 -2.9410
  878MOL0     H21154   2.837   4.926  10.539  0.2638  1.5968  2.7580
  878MOL0     H21155   2.662   4.921  10.496  0.0332 -0.8065  0.5918
  878MOL0     H21156   2.711   5.037  10.699 -2.2275 -2.3592 -2.8836
  878MOL0     H21157   2.845   5.131  10.621  0.6469  0.0309 -0.3430
  878MOL0     H21158   2.542   5.142  10.561 -0.4693  1.4548  1.4919
  878MOL0     H21159   2.668   5.240  10.484 -0.0492 -2.4245 -0.9775
  878MOL0     H21160   2.622   5.374  10.898  0.2047  1.3575 -0.8642
  878MOL0     H21161   3.055   4.983  10.405 -2.6891  0.5912  0.7996
  878MOL0     H21162   3.263   4.771  10.541  0.2423  1.8495  0.8555
  878MOL0     H21163   3.364   4.778  10.392  0.8580  2.1340 -1.6609
  878MOL0     H21164   3.289   4.926  10.450 -0.8462 -0.1242 -1.5742
  879MOL0     O21165   3.532  10.898  11.377  0.0690 -0.7436  0.1200
  879MOL0     C21166   3.444  10.855  11.451  0.8251  0.7895  0.1520
  879MOL0     O21167   3.456  10.797  11.571 -0.7473  0.8390 -0.3277
  879MOL0     C21168   3.584  10.772  11.625 -0.5473 -0.5979 -0.6456
  879MOL0     C21169   3.670  10.666  11.592 -0.3928 -0.5406 -0.6959
  879MOL0     C21170   3.806  10.662  11.619 -0.5848 -0.6786 -0.1135
  879MOL0     C21171   3.865  10.762  11.702 -0.3570 -0.8481 -0.2059
  879MOL0     O21172   4.004  10.766  11.728  0.2199  0.3090 -0.2287
  879MOL0     C21173   4.033  10.718  11.860 -0.1787  0.3247 -0.2711
  879MOL0     C21174   4.175  10.764  11.884 -0.2328  0.0220 -0.0336
  879MOL0     C21175   4.215  10.726  12.030 -0.2842 -0.9030  0.3329
  879MOL0     C21176   4.341  10.808  12.063 -0.8714 -0.2291 -0.3355
  879MOL0     C21177   4.398  10.763  12.198  0.5094 -0.0651 -0.9112
  879MOL0     C21178   4.464  10.623  12.198 -0.9653 -0.0957  0.1783
  879MOL0     C21179   4.609  10.627  12.140  1.9663 -0.2517 -0.6371
  879MOL0     C21180   4.724  10.635  12.242  0.1976 -0.5023  0.1216
  879MOL0     N21181   4.755  10.501  12.306 -0.0809 -1.6513  0.0441
  879MOL0     C21182   4.832  10.403  12.248  0.0096 -1.2336  0.1451
  879MOL0     C21183   4.838  10.304  12.349 -0.2823 -0.7174 -0.1604
  879MOL0     C21184   4.902  10.169  12.335 -0.5578  0.7088 -0.8847
  879MOL0     C21185   4.806  10.073  12.263 -0.1473 -0.5779 -0.2528
  879MOL0     C21186   4.822  10.073  12.119 -0.2997  0.6008  0.5316
  879MOL0     C21187   4.733   9.979  12.047 -0.7243  0.0017  0.0346
  879MOL0     O21188   4.606  10.038  12.027 -0.1990 -0.0028  0.1887
  879MOL0     C21189   4.510   9.975  11.955 -0.2236 -0.1525 -0.4119
  879MOL0     C21190   4.385  10.031  11.928  0.4616 -0.1907 -0.1000
  879MOL0     C21191   4.275   9.970  11.869  0.4972 -0.8542 -0.9318
  879MOL0     C21192   4.150  10.047  11.840  0.1954 -0.4839  0.0336
  879MOL0     C21193   4.294   9.835  11.828  0.5567  0.3177  0.1958
  879MOL0     C21194   4.189   9.749  11.776 -0.3868  0.6506 -0.1974
  879MOL0     O21195   4.234   9.639  11.714 -0.2793  1.0859  0.3638
  879MOL0     C21196   4.153   9.544  11.653 -0.4951  0.1046 -0.3187
  879MOL0     C21197   4.036   9.505  11.701 -0.1226  0.7061  0.3438
  879MOL0     C21198   3.955   9.411  11.634 -0.0487 -0.4072  0.1039
  879MOL0     C21199   3.995   9.354  11.508  0.6023 -0.0409 -0.8181
  879MOL0     O21200   3.909   9.266  11.450 -0.3525  0.1309  0.3599
  879MOL0     C21201   3.958   9.161  11.362  0.7511  0.0197 -0.1926
  879MOL0     C21202   3.842   9.073  11.300  1.0124  0.1593  0.0728
  879MOL0     C21203   3.784   9.127  11.168  0.0121 -0.8899  0.6060
  879MOL0     C21204   3.643   9.076  11.136 -0.2246 -0.1428 -0.4518
  879MOL0     C21205   3.585   9.135  11.012 -0.4920 -0.1461 -0.2364
  879MOL0     C21206   3.456   9.063  10.972 -0.6543  0.3401 -0.2449
  879MOL0     C21207   3.413   9.093  10.826 -0.1830 -0.4601 -1.0658
  879MOL0     C21208   3.286   9.019  10.806  0.5668 -0.0498 -0.4162
  879MOL0    Cl21209   3.210   9.073  10.656 -0.2543  0.2269  0.1138
  879MOL0     C21210   4.111   9.404  11.456  0.1871  0.8156  1.0948
  879MOL0     C21211   4.195   9.491  11.530  1.0862 -0.3246 -0.6947
  879MOL0     O21212   4.073   9.765  11.806 -1.0459  0.1521 -0.2493
  879MOL0     C21213   4.427   9.779  11.841  0.6647 -0.0071 -0.9466
  879MOL0     C21214   4.526   9.846  11.898  0.1507 -0.9235  0.3917
  879MOL0     N21215   4.782  10.358  12.465  0.5203 -0.0482 -0.2348
  879MOL0     N21216   4.733  10.473  12.437  0.5072  0.4145 -0.2257
  879MOL0     C21217   3.771  10.857  11.758 -0.3707 -0.4566 -0.3189
  879MOL0     C21218   3.638  10.872  11.712  0.2748 -0.0733  0.2013
  879MOL0     C21219   3.302  10.866  11.404  0.5764 -0.3638  0.8688
  879MOL0     C21220   3.198  10.820  11.488  0.3824 -0.1357  0.0822
  879MOL0     C21221   3.061  10.805  11.440 -0.0398  0.3710 -0.5295
  879MOL0     C21222   3.025  10.859  11.317  0.8993 -0.5317  0.2337
  879MOL0     O21223   2.892  10.864  11.275  0.0848  0.8845 -0.9782
  879MOL0     C21224   2.854  10.856  11.141  0.2777 -0.2376  0.8057
  879MOL0     C21225   2.705  10.848  11.125 -0.2878 -0.0150  0.3190
  879MOL0     C21226   2.659  10.872  10.983 -0.2742 -0.5816  0.1624
  879MOL0     C21227   2.510  10.877  10.970 -0.0766 -1.3575  0.5539
  879MOL0     C21228   2.442  10.982  11.046 -0.0115 -0.0397 -0.2395
  879MOL0     C21229   2.373  11.070  11.091 -0.5344  0.6562 -1.0923
  879MOL0     C21230   3.133  10.917  11.235  0.8151  0.4045 -0.6137
  879MOL0     C21231   3.266  10.925  11.278 -0.5730  0.9641 -0.0793
  879MOL0     C21232   3.352  11.004  11.186 -0.1652 -0.0330 -0.1052
  879MOL0     H21233   3.628  10.576  11.547 -2.2331  0.3870 -0.8829
  879MOL0     H21234   3.874  10.580  11.601 -0.6276 -0.8532  0.5079
  879MOL0     H21235   4.035  10.608  11.862  2.3590  0.3084  0.2934
  879MOL0     H21236   3.966  10.750  11.940  1.0988  1.8513  0.2534
  879MOL0     H21237   4.247  10.712  11.821  2.8432  1.1570  2.2870
  879MOL0     H21238   4.173  10.871  11.862  0.0616  0.5946  2.3790
  879MOL0     H21239   4.133  10.752  12.097 -1.3618  0.5148 -1.4504
  879MOL0     H21240   4.229  10.618  12.044  0.2458 -0.5046  3.7461
  879MOL0     H21241   4.420  10.794  11.989 -1.6434  1.8785 -1.6557
  879MOL0     H21242   4.317  10.915  12.064 -3.7951 -0.7955 -0.6780
  879MOL0     H21243   4.311  10.753  12.263 -1.0615  2.8576 -2.3557
  879MOL0     H21244   4.460  10.843  12.239 -3.8262  1.2269  4.1498
  879MOL0     H21245   4.465  10.580  12.299 -2.0677 -0.3064  0.1118
  879MOL0     H21246   4.419  10.550  12.130  3.0844 -1.2319 -1.5950
  879MOL0     H21247   4.611  10.705  12.064  0.3153  0.6876  0.2105
  879MOL0     H21248   4.625  10.533  12.087 -0.2341 -1.0089 -0.0772
  879MOL0     H21249   4.814  10.667  12.188 -0.0170 -0.4890 -0.2266
  879MOL0     H21250   4.697  10.717  12.310 -1.5085 -0.6564 -0.3224
  879MOL0     H21251   4.874  10.397  12.148  0.2208 -1.9575  0.2768
  879MOL0     H21252   4.903  10.116  12.431 -1.6912  1.5652 -0.3600
  879MOL0     H21253   5.007  10.168  12.306  0.3722 -2.0710  2.0556
  879MOL0     H21254   4.819   9.970  12.299  0.4145 -0.1464  0.8334
  879MOL0     H21255   4.703  10.098  12.289 -0.6483 -2.4270 -0.3390
  879MOL0     H21256   4.808  10.176  12.084  0.3201  0.3570 -0.4768
  879MOL0     H21257   4.925  10.041  12.099 -0.1508  0.2145  1.8554
  879MOL0     H21258   4.787   9.949  11.956  0.8109  1.1090  0.5438
  879MOL0     H21259   4.710   9.894  12.112 -3.7475  1.4508  1.0485
  879MOL0     H21260   4.378  10.134  11.963 -0.9146 -0.3306  0.1019
  879MOL0     H21261   4.077  10.017  11.916 -0.3997 -1.1182 -0.7658
  879MOL0     H21262   4.106  10.016  11.744 -2.2755  1.5970  0.3581
  879MOL0     H21263   4.175  10.153  11.849 -0.2599 -0.3733  0.0509
  879MOL0     H21264   4.005   9.530  11.802 -0.2922 -0.1610  0.5130
  879MOL0     H21265   3.871   9.370  11.689 -0.4826 -1.6728 -1.4019
  879MOL0     H21266   4.025   9.200  11.284  0.7767  0.5774  0.1015
  879MOL0     H21267   4.019   9.097  11.425 -0.0541 -1.4174 -0.8331
  879MOL0     H21268   3.890   8.979  11.273  1.7585  0.7737 -0.7898
  879MOL0     H21269   3.761   9.062  11.373 -2.5418  1.3998 -3.3345
  879MOL0     H21270   3.845   9.084  11.087  0.1864  0.3271  0.0732
  879MOL0     H21271   3.786   9.235  11.183  1.0316 -0.9273  0.8360
  879MOL0     H21272   3.574   9.099  11.217  0.1840  1.4334 -0.5200
  879MOL0     H21273   3.653   8.967  11.134  0.9221 -0.1538  2.3668
  879MOL0     H21274   3.562   9.239  11.033  2.2800  0.3892  0.5381
  879MOL0     H21275   3.647   9.132  10.922  2.0149 -2.7348  1.4005
  879MOL0     H21276   3.375   9.101  11.035 -0.8903  1.0118 -0.9450
  879MOL0     H21277   3.467   8.954  10.983  3.2202  0.6688  0.5295
  879MOL0     H21278   3.485   9.053  10.754  2.2593 -0.0039  0.9803
  879MOL0     H21279   3.398   9.199  10.805 -2.3657 -0.5319 -0.0598
  879MOL0     H21280   3.226   9.028  10.897 -0.7706  1.5274 -1.3872
  879MOL0     H21281   3.311   8.913  10.794 -1.4126 -0.5093 -0.9368
  879MOL0     H21282   4.144   9.387  11.354  1.5623  0.7390  1.5378
  879MOL0     H21283   4.285   9.538  11.491 -0.4313  3.7833  0.2897
  879MOL0     H21284   4.443   9.676  11.812  0.7144 -1.0118  2.2315
  879MOL0     H21285   4.618   9.791  11.911  2.1213  1.8520 -0.7295
  879MOL0     H21286   3.805  10.936  11.823 -1.9864  0.4658 -0.5466
  879MOL0     H21287   3.579  10.957  11.746 -1.4570 -0.6110 -1.3144
  879MOL0     H21288   3.215  10.792  11.591 -3.1911 -0.9806  0.5623
  879MOL0     H21289   2.984  10.775  11.510  0.1379 -1.8088 -1.1672
  879MOL0     H21290   2.887  10.947  11.090 -3.2755  1.0423  0.4984
  879MOL0     H21291   2.913  10.778  11.094  0.4866 -0.5604  1.5888
  879MOL0     H21292   2.657  10.925  11.185 -0.5737 -1.9054  2.6534
  879MOL0     H21293   2.671  10.748  11.156 -0.6076  0.1183  0.4045
  879MOL0     H21294   2.705  10.967  10.956  0.6153 -1.0487  0.0023
  879MOL0     H21295   2.698  10.800  10.911  1.9220  2.1226 -1.5327
  879MOL0     H21296   2.470  10.784  11.011 -0.2940 -2.0166 -1.0697
  879MOL0     H21297   2.483  10.885  10.864 -2.6006  2.9477  1.2894
  879MOL0     H21298   2.317  11.149  11.137  1.7221  1.7969 -0.1628
  879MOL0     H21299   3.104  10.961  11.140  1.1680  0.8631 -0.5078
  879MOL0     H21300   3.389  11.090  11.242 -1.4984 -0.2156  1.1248
  879MOL0     H21301   3.430  10.944  11.137 -1.6008 -1.3142 -0.9252
  879MOL0     H21302   3.296  11.061  11.111 -2.9420 -2.4109 -0.0351
  880MOL0     O21303   2.841   9.526   5.997 -0.9672  0.1092 -0.1229
  880MOL0     C21304   2.812   9.412   6.039 -0.4309 -0.0840  0.0415
  880MOL0     O21305   2.896   9.310   6.073  0.1300 -0.7934  0.5060
  880MOL0     C21306   3.031   9.331   6.081  0.7340 -0.7652 -0.5535
  880MOL0     C21307   3.086   9.352   6.208 -0.4388  0.1798 -0.0321
  880MOL0     C21308   3.223   9.379   6.218  0.0199 -0.2822  0.2847
  880MOL0     C21309   3.304   9.377   6.104  0.1786 -0.1804  0.9737
  880MOL0     O21310   3.434   9.410   6.118 -1.1794 -0.3025 -0.7292
  880MOL0     C21311   3.516   9.295   6.160  0.2166 -0.7797  0.8027
  880MOL0     C21312   3.659   9.329   6.139  1.0792 -0.4692 -0.2652
  880MOL0     C21313   3.713   9.437   6.225 -0.2101  0.2056  0.2261
  880MOL0     C21314   3.834   9.509   6.164  0.7632 -0.1371  0.4364
  880MOL0     C21315   3.914   9.577   6.272 -0.4929  0.7620 -0.1691
  880MOL0     C21316   3.828   9.672   6.359  0.1800 -0.5391  0.8486
  880MOL0     C21317   3.910   9.737   6.457  0.8873  0.1515 -0.8356
  880MOL0     C21318   3.986   9.862   6.411 -0.0769 -0.0883  0.6835
  880MOL0     N21319   4.068   9.927   6.516 -0.5646  0.0220  0.4380
  880MOL0     C21320   4.121   9.850   6.617  0.8518  0.2877  0.3351
  880MOL0     C21321   4.159   9.938   6.710  0.9153 -0.0771 -0.0988
  880MOL0     C21322   4.219   9.911   6.844  0.2737 -0.1729 -0.2767
  880MOL0     C21323   4.373   9.945   6.855 -0.1792  0.1982 -0.2833
  880MOL0     C21324   4.440   9.903   6.989 -0.9041 -0.5993  0.6655
  880MOL0     C21325   4.603   9.926   6.960  0.5551 -0.6062 -0.2342
  880MOL0     O21326   4.636   9.829   6.860  0.3732  0.4697  0.6077
  880MOL0     C21327   4.775   9.790   6.857  0.6892  0.0255 -0.2411
  880MOL0     C21328   4.806   9.721   6.739 -0.2856  0.3137  0.7282
  880MOL0     C21329   4.929   9.669   6.715 -0.1745  0.3460 -0.2348
  880MOL0     C21330   4.949   9.599   6.588  0.0843  0.4706  0.3962
  880MOL0     C21331   5.037   9.699   6.804 -0.3052 -0.2730 -0.2070
  880MOL0     C21332   5.184   9.658   6.784  0.1608  0.0124  1.4996
  880MOL0     O21333   5.279   9.732   6.849  0.3941 -0.1400 -0.7714
  880MOL0     C21334   5.406   9.684   6.854 -0.1285 -0.2408  0.1359
  880MOL0     C21335   5.429   9.551   6.898  0.4499 -0.4477  0.7628
  880MOL0     C21336   5.557   9.486   6.893  0.2823 -0.9317 -0.5909
  880MOL0     C21337   5.670   9.556   6.857 -0.7063 -0.1480  0.2373
  880MOL0     O21338   5.797   9.504   6.863 -0.8789 -0.1006 -0.5331
  880MOL0     C21339   5.809   9.375   6.930 -0.1247  0.4610 -0.5187
  880MOL0     C21340   5.966   9.341   6.929 -0.0242 -0.6088  0.3065
  880MOL0     C21341   6.050   9.455   6.988  1.8435  0.6624  0.3674
  880MOL0     C21342   6.195   9.404   7.029 -1.1466 -0.2819 -0.4276
  880MOL0     C21343   6.262   9.522   7.090 -0.4527  0.3072  0.0979
  880MOL0     C21344   6.396   9.479   7.160  0.8124 -0.6995  0.6072
  880MOL0     C21345   6.491   9.600   7.176 -0.2024 -0.3145 -0.6125
  880MOL0     C21346   6.425   9.722   7.231 -0.0583 -0.3545 -0.9604
  880MOL0    Cl21347   6.393   9.691   7.410 -0.0660  0.3168 -0.1243
  880MOL0     C21348   5.650   9.689   6.826 -0.3121 -0.6928  0.2368
  880MOL0     C21349   5.522   9.749   6.824  0.4026 -0.0329  1.0600
  880MOL0     O21350   5.208   9.552   6.726  0.4121 -0.2827 -0.0959
  880MOL0     C21351   4.999   9.762   6.925  0.4968  0.2082 -0.1202
  880MOL0     C21352   4.868   9.805   6.959  0.3568  0.1496  0.1685
  880MOL0     N21353   4.149  10.068   6.658  0.6672 -0.0347  0.4866
  880MOL0     N21354   4.103  10.059   6.542 -0.2344  0.1158 -0.3164
  880MOL0     C21355   3.246   9.340   5.979  0.3501  0.3102 -0.0592
  880MOL0     C21356   3.111   9.315   5.970  0.7776  0.7777  0.6101
  880MOL0     C21357   2.671   9.371   6.034  1.0928  0.3491 -0.0253
  880MOL0     C21358   2.645   9.231   6.031 -0.1387  0.6550  0.7312
  880MOL0     C21359   2.513   9.178   6.034  0.2764 -0.2704 -1.4600
  880MOL0     C21360   2.401   9.263   6.044 -0.8937 -0.4496  0.2868
  880MOL0     O21361   2.272   9.204   6.064 -0.4964  0.0190  0.0492
  880MOL0     C21362   2.161   9.289   6.090 -0.2105  0.3542  0.4078
  880MOL0     C21363   2.041   9.193   6.099 -0.4335 -0.6153 -0.3449
  880MOL0     C21364   1.917   9.274   6.056  0.7712  0.0571  0.8906
  880MOL0     C21365   1.787   9.194   6.043  0.0791  0.8766 -0.8056
  880MOL0     C21366   1.685   9.281   5.984  0.8240  0.2098 -0.4269
  880MOL0     C21367   1.591   9.331   5.937  0.9449  0.2063 -0.5649
  880MOL0     C21368   2.426   9.400   6.025  0.4801  0.6183 -0.0969
  880MOL0     C21369   2.556   9.452   6.013 -0.0611  0.6864 -0.1794
  880MOL0     C21370   2.577   9.602   6.006  0.6106 -0.3130  0.4091
  880MOL0     H21371   3.022   9.356   6.296 -2.6032 -0.5638 -1.5021
  880MOL0     H21372   3.264   9.391   6.318 -2.4257 -0.2873  1.3678
  880MOL0     H21373   3.492   9.208   6.098 -0.4823  0.0993 -0.2045
  880MOL0     H21374   3.495   9.272   6.265  1.9875 -2.0854  0.9256
  880MOL0     H21375   3.719   9.238   6.146  3.4923  0.9598 -0.9570
  880MOL0     H21376   3.661   9.367   6.036 -0.4059 -0.8049 -0.4428
  880MOL0     H21377   3.636   9.513   6.243  1.4962  1.8001  1.2071
  880MOL0     H21378   3.727   9.398   6.326 -1.7271 -0.0700  0.3525
  880MOL0     H21379   3.901   9.435   6.119  0.7211  0.5555 -0.7928
  880MOL0     H21380   3.797   9.579   6.089 -0.6336  1.5410  2.5580
  880MOL0     H21381   3.993   9.641   6.230 -2.4955  2.2716 -1.8391
  880MOL0     H21382   3.959   9.506   6.342 -1.4501 -0.0954 -0.4020
  880MOL0     H21383   3.780   9.740   6.288  0.8550 -1.7859 -0.8617
  880MOL0     H21384   3.755   9.611   6.414 -1.0136  0.4532  0.4322
  880MOL0     H21385   3.980   9.662   6.495  0.3579  0.0546 -0.0428
  880MOL0     H21386   3.844   9.767   6.538  0.4722  0.3922 -1.2560
  880MOL0     H21387   4.051   9.835   6.327 -2.9466 -1.5620 -1.2350
  880MOL0     H21388   3.911   9.938   6.386 -0.2621 -1.1993 -2.6285
  880MOL0     H21389   4.129   9.742   6.615 -0.0652  0.1822  1.6577
  880MOL0     H21390   4.193   9.809   6.874 -0.7228  0.7644  2.3104
  880MOL0     H21391   4.163   9.982   6.906 -0.4718  0.2403 -1.3831
  880MOL0     H21392   4.416   9.885   6.775 -2.5316 -2.5721  0.3721
  880MOL0     H21393   4.397  10.051   6.840  0.4106  0.5513  2.5719
  880MOL0     H21394   4.404   9.972   7.066 -0.9258  2.2487 -1.7003
  880MOL0     H21395   4.414   9.800   7.016 -3.0889 -0.5096 -0.8243
  880MOL0     H21396   4.623  10.030   6.935  2.1377 -0.3163  2.0091
  880MOL0     H21397   4.641   9.908   7.061 -2.5686  0.1375  1.2051
  880MOL0     H21398   4.728   9.716   6.663 -0.5209  2.3162  0.7927
  880MOL0     H21399   4.859   9.598   6.527  1.8982  0.0552 -2.4687
  880MOL0     H21400   4.968   9.492   6.597 -3.5581 -0.5260 -1.9440
  880MOL0     H21401   5.019   9.644   6.517 -2.2530  3.8757  0.0062
  880MOL0     H21402   5.351   9.492   6.946 -0.1820  0.9183  1.4603
  880MOL0     H21403   5.556   9.384   6.929  0.8613 -0.3151  1.3201
  880MOL0     H21404   5.779   9.381   7.035 -1.7225 -1.6405 -0.7842
  880MOL0     H21405   5.750   9.291   6.890 -1.6204  0.9290  0.6220
  880MOL0     H21406   5.983   9.249   6.985  0.5419 -1.1182 -0.6601
  880MOL0     H21407   5.994   9.311   6.827 -0.9860 -0.5825  0.0275
  880MOL0     H21408   5.998   9.487   7.079 -1.5241  2.0303 -1.8515
  880MOL0     H21409   6.038   9.539   6.920 -1.2973  0.1143  0.0665
  880MOL0     H21410   6.259   9.368   6.948  1.3297  1.2621  0.6953
  880MOL0     H21411   6.182   9.322   7.100  1.0871 -1.1623 -0.9317
  880MOL0     H21412   6.290   9.592   7.011  3.0156 -0.9013  0.0595
  880MOL0     H21413   6.192   9.582   7.148  0.7548  1.8474  0.0182
  880MOL0     H21414   6.448   9.401   7.104 -1.8605 -2.4631  0.3668
  880MOL0     H21415   6.381   9.438   7.260 -0.8503  1.4732  1.3609
  880MOL0     H21416   6.535   9.632   7.081  2.2961  1.4760  1.0074
  880MOL0     H21417   6.576   9.576   7.241 -0.0883  1.7000  0.0435
  880MOL0     H21418   6.343   9.759   7.170 -1.5787 -1.8224  0.1052
  880MOL0     H21419   6.502   9.800   7.242  0.6625 -1.3841  2.9648
  880MOL0     H21420   5.734   9.751   6.795  0.7924 -1.1624  2.1358
  880MOL0     H21421   5.509   9.856   6.811  1.1080  0.0080  0.6319
  880MOL0     H21422   5.077   9.781   6.997 -0.5172  1.3439  0.7152
  880MOL0     H21423   4.852   9.850   7.056  4.3374  1.5822  0.3135
  880MOL0     H21424   3.307   9.324   5.890 -0.6079  0.8253 -0.8224
  880MOL0     H21425   3.069   9.281   5.876 -1.5312 -0.3902  1.9436
  880MOL0     H21426   2.728   9.162   6.022 -0.2098  0.7316 -0.6009
  880MOL0     H21427   2.482   9.075   6.046  0.4117 -0.1430  0.2155
  880MOL0     H21428   2.171   9.351   6.180  0.0740  0.2469  0.4508
  880MOL0     H21429   2.146   9.357   6.006 -2.9638  1.6680  1.8143
  880MOL0     H21430   2.024   9.153   6.200 -0.5032 -2.1248 -0.9208
  880MOL0     H21431   2.041   9.101   6.040  0.7456 -2.0763  1.8105
  880MOL0     H21432   1.906   9.369   6.110 -2.7553  2.4263 -3.3850
  880MOL0     H21433   1.926   9.302   5.951 -0.6637 -0.3929  0.6163
  880MOL0     H21434   1.757   9.156   6.141 -0.8973 -0.2429 -1.5292
  880MOL0     H21435   1.800   9.101   5.987 -0.8313 -0.1755  0.6860
  880MOL0     H21436   1.505   9.385   5.903  0.7539  2.2137  2.7005
  880MOL0     H21437   2.344   9.470   6.010  0.9745  1.6369  1.5615
  880MOL0     H21438   2.617   9.638   5.911  1.7098  0.1304  1.0223
  880MOL0     H21439   2.483   9.657   6.017  1.2403  0.7811  0.4798
  880MOL0     H21440   2.645   9.650   6.076 -0.3956  1.4511  0.2368
  881MOL0     O21441   1.245   1.533   6.212 -0.8371 -0.0754  0.1546
  881MOL0     C21442   1.237   1.650   6.169 -0.7703  0.4852  0.5005
  881MOL0     O21443   1.346   1.716   6.112 -0.4438  0.7917  0.6596
  881MOL0     C21444   1.446   1.623   6.064 -0.4523 -0.2298 -0.4314
  881MOL0     C21445   1.581   1.676   6.065 -0.0043  0.3174 -0.2706
  881MOL0     C21446   1.684   1.598   6.011  0.0690  0.0010 -0.3705
  881MOL0     C21447   1.663   1.468   5.967 -0.5855  0.8737 -0.5108
  881MOL0     O21448   1.774   1.401   5.924 -0.1830  0.2719  0.6391
  881MOL0     C21449   1.856   1.462   5.819 -0.0258  0.0446 -0.5554
  881MOL0     C21450   1.933   1.346   5.745  0.0203  0.1087 -0.5914
  881MOL0     C21451   2.069   1.414   5.702  0.0871  0.0396  0.0495
  881MOL0     C21452   2.161   1.309   5.619  0.4969 -0.1840 -1.0449
  881MOL0     C21453   2.268   1.355   5.529 -0.3184 -0.1726  0.6033
  881MOL0     C21454   2.381   1.434   5.603 -0.1301  0.2686  0.4372
  881MOL0     C21455   2.487   1.482   5.503 -0.3428  0.2740 -0.2014
  881MOL0     C21456   2.577   1.582   5.577 -0.2207  0.0701 -0.4467
  881MOL0     N21457   2.673   1.628   5.491 -0.5649  0.3031  1.5473
  881MOL0     C21458   2.660   1.718   5.391  0.3157  0.8895  0.1743
  881MOL0     C21459   2.790   1.769   5.360  0.1749 -0.0940 -0.3474
  881MOL0     C21460   2.814   1.891   5.279  0.5704 -0.3160  0.0478
  881MOL0     C21461   2.915   1.868   5.171 -1.0698 -0.1591  1.2237
  881MOL0     C21462   3.059   1.847   5.222 -0.0102 -0.0831  0.0749
  881MOL0     C21463   3.151   1.891   5.112  0.2976 -0.7261 -0.2699
  881MOL0     O21464   3.131   1.818   4.987  0.2746  0.2470 -0.7920
  881MOL0     C21465   3.210   1.844   4.881 -0.1285 -0.6861  0.0412
  881MOL0     C21466   3.305   1.944   4.882 -0.2782 -0.6280 -0.2809
  881MOL0     C21467   3.369   1.985   4.771  0.1561 -0.5298  0.2776
  881MOL0     C21468   3.452   2.110   4.788  0.1403  0.5022 -0.1497
  881MOL0     C21469   3.346   1.913   4.648  0.6854 -0.1777 -0.4795
  881MOL0     C21470   3.396   1.958   4.524 -0.2448  0.2664  0.2282
  881MOL0     O21471   3.512   2.017   4.511 -0.5045 -0.8660  0.6830
  881MOL0     C21472   3.559   2.051   4.381 -1.2397 -0.2612  0.2221
  881MOL0     C21473   3.572   1.953   4.277  0.0270  0.1212 -0.0831
  881MOL0     C21474   3.605   1.991   4.149  0.0517  0.3717  0.6699
  881MOL0     C21475   3.637   2.132   4.125  0.3350  0.0850  0.2429
  881MOL0     O21476   3.682   2.169   4.006 -0.5991 -0.3102 -0.6213
  881MOL0     C21477   3.590   2.174   3.898  0.1188  0.5182 -0.0531
  881MOL0     C21478   3.650   2.098   3.775  0.3904 -0.1908  0.1926
  881MOL0     C21479   3.762   2.180   3.706 -0.6584 -0.2640  0.4495
  881MOL0     C21480   3.751   2.152   3.556 -0.6672 -0.5899  0.2531
  881MOL0     C21481   3.886   2.173   3.486 -0.5688  0.0347  1.3135
  881MOL0     C21482   3.875   2.170   3.329  0.1959  0.4098 -0.5292
  881MOL0     C21483   3.820   2.303   3.269 -0.3363 -0.7729  0.0295
  881MOL0     C21484   3.881   2.329   3.135 -0.1365  1.0086  0.3060
  881MOL0    Cl21485   3.783   2.439   3.026  0.3139  0.2504  0.0595
  881MOL0     C21486   3.625   2.227   4.230 -0.7244  0.4676  0.1904
  881MOL0     C21487   3.589   2.179   4.355 -0.7732 -0.1248  0.2063
  881MOL0     O21488   3.323   1.930   4.433 -0.4493  0.2709 -0.4370
  881MOL0     C21489   3.250   1.809   4.647 -0.2939 -0.5484 -0.5988
  881MOL0     C21490   3.183   1.777   4.766  0.4123 -0.3498  0.5504
  881MOL0     N21491   2.879   1.697   5.432  0.2932 -0.3290 -0.0504
  881MOL0     N21492   2.808   1.625   5.506 -0.6041  0.1443 -0.2781
  881MOL0     C21493   1.537   1.404   5.972  0.1038 -1.3186  0.8508
  881MOL0     C21494   1.427   1.491   6.007  0.4525 -0.1005  0.2084
  881MOL0     C21495   1.118   1.727   6.199 -0.0189 -1.3266  0.5074
  881MOL0     C21496   1.118   1.866   6.162 -0.7596  0.0015  0.4717
  881MOL0     C21497   1.022   1.960   6.208 -0.4009 -0.0499  0.7958
  881MOL0     C21498   0.909   1.920   6.267  0.7797  0.8589  1.5437
  881MOL0     O21499   0.802   1.999   6.300  0.0901 -0.0275 -0.5235
  881MOL0     C21500   0.806   2.138   6.275 -0.1912  0.2468  0.2021
  881MOL0     C21501   0.678   2.204   6.307 -0.6545  0.0606 -0.3904
  881MOL0     C21502   0.700   2.354   6.352 -0.7181  0.4159 -0.6474
  881MOL0     C21503   0.576   2.442   6.382  0.8184  0.5663  0.3749
  881MOL0     C21504   0.478   2.461   6.274  0.0742  0.1796 -0.3535
  881MOL0     C21505   0.400   2.452   6.190  0.5436 -0.1801 -0.6222
  881MOL0     C21506   0.895   1.782   6.290 -0.6106  1.7626  0.1051
  881MOL0     C21507   0.993   1.683   6.254  0.3634  0.2945  0.0714
  881MOL0     C21508   0.969   1.540   6.286  0.0400  0.0160 -0.0710
  881MOL0     H21509   1.602   1.766   6.123 -1.8187 -0.7006  2.1569
  881MOL0     H21510   1.783   1.640   5.998  1.6338 -3.2503  0.0581
  881MOL0     H21511   1.923   1.540   5.854 -0.6447  1.3830 -2.1893
  881MOL0     H21512   1.788   1.507   5.746 -0.4346 -0.9164 -0.7830
  881MOL0     H21513   1.953   1.269   5.820  1.7980  0.4684 -0.6436
  881MOL0     H21514   1.882   1.313   5.654  7.0905  0.8304 -5.6583
  881MOL0     H21515   2.039   1.497   5.637 -0.6419 -0.5487 -0.3961
  881MOL0     H21516   2.122   1.442   5.793  0.3928 -0.2364 -0.0427
  881MOL0     H21517   2.214   1.240   5.685  2.4752  1.6022 -0.6986
  881MOL0     H21518   2.088   1.248   5.564 -0.3447 -1.9533  1.8225
  881MOL0     H21519   2.224   1.418   5.451  0.5321 -0.3477 -0.0404
  881MOL0     H21520   2.322   1.268   5.490 -1.1884 -0.6667  0.4749
  881MOL0     H21521   2.333   1.521   5.649 -2.9523 -3.0992  4.5878
  881MOL0     H21522   2.436   1.365   5.668  1.7504 -0.8252 -2.0968
  881MOL0     H21523   2.456   1.498   5.400 -0.1252 -1.9429 -0.6571
  881MOL0     H21524   2.556   1.398   5.497 -0.4249 -0.0274  2.1502
  881MOL0     H21525   2.525   1.668   5.621  2.2899  0.7460  1.4047
  881MOL0     H21526   2.629   1.542   5.664  1.0550 -1.6855 -1.9438
  881MOL0     H21527   2.567   1.762   5.356 -1.1375 -2.0012  0.0816
  881MOL0     H21528   2.854   1.971   5.342  1.5910 -0.6144 -0.2136
  881MOL0     H21529   2.717   1.924   5.241  0.4180  0.2479  0.8830
  881MOL0     H21530   2.879   1.788   5.105 -1.4345  2.3367 -1.8156
  881MOL0     H21531   2.919   1.954   5.104  0.8500 -1.3624 -0.2880
  881MOL0     H21532   3.070   1.907   5.313  1.0965  2.4566 -1.6391
  881MOL0     H21533   3.085   1.743   5.246  0.5102  0.1884  0.7340
  881MOL0     H21534   3.148   2.000   5.100  1.0055 -0.7191 -0.4570
  881MOL0     H21535   3.249   1.865   5.153  1.5210  0.7830 -2.0732
  881MOL0     H21536   3.334   1.996   4.973  0.6528  0.0679 -0.9646
  881MOL0     H21537   3.429   2.172   4.876 -2.6516  0.4354 -0.7505
  881MOL0     H21538   3.442   2.172   4.699 -1.3147 -2.5456 -2.2435
  881MOL0     H21539   3.558   2.084   4.801  0.7363  3.3324  1.5761
  881MOL0     H21540   3.547   1.851   4.307 -3.0584  1.0927  1.0792
  881MOL0     H21541   3.612   1.924   4.064 -0.3501  2.9010 -1.4577
  881MOL0     H21542   3.491   2.136   3.923  1.3134 -1.2142  2.4688
  881MOL0     H21543   3.583   2.279   3.867  2.7979  0.6865 -0.3587
  881MOL0     H21544   3.673   1.993   3.797 -4.5252 -1.8202 -1.1700
  881MOL0     H21545   3.569   2.088   3.702  0.6935  0.3428 -0.2239
  881MOL0     H21546   3.861   2.147   3.739  0.8907  2.7514 -0.8063
  881MOL0     H21547   3.748   2.288   3.715  1.0825 -0.1566  2.6022
  881MOL0     H21548   3.669   2.206   3.510 -0.1896  0.5595  0.7116
  881MOL0     H21549   3.724   2.047   3.543 -1.3347 -0.0849 -3.2554
  881MOL0     H21550   3.946   2.262   3.508  3.5880 -2.4947  1.1534
  881MOL0     H21551   3.952   2.093   3.520  3.1324  1.3027 -2.1424
  881MOL0     H21552   3.802   2.093   3.302 -0.1664  0.9015 -0.9725
  881MOL0     H21553   3.974   2.143   3.290 -1.2885 -2.2803 -2.8290
  881MOL0     H21554   3.839   2.394   3.327 -0.9094  0.9724 -2.3809
  881MOL0     H21555   3.715   2.292   3.244 -0.1442  0.9477 -1.7208
  881MOL0     H21556   3.873   2.230   3.089  3.4583  1.5655 -1.8880
  881MOL0     H21557   3.988   2.349   3.141  0.5040 -2.0591  1.0261
  881MOL0     H21558   3.650   2.330   4.208  4.2399 -0.2480  1.3045
  881MOL0     H21559   3.578   2.248   4.438  1.5943 -0.0669  0.5169
  881MOL0     H21560   3.237   1.749   4.558  1.6463 -0.8451 -0.7116
  881MOL0     H21561   3.110   1.697   4.753  1.6878 -1.3488 -0.7673
  881MOL0     H21562   1.528   1.302   5.938 -1.2922 -0.1023 -2.9437
  881MOL0     H21563   1.327   1.453   5.989 -0.4036  1.9595  0.3063
  881MOL0     H21564   1.206   1.914   6.121  0.1175 -0.6011  1.5985
  881MOL0     H21565   1.028   2.066   6.186 -1.8570  0.1123  1.1218
  881MOL0     H21566   0.887   2.188   6.329 -0.4054  2.5635 -1.4648
  881MOL0     H21567   0.832   2.158   6.170  1.2325 -1.5422  0.1669
  881MOL0     H21568   0.622   2.165   6.393 -1.5572 -0.6697 -1.2741
  881MOL0     H21569   0.609   2.196   6.222 -1.2758  3.1736 -0.2927
  881MOL0     H21570   0.764   2.356   6.441 -0.2310  0.4411 -0.9913
  881MOL0     H21571   0.761   2.396   6.271  0.9538  1.6489  1.1521
  881MOL0     H21572   0.617   2.542   6.397  0.3420  1.0404 -1.2709
  881MOL0     H21573   0.527   2.407   6.474 -0.9817  0.6299 -0.5210
  881MOL0     H21574   0.329   2.440   6.110 -0.4932  1.6232 -0.0240
  881MOL0     H21575   0.798   1.755   6.332 -1.0704  1.8460 -0.8907
  881MOL0     H21576   1.008   1.468   6.213  0.5473 -0.1274  0.3312
  881MOL0     H21577   1.012   1.514   6.384  0.7346  0.1537 -0.3286
  881MOL0     H21578   0.861   1.526   6.293  0.1562 -0.9209 -0.0402
  882MOL0     O21579   5.805   2.669  10.135  0.0483  0.8226  0.3043
  882MOL0     C21580   5.715   2.662  10.225  0.9754  0.5213 -0.1314
  882MOL0     O21581   5.711   2.719  10.347  0.2616 -0.0602  0.6610
  882MOL0     C21582   5.815   2.787  10.398 -0.4070 -0.0193 -1.0603
  882MOL0     C21583   5.781   2.875  10.504  0.1830 -0.3071 -0.1763
  882MOL0     C21584   5.875   2.954  10.565 -0.3448 -0.8132  0.2746
  882MOL0     C21585   6.009   2.963  10.520  0.7975  0.0004 -0.4173
  882MOL0     O21586   6.113   3.043  10.557 -0.0522  0.1848 -0.4362
  882MOL0     C21587   6.075   3.137  10.662 -0.2856 -0.7710 -0.1572
  882MOL0     C21588   6.198   3.218  10.690  0.1204 -0.7612  0.2966
  882MOL0     C21589   6.181   3.290  10.834 -0.0174  1.0752 -0.1324
  882MOL0     C21590   6.322   3.328  10.889 -0.4882  0.2050 -0.2106
  882MOL0     C21591   6.294   3.423  11.015  0.2805  0.4821  0.8376
  882MOL0     C21592   6.407   3.518  11.057 -0.6148  0.2791 -0.4896
  882MOL0     C21593   6.520   3.426  11.101  0.2168 -0.0938  0.1955
  882MOL0     C21594   6.632   3.505  11.178  0.1850  0.4068 -0.3594
  882MOL0     N21595   6.762   3.476  11.115  0.7631 -0.7512  0.3294
  882MOL0     C21596   6.811   3.554  11.010 -0.2715  0.0717 -0.5728
  882MOL0     C21597   6.917   3.485  10.962 -0.5108 -0.6613 -0.2243
  882MOL0     C21598   6.998   3.536  10.842  0.5789  0.1743  0.3936
  882MOL0     C21599   7.139   3.467  10.841 -0.7228 -0.4167  0.1690
  882MOL0     C21600   7.183   3.439  10.700 -0.4837 -0.6033  1.0644
  882MOL0     C21601   7.328   3.402  10.711 -0.1436  0.5737  0.8777
  882MOL0     O21602   7.352   3.283  10.786  0.3055  1.1164  0.3246
  882MOL0     C21603   7.476   3.223  10.789  0.2572 -0.0666  0.0267
  882MOL0     C21604   7.588   3.264  10.718  0.1119  0.4205  0.7075
  882MOL0     C21605   7.714   3.194  10.720 -0.1394  1.3416 -0.2606
  882MOL0     C21606   7.818   3.256  10.641 -0.2153  0.0460  1.1750
  882MOL0     C21607   7.738   3.089  10.809 -0.0899  0.1794  0.5203
  882MOL0     C21608   7.871   3.038  10.845 -0.4274 -0.4827 -0.3237
  882MOL0     O21609   7.978   3.058  10.757  0.2655  0.1268 -0.9699
  882MOL0     C21610   8.090   2.989  10.786  0.5893  0.5973 -0.4744
  882MOL0     C21611   8.157   3.013  10.903 -0.4456 -0.8643  1.8649
  882MOL0     C21612   8.284   2.959  10.930 -0.6403  0.4039  0.8377
  882MOL0     C21613   8.348   2.881  10.830  0.0903 -0.1016 -0.8725
  882MOL0     O21614   8.466   2.814  10.839  0.8578 -0.4094 -0.0879
  882MOL0     C21615   8.541   2.841  10.958 -0.0518  0.8563  0.3343
  882MOL0     C21616   8.661   2.744  10.953  0.1390 -0.4343  0.3361
  882MOL0     C21617   8.738   2.738  10.819 -0.6864  0.8514  0.1907
  882MOL0     C21618   8.856   2.834  10.823 -0.1723  0.1069  0.4715
  882MOL0     C21619   8.908   2.884  10.686  0.6708  0.5456  0.1391
  882MOL0     C21620   8.963   2.768  10.599 -0.4513 -0.4244 -0.3948
  882MOL0     C21621   9.102   2.726  10.641 -1.3989  0.6846  0.1066
  882MOL0     C21622   9.150   2.610  10.561  0.1659  0.5572 -0.0837
  882MOL0    Cl21623   9.096   2.454  10.625  0.1675 -0.6385 -0.2479
  882MOL0     C21624   8.283   2.862  10.710 -0.5344  0.1308  1.4896
  882MOL0     C21625   8.157   2.914  10.686  0.8166 -0.6026 -0.2560
  882MOL0     O21626   7.877   2.977  10.954  0.3712 -0.2163 -0.8507
  882MOL0     C21627   7.620   3.041  10.876  0.2187  0.3760 -0.2054
  882MOL0     C21628   7.490   3.101  10.859 -0.1347 -1.4558 -0.1253
  882MOL0     N21629   6.932   3.369  11.037 -0.4164 -0.6374  0.4299
  882MOL0     N21630   6.828   3.358  11.118  0.3778 -0.2142 -0.3541
  882MOL0     C21631   6.038   2.880  10.412  0.2066  0.4358  1.1790
  882MOL0     C21632   5.946   2.784  10.356 -0.5374  0.0642 -0.4678
  882MOL0     C21633   5.590   2.594  10.190  0.2314  0.3467  0.8216
  882MOL0     C21634   5.475   2.639  10.247 -0.0162 -0.3218 -0.2620
  882MOL0     C21635   5.358   2.577  10.214  0.0280 -0.9233  0.8315
  882MOL0     C21636   5.348   2.465  10.128 -0.2312 -0.6123  0.2751
  882MOL0     O21637   5.225   2.414  10.083 -0.0721 -0.9752  0.2106
  882MOL0     C21638   5.120   2.402  10.180  0.2564 -0.0984 -0.2040
  882MOL0     C21639   5.006   2.311  10.134  0.4155 -0.4125  0.1285
  882MOL0     C21640   5.041   2.164  10.114  0.6858 -0.5478 -0.7147
  882MOL0     C21641   4.932   2.085  10.043  1.1007  0.1214 -0.3913
  882MOL0     C21642   4.800   2.088  10.116 -0.1874  1.2286 -0.2809
  882MOL0     C21643   4.693   2.084  10.175 -1.4561  0.2654 -0.3250
  882MOL0     C21644   5.470   2.421  10.081 -0.0802 -0.3822  0.3863
  882MOL0     C21645   5.592   2.481  10.112 -0.6620  0.6000 -0.8669
  882MOL0     C21646   5.721   2.417  10.068 -0.4343 -0.3869 -0.2135
  882MOL0     H21647   5.677   2.890  10.528  0.2648  1.7587 -0.9257
  882MOL0     H21648   5.842   3.016  10.647  1.4510  1.5579 -0.6837
  882MOL0     H21649   6.039   3.087  10.752 -1.2225  2.2434  1.2880
  882MOL0     H21650   5.996   3.204  10.627  0.0838 -0.4278 -0.3462
  882MOL0     H21651   6.290   3.158  10.691 -0.7061 -2.0762  1.5612
  882MOL0     H21652   6.212   3.291  10.610  0.4955 -0.2285  0.8380
  882MOL0     H21653   6.124   3.381  10.816 -4.2616 -1.2802  0.2781
  882MOL0     H21654   6.123   3.233  10.907 -1.5621  3.7237  0.8309
  882MOL0     H21655   6.393   3.247  10.907  1.6527  1.9851 -0.3784
  882MOL0     H21656   6.377   3.388  10.816  0.3774  0.0744  0.3244
  882MOL0     H21657   6.266   3.371  11.107 -0.9153 -0.2143  0.0966
  882MOL0     H21658   6.208   3.480  10.978 -0.9746 -1.5548  0.4620
  882MOL0     H21659   6.448   3.580  10.977  3.6885  0.6550  1.7330
  882MOL0     H21660   6.377   3.587  11.137  0.5981  1.1692 -0.7717
  882MOL0     H21661   6.573   3.392  11.012  0.4644 -0.7077  0.5717
  882MOL0     H21662   6.486   3.339  11.158  1.8105  0.5264  2.1966
  882MOL0     H21663   6.611   3.613  11.175 -1.5464  0.1115  0.0039
  882MOL0     H21664   6.645   3.480  11.284 -0.6518  1.1085 -0.0757
  882MOL0     H21665   6.766   3.643  10.968 -0.2945 -0.2457 -1.2272
  882MOL0     H21666   6.998   3.645  10.856  0.7436  0.5205 -1.9308
  882MOL0     H21667   6.940   3.504  10.755 -2.2408 -0.7859  2.4785
  882MOL0     H21668   7.214   3.520  10.900 -0.8609  0.2671 -0.2600
  882MOL0     H21669   7.147   3.372  10.895  2.2602 -0.0810  0.5171
  882MOL0     H21670   7.118   3.365  10.653 -2.0620  0.4950  1.4338
  882MOL0     H21671   7.190   3.530  10.640 -1.5204 -1.4519 -0.3985
  882MOL0     H21672   7.363   3.387  10.608 -3.1564 -1.1164 -0.0592
  882MOL0     H21673   7.384   3.487  10.749  0.2900  1.8818 -2.3535
  882MOL0     H21674   7.578   3.349  10.652 -1.9962 -0.7270 -0.5502
  882MOL0     H21675   7.894   3.294  10.710 -0.9130 -3.3590  4.1055
  882MOL0     H21676   7.788   3.321  10.558  4.4156  2.3230  0.9352
  882MOL0     H21677   7.871   3.182  10.580 -3.2359 -0.8501 -0.5607
  882MOL0     H21678   8.112   3.076  10.979  1.1550 -0.6035  2.6588
  882MOL0     H21679   8.340   2.977  11.022  1.4175  0.5035 -0.3859
  882MOL0     H21680   8.572   2.946  10.959  0.4997  0.7500 -1.9302
  882MOL0     H21681   8.485   2.821  11.050  1.5906  0.3532  1.2661
  882MOL0     H21682   8.726   2.787  11.030 -0.5800 -0.1340  0.7842
  882MOL0     H21683   8.637   2.644  10.989  2.8748 -1.5155 -0.5516
  882MOL0     H21684   8.663   2.769  10.745 -3.1867  0.3124  2.3313
  882MOL0     H21685   8.765   2.635  10.795 -2.7705 -0.1220  1.6533
  882MOL0     H21686   8.942   2.797  10.880 -0.2901 -0.5393  0.2324
  882MOL0     H21687   8.826   2.929  10.867  0.8397  1.4273 -1.4832
  882MOL0     H21688   8.823   2.938  10.644 -1.2445  2.0699  5.2223
  882MOL0     H21689   8.989   2.950  10.721 -0.5021  1.5635  1.0373
  882MOL0     H21690   8.972   2.800  10.495 -1.2834  1.2258  0.0131
  882MOL0     H21691   8.893   2.684  10.606 -0.4952 -0.2311  2.7836
  882MOL0     H21692   9.108   2.696  10.746 -1.7355  3.9327  1.1616
  882MOL0     H21693   9.177   2.804  10.628 -1.5971  1.0799  1.2354
  882MOL0     H21694   9.259   2.609  10.551  0.2069 -0.2748  0.3260
  882MOL0     H21695   9.111   2.623  10.460 -0.2728  1.4397  0.1942
  882MOL0     H21696   8.334   2.804  10.633  0.4832  0.6157  1.7927
  882MOL0     H21697   8.110   2.904  10.589  1.5974 -2.7622 -0.4828
  882MOL0     H21698   7.635   2.958  10.944 -0.0569  0.5793  0.1001
  882MOL0     H21699   7.409   3.064  10.921 -2.6605 -1.9816 -3.4791
  882MOL0     H21700   6.140   2.869  10.375 -0.6944 -0.4755 -1.1863
  882MOL0     H21701   5.986   2.723  10.275  2.9603  0.6820  0.5955
  882MOL0     H21702   5.479   2.732  10.303 -0.3603 -1.2114  1.3169
  882MOL0     H21703   5.266   2.623  10.249 -0.4895 -1.1426 -0.1919
  882MOL0     H21704   5.161   2.353  10.269 -2.2005  0.1405  1.1265
  882MOL0     H21705   5.096   2.501  10.219  1.3909  0.3806 -0.6636
  882MOL0     H21706   4.954   2.357  10.049  1.5406  1.9655  0.6263
  882MOL0     H21707   4.930   2.302  10.213  2.2173  0.3741  2.0519
  882MOL0     H21708   5.133   2.160  10.055  0.4171 -0.1982 -1.1636
  882MOL0     H21709   5.062   2.125  10.214 -1.2291 -1.4870 -0.6309
  882MOL0     H21710   4.972   1.984  10.030  1.8615  0.1816  1.1870
  882MOL0     H21711   4.911   2.123   9.943 -1.3533 -2.5252 -0.9958
  882MOL0     H21712   4.606   2.091  10.236 -1.0988  0.9796  0.1019
  882MOL0     H21713   5.480   2.337  10.014  0.7577 -0.3038  0.4039
  882MOL0     H21714   5.784   2.408  10.157 -1.6951 -0.5366  0.6913
  882MOL0     H21715   5.701   2.313  10.041 -0.3647 -0.7372  1.0164
  882MOL0     H21716   5.782   2.461   9.989  0.5273 -0.7105  0.3427
  883MOL0     O21717   0.644   0.745   5.975 -0.5323 -0.3132 -1.0795
  883MOL0     C21718   0.565   0.821   6.031 -1.0399 -1.2339  0.1634
  883MOL0     O21719   0.441   0.786   6.083  0.4165  0.6359  0.6398
  883MOL0     C21720   0.415   0.658   6.123  0.2366 -0.1118 -0.4463
  883MOL0     C21721   0.510   0.561   6.175 -0.5897 -0.3990  0.4419
  883MOL0     C21722   0.469   0.440   6.214 -0.2919  0.3919 -0.4560
  883MOL0     C21723   0.343   0.385   6.183  0.1578  0.1344  0.1541
  883MOL0     O21724   0.333   0.244   6.190 -0.6742 -0.5803 -0.1506
  883MOL0     C21725   0.206   0.183   6.159  0.1720 -0.1723  0.0627
  883MOL0     C21726   0.221   0.028   6.153 -0.5560  0.2081  0.1893
  883MOL0     C21727   0.335  -0.020   6.060 -0.4360 -0.0932 -0.0262
  883MOL0     C21728   0.327  -0.172   6.033 -0.4155  0.3837  0.1559
  883MOL0     C21729   0.436  -0.226   5.933 -0.1775 -0.7884 -0.0501
  883MOL0     C21730   0.570  -0.249   6.009  0.4535 -0.1383 -0.1540
  883MOL0     C21731   0.677  -0.305   5.920  0.0381  0.3023 -0.0384
  883MOL0     C21732   0.765  -0.405   6.007  0.2035 -0.4963 -0.4123
  883MOL0     N21733   0.898  -0.439   5.966 -0.5409  0.2412 -0.4202
  883MOL0     C21734   1.016  -0.379   5.999 -0.6222 -0.4698  0.0515
  883MOL0     C21735   1.115  -0.449   5.925 -0.0597  0.1003 -0.0710
  883MOL0     C21736   1.260  -0.420   5.930 -1.1065  0.5340 -0.4913
  883MOL0     C21737   1.341  -0.542   5.883  0.6422 -0.1449 -0.3453
  883MOL0     C21738   1.488  -0.510   5.874 -0.1707 -0.7816  0.0616
  883MOL0     C21739   1.516  -0.392   5.772 -0.8255  0.5962 -0.1998
  883MOL0     O21740   1.536  -0.276   5.858  0.0668 -0.1800 -0.0658
  883MOL0     C21741   1.666  -0.228   5.873 -0.6961  0.5744 -0.6551
  883MOL0     C21742   1.686  -0.091   5.899 -0.6909 -1.7789  0.3192
  883MOL0     C21743   1.809  -0.021   5.910 -0.1743 -0.2924  0.1432
  883MOL0     C21744   1.812   0.126   5.911  0.3585 -1.0576 -0.1402
  883MOL0     C21745   1.928  -0.103   5.916 -0.3621 -0.7174  0.2751
  883MOL0     C21746   2.074  -0.048   5.937  0.8357 -0.0362  0.2458
  883MOL0     O21747   2.092   0.075   5.996 -0.1484  0.0835 -0.3535
  883MOL0     C21748   2.216   0.122   6.041  0.8935  0.1068  0.1890
  883MOL0     C21749   2.336   0.055   6.039 -0.4511  0.1427  0.7105
  883MOL0     C21750   2.457   0.109   6.090  0.8447  0.0846  0.3331
  883MOL0     C21751   2.452   0.237   6.149  0.2669  0.3988  0.5307
  883MOL0     O21752   2.559   0.305   6.197 -0.1403 -0.3407 -0.0130
  883MOL0     C21753   2.684   0.252   6.163  0.8989  0.1509  0.3937
  883MOL0     C21754   2.783   0.361   6.216  0.1628 -0.4967  0.1753
  883MOL0     C21755   2.927   0.318   6.225  0.3661  0.1142 -0.1180
  883MOL0     C21756   3.020   0.428   6.293  0.4036  0.4901  0.6345
  883MOL0     C21757   3.170   0.385   6.290 -0.5078 -0.2594  0.1189
  883MOL0     C21758   3.261   0.489   6.351 -0.2303  0.4091 -0.1672
  883MOL0     C21759   3.414   0.453   6.353  0.4693 -0.3747 -0.1932
  883MOL0     C21760   3.507   0.570   6.382 -0.0917  0.1264 -0.1073
  883MOL0    Cl21761   3.681   0.526   6.372 -0.0676  0.1147 -0.0069
  883MOL0     C21762   2.332   0.308   6.150  0.5002  0.6728  0.2502
  883MOL0     C21763   2.222   0.246   6.103 -0.0678  0.4921  0.6923
  883MOL0     O21764   2.161  -0.136   5.918 -0.2552 -0.8067  0.5665
  883MOL0     C21765   1.911  -0.243   5.896 -0.2713  0.5751  0.2354
  883MOL0     C21766   1.786  -0.304   5.878 -0.3218 -0.5167 -0.0850
  883MOL0     N21767   1.050  -0.553   5.861  0.2909 -0.1249  0.1571
  883MOL0     N21768   0.919  -0.557   5.890 -0.3755 -0.3392 -0.1325
  883MOL0     C21769   0.248   0.472   6.132  0.0908  0.2017  0.6469
  883MOL0     C21770   0.289   0.604   6.099  0.1037  0.1423  0.1000
  883MOL0     C21771   0.604   0.962   6.061  0.7987  0.2174 -0.5544
  883MOL0     C21772   0.510   1.067   6.023 -0.3633  0.5721 -0.0927
  883MOL0     C21773   0.543   1.200   6.032 -0.1540 -0.3207  0.0796
  883MOL0     C21774   0.667   1.240   6.085  0.0707  0.2406 -0.3724
  883MOL0     O21775   0.726   1.364   6.102 -0.2268  0.8107 -0.2280
  883MOL0     C21776   0.658   1.480   6.055  0.1252  0.1722  0.2245
  883MOL0     C21777   0.560   1.534   6.163 -0.3452 -0.6141  0.9035
  883MOL0     C21778   0.472   1.639   6.107 -0.0176 -0.2692 -0.2017
  883MOL0     C21779   0.446   1.755   6.213  0.4181  0.7597  0.0213
  883MOL0     C21780   0.407   1.712   6.348 -0.4329  0.3553 -0.8428
  883MOL0     C21781   0.361   1.655   6.450 -0.2212 -0.7993 -0.0461
  883MOL0     C21782   0.749   1.133   6.137  0.2039  0.1520 -0.5477
  883MOL0     C21783   0.720   0.996   6.131 -0.6250  1.3109 -0.0806
  883MOL0     C21784   0.823   0.892   6.183  0.3324 -0.0253 -0.4676
  883MOL0     H21785   0.610   0.593   6.202 -0.5370 -1.1736  1.2223
  883MOL0     H21786   0.545   0.370   6.249  0.7463  0.6923 -2.0010
  883MOL0     H21787   0.186   0.210   6.055  0.0984 -0.3920  0.0185
  883MOL0     H21788   0.125   0.202   6.230  1.2423 -0.6917  1.4644
  883MOL0     H21789   0.241  -0.017   6.250  3.2085  1.2333  0.0336
  883MOL0     H21790   0.122   0.002   6.113 -1.0876  2.1813  0.1031
  883MOL0     H21791   0.317   0.024   5.962 -2.5769  0.8688  0.7351
  883MOL0     H21792   0.429   0.002   6.111 -1.2320 -1.7812  2.3844
  883MOL0     H21793   0.334  -0.233   6.124 -1.7511  0.4173  0.3103
  883MOL0     H21794   0.232  -0.190   5.981 -0.1111  0.7343 -0.5226
  883MOL0     H21795   0.452  -0.167   5.842 -2.8810  0.6091  0.2636
  883MOL0     H21796   0.393  -0.320   5.897  0.4572 -2.1527  2.5150
  883MOL0     H21797   0.602  -0.155   6.053 -1.0139  0.5170 -0.4251
  883MOL0     H21798   0.550  -0.317   6.093 -3.0135  0.7769 -0.0533
  883MOL0     H21799   0.736  -0.225   5.875 -4.3679  1.2551 -5.0099
  883MOL0     H21800   0.633  -0.367   5.842  0.4490 -0.2841  0.1866
  883MOL0     H21801   0.774  -0.346   6.099  0.6478 -0.9797 -0.1389
  883MOL0     H21802   0.714  -0.497   6.036  0.5420 -0.1692  1.3771
  883MOL0     H21803   1.022  -0.294   6.066  1.0496 -0.7209  0.2633
  883MOL0     H21804   1.289  -0.404   6.034 -2.0386 -3.2356  0.4891
  883MOL0     H21805   1.275  -0.343   5.854  0.0762  0.9521  0.1455
  883MOL0     H21806   1.330  -0.626   5.952  2.2873  0.0684  0.2072
  883MOL0     H21807   1.311  -0.566   5.781 -0.1070  1.2727 -0.4825
  883MOL0     H21808   1.525  -0.492   5.975 -0.3749 -4.2721  0.8886
  883MOL0     H21809   1.536  -0.605   5.847 -0.1297 -1.0070  0.9046
  883MOL0     H21810   1.608  -0.412   5.717  0.9787  2.0121  2.1355
  883MOL0     H21811   1.433  -0.370   5.704 -1.3067  0.2592  0.2738
  883MOL0     H21812   1.596  -0.031   5.914  1.6210  2.1602 -0.2263
  883MOL0     H21813   1.864   0.166   5.998  2.5192 -0.0236 -1.7970
  883MOL0     H21814   1.714   0.173   5.919  0.3323 -0.9707 -0.8750
  883MOL0     H21815   1.861   0.155   5.818 -2.4438 -1.1093 -1.7448
  883MOL0     H21816   2.347  -0.043   5.994 -2.4343 -1.2159  2.9195
  883MOL0     H21817   2.543   0.044   6.085 -0.1231 -1.2209  0.0164
  883MOL0     H21818   2.697   0.155   6.211  2.4040  0.1120 -0.0617
  883MOL0     H21819   2.685   0.243   6.054  0.5778  3.3207  0.0340
  883MOL0     H21820   2.775   0.447   6.149  2.5412  0.3089  0.8432
  883MOL0     H21821   2.738   0.399   6.308 -1.5539  1.4556 -1.3553
  883MOL0     H21822   2.965   0.294   6.125 -0.1135  1.4288 -0.6330
  883MOL0     H21823   2.928   0.232   6.292 -1.8545 -0.5316 -0.8150
  883MOL0     H21824   2.989   0.443   6.397 -0.8437 -3.3515  0.9651
  883MOL0     H21825   3.014   0.520   6.233 -0.6040 -0.1901 -0.3429
  883MOL0     H21826   3.183   0.286   6.335  0.9310 -0.6383 -1.0460
  883MOL0     H21827   3.215   0.380   6.191  3.1414  1.1657  1.5429
  883MOL0     H21828   3.231   0.513   6.453  2.4668 -3.5269  1.7891
  883MOL0     H21829   3.263   0.585   6.298 -2.3954  1.2407  1.1343
  883MOL0     H21830   3.445   0.407   6.259 -0.8055 -1.1730 -0.2426
  883MOL0     H21831   3.416   0.379   6.433 -0.4014  1.6323  1.8019
  883MOL0     H21832   3.482   0.620   6.476  0.1929  1.1409 -0.5624
  883MOL0     H21833   3.482   0.646   6.308  1.7825  1.0695  0.1612
  883MOL0     H21834   2.314   0.407   6.191 -1.5129 -0.8713  3.4640
  883MOL0     H21835   2.125   0.292   6.115  0.6078  1.9014  1.0039
  883MOL0     H21836   1.996  -0.309   5.914 -0.9447  0.0300  1.5757
  883MOL0     H21837   1.780  -0.413   5.876 -1.3787 -0.4874 -2.4577
  883MOL0     H21838   0.153   0.438   6.093  0.8385 -0.3721 -0.7559
  883MOL0     H21839   0.214   0.673   6.062 -0.0794 -0.3117 -0.3891
  883MOL0     H21840   0.412   1.045   5.982 -1.2420 -0.7651  2.4745
  883MOL0     H21841   0.459   1.262   6.003  0.0996  0.3568  0.7394
  883MOL0     H21842   0.728   1.562   6.041 -1.6098  1.6365 -0.2423
  883MOL0     H21843   0.612   1.451   5.960  2.6693 -0.5817 -0.8692
  883MOL0     H21844   0.616   1.569   6.250 -0.0198 -0.7025  0.7328
  883MOL0     H21845   0.496   1.452   6.197 -0.7607 -0.5226  0.3573
  883MOL0     H21846   0.522   1.677   6.018  1.8958 -0.1855  0.8612
  883MOL0     H21847   0.381   1.598   6.064 -1.4034  1.1422  1.2093
  883MOL0     H21848   0.360   1.817   6.186 -0.3460 -0.4540 -0.3887
  883MOL0     H21849   0.533   1.820   6.220  0.7761  0.1215  2.7150
  883MOL0     H21850   0.338   1.626   6.551  0.6735  2.0996  1.1085
  883MOL0     H21851   0.844   1.156   6.184 -0.4990 -0.5912  1.3275
  883MOL0     H21852   0.776   0.801   6.220  1.2497 -1.4051 -2.5215
  883MOL0     H21853   0.891   0.875   6.098 -1.4677  2.9774 -2.7331
  883MOL0     H21854   0.872   0.941   6.267 -2.4109  0.0760  1.1883
  884MOL0     O21855   3.229   3.844  10.473  0.3484  0.1423 -0.0456
  884MOL0     C21856   3.228   3.934  10.385 -0.3964  0.2903  0.6299
  884MOL0     O21857   3.308   3.930  10.272 -0.1545 -0.1921  0.0623
  884MOL0     C21858   3.399   3.832  10.243 -0.5762 -0.1071 -0.9461
  884MOL0     C21859   3.533   3.858  10.256  0.0029  0.0598 -1.0307
  884MOL0     C21860   3.636   3.758  10.252 -0.2150 -0.0883 -0.1937
  884MOL0     C21861   3.596   3.624  10.217 -0.5226  0.0771  0.2409
  884MOL0     O21862   3.692   3.525  10.194 -0.0219 -0.7153  0.1055
  884MOL0     C21863   3.670   3.416  10.286  0.3895  0.3771 -0.4275
  884MOL0     C21864   3.798   3.341  10.294 -0.2617 -0.2463  0.2489
  884MOL0     C21865   3.845   3.287  10.161 -0.2622  0.0296 -0.2613
  884MOL0     C21866   3.971   3.199  10.205  0.4372  0.1682 -0.4790
  884MOL0     C21867   4.021   3.116  10.089 -0.0522 -0.1914 -0.9254
  884MOL0     C21868   4.144   3.035  10.127 -0.2519  0.2352  0.2918
  884MOL0     C21869   4.212   2.968  10.006  0.4746 -0.2757  0.6520
  884MOL0     C21870   4.335   2.888  10.037 -0.0991  0.7916  0.7549
  884MOL0     N21871   4.438   2.965  10.100 -0.2216  1.0447 -0.5367
  884MOL0     C21872   4.521   3.056  10.041  0.2076 -0.0461 -0.1564
  884MOL0     C21873   4.597   3.112  10.141  0.7789 -0.0381  0.4420
  884MOL0     C21874   4.704   3.216  10.115  0.0213 -0.3633 -0.9299
  884MOL0     C21875   4.793   3.216  10.237  0.3519 -0.4065  0.1089
  884MOL0     C21876   4.906   3.309  10.217  0.4147 -0.2203 -0.0292
  884MOL0     C21877   5.011   3.302  10.328 -0.8463  0.3801  0.5087
  884MOL0     O21878   5.025   3.161  10.370  0.2419  0.2345  0.1394
  884MOL0     C21879   5.120   3.128  10.461  0.2879 -0.0802 -0.2259
  884MOL0     C21880   5.099   3.161  10.595 -0.3015  1.3103  0.2139
  884MOL0     C21881   5.191   3.121  10.697  0.3622  1.2946 -0.2127
  884MOL0     C21882   5.158   3.154  10.839 -0.5359  0.0404 -0.2023
  884MOL0     C21883   5.308   3.052  10.655 -0.4020  0.5024 -0.1333
  884MOL0     C21884   5.403   3.002  10.753 -0.2694 -0.3768 -0.0508
  884MOL0     O21885   5.361   2.949  10.877 -0.5732  0.4727 -0.8304
  884MOL0     C21886   5.458   2.892  10.968  0.3660 -0.9766  0.4909
  884MOL0     C21887   5.565   2.963  11.008  0.0768  0.1918 -0.4107
  884MOL0     C21888   5.670   2.899  11.088  0.0198  0.6493 -0.6014
  884MOL0     C21889   5.655   2.766  11.124  0.3028  0.2535  0.0047
  884MOL0     O21890   5.752   2.713  11.202 -0.6482 -0.3421 -0.2992
  884MOL0     C21891   5.761   2.572  11.207  0.6047  0.7523  0.3764
  884MOL0     C21892   5.879   2.542  11.292  0.7518  0.5599  0.0981
  884MOL0     C21893   5.887   2.388  11.308  1.3540  0.3034 -0.7783
  884MOL0     C21894   6.021   2.351  11.372 -0.0852 -0.2923  0.2920
  884MOL0     C21895   6.024   2.398  11.518 -0.1811 -0.6280  0.1407
  884MOL0     C21896   6.164   2.388  11.574 -0.3327  1.0953 -0.2680
  884MOL0     C21897   6.153   2.406  11.732 -0.1295 -0.4129  0.4507
  884MOL0     C21898   6.275   2.356  11.800 -0.0886 -0.5715  0.1545
  884MOL0    Cl21899   6.258   2.393  11.977  0.0840  0.0081  0.1161
  884MOL0     C21900   5.550   2.690  11.064 -1.0135 -0.2018 -0.5305
  884MOL0     C21901   5.452   2.757  10.995  0.1889 -1.0849  0.8250
  884MOL0     O21902   5.520   3.003  10.719 -0.1928  0.1925  0.4685
  884MOL0     C21903   5.321   3.022  10.519 -0.7709 -0.3036  0.6139
  884MOL0     C21904   5.234   3.056  10.425  0.2397 -0.6087  0.5598
  884MOL0     N21905   4.561   3.046  10.261 -0.2054  0.6878 -0.6614
  884MOL0     N21906   4.471   2.962  10.230  0.3927 -0.2448  0.3216
  884MOL0     C21907   3.456   3.601  10.187 -0.4995 -0.4525 -0.3111
  884MOL0     C21908   3.363   3.707  10.200  0.2304 -0.2885  0.2413
  884MOL0     C21909   3.137   4.047  10.420  0.1857 -0.5200  0.8057
  884MOL0     C21910   3.058   4.046  10.541 -0.7130  0.3207  0.2479
  884MOL0     C21911   2.971   4.154  10.575  0.0515  0.3961 -0.3815
  884MOL0     C21912   2.955   4.260  10.486 -0.4379 -0.6100  0.4427
  884MOL0     O21913   2.864   4.356  10.531  0.1897  0.5791 -0.5834
  884MOL0     C21914   2.896   4.486  10.497  0.1113 -1.0364  0.3851
  884MOL0     C21915   2.835   4.593  10.591  0.5134  0.2588 -1.0153
  884MOL0     C21916   2.887   4.596  10.739 -0.0894  0.5626  0.0271
  884MOL0     C21917   2.897   4.742  10.796 -0.4750 -0.7760 -0.3443
  884MOL0     C21918   2.995   4.839  10.739  0.6159  0.0230 -0.3195
  884MOL0     C21919   3.087   4.912  10.703 -0.3293 -0.0748  0.1870
  884MOL0     C21920   3.034   4.267  10.370  0.1866 -1.0235 -0.2487
  884MOL0     C21921   3.120   4.165  10.334 -0.3281 -0.1350 -0.6375
  884MOL0     C21922   3.194   4.182  10.204 -0.0869 -1.0085  0.5570
  884MOL0     H21923   3.548   3.960  10.290  0.0172 -0.1801 -0.2987
  884MOL0     H21924   3.741   3.786  10.261 -0.2272  0.4596 -1.5499
  884MOL0     H21925   3.593   3.345  10.255 -1.2770  1.1053  1.7486
  884MOL0     H21926   3.644   3.443  10.389  0.9819  1.2531 -0.4960
  884MOL0     H21927   3.876   3.405  10.336  1.9742 -2.3432 -0.5301
  884MOL0     H21928   3.781   3.260  10.365  1.0447 -2.3059 -1.6594
  884MOL0     H21929   3.768   3.229  10.110 -0.1362  0.4458 -0.9301
  884MOL0     H21930   3.878   3.361  10.088 -0.1175 -1.8566 -2.1979
  884MOL0     H21931   4.047   3.257  10.258  0.1442 -1.0680  1.3940
  884MOL0     H21932   3.936   3.129  10.281 -0.2735  3.1554  2.1776
  884MOL0     H21933   4.050   3.183  10.007  0.3367  1.2820  0.3668
  884MOL0     H21934   3.941   3.049  10.057 -0.0885 -0.1441 -0.9337
  884MOL0     H21935   4.209   3.112  10.170 -2.6170  2.9489 -0.7247
  884MOL0     H21936   4.123   2.963  10.208 -0.7156  0.7717  0.6575
  884MOL0     H21937   4.239   3.044   9.932  1.0847  0.4086  1.5570
  884MOL0     H21938   4.144   2.896   9.959  0.7238  0.8140 -1.4924
  884MOL0     H21939   4.301   2.801  10.095 -4.1008  1.7192  0.0808
  884MOL0     H21940   4.381   2.847   9.947  1.0420 -1.5278  2.2778
  884MOL0     H21941   4.528   3.071   9.934  1.4485 -0.2998 -0.1252
  884MOL0     H21942   4.667   3.319  10.112  1.1880  0.1766  1.4283
  884MOL0     H21943   4.751   3.196  10.018  1.4471 -0.9783 -0.1344
  884MOL0     H21944   4.734   3.257  10.320 -0.9208  2.7626 -2.1487
  884MOL0     H21945   4.824   3.112  10.250  1.4701 -0.2142 -0.8596
  884MOL0     H21946   4.953   3.298  10.119  0.7333  0.5470  0.0301
  884MOL0     H21947   4.864   3.410  10.219 -0.8425 -0.7286 -0.1713
  884MOL0     H21948   5.109   3.340  10.297  0.2180 -0.6717  2.4301
  884MOL0     H21949   4.980   3.375  10.403  0.9268  1.1127  0.5865
  884MOL0     H21950   5.012   3.213  10.633 -0.0498  0.2289  2.4156
  884MOL0     H21951   5.086   3.237  10.844  1.5255  1.8539  2.2636
  884MOL0     H21952   5.248   3.179  10.896 -1.7217  1.5987  1.0575
  884MOL0     H21953   5.109   3.069  10.885  0.5074 -1.1162 -1.1417
  884MOL0     H21954   5.575   3.067  10.981 -0.5837  0.6237  0.8970
  884MOL0     H21955   5.757   2.943  11.135  0.6429 -2.2524  1.1864
  884MOL0     H21956   5.666   2.543  11.252 -1.2891  1.8741 -2.6036
  884MOL0     H21957   5.780   2.523  11.111 -1.4215  2.0852 -0.7831
  884MOL0     H21958   5.968   2.585  11.244 -0.9701  2.5863 -1.4878
  884MOL0     H21959   5.867   2.597  11.386 -0.6252 -0.7365  0.7234
  884MOL0     H21960   5.889   2.337  11.211 -1.0080  1.2497 -1.3855
  884MOL0     H21961   5.803   2.359  11.371  0.8772  1.4062 -0.8876
  884MOL0     H21962   6.106   2.397  11.319 -1.2100  1.4152 -0.0985
  884MOL0     H21963   6.038   2.243  11.367  0.1742 -0.2120 -1.0185
  884MOL0     H21964   5.987   2.500  11.528 -2.2056 -1.1764 -1.0475
  884MOL0     H21965   5.963   2.328  11.576  2.4623 -4.2500 -1.0630
  884MOL0     H21966   6.229   2.462  11.525  0.4566  0.6479  0.0831
  884MOL0     H21967   6.198   2.289  11.542 -1.1867  0.5464  0.4911
  884MOL0     H21968   6.072   2.353  11.783  0.5371  0.8615  3.0149
  884MOL0     H21969   6.153   2.512  11.759  3.1841 -0.0260 -0.6037
  884MOL0     H21970   6.363   2.400  11.750 -1.2957  1.4266 -0.3253
  884MOL0     H21971   6.276   2.247  11.794 -1.2514 -0.5268 -1.3252
  884MOL0     H21972   5.539   2.585  11.089  0.3695 -0.2439 -0.0043
  884MOL0     H21973   5.366   2.696  10.968  0.9677 -2.3421  1.1116
  884MOL0     H21974   5.404   2.961  10.484 -1.2888 -0.4717 -0.3645
  884MOL0     H21975   5.260   3.035  10.322  1.7193  0.5149  0.6674
  884MOL0     H21976   3.415   3.512  10.141  3.1002 -0.5653 -3.9495
  884MOL0     H21977   3.258   3.698  10.175  0.4629 -0.1027 -0.8556
  884MOL0     H21978   3.076   3.961  10.606 -3.0324 -0.4338  0.0179
  884MOL0     H21979   2.913   4.142  10.666 -2.6561 -1.6488 -2.2276
  884MOL0     H21980   3.004   4.495  10.503 -0.0260  3.8634 -0.2406
  884MOL0     H21981   2.867   4.515  10.395  2.9647  1.8993  0.2545
  884MOL0     H21982   2.727   4.573  10.592  0.2663  1.5094 -0.2373
  884MOL0     H21983   2.839   4.692  10.543 -0.7052  0.9280  0.1623
  884MOL0     H21984   2.814   4.543  10.801  1.5285 -0.1567  1.4209
  884MOL0     H21985   2.980   4.540  10.754 -0.8392 -0.8487 -0.3971
  884MOL0     H21986   2.907   4.738  10.905  1.3835  5.0401  0.0069
  884MOL0     H21987   2.798   4.786  10.783 -1.1135 -1.4835  1.6471
  884MOL0     H21988   3.159   4.983  10.669  0.9687 -1.5993 -0.3854
  884MOL0     H21989   3.020   4.347  10.298 -1.7806  1.3647  2.5247
  884MOL0     H21990   3.301   4.177  10.222  0.4627  1.0586 -1.6799
  884MOL0     H21991   3.149   4.108  10.136 -1.2605 -0.4195  0.6590
  884MOL0     H21992   3.176   4.283  10.166  2.3298 -0.8027 -0.2078
  885MOL0     O21993   9.147  10.108   3.469  0.8037 -0.6912 -0.2379
  885MOL0     C21994   9.145  10.008   3.400  1.0095  0.1014 -0.0476
  885MOL0     O21995   9.258   9.957   3.348 -0.3466  0.4466  0.1239
  885MOL0     C21996   9.362  10.038   3.318 -0.3447  0.4535  0.3072
  885MOL0     C21997   9.493   9.976   3.318  0.8552 -0.9080  0.1215
  885MOL0     C21998   9.608  10.053   3.287 -0.3836 -0.2453  0.2597
  885MOL0     C21999   9.603  10.191   3.247  0.0951  0.3517  0.1475
  885MOL0     O22000   9.718  10.267   3.224 -0.0863  0.8536  0.1870
  885MOL0     C22001   9.844  10.214   3.282 -0.8824  0.2522  0.5586
  885MOL0     C22002   9.943  10.323   3.270  0.2314  0.1028 -0.2273
  885MOL0     C22003  10.087  10.308   3.338 -0.6525  0.2561  0.1868
  885MOL0     C22004  10.151  10.171   3.310  0.2634 -0.4212 -0.0855
  885MOL0     C22005  10.301  10.164   3.358  1.6194  0.3008  0.2726
  885MOL0     C22006  10.387  10.251   3.269 -0.3890 -0.3294 -0.0690
  885MOL0     C22007  10.524  10.272   3.337  0.3157 -0.2917  0.5216
  885MOL0     C22008  10.549  10.385   3.436  0.2002 -0.3078  0.5855
  885MOL0     N22009  10.514  10.521   3.394  0.1334  0.3068 -0.0377
  885MOL0     C22010  10.385  10.568   3.382  0.1145  0.5512 -0.0317
  885MOL0     C22011  10.398  10.677   3.305  0.4914 -0.5907 -0.3227
  885MOL0     C22012  10.291  10.762   3.248 -0.3118 -0.1280  0.2730
  885MOL0     C22013  10.203  10.820   3.352  0.3364 -0.4613  0.5938
  885MOL0     C22014  10.130  10.945   3.314 -0.2058  0.5037 -0.1632
  885MOL0     C22015  10.007  10.930   3.226  0.6195 -0.8283  0.5291
  885MOL0     O22016   9.922  10.826   3.268 -0.2810 -0.4531 -0.2643
  885MOL0     C22017   9.824  10.778   3.186 -0.0777 -0.2448 -0.3459
  885MOL0     C22018   9.786  10.820   3.060  0.3781  0.8690  0.5983
  885MOL0     C22019   9.663  10.784   3.000 -1.1261  0.1112  0.7888
  885MOL0     C22020   9.637  10.849   2.865  0.1858 -0.6825  0.4990
  885MOL0     C22021   9.578  10.698   3.055  0.4553  0.3471 -0.3815
  885MOL0     C22022   9.446  10.658   3.010  0.0911  0.0479  0.0589
  885MOL0     O22023   9.361  10.597   3.101 -0.2658 -0.1359  0.1297
  885MOL0     C22024   9.244  10.527   3.072 -0.9416 -0.5769  0.1495
  885MOL0     C22025   9.175  10.482   3.177 -0.1327 -0.4294  0.4559
  885MOL0     C22026   9.041  10.432   3.169 -0.8129 -0.1182 -0.0233
  885MOL0     C22027   8.991  10.397   3.045  0.5177  0.3431  0.0519
  885MOL0     O22028   8.864  10.344   3.029  0.5052 -0.2100  0.2081
  885MOL0     C22029   8.759  10.430   2.978 -0.8446  0.1699 -0.7691
  885MOL0     C22030   8.627  10.355   2.969 -0.7695 -0.9332 -0.5426
  885MOL0     C22031   8.511  10.435   2.910  0.0600 -0.4859 -0.2764
  885MOL0     C22032   8.483  10.559   2.997 -0.9266 -0.1280  0.1264
  885MOL0     C22033   8.333  10.601   2.977  0.5993 -0.3871  0.1155
  885MOL0     C22034   8.282  10.600   2.827  0.0987 -0.0926  0.0051
  885MOL0     C22035   8.169  10.686   2.807  1.1750 -0.0057 -0.1969
  885MOL0     C22036   8.054  10.640   2.707 -0.1037 -0.5863  0.2270
  885MOL0    Cl22037   8.136  10.593   2.557 -0.0400 -0.1157 -0.2242
  885MOL0     C22038   9.075  10.413   2.931  0.2120 -0.2425 -0.1723
  885MOL0     C22039   9.191  10.485   2.948 -0.2367 -0.7273  0.1564
  885MOL0     O22040   9.415  10.671   2.895  0.1572  1.0171  0.9132
  885MOL0     C22041   9.620  10.643   3.175 -0.5212  0.0453 -0.7221
  885MOL0     C22042   9.746  10.683   3.233  0.2285  0.5734  0.1724
  885MOL0     N22043  10.530  10.694   3.273  0.8111 -0.6065 -1.0840
  885MOL0     N22044  10.591  10.595   3.327  0.3125 -0.1098  0.0011
  885MOL0     C22045   9.471  10.244   3.236 -0.0919  0.3015  0.9259
  885MOL0     C22046   9.354  10.165   3.263 -0.0676 -0.5563 -0.0051
  885MOL0     C22047   9.018   9.935   3.385  0.3115  0.4873  0.1908
  885MOL0     C22048   9.025   9.793   3.370  0.0954  0.6622 -1.0656
  885MOL0     C22049   8.911   9.716   3.366 -0.6294  0.8331 -0.3147
  885MOL0     C22050   8.787   9.772   3.388 -1.0429  0.6416 -0.5049
  885MOL0     O22051   8.677   9.687   3.391 -0.0506  0.1974 -0.5119
  885MOL0     C22052   8.570   9.714   3.482  0.0031 -0.5973 -0.5258
  885MOL0     C22053   8.497   9.583   3.514 -0.8878 -0.5430 -0.7014
  885MOL0     C22054   8.601   9.488   3.594 -1.1461 -0.2483 -0.5219
  885MOL0     C22055   8.529   9.354   3.612 -0.2135 -0.1541  0.0011
  885MOL0     C22056   8.616   9.281   3.707 -0.6920 -0.0102  0.4948
  885MOL0     C22057   8.693   9.216   3.779  0.4127 -0.9616 -0.4254
  885MOL0     C22058   8.775   9.912   3.402  0.2034  0.6528 -0.4236
  885MOL0     C22059   8.888   9.995   3.389  0.0179 -0.4946  0.4130
  885MOL0     C22060   8.867  10.147   3.429  0.1419 -1.4214 -0.2922
  885MOL0     H22061   9.504   9.873   3.349 -1.6107 -1.1786  0.2775
  885MOL0     H22062   9.702  10.003   3.311 -0.3518 -0.4777 -0.3366
  885MOL0     H22063   9.885  10.127   3.231 -0.2318  0.9024 -0.0530
  885MOL0     H22064   9.833  10.194   3.389 -2.1616 -0.7171  0.2658
  885MOL0     H22065   9.962  10.341   3.164 -0.1004 -2.1307 -0.7067
  885MOL0     H22066   9.905  10.417   3.312  1.7811  0.3353  0.7570
  885MOL0     H22067  10.150  10.391   3.306  1.4170 -0.1671  2.7242
  885MOL0     H22068  10.088  10.319   3.447 -0.2276  0.7735  0.1338
  885MOL0     H22069  10.102  10.092   3.367  1.1407 -0.4923  0.6095
  885MOL0     H22070  10.154  10.153   3.202 -0.2373  0.4809 -0.2640
  885MOL0     H22071  10.331  10.059   3.359  0.8655  0.0603  1.8858
  885MOL0     H22072  10.298  10.206   3.460 -0.9112  0.0057  0.3775
  885MOL0     H22073  10.401  10.192   3.178 -0.1314  1.0484 -0.9571
  885MOL0     H22074  10.360  10.350   3.232 -0.8522 -0.1534  0.7355
  885MOL0     H22075  10.593  10.287   3.254 -1.9417  0.4739 -1.3325
  885MOL0     H22076  10.550  10.174   3.378 -0.8849 -0.1074  1.7870
  885MOL0     H22077  10.507  10.366   3.535 -0.2186 -1.0007  0.2816
  885MOL0     H22078  10.656  10.404   3.447  0.6645 -1.3338 -1.6578
  885MOL0     H22079  10.298  10.514   3.417  0.0433  0.7641  0.1262
  885MOL0     H22080  10.239  10.705   3.171 -0.9115  2.9843 -1.8220
  885MOL0     H22081  10.340  10.841   3.190  1.4749 -0.4269  1.2982
  885MOL0     H22082  10.133  10.747   3.392 -1.1377 -1.2227 -2.9868
  885MOL0     H22083  10.266  10.837   3.439 -1.4134 -3.2478  2.5763
  885MOL0     H22084  10.086  10.993   3.402 -3.7587  0.3120 -1.6590
  885MOL0     H22085  10.200  11.013   3.265  2.0535 -2.4048 -1.2600
  885MOL0     H22086   9.947  11.022   3.226 -3.4334 -3.1899  1.6383
  885MOL0     H22087  10.039  10.915   3.123 -0.0244  2.3507 -0.2444
  885MOL0     H22088   9.838  10.897   3.004  2.1272 -0.6705  0.0427
  885MOL0     H22089   9.732  10.893   2.835  1.7727 -2.9621  1.8363
  885MOL0     H22090   9.558  10.924   2.869  1.0193  0.2174  0.5448
  885MOL0     H22091   9.608  10.765   2.800 -0.1872 -0.6249  0.5897
  885MOL0     H22092   9.218  10.499   3.275  0.2483  0.9360  0.0767
  885MOL0     H22093   8.984  10.419   3.260 -2.5109 -0.8713 -1.1502
  885MOL0     H22094   8.742  10.496   3.063  2.2582  3.8876 -2.6815
  885MOL0     H22095   8.772  10.500   2.895 -1.3148 -0.0130 -1.0001
  885MOL0     H22096   8.646  10.267   2.908  1.3125 -0.1264 -1.1308
  885MOL0     H22097   8.600  10.315   3.067 -1.4721  3.3453  1.2406
  885MOL0     H22098   8.427  10.365   2.908 -0.0943 -0.3114  0.0100
  885MOL0     H22099   8.542  10.472   2.812 -0.7571 -0.5618 -0.5737
  885MOL0     H22100   8.550  10.641   2.971 -0.5019 -0.9627 -1.6062
  885MOL0     H22101   8.509  10.529   3.099  1.8350 -2.4453 -1.1383
  885MOL0     H22102   8.267  10.541   3.041 -2.3003  1.2482 -1.1532
  885MOL0     H22103   8.334  10.701   3.022 -0.0619 -1.0633  1.7164
  885MOL0     H22104   8.244  10.501   2.800 -0.6644 -0.7619  3.1645
  885MOL0     H22105   8.356  10.630   2.752 -0.6451  0.0826 -0.6682
  885MOL0     H22106   8.194  10.790   2.785  0.8509  0.3407  0.9983
  885MOL0     H22107   8.112  10.680   2.900 -0.8011 -3.7001 -1.4061
  885MOL0     H22108   7.972  10.712   2.696 -2.0402 -1.8876  4.2400
  885MOL0     H22109   7.997  10.555   2.745 -1.0628  1.0480  2.7166
  885MOL0     H22110   9.049  10.376   2.832 -1.9845 -0.8954  0.5899
  885MOL0     H22111   9.252  10.518   2.864  3.0050  1.3343  3.0482
  885MOL0     H22112   9.562  10.564   3.221 -0.0928 -0.2296 -0.6447
  885MOL0     H22113   9.769  10.648   3.333 -1.5810 -1.6733 -0.1023
  885MOL0     H22114   9.471  10.348   3.205  1.9263 -0.4533 -1.9611
  885MOL0     H22115   9.256  10.211   3.255 -0.9007 -1.8389  2.0638
  885MOL0     H22116   9.121   9.744   3.363  0.2121  0.2417  2.1050
  885MOL0     H22117   8.933   9.610   3.356  0.7229  1.1381 -0.7001
  885MOL0     H22118   8.611   9.748   3.578 -2.7109  0.4329  0.3567
  885MOL0     H22119   8.507   9.789   3.435  2.3898  0.8279 -1.6231
  885MOL0     H22120   8.478   9.525   3.423 -0.2570 -1.0955 -0.4855
  885MOL0     H22121   8.406   9.591   3.575 -0.4210 -4.4787  0.8128
  885MOL0     H22122   8.699   9.472   3.546 -0.1252  1.2977  0.9380
  885MOL0     H22123   8.624   9.542   3.686 -1.2676  0.5105 -0.9252
  885MOL0     H22124   8.521   9.300   3.518 -1.2620  0.0862 -0.0646
  885MOL0     H22125   8.433   9.371   3.662  0.0508 -0.9605  0.8084
  885MOL0     H22126   8.750   9.156   3.847 -0.0931 -0.4772  0.4420
  885MOL0     H22127   8.674   9.949   3.419  0.4408  1.3526 -0.5114
  885MOL0     H22128   8.911  10.211   3.352  0.4126 -3.8510 -2.2899
  885MOL0     H22129   8.760  10.169   3.437  0.4343  0.0151 -0.1692
  885MOL0     H22130   8.911  10.163   3.528 -1.0829 -0.5904  0.1396
  886MOL0     O22131   5.156  11.325   3.186  0.3944 -0.9717 -0.5206
  886MOL0     C22132   5.161  11.449   3.181  0.5405 -0.3300 -0.3253
  886MOL0     O22133   5.051  11.531   3.161  0.1053  0.8427  0.3277
  886MOL0     C22134   4.927  11.473   3.141 -0.3684  0.0904  0.1468
  886MOL0     C22135   4.868  11.407   3.250 -0.4270  0.1115  0.6097
  886MOL0     C22136   4.729  11.367   3.231 -0.6360  1.1876 -0.1553
  886MOL0     C22137   4.663  11.383   3.102 -0.8597 -0.0713 -0.2388
  886MOL0     O22138   4.532  11.350   3.073 -0.4595 -0.2471 -0.1217
  886MOL0     C22139   4.459  11.287   3.174  0.0537  0.4939 -1.4134
  886MOL0     C22140   4.326  11.239   3.115  0.6423  0.1242  0.0496
  886MOL0     C22141   4.211  11.229   3.214 -0.2226  0.4670 -1.4042
  886MOL0     C22142   4.081  11.202   3.127 -0.6365 -0.2919 -0.3649
  886MOL0     C22143   3.958  11.175   3.214 -0.5506 -0.5209  0.0011
  886MOL0     C22144   3.909  11.295   3.293 -0.1450  1.1185 -0.1234
  886MOL0     C22145   3.772  11.264   3.363  0.1720  0.4819 -0.5796
  886MOL0     C22146   3.765  11.250   3.520  0.3905 -0.4340  0.4562
  886MOL0     N22147   3.885  11.179   3.568  0.0037  0.6198  0.0672
  886MOL0     C22148   3.897  11.048   3.593 -0.1109  0.9106  0.7803
  886MOL0     C22149   4.014  11.026   3.666  0.7347  0.8526  0.8817
  886MOL0     C22150   4.042  10.887   3.724 -0.7077 -0.7883  0.5012
  886MOL0     C22151   4.154  10.805   3.658 -0.3235  0.8438  0.8060
  886MOL0     C22152   4.125  10.653   3.685  0.7435  0.3713  0.2496
  886MOL0     C22153   4.250  10.563   3.703 -0.2949 -0.8350  0.7108
  886MOL0     O22154   4.355  10.596   3.609  0.3128  0.2244 -0.2456
  886MOL0     C22155   4.481  10.564   3.659 -0.1687 -0.2302 -0.4202
  886MOL0     C22156   4.553  10.450   3.609 -0.1239  0.0393 -0.1317
  886MOL0     C22157   4.675  10.415   3.670  0.0385  0.6035 -0.9813
  886MOL0     C22158   4.754  10.302   3.600 -0.5756 -0.4941  0.8312
  886MOL0     C22159   4.732  10.493   3.776  0.9449  0.1247  0.7068
  886MOL0     C22160   4.872  10.474   3.833  0.0627 -0.7726  0.2003
  886MOL0     O22161   4.923  10.583   3.886 -0.0066 -0.3284 -0.4161
  886MOL0     C22162   5.053  10.570   3.939  0.1361 -0.6630  0.4902
  886MOL0     C22163   5.083  10.605   4.077  0.2411 -0.5322  0.3226
  886MOL0     C22164   5.218  10.614   4.116 -0.1342 -0.6798  0.0162
  886MOL0     C22165   5.318  10.561   4.038 -0.2310 -0.2251 -0.5559
  886MOL0     O22166   5.450  10.552   4.084 -0.4132  0.0216 -0.4042
  886MOL0     C22167   5.483  10.642   4.193  0.2129  0.7229  0.7373
  886MOL0     C22168   5.627  10.605   4.235 -0.8272 -0.2272 -0.9840
  886MOL0     C22169   5.728  10.603   4.115 -0.7715  0.7564 -0.3362
  886MOL0     C22170   5.871  10.590   4.172  0.3102  0.2551  0.3690
  886MOL0     C22171   5.982  10.582   4.067  0.4699  0.5670  0.7807
  886MOL0     C22172   6.115  10.604   4.132 -0.2905 -0.0626  0.2171
  886MOL0     C22173   6.232  10.623   4.040 -0.7918 -0.4958 -0.0729
  886MOL0     C22174   6.351  10.640   4.126  0.7524 -0.0246 -0.1475
  886MOL0    Cl22175   6.355  10.818   4.180  0.4193  0.1554 -0.0301
  886MOL0     C22176   5.291  10.529   3.914 -0.0050  0.5167 -0.5716
  886MOL0     C22177   5.164  10.538   3.859  0.2648  0.1983 -0.7002
  886MOL0     O22178   4.926  10.368   3.833  0.1402  0.5945 -0.5025
  886MOL0     C22179   4.651  10.594   3.820  0.6504 -0.2324 -0.6172
  886MOL0     C22180   4.528  10.634   3.769 -0.4934  0.7593  0.1779
  886MOL0     N22181   4.075  11.152   3.690 -0.0787 -0.2789 -0.0243
  886MOL0     N22182   3.994  11.239   3.634  0.1081  0.4696 -0.8893
  886MOL0     C22183   4.737  11.441   3.003 -0.0518 -0.7299 -0.2233
  886MOL0     C22184   4.864  11.490   3.018  0.2638 -0.9796  0.0553
  886MOL0     C22185   5.281  11.520   3.244  0.3358  0.8551  0.0792
  886MOL0     C22186   5.287  11.660   3.227  0.4336  0.5840  0.0494
  886MOL0     C22187   5.402  11.724   3.269 -0.6140  0.4662  0.4983
  886MOL0     C22188   5.509  11.661   3.328  0.0652  0.3381 -0.0611
  886MOL0     O22189   5.609  11.725   3.388 -0.5186  0.3605  0.1216
  886MOL0     C22190   5.731  11.720   3.315  0.1360 -0.9301 -0.3761
  886MOL0     C22191   5.845  11.796   3.370 -0.6441 -0.6641  0.3622
  886MOL0     C22192   5.851  11.942   3.313  0.2167 -0.1902 -0.0704
  886MOL0     C22193   5.981  12.025   3.353  0.8787 -0.5271  0.8586
  886MOL0     C22194   5.987  12.066   3.493 -0.3959 -0.4574  0.1049
  886MOL0     C22195   6.017  12.103   3.602 -0.6135  0.7296 -0.2518
  886MOL0     C22196   5.502  11.529   3.348 -0.2031 -0.4142 -0.1819
  886MOL0     C22197   5.384  11.452   3.313  0.1465 -1.2385  0.6251
  886MOL0     C22198   5.392  11.301   3.329  0.2095 -0.5335 -0.5016
  886MOL0     H22199   4.923  11.398   3.343 -3.3825  1.7743  2.6993
  886MOL0     H22200   4.685  11.325   3.321  0.7742 -0.3674 -0.1360
  886MOL0     H22201   4.448  11.353   3.261  1.6650 -0.2443 -0.6168
  886MOL0     H22202   4.512  11.195   3.203 -1.1898  0.2198  0.1838
  886MOL0     H22203   4.297  11.298   3.027 -0.7374  2.9827  2.2448
  886MOL0     H22204   4.348  11.145   3.063  2.0185  0.4660 -0.0133
  886MOL0     H22205   4.233  11.147   3.284  3.1056  2.1583 -0.2554
  886MOL0     H22206   4.194  11.320   3.272 -0.7171 -1.3891  1.5648
  886MOL0     H22207   4.063  11.288   3.062  1.4402 -0.9296 -1.8980
  886MOL0     H22208   4.109  11.115   3.067  0.4838  1.2287 -2.1873
  886MOL0     H22209   3.980  11.091   3.280 -1.9056 -0.8804  0.0236
  886MOL0     H22210   3.885  11.128   3.148 -0.2454 -2.1379  0.7528
  886MOL0     H22211   3.979  11.344   3.361 -0.1392  2.2653 -0.9248
  886MOL0     H22212   3.887  11.358   3.206 -1.2309 -0.1057 -0.7693
  886MOL0     H22213   3.744  11.164   3.327  2.3927 -0.2510 -0.3734
  886MOL0     H22214   3.694  11.333   3.329  1.9737  2.7828 -0.2773
  886MOL0     H22215   3.768  11.354   3.554  1.5073 -0.6065  0.9195
  886MOL0     H22216   3.671  11.212   3.562  1.0783 -1.8156  0.7927
  886MOL0     H22217   3.812  10.982   3.574  0.4275  0.4817 -0.1898
  886MOL0     H22218   3.946  10.834   3.720 -0.8993 -0.5475  1.5805
  886MOL0     H22219   4.073  10.907   3.827 -0.3470  2.9798 -0.1981
  886MOL0     H22220   4.156  10.830   3.552  2.9539  0.2360  0.6341
  886MOL0     H22221   4.247  10.838   3.704 -0.4854  0.9453  1.0671
  886MOL0     H22222   4.064  10.642   3.775  1.3634  2.4333  0.9717
  886MOL0     H22223   4.065  10.620   3.599  2.1000  0.1488 -0.6427
  886MOL0     H22224   4.285  10.575   3.806 -0.0806  0.5788  0.4898
  886MOL0     H22225   4.206  10.467   3.674 -3.6671  1.0091 -1.0147
  886MOL0     H22226   4.504  10.396   3.529  0.3052 -0.3695 -0.1230
  886MOL0     H22227   4.771  10.219   3.669  2.1379  1.3547  2.5982
  886MOL0     H22228   4.850  10.345   3.571 -1.7668  0.7993 -1.4796
  886MOL0     H22229   4.720  10.270   3.502  1.6544  0.7556 -0.4321
  886MOL0     H22230   5.002  10.631   4.144  0.5644 -1.1536  0.9725
  886MOL0     H22231   5.223  10.648   4.219 -2.8532 -1.1135  0.3615
  886MOL0     H22232   5.480  10.745   4.154  1.1911 -0.2386 -2.1060
  886MOL0     H22233   5.428  10.623   4.286 -0.0561 -0.4766  0.3487
  886MOL0     H22234   5.661  10.681   4.305  1.8249 -2.2407  0.1157
  886MOL0     H22235   5.650  10.514   4.291 -2.1651  0.1088  0.1472
  886MOL0     H22236   5.721  10.687   4.045 -0.0326  0.6752 -0.5130
  886MOL0     H22237   5.711  10.521   4.044  2.5517 -0.7101  0.3711
  886MOL0     H22238   5.872  10.502   4.237 -0.1365  0.5841  0.8282
  886MOL0     H22239   5.892  10.677   4.236  0.7525 -1.0824  2.1035
  886MOL0     H22240   5.984  10.481   4.023 -0.2282  0.9179 -0.0943
  886MOL0     H22241   5.973  10.651   3.983 -1.5054 -1.1233 -0.5135
  886MOL0     H22242   6.136  10.525   4.204  2.9234  1.0685  0.7093
  886MOL0     H22243   6.114  10.704   4.177  0.6337 -0.1189  0.3922
  886MOL0     H22244   6.223  10.713   3.978 -0.4697  0.4604  1.2149
  886MOL0     H22245   6.254  10.536   3.977  1.3163  0.5472 -0.8763
  886MOL0     H22246   6.438  10.606   4.069 -0.0120  1.3154 -2.2308
  886MOL0     H22247   6.344  10.570   4.209  0.7767  0.0540 -0.0789
  886MOL0     H22248   5.372  10.491   3.853  0.8938 -1.2049  1.5563
  886MOL0     H22249   5.142  10.520   3.754 -1.4776  0.8004 -0.4723
  886MOL0     H22250   4.687  10.647   3.908 -0.5223 -1.9124  0.9361
  886MOL0     H22251   4.480  10.721   3.814  2.1729  0.4024  4.1695
  886MOL0     H22252   4.675  11.453   2.915 -0.3504  1.8854  0.2735
  886MOL0     H22253   4.909  11.530   2.927  0.6091 -0.7732  0.3187
  886MOL0     H22254   5.197  11.710   3.192  0.1492  0.2758  0.3240
  886MOL0     H22255   5.400  11.832   3.261  4.3074  0.8568  1.1427
  886MOL0     H22256   5.769  11.618   3.309 -1.8632 -1.8519  1.6569
  886MOL0     H22257   5.723  11.748   3.209  2.0107 -0.2564 -0.3821
  886MOL0     H22258   5.937  11.743   3.345  0.1378  1.3048 -1.2594
  886MOL0     H22259   5.838  11.790   3.479  3.9578 -0.2386  0.8533
  886MOL0     H22260   5.859  11.937   3.204  0.2101 -0.4978 -0.0586
  886MOL0     H22261   5.761  11.999   3.335 -1.2345 -2.7412  0.9561
  886MOL0     H22262   5.987  12.109   3.285  2.1600 -0.5411  0.9438
  886MOL0     H22263   6.067  11.969   3.316 -1.4030 -2.5223 -1.9771
  886MOL0     H22264   6.049  12.144   3.696  0.2301  1.3304 -0.7891
  886MOL0     H22265   5.571  11.459   3.394 -1.8048 -1.2372  1.0529
  886MOL0     H22266   5.329  11.274   3.415 -2.8660  1.6178 -1.8843
  886MOL0     H22267   5.365  11.245   3.239  0.4549 -2.4578  0.5700
  886MOL0     H22268   5.495  11.268   3.346  1.1493  2.4204  0.2645
  887MOL0     O22269   6.985  10.663   9.728  0.1580 -0.3368  0.9426
  887MOL0     C22270   7.037  10.736   9.811  0.0898 -0.0640 -0.5729
  887MOL0     O22271   7.168  10.722   9.860  0.3541  0.3245  0.1501
  887MOL0     C22272   7.251  10.670   9.762  0.5017  0.4865 -0.1444
  887MOL0     C22273   7.277  10.532   9.757 -0.6765 -0.2345  0.2032
  887MOL0     C22274   7.363  10.481   9.662 -0.7645 -0.0562  0.9855
  887MOL0     C22275   7.420  10.564   9.563  0.6744  0.0638  0.2754
  887MOL0     O22276   7.482  10.491   9.459  0.5890 -0.5238  0.4270
  887MOL0     C22277   7.516  10.554   9.330  0.1788  0.6472 -0.6381
  887MOL0     C22278   7.607  10.453   9.249  0.6359 -0.4561 -0.2565
  887MOL0     C22279   7.743  10.415   9.312  0.2102  0.4797  0.4781
  887MOL0     C22280   7.824  10.318   9.228  0.6174  0.7520  0.5170
  887MOL0     C22281   7.924  10.227   9.309  0.1344  0.9589  0.7366
  887MOL0     C22282   7.971  10.103   9.229 -0.5049  0.9344 -0.7266
  887MOL0     C22283   8.057  10.012   9.329 -0.4578 -0.0706 -0.4437
  887MOL0     C22284   8.178  10.084   9.366  0.1543 -0.5085 -0.8166
  887MOL0     N22285   8.264  10.118   9.254 -0.8751 -0.3863  0.5792
  887MOL0     C22286   8.274  10.238   9.187  0.0674  0.6554 -0.8282
  887MOL0     C22287   8.372  10.218   9.093  0.2989  0.2088  0.0634
  887MOL0     C22288   8.419  10.313   8.986 -0.6598 -0.3948  0.1179
  887MOL0     C22289   8.571  10.295   8.973  0.9585 -0.6266  0.1680
  887MOL0     C22290   8.629  10.380   8.857  0.1058 -0.4375  0.8672
  887MOL0     C22291   8.775  10.409   8.879  0.5545 -0.7484  0.4748
  887MOL0     O22292   8.866  10.301   8.853  0.4063  0.0052  1.1003
  887MOL0     C22293   9.002  10.321   8.866  0.3368  0.8939 -0.1495
  887MOL0     C22294   9.060  10.436   8.928  0.0904  0.5530  0.7003
  887MOL0     C22295   9.197  10.455   8.941 -0.4452  0.6245 -0.1505
  887MOL0     C22296   9.252  10.580   9.016  0.7480  1.1773 -0.4409
  887MOL0     C22297   9.277  10.355   8.883 -0.3504 -0.2849 -0.2311
  887MOL0     C22298   9.423  10.352   8.892  0.3829 -0.0011  0.3503
  887MOL0     O22299   9.481  10.233   8.929  0.4086  0.2059 -0.0233
  887MOL0     C22300   9.596  10.190   8.861 -0.5981  0.0262  0.6144
  887MOL0     C22301   9.714  10.257   8.862 -1.3204 -0.1098 -0.0762
  887MOL0     C22302   9.834  10.205   8.807 -0.1836  0.4316 -0.2971
  887MOL0     C22303   9.834  10.078   8.745  1.3162 -0.2813  0.1441
  887MOL0     O22304   9.944  10.012   8.690  0.4834 -0.5595  0.5575
  887MOL0     C22305  10.074  10.080   8.691 -0.4604  0.4112  0.5514
  887MOL0     C22306  10.143  10.028   8.566  0.4514  0.9872 -0.0905
  887MOL0     C22307  10.293  10.080   8.583  0.2834  0.2450  0.6454
  887MOL0     C22308  10.348  10.081   8.444 -0.8469 -0.0998  0.2982
  887MOL0     C22309  10.498  10.112   8.426 -0.1921 -0.6933 -0.5580
  887MOL0     C22310  10.534  10.261   8.420  0.3757 -0.1498  0.5542
  887MOL0     C22311  10.532  10.327   8.566  0.5486  0.3770 -0.2226
  887MOL0     C22312  10.591  10.458   8.557 -1.1576 -0.8339 -0.2009
  887MOL0    Cl22313  10.550  10.563   8.694  0.4424 -0.2066  0.4182
  887MOL0     C22314   9.712  10.007   8.745 -1.2455 -0.0148  0.0695
  887MOL0     C22315   9.601  10.065   8.803  0.2149  0.5364  0.1826
  887MOL0     O22316   9.488  10.456   8.886 -0.7039  0.3627  0.9386
  887MOL0     C22317   9.220  10.251   8.803  0.3705 -0.5284 -0.8311
  887MOL0     C22318   9.085  10.223   8.807 -0.6725 -0.0889 -0.2654
  887MOL0     N22319   8.423  10.086   9.114 -0.0068  0.2076  0.4129
  887MOL0     N22320   8.356  10.029   9.211 -0.1741  0.9873  0.8204
  887MOL0     C22321   7.401  10.707   9.577 -0.1054  0.3563  0.7148
  887MOL0     C22322   7.326  10.753   9.679 -0.1168  0.4764 -0.0345
  887MOL0     C22323   6.942  10.839   9.872 -0.7991  1.0184  0.3342
  887MOL0     C22324   6.965  10.864  10.004 -0.1788 -0.0578  0.2237
  887MOL0     C22325   6.896  10.957  10.084 -0.2009  0.1489  0.7977
  887MOL0     C22326   6.783  11.015  10.025  0.9698 -0.5288 -0.4049
  887MOL0     O22327   6.709  11.109  10.105 -0.1381  0.1001  0.0238
  887MOL0     C22328   6.598  11.184  10.044  0.9099 -0.0531  0.4521
  887MOL0     C22329   6.543  11.275  10.151  0.1481 -0.2722  0.5837
  887MOL0     C22330   6.403  11.325  10.090  0.8333  1.4903 -0.8142
  887MOL0     C22331   6.316  11.407  10.184 -0.4362  0.2371 -0.1328
  887MOL0     C22332   6.374  11.529  10.235 -0.1248  0.5604  1.0740
  887MOL0     C22333   6.431  11.627  10.275  0.1275 -0.1233  0.3691
  887MOL0     C22334   6.748  10.985   9.894 -0.1349  0.1160 -0.2374
  887MOL0     C22335   6.828  10.901   9.813 -0.2515 -0.8664  0.7762
  887MOL0     C22336   6.798  10.888   9.667  1.1504 -0.2457  0.2319
  887MOL0     H22337   7.241  10.455   9.824 -0.2334 -0.4889  0.1499
  887MOL0     H22338   7.391  10.377   9.648  1.1023  0.3449  1.4289
  887MOL0     H22339   7.582  10.638   9.354 -0.0862  0.0160  2.7447
  887MOL0     H22340   7.441  10.590   9.260 -0.5046 -0.9706 -0.7879
  887MOL0     H22341   7.545  10.365   9.229 -1.3022  1.0656 -1.3268
  887MOL0     H22342   7.634  10.506   9.157  1.1337 -2.3584 -1.2589
  887MOL0     H22343   7.802  10.504   9.339 -1.2680  1.5591  0.2706
  887MOL0     H22344   7.713  10.357   9.400 -3.3392 -1.5340 -1.8212
  887MOL0     H22345   7.744  10.254   9.187 -2.4679  3.2774  2.1432
  887MOL0     H22346   7.868  10.367   9.141  1.3205 -5.0788 -2.9895
  887MOL0     H22347   7.876  10.196   9.402  2.0927 -0.8270  1.2163
  887MOL0     H22348   8.011  10.286   9.341  1.7443 -1.0500  0.2573
  887MOL0     H22349   7.884  10.039   9.209 -1.1751  1.5514  0.1670
  887MOL0     H22350   8.028  10.116   9.136  1.5892 -3.8209 -0.4116
  887MOL0     H22351   8.087   9.916   9.286  3.2905  1.3188 -1.3508
  887MOL0     H22352   7.997   9.995   9.419  0.1341  1.5037  0.2969
  887MOL0     H22353   8.159  10.173   9.425  0.2867 -0.4339 -0.8862
  887MOL0     H22354   8.237  10.011   9.424 -2.1110 -0.6866  1.4471
  887MOL0     H22355   8.217  10.329   9.200 -0.0671  0.3968  0.4879
  887MOL0     H22356   8.393  10.415   9.015 -0.5184 -0.0953 -0.7767
  887MOL0     H22357   8.353  10.306   8.899  0.4085  1.7479 -0.9529
  887MOL0     H22358   8.628  10.318   9.063 -0.1321 -3.4024  1.6879
  887MOL0     H22359   8.601  10.194   8.942  0.0946 -0.2944 -1.9171
  887MOL0     H22360   8.621  10.330   8.760 -0.6463 -1.7717  1.5886
  887MOL0     H22361   8.582  10.478   8.846  0.3693 -0.5310 -1.6479
  887MOL0     H22362   8.815  10.497   8.827  0.1929 -1.6371 -1.3941
  887MOL0     H22363   8.786  10.430   8.986 -0.3750  1.4042  0.2011
  887MOL0     H22364   8.990  10.502   8.980 -4.8880 -3.3464 -0.2088
  887MOL0     H22365   9.167  10.632   9.059 -1.3532 -1.3949 -1.2356
  887MOL0     H22366   9.305  10.648   8.948  0.5076  3.1036  1.2057
  887MOL0     H22367   9.327  10.557   9.092 -0.0974 -0.2885 -0.0142
  887MOL0     H22368   9.729  10.355   8.905  1.9137  0.4614 -2.2068
  887MOL0     H22369   9.919  10.271   8.795 -1.3488  1.8890 -0.7421
  887MOL0     H22370  10.061  10.187   8.674 -1.4047  0.2317  0.0525
  887MOL0     H22371  10.135  10.056   8.779  0.9514 -3.9208 -1.3241
  887MOL0     H22372  10.140   9.921   8.587 -0.7537  0.9263 -0.5185
  887MOL0     H22373  10.103  10.045   8.466 -0.1848 -1.2049 -0.2512
  887MOL0     H22374  10.356  10.014   8.642 -3.3708 -2.8083  1.4972
  887MOL0     H22375  10.304  10.176   8.635  1.0848 -0.3835  1.6654
  887MOL0     H22376  10.291  10.156   8.388  0.1173  2.3483  2.4548
  887MOL0     H22377  10.323   9.978   8.415 -1.1619 -0.6483  2.4022
  887MOL0     H22378  10.557  10.057   8.500  1.7011  3.0302  0.9702
  887MOL0     H22379  10.529  10.069   8.331  1.7299 -1.1504  0.2382
  887MOL0     H22380  10.472  10.306   8.343 -0.5289 -1.2954  0.5836
  887MOL0     H22381  10.637  10.271   8.385  0.3703  1.8267  1.0251
  887MOL0     H22382  10.582  10.266   8.642 -0.3967 -0.7656 -0.4876
  887MOL0     H22383  10.429  10.334   8.602  1.5254 -0.3657  2.9950
  887MOL0     H22384  10.554  10.502   8.463 -0.3988 -0.7279 -0.4604
  887MOL0     H22385  10.696  10.427   8.551 -1.9639 -4.0074  0.7077
  887MOL0     H22386   9.721   9.906   8.707 -2.0336  0.5659 -1.7703
  887MOL0     H22387   9.505  10.017   8.792 -0.1784  1.8454 -3.0089
  887MOL0     H22388   9.278  10.178   8.748  1.5614  0.9477 -1.6145
  887MOL0     H22389   9.048  10.127   8.773  0.5493 -0.3290 -0.9757
  887MOL0     H22390   7.443  10.784   9.512 -0.0605  0.1992  0.5580
  887MOL0     H22391   7.314  10.861   9.683  1.6995  0.6799  1.7256
  887MOL0     H22392   7.051  10.815  10.051  0.2790  2.2229  1.9238
  887MOL0     H22393   6.907  10.970  10.191 -1.1448  0.9156  0.8136
  887MOL0     H22394   6.618  11.237   9.951 -1.4377  3.0050  1.5182
  887MOL0     H22395   6.531  11.103  10.012 -1.9817  2.1353  0.5683
  887MOL0     H22396   6.616  11.353  10.173  2.3110 -1.7683 -0.8368
  887MOL0     H22397   6.516  11.227  10.245  0.0869  2.7493  2.2458
  887MOL0     H22398   6.430  11.385  10.003  0.8730  2.0174 -0.4423
  887MOL0     H22399   6.341  11.238  10.065  2.6944 -0.1890  0.1346
  887MOL0     H22400   6.297  11.333  10.262  0.6814 -0.6938 -0.7067
  887MOL0     H22401   6.223  11.430  10.132  0.5951  0.2902 -2.0526
  887MOL0     H22402   6.471  11.720  10.311  1.0848 -0.1277 -0.6181
  887MOL0     H22403   6.653  11.013   9.849 -0.9768 -3.4416 -1.0218
  887MOL0     H22404   6.883  10.921   9.606  1.3421 -0.2082  0.5180
  887MOL0     H22405   6.772  10.788   9.631 -1.6878  0.4666  0.0738
  887MOL0     H22406   6.715  10.954   9.640 -0.4727 -1.7088  1.4445
  888MOL0     O22407   7.492   5.873   1.362 -0.3188  0.0277 -0.1639
  888MOL0     C22408   7.503   5.992   1.346 -0.8058  0.1868  0.4272
  888MOL0     O22409   7.398   6.075   1.306  0.1489 -0.1537 -0.3389
  888MOL0     C22410   7.273   6.022   1.343 -0.2435 -0.2551 -0.8324
  888MOL0     C22411   7.251   5.981   1.480  0.4860  0.3552  0.6927
  888MOL0     C22412   7.125   5.928   1.504 -0.4205 -0.4230 -1.0093
  888MOL0     C22413   7.021   5.919   1.405 -0.3458 -0.2030 -0.2009
  888MOL0     O22414   6.909   5.851   1.439 -0.1274 -0.1347 -0.4960
  888MOL0     C22415   6.789   5.878   1.360 -0.9749 -0.1461 -0.5005
  888MOL0     C22416   6.680   5.787   1.404 -0.2504 -0.6996  0.2130
  888MOL0     C22417   6.552   5.805   1.323  0.0809 -0.1254  0.4554
  888MOL0     C22418   6.417   5.759   1.401 -0.7937 -0.2033 -0.0033
  888MOL0     C22419   6.361   5.867   1.500 -0.5536  0.2636  0.9710
  888MOL0     C22420   6.236   5.821   1.582 -0.2882  0.6116  0.5954
  888MOL0     C22421   6.179   5.930   1.666  0.2633  0.2664 -0.6169
  888MOL0     C22422   6.119   5.864   1.797 -0.1899 -0.8070 -0.4819
  888MOL0     N22423   6.107   5.961   1.900 -0.2805 -0.7003  0.7401
  888MOL0     C22424   6.068   5.929   2.024 -0.0554 -0.8016  0.0107
  888MOL0     C22425   6.088   6.044   2.097 -0.4242  0.2368  0.2666
  888MOL0     C22426   6.060   6.062   2.244 -0.5622  0.3833  0.3286
  888MOL0     C22427   6.196   6.096   2.311 -0.7821 -0.4271 -0.0388
  888MOL0     C22428   6.177   6.140   2.456 -0.3215 -0.3388 -0.5393
  888MOL0     C22429   6.258   6.058   2.541  0.5408  0.6754 -0.4181
  888MOL0     O22430   6.399   6.075   2.516 -0.2012  0.9888  0.1915
  888MOL0     C22431   6.503   6.020   2.588  0.2429 -1.2737 -0.5141
  888MOL0     C22432   6.494   5.932   2.699  0.0930  0.1508  0.4143
  888MOL0     C22433   6.606   5.889   2.764  0.7035  0.4781 -0.0159
  888MOL0     C22434   6.577   5.783   2.862 -0.2227  0.3510  0.1417
  888MOL0     C22435   6.731   5.928   2.717 -0.4443  0.1609 -0.2059
  888MOL0     C22436   6.859   5.890   2.781 -0.3108 -0.3333  0.8575
  888MOL0     O22437   6.977   5.934   2.721 -0.0536 -0.1908 -0.7633
  888MOL0     C22438   7.106   5.893   2.758  0.5655  0.7940  0.6140
  888MOL0     C22439   7.163   5.952   2.870 -0.3803 -0.8774  0.5399
  888MOL0     C22440   7.277   5.898   2.920 -0.9401  0.8398  0.6622
  888MOL0     C22441   7.341   5.786   2.861  0.1784  0.1663 -0.5550
  888MOL0     O22442   7.452   5.718   2.904 -0.3653  0.1618  0.0738
  888MOL0     C22443   7.475   5.697   3.043 -0.1041 -0.1960 -1.0583
  888MOL0     C22444   7.582   5.590   3.072  0.6933  0.7047  0.3226
  888MOL0     C22445   7.560   5.460   2.986 -0.5166 -0.8165  0.4930
  888MOL0     C22446   7.681   5.366   3.007 -0.0134  0.3937  0.2643
  888MOL0     C22447   7.648   5.232   2.949  0.4254 -0.6149 -0.0664
  888MOL0     C22448   7.754   5.136   2.996  0.3697 -0.3944 -0.4842
  888MOL0     C22449   7.732   5.006   2.926 -0.1111  0.5724 -0.3936
  888MOL0     C22450   7.836   4.897   2.951  0.4409 -0.5042 -0.5697
  888MOL0    Cl22451   7.832   4.828   3.112  0.0547 -0.5056 -0.4824
  888MOL0     C22452   7.289   5.752   2.730  0.2870  0.0601  0.2607
  888MOL0     C22453   7.174   5.801   2.684 -0.1705 -0.1462 -0.8177
  888MOL0     O22454   6.850   5.825   2.879 -0.4589 -0.0386 -1.0275
  888MOL0     C22455   6.741   6.014   2.605 -0.0015 -0.0391 -0.0454
  888MOL0     C22456   6.633   6.065   2.547  0.9766 -0.2368  1.1118
  888MOL0     N22457   6.150   6.133   2.013  0.5959 -0.7936  0.2781
  888MOL0     N22458   6.159   6.088   1.894  0.1605  0.2943 -0.1600
  888MOL0     C22459   7.045   5.972   1.282  0.3006  0.5569  0.1396
  888MOL0     C22460   7.170   6.020   1.251  0.1584  0.8632 -0.9562
  888MOL0     C22461   7.641   6.057   1.372  0.5964 -0.2207 -0.2821
  888MOL0     C22462   7.648   6.197   1.344 -0.5561 -0.0662  0.1930
  888MOL0     C22463   7.773   6.258   1.354 -0.4737  0.2135  0.3993
  888MOL0     C22464   7.886   6.197   1.398 -0.2690 -0.0732 -0.8909
  888MOL0     O22465   7.999   6.273   1.420  0.0688 -0.1595  0.4527
  888MOL0     C22466   8.103   6.205   1.487 -0.3425 -0.5767 -0.9454
  888MOL0     C22467   8.197   6.317   1.534  0.3926  0.3518  0.4651
  888MOL0     C22468   8.263   6.387   1.417 -0.0050 -0.3495  0.6593
  888MOL0     C22469   8.362   6.482   1.470 -0.5627  0.0323 -0.2368
  888MOL0     C22470   8.485   6.421   1.512 -0.1231  0.2633 -0.1627
  888MOL0     C22471   8.590   6.367   1.547  0.5881 -0.0065 -0.4116
  888MOL0     C22472   7.875   6.059   1.434 -0.0872 -0.4772 -0.2233
  888MOL0     C22473   7.761   5.989   1.423 -0.0889 -0.3870  0.0919
  888MOL0     C22474   7.771   5.838   1.444  0.3142  0.4113  0.7290
  888MOL0     H22475   7.319   5.984   1.565  1.6775 -1.8754 -0.1122
  888MOL0     H22476   7.093   5.901   1.605  2.2952  1.4917  0.4804
  888MOL0     H22477   6.808   5.846   1.257 -0.8385  0.9138 -0.8180
  888MOL0     H22478   6.775   5.986   1.366 -1.4444 -0.2586  0.6178
  888MOL0     H22479   6.712   5.683   1.389  2.5275  0.3125 -1.6227
  888MOL0     H22480   6.650   5.800   1.508 -2.1977 -0.9199 -0.2846
  888MOL0     H22481   6.545   5.910   1.296  1.0965 -0.3223 -0.6219
  888MOL0     H22482   6.537   5.753   1.228 -2.0341  1.5628 -0.2133
  888MOL0     H22483   6.338   5.748   1.326  0.9090 -1.4553 -1.7237
  888MOL0     H22484   6.431   5.662   1.449 -1.6693 -1.0238 -1.3289
  888MOL0     H22485   6.334   5.958   1.445 -0.3970 -0.3077 -0.0866
  888MOL0     H22486   6.442   5.893   1.569 -0.9586 -0.1515  1.6076
  888MOL0     H22487   6.158   5.794   1.510  1.1830 -3.7981  0.3409
  888MOL0     H22488   6.255   5.724   1.628 -0.3753 -1.4182 -3.1817
  888MOL0     H22489   6.111   5.993   1.608 -0.2349  1.0807  0.8272
  888MOL0     H22490   6.264   5.992   1.694  0.0391  0.5440 -0.5529
  888MOL0     H22491   6.030   5.808   1.768 -0.3659  0.3893 -2.4567
  888MOL0     H22492   6.183   5.785   1.836  0.5202  0.2863  0.6408
  888MOL0     H22493   6.038   5.837   2.074  0.1710 -0.2032  1.2926
  888MOL0     H22494   6.029   5.963   2.278 -1.7497  0.1926 -1.1872
  888MOL0     H22495   5.986   6.143   2.245 -2.6730 -1.4646  0.3559
  888MOL0     H22496   6.259   6.007   2.300  3.2174  1.8618  2.1329
  888MOL0     H22497   6.233   6.186   2.262 -2.1732  0.3182  0.2144
  888MOL0     H22498   6.213   6.242   2.469 -0.2021 -0.1486 -2.2456
  888MOL0     H22499   6.073   6.126   2.485  0.1093 -0.3499  1.0994
  888MOL0     H22500   6.239   6.071   2.647  1.1242 -1.6809  0.0421
  888MOL0     H22501   6.217   5.958   2.526  0.7432  0.5152  0.0707
  888MOL0     H22502   6.397   5.894   2.730  0.9427 -0.5471  2.4454
  888MOL0     H22503   6.475   5.741   2.864  0.0179 -0.4152 -1.6687
  888MOL0     H22504   6.588   5.823   2.964 -0.8547  1.7985 -0.3346
  888MOL0     H22505   6.644   5.701   2.835 -0.5073 -0.3427  1.4559
  888MOL0     H22506   7.107   6.030   2.920  0.1698 -1.1750  1.6369
  888MOL0     H22507   7.334   5.943   2.999  2.3921 -0.0941 -1.0358
  888MOL0     H22508   7.509   5.793   3.084 -1.9196 -0.8774  2.4297
  888MOL0     H22509   7.380   5.671   3.090 -0.1353 -1.3376 -1.7123
  888MOL0     H22510   7.678   5.638   3.049  0.9874  0.1660  0.4130
  888MOL0     H22511   7.590   5.555   3.175  2.2872  1.4809  0.4973
  888MOL0     H22512   7.546   5.484   2.880  0.5866  2.6117  1.0110
  888MOL0     H22513   7.469   5.417   3.028 -1.9507 -0.0748 -1.6895
  888MOL0     H22514   7.698   5.353   3.114  1.5836 -1.1143 -0.1378
  888MOL0     H22515   7.768   5.413   2.960 -0.2239 -0.8890 -1.5056
  888MOL0     H22516   7.553   5.193   2.986  0.7276 -1.9418 -0.6392
  888MOL0     H22517   7.638   5.238   2.840 -4.3246  1.0542  0.2102
  888MOL0     H22518   7.750   5.130   3.105 -1.9719 -3.7098 -0.6129
  888MOL0     H22519   7.850   5.184   2.973 -0.0198  1.1374  0.8825
  888MOL0     H22520   7.727   5.025   2.819  2.3076  0.7087 -0.5330
  888MOL0     H22521   7.637   4.964   2.960 -1.0121  1.1292 -2.1034
  888MOL0     H22522   7.941   4.920   2.932  0.5934 -1.7258 -1.3123
  888MOL0     H22523   7.799   4.811   2.894 -1.8462 -2.3581  3.2847
  888MOL0     H22524   7.332   5.671   2.672 -1.0267 -0.6376  0.2339
  888MOL0     H22525   7.129   5.777   2.588 -0.1768 -0.0609 -0.8358
  888MOL0     H22526   6.829   6.069   2.573 -0.8639  1.6343  0.3320
  888MOL0     H22527   6.637   6.130   2.460  2.1139 -0.4134  1.0177
  888MOL0     H22528   6.964   6.000   1.215 -0.4091  0.6374  1.0004
  888MOL0     H22529   7.171   6.043   1.145 -1.0117  0.0137 -1.1750
  888MOL0     H22530   7.563   6.249   1.300 -0.9254 -0.5224  0.3513
  888MOL0     H22531   7.769   6.366   1.351  0.3770  0.2454 -0.1179
  888MOL0     H22532   8.060   6.156   1.575  0.8567 -1.1049 -0.6258
  888MOL0     H22533   8.159   6.139   1.420 -0.3862 -0.1276 -1.4275
  888MOL0     H22534   8.271   6.266   1.595  0.5255  1.3439  1.1615
  888MOL0     H22535   8.133   6.383   1.594 -1.2701 -0.2600 -0.5385
  888MOL0     H22536   8.310   6.312   1.351 -0.0609  0.6754 -0.5870
  888MOL0     H22537   8.191   6.442   1.357  0.2448 -0.7036  0.0179
  888MOL0     H22538   8.320   6.560   1.534  0.2788  2.4445 -2.4209
  888MOL0     H22539   8.402   6.538   1.385 -0.0364  0.5603  0.3490
  888MOL0     H22540   8.686   6.338   1.584  0.2663 -0.3788  0.1507
  888MOL0     H22541   7.962   6.008   1.475 -1.0428  0.6195  3.6280
  888MOL0     H22542   7.871   5.794   1.445  0.7255  1.2989  0.2499
  888MOL0     H22543   7.737   5.808   1.544  1.6515 -1.9443  0.5485
  888MOL0     H22544   7.710   5.780   1.375  0.7775 -0.4818  1.0567
  889MOL0     O22545   8.873   2.462   9.034 -0.5833  0.1724  0.6195
  889MOL0     C22546   8.936   2.450   9.141 -0.1287 -0.2798  0.1073
  889MOL0     O22547   8.917   2.349   9.240  0.0250  0.1422  0.2656
  889MOL0     C22548   8.820   2.254   9.213 -0.1468 -0.6042 -1.2364
  889MOL0     C22549   8.840   2.156   9.122 -0.0358 -0.4102  0.5026
  889MOL0     C22550   8.736   2.062   9.107 -0.2506 -0.3911  0.4617
  889MOL0     C22551   8.615   2.068   9.184  0.3344 -0.2052 -1.4560
  889MOL0     O22552   8.521   1.971   9.204  0.0688  0.4427  0.1007
  889MOL0     C22553   8.486   1.892   9.084  0.9309  0.9504  0.1106
  889MOL0     C22554   8.362   1.795   9.113  0.1652  0.7889 -0.4637
  889MOL0     C22555   8.239   1.877   9.111  0.2247 -0.3454 -0.2618
  889MOL0     C22556   8.184   1.893   9.249  0.2198 -0.3979  0.1362
  889MOL0     C22557   8.054   1.982   9.245  0.8438 -0.7463 -0.1803
  889MOL0     C22558   7.938   1.946   9.157 -0.7711  0.5643  0.0391
  889MOL0     C22559   7.878   1.811   9.201  0.1346  0.2426 -0.1565
  889MOL0     C22560   7.792   1.752   9.093 -0.1175  0.6082 -0.6264
  889MOL0     N22561   7.696   1.644   9.142 -0.7095  0.1881  0.6168
  889MOL0     C22562   7.722   1.512   9.171  0.6771 -0.0854  0.9133
  889MOL0     C22563   7.600   1.460   9.200  0.8259 -0.2375 -0.2668
  889MOL0     C22564   7.566   1.322   9.234  0.5569 -0.4989 -0.0806
  889MOL0     C22565   7.674   1.212   9.218 -0.1006 -0.2156 -0.9051
  889MOL0     C22566   7.769   1.179   9.334  0.5542 -0.6658  1.3740
  889MOL0     C22567   7.908   1.138   9.294  0.0925  0.0206  0.2831
  889MOL0     O22568   7.979   1.086   9.409 -0.3443 -0.1987  0.5271
  889MOL0     C22569   8.115   1.062   9.390  0.5297  0.0817  0.7047
  889MOL0     C22570   8.184   1.077   9.269 -0.5558  0.8691  0.4087
  889MOL0     C22571   8.321   1.039   9.252  0.5833  0.5682 -0.1924
  889MOL0     C22572   8.387   1.057   9.115 -0.1812 -0.1587 -0.0391
  889MOL0     C22573   8.392   0.992   9.360  0.8268 -0.1318 -0.5788
  889MOL0     C22574   8.542   0.945   9.364 -0.1821  0.3201  0.4948
  889MOL0     O22575   8.596   0.938   9.488  0.6294 -0.4304  1.1987
  889MOL0     C22576   8.730   0.953   9.503  0.4249 -0.0602  0.4735
  889MOL0     C22577   8.798   0.881   9.599 -0.0416 -0.5111 -0.3282
  889MOL0     C22578   8.935   0.903   9.628 -0.6148  0.7589 -0.0420
  889MOL0     C22579   9.005   1.000   9.556 -0.2160  0.1515 -0.0854
  889MOL0     O22580   9.141   1.023   9.574  0.5853  0.2936  0.1486
  889MOL0     C22581   9.206   0.918   9.649  0.0750 -0.6880 -0.4454
  889MOL0     C22582   9.349   0.955   9.656  0.6556 -0.8131 -0.2677
  889MOL0     C22583   9.429   0.845   9.739  0.2278  0.2991 -0.4621
  889MOL0     C22584   9.578   0.884   9.769 -0.2269  0.3061  0.6313
  889MOL0     C22585   9.646   0.815   9.878  0.0325 -0.0257  0.0038
  889MOL0     C22586   9.794   0.820   9.853 -0.0673 -0.9450 -0.2729
  889MOL0     C22587   9.878   0.804   9.977  0.4810  0.7857 -0.1546
  889MOL0     C22588  10.025   0.763   9.961  0.5091 -0.4225  1.5916
  889MOL0    Cl22589  10.065   0.630   9.839 -0.0886  0.0228 -0.6834
  889MOL0     C22590   8.938   1.074   9.452  0.4330  0.4334 -0.2647
  889MOL0     C22591   8.800   1.050   9.424  0.8550 -0.5237 -0.2177
  889MOL0     O22592   8.599   0.925   9.255  0.5067  0.6779  0.0503
  889MOL0     C22593   8.323   0.982   9.482  1.0678 -0.7256  0.1837
  889MOL0     C22594   8.191   1.022   9.498 -0.7259  0.1031 -0.1768
  889MOL0     N22595   7.505   1.565   9.186  0.5000 -0.5301 -0.4150
  889MOL0     N22596   7.567   1.673   9.152  0.3194  0.5618  0.3566
  889MOL0     C22597   8.595   2.176   9.272 -0.2183  0.5054 -0.1041
  889MOL0     C22598   8.699   2.259   9.295  0.4293 -0.1151  0.0029
  889MOL0     C22599   9.036   2.550   9.182 -0.4965  0.7047 -0.2893
  889MOL0     C22600   9.154   2.501   9.245  0.1571 -0.7344  0.8508
  889MOL0     C22601   9.252   2.589   9.281 -0.5416  0.0612  0.5165
  889MOL0     C22602   9.241   2.722   9.255  0.4584  0.3161  1.2045
  889MOL0     O22603   9.363   2.790   9.280  0.5227 -0.5952 -1.0339
  889MOL0     C22604   9.357   2.938   9.276  0.1832  0.6471 -0.0214
  889MOL0     C22605   9.502   2.985   9.301  0.4677  0.2927 -0.4904
  889MOL0     C22606   9.547   2.998   9.453 -0.5965  0.5785  1.0312
  889MOL0     C22607   9.483   3.114   9.514  0.1370 -0.2191  0.3446
  889MOL0     C22608   9.539   3.149   9.645 -0.4344  0.3063 -0.1622
  889MOL0     C22609   9.604   3.169   9.745 -0.1498  0.3498 -0.1947
  889MOL0     C22610   9.128   2.778   9.192  0.2443 -0.7018 -1.0605
  889MOL0     C22611   9.020   2.691   9.157 -0.3681  0.5677 -0.7595
  889MOL0     C22612   8.902   2.751   9.084 -0.2424  0.0400 -0.1948
  889MOL0     H22613   8.927   2.150   9.058 -1.6596  1.6547 -2.1470
  889MOL0     H22614   8.756   1.984   9.035  1.3413  0.0898  0.3307
  889MOL0     H22615   8.568   1.822   9.063  0.4671  0.9793 -2.0494
  889MOL0     H22616   8.476   1.951   8.992  0.9168  0.3220 -0.3007
  889MOL0     H22617   8.359   1.715   9.039  0.5675  0.2796  0.0693
  889MOL0     H22618   8.377   1.747   9.210  2.3949 -1.4643 -1.8312
  889MOL0     H22619   8.270   1.979   9.088  2.1306 -0.4394  1.5415
  889MOL0     H22620   8.168   1.840   9.036  0.4922 -1.0767 -0.1610
  889MOL0     H22621   8.161   1.797   9.297 -1.4616 -0.8865 -1.5121
  889MOL0     H22622   8.262   1.939   9.309  2.2527 -4.4051  0.9296
  889MOL0     H22623   8.090   2.077   9.205  0.6899 -1.0078 -0.9634
  889MOL0     H22624   8.007   1.987   9.344 -0.6173 -1.7964 -0.7932
  889MOL0     H22625   7.859   2.022   9.164 -2.2339 -0.8802 -0.3560
  889MOL0     H22626   7.969   1.935   9.053  0.1034  0.4916  0.2973
  889MOL0     H22627   7.821   1.817   9.295  1.1709 -1.0785  0.5855
  889MOL0     H22628   7.958   1.738   9.215 -0.1367 -0.1205 -0.5094
  889MOL0     H22629   7.731   1.825   9.040  1.5212  2.2475 -0.3666
  889MOL0     H22630   7.858   1.697   9.025  0.8081  0.4529  0.3645
  889MOL0     H22631   7.818   1.463   9.162 -0.0535 -1.6334  1.0503
  889MOL0     H22632   7.490   1.291   9.162  0.1783  3.2547 -1.4822
  889MOL0     H22633   7.511   1.310   9.328 -0.0352 -2.1490 -0.5896
  889MOL0     H22634   7.612   1.124   9.199 -0.8249 -0.9610  3.8203
  889MOL0     H22635   7.732   1.245   9.131  0.2208 -0.2142 -0.6927
  889MOL0     H22636   7.776   1.260   9.408  1.7523  0.7160 -0.1604
  889MOL0     H22637   7.724   1.090   9.379 -3.1249  0.7627  0.9072
  889MOL0     H22638   7.905   1.056   9.221  2.2392  1.9045 -2.1579
  889MOL0     H22639   7.953   1.226   9.247  3.8305 -0.5938  2.3128
  889MOL0     H22640   8.126   1.107   9.182  0.1494  1.2834  0.0650
  889MOL0     H22641   8.463   1.136   9.123  0.1406 -0.5780  1.3918
  889MOL0     H22642   8.316   1.073   9.033  1.2651  3.0327 -0.8428
  889MOL0     H22643   8.431   0.966   9.073 -0.1766  1.2844 -3.5392
  889MOL0     H22644   8.752   0.819   9.675 -1.5371  0.5459 -0.3382
  889MOL0     H22645   8.968   0.842   9.711  2.1047  0.7841 -0.9951
  889MOL0     H22646   9.163   0.923   9.750 -0.3601  2.4829 -0.6640
  889MOL0     H22647   9.190   0.821   9.601 -2.7875 -1.3912  1.6622
  889MOL0     H22648   9.390   0.950   9.555  3.2563 -0.9358  0.7131
  889MOL0     H22649   9.349   1.059   9.690  3.9154 -0.0817 -2.0822
  889MOL0     H22650   9.421   0.753   9.682 -1.6184 -0.6986  1.2867
  889MOL0     H22651   9.381   0.832   9.837  0.1814  0.2752 -0.4878
  889MOL0     H22652   9.577   0.988   9.802  0.3378  0.0454  1.5146
  889MOL0     H22653   9.631   0.871   9.674  0.6353 -0.2550  1.1699
  889MOL0     H22654   9.611   0.849   9.976  2.3294 -2.5161  1.8652
  889MOL0     H22655   9.617   0.709   9.876 -1.1415  0.2926 -1.8053
  889MOL0     H22656   9.827   0.914   9.807  0.3334 -0.6084  0.6679
  889MOL0     H22657   9.810   0.739   9.781  1.5088 -1.1137  0.2382
  889MOL0     H22658   9.832   0.726  10.038  1.8363  0.3371  0.3411
  889MOL0     H22659   9.870   0.895  10.038  0.7363  1.9974 -1.8517
  889MOL0     H22660  10.060   0.744  10.063 -0.8448  2.4911  2.7173
  889MOL0     H22661  10.090   0.846   9.933 -0.6089  0.2543  0.9126
  889MOL0     H22662   8.999   1.149   9.402 -1.1706  1.6586 -0.5082
  889MOL0     H22663   8.736   1.102   9.353  0.3674  2.7058  2.3243
  889MOL0     H22664   8.369   0.952   9.576 -0.5804  2.0611  2.0440
  889MOL0     H22665   8.147   1.020   9.597 -1.4138 -3.0477 -0.4348
  889MOL0     H22666   8.508   2.182   9.337  0.5004  3.9213  0.7409
  889MOL0     H22667   8.706   2.341   9.366 -0.3551  1.5776 -1.7749
  889MOL0     H22668   9.164   2.397   9.274  1.2523 -0.4506  1.5481
  889MOL0     H22669   9.349   2.559   9.321  0.6289  3.3904  0.4738
  889MOL0     H22670   9.330   2.962   9.173  0.0948 -0.1744 -0.1946
  889MOL0     H22671   9.289   2.979   9.351 -2.0569 -0.1255 -1.5426
  889MOL0     H22672   9.501   3.077   9.242 -1.8710 -0.2902 -1.4854
  889MOL0     H22673   9.584   2.929   9.255 -1.5347 -2.3042 -1.1615
  889MOL0     H22674   9.528   2.909   9.513 -2.5721  1.3972  1.6926
  889MOL0     H22675   9.654   3.018   9.464 -0.3738 -0.9208  1.7289
  889MOL0     H22676   9.373   3.111   9.514  0.1479 -2.2967 -0.4204
  889MOL0     H22677   9.521   3.199   9.456 -2.0800 -0.5129 -1.7278
  889MOL0     H22678   9.658   3.178   9.838 -3.8157  1.5465  2.0584
  889MOL0     H22679   9.109   2.884   9.174 -0.2313 -0.1307  2.0942
  889MOL0     H22680   8.811   2.711   9.129 -0.0806  2.1692  2.2857
  889MOL0     H22681   8.899   2.858   9.107  1.3342  0.3718 -1.3434
  889MOL0     H22682   8.917   2.742   8.976  0.1976  3.0152 -0.4673
  890MOL0     O22683   0.912  10.769  10.963 -0.2869 -0.4881 -0.1323
  890MOL0     C22684   0.887  10.671  10.886  0.0244  0.9570  0.4652
  890MOL0     O22685   0.971  10.566  10.859  0.3365 -0.1059  0.2759
  890MOL0     C22686   1.082  10.555  10.930 -0.0332 -0.8160 -0.6871
  890MOL0     C22687   1.083  10.447  11.017  0.4514 -0.3345 -0.4677
  890MOL0     C22688   1.176  10.427  11.115 -0.1548  0.6496  0.2900
  890MOL0     C22689   1.283  10.528  11.122  0.7389  0.4010 -1.0700
  890MOL0     O22690   1.368  10.492  11.227  0.7952  0.1541  0.5653
  890MOL0     C22691   1.487  10.570  11.237 -0.7795  0.5834 -0.1977
  890MOL0     C22692   1.588  10.471  11.288 -0.1500 -0.2312  1.1001
  890MOL0     C22693   1.726  10.536  11.305 -0.2345  0.2362 -0.0699
  890MOL0     C22694   1.822  10.432  11.358  0.3542 -0.1348  0.3262
  890MOL0     C22695   1.960  10.494  11.395  0.1543 -1.1385  0.0740
  890MOL0     C22696   1.969  10.535  11.541  0.2449  1.0316  0.5695
  890MOL0     C22697   2.108  10.593  11.587 -0.5167  0.4725  0.0992
  890MOL0     C22698   2.141  10.726  11.530  0.2872  0.3489  0.4816
  890MOL0     N22699   2.271  10.787  11.564 -0.0610 -0.6174  0.2229
  890MOL0     C22700   2.323  10.905  11.512 -0.1178  0.4276  0.3701
  890MOL0     C22701   2.444  10.916  11.573 -0.3580 -0.5195  0.0340
  890MOL0     C22702   2.538  11.037  11.568 -0.7684 -0.4315  1.1181
  890MOL0     C22703   2.678  11.016  11.499 -0.0846 -0.2758  0.0378
  890MOL0     C22704   2.754  11.144  11.532 -0.7481 -0.6130  0.2673
  890MOL0     C22705   2.897  11.147  11.476  0.1563 -0.1137  0.2368
  890MOL0     O22706   2.949  11.280  11.503 -0.0628 -0.3566  0.5418
  890MOL0     C22707   3.077  11.292  11.545 -0.2912 -0.3000  0.1654
  890MOL0     C22708   3.114  11.418  11.593  0.4785  0.3259 -0.3228
  890MOL0     C22709   3.242  11.442  11.654  0.7270 -1.2688  0.8644
  890MOL0     C22710   3.268  11.576  11.704 -0.0052  0.6830 -0.3515
  890MOL0     C22711   3.333  11.343  11.656 -0.0940 -0.5011  0.0066
  890MOL0     C22712   3.480  11.358  11.699  0.2719  0.3972 -0.1287
  890MOL0     O22713   3.542  11.237  11.707 -0.7024 -0.3891 -0.1973
  890MOL0     C22714   3.685  11.233  11.707  0.9688  0.3178 -0.7551
  890MOL0     C22715   3.755  11.178  11.602  0.8242 -0.9073 -0.3844
  890MOL0     C22716   3.897  11.184  11.606 -0.4445 -0.0134 -0.5490
  890MOL0     C22717   3.961  11.244  11.708 -0.4517 -0.4548  0.0635
  890MOL0     O22718   4.096  11.255  11.719 -1.0585  0.0267 -0.5558
  890MOL0     C22719   4.164  11.131  11.750 -0.1553  0.0733 -0.8641
  890MOL0     C22720   4.312  11.144  11.724 -0.1921  0.8555 -0.3103
  890MOL0     C22721   4.367  11.228  11.834 -0.9165  0.0765  0.4447
  890MOL0     C22722   4.526  11.215  11.858  0.3446  0.4170 -0.2158
  890MOL0     C22723   4.586  11.325  11.945 -0.0248 -0.6732 -0.8695
  890MOL0     C22724   4.728  11.289  11.994  0.2020  0.0633  0.3311
  890MOL0     C22725   4.798  11.392  12.081  0.3225 -0.2853 -0.1712
  890MOL0     C22726   4.803  11.533  12.013 -0.5010  0.5444 -0.0937
  890MOL0    Cl22727   4.817  11.549  11.831 -0.3707  0.0909  0.0126
  890MOL0     C22728   3.885  11.308  11.808  1.3112  0.1903 -0.0865
  890MOL0     C22729   3.747  11.293  11.809 -0.3527  0.6244 -0.1557
  890MOL0     O22730   3.532  11.466  11.706  0.1060  0.0366 -0.2969
  890MOL0     C22731   3.299  11.216  11.600 -0.5817 -0.2988 -0.8294
  890MOL0     C22732   3.181  11.194  11.540  0.1692  0.2111  0.3378
  890MOL0     N22733   2.451  10.817  11.666 -0.7951 -0.5404  1.3910
  890MOL0     N22734   2.355  10.735  11.654 -0.1806 -0.0216 -0.3143
  890MOL0     C22735   1.290  10.634  11.031 -0.3612  0.5504 -0.3702
  890MOL0     C22736   1.185  10.641  10.943  0.0398  0.1391  0.1051
  890MOL0     C22737   0.766  10.665  10.800  0.8589 -0.4795  0.1542
  890MOL0     C22738   0.716  10.534  10.759 -0.1165  0.2218 -0.4895
  890MOL0     C22739   0.605  10.509  10.689  0.2402 -0.4891 -0.3731
  890MOL0     C22740   0.530  10.615  10.649 -0.1565 -0.4939  0.0989
  890MOL0     O22741   0.415  10.595  10.579  0.6428 -0.0480  0.5839
  890MOL0     C22742   0.317  10.513  10.645 -0.7383  0.4610  0.4013
  890MOL0     C22743   0.171  10.551  10.614  0.2786 -0.3087  0.1126
  890MOL0     C22744   0.076  10.479  10.715 -0.7411 -0.6403  0.3134
  890MOL0     C22745  -0.068  10.486  10.661 -0.4391  0.4811 -0.5785
  890MOL0     C22746  -0.109  10.626  10.642 -0.4765  0.3690  0.2550
  890MOL0     C22747  -0.137  10.740  10.608  0.5260  0.1929 -0.3540
  890MOL0     C22748   0.569  10.744  10.688  0.1297 -0.4295  1.0636
  890MOL0     C22749   0.690  10.776  10.755 -0.9201 -0.0991  0.5098
  890MOL0     C22750   0.725  10.918  10.779 -0.4273 -1.0271  0.5147
  890MOL0     H22751   0.996  10.383  11.005  0.5581 -0.7195  0.6654
  890MOL0     H22752   1.172  10.344  11.184  1.2461 -0.6840 -1.1327
  890MOL0     H22753   1.474  10.656  11.302 -1.1423  0.2584  0.1655
  890MOL0     H22754   1.527  10.600  11.140  4.9452  1.4861  2.1011
  890MOL0     H22755   1.543  10.436  11.381 -1.7166 -0.9452  0.1221
  890MOL0     H22756   1.604  10.389  11.217 -2.6321  0.3458 -0.2280
  890MOL0     H22757   1.754  10.586  11.212 -2.0879 -1.2801 -1.5331
  890MOL0     H22758   1.716  10.612  11.383  1.4273 -1.6251  2.1182
  890MOL0     H22759   1.781  10.392  11.451 -0.4832  1.1375  0.5255
  890MOL0     H22760   1.836  10.348  11.290  0.9871 -1.3494  1.8948
  890MOL0     H22761   1.991  10.571  11.324  0.7373 -1.3573  0.0842
  890MOL0     H22762   2.030  10.410  11.385 -0.8037 -2.0789  1.0353
  890MOL0     H22763   1.891  10.609  11.562 -2.9964 -0.9860 -3.0010
  890MOL0     H22764   1.950  10.450  11.607  0.7618  0.3474 -0.1500
  890MOL0     H22765   2.192  10.525  11.571 -0.8481  0.0676  0.0733
  890MOL0     H22766   2.087  10.596  11.694  0.5004 -0.8282  0.3604
  890MOL0     H22767   2.125  10.711  11.423 -2.0512 -1.9248  1.0409
  890MOL0     H22768   2.065  10.797  11.564 -0.0208 -1.1388  3.2752
  890MOL0     H22769   2.278  10.976  11.443  1.8030  0.5335 -0.8765
  890MOL0     H22770   2.569  11.073  11.667 -2.2022 -1.5184  1.9968
  890MOL0     H22771   2.490  11.119  11.514  1.6202  0.2654 -0.0594
  890MOL0     H22772   2.729  10.933  11.548  2.9239  1.4344 -0.0117
  890MOL0     H22773   2.661  10.995  11.393 -0.1333  0.4110 -0.0918
  890MOL0     H22774   2.699  11.232  11.497 -0.2021  0.4899  2.0648
  890MOL0     H22775   2.763  11.161  11.640 -0.4115  2.6340 -0.1794
  890MOL0     H22776   2.949  11.065  11.526  0.4667  0.6811  1.2617
  890MOL0     H22777   2.900  11.133  11.368  1.0920  0.2466  0.2060
  890MOL0     H22778   3.044  11.501  11.594 -0.0184 -0.0854  0.3676
  890MOL0     H22779   3.283  11.582  11.812 -1.4323  3.4114 -0.2170
  890MOL0     H22780   3.176  11.632  11.681 -0.9477 -1.3067 -1.7387
  890MOL0     H22781   3.353  11.620  11.652  0.2804  0.2731 -0.2340
  890MOL0     H22782   3.699  11.132  11.521  0.7776  1.3967 -1.7387
  890MOL0     H22783   3.960  11.140  11.528 -0.8751 -1.1323 -0.2820
  890MOL0     H22784   4.146  11.093  11.850  0.3547  1.5040 -0.1971
  890MOL0     H22785   4.124  11.053  11.685  1.5108 -0.2378 -1.5848
  890MOL0     H22786   4.348  11.041  11.731  0.3383  0.8608 -2.4346
  890MOL0     H22787   4.332  11.186  11.625 -4.0263  0.8408 -1.2225
  890MOL0     H22788   4.332  11.216  11.937  2.2284 -1.6961  1.4260
  890MOL0     H22789   4.332  11.329  11.813 -1.5712  0.1727  1.8750
  890MOL0     H22790   4.585  11.220  11.766 -0.7157  1.2913 -0.8708
  890MOL0     H22791   4.544  11.119  11.908  1.5553  1.5581  1.6489
  890MOL0     H22792   4.574  11.420  11.891 -3.3091 -1.4241 -1.6919
  890MOL0     H22793   4.525  11.335  12.036  0.0982  1.9900 -0.9964
  890MOL0     H22794   4.786  11.259  11.906 -0.8500  1.2802 -0.8169
  890MOL0     H22795   4.707  11.201  12.056  0.0476 -2.8507 -3.4662
  890MOL0     H22796   4.899  11.349  12.081  0.0758 -0.8993  0.9004
  890MOL0     H22797   4.757  11.402  12.182 -1.7041 -0.8566 -0.8836
  890MOL0     H22798   4.881  11.595  12.059 -2.8793  1.3419  3.1876
  890MOL0     H22799   4.709  11.582  12.040 -1.1891 -0.5191 -0.5009
  890MOL0     H22800   3.933  11.356  11.893 -0.5976  0.8430  0.6880
  890MOL0     H22801   3.700  11.354  11.886 -1.5827 -0.1709 -0.2524
  890MOL0     H22802   3.365  11.131  11.592  0.4713  0.5446 -1.3255
  890MOL0     H22803   3.154  11.099  11.496 -1.9725  0.9082  0.0405
  890MOL0     H22804   1.363  10.712  11.049  0.7512 -0.1373 -1.7487
  890MOL0     H22805   1.180  10.725  10.875  1.3444  1.0928  1.1337
  890MOL0     H22806   0.773  10.445  10.784 -2.7643 -1.6331 -0.6643
  890MOL0     H22807   0.589  10.411  10.645  1.2601 -0.1401 -1.5980
  890MOL0     H22808   0.334  10.408  10.620  1.8241  0.9111  0.0510
  890MOL0     H22809   0.321  10.507  10.754 -1.9482 -2.4551  0.3663
  890MOL0     H22810   0.155  10.527  10.508  2.8906 -0.2472 -0.3705
  890MOL0     H22811   0.162  10.659  10.630  0.2357 -0.4186  0.8396
  890MOL0     H22812   0.104  10.373  10.717  0.2532 -0.3900  0.0669
  890MOL0     H22813   0.086  10.533  10.810  2.3312 -0.3698 -0.0675
  890MOL0     H22814  -0.142  10.429  10.717 -0.2908  0.4439 -0.4182
  890MOL0     H22815  -0.060  10.440  10.562 -3.1409  0.0446 -0.6630
  890MOL0     H22816  -0.175  10.839  10.589 -0.6736  0.0519  1.2021
  890MOL0     H22817   0.511  10.828  10.650 -0.1658 -1.3916 -0.7421
  890MOL0     H22818   0.829  10.935  10.750 -0.9152 -0.2502 -0.8567
  890MOL0     H22819   0.662  10.974  10.710 -1.2183  0.6288  2.4712
  890MOL0     H22820   0.719  10.950  10.884  3.7877 -2.0147  1.2436
  891MOL0     O22821   0.125   1.111   5.995 -0.2128  0.5030  0.2961
  891MOL0     C22822   0.063   1.207   6.037 -0.4395 -0.2627  0.3537
  891MOL0     O22823   0.100   1.272   6.155  0.5482  0.2579 -0.3053
  891MOL0     C22824   0.205   1.216   6.232  0.8556 -0.5245  0.7614
  891MOL0     C22825   0.290   1.311   6.298  0.1260  0.2801 -0.0698
  891MOL0     C22826   0.383   1.264   6.385 -0.4235  0.4226 -1.1013
  891MOL0     C22827   0.414   1.120   6.403 -0.2658 -0.1912  0.2605
  891MOL0     O22828   0.526   1.097   6.477 -0.8455 -0.7703 -0.0775
  891MOL0     C22829   0.573   0.959   6.489  0.3636 -0.1279 -0.3019
  891MOL0     C22830   0.708   0.948   6.558 -1.1228  0.0614 -0.0151
  891MOL0     C22831   0.750   0.800   6.582  0.6432  0.3095 -1.0950
  891MOL0     C22832   0.867   0.789   6.687  0.5347  0.1822  0.1507
  891MOL0     C22833   1.000   0.811   6.618  0.5358 -0.2102  0.5091
  891MOL0     C22834   1.118   0.801   6.717  0.6479 -0.3711  0.1159
  891MOL0     C22835   1.247   0.815   6.634  0.7298  0.1589  0.8865
  891MOL0     C22836   1.373   0.812   6.720 -0.4880 -0.5743 -0.1127
  891MOL0     N22837   1.496   0.847   6.632  0.1861 -0.3858 -0.2098
  891MOL0     C22838   1.554   0.751   6.548  0.0554 -0.1236 -1.1405
  891MOL0     C22839   1.648   0.823   6.478  0.1845  0.3669  0.1106
  891MOL0     C22840   1.749   0.759   6.386  0.3014  0.1192 -0.3238
  891MOL0     C22841   1.866   0.852   6.335 -0.5192 -0.7173  0.8303
  891MOL0     C22842   1.952   0.894   6.448  0.9105  0.1349  0.2257
  891MOL0     C22843   2.091   0.958   6.410 -0.1369 -0.8587 -0.3050
  891MOL0     O22844   2.168   0.849   6.349  0.2716 -0.8467 -0.4116
  891MOL0     C22845   2.308   0.866   6.343  0.2402 -0.3825  0.7644
  891MOL0     C22846   2.391   0.754   6.309 -0.2397 -0.6008 -0.0219
  891MOL0     C22847   2.533   0.757   6.310 -0.0354  0.0340 -0.2302
  891MOL0     C22848   2.613   0.634   6.279  0.5601  0.5420  0.5937
  891MOL0     C22849   2.591   0.880   6.339  0.0341 -0.5564 -0.4828
  891MOL0     C22850   2.735   0.897   6.350  0.2667  0.0226  0.7007
  891MOL0     O22851   2.782   1.005   6.290 -0.1180 -0.0914 -0.1369
  891MOL0     C22852   2.909   1.046   6.314  0.2426  0.3146  0.3033
  891MOL0     C22853   2.996   1.056   6.206 -0.4522  0.1008  0.2839
  891MOL0     C22854   3.118   1.125   6.209  0.0728  1.1815  0.0369
  891MOL0     C22855   3.149   1.177   6.336 -0.3024  0.2509  0.0653
  891MOL0     O22856   3.272   1.234   6.331  0.0638  0.2377 -0.1170
  891MOL0     C22857   3.362   1.215   6.440 -0.9737 -0.5106  0.3177
  891MOL0     C22858   3.467   1.329   6.428  0.0843 -0.2627 -0.4142
  891MOL0     C22859   3.412   1.448   6.508 -0.2529  0.8316  0.0063
  891MOL0     C22860   3.507   1.564   6.515  0.0566 -0.5573  0.4046
  891MOL0     C22861   3.454   1.653   6.616  0.1951 -0.1366  0.6255
  891MOL0     C22862   3.547   1.776   6.647  0.5202  0.1386 -0.5347
  891MOL0     C22863   3.492   1.854   6.766 -0.1362 -0.2138  0.0129
  891MOL0     C22864   3.574   1.984   6.801 -0.4403 -0.0964 -0.0990
  891MOL0    Cl22865   3.747   1.968   6.792  0.3963 -0.3362  0.2807
  891MOL0     C22866   3.068   1.166   6.442 -0.4563 -0.5121 -0.5614
  891MOL0     C22867   2.949   1.102   6.435  0.2820  0.7690 -0.0586
  891MOL0     O22868   2.795   0.818   6.424 -0.3816 -0.3690  0.2629
  891MOL0     C22869   2.511   0.995   6.372  0.1141  0.0622 -0.4128
  891MOL0     C22870   2.370   0.987   6.372 -0.3538 -0.2288  0.8587
  891MOL0     N22871   1.638   0.953   6.515  0.0232 -0.5562  0.1196
  891MOL0     N22872   1.537   0.965   6.594 -0.4412 -0.5338  0.2482
  891MOL0     C22873   0.326   1.023   6.335 -0.2507 -1.0227  0.2138
  891MOL0     C22874   0.223   1.080   6.256  0.7148  0.1725  0.3582
  891MOL0     C22875  -0.038   1.274   5.952 -0.4917  0.3570  0.3793
  891MOL0     C22876  -0.035   1.245   5.811  0.4040  0.0452 -0.3990
  891MOL0     C22877  -0.124   1.308   5.726 -0.0311 -0.0529 -0.7335
  891MOL0     C22878  -0.215   1.402   5.772 -0.0101  0.6829 -0.0689
  891MOL0     O22879  -0.274   1.480   5.673  0.0598  0.5600  0.1154
  891MOL0     C22880  -0.341   1.603   5.698 -0.3176 -0.3185 -0.5107
  891MOL0     C22881  -0.246   1.715   5.675  0.6762 -0.1683 -0.2574
  891MOL0     C22882  -0.312   1.853   5.669 -0.0366  0.0147 -1.0350
  891MOL0     C22883  -0.220   1.970   5.671 -1.2140  0.0640 -0.2562
  891MOL0     C22884  -0.184   2.009   5.813 -0.3254  0.2718  0.4830
  891MOL0     C22885  -0.165   2.055   5.926  0.2271  0.2145  0.8533
  891MOL0     C22886  -0.234   1.421   5.909  0.2063  0.6376  0.7172
  891MOL0     C22887  -0.139   1.357   5.995  0.8492 -0.2802 -0.9515
  891MOL0     C22888  -0.167   1.375   6.140  0.0416 -0.2359  0.0004
  891MOL0     H22889   0.273   1.418   6.289 -1.9269  0.1294  1.2748
  891MOL0     H22890   0.454   1.328   6.438  0.0440 -1.0034  0.0673
  891MOL0     H22891   0.586   0.911   6.392  0.3520  0.8047 -0.7744
  891MOL0     H22892   0.495   0.915   6.552  1.1287 -0.4749  0.4150
  891MOL0     H22893   0.787   0.989   6.494 -0.1033  0.0138  1.1687
  891MOL0     H22894   0.720   1.004   6.651  0.5834  0.3563 -0.3932
  891MOL0     H22895   0.664   0.739   6.610  3.7626 -4.5670 -0.8599
  891MOL0     H22896   0.786   0.751   6.491 -0.3251  0.0262 -1.3370
  891MOL0     H22897   0.846   0.851   6.775 -0.7564  0.3502 -0.2577
  891MOL0     H22898   0.867   0.686   6.724 -1.3897  0.2190  0.3526
  891MOL0     H22899   1.001   0.913   6.577  0.8278 -1.4091 -2.7073
  891MOL0     H22900   1.006   0.745   6.532 -2.2337  1.0459 -0.7820
  891MOL0     H22901   1.115   0.875   6.797 -1.6754  0.4302 -0.6340
  891MOL0     H22902   1.118   0.703   6.767  0.7153 -0.4376 -0.0146
  891MOL0     H22903   1.247   0.912   6.583  0.5191 -0.1624  0.2674
  891MOL0     H22904   1.247   0.735   6.560 -1.3147  1.3227 -0.4766
  891MOL0     H22905   1.362   0.889   6.798 -2.9462 -0.0895 -0.8601
  891MOL0     H22906   1.392   0.712   6.760  1.1372 -0.2821 -0.0748
  891MOL0     H22907   1.545   0.644   6.555 -0.6728  0.0546  1.8986
  891MOL0     H22908   1.710   0.712   6.295  0.0588  0.6146 -0.4798
  891MOL0     H22909   1.782   0.680   6.455 -1.4864 -1.7885 -1.5161
  891MOL0     H22910   1.935   0.808   6.262  2.7692  0.5691  2.9132
  891MOL0     H22911   1.816   0.937   6.287 -0.2359  0.3882  2.4158
  891MOL0     H22912   1.887   0.972   6.487 -0.9952 -2.1573  1.9259
  891MOL0     H22913   1.969   0.812   6.519  0.3941 -0.1651  0.0093
  891MOL0     H22914   2.066   1.033   6.334  1.0577 -1.0019 -0.8691
  891MOL0     H22915   2.137   1.021   6.486  0.6895 -0.0111 -1.4805
  891MOL0     H22916   2.340   0.660   6.292 -1.5440 -0.1021  0.9841
  891MOL0     H22917   2.709   0.659   6.232 -0.0960 -1.3147 -1.9745
  891MOL0     H22918   2.546   0.581   6.211  0.8913 -0.5827  1.1364
  891MOL0     H22919   2.642   0.569   6.362  1.0298 -0.5011 -0.3602
  891MOL0     H22920   2.969   1.020   6.108  3.9557  2.1058 -1.9508
  891MOL0     H22921   3.182   1.134   6.122 -1.9194  0.5953 -1.5710
  891MOL0     H22922   3.318   1.213   6.540 -0.9725  0.9490  0.3675
  891MOL0     H22923   3.424   1.125   6.435 -0.9485 -0.4933  0.3159
  891MOL0     H22924   3.560   1.293   6.474 -1.3478 -3.3027  0.3424
  891MOL0     H22925   3.490   1.355   6.324 -0.8426  2.0839 -0.0721
  891MOL0     H22926   3.404   1.401   6.606  3.2907 -4.6049 -1.8606
  891MOL0     H22927   3.322   1.483   6.457 -1.5882 -3.2041 -0.7667
  891MOL0     H22928   3.517   1.606   6.414 -1.4349 -1.7698 -0.3016
  891MOL0     H22929   3.608   1.531   6.540  1.2385  1.2973 -1.6564
  891MOL0     H22930   3.353   1.684   6.589  0.7527  1.1349 -0.1141
  891MOL0     H22931   3.446   1.595   6.708  2.5075  3.8253  3.6738
  891MOL0     H22932   3.559   1.842   6.561 -1.0408  1.0100 -0.1175
  891MOL0     H22933   3.641   1.732   6.681  0.8925  2.4737  1.7885
  891MOL0     H22934   3.488   1.791   6.856 -1.3940  0.2250  0.2904
  891MOL0     H22935   3.396   1.899   6.738  0.2208  1.2742  1.1234
  891MOL0     H22936   3.554   2.009   6.905  0.2750  1.1042 -0.2344
  891MOL0     H22937   3.550   2.061   6.727  1.5403 -1.3978 -2.2721
  891MOL0     H22938   3.107   1.190   6.540  1.5985  0.6794 -1.5941
  891MOL0     H22939   2.896   1.087   6.528  0.8800  3.2974  0.7476
  891MOL0     H22940   2.559   1.089   6.396 -2.3828  1.6536 -1.2976
  891MOL0     H22941   2.319   1.073   6.414 -1.7847 -2.0524  3.0744
  891MOL0     H22942   0.342   0.918   6.356  0.5376 -0.8066  0.7550
  891MOL0     H22943   0.158   1.008   6.208 -0.1545  0.0892  1.6171
  891MOL0     H22944   0.034   1.172   5.771 -0.9835 -2.0774  0.8611
  891MOL0     H22945  -0.115   1.296   5.618  0.2305  1.7046 -0.9348
  891MOL0     H22946  -0.416   1.616   5.619  0.5350  0.4156 -1.2178
  891MOL0     H22947  -0.396   1.607   5.792 -0.9410 -0.3513 -0.8648
  891MOL0     H22948  -0.197   1.698   5.578 -2.2416  0.5734 -1.9667
  891MOL0     H22949  -0.170   1.722   5.753  1.6384 -0.3656 -1.1444
  891MOL0     H22950  -0.383   1.858   5.586 -2.9876 -0.4884  1.3180
  891MOL0     H22951  -0.374   1.858   5.758 -0.6330 -0.8963 -1.3771
  891MOL0     H22952  -0.267   2.059   5.629  0.6768  2.0788  1.6086
  891MOL0     H22953  -0.130   1.962   5.610  2.3589  2.6165  4.0143
  891MOL0     H22954  -0.162   2.092   6.026 -0.7313  3.1689 -0.1081
  891MOL0     H22955  -0.307   1.490   5.951 -1.8284  0.5888 -2.3844
  891MOL0     H22956  -0.179   1.281   6.196 -0.0029 -0.8541 -1.0190
  891MOL0     H22957  -0.090   1.437   6.187  0.1177 -0.4100  0.1069
  891MOL0     H22958  -0.264   1.425   6.154  0.0850 -0.2773  0.4762
  892MOL0     O22959   3.011   7.670   8.512  0.5951 -0.2762 -0.2687
  892MOL0     C22960   3.009   7.562   8.565 -1.0831  0.1143  0.4982
  892MOL0     O22961   3.101   7.523   8.659 -0.1165 -0.1631  0.1334
  892MOL0     C22962   3.225   7.585   8.657  0.2222 -0.5025 -0.5140
  892MOL0     C22963   3.229   7.721   8.694 -0.5252 -0.0116  0.4056
  892MOL0     C22964   3.348   7.789   8.694  0.2495 -0.5348 -0.7755
  892MOL0     C22965   3.469   7.719   8.664  0.1425  0.8889 -0.6910
  892MOL0     O22966   3.587   7.777   8.664  0.0708 -0.0679  0.2970
  892MOL0     C22967   3.601   7.880   8.765  0.2895 -0.2476 -0.3476
  892MOL0     C22968   3.746   7.921   8.776  0.3659  0.0398 -0.7694
  892MOL0     C22969   3.810   7.828   8.867 -0.4593  0.0074 -0.4674
  892MOL0     C22970   3.953   7.797   8.837  0.2778  0.5938  0.0768
  892MOL0     C22971   3.974   7.721   8.706  0.2044  0.5423  0.5080
  892MOL0     C22972   4.115   7.656   8.699  0.5097 -0.1219 -0.3458
  892MOL0     C22973   4.228   7.765   8.726 -0.9459  0.5752 -0.3204
  892MOL0     C22974   4.364   7.704   8.682  0.1239  0.1043  0.1004
  892MOL0     N22975   4.476   7.792   8.725  0.0567  0.0403 -0.5570
  892MOL0     C22976   4.526   7.901   8.655 -0.3532  0.1388 -1.4305
  892MOL0     C22977   4.627   7.938   8.741 -0.2882 -0.6715  0.0441
  892MOL0     C22978   4.703   8.064   8.726 -0.3479 -0.3359  0.5662
  892MOL0     C22979   4.705   8.142   8.863 -0.1548  1.4430  0.0804
  892MOL0     C22980   4.790   8.269   8.862  0.3630  0.1143 -0.0399
  892MOL0     C22981   4.938   8.232   8.847 -0.4856  0.2995 -0.0671
  892MOL0     O22982   4.979   8.165   8.971  0.2836  0.0966 -0.1066
  892MOL0     C22983   5.111   8.145   9.001 -0.0765  0.0019  0.6081
  892MOL0     C22984   5.217   8.149   8.912  0.7848 -0.5018  0.4461
  892MOL0     C22985   5.344   8.135   8.946  0.2086  0.1787 -0.0190
  892MOL0     C22986   5.443   8.137   8.842 -0.2741 -0.2643  0.5387
  892MOL0     C22987   5.374   8.108   9.083  0.1727  0.5813 -0.0130
  892MOL0     C22988   5.505   8.070   9.133 -0.3773  0.6679  0.5711
  892MOL0     O22989   5.511   8.067   9.270  0.5442 -0.2494  0.0623
  892MOL0     C22990   5.626   8.010   9.313 -0.2424  0.2149  0.0239
  892MOL0     C22991   5.757   8.068   9.299 -0.3341 -0.0958 -0.3197
  892MOL0     C22992   5.862   8.000   9.354 -0.2370  1.6455  0.0527
  892MOL0     C22993   5.844   7.885   9.432 -0.8600  0.5907 -0.1253
  892MOL0     O22994   5.954   7.821   9.490  0.2756 -0.1173 -0.8859
  892MOL0     C22995   5.936   7.753   9.607 -0.3780 -0.4556  0.1817
  892MOL0     C22996   6.073   7.761   9.676 -0.2415  0.3104  0.2070
  892MOL0     C22997   6.179   7.688   9.602 -0.0082 -0.1716 -0.5068
  892MOL0     C22998   6.250   7.757   9.485  0.8370  0.1645 -0.6861
  892MOL0     C22999   6.391   7.692   9.466  0.3458 -0.2733  0.0212
  892MOL0     C23000   6.377   7.557   9.395  0.7452 -0.6061  0.4141
  892MOL0     C23001   6.504   7.476   9.381 -0.0885 -0.2452 -1.0022
  892MOL0     C23002   6.594   7.510   9.262 -0.1785 -0.3021  0.2327
  892MOL0    Cl23003   6.695   7.659   9.293 -0.1131  0.3267 -1.0359
  892MOL0     C23004   5.718   7.833   9.449 -0.0552 -0.0882 -0.3685
  892MOL0     C23005   5.604   7.895   9.395  0.3772 -0.4271 -0.2010
  892MOL0     O23006   5.602   8.052   9.052 -0.4367  0.0995 -0.1313
  892MOL0     C23007   5.271   8.108   9.171  0.1867 -0.5637 -0.7623
  892MOL0     C23008   5.140   8.127   9.134  0.2844  0.9941 -0.5681
  892MOL0     N23009   4.636   7.844   8.842  0.0941  0.0394  0.3168
  892MOL0     N23010   4.542   7.762   8.840 -0.5125  0.1890 -0.2510
  892MOL0     C23011   3.466   7.583   8.633  0.4710  0.4380 -1.1005
  892MOL0     C23012   3.343   7.514   8.624 -0.4718 -0.2733  0.6464
  892MOL0     C23013   2.895   7.471   8.548  0.1166  0.3646 -0.6258
  892MOL0     C23014   2.855   7.392   8.661 -0.6406 -0.5493 -0.0280
  892MOL0     C23015   2.755   7.293   8.653 -0.0072 -0.3674 -0.7097
  892MOL0     C23016   2.681   7.278   8.539  0.1783 -0.7850  0.4448
  892MOL0     O23017   2.593   7.180   8.516  0.3212 -0.1975  0.4101
  892MOL0     C23018   2.598   7.058   8.589  0.4051 -0.2930 -0.5897
  892MOL0     C23019   2.474   6.967   8.555  0.3423 -0.5285 -0.4761
  892MOL0     C23020   2.477   6.836   8.627 -0.4424 -0.2006 -0.5811
  892MOL0     C23021   2.456   6.850   8.780  1.5649 -0.1022 -0.2190
  892MOL0     C23022   2.321   6.916   8.804 -0.0046  0.3882  0.0101
  892MOL0     C23023   2.209   6.966   8.791  0.3299 -0.1810 -0.3358
  892MOL0     C23024   2.707   7.371   8.432 -0.5886  0.5851  0.3897
  892MOL0     C23025   2.810   7.468   8.439 -0.7289 -1.1080 -0.2854
  892MOL0     C23026   2.834   7.565   8.322  0.1116  0.1474 -0.2735
  892MOL0     H23027   3.132   7.770   8.700  0.5410  2.1135  1.4998
  892MOL0     H23028   3.339   7.894   8.723 -2.8289 -0.4951 -1.4643
  892MOL0     H23029   3.553   7.838   8.853 -1.9361 -1.2316 -1.9339
  892MOL0     H23030   3.550   7.970   8.731 -0.3627 -0.2865  0.5183
  892MOL0     H23031   3.793   7.921   8.677 -0.4592  2.2738 -1.2150
  892MOL0     H23032   3.746   8.021   8.821  1.2314  0.1902 -1.0678
  892MOL0     H23033   3.811   7.875   8.966 -1.3956 -1.2855  0.1850
  892MOL0     H23034   3.756   7.734   8.880  1.5377 -0.8142  2.9939
  892MOL0     H23035   4.011   7.889   8.843  0.5797  0.3352  1.6161
  892MOL0     H23036   3.995   7.741   8.922  0.2120 -1.7260 -1.3118
  892MOL0     H23037   3.962   7.795   8.626 -1.3569  0.0561  0.2442
  892MOL0     H23038   3.895   7.646   8.692  0.1540  0.2987  1.9625
  892MOL0     H23039   4.112   7.574   8.771 -0.9031 -0.2133 -0.4681
  892MOL0     H23040   4.145   7.603   8.609  1.1360 -0.3507 -0.0068
  892MOL0     H23041   4.231   7.782   8.834  0.3314  0.5499 -0.3323
  892MOL0     H23042   4.209   7.858   8.672 -0.2704  1.0453  0.2383
  892MOL0     H23043   4.377   7.601   8.719 -0.7918  0.6530  2.1015
  892MOL0     H23044   4.374   7.696   8.573  2.2165  0.2859  0.2483
  892MOL0     H23045   4.491   7.945   8.563  0.2743  0.2661 -1.6164
  892MOL0     H23046   4.654   8.120   8.646 -1.5603 -2.8782 -0.5808
  892MOL0     H23047   4.807   8.047   8.698 -0.2249  0.3283  0.5828
  892MOL0     H23048   4.604   8.170   8.895  0.3751  2.1027  1.2691
  892MOL0     H23049   4.741   8.078   8.944  1.7790  0.7195 -1.2749
  892MOL0     H23050   4.771   8.324   8.770  0.1729  0.5312  0.2441
  892MOL0     H23051   4.762   8.324   8.953  3.0129  2.5566 -0.5700
  892MOL0     H23052   4.973   8.178   8.759 -0.2247 -1.5638  1.1241
  892MOL0     H23053   4.992   8.327   8.849  0.8134 -0.3722  2.9519
  892MOL0     H23054   5.191   8.161   8.808 -0.9602 -0.3847  0.8759
  892MOL0     H23055   5.512   8.222   8.848 -0.7432  0.0524  1.5683
  892MOL0     H23056   5.402   8.146   8.741  1.5557 -3.0634 -0.5835
  892MOL0     H23057   5.497   8.041   8.839 -2.3519 -1.4740 -0.5264
  892MOL0     H23058   5.767   8.162   9.244 -0.5543  0.5664  0.7365
  892MOL0     H23059   5.964   8.035   9.347  0.7590 -1.2004 -1.7191
  892MOL0     H23060   5.846   7.768   9.666 -1.0918 -0.5137 -0.8727
  892MOL0     H23061   5.927   7.646   9.588 -0.5517 -0.2363 -1.0690
  892MOL0     H23062   6.100   7.867   9.679 -1.3944  0.6133  0.3809
  892MOL0     H23063   6.057   7.714   9.774  1.4476 -3.1263 -0.9928
  892MOL0     H23064   6.136   7.592   9.572  2.5042 -1.8725  1.0276
  892MOL0     H23065   6.259   7.657   9.670 -0.7506 -0.9981  0.0114
  892MOL0     H23066   6.264   7.865   9.500  0.9602 -0.0538  0.9609
  892MOL0     H23067   6.185   7.748   9.398 -1.9786  2.6864  0.9549
  892MOL0     H23068   6.456   7.754   9.402 -1.6133  0.4982 -1.3162
  892MOL0     H23069   6.443   7.675   9.560  1.0670 -0.7065 -0.4393
  892MOL0     H23070   6.331   7.573   9.297  0.4759 -0.1582  0.6147
  892MOL0     H23071   6.311   7.494   9.456 -1.8517  2.2113  0.7324
  892MOL0     H23072   6.467   7.375   9.364 -2.5580  0.1121  1.4930
  892MOL0     H23073   6.569   7.476   9.468 -0.7233  2.4536 -0.4455
  892MOL0     H23074   6.530   7.532   9.176 -0.7567 -0.9613  0.4899
  892MOL0     H23075   6.656   7.422   9.242  1.2732  0.8807 -0.7024
  892MOL0     H23076   5.709   7.741   9.505  2.5906  0.9218  1.9661
  892MOL0     H23077   5.502   7.860   9.400  0.4708 -0.6203  0.3942
  892MOL0     H23078   5.284   8.082   9.276  0.8228 -0.1001 -0.7268
  892MOL0     H23079   5.065   8.115   9.211  0.9754  1.1573  0.1509
  892MOL0     H23080   3.563   7.536   8.626  0.1685 -0.0997 -1.9116
  892MOL0     H23081   3.330   7.408   8.604 -0.4729 -0.9943  3.9093
  892MOL0     H23082   2.901   7.397   8.760 -0.2874  1.5766 -0.2661
  892MOL0     H23083   2.736   7.229   8.739 -0.6442  0.0678 -0.5168
  892MOL0     H23084   2.690   7.003   8.569 -1.4674 -2.2628 -5.1947
  892MOL0     H23085   2.573   7.085   8.693 -3.1321 -0.8604 -1.1511
  892MOL0     H23086   2.465   6.961   8.446 -0.8627  1.1452 -0.5105
  892MOL0     H23087   2.382   7.018   8.585  1.3067  0.7623  0.3941
  892MOL0     H23088   2.409   6.760   8.589  0.5799 -0.9407 -0.9704
  892MOL0     H23089   2.579   6.797   8.615 -0.3128 -0.7226  1.6953
  892MOL0     H23090   2.540   6.902   8.827  2.9422  0.2862 -2.8723
  892MOL0     H23091   2.445   6.752   8.828  3.4207  0.1297  0.7621
  892MOL0     H23092   2.112   7.007   8.770 -0.4842 -1.4300  0.8017
  892MOL0     H23093   2.640   7.360   8.348 -2.0516  1.4383  1.3941
  892MOL0     H23094   2.772   7.536   8.237 -0.3487 -1.2731  0.5099
  892MOL0     H23095   2.800   7.662   8.359  0.8223 -0.0672  0.9925
  892MOL0     H23096   2.938   7.576   8.288  0.0799 -2.3628 -1.3809
  893MOL0     O23097   8.511   6.004  11.121 -0.1969  0.2503  0.1272
  893MOL0     C23098   8.519   5.886  11.115 -0.9563  0.3875  0.2736
  893MOL0     O23099   8.645   5.808  11.118  0.1620 -0.3078  0.4210
  893MOL0     C23100   8.758   5.888  11.129 -0.1002  0.3029  0.0013
  893MOL0     C23101   8.801   5.944  11.251  1.2254  0.2799  0.6583
  893MOL0     C23102   8.922   6.018  11.260 -0.9067 -0.5443 -0.0206
  893MOL0     C23103   9.011   6.019  11.152  0.3837 -0.3313 -0.6502
  893MOL0     O23104   9.136   6.080  11.165  0.5136  1.1821  0.0430
  893MOL0     C23105   9.246   6.012  11.098  0.1267  0.1520 -0.3978
  893MOL0     C23106   9.354   6.104  11.107  0.2614  0.4743 -0.8271
  893MOL0     C23107   9.361   6.214  10.999 -0.1286 -0.6167 -0.7790
  893MOL0     C23108   9.468   6.318  11.030  0.1819  0.7115 -0.2202
  893MOL0     C23109   9.455   6.444  10.950 -0.6049 -0.3791 -0.2096
  893MOL0     C23110   9.533   6.575  10.996 -0.0953  0.2380  0.3514
  893MOL0     C23111   9.682   6.550  10.991  0.2239  0.5595 -1.2047
  893MOL0     C23112   9.757   6.668  11.049  0.1354 -0.8361 -0.0241
  893MOL0     N23113   9.798   6.636  11.191  0.0321 -0.1374  1.4322
  893MOL0     C23114   9.712   6.612  11.298 -0.0938  0.4400 -0.4641
  893MOL0     C23115   9.798   6.598  11.406 -0.2825 -0.1561 -0.3240
  893MOL0     C23116   9.748   6.579  11.549  0.3925  0.3974 -0.5048
  893MOL0     C23117   9.710   6.428  11.587  0.1751 -0.1841  0.0915
  893MOL0     C23118   9.587   6.372  11.517  0.0206  0.7872  0.4253
  893MOL0     C23119   9.557   6.234  11.584  0.2354 -0.0906 -0.3445
  893MOL0     O23120   9.422   6.182  11.542  0.1758 -0.0857 -0.1807
  893MOL0     C23121   9.376   6.070  11.613 -0.6681 -0.8910  0.4607
  893MOL0     C23122   9.245   6.034  11.583 -0.0444 -0.8521 -1.3222
  893MOL0     C23123   9.175   5.936  11.654  0.3026 -0.8156 -0.3803
  893MOL0     C23124   9.031   5.929  11.632 -0.7959  1.3414 -0.6161
  893MOL0     C23125   9.239   5.864  11.761  0.4681 -0.2457 -0.2700
  893MOL0     C23126   9.177   5.755  11.848  0.2836  0.3599 -0.3874
  893MOL0     O23127   9.047   5.732  11.834 -0.3397  0.3929  0.3206
  893MOL0     C23128   8.973   5.646  11.915  0.1837 -0.4942  0.5458
  893MOL0     C23129   9.022   5.548  12.012  0.4642  0.2315 -0.4287
  893MOL0     C23130   8.935   5.464  12.086  0.8630  0.1186  0.0228
  893MOL0     C23131   8.791   5.470  12.069 -0.4172  0.1282  0.2683
  893MOL0     O23132   8.702   5.384  12.132 -0.2237 -0.0291 -0.8174
  893MOL0     C23133   8.737   5.304  12.249 -0.0301 -0.2628  0.1578
  893MOL0     C23134   8.727   5.156  12.206  0.0382  0.0597  0.1813
  893MOL0     C23135   8.771   5.064  12.318  0.2958  0.3498  0.2510
  893MOL0     C23136   8.927   5.026  12.306 -0.7315  0.4863  0.8009
  893MOL0     C23137   8.952   4.910  12.411  0.5710  0.7166 -0.0786
  893MOL0     C23138   9.096   4.873  12.432 -0.7210 -0.6618 -0.1889
  893MOL0     C23139   9.173   4.841  12.305 -0.3597 -0.4569 -0.1561
  893MOL0     C23140   9.308   4.773  12.336 -1.0409 -0.6742 -0.0563
  893MOL0    Cl23141   9.403   4.888  12.440 -0.0018 -0.0375  0.2764
  893MOL0     C23142   8.749   5.568  11.981  0.2431  0.4932  0.2001
  893MOL0     C23143   8.832   5.650  11.907 -0.0594  0.3093  0.3827
  893MOL0     O23144   9.255   5.686  11.915  0.5655  0.2898  0.2375
  893MOL0     C23145   9.372   5.896  11.780  0.5202 -0.3082 -0.2639
  893MOL0     C23146   9.438   6.000  11.718 -0.2891  0.4313 -0.2021
  893MOL0     N23147   9.930   6.595  11.362  0.1550 -0.0080 -0.2907
  893MOL0     N23148   9.932   6.621  11.236  0.5038 -0.9282 -0.3974
  893MOL0     C23149   8.958   5.970  11.030 -0.2149  0.2266 -0.5232
  893MOL0     C23150   8.842   5.896  11.023  0.0033  1.2302  0.1840
  893MOL0     C23151   8.398   5.804  11.078 -0.5724 -0.8163 -0.5790
  893MOL0     C23152   8.417   5.668  11.078  0.3752  0.7880 -0.5750
  893MOL0     C23153   8.315   5.574  11.046 -0.2564  0.1888  1.4625
  893MOL0     C23154   8.185   5.624  11.014  0.4476 -0.0324  0.2161
  893MOL0     O23155   8.071   5.544  10.994  0.5286  0.5664 -0.4170
  893MOL0     C23156   8.098   5.404  11.001 -0.3432 -0.7400  0.2374
  893MOL0     C23157   7.971   5.313  10.976  0.1482  0.2440 -0.2886
  893MOL0     C23158   7.905   5.338  10.833 -0.4891 -0.9368 -0.5650
  893MOL0     C23159   7.914   5.215  10.744  0.7324 -0.9021  0.2299
  893MOL0     C23160   7.828   5.232  10.622 -0.9053  0.2241 -0.8600
  893MOL0     C23161   7.756   5.225  10.527  0.0712  0.5427  0.2144
  893MOL0     C23162   8.165   5.762  11.014  0.7145  0.5143  1.2088
  893MOL0     C23163   8.270   5.854  11.044  0.1713 -0.8600  0.1082
  893MOL0     C23164   8.234   6.004  11.042 -0.1086  0.4753 -0.0130
  893MOL0     H23165   8.732   5.939  11.334  0.7276 -3.4937  0.1848
  893MOL0     H23166   8.956   6.074  11.346 -0.2614  0.8129 -1.1221
  893MOL0     H23167   9.227   5.976  10.997 -1.4736  2.6800 -1.0895
  893MOL0     H23168   9.275   5.920  11.151 -1.7567  0.7312  1.8168
  893MOL0     H23169   9.359   6.159  11.202 -0.7432  0.1986 -0.6044
  893MOL0     H23170   9.446   6.045  11.100  0.4183  0.5431  0.3483
  893MOL0     H23171   9.381   6.163  10.905 -2.0291 -0.0284 -1.5484
  893MOL0     H23172   9.261   6.258  10.996  1.1974  2.7884  0.6897
  893MOL0     H23173   9.462   6.354  11.133  0.3304  0.3881 -0.0964
  893MOL0     H23174   9.561   6.266  11.003 -1.7068 -1.6284 -2.8015
  893MOL0     H23175   9.347   6.460  10.963 -1.1174 -4.1878  1.5162
  893MOL0     H23176   9.472   6.431  10.843 -2.1663 -1.8687 -0.3347
  893MOL0     H23177   9.510   6.655  10.926 -3.6537 -1.1402 -0.2805
  893MOL0     H23178   9.497   6.602  11.096  1.4145  1.5488  0.5704
  893MOL0     H23179   9.719   6.537  10.889  2.1639  3.2211 -0.9607
  893MOL0     H23180   9.714   6.461  11.046 -0.2341  0.9839 -0.2269
  893MOL0     H23181   9.842   6.694  10.986 -0.9919  0.5947 -1.0284
  893MOL0     H23182   9.698   6.760  11.043 -0.3991 -1.1427  0.4437
  893MOL0     H23183   9.603   6.620  11.301 -0.0251  1.4558  3.0358
  893MOL0     H23184   9.653   6.633  11.558 -0.8883 -1.9169  0.6260
  893MOL0     H23185   9.821   6.624  11.617  1.2748 -0.0746 -1.1156
  893MOL0     H23186   9.794   6.363  11.559 -0.9768 -1.8814  0.3792
  893MOL0     H23187   9.698   6.420  11.696 -1.3140 -1.7871 -0.1455
  893MOL0     H23188   9.498   6.434  11.528  0.8984  2.1876 -0.1715
  893MOL0     H23189   9.607   6.357  11.411 -0.1132 -0.1066  0.5198
  893MOL0     H23190   9.638   6.172  11.542  0.9706  1.6596 -1.6083
  893MOL0     H23191   9.561   6.247  11.693  1.4141  1.1530 -0.5134
  893MOL0     H23192   9.199   6.095  11.506 -0.5852 -2.2831 -2.1729
  893MOL0     H23193   8.995   5.993  11.551 -1.3822  1.3853 -0.3252
  893MOL0     H23194   8.988   5.959  11.728  0.6632 -0.9769  0.8736
  893MOL0     H23195   8.996   5.826  11.614  1.2739  0.5667 -0.5197
  893MOL0     H23196   9.129   5.543  12.029  0.6461  0.4123 -1.4690
  893MOL0     H23197   8.975   5.383  12.147 -1.7904 -3.0579 -2.0873
  893MOL0     H23198   8.831   5.340  12.291 -0.2580 -0.3080  0.7182
  893MOL0     H23199   8.660   5.319  12.326  1.6349  0.3603  1.7906
  893MOL0     H23200   8.625   5.135  12.173  1.0377 -0.4319 -2.9685
  893MOL0     H23201   8.790   5.144  12.117 -0.4010 -2.1720  0.1207
  893MOL0     H23202   8.723   4.966  12.308  0.8669 -0.2495  2.7307
  893MOL0     H23203   8.744   5.103  12.417 -0.5169 -0.0134  0.1738
  893MOL0     H23204   8.990   5.112  12.330 -0.4156  0.1792  1.0881
  893MOL0     H23205   8.949   4.988  12.206  0.8746 -0.0056  1.3106
  893MOL0     H23206   8.907   4.919  12.510  0.7222 -1.9884  0.2927
  893MOL0     H23207   8.908   4.819  12.370 -1.9384  2.4238 -1.4347
  893MOL0     H23208   9.114   4.788  12.498  1.6407 -0.9341 -1.0782
  893MOL0     H23209   9.146   4.961  12.474  1.8480 -1.4887 -1.3018
  893MOL0     H23210   9.184   4.942  12.265  0.1414 -0.3620  0.2104
  893MOL0     H23211   9.108   4.778  12.245 -1.2060  0.7569 -0.5496
  893MOL0     H23212   9.368   4.763  12.245  1.4255  0.1078  1.4160
  893MOL0     H23213   9.289   4.673  12.376  1.3572 -1.4748 -0.7421
  893MOL0     H23214   8.641   5.571  11.991  0.3149 -1.0305  2.2460
  893MOL0     H23215   8.784   5.723  11.843  2.7037  2.3175  0.4446
  893MOL0     H23216   9.435   5.845  11.852 -3.2222 -3.2971  1.1885
  893MOL0     H23217   9.534   6.019  11.764 -0.8066 -2.0357  2.1654
  893MOL0     H23218   9.021   5.960  10.942 -2.0152 -2.2308 -1.6780
  893MOL0     H23219   8.827   5.836  10.934 -0.9991  0.1618  1.0289
  893MOL0     H23220   8.501   5.618  11.124 -1.7710 -0.9407  1.8202
  893MOL0     H23221   8.331   5.466  11.049 -1.3484 -0.0241  0.3596
  893MOL0     H23222   8.166   5.384  10.918  1.0737  4.6351 -0.2466
  893MOL0     H23223   8.143   5.371  11.096 -0.2055  1.0001  0.8095
  893MOL0     H23224   7.894   5.331  11.051  1.2842  2.7174  0.3626
  893MOL0     H23225   7.984   5.205  10.991  0.8335  0.5004  1.1043
  893MOL0     H23226   7.798   5.358  10.845 -0.5998 -1.3797 -0.7926
  893MOL0     H23227   7.945   5.421  10.773  3.1589 -3.0044 -1.2985
  893MOL0     H23228   7.886   5.124  10.797  1.3529 -0.7381  0.8523
  893MOL0     H23229   8.018   5.200  10.712  0.1946 -1.2593 -1.4415
  893MOL0     H23230   7.697   5.242  10.439  0.0355  0.9868  0.3204
  893MOL0     H23231   8.071   5.806  10.984  1.1505  1.0745  0.6245
  893MOL0     H23232   8.208   6.036  11.143 -2.5876 -0.6851 -0.2118
  893MOL0     H23233   8.322   6.062  11.012 -0.1854  0.3348 -0.5239
  893MOL0     H23234   8.155   6.025  10.969  2.5559  0.6852 -3.0626
  894MOL0     O23235   7.684   0.182   1.285  0.1455  0.1438  1.4150
  894MOL0     C23236   7.719   0.067   1.250  0.5545 -0.6169  0.3339
  894MOL0     O23237   7.847   0.022   1.215 -0.2892 -0.3092 -0.1003
  894MOL0     C23238   7.954   0.110   1.242 -0.4917  0.0891  0.5889
  894MOL0     C23239   8.007   0.108   1.371 -0.2378 -0.1334  0.1857
  894MOL0     C23240   8.129   0.177   1.393  0.0403  0.0412 -1.1092
  894MOL0     C23241   8.210   0.243   1.288 -0.0254 -0.1571 -0.3536
  894MOL0     O23242   8.321   0.312   1.319 -0.5580  1.0909  0.4269
  894MOL0     C23243   8.375   0.395   1.212  0.2181  0.2281 -0.8785
  894MOL0     C23244   8.473   0.485   1.281  1.1707 -0.1569  0.4881
  894MOL0     C23245   8.598   0.406   1.308  0.2066  0.6031  0.4158
  894MOL0     C23246   8.715   0.500   1.299 -0.3239  0.0594 -0.3675
  894MOL0     C23247   8.850   0.419   1.297  1.0590 -1.3562 -0.1805
  894MOL0     C23248   8.966   0.516   1.297 -0.3276 -0.5093  0.0475
  894MOL0     C23249   9.111   0.457   1.271  0.0949  0.4613  0.5270
  894MOL0     C23250   9.139   0.335   1.358  0.0700 -0.0125  0.1979
  894MOL0     N23251   9.283   0.300   1.352  0.7464  0.1653 -0.9194
  894MOL0     C23252   9.353   0.246   1.247 -0.2351 -0.1845  0.0260
  894MOL0     C23253   9.480   0.243   1.294 -0.1407  1.3555  0.1729
  894MOL0     C23254   9.591   0.173   1.211  0.6012  0.0164  0.2298
  894MOL0     C23255   9.732   0.219   1.251 -0.0679 -0.0292  0.2279
  894MOL0     C23256   9.845   0.181   1.150  0.5196  0.7377 -0.0805
  894MOL0     C23257   9.975   0.177   1.213 -0.1829  0.6056 -0.3215
  894MOL0     O23258  10.075   0.217   1.118  0.2298  0.7530  0.6208
  894MOL0     C23259  10.205   0.248   1.155  0.4702 -0.6814  0.6847
  894MOL0     C23260  10.267   0.200   1.267  0.0469  0.3680 -0.7370
  894MOL0     C23261  10.393   0.249   1.304 -0.4523  0.5782 -0.3132
  894MOL0     C23262  10.440   0.212   1.444  0.1698  0.3128  0.2233
  894MOL0     C23263  10.470   0.330   1.215 -0.2999  0.0423 -0.9555
  894MOL0     C23264  10.601   0.394   1.247 -0.3503 -0.0625  0.2387
  894MOL0     O23265  10.655   0.483   1.159 -0.2027  0.1271  0.1992
  894MOL0     C23266  10.781   0.541   1.168 -0.2668 -0.0939 -0.0045
  894MOL0     C23267  10.897   0.509   1.249  0.6639 -0.1960 -0.4734
  894MOL0     C23268  11.010   0.580   1.220 -1.0075  0.4077  0.0746
  894MOL0     C23269  11.027   0.678   1.115 -0.8310  0.3051 -0.1698
  894MOL0     O23270  11.141   0.761   1.095 -0.6130 -0.0336  0.3592
  894MOL0     C23271  11.268   0.720   1.149 -0.5625 -0.0948 -0.2766
  894MOL0     C23272  11.348   0.608   1.084  0.2440 -0.2915 -0.0309
  894MOL0     C23273  11.509   0.625   1.077  0.5964 -0.0343  0.6247
  894MOL0     C23274  11.543   0.702   0.945 -0.0969 -0.2586  0.4663
  894MOL0     C23275  11.683   0.761   0.947  0.0249 -0.3676 -0.4442
  894MOL0     C23276  11.707   0.865   0.841 -0.2477 -0.0971 -0.2579
  894MOL0     C23277  11.687   0.813   0.694 -0.5590  0.7268 -0.4656
  894MOL0     C23278  11.706   0.921   0.590 -0.1725  1.1259  0.2966
  894MOL0    Cl23279  11.565   1.026   0.588  0.2285  0.1222  0.0576
  894MOL0     C23280  10.913   0.700   1.040  0.5851 -0.3347  0.8597
  894MOL0     C23281  10.795   0.633   1.064 -0.2270 -1.1336  0.0461
  894MOL0     O23282  10.660   0.363   1.345 -0.1919 -0.7839  0.1708
  894MOL0     C23283  10.398   0.373   1.105 -0.5826  0.0741  0.1225
  894MOL0     C23284  10.271   0.333   1.068 -0.1909  0.0071 -0.0604
  894MOL0     N23285   9.483   0.272   1.430  0.4026  0.5184 -0.3979
  894MOL0     N23286   9.364   0.292   1.469  0.0552 -0.0768  0.1228
  894MOL0     C23287   8.149   0.234   1.158  0.6481  0.9849 -0.0495
  894MOL0     C23288   8.021   0.174   1.139 -0.1739 -0.0215  0.2919
  894MOL0     C23289   7.609  -0.033   1.255  0.8007 -0.0082  0.1175
  894MOL0     C23290   7.597  -0.112   1.368  0.7279  0.2889 -0.5372
  894MOL0     C23291   7.484  -0.198   1.382  0.4681 -0.9295  0.7415
  894MOL0     C23292   7.375  -0.198   1.288 -0.7182  0.6812  0.1001
  894MOL0     O23293   7.257  -0.256   1.290 -0.6649 -0.0991 -0.9475
  894MOL0     C23294   7.215  -0.326   1.411 -0.7991 -0.0093 -1.0318
  894MOL0     C23295   7.084  -0.397   1.371 -0.9467 -0.5870 -0.2201
  894MOL0     C23296   6.984  -0.304   1.307  0.0350 -0.4462 -0.0967
  894MOL0     C23297   6.958  -0.173   1.373  1.0329  0.5219 -1.0855
  894MOL0     C23298   6.863  -0.096   1.298  0.3942 -0.5533 -0.5100
  894MOL0     C23299   6.799  -0.037   1.215  0.8380 -0.2254  0.3079
  894MOL0     C23300   7.397  -0.130   1.171  0.6758 -0.0184 -0.3411
  894MOL0     C23301   7.507  -0.039   1.152  0.3832 -0.0109 -0.0298
  894MOL0     C23302   7.519   0.040   1.022 -0.2560  0.0432  0.2076
  894MOL0     H23303   7.954   0.054   1.449 -0.4166 -0.1255  0.0711
  894MOL0     H23304   8.160   0.189   1.496  0.5870  0.2410 -1.2907
  894MOL0     H23305   8.293   0.450   1.164  0.9966 -0.7853 -3.5775
  894MOL0     H23306   8.417   0.336   1.130 -0.9039  0.4780 -1.6577
  894MOL0     H23307   8.499   0.575   1.224  0.6218  0.0961  0.6357
  894MOL0     H23308   8.426   0.517   1.374  2.8270 -4.3231  3.1018
  894MOL0     H23309   8.593   0.342   1.397 -0.8097  1.1003  0.7329
  894MOL0     H23310   8.611   0.333   1.227 -0.5530 -0.7186  1.4437
  894MOL0     H23311   8.711   0.565   1.211  0.0676  2.4132  1.2651
  894MOL0     H23312   8.713   0.577   1.377 -1.4535  0.7912 -1.0923
  894MOL0     H23313   8.861   0.355   1.208  3.6994 -0.9492 -0.2317
  894MOL0     H23314   8.837   0.358   1.387 -0.9334  0.0428  0.5327
  894MOL0     H23315   8.951   0.586   1.215  1.0173 -0.7804 -0.4498
  894MOL0     H23316   8.969   0.569   1.392 -2.0372 -2.6792  1.4288
  894MOL0     H23317   9.181   0.538   1.291 -0.0503  0.6271  0.3658
  894MOL0     H23318   9.126   0.431   1.166  0.7609  0.7213  0.5534
  894MOL0     H23319   9.097   0.360   1.456 -0.2007  1.7581 -0.3356
  894MOL0     H23320   9.088   0.245   1.324  0.9087  0.5406 -2.7407
  894MOL0     H23321   9.309   0.235   1.149 -2.1672 -2.5631  1.0540
  894MOL0     H23322   9.568   0.196   1.107  0.3982 -1.1247  0.0141
  894MOL0     H23323   9.592   0.064   1.215  1.7629  0.0235  0.5231
  894MOL0     H23324   9.724   0.327   1.262  0.4364 -0.0336  0.6373
  894MOL0     H23325   9.760   0.170   1.344 -0.3955 -3.0698 -1.1570
  894MOL0     H23326   9.825   0.084   1.103 -1.9867  2.2307 -2.4001
  894MOL0     H23327   9.840   0.254   1.068  1.4417 -0.8506 -1.6068
  894MOL0     H23328   9.971   0.256   1.288 -0.9201  0.3141 -0.0462
  894MOL0     H23329   9.986   0.075   1.252  0.1937  0.7233 -0.1163
  894MOL0     H23330  10.208   0.132   1.329 -2.8495  1.9031 -1.6312
  894MOL0     H23331  10.534   0.158   1.432  0.1122  0.6687 -2.6951
  894MOL0     H23332  10.363   0.151   1.492 -0.7801  1.9504  0.8903
  894MOL0     H23333  10.435   0.302   1.506 -0.3495  0.8518 -0.5759
  894MOL0     H23334  10.885   0.446   1.336  1.2843 -1.0420 -0.9849
  894MOL0     H23335  11.094   0.561   1.286 -1.1512 -1.1432 -0.1357
  894MOL0     H23336  11.332   0.807   1.133  4.2571 -3.1575  0.3413
  894MOL0     H23337  11.270   0.705   1.257 -0.4250 -1.6967 -0.4850
  894MOL0     H23338  11.333   0.512   1.134  0.6860 -1.0888 -1.3597
  894MOL0     H23339  11.311   0.585   0.983  3.4329  0.8280 -1.5949
  894MOL0     H23340  11.546   0.522   1.069 -2.7665 -1.7126  3.7808
  894MOL0     H23341  11.562   0.665   1.164  0.4861  0.3567  0.5127
  894MOL0     H23342  11.479   0.791   0.943  0.9965  0.5509  0.6912
  894MOL0     H23343  11.517   0.647   0.853  2.1688 -0.5833 -0.0389
  894MOL0     H23344  11.706   0.804   1.045  0.7841  0.2928 -0.8949
  894MOL0     H23345  11.764   0.691   0.924  0.8317  0.9436 -1.8236
  894MOL0     H23346  11.813   0.893   0.836  0.0241 -0.8477  0.9333
  894MOL0     H23347  11.648   0.953   0.867 -2.3306 -2.1052  2.2351
  894MOL0     H23348  11.585   0.775   0.679  0.3169 -3.4096  2.3977
  894MOL0     H23349  11.752   0.725   0.690  1.8690  2.1136  3.2331
  894MOL0     H23350  11.737   0.888   0.490 -0.9992 -0.6923  0.5995
  894MOL0     H23351  11.800   0.974   0.612  0.4910  1.4831 -2.9267
  894MOL0     H23352  10.934   0.764   0.955 -1.5356 -1.0782 -0.2900
  894MOL0     H23353  10.714   0.642   0.993 -0.1610 -0.0985  0.0933
  894MOL0     H23354  10.435   0.449   1.036  1.8374  1.0058  2.2858
  894MOL0     H23355  10.231   0.364   0.972  1.3867 -0.6945 -0.9753
  894MOL0     H23356   8.202   0.276   1.073  2.2680 -0.1790  0.3424
  894MOL0     H23357   7.972   0.168   1.043 -1.4544 -1.4993  0.9924
  894MOL0     H23358   7.670  -0.113   1.449  0.9467  1.9408 -0.6766
  894MOL0     H23359   7.475  -0.272   1.460  1.1036  0.2096  1.9365
  894MOL0     H23360   7.294  -0.395   1.440 -2.7849 -1.6667  0.7956
  894MOL0     H23361   7.197  -0.255   1.493 -1.9031  1.7915 -2.7435
  894MOL0     H23362   7.049  -0.438   1.467  4.0391  0.5668  2.4251
  894MOL0     H23363   7.103  -0.471   1.293 -1.5448  0.9065 -1.8335
  894MOL0     H23364   7.015  -0.284   1.204 -0.1376  0.7553  0.0626
  894MOL0     H23365   6.889  -0.358   1.301 -0.7548  1.0120 -2.2373
  894MOL0     H23366   7.043  -0.108   1.393 -0.1554  1.8312 -0.1550
  894MOL0     H23367   6.907  -0.192   1.468  1.9385  6.2284  0.9347
  894MOL0     H23368   6.731   0.013   1.148  2.7852 -1.9163 -3.2353
  894MOL0     H23369   7.313  -0.141   1.104 -0.4468  2.1954  0.5910
  894MOL0     H23370   7.481  -0.002   0.929  1.6297 -0.6411 -0.2969
  894MOL0     H23371   7.468   0.135   1.041  0.7659  0.7011 -0.2645
  894MOL0     H23372   7.624   0.052   0.994 -0.1321 -2.5556 -0.7027
  895MOL0     O23373   8.981   7.588   8.319 -0.0355 -0.2893  0.0507
  895MOL0     C23374   8.949   7.670   8.405  0.3576  0.4270  0.3022
  895MOL0     O23375   9.041   7.762   8.455  0.8086  0.1165 -0.5113
  895MOL0     C23376   9.170   7.739   8.425  0.8677  0.6177 -0.0822
  895MOL0     C23377   9.223   7.764   8.297 -0.5015  0.6828  0.6873
  895MOL0     C23378   9.356   7.736   8.264  0.5415  0.3264  1.1581
  895MOL0     C23379   9.444   7.680   8.359 -0.5256 -0.9693  0.7294
  895MOL0     O23380   9.579   7.648   8.325  0.4606 -0.1682 -0.5236
  895MOL0     C23381   9.676   7.648   8.429  0.5297 -0.0701 -0.4508
  895MOL0     C23382   9.810   7.661   8.358 -0.5098  0.7536  0.4697
  895MOL0     C23383   9.926   7.671   8.466  0.0924 -0.2682  0.8412
  895MOL0     C23384  10.060   7.695   8.407  0.4273  0.4335  0.0976
  895MOL0     C23385  10.159   7.708   8.522  0.8075  0.3396  0.0063
  895MOL0     C23386  10.307   7.718   8.460  0.7431 -0.7415 -1.1933
  895MOL0     C23387  10.361   7.576   8.428  0.8321  0.0446 -0.1925
  895MOL0     C23388  10.502   7.580   8.376 -0.2673  0.5748  0.6072
  895MOL0     N23389  10.603   7.588   8.487 -0.1894 -0.3155 -0.4269
  895MOL0     C23390  10.661   7.704   8.529 -0.3272  0.2020  0.6734
  895MOL0     C23391  10.770   7.663   8.599  0.1161  0.5519 -0.5393
  895MOL0     C23392  10.836   7.750   8.693  0.1270  0.3123 -0.0350
  895MOL0     C23393  10.932   7.686   8.797  0.8462 -0.0544  0.4925
  895MOL0     C23394  11.053   7.627   8.737 -0.8847  0.0301  0.4000
  895MOL0     C23395  11.164   7.587   8.834  0.7531  0.2405  0.5793
  895MOL0     O23396  11.278   7.545   8.756  0.2623 -0.1769  0.0812
  895MOL0     C23397  11.396   7.514   8.817  0.6902 -0.1783  0.5789
  895MOL0     C23398  11.428   7.489   8.951 -0.2021  0.0957 -0.2991
  895MOL0     C23399  11.554   7.452   8.997  0.4407 -0.4610 -0.8540
  895MOL0     C23400  11.564   7.441   9.146  0.5991 -0.4452 -0.4049
  895MOL0     C23401  11.655   7.432   8.904 -0.0830  0.8187 -0.3575
  895MOL0     C23402  11.792   7.378   8.936  0.8751  0.2758 -0.5289
  895MOL0     O23403  11.887   7.394   8.838 -0.5322 -0.0020  0.4128
  895MOL0     C23404  12.017   7.352   8.843 -0.3061 -0.3472  0.0290
  895MOL0     C23405  12.062   7.278   8.730 -0.4196 -0.2848  0.3368
  895MOL0     C23406  12.196   7.230   8.728 -0.4963  0.4630 -0.0652
  895MOL0     C23407  12.280   7.240   8.841  0.3056  0.6144  0.3823
  895MOL0     O23408  12.399   7.170   8.866  0.7937  0.4764 -0.4253
  895MOL0     C23409  12.457   7.080   8.765 -0.1158 -0.6754  0.4876
  895MOL0     C23410  12.587   7.014   8.810 -0.5993 -0.6760  0.2343
  895MOL0     C23411  12.590   6.983   8.955  0.8820  0.0610  0.0920
  895MOL0     C23412  12.724   6.926   9.003 -0.3633 -0.2809 -0.2225
  895MOL0     C23413  12.828   7.043   9.032 -0.3053  0.1180  1.0944
  895MOL0     C23414  12.948   6.980   9.098 -1.1363 -0.0974 -0.5163
  895MOL0     C23415  13.050   7.085   9.159 -0.5993 -0.5448 -0.2539
  895MOL0     C23416  13.178   7.035   9.234 -0.0944 -0.7606 -0.5194
  895MOL0    Cl23417  13.269   6.922   9.133  0.1049  0.1408  0.0604
  895MOL0     C23418  12.241   7.327   8.939  0.5439 -0.9079  0.0685
  895MOL0     C23419  12.112   7.387   8.945  0.0819  0.2258 -0.3585
  895MOL0     O23420  11.820   7.348   9.053  0.7813  0.0779 -0.5048
  895MOL0     C23421  11.626   7.458   8.771 -0.8241 -0.3154 -0.1818
  895MOL0     C23422  11.501   7.493   8.725  0.7310 -0.7160  0.0265
  895MOL0     N23423  10.772   7.524   8.597  0.0493  0.3184  0.4479
  895MOL0     N23424  10.676   7.484   8.522  0.6489  0.2600  0.1633
  895MOL0     C23425   9.383   7.646   8.477  0.0177 -0.7394 -0.2112
  895MOL0     C23426   9.253   7.669   8.515 -0.4220 -0.4492  0.5080
  895MOL0     C23427   8.816   7.678   8.475  0.4813  0.1974  0.0938
  895MOL0     C23428   8.818   7.708   8.607  0.0847  0.4002 -0.1866
  895MOL0     C23429   8.700   7.718   8.680 -0.3733 -0.0837 -0.3310
  895MOL0     C23430   8.575   7.691   8.622 -0.3878  0.7759 -0.1700
  895MOL0     O23431   8.454   7.668   8.697 -0.2898  0.3737  0.7247
  895MOL0     C23432   8.465   7.663   8.846  0.1488  0.6705 -0.2557
  895MOL0     C23433   8.333   7.601   8.897 -0.8065  0.5524 -0.4078
  895MOL0     C23434   8.318   7.600   9.051  0.5756  0.3085 -0.3903
  895MOL0     C23435   8.224   7.492   9.108  0.4661 -0.6928 -0.3106
  895MOL0     C23436   8.088   7.500   9.054  0.9537  0.2978 -0.1670
  895MOL0     C23437   7.965   7.501   9.045 -0.0185  1.1313 -0.3334
  895MOL0     C23438   8.573   7.649   8.483  0.0846 -0.5124 -0.2770
  895MOL0     C23439   8.694   7.643   8.407 -0.6169  0.0548 -0.1029
  895MOL0     C23440   8.690   7.614   8.260  0.3760  0.7743 -0.0033
  895MOL0     H23441   9.156   7.811   8.225  0.9536  0.1462 -1.0801
  895MOL0     H23442   9.386   7.756   8.162  0.6974  1.6984  1.4437
  895MOL0     H23443   9.662   7.562   8.495 -1.6229  0.5055 -0.0673
  895MOL0     H23444   9.669   7.733   8.497  2.0919 -1.5659  1.6918
  895MOL0     H23445   9.819   7.571   8.297 -1.8047  0.5509  0.5496
  895MOL0     H23446   9.805   7.749   8.294  1.2753  0.9409  0.5270
  895MOL0     H23447   9.910   7.754   8.536  2.4798 -0.9253  2.2915
  895MOL0     H23448   9.933   7.582   8.528  0.4900 -0.2006  0.8977
  895MOL0     H23449  10.083   7.610   8.341  0.5871 -1.8813  2.9369
  895MOL0     H23450  10.051   7.787   8.348  1.6667  0.5119 -0.0072
  895MOL0     H23451  10.143   7.635   8.602  0.1581  1.3973  0.8699
  895MOL0     H23452  10.142   7.808   8.563 -0.1582 -0.2778  1.1947
  895MOL0     H23453  10.314   7.786   8.375  0.8921 -0.9244 -1.3267
  895MOL0     H23454  10.364   7.753   8.546  0.3351 -0.0672 -1.1891
  895MOL0     H23455  10.296   7.533   8.351 -2.2814 -0.2118  2.3632
  895MOL0     H23456  10.353   7.511   8.516 -3.6094 -0.0892 -0.4235
  895MOL0     H23457  10.519   7.489   8.318  0.0055  1.6600 -1.0981
  895MOL0     H23458  10.499   7.657   8.298 -0.5098 -2.5247 -2.7247
  895MOL0     H23459  10.631   7.809   8.527  3.4728  1.4568  1.2123
  895MOL0     H23460  10.761   7.816   8.737 -0.7436 -0.0729 -0.9084
  895MOL0     H23461  10.908   7.816   8.643  0.7903  1.2124  1.9913
  895MOL0     H23462  10.963   7.769   8.861  0.4703  1.1886 -0.9005
  895MOL0     H23463  10.870   7.614   8.852 -1.5004 -1.2447 -3.3502
  895MOL0     H23464  11.024   7.543   8.673 -1.9439 -1.2502  2.4503
  895MOL0     H23465  11.102   7.701   8.672 -2.2121  0.5136 -0.0863
  895MOL0     H23466  11.190   7.668   8.904  1.9698 -1.3919  2.1044
  895MOL0     H23467  11.120   7.508   8.895  0.1063  1.8349  2.2869
  895MOL0     H23468  11.353   7.487   9.029  1.1922 -1.1976  1.0651
  895MOL0     H23469  11.479   7.491   9.192  2.2787  1.3470  0.9112
  895MOL0     H23470  11.658   7.484   9.183  0.8303 -0.0264 -1.4401
  895MOL0     H23471  11.559   7.334   9.167 -1.4427 -0.3826 -0.4521
  895MOL0     H23472  11.993   7.275   8.647 -0.5172 -1.0950  0.4402
  895MOL0     H23473  12.241   7.178   8.644 -1.8498  5.3952 -4.3574
  895MOL0     H23474  12.392   6.995   8.743  1.6600 -1.0748 -4.5336
  895MOL0     H23475  12.468   7.138   8.673 -2.0713  2.1834  1.8974
  895MOL0     H23476  12.605   6.920   8.756 -0.4671 -0.7276  0.3660
  895MOL0     H23477  12.667   7.083   8.784 -0.3127 -0.7727  0.8220
  895MOL0     H23478  12.511   6.910   8.970  2.3273 -2.0750 -1.9224
  895MOL0     H23479  12.564   7.079   9.000  2.3567  0.9035 -0.7462
  895MOL0     H23480  12.763   6.863   8.922 -0.4351 -0.8323  0.1618
  895MOL0     H23481  12.709   6.866   9.093 -1.3279 -1.5843 -1.1939
  895MOL0     H23482  12.860   7.081   8.935  3.3653 -1.7388  1.3948
  895MOL0     H23483  12.787   7.117   9.102 -1.4831  0.0949  0.4519
  895MOL0     H23484  12.998   6.916   9.025 -0.0726  0.1646 -0.0330
  895MOL0     H23485  12.926   6.920   9.187  1.5205  0.0127  0.2818
  895MOL0     H23486  12.997   7.143   9.235  0.9886 -1.5330  1.6890
  895MOL0     H23487  13.094   7.155   9.087 -0.7391 -1.0870 -0.8722
  895MOL0     H23488  13.145   6.964   9.311 -1.4475  0.8348  0.4343
  895MOL0     H23489  13.231   7.114   9.288 -1.3198 -1.1945  1.4456
  895MOL0     H23490  12.311   7.334   9.022  1.4768 -0.0742 -0.7553
  895MOL0     H23491  12.078   7.446   9.029  0.6251  0.9634 -0.6448
  895MOL0     H23492  11.696   7.443   8.689  1.4020  3.3565  0.7894
  895MOL0     H23493  11.495   7.496   8.617  0.5422  2.5916  0.0438
  895MOL0     H23494   9.447   7.605   8.554  1.0029  1.7249  0.3798
  895MOL0     H23495   9.210   7.644   8.612 -2.4484 -3.8595 -1.0996
  895MOL0     H23496   8.912   7.727   8.657  0.6776 -0.5063 -0.9139
  895MOL0     H23497   8.720   7.734   8.785  2.3504  2.3523 -1.0831
  895MOL0     H23498   8.553   7.604   8.873 -0.2267  0.8552  1.5086
  895MOL0     H23499   8.464   7.764   8.888  0.6682  0.5280  0.1113
  895MOL0     H23500   8.327   7.495   8.872  0.3152 -0.1178  1.8353
  895MOL0     H23501   8.252   7.661   8.856 -0.6332  1.5316  0.6073
  895MOL0     H23502   8.414   7.563   9.088  0.3510  1.7239  1.8408
  895MOL0     H23503   8.311   7.703   9.089  0.4830 -0.4482  1.7659
  895MOL0     H23504   8.225   7.504   9.216  2.3231  1.1384 -0.4847
  895MOL0     H23505   8.262   7.390   9.090  0.0420 -0.3813 -3.6609
  895MOL0     H23506   7.859   7.505   9.060  0.1039  0.4915  0.8581
  895MOL0     H23507   8.475   7.624   8.443 -1.4737 -1.3545  3.6105
  895MOL0     H23508   8.593   7.651   8.224 -0.2396  0.4581  1.2622
  895MOL0     H23509   8.763   7.669   8.200  0.0105 -0.0404 -1.2365
  895MOL0     H23510   8.703   7.508   8.237 -1.0803  0.7488 -0.8402
  896MOL0     O23511   6.514   2.100   8.730 -0.1333 -0.3865  0.4425
  896MOL0     C23512   6.563   2.131   8.833 -0.0481 -0.6299 -0.5947
  896MOL0     O23513   6.690   2.116   8.866  0.1948  0.8417 -0.1030
  896MOL0     C23514   6.774   2.067   8.771 -0.3658  0.7355  0.0624
  896MOL0     C23515   6.842   1.946   8.801 -0.1844  0.6517  0.3566
  896MOL0     C23516   6.935   1.894   8.717 -0.3793 -0.3601 -0.5889
  896MOL0     C23517   6.972   1.965   8.604  0.4622 -0.1368  0.2970
  896MOL0     O23518   7.068   1.901   8.532 -0.0407 -0.3100  0.3447
  896MOL0     C23519   7.139   1.973   8.436  0.1012  0.7292  0.4503
  896MOL0     C23520   7.236   1.877   8.364  0.8465 -0.1580 -0.4430
  896MOL0     C23521   7.353   1.828   8.439 -0.5636  0.2167  0.3687
  896MOL0     C23522   7.460   1.765   8.340 -0.3533 -0.4024 -0.7280
  896MOL0     C23523   7.588   1.706   8.407 -0.1714 -0.1548  0.2865
  896MOL0     C23524   7.702   1.691   8.312  0.2980 -0.0491 -0.0697
  896MOL0     C23525   7.817   1.606   8.374 -0.1642  0.0756  0.7019
  896MOL0     C23526   7.916   1.670   8.472 -0.1462  0.4897  0.2603
  896MOL0     N23527   8.018   1.568   8.520 -0.4600 -0.8803 -0.0782
  896MOL0     C23528   8.045   1.548   8.651 -0.9791  0.1355 -0.5848
  896MOL0     C23529   8.166   1.491   8.650 -0.3320  0.0834 -0.9478
  896MOL0     C23530   8.238   1.473   8.781 -0.5805 -0.1538 -0.1977
  896MOL0     C23531   8.356   1.384   8.774 -0.5250 -0.3954 -0.9337
  896MOL0     C23532   8.335   1.229   8.766  0.5211  1.0658 -0.5313
  896MOL0     C23533   8.468   1.153   8.740 -0.2006 -0.2455 -0.6798
  896MOL0     O23534   8.550   1.181   8.857 -1.4599 -0.1288 -0.6377
  896MOL0     C23535   8.684   1.193   8.828 -0.5820 -0.2197  0.3271
  896MOL0     C23536   8.729   1.283   8.730 -0.1182  0.6949  0.2672
  896MOL0     C23537   8.869   1.301   8.703 -0.8364  0.2420 -0.0296
  896MOL0     C23538   8.906   1.423   8.621  0.1526  0.2897  0.6023
  896MOL0     C23539   8.970   1.231   8.779  0.6591  0.1883 -0.2544
  896MOL0     C23540   9.116   1.263   8.768 -0.2318  0.2678  0.1881
  896MOL0     O23541   9.181   1.260   8.890 -0.5580  0.4218  0.2988
  896MOL0     C23542   9.303   1.316   8.909 -0.0521 -0.3859 -0.6297
  896MOL0     C23543   9.395   1.252   8.996 -0.4000 -0.2882 -0.1473
  896MOL0     C23544   9.521   1.314   9.026 -0.1468  0.4921  0.4584
  896MOL0     C23545   9.557   1.432   8.968  0.2737 -0.4226  0.2811
  896MOL0     O23546   9.672   1.502   8.998 -0.6586 -0.1726  0.2667
  896MOL0     C23547   9.783   1.414   8.997 -0.4575 -0.6955 -0.4957
  896MOL0     C23548   9.906   1.491   8.956 -0.0464 -0.6355  0.0143
  896MOL0     C23549   9.908   1.535   8.799  0.5564  0.4712 -0.2434
  896MOL0     C23550  10.054   1.593   8.771  0.4748  0.5783 -0.6535
  896MOL0     C23551  10.083   1.611   8.625 -0.3708  0.3840 -0.5037
  896MOL0     C23552  10.238   1.629   8.614  0.3026 -0.5938 -0.0044
  896MOL0     C23553  10.305   1.770   8.645  0.8918  0.0329  0.0867
  896MOL0     C23554  10.245   1.890   8.570  0.0493  0.0771 -0.3882
  896MOL0    Cl23555  10.260   1.898   8.393  0.1438 -0.1182 -0.4752
  896MOL0     C23556   9.454   1.501   8.894 -0.1332  0.3965 -0.1581
  896MOL0     C23557   9.325   1.449   8.873  0.0900  0.5222  0.6608
  896MOL0     O23558   9.170   1.294   8.657  0.7230  0.0731 -0.4638
  896MOL0     C23559   8.923   1.149   8.886 -0.2670  0.7391  1.7173
  896MOL0     C23560   8.790   1.121   8.900  0.3888  0.2431  0.8689
  896MOL0     N23561   8.193   1.462   8.524  0.1863 -0.1087 -0.2754
  896MOL0     N23562   8.115   1.511   8.439 -0.3156 -0.0728  0.0593
  896MOL0     C23563   6.915   2.089   8.571 -0.2964 -0.3794 -0.5322
  896MOL0     C23564   6.819   2.138   8.656 -0.7720  0.0889 -0.2647
  896MOL0     C23565   6.469   2.198   8.931 -0.9024 -0.0941 -0.5053
  896MOL0     C23566   6.529   2.298   9.011 -0.1778 -0.2270  0.3069
  896MOL0     C23567   6.455   2.371   9.101  0.2475 -0.3982  0.5789
  896MOL0     C23568   6.319   2.344   9.112  0.2168 -0.5928 -0.4352
  896MOL0     O23569   6.259   2.417   9.215 -0.1473 -0.0181  0.6044
  896MOL0     C23570   6.132   2.375   9.266 -0.0303  0.1724 -0.4431
  896MOL0     C23571   6.072   2.470   9.375 -0.1377 -0.4275 -0.0174
  896MOL0     C23572   6.057   2.617   9.337  0.0978  0.0081  0.3755
  896MOL0     C23573   5.992   2.707   9.447  0.6908  0.0785  0.3832
  896MOL0     C23574   5.849   2.683   9.442 -0.0983 -0.7019  0.3060
  896MOL0     C23575   5.734   2.647   9.448 -0.3377  0.6663  0.5243
  896MOL0     C23576   6.262   2.246   9.037 -0.5459 -0.9414  0.4704
  896MOL0     C23577   6.332   2.181   8.933 -0.1718  0.4152 -0.8336
  896MOL0     C23578   6.260   2.085   8.861  0.2156  0.1415  0.2668
  896MOL0     H23579   6.820   1.902   8.898 -2.0964  1.7071  0.4443
  896MOL0     H23580   6.996   1.816   8.761 -2.0270 -1.1821  0.3445
  896MOL0     H23581   7.194   2.055   8.481 -0.5690  0.8532  1.0573
  896MOL0     H23582   7.069   2.019   8.364 -0.3319  0.3928  0.6503
  896MOL0     H23583   7.177   1.788   8.336 -1.3168  0.9193  0.4357
  896MOL0     H23584   7.269   1.931   8.275 -1.3590  0.7306 -0.7998
  896MOL0     H23585   7.386   1.909   8.504  1.5374  1.3527 -1.9575
  896MOL0     H23586   7.316   1.748   8.505  0.1823 -1.8582 -1.6108
  896MOL0     H23587   7.414   1.680   8.290  0.4781 -0.6494 -1.0924
  896MOL0     H23588   7.497   1.845   8.276  0.5398 -0.7372 -0.6422
  896MOL0     H23589   7.571   1.601   8.431 -0.0227  0.2659  2.4584
  896MOL0     H23590   7.624   1.760   8.496  0.8351 -1.1106  0.4776
  896MOL0     H23591   7.661   1.650   8.220  0.4010 -1.6951  0.5897
  896MOL0     H23592   7.734   1.794   8.294  1.1544 -0.2040  0.4952
  896MOL0     H23593   7.879   1.573   8.290 -1.1237  0.1380 -0.0364
  896MOL0     H23594   7.789   1.513   8.425 -1.2045  1.1484  2.1360
  896MOL0     H23595   7.979   1.748   8.429  0.8725 -0.3705  0.1541
  896MOL0     H23596   7.851   1.703   8.554 -0.9118 -0.1018 -0.1007
  896MOL0     H23597   7.994   1.575   8.742  0.1527  0.9355 -0.1703
  896MOL0     H23598   8.164   1.433   8.851 -0.8283  0.5403 -0.0568
  896MOL0     H23599   8.272   1.574   8.807 -0.3852 -0.1623 -0.4175
  896MOL0     H23600   8.412   1.412   8.684 -1.1459 -1.8743 -1.8013
  896MOL0     H23601   8.423   1.399   8.860 -3.4738  0.1873  1.4250
  896MOL0     H23602   8.284   1.195   8.856  2.1198  2.5109  1.0008
  896MOL0     H23603   8.264   1.215   8.684  0.5411  2.5438 -0.8433
  896MOL0     H23604   8.453   1.046   8.725  3.1284 -0.9057 -0.2497
  896MOL0     H23605   8.518   1.186   8.649  4.8489  0.2502  1.8730
  896MOL0     H23606   8.659   1.340   8.670 -0.7980 -1.3439 -0.9846
  896MOL0     H23607   8.977   1.492   8.667  1.3615 -0.6626  0.2130
  896MOL0     H23608   8.810   1.472   8.600 -0.7251 -1.0588  1.3218
  896MOL0     H23609   8.935   1.390   8.521 -2.1408  2.5169 -0.9431
  896MOL0     H23610   9.364   1.159   9.043 -0.3879 -0.3905 -0.3396
  896MOL0     H23611   9.592   1.275   9.097 -1.8666 -0.4782  1.7245
  896MOL0     H23612   9.808   1.379   9.097  2.3529  0.7131 -0.6082
  896MOL0     H23613   9.779   1.322   8.937  0.1377 -0.7644 -0.4361
  896MOL0     H23614   9.912   1.590   9.002  0.1869 -0.5330 -0.2314
  896MOL0     H23615   9.998   1.438   8.981 -0.0799 -2.1257 -2.5890
  896MOL0     H23616   9.833   1.611   8.777 -0.2721 -0.2273  0.1184
  896MOL0     H23617   9.886   1.450   8.733  0.9886  0.0158  0.1831
  896MOL0     H23618  10.127   1.530   8.822  0.7126 -0.4351 -2.1923
  896MOL0     H23619  10.064   1.691   8.819 -1.2022  0.3683  0.2244
  896MOL0     H23620  10.061   1.514   8.579 -0.4283  0.6042 -0.9463
  896MOL0     H23621  10.021   1.695   8.592 -0.0690  0.6117 -0.4917
  896MOL0     H23622  10.257   1.617   8.507 -3.3468  2.0060 -1.1515
  896MOL0     H23623  10.282   1.545   8.669  0.7262 -0.5717 -0.3021
  896MOL0     H23624  10.414   1.771   8.638  0.9556  0.7899  0.9208
  896MOL0     H23625  10.280   1.793   8.749 -1.9701  0.1212 -0.5503
  896MOL0     H23626  10.287   1.984   8.608 -1.3850  1.2712 -1.6163
  896MOL0     H23627  10.139   1.902   8.593  0.2135 -0.1487  0.4914
  896MOL0     H23628   9.464   1.605   8.863  3.8082  0.0876 -0.4818
  896MOL0     H23629   9.249   1.510   8.825  0.3456  0.5989  0.3478
  896MOL0     H23630   8.989   1.109   8.962  0.8381  3.3261  2.2339
  896MOL0     H23631   8.749   1.050   8.971 -1.9612 -0.3671 -0.9294
  896MOL0     H23632   6.948   2.146   8.485 -0.5603  0.2480 -0.2309
  896MOL0     H23633   6.774   2.236   8.641  0.2109  0.6897  0.4888
  896MOL0     H23634   6.630   2.326   8.983  0.0185 -2.6381 -1.7814
  896MOL0     H23635   6.501   2.455   9.153 -0.1180  0.0663  0.1660
  896MOL0     H23636   6.066   2.357   9.181 -2.9167  0.6562  1.5216
  896MOL0     H23637   6.149   2.283   9.323 -3.4403 -0.7265 -0.6430
  896MOL0     H23638   6.140   2.464   9.461  0.8415 -2.4834 -0.8632
  896MOL0     H23639   5.978   2.429   9.414 -0.9626  1.4757  0.0966
  896MOL0     H23640   6.156   2.661   9.320 -0.0236  0.9346  1.9323
  896MOL0     H23641   6.000   2.623   9.243  0.1792 -0.8348  0.2629
  896MOL0     H23642   6.007   2.812   9.419 -1.0149 -0.0993 -1.4590
  896MOL0     H23643   6.048   2.685   9.537  1.3427  1.5119  0.3641
  896MOL0     H23644   5.645   2.588   9.454  1.2957 -2.3588 -2.0356
  896MOL0     H23645   6.157   2.222   9.054 -1.5098  1.8800 -0.9825
  896MOL0     H23646   6.259   1.987   8.910 -1.4686  0.0612  0.1530
  896MOL0     H23647   6.152   2.103   8.863  0.2181  1.4137 -3.5010
  896MOL0     H23648   6.288   2.076   8.756  0.9315  2.6598  0.1798
  897MOL0     O23649   9.851   1.595   3.264  0.2884  0.7302  0.0515
  897MOL0     C23650   9.811   1.570   3.147 -1.4174 -0.7644 -0.6709
  897MOL0     O23651   9.881   1.504   3.055 -0.0559 -0.5521 -0.6455
  897MOL0     C23652  10.014   1.477   3.089  0.9665 -0.2776  0.1110
  897MOL0     C23653  10.114   1.547   3.028  1.3567  0.1214 -0.7580
  897MOL0     C23654  10.247   1.504   3.034  0.4070 -0.3959  0.1653
  897MOL0     C23655  10.281   1.384   3.107  0.3376 -0.8333 -0.5587
  897MOL0     O23656  10.398   1.317   3.128 -0.1371 -0.0776 -0.3727
  897MOL0     C23657  10.514   1.395   3.097 -0.2745  0.3115  0.2222
  897MOL0     C23658  10.631   1.310   3.148 -0.8324  0.0151 -0.1223
  897MOL0     C23659  10.684   1.207   3.055 -0.3904 -0.4346  0.7286
  897MOL0     C23660  10.804   1.266   2.972 -1.0408 -0.5369 -0.4487
  897MOL0     C23661  10.888   1.162   2.904 -0.0286  0.6503  0.3944
  897MOL0     C23662  10.971   1.065   2.986 -0.0934 -0.7595 -0.0665
  897MOL0     C23663  11.086   1.132   3.047 -0.6246  0.1827  0.2531
  897MOL0     C23664  11.151   1.033   3.149  0.3904  0.5956 -0.2968
  897MOL0     N23665  11.236   0.932   3.089  0.2582 -0.1669 -0.4572
  897MOL0     C23666  11.185   0.823   3.023 -0.6457  0.5270 -0.0659
  897MOL0     C23667  11.287   0.767   2.951  0.4429  0.2015  0.0540
  897MOL0     C23668  11.289   0.638   2.870  0.4883 -0.2873  0.2638
  897MOL0     C23669  11.204   0.529   2.942 -0.0282  0.2730 -0.6741
  897MOL0     C23670  11.285   0.456   3.055 -0.1755 -0.1312  0.4794
  897MOL0     C23671  11.411   0.383   3.002  0.4508  0.0972  0.2255
  897MOL0     O23672  11.381   0.305   2.890  0.5744  0.0257  0.2878
  897MOL0     C23673  11.481   0.221   2.841 -0.1861  0.9508 -0.4862
  897MOL0     C23674  11.442   0.130   2.751  0.0917  0.5214  0.5103
  897MOL0     C23675  11.531   0.030   2.703  0.1235  0.5486  0.2996
  897MOL0     C23676  11.474  -0.059   2.596 -0.7001  0.8623 -0.3150
  897MOL0     C23677  11.672   0.028   2.733 -0.1931 -1.3187 -0.2964
  897MOL0     C23678  11.769  -0.057   2.660 -0.1268  0.4008 -0.2301
  897MOL0     O23679  11.748  -0.076   2.530 -0.6194  0.2717 -0.4174
  897MOL0     C23680  11.836  -0.136   2.445  0.4739  0.1481 -0.8566
  897MOL0     C23681  11.938  -0.229   2.479  1.1817 -0.1111 -0.1395
  897MOL0     C23682  12.026  -0.281   2.389  0.2212  1.9020  0.6504
  897MOL0     C23683  12.012  -0.242   2.254 -0.5545 -0.5513  0.1467
  897MOL0     O23684  12.095  -0.294   2.164  0.0421  0.9999 -0.3482
  897MOL0     C23685  12.130  -0.221   2.044  0.1518  0.5738 -0.1992
  897MOL0     C23686  12.241  -0.116   2.081 -0.5384 -0.3685 -0.0564
  897MOL0     C23687  12.315  -0.140   2.218  0.6639 -0.4039 -1.2903
  897MOL0     C23688  12.407  -0.031   2.250  0.3582 -0.3330  0.4282
  897MOL0     C23689  12.512  -0.064   2.358 -0.3707  0.2809 -0.6366
  897MOL0     C23690  12.611  -0.176   2.335 -0.6164  0.1363  0.7201
  897MOL0     C23691  12.731  -0.163   2.429  0.2191 -0.7287  0.4936
  897MOL0     C23692  12.829  -0.263   2.385 -0.1874  0.0769 -1.1071
  897MOL0    Cl23693  12.996  -0.219   2.441 -0.4639  0.5914 -0.2717
  897MOL0     C23694  11.910  -0.149   2.212  0.3000  0.2718 -0.0254
  897MOL0     C23695  11.824  -0.102   2.313  0.3041  0.4908 -0.6140
  897MOL0     O23696  11.867  -0.093   2.727  0.5175 -0.2758  0.2371
  897MOL0     C23697  11.710   0.123   2.835  0.7098 -0.0915  0.4289
  897MOL0     C23698  11.619   0.217   2.885  0.1349  0.0140  0.6292
  897MOL0     N23699  11.403   0.839   2.984  0.2009  0.4467 -0.1275
  897MOL0     N23700  11.376   0.938   3.063 -0.6835 -0.5893 -0.3188
  897MOL0     C23701  10.178   1.317   3.170 -0.4314  0.1438  0.0464
  897MOL0     C23702  10.040   1.360   3.160 -0.0645 -0.0312  0.6273
  897MOL0     C23703   9.670   1.572   3.118  0.0390 -0.3732 -0.3224
  897MOL0     C23704   9.612   1.459   3.050 -0.0371 -1.0794 -0.3813
  897MOL0     C23705   9.474   1.464   3.028 -0.2911  0.3899  0.1583
  897MOL0     C23706   9.391   1.564   3.075 -0.5469  0.0764  0.5127
  897MOL0     O23707   9.258   1.539   3.064  0.4665  0.5673  0.1976
  897MOL0     C23708   9.164   1.607   3.144  0.3149 -0.3738  0.3498
  897MOL0     C23709   9.026   1.565   3.099  0.7548  0.4354  0.0241
  897MOL0     C23710   8.916   1.619   3.181 -0.5694  0.0220 -0.1779
  897MOL0     C23711   8.773   1.610   3.116  0.3995 -0.8596  0.0528
  897MOL0     C23712   8.675   1.668   3.208  0.0795 -0.9324  0.2914
  897MOL0     C23713   8.596   1.732   3.283 -0.4913  0.1659 -0.3964
  897MOL0     C23714   9.451   1.663   3.148 -0.3266  0.3698 -0.3910
  897MOL0     C23715   9.593   1.676   3.166  0.2633  0.4177 -0.3175
  897MOL0     C23716   9.645   1.792   3.245 -0.3435 -0.4193  0.8109
  897MOL0     H23717  10.089   1.634   2.969 -0.5679 -0.9362 -1.6024
  897MOL0     H23718  10.325   1.555   2.979  0.0823  1.4187  1.2795
  897MOL0     H23719  10.500   1.491   3.149 -0.4761  1.3860 -1.7063
  897MOL0     H23720  10.529   1.413   2.990  1.8154 -0.9950  0.2467
  897MOL0     H23721  10.709   1.385   3.168  0.5642 -1.5967  0.7272
  897MOL0     H23722  10.604   1.260   3.242  2.2975 -0.8089  0.4644
  897MOL0     H23723  10.711   1.128   3.126 -0.7535 -1.5837 -0.3787
  897MOL0     H23724  10.611   1.160   2.989 -1.6673  0.8513  1.1633
  897MOL0     H23725  10.772   1.335   2.894 -1.0793 -0.8042 -0.6720
  897MOL0     H23726  10.865   1.321   3.044  2.1070 -0.7029 -2.7792
  897MOL0     H23727  10.957   1.219   2.841 -2.1834  0.6771 -2.0708
  897MOL0     H23728  10.829   1.091   2.846  2.6773 -1.7583  0.3734
  897MOL0     H23729  10.896   1.024   3.055 -1.5216  1.6215 -0.1058
  897MOL0     H23730  10.995   0.979   2.923 -0.7044 -0.2822 -0.9672
  897MOL0     H23731  11.059   1.228   3.091  2.6110  2.6444 -2.5236
  897MOL0     H23732  11.167   1.153   2.976  0.3296  2.6151  1.9356
  897MOL0     H23733  11.215   1.100   3.208 -2.3896  1.4664  1.9528
  897MOL0     H23734  11.082   1.004   3.228  0.4209  3.7545  1.0578
  897MOL0     H23735  11.085   0.781   3.015  0.4092 -2.6909  1.8669
  897MOL0     H23736  11.390   0.602   2.849 -0.6470 -2.6208 -1.6417
  897MOL0     H23737  11.239   0.665   2.777 -0.7263  0.5633  1.1344
  897MOL0     H23738  11.122   0.579   2.994  0.2778 -0.2115  0.2972
  897MOL0     H23739  11.160   0.458   2.872  1.6533 -0.4820 -1.0082
  897MOL0     H23740  11.309   0.539   3.122  1.1093  1.2810 -1.5836
  897MOL0     H23741  11.221   0.385   3.107  0.2701  0.4976  1.9293
  897MOL0     H23742  11.481   0.458   2.965 -1.4194  1.9964  0.3605
  897MOL0     H23743  11.450   0.321   3.084  1.3752 -0.4373 -0.6005
  897MOL0     H23744  11.339   0.147   2.719  0.8155 -0.7007 -2.8672
  897MOL0     H23745  11.365  -0.051   2.589 -0.6423  2.1305  0.0680
  897MOL0     H23746  11.482  -0.167   2.613 -4.3140  0.4928 -0.1535
  897MOL0     H23747  11.506  -0.037   2.494 -1.9604  3.5992 -0.1992
  897MOL0     H23748  11.947  -0.264   2.582 -1.5280  0.4127  0.3542
  897MOL0     H23749  12.114  -0.338   2.417 -0.3619  0.8748  0.4487
  897MOL0     H23750  12.175  -0.286   1.969 -2.1105  2.0553 -3.0165
  897MOL0     H23751  12.045  -0.175   1.994 -2.0514 -1.4646  1.4783
  897MOL0     H23752  12.312  -0.100   1.999 -0.1761  3.4063  0.7842
  897MOL0     H23753  12.181  -0.024   2.088 -0.4340 -0.1746 -1.4609
  897MOL0     H23754  12.357  -0.241   2.212  0.2181 -0.5695 -1.6627
  897MOL0     H23755  12.248  -0.155   2.303  2.5190 -1.0345  0.1288
  897MOL0     H23756  12.347   0.058   2.269 -1.3732 -1.1716 -0.8606
  897MOL0     H23757  12.467  -0.029   2.158 -1.7390 -2.5954 -1.1213
  897MOL0     H23758  12.559   0.033   2.378 -1.5330  1.2696 -2.4088
  897MOL0     H23759  12.470  -0.100   2.453  0.6995  3.0762  1.0149
  897MOL0     H23760  12.649  -0.177   2.232  4.4310 -0.0145  2.2933
  897MOL0     H23761  12.569  -0.275   2.353 -1.1093  0.5700  2.0647
  897MOL0     H23762  12.693  -0.186   2.529 -3.6354 -1.5173 -0.9458
  897MOL0     H23763  12.769  -0.061   2.421 -0.8649 -0.2630  1.0231
  897MOL0     H23764  12.829  -0.263   2.276 -1.8677 -2.2442 -1.1876
  897MOL0     H23765  12.804  -0.364   2.418  1.0590 -0.1550 -0.8516
  897MOL0     H23766  11.908  -0.103   2.114  0.8415 -0.2739 -0.2946
  897MOL0     H23767  11.749  -0.029   2.284  0.2631 -0.4166 -3.0799
  897MOL0     H23768  11.815   0.138   2.856  0.4886  2.2480  0.1988
  897MOL0     H23769  11.654   0.293   2.955  1.3100  0.7126 -0.6611
  897MOL0     H23770  10.194   1.222   3.218 -1.5500 -0.3343 -0.4820
  897MOL0     H23771   9.964   1.290   3.192  0.2227 -0.1750  1.0014
  897MOL0     H23772   9.678   1.383   3.009  2.6647  0.6529  0.4998
  897MOL0     H23773   9.432   1.377   2.977 -2.3612  0.9592  0.7970
  897MOL0     H23774   9.177   1.578   3.249  0.8397  1.4343  0.8310
  897MOL0     H23775   9.179   1.715   3.143  0.8966 -0.4420  0.9188
  897MOL0     H23776   9.023   1.456   3.085  4.1941  0.4278 -1.6406
  897MOL0     H23777   9.015   1.601   2.997 -1.9920 -0.7028 -0.1593
  897MOL0     H23778   8.928   1.578   3.282  1.4743 -1.7356 -1.0654
  897MOL0     H23779   8.936   1.726   3.195 -0.5091  0.2788 -1.9709
  897MOL0     H23780   8.753   1.505   3.090 -0.5761 -0.4564 -0.8933
  897MOL0     H23781   8.768   1.654   3.016 -2.6678  1.2683  1.0121
  897MOL0     H23782   8.536   1.802   3.338 -0.0499  1.1033 -1.0730
  897MOL0     H23783   9.389   1.744   3.183  0.6777  2.3475 -2.8272
  897MOL0     H23784   9.733   1.833   3.195 -1.5064  0.9717 -0.1487
  897MOL0     H23785   9.582   1.881   3.237  0.1241 -0.2729 -4.3668
  897MOL0     H23786   9.661   1.772   3.352  3.0101  0.1438  0.5218
  898MOL0     O23787   4.670   0.362   5.333 -0.7939 -0.1745 -0.5757
  898MOL0     C23788   4.617   0.390   5.443 -0.7935  0.8354 -0.5616
  898MOL0     O23789   4.678   0.465   5.541  0.3191  0.2055  0.1826
  898MOL0     C23790   4.808   0.517   5.527  0.6869 -0.8911  0.1506
  898MOL0     C23791   4.891   0.517   5.635  0.2243 -0.4922 -0.5831
  898MOL0     C23792   5.019   0.568   5.631 -0.0511  0.6297  0.3237
  898MOL0     C23793   5.076   0.616   5.505 -0.3896  0.2706 -0.1292
  898MOL0     O23794   5.206   0.660   5.490  0.7457  0.6274 -0.3206
  898MOL0     C23795   5.255   0.676   5.353  0.3676  0.1942 -0.0590
  898MOL0     C23796   5.406   0.702   5.360  0.3279 -0.4858 -0.6981
  898MOL0     C23797   5.462   0.698   5.221 -0.9402 -0.8642  0.4801
  898MOL0     C23798   5.497   0.556   5.175  0.3554 -0.7618  0.1938
  898MOL0     C23799   5.622   0.475   5.229  0.6380  0.1858 -0.8031
  898MOL0     C23800   5.751   0.557   5.231  0.7482  0.2565  0.2660
  898MOL0     C23801   5.874   0.471   5.245 -0.0719  0.6470 -0.0565
  898MOL0     C23802   5.991   0.570   5.262  0.8315 -0.0626  0.9684
  898MOL0     N23803   6.113   0.497   5.286 -0.4814  0.0872 -0.5339
  898MOL0     C23804   6.193   0.504   5.401  0.1212 -0.8504 -0.3200
  898MOL0     C23805   6.283   0.410   5.374 -0.0056  1.4116  0.1790
  898MOL0     C23806   6.388   0.360   5.469 -0.1407 -0.6205 -0.4491
  898MOL0     C23807   6.485   0.465   5.514 -0.6618 -0.2735 -0.1825
  898MOL0     C23808   6.591   0.401   5.611  0.0201  0.4446  0.8079
  898MOL0     C23809   6.679   0.520   5.674 -0.4927 -0.4660 -0.8486
  898MOL0     O23810   6.734   0.611   5.584 -0.6786  0.0122 -0.0607
  898MOL0     C23811   6.809   0.720   5.626 -0.4374 -0.6527  0.8904
  898MOL0     C23812   6.856   0.824   5.537  0.1603 -0.3529 -0.3343
  898MOL0     C23813   6.919   0.942   5.583 -0.1506  0.4110 -0.0710
  898MOL0     C23814   6.976   1.045   5.483  0.6824  0.2302  0.0977
  898MOL0     C23815   6.944   0.959   5.716  1.0691  0.6211  0.3660
  898MOL0     C23816   7.003   1.078   5.772  1.1201  0.8399  0.5649
  898MOL0     O23817   7.133   1.059   5.830 -0.0565 -0.2960  0.0383
  898MOL0     C23818   7.179   1.149   5.924  0.6002  0.7155 -1.2317
  898MOL0     C23819   7.099   1.231   6.009 -0.6402  0.8027 -0.3324
  898MOL0     C23820   7.150   1.318   6.102  0.5029  0.9048  0.0886
  898MOL0     C23821   7.290   1.321   6.121 -0.2851  0.5270  0.1352
  898MOL0     O23822   7.332   1.392   6.232  0.0319 -0.4937  0.0292
  898MOL0     C23823   7.326   1.536   6.223  0.2769 -0.4646  0.8418
  898MOL0     C23824   7.464   1.599   6.251  0.1164 -0.1569  0.0145
  898MOL0     C23825   7.461   1.741   6.204  0.5756  0.2856 -0.9361
  898MOL0     C23826   7.597   1.807   6.213  0.6138  1.3099  0.9344
  898MOL0     C23827   7.707   1.772   6.111  0.4989  0.0001  0.5699
  898MOL0     C23828   7.680   1.839   5.972 -0.3261  0.3518  0.6607
  898MOL0     C23829   7.774   1.779   5.873  0.0746 -0.3510  0.4830
  898MOL0     C23830   7.764   1.866   5.749 -0.4625  0.1343 -0.8764
  898MOL0    Cl23831   7.849   1.770   5.625 -0.2556 -0.2060  0.2985
  898MOL0     C23832   7.373   1.241   6.041 -0.2538  1.5133 -0.3442
  898MOL0     C23833   7.312   1.160   5.945  0.4779 -0.1691  0.5521
  898MOL0     O23834   6.938   1.178   5.769 -0.2687  0.1224  0.3506
  898MOL0     C23835   6.910   0.859   5.809 -0.1089 -0.3836  1.0481
  898MOL0     C23836   6.849   0.737   5.762  0.0653 -0.2170  0.4814
  898MOL0     N23837   6.263   0.349   5.250  0.0570  0.1911  0.3418
  898MOL0     N23838   6.161   0.405   5.197 -0.0284 -0.3822  0.0074
  898MOL0     C23839   4.992   0.622   5.396  0.2719  0.4304 -0.8782
  898MOL0     C23840   4.859   0.568   5.407 -0.2548 -0.2412  0.0459
  898MOL0     C23841   4.482   0.346   5.482  0.2125  0.0088  0.0735
  898MOL0     C23842   4.405   0.448   5.539 -0.8520 -0.8141  0.8788
  898MOL0     C23843   4.275   0.422   5.574  0.3291 -0.3201  0.0656
  898MOL0     C23844   4.212   0.302   5.562  0.3907  0.5764  0.3771
  898MOL0     O23845   4.087   0.274   5.606 -0.3591  0.2598  0.1258
  898MOL0     C23846   4.003   0.394   5.599  0.3834 -0.0194  0.5642
  898MOL0     C23847   3.858   0.347   5.599 -0.1005 -0.0448  0.2870
  898MOL0     C23848   3.823   0.260   5.469 -0.4473  0.0813 -0.2052
  898MOL0     C23849   3.671   0.210   5.478  0.4337 -0.0288 -0.3194
  898MOL0     C23850   3.620   0.174   5.610 -0.5386 -0.2594  0.1144
  898MOL0     C23851   3.590   0.142   5.724 -0.9546 -0.0276 -0.1936
  898MOL0     C23852   4.279   0.199   5.498 -0.1004 -0.1938 -0.9576
  898MOL0     C23853   4.422   0.216   5.468  0.0237  0.5331 -0.5975
  898MOL0     C23854   4.485   0.107   5.387  0.5406  0.7634  0.0876
  898MOL0     H23855   4.859   0.463   5.723  1.6594  1.8268  1.4676
  898MOL0     H23856   5.082   0.563   5.719  2.1936 -0.2052 -1.2583
  898MOL0     H23857   5.206   0.765   5.312 -0.5355  0.2714  1.1261
  898MOL0     H23858   5.232   0.592   5.288  1.0097 -1.1064  1.3399
  898MOL0     H23859   5.419   0.802   5.401  1.1761 -1.1901  0.8130
  898MOL0     H23860   5.449   0.632   5.432  1.4797  2.6176  1.8242
  898MOL0     H23861   5.401   0.751   5.147  1.0393  0.3295 -0.3865
  898MOL0     H23862   5.560   0.746   5.228 -1.3442 -0.1259  1.3140
  898MOL0     H23863   5.401   0.505   5.182 -1.7389  2.8012  0.1971
  898MOL0     H23864   5.523   0.567   5.069  0.8826 -0.1596  0.3752
  898MOL0     H23865   5.623   0.383   5.170 -1.2860 -1.4425  1.4989
  898MOL0     H23866   5.595   0.439   5.329 -2.3911  1.1921 -1.1604
  898MOL0     H23867   5.749   0.605   5.133 -2.1493 -3.0031 -1.5168
  898MOL0     H23868   5.740   0.638   5.303 -2.5384  0.3959 -0.2413
  898MOL0     H23869   5.891   0.408   5.157  4.2307  0.7713  0.4641
  898MOL0     H23870   5.858   0.410   5.334  2.1134  0.8337  0.5143
  898MOL0     H23871   5.983   0.626   5.169  0.0084  0.4298  1.3236
  898MOL0     H23872   5.973   0.634   5.350  4.2587  1.5968  0.6260
  898MOL0     H23873   6.196   0.559   5.495 -0.2618 -0.7128 -0.3850
  898MOL0     H23874   6.444   0.280   5.420  1.3136 -1.2950  2.1126
  898MOL0     H23875   6.335   0.312   5.552 -2.8011  1.5661 -0.7313
  898MOL0     H23876   6.527   0.514   5.425 -0.0222 -1.7390 -0.7159
  898MOL0     H23877   6.432   0.539   5.575 -1.3341 -0.3711 -0.6370
  898MOL0     H23878   6.543   0.351   5.695  1.3462 -0.5896  0.9766
  898MOL0     H23879   6.657   0.334   5.554  0.4472  1.5040  0.0347
  898MOL0     H23880   6.607   0.577   5.734  0.8587 -0.2932  0.6742
  898MOL0     H23881   6.748   0.478   5.748  0.9030  2.4839 -0.3191
  898MOL0     H23882   6.830   0.825   5.432  1.1158  0.1600 -0.5737
  898MOL0     H23883   6.953   1.001   5.385  2.7981 -0.8901  0.0504
  898MOL0     H23884   7.082   1.070   5.494  1.1038 -0.3816 -2.0171
  898MOL0     H23885   6.909   1.131   5.489  0.1618 -0.0135 -1.5910
  898MOL0     H23886   6.992   1.214   6.010 -0.4203 -1.0764  2.5265
  898MOL0     H23887   7.095   1.373   6.178 -0.0522 -1.3307  1.4328
  898MOL0     H23888   7.299   1.565   6.121 -0.6627 -0.5023  1.0742
  898MOL0     H23889   7.256   1.583   6.292  1.5101 -0.8508  2.4241
  898MOL0     H23890   7.491   1.589   6.356  0.0162 -1.5585 -0.0672
  898MOL0     H23891   7.536   1.552   6.183  0.7046  2.8736 -1.6446
  898MOL0     H23892   7.391   1.801   6.263  0.3008 -0.8103 -0.1276
  898MOL0     H23893   7.420   1.758   6.104 -1.3965 -0.7197 -0.3512
  898MOL0     H23894   7.651   1.784   6.306 -2.0532  0.9863  2.5121
  898MOL0     H23895   7.593   1.916   6.215  3.2646  1.6233 -2.4941
  898MOL0     H23896   7.797   1.811   6.159 -1.8739  1.3324  4.4080
  898MOL0     H23897   7.704   1.665   6.091  1.8128  0.1173 -0.3602
  898MOL0     H23898   7.704   1.945   5.977  1.3175 -0.0089  0.9807
  898MOL0     H23899   7.576   1.814   5.950 -0.8875  0.9207  2.4892
  898MOL0     H23900   7.750   1.674   5.855 -0.3523 -0.3591  1.0566
  898MOL0     H23901   7.877   1.788   5.909  0.8544 -1.0327 -1.4475
  898MOL0     H23902   7.799   1.968   5.769 -0.2146 -0.3493  1.4198
  898MOL0     H23903   7.661   1.871   5.712 -1.5971  1.4755  2.1013
  898MOL0     H23904   7.477   1.267   6.029  0.0088  0.1366 -1.2388
  898MOL0     H23905   7.373   1.096   5.883 -1.1724  0.2503 -1.6231
  898MOL0     H23906   6.933   0.869   5.914 -2.5700 -1.0926  1.7156
  898MOL0     H23907   6.840   0.668   5.845 -0.3378  0.1938  0.7827
  898MOL0     H23908   5.023   0.671   5.304  4.8576 -2.1573 -1.0464
  898MOL0     H23909   4.795   0.583   5.320  0.2896 -2.9764 -0.9407
  898MOL0     H23910   4.452   0.541   5.569 -1.5656  0.5403 -1.8801
  898MOL0     H23911   4.223   0.509   5.612  1.6150  0.4558  0.1002
  898MOL0     H23912   4.023   0.446   5.694  1.2452  0.1818  0.2806
  898MOL0     H23913   4.024   0.463   5.517  0.9154 -0.6845  0.1339
  898MOL0     H23914   3.790   0.433   5.603 -1.1901 -0.9043  0.8189
  898MOL0     H23915   3.832   0.300   5.694 -2.1089  1.3186  0.4759
  898MOL0     H23916   3.836   0.311   5.373 -3.7328  0.8935 -0.3315
  898MOL0     H23917   3.896   0.179   5.471  0.8718  1.2201  1.8503
  898MOL0     H23918   3.664   0.126   5.409  2.5904  0.6815 -1.4929
  898MOL0     H23919   3.608   0.286   5.432 -0.6471  0.8134  2.3523
  898MOL0     H23920   3.579   0.125   5.829 -0.9445  0.1940 -0.1560
  898MOL0     H23921   4.221   0.108   5.489 -0.1464 -0.2145 -0.4771
  898MOL0     H23922   4.478   0.125   5.279 -1.7087 -1.7195 -0.2753
  898MOL0     H23923   4.590   0.099   5.414  0.5934  0.4919 -0.1990
  898MOL0     H23924   4.436   0.011   5.406  0.5626  0.5548 -0.8700
  899MOL0     O23925   6.036   0.950   3.165  0.6718 -0.5929 -0.6283
  899MOL0     C23926   5.989   1.034   3.088 -0.0024 -0.9890 -0.4257
  899MOL0     O23927   6.071   1.126   3.017 -0.1176 -0.3044 -0.1579
  899MOL0     C23928   6.206   1.113   3.027 -0.3829 -1.2243  0.1841
  899MOL0     C23929   6.276   1.222   3.087  0.3115 -0.5939  0.1485
  899MOL0     C23930   6.413   1.216   3.089  0.9343  0.2689 -0.7137
  899MOL0     C23931   6.482   1.108   3.044  0.5452  0.2681 -0.0174
  899MOL0     O23932   6.617   1.119   3.046 -0.4272  0.1289  0.2078
  899MOL0     C23933   6.691   1.009   3.103  0.7520  0.5716  0.2884
  899MOL0     C23934   6.842   1.008   3.068  0.0703  0.2840 -0.9064
  899MOL0     C23935   6.867   0.991   2.915  0.7372  0.2734  0.4421
  899MOL0     C23936   7.008   1.022   2.876  0.2221  0.8834 -1.1089
  899MOL0     C23937   7.038   1.167   2.879 -0.2432 -0.2672 -0.1930
  899MOL0     C23938   7.186   1.183   2.888 -0.0828  0.2929 -0.2722
  899MOL0     C23939   7.257   1.139   2.757 -0.6299 -0.5337 -1.4223
  899MOL0     C23940   7.379   1.228   2.709  0.2111 -0.3625  0.6916
  899MOL0     N23941   7.481   1.242   2.812 -0.0544 -0.3632 -0.1716
  899MOL0     C23942   7.559   1.134   2.854 -0.0814  0.3787 -0.4911
  899MOL0     C23943   7.666   1.190   2.915 -0.6882 -0.3779 -0.1694
  899MOL0     C23944   7.787   1.117   2.986 -0.5944 -0.5270  0.3700
  899MOL0     C23945   7.919   1.144   2.917  0.3455  0.0416 -0.2619
  899MOL0     C23946   7.913   1.129   2.766  0.1443  0.1681  0.4580
  899MOL0     C23947   8.054   1.134   2.712 -0.5405  0.7690 -0.2482
  899MOL0     O23948   8.133   1.022   2.753 -0.0029 -0.2565 -0.5062
  899MOL0     C23949   8.261   0.996   2.709  0.1858  0.2720 -0.5716
  899MOL0     C23950   8.341   0.910   2.780  0.1005  0.3396 -0.7275
  899MOL0     C23951   8.467   0.871   2.742  0.2623 -0.0201 -0.2150
  899MOL0     C23952   8.539   0.778   2.837  0.0662  0.4642  0.7231
  899MOL0     C23953   8.513   0.919   2.616 -0.9908 -0.9986  0.1167
  899MOL0     C23954   8.650   0.906   2.552  0.3752  0.3405 -0.1072
  899MOL0     O23955   8.674   0.958   2.427  0.1191 -0.1712  0.3375
  899MOL0     C23956   8.803   0.942   2.375 -0.1181  0.8821 -0.7870
  899MOL0     C23957   8.912   1.015   2.430  0.3630 -1.4845 -0.8649
  899MOL0     C23958   9.037   1.003   2.379 -0.2474 -0.0272 -0.4704
  899MOL0     C23959   9.073   0.930   2.264 -0.4898  0.5816 -0.7110
  899MOL0     O23960   9.206   0.933   2.209  0.6844 -0.0962  0.1693
  899MOL0     C23961   9.248   0.834   2.115 -1.0097  0.7815  0.9359
  899MOL0     C23962   9.403   0.833   2.138 -0.2248 -0.2238  0.3463
  899MOL0     C23963   9.468   0.717   2.053  0.2728  0.8874  0.1760
  899MOL0     C23964   9.607   0.673   2.097 -0.4056 -0.0490 -0.8285
  899MOL0     C23965   9.726   0.646   2.010 -0.2853  0.3614 -0.8675
  899MOL0     C23966   9.865   0.622   2.084  0.3268 -0.1604 -0.0101
  899MOL0     C23967   9.863   0.498   2.174 -0.0951  0.2199 -0.2411
  899MOL0     C23968   9.893   0.519   2.322 -0.2326 -0.0026  0.3599
  899MOL0    Cl23969   9.750   0.593   2.396 -0.0130  0.2107  0.2462
  899MOL0     C23970   8.970   0.848   2.210 -0.3899 -0.1503 -0.0677
  899MOL0     C23971   8.835   0.860   2.266 -0.0384  0.4506  0.2444
  899MOL0     O23972   8.738   0.842   2.611 -0.4986  0.3783  0.6178
  899MOL0     C23973   8.438   1.020   2.552 -0.7041 -0.0462  0.4819
  899MOL0     C23974   8.312   1.052   2.598  0.2887  0.1056 -0.1721
  899MOL0     N23975   7.660   1.329   2.908  0.6089  0.3735 -0.1973
  899MOL0     N23976   7.547   1.358   2.844 -0.2798 -0.6691 -0.8809
  899MOL0     C23977   6.414   1.000   3.000  0.0921 -0.7548 -0.4931
  899MOL0     C23978   6.273   1.002   2.979  0.2232  0.0239 -0.4404
  899MOL0     C23979   5.838   1.059   3.085  0.2984  0.1242  0.2230
  899MOL0     C23980   5.788   1.139   2.974 -0.5987  0.7981 -0.6569
  899MOL0     C23981   5.649   1.175   2.959 -0.5922  0.0371 -0.0452
  899MOL0     C23982   5.561   1.123   3.054  0.5968  0.0801 -0.4652
  899MOL0     O23983   5.423   1.160   3.038 -0.1587 -0.1033 -0.3327
  899MOL0     C23984   5.350   1.172   3.164  0.2744  0.7006  0.1010
  899MOL0     C23985   5.224   1.266   3.131  0.0695  0.1726  0.3971
  899MOL0     C23986   5.150   1.307   3.254  0.0204  0.6327 -0.0446
  899MOL0     C23987   5.059   1.195   3.310 -0.1178  0.6923 -0.3825
  899MOL0     C23988   5.007   1.240   3.446 -0.0768 -0.6749  0.7924
  899MOL0     C23989   4.961   1.264   3.547  1.1226  0.7208 -0.2919
  899MOL0     C23990   5.615   1.046   3.161  0.1819 -0.1338  0.3494
  899MOL0     C23991   5.743   1.015   3.182  0.0040 -0.5494  0.6857
  899MOL0     C23992   5.773   0.944   3.315  0.4908  0.3946  0.7120
  899MOL0     H23993   6.221   1.306   3.128  1.5492  0.5955 -0.5373
  899MOL0     H23994   6.466   1.305   3.123 -1.3100  1.2034  0.6355
  899MOL0     H23995   6.651   0.916   3.059  0.2360  1.5000 -1.2917
  899MOL0     H23996   6.672   1.018   3.211  1.3747  0.1653  0.4346
  899MOL0     H23997   6.896   1.091   3.112 -2.5252  0.7859  1.6307
  899MOL0     H23998   6.876   0.914   3.114 -0.7164  0.4849  0.1202
  899MOL0     H23999   6.844   0.888   2.887 -1.9294 -0.5458  4.7125
  899MOL0     H24000   6.798   1.058   2.862  0.7109 -0.6427 -0.7279
  899MOL0     H24001   7.064   0.946   2.931 -4.6246 -1.2677  1.4237
  899MOL0     H24002   7.017   0.992   2.771  0.2402 -1.1607 -0.5779
  899MOL0     H24003   6.997   1.215   2.968  1.5597 -0.8404  0.9982
  899MOL0     H24004   6.987   1.218   2.797 -1.7992  0.5317  1.2000
  899MOL0     H24005   7.205   1.290   2.904  0.6504  0.0918  0.2950
  899MOL0     H24006   7.225   1.142   2.982 -1.4705  1.3158  0.7893
  899MOL0     H24007   7.174   1.130   2.687 -1.5677 -2.8792 -0.1198
  899MOL0     H24008   7.306   1.042   2.768  1.8970  0.5298 -2.4825
  899MOL0     H24009   7.417   1.186   2.615 -0.3902  1.2133 -0.2891
  899MOL0     H24010   7.337   1.322   2.672  1.0435 -0.6163 -0.9731
  899MOL0     H24011   7.547   1.027   2.845  2.4388 -0.2208  1.7994
  899MOL0     H24012   7.761   1.011   2.984 -0.5425 -0.5539  0.9750
  899MOL0     H24013   7.790   1.150   3.090 -2.1268  1.3067 -0.1065
  899MOL0     H24014   7.956   1.240   2.954 -0.7736  0.9945 -1.4951
  899MOL0     H24015   7.993   1.071   2.953  2.4687  1.0155 -2.3488
  899MOL0     H24016   7.869   1.032   2.742  0.1733  0.0127  1.0220
  899MOL0     H24017   7.856   1.210   2.720 -1.4130  0.0831  2.1249
  899MOL0     H24018   8.047   1.122   2.604  0.0728  1.6839 -0.3966
  899MOL0     H24019   8.095   1.232   2.737 -2.2648  1.1746  1.2856
  899MOL0     H24020   8.295   0.872   2.871 -2.2479  1.4450 -1.3612
  899MOL0     H24021   8.492   0.681   2.820 -0.0674  0.6025  0.3017
  899MOL0     H24022   8.524   0.801   2.943  2.6452  2.0705  0.8249
  899MOL0     H24023   8.645   0.762   2.813  0.2985 -1.0474  2.4732
  899MOL0     H24024   8.901   1.063   2.526  0.8144 -0.3883 -1.3545
  899MOL0     H24025   9.118   1.049   2.434  0.2660  2.6568 -3.1826
  899MOL0     H24026   9.201   0.735   2.117  0.8340 -0.2448 -1.4467
  899MOL0     H24027   9.235   0.864   2.011 -0.5255 -2.7581 -0.2614
  899MOL0     H24028   9.446   0.928   2.107 -0.0833 -0.5458 -0.4667
  899MOL0     H24029   9.420   0.817   2.245 -1.1059  2.1882  0.8944
  899MOL0     H24030   9.468   0.749   1.949 -0.7394  0.3836  0.0020
  899MOL0     H24031   9.411   0.624   2.065 -0.7085  1.4333 -0.1401
  899MOL0     H24032   9.585   0.583   2.154 -3.7964  2.2488  1.9115
  899MOL0     H24033   9.636   0.755   2.162 -1.3596 -0.8634  0.6821
  899MOL0     H24034   9.707   0.565   1.939 -0.8441  0.2249 -0.5669
  899MOL0     H24035   9.739   0.732   1.943  1.2548 -0.2884 -1.4314
  899MOL0     H24036   9.914   0.706   2.135  1.9613 -1.0977  0.0288
  899MOL0     H24037   9.931   0.599   2.000 -0.6163 -4.4987  0.2236
  899MOL0     H24038   9.929   0.422   2.130 -1.6056  0.3780 -3.0052
  899MOL0     H24039   9.760   0.463   2.165 -0.5816  1.4658  0.2560
  899MOL0     H24040   9.984   0.580   2.331  1.1061 -1.6152 -1.3475
  899MOL0     H24041   9.904   0.420   2.366  0.0280 -0.9020 -1.5876
  899MOL0     H24042   8.983   0.785   2.123 -4.5914 -1.6071  0.1479
  899MOL0     H24043   8.750   0.808   2.222  0.2142 -1.2856  1.6740
  899MOL0     H24044   8.454   1.049   2.449  1.1633 -1.8014  0.2176
  899MOL0     H24045   8.253   1.127   2.547  0.8467 -0.2184 -1.3130
  899MOL0     H24046   6.466   0.913   2.960 -1.6485 -1.4804 -1.2922
  899MOL0     H24047   6.220   0.920   2.932 -2.6519  0.1593  2.2264
  899MOL0     H24048   5.863   1.166   2.900 -0.6785 -1.3629 -1.6043
  899MOL0     H24049   5.608   1.229   2.874 -1.5672  1.4514  1.2677
  899MOL0     H24050   5.320   1.077   3.209  3.9855 -1.5285 -1.6118
  899MOL0     H24051   5.413   1.229   3.234  1.2507  1.0304 -1.0090
  899MOL0     H24052   5.149   1.226   3.062 -2.9736  0.2015  3.3798
  899MOL0     H24053   5.263   1.360   3.092  0.1847 -0.0401 -0.0027
  899MOL0     H24054   5.230   1.332   3.324  2.5482 -5.0033 -0.3477
  899MOL0     H24055   5.089   1.396   3.239  0.2955  1.1875  1.8549
  899MOL0     H24056   5.111   1.100   3.324  4.0732  2.7222 -0.6400
  899MOL0     H24057   4.975   1.189   3.240  0.7511  0.2470 -1.4029
  899MOL0     H24058   4.918   1.288   3.642 -1.5121  1.5226 -1.5942
  899MOL0     H24059   5.541   0.992   3.221 -0.9879 -2.9005 -3.2496
  899MOL0     H24060   5.817   0.846   3.293 -2.4561 -1.1768  1.2883
  899MOL0     H24061   5.829   1.012   3.380  2.8463 -0.3823 -0.3649
  899MOL0     H24062   5.677   0.928   3.365 -0.2282  0.7088 -0.5347
  900MOL0     O24063   5.894   3.664   8.513  0.1508  0.5071  0.2150
  900MOL0     C24064   5.850   3.771   8.474  0.1536  0.0896 -0.3043
  900MOL0     O24065   5.919   3.888   8.468  0.1157 -0.1945 -0.1310
  900MOL0     C24066   6.036   3.896   8.527  0.0699 -0.8950  0.2994
  900MOL0     C24067   6.051   3.868   8.666  0.4359  0.1438  0.0672
  900MOL0     C24068   6.179   3.880   8.733 -0.0258 -0.1363  0.5617
  900MOL0     C24069   6.287   3.936   8.663 -0.6737  0.4677  0.8353
  900MOL0     O24070   6.402   3.963   8.737 -0.6810 -0.2432 -0.4554
  900MOL0     C24071   6.532   3.938   8.678 -0.3732  0.2540 -0.5595
  900MOL0     C24072   6.627   3.932   8.794 -1.2787  0.6591 -0.0559
  900MOL0     C24073   6.773   3.911   8.750  0.1990 -0.0812  0.6298
  900MOL0     C24074   6.851   3.895   8.882 -0.2548 -0.5843  0.0483
  900MOL0     C24075   6.997   3.923   8.874  0.0057 -0.5494 -0.0435
  900MOL0     C24076   7.070   3.801   8.837  0.3960 -0.1682  0.4262
  900MOL0     C24077   7.214   3.807   8.830 -0.0400 -0.2344  0.3138
  900MOL0     C24078   7.256   3.692   8.739  0.0913  0.4094  0.1874
  900MOL0     N24079   7.396   3.647   8.749 -0.1500  1.0063 -0.3025
  900MOL0     C24080   7.486   3.629   8.654 -1.1416 -0.3683 -0.2129
  900MOL0     C24081   7.586   3.560   8.715  0.0014 -0.2974 -0.4094
  900MOL0     C24082   7.715   3.523   8.647  0.2237  0.8581  0.1406
  900MOL0     C24083   7.796   3.642   8.622  0.5708 -0.2865  0.7750
  900MOL0     C24084   7.855   3.713   8.738 -0.7626  0.2187 -0.3560
  900MOL0     C24085   7.946   3.833   8.707  0.0082 -0.1716 -0.5921
  900MOL0     O24086   7.975   3.930   8.810 -0.7905 -0.1375 -0.1494
  900MOL0     C24087   8.080   4.021   8.790 -0.4115  0.2303  0.2794
  900MOL0     C24088   8.147   4.068   8.892 -0.0758 -0.4163  0.0238
  900MOL0     C24089   8.237   4.173   8.889  0.5729 -0.1232  0.1125
  900MOL0     C24090   8.293   4.232   9.016 -0.4816 -0.0300 -0.3317
  900MOL0     C24091   8.252   4.235   8.761 -0.2668  0.0617 -0.9726
  900MOL0     C24092   8.363   4.350   8.735  0.3185  0.0248  0.4476
  900MOL0     O24093   8.361   4.400   8.614 -1.1485  0.7783  0.2888
  900MOL0     C24094   8.422   4.519   8.590  0.2145 -0.2197 -0.4320
  900MOL0     C24095   8.459   4.623   8.680  0.2583 -1.0326 -0.2232
  900MOL0     C24096   8.514   4.743   8.631  0.2236 -0.8979 -0.2435
  900MOL0     C24097   8.549   4.765   8.503  0.1473  0.9507 -0.5499
  900MOL0     O24098   8.593   4.893   8.465  0.0312 -0.0918  0.2496
  900MOL0     C24099   8.628   4.915   8.330 -0.8111  0.4837  0.2522
  900MOL0     C24100   8.703   5.055   8.319 -0.4741 -0.4010 -0.9085
  900MOL0     C24101   8.618   5.176   8.333  0.0365 -0.1063  0.2576
  900MOL0     C24102   8.700   5.298   8.294 -0.7773  0.2712  0.4427
  900MOL0     C24103   8.620   5.426   8.298  0.5487  0.3013 -0.0073
  900MOL0     C24104   8.670   5.523   8.191  0.0577 -0.1455  0.2237
  900MOL0     C24105   8.580   5.650   8.194 -1.0147 -0.2476 -0.2640
  900MOL0     C24106   8.602   5.715   8.326 -0.0423 -0.6825  0.9536
  900MOL0    Cl24107   8.567   5.895   8.307  0.0513 -0.1278 -0.3433
  900MOL0     C24108   8.501   4.671   8.421 -0.7782  0.0753  0.2040
  900MOL0     C24109   8.440   4.546   8.461 -0.0945 -0.1702  0.5251
  900MOL0     O24110   8.435   4.386   8.828  0.2283  0.4194  0.5115
  900MOL0     C24111   8.177   4.190   8.652 -0.0752 -0.0666  0.0033
  900MOL0     C24112   8.090   4.088   8.675  0.2572 -0.0787 -0.6477
  900MOL0     N24113   7.554   3.535   8.850  0.2835  0.3351  0.3329
  900MOL0     N24114   7.442   3.595   8.869 -0.2904 -0.3464 -0.5159
  900MOL0     C24115   6.273   3.961   8.525 -0.6912  0.1205  0.4360
  900MOL0     C24116   6.148   3.941   8.461 -0.0903 -0.4604 -0.2741
  900MOL0     C24117   5.721   3.779   8.407  0.8605  0.4304  0.5524
  900MOL0     C24118   5.708   3.868   8.301  0.3653  0.4831 -0.0275
  900MOL0     C24119   5.587   3.877   8.231  0.4366  0.0088 -0.9995
  900MOL0     C24120   5.477   3.807   8.264  0.3702 -0.1251 -0.1895
  900MOL0     O24121   5.355   3.802   8.190 -0.5594 -0.5472 -0.1277
  900MOL0     C24122   5.314   3.930   8.135  0.5090  0.2973 -0.1786
  900MOL0     C24123   5.180   3.905   8.052  0.4833  0.1483 -0.5412
  900MOL0     C24124   5.051   3.880   8.127 -0.1811  1.5337 -0.7146
  900MOL0     C24125   5.004   3.996   8.213  0.4666 -0.6442 -0.8973
  900MOL0     C24126   4.874   3.967   8.279 -0.2306 -0.1972 -0.8148
  900MOL0     C24127   4.774   3.937   8.339 -1.0260 -0.3519  0.1780
  900MOL0     C24128   5.488   3.707   8.362  0.8620 -0.6148 -0.2812
  900MOL0     C24129   5.605   3.700   8.442 -0.9010 -0.1988  0.7591
  900MOL0     C24130   5.603   3.609   8.565  0.0499 -0.0463  0.3043
  900MOL0     H24131   5.960   3.842   8.718 -1.2647 -4.0304 -4.2051
  900MOL0     H24132   6.185   3.844   8.835 -0.2343  0.0678  0.6467
  900MOL0     H24133   6.560   4.016   8.607 -0.4242 -1.9059 -3.0987
  900MOL0     H24134   6.531   3.846   8.619  0.8365 -0.4700  0.4886
  900MOL0     H24135   6.627   4.025   8.852  2.0117 -0.4739  2.0374
  900MOL0     H24136   6.594   3.849   8.857  2.8790 -0.8135  0.5574
  900MOL0     H24137   6.785   3.828   8.680  1.9730  0.9114 -0.3148
  900MOL0     H24138   6.816   4.000   8.704 -0.6645  0.2353  0.3987
  900MOL0     H24139   6.815   3.964   8.958 -1.2171  0.1940 -1.0912
  900MOL0     H24140   6.828   3.795   8.921  0.0817 -0.6922 -0.0230
  900MOL0     H24141   7.031   3.970   8.967 -0.9618  1.2312 -0.5533
  900MOL0     H24142   7.011   3.992   8.791 -1.9203 -0.7444 -0.5734
  900MOL0     H24143   7.040   3.726   8.912  0.0955 -0.0888  0.3880
  900MOL0     H24144   7.029   3.775   8.739 -1.5666 -0.2748  1.2213
  900MOL0     H24145   7.257   3.794   8.930  0.6565 -2.6108 -0.2351
  900MOL0     H24146   7.255   3.898   8.784  0.8058  0.6355  2.6092
  900MOL0     H24147   7.194   3.606   8.763 -1.2708  1.1908 -0.4201
  900MOL0     H24148   7.251   3.718   8.633  0.6387 -2.6670 -0.6975
  900MOL0     H24149   7.482   3.655   8.548 -0.0026 -3.5218 -1.1512
  900MOL0     H24150   7.686   3.477   8.552 -1.5717  3.4983 -0.7036
  900MOL0     H24151   7.771   3.447   8.702  0.6532  1.0752  0.0060
  900MOL0     H24152   7.870   3.622   8.544 -0.4143 -1.4597  0.1004
  900MOL0     H24153   7.723   3.711   8.578 -0.4506 -0.8204  1.5682
  900MOL0     H24154   7.768   3.743   8.798 -1.1792 -0.9300 -0.3760
  900MOL0     H24155   7.906   3.637   8.798 -2.1140  1.1895  2.1945
  900MOL0     H24156   8.042   3.798   8.670  0.2695  0.6680 -0.7292
  900MOL0     H24157   7.893   3.884   8.626  1.4905  2.6395  0.0745
  900MOL0     H24158   8.110   4.029   8.987 -2.8885  1.2093 -0.2904
  900MOL0     H24159   8.401   4.221   9.004 -0.4225  2.0179 -2.3940
  900MOL0     H24160   8.270   4.177   9.107  1.1296 -1.2598 -0.6208
  900MOL0     H24161   8.267   4.338   9.023  0.5583  0.1766  0.7268
  900MOL0     H24162   8.436   4.618   8.786  0.5912  2.7629  0.1707
  900MOL0     H24163   8.531   4.828   8.695  0.5033 -0.4586 -0.8899
  900MOL0     H24164   8.701   4.843   8.292  1.7703  3.1800 -0.2606
  900MOL0     H24165   8.538   4.916   8.269 -1.0641  0.6584  0.6208
  900MOL0     H24166   8.766   5.059   8.408 -1.6000  2.1290 -0.1105
  900MOL0     H24167   8.759   5.065   8.226 -0.9966 -0.0032 -1.1884
  900MOL0     H24168   8.597   5.193   8.439  3.4357  2.2553  0.7008
  900MOL0     H24169   8.528   5.152   8.275  0.5911 -4.5899  0.8970
  900MOL0     H24170   8.724   5.278   8.189 -1.9877 -0.7455  0.3428
  900MOL0     H24171   8.795   5.309   8.347  0.6570  2.9013 -2.3164
  900MOL0     H24172   8.511   5.422   8.303  0.4153  2.6022  0.3589
  900MOL0     H24173   8.638   5.468   8.398 -1.4947 -3.9477  2.3880
  900MOL0     H24174   8.659   5.481   8.090 -2.6662  0.0221  0.3541
  900MOL0     H24175   8.775   5.547   8.209  0.4135 -1.8371  0.5649
  900MOL0     H24176   8.476   5.620   8.174 -0.6016 -1.8965 -0.0818
  900MOL0     H24177   8.611   5.717   8.113 -1.0120 -0.4290 -0.4141
  900MOL0     H24178   8.703   5.685   8.356 -0.0435 -3.6979 -1.5697
  900MOL0     H24179   8.537   5.671   8.402  0.4104  1.0835  2.4506
  900MOL0     H24180   8.494   4.682   8.313  0.0007  4.3140  0.4086
  900MOL0     H24181   8.418   4.482   8.376  1.3075  3.0490 -2.5346
  900MOL0     H24182   8.208   4.222   8.553  2.9049 -4.8559 -0.9552
  900MOL0     H24183   8.023   4.063   8.593 -3.4718  0.1265  2.0815
  900MOL0     H24184   6.363   3.995   8.475  1.0216 -1.2661  2.3705
  900MOL0     H24185   6.128   3.955   8.355 -4.9914  2.0969  0.7347
  900MOL0     H24186   5.796   3.925   8.272  1.1911 -1.4776 -1.5667
  900MOL0     H24187   5.582   3.930   8.137  0.1105 -1.0520 -1.5983
  900MOL0     H24188   5.280   3.999   8.212 -3.7372 -1.5278 -0.1361
  900MOL0     H24189   5.385   3.971   8.063 -0.3393 -0.8262 -1.7337
  900MOL0     H24190   5.206   3.828   7.978  1.1499  0.5222 -0.7042
  900MOL0     H24191   5.160   4.004   8.011 -2.0716  1.6823  3.7471
  900MOL0     H24192   4.976   3.859   8.051 -0.9814  3.5217 -0.5527
  900MOL0     H24193   5.071   3.792   8.189  4.0678  2.9917  0.3657
  900MOL0     H24194   4.994   4.088   8.154  0.2818  0.4162  0.7285
  900MOL0     H24195   5.082   4.015   8.288  2.0825 -0.9734 -2.4187
  900MOL0     H24196   4.688   3.922   8.402  0.0224  0.0768  1.7790
  900MOL0     H24197   5.407   3.637   8.379  0.2955 -0.3438 -1.6587
  900MOL0     H24198   5.501   3.602   8.604 -1.1136  2.3673 -1.9910
  900MOL0     H24199   5.630   3.510   8.526  0.2137  0.1612 -0.1192
  900MOL0     H24200   5.669   3.641   8.646  1.0305  0.8734 -0.8271
  901MOL0     O24201   3.323   7.460   3.904 -0.6785  0.3843  0.1929
  901MOL0     C24202   3.398   7.390   3.831 -0.4806  0.0765 -0.1617
  901MOL0     O24203   3.449   7.444   3.717  0.4275 -0.0110 -0.4737
  901MOL0     C24204   3.430   7.576   3.684  0.3495 -0.2489 -1.0346
  901MOL0     C24205   3.413   7.613   3.551 -0.1997  0.8461 -0.2800
  901MOL0     C24206   3.402   7.746   3.513 -0.1356  0.0793 -0.7007
  901MOL0     C24207   3.412   7.848   3.600  0.1082 -0.8025  0.1426
  901MOL0     O24208   3.418   7.973   3.544 -0.0442 -0.2077 -0.5574
  901MOL0     C24209   3.444   8.079   3.628  0.0113 -0.6222  0.1310
  901MOL0     C24210   3.445   8.214   3.551  0.3638 -0.1504  0.1385
  901MOL0     C24211   3.528   8.322   3.639 -0.2754 -0.1099  0.1004
  901MOL0     C24212   3.498   8.454   3.574  0.4030  0.3672  0.0639
  901MOL0     C24213   3.571   8.563   3.656 -0.5270 -0.6641  0.4062
  901MOL0     C24214   3.709   8.579   3.598 -0.8041 -0.0642  0.4569
  901MOL0     C24215   3.790   8.690   3.668  0.1482 -0.3460  0.4883
  901MOL0     C24216   3.825   8.667   3.819 -0.3103 -0.1525  0.6826
  901MOL0     N24217   3.890   8.536   3.828  0.3884 -0.0894 -0.3754
  901MOL0     C24218   4.014   8.501   3.783 -0.0475 -0.1816  0.3800
  901MOL0     C24219   4.030   8.370   3.813  0.5664 -0.6625  0.9581
  901MOL0     C24220   4.131   8.271   3.775 -0.4948  0.2950  0.2293
  901MOL0     C24221   4.265   8.301   3.845  0.8855  1.2256  0.2317
  901MOL0     C24222   4.356   8.179   3.846 -0.4751  0.6324 -0.1429
  901MOL0     C24223   4.479   8.218   3.931  0.7135  0.3014  0.2771
  901MOL0     O24224   4.542   8.336   3.902 -1.0181 -0.6728 -0.4787
  901MOL0     C24225   4.651   8.350   3.823  0.3175  0.1253 -0.9514
  901MOL0     C24226   4.674   8.266   3.713  0.5504  0.0254  0.1541
  901MOL0     C24227   4.792   8.282   3.633 -0.2139  0.3741  0.1128
  901MOL0     C24228   4.818   8.186   3.521  0.0643  0.2491  0.0280
  901MOL0     C24229   4.876   8.396   3.660 -0.2166  0.2451 -0.3769
  901MOL0     C24230   4.995   8.421   3.576 -0.6945 -0.2387 -1.1845
  901MOL0     O24231   5.104   8.455   3.640 -0.7546  0.2502  0.1821
  901MOL0     C24232   5.224   8.482   3.582  0.1038 -0.2512  0.7562
  901MOL0     C24233   5.285   8.387   3.501 -0.1454 -0.1314 -0.9120
  901MOL0     C24234   5.406   8.421   3.435 -0.8818  0.3063  0.3468
  901MOL0     C24235   5.461   8.546   3.457 -0.1272  0.3263  0.9889
  901MOL0     O24236   5.577   8.563   3.388  0.6326  0.4348  0.5521
  901MOL0     C24237   5.647   8.684   3.399  0.7286 -0.1149  0.4222
  901MOL0     C24238   5.775   8.654   3.330 -0.1660 -0.4552  0.6339
  901MOL0     C24239   5.758   8.667   3.176  0.1195  0.5143 -0.5906
  901MOL0     C24240   5.853   8.570   3.111 -0.9244  0.9562 -0.1245
  901MOL0     C24241   5.836   8.576   2.950 -0.0254  0.1944 -0.7070
  901MOL0     C24242   5.924   8.487   2.865 -0.3716  0.9416  0.4811
  901MOL0     C24243   5.933   8.530   2.721  0.0906  0.0392  0.3072
  901MOL0     C24244   5.816   8.497   2.642  0.3463 -0.0538  0.0774
  901MOL0    Cl24245   5.827   8.323   2.602  0.1351  0.1598  0.4969
  901MOL0     C24246   5.404   8.638   3.542 -0.0713 -0.3539  0.1372
  901MOL0     C24247   5.286   8.604   3.606 -0.0458 -0.6032 -0.8242
  901MOL0     O24248   4.989   8.412   3.458  0.5542  0.2099 -0.3444
  901MOL0     C24249   4.840   8.478   3.768  0.3017  1.1840  0.3865
  901MOL0     C24250   4.731   8.458   3.845 -0.1417 -0.0923  0.0039
  901MOL0     N24251   3.913   8.331   3.876 -0.2524  0.0489  0.3215
  901MOL0     N24252   3.825   8.424   3.873  0.0796  0.3685  0.4339
  901MOL0     C24253   3.412   7.814   3.734  0.2978  0.5441 -0.4661
  901MOL0     C24254   3.418   7.682   3.778  0.3253  0.5299 -0.8560
  901MOL0     C24255   3.438   7.256   3.862 -0.0773  0.0147 -0.3281
  901MOL0     C24256   3.516   7.187   3.761  0.8463  0.4067 -0.3583
  901MOL0     C24257   3.553   7.059   3.780  0.3299  0.7260  0.2965
  901MOL0     C24258   3.528   6.989   3.899 -0.2942  0.2720  0.4804
  901MOL0     O24259   3.544   6.851   3.926 -0.1666 -0.6580  0.6212
  901MOL0     C24260   3.617   6.772   3.831  0.2177 -0.6717 -0.4407
  901MOL0     C24261   3.612   6.621   3.865 -0.6218  0.3801 -0.0156
  901MOL0     C24262   3.468   6.553   3.851 -0.1622  0.1751  0.7020
  901MOL0     C24263   3.451   6.424   3.925 -0.1627 -0.0867 -1.3370
  901MOL0     C24264   3.337   6.340   3.908  1.2222 -0.1793 -0.3936
  901MOL0     C24265   3.234   6.289   3.887  0.1499  0.6441  0.8510
  901MOL0     C24266   3.456   7.056   3.998  0.1071 -0.7512 -0.7189
  901MOL0     C24267   3.411   7.192   3.984 -0.2905  1.3816  0.0094
  901MOL0     C24268   3.352   7.266   4.105  0.1769  0.0779  0.3323
  901MOL0     H24269   3.412   7.541   3.470  2.8758  1.6852 -1.2333
  901MOL0     H24270   3.386   7.767   3.408  0.0080 -2.1081 -1.2177
  901MOL0     H24271   3.538   8.054   3.678  0.0425 -1.8891 -0.5134
  901MOL0     H24272   3.366   8.085   3.704  0.3955 -0.9882  0.5636
  901MOL0     H24273   3.477   8.203   3.447 -0.8868  0.5052 -0.3365
  901MOL0     H24274   3.344   8.256   3.553  0.4267  0.0799 -0.9557
  901MOL0     H24275   3.487   8.320   3.740 -0.0396  0.6492  0.2161
  901MOL0     H24276   3.632   8.289   3.646 -1.6063 -4.8944  1.2073
  901MOL0     H24277   3.513   8.475   3.467 -2.5091  1.9980 -0.1318
  901MOL0     H24278   3.390   8.467   3.586 -0.3310 -3.1123 -1.4031
  901MOL0     H24279   3.557   8.532   3.760 -1.8836 -1.5025  0.0083
  901MOL0     H24280   3.516   8.657   3.644  2.5642  1.6182  2.6059
  901MOL0     H24281   3.776   8.492   3.598  2.4289  2.2466 -0.3498
  901MOL0     H24282   3.717   8.601   3.491  0.3278 -2.7472 -0.1000
  901MOL0     H24283   3.735   8.785   3.661 -0.2644 -0.4337  2.1581
  901MOL0     H24284   3.880   8.710   3.609  0.1722  0.2268  0.7075
  901MOL0     H24285   3.892   8.742   3.861 -1.0333 -0.1234  1.8187
  901MOL0     H24286   3.735   8.671   3.881 -0.0925  1.7096  0.9275
  901MOL0     H24287   4.086   8.555   3.723  0.3133 -1.1186 -0.0577
  901MOL0     H24288   4.147   8.271   3.666 -1.2594 -0.3113  0.1072
  901MOL0     H24289   4.094   8.172   3.802 -1.7839  0.2527 -1.4922
  901MOL0     H24290   4.318   8.382   3.794  3.2357 -0.8879 -0.8826
  901MOL0     H24291   4.247   8.329   3.950  0.0103  0.1583  0.3795
  901MOL0     H24292   4.301   8.093   3.886 -0.1829 -0.9436 -2.8432
  901MOL0     H24293   4.393   8.144   3.748  0.1868 -2.5239  1.1061
  901MOL0     H24294   4.441   8.226   4.033 -1.0730  0.6711 -0.3840
  901MOL0     H24295   4.550   8.135   3.937  0.1156 -0.2476 -0.1374
  901MOL0     H24296   4.597   8.191   3.695 -1.3014  0.8441  3.5669
  901MOL0     H24297   4.782   8.084   3.538  0.3466  0.4892  2.2945
  901MOL0     H24298   4.925   8.181   3.498  0.0978  1.5212 -0.1575
  901MOL0     H24299   4.759   8.221   3.435 -2.9361 -0.0426  1.8398
  901MOL0     H24300   5.234   8.293   3.483 -1.9997  0.2408  1.8139
  901MOL0     H24301   5.450   8.351   3.364 -2.4151  0.4495 -0.7753
  901MOL0     H24302   5.587   8.763   3.353 -0.3229 -0.5571  1.0012
  901MOL0     H24303   5.664   8.704   3.505 -3.2083 -0.5980  1.2793
  901MOL0     H24304   5.856   8.717   3.366  0.0885 -0.8942  0.8300
  901MOL0     H24305   5.802   8.551   3.351  0.4516 -0.5401 -0.4757
  901MOL0     H24306   5.773   8.768   3.138 -1.8633  1.6375  1.4007
  901MOL0     H24307   5.656   8.639   3.148 -0.3349 -1.0903  2.3003
  901MOL0     H24308   5.856   8.472   3.159 -0.4637  1.0065 -0.0439
  901MOL0     H24309   5.956   8.602   3.130 -0.2774 -1.4108  0.7433
  901MOL0     H24310   5.732   8.552   2.926 -0.0739  0.5127 -0.8242
  901MOL0     H24311   5.862   8.678   2.920  1.7155  0.0561  0.2073
  901MOL0     H24312   5.888   8.386   2.887  0.5620  0.8426  1.7105
  901MOL0     H24313   6.025   8.486   2.908 -0.1996 -1.2988  0.1391
  901MOL0     H24314   6.019   8.475   2.682  0.7619  1.3903 -0.1877
  901MOL0     H24315   5.954   8.637   2.719  0.8951 -0.1195 -0.2852
  901MOL0     H24316   5.829   8.550   2.548  0.0386 -0.5478 -0.2493
  901MOL0     H24317   5.723   8.530   2.688  1.5482  2.5445  0.8480
  901MOL0     H24318   5.458   8.725   3.578 -0.4867  0.6944 -1.6437
  901MOL0     H24319   5.225   8.663   3.672 -1.3606 -3.3964  0.6412
  901MOL0     H24320   4.895   8.570   3.783  1.2816  0.7841 -0.5702
  901MOL0     H24321   4.698   8.542   3.903 -0.4309 -0.2011 -0.0028
  901MOL0     H24322   3.406   7.895   3.806 -0.6082  0.7283 -0.7453
  901MOL0     H24323   3.437   7.663   3.883  0.4379  0.6115 -0.8618
  901MOL0     H24324   3.528   7.221   3.659 -0.3976  2.0730  0.0103
  901MOL0     H24325   3.620   7.008   3.711  0.8919  2.5220 -0.5554
  901MOL0     H24326   3.568   6.779   3.734 -1.4544 -1.1138  0.3365
  901MOL0     H24327   3.718   6.811   3.816 -0.2349  1.4877  1.5701
  901MOL0     H24328   3.657   6.591   3.960 -0.3742 -0.3341 -0.3518
  901MOL0     H24329   3.676   6.583   3.786  1.6881  0.9072  1.5058
  901MOL0     H24330   3.388   6.622   3.876  0.3011  0.7335  0.6806
  901MOL0     H24331   3.464   6.526   3.745 -0.6189  0.6196  0.6000
  901MOL0     H24332   3.448   6.448   4.031 -1.5944 -3.2769 -0.5542
  901MOL0     H24333   3.534   6.357   3.902 -1.1141 -2.0033  0.4867
  901MOL0     H24334   3.146   6.235   3.857 -1.4848  1.0625  4.4487
  901MOL0     H24335   3.431   6.999   4.087 -0.4519  0.4772 -0.0711
  901MOL0     H24336   3.252   7.305   4.088 -0.7680 -2.5664 -0.6527
  901MOL0     H24337   3.337   7.192   4.184 -1.3342  0.8228  0.7860
  901MOL0     H24338   3.425   7.336   4.147  0.3664  0.4717 -0.6343
  902MOL0     O24339   6.204   3.929   2.955 -0.1004 -0.4853  0.6186
  902MOL0     C24340   6.168   3.816   2.928 -0.5681 -1.4365  0.7920
  902MOL0     O24341   6.254   3.719   2.898 -0.7599 -0.1760 -0.3499
  902MOL0     C24342   6.388   3.747   2.905 -0.0935  0.8726  0.7621
  902MOL0     C24343   6.471   3.830   2.833  0.1256 -0.5961  0.2834
  902MOL0     C24344   6.611   3.839   2.852  0.7889 -0.1387 -0.7555
  902MOL0     C24345   6.670   3.757   2.955  0.4568 -0.3359  0.3923
  902MOL0     O24346   6.802   3.768   2.979  0.4055  0.8904 -0.6846
  902MOL0     C24347   6.868   3.645   3.007 -0.4449  0.3317 -0.3003
  902MOL0     C24348   7.006   3.679   3.053  0.1553  0.5092  0.3060
  902MOL0     C24349   7.012   3.722   3.205  0.4335 -0.9382  0.2209
  902MOL0     C24350   7.154   3.700   3.260 -0.0830  0.4071 -0.8159
  902MOL0     C24351   7.279   3.756   3.195  0.0782 -0.3080  0.3224
  902MOL0     C24352   7.274   3.910   3.146  0.7538  0.8408 -0.4439
  902MOL0     C24353   7.415   3.947   3.099  0.2430  0.7913  0.5759
  902MOL0     C24354   7.517   3.942   3.206 -0.4761 -0.0096  0.0615
  902MOL0     N24355   7.640   4.016   3.172 -0.5679 -0.5559  0.9231
  902MOL0     C24356   7.652   4.153   3.191 -0.3962 -0.2984 -0.5397
  902MOL0     C24357   7.772   4.179   3.130 -0.2113 -0.3161  0.3337
  902MOL0     C24358   7.857   4.311   3.118 -0.0749  0.0466  0.5225
  902MOL0     C24359   7.897   4.367   3.245 -0.1143 -0.6986 -0.2903
  902MOL0     C24360   8.048   4.350   3.266 -1.1007 -0.4598 -1.4669
  902MOL0     C24361   8.091   4.359   3.418 -0.1266  0.6028  0.0585
  902MOL0     O24362   8.210   4.283   3.433  0.2737 -0.9311 -0.4037
  902MOL0     C24363   8.276   4.296   3.560  0.0538 -0.4289 -0.2603
  902MOL0     C24364   8.231   4.377   3.660  0.3596 -0.4481 -0.1383
  902MOL0     C24365   8.312   4.412   3.769 -0.4397 -0.4346  0.3188
  902MOL0     C24366   8.255   4.512   3.870  0.2676  0.1235  0.3986
  902MOL0     C24367   8.443   4.360   3.769 -0.3410  0.2656 -0.7142
  902MOL0     C24368   8.548   4.392   3.871  0.8458 -1.1125 -0.2653
  902MOL0     O24369   8.665   4.332   3.858 -0.2454 -0.1084  0.0321
  902MOL0     C24370   8.783   4.368   3.927 -0.0051 -0.3803 -0.1089
  902MOL0     C24371   8.868   4.270   3.974 -0.5567 -0.2513 -0.0929
  902MOL0     C24372   8.981   4.305   4.049  0.4281  0.2557  0.0338
  902MOL0     C24373   9.014   4.434   4.069 -0.0387 -1.1280  0.2089
  902MOL0     O24374   9.117   4.458   4.151  0.0150 -0.5775  0.2986
  902MOL0     C24375   9.184   4.588   4.141 -0.6471 -0.2945  0.0960
  902MOL0     C24376   9.324   4.592   4.211  0.4372  0.6160  0.1568
  902MOL0     C24377   9.431   4.507   4.145  0.2516  0.2476 -1.4230
  902MOL0     C24378   9.483   4.563   4.016  0.7650 -0.5739  0.3095
  902MOL0     C24379   9.624   4.511   3.988 -0.4528 -0.5957 -0.1508
  902MOL0     C24380   9.666   4.509   3.847  0.4934  0.6533 -0.5058
  902MOL0     C24381   9.794   4.438   3.830 -0.0226  0.1035 -0.3807
  902MOL0     C24382   9.839   4.433   3.684  0.3145 -0.0277  0.4018
  902MOL0    Cl24383   9.736   4.312   3.603 -0.1152  0.1757 -0.2158
  902MOL0     C24384   8.933   4.539   4.019 -0.6848  0.5790  0.1126
  902MOL0     C24385   8.819   4.506   3.949  0.6211  0.2795 -0.1059
  902MOL0     O24386   8.537   4.493   3.942  0.1938 -0.0940  0.2664
  902MOL0     C24387   8.486   4.265   3.671 -0.2280 -0.7282 -0.8534
  902MOL0     C24388   8.406   4.245   3.565  0.3526 -0.3517 -0.6670
  902MOL0     N24389   7.830   4.055   3.094 -0.3258 -0.2144 -0.0635
  902MOL0     N24390   7.750   3.962   3.122 -0.3533 -0.0862 -0.7534
  902MOL0     C24391   6.587   3.684   3.034  0.8132 -0.7656  0.0047
  902MOL0     C24392   6.451   3.670   3.005 -0.6939  0.6214  0.0603
  902MOL0     C24393   6.028   3.769   2.946 -0.5571  0.6926  0.3974
  902MOL0     C24394   5.993   3.640   2.891 -0.6654  0.8772 -0.0225
  902MOL0     C24395   5.866   3.595   2.893  0.1970 -0.0382  0.0033
  902MOL0     C24396   5.762   3.666   2.948  0.2938 -0.9874  0.8949
  902MOL0     O24397   5.638   3.615   2.961 -0.0972  0.6019 -0.1823
  902MOL0     C24398   5.591   3.502   2.903 -0.0530 -0.0857 -0.3504
  902MOL0     C24399   5.450   3.481   2.947 -0.0880 -0.1196  0.2397
  902MOL0     C24400   5.434   3.463   3.100  0.0227 -0.4970 -0.3765
  902MOL0     C24401   5.300   3.422   3.149  0.6946  0.1340  0.4527
  902MOL0     C24402   5.192   3.505   3.104  0.1222 -0.5790 -0.8659
  902MOL0     C24403   5.101   3.584   3.075 -0.5182 -0.3989 -0.6877
  902MOL0     C24404   5.786   3.790   2.997  0.1348 -0.4384 -0.1274
  902MOL0     C24405   5.918   3.839   3.006 -0.3296 -0.5860 -0.2042
  902MOL0     C24406   5.933   3.976   3.067 -0.7287  0.2652  0.5461
  902MOL0     H24407   6.421   3.887   2.755  0.3533 -0.1624  0.4529
  902MOL0     H24408   6.667   3.911   2.793 -0.3565 -0.0109 -1.7336
  902MOL0     H24409   6.875   3.576   2.922 -0.6867  0.0117 -0.0618
  902MOL0     H24410   6.826   3.593   3.094 -0.3655  1.2509  0.3059
  902MOL0     H24411   7.066   3.588   3.045 -2.4371 -1.1955 -1.7243
  902MOL0     H24412   7.055   3.756   2.993 -1.1907  0.4783 -0.8809
  902MOL0     H24413   6.977   3.823   3.225  1.2579 -0.7847  0.9438
  902MOL0     H24414   6.940   3.659   3.257  1.8456 -1.8899  1.1138
  902MOL0     H24415   7.152   3.748   3.358  4.2201 -1.1989  0.2944
  902MOL0     H24416   7.175   3.593   3.266  0.4773  0.0502 -5.3090
  902MOL0     H24417   7.297   3.688   3.112 -4.0263 -1.0938 -0.1399
  902MOL0     H24418   7.365   3.737   3.259  2.2483  1.5857 -1.8075
  902MOL0     H24419   7.204   3.922   3.063 -1.3698  1.0987  1.2881
  902MOL0     H24420   7.241   3.970   3.231 -1.1845 -2.5110  1.3457
  902MOL0     H24421   7.403   4.046   3.053 -0.9745  0.1583 -0.5264
  902MOL0     H24422   7.445   3.880   3.018 -0.2855  2.2717 -0.8997
  902MOL0     H24423   7.489   3.984   3.303 -1.0119 -0.1675 -0.0208
  902MOL0     H24424   7.545   3.837   3.222 -0.8056 -0.0051  0.7036
  902MOL0     H24425   7.585   4.218   3.247 -2.6883 -0.8062 -2.5363
  902MOL0     H24426   7.802   4.389   3.065  4.2472  3.9260  1.1994
  902MOL0     H24427   7.947   4.280   3.063 -0.2596  1.3750 -0.5625
  902MOL0     H24428   7.882   4.476   3.237  0.2905 -0.5568  0.7247
  902MOL0     H24429   7.841   4.331   3.331  2.4499 -0.7638  1.4839
  902MOL0     H24430   8.074   4.247   3.241 -0.5318 -0.3175 -1.4783
  902MOL0     H24431   8.116   4.413   3.208  3.7519 -1.0842  2.7874
  902MOL0     H24432   8.103   4.466   3.437 -1.5799  0.6632  0.8370
  902MOL0     H24433   8.010   4.311   3.475  0.8481  0.6939  1.5692
  902MOL0     H24434   8.129   4.414   3.666 -0.1512 -1.5117 -1.6033
  902MOL0     H24435   8.152   4.532   3.836  0.0610 -0.8361  0.4266
  902MOL0     H24436   8.318   4.601   3.862 -0.5458  0.7735  1.0547
  902MOL0     H24437   8.247   4.479   3.974 -1.6263 -0.7052  0.0484
  902MOL0     H24438   8.837   4.166   3.967  2.1722 -1.3208  1.8624
  902MOL0     H24439   9.044   4.228   4.091 -1.3145 -2.8215 -2.5627
  902MOL0     H24440   9.189   4.625   4.038  1.8068 -0.0333  0.2529
  902MOL0     H24441   9.132   4.675   4.183 -1.7146 -1.3017  0.9373
  902MOL0     H24442   9.362   4.694   4.217  2.3105 -0.1003  1.3712
  902MOL0     H24443   9.313   4.558   4.314 -2.7584  2.9431  0.7221
  902MOL0     H24444   9.389   4.406   4.137  1.0327 -0.6943  3.1900
  902MOL0     H24445   9.507   4.500   4.224 -1.3683 -0.5061  0.1407
  902MOL0     H24446   9.486   4.673   4.019  1.8859 -0.5819  0.0775
  902MOL0     H24447   9.409   4.529   3.943  2.4203 -1.0111 -1.2575
  902MOL0     H24448   9.693   4.569   4.050  0.3278 -0.9001 -0.7160
  902MOL0     H24449   9.637   4.414   4.037  1.6723  0.5942  1.8096
  902MOL0     H24450   9.685   4.611   3.812  2.5823  0.4012 -0.2248
  902MOL0     H24451   9.594   4.452   3.786  0.0511 -0.2868  0.8584
  902MOL0     H24452   9.777   4.332   3.854 -2.2993  0.6291  0.5561
  902MOL0     H24453   9.871   4.488   3.889 -0.6696  0.0029  0.5525
  902MOL0     H24454   9.945   4.412   3.672  0.4045  0.5189  0.2300
  902MOL0     H24455   9.830   4.536   3.648  1.1556 -0.9869 -2.8902
  902MOL0     H24456   8.957   4.644   4.034  0.4599  0.4902 -0.9507
  902MOL0     H24457   8.762   4.586   3.903 -1.2764 -0.3844  0.9605
  902MOL0     H24458   8.584   4.220   3.672  0.2332  0.2161 -1.6318
  902MOL0     H24459   8.442   4.179   3.486  0.3839 -0.4476 -0.5727
  902MOL0     H24460   6.622   3.630   3.122 -0.2398  1.1877  1.6882
  902MOL0     H24461   6.393   3.597   3.061 -1.2961  1.4720  0.5814
  902MOL0     H24462   6.066   3.578   2.839 -0.1998  1.9020 -0.6205
  902MOL0     H24463   5.852   3.496   2.851  2.0114 -1.0002  1.5149
  902MOL0     H24464   5.598   3.514   2.794 -0.3695 -0.6601 -0.4365
  902MOL0     H24465   5.655   3.418   2.930  0.9656  1.2181  1.5341
  902MOL0     H24466   5.424   3.389   2.895 -1.0323 -0.6361  1.5553
  902MOL0     H24467   5.395   3.563   2.899  1.6181 -0.2242 -2.0496
  902MOL0     H24468   5.507   3.391   3.137 -0.6739 -1.5058 -0.9154
  902MOL0     H24469   5.465   3.556   3.150  0.6609  0.0151 -1.6905
  902MOL0     H24470   5.299   3.440   3.257  3.4806 -0.8286  0.7080
  902MOL0     H24471   5.281   3.317   3.122 -2.4611  0.0431  2.4384
  902MOL0     H24472   5.021   3.649   3.045  0.0122  0.7472  0.3195
  902MOL0     H24473   5.704   3.843   3.045 -1.1504 -2.5150  0.0930
  902MOL0     H24474   5.950   4.053   2.991 -1.6392 -0.4393 -0.3936
  902MOL0     H24475   5.851   3.998   3.135 -0.1500  2.1747  0.6893
  902MOL0     H24476   6.016   3.973   3.138 -1.6992  0.9286  1.7463
  903MOL0     O24477   4.028   0.803   1.157  0.0821  0.0054  0.2197
  903MOL0     C24478   4.090   0.703   1.139 -0.1808  0.3968  0.6016
  903MOL0     O24479   4.183   0.685   1.039  0.3561  0.3502 -0.8361
  903MOL0     C24480   4.260   0.798   1.002  0.2612  0.9030 -0.3145
  903MOL0     C24481   4.302   0.797   0.865 -0.0501  0.4663 -0.2148
  903MOL0     C24482   4.383   0.903   0.825 -0.1727 -0.4381 -0.7087
  903MOL0     C24483   4.427   0.999   0.905 -0.5613 -0.4920 -0.1147
  903MOL0     O24484   4.533   1.074   0.863  0.0444 -0.0609 -0.1587
  903MOL0     C24485   4.561   1.208   0.931  0.3024 -0.0990  0.2582
  903MOL0     C24486   4.641   1.299   0.843  0.4040  0.5031  0.6850
  903MOL0     C24487   4.662   1.443   0.906  0.5285  0.4011  0.3240
  903MOL0     C24488   4.703   1.553   0.810  0.6322  0.4521 -0.0455
  903MOL0     C24489   4.667   1.690   0.868  0.3965  0.7624 -0.7457
  903MOL0     C24490   4.720   1.810   0.780  0.1297  0.1815  0.2718
  903MOL0     C24491   4.873   1.820   0.774  0.2972  0.6918  0.1862
  903MOL0     C24492   4.920   1.961   0.713 -0.1751 -0.1779  1.1322
  903MOL0     N24493   5.066   1.962   0.726  0.0404 -0.0885 -0.3417
  903MOL0     C24494   5.143   1.988   0.836 -0.4762 -0.7322  0.0452
  903MOL0     C24495   5.271   1.969   0.799  0.0930  0.0460 -0.4126
  903MOL0     C24496   5.382   1.979   0.895 -0.3040  0.6016  0.7919
  903MOL0     C24497   5.516   2.001   0.822 -1.0178  0.6613  0.1037
  903MOL0     C24498   5.618   1.992   0.935 -0.5443  0.3547  0.3126
  903MOL0     C24499   5.755   2.040   0.891  0.4334 -0.2258 -0.2399
  903MOL0     O24500   5.841   2.074   1.009  0.3639 -0.5185 -0.1500
  903MOL0     C24501   5.948   1.993   1.034 -0.7480  0.0712 -0.3282
  903MOL0     C24502   5.998   1.994   1.159  0.2041 -0.0799  0.0225
  903MOL0     C24503   6.094   1.895   1.203 -0.2141 -0.4584  0.0670
  903MOL0     C24504   6.119   1.883   1.352 -0.7581 -0.1346  0.2217
  903MOL0     C24505   6.164   1.817   1.112  0.2191  0.0303  0.0829
  903MOL0     C24506   6.289   1.731   1.149 -0.5541  0.4317  0.4992
  903MOL0     O24507   6.366   1.704   1.035 -0.3487  0.4528  0.6748
  903MOL0     C24508   6.487   1.645   1.050 -0.9636 -0.3664 -0.4608
  903MOL0     C24509   6.539   1.563   0.945  0.6375 -1.6086 -0.4944
  903MOL0     C24510   6.660   1.497   0.954  0.6110  0.1463 -0.2864
  903MOL0     C24511   6.739   1.512   1.073 -0.3340 -0.1821  0.0857
  903MOL0     O24512   6.864   1.443   1.075  0.0835 -0.4508  0.8745
  903MOL0     C24513   6.956   1.474   1.172 -0.0800  0.4166  0.0356
  903MOL0     C24514   7.094   1.418   1.130  0.0102 -0.2018  0.2699
  903MOL0     C24515   7.197   1.449   1.240  0.4304  0.3019  0.1448
  903MOL0     C24516   7.177   1.347   1.359  0.2891 -0.3956  0.4079
  903MOL0     C24517   7.304   1.332   1.439  0.7619 -0.1074  0.6027
  903MOL0     C24518   7.267   1.336   1.587 -0.2188  0.8008 -0.1683
  903MOL0     C24519   7.387   1.291   1.662 -0.3122 -0.7340 -0.4214
  903MOL0     C24520   7.391   1.316   1.818  0.2105  0.9374 -1.3683
  903MOL0    Cl24521   7.549   1.257   1.877 -0.1996  0.0064 -0.0849
  903MOL0     C24522   6.697   1.610   1.169  0.1583  0.2621  0.3318
  903MOL0     C24523   6.574   1.671   1.157 -0.9409 -0.0363 -0.0725
  903MOL0     O24524   6.299   1.676   1.258 -0.7943 -0.7582  0.5439
  903MOL0     C24525   6.112   1.823   0.980 -0.5843 -0.3663  0.5385
  903MOL0     C24526   6.006   1.899   0.948  0.3503  1.0689 -0.5407
  903MOL0     N24527   5.278   1.931   0.669  0.3645 -0.0167  0.2133
  903MOL0     N24528   5.154   1.929   0.626 -0.5895 -0.8718 -0.0912
  903MOL0     C24529   4.387   0.998   1.046 -0.1260 -0.4541 -0.0233
  903MOL0     C24530   4.296   0.900   1.082  0.1176 -0.1167  0.1326
  903MOL0     C24531   4.056   0.590   1.230 -0.4185 -0.7286  0.0002
  903MOL0     C24532   3.931   0.573   1.293  0.6843  1.2725 -0.5873
  903MOL0     C24533   3.893   0.469   1.375  0.0470  0.3521  0.4979
  903MOL0     C24534   3.995   0.374   1.391  0.7035 -0.8537 -0.2100
  903MOL0     O24535   3.980   0.265   1.473 -0.4013 -0.6592  0.0444
  903MOL0     C24536   3.855   0.249   1.539  1.1650 -0.1832  0.5831
  903MOL0     C24537   3.863   0.117   1.615  0.2344 -0.0886  0.3297
  903MOL0     C24538   3.743   0.111   1.717 -0.5463 -0.4522  0.7675
  903MOL0     C24539   3.776   0.055   1.848 -0.1358  0.2908 -0.3444
  903MOL0     C24540   3.664   0.034   1.927  0.9101 -0.2153 -0.2521
  903MOL0     C24541   3.556   0.022   1.986  0.2032  0.0861 -0.1147
  903MOL0     C24542   4.126   0.397   1.348  0.1658 -0.9043 -0.2316
  903MOL0     C24543   4.159   0.505   1.265  0.3300 -0.2600 -0.1914
  903MOL0     C24544   4.299   0.518   1.230  0.6073 -0.4819 -0.1686
  903MOL0     H24545   4.260   0.726   0.794  1.6220  1.3695 -2.2127
  903MOL0     H24546   4.420   0.888   0.725  0.6061 -4.3903  0.0115
  903MOL0     H24547   4.616   1.187   1.023  2.9853  1.4661 -0.8861
  903MOL0     H24548   4.465   1.250   0.962 -0.4970 -1.6134 -0.0279
  903MOL0     H24549   4.740   1.258   0.824  0.2301  0.4740 -0.1866
  903MOL0     H24550   4.590   1.322   0.749  3.2709  3.4638 -0.3553
  903MOL0     H24551   4.574   1.471   0.964 -0.9975 -1.6000 -0.8917
  903MOL0     H24552   4.742   1.439   0.981  0.6780  0.7223  0.1817
  903MOL0     H24553   4.812   1.551   0.802  0.5532  0.4903 -1.3613
  903MOL0     H24554   4.663   1.549   0.708  3.0095 -2.9049 -1.0159
  903MOL0     H24555   4.720   1.685   0.964  0.1301 -1.1365 -0.6791
  903MOL0     H24556   4.560   1.703   0.885 -0.0264 -2.1403 -0.8125
  903MOL0     H24557   4.675   1.785   0.683 -0.0492 -3.5851  1.2026
  903MOL0     H24558   4.679   1.906   0.814 -1.7660 -0.2777 -0.5850
  903MOL0     H24559   4.910   1.727   0.728 -3.0606 -0.3348 -0.6819
  903MOL0     H24560   4.900   1.816   0.880  1.0609  3.0121  0.1333
  903MOL0     H24561   4.903   1.977   0.606  1.6074  2.2779  1.1244
  903MOL0     H24562   4.867   2.040   0.767  0.8334 -0.6095  2.7946
  903MOL0     H24563   5.115   2.034   0.930  1.4670  2.2551 -0.7024
  903MOL0     H24564   5.400   1.878   0.931 -1.6441 -0.2286 -0.7207
  903MOL0     H24565   5.365   2.050   0.977  4.6704  0.4742  2.2780
  903MOL0     H24566   5.534   1.926   0.744  1.8706 -0.3694  1.6281
  903MOL0     H24567   5.522   2.102   0.780 -1.7780  0.0084 -1.6844
  903MOL0     H24568   5.583   2.055   1.017 -0.0435  3.2511 -1.5589
  903MOL0     H24569   5.631   1.888   0.967  3.4352 -0.2659 -2.5496
  903MOL0     H24570   5.793   1.959   0.827  2.8473  1.0930 -0.5815
  903MOL0     H24571   5.744   2.127   0.825 -1.4424  0.3161  0.7121
  903MOL0     H24572   5.940   2.050   1.233  2.2313  0.1051  1.5733
  903MOL0     H24573   6.130   1.776   1.375  0.8858 -0.7982 -3.0038
  903MOL0     H24574   6.026   1.918   1.397  0.8342  1.6337  2.3351
  903MOL0     H24575   6.212   1.932   1.383 -1.0694  0.0485  0.8745
  903MOL0     H24576   6.469   1.544   0.864 -0.4773  0.2594 -0.0405
  903MOL0     H24577   6.694   1.431   0.875  0.1416 -0.3622 -0.0736
  903MOL0     H24578   6.966   1.583   1.178  0.2328  0.3675  0.4780
  903MOL0     H24579   6.931   1.417   1.262 -3.1076 -1.8421 -2.0276
  903MOL0     H24580   7.081   1.312   1.107  2.1113 -0.5254  0.3850
  903MOL0     H24581   7.124   1.476   1.042 -2.2131 -0.3387 -0.6432
  903MOL0     H24582   7.186   1.552   1.275  0.0062  0.3482 -0.1098
  903MOL0     H24583   7.289   1.428   1.185 -1.9659 -3.7071 -2.9291
  903MOL0     H24584   7.163   1.247   1.318  4.2420 -0.7111 -0.5690
  903MOL0     H24585   7.097   1.390   1.421 -0.6748 -1.3810 -0.1236
  903MOL0     H24586   7.347   1.233   1.427  1.7229  0.2313  1.1652
  903MOL0     H24587   7.370   1.418   1.422 -2.3850  2.9045  2.2828
  903MOL0     H24588   7.188   1.267   1.616  1.4212 -0.3062  2.0211
  903MOL0     H24589   7.240   1.438   1.614 -1.4157  0.6991 -0.9145
  903MOL0     H24590   7.469   1.352   1.625  1.1491 -2.0500  0.5226
  903MOL0     H24591   7.404   1.184   1.650 -1.1771 -1.2685  2.3789
  903MOL0     H24592   7.310   1.279   1.882  1.7954  1.6039  1.1323
  903MOL0     H24593   7.398   1.421   1.848 -0.7754  0.3512  1.1687
  903MOL0     H24594   6.756   1.633   1.257  0.7398  2.1435 -0.4951
  903MOL0     H24595   6.561   1.726   1.250  0.8906 -0.9013  0.7517
  903MOL0     H24596   6.161   1.772   0.898  1.2307  0.5586  0.9983
  903MOL0     H24597   5.974   1.906   0.844 -2.2018 -0.0833  0.1081
  903MOL0     H24598   4.422   1.080   1.108  0.9211  1.3266 -2.7406
  903MOL0     H24599   4.271   0.912   1.187 -1.0384  1.2499 -0.2825
  903MOL0     H24600   3.858   0.652   1.275 -1.6116 -0.0630  1.9309
  903MOL0     H24601   3.791   0.461   1.409  0.3489  1.0544  1.6309
  903MOL0     H24602   3.834   0.339   1.598  2.7933 -0.0008  0.9429
  903MOL0     H24603   3.768   0.245   1.473 -0.5421 -1.2395  2.7889
  903MOL0     H24604   3.949   0.130   1.682 -0.4862 -1.4327  1.5631
  903MOL0     H24605   3.877   0.027   1.555  3.6080 -0.0616  0.9033
  903MOL0     H24606   3.697   0.211   1.719  2.6582  1.1888 -0.2506
  903MOL0     H24607   3.665   0.045   1.678 -3.2122  1.5804  2.2532
  903MOL0     H24608   3.853   0.106   1.906  0.6780 -1.3489  0.0833
  903MOL0     H24609   3.813  -0.048   1.842 -2.3855 -0.4964 -3.8015
  903MOL0     H24610   3.458   0.012   2.026  0.8598 -1.2819  1.2044
  903MOL0     H24611   4.211   0.335   1.374  2.5816  2.4660  0.6092
  903MOL0     H24612   4.339   0.619   1.245  0.4100 -0.2105 -1.3710
  903MOL0     H24613   4.357   0.450   1.293 -1.0414 -0.1879  1.7905
  903MOL0     H24614   4.328   0.495   1.127 -2.1009 -2.1840 -0.6407
  904MOL0     O24615   8.462   5.225   1.010  0.5541 -0.3713 -0.5876
  904MOL0     C24616   8.381   5.128   1.011 -0.5688 -0.3124 -0.4736
  904MOL0     O24617   8.375   5.023   1.097  0.3201 -0.5863 -0.2587
  904MOL0     C24618   8.463   4.985   1.187  0.2703 -0.0700 -0.2309
  904MOL0     C24619   8.494   5.076   1.291  0.8863 -0.2668  0.4422
  904MOL0     C24620   8.586   5.042   1.389 -0.8902  0.2634 -1.1213
  904MOL0     C24621   8.662   4.926   1.378 -0.4576 -0.7773 -0.1806
  904MOL0     O24622   8.764   4.906   1.465 -0.9150 -0.2130 -0.0434
  904MOL0     C24623   8.880   4.987   1.421  0.1396 -0.2563  0.1196
  904MOL0     C24624   9.000   4.916   1.466 -0.6217  0.0246  0.5169
  904MOL0     C24625   9.025   4.782   1.393 -0.7146  0.8107  0.2989
  904MOL0     C24626   9.167   4.735   1.409  0.3260  0.2967  0.5792
  904MOL0     C24627   9.195   4.665   1.535 -0.7623 -0.1749 -0.0978
  904MOL0     C24628   9.323   4.583   1.522  0.4695 -0.2766  0.9096
  904MOL0     C24629   9.383   4.518   1.651  0.0258  0.8541  0.6561
  904MOL0     C24630   9.485   4.409   1.603  0.0118 -0.3487 -0.4663
  904MOL0     N24631   9.608   4.488   1.572 -0.2025 -0.3630 -0.0149
  904MOL0     C24632   9.687   4.568   1.657 -0.7768 -0.2300  0.8108
  904MOL0     C24633   9.787   4.614   1.579 -0.0627  0.3345 -0.7793
  904MOL0     C24634   9.903   4.700   1.604  0.4945 -0.5820 -0.4252
  904MOL0     C24635   9.971   4.681   1.739  0.0847 -0.6838  0.1165
  904MOL0     C24636  10.120   4.721   1.736 -0.1903  0.3240  0.1628
  904MOL0     C24637  10.187   4.720   1.879  1.1996  0.3543  0.3795
  904MOL0     O24638  10.170   4.594   1.945  0.6172  0.0776  0.1660
  904MOL0     C24639  10.281   4.538   1.991 -0.0056  0.5302 -0.6974
  904MOL0     C24640  10.340   4.596   2.100 -0.3592 -0.1102  0.0560
  904MOL0     C24641  10.461   4.552   2.156 -0.1225  0.2762 -0.2726
  904MOL0     C24642  10.524   4.634   2.268 -0.8368  0.1257 -0.1327
  904MOL0     C24643  10.521   4.440   2.084  0.7420 -1.0335 -0.8201
  904MOL0     C24644  10.644   4.371   2.118 -0.0172 -0.1534  0.3037
  904MOL0     O24645  10.661   4.360   2.247 -0.0903 -0.0373  0.0549
  904MOL0     C24646  10.770   4.304   2.297 -0.4735 -0.0978  0.1968
  904MOL0     C24647  10.797   4.336   2.435  0.0089 -0.6240 -0.2698
  904MOL0     C24648  10.915   4.294   2.492 -0.0167 -0.6897 -1.4606
  904MOL0     C24649  11.009   4.211   2.426 -0.3082  0.6908 -0.1011
  904MOL0     O24650  11.131   4.170   2.484  0.3039 -0.7157  0.2020
  904MOL0     C24651  11.170   4.241   2.599 -0.2371  0.1620  0.4253
  904MOL0     C24652  11.324   4.228   2.617 -0.4688  0.3997  0.6828
  904MOL0     C24653  11.362   4.308   2.741  0.5579  0.1154  0.7869
  904MOL0     C24654  11.505   4.297   2.784  0.2330 -0.2439 -0.2294
  904MOL0     C24655  11.548   4.159   2.822 -0.0499 -0.3236 -0.5501
  904MOL0     C24656  11.684   4.155   2.891  0.1638  0.2363  0.2937
  904MOL0     C24657  11.714   4.002   2.923  0.1539 -0.7994  0.1255
  904MOL0     C24658  11.818   3.993   3.028 -1.3788  0.0866 -0.2648
  904MOL0    Cl24659  11.972   4.067   2.975  0.1651 -0.1816 -0.3946
  904MOL0     C24660  10.977   4.165   2.298 -0.4090 -0.0108  0.5943
  904MOL0     C24661  10.857   4.211   2.237  0.0557 -0.2005 -0.4705
  904MOL0     O24662  10.722   4.353   2.029 -0.0412  0.7452 -0.1717
  904MOL0     C24663  10.460   4.377   1.978 -0.7585 -0.0067 -0.0960
  904MOL0     C24664  10.332   4.420   1.937  0.3053 -0.0175 -0.7299
  904MOL0     N24665   9.760   4.568   1.447  0.6016 -0.1437  0.1299
  904MOL0     N24666   9.654   4.494   1.449  0.3987 -0.0651 -0.3628
  904MOL0     C24667   8.623   4.830   1.288 -0.7198  0.6324 -0.0848
  904MOL0     C24668   8.530   4.861   1.185  0.1097  0.0768  0.8982
  904MOL0     C24669   8.284   5.132   0.901 -0.3287 -0.7934  0.2372
  904MOL0     C24670   8.199   5.245   0.897  0.4633  0.0170  0.9188
  904MOL0     C24671   8.105   5.249   0.790 -0.6352  0.2674  0.9838
  904MOL0     C24672   8.108   5.159   0.683  0.8160  0.2001  0.1404
  904MOL0     O24673   8.028   5.178   0.565  0.2995  0.5107  0.7687
  904MOL0     C24674   7.904   5.242   0.593  1.0080  0.6053 -0.5406
  904MOL0     C24675   7.809   5.171   0.498  0.3702  0.4582 -0.1882
  904MOL0     C24676   7.687   5.260   0.459  0.1728  0.9005  0.6257
  904MOL0     C24677   7.622   5.201   0.344  0.5897  0.0448 -0.5178
  904MOL0     C24678   7.487   5.258   0.326 -0.0204  1.4506 -0.4761
  904MOL0     C24679   7.373   5.304   0.313 -0.2334 -0.0600  0.6509
  904MOL0     C24680   8.199   5.054   0.686  0.3753 -0.9721 -0.1356
  904MOL0     C24681   8.289   5.040   0.793 -0.5455  1.0341 -0.9435
  904MOL0     C24682   8.383   4.922   0.791  0.0700  0.4763 -0.7593
  904MOL0     H24683   8.450   5.175   1.285  1.6445 -0.0013 -4.0054
  904MOL0     H24684   8.617   5.118   1.461 -0.3449  0.1956 -1.2787
  904MOL0     H24685   8.891   5.087   1.464 -2.5293 -1.0323  2.9940
  904MOL0     H24686   8.866   5.006   1.314 -0.3777  2.2060  0.5608
  904MOL0     H24687   9.087   4.978   1.443  0.9679 -1.9083  1.0209
  904MOL0     H24688   9.012   4.900   1.574  2.7281  1.8508  0.5561
  904MOL0     H24689   8.967   4.701   1.438  3.4256 -2.7835 -0.2536
  904MOL0     H24690   8.999   4.800   1.288 -0.3111 -1.8610 -0.3183
  904MOL0     H24691   9.172   4.665   1.326  0.4832  0.8157  0.1421
  904MOL0     H24692   9.235   4.818   1.388 -1.5904  1.5125 -1.1857
  904MOL0     H24693   9.108   4.611   1.573 -0.5581 -0.6900 -0.3537
  904MOL0     H24694   9.208   4.743   1.611 -0.0492  0.0068 -0.4001
  904MOL0     H24695   9.304   4.500   1.452  1.2895 -1.5193  2.0990
  904MOL0     H24696   9.406   4.643   1.485 -0.4237  1.6182  1.8866
  904MOL0     H24697   9.298   4.478   1.707  0.2654 -1.7098 -0.6192
  904MOL0     H24698   9.437   4.591   1.712  0.4243 -0.2271  1.6500
  904MOL0     H24699   9.496   4.338   1.685 -0.2057 -0.5002 -0.5684
  904MOL0     H24700   9.459   4.352   1.514 -0.1809 -1.3836  0.2453
  904MOL0     H24701   9.680   4.590   1.764 -0.2578 -1.0350  1.0190
  904MOL0     H24702   9.858   4.800   1.603  0.3542 -0.6403 -1.7628
  904MOL0     H24703   9.976   4.711   1.524 -0.9762  2.0720 -1.5466
  904MOL0     H24704   9.910   4.726   1.818 -2.4853 -0.3631 -1.8857
  904MOL0     H24705   9.982   4.572   1.748  2.2774 -0.5962 -1.0427
  904MOL0     H24706  10.181   4.654   1.675 -1.8579 -0.7027 -0.4241
  904MOL0     H24707  10.127   4.821   1.690 -3.6842  0.0440 -1.2611
  904MOL0     H24708  10.293   4.741   1.863  0.6066  2.2737 -1.5007
  904MOL0     H24709  10.137   4.793   1.943 -0.2175  0.8869 -1.2338
  904MOL0     H24710  10.286   4.679   2.145  1.7646  0.5624  1.5077
  904MOL0     H24711  10.631   4.614   2.256 -0.3148  2.7883 -0.7517
  904MOL0     H24712  10.489   4.595   2.363  0.3516  0.1802  0.3484
  904MOL0     H24713  10.512   4.743   2.263  1.3226  0.4850  1.2804
  904MOL0     H24714  10.727   4.406   2.479  0.5825 -0.4325  0.3631
  904MOL0     H24715  10.923   4.307   2.599 -0.5944 -0.3342 -1.4547
  904MOL0     H24716  11.142   4.347   2.599  0.3703  0.3472  1.6539
  904MOL0     H24717  11.129   4.195   2.689  0.6684 -1.5577 -0.0035
  904MOL0     H24718  11.369   4.130   2.631 -0.5740  0.6167  2.9883
  904MOL0     H24719  11.379   4.262   2.529 -0.2974 -2.1299 -0.2518
  904MOL0     H24720  11.309   4.276   2.832 -0.7458  1.7482  0.6411
  904MOL0     H24721  11.346   4.415   2.725  1.5626 -0.0788 -1.9675
  904MOL0     H24722  11.517   4.357   2.875  0.3794  1.5608 -1.3800
  904MOL0     H24723  11.566   4.337   2.702 -0.5168 -0.2692 -0.8165
  904MOL0     H24724  11.482   4.114   2.897  1.9961 -0.4647  1.2508
  904MOL0     H24725  11.547   4.094   2.734  1.0147  0.7343 -1.3774
  904MOL0     H24726  11.697   4.224   2.975 -1.6082  0.5195  0.3578
  904MOL0     H24727  11.758   4.186   2.817  2.0467 -2.8680  0.7142
  904MOL0     H24728  11.744   3.948   2.833 -1.7770 -3.5120  0.9643
  904MOL0     H24729  11.626   3.954   2.968  0.3013  0.5577  1.9784
  904MOL0     H24730  11.824   3.886   3.047 -0.8049 -0.1125 -1.4852
  904MOL0     H24731  11.787   4.032   3.125  0.8520  0.6467  0.2869
  904MOL0     H24732  11.040   4.095   2.244 -1.1012  0.8785 -1.4394
  904MOL0     H24733  10.837   4.171   2.138  2.4521 -0.1339 -1.0470
  904MOL0     H24734  10.511   4.292   1.934  0.6651  0.8021 -0.0521
  904MOL0     H24735  10.263   4.378   1.865  1.0166  0.0371 -1.4493
  904MOL0     H24736   8.665   4.730   1.293 -0.2350  0.8536  0.3819
  904MOL0     H24737   8.492   4.797   1.107  0.6409  0.0253  0.6784
  904MOL0     H24738   8.209   5.324   0.970 -0.1345 -1.2390  2.4037
  904MOL0     H24739   8.045   5.340   0.789  0.5980  1.1081  0.0671
  904MOL0     H24740   7.874   5.225   0.697  0.6736 -2.0086 -1.0013
  904MOL0     H24741   7.911   5.351   0.582  0.9469  0.6639 -0.0250
  904MOL0     H24742   7.780   5.074   0.541  1.3467  0.4020  0.3845
  904MOL0     H24743   7.876   5.148   0.415 -1.0494 -0.6586 -1.0614
  904MOL0     H24744   7.620   5.264   0.546  1.0713  2.1495  1.2912
  904MOL0     H24745   7.709   5.366   0.440 -0.7593  1.2302  1.3242
  904MOL0     H24746   7.618   5.092   0.354  3.4350 -0.2654 -1.6347
  904MOL0     H24747   7.691   5.226   0.263 -1.7647  1.0590 -2.3032
  904MOL0     H24748   7.269   5.328   0.309 -0.0914  0.4280 -0.7968
  904MOL0     H24749   8.214   4.997   0.595  0.8156  0.2686 -0.8685
  904MOL0     H24750   8.345   4.835   0.844  0.2611  1.2866  0.7579
  904MOL0     H24751   8.396   4.891   0.687  1.1355 -0.9452 -0.2387
  904MOL0     H24752   8.482   4.936   0.835 -0.3606 -1.3001  0.8631
  905MOL0     O24753   9.928   6.380   4.610  0.2619  0.6311  0.0906
  905MOL0     C24754   9.970   6.448   4.708 -0.5327  0.0317 -0.0785
  905MOL0     O24755   9.897   6.540   4.780 -0.4961  0.1924 -0.1446
  905MOL0     C24756   9.761   6.522   4.762  0.1951 -0.1411 -0.7405
  905MOL0     C24757   9.680   6.482   4.873 -0.4739 -0.1458 -0.2019
  905MOL0     C24758   9.548   6.463   4.859  0.6259  0.7268  0.2136
  905MOL0     C24759   9.486   6.487   4.738 -0.1965 -0.3115  0.0806
  905MOL0     O24760   9.352   6.457   4.724  0.0729 -0.2849 -0.4482
  905MOL0     C24761   9.312   6.325   4.735  0.6577  0.4948  0.2845
  905MOL0     C24762   9.165   6.305   4.675  0.0579  0.1635 -0.4533
  905MOL0     C24763   9.131   6.154   4.663 -0.1303  0.2064 -0.0171
  905MOL0     C24764   9.039   6.137   4.548  0.4963  0.7613  0.2756
  905MOL0     C24765   8.953   6.010   4.552 -1.0079  0.7902  0.1147
  905MOL0     C24766   9.015   5.874   4.513 -0.5492 -0.4637  0.9696
  905MOL0     C24767   9.047   5.875   4.365 -0.3559 -0.4188 -0.1054
  905MOL0     C24768   9.111   5.746   4.312  0.0074  0.1121 -1.1484
  905MOL0     N24769   9.249   5.722   4.363 -0.2713 -1.0302  1.0734
  905MOL0     C24770   9.365   5.757   4.293  0.3710 -0.4424 -0.6222
  905MOL0     C24771   9.465   5.689   4.351  1.0153  0.3165 -0.4653
  905MOL0     C24772   9.607   5.690   4.307  0.7601  0.3985 -0.0505
  905MOL0     C24773   9.696   5.689   4.439  0.5403  0.1846 -0.1129
  905MOL0     C24774   9.839   5.741   4.427 -0.5155 -0.2185 -0.1436
  905MOL0     C24775   9.919   5.703   4.555 -0.1188 -0.2277  0.0389
  905MOL0     O24776   9.926   5.561   4.579 -0.1623 -0.1203  0.1094
  905MOL0     C24777  10.031   5.521   4.659 -0.1226  0.0243  0.4354
  905MOL0     C24778  10.042   5.552   4.791  0.2107  0.4393 -0.3697
  905MOL0     C24779  10.152   5.511   4.873 -0.6065 -0.5318 -0.4997
  905MOL0     C24780  10.142   5.539   5.018  0.8502  0.1222 -0.0681
  905MOL0     C24781  10.250   5.432   4.800 -0.0776 -0.4968  0.4132
  905MOL0     C24782  10.369   5.381   4.864  0.5036  0.3066 -0.6224
  905MOL0     O24783  10.463   5.474   4.880  0.7702  0.1714  0.6416
  905MOL0     C24784  10.588   5.460   4.925  0.5739 -0.5070  0.4210
  905MOL0     C24785  10.655   5.345   4.942 -0.5473 -0.2812  0.2057
  905MOL0     C24786  10.790   5.345   4.966 -0.1558 -0.3712  1.3260
  905MOL0     C24787  10.854   5.459   4.989 -0.2488  0.0618  0.6175
  905MOL0     O24788  10.994   5.451   5.024  0.7465  0.2318 -0.0105
  905MOL0     C24789  11.080   5.548   4.973  0.6343 -0.8176 -0.0062
  905MOL0     C24790  11.214   5.474   4.973  0.4461  0.6924  0.2173
  905MOL0     C24791  11.323   5.585   4.971 -0.4310  1.2886 -0.4205
  905MOL0     C24792  11.462   5.522   4.963 -0.2222 -0.1585 -0.7603
  905MOL0     C24793  11.563   5.642   4.975  0.4446 -0.6572  0.2185
  905MOL0     C24794  11.701   5.582   5.005 -0.0607  0.5174  0.0890
  905MOL0     C24795  11.760   5.486   4.910  1.4660 -0.1052  0.2804
  905MOL0     C24796  11.902   5.426   4.939  0.2939  0.4061 -0.6417
  905MOL0    Cl24797  12.028   5.547   4.927  0.3100 -0.3853  0.2510
  905MOL0     C24798  10.787   5.583   4.978 -0.1433 -0.4750  0.4842
  905MOL0     C24799  10.656   5.584   4.947 -0.7786 -0.4881  0.0143
  905MOL0     O24800  10.383   5.264   4.894 -0.9159 -0.2996  0.3363
  905MOL0     C24801  10.238   5.392   4.665  0.0810  0.1044  0.1133
  905MOL0     C24802  10.125   5.440   4.597  0.6012 -0.3559  0.7142
  905MOL0     N24803   9.413   5.612   4.455  0.7808 -0.2206  0.4097
  905MOL0     N24804   9.290   5.638   4.458  0.7244 -0.6887 -0.8275
  905MOL0     C24805   9.555   6.540   4.634 -0.7881  0.2473 -0.0149
  905MOL0     C24806   9.694   6.557   4.639  0.6057 -0.5169  0.2826
  905MOL0     C24807  10.113   6.421   4.741 -0.2528  0.0839 -0.2287
  905MOL0     C24808  10.155   6.424   4.880 -0.1677 -0.4431  0.3253
  905MOL0     C24809  10.294   6.409   4.914 -0.2142 -0.4832  0.5676
  905MOL0     C24810  10.388   6.388   4.809  0.1261  0.1371 -0.4315
  905MOL0     O24811  10.521   6.376   4.828  0.7731  0.2557 -0.2975
  905MOL0     C24812  10.563   6.299   4.932 -0.2760 -0.1803 -0.5503
  905MOL0     C24813  10.584   6.157   4.889  0.2485 -0.4897  0.1304
  905MOL0     C24814  10.672   6.139   4.761 -0.1744 -0.7354 -0.2138
  905MOL0     C24815  10.725   5.995   4.748  0.1362 -0.2782  0.2444
  905MOL0     C24816  10.625   5.897   4.719 -0.0420  0.4111 -0.0114
  905MOL0     C24817  10.533   5.821   4.688  0.9736 -0.1333 -0.2213
  905MOL0     C24818  10.347   6.409   4.676 -0.5886  0.2432  0.3102
  905MOL0     C24819  10.215   6.425   4.640 -0.0881  0.1034 -0.3117
  905MOL0     C24820  10.190   6.434   4.494  0.2715  0.3893  0.1367
  905MOL0     H24821   9.732   6.472   4.968  2.2018  0.8031 -1.4575
  905MOL0     H24822   9.476   6.427   4.932  0.9156  1.4789  0.8811
  905MOL0     H24823   9.314   6.281   4.836  2.4784  0.4215  0.2475
  905MOL0     H24824   9.379   6.262   4.675  0.2540 -0.8150  1.1542
  905MOL0     H24825   9.091   6.351   4.742 -0.5474 -1.0085 -0.2886
  905MOL0     H24826   9.161   6.362   4.582 -0.5651  0.6082 -0.1659
  905MOL0     H24827   9.226   6.102   4.655  1.6881  1.8335  6.1526
  905MOL0     H24828   9.093   6.115   4.758  0.8069 -0.1927  0.1960
  905MOL0     H24829   8.974   6.226   4.547  0.5624  0.8142  0.6291
  905MOL0     H24830   9.096   6.147   4.455  1.8873  1.8748  1.2091
  905MOL0     H24831   8.870   6.037   4.486 -0.7221 -0.2254 -0.6806
  905MOL0     H24832   8.909   6.000   4.652  0.5049 -0.6297  0.6792
  905MOL0     H24833   9.108   5.855   4.568 -2.2365 -4.6439  2.8148
  905MOL0     H24834   8.945   5.795   4.540  0.1139 -1.1230  0.8013
  905MOL0     H24835   9.108   5.960   4.334  0.9160 -1.5067 -0.6814
  905MOL0     H24836   8.949   5.882   4.316  0.1475 -2.5052 -1.5147
  905MOL0     H24837   9.049   5.659   4.334  0.6585  0.2690  1.6034
  905MOL0     H24838   9.110   5.750   4.202  0.1007 -0.7171 -1.1802
  905MOL0     H24839   9.361   5.817   4.203  1.3129  2.5656  1.1666
  905MOL0     H24840   9.620   5.770   4.234 -1.6696 -0.6520 -1.7674
  905MOL0     H24841   9.619   5.596   4.252 -0.8652 -0.7827  1.4978
  905MOL0     H24842   9.648   5.750   4.516  0.3133 -2.4722  2.0415
  905MOL0     H24843   9.687   5.590   4.485  0.8463  1.8305  3.8863
  905MOL0     H24844   9.879   5.683   4.343 -2.2690 -0.6723 -0.7106
  905MOL0     H24845   9.848   5.850   4.413  1.2570 -0.3117 -0.0136
  905MOL0     H24846  10.022   5.737   4.539  0.0952 -0.8894 -0.0382
  905MOL0     H24847   9.876   5.766   4.634 -3.2484 -0.1613 -1.5969
  905MOL0     H24848   9.965   5.597   4.852 -3.0440 -6.1382  1.2577
  905MOL0     H24849  10.199   5.473   5.084  0.3034  0.7617  1.0908
  905MOL0     H24850  10.037   5.539   5.051  0.7564  0.8243 -0.3491
  905MOL0     H24851  10.170   5.644   5.033  0.4408  0.2510 -0.1721
  905MOL0     H24852  10.611   5.249   4.918  0.9743 -1.1461  0.7965
  905MOL0     H24853  10.855   5.258   4.962  1.8287  1.0741 -0.0795
  905MOL0     H24854  11.057   5.572   4.868 -1.8831 -2.4383  0.0786
  905MOL0     H24855  11.084   5.642   5.029 -1.1672 -0.2968 -0.6713
  905MOL0     H24856  11.217   5.424   5.070 -1.1576  0.3442  0.1110
  905MOL0     H24857  11.226   5.395   4.899 -1.5190  1.1590 -0.6748
  905MOL0     H24858  11.319   5.648   5.061 -4.4535  0.5320  0.1407
  905MOL0     H24859  11.309   5.647   4.882  2.7111 -0.8135 -2.5906
  905MOL0     H24860  11.474   5.466   4.870  1.0581 -0.4641 -0.4210
  905MOL0     H24861  11.466   5.452   5.047  0.5910 -1.1643 -1.6090
  905MOL0     H24862  11.564   5.696   4.880 -3.0467  1.0636  1.0160
  905MOL0     H24863  11.549   5.707   5.062 -1.4760  0.4574 -0.8662
  905MOL0     H24864  11.691   5.532   5.101  0.2218 -1.3404 -0.7973
  905MOL0     H24865  11.776   5.663   5.001  0.0319  0.5134  1.4599
  905MOL0     H24866  11.759   5.543   4.817 -4.5817  0.0581  0.0027
  905MOL0     H24867  11.700   5.396   4.891  3.2588 -0.6555 -4.0119
  905MOL0     H24868  11.930   5.351   4.865 -1.8816  0.3423 -1.4819
  905MOL0     H24869  11.905   5.382   5.039  2.8020 -0.0076 -0.8259
  905MOL0     H24870  10.827   5.680   5.007 -1.7105  0.0741  0.9103
  905MOL0     H24871  10.598   5.676   4.954  1.0143  0.8004 -1.3270
  905MOL0     H24872  10.308   5.333   4.608 -1.9907  0.4626 -3.0707
  905MOL0     H24873  10.113   5.410   4.494 -2.7355  0.2283  0.8411
  905MOL0     H24874   9.505   6.569   4.541  0.6332  0.3754 -0.7569
  905MOL0     H24875   9.754   6.586   4.554  1.8623  1.4181  1.7292
  905MOL0     H24876  10.083   6.438   4.960  0.0212  0.3234  0.3686
  905MOL0     H24877  10.317   6.418   5.020 -0.1509  1.8615  0.4033
  905MOL0     H24878  10.655   6.340   4.975 -0.9664  2.7089 -1.6088
  905MOL0     H24879  10.489   6.300   5.013 -1.3857  0.7347 -1.5235
  905MOL0     H24880  10.486   6.108   4.879  0.0926 -0.6336  2.0300
  905MOL0     H24881  10.626   6.101   4.973  0.0570  0.1706  0.6722
  905MOL0     H24882  10.625   6.178   4.671 -3.0368 -3.3541 -0.0559
  905MOL0     H24883  10.767   6.189   4.782  1.2550 -3.7342  1.1733
  905MOL0     H24884  10.777   5.978   4.843 -0.3701 -0.0418  0.5649
  905MOL0     H24885  10.796   6.010   4.665  1.4007 -1.9007  0.9783
  905MOL0     H24886  10.458   5.754   4.650  1.9689 -1.3266 -0.1471
  905MOL0     H24887  10.423   6.405   4.599  0.5572 -0.9251  1.4373
  905MOL0     H24888  10.142   6.341   4.462  1.1885 -0.4654  1.1538
  905MOL0     H24889  10.118   6.515   4.482  0.1342  0.2403 -0.0547
  905MOL0     H24890  10.283   6.448   4.439 -0.9069 -0.3546 -2.1622
  906MOL0     O24891  10.032   6.556   8.000  0.9992 -0.3927  0.6760
  906MOL0     C24892  10.008   6.673   8.030 -0.5018  0.4445  0.1539
  906MOL0     O24893  10.104   6.759   8.087 -0.2732 -0.4048  0.0432
  906MOL0     C24894  10.191   6.686   8.167 -0.1313  0.9130 -0.4860
  906MOL0     C24895  10.171   6.670   8.302  0.0654 -0.0996  0.1573
  906MOL0     C24896  10.270   6.609   8.372 -0.2626  0.6833 -0.3688
  906MOL0     C24897  10.388   6.564   8.312  0.9315 -0.3323 -0.6704
  906MOL0     O24898  10.492   6.505   8.388  0.1693 -0.1174  0.7519
  906MOL0     C24899  10.519   6.372   8.342  0.1917 -0.3355  0.4310
  906MOL0     C24900  10.656   6.323   8.383 -0.4867  0.8600 -0.0432
  906MOL0     C24901  10.763   6.421   8.330  0.9782  0.0196  0.1841
  906MOL0     C24902  10.907   6.359   8.302 -1.0358 -1.2469  0.0561
  906MOL0     C24903  11.011   6.461   8.271  0.0427 -0.0808  1.5146
  906MOL0     C24904  10.996   6.522   8.133  0.7383 -0.0777 -0.4446
  906MOL0     C24905  11.082   6.652   8.108 -0.4055 -0.1671  1.3265
  906MOL0     C24906  11.121   6.741   8.228  0.3630 -0.0205  0.0758
  906MOL0     N24907  11.210   6.849   8.199 -0.2747  0.5080 -0.3786
  906MOL0     C24908  11.176   6.961   8.131 -0.0029  0.1083 -0.5777
  906MOL0     C24909  11.293   7.029   8.113 -0.2077 -0.3842 -0.5056
  906MOL0     C24910  11.328   7.158   8.033  0.7040 -0.3824  0.7171
  906MOL0     C24911  11.472   7.193   8.053 -0.3746  0.4018  0.7890
  906MOL0     C24912  11.527   7.296   7.953  0.8471 -1.0560  0.7095
  906MOL0     C24913  11.655   7.357   8.001 -0.0512  0.8060  0.4332
  906MOL0     O24914  11.753   7.248   7.995  0.3985 -0.2552 -0.9795
  906MOL0     C24915  11.883   7.301   7.995  0.1176  0.3448  0.6085
  906MOL0     C24916  11.975   7.213   7.941  0.5842  0.1958 -0.2454
  906MOL0     C24917  12.114   7.228   7.960 -0.3688 -0.4722  0.0219
  906MOL0     C24918  12.198   7.115   7.910 -0.2501 -0.1546  0.6608
  906MOL0     C24919  12.166   7.349   8.016  0.3025  0.6231  0.6696
  906MOL0     C24920  12.311   7.378   8.034  0.2158  0.3214  0.9155
  906MOL0     O24921  12.340   7.510   8.023 -0.6206  0.0956  0.3263
  906MOL0     C24922  12.472   7.540   8.070 -0.1436 -1.1606 -0.3450
  906MOL0     C24923  12.590   7.492   8.004  0.1547 -0.0130 -0.4720
  906MOL0     C24924  12.718   7.514   8.058  0.0382 -0.2116 -0.0420
  906MOL0     C24925  12.724   7.583   8.182  0.1357  0.2586  0.1657
  906MOL0     O24926  12.852   7.596   8.231  0.3193  0.4235 -0.8787
  906MOL0     C24927  12.877   7.661   8.363 -0.6135  0.6253 -0.6157
  906MOL0     C24928  13.028   7.679   8.379 -0.1065 -0.1925 -1.0252
  906MOL0     C24929  13.082   7.784   8.288 -0.5935  0.0591  0.2798
  906MOL0     C24930  13.229   7.793   8.304 -0.1026  0.0749 -0.1870
  906MOL0     C24931  13.301   7.876   8.194  0.2754 -0.5045  0.2905
  906MOL0     C24932  13.453   7.856   8.172 -0.5572 -0.1398 -0.3542
  906MOL0     C24933  13.545   7.897   8.290 -0.1725  0.0483  0.1707
  906MOL0     C24934  13.498   8.024   8.365  0.8430  0.4517  1.1203
  906MOL0    Cl24935  13.640   8.071   8.465 -0.2022 -0.0366  0.4142
  906MOL0     C24936  12.610   7.636   8.239 -0.2842 -0.3683  0.3591
  906MOL0     C24937  12.490   7.618   8.183  0.0489 -0.3848 -0.6216
  906MOL0     O24938  12.388   7.283   8.063 -0.2056 -0.1946  0.2277
  906MOL0     C24939  12.080   7.442   8.065 -0.1328  0.4295 -0.4565
  906MOL0     C24940  11.937   7.419   8.047 -0.7451 -0.3368 -0.9279
  906MOL0     N24941  11.391   6.951   8.183  0.1118 -0.8972 -0.1111
  906MOL0     N24942  11.343   6.845   8.220  0.0371 -0.0746 -0.7102
  906MOL0     C24943  10.406   6.585   8.178  0.4269 -0.5160 -0.3115
  906MOL0     C24944  10.307   6.647   8.104  0.1559  0.2376 -0.5291
  906MOL0     C24945   9.874   6.729   7.985  0.1616  0.3508  0.1350
  906MOL0     C24946   9.843   6.860   8.025 -0.3341  0.5375 -0.3575
  906MOL0     C24947   9.714   6.908   8.024  0.4487 -0.2705  0.1612
  906MOL0     C24948   9.610   6.838   7.959 -0.1807  0.1007 -0.2120
  906MOL0     O24949   9.479   6.884   7.954 -0.6698 -0.3534 -0.1870
  906MOL0     C24950   9.402   6.851   7.836  0.3148 -0.5153  0.0301
  906MOL0     C24951   9.288   6.948   7.810  0.1250  0.6969 -0.0600
  906MOL0     C24952   9.173   6.915   7.904 -0.8129 -0.3316  0.2468
  906MOL0     C24953   9.077   7.029   7.907  0.4074 -0.2748  0.5922
  906MOL0     C24954   8.999   7.033   7.788  0.0439 -0.9727 -0.2896
  906MOL0     C24955   8.911   7.041   7.700 -0.2538 -0.4327  1.1226
  906MOL0     C24956   9.639   6.712   7.912  0.3644 -0.4026  0.1828
  906MOL0     C24957   9.769   6.652   7.932  0.0142 -0.4816  0.4698
  906MOL0     C24958   9.778   6.509   7.883 -0.1944  0.1093  0.2347
  906MOL0     H24959  10.084   6.717   8.347 -0.4538  0.8186 -1.6974
  906MOL0     H24960  10.268   6.594   8.480  1.4459  0.1886 -0.3795
  906MOL0     H24961  10.517   6.369   8.232 -0.5090  0.8494  0.3986
  906MOL0     H24962  10.452   6.299   8.387  0.3267 -1.2876 -0.8439
  906MOL0     H24963  10.666   6.317   8.492  0.8424  2.2327 -0.0499
  906MOL0     H24964  10.678   6.221   8.350  2.3651  0.9237  1.3792
  906MOL0     H24965  10.719   6.459   8.237  0.9122 -1.2268 -0.3119
  906MOL0     H24966  10.767   6.510   8.394 -2.1284  2.7772 -3.0461
  906MOL0     H24967  10.931   6.300   8.391 -3.2504 -1.5540  0.5113
  906MOL0     H24968  10.889   6.292   8.217 -0.7639  1.9317 -2.7222
  906MOL0     H24969  11.114   6.422   8.270 -0.8646 -2.8294 -0.8779
  906MOL0     H24970  11.000   6.524   8.359 -0.7701 -1.6741  2.6007
  906MOL0     H24971  11.036   6.448   8.063  2.5403  0.9628 -0.5838
  906MOL0     H24972  10.892   6.547   8.110  1.1104  0.3443 -1.7772
  906MOL0     H24973  11.030   6.721   8.041  0.8810  0.9640  1.4487
  906MOL0     H24974  11.176   6.614   8.066 -1.1844 -2.1176  1.2564
  906MOL0     H24975  11.030   6.790   8.263 -0.5885 -0.4376 -1.6582
  906MOL0     H24976  11.173   6.684   8.306  1.5423 -1.4121 -1.6392
  906MOL0     H24977  11.079   6.992   8.095  0.1003  3.9265  1.7735
  906MOL0     H24978  11.262   7.241   8.059  2.2084  0.8862  0.6184
  906MOL0     H24979  11.316   7.131   7.927 -1.2134  1.6113  0.3547
  906MOL0     H24980  11.483   7.222   8.158  2.3022 -0.9523  0.9586
  906MOL0     H24981  11.533   7.102   8.046  0.1491  0.6065  2.3142
  906MOL0     H24982  11.544   7.239   7.861  1.0261 -1.6433  1.1007
  906MOL0     H24983  11.459   7.380   7.935  0.8710 -1.5513 -2.2294
  906MOL0     H24984  11.689   7.438   7.936  0.1325 -0.8229 -1.5827
  906MOL0     H24985  11.645   7.393   8.104 -1.4829 -0.3346  0.7196
  906MOL0     H24986  11.939   7.123   7.891  0.4602 -1.7289  3.0265
  906MOL0     H24987  12.288   7.097   7.970 -0.3807 -2.6804  0.2020
  906MOL0     H24988  12.226   7.122   7.804 -0.7716 -0.0765  0.5266
  906MOL0     H24989  12.148   7.018   7.913  2.2974 -1.7142 -1.8311
  906MOL0     H24990  12.589   7.451   7.903  3.5310  0.8026 -0.9808
  906MOL0     H24991  12.808   7.488   8.005 -1.1294  2.6490 -3.9047
  906MOL0     H24992  12.839   7.763   8.373 -0.5964  0.8028 -2.0862
  906MOL0     H24993  12.840   7.601   8.447  2.3241  3.1731  2.8038
  906MOL0     H24994  13.038   7.720   8.479 -0.5600 -0.1096 -1.0105
  906MOL0     H24995  13.072   7.579   8.367  1.6468 -0.1117  3.0899
  906MOL0     H24996  13.037   7.879   8.319  0.6093  0.8846 -0.4059
  906MOL0     H24997  13.050   7.773   8.184  1.5608  0.3957 -0.4800
  906MOL0     H24998  13.269   7.691   8.313 -0.9984 -0.2025  0.7468
  906MOL0     H24999  13.247   7.831   8.405  4.4892  0.3641 -0.8815
  906MOL0     H25000  13.253   7.871   8.096  2.0658  2.9356 -0.8928
  906MOL0     H25001  13.289   7.982   8.218  2.9227 -0.1576  0.4478
  906MOL0     H25002  13.483   7.900   8.076 -0.2481 -1.5423 -0.9282
  906MOL0     H25003  13.469   7.748   8.161  4.1905  0.5566 -2.7316
  906MOL0     H25004  13.647   7.903   8.250 -0.5931 -0.8855 -1.1046
  906MOL0     H25005  13.542   7.812   8.358 -1.0411 -0.6255 -0.6872
  906MOL0     H25006  13.404   8.008   8.419 -0.5410 -2.0081 -1.6993
  906MOL0     H25007  13.476   8.086   8.278  0.1610 -3.0534 -1.4136
  906MOL0     H25008  12.632   7.681   8.335  0.8080 -1.3293  0.5741
  906MOL0     H25009  12.405   7.659   8.238 -0.4457 -1.3555 -0.6538
  906MOL0     H25010  12.101   7.530   8.124 -0.3687  0.0703  0.1705
  906MOL0     H25011  11.873   7.497   8.088  0.0562  0.1219 -0.5336
  906MOL0     H25012  10.499   6.553   8.133  1.0572  2.1524 -1.0657
  906MOL0     H25013  10.316   6.657   7.996  1.3169 -0.8014 -0.5544
  906MOL0     H25014   9.924   6.918   8.068  0.0593  0.0942 -0.4814
  906MOL0     H25015   9.691   7.003   8.071 -0.8696  0.5456 -1.9609
  906MOL0     H25016   9.464   6.840   7.747 -0.0299 -1.5786 -0.1031
  906MOL0     H25017   9.349   6.757   7.856  0.9911 -1.0730 -0.7684
  906MOL0     H25018   9.249   6.939   7.708  0.1929 -0.2394 -0.0170
  906MOL0     H25019   9.332   7.046   7.827  0.3032  0.7904 -0.9924
  906MOL0     H25020   9.128   6.818   7.881  0.3109 -1.6078  3.0927
  906MOL0     H25021   9.210   6.911   8.006  0.8088  0.0104 -0.2952
  906MOL0     H25022   9.133   7.123   7.908  0.4229 -0.0999 -3.1214
  906MOL0     H25023   9.012   7.020   7.994  1.2572 -1.0567  1.1592
  906MOL0     H25024   8.834   7.030   7.627  1.5719  0.4139 -1.0711
  906MOL0     H25025   9.557   6.643   7.894  1.5704 -1.7319 -0.4002
  906MOL0     H25026   9.786   6.436   7.964 -1.7626 -1.9657 -1.3572
  906MOL0     H25027   9.683   6.480   7.836 -0.8867  0.1368  1.5701
  906MOL0     H25028   9.865   6.496   7.819  1.7097  1.6853  2.3507
  907MOL0     O25029   3.513   7.035   3.364 -0.1861  0.3973  0.6828
  907MOL0     C25030   3.568   6.989   3.261  0.6289  0.3315  0.0079
  907MOL0     O25031   3.685   6.934   3.260 -0.3539  0.1364  0.6980
  907MOL0     C25032   3.759   6.910   3.371 -0.2996  0.3735 -0.0864
  907MOL0     C25033   3.767   6.783   3.423  0.8523 -0.6089  0.8792
  907MOL0     C25034   3.852   6.757   3.539  0.1443 -0.2655 -0.6105
  907MOL0     C25035   3.916   6.862   3.611 -0.5594 -0.5649  0.1380
  907MOL0     O25036   4.014   6.840   3.708 -0.2052  0.2106  0.1303
  907MOL0     C25037   4.038   6.710   3.770 -0.3615  0.5321  0.6485
  907MOL0     C25038   4.141   6.723   3.890  0.5557 -0.0207  0.3659
  907MOL0     C25039   4.143   6.592   3.956 -0.4523 -0.8792 -0.8032
  907MOL0     C25040   4.228   6.590   4.084 -0.3874  0.7750 -0.6076
  907MOL0     C25041   4.225   6.453   4.150  1.0692 -0.8792  0.0278
  907MOL0     C25042   4.274   6.463   4.294 -0.0595  0.1033  0.7072
  907MOL0     C25043   4.258   6.317   4.356  0.2768 -0.9526 -0.0061
  907MOL0     C25044   4.292   6.332   4.511  0.1134  0.4661 -0.5875
  907MOL0     N25045   4.430   6.319   4.527  0.2635  0.2746 -0.3724
  907MOL0     C25046   4.490   6.391   4.622 -0.4530 -0.6646 -0.1187
  907MOL0     C25047   4.619   6.350   4.619 -0.6539  0.1967  0.0579
  907MOL0     C25048   4.735   6.413   4.690 -0.5414  0.3491 -1.1676
  907MOL0     C25049   4.812   6.518   4.608 -0.1719  0.6076  0.4157
  907MOL0     C25050   4.918   6.590   4.693  0.3023  0.3221 -0.4552
  907MOL0     C25051   4.973   6.715   4.623 -0.2961  0.6268 -0.6535
  907MOL0     O25052   5.070   6.779   4.704 -0.2110  0.5441 -0.5380
  907MOL0     C25053   5.182   6.826   4.637  0.4678  0.2201  0.6264
  907MOL0     C25054   5.275   6.895   4.717 -1.2422 -0.6725  0.8384
  907MOL0     C25055   5.394   6.961   4.675  0.2905  0.0798 -0.2852
  907MOL0     C25056   5.488   7.019   4.784  0.1799  0.1560  0.4954
  907MOL0     C25057   5.419   6.969   4.544 -0.0665  0.5888  0.7344
  907MOL0     C25058   5.523   7.047   4.483  0.2538  0.1269 -0.0597
  907MOL0     O25059   5.575   7.151   4.552 -0.3795  0.1955 -0.2486
  907MOL0     C25060   5.681   7.222   4.493 -0.0135 -0.3646 -0.2820
  907MOL0     C25061   5.655   7.300   4.382  0.5430  0.2616  1.0035
  907MOL0     C25062   5.757   7.379   4.323 -0.6772  0.0717 -0.5637
  907MOL0     C25063   5.882   7.396   4.386  0.5444  0.6599 -1.1277
  907MOL0     O25064   5.978   7.482   4.327 -0.1050  0.4343 -0.0303
  907MOL0     C25065   6.103   7.495   4.406  0.1969  0.6525 -1.0012
  907MOL0     C25066   6.180   7.609   4.335 -0.3770  0.0553  0.0444
  907MOL0     C25067   6.286   7.667   4.432  0.4245 -0.1101 -0.1173
  907MOL0     C25068   6.384   7.561   4.498 -0.4944 -0.7196  0.0867
  907MOL0     C25069   6.470   7.622   4.611 -0.1407 -0.0347  0.4882
  907MOL0     C25070   6.552   7.518   4.690  0.0062 -0.9118 -0.4103
  907MOL0     C25071   6.608   7.581   4.811  0.2273  0.0550  0.1303
  907MOL0     C25072   6.690   7.476   4.890 -1.0975 -0.1141 -0.0781
  907MOL0    Cl25073   6.578   7.328   4.919  0.0836 -0.2856  0.1266
  907MOL0     C25074   5.897   7.320   4.509 -0.3096  0.5373 -0.5374
  907MOL0     C25075   5.799   7.229   4.550 -0.0854  0.2614  0.0491
  907MOL0     O25076   5.547   7.028   4.364  0.3058 -0.0662  0.4283
  907MOL0     C25077   5.328   6.894   4.453  0.3802  0.8315 -1.4441
  907MOL0     C25078   5.211   6.827   4.498  0.1778 -0.4056 -0.2106
  907MOL0     N25079   4.636   6.246   4.535 -0.3318 -0.3852 -0.0235
  907MOL0     N25080   4.515   6.224   4.489  0.1211 -0.5704  0.0407
  907MOL0     C25081   3.905   6.986   3.556  0.1023 -0.4785 -0.3614
  907MOL0     C25082   3.835   7.005   3.439  0.5327 -0.8101 -0.7979
  907MOL0     C25083   3.494   6.999   3.131  0.0243 -0.6067 -1.2234
  907MOL0     C25084   3.364   7.057   3.133  0.6435  0.7862 -0.9851
  907MOL0     C25085   3.284   7.059   3.018  0.5315 -0.1178 -0.3057
  907MOL0     C25086   3.331   7.024   2.894  0.7953 -0.0987  0.3358
  907MOL0     O25087   3.267   7.044   2.773 -0.0936 -0.3487 -0.8909
  907MOL0     C25088   3.151   7.130   2.771 -0.6677 -0.6529 -0.1038
  907MOL0     C25089   3.120   7.152   2.622  0.6915 -0.5849 -0.2558
  907MOL0     C25090   2.994   7.238   2.609  0.4595  0.5097 -0.5550
  907MOL0     C25091   3.009   7.377   2.554 -0.3440 -0.0602 -0.6826
  907MOL0     C25092   3.019   7.398   2.410 -0.3196  0.2993  0.2512
  907MOL0     C25093   3.033   7.405   2.291  0.4410 -1.3896  0.0044
  907MOL0     C25094   3.454   6.967   2.892  0.7381  0.4511  0.1070
  907MOL0     C25095   3.543   6.952   3.006  0.1754 -0.5569  0.1885
  907MOL0     C25096   3.679   6.884   2.981  0.7955 -0.1964  0.5043
  907MOL0     H25097   3.709   6.705   3.375  1.5242  0.2746 -1.5574
  907MOL0     H25098   3.871   6.655   3.570  0.2967  0.1262  0.6351
  907MOL0     H25099   4.071   6.631   3.702  1.2182  0.5128  1.4029
  907MOL0     H25100   3.945   6.669   3.811  1.0862 -3.2032  0.5790
  907MOL0     H25101   4.243   6.741   3.855  0.6196 -1.2130 -0.1008
  907MOL0     H25102   4.116   6.801   3.962  1.2954  2.9512 -2.3433
  907MOL0     H25103   4.039   6.593   3.989  0.1636  2.5448  1.6594
  907MOL0     H25104   4.170   6.517   3.881 -1.3367  0.2116 -2.2700
  907MOL0     H25105   4.331   6.615   4.055 -1.0630  2.1106 -2.0554
  907MOL0     H25106   4.194   6.672   4.148  1.0274 -0.3564  1.6906
  907MOL0     H25107   4.289   6.388   4.089  1.2679  0.0089 -0.7177
  907MOL0     H25108   4.129   6.403   4.130 -0.0476  1.2090 -0.1209
  907MOL0     H25109   4.378   6.491   4.305  0.4232 -1.2437 -0.0764
  907MOL0     H25110   4.215   6.541   4.341  0.5182  2.3027 -1.9494
  907MOL0     H25111   4.329   6.254   4.303 -0.6075 -2.5558  0.6423
  907MOL0     H25112   4.162   6.266   4.343  0.9919 -2.2275 -0.4925
  907MOL0     H25113   4.257   6.426   4.554 -3.8071 -1.3218  0.4866
  907MOL0     H25114   4.248   6.254   4.572  2.6991  1.1518  2.3949
  907MOL0     H25115   4.446   6.462   4.690 -1.6218 -0.0149 -1.4951
  907MOL0     H25116   4.812   6.342   4.722  1.1074  2.4733 -0.1310
  907MOL0     H25117   4.696   6.468   4.776  0.9728  0.1705 -0.3352
  907MOL0     H25118   4.865   6.477   4.522  1.0977  0.7675  1.0937
  907MOL0     H25119   4.735   6.588   4.573 -1.4619 -1.1194 -0.3397
  907MOL0     H25120   4.876   6.620   4.790  0.1681  0.1832 -0.4693
  907MOL0     H25121   5.003   6.523   4.712 -0.1612 -0.2614 -0.4040
  907MOL0     H25122   5.005   6.691   4.521  1.5540 -0.3191  0.1091
  907MOL0     H25123   4.898   6.795   4.614 -1.7022 -0.7604 -1.9275
  907MOL0     H25124   5.255   6.898   4.824 -3.2483 -0.1334  0.5019
  907MOL0     H25125   5.456   6.980   4.881 -0.2262  1.0749  0.7440
  907MOL0     H25126   5.467   7.125   4.800  0.9031  0.7302 -2.0216
  907MOL0     H25127   5.595   7.016   4.764 -0.4541  1.2042 -4.2006
  907MOL0     H25128   5.558   7.289   4.334  1.3138  0.1259 -0.5930
  907MOL0     H25129   5.741   7.428   4.227  1.2447  1.1300 -0.3992
  907MOL0     H25130   6.089   7.518   4.512  1.5318  0.0695 -0.6783
  907MOL0     H25131   6.163   7.404   4.416 -1.6029 -0.3896  1.3035
  907MOL0     H25132   6.216   7.577   4.237 -0.0398  1.6869 -0.4017
  907MOL0     H25133   6.100   7.684   4.323 -1.9744 -1.3347  1.3665
  907MOL0     H25134   6.231   7.715   4.514  0.6298  0.4570 -0.3107
  907MOL0     H25135   6.333   7.740   4.366 -3.0796  0.8013 -1.8958
  907MOL0     H25136   6.445   7.523   4.415 -1.5738 -0.2441 -0.9578
  907MOL0     H25137   6.325   7.484   4.549  0.7422 -0.8884  1.3196
  907MOL0     H25138   6.537   7.698   4.571  0.6116  0.6969  2.9542
  907MOL0     H25139   6.403   7.663   4.687  1.9260 -0.0127  2.3967
  907MOL0     H25140   6.632   7.483   4.624  0.6880 -0.9668  0.4311
  907MOL0     H25141   6.478   7.445   4.724  0.5572 -1.1087  0.3967
  907MOL0     H25142   6.527   7.607   4.880  0.0334 -0.2291  0.0093
  907MOL0     H25143   6.675   7.663   4.784  1.6254 -0.9672  0.4120
  907MOL0     H25144   6.705   7.524   4.987 -1.5722  0.2722 -0.1921
  907MOL0     H25145   6.786   7.464   4.840  0.3132  1.3544  2.0809
  907MOL0     H25146   5.985   7.321   4.572  0.6203  0.2351 -1.7948
  907MOL0     H25147   5.816   7.178   4.644  1.1947  1.8688  0.7461
  907MOL0     H25148   5.343   6.893   4.345  0.9842  1.0535 -1.3644
  907MOL0     H25149   5.145   6.782   4.425  0.3427  0.4955 -0.9431
  907MOL0     H25150   3.964   7.073   3.585 -1.9804  1.5810 -1.9870
  907MOL0     H25151   3.811   7.102   3.395 -0.6414  0.4979  2.4104
  907MOL0     H25152   3.317   7.093   3.225  1.4945 -0.6762  0.0668
  907MOL0     H25153   3.182   7.096   3.029 -0.3811 -2.0860 -1.5959
  907MOL0     H25154   3.070   7.073   2.818 -0.8073 -0.1563  0.2669
  907MOL0     H25155   3.165   7.224   2.826  0.9415 -0.4214 -0.8540
  907MOL0     H25156   3.103   7.052   2.581  1.0852  0.1861 -2.3697
  907MOL0     H25157   3.203   7.197   2.568 -1.0986  1.2043 -1.6704
  907MOL0     H25158   2.931   7.183   2.538 -0.2335 -0.9196  1.0762
  907MOL0     H25159   2.936   7.242   2.702  1.5944 -1.1957  0.2788
  907MOL0     H25160   3.100   7.412   2.604  0.1870 -1.3337 -0.7145
  907MOL0     H25161   2.922   7.434   2.588  1.0492 -0.2501  4.0669
  907MOL0     H25162   3.058   7.421   2.188 -1.3698  2.9959  0.0439
  907MOL0     H25163   3.474   6.923   2.795  0.1816  0.2005  0.1001
  907MOL0     H25164   3.689   6.851   2.878 -0.0855  0.2576  0.2629
  907MOL0     H25165   3.765   6.946   3.009 -1.0900  1.9166  1.9683
  907MOL0     H25166   3.689   6.797   3.047  1.1205 -0.5274  0.0232
  908MOL0     O25167   7.117   7.009   5.429 -0.3579 -0.2795 -0.3575
  908MOL0     C25168   7.177   6.909   5.475  0.0761  0.0701 -0.1299
  908MOL0     O25169   7.117   6.792   5.501 -0.1885  0.3931  0.0710
  908MOL0     C25170   7.004   6.753   5.434  0.1803  0.0284  0.7417
  908MOL0     C25171   6.894   6.829   5.392 -0.4631  0.1171  0.3332
  908MOL0     C25172   6.790   6.773   5.314  0.4342 -0.5003  0.0704
  908MOL0     C25173   6.796   6.641   5.272 -0.2623 -0.3844  0.4585
  908MOL0     O25174   6.692   6.606   5.189 -0.5467 -0.1645  0.3066
  908MOL0     C25175   6.714   6.503   5.090 -0.5091 -0.4190 -0.3013
  908MOL0     C25176   6.568   6.437   5.071 -0.2339  0.8749 -0.4579
  908MOL0     C25177   6.553   6.341   4.958 -0.1993 -0.8348 -0.4392
  908MOL0     C25178   6.404   6.293   4.952 -0.4445 -0.3763  0.4991
  908MOL0     C25179   6.394   6.205   4.824 -1.0539 -0.0257 -0.0166
  908MOL0     C25180   6.390   6.286   4.686  0.1129 -0.3050 -1.0495
  908MOL0     C25181   6.343   6.215   4.559 -0.0979  0.6920  0.7981
  908MOL0     C25182   6.453   6.112   4.533 -0.0684 -0.7731 -0.1340
  908MOL0     N25183   6.575   6.162   4.468  0.4379 -0.2776 -0.2149
  908MOL0     C25184   6.697   6.127   4.525 -0.3969  1.1267  0.0563
  908MOL0     C25185   6.791   6.171   4.435  0.8910 -0.6361  0.3425
  908MOL0     C25186   6.933   6.152   4.456 -0.0197  0.5056 -1.2320
  908MOL0     C25187   6.970   6.007   4.488 -0.5753  0.1064 -0.2196
  908MOL0     C25188   7.100   5.959   4.422  0.5594  0.3431  0.6731
  908MOL0     C25189   7.230   5.986   4.491 -0.7500  0.4551 -0.3066
  908MOL0     O25190   7.248   6.114   4.545  0.3704 -0.3109  0.1802
  908MOL0     C25191   7.371   6.166   4.566  0.0700 -0.5174  0.5751
  908MOL0     C25192   7.489   6.094   4.560  0.9845  0.0312  0.4666
  908MOL0     C25193   7.618   6.151   4.560  0.7455  0.8033  0.1518
  908MOL0     C25194   7.743   6.061   4.550  0.3545 -0.7283  0.2045
  908MOL0     C25195   7.619   6.296   4.557 -0.1873 -0.3798 -0.1570
  908MOL0     C25196   7.741   6.384   4.556  0.4593 -0.4947 -0.1813
  908MOL0     O25197   7.852   6.345   4.622  0.0954 -0.0186 -0.2776
  908MOL0     C25198   7.959   6.434   4.618  0.0158 -0.2315 -0.6033
  908MOL0     C25199   8.018   6.475   4.740  0.8982 -0.4655  0.3722
  908MOL0     C25200   8.134   6.545   4.739  0.4022  0.1080 -0.4431
  908MOL0     C25201   8.195   6.581   4.614 -0.0070 -0.4827  0.4436
  908MOL0     O25202   8.311   6.654   4.623 -0.0845  0.0620 -0.4155
  908MOL0     C25203   8.361   6.735   4.509 -0.2456 -0.2100 -0.5729
  908MOL0     C25204   8.480   6.830   4.540 -0.3732  0.7575 -0.5025
  908MOL0     C25205   8.566   6.886   4.424  0.0065 -0.8823  0.2826
  908MOL0     C25206   8.482   6.937   4.304 -0.8244 -0.6225 -0.7598
  908MOL0     C25207   8.563   6.992   4.183 -0.4443 -0.2915  0.2166
  908MOL0     C25208   8.621   7.132   4.218 -0.7440  0.7889  0.2606
  908MOL0     C25209   8.730   7.171   4.122  0.0582 -0.6764  0.0617
  908MOL0     C25210   8.664   7.218   3.986 -0.8597  0.2917  0.4323
  908MOL0    Cl25211   8.789   7.279   3.883 -0.2224  0.4792  0.2842
  908MOL0     C25212   8.141   6.538   4.492 -0.8120  0.2626  0.1237
  908MOL0     C25213   8.021   6.474   4.499 -0.2008 -0.4008  0.0669
  908MOL0     O25214   7.725   6.492   4.510  1.3434 -0.1862 -0.1784
  908MOL0     C25215   7.500   6.367   4.568  0.0270 -0.5101 -0.1082
  908MOL0     C25216   7.379   6.303   4.570 -0.3429  0.1125  0.7386
  908MOL0     N25217   6.727   6.256   4.347 -0.0671  0.2138 -0.0791
  908MOL0     N25218   6.605   6.260   4.370  0.6662  0.2407 -0.0046
  908MOL0     C25219   6.900   6.566   5.311  0.0983 -0.1100 -0.0584
  908MOL0     C25220   7.002   6.618   5.395  0.8245  0.1601 -0.5433
  908MOL0     C25221   7.329   6.914   5.508 -0.6791 -0.5472  0.7541
  908MOL0     C25222   7.387   6.807   5.578 -0.1316  0.1064 -0.3435
  908MOL0     C25223   7.521   6.801   5.613  0.3938  0.0493  0.3342
  908MOL0     C25224   7.606   6.904   5.559 -0.2837  0.5572 -0.0272
  908MOL0     O25225   7.747   6.909   5.578  0.3898  0.2328 -0.7345
  908MOL0     C25226   7.814   6.785   5.609 -0.0004 -1.2816 -0.1435
  908MOL0     C25227   7.961   6.818   5.594 -0.9527 -0.6197 -0.2664
  908MOL0     C25228   8.057   6.688   5.580 -0.2551 -0.5927 -0.1863
  908MOL0     C25229   8.036   6.627   5.440 -0.0945  0.7570 -0.5957
  908MOL0     C25230   8.110   6.504   5.418 -0.1257 -0.2215 -0.0438
  908MOL0     C25231   8.161   6.395   5.411 -0.1217 -1.0403 -0.3137
  908MOL0     C25232   7.555   7.003   5.491  0.6419 -0.1265  0.7984
  908MOL0     C25233   7.416   7.015   5.472  0.5816 -0.1400  0.3851
  908MOL0     C25234   7.381   7.148   5.408  0.1086  0.1305  0.7172
  908MOL0     H25235   6.891   6.937   5.402  5.2720  0.5458  1.0548
  908MOL0     H25236   6.708   6.834   5.276  0.7437  0.5212  1.0091
  908MOL0     H25237   6.785   6.425   5.120 -1.8075 -0.6708  2.4744
  908MOL0     H25238   6.743   6.539   4.991 -0.5448 -2.1998 -0.9987
  908MOL0     H25239   6.545   6.376   5.158  1.9173  1.2338  0.4296
  908MOL0     H25240   6.499   6.521   5.058 -1.7224  0.4635  3.4427
  908MOL0     H25241   6.591   6.390   4.869  1.3176 -0.8955  0.1481
  908MOL0     H25242   6.618   6.255   4.973  0.8799  0.2826  1.7898
  908MOL0     H25243   6.377   6.231   5.037 -0.2933  0.4359  1.1530
  908MOL0     H25244   6.336   6.378   4.939  1.9050  1.6003  0.5254
  908MOL0     H25245   6.303   6.146   4.833 -0.6303 -0.5125  1.3717
  908MOL0     H25246   6.476   6.134   4.831  0.7228  2.0741  2.4915
  908MOL0     H25247   6.315   6.365   4.695  1.9509  1.2711  1.5697
  908MOL0     H25248   6.485   6.339   4.678 -0.1245  0.0448 -1.6143
  908MOL0     H25249   6.337   6.289   4.478 -2.3178  0.6321  0.8430
  908MOL0     H25250   6.247   6.164   4.566  0.3108 -0.2541 -0.1491
  908MOL0     H25251   6.476   6.071   4.632 -0.4371 -0.0769  0.2458
  908MOL0     H25252   6.424   6.026   4.473 -0.4118 -0.0364 -1.0458
  908MOL0     H25253   6.707   6.070   4.618  0.1045  1.3653  0.1508
  908MOL0     H25254   6.970   6.217   4.535 -0.2083  1.8646 -2.2174
  908MOL0     H25255   6.978   6.188   4.363 -2.2049 -0.7488 -2.8810
  908MOL0     H25256   6.981   5.991   4.596  1.4166 -0.9503 -0.5257
  908MOL0     H25257   6.897   5.933   4.454 -0.0310  0.3707 -2.0496
  908MOL0     H25258   7.106   5.850   4.411  1.3159 -0.0137  3.7020
  908MOL0     H25259   7.111   6.012   4.328 -2.5319  1.7937  1.0175
  908MOL0     H25260   7.228   5.916   4.576  1.8745 -1.3859 -1.6112
  908MOL0     H25261   7.313   5.947   4.432  0.3338  1.9743  0.1517
  908MOL0     H25262   7.493   5.986   4.548 -0.2191  0.1973 -2.5045
  908MOL0     H25263   7.816   6.102   4.480  2.3330  1.4209  3.3205
  908MOL0     H25264   7.718   5.960   4.516 -0.1182  0.1861 -2.4251
  908MOL0     H25265   7.791   6.057   4.648 -1.4157  0.0798  1.1522
  908MOL0     H25266   7.964   6.450   4.831 -1.3080  0.2201 -0.6812
  908MOL0     H25267   8.185   6.584   4.826  1.3787 -1.7233 -0.1368
  908MOL0     H25268   8.391   6.669   4.427  0.3886 -0.9394  0.2401
  908MOL0     H25269   8.282   6.803   4.475 -2.4650 -1.8894  0.9120
  908MOL0     H25270   8.439   6.919   4.589 -3.2671 -0.2023 -0.9451
  908MOL0     H25271   8.551   6.771   4.598 -1.4834  0.4008  0.5209
  908MOL0     H25272   8.635   6.808   4.392 -1.0337 -2.5304  1.8342
  908MOL0     H25273   8.625   6.963   4.474 -0.2597 -0.2243 -0.3989
  908MOL0     H25274   8.417   7.022   4.327 -0.4686 -0.1600 -1.3935
  908MOL0     H25275   8.404   6.867   4.272 -2.1747  0.6408 -0.3266
  908MOL0     H25276   8.643   6.920   4.162 -1.6217 -2.6462  3.0433
  908MOL0     H25277   8.492   7.004   4.101 -0.0391 -0.1259 -0.1158
  908MOL0     H25278   8.642   7.133   4.326 -2.3219  1.5060  0.5801
  908MOL0     H25279   8.539   7.203   4.216 -0.3367  1.2667 -1.6717
  908MOL0     H25280   8.811   7.102   4.100 -0.4927 -0.5660 -2.6547
  908MOL0     H25281   8.776   7.258   4.169  0.5931 -0.4833 -0.8079
  908MOL0     H25282   8.589   7.297   4.000 -1.2145 -0.0154  0.2695
  908MOL0     H25283   8.621   7.128   3.942  0.7568 -1.5078  2.3392
  908MOL0     H25284   8.175   6.575   4.395 -0.2854  0.7696  0.4945
  908MOL0     H25285   7.972   6.438   4.409  0.5826 -1.7517  0.1583
  908MOL0     H25286   7.493   6.475   4.576  2.6256  0.0665 -3.4237
  908MOL0     H25287   7.292   6.368   4.563  1.0434  2.4124  3.2361
  908MOL0     H25288   6.908   6.462   5.280  1.3421  0.2887 -1.1493
  908MOL0     H25289   7.092   6.566   5.426  0.3097  0.4841  1.5939
  908MOL0     H25290   7.329   6.728   5.624 -0.7646  1.7504  1.8815
  908MOL0     H25291   7.558   6.720   5.674  2.3719 -0.4646 -1.4215
  908MOL0     H25292   7.800   6.763   5.716 -1.0874  2.1374  0.5476
  908MOL0     H25293   7.783   6.709   5.537 -0.7990 -1.7790  0.6972
  908MOL0     H25294   7.999   6.880   5.676 -0.5336 -1.1446 -0.0567
  908MOL0     H25295   7.981   6.877   5.504  2.7308 -1.1334  0.0581
  908MOL0     H25296   8.162   6.716   5.593  0.6648 -3.0884 -1.6770
  908MOL0     H25297   8.023   6.621   5.658  0.2286 -2.1215 -1.2505
  908MOL0     H25298   8.066   6.703   5.368 -2.3089  2.3022  0.0077
  908MOL0     H25299   7.928   6.605   5.435  0.1708 -1.0013  0.5855
  908MOL0     H25300   8.217   6.304   5.418  1.8322  0.2227  2.9125
  908MOL0     H25301   7.623   7.079   5.453  0.8909 -0.8362 -0.2366
  908MOL0     H25302   7.468   7.214   5.401  1.0501 -0.9917  1.4970
  908MOL0     H25303   7.342   7.121   5.309  3.8120 -0.6175 -0.6933
  908MOL0     H25304   7.299   7.198   5.460 -2.3954 -1.9504 -0.9559
  909MOL0     O25305   7.771   2.152   6.584 -0.3719 -0.0106 -0.8831
  909MOL0     C25306   7.754   2.058   6.654 -0.1325 -0.5763  0.2565
  909MOL0     O25307   7.826   1.946   6.656 -0.5086 -0.4594  0.8974
  909MOL0     C25308   7.952   1.953   6.610  0.0409  0.8164  0.0319
  909MOL0     C25309   8.056   1.964   6.703 -0.1225 -1.1865 -0.6150
  909MOL0     C25310   8.194   1.956   6.665 -0.1996 -0.0664 -0.9484
  909MOL0     C25311   8.220   1.937   6.530  0.7973  0.5980  0.6333
  909MOL0     O25312   8.340   1.935   6.472  0.1791 -0.1943 -0.0463
  909MOL0     C25313   8.449   1.983   6.555 -0.3028  0.3004  0.1154
  909MOL0     C25314   8.577   2.001   6.474 -0.1918 -0.1620 -0.0124
  909MOL0     C25315   8.616   1.879   6.401 -0.8290 -0.3633 -0.5063
  909MOL0     C25316   8.750   1.893   6.334 -0.5055  0.1274  1.5962
  909MOL0     C25317   8.789   1.766   6.269 -0.4677 -0.1366  0.1323
  909MOL0     C25318   8.917   1.758   6.184  0.4661 -0.5105 -0.3532
  909MOL0     C25319   9.052   1.759   6.269 -0.6592  1.2039  0.0470
  909MOL0     C25320   9.107   1.899   6.279  0.1634 -0.2025 -0.0659
  909MOL0     N25321   9.234   1.908   6.350  0.6137  0.3856  0.2920
  909MOL0     C25322   9.339   1.821   6.349  0.1668 -0.1676  0.0757
  909MOL0     C25323   9.440   1.884   6.406  0.3212 -0.1272 -0.1525
  909MOL0     C25324   9.573   1.813   6.437  0.1966  0.0619 -0.0237
  909MOL0     C25325   9.586   1.790   6.597 -0.2058  0.4303 -0.4242
  909MOL0     C25326   9.689   1.689   6.643 -1.1195  0.0810  0.0243
  909MOL0     C25327   9.651   1.545   6.601  0.1006 -0.2983  0.5472
  909MOL0     O25328   9.520   1.519   6.646 -0.9160  0.3348  0.1549
  909MOL0     C25329   9.471   1.395   6.629  0.5365  1.0365 -0.6745
  909MOL0     C25330   9.356   1.364   6.699 -0.8585  0.0736  0.0276
  909MOL0     C25331   9.281   1.246   6.685 -0.8081 -0.0720 -0.5946
  909MOL0     C25332   9.152   1.244   6.764 -0.5653 -0.2950  0.7914
  909MOL0     C25333   9.323   1.155   6.589 -0.4729  0.1355  0.6348
  909MOL0     C25334   9.243   1.041   6.533  0.8263  0.0530 -0.6123
  909MOL0     O25335   9.306   0.946   6.459  0.2275 -0.4652  0.3065
  909MOL0     C25336   9.241   0.844   6.393 -0.6480  0.0152 -0.9523
  909MOL0     C25337   9.313   0.730   6.366 -0.2575  1.1701 -0.3216
  909MOL0     C25338   9.255   0.623   6.300 -0.1266  0.9255 -0.3117
  909MOL0     C25339   9.123   0.625   6.249 -0.1526  0.2012  0.7186
  909MOL0     O25340   9.075   0.512   6.184  0.0515 -0.1251  0.0671
  909MOL0     C25341   8.927   0.506   6.167  0.3389 -0.1199  0.3828
  909MOL0     C25342   8.862   0.371   6.188  0.1549 -0.6262  0.3232
  909MOL0     C25343   8.705   0.387   6.200 -0.5467 -1.0432  0.3345
  909MOL0     C25344   8.627   0.450   6.084 -0.8103  0.3924  0.7687
  909MOL0     C25345   8.488   0.494   6.136 -0.0389  0.1834  0.1393
  909MOL0     C25346   8.386   0.382   6.150  0.0167  0.5752 -0.4438
  909MOL0     C25347   8.252   0.431   6.205  0.1484 -0.1844  0.6658
  909MOL0     C25348   8.138   0.320   6.207 -0.8713 -0.6367  0.3106
  909MOL0    Cl25349   8.149   0.256   6.373  0.0022 -0.1124  0.1078
  909MOL0     C25350   9.062   0.750   6.259 -0.4634 -0.1684  0.3803
  909MOL0     C25351   9.114   0.854   6.335 -0.1692  0.2239  0.6568
  909MOL0     O25352   9.123   1.036   6.574 -0.6537 -0.2270  0.2930
  909MOL0     C25353   9.449   1.177   6.528  0.0692  0.0010  0.3820
  909MOL0     C25354   9.521   1.294   6.546 -0.3352  0.3183 -0.4559
  909MOL0     N25355   9.398   2.010   6.449 -0.3869 -0.4059  0.7646
  909MOL0     N25356   9.275   2.023   6.408  0.2279 -0.2410 -0.4488
  909MOL0     C25357   8.113   1.926   6.438  0.3455 -0.4778 -0.9921
  909MOL0     C25358   7.984   1.934   6.479  0.4828  0.1596 -0.5651
  909MOL0     C25359   7.640   2.052   6.756  0.0459 -0.6321  0.7366
  909MOL0     C25360   7.647   1.984   6.875 -0.4470  0.0887  0.4548
  909MOL0     C25361   7.542   1.980   6.971  0.4114 -0.5324  0.0128
  909MOL0     C25362   7.423   2.035   6.923  0.8230 -0.0280 -0.3577
  909MOL0     O25363   7.305   2.034   7.001  0.4502 -0.6662 -0.1208
  909MOL0     C25364   7.310   1.996   7.137 -0.5844 -0.0383 -0.4836
  909MOL0     C25365   7.184   2.039   7.213 -0.0597  0.0725  0.5286
  909MOL0     C25366   7.068   1.968   7.142  0.4828 -0.2670 -0.3087
  909MOL0     C25367   6.930   2.008   7.200 -0.6492  0.0541 -0.3209
  909MOL0     C25368   6.901   1.963   7.341  0.1237  0.2147 -0.2021
  909MOL0     C25369   6.884   1.894   7.443 -0.0675  0.4006  0.7959
  909MOL0     C25370   7.411   2.108   6.799 -0.6462 -0.2377 -0.5269
  909MOL0     C25371   7.522   2.120   6.716 -0.2452  0.7034  0.2465
  909MOL0     C25372   7.506   2.200   6.587  0.0091 -0.8165 -0.9341
  909MOL0     H25373   8.035   1.973   6.810 -2.2857  1.4214 -1.1509
  909MOL0     H25374   8.259   1.982   6.748 -1.4834 -0.0210  0.0929
  909MOL0     H25375   8.476   1.910   6.632  0.6992  0.3399 -0.1859
  909MOL0     H25376   8.432   2.083   6.596  2.3649  1.8655 -2.1930
  909MOL0     H25377   8.562   2.088   6.409 -1.4457  0.7253  1.4203
  909MOL0     H25378   8.657   2.023   6.545 -0.9134  2.6131  0.0514
  909MOL0     H25379   8.623   1.793   6.468  0.5791 -0.8244 -1.2058
  909MOL0     H25380   8.549   1.866   6.315 -1.7622 -0.7651  0.2644
  909MOL0     H25381   8.753   1.974   6.260  0.9722 -0.1364  1.3319
  909MOL0     H25382   8.824   1.921   6.410  2.3728  0.9441 -1.2645
  909MOL0     H25383   8.709   1.727   6.205 -0.6262  1.3293 -0.6075
  909MOL0     H25384   8.793   1.684   6.341 -0.6141  0.2808  0.6209
  909MOL0     H25385   8.918   1.667   6.123  0.5551 -0.9301  0.2712
  909MOL0     H25386   8.908   1.837   6.108  1.7883 -1.6786 -1.8013
  909MOL0     H25387   9.123   1.691   6.222 -1.6745  0.2763 -0.1789
  909MOL0     H25388   9.035   1.725   6.371 -2.3417 -1.1372 -0.9364
  909MOL0     H25389   9.123   1.927   6.174 -0.9740 -1.8937 -0.7182
  909MOL0     H25390   9.040   1.967   6.331  2.6660  3.4238 -1.1510
  909MOL0     H25391   9.347   1.718   6.317 -3.3817 -0.6733  0.4489
  909MOL0     H25392   9.652   1.872   6.389 -1.6728  0.3726 -3.0539
  909MOL0     H25393   9.570   1.719   6.382 -1.2683  0.9805 -1.6353
  909MOL0     H25394   9.613   1.879   6.655  1.4535  0.2591 -0.8761
  909MOL0     H25395   9.491   1.742   6.623  0.3205 -0.2193  0.3410
  909MOL0     H25396   9.789   1.716   6.609 -0.0718 -1.3795  1.7562
  909MOL0     H25397   9.687   1.699   6.752 -0.2543  1.7876 -0.0842
  909MOL0     H25398   9.656   1.522   6.494  1.0769  2.9231 -0.2136
  909MOL0     H25399   9.723   1.484   6.657  0.0226  1.0574  2.2185
  909MOL0     H25400   9.327   1.431   6.780  2.9046 -1.8003  3.3108
  909MOL0     H25401   9.077   1.268   6.688 -0.2153 -0.9354  0.2300
  909MOL0     H25402   9.144   1.314   6.847 -2.0918 -0.6561  0.9782
  909MOL0     H25403   9.135   1.144   6.806  0.8952 -0.8748  0.0644
  909MOL0     H25404   9.414   0.720   6.405 -1.3219 -1.3950  2.1595
  909MOL0     H25405   9.306   0.528   6.301 -0.3975  0.7636 -1.0724
  909MOL0     H25406   8.877   0.577   6.233  0.8262  0.0475  0.5753
  909MOL0     H25407   8.906   0.542   6.065 -1.3746  2.1029  1.4239
  909MOL0     H25408   8.898   0.290   6.124  0.0891 -1.9055  1.8375
  909MOL0     H25409   8.888   0.336   6.288  3.1416 -2.9888 -1.1219
  909MOL0     H25410   8.700   0.455   6.286 -0.3692  0.2500 -0.6554
  909MOL0     H25411   8.669   0.286   6.223  0.0712 -0.6901  3.3390
  909MOL0     H25412   8.611   0.377   6.004 -1.3628  1.0945  0.2303
  909MOL0     H25413   8.683   0.536   6.047  2.1299 -0.5830  2.6551
  909MOL0     H25414   8.501   0.539   6.235 -1.2571  1.7829 -0.3790
  909MOL0     H25415   8.457   0.571   6.065  0.5897 -0.0276 -0.3708
  909MOL0     H25416   8.425   0.304   6.215  1.0859  0.8451 -0.7374
  909MOL0     H25417   8.361   0.339   6.053  0.3511 -0.7223  0.0157
  909MOL0     H25418   8.218   0.514   6.141 -2.6360 -0.4489  1.6776
  909MOL0     H25419   8.269   0.474   6.304 -0.5059 -0.7401  1.0272
  909MOL0     H25420   8.162   0.245   6.131  0.0922 -0.7285  0.6862
  909MOL0     H25421   8.041   0.366   6.186  0.2737  1.2102 -1.2967
  909MOL0     H25422   8.964   0.773   6.219 -0.3802  0.8518  0.7487
  909MOL0     H25423   9.063   0.948   6.351 -1.7039 -0.4274 -0.2376
  909MOL0     H25424   9.489   1.093   6.473 -0.5278 -0.7743  1.1081
  909MOL0     H25425   9.615   1.313   6.496  1.0861  1.2649  2.3722
  909MOL0     H25426   8.135   1.913   6.333  0.4994  0.1851 -1.0441
  909MOL0     H25427   7.901   1.925   6.410  2.2584 -1.9965 -2.5993
  909MOL0     H25428   7.739   1.929   6.891 -0.8550 -0.0911  2.4432
  909MOL0     H25429   7.555   1.950   7.074 -0.9976  0.7985  0.6006
  909MOL0     H25430   7.318   1.888   7.156 -0.5010  0.1680  0.7234
  909MOL0     H25431   7.397   2.051   7.174  0.5416 -0.4645 -2.3649
  909MOL0     H25432   7.180   2.145   7.189  0.2611 -0.1203 -0.4324
  909MOL0     H25433   7.193   2.027   7.321  1.3029 -0.0978  0.4266
  909MOL0     H25434   7.069   2.007   7.040  1.3230  0.9031  0.1149
  909MOL0     H25435   7.074   1.860   7.152 -0.7394 -0.4016 -0.9485
  909MOL0     H25436   6.854   1.968   7.133  0.4582 -1.2374 -0.8446
  909MOL0     H25437   6.917   2.116   7.194  3.0949  0.5537 -2.1826
  909MOL0     H25438   6.857   1.839   7.531 -1.2282  0.1541  0.3082
  909MOL0     H25439   7.313   2.149   6.777 -0.4591  0.9165  0.6787
  909MOL0     H25440   7.403   2.236   6.574 -0.7842 -2.4323  0.4067
  909MOL0     H25441   7.566   2.289   6.603 -0.7799  0.3086 -3.6860
  909MOL0     H25442   7.543   2.141   6.502  0.3122  0.6439 -1.8355
  910MOL0     O25443   6.423   0.979   2.419  0.2179 -0.7167  0.6114
  910MOL0     C25444   6.363   1.029   2.511 -0.2044  0.0804 -0.0918
  910MOL0     O25445   6.422   1.089   2.621  0.0274 -0.3382 -0.2377
  910MOL0     C25446   6.551   1.137   2.600  0.0684 -0.0823  0.9661
  910MOL0     C25447   6.567   1.262   2.543 -0.0626 -0.4108 -0.8244
  910MOL0     C25448   6.692   1.313   2.517 -0.8453 -0.2285 -0.9885
  910MOL0     C25449   6.808   1.246   2.542  0.4394 -0.2296  0.3682
  910MOL0     O25450   6.940   1.299   2.518 -0.1839  0.2540  0.2248
  910MOL0     C25451   6.955   1.333   2.385  1.1064 -0.0008 -0.1189
  910MOL0     C25452   7.092   1.383   2.363 -0.5323 -0.3824 -0.2408
  910MOL0     C25453   7.215   1.292   2.390 -0.5639  0.0851  0.4287
  910MOL0     C25454   7.225   1.182   2.282  0.0133 -0.3519 -0.6850
  910MOL0     C25455   7.363   1.119   2.295 -1.3674 -0.1212  0.4172
  910MOL0     C25456   7.468   1.205   2.224 -0.4452 -0.0075  0.3523
  910MOL0     C25457   7.595   1.134   2.193  0.0876 -0.9154  0.2122
  910MOL0     C25458   7.687   1.104   2.307  0.7051  0.8882  0.1171
  910MOL0     N25459   7.642   0.990   2.386 -0.6869  0.0285  0.8883
  910MOL0     C25460   7.669   0.856   2.378  0.1852 -0.2164 -0.2416
  910MOL0     C25461   7.629   0.799   2.493 -0.0393  0.1946  0.3213
  910MOL0     C25462   7.671   0.661   2.541 -0.0244 -0.2393 -0.4754
  910MOL0     C25463   7.796   0.676   2.628  1.0922  0.5167  0.6174
  910MOL0     C25464   7.851   0.540   2.667 -0.2767  0.8415  0.5928
  910MOL0     C25465   7.925   0.462   2.555 -0.8309 -0.3328 -0.1325
  910MOL0     O25466   8.022   0.539   2.477 -0.7306 -0.4291  0.4420
  910MOL0     C25467   8.153   0.563   2.522 -0.8593 -0.4842 -0.4850
  910MOL0     C25468   8.247   0.610   2.431  0.2221  0.0894 -0.0097
  910MOL0     C25469   8.384   0.600   2.441  1.2364  0.8249 -0.1739
  910MOL0     C25470   8.464   0.640   2.316 -0.3038  0.6381  0.3062
  910MOL0     C25471   8.436   0.547   2.563 -0.2861 -0.3228  0.0252
  910MOL0     C25472   8.579   0.521   2.579 -0.0456 -0.2969  0.0031
  910MOL0     O25473   8.659   0.509   2.470 -0.4746 -0.4307 -0.1048
  910MOL0     C25474   8.799   0.515   2.475 -0.0405  0.2650  0.2473
  910MOL0     C25475   8.873   0.571   2.583 -0.2867 -0.4731 -0.3163
  910MOL0     C25476   9.013   0.586   2.566  0.0147  0.2411  0.4996
  910MOL0     C25477   9.077   0.519   2.461 -0.1552 -0.2102  0.0845
  910MOL0     O25478   9.217   0.517   2.460  0.6392 -0.2804  0.4037
  910MOL0     C25479   9.282   0.453   2.346  0.0059  0.4322 -0.5281
  910MOL0     C25480   9.438   0.472   2.370  0.2174  0.4177 -0.4426
  910MOL0     C25481   9.488   0.404   2.495  0.3218 -0.1992  0.6083
  910MOL0     C25482   9.508   0.251   2.492  0.1678  0.3414  0.3023
  910MOL0     C25483   9.611   0.201   2.401  0.0704  0.0408 -0.7495
  910MOL0     C25484   9.701   0.090   2.457  0.2322 -0.3793  0.2871
  910MOL0     C25485   9.812   0.045   2.356 -0.2962 -1.6291  0.0520
  910MOL0     C25486   9.778  -0.052   2.242  0.1784 -0.0115  0.1190
  910MOL0    Cl25487   9.709   0.047   2.108  0.2182  0.1688  0.3133
  910MOL0     C25488   9.004   0.465   2.358 -0.2895  0.0489  0.3313
  910MOL0     C25489   8.858   0.465   2.367 -1.2532  0.3866  0.5271
  910MOL0     O25490   8.609   0.490   2.697  0.1678 -0.6350 -0.1122
  910MOL0     C25491   8.346   0.511   2.661 -0.3424  0.3370  0.1178
  910MOL0     C25492   8.207   0.515   2.637  0.0685  0.2966 -0.1162
  910MOL0     N25493   7.580   0.892   2.580  0.6004 -0.6446  0.1421
  910MOL0     N25494   7.585   1.002   2.511  0.2698 -0.6002 -0.6801
  910MOL0     C25495   6.789   1.108   2.591 -0.2641 -1.0078  0.4981
  910MOL0     C25496   6.666   1.055   2.619 -0.7273 -0.2076 -0.0772
  910MOL0     C25497   6.220   0.984   2.509 -0.5419 -0.1849  0.9785
  910MOL0     C25498   6.179   0.866   2.456 -0.8741  0.0108 -0.3299
  910MOL0     C25499   6.046   0.838   2.456  0.2319  0.4309 -0.2177
  910MOL0     C25500   5.952   0.916   2.510  0.3377 -0.2685  0.2891
  910MOL0     O25501   5.822   0.864   2.512 -0.2903 -0.5160  0.1921
  910MOL0     C25502   5.714   0.958   2.534  0.1602 -0.1552 -0.3832
  910MOL0     C25503   5.583   0.892   2.525  0.0178  0.2377 -0.2865
  910MOL0     C25504   5.549   0.854   2.381  0.1356  0.0367  0.5894
  910MOL0     C25505   5.394   0.837   2.373  0.2474  0.1991 -0.8276
  910MOL0     C25506   5.355   0.728   2.462  0.4803  0.6470  0.3819
  910MOL0     C25507   5.318   0.638   2.541 -0.3047  0.0709 -0.7494
  910MOL0     C25508   5.993   1.036   2.560 -0.3892 -0.3539 -0.4987
  910MOL0     C25509   6.128   1.071   2.555 -0.4818 -0.4469  0.4024
  910MOL0     C25510   6.164   1.213   2.606 -0.4405 -0.3201 -0.3970
  910MOL0     H25511   6.482   1.328   2.533 -1.6374 -1.7609  2.1176
  910MOL0     H25512   6.684   1.415   2.480  0.9500  0.3008 -0.0263
  910MOL0     H25513   6.873   1.395   2.348  1.2976 -0.3713 -1.2061
  910MOL0     H25514   6.949   1.245   2.320 -4.1762 -1.1584  1.4372
  910MOL0     H25515   7.096   1.423   2.261 -1.4734 -0.4234 -0.3079
  910MOL0     H25516   7.113   1.468   2.429  1.4138 -0.1273 -1.1304
  910MOL0     H25517   7.308   1.349   2.382 -0.0106 -0.8945 -0.3728
  910MOL0     H25518   7.216   1.260   2.495  0.7103  0.2312  0.4786
  910MOL0     H25519   7.152   1.105   2.308  0.9979 -0.5432  1.7677
  910MOL0     H25520   7.196   1.218   2.183  1.0002  0.3051 -0.7525
  910MOL0     H25521   7.359   1.024   2.240  0.1166 -0.4099  0.7739
  910MOL0     H25522   7.393   1.104   2.399 -0.0626 -2.3788 -0.2224
  910MOL0     H25523   7.426   1.248   2.132 -3.2558  2.9171  2.7543
  910MOL0     H25524   7.489   1.283   2.297  1.3307  0.8465 -1.0087
  910MOL0     H25525   7.658   1.188   2.121  0.1015 -0.6579  0.4216
  910MOL0     H25526   7.565   1.047   2.132  1.8001 -1.5998  0.2832
  910MOL0     H25527   7.793   1.098   2.282  0.9477 -1.5914  1.4676
  910MOL0     H25528   7.677   1.190   2.374 -0.0372 -0.1237  1.3521
  910MOL0     H25529   7.736   0.810   2.307  0.3135 -0.9252  0.3350
  910MOL0     H25530   7.694   0.599   2.454  2.9460  1.4121 -1.0147
  910MOL0     H25531   7.590   0.610   2.593  1.1937 -0.2156  1.5362
  910MOL0     H25532   7.859   0.734   2.559 -0.8034  2.5021  0.4339
  910MOL0     H25533   7.752   0.736   2.708 -0.8639  0.0601 -0.0699
  910MOL0     H25534   7.926   0.566   2.742  1.0572 -0.3548 -0.2646
  910MOL0     H25535   7.769   0.485   2.715 -1.1249  2.2981  0.8660
  910MOL0     H25536   7.985   0.381   2.596  1.6866  0.8534 -1.2307
  910MOL0     H25537   7.859   0.420   2.479 -1.0645 -0.1232 -0.0473
  910MOL0     H25538   8.193   0.646   2.344  0.2197  1.4199  0.5217
  910MOL0     H25539   8.399   0.705   2.256 -1.3365 -1.5082 -0.9993
  910MOL0     H25540   8.496   0.563   2.246 -0.6408  2.0116 -1.4351
  910MOL0     H25541   8.549   0.702   2.347  0.0659 -0.6828  2.0504
  910MOL0     H25542   8.826   0.609   2.673 -2.2296  1.2178 -1.9250
  910MOL0     H25543   9.069   0.645   2.638  0.3632  2.9900 -1.8881
  910MOL0     H25544   9.252   0.347   2.341  0.1425  0.0859  3.4057
  910MOL0     H25545   9.248   0.504   2.255 -1.8566 -1.4049 -0.9468
  910MOL0     H25546   9.493   0.437   2.283  1.6436  1.3526  0.0389
  910MOL0     H25547   9.463   0.579   2.376  0.3244  0.3284  1.0075
  910MOL0     H25548   9.415   0.418   2.575  0.7921 -2.1145  1.4478
  910MOL0     H25549   9.581   0.451   2.529 -0.1460  3.0019 -2.0700
  910MOL0     H25550   9.413   0.210   2.457  0.3278  0.0611  0.1988
  910MOL0     H25551   9.514   0.209   2.592 -0.0007  0.2112  0.2570
  910MOL0     H25552   9.557   0.152   2.319  0.0419 -1.6239  0.2282
  910MOL0     H25553   9.672   0.286   2.369 -1.0130  0.8598 -0.7015
  910MOL0     H25554   9.634   0.005   2.466 -0.2551 -0.0041  0.2640
  910MOL0     H25555   9.746   0.113   2.554  2.2364 -1.4641 -0.3210
  910MOL0     H25556   9.887  -0.008   2.417  0.7265 -2.5393 -1.9051
  910MOL0     H25557   9.868   0.126   2.308 -2.4857  1.2264  2.0255
  910MOL0     H25558   9.702  -0.126   2.269  2.0484 -2.4409 -0.9274
  910MOL0     H25559   9.869  -0.102   2.209  0.1117  0.8596 -1.4849
  910MOL0     H25560   9.049   0.417   2.271 -1.3138 -2.7968  1.2539
  910MOL0     H25561   8.786   0.419   2.300 -0.0038 -0.8904  0.0052
  910MOL0     H25562   8.373   0.467   2.756 -0.9908 -1.7531 -0.6019
  910MOL0     H25563   8.145   0.468   2.713 -0.3267 -1.2249 -1.3203
  910MOL0     H25564   6.879   1.052   2.614 -0.7934 -0.8963  3.0572
  910MOL0     H25565   6.651   0.959   2.668 -1.7763 -0.4949 -0.9414
  910MOL0     H25566   6.252   0.794   2.423 -1.8565 -3.2703  3.8240
  910MOL0     H25567   6.008   0.746   2.412  0.9361 -0.0265  0.1102
  910MOL0     H25568   5.728   1.002   2.632 -1.0416 -0.3477 -0.1059
  910MOL0     H25569   5.719   1.043   2.465 -2.5122 -0.3500 -0.9265
  910MOL0     H25570   5.502   0.953   2.565 -0.0723 -0.7914  1.1912
  910MOL0     H25571   5.590   0.809   2.596  0.1626  0.8545  0.4390
  910MOL0     H25572   5.578   0.939   2.318 -0.3426  2.4796  3.3857
  910MOL0     H25573   5.601   0.762   2.352 -1.0301 -1.0500  1.8192
  910MOL0     H25574   5.341   0.827   2.278 -1.0235 -0.0337 -0.1168
  910MOL0     H25575   5.344   0.925   2.416  1.5037  1.1737 -1.2724
  910MOL0     H25576   5.276   0.559   2.599  2.0859  0.6412  2.0001
  910MOL0     H25577   5.927   1.110   2.602  2.2879  1.3643  0.9930
  910MOL0     H25578   6.070   1.270   2.609 -1.3978 -1.8794  1.5295
  910MOL0     H25579   6.208   1.222   2.706  1.6347 -0.9685 -1.1948
  910MOL0     H25580   6.239   1.260   2.541 -0.3538 -0.7366 -0.6044
  911MOL0     O25581   3.209  11.400   1.307 -0.0990 -0.6647  0.7999
  911MOL0     C25582   3.193  11.287   1.256  0.6967 -0.7293  0.2253
  911MOL0     O25583   3.286  11.195   1.224 -0.2437 -0.7573  0.5542
  911MOL0     C25584   3.411  11.253   1.207 -0.2046  0.9790 -0.0248
  911MOL0     C25585   3.515  11.247   1.299  0.1658  0.3248 -0.3903
  911MOL0     C25586   3.647  11.288   1.278 -0.9396  0.1257 -0.7559
  911MOL0     C25587   3.679  11.330   1.147  0.5110 -0.9981 -0.1894
  911MOL0     O25588   3.809  11.351   1.096 -0.3251  0.2874 -0.6322
  911MOL0     C25589   3.913  11.388   1.190  0.5358 -0.5025  0.5219
  911MOL0     C25590   3.977  11.263   1.256  0.1568 -2.0644  0.3094
  911MOL0     C25591   4.127  11.281   1.263  0.2638  0.4921 -0.2054
  911MOL0     C25592   4.177  11.180   1.371 -0.2310  0.1106 -0.4713
  911MOL0     C25593   4.331  11.168   1.377  0.5218 -0.0587  0.4927
  911MOL0     C25594   4.386  11.101   1.256  0.2351  0.0642 -0.5506
  911MOL0     C25595   4.379  10.945   1.276  0.4118 -0.5739 -0.8499
  911MOL0     C25596   4.412  10.861   1.146  0.4078  0.1709 -0.3162
  911MOL0     N25597   4.560  10.860   1.132  0.0242  0.7115  0.6766
  911MOL0     C25598   4.664  10.792   1.192 -0.7065 -0.1539  0.8886
  911MOL0     C25599   4.780  10.850   1.138 -0.5935  0.7662  0.4919
  911MOL0     C25600   4.916  10.827   1.193 -0.4363 -0.6694  0.6690
  911MOL0     C25601   5.001  10.743   1.099  0.5279 -0.1291 -0.7839
  911MOL0     C25602   5.149  10.755   1.136 -0.1359 -0.9019 -0.3256
  911MOL0     C25603   5.175  10.719   1.280 -0.1863 -0.9027  0.0216
  911MOL0     O25604   5.112  10.593   1.321  0.2981  0.6973  0.1436
  911MOL0     C25605   5.191  10.483   1.296  0.5607 -0.5644 -0.4927
  911MOL0     C25606   5.311  10.469   1.361  0.8795  0.3876 -0.6744
  911MOL0     C25607   5.378  10.348   1.362  0.7477 -0.7112  0.7939
  911MOL0     C25608   5.504  10.343   1.443  0.7077 -0.0246 -0.0048
  911MOL0     C25609   5.329  10.233   1.290 -0.0046 -0.5445 -0.5129
  911MOL0     C25610   5.406  10.110   1.253  0.1451 -0.2565 -0.5009
  911MOL0     O25611   5.545  10.120   1.262 -0.0206  0.0843  0.3250
  911MOL0     C25612   5.629  10.033   1.196 -0.1950 -0.3962 -0.1168
  911MOL0     C25613   5.595   9.945   1.099 -0.1275  0.7415 -0.4884
  911MOL0     C25614   5.700   9.866   1.035 -0.3423 -0.6223 -0.2057
  911MOL0     C25615   5.839   9.886   1.058  0.1264 -0.5421 -0.1689
  911MOL0     O25616   5.930   9.815   0.991 -0.3799 -0.3096  0.3269
  911MOL0     C25617   5.920   9.670   1.011  0.1731 -0.2294 -0.5252
  911MOL0     C25618   6.026   9.585   0.931  0.9245 -0.8122 -0.4124
  911MOL0     C25619   6.176   9.619   0.959  0.7753 -0.1921  0.1570
  911MOL0     C25620   6.224   9.739   0.885  0.5302  0.7589 -0.3599
  911MOL0     C25621   6.364   9.795   0.925 -0.2439 -0.3930 -0.2517
  911MOL0     C25622   6.471   9.712   0.871 -0.2534  1.1571 -0.2417
  911MOL0     C25623   6.596   9.722   0.963 -0.1317 -0.1202  0.6830
  911MOL0     C25624   6.715   9.646   0.915  0.2797  0.0108 -0.5056
  911MOL0    Cl25625   6.853   9.648   1.032  0.0835  0.1557  0.3621
  911MOL0     C25626   5.862   9.982   1.152  0.2121  0.3454 -0.1881
  911MOL0     C25627   5.761  10.046   1.221  0.0051  1.0419  0.1052
  911MOL0     O25628   5.346   9.999   1.236 -0.3886  0.4169  0.2909
  911MOL0     C25629   5.205  10.253   1.219 -0.3878  0.4379 -1.4247
  911MOL0     C25630   5.135  10.378   1.224 -0.7129  0.3440  0.3223
  911MOL0     N25631   4.745  10.936   1.041 -0.3346 -0.5060  0.4549
  911MOL0     N25632   4.615  10.948   1.050 -0.5521  0.2834  0.1657
  911MOL0     C25633   3.579  11.332   1.050  0.0853 -0.3327  0.0636
  911MOL0     C25634   3.453  11.299   1.078 -0.0083  0.8157 -0.0057
  911MOL0     C25635   3.050  11.250   1.229  0.3405 -0.4686  0.1619
  911MOL0     C25636   3.030  11.117   1.184  0.2037 -0.2249  0.5440
  911MOL0     C25637   2.906  11.078   1.134  0.1272  0.3108 -0.5655
  911MOL0     C25638   2.794  11.159   1.140 -0.5606  0.2289 -0.6640
  911MOL0     O25639   2.667  11.114   1.096  0.3096  0.2761  0.2599
  911MOL0     C25640   2.552  11.128   1.188  0.3315  0.2666  0.5600
  911MOL0     C25641   2.518  11.004   1.279  0.0979 -0.0595  0.0475
  911MOL0     C25642   2.482  10.872   1.211  0.5997 -0.2636 -0.4187
  911MOL0     C25643   2.423  10.751   1.282  0.5082 -0.3524  0.3414
  911MOL0     C25644   2.373  10.655   1.182  0.2296  0.0301  0.2637
  911MOL0     C25645   2.350  10.583   1.087  0.0974  0.0724  0.1133
  911MOL0     C25646   2.810  11.293   1.185  0.5620 -0.5691 -0.3782
  911MOL0     C25647   2.937  11.339   1.232  0.1888 -0.6383 -1.0760
  911MOL0     C25648   2.938  11.472   1.310  0.5450 -0.8646  0.5442
  911MOL0     H25649   3.485  11.206   1.395 -3.7265 -0.8260 -1.9010
  911MOL0     H25650   3.722  11.289   1.356 -1.0367  4.2739 -0.4641
  911MOL0     H25651   3.876  11.454   1.268 -1.8031  1.1233 -1.8077
  911MOL0     H25652   3.991  11.444   1.138  1.6104  0.1587  2.7272
  911MOL0     H25653   3.945  11.249   1.359  0.9434 -0.1543  0.8584
  911MOL0     H25654   3.951  11.173   1.200  0.2853 -1.0942 -1.3749
  911MOL0     H25655   4.165  11.257   1.163 -3.0563 -0.8968 -1.2804
  911MOL0     H25656   4.158  11.384   1.279  0.9403  0.3636 -0.6462
  911MOL0     H25657   4.147  11.209   1.472  0.7469 -0.4435  0.0016
  911MOL0     H25658   4.125  11.087   1.344  0.8046  0.5064 -4.4120
  911MOL0     H25659   4.356  11.112   1.467  1.2933  2.1537  1.7154
  911MOL0     H25660   4.390  11.259   1.387  0.6231 -0.1793  1.0294
  911MOL0     H25661   4.332  11.130   1.165  1.0288  0.3648 -0.9348
  911MOL0     H25662   4.489  11.135   1.245 -0.3164  1.4185 -1.8693
  911MOL0     H25663   4.286  10.905   1.318  1.2411 -1.7869 -0.0867
  911MOL0     H25664   4.452  10.931   1.356 -0.7350 -1.3514  0.0911
  911MOL0     H25665   4.375  10.760   1.166 -6.7650  1.7624 -2.6904
  911MOL0     H25666   4.354  10.895   1.060 -1.8755 -4.4645 -0.8805
  911MOL0     H25667   4.651  10.721   1.273  0.4208 -3.2972 -1.5361
  911MOL0     H25668   4.914  10.779   1.292  0.2384 -0.1965  0.9227
  911MOL0     H25669   4.960  10.926   1.207 -0.5332 -0.8407  2.5330
  911MOL0     H25670   4.990  10.634   1.109  0.1130  0.0278  0.5953
  911MOL0     H25671   4.995  10.778   0.995 -0.6045  4.2268  0.5460
  911MOL0     H25672   5.219  10.702   1.071 -0.6627 -1.4894 -0.4215
  911MOL0     H25673   5.178  10.859   1.121 -0.2064 -0.5393  1.7444
  911MOL0     H25674   5.284  10.708   1.285 -0.1204 -0.4413 -0.3459
  911MOL0     H25675   5.136  10.802   1.339  1.0156  0.0048 -0.4284
  911MOL0     H25676   5.335  10.550   1.430 -0.8899  1.3744 -1.1413
  911MOL0     H25677   5.597  10.350   1.384  1.8989  2.7755  2.0185
  911MOL0     H25678   5.500  10.250   1.500  0.2807 -0.4696 -0.7443
  911MOL0     H25679   5.506  10.424   1.517  2.7255  2.4012 -2.4784
  911MOL0     H25680   5.495   9.923   1.064  0.3514 -0.4339 -1.2089
  911MOL0     H25681   5.670   9.789   0.964  1.9346 -0.6640 -1.2148
  911MOL0     H25682   5.938   9.667   1.119  1.0488  2.1441 -0.5370
  911MOL0     H25683   5.816   9.646   0.987 -0.3017  2.0859 -1.0652
  911MOL0     H25684   6.006   9.482   0.963 -0.9512 -0.6238 -0.8371
  911MOL0     H25685   5.999   9.608   0.828 -2.5825  0.0946  0.5446
  911MOL0     H25686   6.240   9.535   0.927  0.6749  0.0702 -0.7623
  911MOL0     H25687   6.197   9.646   1.063  0.7409 -2.0995  0.6945
  911MOL0     H25688   6.147   9.814   0.906 -1.0922 -1.0416  0.3745
  911MOL0     H25689   6.223   9.713   0.779  3.3968 -2.2893  0.1841
  911MOL0     H25690   6.377   9.898   0.890  0.3569 -1.4978 -3.6532
  911MOL0     H25691   6.370   9.780   1.033 -1.8921  1.5761  0.1848
  911MOL0     H25692   6.499   9.734   0.767 -0.7216 -1.1676 -0.9137
  911MOL0     H25693   6.446   9.606   0.867  0.9948  0.8400 -0.0170
  911MOL0     H25694   6.575   9.683   1.063 -0.4630 -0.8682  0.3288
  911MOL0     H25695   6.614   9.829   0.955  1.8477 -0.4028  0.9209
  911MOL0     H25696   6.735   9.686   0.815 -2.2945 -1.6171 -1.7690
  911MOL0     H25697   6.698   9.539   0.905 -0.6315 -0.1626  2.1340
  911MOL0     H25698   5.967  10.009   1.163  1.0585 -1.9958 -1.8780
  911MOL0     H25699   5.773  10.118   1.302 -1.9162  0.5446  0.8860
  911MOL0     H25700   5.178  10.165   1.162  2.3510 -1.0360 -0.6302
  911MOL0     H25701   5.035  10.382   1.180 -2.1449  1.2458  3.3779
  911MOL0     H25702   3.600  11.360   0.948  1.1312 -1.1555  0.0297
  911MOL0     H25703   3.389  11.283   0.992 -1.4396  0.0958  1.1472
  911MOL0     H25704   3.107  11.041   1.184  0.7405  0.3042 -0.3012
  911MOL0     H25705   2.896  10.974   1.106  2.1121 -0.5317  1.5558
  911MOL0     H25706   2.571  11.210   1.257  2.0859  1.2448 -0.9935
  911MOL0     H25707   2.474  11.160   1.118  2.2555 -1.0192 -2.3529
  911MOL0     H25708   2.436  11.027   1.347 -0.8158 -1.6543 -0.4386
  911MOL0     H25709   2.611  10.985   1.334  0.0674  0.8623  0.4291
  911MOL0     H25710   2.428  10.894   1.118  0.8661 -0.5050 -0.6352
  911MOL0     H25711   2.578  10.825   1.188  1.7754 -1.1541  4.9720
  911MOL0     H25712   2.326  10.780   1.324 -0.1968 -0.2000 -1.3071
  911MOL0     H25713   2.492  10.710   1.356  0.7410 -3.9580 -1.6734
  911MOL0     H25714   2.358  10.529   0.994 -1.8238  0.2967 -0.2106
  911MOL0     H25715   2.720  11.353   1.197 -0.1506 -2.1024  3.1331
  911MOL0     H25716   2.991  11.545   1.250  1.6503 -0.1586  2.2811
  911MOL0     H25717   2.838  11.514   1.324  1.6199  2.0433  0.1985
  911MOL0     H25718   2.990  11.460   1.406  1.5558 -0.4877  0.0590
  912MOL0     O25719   3.950   2.493   1.648 -0.7456  0.0080 -0.5958
  912MOL0     C25720   3.836   2.481   1.689 -0.1018  0.5421  0.2739
  912MOL0     O25721   3.737   2.568   1.674  0.3817 -0.1445  0.3585
  912MOL0     C25722   3.755   2.695   1.623 -0.8322  0.6867 -0.0535
  912MOL0     C25723   3.670   2.742   1.523 -0.2521 -0.7692  0.6520
  912MOL0     C25724   3.693   2.861   1.454  0.6854  0.5388 -0.9897
  912MOL0     C25725   3.805   2.944   1.491  0.3839  0.0906 -0.1378
  912MOL0     O25726   3.838   3.061   1.431  0.6366 -0.3462  0.3183
  912MOL0     C25727   3.754   3.120   1.337 -0.1945 -0.5253  0.2464
  912MOL0     C25728   3.790   3.267   1.322 -0.4605 -0.1962  0.2472
  912MOL0     C25729   3.937   3.288   1.283  0.1509  0.3870  0.1464
  912MOL0     C25730   3.970   3.441   1.278  0.3157 -0.3776 -0.1059
  912MOL0     C25731   4.113   3.457   1.231  1.2007 -0.2940  0.2028
  912MOL0     C25732   4.126   3.617   1.196 -0.1417 -0.3740  0.6276
  912MOL0     C25733   4.276   3.650   1.149  0.4654  0.8070 -0.0771
  912MOL0     C25734   4.270   3.640   0.993 -0.7666  0.3754  0.3431
  912MOL0     N25735   4.403   3.654   0.933 -0.1229 -0.1117  0.2663
  912MOL0     C25736   4.466   3.769   0.912 -0.5284 -0.2037  0.1612
  912MOL0     C25737   4.572   3.738   0.827 -0.6043 -0.1752  0.0634
  912MOL0     C25738   4.674   3.832   0.774  0.0972 -0.9299 -0.4455
  912MOL0     C25739   4.810   3.779   0.794 -0.1932  0.2640 -0.0100
  912MOL0     C25740   4.916   3.857   0.722  0.4161 -0.4518 -1.2080
  912MOL0     C25741   5.055   3.799   0.747 -0.4559  0.2949  0.4154
  912MOL0     O25742   5.065   3.660   0.719  0.1474  0.2666 -0.1811
  912MOL0     C25743   5.163   3.579   0.782 -0.3703 -0.0633  0.5902
  912MOL0     C25744   5.170   3.447   0.730 -0.3052 -0.1298 -0.2199
  912MOL0     C25745   5.257   3.357   0.785  0.9971 -0.6215 -0.2922
  912MOL0     C25746   5.262   3.218   0.733 -0.5094  0.6993  0.0146
  912MOL0     C25747   5.349   3.396   0.890  0.5836 -0.5177 -0.5588
  912MOL0     C25748   5.446   3.317   0.964  0.2147 -0.5331 -0.2240
  912MOL0     O25749   5.529   3.378   1.053  0.0962 -0.4557  0.0899
  912MOL0     C25750   5.642   3.314   1.083  0.0656 -0.2494  0.2699
  912MOL0     C25751   5.660   3.232   1.197  0.0999 -0.7674 -0.0505
  912MOL0     C25752   5.780   3.167   1.216 -0.3359  1.0005 -0.5875
  912MOL0     C25753   5.883   3.171   1.125  0.8172  0.5364 -0.6582
  912MOL0     O25754   5.996   3.092   1.147 -0.4478  0.0652 -0.3241
  912MOL0     C25755   6.110   3.155   1.109  0.0575 -0.1543 -0.0191
  912MOL0     C25756   6.232   3.091   1.160  0.8305 -0.8320  0.3807
  912MOL0     C25757   6.237   2.935   1.129  0.8940 -0.3656 -0.8686
  912MOL0     C25758   6.339   2.874   1.226 -0.9380  0.8245  0.8215
  912MOL0     C25759   6.373   2.724   1.194  0.3985 -0.7381 -0.0300
  912MOL0     C25760   6.441   2.702   1.059 -0.7744 -0.4020  0.2379
  912MOL0     C25761   6.461   2.548   1.041 -0.1655  0.8154  0.1945
  912MOL0     C25762   6.585   2.480   1.105 -0.5611  0.1489 -0.0419
  912MOL0    Cl25763   6.737   2.538   1.033  0.0006  0.0101  0.3395
  912MOL0     C25764   5.868   3.256   1.015  1.0060  0.3661 -0.3086
  912MOL0     C25765   5.757   3.331   0.994  0.5032 -0.4298 -1.3552
  912MOL0     O25766   5.441   3.197   0.946  0.1544  0.7085  0.3134
  912MOL0     C25767   5.341   3.535   0.934 -0.8186  0.4086  0.6418
  912MOL0     C25768   5.246   3.620   0.878 -0.5976  0.2902 -0.4707
  912MOL0     N25769   4.566   3.601   0.798  0.2851 -0.5564  0.7695
  912MOL0     N25770   4.465   3.550   0.861  0.2835  0.3823  0.0856
  912MOL0     C25771   3.884   2.907   1.599 -0.0842 -0.0872 -0.8372
  912MOL0     C25772   3.864   2.782   1.656 -0.8317 -0.9654 -0.5046
  912MOL0     C25773   3.801   2.352   1.757  0.7054  0.4368  0.9650
  912MOL0     C25774   3.889   2.242   1.746 -0.8380 -0.2774 -0.0324
  912MOL0     C25775   3.873   2.123   1.819  0.5665 -0.1166 -0.3626
  912MOL0     C25776   3.761   2.102   1.898  0.2460 -0.3072 -0.0277
  912MOL0     O25777   3.741   1.985   1.953 -0.0808  0.2364 -0.2165
  912MOL0     C25778   3.621   1.958   2.029  0.2812  0.0463 -0.2796
  912MOL0     C25779   3.651   1.831   2.102 -0.2097 -0.1764 -0.2108
  912MOL0     C25780   3.534   1.802   2.203 -0.6821 -0.2934 -0.7401
  912MOL0     C25781   3.535   1.660   2.251  0.1523 -0.1837 -0.0409
  912MOL0     C25782   3.449   1.635   2.368 -0.9026 -0.9468 -0.4257
  912MOL0     C25783   3.367   1.615   2.450 -0.5486  0.6278  0.0820
  912MOL0     C25784   3.669   2.213   1.906 -0.2655  0.0720 -0.7238
  912MOL0     C25785   3.691   2.336   1.844 -0.5007 -0.0395  0.3535
  912MOL0     C25786   3.582   2.440   1.882 -0.0249 -0.1867 -0.2199
  912MOL0     H25787   3.585   2.680   1.495 -1.7235  0.8933  1.2873
  912MOL0     H25788   3.626   2.885   1.372 -1.4252 -1.7232 -0.0709
  912MOL0     H25789   3.648   3.117   1.363 -0.1201  2.0064  1.1260
  912MOL0     H25790   3.770   3.071   1.240 -0.9974 -0.6422  0.1616
  912MOL0     H25791   3.728   3.314   1.245  0.6055  0.9519  0.0720
  912MOL0     H25792   3.783   3.314   1.420  0.4111 -1.3945  0.9122
  912MOL0     H25793   4.000   3.243   1.361  0.3845  3.2263  1.7381
  912MOL0     H25794   3.957   3.241   1.186  0.9156  0.2601  0.3561
  912MOL0     H25795   3.906   3.493   1.207  1.7694  0.3791 -0.8991
  912MOL0     H25796   3.962   3.491   1.376  0.6787 -1.8469  0.7044
  912MOL0     H25797   4.121   3.401   1.138  0.4575 -0.0956  0.0217
  912MOL0     H25798   4.178   3.431   1.316  2.3442  2.1331  0.1673
  912MOL0     H25799   4.058   3.639   1.114 -1.2648 -1.6789  1.1751
  912MOL0     H25800   4.095   3.679   1.281 -0.7109 -2.0561  1.6859
  912MOL0     H25801   4.353   3.587   1.196  2.9289  3.5443 -0.1158
  912MOL0     H25802   4.293   3.755   1.177  0.3737  0.4010  1.5866
  912MOL0     H25803   4.230   3.546   0.953  0.9115 -0.9284  1.5536
  912MOL0     H25804   4.194   3.707   0.952 -2.0311 -2.1032 -1.6306
  912MOL0     H25805   4.430   3.866   0.944 -1.1853 -0.7048  0.9763
  912MOL0     H25806   4.661   3.930   0.820 -2.9048 -0.1234 -2.6493
  912MOL0     H25807   4.656   3.856   0.669 -1.8804  0.3888  0.1244
  912MOL0     H25808   4.831   3.776   0.901 -0.4960  1.0026  0.0740
  912MOL0     H25809   4.811   3.674   0.764 -4.9493 -0.6280  1.9613
  912MOL0     H25810   4.893   3.854   0.614 -1.9571 -0.0475 -0.7768
  912MOL0     H25811   4.905   3.960   0.756 -4.1567 -1.7886  2.3795
  912MOL0     H25812   5.125   3.853   0.682 -1.1038 -0.5304 -1.0147
  912MOL0     H25813   5.077   3.821   0.851  1.2271  2.2625 -0.2987
  912MOL0     H25814   5.108   3.427   0.644 -3.0753  3.3050  0.7883
  912MOL0     H25815   5.359   3.207   0.684 -1.4446 -0.0379 -1.7419
  912MOL0     H25816   5.185   3.192   0.660 -0.8171  0.0441  0.5653
  912MOL0     H25817   5.251   3.145   0.814 -2.8871  0.3960 -0.5278
  912MOL0     H25818   5.588   3.252   1.276 -1.7513  1.7449 -2.1852
  912MOL0     H25819   5.784   3.109   1.308  0.4424  1.4915 -0.3037
  912MOL0     H25820   6.123   3.144   1.001  1.2280  0.5805  0.0247
  912MOL0     H25821   6.098   3.262   1.129 -0.9602 -0.7661  3.2062
  912MOL0     H25822   6.321   3.146   1.126  0.4935  0.7592  1.9417
  912MOL0     H25823   6.233   3.099   1.269  1.5850 -2.5226  0.5227
  912MOL0     H25824   6.254   2.917   1.023  1.6497 -0.3106 -0.7610
  912MOL0     H25825   6.142   2.890   1.160  0.8438 -0.3650 -1.0225
  912MOL0     H25826   6.302   2.884   1.328 -0.2889  1.0859  1.0311
  912MOL0     H25827   6.437   2.922   1.215  0.3874 -1.0950  3.3282
  912MOL0     H25828   6.438   2.692   1.276  1.4026  1.7002  0.1875
  912MOL0     H25829   6.289   2.653   1.199  1.8065 -2.5485 -0.6227
  912MOL0     H25830   6.537   2.754   1.060 -1.4176  0.8111  0.5838
  912MOL0     H25831   6.383   2.738   0.974 -0.8745  1.7530  1.1700
  912MOL0     H25832   6.460   2.538   0.932 -0.8012 -1.7394  0.3821
  912MOL0     H25833   6.374   2.492   1.078  1.2272 -0.5409  1.5773
  912MOL0     H25834   6.573   2.371   1.098 -0.9339  0.2419 -0.9825
  912MOL0     H25835   6.590   2.512   1.209  0.1511 -1.1359  0.3352
  912MOL0     H25836   5.955   3.284   0.956  2.3441 -0.2397  1.2928
  912MOL0     H25837   5.751   3.410   0.919  0.2176  1.7679  0.8449
  912MOL0     H25838   5.411   3.580   1.004 -0.4070 -1.1631  1.2698
  912MOL0     H25839   5.252   3.720   0.921  0.3372  0.5718 -1.2133
  912MOL0     H25840   3.963   2.972   1.636 -0.1098 -0.6238  0.1776
  912MOL0     H25841   3.932   2.771   1.740  1.8016  1.0217 -2.2114
  912MOL0     H25842   3.971   2.258   1.677 -1.3062 -1.0262 -0.7763
  912MOL0     H25843   3.943   2.041   1.812  0.6079 -0.0295 -1.0502
  912MOL0     H25844   3.616   2.032   2.109  2.0668 -0.1235  0.0208
  912MOL0     H25845   3.524   1.945   1.980  0.1622 -2.3821  0.4953
  912MOL0     H25846   3.743   1.849   2.158 -1.6670  3.1455  1.4129
  912MOL0     H25847   3.658   1.750   2.029  0.2408 -0.5550  0.2502
  912MOL0     H25848   3.547   1.875   2.283  1.8990 -0.5224 -0.8752
  912MOL0     H25849   3.438   1.829   2.158 -0.9485  0.0410  0.0113
  912MOL0     H25850   3.637   1.641   2.284  0.7634  0.7173 -1.3468
  912MOL0     H25851   3.521   1.591   2.168  0.4899 -0.0668 -0.1960
  912MOL0     H25852   3.291   1.605   2.525 -0.6632 -2.0707 -0.3145
  912MOL0     H25853   3.581   2.204   1.969  1.9849 -0.1811  2.6518
  912MOL0     H25854   3.614   2.496   1.971 -2.0160  0.2444  0.2666
  912MOL0     H25855   3.546   2.507   1.804 -2.2164  1.8766  2.3454
  912MOL0     H25856   3.491   2.390   1.917  0.5597  0.1178  1.9207
  913MOL0     O25857  10.255   7.940   5.236 -0.1529  0.4136 -0.3643
  913MOL0     C25858  10.265   7.836   5.296  0.8117  0.5051  0.8894
  913MOL0     O25859  10.373   7.762   5.291 -0.0476 -0.2141 -0.4763
  913MOL0     C25860  10.477   7.790   5.206 -0.2278  0.4761  0.2197
  913MOL0     C25861  10.607   7.791   5.264 -0.4523 -0.1954 -1.2578
  913MOL0     C25862  10.719   7.816   5.182 -0.7382  0.1485 -0.5304
  913MOL0     C25863  10.705   7.852   5.050  1.0043  0.9861 -0.1546
  913MOL0     O25864  10.814   7.881   4.970 -0.2218  0.3687 -0.6141
  913MOL0     C25865  10.930   7.783   4.997  0.2256  0.5707  0.7153
  913MOL0     C25866  11.049   7.816   4.917  0.1240  0.2628 -0.6848
  913MOL0     C25867  11.043   7.791   4.768  0.2402  0.6053 -0.1739
  913MOL0     C25868  11.185   7.803   4.705  0.4330  0.2415 -0.4795
  913MOL0     C25869  11.195   7.806   4.563  0.4460  0.3830  0.7410
  913MOL0     C25870  11.139   7.943   4.500 -0.7989 -0.0171  0.2794
  913MOL0     C25871  11.114   7.926   4.349  0.3472  0.6408  0.0930
  913MOL0     C25872  11.220   7.870   4.250  0.4596  0.7836  0.3517
  913MOL0     N25873  11.342   7.950   4.259 -0.7727 -0.6535  0.3512
  913MOL0     C25874  11.344   8.087   4.231  0.5536 -0.5971  0.3504
  913MOL0     C25875  11.474   8.120   4.280  0.6486  0.3469 -0.8530
  913MOL0     C25876  11.547   8.253   4.277 -0.1768 -0.3348  0.1145
  913MOL0     C25877  11.464   8.354   4.360  0.2901  0.3516 -0.0539
  913MOL0     C25878  11.527   8.495   4.357 -0.0427  0.7689  0.1477
  913MOL0     C25879  11.597   8.533   4.229 -0.2700 -0.6250 -0.1404
  913MOL0     O25880  11.639   8.675   4.227 -0.4838 -0.0093  0.2822
  913MOL0     C25881  11.755   8.710   4.291  0.2100 -0.0717  0.5775
  913MOL0     C25882  11.841   8.625   4.363 -0.1185 -0.5876  0.8046
  913MOL0     C25883  11.958   8.673   4.429  0.3002  0.0002 -0.1923
  913MOL0     C25884  12.032   8.569   4.519  0.0201  0.6503  0.2443
  913MOL0     C25885  11.999   8.805   4.415 -0.4456  0.2473 -0.1148
  913MOL0     C25886  12.122   8.864   4.480 -0.3996 -0.0840 -0.0545
  913MOL0     O25887  12.196   8.792   4.571 -0.6888 -0.9375 -0.2663
  913MOL0     C25888  12.288   8.867   4.648  0.2078  0.1265  0.5362
  913MOL0     C25889  12.231   8.939   4.749 -0.3044 -0.1511 -0.8579
  913MOL0     C25890  12.317   8.997   4.845  0.0858  1.0959 -0.0747
  913MOL0     C25891  12.458   8.983   4.836  0.3341 -0.2095 -0.5198
  913MOL0     O25892  12.545   9.058   4.913  0.7089 -0.0769  0.9293
  913MOL0     C25893  12.503   9.182   4.977 -1.0311 -0.4335  0.6908
  913MOL0     C25894  12.578   9.198   5.107 -0.4077  0.1610  0.1672
  913MOL0     C25895  12.585   9.067   5.199 -0.1449  0.4024 -0.0940
  913MOL0     C25896  12.637   9.100   5.339  0.1752  0.1652 -0.1740
  913MOL0     C25897  12.518   9.084   5.448 -0.7590  0.1214  0.0247
  913MOL0     C25898  12.401   9.170   5.430 -0.5036 -0.3708 -0.0184
  913MOL0     C25899  12.321   9.177   5.563  0.5509  0.0369  0.5763
  913MOL0     C25900  12.220   9.290   5.574  0.0131  0.8501 -0.7681
  913MOL0    Cl25901  12.102   9.277   5.715  0.1554 -0.1956 -0.3171
  913MOL0     C25902  12.511   8.906   4.733 -1.4684 -0.8874 -0.6066
  913MOL0     C25903  12.425   8.842   4.645  0.4075  0.4260 -0.3864
  913MOL0     O25904  12.150   8.976   4.445  0.2948 -0.4262 -0.6022
  913MOL0     C25905  11.916   8.884   4.338  0.9232 -0.1240  0.0341
  913MOL0     C25906  11.795   8.837   4.278 -1.1123 -0.5128  0.3591
  913MOL0     N25907  11.528   8.013   4.352  0.3216 -0.2966  0.1399
  913MOL0     N25908  11.446   7.911   4.336  0.1533  0.4062  0.1942
  913MOL0     C25909  10.581   7.859   5.002 -0.1111 -0.2579  0.4882
  913MOL0     C25910  10.468   7.829   5.074  0.5986  0.5113  0.3577
  913MOL0     C25911  10.152   7.789   5.375  0.2666 -0.9523 -0.0011
  913MOL0     C25912  10.149   7.647   5.392  0.6409  0.2102 -0.5147
  913MOL0     C25913  10.055   7.587   5.463 -0.1957  0.0157  0.2730
  913MOL0     C25914   9.951   7.656   5.528 -0.0816  0.2945  0.0364
  913MOL0     O25915   9.874   7.575   5.610  0.3307 -0.4649  0.1690
  913MOL0     C25916   9.753   7.633   5.658  0.0817  1.2167  0.3057
  913MOL0     C25917   9.767   7.714   5.788  1.1277  0.4532  0.1941
  913MOL0     C25918   9.807   7.620   5.908 -0.2542 -0.1401 -0.0642
  913MOL0     C25919   9.853   7.720   6.014 -0.7214 -0.2973 -0.4344
  913MOL0     C25920   9.776   7.844   6.051 -0.0823 -0.7325  0.4340
  913MOL0     C25921   9.701   7.937   6.073 -0.6798  0.4525  0.2232
  913MOL0     C25922   9.942   7.801   5.509 -0.8217  0.1334 -0.2301
  913MOL0     C25923  10.041   7.868   5.426 -0.1723  0.6031  0.0476
  913MOL0     C25924  10.037   8.015   5.416 -0.5153 -0.1810  0.0416
  913MOL0     H25925  10.633   7.772   5.368  4.1092  2.2392 -1.7185
  913MOL0     H25926  10.817   7.814   5.229 -0.5201  0.2519 -0.9807
  913MOL0     H25927  10.892   7.687   4.964  1.6923  0.0627  0.4120
  913MOL0     H25928  10.975   7.790   5.097  1.2246  0.8023  0.2677
  913MOL0     H25929  11.077   7.920   4.938  0.7512 -0.2626  1.3625
  913MOL0     H25930  11.128   7.759   4.967 -1.7011  1.3890  4.0274
  913MOL0     H25931  10.991   7.699   4.743 -0.9871  1.5052 -1.0756
  913MOL0     H25932  10.990   7.876   4.723  1.6964  1.6112 -0.0776
  913MOL0     H25933  11.224   7.895   4.749 -1.5876 -0.0827  2.2488
  913MOL0     H25934  11.257   7.727   4.735  2.6919  1.0555 -3.3801
  913MOL0     H25935  11.150   7.713   4.526  0.2255  1.4108 -1.7750
  913MOL0     H25936  11.297   7.810   4.524 -0.4137 -0.3656 -1.8031
  913MOL0     H25937  11.047   7.968   4.554 -1.4502 -1.6350 -0.0167
  913MOL0     H25938  11.206   8.025   4.525  0.6150 -1.4020  1.2054
  913MOL0     H25939  11.097   8.025   4.307  1.0781  0.3151 -0.9975
  913MOL0     H25940  11.030   7.857   4.338  1.5331 -0.5742 -1.9081
  913MOL0     H25941  11.240   7.764   4.270 -2.0259  0.2649  0.3352
  913MOL0     H25942  11.183   7.870   4.147 -0.4661 -1.0826  0.6335
  913MOL0     H25943  11.272   8.146   4.175  1.2429 -2.0003 -2.1805
  913MOL0     H25944  11.550   8.282   4.171  0.8021 -1.5342 -0.2123
  913MOL0     H25945  11.651   8.240   4.307 -0.8951 -0.2572  2.8977
  913MOL0     H25946  11.363   8.366   4.318 -0.6849 -0.2097  1.9908
  913MOL0     H25947  11.464   8.320   4.464  0.5188 -2.1246 -0.8003
  913MOL0     H25948  11.453   8.573   4.378 -2.3230 -0.8503 -1.4140
  913MOL0     H25949  11.606   8.493   4.433  0.2436 -0.4776 -0.1470
  913MOL0     H25950  11.685   8.469   4.215  0.8885  0.8545  0.2244
  913MOL0     H25951  11.528   8.520   4.145 -0.9070  1.4533  0.0182
  913MOL0     H25952  11.816   8.519   4.357 -0.6844 -0.4284  0.3035
  913MOL0     H25953  12.131   8.545   4.480 -0.2418 -0.5140  0.2306
  913MOL0     H25954  11.996   8.465   4.515  0.3003  0.5906 -1.6256
  913MOL0     H25955  12.042   8.603   4.622 -3.1652 -1.0522  1.2610
  913MOL0     H25956  12.124   8.953   4.755 -0.1401  1.7568 -1.6025
  913MOL0     H25957  12.266   9.037   4.932  0.1538  2.8375 -0.7933
  913MOL0     H25958  12.527   9.260   4.904 -2.2390  1.1697  1.9188
  913MOL0     H25959  12.395   9.182   4.996 -1.4540 -2.8395 -1.1634
  913MOL0     H25960  12.679   9.238   5.089 -0.3203  0.3652  1.0929
  913MOL0     H25961  12.532   9.285   5.154  1.5660  2.7842 -2.4315
  913MOL0     H25962  12.666   9.014   5.148  0.1258 -0.3472  1.0589
  913MOL0     H25963  12.489   9.014   5.202 -0.7760  1.4885 -0.4577
  913MOL0     H25964  12.667   9.205   5.335 -4.7103  1.9391  1.6425
  913MOL0     H25965  12.718   9.033   5.366  0.8292  0.1879 -1.9549
  913MOL0     H25966  12.490   8.979   5.459  2.7406 -0.9104  0.1471
  913MOL0     H25967  12.573   9.122   5.534  1.6930  2.7723 -2.4626
  913MOL0     H25968  12.342   9.122   5.351 -0.1099 -1.5456  0.3857
  913MOL0     H25969  12.431   9.272   5.401  0.2119 -0.2377  1.1261
  913MOL0     H25970  12.391   9.186   5.648  2.6634 -2.2595 -0.7863
  913MOL0     H25971  12.264   9.086   5.583 -0.3005  0.6968  1.2713
  913MOL0     H25972  12.152   9.296   5.489 -0.3855 -2.7170 -0.8466
  913MOL0     H25973  12.276   9.383   5.584 -0.4461  1.0557  0.0269
  913MOL0     H25974  12.618   8.896   4.727 -1.4684 -1.2815 -0.0606
  913MOL0     H25975  12.460   8.789   4.557 -0.5642 -1.6068  0.4088
  913MOL0     H25976  11.938   8.988   4.317 -0.8020  0.6617  1.8495
  913MOL0     H25977  11.736   8.913   4.225  0.7894  1.6935  1.2348
  913MOL0     H25978  10.567   7.906   4.906 -1.2708  1.9020  1.6430
  913MOL0     H25979  10.374   7.850   5.025  0.9839 -1.3932 -1.2784
  913MOL0     H25980  10.229   7.581   5.360 -1.6080 -2.7155 -0.5396
  913MOL0     H25981  10.061   7.480   5.481  1.8921  0.3206  1.7306
  913MOL0     H25982   9.709   7.695   5.580 -0.8476  0.4367  0.1947
  913MOL0     H25983   9.682   7.550   5.671  0.1230  0.8847 -1.3450
  913MOL0     H25984   9.674   7.766   5.816  0.7062  0.2719 -0.8395
  913MOL0     H25985   9.826   7.803   5.765  1.2526  0.3783  0.2219
  913MOL0     H25986   9.726   7.554   5.941  0.4218 -1.4152 -0.8889
  913MOL0     H25987   9.897   7.559   5.894  1.0246  1.0557  2.2343
  913MOL0     H25988   9.946   7.764   5.977 -1.6479  1.9351 -0.2664
  913MOL0     H25989   9.865   7.674   6.112 -2.5137  1.3677  0.6215
  913MOL0     H25990   9.659   8.034   6.094 -2.5607 -0.2983  0.1613
  913MOL0     H25991   9.858   7.852   5.555  0.9540  3.1390 -0.0490
  913MOL0     H25992  10.054   8.069   5.323  2.3853 -0.3079  0.4255
  913MOL0     H25993   9.938   8.049   5.447 -0.3667  0.7165 -0.4497
  913MOL0     H25994  10.107   8.040   5.496 -1.5998 -0.2028  1.0243
  914MOL0     O25995   5.261  11.038   3.499  0.7868 -0.0282 -0.2002
  914MOL0     C25996   5.215  10.930   3.525  0.3403 -0.3647 -0.1065
  914MOL0     O25997   5.290  10.833   3.587  0.4520  0.1344  0.1239
  914MOL0     C25998   5.419  10.858   3.625  0.1803  0.7798  0.3627
  914MOL0     C25999   5.514  10.897   3.535  0.5526 -0.0539 -0.6076
  914MOL0     C26000   5.653  10.912   3.571  0.1412  0.6897 -0.2439
  914MOL0     C26001   5.691  10.886   3.697  1.1647  0.4847  0.7817
  914MOL0     O26002   5.813  10.902   3.750 -0.2520 -0.8809  0.0287
  914MOL0     C26003   5.926  10.890   3.660 -0.6181 -0.1248  0.5644
  914MOL0     C26004   6.053  10.882   3.745  0.3345 -0.6182 -0.7113
  914MOL0     C26005   6.180  10.896   3.668 -0.0557 -0.2287  0.3486
  914MOL0     C26006   6.309  10.901   3.742 -0.1710 -0.2850 -0.0562
  914MOL0     C26007   6.428  10.895   3.643  0.5660  0.5626 -0.8253
  914MOL0     C26008   6.447  11.023   3.565 -0.3055 -1.0333  0.9197
  914MOL0     C26009   6.476  11.150   3.657  0.0374 -0.1183  0.3739
  914MOL0     C26010   6.551  11.254   3.589  0.0851 -0.9246  1.2963
  914MOL0     N26011   6.606  11.354   3.678  0.7123 -0.3757 -0.2170
  914MOL0     C26012   6.699  11.334   3.787  0.7513  0.7770  0.2659
  914MOL0     C26013   6.700  11.459   3.843  0.3224  0.1551  0.5384
  914MOL0     C26014   6.769  11.489   3.979 -0.1903  0.4967 -0.6094
  914MOL0     C26015   6.690  11.443   4.105  1.3242 -0.5479 -0.7336
  914MOL0     C26016   6.562  11.528   4.121  0.8773 -1.0996  0.9173
  914MOL0     C26017   6.489  11.499   4.255 -0.2988  0.0548  0.3141
  914MOL0     O26018   6.567  11.541   4.370  0.0415 -0.5572 -0.2912
  914MOL0     C26019   6.533  11.670   4.417 -0.9631  0.7055 -0.5134
  914MOL0     C26020   6.473  11.775   4.350 -0.7704  0.2158  0.4377
  914MOL0     C26021   6.468  11.896   4.421  0.2753  0.3855  0.1581
  914MOL0     C26022   6.399  12.009   4.351 -0.2547  0.0366  0.0087
  914MOL0     C26023   6.536  11.917   4.546  0.4482 -0.2247  0.6873
  914MOL0     C26024   6.536  12.045   4.626  0.7942 -0.2018 -0.0698
  914MOL0     O26025   6.448  12.147   4.587  0.4420 -0.3377  0.1265
  914MOL0     C26026   6.453  12.271   4.646  0.1867  0.5501 -0.7002
  914MOL0     C26027   6.341  12.348   4.634  0.4371  1.2110  0.0480
  914MOL0     C26028   6.331  12.478   4.677 -1.0215 -0.2523  0.2928
  914MOL0     C26029   6.444  12.529   4.737  0.3114 -0.3675 -0.8596
  914MOL0     O26030   6.456  12.651   4.791  0.2304  0.5924 -0.1782
  914MOL0     C26031   6.518  12.747   4.701  0.0616  0.0425  0.8364
  914MOL0     C26032   6.423  12.855   4.661  0.2129 -0.8369  0.0827
  914MOL0     C26033   6.487  12.947   4.557  0.2598 -0.0903  0.1616
  914MOL0     C26034   6.434  13.088   4.559  0.5558  0.1442 -0.3378
  914MOL0     C26035   6.301  13.092   4.494  1.0724  0.5983 -0.0375
  914MOL0     C26036   6.255  13.234   4.477 -0.3622  1.0463 -0.4191
  914MOL0     C26037   6.108  13.247   4.449 -0.1378  0.3737  0.2116
  914MOL0     C26038   6.026  13.270   4.577 -0.7859  0.3094 -0.0526
  914MOL0    Cl26039   6.059  13.426   4.645 -0.2447 -0.0428 -0.3905
  914MOL0     C26040   6.561  12.461   4.747 -0.1913  0.3740 -0.1306
  914MOL0     C26041   6.569  12.332   4.711  0.2990 -0.0673 -0.4344
  914MOL0     O26042   6.590  12.042   4.733  0.5964  0.1367  0.7104
  914MOL0     C26043   6.600  11.803   4.608 -0.1223  0.2311  0.0288
  914MOL0     C26044   6.593  11.681   4.542 -0.9703 -0.3955  0.1154
  914MOL0     N26045   6.610  11.545   3.775  0.3744 -0.4053  0.0348
  914MOL0     N26046   6.566  11.479   3.674  0.1028 -0.7912 -0.6017
  914MOL0     C26047   5.599  10.843   3.791  0.1705  0.3531  0.0737
  914MOL0     C26048   5.465  10.809   3.753  0.3009 -0.4622  0.0573
  914MOL0     C26049   5.069  10.912   3.519  0.4824  0.7208 -0.0333
  914MOL0     C26050   5.016  10.807   3.593 -0.0308  0.3339 -0.3230
  914MOL0     C26051   4.881  10.793   3.619  0.3095 -0.3134 -0.0476
  914MOL0     C26052   4.787  10.888   3.570 -0.5713 -0.2833 -0.1343
  914MOL0     O26053   4.659  10.872   3.594  0.6046 -0.7500  0.4980
  914MOL0     C26054   4.555  10.884   3.490 -0.5225  0.5631 -0.9998
  914MOL0     C26055   4.580  10.810   3.349 -0.4089  0.4013 -0.1986
  914MOL0     C26056   4.462  10.843   3.251 -0.3179 -0.6757 -0.8665
  914MOL0     C26057   4.343  10.758   3.278 -0.6434 -0.2764 -0.3577
  914MOL0     C26058   4.378  10.621   3.241  0.1012  0.8421  0.4931
  914MOL0     C26059   4.391  10.501   3.219 -0.2297  0.6705 -0.6430
  914MOL0     C26060   4.841  10.988   3.494  0.2907 -0.1500 -0.2193
  914MOL0     C26061   4.976  11.002   3.472  0.7966 -0.0321  0.0129
  914MOL0     C26062   5.014  11.105   3.370  0.4669 -0.3234 -0.4957
  914MOL0     H26063   5.476  10.901   3.433 -1.8224  1.7976  0.2593
  914MOL0     H26064   5.720  10.951   3.495  0.2041  1.3271  0.1306
  914MOL0     H26065   5.938  10.979   3.597 -0.0203 -1.1639 -0.8257
  914MOL0     H26066   5.914  10.797   3.604 -1.5740  1.2331 -1.6249
  914MOL0     H26067   6.061  10.954   3.826  0.7882 -0.9540 -0.4494
  914MOL0     H26068   6.049  10.782   3.791  0.8690 -0.2156  0.2317
  914MOL0     H26069   6.181  10.813   3.597 -1.8679  0.9126 -1.0790
  914MOL0     H26070   6.172  10.987   3.608  0.7375  0.0096  0.5887
  914MOL0     H26071   6.312  10.992   3.802  1.4063  1.4423 -2.5912
  914MOL0     H26072   6.310  10.817   3.813 -1.0789  1.0349  1.6034
  914MOL0     H26073   6.405  10.819   3.568 -1.4151  1.2406 -0.9503
  914MOL0     H26074   6.518  10.862   3.696 -1.1002 -3.2686 -0.0910
  914MOL0     H26075   6.526  11.005   3.492 -3.4093 -0.4377 -2.8750
  914MOL0     H26076   6.353  11.050   3.517  1.0030  2.5805  0.0354
  914MOL0     H26077   6.532  11.123   3.747 -0.4767 -1.9936  0.1895
  914MOL0     H26078   6.380  11.188   3.693  0.4081  0.7461  0.4737
  914MOL0     H26079   6.637  11.211   3.536 -0.9690  1.1488 -2.4464
  914MOL0     H26080   6.491  11.298   3.509  0.4691  0.4179  1.7257
  914MOL0     H26081   6.742  11.244   3.829 -1.8779 -1.1102 -0.8150
  914MOL0     H26082   6.796  11.595   3.980  1.5824  0.1267 -2.1891
  914MOL0     H26083   6.864  11.436   3.972 -0.4604  0.1739 -2.2301
  914MOL0     H26084   6.668  11.337   4.091 -1.6962  0.2375 -2.6473
  914MOL0     H26085   6.756  11.459   4.191  1.1900 -0.1151 -0.7081
  914MOL0     H26086   6.580  11.636   4.114 -3.5938 -0.1834  0.5583
  914MOL0     H26087   6.500  11.513   4.032 -1.0933  2.2691  1.5488
  914MOL0     H26088   6.393  11.551   4.260  0.5844  1.9731 -1.5523
  914MOL0     H26089   6.463  11.392   4.255 -1.8072  0.2807 -3.7210
  914MOL0     H26090   6.436  11.777   4.248 -0.5432  2.0443  0.3706
  914MOL0     H26091   6.361  11.981   4.252  1.9249 -1.2043 -0.5341
  914MOL0     H26092   6.461  12.095   4.327 -1.8231  0.9592 -0.9186
  914MOL0     H26093   6.316  12.043   4.414  0.2174  0.9221  0.1579
  914MOL0     H26094   6.258  12.299   4.584 -0.2987 -1.2774  3.3713
  914MOL0     H26095   6.242  12.539   4.661  0.2536  1.5845 -0.2195
  914MOL0     H26096   6.594  12.804   4.755  2.5079 -3.5220  1.4640
  914MOL0     H26097   6.555  12.708   4.606  2.3126 -1.4101  2.2335
  914MOL0     H26098   6.338  12.804   4.614 -0.7456  0.4955  0.3024
  914MOL0     H26099   6.403  12.910   4.753 -0.0619  0.1757 -0.5634
  914MOL0     H26100   6.477  12.906   4.456 -0.6647 -1.0467  0.6167
  914MOL0     H26101   6.596  12.945   4.564  0.2819 -1.4281 -0.1761
  914MOL0     H26102   6.504  13.162   4.519  0.2305  1.0962  0.7877
  914MOL0     H26103   6.430  13.117   4.665 -1.9763  0.1002 -0.3543
  914MOL0     H26104   6.293  13.052   4.392  0.0242  0.6415  0.0183
  914MOL0     H26105   6.229  13.026   4.543  0.0823  1.8628  0.2561
  914MOL0     H26106   6.321  13.291   4.411 -0.2067  0.1591 -1.0588
  914MOL0     H26107   6.261  13.274   4.578 -3.5454 -3.2734  1.8108
  914MOL0     H26108   6.070  13.159   4.395 -2.1365  1.8875 -1.0113
  914MOL0     H26109   6.078  13.334   4.390  2.5088  3.5293  3.1190
  914MOL0     H26110   6.054  13.195   4.652 -0.1967 -0.5271 -1.0687
  914MOL0     H26111   5.921  13.254   4.553 -1.1543  1.1018  0.9484
  914MOL0     H26112   6.648  12.493   4.804 -0.3895  2.2949 -0.8312
  914MOL0     H26113   6.654  12.267   4.724  0.1382 -0.6044 -1.8826
  914MOL0     H26114   6.637  11.822   4.708 -1.0309  1.9720  0.0800
  914MOL0     H26115   6.646  11.604   4.597 -0.8902 -0.2148  0.2936
  914MOL0     H26116   5.633  10.819   3.891  2.6003 -2.3153 -1.2654
  914MOL0     H26117   5.406  10.748   3.820  1.2685  0.3308  1.7138
  914MOL0     H26118   5.081  10.736   3.644  1.4826  2.3550  0.6666
  914MOL0     H26119   4.841  10.708   3.672  3.1661 -1.8039 -0.1049
  914MOL0     H26120   4.462  10.856   3.542  0.9297 -0.2226  1.3197
  914MOL0     H26121   4.543  10.991   3.474 -2.9358  0.8028  1.5212
  914MOL0     H26122   4.592  10.702   3.361 -0.5516  0.3859 -0.1891
  914MOL0     H26123   4.674  10.852   3.313 -0.3919  0.7623  0.2516
  914MOL0     H26124   4.434  10.948   3.264 -0.5611 -0.6804 -1.3408
  914MOL0     H26125   4.494  10.832   3.147  2.7071  0.6979 -0.1854
  914MOL0     H26126   4.265  10.815   3.227 -0.7171 -0.2701 -0.2385
  914MOL0     H26127   4.320  10.756   3.385  2.2558 -2.5759  0.3452
  914MOL0     H26128   4.404  10.396   3.235  1.2735  1.3382  4.5296
  914MOL0     H26129   4.777  11.061   3.444  0.5785 -0.5687 -1.2281
  914MOL0     H26130   4.930  11.125   3.303 -0.7168  0.0969  1.0569
  914MOL0     H26131   5.059  11.197   3.409  0.6388  0.5556 -2.6284
  914MOL0     H26132   5.095  11.077   3.302 -0.2006 -2.6474 -0.4230
  915MOL0     O26133   8.650  10.196  10.278  0.3407 -0.1009  0.1381
  915MOL0     C26134   8.632  10.251  10.386 -0.5081 -0.4227  0.9607
  915MOL0     O26135   8.731  10.305  10.459 -0.2609  0.2085 -0.5358
  915MOL0     C26136   8.851  10.319  10.404 -0.5153  0.0472  0.4333
  915MOL0     C26137   8.894  10.435  10.339 -0.3657 -0.7036 -0.0382
  915MOL0     C26138   9.027  10.444  10.283 -0.3468 -0.4217 -0.6224
  915MOL0     C26139   9.121  10.342  10.294 -0.3606 -0.4464  0.0635
  915MOL0     O26140   9.248  10.364  10.245  1.0583 -0.3149  0.4389
  915MOL0     C26141   9.345  10.263  10.250 -0.6072 -0.1962 -0.6546
  915MOL0     C26142   9.480  10.328  10.222 -0.4119  0.5764 -0.7285
  915MOL0     C26143   9.590  10.225  10.194  0.0018 -0.7760  0.5355
  915MOL0     C26144   9.721  10.296  10.135 -0.0473  0.1957  0.2931
  915MOL0     C26145   9.841  10.196  10.119  0.2318 -0.1060 -0.5082
  915MOL0     C26146   9.965  10.268  10.101  0.6704  0.3214  0.1273
  915MOL0     C26147  10.090  10.182  10.076  0.2339  0.5070 -0.2651
  915MOL0     C26148  10.132  10.097  10.196 -0.0598  0.4640  0.2355
  915MOL0     N26149  10.247  10.002  10.173 -0.2180 -0.0060 -0.1660
  915MOL0     C26150  10.277   9.927  10.062 -0.0542  0.5061 -0.5707
  915MOL0     C26151  10.403   9.886  10.080  0.3105 -0.0471  0.1752
  915MOL0     C26152  10.482   9.797   9.983 -0.0060 -1.0563 -0.0301
  915MOL0     C26153  10.556   9.890   9.887 -0.2614 -1.3607 -0.0998
  915MOL0     C26154  10.611   9.809   9.774 -0.2225  0.2286  0.4848
  915MOL0     C26155  10.745   9.752   9.840  0.0680 -0.0459  0.8121
  915MOL0     O26156  10.832   9.690   9.750 -0.4671 -0.0333 -0.0907
  915MOL0     C26157  10.938   9.619   9.791 -0.2223  1.1992 -0.8247
  915MOL0     C26158  10.987   9.615   9.920 -0.8103 -0.3669 -0.1385
  915MOL0     C26159  11.107   9.544   9.948 -0.5890 -0.1292  0.1096
  915MOL0     C26160  11.155   9.549  10.094 -0.2713  1.0196 -0.0737
  915MOL0     C26161  11.178   9.475   9.846 -0.2413  0.2262 -0.1133
  915MOL0     C26162  11.306   9.394   9.856 -0.8817  0.4179  0.2906
  915MOL0     O26163  11.381   9.416   9.964 -0.1328  0.3372 -0.3738
  915MOL0     C26164  11.508   9.365   9.968 -0.4227 -0.0532 -0.0557
  915MOL0     C26165  11.536   9.268  10.069  0.8833  0.4691  0.1353
  915MOL0     C26166  11.662   9.219  10.095 -0.0496  0.0456  0.4667
  915MOL0     C26167  11.775   9.264  10.009  0.9474  0.2568 -0.3405
  915MOL0     O26168  11.902   9.213  10.023 -0.1363 -0.5881  0.8314
  915MOL0     C26169  11.950   9.150  10.144 -0.0490  0.2143  0.2177
  915MOL0     C26170  12.093   9.131  10.138  0.3862  0.1332  0.1587
  915MOL0     C26171  12.164   9.269  10.123  0.1550 -0.3256  0.7366
  915MOL0     C26172  12.316   9.251  10.104  0.4435 -0.2832 -0.6754
  915MOL0     C26173  12.386   9.384  10.147  0.0384  0.6600  1.1815
  915MOL0     C26174  12.537   9.363  10.133  0.4774 -0.1964 -0.3595
  915MOL0     C26175  12.600   9.270  10.239  0.2720  1.0070  0.4847
  915MOL0     C26176  12.751   9.295  10.250 -0.2989  0.4130  0.3413
  915MOL0    Cl26177  12.802   9.452  10.313 -0.7257 -0.0298  0.4153
  915MOL0     C26178  11.741   9.338   9.895  0.0785 -0.0963  0.2465
  915MOL0     C26179  11.613   9.390   9.876 -0.1207 -0.1385 -0.0236
  915MOL0     O26180  11.327   9.307   9.772  0.2940  0.8205 -0.6783
  915MOL0     C26181  11.115   9.469   9.722 -0.1315  0.0495 -0.3111
  915MOL0     C26182  11.000   9.541   9.694 -0.3462 -0.1445  0.0237
  915MOL0     N26183  10.449   9.952  10.199 -0.5030  1.0230 -0.2950
  915MOL0     N26184  10.358  10.016  10.250  0.4547 -0.3317 -0.2776
  915MOL0     C26185   9.078  10.219  10.355 -0.3890  0.5181 -0.0580
  915MOL0     C26186   8.948  10.207  10.407  0.3753 -0.0186  0.5555
  915MOL0     C26187   8.496  10.275  10.433  0.3336 -0.2219  0.7758
  915MOL0     C26188   8.488  10.341  10.552 -0.3936 -0.6330 -0.6442
  915MOL0     C26189   8.371  10.365  10.619  0.0170 -0.5563  0.2159
  915MOL0     C26190   8.258  10.320  10.556  0.3370  0.0373  0.4216
  915MOL0     O26191   8.125  10.336  10.599  0.1228 -0.2678 -0.3295
  915MOL0     C26192   8.088  10.419  10.712  0.9367 -0.3514 -0.6677
  915MOL0     C26193   7.935  10.414  10.750 -0.5515  0.3753  0.2876
  915MOL0     C26194   7.910  10.264  10.795 -0.2990 -0.2606 -0.4553
  915MOL0     C26195   7.755  10.238  10.798 -0.4592  0.4098 -0.2676
  915MOL0     C26196   7.685  10.336  10.886 -1.1389 -0.9027  0.6971
  915MOL0     C26197   7.622  10.415  10.952 -0.0768  0.6983 -1.0399
  915MOL0     C26198   8.255  10.264  10.430 -0.9478  0.1059  0.0621
  915MOL0     C26199   8.381  10.227  10.368 -0.2492 -0.4271 -0.0082
  915MOL0     C26200   8.382  10.142  10.244  0.5831  0.3894  0.3007
  915MOL0     H26201   8.821  10.516  10.338  3.3881  3.0482  1.2343
  915MOL0     H26202   9.061  10.540  10.245 -2.5569  0.3747 -0.7229
  915MOL0     H26203   9.330  10.184  10.176 -0.5891 -0.9047  0.0778
  915MOL0     H26204   9.348  10.227  10.354  1.0644  0.7889 -0.3048
  915MOL0     H26205   9.470  10.394  10.136 -1.2450 -0.9459 -1.8514
  915MOL0     H26206   9.509  10.386  10.310  1.0298  1.2506 -1.6191
  915MOL0     H26207   9.625  10.176  10.285  1.3001 -3.1213 -1.1211
  915MOL0     H26208   9.566  10.148  10.120  0.4056 -0.6100  0.2250
  915MOL0     H26209   9.697  10.322  10.031 -0.0234 -1.3937 -0.1385
  915MOL0     H26210   9.746  10.383  10.196  3.2636  0.8729 -1.7705
  915MOL0     H26211   9.818  10.128  10.038 -2.0187  1.5457 -1.3653
  915MOL0     H26212   9.844  10.134  10.209 -0.3481  0.2936 -0.1997
  915MOL0     H26213   9.947  10.327  10.011  0.6041 -1.4536 -1.0720
  915MOL0     H26214   9.972  10.335  10.187 -2.0162  0.7510  0.0987
  915MOL0     H26215  10.167  10.256  10.050  0.3242  0.4836 -0.0684
  915MOL0     H26216  10.063  10.128   9.985 -2.1860  0.7776  0.2309
  915MOL0     H26217  10.165  10.161  10.278  1.9016 -1.6314  1.1970
  915MOL0     H26218  10.057  10.031  10.241  1.2556 -0.8776  0.5690
  915MOL0     H26219  10.220   9.898   9.975 -0.1088  0.3676 -0.4885
  915MOL0     H26220  10.423   9.726   9.924 -1.1024 -1.3787  1.4058
  915MOL0     H26221  10.553   9.737  10.041 -0.8750 -0.9972  1.1132
  915MOL0     H26222  10.487   9.967   9.853 -0.6754 -1.8213 -0.3214
  915MOL0     H26223  10.636   9.949   9.933 -1.2117 -0.0669 -0.0507
  915MOL0     H26224  10.550   9.732   9.727  2.8498 -1.6091 -0.8498
  915MOL0     H26225  10.639   9.883   9.698 -1.0034  1.0729  1.0034
  915MOL0     H26226  10.797   9.827   9.900 -0.9535  1.3465 -0.0106
  915MOL0     H26227  10.711   9.668   9.902 -1.3563  0.3190  0.5728
  915MOL0     H26228  10.936   9.660  10.005  2.0662  1.6778  0.6510
  915MOL0     H26229  11.173   9.447  10.127  2.5439  1.2475 -0.6742
  915MOL0     H26230  11.078   9.589  10.161  0.3008  1.4784  0.3271
  915MOL0     H26231  11.243   9.612  10.112 -0.0400  0.8367 -0.5398
  915MOL0     H26232  11.448   9.248  10.129  0.5106 -1.8476 -1.0671
  915MOL0     H26233  11.682   9.150  10.176  0.8040 -1.0290 -0.6216
  915MOL0     H26234  11.929   9.218  10.227 -2.4520 -0.3760  0.1713
  915MOL0     H26235  11.898   9.059  10.176  0.1199  0.2469  0.5949
  915MOL0     H26236  12.134   9.073  10.221 -0.4502 -1.1585 -0.3053
  915MOL0     H26237  12.114   9.077  10.046  2.0415  0.9176  0.0388
  915MOL0     H26238  12.142   9.336  10.207 -0.1599 -0.0118  0.4057
  915MOL0     H26239  12.127   9.329  10.039 -1.6120  0.2487  1.8626
  915MOL0     H26240  12.337   9.238   9.997 -0.8102 -2.4352 -0.7127
  915MOL0     H26241  12.346   9.159  10.155 -1.1173 -0.9529 -0.9202
  915MOL0     H26242  12.343   9.466  10.088  1.8527  0.6817 -0.1971
  915MOL0     H26243  12.368   9.397  10.254 -0.9067  0.6299  1.0298
  915MOL0     H26244  12.586   9.461  10.127 -0.9575  0.4998 -1.1598
  915MOL0     H26245  12.554   9.319  10.034  2.8204 -1.1951  0.4138
  915MOL0     H26246  12.579   9.166  10.213  0.2357  1.1833 -0.2077
  915MOL0     H26247  12.551   9.281  10.336  1.7120  0.4466  1.3115
  915MOL0     H26248  12.794   9.270  10.153 -1.7515 -2.0501  0.2426
  915MOL0     H26249  12.784   9.225  10.328  0.6129  0.6696  0.1941
  915MOL0     H26250  11.814   9.373   9.823 -0.4941 -0.0009 -0.3016
  915MOL0     H26251  11.588   9.444   9.785 -2.2063 -2.5003 -0.9808
  915MOL0     H26252  11.146   9.401   9.643 -1.1926  0.4359 -1.0934
  915MOL0     H26253  10.955   9.543   9.596  1.7792  0.1519 -0.9965
  915MOL0     H26254   9.144  10.133  10.356 -2.8287 -1.4488  0.1493
  915MOL0     H26255   8.926  10.110  10.449  2.6026 -1.0514 -0.4912
  915MOL0     H26256   8.571  10.386  10.606 -1.7801 -0.1183  1.1240
  915MOL0     H26257   8.357  10.411  10.716 -1.9312 -4.4032  1.9805
  915MOL0     H26258   8.154  10.389  10.793 -0.1712 -2.3183 -0.4155
  915MOL0     H26259   8.127  10.519  10.693  2.0672 -1.0228 -2.1092
  915MOL0     H26260   7.870  10.441  10.665 -0.0855 -1.0534 -0.5502
  915MOL0     H26261   7.916  10.492  10.825  0.7530  1.9368 -0.9178
  915MOL0     H26262   7.954  10.196  10.721  4.0261  1.8996 -0.2157
  915MOL0     H26263   7.953  10.246  10.894 -2.1495  2.5977  1.0183
  915MOL0     H26264   7.741  10.137  10.836 -1.3837  0.1859 -1.1950
  915MOL0     H26265   7.720  10.236  10.695 -0.5951 -2.2609 -0.2207
  915MOL0     H26266   7.588  10.483  11.027  3.4455  1.7763 -0.2077
  915MOL0     H26267   8.170  10.227  10.373 -0.4759 -0.0985 -0.5277
  915MOL0     H26268   8.278  10.118  10.217  0.7524 -0.0706  0.0410
  915MOL0     H26269   8.441  10.188  10.164 -0.4660  3.7513  1.2997
  915MOL0     H26270   8.420  10.040  10.259 -0.8574 -0.2701 -0.3315
  916MOL0     O26271   7.501   5.668   3.558 -0.6880  0.0985 -0.0844
  916MOL0     C26272   7.427   5.672   3.650  0.6221  0.3218 -0.5635
  916MOL0     O26273   7.465   5.661   3.780  0.3479  0.3181  0.5574
  916MOL0     C26274   7.599   5.666   3.812  0.7867  0.4084 -0.7003
  916MOL0     C26275   7.629   5.751   3.920 -0.9421 -0.0362 -0.7905
  916MOL0     C26276   7.763   5.758   3.954  0.1463 -0.3771 -0.0688
  916MOL0     C26277   7.862   5.694   3.887 -0.2350  0.5233 -0.9735
  916MOL0     O26278   7.991   5.694   3.941 -0.2046  1.3355  0.9578
  916MOL0     C26279   8.103   5.696   3.845 -0.7619  0.9762  0.9533
  916MOL0     C26280   8.222   5.737   3.928 -0.4325  0.1653 -0.4471
  916MOL0     C26281   8.278   5.614   4.002  0.2313  0.7992 -0.1546
  916MOL0     C26282   8.395   5.642   4.105 -0.3957 -0.4746  0.4156
  916MOL0     C26283   8.421   5.522   4.197 -0.3729  0.2395 -0.1321
  916MOL0     C26284   8.451   5.392   4.130  0.2034  0.2569 -0.0935
  916MOL0     C26285   8.463   5.281   4.237 -0.1444  0.0341  0.2789
  916MOL0     C26286   8.566   5.286   4.353  0.3676 -0.3688  0.7626
  916MOL0     N26287   8.681   5.356   4.333 -0.5988  0.1622 -0.8802
  916MOL0     C26288   8.776   5.323   4.237  0.8602 -0.2767 -0.6809
  916MOL0     C26289   8.862   5.424   4.249 -1.0567 -0.3624  0.4209
  916MOL0     C26290   8.986   5.438   4.153  0.8759  0.2582  1.4009
  916MOL0     C26291   9.105   5.393   4.233  0.9519 -0.6590 -0.1411
  916MOL0     C26292   9.235   5.398   4.154  0.1196  0.3804 -0.4283
  916MOL0     C26293   9.349   5.333   4.240  0.1002 -0.2828 -0.3815
  916MOL0     O26294   9.470   5.342   4.165  0.0787 -0.0575  0.4524
  916MOL0     C26295   9.587   5.301   4.236  0.5086 -0.6382  0.7586
  916MOL0     C26296   9.698   5.291   4.165 -0.0514 -0.0055  0.5627
  916MOL0     C26297   9.825   5.253   4.220  0.3749 -0.1993 -1.6227
  916MOL0     C26298   9.946   5.272   4.129  0.1391 -0.3376 -0.2317
  916MOL0     C26299   9.819   5.210   4.362  0.8406 -0.2003  0.8154
  916MOL0     C26300   9.930   5.160   4.434 -0.4162 -0.8538 -0.7834
  916MOL0     O26301   9.910   5.115   4.556  0.3530 -0.7235 -0.0592
  916MOL0     C26302  10.006   5.027   4.601 -0.2300 -0.3120  0.6005
  916MOL0     C26303  10.015   4.907   4.540 -0.7090  0.2853  0.1263
  916MOL0     C26304  10.120   4.814   4.584 -0.1894 -0.0513 -0.0675
  916MOL0     C26305  10.210   4.850   4.682 -0.4665  0.1734  0.4672
  916MOL0     O26306  10.308   4.753   4.722  0.5818 -0.3329 -0.1716
  916MOL0     C26307  10.261   4.619   4.740 -0.0330 -0.5167 -0.2056
  916MOL0     C26308  10.367   4.526   4.809 -0.1453 -0.4659 -0.5060
  916MOL0     C26309  10.382   4.566   4.951  0.5917  0.2499  0.2875
  916MOL0     C26310  10.481   4.487   5.034 -0.2481  0.0843  0.9246
  916MOL0     C26311  10.515   4.549   5.164  0.1874  0.4295 -0.3735
  916MOL0     C26312  10.613   4.471   5.243 -0.4002 -0.3051 -0.5065
  916MOL0     C26313  10.654   4.533   5.380  0.9296  0.5573 -0.4393
  916MOL0     C26314  10.741   4.449   5.475 -0.8038  0.4155  0.5156
  916MOL0    Cl26315  10.714   4.503   5.645  0.5042 -0.1125 -0.3956
  916MOL0     C26316  10.195   4.971   4.743  0.4164  0.5662 -0.8188
  916MOL0     C26317  10.090   5.057   4.705  0.7201 -0.2073 -0.0608
  916MOL0     O26318  10.033   5.163   4.380  0.2266  0.3501  0.3403
  916MOL0     C26319   9.699   5.229   4.429  0.3147  0.2790 -0.5224
  916MOL0     C26320   9.584   5.267   4.373  0.1939 -0.3985  0.3668
  916MOL0     N26321   8.829   5.505   4.357  0.6814  0.7229 -0.5646
  916MOL0     N26322   8.716   5.470   4.400  0.4140 -0.2543 -0.0798
  916MOL0     C26323   7.835   5.608   3.778 -0.3857 -0.1842 -0.3136
  916MOL0     C26324   7.697   5.593   3.749  0.1935  0.2501  0.2474
  916MOL0     C26325   7.281   5.700   3.620 -0.3760  0.1038  0.7484
  916MOL0     C26326   7.189   5.700   3.728  0.0539 -0.2110  0.0645
  916MOL0     C26327   7.055   5.729   3.710 -0.2241 -0.0576  0.8189
  916MOL0     C26328   7.004   5.774   3.587 -0.1348  0.2430 -0.2883
  916MOL0     O26329   6.876   5.811   3.560 -0.7776  0.2687 -0.8090
  916MOL0     C26330   6.775   5.838   3.653 -0.1165 -0.2073 -0.0742
  916MOL0     C26331   6.788   5.980   3.718 -0.5791  0.1695  0.6332
  916MOL0     C26332   6.678   6.002   3.822 -0.0620 -1.0588  0.4716
  916MOL0     C26333   6.682   6.144   3.884 -0.8870  0.3325 -0.3639
  916MOL0     C26334   6.560   6.149   3.972  0.7824 -0.4608  0.5989
  916MOL0     C26335   6.468   6.154   4.051  0.4897 -0.0751 -0.4497
  916MOL0     C26336   7.096   5.784   3.485  0.4092 -0.7468  0.3817
  916MOL0     C26337   7.232   5.744   3.498 -0.5438  0.8569 -0.2083
  916MOL0     C26338   7.321   5.750   3.370 -0.1399  0.2529  0.5799
  916MOL0     H26339   7.554   5.808   3.973 -0.8381 -2.0404  1.6912
  916MOL0     H26340   7.797   5.821   4.036 -1.1387  0.2692 -0.0191
  916MOL0     H26341   8.086   5.781   3.778  2.0941  1.7559  1.1023
  916MOL0     H26342   8.130   5.604   3.792  0.4865  0.7604  1.9104
  916MOL0     H26343   8.303   5.789   3.876  1.2311 -0.8131  1.0525
  916MOL0     H26344   8.199   5.812   4.004 -0.9018 -0.9967  0.6019
  916MOL0     H26345   8.189   5.576   4.053 -0.0740  1.4032 -0.2183
  916MOL0     H26346   8.312   5.538   3.932  0.6568 -0.4978  1.4022
  916MOL0     H26347   8.487   5.664   4.050  0.5332  1.8217  2.6954
  916MOL0     H26348   8.376   5.737   4.156  2.1322  0.3926 -0.0961
  916MOL0     H26349   8.332   5.517   4.261 -0.1694  4.8269  0.9027
  916MOL0     H26350   8.504   5.548   4.263  0.3421 -2.0271 -0.0401
  916MOL0     H26351   8.360   5.372   4.073 -0.0580 -0.0328  0.4127
  916MOL0     H26352   8.545   5.382   4.076  0.7837 -1.8123  1.1480
  916MOL0     H26353   8.472   5.195   4.170  1.9076  2.6175 -3.0979
  916MOL0     H26354   8.361   5.277   4.276 -0.8168  0.1379 -1.3822
  916MOL0     H26355   8.509   5.324   4.439 -2.4432  0.0137 -1.1315
  916MOL0     H26356   8.587   5.180   4.368 -1.0476 -0.3627  3.4896
  916MOL0     H26357   8.774   5.241   4.166  1.3317 -1.2622  0.3955
  916MOL0     H26358   8.991   5.540   4.114 -3.5199  0.2470  0.2908
  916MOL0     H26359   8.960   5.369   4.072 -3.0883 -0.5131  3.1004
  916MOL0     H26360   9.110   5.455   4.323 -0.6967 -1.9437  0.8868
  916MOL0     H26361   9.082   5.292   4.268 -2.4985  0.7464  2.2286
  916MOL0     H26362   9.212   5.341   4.063 -1.7270  1.7340 -0.8732
  916MOL0     H26363   9.259   5.502   4.130  0.8498 -0.0374 -1.6345
  916MOL0     H26364   9.362   5.383   4.336  2.2823 -0.6905 -0.4113
  916MOL0     H26365   9.318   5.229   4.256 -1.0461 -0.3807 -2.7205
  916MOL0     H26366   9.689   5.313   4.059  3.7811 -1.3489 -0.2358
  916MOL0     H26367   9.904   5.302   4.032 -2.6873 -2.9480  0.0665
  916MOL0     H26368   9.995   5.176   4.112  2.6464  0.3784  2.1489
  916MOL0     H26369  10.012   5.345   4.177 -0.7030  0.0261  0.3909
  916MOL0     H26370   9.936   4.881   4.470 -0.0885 -0.4518 -0.3152
  916MOL0     H26371  10.130   4.720   4.531  3.4496  0.1469 -0.0146
  916MOL0     H26372  10.163   4.626   4.789  1.3147 -3.3967  3.3271
  916MOL0     H26373  10.248   4.563   4.647  1.3735 -2.6599  0.7974
  916MOL0     H26374  10.337   4.421   4.804  0.7382 -0.7788  0.3974
  916MOL0     H26375  10.464   4.543   4.761 -0.8346  0.3592 -1.6713
  916MOL0     H26376  10.286   4.567   5.003 -0.5193  0.0977 -1.6368
  916MOL0     H26377  10.406   4.673   4.954  0.7839  0.3278 -1.9863
  916MOL0     H26378  10.572   4.482   4.974 -2.0631  0.9789 -2.1122
  916MOL0     H26379  10.437   4.387   5.032  2.5558 -1.2751  1.6498
  916MOL0     H26380  10.555   4.648   5.140 -0.3660 -0.2950 -5.2183
  916MOL0     H26381  10.430   4.562   5.232  2.0174 -0.3839  2.2328
  916MOL0     H26382  10.704   4.462   5.184  0.0952  2.9599 -0.4554
  916MOL0     H26383  10.575   4.369   5.254 -1.6192  0.3535  2.3661
  916MOL0     H26384  10.558   4.561   5.424  0.5815  5.1825 -3.5338
  916MOL0     H26385  10.707   4.628   5.367 -0.3891  1.2262 -1.0883
  916MOL0     H26386  10.843   4.465   5.439 -1.0813 -2.1450 -1.7648
  916MOL0     H26387  10.736   4.340   5.463  1.2060 -0.2010  4.0109
  916MOL0     H26388  10.262   5.001   4.822  0.0051  0.6069 -0.4823
  916MOL0     H26389  10.089   5.156   4.750  1.0425  0.1157 -0.7435
  916MOL0     H26390   9.698   5.221   4.537  3.2107  0.2849 -0.4215
  916MOL0     H26391   9.508   5.286   4.448 -0.8028 -0.9270 -0.4742
  916MOL0     H26392   7.913   5.563   3.717  1.2242  0.2778  1.2987
  916MOL0     H26393   7.676   5.515   3.676 -1.0553  0.6353  0.1708
  916MOL0     H26394   7.225   5.676   3.828  0.5701  3.2484  0.8395
  916MOL0     H26395   6.998   5.737   3.802  0.5115  1.2818  1.1948
  916MOL0     H26396   6.681   5.838   3.598  0.0714 -3.1900 -0.5557
  916MOL0     H26397   6.764   5.769   3.737 -2.4255  0.3742  0.1654
  916MOL0     H26398   6.790   6.058   3.642  0.6986 -1.5058 -1.1626
  916MOL0     H26399   6.883   5.987   3.771 -1.1325  1.1999  1.5376
  916MOL0     H26400   6.578   5.977   3.786 -1.8854  4.2570  0.9994
  916MOL0     H26401   6.694   5.933   3.905  1.8900 -0.3921  0.6918
  916MOL0     H26402   6.671   6.226   3.813 -1.8362  0.1848 -0.3937
  916MOL0     H26403   6.777   6.158   3.937 -1.8871 -0.7675  1.8254
  916MOL0     H26404   6.378   6.158   4.109 -0.3525 -1.4118 -1.5937
  916MOL0     H26405   7.060   5.826   3.392 -1.7201 -0.4837  1.2669
  916MOL0     H26406   7.415   5.803   3.381 -0.2614  0.2269  1.8482
  916MOL0     H26407   7.331   5.647   3.334  0.8981 -0.0745  1.7139
  916MOL0     H26408   7.251   5.795   3.299 -0.1291 -0.9487 -0.2333
  917MOL0     O26409   9.061  10.747   4.487  0.5284  0.1408 -0.1447
  917MOL0     C26410   9.002  10.640   4.485  0.3168 -0.0885  0.6724
  917MOL0     O26411   9.045  10.526   4.545  0.5869  0.1385 -1.0366
  917MOL0     C26412   9.156  10.526   4.620  0.6238  0.2739  0.0088
  917MOL0     C26413   9.134  10.516   4.754 -0.6869 -0.6059 -0.5461
  917MOL0     C26414   9.237  10.506   4.843 -1.0541  0.7536  0.2103
  917MOL0     C26415   9.368  10.508   4.804  0.1222  0.0117  0.4186
  917MOL0     O26416   9.460  10.496   4.904 -0.0426  0.6169 -0.0136
  917MOL0     C26417   9.592  10.553   4.912  0.6351  0.1648 -0.3093
  917MOL0     C26418   9.649  10.542   5.061 -0.0061 -0.5542  0.3313
  917MOL0     C26419   9.759  10.641   5.084 -0.0172  0.9022 -0.2580
  917MOL0     C26420   9.865  10.640   4.975  0.6862 -0.0063 -0.0155
  917MOL0     C26421  10.010  10.653   5.015 -0.7349 -1.0288 -0.6646
  917MOL0     C26422  10.051  10.788   5.091  0.5081  0.1363  0.3093
  917MOL0     C26423  10.054  10.902   4.988 -0.3954  0.1704 -0.3474
  917MOL0     C26424  10.131  11.031   5.028 -0.0076 -0.5532  0.6603
  917MOL0     N26425  10.277  11.023   5.031 -0.2138 -0.4720  0.4418
  917MOL0     C26426  10.355  10.960   5.118  0.2927  0.2667 -0.1385
  917MOL0     C26427  10.486  10.988   5.080  0.2075  0.1502 -0.2315
  917MOL0     C26428  10.610  10.924   5.140  0.1353 -0.3060 -0.3554
  917MOL0     C26429  10.738  10.980   5.091 -0.5443 -0.7126  0.1681
  917MOL0     C26430  10.854  10.879   5.108 -0.9112  0.6686  0.0958
  917MOL0     C26431  10.981  10.944   5.061 -1.2970  0.4798 -0.1024
  917MOL0     O26432  11.099  10.852   5.061  0.1728  0.2424  0.5700
  917MOL0     C26433  11.217  10.913   5.046  0.2900 -0.0993  0.4250
  917MOL0     C26434  11.319  10.819   5.067 -0.9559  0.0611 -0.0913
  917MOL0     C26435  11.455  10.861   5.067  0.5381 -0.2777  0.0736
  917MOL0     C26436  11.552  10.750   5.103 -0.0950  0.4291  0.6803
  917MOL0     C26437  11.489  11.000   5.034  0.1219 -1.5583 -0.1814
  917MOL0     C26438  11.618  11.056   5.032 -1.0388  0.5847 -0.1674
  917MOL0     O26439  11.629  11.170   4.969 -0.0716 -0.7486 -0.1320
  917MOL0     C26440  11.756  11.213   4.922 -0.2124 -0.1103  0.3295
  917MOL0     C26441  11.758  11.348   4.893  0.7376  0.0954 -0.1953
  917MOL0     C26442  11.876  11.417   4.862 -0.1845 -0.3111 -0.0410
  917MOL0     C26443  11.996  11.349   4.838  0.7103  0.3027  0.1052
  917MOL0     O26444  12.113  11.402   4.791 -0.3148 -0.0253  0.4003
  917MOL0     C26445  12.121  11.539   4.774 -0.4762  0.5050  0.0413
  917MOL0     C26446  12.262  11.584   4.734 -0.0397 -0.0621  0.7039
  917MOL0     C26447  12.290  11.556   4.589  0.5516  0.3475  0.2368
  917MOL0     C26448  12.403  11.444   4.574  0.0436  0.2168  0.4223
  917MOL0     C26449  12.546  11.495   4.561  0.0230  0.3081 -0.1436
  917MOL0     C26450  12.634  11.371   4.532 -0.4472  0.1277 -0.3638
  917MOL0     C26451  12.624  11.310   4.394  1.0052  0.2898  0.3927
  917MOL0     C26452  12.737  11.220   4.369 -1.1589  0.1069  0.9006
  917MOL0    Cl26453  12.757  11.215   4.186  0.2055 -0.0131 -0.1595
  917MOL0     C26454  11.991  11.211   4.860  0.7710 -0.7835  0.0825
  917MOL0     C26455  11.874  11.145   4.892 -0.3832  0.0533  0.0128
  917MOL0     O26456  11.717  10.995   5.080  0.0249  0.5349  0.8774
  917MOL0     C26457  11.382  11.085   5.000  0.2400 -0.2720  0.1457
  917MOL0     C26458  11.247  11.044   5.005  0.3218 -0.0288 -0.8069
  917MOL0     N26459  10.485  11.078   4.976  0.0190 -0.5091  0.0420
  917MOL0     N26460  10.359  11.091   4.945  0.6985 -0.4054 -0.0813
  917MOL0     C26461   9.391  10.532   4.667  0.0589 -0.8726  0.1482
  917MOL0     C26462   9.283  10.537   4.580 -0.6305 -0.0557  0.4278
  917MOL0     C26463   8.876  10.639   4.409 -0.1764  0.1765  0.2583
  917MOL0     C26464   8.760  10.577   4.463  1.0583 -0.0497  0.8014
  917MOL0     C26465   8.630  10.599   4.414 -0.3602  0.0275  0.3766
  917MOL0     C26466   8.609  10.667   4.295  0.2422 -0.2138  0.7737
  917MOL0     O26467   8.486  10.705   4.236  0.2862  0.2693  0.0913
  917MOL0     C26468   8.368  10.683   4.324 -0.0421 -0.7870 -0.3016
  917MOL0     C26469   8.254  10.739   4.238  1.1407  0.2202 -0.7262
  917MOL0     C26470   8.120  10.755   4.312  0.2168 -0.4938  0.0586
  917MOL0     C26471   8.014  10.826   4.223 -0.2609  0.8010  0.2212
  917MOL0     C26472   7.884  10.824   4.297 -0.4043 -0.3499  0.0680
  917MOL0     C26473   7.782  10.829   4.359 -1.0536  0.1208  0.2089
  917MOL0     C26474   8.726  10.718   4.225  0.3039  0.2116  0.0007
  917MOL0     C26475   8.859  10.708   4.285  0.0604 -0.8566 -0.6965
  917MOL0     C26476   8.963  10.784   4.206 -0.1753 -0.1445 -0.1363
  917MOL0     H26477   9.035  10.499   4.795 -1.5470 -2.1304 -3.0234
  917MOL0     H26478   9.219  10.503   4.950 -0.4310  2.5908  0.4026
  917MOL0     H26479   9.584  10.660   4.888 -1.8209  0.3455  0.9971
  917MOL0     H26480   9.661  10.512   4.838  1.7091  0.8508  0.2749
  917MOL0     H26481   9.564  10.557   5.128  0.9363 -0.9159  1.6577
  917MOL0     H26482   9.686  10.439   5.071 -1.2462 -1.0552 -0.1029
  917MOL0     H26483   9.715  10.740   5.097  0.3187  1.0911 -0.5159
  917MOL0     H26484   9.809  10.611   5.177  0.2153  0.3141 -0.5669
  917MOL0     H26485   9.862  10.552   4.911 -2.0422  1.4423 -2.1104
  917MOL0     H26486   9.845  10.726   4.911  1.6701 -0.8490 -1.5089
  917MOL0     H26487  10.071  10.630   4.928 -2.5204 -1.8123 -1.7544
  917MOL0     H26488  10.034  10.583   5.095  1.4521 -0.6594 -0.9427
  917MOL0     H26489   9.975  10.802   5.169 -1.4697 -1.5900 -1.2024
  917MOL0     H26490  10.137  10.770   5.156 -1.0454 -1.9840  1.9336
  917MOL0     H26491   9.953  10.930   4.957 -0.3615  2.0312  1.0434
  917MOL0     H26492  10.104  10.872   4.895  1.1685 -0.3211  0.6115
  917MOL0     H26493  10.113  11.115   4.961 -0.0041 -0.2504  1.0310
  917MOL0     H26494  10.089  11.063   5.124  1.8291 -0.2538  1.4010
  917MOL0     H26495  10.328  10.893   5.199  0.4436 -0.4663 -0.6830
  917MOL0     H26496  10.605  10.821   5.103  1.1219  0.0444 -1.5086
  917MOL0     H26497  10.607  10.928   5.250  0.7854  0.0071 -0.3461
  917MOL0     H26498  10.735  11.001   4.984 -0.2868 -2.5545 -0.2391
  917MOL0     H26499  10.759  11.068   5.152 -1.6086 -0.0559 -0.4012
  917MOL0     H26500  10.857  10.842   5.211 -2.2934  0.1643 -0.0190
  917MOL0     H26501  10.836  10.789   5.047  2.9720 -0.9166  1.0137
  917MOL0     H26502  10.969  10.996   4.965  0.0775 -1.5293 -1.4495
  917MOL0     H26503  11.006  11.020   5.136  1.3785 -1.1375  0.7732
  917MOL0     H26504  11.289  10.716   5.084 -1.3301  0.0162 -0.9656
  917MOL0     H26505  11.510  10.650   5.093  0.9112 -0.1010  1.6386
  917MOL0     H26506  11.585  10.757   5.207  1.7120  0.2389  0.1445
  917MOL0     H26507  11.636  10.760   5.034 -0.2912 -0.0348  0.3650
  917MOL0     H26508  11.669  11.409   4.899 -0.5324 -1.7601  0.7256
  917MOL0     H26509  11.868  11.525   4.851 -0.6895 -0.5389 -2.4920
  917MOL0     H26510  12.043  11.575   4.707 -1.0393  0.4180  0.6433
  917MOL0     H26511  12.114  11.574   4.877  0.4265 -2.2081  1.1114
  917MOL0     H26512  12.255  11.693   4.748 -2.7873 -0.1023  0.2063
  917MOL0     H26513  12.336  11.536   4.798  1.9602 -2.8352 -3.2859
  917MOL0     H26514  12.322  11.646   4.535 -1.4002  0.1011 -1.4280
  917MOL0     H26515  12.198  11.520   4.542 -0.0945  1.2073  0.7892
  917MOL0     H26516  12.378  11.387   4.484  1.6017  1.0146 -0.5642
  917MOL0     H26517  12.398  11.377   4.661 -1.6326  0.4439  0.5295
  917MOL0     H26518  12.551  11.562   4.475  2.1633  2.2078  1.3453
  917MOL0     H26519  12.571  11.554   4.650 -1.7125  1.4819 -0.3846
  917MOL0     H26520  12.616  11.285   4.598  1.7815 -0.3095 -0.2578
  917MOL0     H26521  12.739  11.395   4.551 -0.2828 -0.0854 -1.0045
  917MOL0     H26522  12.625  11.397   4.328  0.6226  0.4041  0.5321
  917MOL0     H26523  12.528  11.259   4.381  0.8220  0.9034 -0.8344
  917MOL0     H26524  12.714  11.128   4.422  1.5337 -0.7251  0.7989
  917MOL0     H26525  12.828  11.265   4.411 -0.6395 -0.7433  0.7162
  917MOL0     H26526  12.072  11.144   4.832  0.7104  0.0130 -2.2235
  917MOL0     H26527  11.882  11.037   4.880 -0.5305  0.2558 -2.2647
  917MOL0     H26528  11.395  11.191   4.982  1.5319 -0.8290 -2.7617
  917MOL0     H26529  11.176  11.119   4.972 -3.1161 -3.5788 -2.2955
  917MOL0     H26530   9.487  10.556   4.623  0.6090 -0.0619  1.7244
  917MOL0     H26531   9.307  10.563   4.477 -0.8399  2.1987  0.8984
  917MOL0     H26532   8.771  10.540   4.564 -0.1590 -0.2455  0.8732
  917MOL0     H26533   8.542  10.561   4.465  0.2059 -2.9969 -0.6755
  917MOL0     H26534   8.357  10.578   4.353  0.2260  0.2450  4.1961
  917MOL0     H26535   8.374  10.738   4.418  0.4259 -1.5737  0.1475
  917MOL0     H26536   8.224  10.677   4.153 -1.1376  0.7174 -0.3564
  917MOL0     H26537   8.271  10.838   4.193 -1.2170  0.8005 -0.4927
  917MOL0     H26538   8.079  10.655   4.333  2.6969 -1.5051  0.4047
  917MOL0     H26539   8.130  10.812   4.405  0.9275 -1.3245  0.5063
  917MOL0     H26540   8.011  10.777   4.126  0.8950  1.0189  0.0619
  917MOL0     H26541   8.035  10.932   4.204  2.4791  0.3036 -0.0416
  917MOL0     H26542   7.699  10.813   4.425 -0.7915  0.1243  0.5367
  917MOL0     H26543   8.712  10.776   4.134  2.5039  2.5126  1.0091
  917MOL0     H26544   9.049  10.716   4.203  1.3051  1.6550 -0.5992
  917MOL0     H26545   8.941  10.810   4.102 -0.5702 -0.1990 -0.0652
  917MOL0     H26546   8.994  10.878   4.251 -0.3240  0.0350 -0.4095
  918MOL0     O26547   3.198   9.807   1.494  0.0844 -0.0240 -0.0190
  918MOL0     C26548   3.121   9.900   1.525 -0.3918 -0.0768 -1.3211
  918MOL0     O26549   3.152  10.016   1.601 -0.2821  0.4825  0.0529
  918MOL0     C26550   3.273  10.023   1.666  0.0295  0.9258  0.4307
  918MOL0     C26551   3.383  10.026   1.582 -0.0886 -0.3651 -0.4164
  918MOL0     C26552   3.507  10.000   1.635 -0.5066 -0.2456  0.7119
  918MOL0     C26553   3.530   9.969   1.771  0.2970  0.6970  0.1227
  918MOL0     O26554   3.652   9.945   1.837 -0.6434  0.3338  0.6776
  918MOL0     C26555   3.766   9.936   1.755 -0.2963  0.1406  0.3699
  918MOL0     C26556   3.896   9.949   1.841 -0.1348  0.1373 -0.5173
  918MOL0     C26557   4.023   9.917   1.770 -0.3559  0.1066 -0.2016
  918MOL0     C26558   4.155   9.938   1.850  0.9229  0.6992 -0.3265
  918MOL0     C26559   4.228   9.804   1.869  0.0458  0.2307  0.0655
  918MOL0     C26560   4.375   9.810   1.902 -0.4498  0.6088 -0.8282
  918MOL0     C26561   4.403   9.877   2.041  0.3659 -0.3217 -0.2086
  918MOL0     C26562   4.353   9.781   2.148  0.3079 -0.1075 -0.9809
  918MOL0     N26563   4.378   9.825   2.283 -0.8151  0.3677 -0.5545
  918MOL0     C26564   4.497   9.790   2.340  0.4260 -0.1936 -0.1637
  918MOL0     C26565   4.506   9.867   2.455  1.3799  0.1445  0.0968
  918MOL0     C26566   4.612   9.850   2.559  0.5687 -0.7422 -0.2845
  918MOL0     C26567   4.580   9.736   2.653 -0.1104  0.3472  0.5462
  918MOL0     C26568   4.615   9.598   2.605 -0.8811  0.3196  0.5529
  918MOL0     C26569   4.760   9.566   2.631 -0.7172  0.6197  0.8868
  918MOL0     O26570   4.856   9.652   2.567  1.0195  0.1074 -0.4316
  918MOL0     C26571   4.989   9.622   2.570 -0.4359 -0.4105 -0.2127
  918MOL0     C26572   5.077   9.702   2.491  0.9454 -0.0220 -0.2964
  918MOL0     C26573   5.216   9.684   2.487 -0.1584 -0.3014 -0.5351
  918MOL0     C26574   5.290   9.795   2.414 -0.7961  0.9583  0.5067
  918MOL0     C26575   5.276   9.584   2.559  0.0641 -0.2493 -0.5236
  918MOL0     C26576   5.422   9.560   2.557  0.2860  0.3003 -0.2436
  918MOL0     O26577   5.486   9.576   2.439  0.1090 -0.1506  0.6742
  918MOL0     C26578   5.625   9.594   2.428 -0.3580 -0.2422 -0.8399
  918MOL0     C26579   5.681   9.583   2.302 -0.1065  0.0078 -0.8518
  918MOL0     C26580   5.821   9.582   2.280  1.2374  0.4192 -0.0474
  918MOL0     C26581   5.910   9.580   2.389  0.2390 -0.5281  0.1783
  918MOL0     O26582   6.043   9.555   2.363 -0.7831  0.7085 -0.4625
  918MOL0     C26583   6.126   9.673   2.380 -0.0711  0.3996 -0.6989
  918MOL0     C26584   6.229   9.669   2.270 -0.2526  0.1041  0.0198
  918MOL0     C26585   6.355   9.578   2.303 -0.6078 -0.5082  0.3791
  918MOL0     C26586   6.460   9.598   2.187  0.3262 -0.6734 -0.3804
  918MOL0     C26587   6.580   9.505   2.198 -0.3101  0.2894  1.1876
  918MOL0     C26588   6.676   9.534   2.313 -0.8276 -0.0381 -0.4943
  918MOL0     C26589   6.773   9.415   2.339 -0.7388 -0.1268  0.1744
  918MOL0     C26590   6.892   9.417   2.234  0.1756 -0.3816  0.2893
  918MOL0    Cl26591   6.964   9.581   2.218 -0.3050 -0.4087 -0.5594
  918MOL0     C26592   5.857   9.583   2.520 -0.0734  0.0029  0.5974
  918MOL0     C26593   5.720   9.601   2.541 -0.2213 -0.2349  0.3970
  918MOL0     O26594   5.471   9.509   2.655 -0.7350 -0.0138  0.3333
  918MOL0     C26595   5.195   9.511   2.643 -1.0379  0.9666  0.9195
  918MOL0     C26596   5.056   9.526   2.646  0.2229  0.4908 -0.8742
  918MOL0     N26597   4.397   9.958   2.449 -0.4436 -0.4873 -0.1624
  918MOL0     N26598   4.324   9.928   2.348  0.5093 -0.0758  0.0558
  918MOL0     C26599   3.416   9.980   1.850 -0.0626  1.0594 -0.7403
  918MOL0     C26600   3.287  10.001   1.797 -0.0432  0.2938  0.2262
  918MOL0     C26601   2.974   9.890   1.494 -0.7811  0.6981  0.1027
  918MOL0     C26602   2.905  10.002   1.445  0.6073 -0.3825 -0.3727
  918MOL0     C26603   2.767   9.991   1.422  0.2178  0.6211  0.8004
  918MOL0     C26604   2.698   9.871   1.444 -0.2717  0.7721 -0.1417
  918MOL0     O26605   2.562   9.847   1.421  0.1380 -0.5622  0.4646
  918MOL0     C26606   2.484   9.943   1.342  0.3709  0.0107  0.4861
  918MOL0     C26607   2.351   9.880   1.321  0.6226  0.8225 -0.6855
  918MOL0     C26608   2.284   9.828   1.448 -0.2163  0.2045  0.1286
  918MOL0     C26609   2.142   9.783   1.414  0.1722  0.9734 -0.9459
  918MOL0     C26610   2.083   9.703   1.525  0.1911 -0.0941  0.0576
  918MOL0     C26611   2.030   9.657   1.618  0.3863 -0.1983  0.7215
  918MOL0     C26612   2.765   9.759   1.493  0.4523 -0.1323 -0.0829
  918MOL0     C26613   2.905   9.768   1.524  0.0746 -0.2799 -0.3011
  918MOL0     C26614   2.947   9.647   1.605 -0.1324  0.2454  0.7372
  918MOL0     H26615   3.378  10.049   1.476 -0.7414 -0.6570 -0.4494
  918MOL0     H26616   3.591   9.996   1.567  1.3732  0.1674  2.8684
  918MOL0     H26617   3.780  10.014   1.680  2.9020  1.6626  2.3233
  918MOL0     H26618   3.763   9.833   1.719 -3.3365 -0.3508  1.6667
  918MOL0     H26619   3.893  10.052   1.875 -0.6232 -0.1635  0.3882
  918MOL0     H26620   3.896   9.892   1.934  0.9653  0.1764 -0.4871
  918MOL0     H26621   4.013   9.812   1.741 -0.3326  0.1532 -0.3789
  918MOL0     H26622   4.018   9.981   1.681 -3.8639  0.9526  0.4560
  918MOL0     H26623   4.213  10.006   1.788  2.1627  1.0940  1.2022
  918MOL0     H26624   4.150  10.000   1.941  2.5962 -0.0193  0.2971
  918MOL0     H26625   4.214   9.739   1.782 -1.4099  0.4379  0.1188
  918MOL0     H26626   4.171   9.749   1.944 -2.2407 -0.4124 -2.0129
  918MOL0     H26627   4.418   9.709   1.907 -0.7054  0.4936 -0.9628
  918MOL0     H26628   4.435   9.868   1.831 -0.5539  1.4399 -0.2526
  918MOL0     H26629   4.363   9.978   2.045  0.2084 -0.2996 -1.7266
  918MOL0     H26630   4.511   9.878   2.057  0.3877 -3.9782  0.8339
  918MOL0     H26631   4.244   9.773   2.140  0.4484 -1.4467 -1.8152
  918MOL0     H26632   4.400   9.683   2.134  0.7813 -0.4444  2.2964
  918MOL0     H26633   4.562   9.708   2.309 -0.3432 -0.1568 -2.0117
  918MOL0     H26634   4.619   9.935   2.627  1.1672 -1.3007  0.3712
  918MOL0     H26635   4.710   9.847   2.509  0.4171 -0.5508 -0.5917
  918MOL0     H26636   4.636   9.756   2.745  2.8681  2.0642 -1.4616
  918MOL0     H26637   4.477   9.742   2.688 -0.2144  0.6794  0.1903
  918MOL0     H26638   4.560   9.520   2.659  0.5413 -0.0687  1.4830
  918MOL0     H26639   4.601   9.594   2.496  1.0349  2.2907  0.1740
  918MOL0     H26640   4.787   9.570   2.736 -0.2293  0.1180  0.7825
  918MOL0     H26641   4.770   9.461   2.604  0.2956  0.9039  0.0633
  918MOL0     H26642   5.025   9.777   2.433  1.3381 -0.1201 -0.7744
  918MOL0     H26643   5.223   9.881   2.425 -4.0689 -1.5862  2.4018
  918MOL0     H26644   5.297   9.781   2.306  1.9255  0.6299  0.6641
  918MOL0     H26645   5.384   9.818   2.465 -1.3283 -2.5048  3.4464
  918MOL0     H26646   5.626   9.556   2.212  1.6135 -2.8011 -1.1896
  918MOL0     H26647   5.855   9.575   2.178 -3.3630 -0.1545 -1.7851
  918MOL0     H26648   6.066   9.765   2.374 -1.8092 -0.6129  0.4862
  918MOL0     H26649   6.171   9.691   2.477  0.0611  4.1616 -1.2814
  918MOL0     H26650   6.179   9.639   2.177  1.4730  4.1531 -2.5193
  918MOL0     H26651   6.258   9.771   2.245 -0.0198  0.2027  0.6861
  918MOL0     H26652   6.309   9.479   2.306 -3.2302  0.6606  2.5758
  918MOL0     H26653   6.394   9.597   2.403 -1.6517 -1.1746  0.9297
  918MOL0     H26654   6.491   9.702   2.198 -0.4670 -0.6727  2.4807
  918MOL0     H26655   6.414   9.576   2.090  0.0081 -2.2559  0.0932
  918MOL0     H26656   6.552   9.399   2.199 -0.7864  0.3266 -1.0601
  918MOL0     H26657   6.634   9.514   2.102 -0.3243 -1.7169  0.9428
  918MOL0     H26658   6.621   9.537   2.407  1.7780 -2.0224  1.2432
  918MOL0     H26659   6.731   9.627   2.301  2.4197 -1.5569  1.3108
  918MOL0     H26660   6.731   9.314   2.338  0.2598 -0.7275  3.8780
  918MOL0     H26661   6.826   9.431   2.433  1.9284  0.3744 -1.2817
  918MOL0     H26662   6.852   9.388   2.136  2.2008  2.5174 -1.5321
  918MOL0     H26663   6.973   9.347   2.257  0.2764 -0.8255 -1.2843
  918MOL0     H26664   5.916   9.596   2.610 -0.4219 -0.5518  0.9153
  918MOL0     H26665   5.680   9.609   2.641 -3.1098 -1.6372 -0.5440
  918MOL0     H26666   5.237   9.428   2.699  0.7916  0.3108 -1.2531
  918MOL0     H26667   5.003   9.457   2.712  3.0684 -0.4044  0.6270
  918MOL0     H26668   3.431   9.958   1.955  3.4896  1.0127 -1.1555
  918MOL0     H26669   3.194  10.011   1.852  0.0750 -0.6999  0.6257
  918MOL0     H26670   2.949  10.093   1.408 -1.5941  0.1936 -1.7794
  918MOL0     H26671   2.723  10.082   1.381  1.8039  1.8397  1.7000
  918MOL0     H26672   2.480  10.030   1.408 -2.7377 -0.6434  1.3556
  918MOL0     H26673   2.528   9.976   1.247  0.0817 -1.4553 -0.1771
  918MOL0     H26674   2.364   9.800   1.248  0.1574  0.5600 -0.4836
  918MOL0     H26675   2.280   9.951   1.279  1.0583  2.0743  0.6009
  918MOL0     H26676   2.342   9.752   1.500  0.6917  0.3364 -0.6650
  918MOL0     H26677   2.274   9.916   1.513  1.2461  0.9835 -0.6322
  918MOL0     H26678   2.167   9.720   1.328 -2.6854 -1.2414 -0.3079
  918MOL0     H26679   2.081   9.869   1.385  1.7881  1.6316 -2.5618
  918MOL0     H26680   1.977   9.614   1.701  0.3635  4.4119  3.4904
  918MOL0     H26681   2.723   9.660   1.508 -2.0472  0.6553 -1.3197
  918MOL0     H26682   3.053   9.653   1.633 -0.2688 -0.2275  1.3993
  918MOL0     H26683   2.892   9.630   1.698  0.6897 -0.9004  1.0527
  918MOL0     H26684   2.930   9.554   1.551  1.4739 -2.2411  4.0861
  919MOL0     O26685   8.684   7.644   7.209 -0.1272  0.2157  0.2883
  919MOL0     C26686   8.662   7.530   7.247  0.3561  0.1336  0.0545
  919MOL0     O26687   8.542   7.462   7.225  0.5724 -0.7885 -0.0345
  919MOL0     C26688   8.429   7.531   7.174 -0.4146  0.4874  0.4269
  919MOL0     C26689   8.354   7.622   7.245 -0.5666  0.5933 -1.3165
  919MOL0     C26690   8.257   7.698   7.191  0.3815 -0.1318 -0.0523
  919MOL0     C26691   8.245   7.694   7.051 -0.2278 -0.9196  0.6390
  919MOL0     O26692   8.177   7.787   6.982  0.4233 -0.0326 -0.0713
  919MOL0     C26693   8.038   7.805   7.026 -0.3784  0.5532  0.7797
  919MOL0     C26694   7.968   7.912   6.944 -0.9244  0.0682 -0.1244
  919MOL0     C26695   7.991   8.047   7.009 -0.2319 -0.5805  0.3372
  919MOL0     C26696   7.918   8.153   6.930 -0.6550 -0.4288  0.3493
  919MOL0     C26697   7.964   8.292   6.984 -0.0578  0.9631 -0.0354
  919MOL0     C26698   7.932   8.317   7.129 -0.2897  0.0761 -0.1931
  919MOL0     C26699   7.978   8.461   7.163 -0.3225  0.0773  0.4032
  919MOL0     C26700   7.917   8.575   7.076 -0.1769  0.3662  0.6283
  919MOL0     N26701   7.964   8.709   7.121  0.3147 -0.0506  0.0317
  919MOL0     C26702   8.084   8.736   7.176  0.1357  0.4570  0.6897
  919MOL0     C26703   8.096   8.870   7.188  0.8961 -0.5512 -0.2118
  919MOL0     C26704   8.206   8.936   7.271 -0.7268 -0.4058  0.0099
  919MOL0     C26705   8.346   8.929   7.211  0.2026  0.6852 -0.7041
  919MOL0     C26706   8.351   8.986   7.072 -0.4501 -0.6028 -0.4356
  919MOL0     C26707   8.495   8.983   7.017  0.1788 -0.1729 -0.1139
  919MOL0     O26708   8.540   8.849   6.978 -0.2660  0.4439  0.1511
  919MOL0     C26709   8.676   8.830   6.997 -0.3669  0.6170 -0.3575
  919MOL0     C26710   8.739   8.762   6.890 -0.1859  0.2478  0.5021
  919MOL0     C26711   8.875   8.745   6.896 -0.2893  0.2417 -0.2360
  919MOL0     C26712   8.938   8.693   6.775  0.2324  0.5618 -0.1308
  919MOL0     C26713   8.954   8.770   7.021  0.4774  0.0327  0.3946
  919MOL0     C26714   9.098   8.753   7.022 -0.4819  0.3305  0.2103
  919MOL0     O26715   9.171   8.858   7.067  0.5211 -0.0933 -0.1426
  919MOL0     C26716   9.307   8.836   7.066 -0.1401  0.0501  0.5897
  919MOL0     C26717   9.376   8.864   6.947  0.1992  0.5153  0.0742
  919MOL0     C26718   9.516   8.855   6.942 -0.4980  0.8869  0.3811
  919MOL0     C26719   9.589   8.819   7.048 -0.0983  0.4980  0.2737
  919MOL0     O26720   9.721   8.805   7.032  0.1747 -0.0064  0.5608
  919MOL0     C26721   9.769   8.671   7.046 -0.0718 -1.1668  0.1452
  919MOL0     C26722   9.918   8.680   7.028 -0.9071 -0.1492 -0.0599
  919MOL0     C26723   9.982   8.540   7.011 -0.2322  0.1325 -0.3836
  919MOL0     C26724  10.127   8.545   7.047 -0.1105 -0.2382  0.4415
  919MOL0     C26725  10.197   8.408   7.027 -0.2562 -0.0230  0.2770
  919MOL0     C26726  10.329   8.413   7.104  0.0643 -0.2778 -1.2500
  919MOL0     C26727  10.379   8.269   7.109 -0.1055  0.0783  0.5246
  919MOL0     C26728  10.508   8.263   7.183  0.5614 -0.4339 -1.1088
  919MOL0    Cl26729  10.611   8.143   7.108  0.3879 -0.3180  0.3799
  919MOL0     C26730   9.521   8.779   7.160 -0.0805  0.0257 -0.8249
  919MOL0     C26731   9.378   8.783   7.176 -0.4882  0.2110 -0.2129
  919MOL0     O26732   9.140   8.641   6.986  0.4480 -0.1937 -0.6251
  919MOL0     C26733   8.885   8.824   7.123  0.1146 -0.0731  0.6496
  919MOL0     C26734   8.748   8.851   7.118 -0.1328  0.0094 -0.3157
  919MOL0     N26735   7.978   8.924   7.145 -0.3604  0.5575  0.5203
  919MOL0     N26736   7.906   8.831   7.089 -0.9451  0.2455 -0.2356
  919MOL0     C26737   8.301   7.599   6.977  0.3085 -0.6509  0.6825
  919MOL0     C26738   8.395   7.515   7.041 -0.6416  0.0203 -0.5299
  919MOL0     C26739   8.779   7.471   7.319 -0.1880 -0.1739 -0.8920
  919MOL0     C26740   8.904   7.465   7.258 -0.2943  0.0246  0.5022
  919MOL0     C26741   9.009   7.406   7.330  0.0211 -0.3783 -0.7106
  919MOL0     C26742   8.984   7.359   7.462 -0.5471  0.6276  0.0592
  919MOL0     O26743   9.087   7.307   7.539  0.4184 -0.5106 -0.2406
  919MOL0     C26744   9.222   7.295   7.493 -0.7461 -0.2756 -0.4203
  919MOL0     C26745   9.307   7.239   7.605 -0.1890  0.6273 -0.4998
  919MOL0     C26746   9.450   7.235   7.554 -0.6720 -0.7626  0.6220
  919MOL0     C26747   9.560   7.166   7.637 -0.3975 -0.2022 -0.7064
  919MOL0     C26748   9.582   7.211   7.772 -0.1420 -0.0956 -0.1255
  919MOL0     C26749   9.605   7.232   7.889  0.0087 -1.3792  0.1253
  919MOL0     C26750   8.865   7.369   7.520  0.3301  0.2179  0.2780
  919MOL0     C26751   8.753   7.414   7.451  0.0664 -0.0537  0.2203
  919MOL0     C26752   8.622   7.402   7.523  0.7144 -0.2809 -0.1701
  919MOL0     H26753   8.368   7.610   7.352 -0.1519  2.5949 -1.1026
  919MOL0     H26754   8.194   7.758   7.256 -2.3814 -2.4528 -0.3798
  919MOL0     H26755   8.032   7.830   7.132  0.0254  0.5430  0.8041
  919MOL0     H26756   7.986   7.710   7.011  0.0045  0.3414  0.8035
  919MOL0     H26757   8.018   7.916   6.847  0.1409  3.4208  0.4414
  919MOL0     H26758   7.863   7.891   6.922 -0.5192 -1.4538 -0.7445
  919MOL0     H26759   7.947   8.055   7.109 -0.1651 -0.5832  0.3666
  919MOL0     H26760   8.097   8.074   7.008 -1.0140  3.0865 -1.6304
  919MOL0     H26761   7.957   8.150   6.827  1.4975  2.3374  0.9485
  919MOL0     H26762   7.810   8.135   6.928 -0.6447 -0.5615 -1.8880
  919MOL0     H26763   7.911   8.357   6.914  1.0316 -0.6188 -2.4324
  919MOL0     H26764   8.073   8.301   6.979 -0.0326  1.9371  1.5479
  919MOL0     H26765   7.826   8.294   7.145  0.1047 -3.3934 -1.4732
  919MOL0     H26766   7.990   8.243   7.185  2.0168  1.0770 -1.1740
  919MOL0     H26767   8.086   8.468   7.154 -0.3774  0.2060 -0.2574
  919MOL0     H26768   7.955   8.478   7.269 -1.0213 -0.0697  0.2843
  919MOL0     H26769   7.952   8.566   6.972 -2.2910  0.8269 -0.1622
  919MOL0     H26770   7.808   8.565   7.071 -0.1654  0.6280 -0.6648
  919MOL0     H26771   8.159   8.664   7.207  2.6105 -0.2515 -5.4760
  919MOL0     H26772   8.205   8.898   7.374  1.6180 -3.1548 -0.8734
  919MOL0     H26773   8.187   9.043   7.286 -0.6381 -0.4617  0.5460
  919MOL0     H26774   8.418   8.991   7.265  0.3717  1.9807 -2.3369
  919MOL0     H26775   8.392   8.830   7.222  0.8376  1.1723  1.6325
  919MOL0     H26776   8.296   8.919   7.004  2.4726 -4.0200  0.2882
  919MOL0     H26777   8.310   9.087   7.066 -0.0382 -0.2633  1.7641
  919MOL0     H26778   8.502   9.047   6.928 -0.9490  0.5505  0.3030
  919MOL0     H26779   8.563   9.022   7.093  2.8244 -1.3126 -1.7337
  919MOL0     H26780   8.676   8.739   6.805  2.3247  1.9966 -1.9792
  919MOL0     H26781   9.020   8.760   6.745  0.5626  0.7370  1.0972
  919MOL0     H26782   8.862   8.681   6.697  0.9541 -0.0725 -0.7631
  919MOL0     H26783   8.970   8.592   6.804  1.0402  0.6042 -0.8415
  919MOL0     H26784   9.331   8.897   6.854 -1.2896 -1.5806 -0.0293
  919MOL0     H26785   9.577   8.881   6.856 -0.2564  2.5985  1.0281
  919MOL0     H26786   9.740   8.624   7.140  3.3931  1.3948  2.7950
  919MOL0     H26787   9.727   8.606   6.969 -0.9443 -2.0283  1.3061
  919MOL0     H26788   9.934   8.736   6.935  1.0391  0.0812  0.3607
  919MOL0     H26789   9.970   8.723   7.114  0.0864  1.5917 -1.4512
  919MOL0     H26790   9.969   8.514   6.905 -3.5052  2.4600 -0.6910
  919MOL0     H26791   9.925   8.467   7.069 -1.4708  0.1397 -1.5343
  919MOL0     H26792  10.148   8.566   7.152  3.0299 -2.9364  0.4902
  919MOL0     H26793  10.182   8.617   6.985 -0.5829  1.6883  2.1585
  919MOL0     H26794  10.133   8.326   7.061 -1.1305  1.1299  1.5095
  919MOL0     H26795  10.210   8.409   6.918  0.6646  2.9536  0.3051
  919MOL0     H26796  10.318   8.443   7.209  0.7921 -4.2265  0.1256
  919MOL0     H26797  10.403   8.484   7.066  0.6531  1.7256  3.0093
  919MOL0     H26798  10.400   8.224   7.011 -1.4289 -0.8558  0.6454
  919MOL0     H26799  10.301   8.206   7.152  0.3516 -0.4322  0.6339
  919MOL0     H26800  10.488   8.243   7.289 -2.0707 -0.0944 -1.4666
  919MOL0     H26801  10.557   8.360   7.176 -1.4648  0.7248 -0.1341
  919MOL0     H26802   9.580   8.760   7.249 -2.5933  0.5355  1.0553
  919MOL0     H26803   9.328   8.755   7.268 -0.5142 -0.4207 -0.4149
  919MOL0     H26804   8.929   8.843   7.221 -2.6117  1.4077  1.6880
  919MOL0     H26805   8.709   8.912   7.199  2.2120 -0.2383  1.0869
  919MOL0     H26806   8.281   7.590   6.871  3.9744  2.2205 -0.4878
  919MOL0     H26807   8.451   7.444   6.980 -1.4468 -1.0436 -0.0616
  919MOL0     H26808   8.931   7.514   7.165  1.5461 -1.6518  0.0818
  919MOL0     H26809   9.109   7.403   7.287  0.4533  0.9523  0.1153
  919MOL0     H26810   9.230   7.233   7.404 -1.1199 -2.7616  1.1684
  919MOL0     H26811   9.261   7.393   7.464 -1.1409  0.6379  1.8944
  919MOL0     H26812   9.274   7.136   7.623 -0.2067 -0.1309 -4.1165
  919MOL0     H26813   9.302   7.303   7.693  2.4012  0.5510 -0.2112
  919MOL0     H26814   9.447   7.183   7.458 -1.0451 -0.4602  0.4653
  919MOL0     H26815   9.477   7.340   7.539 -0.9642 -0.1229  3.7928
  919MOL0     H26816   9.653   7.179   7.582  1.7977 -1.3389  2.4540
  919MOL0     H26817   9.549   7.058   7.655  3.2408 -0.4941  0.4697
  919MOL0     H26818   9.606   7.238   7.996  0.4262  0.7948  0.0449
  919MOL0     H26819   8.856   7.327   7.620  2.4271  0.8002  0.7604
  919MOL0     H26820   8.529   7.423   7.470  0.1968 -0.2971  0.7239
  919MOL0     H26821   8.625   7.304   7.572  3.0344 -0.9713 -1.4946
  919MOL0     H26822   8.608   7.491   7.585 -1.9122 -1.1570  0.6073
  920MOL0     O26823   2.466   5.207   0.177 -0.5493  0.3538 -1.0421
  920MOL0     C26824   2.405   5.245   0.079  0.6474 -0.3910 -0.3748
  920MOL0     O26825   2.430   5.365   0.010 -0.2188  0.0298 -0.2831
  920MOL0     C26826   2.553   5.394  -0.043  0.9450 -0.0012 -0.5880
  920MOL0     C26827   2.569   5.532  -0.078 -0.9937  0.6770  0.3111
  920MOL0     C26828   2.682   5.581  -0.147 -0.3626  1.1418 -0.3007
  920MOL0     C26829   2.788   5.486  -0.158 -0.2727  0.2999 -0.0135
  920MOL0     O26830   2.905   5.523  -0.223  0.2711  0.5665 -0.4463
  920MOL0     C26831   2.931   5.450  -0.339 -0.0112 -0.4888 -0.0771
  920MOL0     C26832   3.054   5.503  -0.406 -0.7026 -0.0473 -0.5325
  920MOL0     C26833   3.178   5.482  -0.317 -0.4388  0.6523 -0.6373
  920MOL0     C26834   3.302   5.544  -0.386 -0.3729 -0.2395 -0.2018
  920MOL0     C26835   3.411   5.558  -0.279 -0.3291  0.1728  0.0529
  920MOL0     C26836   3.538   5.630  -0.344  0.4443  0.2542  0.2827
  920MOL0     C26837   3.664   5.638  -0.265  0.3580  0.1240  0.3341
  920MOL0     C26838   3.635   5.715  -0.133 -0.0579 -0.0332  0.6531
  920MOL0     N26839   3.760   5.741  -0.062 -0.8735  0.7619 -0.0976
  920MOL0     C26840   3.811   5.648   0.026 -0.1598 -0.0342 -0.3103
  920MOL0     C26841   3.930   5.706   0.068  0.2554  0.0092  1.1391
  920MOL0     C26842   4.018   5.641   0.177 -0.0884  0.1778  0.5861
  920MOL0     C26843   4.160   5.707   0.179  0.2520 -0.3923  0.5577
  920MOL0     C26844   4.263   5.651   0.288 -0.2592 -0.1327 -0.6302
  920MOL0     C26845   4.298   5.498   0.259 -0.0444 -0.6180  0.1901
  920MOL0     O26846   4.395   5.440   0.349  0.6189 -0.5948  0.1790
  920MOL0     C26847   4.514   5.505   0.342 -0.2750  0.5443  0.1627
  920MOL0     C26848   4.550   5.596   0.439  0.5597 -0.1498  0.1928
  920MOL0     C26849   4.677   5.658   0.429  0.0303 -0.4575 -0.1747
  920MOL0     C26850   4.712   5.761   0.537  0.0868 -0.0193 -0.0284
  920MOL0     C26851   4.768   5.634   0.320 -0.4114  0.1326 -0.0217
  920MOL0     C26852   4.907   5.695   0.310 -0.4951 -0.0974 -0.3504
  920MOL0     O26853   4.970   5.728   0.428 -0.1033  0.1200 -0.1637
  920MOL0     C26854   5.102   5.782   0.418  0.8097  0.4262 -0.4539
  920MOL0     C26855   5.198   5.727   0.500  0.0992  0.5208  0.4889
  920MOL0     C26856   5.331   5.757   0.472 -0.1739 -1.0063  1.5299
  920MOL0     C26857   5.368   5.861   0.381 -0.0558  0.2533 -0.3984
  920MOL0     O26858   5.497   5.886   0.370 -0.4844  0.0597 -0.1098
  920MOL0     C26859   5.555   5.964   0.266  0.1807  0.3424 -0.5894
  920MOL0     C26860   5.515   5.914   0.122  0.1361  0.6728 -0.9908
  920MOL0     C26861   5.613   5.975   0.024 -0.1442 -0.2908  0.3116
  920MOL0     C26862   5.571   5.926  -0.116 -0.7380 -0.1152  0.2333
  920MOL0     C26863   5.671   5.958  -0.223  0.5989  0.4288 -0.4580
  920MOL0     C26864   5.628   5.874  -0.354 -1.0269 -0.6342 -0.4226
  920MOL0     C26865   5.712   5.909  -0.483 -0.5018 -0.1478  0.0083
  920MOL0     C26866   5.859   5.892  -0.453 -0.2250  0.0729  0.5967
  920MOL0    Cl26867   5.936   6.056  -0.407  0.3395  0.4833 -0.2478
  920MOL0     C26868   5.265   5.926   0.308 -0.5667  0.2099 -0.0329
  920MOL0     C26869   5.127   5.879   0.324  0.4012  0.0364 -0.6278
  920MOL0     O26870   4.954   5.717   0.197  0.0738  0.3403 -0.9183
  920MOL0     C26871   4.726   5.554   0.217  0.1896  0.1713  0.3585
  920MOL0     C26872   4.595   5.496   0.228 -0.4513 -1.0349  0.2619
  920MOL0     N26873   3.940   5.832   0.011 -0.2557 -0.0882  0.3140
  920MOL0     N26874   3.839   5.852  -0.071 -1.0856  0.6142  0.6985
  920MOL0     C26875   2.773   5.354  -0.120 -0.7727 -0.9147  0.5478
  920MOL0     C26876   2.664   5.309  -0.062  0.6852 -0.5498 -0.2287
  920MOL0     C26877   2.275   5.172   0.056 -0.0116  0.2782 -0.3212
  920MOL0     C26878   2.253   5.050   0.125 -0.4878 -0.5995 -0.2912
  920MOL0     C26879   2.131   4.985   0.110 -0.4753 -1.1698 -0.7428
  920MOL0     C26880   2.023   5.043   0.036 -0.8998  0.3398  0.2340
  920MOL0     O26881   1.893   5.005   0.027  0.0473  0.8005 -0.7761
  920MOL0     C26882   1.864   4.876   0.079  1.0925 -1.0166 -0.3757
  920MOL0     C26883   1.725   4.836   0.014  0.4578  0.3717  0.4058
  920MOL0     C26884   1.705   4.683   0.016  0.3594  1.0867 -0.0392
  920MOL0     C26885   1.573   4.654  -0.059 -1.0085 -0.6954  0.0224
  920MOL0     C26886   1.532   4.516  -0.027  0.4164 -0.0263 -0.2207
  920MOL0     C26887   1.495   4.406  -0.006  0.1058 -0.5324 -1.0701
  920MOL0     C26888   2.057   5.159  -0.041 -0.9720  0.1185  0.6974
  920MOL0     C26889   2.179   5.221  -0.039  0.2817 -0.8455 -0.0095
  920MOL0     C26890   2.200   5.344  -0.131 -0.0718 -0.1637  0.2515
  920MOL0     H26891   2.487   5.603  -0.072 -2.2720 -0.5905 -1.2754
  920MOL0     H26892   2.682   5.686  -0.171 -0.1903  1.4341  0.9343
  920MOL0     H26893   2.840   5.455  -0.400 -0.6465  2.4581  0.9235
  920MOL0     H26894   2.944   5.342  -0.326  4.4022  0.0087  1.3188
  920MOL0     H26895   3.070   5.454  -0.502 -0.6927 -0.0327 -0.5381
  920MOL0     H26896   3.042   5.609  -0.432  0.4620  0.5077  1.0552
  920MOL0     H26897   3.180   5.532  -0.220  1.8593  0.9586 -0.7859
  920MOL0     H26898   3.192   5.376  -0.294 -1.6842  1.0148  2.2062
  920MOL0     H26899   3.335   5.473  -0.462 -1.9109  1.0354 -2.1718
  920MOL0     H26900   3.276   5.634  -0.443  0.2433 -0.3073 -0.5968
  920MOL0     H26901   3.445   5.458  -0.250  2.7200  1.1738  0.2786
  920MOL0     H26902   3.373   5.608  -0.189 -0.5424  3.0807 -1.5637
  920MOL0     H26903   3.578   5.560  -0.418  1.6050  0.6900  0.4793
  920MOL0     H26904   3.508   5.724  -0.390 -0.9990  0.4399  1.5294
  920MOL0     H26905   3.740   5.687  -0.326  0.6928 -1.6446 -0.7288
  920MOL0     H26906   3.697   5.536  -0.244 -2.9756 -2.4809 -4.9660
  920MOL0     H26907   3.604   5.816  -0.163 -0.6203 -0.2498  0.5008
  920MOL0     H26908   3.567   5.664  -0.065 -0.8587  0.8430  0.5246
  920MOL0     H26909   3.769   5.558   0.070 -0.1814 -1.8523 -3.6355
  920MOL0     H26910   4.033   5.536   0.150 -0.9222  0.0064  0.7607
  920MOL0     H26911   3.967   5.659   0.272 -1.1471 -0.9362  0.2535
  920MOL0     H26912   4.207   5.719   0.081 -1.3316 -0.3052 -0.2278
  920MOL0     H26913   4.130   5.807   0.212 -2.9981  0.4679 -3.9767
  920MOL0     H26914   4.349   5.718   0.293 -0.5844  0.2317  0.2769
  920MOL0     H26915   4.221   5.673   0.387  1.6073  1.9802 -0.2265
  920MOL0     H26916   4.214   5.428   0.258  1.5769 -2.6984 -2.2515
  920MOL0     H26917   4.336   5.478   0.158  0.1518 -0.6562  0.2704
  920MOL0     H26918   4.473   5.622   0.512 -0.2543 -1.7709 -0.0561
  920MOL0     H26919   4.618   5.798   0.577 -0.7339  0.2215 -2.0673
  920MOL0     H26920   4.766   5.849   0.500 -0.6517  0.1530 -0.7277
  920MOL0     H26921   4.766   5.714   0.620  1.2879  2.4181  0.6515
  920MOL0     H26922   5.181   5.654   0.578 -0.5833 -0.4596 -0.5588
  920MOL0     H26923   5.411   5.696   0.514  2.6067  1.3112 -0.0509
  920MOL0     H26924   5.529   6.070   0.270 -1.8661 -0.1378 -0.0609
  920MOL0     H26925   5.664   5.959   0.273  0.1684  0.8987  0.1451
  920MOL0     H26926   5.526   5.806   0.116 -0.8371  0.5664 -1.0432
  920MOL0     H26927   5.412   5.941   0.096  0.0493  0.6509 -0.6751
  920MOL0     H26928   5.715   5.939   0.038 -0.1951 -1.9215 -2.5766
  920MOL0     H26929   5.610   6.084   0.028 -2.0237 -0.3478  1.9538
  920MOL0     H26930   5.471   5.966  -0.134  0.0976  2.3554  0.6513
  920MOL0     H26931   5.561   5.818  -0.108  2.5207 -0.5481 -0.1646
  920MOL0     H26932   5.681   6.065  -0.240 -0.5993  0.8059  1.0548
  920MOL0     H26933   5.765   5.935  -0.171 -1.1703 -0.8361  2.4906
  920MOL0     H26934   5.524   5.901  -0.372 -0.1296  0.9129 -4.4026
  920MOL0     H26935   5.639   5.768  -0.332 -2.7400 -0.6147  0.7021
  920MOL0     H26936   5.692   6.009  -0.522  0.8132  0.3974  0.6581
  920MOL0     H26937   5.682   5.836  -0.558 -0.0690 -0.5342  0.2035
  920MOL0     H26938   5.910   5.857  -0.543 -0.5524  3.4188 -1.0686
  920MOL0     H26939   5.881   5.814  -0.379 -2.4280  0.4127  1.6860
  920MOL0     H26940   5.276   6.010   0.240  0.4432 -0.2066 -0.3938
  920MOL0     H26941   5.047   5.929   0.270  1.1629 -1.1107 -2.9737
  920MOL0     H26942   4.791   5.531   0.133  0.0786  1.7272 -0.1794
  920MOL0     H26943   4.568   5.438   0.141 -1.8101 -0.0420 -0.0008
  920MOL0     H26944   2.859   5.290  -0.135 -0.4824 -0.5372  0.5959
  920MOL0     H26945   2.648   5.207  -0.026  1.1248  0.1201  2.0127
  920MOL0     H26946   2.328   5.006   0.189 -1.1096 -1.6825 -0.2686
  920MOL0     H26947   2.120   4.907   0.185  0.5722  0.4924  1.2512
  920MOL0     H26948   1.939   4.802   0.049  0.1007 -1.5256 -1.6978
  920MOL0     H26949   1.861   4.862   0.188 -0.2845 -2.0188 -0.5182
  920MOL0     H26950   1.726   4.865  -0.092 -0.2800 -3.1120 -0.6955
  920MOL0     H26951   1.643   4.881   0.071 -0.7974 -0.3091 -0.8102
  920MOL0     H26952   1.792   4.631  -0.023 -0.4338 -1.1692  1.0070
  920MOL0     H26953   1.688   4.645   0.117 -2.0283  0.9564 -0.4358
  920MOL0     H26954   1.587   4.665  -0.167 -3.0305 -1.2831 -0.3382
  920MOL0     H26955   1.490   4.720  -0.035  0.4825 -0.1573  4.8667
  920MOL0     H26956   1.447   4.313   0.017 -0.7883 -0.4002 -2.2918
  920MOL0     H26957   1.981   5.207  -0.102 -1.8089 -0.8738  0.9336
  920MOL0     H26958   2.282   5.313  -0.195 -0.4802 -0.1849 -0.2714
  920MOL0     H26959   2.105   5.362  -0.182 -0.3338  1.5753  1.2679
  920MOL0     H26960   2.229   5.432  -0.073 -0.7992 -0.0418  0.4526
  921MOL0     O26961   6.764   7.033   9.026  0.1757 -0.4886 -0.1993
  921MOL0     C26962   6.803   6.980   9.129  0.6783 -0.6155 -0.6895
  921MOL0     O26963   6.901   7.035   9.210 -0.2084  0.4733 -0.6565
  921MOL0     C26964   6.964   7.150   9.159 -0.5069 -0.7333 -0.3342
  921MOL0     C26965   7.062   7.135   9.067 -0.1064  0.5577  0.5097
  921MOL0     C26966   7.109   7.248   9.006  0.4389 -0.6742  1.2238
  921MOL0     C26967   7.054   7.376   9.032 -0.4839 -0.7671  0.8547
  921MOL0     O26968   7.105   7.492   8.974  0.6661 -0.1346  0.5980
  921MOL0     C26969   7.164   7.472   8.842  0.7013 -0.3928 -0.0776
  921MOL0     C26970   7.181   7.617   8.790  0.3646  0.1155 -0.0497
  921MOL0     C26971   7.208   7.601   8.640  0.8049 -0.5050  0.5634
  921MOL0     C26972   7.122   7.679   8.545  0.1845 -0.1295  0.1360
  921MOL0     C26973   7.143   7.831   8.566 -0.1459 -0.6731 -0.2297
  921MOL0     C26974   7.050   7.888   8.677  0.5360 -0.0388 -0.4799
  921MOL0     C26975   7.030   8.044   8.661 -0.2121  0.4926 -0.2525
  921MOL0     C26976   6.990   8.095   8.517 -0.2650  0.6066 -0.5204
  921MOL0     N26977   6.969   8.236   8.515 -0.3834  0.5176 -0.1786
  921MOL0     C26978   6.852   8.294   8.505  0.4237 -0.0844  0.4273
  921MOL0     C26979   6.876   8.426   8.513  0.6256 -0.1105  0.1669
  921MOL0     C26980   6.788   8.545   8.474 -0.7255  0.2033  0.1990
  921MOL0     C26981   6.648   8.563   8.542  0.5416  0.0799  0.4914
  921MOL0     C26982   6.650   8.606   8.688 -0.1891  0.3655  0.5955
  921MOL0     C26983   6.530   8.692   8.723  0.1181  0.2244 -0.3187
  921MOL0     O26984   6.413   8.617   8.706  0.0770  0.3252  0.3341
  921MOL0     C26985   6.293   8.648   8.767 -0.1663 -0.3051 -0.0324
  921MOL0     C26986   6.270   8.761   8.849 -0.2624  0.5454  0.4012
  921MOL0     C26987   6.144   8.774   8.914 -0.5136  0.1750 -0.9691
  921MOL0     C26988   6.130   8.899   8.994 -0.0280  0.6138 -0.3440
  921MOL0     C26989   6.037   8.686   8.891 -0.3746 -0.5245  0.2848
  921MOL0     C26990   5.895   8.688   8.946  0.1280  0.1904  0.0779
  921MOL0     O26991   5.821   8.574   8.931  0.0127 -0.5116  0.7960
  921MOL0     C26992   5.682   8.572   8.956  0.3721  0.0524  0.5464
  921MOL0     C26993   5.625   8.467   9.029 -0.2619  0.4653  0.1240
  921MOL0     C26994   5.487   8.470   9.056 -0.1233  1.2397 -0.0980
  921MOL0     C26995   5.409   8.579   9.024 -0.1335 -0.1673  1.5153
  921MOL0     O26996   5.284   8.606   9.068 -0.1766 -0.6362  0.3508
  921MOL0     C26997   5.216   8.502   9.138 -0.4840  0.3124 -0.4054
  921MOL0     C26998   5.079   8.558   9.175 -0.1097 -0.4947  0.2446
  921MOL0     C26999   4.975   8.545   9.059  0.1920 -0.5952  0.0775
  921MOL0     C27000   4.857   8.633   9.103  0.5154  0.4954  0.6585
  921MOL0     C27001   4.722   8.619   9.012 -0.6752 -0.5513 -0.8178
  921MOL0     C27002   4.733   8.604   8.865 -0.9323 -0.7670 -0.2669
  921MOL0     C27003   4.598   8.549   8.815 -0.4447 -0.4589  0.5195
  921MOL0     C27004   4.600   8.536   8.657 -0.2780  0.9128  0.7745
  921MOL0    Cl27005   4.427   8.542   8.607  0.1052  0.1307  0.1594
  921MOL0     C27006   5.463   8.684   8.953  0.2943  0.5045 -0.0869
  921MOL0     C27007   5.597   8.683   8.919  0.0970 -1.2310 -0.4976
  921MOL0     O27008   5.862   8.783   9.014  0.1986 -0.2163  0.2083
  921MOL0     C27009   6.067   8.575   8.804  0.4901  0.2103  0.1380
  921MOL0     C27010   6.194   8.567   8.743  0.1478  0.8036 -0.4349
  921MOL0     N27011   7.010   8.440   8.537 -0.2958 -0.0971 -0.1982
  921MOL0     N27012   7.062   8.331   8.540 -0.1312 -0.0221  0.5847
  921MOL0     C27013   6.950   7.389   9.125  0.6131  0.6798  0.5227
  921MOL0     C27014   6.905   7.271   9.187  0.5630 -0.2331 -0.5217
  921MOL0     C27015   6.744   6.853   9.167  0.8700  0.0609 -0.3617
  921MOL0     C27016   6.819   6.777   9.248 -0.0594  0.0739  0.0172
  921MOL0     C27017   6.775   6.655   9.304 -0.9183  0.0909 -0.1237
  921MOL0     C27018   6.645   6.616   9.276  0.2953 -0.1624  0.4769
  921MOL0     O27019   6.602   6.506   9.345  0.2789  0.2118  0.3574
  921MOL0     C27020   6.461   6.459   9.334 -0.2015 -1.0405  0.0962
  921MOL0     C27021   6.375   6.540   9.438 -0.1661 -0.6000 -1.0249
  921MOL0     C27022   6.226   6.516   9.399 -0.4999 -0.6423 -0.2776
  921MOL0     C27023   6.184   6.371   9.392  0.5679  0.3909 -0.0639
  921MOL0     C27024   6.212   6.296   9.516  0.0882  0.8540  0.4669
  921MOL0     C27025   6.224   6.249   9.628 -0.2875  0.7664 -0.6112
  921MOL0     C27026   6.562   6.704   9.203  0.0470 -0.7925 -0.2982
  921MOL0     C27027   6.609   6.818   9.145  0.2561 -0.6569 -0.8874
  921MOL0     C27028   6.506   6.904   9.058  0.2254  0.3619  0.4922
  921MOL0     H27029   7.108   7.040   9.045  2.2703  2.0660 -1.5800
  921MOL0     H27030   7.184   7.234   8.929 -0.2051  3.2992 -0.4029
  921MOL0     H27031   7.101   7.410   8.777  0.3949  1.4068 -1.5988
  921MOL0     H27032   7.260   7.420   8.850 -0.3166 -2.5472 -0.9864
  921MOL0     H27033   7.088   7.669   8.814  0.9206  1.3990 -0.5645
  921MOL0     H27034   7.268   7.664   8.839  0.5582  1.2662 -1.4373
  921MOL0     H27035   7.308   7.640   8.620 -0.2471  1.1662 -2.0762
  921MOL0     H27036   7.202   7.495   8.613  0.1362 -0.3319  0.0054
  921MOL0     H27037   7.155   7.650   8.445  1.7408  1.6147  0.0917
  921MOL0     H27038   7.017   7.656   8.567  0.9333 -2.6573  1.4228
  921MOL0     H27039   7.135   7.879   8.468  2.2798 -1.2437 -0.7703
  921MOL0     H27040   7.248   7.851   8.587  0.3675 -1.0955 -2.2400
  921MOL0     H27041   6.950   7.844   8.672 -1.7303  4.4177  0.5030
  921MOL0     H27042   7.095   7.866   8.774  0.4688 -1.5559 -0.7594
  921MOL0     H27043   7.130   8.082   8.685  0.0210  0.6331 -1.3949
  921MOL0     H27044   6.965   8.067   8.746 -1.0231  1.7876 -1.1719
  921MOL0     H27045   7.059   8.056   8.442 -1.5456  0.1190 -1.4981
  921MOL0     H27046   6.896   8.042   8.497  1.5571 -3.0514 -0.3150
  921MOL0     H27047   6.758   8.257   8.466  0.8677 -1.2536  0.4383
  921MOL0     H27048   6.771   8.535   8.366  0.3039  2.8968 -0.2895
  921MOL0     H27049   6.853   8.632   8.487 -2.8829  2.3126 -1.9526
  921MOL0     H27050   6.601   8.641   8.481 -0.3458 -0.2973  0.6848
  921MOL0     H27051   6.575   8.482   8.533  0.8204  0.0421 -1.8172
  921MOL0     H27052   6.651   8.529   8.765 -2.0784 -0.3710 -0.0625
  921MOL0     H27053   6.747   8.657   8.698 -1.0118  2.8721 -2.5090
  921MOL0     H27054   6.534   8.706   8.832 -1.3805 -3.2623  0.3190
  921MOL0     H27055   6.543   8.790   8.678 -1.7466 -0.5308 -2.6905
  921MOL0     H27056   6.359   8.821   8.866  0.2423  0.1233 -0.6545
  921MOL0     H27057   6.076   8.973   8.936  0.3575  1.7607  0.7232
  921MOL0     H27058   6.227   8.948   9.009  0.2230 -0.5729  2.5511
  921MOL0     H27059   6.090   8.875   9.093 -0.5276  0.4470 -0.5838
  921MOL0     H27060   5.699   8.401   9.073  0.1503  1.9142  1.7397
  921MOL0     H27061   5.443   8.382   9.102 -0.4877  0.6350 -1.5228
  921MOL0     H27062   5.216   8.408   9.082 -0.0424 -0.2041  0.4249
  921MOL0     H27063   5.270   8.475   9.230  0.0125 -2.8344 -1.5082
  921MOL0     H27064   5.042   8.489   9.251 -1.0394 -1.8993 -1.4109
  921MOL0     H27065   5.087   8.661   9.211  3.3338 -0.5211 -0.1042
  921MOL0     H27066   4.949   8.440   9.047  2.9632 -1.1740 -1.8988
  921MOL0     H27067   5.016   8.603   8.976  0.4393  2.7484  2.3345
  921MOL0     H27068   4.886   8.737   9.114  4.0162 -0.4387  1.6066
  921MOL0     H27069   4.832   8.588   9.200 -0.9849 -0.6770 -0.2180
  921MOL0     H27070   4.672   8.530   9.053  0.4114 -0.3637  1.0495
  921MOL0     H27071   4.668   8.707   9.048  2.9928  1.0339  1.3547
  921MOL0     H27072   4.817   8.542   8.834  0.8343  0.7934  1.2129
  921MOL0     H27073   4.762   8.702   8.827  0.1533 -1.0090 -0.0919
  921MOL0     H27074   4.509   8.602   8.851 -1.1482 -1.3513  0.1056
  921MOL0     H27075   4.598   8.447   8.855  1.3647 -1.7433 -2.4315
  921MOL0     H27076   4.645   8.442   8.626 -0.9263  1.0242 -0.5843
  921MOL0     H27077   4.652   8.625   8.619  0.0988  0.3244 -0.1306
  921MOL0     H27078   5.401   8.770   8.932 -0.1126 -0.0495 -1.2158
  921MOL0     H27079   5.641   8.749   8.845 -1.4294  0.9407  0.4261
  921MOL0     H27080   5.998   8.501   8.765 -0.1871  1.5346 -1.3060
  921MOL0     H27081   6.210   8.492   8.666 -0.4241 -0.1556  0.3628
  921MOL0     H27082   6.899   7.483   9.140  1.2590  0.9427  1.0921
  921MOL0     H27083   6.815   7.271   9.247 -0.6030  0.3013 -2.1872
  921MOL0     H27084   6.923   6.801   9.270  0.6454 -1.0105 -1.9440
  921MOL0     H27085   6.835   6.612   9.383  2.1725  2.7027 -0.8320
  921MOL0     H27086   6.424   6.471   9.232  1.1389 -2.6906 -0.6411
  921MOL0     H27087   6.461   6.352   9.358  3.6087 -1.3367 -0.5122
  921MOL0     H27088   6.393   6.648   9.436  0.4516 -0.5634  1.8123
  921MOL0     H27089   6.400   6.505   9.539 -4.9402 -1.4763  0.0773
  921MOL0     H27090   6.169   6.553   9.484 -1.5379 -3.6823  0.4753
  921MOL0     H27091   6.197   6.552   9.300 -0.8842 -1.1905 -0.3729
  921MOL0     H27092   6.238   6.326   9.308  0.4785  0.1736 -0.0064
  921MOL0     H27093   6.079   6.348   9.376  0.5392 -0.0818  0.7464
  921MOL0     H27094   6.241   6.212   9.727  3.6798  1.0531 -1.0113
  921MOL0     H27095   6.454   6.690   9.205 -0.0021 -0.4159 -0.2054
  921MOL0     H27096   6.494   6.997   9.113  1.7538  0.9477 -0.1212
  921MOL0     H27097   6.541   6.918   8.956 -0.9305 -2.1901 -0.3424
  921MOL0     H27098   6.404   6.864   9.058 -1.0328  3.3576  0.6939
  922MOL0     O27099   8.622   1.582  11.386  0.5792  0.4660  0.4137
  922MOL0     C27100   8.601   1.680  11.458 -0.4416 -0.7178  0.4009
  922MOL0     O27101   8.628   1.812  11.422 -0.5705 -0.0103  0.1597
  922MOL0     C27102   8.675   1.837  11.298  0.5795  0.4019 -0.7810
  922MOL0     C27103   8.812   1.818  11.276 -0.1336  0.2990 -0.3130
  922MOL0     C27104   8.870   1.860  11.152  0.4022  0.1334 -0.3656
  922MOL0     C27105   8.791   1.905  11.051 -0.2340 -0.5581 -0.1650
  922MOL0     O27106   8.844   1.938  10.933 -0.5773 -0.5146  0.1258
  922MOL0     C27107   8.773   2.021  10.841 -0.3348 -0.3331  0.2915
  922MOL0     C27108   8.877   2.077  10.743 -0.2749 -0.2240 -0.2368
  922MOL0     C27109   8.984   2.174  10.807 -0.3189  0.5461  0.3384
  922MOL0     C27110   9.120   2.098  10.786  0.3301 -0.7264  0.1289
  922MOL0     C27111   9.238   2.152  10.880  0.1315 -0.2639 -0.3358
  922MOL0     C27112   9.362   2.064  10.872  0.6254 -1.0616 -0.0059
  922MOL0     C27113   9.496   2.131  10.883 -0.1618  0.1221  0.1961
  922MOL0     C27114   9.529   2.170  11.027 -0.1215 -0.5065  0.0206
  922MOL0     N27115   9.625   2.080  11.086 -0.1354  0.3725  0.7860
  922MOL0     C27116   9.601   1.956  11.142  0.4543  0.7447 -0.1187
  922MOL0     C27117   9.724   1.903  11.159  0.7964  0.0699 -0.2755
  922MOL0     C27118   9.752   1.773  11.233  0.1806 -0.1673 -0.5123
  922MOL0     C27119   9.748   1.792  11.387  0.2096  0.4977  0.0194
  922MOL0     C27120   9.786   1.668  11.475  0.5259 -0.9287 -0.1692
  922MOL0     C27121   9.935   1.632  11.463  0.1231  0.3243 -0.4851
  922MOL0     O27122   9.969   1.546  11.568  0.2245 -0.1606 -0.8143
  922MOL0     C27123  10.099   1.499  11.584  0.2397 -0.3141  0.3531
  922MOL0     C27124  10.198   1.538  11.491  0.1517 -0.2702  0.4489
  922MOL0     C27125  10.329   1.489  11.502  0.1354 -0.2062  0.1282
  922MOL0     C27126  10.430   1.542  11.388 -0.1613  0.1218 -0.8433
  922MOL0     C27127  10.370   1.414  11.610  0.4402  0.1573 -0.3807
  922MOL0     C27128  10.504   1.375  11.632  0.4802  0.0306  0.1956
  922MOL0     O27129  10.554   1.416  11.760 -0.7924  0.5680  0.6170
  922MOL0     C27130  10.690   1.434  11.787  1.2040  0.3401 -0.4654
  922MOL0     C27131  10.771   1.506  11.695  0.1452  0.4601  0.3130
  922MOL0     C27132  10.907   1.529  11.729  0.3983 -0.3604 -0.0988
  922MOL0     C27133  10.967   1.476  11.847  0.1234 -0.1371  0.2030
  922MOL0     O27134  11.098   1.497  11.857 -0.5629  1.3405 -0.1597
  922MOL0     C27135  11.178   1.414  11.948 -0.0882  0.2119  0.0589
  922MOL0     C27136  11.175   1.276  11.890  0.0702  0.6212  0.4229
  922MOL0     C27137  11.254   1.266  11.750  0.4068  0.1574  0.2344
  922MOL0     C27138  11.261   1.119  11.705  0.8918 -0.1127 -0.8330
  922MOL0     C27139  11.338   1.107  11.576  0.0617  1.2376 -0.0317
  922MOL0     C27140  11.334   0.964  11.527 -0.7158 -0.6446 -0.2676
  922MOL0     C27141  11.414   0.947  11.388  0.2571  0.2545 -0.0028
  922MOL0     C27142  11.393   0.807  11.329 -0.6939  0.5859 -0.5509
  922MOL0    Cl27143  11.260   0.814  11.211  0.0299  0.1896 -0.3802
  922MOL0     C27144  10.882   1.399  11.929  0.1930 -0.5616 -0.3332
  922MOL0     C27145  10.745   1.388  11.906  0.3960  0.2485 -0.4587
  922MOL0     O27146  10.568   1.327  11.542 -0.0063  0.6823  0.2187
  922MOL0     C27147  10.269   1.389  11.707  0.3261 -0.6582 -0.5552
  922MOL0     C27148  10.141   1.436  11.694 -0.0237 -0.3130 -0.3563
  922MOL0     N27149   9.822   1.985  11.111 -0.2583  0.2964 -0.1826
  922MOL0     N27150   9.763   2.094  11.074  0.2707  0.7546  1.1298
  922MOL0     C27151   8.650   1.910  11.076  0.3629 -0.3232 -0.7955
  922MOL0     C27152   8.594   1.871  11.194 -0.6803  0.7189  0.1139
  922MOL0     C27153   8.557   1.652  11.596  0.0297  0.3637  0.2067
  922MOL0     C27154   8.494   1.759  11.656 -0.8015 -0.6679 -0.4407
  922MOL0     C27155   8.443   1.756  11.788 -0.4376 -1.1039 -0.3151
  922MOL0     C27156   8.440   1.640  11.863 -0.2719 -0.4856  0.3490
  922MOL0     O27157   8.391   1.637  11.993 -0.6774 -0.2805 -0.1089
  922MOL0     C27158   8.350   1.501  12.036  0.8877  0.2880 -0.8367
  922MOL0     C27159   8.265   1.545  12.154  0.6735 -0.3443  0.1082
  922MOL0     C27160   8.342   1.561  12.279 -0.7176  0.5728  0.5360
  922MOL0     C27161   8.257   1.546  12.402  0.6402  0.6131  0.3948
  922MOL0     C27162   8.145   1.641  12.413 -0.7809 -0.3527  0.5886
  922MOL0     C27163   8.061   1.721  12.447 -0.0663  0.1383  0.0321
  922MOL0     C27164   8.502   1.524  11.804 -0.4585  0.0080  0.2116
  922MOL0     C27165   8.559   1.534  11.675 -0.0888  0.3492  1.0872
  922MOL0     C27166   8.622   1.404  11.625 -1.1965 -1.0140  0.0605
  922MOL0     H27167   8.882   1.768  11.342  0.9136 -0.8140 -2.1980
  922MOL0     H27168   8.977   1.849  11.134  1.3147  2.9468  2.4406
  922MOL0     H27169   8.721   2.100  10.895  0.4481 -1.2090  2.4510
  922MOL0     H27170   8.697   1.965  10.786  0.6710  0.1661 -1.6981
  922MOL0     H27171   8.917   1.999  10.677 -1.0924 -0.6208 -0.2909
  922MOL0     H27172   8.820   2.141  10.675  0.3898  0.8811  0.2327
  922MOL0     H27173   8.986   2.277  10.769  0.7513  0.6948  0.7551
  922MOL0     H27174   8.953   2.185  10.911  0.5986  1.1271  0.5587
  922MOL0     H27175   9.118   1.989  10.793  2.3289 -0.8809 -1.0196
  922MOL0     H27176   9.162   2.119  10.687  2.4736 -1.9534  0.7095
  922MOL0     H27177   9.209   2.159  10.985  0.0632 -2.0287 -0.2003
  922MOL0     H27178   9.264   2.252  10.845  1.8731 -0.6361 -0.2140
  922MOL0     H27179   9.349   1.984  10.946 -0.6458 -0.0840  0.8651
  922MOL0     H27180   9.358   2.014  10.774 -0.9394  2.6563 -2.0272
  922MOL0     H27181   9.495   2.222  10.823 -0.1568 -0.3653 -0.5540
  922MOL0     H27182   9.577   2.071  10.840 -0.2608  0.8801 -1.0994
  922MOL0     H27183   9.572   2.270  11.022  1.2353 -1.1190 -1.2276
  922MOL0     H27184   9.442   2.174  11.093 -0.3997  0.5296 -0.3910
  922MOL0     H27185   9.506   1.912  11.171 -0.5179  1.7807 -1.5604
  922MOL0     H27186   9.848   1.739  11.193  0.2103 -1.5752  0.7096
  922MOL0     H27187   9.668   1.711  11.201 -0.1293  1.6114 -3.5390
  922MOL0     H27188   9.821   1.865  11.424 -1.7080  2.4969  0.1068
  922MOL0     H27189   9.646   1.828  11.404 -0.2120  0.0228 -1.3199
  922MOL0     H27190   9.755   1.696  11.576  0.2860  2.3988 -1.0390
  922MOL0     H27191   9.725   1.580  11.453  3.1798 -2.4666 -1.9148
  922MOL0     H27192   9.951   1.586  11.365  1.6923  0.3481 -0.2610
  922MOL0     H27193  10.003   1.717  11.475  1.7893 -1.0829  0.3905
  922MOL0     H27194  10.167   1.611  11.417  0.4607 -0.7680 -0.1883
  922MOL0     H27195  10.442   1.461  11.316 -2.6916 -0.9150 -0.2213
  922MOL0     H27196  10.525   1.566  11.436 -0.0936 -0.8569 -0.4470
  922MOL0     H27197  10.393   1.631  11.337 -0.6599  1.2701  1.3846
  922MOL0     H27198  10.736   1.547  11.600  1.3039 -1.0021 -0.7980
  922MOL0     H27199  10.969   1.592  11.667  0.7424  0.4356  1.0300
  922MOL0     H27200  11.285   1.438  11.937  0.0059 -0.9151 -2.2612
  922MOL0     H27201  11.139   1.413  12.050 -0.0647  0.3978  0.0703
  922MOL0     H27202  11.226   1.211  11.961 -1.2233 -1.4965 -0.5024
  922MOL0     H27203  11.074   1.236  11.874  0.3214 -0.3183  1.1242
  922MOL0     H27204  11.358   1.297  11.761  1.0780 -2.2995  1.4512
  922MOL0     H27205  11.201   1.318  11.670  1.4640 -0.5933 -0.9876
  922MOL0     H27206  11.161   1.075  11.704  0.5728  0.4182  1.5121
  922MOL0     H27207  11.317   1.068  11.784  2.6369  0.3674 -1.7034
  922MOL0     H27208  11.300   1.172  11.497 -1.7413 -1.3377 -1.3787
  922MOL0     H27209  11.443   1.131  11.596  0.1921  0.2892  0.4615
  922MOL0     H27210  11.233   0.921  11.525 -1.7400  1.2130  2.8650
  922MOL0     H27211  11.383   0.907  11.606 -1.7268 -0.7374  0.3199
  922MOL0     H27212  11.520   0.944  11.417  0.7995  0.7088 -1.8156
  922MOL0     H27213  11.390   1.030  11.321  0.0496 -0.0821 -0.3505
  922MOL0     H27214  11.376   0.731  11.406 -0.6549  0.4616 -0.6650
  922MOL0     H27215  11.480   0.786  11.266 -0.5331  1.0287 -0.4770
  922MOL0     H27216  10.913   1.346  12.018 -2.9519 -1.1073  0.5766
  922MOL0     H27217  10.680   1.345  11.981  1.1738 -0.6544 -0.2812
  922MOL0     H27218  10.293   1.341  11.802 -1.1143 -0.5419 -0.1207
  922MOL0     H27219  10.065   1.418  11.769 -1.3226  2.9301 -0.7532
  922MOL0     H27220   8.588   1.946  10.994  0.9005  2.5192 -0.0628
  922MOL0     H27221   8.487   1.874  11.213 -0.0447 -0.1413  5.8642
  922MOL0     H27222   8.485   1.858  11.613 -2.0453  0.4578  2.1746
  922MOL0     H27223   8.390   1.840  11.832 -1.0858  0.2631 -3.4686
  922MOL0     H27224   8.287   1.450  11.963 -2.8196  1.6605  1.1301
  922MOL0     H27225   8.441   1.446  12.064  0.0573 -1.2647 -1.0985
  922MOL0     H27226   8.188   1.468  12.169 -2.2273  2.4075  0.1993
  922MOL0     H27227   8.207   1.636  12.140  2.1781  0.6723  0.2768
  922MOL0     H27228   8.435   1.504  12.294  2.0705  4.9166  1.5425
  922MOL0     H27229   8.369   1.667  12.281 -2.1488  0.9447  1.5692
  922MOL0     H27230   8.326   1.553  12.487  2.2228 -0.0074 -0.7859
  922MOL0     H27231   8.217   1.445  12.417  1.7087 -0.0884 -1.1286
  922MOL0     H27232   7.988   1.799  12.457 -0.3851 -0.0220 -0.8732
  922MOL0     H27233   8.506   1.426  11.850 -2.0266 -0.2192 -0.0882
  922MOL0     H27234   8.582   1.317  11.678  0.0811 -1.0151  1.0812
  922MOL0     H27235   8.605   1.369  11.523  2.7452 -0.9015 -0.8048
  922MOL0     H27236   8.729   1.424  11.630 -1.1298 -1.2716 -0.3040
  923MOL0     O27237   0.358   1.706   0.043 -0.1204 -0.1813  0.0034
  923MOL0     C27238   0.423   1.806  -0.005  0.1775 -0.9411  0.2839
  923MOL0     O27239   0.544   1.794  -0.080  0.4564  0.2069 -0.2352
  923MOL0     C27240   0.596   1.668  -0.087 -0.0847  0.6201  0.4412
  923MOL0     C27241   0.731   1.652  -0.057 -0.7150  0.8738 -1.1491
  923MOL0     C27242   0.787   1.522  -0.064 -0.4275 -0.5120  0.2344
  923MOL0     C27243   0.716   1.410  -0.117 -0.4121 -0.4620  0.1996
  923MOL0     O27244   0.786   1.297  -0.142 -0.1499  0.8858 -0.2471
  923MOL0     C27245   0.748   1.219  -0.260  0.3796  0.3041  0.1217
  923MOL0     C27246   0.807   1.079  -0.284  0.2976  0.1276 -0.4534
  923MOL0     C27247   0.939   1.088  -0.364  0.2389  0.4926  0.0593
  923MOL0     C27248   1.012   0.947  -0.380  0.5022  0.8795  0.5686
  923MOL0     C27249   1.116   0.944  -0.488 -0.8467  0.0531  0.7030
  923MOL0     C27250   1.235   1.030  -0.450 -0.5970  0.0126  0.2191
  923MOL0     C27251   1.333   1.017  -0.574  0.2170 -0.4550 -0.5366
  923MOL0     C27252   1.481   1.051  -0.529 -0.0658  0.2255  0.9634
  923MOL0     N27253   1.577   1.060  -0.642 -0.2480  0.0403 -0.3823
  923MOL0     C27254   1.582   0.977  -0.750 -0.8948 -0.4479 -0.0479
  923MOL0     C27255   1.703   1.008  -0.810 -0.8283  0.2354 -0.2275
  923MOL0     C27256   1.776   0.938  -0.923 -0.5772  0.1942  0.6354
  923MOL0     C27257   1.859   0.828  -0.879 -0.3174  0.1873 -0.4180
  923MOL0     C27258   1.925   0.747  -0.997 -0.0094 -0.0776  0.4971
  923MOL0     C27259   2.008   0.629  -0.948  0.2444  0.7566 -0.9802
  923MOL0     O27260   2.136   0.670  -0.898  0.2900  0.1051 -0.0791
  923MOL0     C27261   2.220   0.568  -0.883 -0.4861  0.4837 -0.3131
  923MOL0     C27262   2.348   0.627  -0.860 -0.2210  0.4978  0.5151
  923MOL0     C27263   2.460   0.554  -0.836  0.5245  0.8951  0.0266
  923MOL0     C27264   2.583   0.624  -0.822  0.1190 -0.2681  0.8651
  923MOL0     C27265   2.444   0.411  -0.819  0.1751  0.5530 -0.4305
  923MOL0     C27266   2.550   0.313  -0.796 -0.0053  0.4082 -0.9184
  923MOL0     O27267   2.677   0.350  -0.828 -1.3478 -0.4534 -0.4289
  923MOL0     C27268   2.783   0.276  -0.818 -0.8706  0.1974  0.0921
  923MOL0     C27269   2.866   0.309  -0.703  0.1800  0.2945  0.7949
  923MOL0     C27270   2.984   0.243  -0.690  0.0372  0.3000 -0.9581
  923MOL0     C27271   3.029   0.148  -0.775 -0.1238  0.1112 -0.6350
  923MOL0     O27272   3.148   0.092  -0.750 -0.8186  0.6732  0.4269
  923MOL0     C27273   3.206  -0.015  -0.832  0.7149 -1.0335  0.9615
  923MOL0     C27274   3.280  -0.113  -0.753 -0.3272 -0.4281  0.2672
  923MOL0     C27275   3.414  -0.066  -0.716 -0.7461  0.0240  0.5316
  923MOL0     C27276   3.510  -0.088  -0.836  0.1228 -0.0529 -0.6693
  923MOL0     C27277   3.635  -0.013  -0.831  0.1390  0.0296 -0.2447
  923MOL0     C27278   3.720  -0.046  -0.702  0.8912  0.7494  0.0634
  923MOL0     C27279   3.862   0.013  -0.704  0.1156  0.3268 -0.7268
  923MOL0     C27280   3.938  -0.020  -0.570  0.1327 -0.3579  0.4395
  923MOL0    Cl27281   4.121  -0.040  -0.598  0.0051 -0.1411  0.0324
  923MOL0     C27282   2.951   0.116  -0.881  0.2826  0.1180  0.3105
  923MOL0     C27283   2.824   0.177  -0.900  0.7670 -0.0475  0.0064
  923MOL0     O27284   2.521   0.210  -0.733 -0.9200 -1.0153  0.3009
  923MOL0     C27285   2.315   0.356  -0.830  0.6547 -0.9549  0.6827
  923MOL0     C27286   2.203   0.429  -0.863  0.7211  0.1372 -0.1801
  923MOL0     N27287   1.760   1.118  -0.745 -0.1481  0.0662 -0.2964
  923MOL0     N27288   1.683   1.147  -0.642 -0.0769 -0.5789  0.3769
  923MOL0     C27289   0.581   1.435  -0.163 -0.6653 -0.5106  0.0638
  923MOL0     C27290   0.520   1.563  -0.146 -0.7137 -0.6732 -0.5637
  923MOL0     C27291   0.365   1.940   0.014  0.5460 -0.9343  0.1392
  923MOL0     C27292   0.450   2.045   0.005 -0.3043 -0.4904 -0.7822
  923MOL0     C27293   0.411   2.177   0.004  0.5437 -0.4201  0.5822
  923MOL0     C27294   0.276   2.214   0.024  0.6986 -0.4375 -0.6252
  923MOL0     O27295   0.217   2.339   0.030  0.1455  0.0943 -0.4200
  923MOL0     C27296   0.300   2.455   0.014 -0.4606  1.0074 -0.3134
  923MOL0     C27297   0.222   2.566  -0.054  0.4123 -0.0619 -0.2076
  923MOL0     C27298   0.216   2.527  -0.202 -0.3051 -0.1162  0.1669
  923MOL0     C27299   0.134   2.625  -0.284  0.2208 -0.2890 -0.3845
  923MOL0     C27300  -0.002   2.616  -0.241 -0.4943 -0.2777 -0.3624
  923MOL0     C27301  -0.112   2.610  -0.180 -0.3704  0.2486  0.4745
  923MOL0     C27302   0.196   2.107   0.052  0.7386 -0.3399 -0.5911
  923MOL0     C27303   0.236   1.970   0.057  0.5179  0.6801  0.1834
  923MOL0     C27304   0.129   1.872   0.083  0.0837  0.5500 -0.8803
  923MOL0     H27305   0.783   1.744  -0.034  0.3241 -0.5546  3.0527
  923MOL0     H27306   0.892   1.512  -0.037 -0.6682 -2.4108  0.6068
  923MOL0     H27307   0.750   1.284  -0.348 -1.1124  0.6482  0.3112
  923MOL0     H27308   0.641   1.198  -0.259  0.1362  1.0776  3.9911
  923MOL0     H27309   0.840   1.034  -0.190  0.8448 -0.0280 -0.7200
  923MOL0     H27310   0.736   1.008  -0.328  1.5183 -1.6690  0.3448
  923MOL0     H27311   0.929   1.142  -0.458 -0.5221  0.8034  0.3079
  923MOL0     H27312   1.008   1.141  -0.298  0.3975  0.8112 -0.3612
  923MOL0     H27313   1.065   0.926  -0.287  0.6687 -0.8386  0.1138
  923MOL0     H27314   0.943   0.865  -0.399  2.0136 -0.4971  0.8794
  923MOL0     H27315   1.087   0.990  -0.583  2.5755  0.4780 -0.2673
  923MOL0     H27316   1.147   0.843  -0.515  2.3822  0.6857  1.5913
  923MOL0     H27317   1.214   1.132  -0.416 -1.2063 -0.6195  1.8629
  923MOL0     H27318   1.274   0.977  -0.362 -1.3540  0.5749  0.9117
  923MOL0     H27319   1.306   1.089  -0.652  1.4902  2.3446  1.3896
  923MOL0     H27320   1.331   0.917  -0.618 -0.1537 -0.2445 -1.0037
  923MOL0     H27321   1.476   1.151  -0.483 -0.7347 -0.0450  1.5011
  923MOL0     H27322   1.528   0.976  -0.464 -1.5983 -1.5908  0.0643
  923MOL0     H27323   1.513   0.898  -0.776  1.3156 -2.5465  0.1099
  923MOL0     H27324   1.837   1.009  -0.978 -1.5089  0.1847 -0.4580
  923MOL0     H27325   1.697   0.909  -0.993 -2.7033  0.7616  2.6366
  923MOL0     H27326   1.941   0.863  -0.816 -1.9228  0.6985  1.4941
  923MOL0     H27327   1.805   0.756  -0.817  1.1115 -0.4747  0.0805
  923MOL0     H27328   1.849   0.704  -1.063  0.8684 -0.7818 -0.0712
  923MOL0     H27329   1.989   0.820  -1.046 -0.6584 -0.6668 -1.3281
  923MOL0     H27330   1.947   0.588  -0.867 -1.0735 -0.3551 -2.4762
  923MOL0     H27331   2.019   0.558  -1.031 -1.7994 -1.0954  0.2349
  923MOL0     H27332   2.361   0.734  -0.876 -2.6911  0.6145 -1.4725
  923MOL0     H27333   2.633   0.608  -0.918 -0.1161 -0.4681  0.7715
  923MOL0     H27334   2.650   0.585  -0.745 -0.9050 -1.2063  1.3216
  923MOL0     H27335   2.566   0.731  -0.805 -2.5567 -0.5891  0.6449
  923MOL0     H27336   2.832   0.388  -0.637  0.6155  0.9238  0.2755
  923MOL0     H27337   3.038   0.267  -0.599  0.0704  2.2113 -1.4557
  923MOL0     H27338   3.124  -0.068  -0.881  0.3451 -0.2501  0.7037
  923MOL0     H27339   3.260   0.034  -0.914  1.6869 -1.8386  1.1189
  923MOL0     H27340   3.221  -0.140  -0.665  2.8909 -1.0507  2.4207
  923MOL0     H27341   3.288  -0.201  -0.817  2.0235 -1.0784  1.3466
  923MOL0     H27342   3.451  -0.116  -0.626 -1.9440  0.5661  1.3572
  923MOL0     H27343   3.407   0.041  -0.694 -0.9758  0.6550 -2.2035
  923MOL0     H27344   3.458  -0.068  -0.931 -0.2723 -0.8018 -0.6155
  923MOL0     H27345   3.544  -0.192  -0.841  0.5878  0.1207 -1.4097
  923MOL0     H27346   3.698  -0.013  -0.921 -0.1068 -2.0418 -0.4691
  923MOL0     H27347   3.609   0.093  -0.833  0.3846  0.0838 -0.6616
  923MOL0     H27348   3.720  -0.152  -0.679 -0.2954  0.6528 -0.2923
  923MOL0     H27349   3.664   0.001  -0.620 -1.3957  0.3607 -1.1857
  923MOL0     H27350   3.859   0.119  -0.731  0.3523  0.2429 -1.1022
  923MOL0     H27351   3.911  -0.035  -0.789  1.9199  1.3101 -0.3051
  923MOL0     H27352   3.898  -0.110  -0.522 -1.0115  0.7350  1.6122
  923MOL0     H27353   3.927   0.056  -0.493 -0.9422 -0.0046 -0.0462
  923MOL0     H27354   2.968   0.036  -0.952 -0.3721 -0.9081  1.2822
  923MOL0     H27355   2.768   0.156  -0.990  0.5364  2.9411 -0.6594
  923MOL0     H27356   2.300   0.248  -0.821 -0.7072 -0.8295  0.1776
  923MOL0     H27357   2.110   0.374  -0.870  0.8166  0.1403 -1.6558
  923MOL0     H27358   0.523   1.354  -0.205 -0.1413 -1.4398  1.0921
  923MOL0     H27359   0.422   1.593  -0.180  0.7793  3.6794 -1.6676
  923MOL0     H27360   0.556   2.039  -0.018 -0.2758  0.5019 -0.9551
  923MOL0     H27361   0.483   2.257  -0.011  1.3138 -0.7727  2.1582
  923MOL0     H27362   0.325   2.488   0.115 -3.3298  0.3495  0.7063
  923MOL0     H27363   0.392   2.431  -0.040 -2.2386 -1.1475 -2.6183
  923MOL0     H27364   0.266   2.664  -0.034  0.9550 -0.1276 -1.0313
  923MOL0     H27365   0.121   2.577  -0.013  0.4551 -0.9283  0.1579
  923MOL0     H27366   0.318   2.523  -0.241 -0.1244 -1.3074  0.7073
  923MOL0     H27367   0.177   2.429  -0.231 -0.6985  0.1792 -0.3165
  923MOL0     H27368   0.136   2.601  -0.391 -0.1145 -1.6014 -0.1142
  923MOL0     H27369   0.172   2.727  -0.269 -3.8534  1.2421  0.6799
  923MOL0     H27370  -0.206   2.614  -0.128 -1.8978  1.9319 -2.2334
  923MOL0     H27371   0.095   2.135   0.077  0.3036 -3.1948  1.2778
  923MOL0     H27372   0.042   1.935   0.106 -1.6562 -0.0981 -4.9287
  923MOL0     H27373   0.105   1.820  -0.010  2.2771 -0.3328 -0.9967
  923MOL0     H27374   0.148   1.801   0.164 -0.8316  2.1813  0.8881
  924MOL0     O27375   3.703  10.252   6.384 -0.5031 -0.3803 -0.6847
  924MOL0     C27376   3.734  10.317   6.282  0.4920  0.7450  0.1790
  924MOL0     O27377   3.849  10.380   6.273 -1.1272 -0.2400  0.0056
  924MOL0     C27378   3.932  10.414   6.383  0.6891  1.2072  0.0120
  924MOL0     C27379   3.896  10.424   6.518  0.7276  0.2660  0.8483
  924MOL0     C27380   3.988  10.476   6.612  0.3020  0.1416 -0.4626
  924MOL0     C27381   4.123  10.497   6.578 -0.0098 -0.4880  0.6724
  924MOL0     O27382   4.218  10.513   6.683  0.3275 -0.6587 -0.0974
  924MOL0     C27383   4.331  10.429   6.676 -0.1730 -0.8200  0.0278
  924MOL0     C27384   4.432  10.460   6.791  0.1475  1.1816 -1.1922
  924MOL0     C27385   4.539  10.356   6.789  0.3449  0.7837 -0.4334
  924MOL0     C27386   4.654  10.401   6.893  0.4355 -0.8748 -0.4323
  924MOL0     C27387   4.762  10.291   6.909  0.6597 -0.7077 -0.1583
  924MOL0     C27388   4.895  10.348   6.966  0.5912  0.8288  0.2867
  924MOL0     C27389   4.896  10.389   7.113  0.4838 -0.0849 -0.4133
  924MOL0     C27390   4.858  10.288   7.216  0.1744 -0.1051  0.6047
  924MOL0     N27391   4.936  10.166   7.218  0.4944 -0.3100  0.5136
  924MOL0     C27392   5.056  10.162   7.283 -0.3244  0.7874 -0.3907
  924MOL0     C27393   5.070  10.037   7.326  0.2336  0.8899  0.1221
  924MOL0     C27394   5.185   9.992   7.414 -0.5928 -0.6090  0.2433
  924MOL0     C27395   5.318  10.000   7.340 -0.3954 -0.5760 -0.0205
  924MOL0     C27396   5.329   9.869   7.249  0.1376  0.1500 -0.8269
  924MOL0     C27397   5.438   9.882   7.138  0.9244 -0.0253  0.5182
  924MOL0     O27398   5.542   9.968   7.193  0.2754  0.2585  0.9182
  924MOL0     C27399   5.665   9.952   7.132 -0.3160  0.2410 -0.3436
  924MOL0     C27400   5.739  10.068   7.087 -0.1682  0.1302  0.0257
  924MOL0     C27401   5.867  10.057   7.020  1.0897 -0.2501  0.2504
  924MOL0     C27402   5.941  10.177   6.943  0.4177  0.0333 -0.9150
  924MOL0     C27403   5.932   9.929   7.023  0.1497  0.0175 -0.0157
  924MOL0     C27404   6.070   9.908   6.978  0.4816 -0.3084  0.0988
  924MOL0     O27405   6.158  10.013   7.010  0.4624 -0.2192  0.3632
  924MOL0     C27406   6.294  10.016   6.979  0.1140 -0.2886  0.7642
  924MOL0     C27407   6.384  10.092   7.056 -0.4017  0.3163  0.2731
  924MOL0     C27408   6.522  10.081   7.034  0.0671 -1.1616  0.3734
  924MOL0     C27409   6.556  10.016   6.918  0.4853  0.4474  0.1609
  924MOL0     O27410   6.685  10.004   6.875 -0.0022  0.0337 -0.2615
  924MOL0     C27411   6.779   9.928   6.958  0.3142 -0.1326  0.3801
  924MOL0     C27412   6.885   9.877   6.859 -0.9211  0.1811  0.4599
  924MOL0     C27413   6.831   9.789   6.759  0.1271 -0.2219 -0.0173
  924MOL0     C27414   6.937   9.690   6.718 -0.1186  0.2780 -0.3405
  924MOL0     C27415   6.891   9.616   6.603  1.0160 -0.7771  0.4184
  924MOL0     C27416   6.988   9.518   6.554  0.4851  0.3000  0.3602
  924MOL0     C27417   6.927   9.431   6.444 -0.9926  0.0420  0.6413
  924MOL0     C27418   6.975   9.451   6.302 -0.0391 -0.3622  0.3187
  924MOL0    Cl27419   7.135   9.387   6.307 -0.3168 -0.3221  0.1748
  924MOL0     C27420   6.475   9.956   6.833  0.5320  0.6641  0.4672
  924MOL0     C27421   6.340   9.948   6.865 -1.0339 -0.0721 -0.7252
  924MOL0     O27422   6.105   9.792   6.951  0.3815 -0.7165  0.1372
  924MOL0     C27423   5.856   9.817   7.069 -0.1288 -0.2799  0.3448
  924MOL0     C27424   5.731   9.823   7.118 -0.1180 -1.2154  0.9290
  924MOL0     N27425   4.956   9.970   7.281 -0.6769 -0.3034  0.1332
  924MOL0     N27426   4.877  10.044   7.221 -0.0487  0.0792  0.2257
  924MOL0     C27427   4.153  10.483   6.447 -0.4832  0.3634  0.4670
  924MOL0     C27428   4.062  10.444   6.351  0.2119  0.3568 -0.2367
  924MOL0     C27429   3.636  10.299   6.159  0.0679 -0.5278  0.3507
  924MOL0     C27430   3.514  10.227   6.171  0.1093 -0.3357  0.1261
  924MOL0     C27431   3.431  10.202   6.060  0.0234 -0.0627 -0.1789
  924MOL0     C27432   3.462  10.244   5.928  0.0337 -0.2604  0.5294
  924MOL0     O27433   3.376  10.246   5.823 -0.5941  0.2862  0.1203
  924MOL0     C27434   3.261  10.164   5.825 -0.3263 -0.2189  0.0934
  924MOL0     C27435   3.190  10.158   5.682  0.7018  0.5255 -0.7994
  924MOL0     C27436   3.168  10.289   5.600  0.0516  0.1639  0.4473
  924MOL0     C27437   3.099  10.408   5.672  0.8443  0.0665  0.6515
  924MOL0     C27438   2.964  10.351   5.698  0.3417  0.3187 -0.7958
  924MOL0     C27439   2.862  10.304   5.735  0.7884  0.0158 -0.1330
  924MOL0     C27440   3.584  10.314   5.917  0.3109 -0.1961  0.4711
  924MOL0     C27441   3.671  10.339   6.027  0.1364  0.4134 -0.0207
  924MOL0     C27442   3.794  10.422   6.013 -0.1595 -0.0194  0.9163
  924MOL0     H27443   3.793  10.397   6.538  0.6792 -0.4277 -0.2114
  924MOL0     H27444   3.958  10.476   6.716  0.7652  1.4782 -0.3086
  924MOL0     H27445   4.378  10.432   6.577  0.5760 -3.7559  0.2129
  924MOL0     H27446   4.286  10.331   6.694 -1.1884 -0.4387 -0.3347
  924MOL0     H27447   4.477  10.557   6.767  1.3188  0.6471 -1.2149
  924MOL0     H27448   4.366  10.459   6.878 -0.3857  1.6714 -1.5891
  924MOL0     H27449   4.505  10.258   6.823 -2.7296  1.2661 -1.7946
  924MOL0     H27450   4.572  10.340   6.686 -0.8257  1.2660 -0.8983
  924MOL0     H27451   4.699  10.499   6.872 -1.3989 -0.1591 -1.2599
  924MOL0     H27452   4.606  10.417   6.990  0.1459 -1.1279 -0.5333
  924MOL0     H27453   4.780  10.252   6.808  1.4218 -0.9590  0.0711
  924MOL0     H27454   4.731  10.205   6.969 -2.7258  1.7334  1.9886
  924MOL0     H27455   4.961  10.262   6.950  2.2468  2.2358 -1.0062
  924MOL0     H27456   4.943  10.428   6.908  1.3983 -1.2148 -2.0170
  924MOL0     H27457   4.831  10.476   7.125  0.0350 -0.4505 -0.1775
  924MOL0     H27458   4.998  10.424   7.131  1.3134 -3.3051  2.0919
  924MOL0     H27459   4.861  10.327   7.318  0.4124 -0.3426  0.6906
  924MOL0     H27460   4.762  10.245   7.187  1.3728 -1.7550 -1.1477
  924MOL0     H27461   5.128  10.241   7.302 -0.9621  2.2047 -3.2776
  924MOL0     H27462   5.174   9.885   7.431 -0.1848 -0.9813 -1.5841
  924MOL0     H27463   5.190  10.042   7.511 -0.8862  1.8221 -0.9065
  924MOL0     H27464   5.321  10.089   7.277  2.0064 -1.3684 -1.1461
  924MOL0     H27465   5.400  10.012   7.411  1.0236 -0.2547 -1.6357
  924MOL0     H27466   5.347   9.778   7.307  0.8113 -0.1404 -1.4723
  924MOL0     H27467   5.236   9.851   7.195  0.3938 -3.8711 -0.1962
  924MOL0     H27468   5.470   9.781   7.110 -1.1952 -0.3874 -0.8797
  924MOL0     H27469   5.396   9.929   7.049  1.7201  2.2871  1.2962
  924MOL0     H27470   5.693  10.167   7.087 -2.1239 -0.7344 -0.9727
  924MOL0     H27471   6.015  10.225   7.008  1.9858 -1.3347 -1.6287
  924MOL0     H27472   5.876  10.256   6.905 -0.6246 -1.2933 -1.9963
  924MOL0     H27473   5.988  10.148   6.849  0.6340  1.6723 -1.3347
  924MOL0     H27474   6.346  10.163   7.130  2.5029  3.0419 -0.6214
  924MOL0     H27475   6.605  10.121   7.092  1.0372 -1.0369 -1.0581
  924MOL0     H27476   6.823   9.996   7.031 -0.8094  2.9925 -1.6478
  924MOL0     H27477   6.730   9.846   7.011 -0.1673  0.5048  0.9239
  924MOL0     H27478   6.938   9.965   6.824 -0.4607  0.4210  1.7035
  924MOL0     H27479   6.968   9.829   6.911  0.7215  2.3995 -0.0036
  924MOL0     H27480   6.801   9.850   6.673  2.5983  0.8237 -0.2150
  924MOL0     H27481   6.744   9.738   6.801  1.7863 -2.9904  0.2839
  924MOL0     H27482   6.948   9.623   6.804 -0.2193  3.4350  2.3397
  924MOL0     H27483   7.030   9.743   6.695  0.3164  0.3926  1.5208
  924MOL0     H27484   6.803   9.566   6.644  2.0041 -3.4843 -0.5580
  924MOL0     H27485   6.868   9.691   6.527  1.2283 -2.8720 -1.8177
  924MOL0     H27486   7.028   9.456   6.635 -1.1206  0.3007  1.1862
  924MOL0     H27487   7.063   9.577   6.500  1.2106  1.1999  2.2463
  924MOL0     H27488   6.818   9.437   6.440 -0.9491  0.4883 -1.9060
  924MOL0     H27489   6.936   9.326   6.470 -1.1420  0.3834  2.1427
  924MOL0     H27490   6.972   9.557   6.274  1.8626 -0.6282 -1.0493
  924MOL0     H27491   6.916   9.396   6.227  0.7727 -0.5573 -0.1859
  924MOL0     H27492   6.529   9.911   6.750 -0.2172 -1.9023  1.2524
  924MOL0     H27493   6.270   9.893   6.802 -1.1334  0.1868 -0.8416
  924MOL0     H27494   5.898   9.717   7.073 -3.0258 -1.6247 -0.6456
  924MOL0     H27495   5.688   9.727   7.146  0.3642 -0.9711  2.6452
  924MOL0     H27496   4.257  10.494   6.416 -0.4243 -1.8500 -0.2831
  924MOL0     H27497   4.103  10.415   6.255  1.9479 -3.4202  1.4412
  924MOL0     H27498   3.477  10.198   6.269 -2.1239  2.6365  0.3039
  924MOL0     H27499   3.332  10.160   6.076  0.6167 -1.4640  0.0161
  924MOL0     H27500   3.279  10.062   5.859  0.6102  0.1682  0.8219
  924MOL0     H27501   3.196  10.215   5.896 -1.7795 -0.3440 -1.1120
  924MOL0     H27502   3.092  10.114   5.703  1.5172 -0.8808  0.1940
  924MOL0     H27503   3.259  10.098   5.623 -0.5568 -0.0116 -1.7733
  924MOL0     H27504   3.264  10.334   5.575 -0.3923  0.1817 -1.3767
  924MOL0     H27505   3.125  10.262   5.503  0.9928 -0.1384  0.1060
  924MOL0     H27506   3.093  10.502   5.617  1.6702 -0.2663 -0.0244
  924MOL0     H27507   3.160  10.430   5.760 -0.5968 -1.6489  2.1574
  924MOL0     H27508   2.778  10.263   5.787 -0.5566  3.0219  0.3072
  924MOL0     H27509   3.613  10.348   5.818  2.0897  0.9089  1.3103
  924MOL0     H27510   3.881  10.360   6.038  0.8211 -0.1161 -2.2779
  924MOL0     H27511   3.808  10.445   5.907 -0.2916  1.0967  1.1343
  924MOL0     H27512   3.793  10.517   6.067  1.3551  1.3097 -1.2481
  925MOL0     O27513   9.057   5.312   1.349 -0.3756 -0.2800  0.2046
  925MOL0     C27514   8.986   5.375   1.281 -0.4936 -1.3972 -0.7331
  925MOL0     O27515   9.018   5.420   1.152  0.4302 -0.7893 -0.2462
  925MOL0     C27516   9.150   5.412   1.109  0.6809  0.6619 -0.2315
  925MOL0     C27517   9.204   5.289   1.082  0.1489 -0.3753  0.0963
  925MOL0     C27518   9.331   5.275   1.024  0.7749 -0.4339 -0.0477
  925MOL0     C27519   9.417   5.387   1.020  0.1908 -0.3758 -0.7571
  925MOL0     O27520   9.547   5.365   0.977 -0.0197 -0.0158 -0.2249
  925MOL0     C27521   9.647   5.463   0.997  0.3582  0.5162  0.6749
  925MOL0     C27522   9.775   5.414   0.934 -0.1244  0.0537  0.1864
  925MOL0     C27523   9.768   5.375   0.787 -0.8466 -0.0150 -0.7363
  925MOL0     C27524   9.913   5.343   0.746 -0.0006  0.1997  0.0955
  925MOL0     C27525   9.919   5.294   0.605 -0.0358 -0.5298 -0.1513
  925MOL0     C27526  10.060   5.253   0.563 -0.9096 -0.7011 -0.7355
  925MOL0     C27527  10.081   5.195   0.418 -0.7547 -0.6653  0.6373
  925MOL0     C27528  10.228   5.174   0.400  0.7091 -0.5367  0.1660
  925MOL0     N27529  10.303   5.297   0.380  0.3243 -0.1089 -0.2282
  925MOL0     C27530  10.309   5.350   0.248  0.0802 -1.2360 -0.1084
  925MOL0     C27531  10.370   5.474   0.266  0.0116  0.0382  0.6189
  925MOL0     C27532  10.414   5.574   0.160  0.6389  0.4033 -0.4369
  925MOL0     C27533  10.547   5.640   0.203 -0.0128  0.3962  0.7833
  925MOL0     C27534  10.662   5.546   0.186 -0.3743  0.0963  0.0721
  925MOL0     C27535  10.707   5.532   0.037 -0.6936 -0.4717  0.7101
  925MOL0     O27536  10.807   5.429   0.037 -0.5890  0.4343  0.1769
  925MOL0     C27537  10.911   5.467  -0.026  0.1630 -0.8617  0.5962
  925MOL0     C27538  10.943   5.461  -0.166 -0.9248 -1.2256  0.3307
  925MOL0     C27539  11.074   5.489  -0.213  0.4044 -0.6144  0.8763
  925MOL0     C27540  11.094   5.486  -0.364 -0.7611  0.1053  0.6217
  925MOL0     C27541  11.176   5.522  -0.119 -1.1293  0.2738  0.2513
  925MOL0     C27542  11.315   5.553  -0.157 -0.0868  0.1966 -0.1370
  925MOL0     O27543  11.379   5.447  -0.224  0.4288  0.3836 -0.1474
  925MOL0     C27544  11.508   5.464  -0.261 -0.6672  0.5693 -0.2005
  925MOL0     C27545  11.541   5.505  -0.396  0.3118 -0.8235 -0.2726
  925MOL0     C27546  11.674   5.502  -0.443  0.5211 -0.0706  0.0611
  925MOL0     C27547  11.778   5.455  -0.367  0.2546  0.9224 -0.0028
  925MOL0     O27548  11.899   5.417  -0.414 -0.2217 -0.0568  0.5453
  925MOL0     C27549  11.947   5.473  -0.536 -0.2972  0.1234 -0.5042
  925MOL0     C27550  12.079   5.409  -0.577 -0.0622 -0.6874 -0.0599
  925MOL0     C27551  12.200   5.446  -0.477 -0.0636 -0.3866 -0.1565
  925MOL0     C27552  12.322   5.358  -0.505  0.1492  0.1435  0.0057
  925MOL0     C27553  12.456   5.392  -0.446  1.5409 -0.5413  0.0874
  925MOL0     C27554  12.455   5.418  -0.302  0.6814  0.6907  0.5444
  925MOL0     C27555  12.595   5.430  -0.240 -0.4219  0.0139 -0.1796
  925MOL0     C27556  12.688   5.540  -0.303  0.5669  0.2752  0.3714
  925MOL0    Cl27557  12.834   5.563  -0.199 -0.8678 -0.0748 -0.5049
  925MOL0     C27558  11.747   5.402  -0.238 -0.8759  0.0679  0.3630
  925MOL0     C27559  11.618   5.409  -0.182  0.5185  0.7280  0.7771
  925MOL0     O27560  11.376   5.646  -0.097 -0.5194 -0.2069 -0.0759
  925MOL0     C27561  11.138   5.530   0.014 -0.3518  0.2905 -0.8208
  925MOL0     C27562  11.009   5.512   0.060 -0.6782 -1.3085  0.4204
  925MOL0     N27563  10.396   5.482   0.399 -0.3040  0.8000  0.6512
  925MOL0     N27564  10.357   5.381   0.466  1.7061  0.0724 -0.8704
  925MOL0     C27565   9.367   5.514   1.055 -0.0019  0.2039 -0.3043
  925MOL0     C27566   9.232   5.521   1.096  0.7613  0.1689  0.2190
  925MOL0     C27567   8.840   5.390   1.321  0.2666 -0.1065  0.0093
  925MOL0     C27568   8.739   5.389   1.214 -0.0531 -0.3447  0.5664
  925MOL0     C27569   8.602   5.402   1.253  0.3479 -0.4554 -0.2241
  925MOL0     C27570   8.566   5.421   1.389  0.6451  0.7151 -0.6370
  925MOL0     O27571   8.438   5.446   1.438  0.7962 -0.5013  0.1701
  925MOL0     C27572   8.328   5.448   1.342 -0.2087  0.7957  0.3283
  925MOL0     C27573   8.327   5.587   1.291  0.3955 -0.4520  0.0530
  925MOL0     C27574   8.231   5.675   1.377  0.1539  0.9748 -0.1721
  925MOL0     C27575   8.237   5.823   1.347 -0.0374 -0.4035 -0.3278
  925MOL0     C27576   8.372   5.875   1.362  0.1681  0.1485 -0.0468
  925MOL0     C27577   8.483   5.920   1.375  0.3638  0.5185 -0.6223
  925MOL0     C27578   8.668   5.425   1.484 -0.6328 -0.4868  0.6354
  925MOL0     C27579   8.801   5.421   1.448  0.1376 -0.7685 -0.4183
  925MOL0     C27580   8.897   5.435   1.569  0.0904  0.2281  0.0590
  925MOL0     H27581   9.134   5.206   1.083 -0.3756 -0.0469 -2.5092
  925MOL0     H27582   9.375   5.188   0.977  1.7696  0.1637 -0.2659
  925MOL0     H27583   9.666   5.487   1.102  2.6691  0.8354  0.2397
  925MOL0     H27584   9.610   5.545   0.935 -1.6550 -0.8367 -0.0002
  925MOL0     H27585   9.842   5.500   0.948  1.8272 -1.7842  3.3264
  925MOL0     H27586   9.815   5.332   0.994 -1.4386 -1.1337 -0.4935
  925MOL0     H27587   9.713   5.281   0.780 -0.6214 -0.5640  2.8687
  925MOL0     H27588   9.730   5.450   0.717  0.4263  2.3543  0.9594
  925MOL0     H27589   9.975   5.434   0.746  0.7889 -0.3137  1.7259
  925MOL0     H27590   9.952   5.270   0.817 -0.1606  0.0392  0.0185
  925MOL0     H27591   9.890   5.369   0.531  2.9477 -1.0954 -2.0538
  925MOL0     H27592   9.847   5.213   0.586 -1.5348  0.7471 -0.0896
  925MOL0     H27593  10.129   5.336   0.580 -0.9364 -0.5312 -1.4181
  925MOL0     H27594  10.093   5.171   0.626 -1.0155 -0.3032 -0.1534
  925MOL0     H27595  10.039   5.270   0.350 -0.2685 -1.0835 -0.1333
  925MOL0     H27596  10.032   5.098   0.407 -2.0682  0.0319  0.1070
  925MOL0     H27597  10.268   5.121   0.487 -1.4483 -0.3449  1.3410
  925MOL0     H27598  10.227   5.122   0.304 -0.4399  2.6187 -1.6839
  925MOL0     H27599  10.290   5.311   0.149 -3.7848 -0.1595  0.0070
  925MOL0     H27600  10.332   5.645   0.148 -0.6438 -1.4283 -4.0474
  925MOL0     H27601  10.428   5.520   0.065 -0.5392 -0.6825 -0.0203
  925MOL0     H27602  10.565   5.728   0.140 -0.9133 -1.1448 -1.8058
  925MOL0     H27603  10.534   5.682   0.303 -2.6542  0.4205  0.4984
  925MOL0     H27604  10.741   5.600   0.238 -0.5087 -0.6884  1.1240
  925MOL0     H27605  10.648   5.450   0.236 -1.2791  0.5413  0.7086
  925MOL0     H27606  10.620   5.493  -0.017 -0.6167  1.6820 -1.1266
  925MOL0     H27607  10.740   5.624  -0.014  0.2632 -1.7061 -1.0155
  925MOL0     H27608  10.859   5.427  -0.226 -0.6428 -0.4782 -0.5023
  925MOL0     H27609  11.102   5.383  -0.398 -0.1194 -0.6388  2.8438
  925MOL0     H27610  11.179   5.546  -0.399  0.3199 -0.3542  2.3238
  925MOL0     H27611  11.001   5.530  -0.401 -1.1699 -1.5429 -0.3623
  925MOL0     H27612  11.468   5.542  -0.468 -1.0494  0.2534  1.5904
  925MOL0     H27613  11.695   5.536  -0.544  1.3519 -1.9952 -0.4640
  925MOL0     H27614  11.868   5.454  -0.608 -1.5793 -1.9507  1.3348
  925MOL0     H27615  11.964   5.577  -0.507  2.6799 -0.4247  0.0673
  925MOL0     H27616  12.047   5.306  -0.593 -2.3856 -0.0727  0.1974
  925MOL0     H27617  12.111   5.448  -0.674 -1.2969 -0.5182 -0.4210
  925MOL0     H27618  12.187   5.440  -0.369 -2.0914 -2.7041 -0.4461
  925MOL0     H27619  12.222   5.551  -0.499 -0.4953  0.1030  1.5873
  925MOL0     H27620  12.327   5.353  -0.614 -0.3734  2.9398 -0.2077
  925MOL0     H27621  12.306   5.255  -0.471  1.7096 -1.0339 -2.5988
  925MOL0     H27622  12.532   5.316  -0.465  4.1190  2.5477 -3.5241
  925MOL0     H27623  12.496   5.478  -0.501 -0.6318 -1.7327 -3.7467
  925MOL0     H27624  12.414   5.331  -0.250  2.1197 -1.3375 -1.5230
  925MOL0     H27625  12.406   5.512  -0.275  3.5063  2.1966  0.8037
  925MOL0     H27626  12.647   5.334  -0.243  0.2497  0.2950  1.4679
  925MOL0     H27627  12.576   5.462  -0.137  0.4443 -0.8858  0.2680
  925MOL0     H27628  12.635   5.636  -0.305 -3.6005 -1.8052 -2.2491
  925MOL0     H27629  12.714   5.507  -0.404  0.2410  4.3386 -1.2233
  925MOL0     H27630  11.826   5.337  -0.202 -2.5428 -1.0290  2.3103
  925MOL0     H27631  11.595   5.363  -0.087 -2.4674 -0.6347 -0.4757
  925MOL0     H27632  11.212   5.568   0.084 -1.4059 -1.1896  1.2096
  925MOL0     H27633  10.987   5.515   0.166 -0.7627  1.3584  0.3880
  925MOL0     H27634   9.434   5.599   1.054  0.7487 -0.3780 -1.1336
  925MOL0     H27635   9.201   5.617   1.135 -1.7329 -0.4074 -0.1861
  925MOL0     H27636   8.771   5.376   1.111 -0.1413 -0.9210  0.6109
  925MOL0     H27637   8.530   5.406   1.172  1.0526 -2.3442 -0.9996
  925MOL0     H27638   8.355   5.375   1.265  0.8572  0.5521  0.9152
  925MOL0     H27639   8.230   5.427   1.384 -0.3048 -0.0180 -0.2852
  925MOL0     H27640   8.289   5.582   1.188 -0.7688  1.5799  0.3329
  925MOL0     H27641   8.423   5.637   1.282  0.4468 -0.2395  1.5513
  925MOL0     H27642   8.130   5.639   1.357  1.3342 -2.4745 -0.5072
  925MOL0     H27643   8.264   5.668   1.481  0.1676 -2.0852 -0.3049
  925MOL0     H27644   8.179   5.877   1.422  2.4086 -0.4104  1.6976
  925MOL0     H27645   8.187   5.836   1.251 -1.3440 -2.4270  0.0286
  925MOL0     H27646   8.582   5.957   1.390 -0.8963  3.3007  1.7856
  925MOL0     H27647   8.636   5.447   1.585 -2.5987  1.6211 -0.3696
  925MOL0     H27648   8.857   5.508   1.641  2.3940  1.9445 -0.2808
  925MOL0     H27649   8.889   5.337   1.616  0.2846  0.1475 -0.0754
  925MOL0     H27650   9.002   5.459   1.550 -0.9403  2.8445 -3.1846
  926MOL0     O27651   3.861   7.305   8.630 -0.2432 -0.0123  0.1126
  926MOL0     C27652   3.808   7.228   8.713 -0.2585  0.4219  0.0618
  926MOL0     O27653   3.871   7.162   8.813 -0.1180 -0.5709 -0.1679
  926MOL0     C27654   3.999   7.188   8.834 -0.8301  0.1740 -0.5800
  926MOL0     C27655   4.036   7.316   8.888 -0.5216 -0.4557 -0.2991
  926MOL0     C27656   4.165   7.336   8.925 -0.0668  0.0060 -0.5241
  926MOL0     C27657   4.262   7.233   8.925  0.7274  0.4266 -0.5268
  926MOL0     O27658   4.385   7.256   8.986  0.0955 -0.4993  0.4885
  926MOL0     C27659   4.474   7.349   8.916 -0.1369  0.0139  0.6696
  926MOL0     C27660   4.564   7.425   9.017 -0.9710  0.6341  0.0512
  926MOL0     C27661   4.474   7.505   9.109 -0.0628  0.0161  0.8573
  926MOL0     C27662   4.538   7.630   9.164 -0.0483  0.0615  0.2538
  926MOL0     C27663   4.624   7.595   9.282 -0.1946 -0.1484 -0.8377
  926MOL0     C27664   4.682   7.716   9.355 -0.1915 -0.1078 -0.2497
  926MOL0     C27665   4.769   7.683   9.477 -1.3285 -0.1993 -0.4641
  926MOL0     C27666   4.808   7.799   9.560 -0.0435 -0.8923 -0.0064
  926MOL0     N27667   4.836   7.753   9.701 -0.5349 -0.2098  0.2352
  926MOL0     C27668   4.946   7.681   9.742 -0.1883 -0.0268 -0.3125
  926MOL0     C27669   4.925   7.668   9.877 -0.5086  1.0002  0.7659
  926MOL0     C27670   5.019   7.584   9.959  0.1299 -0.2402  0.2609
  926MOL0     C27671   5.134   7.681  10.020 -0.5081 -0.3646 -0.4423
  926MOL0     C27672   5.095   7.768  10.138  0.0456  1.1517 -0.8967
  926MOL0     C27673   5.223   7.837  10.203 -0.5288 -0.0717 -0.5229
  926MOL0     O27674   5.289   7.933  10.120  0.0182 -0.7029 -0.3607
  926MOL0     C27675   5.427   7.955  10.137  0.4570 -0.3998  0.3026
  926MOL0     C27676   5.491   7.940  10.251 -0.0959 -0.1314  0.7439
  926MOL0     C27677   5.630   7.954  10.269 -0.5818  0.1128  0.0027
  926MOL0     C27678   5.694   7.919  10.404  0.3408  0.3588  0.2393
  926MOL0     C27679   5.709   7.992  10.154 -0.2986 -0.2385 -1.6244
  926MOL0     C27680   5.846   8.032  10.171 -0.3866 -0.4093  0.3490
  926MOL0     O27681   5.880   8.102  10.282 -0.0376  0.2370 -0.0097
  926MOL0     C27682   6.012   8.142  10.292  0.2246  0.7810  0.0003
  926MOL0     C27683   6.053   8.259  10.231 -1.2147 -0.2158 -0.0307
  926MOL0     C27684   6.184   8.303  10.237  0.0472  0.2974 -0.7171
  926MOL0     C27685   6.279   8.233  10.310 -0.3290  0.0024 -0.3991
  926MOL0     O27686   6.414   8.263  10.320 -0.6187 -0.1638  0.1601
  926MOL0     C27687   6.476   8.348  10.216 -0.1288  0.8969 -0.5289
  926MOL0     C27688   6.625   8.355  10.245  0.2572  0.7657 -0.3050
  926MOL0     C27689   6.695   8.443  10.136 -1.2238  0.4054 -0.9275
  926MOL0     C27690   6.839   8.432  10.186  0.5866 -0.2068 -0.3038
  926MOL0     C27691   6.937   8.495  10.086 -0.1762 -0.3590  0.7964
  926MOL0     C27692   6.910   8.644  10.044 -1.3236 -0.5526  0.2632
  926MOL0     C27693   7.009   8.686   9.929 -0.4285 -0.2826  0.3857
  926MOL0     C27694   6.941   8.753   9.811  0.0050 -0.5153 -0.4395
  926MOL0    Cl27695   6.896   8.920   9.848 -0.3389  0.0674 -0.3631
  926MOL0     C27696   6.241   8.113  10.366 -0.0357  0.5606 -0.5617
  926MOL0     C27697   6.103   8.063  10.362 -0.4600 -0.1988  0.2762
  926MOL0     O27698   5.916   8.017  10.062 -0.1258 -0.3176  0.4181
  926MOL0     C27699   5.643   7.992  10.034 -0.0904 -0.4366  0.9092
  926MOL0     C27700   5.505   7.980  10.024  0.8522  0.0593 -0.1259
  926MOL0     N27701   4.804   7.722   9.918  0.2490 -0.1835 -0.0404
  926MOL0     N27702   4.752   7.769   9.805  0.1181 -0.6285  0.6462
  926MOL0     C27703   4.235   7.115   8.862 -0.4652  0.3414  0.4161
  926MOL0     C27704   4.103   7.091   8.819  0.1250  0.3280 -0.6527
  926MOL0     C27705   3.653   7.204   8.709  0.7035 -0.8220 -0.4403
  926MOL0     C27706   3.595   7.160   8.834  0.3180  0.1895 -0.0409
  926MOL0     C27707   3.462   7.126   8.839  0.5448  0.2219  0.3569
  926MOL0     C27708   3.381   7.120   8.724  0.1789  0.2577  0.1339
  926MOL0     O27709   3.255   7.065   8.739  0.0210  0.3522 -0.0841
  926MOL0     C27710   3.150   7.127   8.668  1.2869  0.3659  0.5723
  926MOL0     C27711   3.015   7.045   8.666 -0.0132 -0.8695 -0.6326
  926MOL0     C27712   2.991   7.010   8.817 -0.9388  0.1146 -0.4723
  926MOL0     C27713   2.857   6.947   8.832  0.1398  0.3667  0.7089
  926MOL0     C27714   2.839   6.823   8.743 -0.3625 -0.9308  0.3296
  926MOL0     C27715   2.839   6.725   8.669  0.0297  0.0993 -0.8537
  926MOL0     C27716   3.433   7.165   8.602  0.2907 -0.1242  0.0627
  926MOL0     C27717   3.568   7.199   8.590  0.6399 -0.1497 -0.6008
  926MOL0     C27718   3.621   7.252   8.463  1.9001 -0.2372 -0.1578
  926MOL0     H27719   3.968   7.396   8.917  3.1409  2.2651  1.5821
  926MOL0     H27720   4.212   7.420   8.974  1.2699 -0.5220 -0.8648
  926MOL0     H27721   4.426   7.427   8.856  2.0969  1.2318  0.3698
  926MOL0     H27722   4.531   7.286   8.847 -0.5859 -0.9527  1.1605
  926MOL0     H27723   4.628   7.359   9.076 -2.8472 -0.1748  1.2860
  926MOL0     H27724   4.631   7.492   8.962  3.9803 -3.2874  0.6168
  926MOL0     H27725   4.374   7.529   9.071 -0.5800 -3.2084 -0.1514
  926MOL0     H27726   4.454   7.435   9.190 -0.5163 -3.9431 -2.3814
  926MOL0     H27727   4.586   7.687   9.084  2.1434 -1.3853  0.4414
  926MOL0     H27728   4.462   7.695   9.208  1.5618  1.1459  1.5205
  926MOL0     H27729   4.699   7.520   9.255 -0.2938 -1.9592  3.1419
  926MOL0     H27730   4.555   7.547   9.352 -0.4024  0.3601 -0.6905
  926MOL0     H27731   4.734   7.773   9.277 -2.0796 -0.4054 -1.8164
  926MOL0     H27732   4.599   7.781   9.386  1.5878  3.0065 -1.5330
  926MOL0     H27733   4.865   7.639   9.448 -0.6295 -1.2962  2.9923
  926MOL0     H27734   4.722   7.609   9.543 -0.2878  1.3615  2.2104
  926MOL0     H27735   4.890   7.852   9.512  2.1679 -1.8453  2.4788
  926MOL0     H27736   4.725   7.870   9.566  2.1404  1.7999  0.1782
  926MOL0     H27737   5.031   7.649   9.681  0.6071  0.1277  0.6895
  926MOL0     H27738   5.076   7.504   9.910  3.0429  0.9294  1.5086
  926MOL0     H27739   4.963   7.543  10.043 -0.0588  2.6379  1.6479
  926MOL0     H27740   5.220   7.618  10.046 -1.0108 -0.6602  0.5407
  926MOL0     H27741   5.167   7.751   9.942  1.6718  0.8384  1.4409
  926MOL0     H27742   5.024   7.844  10.103  0.0449  1.3810 -0.3976
  926MOL0     H27743   5.050   7.702  10.213  0.8286  1.5734 -0.0493
  926MOL0     H27744   5.199   7.895  10.293  2.5388  0.7251 -0.1009
  926MOL0     H27745   5.287   7.756  10.242 -0.1819  0.2285 -0.4592
  926MOL0     H27746   5.429   7.911  10.335  2.8375 -0.1726  3.0357
  926MOL0     H27747   5.769   7.842  10.383 -1.7540 -2.2228  1.6255
  926MOL0     H27748   5.614   7.884  10.469  1.2219  0.4320  1.4147
  926MOL0     H27749   5.734   8.005  10.459 -0.4669  0.2058  1.0810
  926MOL0     H27750   5.979   8.324  10.184 -2.1195  0.5635  2.3039
  926MOL0     H27751   6.197   8.405  10.203  1.9051  0.1208 -0.6449
  926MOL0     H27752   6.472   8.306  10.115 -2.3970 -0.6248  0.1267
  926MOL0     H27753   6.429   8.447  10.219  3.2205  2.6245  1.9925
  926MOL0     H27754   6.639   8.395  10.346 -2.3057 -1.3440  0.9907
  926MOL0     H27755   6.655   8.250  10.240 -3.6932 -0.5660  0.2572
  926MOL0     H27756   6.660   8.547  10.138  1.2601  1.3055 -0.5638
  926MOL0     H27757   6.685   8.401  10.035  2.8346 -1.4668 -0.7473
  926MOL0     H27758   6.861   8.328  10.211 -1.1113 -0.3118  0.9230
  926MOL0     H27759   6.842   8.494  10.276  0.4730 -1.3930  0.5346
  926MOL0     H27760   7.039   8.508  10.123 -0.2000  1.7799  0.2766
  926MOL0     H27761   6.922   8.439   9.993 -0.8754 -0.4581  0.9628
  926MOL0     H27762   6.922   8.717  10.125  3.9660  0.9586 -1.4561
  926MOL0     H27763   6.806   8.656  10.015 -1.9201 -2.1628  1.5802
  926MOL0     H27764   7.063   8.602   9.885 -1.6988 -2.2063  2.3136
  926MOL0     H27765   7.090   8.749   9.968 -0.1483 -0.1062 -0.4572
  926MOL0     H27766   6.849   8.702   9.784  0.5154 -1.1530 -1.0089
  926MOL0     H27767   7.004   8.749   9.722 -1.2615 -2.8103 -1.3196
  926MOL0     H27768   6.316   8.043  10.402 -1.0162 -0.6266 -0.7709
  926MOL0     H27769   6.076   7.967  10.405 -0.9874 -1.0643 -1.8789
  926MOL0     H27770   5.697   8.002   9.941 -0.4985  0.5638  0.7611
  926MOL0     H27771   5.449   7.975   9.931  1.7067 -1.7400 -0.5975
  926MOL0     H27772   4.317   7.046   8.843  0.9900  2.7489 -2.9823
  926MOL0     H27773   4.072   6.994   8.781 -1.5842 -0.0148  1.4133
  926MOL0     H27774   3.651   7.152   8.926 -0.1606 -2.6723  0.0639
  926MOL0     H27775   3.426   7.098   8.938 -0.0575  0.7426  0.2931
  926MOL0     H27776   3.128   7.223   8.715  1.0197 -0.0066  1.2213
  926MOL0     H27777   3.189   7.156   8.570  1.0955  1.0489  0.6916
  926MOL0     H27778   3.022   6.949   8.614  0.7604 -0.7379 -0.7953
  926MOL0     H27779   2.933   7.111   8.636  1.1155  0.8036 -0.1620
  926MOL0     H27780   3.077   6.958   8.859  0.5495  2.5100 -0.3466
  926MOL0     H27781   2.982   7.098   8.882  1.2554  0.2344 -0.2479
  926MOL0     H27782   2.780   7.019   8.801 -1.3967 -1.6650 -0.4580
  926MOL0     H27783   2.850   6.918   8.937  1.0242  1.2833  1.0388
  926MOL0     H27784   2.825   6.638   8.609 -0.4379 -2.7057  2.9331
  926MOL0     H27785   3.372   7.157   8.513 -0.0836  2.1900  0.0568
  926MOL0     H27786   3.534   7.258   8.397  1.4097  2.3530  0.6048
  926MOL0     H27787   3.664   7.351   8.476  1.3525 -0.1393  1.0761
  926MOL0     H27788   3.701   7.189   8.424  2.0268 -0.3328  0.2551
  927MOL0     O27789   2.342   0.769   2.414 -0.5270  0.9078  0.3069
  927MOL0     C27790   2.243   0.806   2.476 -0.3972  0.0237  0.2083
  927MOL0     O27791   2.231   0.921   2.547 -0.2652 -0.8443  0.7445
  927MOL0     C27792   2.348   0.990   2.548  0.4778 -0.2647 -0.1197
  927MOL0     C27793   2.349   1.113   2.484  0.0118  0.3516  0.5020
  927MOL0     C27794   2.455   1.208   2.500  0.1880  0.0958 -0.2802
  927MOL0     C27795   2.564   1.178   2.578  0.2846  0.3588 -0.1556
  927MOL0     O27796   2.655   1.278   2.593  0.2636 -0.0915  0.4459
  927MOL0     C27797   2.757   1.271   2.497 -0.2347  0.4785 -0.2289
  927MOL0     C27798   2.854   1.389   2.523  0.8003  0.1538 -0.5022
  927MOL0     C27799   2.791   1.522   2.481 -0.6379  0.1392 -0.4862
  927MOL0     C27800   2.783   1.545   2.328  0.1164  0.6168 -0.0745
  927MOL0     C27801   2.777   1.695   2.306 -0.2733 -0.2804  0.1478
  927MOL0     C27802   2.787   1.723   2.160  0.2658 -0.2424  0.7998
  927MOL0     C27803   2.643   1.719   2.103 -0.2669  0.1533  0.6837
  927MOL0     C27804   2.639   1.648   1.971 -0.1288 -0.4886 -0.1904
  927MOL0     N27805   2.702   1.728   1.866 -0.2535 -0.1035  0.1945
  927MOL0     C27806   2.635   1.812   1.785  0.0926 -0.2273 -0.3648
  927MOL0     C27807   2.725   1.866   1.704 -0.4385 -0.1598  0.4059
  927MOL0     C27808   2.719   1.976   1.597  0.0152  0.2696 -0.9552
  927MOL0     C27809   2.652   1.932   1.469 -0.3937  0.0930 -0.0726
  927MOL0     C27810   2.662   2.036   1.348  0.7805  0.1028  0.4008
  927MOL0     C27811   2.806   2.031   1.274  0.2964 -0.3980 -0.7544
  927MOL0     O27812   2.844   1.905   1.230 -0.0749 -0.2398 -0.2697
  927MOL0     C27813   2.974   1.865   1.261  0.2814 -0.3221  0.0534
  927MOL0     C27814   3.058   1.855   1.150  0.0964 -0.1068  0.6219
  927MOL0     C27815   3.196   1.829   1.175  1.1870  1.0882 -0.8486
  927MOL0     C27816   3.281   1.826   1.052 -0.9422 -0.5699 -0.0969
  927MOL0     C27817   3.250   1.810   1.311 -0.0987  0.6682  0.5928
  927MOL0     C27818   3.389   1.776   1.352 -0.3113 -0.4051  0.3644
  927MOL0     O27819   3.426   1.766   1.477 -0.0543  0.1647 -0.7490
  927MOL0     C27820   3.548   1.715   1.520 -0.3861  0.0035 -0.5027
  927MOL0     C27821   3.602   1.589   1.471  0.8338 -0.7317  0.3212
  927MOL0     C27822   3.727   1.559   1.520 -0.0757 -0.0291 -0.7673
  927MOL0     C27823   3.789   1.629   1.630 -0.5640 -0.5229  0.1567
  927MOL0     O27824   3.920   1.586   1.668 -0.0183  0.3451  0.2710
  927MOL0     C27825   4.000   1.660   1.769  0.1528 -0.1359  0.3802
  927MOL0     C27826   4.051   1.798   1.718 -0.0585  0.3595 -0.3574
  927MOL0     C27827   4.148   1.791   1.593 -0.3632  0.2515 -0.5297
  927MOL0     C27828   4.171   1.932   1.525  1.1049 -0.1083  0.0296
  927MOL0     C27829   4.276   1.906   1.416  0.2186  0.2607  1.0837
  927MOL0     C27830   4.306   2.035   1.337  0.1000  0.1283  0.1448
  927MOL0     C27831   4.199   2.077   1.244 -0.0561 -0.6433  1.1573
  927MOL0     C27832   4.218   2.204   1.164  0.7457 -0.2491 -0.9675
  927MOL0    Cl27833   4.087   2.219   1.042 -0.0889 -0.5532 -0.0135
  927MOL0     C27834   3.727   1.738   1.680 -0.1507  0.0951 -0.5276
  927MOL0     C27835   3.612   1.785   1.619 -0.1275 -1.0587 -0.3988
  927MOL0     O27836   3.470   1.766   1.266  0.6130 -0.3519  0.5042
  927MOL0     C27837   3.157   1.834   1.414 -0.0256  0.4659 -0.2263
  927MOL0     C27838   3.022   1.860   1.386  0.0909 -0.7874 -0.2056
  927MOL0     N27839   2.841   1.810   1.738  0.1492 -1.2368 -0.3698
  927MOL0     N27840   2.835   1.731   1.829 -0.1993  0.2790 -0.0712
  927MOL0     C27841   2.563   1.063   2.651 -0.0493 -0.2597 -0.3751
  927MOL0     C27842   2.456   0.974   2.642  0.4946 -0.4495 -0.0738
  927MOL0     C27843   2.127   0.725   2.482 -0.2114  0.3748  0.1321
  927MOL0     C27844   2.093   0.660   2.603  0.0345  0.4057  0.2684
  927MOL0     C27845   1.982   0.573   2.611 -0.3619  0.6204  0.2512
  927MOL0     C27846   1.909   0.546   2.493  0.1866  0.1754 -0.9967
  927MOL0     O27847   1.808   0.449   2.508  0.7064  0.3769 -0.6525
  927MOL0     C27848   1.697   0.480   2.427  0.3348 -0.1722 -0.7447
  927MOL0     C27849   1.574   0.400   2.464  0.3319 -0.6747  0.4997
  927MOL0     C27850   1.615   0.265   2.501 -0.1090 -0.6052 -0.4486
  927MOL0     C27851   1.488   0.182   2.522  0.4430 -0.2584  0.4843
  927MOL0     C27852   1.381   0.242   2.604  0.3059  0.6537  0.9432
  927MOL0     C27853   1.302   0.278   2.689 -0.5401 -0.3143 -0.7185
  927MOL0     C27854   1.935   0.611   2.368  0.0421 -0.0912  0.1723
  927MOL0     C27855   2.045   0.693   2.367  1.0969 -0.5963  0.7252
  927MOL0     C27856   2.071   0.755   2.224  0.6338  0.4829  0.3879
  927MOL0     H27857   2.272   1.138   2.411 -0.4487 -0.3181  0.7474
  927MOL0     H27858   2.454   1.302   2.445  3.4496 -0.2929 -1.2588
  927MOL0     H27859   2.717   1.272   2.395 -0.1837 -0.9489 -0.2836
  927MOL0     H27860   2.810   1.178   2.516 -0.4494  0.9154  3.1289
  927MOL0     H27861   2.866   1.404   2.631  0.3551  0.7093 -0.5259
  927MOL0     H27862   2.951   1.381   2.473  1.4497  0.0241  0.7471
  927MOL0     H27863   2.688   1.539   2.514 -0.2965  0.3583  0.5030
  927MOL0     H27864   2.854   1.597   2.529 -0.8152 -0.3990  0.6255
  927MOL0     H27865   2.872   1.508   2.277  0.4802  0.5460  0.6046
  927MOL0     H27866   2.700   1.488   2.286  0.1216 -0.2082  1.0129
  927MOL0     H27867   2.870   1.733   2.349  1.2588 -2.0228 -1.4641
  927MOL0     H27868   2.691   1.746   2.352  1.8941  1.5116  2.5264
  927MOL0     H27869   2.828   1.823   2.145  2.0441 -0.9508  0.7156
  927MOL0     H27870   2.853   1.653   2.109  4.7239  3.1741  1.3461
  927MOL0     H27871   2.601   1.819   2.086 -0.5167 -0.1749 -0.7061
  927MOL0     H27872   2.587   1.664   2.179  0.2854 -1.9201 -0.3484
  927MOL0     H27873   2.672   1.544   1.971  1.7136 -0.0578 -3.2231
  927MOL0     H27874   2.534   1.639   1.944 -0.5940 -1.2752  1.7218
  927MOL0     H27875   2.534   1.851   1.791  0.1319  0.5184 -3.0620
  927MOL0     H27876   2.819   2.017   1.584 -0.3614  0.9605 -1.8281
  927MOL0     H27877   2.654   2.054   1.638 -1.4464 -1.0362 -0.6748
  927MOL0     H27878   2.679   1.830   1.439  0.6718  0.6998 -1.2702
  927MOL0     H27879   2.545   1.933   1.491 -0.5292 -0.6220 -0.6326
  927MOL0     H27880   2.588   2.009   1.272  0.1614  1.6213  0.4317
  927MOL0     H27881   2.638   2.137   1.380  0.6973  1.1257 -2.5966
  927MOL0     H27882   2.799   2.085   1.179  1.1708 -1.4685 -1.4525
  927MOL0     H27883   2.882   2.087   1.328 -0.4401  1.5285 -1.6165
  927MOL0     H27884   3.020   1.849   1.048 -1.4739 -1.3398  1.2419
  927MOL0     H27885   3.229   1.844   0.958 -0.1607 -2.4189 -0.9233
  927MOL0     H27886   3.307   1.720   1.050  0.0002 -0.3367 -0.3970
  927MOL0     H27887   3.376   1.880   1.057  0.1391 -2.4750  1.0932
  927MOL0     H27888   3.552   1.529   1.397  0.6256  0.0456 -0.1833
  927MOL0     H27889   3.769   1.471   1.473 -0.5792 -0.2147 -0.8701
  927MOL0     H27890   3.943   1.682   1.860  0.2560  1.7061  0.0365
  927MOL0     H27891   4.087   1.604   1.801  1.3512  1.5440  0.1976
  927MOL0     H27892   3.971   1.860   1.677 -1.1685 -1.4639 -1.0605
  927MOL0     H27893   4.109   1.846   1.798 -2.2760 -1.0832  2.2710
  927MOL0     H27894   4.108   1.718   1.522 -0.1591  0.2054 -0.5966
  927MOL0     H27895   4.250   1.771   1.627  0.0425  3.1504  0.2068
  927MOL0     H27896   4.203   2.015   1.588  1.0326 -0.2374  0.2357
  927MOL0     H27897   4.080   1.965   1.473 -0.4480 -1.8587  1.4798
  927MOL0     H27898   4.374   1.880   1.457  0.6300  4.4321  3.2980
  927MOL0     H27899   4.239   1.815   1.370 -0.5866  2.4496 -3.1120
  927MOL0     H27900   4.400   2.018   1.285  0.1340 -0.0521  0.2652
  927MOL0     H27901   4.331   2.109   1.414  0.2803  2.2743 -1.8913
  927MOL0     H27902   4.104   2.091   1.296 -0.5706 -1.3268  0.4318
  927MOL0     H27903   4.183   2.001   1.167 -0.0173  1.3189 -0.8711
  927MOL0     H27904   4.315   2.206   1.114  2.2229 -2.1007  1.5909
  927MOL0     H27905   4.213   2.289   1.233 -2.8122 -2.6463  2.1875
  927MOL0     H27906   3.762   1.794   1.766 -1.3915 -0.0048  0.0557
  927MOL0     H27907   3.569   1.874   1.665  2.2308  1.2481 -2.2773
  927MOL0     H27908   3.198   1.827   1.514  0.5487  1.0640 -0.4176
  927MOL0     H27909   2.945   1.867   1.462  0.3809  0.6204 -0.0123
  927MOL0     H27910   2.637   1.047   2.728 -2.2559  1.6294  2.3269
  927MOL0     H27911   2.454   0.898   2.719  2.1245  1.6568  2.1846
  927MOL0     H27912   2.155   0.672   2.691  0.0390 -1.3020  0.5354
  927MOL0     H27913   1.963   0.523   2.706  0.2508  0.9015  0.5331
  927MOL0     H27914   1.671   0.586   2.437  2.0785  0.1479  1.2659
  927MOL0     H27915   1.723   0.458   2.323 -1.9731  0.9587 -1.6356
  927MOL0     H27916   1.514   0.401   2.372  3.0323  0.3683 -1.4182
  927MOL0     H27917   1.517   0.448   2.543 -1.3804 -2.2703  0.2870
  927MOL0     H27918   1.673   0.221   2.419 -0.4352  0.3081 -1.1806
  927MOL0     H27919   1.670   0.277   2.595 -2.0403  1.0827  0.5468
  927MOL0     H27920   1.522   0.089   2.570 -1.5881 -0.5529  1.4874
  927MOL0     H27921   1.448   0.164   2.422  2.3870 -2.2178 -0.0072
  927MOL0     H27922   1.218   0.307   2.748 -1.6114  2.7807 -3.4378
  927MOL0     H27923   1.880   0.587   2.278 -2.8242 -0.4154  1.8733
  927MOL0     H27924   2.166   0.715   2.187  0.1872  0.0377 -0.2927
  927MOL0     H27925   2.001   0.725   2.146  2.5386 -0.6497 -0.9833
  927MOL0     H27926   2.080   0.864   2.234  0.6339  0.5623 -0.4049
  928MOL0     O27927   3.072   2.746   6.922  0.2583  0.2783 -0.8748
  928MOL0     C27928   3.091   2.779   7.044 -1.0295 -0.0231  0.5545
  928MOL0     O27929   3.202   2.841   7.101  0.1477 -0.2003 -0.4377
  928MOL0     C27930   3.305   2.862   7.017  0.4138 -0.3967  0.4581
  928MOL0     C27931   3.425   2.800   7.058 -0.1458 -0.2592  0.1311
  928MOL0     C27932   3.540   2.804   6.973 -0.4385  0.6032 -0.0994
  928MOL0     C27933   3.525   2.868   6.844 -0.6672 -0.3214 -0.1321
  928MOL0     O27934   3.641   2.883   6.769  0.3101  0.1973  0.6664
  928MOL0     C27935   3.639   2.895   6.628 -0.1132  0.2926 -0.0771
  928MOL0     C27936   3.775   2.858   6.579  0.7022 -0.1753  0.2975
  928MOL0     C27937   3.889   2.934   6.652  0.7360  0.3379  0.1457
  928MOL0     C27938   4.029   2.923   6.593 -1.3573 -0.2344 -0.0936
  928MOL0     C27939   4.133   2.997   6.672 -0.2065  0.1110  0.5459
  928MOL0     C27940   4.275   2.972   6.610  0.0983 -1.0046 -0.0288
  928MOL0     C27941   4.372   3.092   6.665 -0.3291 -0.1117  0.2832
  928MOL0     C27942   4.518   3.068   6.642  0.5909 -1.0805 -0.7681
  928MOL0     N27943   4.578   2.970   6.728  0.1699  0.4156  0.6363
  928MOL0     C27944   4.580   2.831   6.706 -0.1916 -0.0553  0.1002
  928MOL0     C27945   4.668   2.786   6.794  0.1586 -0.0239 -0.2726
  928MOL0     C27946   4.709   2.645   6.815  0.4560 -0.6424 -0.5939
  928MOL0     C27947   4.650   2.583   6.944 -0.2121  0.5760 -0.1879
  928MOL0     C27948   4.503   2.624   6.974 -0.4937  0.3710  0.3797
  928MOL0     C27949   4.427   2.515   7.043  0.7340  0.3500  0.1453
  928MOL0     O27950   4.482   2.513   7.174 -0.1338 -0.4213 -0.4081
  928MOL0     C27951   4.440   2.421   7.267 -0.5079  0.8799 -0.1952
  928MOL0     C27952   4.502   2.424   7.392 -0.4016  0.2356  0.6730
  928MOL0     C27953   4.476   2.321   7.487 -0.0345  0.3612  0.1938
  928MOL0     C27954   4.533   2.337   7.628 -0.0582  0.2625  0.5850
  928MOL0     C27955   4.387   2.213   7.465 -0.3598 -0.5469 -0.2745
  928MOL0     C27956   4.345   2.111   7.569 -1.0630  0.4383  0.6478
  928MOL0     O27957   4.227   2.047   7.555 -0.8700  0.1874 -0.6001
  928MOL0     C27958   4.184   1.958   7.644 -0.4909  0.9704 -0.6707
  928MOL0     C27959   4.055   1.988   7.696  0.3820  0.4693 -0.2920
  928MOL0     C27960   3.997   1.898   7.783 -0.0321 -0.3478 -0.7570
  928MOL0     C27961   4.053   1.777   7.825  0.4794 -0.5455 -0.4351
  928MOL0     O27962   3.989   1.686   7.903  0.2349 -0.3210  0.2038
  928MOL0     C27963   3.862   1.713   7.963 -0.3325 -0.3063 -1.3394
  928MOL0     C27964   3.834   1.605   8.064  0.2658  0.4987 -0.6008
  928MOL0     C27965   3.705   1.642   8.148  0.0225  0.4624  0.1047
  928MOL0     C27966   3.703   1.785   8.212  0.2730  1.0323  0.9503
  928MOL0     C27967   3.579   1.822   8.301  0.3998 -0.1452  0.3188
  928MOL0     C27968   3.445   1.817   8.213 -0.9287  0.3606 -0.9179
  928MOL0     C27969   3.320   1.834   8.304  0.0452 -0.0773  0.0013
  928MOL0     C27970   3.196   1.834   8.220  0.3688  0.2392 -0.1224
  928MOL0    Cl27971   3.152   1.680   8.139  0.4395 -0.4856 -0.0599
  928MOL0     C27972   4.180   1.750   7.777 -0.9528  0.0891 -0.9321
  928MOL0     C27973   4.244   1.833   7.682 -0.1256 -0.2488 -0.3123
  928MOL0     O27974   4.426   2.078   7.651  0.1116  0.0841  0.1984
  928MOL0     C27975   4.323   2.213   7.337  0.2223  0.3709 -0.1653
  928MOL0     C27976   4.356   2.310   7.241  0.0716 -0.5151 -0.6608
  928MOL0     N27977   4.728   2.894   6.861 -0.0007 -0.9106  0.0775
  928MOL0     N27978   4.668   3.004   6.826  0.1580  0.4692 -0.0840
  928MOL0     C27979   3.404   2.930   6.813  0.5678 -0.8963 -0.5253
  928MOL0     C27980   3.293   2.926   6.892 -0.2068 -0.3220  0.7856
  928MOL0     C27981   2.994   2.721   7.143 -0.5467 -0.0465  0.6237
  928MOL0     C27982   3.053   2.681   7.263 -1.0868 -0.2807 -0.6071
  928MOL0     C27983   2.965   2.647   7.369  0.1478  0.0316  0.5952
  928MOL0     C27984   2.836   2.627   7.347 -0.2458  0.0008  0.6473
  928MOL0     O27985   2.753   2.581   7.445  0.0441 -0.3123 -0.4765
  928MOL0     C27986   2.691   2.457   7.413  0.0149  0.7090 -0.1456
  928MOL0     C27987   2.565   2.440   7.501 -0.1016  0.0597  0.2839
  928MOL0     C27988   2.481   2.324   7.438 -0.4328 -0.3206 -0.6053
  928MOL0     C27989   2.538   2.180   7.462  0.1271 -0.5384  0.3938
  928MOL0     C27990   2.456   2.080   7.390  0.6343  0.8096 -0.2370
  928MOL0     C27991   2.398   2.002   7.325  0.1339  0.6634  0.2169
  928MOL0     C27992   2.780   2.653   7.216  0.4490  0.1750  0.1764
  928MOL0     C27993   2.854   2.710   7.115  0.1075  0.1653  1.3843
  928MOL0     C27994   2.790   2.764   6.985 -0.3110  0.0318  0.3337
  928MOL0     H27995   3.431   2.752   7.155  2.8943 -0.9360 -0.2864
  928MOL0     H27996   3.638   2.761   6.993  0.2005  1.3258 -1.5345
  928MOL0     H27997   3.620   2.994   6.587  1.0148  0.0515 -1.2132
  928MOL0     H27998   3.561   2.831   6.585  0.4271 -0.0144 -0.6032
  928MOL0     H27999   3.791   2.751   6.594  2.3631  0.0367  0.2486
  928MOL0     H28000   3.779   2.895   6.476 -2.7088 -0.9669 -0.2587
  928MOL0     H28001   3.873   3.042   6.647  4.2192  1.0418  1.1066
  928MOL0     H28002   3.899   2.906   6.757 -0.1733  2.8437  0.9730
  928MOL0     H28003   4.053   2.817   6.596  2.2758  0.4674 -0.3477
  928MOL0     H28004   4.022   2.959   6.490 -0.6749  0.7166  0.1737
  928MOL0     H28005   4.139   2.971   6.778 -1.4600 -0.2671  0.5440
  928MOL0     H28006   4.106   3.103   6.660 -3.0764 -0.5205  0.6153
  928MOL0     H28007   4.303   2.876   6.654 -3.3127 -1.5098  1.3643
  928MOL0     H28008   4.285   2.975   6.501  3.1362 -0.6443  0.1746
  928MOL0     H28009   4.351   3.102   6.772  0.3188  2.6064  0.2334
  928MOL0     H28010   4.346   3.186   6.616 -0.4799 -0.3060 -0.0144
  928MOL0     H28011   4.518   3.043   6.536 -0.7467 -1.3773 -0.7154
  928MOL0     H28012   4.574   3.161   6.652  0.0991 -0.9492  1.1899
  928MOL0     H28013   4.517   2.766   6.646  1.8074 -0.6657 -1.4517
  928MOL0     H28014   4.818   2.648   6.824  0.4682  2.4578 -0.6720
  928MOL0     H28015   4.683   2.595   6.721 -0.1483  1.6361 -1.7081
  928MOL0     H28016   4.664   2.474   6.941 -1.5562  0.3938 -0.9609
  928MOL0     H28017   4.709   2.626   7.026  1.6102 -0.1851 -1.0521
  928MOL0     H28018   4.502   2.721   7.024  1.5584  1.2748 -1.1924
  928MOL0     H28019   4.458   2.633   6.874 -1.0631 -3.6234  0.1087
  928MOL0     H28020   4.319   2.534   7.040  0.5736 -0.2636 -4.3356
  928MOL0     H28021   4.443   2.418   6.995 -0.9460 -0.5892  1.3827
  928MOL0     H28022   4.569   2.506   7.418 -0.1211  0.4047 -0.5228
  928MOL0     H28023   4.618   2.270   7.646 -1.2699 -1.4655  0.2242
  928MOL0     H28024   4.458   2.319   7.706  0.8334  1.6849  1.8267
  928MOL0     H28025   4.578   2.436   7.639  2.6146 -0.7392 -0.4923
  928MOL0     H28026   3.996   2.076   7.670  0.5343 -0.2589 -3.6037
  928MOL0     H28027   3.893   1.916   7.811 -0.6344 -1.0727 -2.3941
  928MOL0     H28028   3.869   1.813   8.005  4.1308 -1.1243  0.4109
  928MOL0     H28029   3.780   1.719   7.891 -2.4621 -0.8367  0.8931
  928MOL0     H28030   3.810   1.515   8.008 -2.5918 -0.5677  2.0147
  928MOL0     H28031   3.921   1.592   8.129  1.7875  5.1390 -1.3606
  928MOL0     H28032   3.690   1.564   8.224 -2.6691 -0.3135 -1.1142
  928MOL0     H28033   3.619   1.648   8.082 -1.1232  1.9130  1.6200
  928MOL0     H28034   3.705   1.858   8.131 -2.1358  1.4057  1.1409
  928MOL0     H28035   3.797   1.798   8.266  1.7118  0.8629 -1.3868
  928MOL0     H28036   3.566   1.755   8.387  0.6048  1.0779  1.3275
  928MOL0     H28037   3.586   1.926   8.335 -4.0219  0.4681 -0.1174
  928MOL0     H28038   3.440   1.714   8.175  0.2556 -0.0457 -0.0108
  928MOL0     H28039   3.447   1.890   8.132 -0.2008 -0.6567 -1.8574
  928MOL0     H28040   3.326   1.928   8.360 -1.0468  1.0576 -1.7081
  928MOL0     H28041   3.314   1.754   8.379 -0.2608 -0.8305 -0.8096
  928MOL0     H28042   3.203   1.917   8.150 -2.3717  1.0205  0.4261
  928MOL0     H28043   3.111   1.871   8.278 -0.8927 -0.5690 -1.3835
  928MOL0     H28044   4.221   1.654   7.808 -0.3082  0.5479 -0.3330
  928MOL0     H28045   4.342   1.807   7.645  1.1114  0.8366  1.9894
  928MOL0     H28046   4.244   2.143   7.313 -0.0273  0.5545  0.1043
  928MOL0     H28047   4.318   2.312   7.140  0.9727  0.9052 -0.9960
  928MOL0     H28048   3.387   2.983   6.720  2.0287 -1.0947 -0.9339
  928MOL0     H28049   3.198   2.971   6.863  1.2833  2.8684  0.4620
  928MOL0     H28050   3.158   2.672   7.287 -0.4646  1.4726 -2.4705
  928MOL0     H28051   3.003   2.622   7.468 -1.4549  0.9608  1.4823
  928MOL0     H28052   2.665   2.446   7.307  3.0661  0.7064 -0.9762
  928MOL0     H28053   2.764   2.377   7.425  0.5995  1.2466 -0.0624
  928MOL0     H28054   2.502   2.530   7.506  1.7103  1.3095  2.3564
  928MOL0     H28055   2.591   2.421   7.606  2.3841  2.7645  0.2961
  928MOL0     H28056   2.388   2.333   7.495 -0.3817  0.3025 -0.6132
  928MOL0     H28057   2.458   2.342   7.333 -1.2392  3.5848  0.1201
  928MOL0     H28058   2.540   2.165   7.570  0.4068 -2.1047  0.1836
  928MOL0     H28059   2.638   2.156   7.423  0.2147  0.2262  0.1215
  928MOL0     H28060   2.360   1.934   7.252  0.3820  0.3378  0.3894
  928MOL0     H28061   2.671   2.647   7.209  0.5415 -2.1726  0.0038
  928MOL0     H28062   2.837   2.850   6.935  1.6397 -2.1026 -1.8155
  928MOL0     H28063   2.792   2.681   6.913 -2.0097 -1.9362  2.4180
  928MOL0     H28064   2.685   2.788   6.997 -0.8362 -1.3970 -1.0155
  929MOL0     O28065   9.466   3.388   9.137  0.4774  0.5644  0.0422
  929MOL0     C28066   9.425   3.416   9.252  0.6791  0.3341 -0.4386
  929MOL0     O28067   9.493   3.492   9.345 -0.5608  0.8438 -0.6227
  929MOL0     C28068   9.592   3.569   9.296  0.0407 -0.3603  0.5858
  929MOL0     C28069   9.712   3.515   9.295 -0.7583 -0.2534 -0.4895
  929MOL0     C28070   9.826   3.588   9.251  0.2868  1.0152 -0.1943
  929MOL0     C28071   9.823   3.728   9.230 -0.5168  0.6909  0.4904
  929MOL0     O28072   9.935   3.801   9.192  0.3047 -0.0208 -0.6297
  929MOL0     C28073   9.921   3.930   9.122  0.3939 -0.2974 -0.3699
  929MOL0     C28074  10.056   3.950   9.041 -0.1651 -0.5800 -0.6173
  929MOL0     C28075  10.189   3.954   9.117  0.3593  0.4723  0.3306
  929MOL0     C28076  10.256   3.815   9.100 -0.0356  0.3369 -0.0927
  929MOL0     C28077  10.379   3.809   9.188  0.9381 -1.0870  0.6002
  929MOL0     C28078  10.437   3.667   9.207 -1.0527 -0.0120  0.7893
  929MOL0     C28079  10.519   3.660   9.341  0.1343 -0.3728 -0.1749
  929MOL0     C28080  10.668   3.709   9.322 -0.2884  0.1101 -0.8401
  929MOL0     N28081  10.747   3.672   9.440 -1.0231 -0.6302  0.1287
  929MOL0     C28082  10.787   3.750   9.542 -0.0713  0.0377  1.2361
  929MOL0     C28083  10.838   3.671   9.639 -0.5653  0.1257  0.2296
  929MOL0     C28084  10.880   3.720   9.778  0.1072 -0.3472  0.0081
  929MOL0     C28085  11.007   3.813   9.761  0.0889  0.2160 -0.8204
  929MOL0     C28086  11.059   3.863   9.897  0.0348  0.3628  0.3379
  929MOL0     C28087  11.176   3.959   9.889 -0.5036 -0.2764  0.3708
  929MOL0     O28088  11.131   4.065   9.806  0.2465 -0.0328 -0.0086
  929MOL0     C28089  11.220   4.147   9.756  0.8531 -0.7217  1.5914
  929MOL0     C28090  11.173   4.215   9.643 -0.1452 -0.2269  0.4388
  929MOL0     C28091  11.256   4.305   9.578  0.2614  0.0741 -0.0158
  929MOL0     C28092  11.196   4.361   9.455  0.0295 -0.4884 -0.5978
  929MOL0     C28093  11.389   4.320   9.611 -0.3639 -0.3657 -0.8353
  929MOL0     C28094  11.483   4.414   9.534 -0.3133 -0.2783  0.1130
  929MOL0     O28095  11.592   4.345   9.492 -0.4093  0.2282  0.1494
  929MOL0     C28096  11.662   4.388   9.384 -0.0743  0.2400 -0.8791
  929MOL0     C28097  11.613   4.352   9.257 -0.7409 -0.4632  0.4218
  929MOL0     C28098  11.701   4.367   9.147  0.9205 -0.1106 -0.7011
  929MOL0     C28099  11.825   4.436   9.159 -0.0221 -1.0014 -0.0204
  929MOL0     O28100  11.914   4.463   9.056 -0.1934  0.7487 -0.2983
  929MOL0     C28101  12.047   4.411   9.069  0.2914  0.8350 -0.0889
  929MOL0     C28102  12.146   4.451   8.953 -0.4012 -0.6458 -0.4542
  929MOL0     C28103  12.190   4.598   8.972  0.5704  0.1059 -0.0873
  929MOL0     C28104  12.260   4.641   8.843 -0.3113  0.2711  0.2807
  929MOL0     C28105  12.395   4.565   8.818 -1.4263 -0.0282 -0.6033
  929MOL0     C28106  12.472   4.650   8.711  0.3399  0.9990  0.7046
  929MOL0     C28107  12.630   4.652   8.727  0.2620 -0.5450 -0.9831
  929MOL0     C28108  12.702   4.524   8.684  0.2164  0.4088 -0.3244
  929MOL0    Cl28109  12.682   4.486   8.508 -0.0260 -0.3011  0.6007
  929MOL0     C28110  11.861   4.468   9.286  0.3724  0.4546 -0.2994
  929MOL0     C28111  11.788   4.441   9.401  0.6898  1.0724  1.0328
  929MOL0     O28112  11.450   4.525   9.495 -0.0960 -0.0616  0.1447
  929MOL0     C28113  11.440   4.260   9.724  0.4426  0.1599  0.2544
  929MOL0     C28114  11.351   4.178   9.804 -0.0463  0.5457  0.7494
  929MOL0     N28115  10.838   3.545   9.590  0.5581  0.1695 -0.3082
  929MOL0     N28116  10.791   3.548   9.466  0.6495  0.3481  0.5072
  929MOL0     C28117   9.696   3.791   9.245 -0.0991 -0.1200  0.2309
  929MOL0     C28118   9.580   3.706   9.271  0.8736  0.6379  0.4923
  929MOL0     C28119   9.288   3.368   9.294  0.4330  0.0439 -0.0140
  929MOL0     C28120   9.252   3.374   9.431  0.2643 -0.1788 -0.5525
  929MOL0     C28121   9.139   3.314   9.479  0.1543 -0.4444  0.2784
  929MOL0     C28122   9.048   3.243   9.397 -0.3053 -0.9099 -0.3438
  929MOL0     O28123   8.937   3.178   9.445  0.0238 -0.3623 -0.3851
  929MOL0     C28124   8.823   3.155   9.351 -0.2376  0.2407  0.2196
  929MOL0     C28125   8.700   3.097   9.428  0.2460 -0.5093 -1.0000
  929MOL0     C28126   8.729   2.946   9.459  0.4556  0.4605 -0.6863
  929MOL0     C28127   8.609   2.884   9.535 -0.2942 -0.1388  0.0927
  929MOL0     C28128   8.614   2.739   9.530 -0.4570 -0.3201  0.2581
  929MOL0     C28129   8.604   2.618   9.525 -0.7265  0.0029 -0.3823
  929MOL0     C28130   9.081   3.251   9.259 -0.2401 -0.4395  0.5026
  929MOL0     C28131   9.191   3.310   9.209  0.6402  0.2411  0.5038
  929MOL0     C28132   9.205   3.299   9.063  0.2717 -0.2059 -0.0770
  929MOL0     H28133   9.735   3.412   9.320 -1.0206 -0.1255  0.2947
  929MOL0     H28134   9.921   3.536   9.247 -0.4504 -0.5696  1.4871
  929MOL0     H28135   9.910   4.009   9.197  2.7040 -1.7061  1.5967
  929MOL0     H28136   9.832   3.922   9.060 -2.2247 -3.7912  3.3313
  929MOL0     H28137  10.062   3.883   8.955 -2.6144 -1.0371 -0.5147
  929MOL0     H28138  10.047   4.049   8.995  0.7918 -0.1284  0.1323
  929MOL0     H28139  10.255   4.023   9.064 -2.8836  1.3612 -2.9942
  929MOL0     H28140  10.170   4.006   9.211 -1.2149  1.0478 -0.2680
  929MOL0     H28141  10.181   3.740   9.124  0.2083 -1.0229 -3.1734
  929MOL0     H28142  10.273   3.813   8.992 -1.1454  1.9407 -0.3360
  929MOL0     H28143  10.349   3.850   9.285  0.7432 -0.7963  0.4183
  929MOL0     H28144  10.448   3.888   9.156  0.3255 -0.5600  0.5548
  929MOL0     H28145  10.348   3.606   9.224 -2.4182  1.6724  0.0687
  929MOL0     H28146  10.490   3.626   9.121 -0.0670  0.8529  0.9531
  929MOL0     H28147  10.529   3.556   9.373 -0.4708 -0.0902  0.9659
  929MOL0     H28148  10.470   3.716   9.420  0.6658 -0.1767  0.0213
  929MOL0     H28149  10.708   3.669   9.228  0.2543  2.6383 -1.7999
  929MOL0     H28150  10.657   3.818   9.310  2.7688  0.4859 -1.0717
  929MOL0     H28151  10.772   3.857   9.543  0.1568  0.3084 -3.2532
  929MOL0     H28152  10.906   3.626   9.827 -0.3890 -2.4191 -3.4725
  929MOL0     H28153  10.786   3.761   9.815 -2.0097 -1.8387 -3.3025
  929MOL0     H28154  11.083   3.753   9.711  2.3340  1.1278  1.2991
  929MOL0     H28155  10.976   3.899   9.700 -0.1850 -0.3219 -1.4487
  929MOL0     H28156  10.979   3.911   9.955 -1.2375  0.6427 -1.5603
  929MOL0     H28157  11.094   3.776   9.953 -0.0234 -1.0071 -1.6725
  929MOL0     H28158  11.207   4.007   9.982  2.5554 -1.6190  0.1719
  929MOL0     H28159  11.263   3.904   9.851 -0.5618 -0.1520  0.0487
  929MOL0     H28160  11.070   4.201   9.614 -0.1965  0.0918  0.4675
  929MOL0     H28161  11.092   4.329   9.454  0.8298 -3.4692  0.7180
  929MOL0     H28162  11.240   4.343   9.356 -2.6776  2.1051 -2.4346
  929MOL0     H28163  11.198   4.469   9.466  3.3095 -0.6493  1.7488
  929MOL0     H28164  11.523   4.294   9.240 -1.5654  0.8686  0.0203
  929MOL0     H28165  11.662   4.347   9.048  2.1997 -0.4145 -1.1604
  929MOL0     H28166  12.093   4.435   9.165  0.9359  0.9544 -0.4163
  929MOL0     H28167  12.035   4.303   9.059  1.0278  0.9092 -2.4925
  929MOL0     H28168  12.233   4.384   8.962 -1.2720 -1.6736  0.9227
  929MOL0     H28169  12.092   4.443   8.859 -1.4591 -1.0211  0.1659
  929MOL0     H28170  12.252   4.614   9.060  0.6088 -0.6168  0.0200
  929MOL0     H28171  12.109   4.670   8.987  1.5155  0.9766  1.0231
  929MOL0     H28172  12.263   4.749   8.858  2.1168  0.2071  0.7673
  929MOL0     H28173  12.196   4.627   8.755 -2.4018 -2.1591  2.0312
  929MOL0     H28174  12.449   4.555   8.912 -4.1423 -2.1584  0.8780
  929MOL0     H28175  12.376   4.461   8.788 -0.7630 -0.0300 -1.0482
  929MOL0     H28176  12.438   4.754   8.715 -0.9519  0.6120  0.1233
  929MOL0     H28177  12.445   4.607   8.615  3.2358  1.2464 -0.3369
  929MOL0     H28178  12.658   4.654   8.833  2.7606  0.1899 -1.5940
  929MOL0     H28179  12.669   4.747   8.690  3.1123 -1.5438 -0.7673
  929MOL0     H28180  12.675   4.436   8.744 -0.5655  0.2952 -0.8348
  929MOL0     H28181  12.808   4.535   8.708  0.1821 -0.3396  0.2217
  929MOL0     H28182  11.959   4.514   9.294  0.7821 -0.3612 -0.5306
  929MOL0     H28183  11.837   4.458   9.497  1.3116 -0.5667  1.0436
  929MOL0     H28184  11.540   4.277   9.762  0.0626  1.4363  0.7279
  929MOL0     H28185  11.394   4.140   9.896  2.3179 -2.1578 -1.2830
  929MOL0     H28186   9.674   3.895   9.226 -0.8931 -0.6495 -2.1203
  929MOL0     H28187   9.483   3.752   9.290 -1.1577 -2.5987 -1.1688
  929MOL0     H28188   9.320   3.420   9.501 -1.7551  3.3416 -0.6679
  929MOL0     H28189   9.107   3.323   9.582 -0.0808 -0.5815  0.2186
  929MOL0     H28190   8.792   3.244   9.296 -1.0315  1.7355  2.8841
  929MOL0     H28191   8.846   3.078   9.277 -1.3189 -1.6359  1.7389
  929MOL0     H28192   8.607   3.110   9.371 -1.0123 -0.2058  1.0114
  929MOL0     H28193   8.687   3.148   9.524  2.2321  0.8390 -1.3805
  929MOL0     H28194   8.748   2.892   9.366  2.1445  0.7640 -0.5544
  929MOL0     H28195   8.808   2.929   9.533  0.7444 -2.6521 -1.5695
  929MOL0     H28196   8.519   2.916   9.482  1.0741  2.2667 -0.9372
  929MOL0     H28197   8.592   2.927   9.634 -2.2606  1.9865 -1.0686
  929MOL0     H28198   8.583   2.513   9.525 -1.8561  0.2188 -0.1048
  929MOL0     H28199   9.019   3.198   9.188  0.0907 -0.4580  0.2288
  929MOL0     H28200   9.111   3.271   9.015 -0.0320  0.2705  0.2239
  929MOL0     H28201   9.238   3.398   9.031  1.2601 -0.4510  0.1695
  929MOL0     H28202   9.284   3.228   9.040  1.7022  1.2834  0.0324
  930MOL0     O28203  10.310   1.149   6.348 -0.8254 -0.1944 -0.0994
  930MOL0     C28204  10.245   1.221   6.430 -0.6358  0.3198 -0.1273
  930MOL0     O28205  10.277   1.245   6.560 -0.0254 -0.2391 -0.1130
  930MOL0     C28206  10.391   1.188   6.613 -0.0021  0.2870 -0.1815
  930MOL0     C28207  10.377   1.126   6.735 -0.1108  0.4229 -0.1489
  930MOL0     C28208  10.489   1.078   6.802  0.2080 -0.1759 -0.0955
  930MOL0     C28209  10.614   1.092   6.747  0.0737 -1.4547 -0.0960
  930MOL0     O28210  10.720   1.034   6.813  0.4986  0.3091  0.7216
  930MOL0     C28211  10.797   0.940   6.735  0.6965  0.6695 -0.8206
  930MOL0     C28212  10.939   0.948   6.777  0.7885  0.3029 -0.4586
  930MOL0     C28213  11.016   0.833   6.719 -0.7875  0.2647  0.9903
  930MOL0     C28214  11.163   0.839   6.739 -0.1074 -0.4982 -0.5718
  930MOL0     C28215  11.205   0.776   6.871  0.0817 -0.0928 -0.0144
  930MOL0     C28216  11.351   0.820   6.889  0.7695  0.3242  1.2746
  930MOL0     C28217  11.427   0.741   6.993 -0.2641 -0.1649 -0.8323
  930MOL0     C28218  11.439   0.590   6.947  0.5143  1.0184  0.5910
  930MOL0     N28219  11.533   0.524   7.037 -0.0948 -0.1701  0.0295
  930MOL0     C28220  11.650   0.453   7.014  0.8168  0.4084  0.3046
  930MOL0     C28221  11.662   0.373   7.122 -0.2721 -0.2983 -0.8708
  930MOL0     C28222  11.772   0.270   7.163  0.4777 -0.3248 -0.0269
  930MOL0     C28223  11.899   0.330   7.218 -0.0715  0.1401 -1.1116
  930MOL0     C28224  12.002   0.223   7.240  0.5266  0.0123 -0.2613
  930MOL0     C28225  12.135   0.279   7.281 -0.9648  0.6024 -0.5493
  930MOL0     O28226  12.176   0.377   7.179 -0.6304 -0.7304 -0.2742
  930MOL0     C28227  12.298   0.442   7.201  0.6185  0.3113 -0.5847
  930MOL0     C28228  12.387   0.422   7.311 -0.6642  0.0998  0.0084
  930MOL0     C28229  12.515   0.496   7.309 -0.3826  0.6849 -0.1929
  930MOL0     C28230  12.605   0.466   7.424  0.4028 -0.9747 -0.4408
  930MOL0     C28231  12.548   0.591   7.211 -0.1676 -0.0232 -0.9670
  930MOL0     C28232  12.674   0.662   7.207 -0.4979 -0.1660 -0.0836
  930MOL0     O28233  12.688   0.762   7.126 -0.5803 -0.0966  0.5497
  930MOL0     C28234  12.811   0.822   7.101 -0.3131 -0.9788 -0.2347
  930MOL0     C28235  12.809   0.961   7.100  0.0722 -0.2270  0.8645
  930MOL0     C28236  12.920   1.032   7.065 -0.2126 -0.0399  1.0240
  930MOL0     C28237  13.038   0.976   7.033 -0.1451 -0.0429  0.0964
  930MOL0     O28238  13.148   1.058   6.991  0.5582 -0.0497 -0.5699
  930MOL0     C28239  13.177   1.062   6.848 -0.1299 -0.1326 -0.4687
  930MOL0     C28240  13.290   1.161   6.820  0.3626 -0.1907  0.5300
  930MOL0     C28241  13.424   1.099   6.780 -0.3737  0.8500  0.4414
  930MOL0     C28242  13.539   1.189   6.786  0.5427 -0.0143 -0.1058
  930MOL0     C28243  13.675   1.139   6.734 -0.7276  0.6420  0.2496
  930MOL0     C28244  13.787   1.245   6.767  0.7058 -0.6779 -0.3549
  930MOL0     C28245  13.920   1.203   6.703 -0.0706 -0.0317 -0.0239
  930MOL0     C28246  14.034   1.278   6.765  0.4463 -0.3976 -0.5987
  930MOL0    Cl28247  14.163   1.295   6.644  0.3808 -0.3140 -0.4354
  930MOL0     C28248  13.048   0.844   7.041 -0.3585  0.4221  1.0298
  930MOL0     C28249  12.940   0.759   7.068  0.8329 -0.0598 -0.2138
  930MOL0     O28250  12.762   0.628   7.284 -0.3818  0.1194 -0.1911
  930MOL0     C28251  12.462   0.595   7.101  0.1580 -0.3555 -0.6503
  930MOL0     C28252  12.336   0.525   7.101 -0.0330  0.3927 -1.1675
  930MOL0     N28253  11.563   0.401   7.205 -0.1055 -0.3028 -0.7213
  930MOL0     N28254  11.486   0.487   7.160  0.3195 -0.0584 -0.0079
  930MOL0     C28255  10.629   1.162   6.626  0.2931 -0.0598 -0.4691
  930MOL0     C28256  10.518   1.214   6.559 -0.5122  0.2103 -1.2559
  930MOL0     C28257  10.109   1.269   6.390 -0.5479  0.1750 -0.2388
  930MOL0     C28258  10.046   1.189   6.288 -1.1803 -0.3710 -0.5142
  930MOL0     C28259   9.921   1.227   6.240 -0.5007 -0.3834  0.3110
  930MOL0     C28260   9.848   1.335   6.277 -0.1511  0.2829 -0.3402
  930MOL0     O28261   9.731   1.379   6.218 -0.6966  0.5945 -0.1086
  930MOL0     C28262   9.678   1.322   6.093 -0.5791  0.0138  0.2587
  930MOL0     C28263   9.545   1.384   6.039 -0.5063  0.8104  0.4726
  930MOL0     C28264   9.427   1.394   6.138 -0.3315 -0.1552 -0.2634
  930MOL0     C28265   9.369   1.249   6.165  0.2815  0.2947  0.4891
  930MOL0     C28266   9.347   1.165   6.051  0.3722 -0.2784 -0.7224
  930MOL0     C28267   9.321   1.090   5.960 -0.3395  0.7236 -0.4663
  930MOL0     C28268   9.918   1.420   6.368  0.3600 -0.3907 -0.0921
  930MOL0     C28269  10.045   1.388   6.427 -0.6030 -0.7159 -0.3795
  930MOL0     C28270  10.117   1.489   6.518 -0.6042  0.3739 -0.6548
  930MOL0     H28271  10.278   1.132   6.778 -0.5014  1.2795 -1.1260
  930MOL0     H28272  10.493   1.038   6.903 -3.4861 -1.3009 -0.2581
  930MOL0     H28273  10.775   0.938   6.628 -1.6150 -0.8886 -0.4122
  930MOL0     H28274  10.759   0.840   6.760 -1.4678  0.7014 -3.4759
  930MOL0     H28275  10.976   1.043   6.739 -0.9775 -0.2159 -3.8255
  930MOL0     H28276  10.947   0.941   6.886  0.0948  0.7549 -0.3736
  930MOL0     H28277  10.981   0.742   6.770 -0.0627  0.7487  2.4084
  930MOL0     H28278  11.000   0.814   6.613  0.5588  2.0095  0.4364
  930MOL0     H28279  11.209   0.798   6.648 -1.6750  0.0967 -1.6923
  930MOL0     H28280  11.190   0.945   6.730 -1.3039 -0.1597 -0.3389
  930MOL0     H28281  11.200   0.667   6.866  0.6848 -0.0654 -2.5002
  930MOL0     H28282  11.142   0.813   6.952 -0.9379 -2.4334  0.3624
  930MOL0     H28283  11.400   0.793   6.795 -2.0845 -2.9576  0.5436
  930MOL0     H28284  11.357   0.927   6.913  1.3335  1.2734 -2.4818
  930MOL0     H28285  11.361   0.723   7.079 -0.8366 -0.3333 -1.3012
  930MOL0     H28286  11.517   0.798   7.016 -2.0531  1.9944  1.3884
  930MOL0     H28287  11.340   0.543   6.944  0.0020  2.0749  0.0076
  930MOL0     H28288  11.487   0.591   6.849 -0.6394  2.7682 -0.0173
  930MOL0     H28289  11.703   0.438   6.920 -2.8084 -1.8663 -1.6265
  930MOL0     H28290  11.790   0.212   7.072  0.6342  1.2632 -1.0604
  930MOL0     H28291  11.722   0.197   7.227 -1.9130  0.0116 -1.4004
  930MOL0     H28292  11.928   0.396   7.136  1.9843  2.6448  1.4634
  930MOL0     H28293  11.891   0.386   7.312  2.1074 -0.1969 -0.6950
  930MOL0     H28294  11.963   0.156   7.318 -1.0177 -0.5732 -1.5072
  930MOL0     H28295  12.027   0.170   7.148  1.6908  2.6712 -1.5840
  930MOL0     H28296  12.139   0.327   7.379 -1.5058  0.1968 -0.3242
  930MOL0     H28297  12.204   0.195   7.287  0.1279  1.4380 -1.1749
  930MOL0     H28298  12.362   0.357   7.394 -0.1516  2.1021  1.8398
  930MOL0     H28299  12.570   0.387   7.491 -0.6132 -0.3611 -0.2316
  930MOL0     H28300  12.623   0.553   7.488  1.6899 -1.6204  0.1088
  930MOL0     H28301  12.702   0.425   7.393  0.8847  0.2855 -0.6611
  930MOL0     H28302  12.719   1.012   7.131 -0.0214  0.4285 -0.4359
  930MOL0     H28303  12.918   1.141   7.064 -2.6768 -0.0097 -0.7687
  930MOL0     H28304  13.215   0.964   6.817  1.7400  0.3134  0.2647
  930MOL0     H28305  13.087   1.086   6.791  0.0157  2.2988  0.1923
  930MOL0     H28306  13.263   1.215   6.729  1.9625  0.9984  0.7158
  930MOL0     H28307  13.295   1.237   6.898 -0.2604 -0.2837  0.6675
  930MOL0     H28308  13.407   1.059   6.679 -0.8930  2.2610 -0.0544
  930MOL0     H28309  13.453   1.021   6.851 -1.4876  1.9660  2.1829
  930MOL0     H28310  13.557   1.216   6.890 -1.2066 -0.1049  0.2407
  930MOL0     H28311  13.517   1.281   6.730  0.9215  0.6812  0.8651
  930MOL0     H28312  13.695   1.048   6.791 -2.5917  0.5514  0.8237
  930MOL0     H28313  13.676   1.114   6.627 -1.2518  1.0798  0.1390
  930MOL0     H28314  13.803   1.259   6.874  1.3637 -0.2625 -0.5035
  930MOL0     H28315  13.764   1.346   6.731 -1.1972 -0.2037  1.9325
  930MOL0     H28316  13.912   1.240   6.600 -1.0257 -0.2119 -0.0208
  930MOL0     H28317  13.937   1.095   6.702  0.5955  0.0731 -0.2524
  930MOL0     H28318  14.070   1.236   6.859 -0.7129  0.8030  0.4212
  930MOL0     H28319  14.000   1.376   6.799 -0.7825 -0.4649 -1.5804
  930MOL0     H28320  13.148   0.815   7.010 -0.8807  1.2392 -1.6803
  930MOL0     H28321  12.956   0.653   7.049 -0.1227  0.0247 -1.6521
  930MOL0     H28322  12.497   0.658   7.020 -0.4508 -3.0919 -3.1974
  930MOL0     H28323  12.273   0.540   7.013 -0.0184  2.6392 -0.8646
  930MOL0     H28324  10.730   1.179   6.590  0.8299 -0.5331  0.7500
  930MOL0     H28325  10.518   1.277   6.470 -2.0585  0.8749 -0.8249
  930MOL0     H28326  10.095   1.096   6.262 -2.0445 -0.9864  0.0274
  930MOL0     H28327   9.878   1.167   6.161  1.8419 -0.3674 -1.0722
  930MOL0     H28328   9.756   1.349   6.021 -2.3305 -0.5804 -1.9949
  930MOL0     H28329   9.669   1.213   6.093  2.4332 -0.3266 -0.8915
  930MOL0     H28330   9.513   1.336   5.946 -2.4998  0.0398  1.5035
  930MOL0     H28331   9.568   1.488   6.012 -3.7804  0.9397 -2.5722
  930MOL0     H28332   9.455   1.446   6.230 -1.0588  0.5786 -0.4403
  930MOL0     H28333   9.343   1.451   6.096 -0.2611 -0.4952 -0.8749
  930MOL0     H28334   9.274   1.268   6.216 -0.1000  1.2702 -0.5388
  930MOL0     H28335   9.435   1.202   6.239  1.2672  1.5834  0.4600
  930MOL0     H28336   9.292   1.028   5.878  0.4664  1.2795 -1.1858
  930MOL0     H28337   9.883   1.521   6.385  2.4832  0.2666  0.7097
  930MOL0     H28338  10.077   1.590   6.508 -1.8537  0.2353  1.9909
  930MOL0     H28339  10.108   1.445   6.618  0.5906  0.4901 -0.4777
  930MOL0     H28340  10.224   1.491   6.494 -0.6122  2.0667 -0.6585
  931MOL0     O28341  10.316   9.908   6.968 -0.1284 -0.0369  0.2886
  931MOL0     C28342  10.332   9.924   7.091  1.2080  0.1744 -0.4042
  931MOL0     O28343  10.236   9.973   7.174 -0.1493  0.0470 -0.7500
  931MOL0     C28344  10.123  10.032   7.118 -0.5082 -0.5224 -0.8524
  931MOL0     C28345  10.140  10.162   7.074 -0.8103  0.8020 -0.5917
  931MOL0     C28346  10.037  10.228   7.013 -0.9966 -0.0493 -0.6992
  931MOL0     C28347   9.912  10.167   7.013  0.1175  0.1563  0.3850
  931MOL0     O28348   9.794  10.218   6.966  0.3349  0.6071  0.4928
  931MOL0     C28349   9.796  10.289   6.839  0.1083 -0.5201 -0.9162
  931MOL0     C28350   9.833  10.444   6.851 -0.0393  0.1254 -0.4798
  931MOL0     C28351   9.795  10.507   6.715  0.2629  0.1864  0.1988
  931MOL0     C28352   9.897  10.474   6.608 -0.0929 -0.1173  0.0718
  931MOL0     C28353   9.876  10.545   6.468 -0.0852 -0.4386  0.8207
  931MOL0     C28354   9.908  10.697   6.477  0.4610 -0.2249  0.0207
  931MOL0     C28355   9.872  10.765   6.333  0.2674  0.0688 -0.9577
  931MOL0     C28356   9.874  10.916   6.356  0.6978 -0.5083  0.4136
  931MOL0     N28357  10.012  10.959   6.395 -0.0208 -0.2203 -0.3706
  931MOL0     C28358  10.129  10.975   6.311  0.7946 -0.2108 -0.4838
  931MOL0     C28359  10.228  11.003   6.403 -0.3901  0.1522 -0.2497
  931MOL0     C28360  10.372  11.008   6.370 -0.2764 -0.3406 -0.6268
  931MOL0     C28361  10.453  10.906   6.455  0.2347  0.3194  0.1334
  931MOL0     C28362  10.481  10.781   6.371  0.2408  0.9087 -0.8742
  931MOL0     C28363  10.581  10.690   6.445  0.1291 -0.1059 -0.2893
  931MOL0     O28364  10.534  10.647   6.574 -1.0524 -0.3562 -1.0971
  931MOL0     C28365  10.600  10.546   6.640 -0.2596  0.0192 -0.4661
  931MOL0     C28366  10.533  10.488   6.753  0.1812  0.1532 -1.1196
  931MOL0     C28367  10.588  10.379   6.826 -0.6848 -0.5702  0.8502
  931MOL0     C28368  10.496  10.325   6.929 -0.2628 -0.9035 -0.8042
  931MOL0     C28369  10.725  10.339   6.791  0.1642  0.2985 -0.7258
  931MOL0     C28370  10.788  10.232   6.871 -0.9577 -0.0994 -0.0664
  931MOL0     O28371  10.896  10.180   6.818 -0.3442  0.0546  0.2096
  931MOL0     C28372  10.987  10.096   6.872 -0.3428 -0.2306 -0.4567
  931MOL0     C28373  11.068  10.019   6.784 -0.8345  1.0803  0.2319
  931MOL0     C28374  11.162   9.932   6.834  0.0366 -0.4888  0.3122
  931MOL0     C28375  11.190   9.921   6.964  0.8022 -0.1612  0.0434
  931MOL0     O28376  11.286   9.839   7.001  0.1504  0.2848 -0.0447
  931MOL0     C28377  11.387   9.905   7.086 -0.1854 -0.0162  0.9737
  931MOL0     C28378  11.520   9.869   7.011 -0.4432  0.3425  0.6436
  931MOL0     C28379  11.644   9.940   7.074  0.0412  0.2805 -0.6192
  931MOL0     C28380  11.766   9.907   6.991 -0.7057  0.7177 -0.1842
  931MOL0     C28381  11.893   9.997   7.027 -0.7803 -0.2754  0.0381
  931MOL0     C28382  12.022   9.972   6.945 -0.1700 -0.2099 -0.4273
  931MOL0     C28383  12.145  10.011   7.030 -0.2464  0.2051 -0.4004
  931MOL0     C28384  12.271  10.021   6.945 -0.3073 -0.1410  1.2319
  931MOL0    Cl28385  12.261  10.134   6.805  0.1606 -0.3106  0.5806
  931MOL0     C28386  11.109   9.991   7.048 -0.2716  0.3193 -0.7211
  931MOL0     C28387  11.008  10.073   7.007  0.2310 -0.4794  1.0176
  931MOL0     O28388  10.741  10.213   6.989 -0.4628  0.4957 -0.0134
  931MOL0     C28389  10.792  10.386   6.674 -0.2875  0.1040 -0.7215
  931MOL0     C28390  10.727  10.487   6.606  1.1680  0.9425  0.5828
  931MOL0     N28391  10.172  11.019   6.528  0.3928  0.7533 -0.8039
  931MOL0     N28392  10.050  10.986   6.526  0.0986 -0.1602 -0.6211
  931MOL0     C28393   9.895  10.042   7.073 -0.0171 -0.1217  0.0708
  931MOL0     C28394  10.000   9.970   7.119  0.0929  0.0597 -0.0206
  931MOL0     C28395  10.463   9.889   7.147 -0.6056  0.1459  0.1876
  931MOL0     C28396  10.479   9.872   7.280 -0.5030  0.1283 -0.8986
  931MOL0     C28397  10.604   9.822   7.328  0.5186  0.5409 -0.4966
  931MOL0     C28398  10.706   9.789   7.248 -0.3790 -0.3103 -0.2278
  931MOL0     O28399  10.819   9.735   7.302  0.2750 -0.3103 -0.6561
  931MOL0     C28400  10.933   9.693   7.225 -0.8903 -0.1517 -0.6208
  931MOL0     C28401  11.030   9.635   7.318 -0.2182  0.3319  1.1416
  931MOL0     C28402  11.180   9.657   7.283  0.2085  0.2508  0.3191
  931MOL0     C28403  11.279   9.575   7.368  0.8255 -0.3737  0.2414
  931MOL0     C28404  11.418   9.594   7.328  0.4739 -0.3261 -0.2397
  931MOL0     C28405  11.526   9.611   7.275 -0.5204 -0.2455 -0.7124
  931MOL0     C28406  10.691   9.796   7.114  0.2978 -0.7595  0.6102
  931MOL0     C28407  10.576   9.858   7.058 -1.6585  1.0696  0.0059
  931MOL0     C28408  10.589   9.881   6.916  0.0184 -0.2059  0.2920
  931MOL0     H28409  10.240  10.203   7.084 -1.3345  2.0079 -0.0585
  931MOL0     H28410  10.052  10.330   6.979 -1.2846  0.1368 -0.2717
  931MOL0     H28411   9.693  10.292   6.802 -0.7251  4.3497  0.9736
  931MOL0     H28412   9.869  10.238   6.775  0.5320  1.1781 -1.8678
  931MOL0     H28413   9.772  10.494   6.927 -0.3801 -1.4952  0.3767
  931MOL0     H28414   9.941  10.451   6.869 -0.0863 -1.5333  0.7555
  931MOL0     H28415   9.696  10.469   6.688  0.8896 -1.0243 -0.4556
  931MOL0     H28416   9.780  10.615   6.721  0.2843  0.1896  0.1913
  931MOL0     H28417   9.995  10.501   6.648 -0.6995 -0.4517  1.8725
  931MOL0     H28418   9.889  10.365   6.593  1.6098 -0.3905  0.8681
  931MOL0     H28419   9.772  10.538   6.436  0.7271 -0.9352 -2.0342
  931MOL0     H28420   9.931  10.488   6.392  0.7613 -0.8628  1.7187
  931MOL0     H28421   9.840  10.737   6.552  0.5959 -1.7549  1.0029
  931MOL0     H28422  10.013  10.714   6.505  0.2135  2.9317 -0.6118
  931MOL0     H28423   9.770  10.735   6.308 -1.6769  2.9052  2.5295
  931MOL0     H28424   9.932  10.735   6.247 -1.0461 -1.4715 -1.3934
  931MOL0     H28425   9.848  10.965   6.262  0.1725  2.5566  2.0094
  931MOL0     H28426   9.800  10.947   6.431 -1.7423 -2.4969 -1.0435
  931MOL0     H28427  10.141  10.965   6.204 -0.0555 -1.0566 -0.5132
  931MOL0     H28428  10.414  11.108   6.385  1.0400 -1.0580  0.6656
  931MOL0     H28429  10.378  10.983   6.264  1.4040  0.0507 -0.6475
  931MOL0     H28430  10.543  10.950   6.499  1.3904 -0.5229 -1.3298
  931MOL0     H28431  10.396  10.870   6.541  0.8442 -1.5362 -0.1972
  931MOL0     H28432  10.381  10.737   6.379  1.2302 -2.1655 -3.4593
  931MOL0     H28433  10.507  10.797   6.266 -2.2901 -0.8452 -1.8749
  931MOL0     H28434  10.592  10.597   6.388  1.0659  0.4670 -1.0845
  931MOL0     H28435  10.680  10.737   6.443 -0.1420  0.5247 -2.9307
  931MOL0     H28436  10.430  10.517   6.771  0.1599 -0.5030 -0.1009
  931MOL0     H28437  10.507  10.216   6.932  0.7794 -0.7897 -0.1437
  931MOL0     H28438  10.391  10.353   6.916 -0.8814 -2.7819 -0.2763
  931MOL0     H28439  10.532  10.360   7.025  2.1338 -4.9810  0.0354
  931MOL0     H28440  11.053  10.002   6.678  1.4147  1.9677 -0.2935
  931MOL0     H28441  11.227   9.876   6.768 -1.7366  0.0050 -1.9511
  931MOL0     H28442  11.377  10.013   7.099 -0.2443 -0.1538  2.1195
  931MOL0     H28443  11.394   9.860   7.185 -1.9044 -1.3133  0.5633
  931MOL0     H28444  11.534   9.761   7.016 -0.0939  0.4157  1.4150
  931MOL0     H28445  11.507   9.903   6.907 -0.0986 -2.7210 -0.4885
  931MOL0     H28446  11.661   9.907   7.177  0.6291  0.6759 -0.5858
  931MOL0     H28447  11.632  10.048   7.072 -0.8030  0.1929 -0.6414
  931MOL0     H28448  11.752   9.928   6.884 -1.4443 -1.3086 -0.5325
  931MOL0     H28449  11.791   9.800   6.991 -0.1011  0.8353 -1.4524
  931MOL0     H28450  11.865  10.103   7.020 -1.9229 -0.6541 -2.8418
  931MOL0     H28451  11.922   9.969   7.128  1.3505 -2.7587 -1.1479
  931MOL0     H28452  12.025  10.033   6.854 -2.1748  2.0329  0.8772
  931MOL0     H28453  12.036   9.865   6.928 -2.2789 -0.9568  1.8875
  931MOL0     H28454  12.154   9.929   7.101 -1.0327 -0.5970 -1.1935
  931MOL0     H28455  12.117  10.102   7.084 -2.7874  0.7247 -2.3491
  931MOL0     H28456  12.302   9.927   6.898  4.3051  1.8897 -0.5154
  931MOL0     H28457  12.359  10.045   7.005 -0.2691 -0.9406  1.5034
  931MOL0     H28458  11.122   9.994   7.156 -1.5725 -1.9089 -0.4483
  931MOL0     H28459  10.944  10.135   7.069  1.0831  2.3402 -0.7361
  931MOL0     H28460  10.884  10.340   6.640 -1.2240 -0.9518 -1.9557
  931MOL0     H28461  10.766  10.514   6.509 -0.4313  0.9339 -0.0957
  931MOL0     H28462   9.799   9.991   7.072  0.5740 -1.3616 -2.5003
  931MOL0     H28463   9.987   9.866   7.148 -2.0221  0.6005  1.1684
  931MOL0     H28464  10.407   9.884   7.360  1.8311  1.0176  1.2098
  931MOL0     H28465  10.616   9.816   7.435 -0.0407  1.2397 -0.3847
  931MOL0     H28466  10.916   9.621   7.145  0.8133 -0.0078 -1.1419
  931MOL0     H28467  10.989   9.773   7.175  1.1164 -1.2263 -0.1966
  931MOL0     H28468  11.020   9.526   7.319  1.8395  0.0598  3.9383
  931MOL0     H28469  11.010   9.677   7.416 -1.2088 -0.5612  1.3359
  931MOL0     H28470  11.195   9.629   7.179 -0.1855 -0.4663  0.4495
  931MOL0     H28471  11.201   9.764   7.297  0.2636  0.0267  2.2381
  931MOL0     H28472  11.254   9.468   7.366  1.6837 -0.6805  2.6927
  931MOL0     H28473  11.261   9.602   7.473  4.0070 -1.2708  1.1279
  931MOL0     H28474  11.616   9.637   7.223 -0.2891  0.9295  0.2536
  931MOL0     H28475  10.768   9.769   7.042  1.0784 -1.2645  1.6058
  931MOL0     H28476  10.527   9.809   6.862 -0.8989  0.2139  0.7480
  931MOL0     H28477  10.561   9.985   6.896  0.2441 -0.2206 -0.1040
  931MOL0     H28478  10.688   9.867   6.872 -0.7053  1.6922 -2.1876
  932MOL0     O28479   0.915   8.503  11.253  0.6619 -0.1067 -0.5194
  932MOL0     C28480   0.824   8.456  11.178  0.6830 -0.3992 -0.3380
  932MOL0     O28481   0.842   8.367  11.075  0.3650  0.1999  0.1102
  932MOL0     C28482   0.946   8.280  11.076 -0.4257 -0.1202  1.5254
  932MOL0     C28483   0.998   8.214  11.186 -0.5326 -1.0099  0.0358
  932MOL0     C28484   1.095   8.110  11.178 -0.2670 -0.4926  0.0107
  932MOL0     C28485   1.146   8.075  11.050  0.3418  0.0080  0.6814
  932MOL0     O28486   1.244   7.972  11.040 -0.1317  0.5069 -0.1402
  932MOL0     C28487   1.324   7.929  11.151 -0.3095  0.0004 -0.5183
  932MOL0     C28488   1.479   7.927  11.115  0.2437 -0.7912 -0.0205
  932MOL0     C28489   1.520   7.801  11.035 -0.0231  0.5359  0.0102
  932MOL0     C28490   1.653   7.798  10.981 -1.2997 -0.4565 -0.6477
  932MOL0     C28491   1.685   7.662  10.926  0.2518  0.4648 -0.1036
  932MOL0     C28492   1.636   7.648  10.786 -0.6409 -0.4754  0.4397
  932MOL0     C28493   1.642   7.503  10.737 -1.2411 -0.0068  0.1451
  932MOL0     C28494   1.780   7.440  10.728  0.2106 -0.5052 -0.7840
  932MOL0     N28495   1.866   7.512  10.637 -0.2708  0.1685  0.0661
  932MOL0     C28496   1.849   7.512  10.501 -0.6785  0.3823  0.0141
  932MOL0     C28497   1.969   7.526  10.441  0.5646  0.4095  0.0410
  932MOL0     C28498   1.981   7.509  10.291 -0.4708 -0.9413  0.8816
  932MOL0     C28499   2.117   7.441  10.262  0.7341 -0.9954  0.3614
  932MOL0     C28500   2.148   7.425  10.113  0.2202 -0.0882 -0.4605
  932MOL0     C28501   2.053   7.322  10.046 -0.2726  0.9747  0.6896
  932MOL0     O28502   2.067   7.302   9.900 -0.1770 -0.3399  0.3125
  932MOL0     C28503   2.186   7.275   9.851 -0.4512 -0.5150  0.5596
  932MOL0     C28504   2.226   7.344   9.730  0.0494  0.6788  0.0709
  932MOL0     C28505   2.346   7.319   9.661 -0.6776  0.0984 -1.0698
  932MOL0     C28506   2.393   7.383   9.531  0.6067 -0.1172 -0.6465
  932MOL0     C28507   2.435   7.218   9.718  0.2133 -0.7530 -0.2429
  932MOL0     C28508   2.562   7.160   9.665  0.1720 -0.3125  0.3784
  932MOL0     O28509   2.576   7.023   9.686  0.1035 -0.4419  0.0544
  932MOL0     C28510   2.682   6.965   9.622 -0.6101  0.7344  0.6090
  932MOL0     C28511   2.797   6.965   9.697 -0.6761 -0.0103 -0.0711
  932MOL0     C28512   2.924   6.934   9.636 -0.0629  0.6488  0.6925
  932MOL0     C28513   2.925   6.905   9.502 -0.5643 -0.6371  0.9988
  932MOL0     O28514   3.054   6.893   9.456 -0.3925 -0.3141  0.1650
  932MOL0     C28515   3.069   6.860   9.313 -0.8920  0.1138  0.9157
  932MOL0     C28516   3.222   6.845   9.293  1.3653 -0.1233 -0.3791
  932MOL0     C28517   3.242   6.773   9.161 -1.0033 -0.1017  0.6871
  932MOL0     C28518   3.398   6.773   9.133  0.0865  0.6888 -0.3379
  932MOL0     C28519   3.429   6.738   8.984 -0.0506  0.3557 -0.4994
  932MOL0     C28520   3.575   6.760   8.962  0.0949 -0.9287  0.0668
  932MOL0     C28521   3.637   6.748   8.826  0.4517  0.8178  0.0907
  932MOL0     C28522   3.782   6.773   8.820 -0.6511  0.4942 -1.0693
  932MOL0    Cl28523   3.881   6.648   8.907  0.0556  0.0327 -0.4925
  932MOL0     C28524   2.809   6.893   9.427  0.3001 -0.9213 -0.1340
  932MOL0     C28525   2.684   6.922   9.487  0.9352  0.4468  0.3682
  932MOL0     O28526   2.634   7.235   9.601 -0.4392 -0.0472  0.2161
  932MOL0     C28527   2.391   7.158   9.843 -0.5140  0.1050  0.7368
  932MOL0     C28528   2.270   7.185   9.914  0.2506 -0.2942 -0.7700
  932MOL0     N28529   2.057   7.554  10.537  0.3940  0.8798 -0.7471
  932MOL0     N28530   1.997   7.551  10.654  0.4115  0.6385 -0.0070
  932MOL0     C28531   1.087   8.133  10.932  0.8442 -0.5201 -0.1481
  932MOL0     C28532   0.989   8.235  10.947 -0.3427 -0.6625 -0.3029
  932MOL0     C28533   0.689   8.512  11.191  0.2717  0.7981 -0.1439
  932MOL0     C28534   0.676   8.651  11.213 -0.4231 -0.0078  0.1598
  932MOL0     C28535   0.551   8.711  11.218  0.3350  0.5206 -0.9254
  932MOL0     C28536   0.431   8.639  11.200 -0.5209  0.1051  1.1830
  932MOL0     O28537   0.307   8.691  11.177 -0.3034 -0.2647 -0.4422
  932MOL0     C28538   0.281   8.828  11.223 -0.1700  0.7066  0.7229
  932MOL0     C28539   0.274   8.826  11.374 -0.0367 -0.1042 -1.0997
  932MOL0     C28540   0.142   8.797  11.441 -1.0571 -0.3915  0.3029
  932MOL0     C28541   0.077   8.665  11.395  0.1238 -0.2226  0.0743
  932MOL0     C28542  -0.054   8.656  11.449 -0.0507  0.4184  0.4424
  932MOL0     C28543  -0.160   8.643  11.493 -0.6755 -0.3410 -0.1752
  932MOL0     C28544   0.446   8.504  11.168  1.1848 -0.0688  0.2342
  932MOL0     C28545   0.570   8.440  11.173  0.2688  0.0731 -0.5677
  932MOL0     C28546   0.567   8.287  11.176  0.5228 -0.2531 -0.1177
  932MOL0     H28547   0.960   8.250  11.281  2.2860  0.9873  0.5315
  932MOL0     H28548   1.123   8.057  11.268  0.4588 -0.3218 -0.1097
  932MOL0     H28549   1.291   7.827  11.176 -1.2807 -0.1190 -2.1557
  932MOL0     H28550   1.312   7.996  11.237  0.8489  0.9886 -1.0973
  932MOL0     H28551   1.527   8.008  11.059  2.0063 -1.7020  0.1013
  932MOL0     H28552   1.532   7.937  11.210  0.9404  0.9753 -0.5653
  932MOL0     H28553   1.502   7.717  11.103 -1.1407  1.6390  1.1437
  932MOL0     H28554   1.444   7.787  10.958 -0.7875 -1.3529  1.0386
  932MOL0     H28555   1.660   7.877  10.905  4.0203 -0.3842 -0.4593
  932MOL0     H28556   1.721   7.820  11.064 -3.3856 -1.1598  1.3197
  932MOL0     H28557   1.639   7.583  10.986 -0.1903  0.1081 -0.9089
  932MOL0     H28558   1.794   7.648  10.923  0.1024 -0.6073 -2.1161
  932MOL0     H28559   1.531   7.676  10.775 -0.6866  0.2958  2.5175
  932MOL0     H28560   1.700   7.705  10.717 -1.2407 -0.2511  0.0602
  932MOL0     H28561   1.583   7.507  10.645  0.6225  0.2089 -1.0919
  932MOL0     H28562   1.590   7.433  10.804  0.2549 -0.9011  0.4234
  932MOL0     H28563   1.820   7.448  10.829 -1.6197 -1.2704  0.0558
  932MOL0     H28564   1.787   7.339  10.687 -1.4210 -0.9813  0.0227
  932MOL0     H28565   1.756   7.477  10.459  0.4859 -2.3146 -0.5310
  932MOL0     H28566   1.974   7.606  10.241 -2.1670  0.1290  3.0426
  932MOL0     H28567   1.895   7.447  10.263 -1.1462 -0.3950  1.6953
  932MOL0     H28568   2.189   7.510  10.308  0.9580 -0.8284 -0.2344
  932MOL0     H28569   2.120   7.337  10.298 -2.0638 -0.5163  2.3280
  932MOL0     H28570   2.151   7.523  10.064  1.2833  0.1115 -0.0200
  932MOL0     H28571   2.246   7.379  10.099 -0.2905 -1.4329  0.2219
  932MOL0     H28572   2.064   7.221  10.085 -1.8016  0.3689 -0.3743
  932MOL0     H28573   1.949   7.353  10.062 -0.6254  0.3069 -0.2182
  932MOL0     H28574   2.149   7.401   9.679 -0.6714 -1.0665 -0.8593
  932MOL0     H28575   2.434   7.309   9.461  2.6485 -0.3054  0.6615
  932MOL0     H28576   2.478   7.448   9.553  0.0804 -0.2926  2.2312
  932MOL0     H28577   2.317   7.443   9.480  1.3541  1.7469  0.3797
  932MOL0     H28578   2.791   7.016   9.792  0.3434  1.0689 -0.5684
  932MOL0     H28579   3.020   6.953   9.684 -0.3572  1.8126  0.8356
  932MOL0     H28580   3.019   6.763   9.301  1.5640 -1.1691  0.4501
  932MOL0     H28581   3.034   6.944   9.253 -0.7521  0.3368  1.1432
  932MOL0     H28582   3.262   6.947   9.301  2.2528 -0.4784 -0.1113
  932MOL0     H28583   3.266   6.794   9.379 -0.1813  0.9674  1.1169
  932MOL0     H28584   3.190   6.830   9.084  1.3538  0.3246 -0.6967
  932MOL0     H28585   3.205   6.670   9.159  1.7211 -1.1511 -0.4111
  932MOL0     H28586   3.441   6.689   9.188 -1.4295 -0.7375 -1.2412
  932MOL0     H28587   3.444   6.867   9.165 -0.0987  0.7594 -0.2825
  932MOL0     H28588   3.408   6.631   8.975  0.5066  0.1639  0.3143
  932MOL0     H28589   3.358   6.789   8.919 -0.2448  3.4554  1.9115
  932MOL0     H28590   3.626   6.688   9.026 -1.1325  0.0659  2.2658
  932MOL0     H28591   3.605   6.854   9.008 -0.6883 -1.0016  0.7555
  932MOL0     H28592   3.572   6.800   8.755 -0.9435 -1.4174 -0.3790
  932MOL0     H28593   3.618   6.649   8.783  1.2551  0.6839  0.0390
  932MOL0     H28594   3.797   6.873   8.861  0.4898  0.0408 -0.3204
  932MOL0     H28595   3.808   6.780   8.714  3.3182 -0.9321 -0.3568
  932MOL0     H28596   2.796   6.867   9.323  2.3132  0.7131 -0.8471
  932MOL0     H28597   2.597   6.919   9.421  0.5943 -0.2239  0.8299
  932MOL0     H28598   2.467   7.091   9.883 -0.6732 -1.4105 -1.3238
  932MOL0     H28599   2.232   7.129   9.998 -2.7075  1.1866 -1.0021
  932MOL0     H28600   1.124   8.097  10.837  0.0847  0.9472 -1.0413
  932MOL0     H28601   0.962   8.282  10.853  0.7193 -0.2363 -0.4157
  932MOL0     H28602   0.775   8.693  11.227  0.9876 -2.4335 -1.6350
  932MOL0     H28603   0.545   8.817  11.242  1.5288  0.4438 -0.2195
  932MOL0     H28604   0.363   8.896  11.198 -0.1152  0.7349  0.9758
  932MOL0     H28605   0.188   8.864  11.177 -0.4725  0.8559  1.4343
  932MOL0     H28606   0.292   8.927  11.412 -3.0143 -0.5991  2.1667
  932MOL0     H28607   0.349   8.760  11.421 -0.0762  0.8521  0.3899
  932MOL0     H28608   0.164   8.798  11.548 -2.3527  0.1902  0.5841
  932MOL0     H28609   0.076   8.881  11.419 -0.2524  0.1103 -0.2291
  932MOL0     H28610   0.129   8.574  11.427  2.6576  1.3400  0.6150
  932MOL0     H28611   0.074   8.674  11.286 -0.6528  0.9009  0.1722
  932MOL0     H28612  -0.261   8.634  11.527 -1.1245  0.1375 -1.3156
  932MOL0     H28613   0.363   8.445  11.130  1.5208 -1.5390  1.6418
  932MOL0     H28614   0.662   8.250  11.217  1.0726 -1.3936 -2.2497
  932MOL0     H28615   0.491   8.248  11.243 -0.9295  2.3936 -0.1165
  932MOL0     H28616   0.540   8.236  11.083  1.3110 -4.6549  1.8339
  933MOL0     O28617   2.089   8.491   3.511 -0.1198  0.1253 -0.4298
  933MOL0     C28618   2.128   8.610   3.522  0.6803  0.1372 -0.0481
  933MOL0     O28619   2.259   8.653   3.515 -0.2091  0.6721  0.0824
  933MOL0     C28620   2.338   8.558   3.456  0.2200 -0.2517 -1.1747
  933MOL0     C28621   2.370   8.546   3.319  1.4081 -0.6021  0.3639
  933MOL0     C28622   2.441   8.437   3.267 -0.0981 -0.2782 -0.1673
  933MOL0     C28623   2.493   8.338   3.353  0.2231 -0.0637  0.6304
  933MOL0     O28624   2.574   8.233   3.307 -0.7103  0.7763 -0.5804
  933MOL0     C28625   2.576   8.210   3.161 -0.4377 -0.3088  0.7348
  933MOL0     C28626   2.647   8.075   3.136  0.4914  0.7788 -0.7091
  933MOL0     C28627   2.688   8.046   2.987  0.2465 -0.3465  0.5757
  933MOL0     C28628   2.755   7.907   2.959  0.8369  0.2799 -0.4309
  933MOL0     C28629   2.805   7.907   2.819  0.3807  0.3150 -0.5051
  933MOL0     C28630   2.853   7.772   2.785 -0.5187 -0.1369  0.3788
  933MOL0     C28631   2.984   7.728   2.866  0.3321 -0.7119  0.1955
  933MOL0     C28632   3.021   7.582   2.844  0.0955 -0.0541  0.0722
  933MOL0     N28633   2.962   7.488   2.934 -0.4792  0.3716 -0.6422
  933MOL0     C28634   2.831   7.485   2.973  0.5195 -0.2201  0.2454
  933MOL0     C28635   2.814   7.362   3.038  0.1248  0.8687  0.0967
  933MOL0     C28636   2.700   7.306   3.113  0.2407 -0.3026  0.0385
  933MOL0     C28637   2.643   7.404   3.203  0.0325 -0.2285 -0.0075
  933MOL0     C28638   2.732   7.427   3.331  0.5507  0.3506  0.2625
  933MOL0     C28639   2.668   7.520   3.436  0.3033 -0.3414  0.0511
  933MOL0     O28640   2.541   7.466   3.473 -0.7215 -0.4140 -0.0901
  933MOL0     C28641   2.477   7.524   3.585  0.4236 -0.5254  0.5954
  933MOL0     C28642   2.346   7.490   3.599  0.7004  0.1379 -0.3437
  933MOL0     C28643   2.266   7.544   3.700 -0.2506 -0.0368  0.2416
  933MOL0     C28644   2.127   7.482   3.711  0.0215  0.4294  0.6255
  933MOL0     C28645   2.326   7.634   3.797  0.0997  0.0899  0.2326
  933MOL0     C28646   2.248   7.695   3.911 -0.6376  0.4964 -0.3373
  933MOL0     O28647   2.300   7.800   3.980  0.4727 -0.4973  0.2904
  933MOL0     C28648   2.231   7.863   4.081 -0.2636 -0.1835  0.8058
  933MOL0     C28649   2.104   7.910   4.060 -0.1277  0.3893 -0.4351
  933MOL0     C28650   2.033   7.987   4.152  1.1475  0.4986 -0.7533
  933MOL0     C28651   2.110   8.025   4.267 -0.3510  0.6965  0.3723
  933MOL0     O28652   2.056   8.097   4.367 -0.3132  0.5780 -0.2263
  933MOL0     C28653   1.990   8.223   4.332  0.3626  0.2536 -0.1500
  933MOL0     C28654   2.074   8.339   4.383 -0.4870  0.0369 -1.0507
  933MOL0     C28655   2.101   8.347   4.540 -0.0575 -0.3704  0.4354
  933MOL0     C28656   2.207   8.457   4.575 -0.5889  0.2911 -0.4651
  933MOL0     C28657   2.256   8.438   4.720  0.2389  0.1180 -0.3009
  933MOL0     C28658   2.382   8.507   4.761 -0.4693  0.6237 -0.0728
  933MOL0     C28659   2.354   8.656   4.795  0.2323  0.5749  0.0826
  933MOL0     C28660   2.467   8.700   4.878 -0.8214 -0.5202 -0.2401
  933MOL0    Cl28661   2.451   8.875   4.908 -0.2620  0.0418  0.1442
  933MOL0     C28662   2.237   7.969   4.293  0.9282  0.3452 -1.0800
  933MOL0     C28663   2.295   7.879   4.203 -0.1443 -0.2716  1.0704
  933MOL0     O28664   2.139   7.648   3.925  0.0077  0.2500 -0.6449
  933MOL0     C28665   2.454   7.686   3.771  0.1301 -0.4340  1.0449
  933MOL0     C28666   2.531   7.624   3.668 -0.5685 -0.7509  0.3493
  933MOL0     N28667   2.941   7.296   3.039  0.9922  0.3541  0.1046
  933MOL0     N28668   3.023   7.371   2.977  0.4364 -0.0382 -0.2032
  933MOL0     C28669   2.475   8.359   3.495  0.5596  0.1726  0.5458
  933MOL0     C28670   2.394   8.462   3.542 -0.0731  0.7054 -0.5755
  933MOL0     C28671   2.036   8.714   3.583  0.6945  0.5834  0.6784
  933MOL0     C28672   2.082   8.830   3.642 -0.3418  0.5985  0.5803
  933MOL0     C28673   2.010   8.922   3.706  0.8561 -0.4369  0.0668
  933MOL0     C28674   1.871   8.905   3.729 -0.8566 -0.6291  0.1801
  933MOL0     O28675   1.792   8.988   3.799 -0.0355 -0.1338  0.3119
  933MOL0     C28676   1.856   9.093   3.871 -0.2230 -0.1640 -0.1958
  933MOL0     C28677   1.754   9.170   3.949  0.0161  0.6992  0.2792
  933MOL0     C28678   1.675   9.256   3.842 -0.1158 -0.8098 -0.1068
  933MOL0     C28679   1.640   9.394   3.899 -0.4079  0.1665 -0.5716
  933MOL0     C28680   1.587   9.399   4.033 -0.4376 -0.1656  0.1669
  933MOL0     C28681   1.517   9.398   4.136  0.3871 -0.5842 -0.2460
  933MOL0     C28682   1.819   8.788   3.671  0.3260  0.3354 -0.0143
  933MOL0     C28683   1.893   8.698   3.595  0.3006  0.4293 -0.1827
  933MOL0     C28684   1.811   8.581   3.540 -0.6124  0.6585 -0.4665
  933MOL0     H28685   2.340   8.621   3.246  0.9137  0.0937  1.2685
  933MOL0     H28686   2.458   8.432   3.160 -1.6174 -0.1782 -0.4377
  933MOL0     H28687   2.634   8.288   3.111  0.9283 -2.1602 -0.7139
  933MOL0     H28688   2.475   8.203   3.118 -0.0089  1.3108 -0.6006
  933MOL0     H28689   2.732   8.063   3.204 -0.5672 -3.2767  0.1910
  933MOL0     H28690   2.574   8.000   3.167  0.9749  0.9617  1.0266
  933MOL0     H28691   2.604   8.067   2.920 -0.6977 -1.9662  1.2049
  933MOL0     H28692   2.767   8.116   2.957 -0.4755 -0.0716 -0.7414
  933MOL0     H28693   2.835   7.884   3.029 -1.0463 -2.7244  0.9226
  933MOL0     H28694   2.688   7.822   2.974  2.3758 -1.1987 -1.5225
  933MOL0     H28695   2.883   7.980   2.796 -0.5119  1.0461 -1.3117
  933MOL0     H28696   2.720   7.924   2.752 -1.7952 -3.4626  1.0006
  933MOL0     H28697   2.774   7.698   2.799 -0.7507 -0.1314 -0.7853
  933MOL0     H28698   2.871   7.766   2.677 -0.5050 -2.5880  0.4611
  933MOL0     H28699   2.980   7.746   2.974  2.2529  5.7753 -0.3796
  933MOL0     H28700   3.061   7.799   2.832 -2.5898  0.9114 -3.8277
  933MOL0     H28701   3.006   7.545   2.742  4.7298 -0.7655 -0.5989
  933MOL0     H28702   3.129   7.571   2.862  0.8423  3.1888 -1.7408
  933MOL0     H28703   2.749   7.555   2.962  0.2524 -0.5757 -0.0897
  933MOL0     H28704   2.735   7.219   3.171 -1.4149  0.0592  1.6488
  933MOL0     H28705   2.626   7.272   3.040 -1.6238  1.8125  0.8525
  933MOL0     H28706   2.622   7.498   3.151 -3.6977 -1.1988 -0.5698
  933MOL0     H28707   2.545   7.369   3.238  0.0262  0.1639  0.3752
  933MOL0     H28708   2.765   7.333   3.376  0.9118  0.3823  0.0712
  933MOL0     H28709   2.824   7.476   3.298 -0.6558  3.0233  0.6055
  933MOL0     H28710   2.730   7.535   3.525 -0.5685  3.9368  0.1382
  933MOL0     H28711   2.655   7.622   3.399  0.0686  0.8548  3.0944
  933MOL0     H28712   2.313   7.427   3.517 -0.8658  3.2425 -2.2828
  933MOL0     H28713   2.125   7.401   3.639 -0.0527  0.7580  0.2549
  933MOL0     H28714   2.043   7.548   3.686 -0.8829 -1.7343 -2.7099
  933MOL0     H28715   2.111   7.434   3.808 -0.5525  2.2724  1.4889
  933MOL0     H28716   2.044   7.886   3.974 -0.9943 -1.4332  0.6195
  933MOL0     H28717   1.930   8.023   4.149  0.8656  0.8130  4.1727
  933MOL0     H28718   1.957   8.227   4.227  3.0546  0.8126 -1.0552
  933MOL0     H28719   1.897   8.225   4.390 -0.3130 -0.5021 -1.1647
  933MOL0     H28720   2.169   8.327   4.332 -0.2731  2.8415 -1.4826
  933MOL0     H28721   2.024   8.428   4.343 -1.4770  0.0589  0.1343
  933MOL0     H28722   2.144   8.250   4.566  2.4980  0.3777 -0.7028
  933MOL0     H28723   2.004   8.363   4.588 -0.6982  1.6875 -1.3575
  933MOL0     H28724   2.156   8.553   4.560 -2.4989  0.3854  4.6396
  933MOL0     H28725   2.292   8.436   4.509  0.7793  2.5855  0.4568
  933MOL0     H28726   2.179   8.477   4.787  1.3346  2.9475 -0.5736
  933MOL0     H28727   2.273   8.331   4.735 -0.0080  0.1345  0.0896
  933MOL0     H28728   2.456   8.501   4.681 -0.6589 -0.6377 -0.1808
  933MOL0     H28729   2.420   8.462   4.853 -2.0373  1.2538  0.9284
  933MOL0     H28730   2.262   8.679   4.849  0.7933 -0.3831  1.5414
  933MOL0     H28731   2.349   8.710   4.701  1.9287 -2.5786 -2.0172
  933MOL0     H28732   2.566   8.687   4.833  0.8029  3.7957  1.5532
  933MOL0     H28733   2.471   8.650   4.975  0.5677  0.7160  0.3710
  933MOL0     H28734   2.271   7.972   4.395 -0.8607  1.2039 -0.4553
  933MOL0     H28735   2.387   7.825   4.223  0.6941  0.9884  0.7733
  933MOL0     H28736   2.499   7.762   3.834  1.9282 -1.0999  0.6146
  933MOL0     H28737   2.633   7.656   3.648 -1.2317  0.9862 -0.4233
  933MOL0     H28738   2.508   8.294   3.575 -1.2917  1.2657  2.3039
  933MOL0     H28739   2.384   8.471   3.649 -0.8669 -0.5260 -0.5364
  933MOL0     H28740   2.185   8.853   3.618 -0.3095  1.7200  1.7308
  933MOL0     H28741   2.077   9.000   3.742  0.2853 -0.0842  0.3793
  933MOL0     H28742   1.925   9.052   3.945 -0.8252 -0.5447  0.1681
  933MOL0     H28743   1.897   9.159   3.795 -2.1750  2.8996  1.2214
  933MOL0     H28744   1.817   9.233   4.012  0.0801 -1.6477  2.7375
  933MOL0     H28745   1.700   9.096   4.009  0.9733  1.7954  2.6406
  933MOL0     H28746   1.720   9.255   3.742  1.0042 -1.3251  0.3834
  933MOL0     H28747   1.576   9.209   3.834 -1.3096  1.4731  0.3887
  933MOL0     H28748   1.566   9.432   3.827 -2.8091  1.1417  2.2256
  933MOL0     H28749   1.736   9.446   3.903  0.4717 -1.4727  0.7520
  933MOL0     H28750   1.450   9.410   4.219  0.3407  0.5152 -0.4309
  933MOL0     H28751   1.713   8.767   3.678  0.0189  0.8737 -2.2587
  933MOL0     H28752   1.708   8.583   3.574  0.0936 -0.6914  1.9464
  933MOL0     H28753   1.826   8.568   3.432  1.7411  1.7380 -0.3240
  933MOL0     H28754   1.838   8.490   3.594  0.1910  1.9226  1.3646
  934MOL0     O28755   2.707   5.702   2.387 -0.4139 -0.2025  0.2125
  934MOL0     C28756   2.670   5.601   2.449  0.3053 -0.7112 -0.5336
  934MOL0     O28757   2.748   5.521   2.528 -0.6410  0.2718 -0.0253
  934MOL0     C28758   2.885   5.541   2.531  0.6833  1.1201  0.3956
  934MOL0     C28759   2.981   5.452   2.473  0.4005 -0.6970 -0.0874
  934MOL0     C28760   3.118   5.480   2.482  0.4527 -0.3378 -0.3502
  934MOL0     C28761   3.163   5.601   2.537 -0.8086 -0.4662  0.7011
  934MOL0     O28762   3.300   5.617   2.539  0.4479  0.9129  0.4958
  934MOL0     C28763   3.358   5.684   2.651 -0.4412  0.7700  0.1975
  934MOL0     C28764   3.511   5.681   2.677 -0.1288 -0.8359  0.1399
  934MOL0     C28765   3.590   5.732   2.549  0.7240  0.5385 -0.4868
  934MOL0     C28766   3.737   5.710   2.584 -0.5703  0.7072  1.0553
  934MOL0     C28767   3.826   5.746   2.463 -0.8375 -0.5122  0.0570
  934MOL0     C28768   3.964   5.696   2.488  0.4436  0.2797  0.5276
  934MOL0     C28769   4.063   5.752   2.388  0.2388  0.0312  0.4727
  934MOL0     C28770   4.115   5.640   2.303 -0.2406  1.1139  0.5931
  934MOL0     N28771   4.213   5.691   2.211  0.8857  0.5060 -0.1359
  934MOL0     C28772   4.346   5.718   2.241 -0.2350 -0.0013 -0.6086
  934MOL0     C28773   4.407   5.751   2.122  0.7878  0.3081 -0.6788
  934MOL0     C28774   4.549   5.790   2.098 -0.1028  0.1536  0.7472
  934MOL0     C28775   4.647   5.736   2.200 -0.1872  0.3437 -0.1356
  934MOL0     C28776   4.783   5.816   2.175  0.4316 -0.5573  0.3428
  934MOL0     C28777   4.876   5.759   2.066 -0.5008  0.1863  0.0626
  934MOL0     O28778   5.004   5.826   2.073 -0.3513  0.9271 -0.1346
  934MOL0     C28779   5.093   5.811   1.974 -0.4286 -0.3492  0.3748
  934MOL0     C28780   5.080   5.735   1.859  0.6045  0.6285  0.6192
  934MOL0     C28781   5.173   5.731   1.760 -0.4003 -0.8166 -0.1442
  934MOL0     C28782   5.139   5.652   1.632  0.5119 -0.5869  0.2048
  934MOL0     C28783   5.294   5.802   1.771 -0.6538  0.1670  0.2019
  934MOL0     C28784   5.406   5.804   1.677  0.6885 -0.2907  0.2557
  934MOL0     O28785   5.515   5.883   1.710  0.4446  0.8126  0.3918
  934MOL0     C28786   5.624   5.872   1.628 -0.3279 -0.4066  0.9638
  934MOL0     C28787   5.644   5.970   1.533  1.1788 -1.1652  0.5154
  934MOL0     C28788   5.749   5.972   1.440  0.4715  0.4068  0.1119
  934MOL0     C28789   5.835   5.855   1.434 -1.0676 -0.3806  0.3526
  934MOL0     O28790   5.932   5.822   1.346 -0.5825  0.7490 -0.1230
  934MOL0     C28791   5.909   5.869   1.212  1.0101  0.1184 -0.1600
  934MOL0     C28792   6.001   5.827   1.096  0.2227 -0.8008  0.7600
  934MOL0     C28793   6.018   5.675   1.073 -0.5779  0.1657  1.1052
  934MOL0     C28794   6.041   5.632   0.926  0.3722  0.7194  0.4259
  934MOL0     C28795   6.077   5.487   0.922  0.0198 -0.3030 -0.5443
  934MOL0     C28796   6.078   5.419   0.786  0.5808  0.2167 -0.2142
  934MOL0     C28797   6.107   5.273   0.823 -0.5669 -0.4826  0.7012
  934MOL0     C28798   5.985   5.203   0.879 -0.2215  0.1553 -0.1677
  934MOL0    Cl28799   5.835   5.225   0.771  0.3889 -0.0009 -0.2327
  934MOL0     C28800   5.831   5.767   1.544 -0.1423  0.4291 -0.2803
  934MOL0     C28801   5.719   5.770   1.643  1.0940 -0.6465  0.4447
  934MOL0     O28802   5.402   5.735   1.577  0.1675 -0.3479  0.6142
  934MOL0     C28803   5.310   5.882   1.896 -0.2968 -0.2557  0.4256
  934MOL0     C28804   5.213   5.884   1.994  0.2887 -0.2320 -0.5009
  934MOL0     N28805   4.305   5.753   2.023  0.7111 -0.6763  0.0691
  934MOL0     N28806   4.193   5.722   2.085  0.1943  0.4167 -0.4274
  934MOL0     C28807   3.066   5.693   2.587 -0.6371 -0.7183  0.3233
  934MOL0     C28808   2.933   5.662   2.580  0.3712 -0.5602 -0.7347
  934MOL0     C28809   2.521   5.569   2.454 -0.1651  0.1464  0.5519
  934MOL0     C28810   2.451   5.606   2.344  0.2016 -0.1257  0.1935
  934MOL0     C28811   2.315   5.564   2.333 -0.3283 -0.6665  0.4029
  934MOL0     C28812   2.251   5.508   2.436  0.5141  0.7138 -1.0882
  934MOL0     O28813   2.114   5.481   2.438 -0.1609 -0.8953 -0.3632
  934MOL0     C28814   2.019   5.538   2.349 -0.0315 -0.1048  0.0404
  934MOL0     C28815   2.006   5.686   2.356  0.5556  0.8608 -0.5924
  934MOL0     C28816   1.868   5.731   2.325 -0.0805  0.0212  0.0934
  934MOL0     C28817   1.844   5.876   2.347  0.3025 -0.1694  0.2711
  934MOL0     C28818   1.702   5.896   2.361  0.2794 -0.3116 -0.0216
  934MOL0     C28819   1.584   5.910   2.386 -0.1282  0.3812  0.4194
  934MOL0     C28820   2.328   5.479   2.550  0.8281 -0.4685 -0.9315
  934MOL0     C28821   2.463   5.505   2.563  0.3041  0.3415 -0.1341
  934MOL0     C28822   2.522   5.475   2.696 -0.2350 -0.1302 -0.0740
  934MOL0     H28823   2.952   5.364   2.416  2.3012 -0.0068 -2.2702
  934MOL0     H28824   3.189   5.411   2.438 -1.9793 -2.0760 -1.8292
  934MOL0     H28825   3.310   5.638   2.738  0.0589 -1.7093 -0.7285
  934MOL0     H28826   3.347   5.791   2.636  1.4343  0.8841 -0.6927
  934MOL0     H28827   3.530   5.749   2.760  1.3984 -0.9584 -0.0827
  934MOL0     H28828   3.546   5.582   2.707  2.1049  0.3542  1.7924
  934MOL0     H28829   3.567   5.683   2.454  0.8148  0.0915 -0.2805
  934MOL0     H28830   3.553   5.834   2.541 -2.4905 -0.4454  0.2564
  934MOL0     H28831   3.763   5.773   2.669  0.6516  1.1762  0.3644
  934MOL0     H28832   3.744   5.604   2.609 -3.1089 -0.6675 -3.0014
  934MOL0     H28833   3.826   5.853   2.444 -0.9622 -0.7524 -1.4006
  934MOL0     H28834   3.785   5.694   2.376  1.2997 -1.2154 -0.5813
  934MOL0     H28835   3.997   5.732   2.587 -0.0606  2.4789 -0.0622
  934MOL0     H28836   3.969   5.587   2.500  3.3452  0.1507 -0.9836
  934MOL0     H28837   4.155   5.784   2.438  1.0527 -0.0865 -0.9142
  934MOL0     H28838   4.017   5.828   2.324  0.4829 -1.7218 -1.9208
  934MOL0     H28839   4.153   5.553   2.358 -4.4568 -1.1499  0.3856
  934MOL0     H28840   4.033   5.597   2.245  1.0905 -3.2044  1.5907
  934MOL0     H28841   4.397   5.715   2.336 -0.7939  0.5882 -0.2829
  934MOL0     H28842   4.552   5.900   2.096  2.5465  0.2197  2.4518
  934MOL0     H28843   4.577   5.756   1.998 -0.5955 -1.3282  1.1037
  934MOL0     H28844   4.619   5.761   2.303  3.3612  1.0471  0.7954
  934MOL0     H28845   4.650   5.627   2.202  1.7573  0.3787  0.5946
  934MOL0     H28846   4.763   5.921   2.149  1.6537 -0.0321  1.4340
  934MOL0     H28847   4.839   5.807   2.268 -0.3157 -1.0203  0.7541
  934MOL0     H28848   4.900   5.654   2.085  0.5672  0.6185  1.1882
  934MOL0     H28849   4.828   5.765   1.968 -2.1769 -2.3312  0.6587
  934MOL0     H28850   4.998   5.667   1.836  2.4078 -1.1421 -0.9619
  934MOL0     H28851   5.046   5.597   1.648  0.6804 -1.1720 -0.8006
  934MOL0     H28852   5.208   5.576   1.597  1.0253  0.1895 -0.5037
  934MOL0     H28853   5.144   5.720   1.547  0.8155  0.7244  1.2235
  934MOL0     H28854   5.575   6.054   1.535  2.8252  0.2824 -0.7010
  934MOL0     H28855   5.767   6.045   1.362  0.4150 -1.1733 -1.4291
  934MOL0     H28856   5.812   5.835   1.176  0.2014 -0.3428  2.3203
  934MOL0     H28857   5.913   5.979   1.214  2.6939  0.1206  3.0759
  934MOL0     H28858   5.947   5.864   1.009  0.3935 -1.3255  0.4267
  934MOL0     H28859   6.102   5.867   1.105  1.1440 -3.1152  1.6457
  934MOL0     H28860   5.941   5.617   1.125  0.0667 -1.9314 -0.1463
  934MOL0     H28861   6.112   5.649   1.122 -0.2005 -0.3522  0.1269
  934MOL0     H28862   6.115   5.694   0.873  0.1554  1.2427  0.7262
  934MOL0     H28863   5.954   5.633   0.858  2.3472  2.8110 -2.3226
  934MOL0     H28864   6.173   5.478   0.974 -0.0249  0.7068 -0.2671
  934MOL0     H28865   6.012   5.431   0.989  0.6652 -1.1571 -0.6116
  934MOL0     H28866   6.154   5.469   0.725  0.1903  0.1877 -0.7233
  934MOL0     H28867   5.982   5.427   0.735 -1.2254 -1.9874  2.5761
  934MOL0     H28868   6.201   5.269   0.879 -0.3353 -0.2566  0.3360
  934MOL0     H28869   6.129   5.225   0.726  2.2986  2.7075 -0.4428
  934MOL0     H28870   5.962   5.242   0.978  0.4162 -1.3399  0.6101
  934MOL0     H28871   6.001   5.095   0.891 -3.0491 -0.5599 -1.8033
  934MOL0     H28872   5.909   5.693   1.557 -1.8491 -1.4671 -0.3079
  934MOL0     H28873   5.714   5.701   1.727 -1.7086 -0.5222  0.4780
  934MOL0     H28874   5.397   5.944   1.916 -1.5709  1.5352  0.7324
  934MOL0     H28875   5.221   5.953   2.077 -0.2699 -1.1985  0.3810
  934MOL0     H28876   3.099   5.795   2.606  2.1168 -1.3758 -0.4692
  934MOL0     H28877   2.865   5.743   2.607 -0.3882 -1.4236  0.0353
  934MOL0     H28878   2.495   5.642   2.252 -1.5639  3.9494  0.7296
  934MOL0     H28879   2.272   5.580   2.234  1.9001 -3.8254 -1.2364
  934MOL0     H28880   2.056   5.515   2.248  2.0119 -0.7228  0.8815
  934MOL0     H28881   1.928   5.479   2.364  1.3651 -2.7194 -1.1666
  934MOL0     H28882   2.077   5.723   2.282  1.0518  1.1408  0.0092
  934MOL0     H28883   2.023   5.723   2.458 -0.9448  1.3893 -0.5203
  934MOL0     H28884   1.834   5.692   2.228 -0.2037  0.4086 -0.0219
  934MOL0     H28885   1.805   5.672   2.392  0.4452 -3.0686 -1.9430
  934MOL0     H28886   1.886   5.939   2.268  0.5299 -0.4789  0.1419
  934MOL0     H28887   1.875   5.912   2.446  0.5004 -0.6416  0.3830
  934MOL0     H28888   1.487   5.904   2.430  0.8018 -2.2464  2.3889
  934MOL0     H28889   2.274   5.425   2.628 -2.1385  0.9411 -1.8667
  934MOL0     H28890   2.560   5.570   2.734  4.0167 -1.7622  0.2738
  934MOL0     H28891   2.441   5.440   2.760 -0.8242 -1.0581 -1.2844
  934MOL0     H28892   2.601   5.400   2.689 -0.7415 -0.8538  1.5245
  935MOL0     O28893   5.161  11.299   9.243  0.3546  0.2596  0.4969
  935MOL0     C28894   5.131  11.401   9.180 -0.9181 -0.2889  0.5393
  935MOL0     O28895   5.177  11.523   9.208  0.0671 -0.1814 -0.0960
  935MOL0     C28896   5.261  11.547   9.316  0.7691  0.7101 -0.2799
  935MOL0     C28897   5.381  11.603   9.299  0.3667  0.7308  0.7680
  935MOL0     C28898   5.466  11.632   9.404 -0.6112 -0.2315 -0.4293
  935MOL0     C28899   5.430  11.594   9.537  0.8442 -0.2521 -0.4461
  935MOL0     O28900   5.519  11.593   9.645 -0.0920  0.4228 -0.4339
  935MOL0     C28901   5.641  11.676   9.640  0.2547 -0.0765  0.4810
  935MOL0     C28902   5.703  11.628   9.770 -0.0400  0.5047  0.0471
  935MOL0     C28903   5.839  11.706   9.797 -0.4169 -1.0888 -0.0885
  935MOL0     C28904   5.919  11.635   9.906  1.1559 -0.4266 -0.4687
  935MOL0     C28905   6.031  11.736   9.964 -0.1955 -0.8139 -1.0966
  935MOL0     C28906   6.158  11.739   9.885 -0.5380 -0.2642  0.8701
  935MOL0     C28907   6.266  11.836   9.933  0.2167 -0.3988  0.1331
  935MOL0     C28908   6.399  11.826   9.864 -0.6325  0.1287 -0.0599
  935MOL0     N28909   6.499  11.902   9.949 -0.0925  0.2533  0.2926
  935MOL0     C28910   6.582  12.006   9.904  1.2226  0.5497 -0.4121
  935MOL0     C28911   6.661  12.030  10.010  0.5048  0.0174  0.7267
  935MOL0     C28912   6.749  12.151  10.012  0.0182 -0.5913 -0.4541
  935MOL0     C28913   6.870  12.126   9.920  0.5892 -0.4614  0.0689
  935MOL0     C28914   6.969  12.245   9.924 -0.0060 -1.1627 -0.6053
  935MOL0     C28915   7.099  12.208   9.856 -0.1542  0.6770 -0.2075
  935MOL0     O28916   7.177  12.331   9.851 -0.2977 -0.1766  0.1469
  935MOL0     C28917   7.304  12.324   9.905 -0.0816  0.0105 -0.4102
  935MOL0     C28918   7.335  12.409  10.012 -0.3111  0.1115  0.1582
  935MOL0     C28919   7.462  12.426  10.062  0.5287  0.2361  0.2289
  935MOL0     C28920   7.474  12.538  10.170 -0.0075  0.0837 -0.1554
  935MOL0     C28921   7.566  12.348   9.999 -0.2595  0.3679  0.1558
  935MOL0     C28922   7.713  12.354  10.047 -0.1776 -0.6666 -0.7984
  935MOL0     O28923   7.740  12.459  10.130 -0.0351 -0.8407  0.3972
  935MOL0     C28924   7.869  12.491  10.166  0.3560 -0.1519  0.0964
  935MOL0     C28925   7.975  12.402  10.177  0.0832  0.1994  0.1048
  935MOL0     C28926   8.101  12.441  10.234  0.5640 -0.1247  0.6402
  935MOL0     C28927   8.115  12.575  10.276 -0.4763 -0.6292  0.7088
  935MOL0     O28928   8.241  12.620  10.317  0.9096  0.1473 -0.3147
  935MOL0     C28929   8.249  12.664  10.453 -0.6075 -0.5775  0.3593
  935MOL0     C28930   8.397  12.686  10.488  0.0123 -0.3122  0.0112
  935MOL0     C28931   8.448  12.817  10.418 -0.9475 -0.7520 -0.6309
  935MOL0     C28932   8.594  12.853  10.458  0.9332 -0.9801 -0.2280
  935MOL0     C28933   8.682  12.728  10.461  0.1548  0.6152 -1.4090
  935MOL0     C28934   8.841  12.753  10.452  0.0963  0.0478 -0.1398
  935MOL0     C28935   8.905  12.617  10.424 -0.6264  0.1832 -0.8155
  935MOL0     C28936   9.057  12.629  10.433  0.1677 -0.0204  0.5613
  935MOL0    Cl28937   9.128  12.738  10.299 -0.0456 -0.1789  0.1830
  935MOL0     C28938   8.006  12.666  10.255  0.3221 -0.3874  0.1372
  935MOL0     C28939   7.895  12.627  10.192  0.4741  0.0133  0.1013
  935MOL0     O28940   7.789  12.280   9.988 -0.0112  1.0644 -1.3283
  935MOL0     C28941   7.539  12.270   9.881 -0.0657 -0.5224 -0.8316
  935MOL0     C28942   7.409  12.255   9.838  0.0682 -0.6536  0.8847
  935MOL0     N28943   6.634  11.946  10.109 -0.0479 -0.2516  0.1660
  935MOL0     N28944   6.543  11.868  10.069  0.9082 -0.6206  0.2525
  935MOL0     C28945   5.298  11.546   9.563 -0.1827 -0.7690  0.0930
  935MOL0     C28946   5.217  11.530   9.448 -0.2048 -0.3526 -0.5519
  935MOL0     C28947   5.060  11.382   9.050  1.1304  1.2166 -1.5535
  935MOL0     C28948   5.001  11.500   9.000  0.7892 -0.3598  0.5903
  935MOL0     C28949   4.919  11.499   8.890 -0.7108 -0.1068 -0.0944
  935MOL0     C28950   4.891  11.374   8.830  0.1400 -0.2064 -0.5989
  935MOL0     O28951   4.792  11.386   8.732  0.4846 -0.3423  0.0522
  935MOL0     C28952   4.742  11.265   8.678 -0.8264 -0.3844 -0.8520
  935MOL0     C28953   4.635  11.310   8.580 -0.2944 -1.2081  0.0051
  935MOL0     C28954   4.623  11.212   8.463 -0.3517  0.0534 -0.1961
  935MOL0     C28955   4.567  11.275   8.340  0.3432 -0.4526  0.2300
  935MOL0     C28956   4.431  11.310   8.360  0.2850  0.5704 -0.4377
  935MOL0     C28957   4.325  11.352   8.391  0.2986  0.3918 -0.3391
  935MOL0     C28958   4.946  11.252   8.873  0.2732 -0.0819 -0.3652
  935MOL0     C28959   5.025  11.254   8.991 -0.2707 -0.0491  0.1235
  935MOL0     C28960   5.058  11.117   9.037 -0.3176 -0.4645 -0.4457
  935MOL0     H28961   5.412  11.628   9.198 -2.2043  2.6417  0.3521
  935MOL0     H28962   5.566  11.670   9.388 -0.7172  0.6594  0.8846
  935MOL0     H28963   5.617  11.782   9.632  1.0153  0.1872  1.4711
  935MOL0     H28964   5.716  11.638   9.570  1.3112 -0.7020  1.8819
  935MOL0     H28965   5.642  11.642   9.859 -0.4724  2.1103 -0.4691
  935MOL0     H28966   5.723  11.521   9.761  0.0023  0.5898 -1.0708
  935MOL0     H28967   5.903  11.709   9.709 -0.7094 -0.6693 -0.2918
  935MOL0     H28968   5.822  11.808   9.834  0.5068  0.0137 -2.5096
  935MOL0     H28969   5.854  11.607   9.990  0.6492  2.6905  0.3007
  935MOL0     H28970   5.964  11.540   9.877  0.4507 -1.4136  1.4843
  935MOL0     H28971   6.055  11.720  10.070 -1.2536 -0.6182 -0.8158
  935MOL0     H28972   5.991  11.837   9.958 -0.9010 -0.9301  0.8115
  935MOL0     H28973   6.202  11.638   9.883  0.7998  0.3099 -0.2112
  935MOL0     H28974   6.131  11.771   9.784  0.9318  1.6555  1.0415
  935MOL0     H28975   6.298  11.806  10.033  1.2222  2.0907  0.6346
  935MOL0     H28976   6.227  11.938   9.935  1.6684  0.2123  3.9313
  935MOL0     H28977   6.431  11.723   9.845 -0.6743  0.3681 -1.5049
  935MOL0     H28978   6.393  11.874   9.766 -0.0864  1.8303  0.6980
  935MOL0     H28979   6.565  12.054   9.808  0.6304 -0.5720 -0.8934
  935MOL0     H28980   6.774  12.183  10.114 -2.5138  1.6731 -0.4237
  935MOL0     H28981   6.701  12.237   9.966  2.2085  2.1461  2.0340
  935MOL0     H28982   6.922  12.037   9.955  2.1522  0.5021  0.3081
  935MOL0     H28983   6.837  12.111   9.817  0.0609  1.7395 -0.1312
  935MOL0     H28984   6.911  12.317   9.866 -1.1186  1.1963  3.0676
  935MOL0     H28985   6.992  12.283  10.024 -0.2539  1.1803 -1.3623
  935MOL0     H28986   7.149  12.130   9.914  0.3507  0.4823 -0.9000
  935MOL0     H28987   7.090  12.173   9.753 -0.5876  1.0199 -0.2890
  935MOL0     H28988   7.256  12.462  10.065 -1.9375 -1.2895 -0.7656
  935MOL0     H28989   7.518  12.628  10.125 -1.6933  1.3175  0.5758
  935MOL0     H28990   7.530  12.510  10.259 -0.0245  0.9818  0.1531
  935MOL0     H28991   7.377  12.569  10.209 -0.8312 -1.5175 -0.8444
  935MOL0     H28992   7.960  12.296  10.161  1.2445 -0.0920  0.8874
  935MOL0     H28993   8.180  12.370  10.253 -0.9250 -2.6320 -1.7514
  935MOL0     H28994   8.183  12.750  10.466 -2.1241 -1.6580  0.1287
  935MOL0     H28995   8.207  12.580  10.509 -2.2825 -0.5509 -0.7549
  935MOL0     H28996   8.406  12.685  10.597 -0.7309  0.8297  0.1041
  935MOL0     H28997   8.453  12.600  10.450  2.1845  1.5425 -1.2713
  935MOL0     H28998   8.381  12.902  10.428  1.3339  1.1753 -0.8874
  935MOL0     H28999   8.453  12.787  10.313 -0.3215  1.4381 -1.2583
  935MOL0     H29000   8.587  12.906  10.553  1.8817  0.5377 -0.9579
  935MOL0     H29001   8.644  12.916  10.384 -0.9356  0.2914 -0.4701
  935MOL0     H29002   8.656  12.677  10.554  0.7749 -0.6500 -1.9003
  935MOL0     H29003   8.646  12.659  10.384 -2.1661 -3.4563  2.8170
  935MOL0     H29004   8.874  12.800  10.545 -1.0035  2.8841 -1.0704
  935MOL0     H29005   8.870  12.822  10.372  0.9440  0.5043  0.5447
  935MOL0     H29006   8.881  12.580  10.324 -1.4183 -0.5611 -0.3620
  935MOL0     H29007   8.876  12.544  10.501 -0.6083  0.5712 -0.4382
  935MOL0     H29008   9.092  12.527  10.414 -0.6989  0.0261 -1.4573
  935MOL0     H29009   9.087  12.671  10.530 -0.2208  0.6952  0.3830
  935MOL0     H29010   8.019  12.772  10.277  2.9406  0.0293 -2.7241
  935MOL0     H29011   7.823  12.707  10.176 -0.9853 -0.8903  1.8353
  935MOL0     H29012   7.621  12.228   9.824  1.4420 -1.8030  2.0816
  935MOL0     H29013   7.387  12.192   9.752 -0.7111 -1.3527  1.5769
  935MOL0     H29014   5.269  11.540   9.667 -1.3157 -0.1257 -0.1693
  935MOL0     H29015   5.118  11.496   9.476 -0.4944  1.5218  0.9012
  935MOL0     H29016   5.017  11.599   9.042  0.8197  0.5779 -1.5024
  935MOL0     H29017   4.868  11.591   8.863  0.5194  1.3298  2.1633
  935MOL0     H29018   4.824  11.218   8.623 -0.1328  2.7747 -2.7929
  935MOL0     H29019   4.695  11.196   8.748 -0.4687 -1.0876 -1.2923
  935MOL0     H29020   4.664  11.402   8.528 -1.8348 -0.8498 -0.2688
  935MOL0     H29021   4.544  11.325   8.639 -0.0943 -3.4049  0.9661
  935MOL0     H29022   4.726  11.189   8.434 -0.5572 -2.4004  0.7965
  935MOL0     H29023   4.572  11.121   8.495  1.9107 -1.1563  0.1856
  935MOL0     H29024   4.564  11.202   8.259 -2.1730  1.7032 -1.7977
  935MOL0     H29025   4.626  11.361   8.307 -0.1679 -0.4306 -0.6417
  935MOL0     H29026   4.234  11.396   8.427 -0.0223  0.4491 -1.1982
  935MOL0     H29027   4.918  11.158   8.827  2.1404  0.4639 -2.7850
  935MOL0     H29028   5.053  11.042   8.959 -0.6576 -1.4069  0.4582
  935MOL0     H29029   5.164  11.127   9.062 -0.6420  1.0714  0.4620
  935MOL0     H29030   4.999  11.080   9.121 -1.2793 -0.1020 -0.9500
  936MOL0     O29031   9.493   9.483   2.972 -0.1270 -0.5504  0.7112
  936MOL0     C29032   9.431   9.499   3.075  0.5072  0.5405  1.1430
  936MOL0     O29033   9.464   9.578   3.183 -0.5345  0.4076  0.4645
  936MOL0     C29034   9.585   9.626   3.180 -0.6852 -0.1659  0.6924
  936MOL0     C29035   9.686   9.548   3.242  0.9698 -0.1970 -0.1523
  936MOL0     C29036   9.819   9.601   3.240  0.3275 -0.0712  0.4268
  936MOL0     C29037   9.847   9.729   3.199 -0.2072  0.7621  0.9274
  936MOL0     O29038   9.968   9.794   3.202  0.2995  0.5586 -0.0130
  936MOL0     C29039  10.086   9.740   3.253 -0.5668 -0.8782 -0.2038
  936MOL0     C29040  10.105   9.769   3.401 -0.6751  0.1612  0.1892
  936MOL0     C29041  10.235   9.700   3.449  0.4002  0.5056  0.7158
  936MOL0     C29042  10.356   9.793   3.428  0.1709  0.0432  0.1149
  936MOL0     C29043  10.492   9.723   3.472  0.3847 -0.1564  0.3772
  936MOL0     C29044  10.590   9.833   3.514 -0.0120 -0.2709 -0.1055
  936MOL0     C29045  10.733   9.790   3.533  0.0650 -0.1866  1.0231
  936MOL0     C29046  10.834   9.913   3.538 -0.9373  0.3966  0.0574
  936MOL0     N29047  10.792  10.012   3.643 -0.4327  0.6769  0.6525
  936MOL0     C29048  10.794   9.997   3.775 -0.7110  0.2009  0.6467
  936MOL0     C29049  10.724  10.103   3.822 -0.6497 -0.3530  0.0752
  936MOL0     C29050  10.703  10.138   3.964 -0.1092  0.5651 -0.5000
  936MOL0     C29051  10.816  10.228   4.023 -0.5809  0.6495 -0.5317
  936MOL0     C29052  10.826  10.237   4.177 -0.2541 -0.6990 -0.2907
  936MOL0     C29053  10.690  10.243   4.255  0.0117  0.2097 -0.3673
  936MOL0     O29054  10.620  10.120   4.256 -0.2183 -0.4069 -0.0180
  936MOL0     C29055  10.479  10.129   4.258  0.3835 -0.4678  0.3334
  936MOL0     C29056  10.393  10.239   4.260  0.2998  0.5058 -0.1273
  936MOL0     C29057  10.258  10.227   4.259  0.5266 -0.5853  0.0964
  936MOL0     C29058  10.175  10.351   4.266  0.1113 -0.1367 -0.9939
  936MOL0     C29059  10.200  10.098   4.256 -0.1276 -0.4849  0.0448
  936MOL0     C29060  10.055  10.067   4.260  0.4067  0.7707  0.0292
  936MOL0     O29061  10.028   9.943   4.312 -0.5988 -0.2283 -0.4493
  936MOL0     C29062   9.907   9.889   4.296 -0.3710 -0.3344 -0.8724
  936MOL0     C29063   9.836   9.882   4.178  0.1878  0.0967 -0.4467
  936MOL0     C29064   9.717   9.813   4.165  0.2067 -0.3900 -0.2395
  936MOL0     C29065   9.668   9.733   4.278  0.8119 -0.8387 -0.5558
  936MOL0     O29066   9.548   9.660   4.273 -0.1026 -0.2594  0.5704
  936MOL0     C29067   9.470   9.653   4.152  0.2204 -0.1537  0.7176
  936MOL0     C29068   9.343   9.579   4.187 -0.7127 -1.2756  0.6547
  936MOL0     C29069   9.284   9.622   4.311  1.1351  0.4245 -0.1518
  936MOL0     C29070   9.141   9.575   4.307 -0.3612 -0.3259 -0.1166
  936MOL0     C29071   9.060   9.580   4.440  1.0990 -0.9746  0.3268
  936MOL0     C29072   9.078   9.485   4.562 -0.1287  0.8621  0.2012
  936MOL0     C29073   9.226   9.451   4.596  0.6153 -0.5746  0.5989
  936MOL0     C29074   9.242   9.355   4.708  0.3322 -0.2458  0.2868
  936MOL0    Cl29075   9.419   9.348   4.756 -0.1486  0.0907 -0.0463
  936MOL0     C29076   9.734   9.743   4.399 -0.0211  0.2852  0.0372
  936MOL0     C29077   9.855   9.818   4.407 -0.2258  0.5356 -0.8666
  936MOL0     O29078   9.971  10.136   4.205 -0.4722  0.3005  0.0011
  936MOL0     C29079  10.289   9.986   4.266 -0.8259  0.3245 -0.1639
  936MOL0     C29080  10.424  10.002   4.266 -0.3918  0.1468 -0.4499
  936MOL0     N29081  10.697  10.185   3.711  0.1231 -0.7480 -0.7438
  936MOL0     N29082  10.733  10.124   3.612 -0.2593 -0.9163 -0.1824
  936MOL0     C29083   9.751   9.805   3.142 -0.3014  0.0014  0.1274
  936MOL0     C29084   9.622   9.750   3.123 -0.2655 -0.2122  0.8765
  936MOL0     C29085   9.301   9.444   3.081 -0.0935 -0.9154 -0.8810
  936MOL0     C29086   9.197   9.533   3.103  0.4187 -0.2330 -0.7582
  936MOL0     C29087   9.061   9.499   3.089 -0.7823  0.4403 -0.0047
  936MOL0     C29088   9.027   9.374   3.051  0.5897 -0.1787  0.0965
  936MOL0     O29089   8.900   9.330   3.034  0.2221  0.0239  0.0579
  936MOL0     C29090   8.796   9.390   3.112 -0.3943 -0.6258 -0.0247
  936MOL0     C29091   8.670   9.311   3.106 -0.2641  0.6717 -0.6301
  936MOL0     C29092   8.610   9.288   2.959 -0.1390 -0.2201  0.3435
  936MOL0     C29093   8.515   9.172   2.949  0.2723 -1.0731 -0.7240
  936MOL0     C29094   8.422   9.159   3.063 -0.0472 -0.2617 -0.3351
  936MOL0     C29095   8.328   9.161   3.133  0.4541  0.1026 -0.0900
  936MOL0     C29096   9.132   9.288   3.029 -0.2370  0.2677 -0.0512
  936MOL0     C29097   9.265   9.311   3.041 -0.6816 -0.6456 -0.1764
  936MOL0     C29098   9.355   9.187   3.005  0.6020  0.1814  0.6839
  936MOL0     H29099   9.668   9.446   3.274  0.6844  0.4979  2.1364
  936MOL0     H29100   9.899   9.539   3.279  2.1649  1.1993 -1.1702
  936MOL0     H29101  10.162   9.787   3.191  0.5624  2.0059  3.0191
  936MOL0     H29102  10.096   9.632   3.238 -1.2909 -1.0693  0.6001
  936MOL0     H29103  10.104   9.875   3.429  1.9427  0.2051  0.3942
  936MOL0     H29104  10.019   9.720   3.449  0.2368 -0.6158  1.1096
  936MOL0     H29105  10.231   9.700   3.559 -1.3138 -0.6043  0.6956
  936MOL0     H29106  10.237   9.596   3.415 -0.0621  0.9897 -0.8753
  936MOL0     H29107  10.378   9.818   3.323 -0.8896  0.4069 -0.0292
  936MOL0     H29108  10.339   9.886   3.483  1.1611 -0.3152  1.0580
  936MOL0     H29109  10.536   9.655   3.399  1.0808  0.7958 -0.1198
  936MOL0     H29110  10.468   9.666   3.562  0.3969  0.4911  0.7971
  936MOL0     H29111  10.601   9.906   3.433  0.7394  1.0315  1.1128
  936MOL0     H29112  10.551   9.886   3.601  2.7378 -2.2157  2.5128
  936MOL0     H29113  10.764   9.720   3.456  0.2835 -1.8138  2.5095
  936MOL0     H29114  10.737   9.726   3.622  1.5407  0.7178  1.6348
  936MOL0     H29115  10.937   9.884   3.561 -0.9101 -0.4242 -1.0432
  936MOL0     H29116  10.839   9.943   3.433  1.3288 -1.2759 -0.3941
  936MOL0     H29117  10.848   9.913   3.818 -2.0224  0.1017  2.2187
  936MOL0     H29118  10.718  10.046   4.022  1.5337  0.5945 -0.8138
  936MOL0     H29119  10.603  10.179   3.972 -0.2021  0.2504  0.0152
  936MOL0     H29120  10.906  10.178   3.985 -0.6068  0.6767 -0.6280
  936MOL0     H29121  10.788  10.324   3.980 -0.2646  0.8859 -0.2162
  936MOL0     H29122  10.894  10.159   4.213  1.2376  1.9619  3.2341
  936MOL0     H29123  10.866  10.337   4.199 -0.9959 -0.9505  2.6001
  936MOL0     H29124  10.708  10.264   4.360  0.8122  4.6307 -1.2170
  936MOL0     H29125  10.629  10.327   4.220 -0.2048  0.1082 -0.2369
  936MOL0     H29126  10.440  10.337   4.256 -0.1822  0.7854  0.7402
  936MOL0     H29127  10.222  10.432   4.323 -1.9309 -0.6378  1.6069
  936MOL0     H29128  10.081  10.333   4.321  1.0324  1.1853  1.1397
  936MOL0     H29129  10.143  10.381   4.166 -0.8301 -0.4521 -0.7998
  936MOL0     H29130   9.886   9.916   4.087  0.9005 -0.2446 -0.1857
  936MOL0     H29131   9.658   9.801   4.075 -2.7496 -1.0134  1.6399
  936MOL0     H29132   9.448   9.754   4.115  1.1430 -0.3064 -0.2942
  936MOL0     H29133   9.530   9.612   4.070  1.1641  1.1623  0.7154
  936MOL0     H29134   9.261   9.587   4.114 -1.0691 -1.0678  1.0736
  936MOL0     H29135   9.361   9.472   4.202 -0.8036 -1.0705  2.3732
  936MOL0     H29136   9.282   9.731   4.321 -4.4254  0.8116 -2.0491
  936MOL0     H29137   9.339   9.575   4.393  0.5892 -0.8904 -0.5222
  936MOL0     H29138   9.132   9.471   4.273  2.2105 -1.4955  2.3480
  936MOL0     H29139   9.083   9.637   4.238  0.4610  0.1448 -0.3889
  936MOL0     H29140   9.071   9.687   4.461  3.1996 -1.1334  0.1996
  936MOL0     H29141   8.953   9.576   4.415  0.9477  4.7024 -1.3058
  936MOL0     H29142   9.018   9.395   4.544 -0.1899  0.9754 -0.1596
  936MOL0     H29143   9.038   9.533   4.652 -1.7970  0.2121 -0.1446
  936MOL0     H29144   9.275   9.539   4.640  0.2541  1.0261 -1.9795
  936MOL0     H29145   9.283   9.416   4.509 -0.6924 -0.4681 -0.3241
  936MOL0     H29146   9.202   9.256   4.683  3.9262 -2.5162  2.5818
  936MOL0     H29147   9.173   9.394   4.784 -0.5669 -1.1336 -0.0530
  936MOL0     H29148   9.699   9.691   4.487 -1.4370  0.1278 -0.5835
  936MOL0     H29149   9.887   9.806   4.510 -0.2369 -0.3471 -0.9586
  936MOL0     H29150  10.242   9.890   4.288 -2.7129  1.3157  0.3443
  936MOL0     H29151  10.488   9.915   4.258 -0.7203 -0.0865 -0.5720
  936MOL0     H29152   9.780   9.897   3.092  1.3589 -0.2214  0.6160
  936MOL0     H29153   9.549   9.806   3.065  0.3028  1.4695  1.7262
  936MOL0     H29154   9.206   9.636   3.136 -2.7621 -0.4886  1.4520
  936MOL0     H29155   8.991   9.579   3.110 -1.3194  0.0250 -0.1796
  936MOL0     H29156   8.826   9.395   3.217  0.6092  0.0040 -0.3228
  936MOL0     H29157   8.784   9.492   3.074  3.4863  0.2313  0.5408
  936MOL0     H29158   8.599   9.380   3.151  1.2753  1.8152  0.1208
  936MOL0     H29159   8.681   9.222   3.169 -3.4967  1.7378  1.6778
  936MOL0     H29160   8.558   9.379   2.929 -0.3418 -0.7084 -0.8527
  936MOL0     H29161   8.693   9.276   2.888 -0.8566 -1.1384 -0.3694
  936MOL0     H29162   8.571   9.081   2.922  0.0128 -1.0189 -1.4494
  936MOL0     H29163   8.453   9.196   2.863 -0.3333 -0.0450 -0.0168
  936MOL0     H29164   8.226   9.154   3.165 -0.7080  1.8132 -2.9381
  936MOL0     H29165   9.103   9.185   3.010  0.1083  0.3793 -1.2229
  936MOL0     H29166   9.388   9.196   2.901  0.2694 -3.4874  0.1209
  936MOL0     H29167   9.439   9.179   3.075 -0.4114 -1.9285  1.7355
  936MOL0     H29168   9.294   9.097   3.015 -1.3501  1.4859  1.1110
  937MOL0     O29169   0.499   3.074  10.820  0.7361  0.4062  0.5870
  937MOL0     C29170   0.456   3.177  10.877 -0.1883 -0.5923  0.5821
  937MOL0     O29171   0.489   3.308  10.832  0.2429 -0.2277  0.0147
  937MOL0     C29172   0.585   3.336  10.734 -0.3380 -0.8426 -0.5479
  937MOL0     C29173   0.671   3.247  10.661 -0.0949 -0.2401  0.2015
  937MOL0     C29174   0.751   3.303  10.560  0.0589  0.7441 -0.2365
  937MOL0     C29175   0.751   3.444  10.533  0.1165 -0.4654 -0.9916
  937MOL0     O29176   0.832   3.487  10.428 -0.2066  0.2836 -0.5543
  937MOL0     C29177   0.836   3.622  10.377  1.0590  0.1370  0.1810
  937MOL0     C29178   0.962   3.646  10.297 -0.9256 -0.1355  1.0907
  937MOL0     C29179   1.083   3.688  10.387 -0.0883 -0.0746 -0.3267
  937MOL0     C29180   1.071   3.832  10.434  0.6759  0.7313  0.2949
  937MOL0     C29181   1.192   3.874  10.521  0.2722 -0.5668 -0.6458
  937MOL0     C29182   1.188   4.014  10.570 -0.2939  0.6081  0.3989
  937MOL0     C29183   1.317   4.051  10.639 -0.1493  0.1375 -0.0277
  937MOL0     C29184   1.404   4.132  10.547  0.6392 -0.5132  0.7851
  937MOL0     N29185   1.343   4.263  10.508  0.2264 -0.3345  0.0465
  937MOL0     C29186   1.279   4.342  10.595 -0.1352 -0.8830 -0.1148
  937MOL0     C29187   1.262   4.458  10.524  0.3129  0.7462 -0.4003
  937MOL0     C29188   1.209   4.588  10.582  0.7594 -0.0563  0.1940
  937MOL0     C29189   1.070   4.618  10.529 -0.4378  0.2614  0.0137
  937MOL0     C29190   1.008   4.733  10.601  0.3108 -0.1645 -0.5013
  937MOL0     C29191   0.864   4.752  10.577  0.8896  0.1860  0.7781
  937MOL0     O29192   0.833   4.771  10.433 -0.4774  0.1932  0.0746
  937MOL0     C29193   0.712   4.818  10.396  0.9385  0.9021  1.0784
  937MOL0     C29194   0.604   4.835  10.485 -0.1254  0.1579  0.1800
  937MOL0     C29195   0.477   4.873  10.438 -0.3462 -1.2976 -0.1981
  937MOL0     C29196   0.362   4.874  10.539 -1.3069 -0.0356  0.1422
  937MOL0     C29197   0.455   4.910  10.305 -0.3285  0.5976 -0.7622
  937MOL0     C29198   0.324   4.943  10.243  0.3402 -0.2433 -0.4402
  937MOL0     O29199   0.197   4.923  10.306 -0.1938  0.3819 -0.0613
  937MOL0     C29200   0.072   4.945  10.256  0.0703  0.2066 -1.0585
  937MOL0     C29201   0.048   5.055  10.166 -0.3094  0.5156  0.1794
  937MOL0     C29202  -0.085   5.070  10.108  0.1045  0.1147 -0.2914
  937MOL0     C29203  -0.187   5.001  10.173 -0.8959 -0.3368  0.3122
  937MOL0     O29204  -0.316   5.024  10.135 -1.1208 -0.3271 -0.1184
  937MOL0     C29205  -0.360   5.156  10.132  0.4572 -0.1743  1.0633
  937MOL0     C29206  -0.478   5.157  10.228 -0.9122 -0.1865  0.1923
  937MOL0     C29207  -0.534   5.298  10.244 -1.0050  0.5097 -0.3624
  937MOL0     C29208  -0.637   5.295  10.353  0.3062 -0.6425  0.0161
  937MOL0     C29209  -0.718   5.432  10.373 -0.7481  0.4568  1.0127
  937MOL0     C29210  -0.784   5.489  10.247  0.7147  0.2578 -0.8333
  937MOL0     C29211  -0.899   5.394  10.211 -0.1717  0.5757 -0.3548
  937MOL0     C29212  -0.941   5.403  10.066 -0.1630  0.3981 -0.9690
  937MOL0    Cl29213  -1.020   5.567  10.042  0.0939  0.2190  0.3670
  937MOL0     C29214  -0.165   4.906  10.266 -0.1481 -0.9772  0.4390
  937MOL0     C29215  -0.039   4.880  10.314 -0.9719 -0.1848 -0.5562
  937MOL0     O29216   0.324   4.976  10.123 -0.1823  0.0360  0.0609
  937MOL0     C29217   0.568   4.904  10.219 -0.1205  0.3365 -0.2584
  937MOL0     C29218   0.691   4.856  10.271  0.4578 -0.5836  0.5775
  937MOL0     N29219   1.306   4.442  10.397  0.6617 -0.0857 -0.7085
  937MOL0     N29220   1.357   4.318  10.385  0.5105 -0.4794  0.3500
  937MOL0     C29221   0.669   3.526  10.608  1.1466  0.0934  0.3666
  937MOL0     C29222   0.584   3.474  10.702 -0.2637  0.1772  0.0146
  937MOL0     C29223   0.374   3.153  11.002  0.4777 -0.4282 -0.8021
  937MOL0     C29224   0.379   3.029  11.063 -0.1113  0.6542  0.7652
  937MOL0     C29225   0.324   3.002  11.189 -0.3758 -0.3212  0.0076
  937MOL0     C29226   0.244   3.090  11.248  0.0358  0.4704 -1.0820
  937MOL0     O29227   0.188   3.074  11.378 -0.1686 -0.5852 -0.1969
  937MOL0     C29228   0.114   2.958  11.420 -0.1498 -0.4911 -0.3479
  937MOL0     C29229  -0.027   2.961  11.372 -0.6678  0.4722 -0.0566
  937MOL0     C29230  -0.120   2.858  11.449  0.1702 -0.0677 -0.4723
  937MOL0     C29231  -0.264   2.848  11.416 -0.0301  0.5031  0.4301
  937MOL0     C29232  -0.343   2.958  11.465  0.7150 -0.3349 -0.1410
  937MOL0     C29233  -0.406   3.049  11.517  0.1322 -0.2747  0.1538
  937MOL0     C29234   0.226   3.213  11.196 -0.6410 -0.1342  0.1812
  937MOL0     C29235   0.290   3.248  11.072  0.3207 -0.8151  0.3811
  937MOL0     C29236   0.268   3.388  11.008  0.8007 -0.2792  0.2600
  937MOL0     H29237   0.670   3.138  10.664  1.0147 -0.3529 -1.8021
  937MOL0     H29238   0.794   3.229  10.494  3.0368  4.2492 -2.6526
  937MOL0     H29239   0.839   3.699  10.455 -1.5962  1.2503 -0.6823
  937MOL0     H29240   0.758   3.647  10.304  2.6352 -0.2800 -1.7139
  937MOL0     H29241   0.996   3.573  10.223  0.8613  1.3276  0.3849
  937MOL0     H29242   0.940   3.734  10.236 -4.3862 -0.8609  1.0864
  937MOL0     H29243   1.091   3.615  10.469 -0.1913  0.3186  0.0347
  937MOL0     H29244   1.173   3.687  10.326 -0.5109  0.4344 -0.9735
  937MOL0     H29245   1.070   3.893  10.343 -0.8581  0.3503  0.0223
  937MOL0     H29246   0.977   3.844  10.489 -0.6029  0.3755 -1.7110
  937MOL0     H29247   1.279   3.852  10.458  1.4598  2.1369 -0.1142
  937MOL0     H29248   1.196   3.799  10.601  0.0960  0.0731 -0.0274
  937MOL0     H29249   1.165   4.094  10.498 -2.3041  0.4022  0.7601
  937MOL0     H29250   1.113   4.025  10.648  1.4690 -0.9423  2.4303
  937MOL0     H29251   1.370   3.961  10.670  0.4492  0.1124 -1.0665
  937MOL0     H29252   1.297   4.112  10.728  0.6258 -0.6426  0.7020
  937MOL0     H29253   1.500   4.149  10.595  1.3250  1.1333 -1.0213
  937MOL0     H29254   1.424   4.082  10.451 -2.7115 -3.0471  1.1970
  937MOL0     H29255   1.240   4.320  10.693 -0.0864 -2.9964 -0.5344
  937MOL0     H29256   1.280   4.670  10.562  1.0205 -0.6234 -1.3350
  937MOL0     H29257   1.195   4.585  10.691 -2.6479  2.3356 -0.0374
  937MOL0     H29258   1.068   4.632  10.421  0.8623 -0.5204 -0.1383
  937MOL0     H29259   1.007   4.531  10.549 -3.6209  2.4837  0.3178
  937MOL0     H29260   1.025   4.726  10.709 -1.7717  1.0971 -0.0379
  937MOL0     H29261   1.059   4.827  10.577 -0.4092  0.8837  1.8058
  937MOL0     H29262   0.807   4.665  10.612  1.0339 -0.8711 -1.4654
  937MOL0     H29263   0.825   4.847  10.616  0.9016  1.3981 -1.9248
  937MOL0     H29264   0.614   4.814  10.590 -0.4904 -0.1180  0.1602
  937MOL0     H29265   0.312   4.971  10.539 -1.2057  0.0254 -0.8672
  937MOL0     H29266   0.403   4.852  10.638 -1.8602  0.0942  0.3976
  937MOL0     H29267   0.286   4.798  10.522  0.7670 -1.9309 -1.2269
  937MOL0     H29268   0.125   5.111  10.115 -0.9905  1.4721  0.1747
  937MOL0     H29269  -0.119   5.145  10.037 -3.4993 -1.4750 -0.4640
  937MOL0     H29270  -0.280   5.224  10.166  0.3487 -0.3226  1.6206
  937MOL0     H29271  -0.395   5.183  10.033 -2.0029 -0.5006  1.7866
  937MOL0     H29272  -0.553   5.093  10.182 -1.2582 -0.4741  1.1307
  937MOL0     H29273  -0.459   5.116  10.328  1.5341 -3.6261 -1.4662
  937MOL0     H29274  -0.565   5.336  10.147  0.2638 -2.0392 -1.8623
  937MOL0     H29275  -0.453   5.362  10.279  0.7875 -1.4092 -0.7810
  937MOL0     H29276  -0.598   5.252  10.446  0.2427  0.2050  0.4518
  937MOL0     H29277  -0.716   5.223  10.329 -0.9876  1.1691 -1.4646
  937MOL0     H29278  -0.793   5.422  10.452 -1.7962 -2.4153 -0.1902
  937MOL0     H29279  -0.641   5.497  10.414  1.8761 -2.4762  1.0693
  937MOL0     H29280  -0.711   5.491  10.166  0.2584  1.2409 -1.2404
  937MOL0     H29281  -0.826   5.587  10.274 -2.4001 -1.5736  1.6497
  937MOL0     H29282  -0.986   5.408  10.276 -2.7355 -0.8320 -3.2352
  937MOL0     H29283  -0.879   5.288  10.229  0.7047  0.9090  0.7864
  937MOL0     H29284  -1.022   5.329  10.064 -1.0976  1.3774 -0.3509
  937MOL0     H29285  -0.859   5.377   9.999 -0.9122  0.1065 -1.7905
  937MOL0     H29286  -0.241   4.848  10.317 -2.3948  2.5694  1.5284
  937MOL0     H29287  -0.024   4.798  10.383  0.0570  0.0844 -0.4356
  937MOL0     H29288   0.566   4.923  10.112  4.9775 -2.2466 -1.1546
  937MOL0     H29289   0.767   4.844  10.194  3.1718  2.6096  2.4746
  937MOL0     H29290   0.648   3.632  10.593  0.8852  0.3212  2.1167
  937MOL0     H29291   0.534   3.532  10.779  1.5027  0.7889  0.7428
  937MOL0     H29292   0.435   2.951  11.013  0.3557  3.1799 -2.9452
  937MOL0     H29293   0.354   2.911  11.240 -0.8388 -1.0753 -1.0340
  937MOL0     H29294   0.172   2.868  11.399  1.2118 -1.2462  5.1358
  937MOL0     H29295   0.099   2.954  11.528 -0.5310 -0.8677 -0.4136
  937MOL0     H29296  -0.029   2.934  11.266  1.5020 -3.0670  0.6567
  937MOL0     H29297  -0.069   3.062  11.382 -0.0976  0.6610  0.5336
  937MOL0     H29298  -0.076   2.758  11.444  0.1240 -0.0815 -0.6033
  937MOL0     H29299  -0.114   2.887  11.555  2.0347 -1.2076 -0.2260
  937MOL0     H29300  -0.307   2.759  11.462 -1.9786  1.6445  0.9241
  937MOL0     H29301  -0.270   2.837  11.308  1.4776  3.1257 -0.0020
  937MOL0     H29302  -0.450   3.135  11.564  2.8731  2.2373 -1.4656
  937MOL0     H29303   0.163   3.282  11.251 -1.3132  0.9116 -1.8054
  937MOL0     H29304   0.369   3.427  11.027  1.5281 -1.3132 -1.3093
  937MOL0     H29305   0.236   3.379  10.904 -3.0152  3.3138  0.8737
  937MOL0     H29306   0.193   3.452  11.057  0.0707 -0.7058 -0.2896
  938MOL0     O29307   4.314   1.446   3.200 -0.6173 -0.1295 -0.7798
  938MOL0     C29308   4.402   1.361   3.217 -0.6741 -0.7068  0.2879
  938MOL0     O29309   4.400   1.259   3.310  0.1828  0.3104  0.2015
  938MOL0     C29310   4.286   1.238   3.372 -0.3179 -0.3280 -0.5945
  938MOL0     C29311   4.226   1.115   3.337  0.7859 -0.6291  0.2568
  938MOL0     C29312   4.113   1.073   3.413 -0.6330  0.0159  0.0039
  938MOL0     C29313   4.051   1.161   3.506  1.2102  0.0885 -0.0565
  938MOL0     O29314   3.943   1.105   3.573 -0.9001 -1.5608  0.1867
  938MOL0     C29315   3.873   1.175   3.684 -0.9301  0.3568  0.3818
  938MOL0     C29316   3.769   1.078   3.737  0.2393  0.0033 -0.4162
  938MOL0     C29317   3.679   1.158   3.833  0.3785 -0.6544  0.3255
  938MOL0     C29318   3.555   1.078   3.873 -0.2252 -0.4920 -0.6602
  938MOL0     C29319   3.462   1.159   3.960 -0.3014  0.6125 -0.1039
  938MOL0     C29320   3.370   1.057   4.039  0.2344 -0.3572 -0.9722
  938MOL0     C29321   3.274   1.117   4.145 -0.2533  0.6292 -0.0625
  938MOL0     C29322   3.218   0.998   4.232  0.2561 -0.4774  1.1214
  938MOL0     N29323   3.093   1.015   4.304  0.2176  0.0773  0.5125
  938MOL0     C29324   2.976   0.953   4.256 -0.2401  0.8623  0.3502
  938MOL0     C29325   2.883   1.000   4.349 -0.3638 -0.2948  0.1484
  938MOL0     C29326   2.743   0.963   4.362 -0.3237 -0.3199 -0.8182
  938MOL0     C29327   2.664   1.082   4.314  0.0413 -0.0362  0.1148
  938MOL0     C29328   2.680   1.093   4.156  0.7418  0.4898 -0.4959
  938MOL0     C29329   2.602   1.211   4.113  0.6764 -0.3721  0.4420
  938MOL0     O29330   2.591   1.218   3.969 -1.1747 -0.6034  0.1453
  938MOL0     C29331   2.681   1.301   3.904  0.3866 -0.3258 -1.0881
  938MOL0     C29332   2.788   1.369   3.968 -0.0272 -0.2767 -0.1573
  938MOL0     C29333   2.879   1.442   3.893 -1.3579  0.3935  0.0696
  938MOL0     C29334   2.999   1.498   3.972  0.7161  0.0345 -0.8572
  938MOL0     C29335   2.853   1.474   3.754  0.3159 -1.1359 -0.4717
  938MOL0     C29336   2.939   1.566   3.675  0.1784  0.0468 -0.7116
  938MOL0     O29337   2.882   1.599   3.556 -0.4656 -0.1717 -0.2181
  938MOL0     C29338   2.940   1.695   3.476  0.1160 -0.0863 -0.7853
  938MOL0     C29339   2.991   1.661   3.346 -0.3759  0.1429 -1.0109
  938MOL0     C29340   3.037   1.748   3.257 -0.3793 -0.3757 -0.0156
  938MOL0     C29341   3.044   1.882   3.300 -0.3462 -0.4117 -0.9122
  938MOL0     O29342   3.087   1.981   3.216 -0.1664 -0.6306 -0.0700
  938MOL0     C29343   3.185   1.967   3.113 -0.4680  0.8636  0.6242
  938MOL0     C29344   3.199   2.113   3.055 -0.0097 -0.5474  0.3141
  938MOL0     C29345   3.318   2.112   2.964 -0.3399  0.2020  0.3215
  938MOL0     C29346   3.362   2.258   2.926  0.5059  0.1215  0.4405
  938MOL0     C29347   3.494   2.265   2.843  0.6932 -0.1851 -0.5067
  938MOL0     C29348   3.523   2.401   2.775 -0.6330 -0.3002 -0.5423
  938MOL0     C29349   3.656   2.406   2.703  0.3490 -0.1101 -0.2637
  938MOL0     C29350   3.682   2.545   2.644 -0.2086  1.2237 -0.6513
  938MOL0    Cl29351   3.556   2.630   2.546  0.6443  0.2184 -0.1812
  938MOL0     C29352   2.996   1.916   3.427 -0.6009  0.1347 -0.2030
  938MOL0     C29353   2.934   1.826   3.511 -0.3801  0.5675  0.0537
  938MOL0     O29354   3.037   1.613   3.728  0.3451  0.0391  0.5662
  938MOL0     C29355   2.743   1.408   3.701 -0.0982  0.2126 -0.8204
  938MOL0     C29356   2.657   1.320   3.770 -0.3416 -0.0334 -0.9232
  938MOL0     N29357   2.950   1.091   4.436 -0.1643  0.4214 -0.2540
  938MOL0     N29358   3.070   1.089   4.414 -0.0705  0.0041 -0.2844
  938MOL0     C29359   4.107   1.280   3.534  0.0398 -0.5642  0.7407
  938MOL0     C29360   4.236   1.319   3.477  0.2071  1.3420 -0.1060
  938MOL0     C29361   4.507   1.359   3.111 -0.4938  0.0885 -0.5976
  938MOL0     C29362   4.565   1.230   3.084  0.7275  0.2090 -1.2180
  938MOL0     C29363   4.669   1.204   3.001  0.3929  0.0013  0.3917
  938MOL0     C29364   4.713   1.316   2.926 -0.1696  0.2901 -0.2515
  938MOL0     O29365   4.825   1.295   2.851  0.7760 -0.1012 -0.4251
  938MOL0     C29366   4.793   1.278   2.715  0.0415 -0.0308 -1.0389
  938MOL0     C29367   4.874   1.379   2.633 -0.2008 -0.1579  0.4192
  938MOL0     C29368   4.948   1.319   2.512  0.1584 -0.5209  0.9758
  938MOL0     C29369   4.851   1.295   2.386  0.2751  0.2501 -0.8132
  938MOL0     C29370   4.757   1.181   2.393 -0.2669 -0.3192  0.5565
  938MOL0     C29371   4.665   1.104   2.396  0.7951 -0.0599 -0.0802
  938MOL0     C29372   4.646   1.433   2.938 -0.4151 -0.4997  0.3218
  938MOL0     C29373   4.547   1.459   3.025  0.1491  0.0517 -0.1415
  938MOL0     C29374   4.480   1.600   3.024 -0.2726  0.1393 -0.3441
  938MOL0     H29375   4.266   1.044   3.265  2.2015  1.5180 -1.1710
  938MOL0     H29376   4.073   0.975   3.388 -0.4176 -0.0113 -0.2387
  938MOL0     H29377   3.822   1.267   3.653  1.0766  2.3512  2.5630
  938MOL0     H29378   3.939   1.208   3.765 -0.6223 -0.3399  0.4261
  938MOL0     H29379   3.708   1.049   3.651 -1.7238  0.1912  0.8607
  938MOL0     H29380   3.811   0.995   3.793 -3.5994 -2.1700 -0.4183
  938MOL0     H29381   3.737   1.177   3.923  1.8180 -0.8077 -0.5384
  938MOL0     H29382   3.660   1.253   3.782  0.4305 -0.5810  0.4419
  938MOL0     H29383   3.495   1.042   3.790 -2.5916  0.4828  0.5308
  938MOL0     H29384   3.597   0.994   3.930  0.1437 -0.2749 -0.6096
  938MOL0     H29385   3.408   1.234   3.900  0.5346  1.9603  0.8033
  938MOL0     H29386   3.521   1.213   4.034 -2.5185  2.5396  0.3635
  938MOL0     H29387   3.310   0.998   3.969  0.5957 -5.7488  2.6634
  938MOL0     H29388   3.424   0.979   4.093 -0.7754  0.9705  2.2113
  938MOL0     H29389   3.184   1.164   4.104 -0.2546  0.6991  0.0206
  938MOL0     H29390   3.323   1.193   4.206 -2.3953  0.6731  1.7637
  938MOL0     H29391   3.200   0.913   4.165 -1.1071  1.2349 -0.8264
  938MOL0     H29392   3.291   0.970   4.307  0.6777 -0.4909  0.7110
  938MOL0     H29393   2.956   0.890   4.170 -2.9339 -1.1286  2.2512
  938MOL0     H29394   2.718   0.942   4.467  3.3351 -1.4978 -0.0464
  938MOL0     H29395   2.721   0.867   4.316 -0.2963 -0.9367  0.4188
  938MOL0     H29396   2.558   1.066   4.338 -0.7399  5.0666  1.2853
  938MOL0     H29397   2.703   1.175   4.357 -1.4565  0.8547 -0.3686
  938MOL0     H29398   2.783   1.109   4.125  0.2658  0.8553 -1.9918
  938MOL0     H29399   2.638   1.007   4.103  0.3112  0.9582 -0.9371
  938MOL0     H29400   2.497   1.192   4.138  0.6424  0.8103  1.2495
  938MOL0     H29401   2.631   1.300   4.169  1.4828 -0.3836  0.0524
  938MOL0     H29402   2.802   1.357   4.075  0.5560  1.1182 -0.0567
  938MOL0     H29403   3.095   1.469   3.927  1.8856  0.6832  1.1209
  938MOL0     H29404   2.997   1.458   4.074  1.2569  1.4273 -0.2828
  938MOL0     H29405   3.008   1.607   3.979  0.7662  0.1256 -2.0520
  938MOL0     H29406   2.980   1.561   3.305 -2.6154  0.1517 -0.5983
  938MOL0     H29407   3.078   1.727   3.159  1.5879  1.6268  0.3018
  938MOL0     H29408   3.280   1.926   3.150 -0.4008 -0.7485 -1.1769
  938MOL0     H29409   3.157   1.897   3.034  1.9589 -0.9441  1.2325
  938MOL0     H29410   3.108   2.146   3.004 -0.4631  0.4279  1.7119
  938MOL0     H29411   3.230   2.185   3.131  1.8464  1.5794 -2.2479
  938MOL0     H29412   3.296   2.054   2.874 -0.1188  1.4772 -0.5843
  938MOL0     H29413   3.405   2.068   3.014 -0.4297  0.0990  0.3891
  938MOL0     H29414   3.372   2.323   3.014  0.3884 -1.8227  1.9645
  938MOL0     H29415   3.280   2.304   2.870  0.1351  0.9275  1.6167
  938MOL0     H29416   3.577   2.237   2.908  0.4649 -0.7541 -0.4573
  938MOL0     H29417   3.497   2.188   2.765 -1.1963 -2.8820  1.8859
  938MOL0     H29418   3.533   2.481   2.848  2.1219 -1.8596  0.9761
  938MOL0     H29419   3.455   2.420   2.691 -0.4560  0.4989 -0.5102
  938MOL0     H29420   3.667   2.339   2.617 -1.4353  1.0322 -1.4494
  938MOL0     H29421   3.735   2.374   2.772  1.3052  0.0489 -1.2578
  938MOL0     H29422   3.771   2.532   2.582  0.0498  0.7271 -0.1868
  938MOL0     H29423   3.711   2.618   2.720  0.2026 -0.9085  1.3825
  938MOL0     H29424   3.009   2.021   3.455  0.3195 -0.2834  1.0544
  938MOL0     H29425   2.892   1.856   3.606 -0.1377 -2.2929  1.1414
  938MOL0     H29426   2.716   1.422   3.596 -0.1918 -1.7983 -1.1139
  938MOL0     H29427   2.574   1.288   3.708  0.1885  0.6261 -2.0054
  938MOL0     H29428   4.058   1.341   3.609 -0.4023 -0.3636  0.2919
  938MOL0     H29429   4.288   1.410   3.503  2.8075 -0.1958  0.5054
  938MOL0     H29430   4.527   1.145   3.139 -1.1540  1.7523 -0.0152
  938MOL0     H29431   4.715   1.108   2.984  1.8336  1.0429 -2.3227
  938MOL0     H29432   4.836   1.180   2.691 -0.5378 -0.5569  0.0348
  938MOL0     H29433   4.686   1.287   2.694 -0.8844  1.2224  3.2375
  938MOL0     H29434   4.942   1.436   2.697 -0.6651  1.4324 -0.4713
  938MOL0     H29435   4.805   1.456   2.599 -1.5121 -2.0533 -1.4764
  938MOL0     H29436   5.017   1.395   2.476 -1.1955  2.6594  4.4065
  938MOL0     H29437   4.997   1.226   2.544  0.8949  0.0531  1.5420
  938MOL0     H29438   4.915   1.278   2.299  0.2184 -1.5157 -0.5372
  938MOL0     H29439   4.785   1.381   2.375  1.9617  1.5387 -1.3702
  938MOL0     H29440   4.578   1.043   2.409  1.4862 -1.4483 -1.5900
  938MOL0     H29441   4.675   1.518   2.877 -0.8979 -0.4316  0.1810
  938MOL0     H29442   4.457   1.630   3.126  1.1118  1.4414 -0.3864
  938MOL0     H29443   4.549   1.671   2.978 -0.8061  2.1381  1.7584
  938MOL0     H29444   4.386   1.594   2.968 -1.3802  0.6502  1.3860
  939MOL0     O29445   4.850   7.450   3.746 -0.0246 -0.4543  0.1771
  939MOL0     C29446   4.794   7.495   3.646 -0.1033 -0.1926  0.0398
  939MOL0     O29447   4.850   7.516   3.524  0.1061 -0.3812 -0.6700
  939MOL0     C29448   4.991   7.546   3.514  0.5336  1.2414  0.0200
  939MOL0     C29449   5.020   7.640   3.419 -0.8076  0.2936 -0.2483
  939MOL0     C29450   5.154   7.686   3.397 -0.5733  0.2871  0.3307
  939MOL0     C29451   5.251   7.633   3.477 -0.7315  0.6408  0.1316
  939MOL0     O29452   5.380   7.696   3.449  0.7842 -0.2048  0.1327
  939MOL0     C29453   5.477   7.700   3.548 -0.0330  0.3717 -0.3778
  939MOL0     C29454   5.599   7.794   3.516  0.3462 -0.1808  0.3962
  939MOL0     C29455   5.707   7.792   3.625 -0.1483 -0.1453 -0.6339
  939MOL0     C29456   5.832   7.859   3.574  0.3949  0.6114  0.0692
  939MOL0     C29457   5.944   7.880   3.676 -0.7825  0.1861  0.3414
  939MOL0     C29458   6.072   7.931   3.608 -1.0365  0.2308  0.3101
  939MOL0     C29459   6.197   7.936   3.698 -0.1701  0.4423  0.3285
  939MOL0     C29460   6.331   7.976   3.633  0.3560  0.5232  0.1354
  939MOL0     N29461   6.308   8.074   3.524  0.1344 -0.2165  0.4292
  939MOL0     C29462   6.296   8.209   3.535 -0.2634 -0.2667  0.2763
  939MOL0     C29463   6.274   8.255   3.409 -0.3926  0.2418 -0.4290
  939MOL0     C29464   6.244   8.400   3.388 -0.1872  0.1452  1.4726
  939MOL0     C29465   6.373   8.490   3.385  0.1769  0.0750 -0.4900
  939MOL0     C29466   6.350   8.636   3.344 -0.1136 -0.5436  0.0362
  939MOL0     C29467   6.482   8.713   3.321  0.2199  0.4929 -0.8102
  939MOL0     O29468   6.569   8.690   3.435 -0.5165  0.4210 -0.2238
  939MOL0     C29469   6.702   8.680   3.406 -0.0129 -0.1772 -0.3939
  939MOL0     C29470   6.769   8.771   3.321 -0.5315 -0.3183  0.1758
  939MOL0     C29471   6.912   8.760   3.311  0.0403  0.4690  0.9714
  939MOL0     C29472   6.969   8.869   3.221  0.9190 -0.7896  0.0444
  939MOL0     C29473   6.982   8.653   3.372  0.7791  0.8192 -1.1407
  939MOL0     C29474   7.129   8.643   3.351 -0.2981  0.5042 -0.0320
  939MOL0     O29475   7.196   8.582   3.455  0.3916 -0.1924 -0.3185
  939MOL0     C29476   7.339   8.586   3.456  0.6289  0.2795 -0.6967
  939MOL0     C29477   7.409   8.678   3.532 -0.5250 -0.0433 -0.3342
  939MOL0     C29478   7.543   8.679   3.534 -0.2685 -0.3258  0.2586
  939MOL0     C29479   7.618   8.594   3.453 -1.0159  0.3189  0.5041
  939MOL0     O29480   7.755   8.621   3.451  0.1316 -0.3221  0.2278
  939MOL0     C29481   7.821   8.556   3.341  0.5029  1.0089 -0.2668
  939MOL0     C29482   7.973   8.578   3.351 -0.2592 -0.2779  1.0381
  939MOL0     C29483   8.063   8.520   3.239  0.7860 -0.9780  0.5907
  939MOL0     C29484   8.035   8.367   3.220  0.1815 -0.3612 -1.2860
  939MOL0     C29485   8.165   8.292   3.176  0.4957 -0.5644 -0.8886
  939MOL0     C29486   8.143   8.145   3.167 -0.1390  0.0812 -0.0842
  939MOL0     C29487   8.277   8.073   3.133  0.6355  1.1715  0.0730
  939MOL0     C29488   8.395   8.090   3.221  0.0955  0.0063  0.2100
  939MOL0    Cl29489   8.520   7.975   3.170  0.1631  0.0964  0.4018
  939MOL0     C29490   7.543   8.500   3.376 -0.0259 -0.2996 -0.5038
  939MOL0     C29491   7.409   8.494   3.387  0.0663  0.5693  0.1749
  939MOL0     O29492   7.181   8.675   3.244 -0.0690  0.3829 -0.3565
  939MOL0     C29493   6.897   8.550   3.429  0.2287  0.9581  0.6729
  939MOL0     C29494   6.758   8.566   3.448  1.1655  0.0970  0.2673
  939MOL0     N29495   6.295   8.144   3.324 -0.2688 -0.6827  0.6609
  939MOL0     N29496   6.311   8.039   3.394 -0.3592  0.1009 -0.1001
  939MOL0     C29497   5.227   7.534   3.575  0.1138  0.3835 -0.0537
  939MOL0     C29498   5.093   7.484   3.595  0.4233 -0.7661  0.8294
  939MOL0     C29499   4.640   7.490   3.643 -0.1918 -0.0065  0.9783
  939MOL0     C29500   4.583   7.539   3.522  0.9490  0.6837 -0.9503
  939MOL0     C29501   4.441   7.529   3.490 -0.6169 -0.3988 -0.3940
  939MOL0     C29502   4.357   7.504   3.597  0.9090 -1.0556 -0.4902
  939MOL0     O29503   4.223   7.515   3.581 -0.1151 -0.6414  0.3125
  939MOL0     C29504   4.140   7.502   3.698  0.0067 -0.5675  0.6041
  939MOL0     C29505   4.010   7.576   3.663 -0.1303  0.1133 -0.1200
  939MOL0     C29506   3.946   7.502   3.539  0.0715 -0.2080  0.1914
  939MOL0     C29507   3.800   7.545   3.529  0.0106  0.8066 -0.7274
  939MOL0     C29508   3.728   7.429   3.467  1.1597 -0.1192  0.2815
  939MOL0     C29509   3.656   7.344   3.419  0.5855 -0.3201 -0.1247
  939MOL0     C29510   4.409   7.462   3.723 -0.2293 -0.1656 -0.2879
  939MOL0     C29511   4.551   7.449   3.742  0.2867 -0.0628  0.5677
  939MOL0     C29512   4.589   7.382   3.879 -1.0011  0.0922 -0.4731
  939MOL0     H29513   4.933   7.675   3.364 -0.5885  0.4769 -0.4824
  939MOL0     H29514   5.178   7.764   3.325  2.9293 -0.3309  0.6867
  939MOL0     H29515   5.521   7.605   3.579  0.5965  0.7436 -0.1178
  939MOL0     H29516   5.425   7.743   3.634 -1.7711 -1.8061 -0.2328
  939MOL0     H29517   5.641   7.762   3.420  0.3148  3.6802 -1.0947
  939MOL0     H29518   5.562   7.894   3.490  0.5539 -0.2652 -0.2502
  939MOL0     H29519   5.669   7.852   3.708 -2.5094 -1.0612 -0.9716
  939MOL0     H29520   5.711   7.691   3.666 -0.1247 -0.2050 -0.7835
  939MOL0     H29521   5.862   7.800   3.486  1.8844 -0.9768  1.5666
  939MOL0     H29522   5.791   7.953   3.535 -3.0257 -1.1597 -1.0665
  939MOL0     H29523   5.960   7.782   3.721 -1.1955  0.3049  0.7494
  939MOL0     H29524   5.901   7.948   3.750 -0.1378  1.6260 -0.5691
  939MOL0     H29525   6.089   7.866   3.521 -2.0999 -0.8725  0.9110
  939MOL0     H29526   6.050   8.033   3.574 -0.4321 -0.3156 -1.9381
  939MOL0     H29527   6.213   7.848   3.761 -0.7044 -0.8807 -1.2978
  939MOL0     H29528   6.180   8.024   3.761  1.0104  1.2222 -0.3911
  939MOL0     H29529   6.396   8.026   3.705  2.0044  0.6568 -1.3694
  939MOL0     H29530   6.379   7.885   3.598  1.4688  1.5577 -1.1358
  939MOL0     H29531   6.293   8.262   3.630 -0.3340  2.0892 -0.9436
  939MOL0     H29532   6.175   8.433   3.466  0.0661  0.7811  1.4335
  939MOL0     H29533   6.199   8.404   3.288  2.5912 -1.1245  0.0478
  939MOL0     H29534   6.421   8.485   3.483  1.1282  5.3686 -0.3692
  939MOL0     H29535   6.440   8.441   3.314 -0.2768 -0.1323 -0.7814
  939MOL0     H29536   6.293   8.632   3.251 -0.9020 -2.2603  0.5565
  939MOL0     H29537   6.305   8.688   3.429  1.2845  0.3706  0.2481
  939MOL0     H29538   6.530   8.682   3.228 -0.4117 -0.0748 -0.9539
  939MOL0     H29539   6.452   8.818   3.317  0.1736  0.4606 -4.4816
  939MOL0     H29540   6.724   8.865   3.290  0.3054 -0.6153 -2.1157
  939MOL0     H29541   7.034   8.933   3.282  0.2016  0.8337 -0.8401
  939MOL0     H29542   6.896   8.943   3.188  3.4903  1.9471  0.0209
  939MOL0     H29543   7.030   8.837   3.136  2.8584  1.3210  0.5321
  939MOL0     H29544   7.354   8.753   3.587 -0.0951 -0.1988  0.3203
  939MOL0     H29545   7.592   8.747   3.603 -2.4411  1.3130  0.2894
  939MOL0     H29546   7.789   8.452   3.337 -1.7554  1.5979  0.6329
  939MOL0     H29547   7.783   8.595   3.245 -0.6565  1.8363  0.5027
  939MOL0     H29548   7.984   8.687   3.353 -0.5021 -0.2390  0.4832
  939MOL0     H29549   8.002   8.534   3.447 -0.5977  2.5765  2.5620
  939MOL0     H29550   8.170   8.527   3.255  0.5970  0.1898  1.4255
  939MOL0     H29551   8.041   8.582   3.151  0.9300  2.4329  2.7959
  939MOL0     H29552   7.951   8.352   3.153 -1.5180 -0.3337  0.7236
  939MOL0     H29553   7.999   8.327   3.316 -0.0210  2.7083  0.0399
  939MOL0     H29554   8.203   8.329   3.080  2.1374  2.9444  0.9416
  939MOL0     H29555   8.233   8.324   3.255 -1.3499  0.9073  0.2179
  939MOL0     H29556   8.053   8.133   3.106 -0.9068 -2.2540  1.4054
  939MOL0     H29557   8.117   8.107   3.266  0.9061 -0.4935 -0.0271
  939MOL0     H29558   8.298   8.097   3.028 -1.9871  1.2366 -0.5232
  939MOL0     H29559   8.255   7.966   3.134 -0.6488  1.3894 -1.0323
  939MOL0     H29560   8.379   8.064   3.327 -0.0126 -0.2254  0.1377
  939MOL0     H29561   8.422   8.196   3.212 -3.8476  0.9986 -1.9759
  939MOL0     H29562   7.588   8.441   3.297 -0.1117 -0.6779 -0.2744
  939MOL0     H29563   7.349   8.425   3.329  0.1304 -1.2519  2.1713
  939MOL0     H29564   6.951   8.464   3.466  2.3557  1.7983 -0.3387
  939MOL0     H29565   6.690   8.496   3.495  1.3114  3.0127  5.7143
  939MOL0     H29566   5.308   7.492   3.634 -0.2461  1.5607  1.3610
  939MOL0     H29567   5.081   7.415   3.678 -2.1358 -2.2122 -0.6040
  939MOL0     H29568   4.644   7.599   3.455  4.3640 -0.7890  0.5868
  939MOL0     H29569   4.399   7.566   3.397 -0.2931 -1.2331 -0.8898
  939MOL0     H29570   4.121   7.397   3.722  0.4040 -0.9296 -0.5881
  939MOL0     H29571   4.184   7.552   3.785  0.0757  2.4011 -0.9880
  939MOL0     H29572   4.014   7.681   3.633  0.8222 -0.1020 -0.7868
  939MOL0     H29573   3.947   7.573   3.753  0.6742 -0.5905  0.4347
  939MOL0     H29574   4.000   7.516   3.445  0.7631  1.2861  0.7613
  939MOL0     H29575   3.967   7.395   3.540  0.3560 -0.2199 -1.8826
  939MOL0     H29576   3.793   7.632   3.463 -3.9020  0.9287 -0.4264
  939MOL0     H29577   3.753   7.576   3.622  0.7687  2.0532 -0.7503
  939MOL0     H29578   3.608   7.272   3.355  0.5602 -0.8543  0.4841
  939MOL0     H29579   4.350   7.410   3.798  2.4887 -2.0520  0.7063
  939MOL0     H29580   4.654   7.294   3.872 -0.9782 -0.0633  1.2927
  939MOL0     H29581   4.637   7.463   3.934 -0.9173 -0.2604 -0.0254
  939MOL0     H29582   4.506   7.356   3.946  1.7067 -1.1270  2.6750
  940MOL0     O29583   0.692   9.993   4.031  0.0336 -0.0752 -0.0534
  940MOL0     C29584   0.681  10.109   3.991  0.4913  1.0136  0.3937
  940MOL0     O29585   0.770  10.174   3.910 -0.2578  0.3099 -0.7597
  940MOL0     C29586   0.881  10.104   3.881 -0.5113 -0.3778  1.3842
  940MOL0     C29587   0.994  10.095   3.959 -0.5376 -0.2859 -0.7081
  940MOL0     C29588   1.114  10.025   3.915  0.8263  0.2812  0.8758
  940MOL0     C29589   1.120   9.968   3.787 -0.3800  0.4450  0.1817
  940MOL0     O29590   1.235   9.919   3.733  0.1824  0.2152 -0.2976
  940MOL0     C29591   1.340   9.870   3.818  0.7620 -0.5337  0.0357
  940MOL0     C29592   1.436   9.780   3.745 -0.2619 -0.4253  0.4057
  940MOL0     C29593   1.527   9.856   3.639  1.0525  0.3482 -0.2937
  940MOL0     C29594   1.645   9.769   3.587  0.2759 -0.3197  0.5602
  940MOL0     C29595   1.746   9.756   3.702 -0.4782  0.5957  0.4115
  940MOL0     C29596   1.878   9.689   3.647 -0.3409  0.0891 -0.1503
  940MOL0     C29597   1.972   9.665   3.756  0.8187  0.7920 -0.2692
  940MOL0     C29598   2.058   9.789   3.807 -0.4405 -0.7552 -0.0630
  940MOL0     N29599   2.158   9.746   3.902 -0.7467  0.4734  0.5485
  940MOL0     C29600   2.264   9.674   3.866  0.1736  0.7275 -0.5098
  940MOL0     C29601   2.329   9.649   3.975  0.1701 -0.3013 -0.0860
  940MOL0     C29602   2.442   9.550   3.972  0.5139 -0.8572  0.8420
  940MOL0     C29603   2.559   9.573   3.876  0.0527 -0.2453 -0.0950
  940MOL0     C29604   2.644   9.455   3.892 -1.0484  0.1606 -0.0818
  940MOL0     C29605   2.765   9.463   3.796  0.1015  0.2893 -0.0006
  940MOL0     O29606   2.870   9.377   3.838  0.0385  0.3878  0.0107
  940MOL0     C29607   2.966   9.348   3.744 -0.0269  1.8515  0.8983
  940MOL0     C29608   2.977   9.413   3.618 -0.3963 -0.6086  0.4720
  940MOL0     C29609   3.086   9.389   3.531  0.9576  0.1501  0.8259
  940MOL0     C29610   3.096   9.464   3.396 -0.4662 -0.4203 -0.5573
  940MOL0     C29611   3.177   9.285   3.556 -0.4868  0.7670  0.2107
  940MOL0     C29612   3.292   9.256   3.467 -0.3042  0.6271  0.1350
  940MOL0     O29613   3.350   9.364   3.404  0.4051  0.5126  0.1407
  940MOL0     C29614   3.469   9.328   3.339  0.6747 -0.8833 -0.6454
  940MOL0     C29615   3.469   9.297   3.201  0.5876  0.1738  0.5280
  940MOL0     C29616   3.591   9.252   3.148  0.0185  0.2059 -0.2684
  940MOL0     C29617   3.708   9.242   3.223  0.1518  0.6935 -0.0879
  940MOL0     O29618   3.823   9.190   3.160 -0.4421 -0.5560  0.5163
  940MOL0     C29619   3.828   9.166   3.018  0.2848  0.7547 -0.2402
  940MOL0     C29620   3.962   9.121   2.976  0.3544 -0.1378  0.9022
  940MOL0     C29621   3.980   9.129   2.824  0.7974 -0.4521 -0.2707
  940MOL0     C29622   4.094   9.029   2.778  0.9161 -0.4791  0.5496
  940MOL0     C29623   4.111   9.042   2.627 -0.5134 -1.1296 -0.5742
  940MOL0     C29624   4.219   8.944   2.591  0.3103  0.6055 -0.0890
  940MOL0     C29625   4.249   8.932   2.437  0.2352  0.3474 -0.3992
  940MOL0     C29626   4.287   9.074   2.376 -0.2983  1.1143 -0.1705
  940MOL0    Cl29627   4.453   9.123   2.425  0.2842 -0.0753 -0.0682
  940MOL0     C29628   3.701   9.274   3.356  0.7456 -0.4097 -0.4429
  940MOL0     C29629   3.583   9.324   3.416  0.1580 -0.3356  0.2494
  940MOL0     O29630   3.329   9.140   3.459  0.0600  0.4770 -0.2725
  940MOL0     C29631   3.164   9.219   3.684 -0.3390  0.3861  0.3426
  940MOL0     C29632   3.058   9.253   3.774 -0.0297  1.2200 -0.1822
  940MOL0     N29633   2.265   9.715   4.081 -0.1959 -0.0907  0.3882
  940MOL0     N29634   2.156   9.763   4.036  0.3013  0.2674 -0.2195
  940MOL0     C29635   1.001   9.968   3.707  0.8727 -0.1264  0.9406
  940MOL0     C29636   0.898  10.040   3.759 -0.0566 -0.0767  0.2012
  940MOL0     C29637   0.548  10.170   3.998 -0.0590  0.2933  0.5101
  940MOL0     C29638   0.509  10.272   3.908  0.3724  1.0115  0.0852
  940MOL0     C29639   0.384  10.329   3.911  0.3207 -0.2671  0.1290
  940MOL0     C29640   0.286  10.293   4.004 -0.5703 -0.5516  0.1975
  940MOL0     O29641   0.165  10.368   4.009  0.3641  0.5789  0.2264
  940MOL0     C29642   0.092  10.354   3.884 -0.8566 -0.7225 -0.3653
  940MOL0     C29643  -0.036  10.278   3.909 -0.9698 -1.0263  0.2375
  940MOL0     C29644  -0.150  10.357   3.976  1.1357 -0.5569  0.1872
  940MOL0     C29645  -0.223  10.449   3.873 -0.0699 -0.8754  0.2166
  940MOL0     C29646  -0.325  10.383   3.789  0.5516  0.2499  0.3776
  940MOL0     C29647  -0.405  10.335   3.709 -0.1502  0.1608  0.8555
  940MOL0     C29648   0.323  10.199   4.102  0.3832 -0.3991 -1.2073
  940MOL0     C29649   0.443  10.130   4.096  0.0210 -1.0383 -0.9517
  940MOL0     C29650   0.462  10.023   4.200  0.4160 -0.0391 -0.3569
  940MOL0     H29651   0.985  10.137   4.059 -3.2666 -4.8586  1.2730
  940MOL0     H29652   1.196  10.012   3.984  1.0611 -0.4831  0.4589
  940MOL0     H29653   1.298   9.811   3.901 -1.0812 -1.0511 -1.1933
  940MOL0     H29654   1.389   9.960   3.855 -0.5286 -0.4045  1.5624
  940MOL0     H29655   1.504   9.737   3.819 -0.2380 -1.3460 -0.1258
  940MOL0     H29656   1.388   9.691   3.704 -2.1404  1.0690 -0.7891
  940MOL0     H29657   1.451   9.877   3.562  0.5012  0.0484  0.1599
  940MOL0     H29658   1.555   9.959   3.663  0.1128  1.1553 -2.4053
  940MOL0     H29659   1.613   9.672   3.550 -1.2561  0.1619  0.5482
  940MOL0     H29660   1.687   9.816   3.497 -0.0534  2.0648  1.5671
  940MOL0     H29661   1.694   9.687   3.770  0.6791 -0.3011  0.4193
  940MOL0     H29662   1.768   9.848   3.757 -1.3717  1.2041 -0.2260
  940MOL0     H29663   1.851   9.596   3.596 -1.6888 -1.3319  2.9081
  940MOL0     H29664   1.922   9.756   3.573  1.9672 -3.9719 -2.8886
  940MOL0     H29665   2.038   9.585   3.721  0.1207 -0.5942  1.4516
  940MOL0     H29666   1.928   9.624   3.847 -0.8490  2.5182 -0.2498
  940MOL0     H29667   2.103   9.838   3.720  3.3947 -0.9053  1.6454
  940MOL0     H29668   1.995   9.871   3.843  0.9574  0.7302 -0.8486
  940MOL0     H29669   2.274   9.627   3.769 -1.1614 -2.0149  0.5587
  940MOL0     H29670   2.394   9.456   3.946  0.8144 -1.1005  1.1486
  940MOL0     H29671   2.478   9.544   4.076  0.9155  0.6718  0.8281
  940MOL0     H29672   2.534   9.577   3.769 -0.9648 -1.9692  0.0341
  940MOL0     H29673   2.611   9.667   3.894  0.4497  0.4572 -4.0347
  940MOL0     H29674   2.693   9.446   3.990  0.3017 -3.7693 -0.9129
  940MOL0     H29675   2.594   9.358   3.880 -1.3749  0.3753 -0.4540
  940MOL0     H29676   2.734   9.430   3.696  3.3473  2.6515 -1.9848
  940MOL0     H29677   2.806   9.564   3.793  1.2880 -0.1187  1.4500
  940MOL0     H29678   2.905   9.489   3.591 -0.1106  0.3357  2.1797
  940MOL0     H29679   3.000   9.510   3.374 -0.2245 -0.1133 -0.9856
  940MOL0     H29680   3.126   9.395   3.317 -1.5429 -0.8371 -0.6197
  940MOL0     H29681   3.167   9.547   3.404 -1.2886  0.3273 -0.8962
  940MOL0     H29682   3.370   9.299   3.158  0.2257 -1.4633  1.2335
  940MOL0     H29683   3.584   9.228   3.042 -0.0937  1.4294 -0.5538
  940MOL0     H29684   3.755   9.089   2.993  3.0568 -2.0149 -0.5668
  940MOL0     H29685   3.807   9.258   2.964 -1.3932  0.2770 -0.4536
  940MOL0     H29686   4.028   9.198   3.017 -0.7029  0.7689  0.9586
  940MOL0     H29687   3.986   9.019   3.007  0.5922 -0.2243  0.4383
  940MOL0     H29688   3.989   9.233   2.791 -2.8560 -0.5455 -2.0597
  940MOL0     H29689   3.882   9.107   2.780 -0.0628 -0.5041  1.5941
  940MOL0     H29690   4.068   8.928   2.811  0.5495 -0.8090 -0.6836
  940MOL0     H29691   4.181   9.049   2.842  0.1880 -0.4472  1.5445
  940MOL0     H29692   4.025   9.034   2.561 -0.7626  0.5848 -0.5024
  940MOL0     H29693   4.153   9.138   2.596  0.1193 -1.3499 -0.4209
  940MOL0     H29694   4.168   8.852   2.621 -1.0302  0.8396 -1.5220
  940MOL0     H29695   4.310   8.969   2.647  1.4228  1.6840 -2.2377
  940MOL0     H29696   4.163   8.897   2.378  1.2892  0.4695 -2.0599
  940MOL0     H29697   4.323   8.852   2.424 -0.0418 -0.5307  2.6103
  940MOL0     H29698   4.218   9.157   2.391 -1.6360 -0.1004  0.6051
  940MOL0     H29699   4.297   9.066   2.268 -1.0067 -0.7614 -0.1292
  940MOL0     H29700   3.785   9.247   3.418 -1.3563  0.2886  3.0001
  940MOL0     H29701   3.572   9.344   3.522 -3.4067  1.5551 -0.3356
  940MOL0     H29702   3.221   9.128   3.695 -1.8431 -1.6918 -5.6775
  940MOL0     H29703   3.047   9.201   3.869 -2.4081 -0.9440 -1.5089
  940MOL0     H29704   0.997   9.925   3.608  1.4458 -0.3604  1.0143
  940MOL0     H29705   0.823  10.048   3.681  0.1123 -1.1838 -0.1026
  940MOL0     H29706   0.574  10.308   3.829  1.9018  1.0965  1.3269
  940MOL0     H29707   0.348  10.395   3.833 -0.6346 -0.6725  0.2127
  940MOL0     H29708   0.078  10.451   3.836  2.5331 -1.4588 -3.1963
  940MOL0     H29709   0.145  10.288   3.815 -0.5549 -1.5571  0.6268
  940MOL0     H29710  -0.007  10.193   3.972  0.1535  0.8421  2.4057
  940MOL0     H29711  -0.065  10.253   3.807  0.2637  0.7956 -0.6246
  940MOL0     H29712  -0.229  10.285   4.000  0.5320 -0.0180 -0.1556
  940MOL0     H29713  -0.116  10.424   4.055  0.5190 -0.5348  0.4356
  940MOL0     H29714  -0.157  10.503   3.805 -0.0444 -0.5598  0.4877
  940MOL0     H29715  -0.275  10.525   3.932 -0.5109 -0.7989 -0.2643
  940MOL0     H29716  -0.472  10.281   3.644  0.4190 -0.4339  0.7496
  940MOL0     H29717   0.240  10.187   4.171 -0.4112  0.1785 -2.0250
  940MOL0     H29718   0.537   9.945   4.187  2.6615  1.1273  3.8890
  940MOL0     H29719   0.494  10.061   4.297  2.3005  0.3510 -1.0900
  940MOL0     H29720   0.370   9.966   4.218  0.7381 -1.0297 -1.6283
  941MOL0     O29721   6.594   7.608   2.404  0.3627 -0.6252 -0.4829
  941MOL0     C29722   6.518   7.575   2.324  0.8389  0.2557  0.9564
  941MOL0     O29723   6.507   7.444   2.286  0.3501 -1.3929  0.0377
  941MOL0     C29724   6.575   7.360   2.365  0.2153  0.3413  0.4855
  941MOL0     C29725   6.511   7.304   2.474  0.2494 -0.5860  0.6479
  941MOL0     C29726   6.580   7.213   2.556  0.7455 -0.1538  0.1564
  941MOL0     C29727   6.725   7.197   2.542  0.6843 -0.2121  0.2732
  941MOL0     O29728   6.799   7.156   2.653  0.4910  0.7218 -0.5127
  941MOL0     C29729   6.776   7.018   2.704  0.0169 -0.5949 -0.6594
  941MOL0     C29730   6.879   6.922   2.639  0.6451 -0.7279 -1.1964
  941MOL0     C29731   7.025   6.944   2.674  0.2644  0.3843  0.4556
  941MOL0     C29732   7.102   6.837   2.603 -0.3576  0.2125 -1.3185
  941MOL0     C29733   7.252   6.838   2.635  0.0305 -0.5226  0.0706
  941MOL0     C29734   7.345   6.768   2.529 -0.3617  1.0972 -1.2176
  941MOL0     C29735   7.492   6.773   2.555 -0.6641 -0.4843  0.1161
  941MOL0     C29736   7.534   6.804   2.705  0.5673 -0.3972  0.2176
  941MOL0     N29737   7.676   6.790   2.716  0.6020 -0.4560  0.0352
  941MOL0     C29738   7.734   6.683   2.775  0.1414 -0.0221 -0.4353
  941MOL0     C29739   7.868   6.687   2.739  0.1823  0.1159 -0.3345
  941MOL0     C29740   7.975   6.589   2.767  0.1632 -0.1829 -0.2588
  941MOL0     C29741   8.098   6.644   2.839  0.6398 -0.1802  0.1105
  941MOL0     C29742   8.159   6.537   2.915  0.4678 -0.1004 -0.7345
  941MOL0     C29743   8.257   6.590   3.020 -0.4904 -0.4571 -0.7035
  941MOL0     O29744   8.368   6.658   2.955 -0.1362  0.6607 -0.2038
  941MOL0     C29745   8.478   6.594   2.921  0.0625 -0.5837  0.0595
  941MOL0     C29746   8.586   6.663   2.872 -0.4767  0.5618  0.1243
  941MOL0     C29747   8.713   6.604   2.840  0.4733  0.5174 -0.7355
  941MOL0     C29748   8.834   6.699   2.819 -0.5349  0.6750 -0.6381
  941MOL0     C29749   8.725   6.463   2.853 -0.2757 -0.7761  0.1706
  941MOL0     C29750   8.848   6.387   2.820 -0.2461 -0.2531 -0.2201
  941MOL0     O29751   8.838   6.258   2.841 -0.2660 -0.2005  0.8360
  941MOL0     C29752   8.948   6.174   2.836  0.2652  0.6181  0.2699
  941MOL0     C29753   9.058   6.194   2.913 -0.7434 -0.2712 -0.3728
  941MOL0     C29754   9.172   6.111   2.902 -1.2182 -0.4416  0.0641
  941MOL0     C29755   9.176   6.014   2.798  0.2050 -0.0287  0.0444
  941MOL0     O29756   9.293   5.939   2.765 -0.1589 -0.1094 -0.1336
  941MOL0     C29757   9.415   5.947   2.850 -0.4476  0.0081 -0.6433
  941MOL0     C29758   9.517   5.867   2.779 -0.6465  0.6297  0.5503
  941MOL0     C29759   9.650   5.890   2.842 -0.3506  0.4238  0.6712
  941MOL0     C29760   9.770   5.829   2.762 -0.1047 -0.4312 -0.8504
  941MOL0     C29761   9.889   5.836   2.856  0.6730  0.2360  0.3247
  941MOL0     C29762  10.002   5.750   2.809  0.3835  0.2324 -0.5017
  941MOL0     C29763   9.979   5.594   2.812 -0.3751  0.2080  0.3219
  941MOL0     C29764  10.108   5.521   2.822  0.4006  0.8045  0.2149
  941MOL0    Cl29765  10.088   5.338   2.812  0.4140  0.0114  0.1807
  941MOL0     C29766   9.061   5.980   2.727  0.3362  0.7220 -0.1771
  941MOL0     C29767   8.948   6.062   2.740 -0.3368  0.7370  0.0913
  941MOL0     O29768   8.952   6.440   2.795  0.3659 -0.2897 -0.0566
  941MOL0     C29769   8.610   6.392   2.900  0.0743  0.0848 -0.3243
  941MOL0     C29770   8.491   6.456   2.937  0.0040  0.7507  0.1912
  941MOL0     N29771   7.885   6.796   2.665 -0.0517  0.8009  0.4140
  941MOL0     N29772   7.775   6.854   2.644 -1.1357 -0.3370 -0.1458
  941MOL0     C29773   6.785   7.254   2.430  0.1297 -0.5735  0.4644
  941MOL0     C29774   6.711   7.326   2.343 -0.2374  0.3461  0.2603
  941MOL0     C29775   6.416   7.672   2.270 -0.1438 -1.1415 -0.3809
  941MOL0     C29776   6.316   7.622   2.185  0.7774 -0.1005  0.6464
  941MOL0     C29777   6.222   7.704   2.127  0.1678 -0.1490  0.0440
  941MOL0     C29778   6.216   7.839   2.152 -0.8203  0.4405  0.0453
  941MOL0     O29779   6.123   7.924   2.099 -0.2547 -0.4659 -0.8683
  941MOL0     C29780   6.135   7.931   1.953 -0.3690 -0.5679  0.0546
  941MOL0     C29781   6.148   8.074   1.919  0.3921 -0.1739  0.2328
  941MOL0     C29782   6.246   8.162   2.001 -0.3321  0.3146  0.0958
  941MOL0     C29783   6.276   8.305   1.949 -0.4262 -0.2793  0.6475
  941MOL0     C29784   6.374   8.377   2.022 -0.4067  0.9389  0.0805
  941MOL0     C29785   6.448   8.447   2.081  0.4222 -0.3839  0.0193
  941MOL0     C29786   6.315   7.885   2.234  0.4998 -0.1613  0.6588
  941MOL0     C29787   6.418   7.807   2.294 -0.1632 -0.5954  0.7683
  941MOL0     C29788   6.508   7.882   2.392  1.0062  0.0838  0.0104
  941MOL0     H29789   6.416   7.347   2.505  0.7778  0.3610  1.0000
  941MOL0     H29790   6.536   7.183   2.651  0.3421  2.5533  0.9150
  941MOL0     H29791   6.672   6.988   2.688 -0.2223 -0.1982  0.0800
  941MOL0     H29792   6.790   7.030   2.812 -0.1469 -0.8527 -0.6107
  941MOL0     H29793   6.844   6.830   2.686  0.0338  0.2808  0.4037
  941MOL0     H29794   6.867   6.922   2.530  2.9376  0.0063 -1.4986
  941MOL0     H29795   7.052   7.039   2.626 -4.2486  1.0754 -1.1909
  941MOL0     H29796   7.046   6.931   2.780  0.4547 -2.3033  0.1527
  941MOL0     H29797   7.049   6.743   2.623 -0.8379  0.6827 -0.2837
  941MOL0     H29798   7.089   6.862   2.497 -1.3378 -0.1659 -1.2992
  941MOL0     H29799   7.269   6.782   2.727 -0.9438 -0.5551  0.2388
  941MOL0     H29800   7.281   6.941   2.660 -0.4560 -0.0892 -1.0605
  941MOL0     H29801   7.316   6.664   2.512  0.3957  0.7368 -0.3378
  941MOL0     H29802   7.320   6.802   2.428 -0.2562  1.5457 -1.0926
  941MOL0     H29803   7.533   6.853   2.492 -0.8118  0.0692  0.7078
  941MOL0     H29804   7.535   6.676   2.528 -2.2607 -1.2353  0.1645
  941MOL0     H29805   7.504   6.904   2.737  0.6587  0.1358 -1.2909
  941MOL0     H29806   7.486   6.733   2.772  0.1405 -1.2972 -1.0087
  941MOL0     H29807   7.686   6.611   2.841  3.4618 -3.1465 -1.1075
  941MOL0     H29808   8.005   6.548   2.670 -1.9641 -2.8877  0.0831
  941MOL0     H29809   7.932   6.501   2.817  0.7670  0.7218  1.9625
  941MOL0     H29810   8.160   6.689   2.761 -0.7297  0.1722 -0.8144
  941MOL0     H29811   8.061   6.717   2.912 -0.2222 -1.6477  1.1822
  941MOL0     H29812   8.081   6.478   2.965 -1.3346  1.9625 -0.9083
  941MOL0     H29813   8.212   6.466   2.851  1.8996  0.9656 -0.7856
  941MOL0     H29814   8.203   6.662   3.082  1.3193 -0.4679  0.9800
  941MOL0     H29815   8.304   6.526   3.094  0.0818 -0.2263 -0.8627
  941MOL0     H29816   8.557   6.767   2.863 -2.4536  0.0499 -0.0234
  941MOL0     H29817   8.914   6.669   2.888 -1.6450 -1.2760 -0.1197
  941MOL0     H29818   8.802   6.799   2.850 -2.9609 -1.0319  2.9874
  941MOL0     H29819   8.878   6.698   2.718  0.5779 -1.9623 -0.2069
  941MOL0     H29820   9.058   6.280   2.979 -2.2937  0.8330 -1.7487
  941MOL0     H29821   9.261   6.116   2.965 -0.4319  0.1739 -1.0521
  941MOL0     H29822   9.441   6.053   2.859 -2.8183  0.8769 -2.6815
  941MOL0     H29823   9.388   5.894   2.942  0.5839  0.3845 -0.1149
  941MOL0     H29824   9.492   5.761   2.794  0.2589  0.5359  1.6279
  941MOL0     H29825   9.511   5.894   2.673  1.6923 -0.7373 -0.0132
  941MOL0     H29826   9.653   5.825   2.930 -3.2223 -0.6723  0.0564
  941MOL0     H29827   9.669   5.994   2.871 -0.4060 -0.0480  2.5311
  941MOL0     H29828   9.781   5.867   2.660  2.4032 -0.0676 -0.4873
  941MOL0     H29829   9.760   5.720   2.750 -0.7587 -0.5485  0.5070
  941MOL0     H29830   9.915   5.942   2.865 -2.5245  1.0328  1.4570
  941MOL0     H29831   9.863   5.806   2.957 -0.2457 -1.3189 -0.3308
  941MOL0     H29832  10.080   5.780   2.880 -0.9446  1.3966  0.5086
  941MOL0     H29833  10.033   5.768   2.705 -0.3885  0.4225 -0.7044
  941MOL0     H29834   9.924   5.555   2.726 -2.5000 -0.6596  1.9968
  941MOL0     H29835   9.926   5.569   2.905  0.1093 -1.5839  0.1582
  941MOL0     H29836  10.159   5.544   2.916 -1.2813 -0.9668  1.6206
  941MOL0     H29837  10.173   5.554   2.740  1.2382 -0.8064  0.1937
  941MOL0     H29838   9.062   5.913   2.642 -1.1628  1.9419 -1.1938
  941MOL0     H29839   8.858   6.053   2.680  1.1679 -0.5522 -2.0929
  941MOL0     H29840   8.619   6.285   2.913 -0.5564  0.1875  1.2353
  941MOL0     H29841   8.414   6.395   2.983  0.2095  1.0226  0.9148
  941MOL0     H29842   6.893   7.239   2.425  0.4780  0.5737  2.9624
  941MOL0     H29843   6.760   7.369   2.256  0.4995 -0.7298  0.1307
  941MOL0     H29844   6.313   7.521   2.143 -0.4867 -0.0950  0.6941
  941MOL0     H29845   6.148   7.666   2.057 -1.2012  0.1894  1.2441
  941MOL0     H29846   6.214   7.871   1.906  0.7178 -0.3206  1.4727
  941MOL0     H29847   6.039   7.898   1.913 -0.4299  2.6433 -2.8710
  941MOL0     H29848   6.047   8.114   1.932 -0.0179 -1.2606  0.5112
  941MOL0     H29849   6.177   8.073   1.813  1.6808  3.2779  0.4153
  941MOL0     H29850   6.205   8.168   2.102 -0.0442  1.8221  0.1348
  941MOL0     H29851   6.344   8.114   2.013  0.2825  1.3884 -0.5249
  941MOL0     H29852   6.183   8.362   1.958  0.7833  1.4293  4.3656
  941MOL0     H29853   6.309   8.302   1.845  1.5446 -1.6157  1.2608
  941MOL0     H29854   6.516   8.509   2.137  0.1995  0.7623 -0.9225
  941MOL0     H29855   6.312   7.986   2.274  1.7912 -1.1367  3.4961
  941MOL0     H29856   6.488   7.844   2.493  1.6598  0.4452  0.2796
  941MOL0     H29857   6.614   7.863   2.371  0.9142 -1.2896  0.6690
  941MOL0     H29858   6.489   7.989   2.391  1.3546  0.2135  2.3139
  942MOL0     O29859   1.771   4.789   8.068  0.0480  0.5305 -0.9965
  942MOL0     C29860   1.836   4.839   8.159  0.3648  0.0476  0.2047
  942MOL0     O29861   1.875   4.975   8.159 -0.6208  0.0721 -0.4707
  942MOL0     C29862   1.809   5.050   8.067 -0.2720 -0.9661  0.3769
  942MOL0     C29863   1.671   5.047   8.049 -0.1489  0.4659 -0.1441
  942MOL0     C29864   1.613   5.126   7.948 -0.0290 -0.5862 -0.5790
  942MOL0     C29865   1.697   5.213   7.869  0.6858  0.5966  0.2405
  942MOL0     O29866   1.655   5.302   7.779  0.3137  0.9574  0.1019
  942MOL0     C29867   1.514   5.333   7.769 -0.2953 -0.3750 -0.0418
  942MOL0     C29868   1.505   5.465   7.701  0.0088 -0.1328  0.6689
  942MOL0     C29869   1.369   5.522   7.687 -0.4021  0.0506  0.1358
  942MOL0     C29870   1.362   5.656   7.609 -0.1763 -0.4909  0.6340
  942MOL0     C29871   1.216   5.709   7.584  0.5098 -0.4791  0.3957
  942MOL0     C29872   1.232   5.853   7.523 -0.1127  0.1417  0.1403
  942MOL0     C29873   1.120   5.892   7.423 -0.1733  0.4715 -0.0715
  942MOL0     C29874   1.145   6.021   7.353  0.0364 -0.3789  0.3094
  942MOL0     N29875   1.242   6.009   7.247 -0.6303  0.2108 -0.4017
  942MOL0     C29876   1.237   5.937   7.129  0.3915  0.1693  0.8671
  942MOL0     C29877   1.352   5.966   7.060 -0.2079 -0.1141  0.1485
  942MOL0     C29878   1.387   5.915   6.924 -0.0990 -0.4106  0.8113
  942MOL0     C29879   1.545   5.907   6.916  0.3637  0.3593 -0.0391
  942MOL0     C29880   1.596   5.794   7.004  0.6261  0.9264  0.2176
  942MOL0     C29881   1.749   5.789   7.032 -0.0391 -0.9908  0.2495
  942MOL0     O29882   1.806   5.771   6.901 -0.3815 -0.1027 -0.5324
  942MOL0     C29883   1.941   5.805   6.916  1.7859  0.5149 -0.5414
  942MOL0     C29884   1.994   5.914   6.856 -0.2703 -0.1584  0.4520
  942MOL0     C29885   2.133   5.945   6.855  0.6490  0.7727  0.0995
  942MOL0     C29886   2.185   6.061   6.774 -0.7671  0.2678  0.1132
  942MOL0     C29887   2.216   5.867   6.939  0.0252  0.5445 -1.4144
  942MOL0     C29888   2.361   5.893   6.965  0.1128 -0.4748  0.1681
  942MOL0     O29889   2.395   5.864   7.094  0.0096  0.5562 -0.3076
  942MOL0     C29890   2.523   5.883   7.141 -0.3065 -0.0894  0.1479
  942MOL0     C29891   2.567   5.800   7.249 -0.0255  0.1377  0.5459
  942MOL0     C29892   2.681   5.829   7.324 -0.1640 -0.9822 -0.3037
  942MOL0     C29893   2.760   5.942   7.286 -0.1064 -0.6840  0.0716
  942MOL0     O29894   2.882   5.969   7.352  0.2796  0.0229  0.4295
  942MOL0     C29895   2.981   6.001   7.255  0.8329  0.5205 -0.0877
  942MOL0     C29896   3.111   6.015   7.327  0.8348  0.9177  0.2872
  942MOL0     C29897   3.221   6.074   7.236  0.3554  0.1475  0.1836
  942MOL0     C29898   3.360   6.081   7.294 -0.0601  0.6143 -0.5982
  942MOL0     C29899   3.447   6.175   7.217 -0.0083  0.1810 -0.0746
  942MOL0     C29900   3.601   6.164   7.253 -0.3391  0.0357 -0.0391
  942MOL0     C29901   3.687   6.290   7.221  0.4271 -0.4442 -0.3497
  942MOL0     C29902   3.835   6.268   7.244  0.5942 -0.3230  0.6152
  942MOL0    Cl29903   3.917   6.418   7.221 -0.4972 -0.0830  0.7134
  942MOL0     C29904   2.716   6.027   7.186  0.0028 -0.5373  0.3372
  942MOL0     C29905   2.602   6.000   7.111  0.9190  0.3512 -0.4186
  942MOL0     O29906   2.436   5.940   6.875 -0.5454 -0.4368 -0.0824
  942MOL0     C29907   2.166   5.750   6.998  0.3994 -0.3351 -0.5622
  942MOL0     C29908   2.025   5.717   6.985 -0.2462  0.2817 -1.1258
  942MOL0     N29909   1.428   6.047   7.141  0.2376 -0.1671 -0.4762
  942MOL0     N29910   1.360   6.068   7.246 -0.1977  0.9496  0.2977
  942MOL0     C29911   1.832   5.198   7.877 -0.0672 -0.1177 -0.5613
  942MOL0     C29912   1.891   5.121   7.980 -0.3872 -0.7114 -0.1674
  942MOL0     C29913   1.897   4.760   8.275 -0.5248  0.1781  0.4088
  942MOL0     C29914   1.959   4.830   8.383  0.0100  0.2458 -0.0770
  942MOL0     C29915   2.038   4.764   8.475 -0.6226  0.3776 -0.1239
  942MOL0     C29916   2.047   4.629   8.472 -0.1587 -0.1605 -0.4359
  942MOL0     O29917   2.127   4.579   8.577 -0.5424 -0.6224 -0.2080
  942MOL0     C29918   2.156   4.441   8.572  0.6296  0.1774  0.1948
  942MOL0     C29919   2.062   4.350   8.651  0.8180  0.5274  0.1627
  942MOL0     C29920   2.126   4.210   8.671  0.3679 -0.6450  0.5480
  942MOL0     C29921   2.053   4.131   8.787  0.4325 -0.9605 -0.0814
  942MOL0     C29922   2.138   4.050   8.869 -0.6633 -0.3975  0.1260
  942MOL0     C29923   2.198   3.984   8.954 -0.7919 -0.1442  0.7306
  942MOL0     C29924   1.970   4.556   8.378 -0.9382  0.8775 -0.5658
  942MOL0     C29925   1.898   4.617   8.279 -1.0260 -0.7291  0.5064
  942MOL0     C29926   1.829   4.529   8.180 -0.2991  0.0657 -0.1755
  942MOL0     H29927   1.613   4.986   8.118 -1.1669  2.4707  0.8545
  942MOL0     H29928   1.505   5.123   7.940  0.0794 -1.5838 -1.8984
  942MOL0     H29929   1.473   5.340   7.871  0.1560 -1.1383  0.2018
  942MOL0     H29930   1.463   5.266   7.700  1.0795 -0.0511 -1.4044
  942MOL0     H29931   1.576   5.526   7.758 -0.9704  1.5065  0.1647
  942MOL0     H29932   1.551   5.459   7.602 -0.2234 -1.5259  0.6219
  942MOL0     H29933   1.306   5.448   7.636 -0.4191 -0.0880  0.3507
  942MOL0     H29934   1.318   5.530   7.784  2.2968  1.8112  1.5149
  942MOL0     H29935   1.417   5.726   7.673  0.2861  0.5356 -0.8354
  942MOL0     H29936   1.421   5.638   7.519  0.3889 -0.0415  0.9093
  942MOL0     H29937   1.159   5.715   7.677 -0.1468  2.0676 -0.1033
  942MOL0     H29938   1.162   5.643   7.515 -1.8942 -0.1530  1.8744
  942MOL0     H29939   1.237   5.929   7.602  4.4956 -0.0604  0.3389
  942MOL0     H29940   1.323   5.847   7.462  0.2036 -2.2193  0.7195
  942MOL0     H29941   1.029   5.900   7.483  1.2951  0.9065  2.2205
  942MOL0     H29942   1.104   5.808   7.356  3.0894  1.5269 -2.4445
  942MOL0     H29943   1.054   6.065   7.311  1.9233  0.2387 -3.5752
  942MOL0     H29944   1.174   6.106   7.415 -2.4590  1.4529 -0.8370
  942MOL0     H29945   1.157   5.874   7.091  0.6521 -0.0169  0.6219
  942MOL0     H29946   1.364   5.981   6.840  3.0455  0.3295  0.4194
  942MOL0     H29947   1.353   5.812   6.906  0.0469 -0.3697  0.2499
  942MOL0     H29948   1.579   5.878   6.816  0.9749  3.0221 -0.6945
  942MOL0     H29949   1.590   6.004   6.940 -2.7410  2.3819 -1.6867
  942MOL0     H29950   1.540   5.796   7.098  0.8579 -1.4322  0.4696
  942MOL0     H29951   1.574   5.702   6.950 -1.1329  2.9454 -2.7635
  942MOL0     H29952   1.786   5.882   7.078  0.6722 -2.0436  1.9162
  942MOL0     H29953   1.783   5.708   7.097  1.5124 -2.0784 -1.7946
  942MOL0     H29954   1.917   5.965   6.800  1.5900  1.5642 -0.6934
  942MOL0     H29955   2.247   6.032   6.689 -1.1054 -0.3939  0.0857
  942MOL0     H29956   2.247   6.131   6.831 -3.0927  3.3619 -0.8865
  942MOL0     H29957   2.099   6.117   6.737 -1.7024 -0.8463  0.5472
  942MOL0     H29958   2.502   5.718   7.277 -1.9315  1.6827  0.8301
  942MOL0     H29959   2.721   5.760   7.397 -0.8060 -2.3591 -1.2116
  942MOL0     H29960   2.984   5.933   7.169  1.2610  0.6494 -0.1775
  942MOL0     H29961   2.959   6.097   7.207  0.5319  0.1221 -0.7552
  942MOL0     H29962   3.099   6.085   7.410 -0.2349  0.6352  0.3813
  942MOL0     H29963   3.134   5.913   7.359 -1.9038  0.0913 -0.1382
  942MOL0     H29964   3.188   6.176   7.215  2.7415  1.1294  0.8222
  942MOL0     H29965   3.231   6.024   7.139  0.4338  0.1759  0.1764
  942MOL0     H29966   3.398   5.979   7.289  0.5701  0.7570  0.7176
  942MOL0     H29967   3.357   6.116   7.398  0.7323  2.4863 -1.1625
  942MOL0     H29968   3.432   6.155   7.111 -2.5142 -0.6276  0.3768
  942MOL0     H29969   3.409   6.276   7.233  0.0823 -0.1248  2.4955
  942MOL0     H29970   3.648   6.085   7.193  0.3534 -0.6114  1.2881
  942MOL0     H29971   3.617   6.141   7.359 -0.2070  1.3366  0.2420
  942MOL0     H29972   3.653   6.365   7.292 -0.5764  1.5201 -2.7580
  942MOL0     H29973   3.667   6.336   7.123 -3.3125  1.0951  0.9722
  942MOL0     H29974   3.871   6.197   7.169 -0.0350  1.9007 -1.9341
  942MOL0     H29975   3.856   6.226   7.343  0.5829 -0.8056  0.4154
  942MOL0     H29976   2.770   6.118   7.165 -1.6130  0.7758  1.6423
  942MOL0     H29977   2.569   6.063   7.028 -1.7333 -2.7921 -1.9867
  942MOL0     H29978   2.222   5.680   7.059 -1.5998  0.1086  1.9593
  942MOL0     H29979   1.987   5.636   7.047 -1.1601  1.5163  0.0093
  942MOL0     H29980   1.893   5.258   7.811 -1.5412  0.9408 -1.0053
  942MOL0     H29981   1.999   5.127   7.989 -0.5610  0.4758  1.7531
  942MOL0     H29982   1.974   4.937   8.372  5.2799 -0.1896  0.1380
  942MOL0     H29983   2.089   4.807   8.561  2.5511  0.6806 -2.0041
  942MOL0     H29984   2.152   4.395   8.473 -0.5531 -1.3197  0.8787
  942MOL0     H29985   2.253   4.420   8.618 -0.4443  0.0128  2.5547
  942MOL0     H29986   1.964   4.331   8.604 -0.2907  1.2367  2.0806
  942MOL0     H29987   2.035   4.398   8.745 -1.8942 -0.9892  0.2694
  942MOL0     H29988   2.109   4.140   8.588 -2.0719 -2.2143  2.2362
  942MOL0     H29989   2.234   4.221   8.686  0.1972 -0.3148  1.6048
  942MOL0     H29990   1.971   4.071   8.749 -0.4105 -0.5893  1.1027
  942MOL0     H29991   2.023   4.206   8.861  2.0617 -2.1334  1.8843
  942MOL0     H29992   2.231   3.927   9.039  0.1871 -0.8950 -0.1253
  942MOL0     H29993   1.980   4.448   8.380  2.0001  1.0677  0.8974
  942MOL0     H29994   1.867   4.546   8.078  0.9476 -2.9432 -0.2946
  942MOL0     H29995   1.853   4.425   8.202  1.3075  0.1726 -1.2411
  942MOL0     H29996   1.722   4.546   8.192 -0.2587 -0.3489  0.8047
  943MOL0     O29997   3.068   7.999   9.235 -0.1179  0.0195  0.0539
  943MOL0     C29998   2.974   8.072   9.268 -0.1896 -0.1828  0.4927
  943MOL0     O29999   2.981   8.169   9.369  0.1523 -0.0912  0.8506
  943MOL0     C30000   3.098   8.180   9.442 -0.0717  0.8980  0.2551
  943MOL0     C30001   3.223   8.223   9.387 -0.5487  1.1520  0.2706
  943MOL0     C30002   3.339   8.232   9.470 -0.3302  0.1794  0.2766
  943MOL0     C30003   3.329   8.202   9.606 -0.2109 -0.2720 -0.1127
  943MOL0     O30004   3.426   8.212   9.705  0.5149 -0.7557  0.0075
  943MOL0     C30005   3.518   8.314   9.685  0.4946 -0.4284  0.9967
  943MOL0     C30006   3.599   8.330   9.807 -0.5400  0.2792 -0.0106
  943MOL0     C30007   3.516   8.343   9.937 -0.8889  0.2019 -0.0200
  943MOL0     C30008   3.610   8.365  10.053 -0.0968  0.2365  1.3799
  943MOL0     C30009   3.541   8.350  10.183 -0.1720 -0.7017 -0.3304
  943MOL0     C30010   3.602   8.429  10.295 -0.2645 -0.2273 -0.1070
  943MOL0     C30011   3.758   8.397  10.321 -0.6971 -1.0962 -0.3002
  943MOL0     C30012   3.768   8.248  10.346  0.1998  0.0005 -0.2418
  943MOL0     N30013   3.903   8.205  10.372 -0.5098  1.2409  0.4038
  943MOL0     C30014   4.026   8.237  10.307 -0.4552 -0.7539  0.4407
  943MOL0     C30015   4.118   8.172  10.377  0.7374 -0.5252  0.7907
  943MOL0     C30016   4.267   8.151  10.352  0.0048  0.0045  0.1697
  943MOL0     C30017   4.351   8.252  10.422 -0.2316 -0.5209  0.0076
  943MOL0     C30018   4.493   8.203  10.414 -0.9072  0.0226  0.4336
  943MOL0     C30019   4.582   8.288  10.503 -0.2404  0.2451 -1.0991
  943MOL0     O30020   4.602   8.417  10.453 -0.6482 -0.9588 -1.1882
  943MOL0     C30021   4.716   8.478  10.502 -0.6244 -0.0600  0.3253
  943MOL0     C30022   4.811   8.526  10.413  0.7641  0.2290  0.1292
  943MOL0     C30023   4.937   8.566  10.458  0.8027  0.4562  0.0974
  943MOL0     C30024   5.029   8.627  10.355 -0.7058 -0.5602 -0.4118
  943MOL0     C30025   4.968   8.568  10.591  0.6132  0.1018  0.8710
  943MOL0     C30026   5.078   8.640  10.658  0.5361 -0.4505  0.2828
  943MOL0     O30027   5.118   8.592  10.777 -0.4940  0.2914 -0.3135
  943MOL0     C30028   5.243   8.628  10.833 -0.3299 -0.0756  0.0902
  943MOL0     C30029   5.252   8.686  10.959 -0.1852 -1.4024 -0.7103
  943MOL0     C30030   5.377   8.705  11.020 -0.7267  0.2326  0.4957
  943MOL0     C30031   5.491   8.680  10.945  0.5053 -0.4981 -0.3124
  943MOL0     O30032   5.624   8.695  10.976  0.1982  0.3016 -0.3143
  943MOL0     C30033   5.651   8.724  11.112 -0.2976  0.1043 -0.0265
  943MOL0     C30034   5.651   8.875  11.152  0.0134 -0.3123 -0.1258
  943MOL0     C30035   5.795   8.926  11.131  0.0557 -0.4084 -0.0997
  943MOL0     C30036   5.824   9.072  11.140 -0.2271  1.1886 -0.8793
  943MOL0     C30037   5.938   9.111  11.037  0.2737 -1.6846 -0.9546
  943MOL0     C30038   6.035   9.199  11.106  0.1783 -0.8696 -0.2357
  943MOL0     C30039   6.162   9.240  11.032 -0.0974  0.4742  0.5479
  943MOL0     C30040   6.260   9.315  11.102  0.9667 -0.6316 -0.3640
  943MOL0    Cl30041   6.191   9.469  11.148 -0.2869 -0.3068  0.2754
  943MOL0     C30042   5.474   8.627  10.815 -0.0539  0.1711 -0.1188
  943MOL0     C30043   5.354   8.589  10.766  0.0877 -0.0684 -0.0129
  943MOL0     O30044   5.139   8.731  10.599  0.1672  0.0737  0.0739
  943MOL0     C30045   4.869   8.522  10.682  0.4314  1.0602  0.1223
  943MOL0     C30046   4.749   8.477  10.637  0.1292 -0.3467 -1.3486
  943MOL0     N30047   4.058   8.108  10.479 -0.5944 -0.9725 -0.0127
  943MOL0     N30048   3.937   8.122  10.478  0.3107 -0.8625 -0.0370
  943MOL0     C30049   3.205   8.162   9.656  0.2092  0.0022  0.3447
  943MOL0     C30050   3.096   8.155   9.576 -0.4170  0.8228  0.5788
  943MOL0     C30051   2.851   8.055   9.193 -0.8581  0.7843  0.2586
  943MOL0     C30052   2.765   8.164   9.183 -0.6199 -0.1711 -0.1418
  943MOL0     C30053   2.642   8.163   9.118  0.1307  0.2566 -0.6872
  943MOL0     C30054   2.604   8.049   9.049 -0.4475  0.6991 -0.3766
  943MOL0     O30055   2.488   8.057   8.973 -0.7255 -0.3867 -0.1606
  943MOL0     C30056   2.418   7.950   8.911  0.3718 -0.2142  0.9468
  943MOL0     C30057   2.297   8.018   8.853 -0.1447 -0.6490 -0.3151
  943MOL0     C30058   2.203   7.912   8.793  0.1891  0.2480  0.0853
  943MOL0     C30059   2.060   7.970   8.762  0.1422  0.0057  0.5436
  943MOL0     C30060   1.984   7.865   8.686 -0.3109 -0.3327  0.2055
  943MOL0     C30061   1.938   7.761   8.639 -0.2660 -0.4091 -0.1680
  943MOL0     C30062   2.695   7.939   9.038 -0.1977  0.2257 -0.0274
  943MOL0     C30063   2.813   7.940   9.114 -0.8822  0.9536  0.4019
  943MOL0     C30064   2.901   7.812   9.114 -0.0970  0.1310 -0.0660
  943MOL0     H30065   3.236   8.247   9.282  1.0537 -2.1818 -0.4309
  943MOL0     H30066   3.430   8.271   9.426 -2.5268  3.3064 -1.9083
  943MOL0     H30067   3.474   8.408   9.651  2.6663  0.4934  0.5171
  943MOL0     H30068   3.591   8.287   9.608  1.2739  1.1936  1.1106
  943MOL0     H30069   3.663   8.241   9.812 -1.7035 -0.5990 -0.1701
  943MOL0     H30070   3.653   8.425   9.797 -1.4686  0.5937 -3.3603
  943MOL0     H30071   3.458   8.435   9.930  3.1143  3.1557  1.3959
  943MOL0     H30072   3.462   8.250   9.955  0.1726  0.2083  4.3056
  943MOL0     H30073   3.698   8.301  10.047  0.9852  1.7327  0.6758
  943MOL0     H30074   3.646   8.467  10.037 -1.7974  0.9630  1.8747
  943MOL0     H30075   3.537   8.245  10.214  0.3418  0.0152  2.5306
  943MOL0     H30076   3.438   8.385  10.177  0.3829  2.2370  3.1864
  943MOL0     H30077   3.600   8.537  10.282  0.9834 -0.4003 -2.0499
  943MOL0     H30078   3.548   8.401  10.386 -0.5851  0.2783 -0.1343
  943MOL0     H30079   3.793   8.451  10.409  1.2189  0.5702 -1.9885
  943MOL0     H30080   3.822   8.426  10.237  0.4184  0.9459  1.1718
  943MOL0     H30081   3.704   8.219  10.430 -1.5370 -1.1830 -1.8986
  943MOL0     H30082   3.729   8.198  10.257  1.4463 -3.1655  0.8831
  943MOL0     H30083   4.039   8.296  10.217  0.3096 -0.4346  0.7505
  943MOL0     H30084   4.294   8.154  10.246 -0.0077  2.0380  0.1963
  943MOL0     H30085   4.297   8.054  10.393  1.8239  1.6003  3.0171
  943MOL0     H30086   4.341   8.345  10.366 -2.4106  0.3959  1.8063
  943MOL0     H30087   4.311   8.263  10.523 -1.9051 -1.2518 -0.5373
  943MOL0     H30088   4.501   8.099  10.447 -0.1697  0.4823  1.7917
  943MOL0     H30089   4.537   8.215  10.314 -0.2990  0.9762  0.7995
  943MOL0     H30090   4.545   8.301  10.605  0.9893 -1.8820 -0.3119
  943MOL0     H30091   4.676   8.233  10.506  0.0815  0.5446 -3.3811
  943MOL0     H30092   4.782   8.528  10.308  0.4469 -0.2438  0.2037
  943MOL0     H30093   5.132   8.611  10.388 -0.6425  0.1542 -0.2285
  943MOL0     H30094   5.014   8.736  10.352 -2.4735 -0.7946 -1.9034
  943MOL0     H30095   5.004   8.585  10.258 -1.4144 -0.2934 -0.3542
  943MOL0     H30096   5.158   8.712  11.007 -0.5922 -0.4712 -1.9809
  943MOL0     H30097   5.376   8.735  11.124 -2.3057 -0.0132  0.5837
  943MOL0     H30098   5.590   8.664  11.181  1.3524 -1.8508 -0.1716
  943MOL0     H30099   5.746   8.676  11.137 -0.9983 -0.9359  0.7386
  943MOL0     H30100   5.583   8.932  11.089  0.7948  1.7559  0.8114
  943MOL0     H30101   5.629   8.886  11.259  1.0526  3.6167 -0.1597
  943MOL0     H30102   5.820   8.890  11.031 -0.0820  1.8733 -1.0039
  943MOL0     H30103   5.855   8.871  11.205  1.5867  0.2967 -0.7739
  943MOL0     H30104   5.855   9.101  11.241 -2.5674 -0.3120  0.3736
  943MOL0     H30105   5.733   9.132  11.129  0.8065  3.0273  0.0831
  943MOL0     H30106   5.997   9.021  11.015 -0.7339 -2.8084  0.7310
  943MOL0     H30107   5.905   9.166  10.948 -0.9075  1.5252  1.2758
  943MOL0     H30108   6.046   9.169  11.210 -4.5231  1.4300  1.2277
  943MOL0     H30109   5.975   9.290  11.116  1.6329  0.0020  1.0549
  943MOL0     H30110   6.133   9.290  10.939  0.0062 -1.7853 -0.7943
  943MOL0     H30111   6.206   9.149  10.989  0.6293  0.8384  0.4989
  943MOL0     H30112   6.351   9.328  11.042  0.0308  0.9577 -1.4996
  943MOL0     H30113   6.278   9.261  11.195 -5.2110 -2.0023  0.4629
  943MOL0     H30114   5.560   8.617  10.750 -0.4492 -1.5230 -0.4112
  943MOL0     H30115   5.351   8.535  10.672  2.8754 -1.5693  0.6249
  943MOL0     H30116   4.871   8.528  10.790 -0.3749  1.6661  0.1119
  943MOL0     H30117   4.682   8.442  10.715  1.2750  0.3057 -0.0384
  943MOL0     H30118   3.203   8.123   9.757  0.0719  0.1459  0.3970
  943MOL0     H30119   2.998   8.120   9.606 -1.4420 -0.5866 -3.7152
  943MOL0     H30120   2.807   8.260   9.213 -0.4559  0.1281 -1.2682
  943MOL0     H30121   2.585   8.255   9.109 -0.7385 -0.4239 -2.6315
  943MOL0     H30122   2.468   7.901   8.827  0.5444 -0.2361  1.0613
  943MOL0     H30123   2.401   7.878   8.991  2.7003 -2.1431 -0.1456
  943MOL0     H30124   2.323   8.085   8.770 -0.7180  2.7624  2.0392
  943MOL0     H30125   2.250   8.084   8.927  1.2367  0.6135 -0.5182
  943MOL0     H30126   2.250   7.872   8.702  0.2498 -0.7891  0.5505
  943MOL0     H30127   2.186   7.825   8.858  0.2193  0.5386  0.4794
  943MOL0     H30128   2.063   8.060   8.699 -1.1338 -0.0895  0.3195
  943MOL0     H30129   2.004   7.993   8.852 -1.6570 -1.3209 -0.1880
  943MOL0     H30130   1.918   7.665   8.594 -1.3833  0.2064 -1.0378
  943MOL0     H30131   2.673   7.852   8.976  2.5153  1.2157 -2.5818
  943MOL0     H30132   2.963   7.804   9.024 -0.0618 -1.8750  0.0934
  943MOL0     H30133   2.942   7.787   9.212 -2.9645  0.6470  1.3886
  943MOL0     H30134   2.832   7.728   9.103  0.0901 -0.0919  0.4481
  944MOL0     O30135   1.701   3.826  10.504 -0.2025 -0.1544 -0.0006
  944MOL0     C30136   1.685   3.921  10.430  0.0717  0.0717 -0.0783
  944MOL0     O30137   1.603   3.921  10.316  0.1526 -0.2837  0.0904
  944MOL0     C30138   1.530   3.805  10.273  0.3572 -0.7199 -0.0663
  944MOL0     C30139   1.487   3.815  10.135  1.3815  0.0727 -0.0042
  944MOL0     C30140   1.423   3.704  10.074 -0.7680 -0.8506  0.3403
  944MOL0     C30141   1.389   3.596  10.153 -0.6270 -0.3236  0.3361
  944MOL0     O30142   1.321   3.494  10.082 -0.3741 -0.4350 -0.5770
  944MOL0     C30143   1.248   3.394  10.156  0.3609  0.9894 -0.2024
  944MOL0     C30144   1.184   3.290  10.066  0.0951  0.4607  0.6856
  944MOL0     C30145   1.068   3.216  10.144  0.0198 -0.8295  1.0362
  944MOL0     C30146   1.101   3.146  10.272 -0.0908  0.2760 -0.1576
  944MOL0     C30147   0.988   3.060  10.312  0.3472  0.3349 -0.3353
  944MOL0     C30148   1.009   3.015  10.459  0.9801 -0.2074 -0.0419
  944MOL0     C30149   1.122   2.909  10.476  0.7715 -1.0217 -0.0069
  944MOL0     C30150   1.108   2.844  10.610 -0.7538  0.2846 -0.1775
  944MOL0     N30151   1.147   2.934  10.725  0.0717 -0.4493  0.1530
  944MOL0     C30152   1.261   2.902  10.799  0.8266 -0.4447  0.1205
  944MOL0     C30153   1.284   3.012  10.878  1.3206  1.2142  0.5153
  944MOL0     C30154   1.391   3.020  10.985 -0.2637 -0.0193 -0.2029
  944MOL0     C30155   1.366   3.128  11.096  0.4628 -0.4825  0.3493
  944MOL0     C30156   1.407   3.278  11.051  0.1948  0.0725  0.1615
  944MOL0     C30157   1.564   3.292  11.052 -0.2784 -1.4013 -0.4299
  944MOL0     O30158   1.623   3.309  11.182 -0.1504  0.3520 -0.4690
  944MOL0     C30159   1.760   3.282  11.185  0.3537  0.9646  0.6320
  944MOL0     C30160   1.853   3.381  11.131  0.7284  0.7468 -0.9175
  944MOL0     C30161   1.991   3.361  11.140 -0.6666 -0.5992  0.0302
  944MOL0     C30162   2.078   3.481  11.103  0.3406 -0.4241 -0.1894
  944MOL0     C30163   2.044   3.239  11.195  0.0633  0.1062 -0.3046
  944MOL0     C30164   2.188   3.202  11.195  0.3875 -0.2686  0.0394
  944MOL0     O30165   2.225   3.098  11.281  0.2665 -0.4411  0.3517
  944MOL0     C30166   2.345   3.050  11.268 -0.4509  0.3557 -0.1359
  944MOL0     C30167   2.433   3.059  11.376  0.2484 -0.0090  0.0864
  944MOL0     C30168   2.567   3.019  11.364 -0.2953  0.7364 -0.8512
  944MOL0     C30169   2.603   2.956  11.244 -0.2871 -0.2139 -0.6922
  944MOL0     O30170   2.727   2.893  11.234  0.5287 -0.6899  0.5968
  944MOL0     C30171   2.838   2.985  11.258  0.1731  0.0294 -0.2187
  944MOL0     C30172   2.975   2.910  11.226  0.5184  0.0518  0.3772
  944MOL0     C30173   3.003   2.785  11.301 -0.1240  0.2655 -0.0906
  944MOL0     C30174   3.112   2.709  11.227  0.7267 -0.2128 -0.3463
  944MOL0     C30175   3.138   2.575  11.286  0.3179 -0.3624  0.3809
  944MOL0     C30176   3.220   2.483  11.200 -0.4901 -0.4767  0.1791
  944MOL0     C30177   3.349   2.551  11.136 -0.2957  0.6716 -0.4041
  944MOL0     C30178   3.418   2.447  11.047 -0.2400  1.0587 -0.2747
  944MOL0    Cl30179   3.472   2.305  11.138 -0.2149 -0.0429  0.2921
  944MOL0     C30180   2.516   2.950  11.133  0.2240  0.5920 -0.2623
  944MOL0     C30181   2.386   2.997  11.147 -0.0238  0.0398 -0.0517
  944MOL0     O30182   2.263   3.275  11.121  0.6019  0.2568 -0.2667
  944MOL0     C30183   1.954   3.155  11.244  0.0070 -1.0401 -0.0375
  944MOL0     C30184   1.815   3.172  11.246  0.5781 -0.4113 -0.2672
  944MOL0     N30185   1.186   3.107  10.841 -0.4989 -0.0433  0.0973
  944MOL0     N30186   1.115   3.062  10.749  0.4373  0.3757  0.0515
  944MOL0     C30187   1.430   3.589  10.289  0.3877  0.5435 -0.2136
  944MOL0     C30188   1.493   3.695  10.349  0.7946 -0.2782 -0.1888
  944MOL0     C30189   1.761   4.048  10.449 -0.0272  0.1531  0.1821
  944MOL0     C30190   1.762   4.147  10.345 -0.5873 -0.1860  0.2409
  944MOL0     C30191   1.831   4.265  10.355 -1.3719  0.1747 -0.2501
  944MOL0     C30192   1.898   4.299  10.476  0.2427  0.0393  0.3179
  944MOL0     O30193   1.936   4.434  10.479 -0.1865 -0.2004 -0.1147
  944MOL0     C30194   2.025   4.474  10.584 -0.1707  0.2272  0.6726
  944MOL0     C30195   2.095   4.611  10.564 -1.1514 -0.1930  0.5335
  944MOL0     C30196   1.994   4.715  10.603 -0.2612 -0.1004  0.0968
  944MOL0     C30197   1.989   4.834  10.493 -0.3770 -0.0040  0.1156
  944MOL0     C30198   2.112   4.914  10.495  0.2395  0.9916 -0.4866
  944MOL0     C30199   2.224   4.963  10.488  0.3320 -0.0468  0.8212
  944MOL0     C30200   1.907   4.200  10.574  0.2226 -1.2322  0.1791
  944MOL0     C30201   1.832   4.077  10.568 -0.4327 -0.4306 -0.3160
  944MOL0     C30202   1.861   3.992  10.687  0.3653 -0.9266 -0.8164
  944MOL0     H30203   1.520   3.895  10.069  0.2728  2.0806  1.7788
  944MOL0     H30204   1.403   3.707   9.968  1.3533 -0.4272 -0.0910
  944MOL0     H30205   1.158   3.436  10.202 -1.2960 -1.0382 -1.4461
  944MOL0     H30206   1.300   3.347  10.240 -0.6301  2.7353  1.4774
  944MOL0     H30207   1.135   3.342   9.983  0.6430  0.2480  0.2253
  944MOL0     H30208   1.257   3.222  10.023  0.0338 -0.1300  1.4859
  944MOL0     H30209   0.986   3.286  10.166  0.1053 -0.2563 -0.3926
  944MOL0     H30210   1.023   3.147  10.072  0.5151  1.1278 -1.2450
  944MOL0     H30211   1.192   3.087  10.258 -0.9119 -1.7129  2.3460
  944MOL0     H30212   1.129   3.221  10.347 -3.2188 -0.6100  2.0734
  944MOL0     H30213   0.959   2.981  10.242  0.1786 -0.2663  0.3986
  944MOL0     H30214   0.905   3.131  10.317 -0.2706 -0.3121 -1.0799
  944MOL0     H30215   1.029   3.107  10.515 -0.7579  0.7502 -0.8852
  944MOL0     H30216   0.911   2.986  10.499  1.5536  0.1199  1.6658
  944MOL0     H30217   1.211   2.973  10.470  0.2748  0.0047  2.2915
  944MOL0     H30218   1.130   2.839  10.392 -0.8953 -0.2836 -0.8343
  944MOL0     H30219   1.010   2.796  10.623 -0.5000 -0.5267 -1.1314
  944MOL0     H30220   1.175   2.758  10.604 -2.8067 -1.3637 -1.1244
  944MOL0     H30221   1.312   2.806  10.809  0.7013 -0.6178 -0.8058
  944MOL0     H30222   1.479   3.043  10.925  0.7960 -2.6524  0.2185
  944MOL0     H30223   1.400   2.924  11.036  0.4856  0.3415  0.3634
  944MOL0     H30224   1.260   3.135  11.122  0.7109 -1.6548  1.7546
  944MOL0     H30225   1.422   3.093  11.183  3.5735 -3.0553 -2.4076
  944MOL0     H30226   1.360   3.302  10.954  0.1027  2.4276  0.7143
  944MOL0     H30227   1.370   3.345  11.129  2.8465 -0.0999  1.6731
  944MOL0     H30228   1.619   3.214  11.000  1.3308 -1.0720  0.7253
  944MOL0     H30229   1.592   3.381  10.994 -0.3894  0.0719  1.6575
  944MOL0     H30230   1.825   3.480  11.097  2.8583  2.0471  0.8532
  944MOL0     H30231   2.133   3.511  11.193 -0.8023  2.0507 -0.2316
  944MOL0     H30232   2.022   3.571  11.076  3.3574  1.6398 -0.0312
  944MOL0     H30233   2.140   3.456  11.017  1.8533  1.8362  0.1573
  944MOL0     H30234   2.388   3.106  11.463 -1.1694 -0.9758 -0.1116
  944MOL0     H30235   2.636   3.010  11.448  0.3961  2.5481 -1.1727
  944MOL0     H30236   2.833   3.065  11.184  0.6138 -2.4097 -3.0495
  944MOL0     H30237   2.852   3.015  11.362 -3.4393 -0.3819  0.5024
  944MOL0     H30238   2.968   2.896  11.118 -0.9188  0.0242  0.4561
  944MOL0     H30239   3.056   2.981  11.244 -2.1261  2.9388  1.6871
  944MOL0     H30240   2.913   2.724  11.306  1.0074 -1.5260 -0.4812
  944MOL0     H30241   3.048   2.797  11.400  0.1778  0.3370 -0.2340
  944MOL0     H30242   3.199   2.776  11.224 -0.5142  1.4027 -1.4664
  944MOL0     H30243   3.090   2.680  11.124  0.0829 -3.8173  0.6686
  944MOL0     H30244   3.202   2.588  11.374 -0.5352  0.0453  0.9510
  944MOL0     H30245   3.041   2.526  11.296  0.3542 -1.3703 -3.0081
  944MOL0     H30246   3.158   2.442  11.119 -1.1568  0.6096  0.1215
  944MOL0     H30247   3.258   2.403  11.264 -1.2590 -0.7637  0.2828
  944MOL0     H30248   3.414   2.599  11.210 -2.9282  1.0914  1.8301
  944MOL0     H30249   3.322   2.637  11.075  0.6293  1.3555  0.1168
  944MOL0     H30250   3.509   2.485  11.000  0.2462 -2.7231 -2.7521
  944MOL0     H30251   3.343   2.408  10.979  2.2620 -4.8324 -0.2024
  944MOL0     H30252   2.539   2.922  11.031 -2.1244  0.1784 -0.7383
  944MOL0     H30253   2.322   2.985  11.060 -0.0531  1.0316 -0.1806
  944MOL0     H30254   1.992   3.060  11.281  0.9442 -1.1252 -1.1499
  944MOL0     H30255   1.748   3.104  11.297  1.4560  1.2263  3.3179
  944MOL0     H30256   1.414   3.499  10.347  0.2282  0.7147  0.0154
  944MOL0     H30257   1.512   3.680  10.455 -0.9192  0.1591  0.2056
  944MOL0     H30258   1.709   4.129  10.252  1.0871 -0.1983 -0.7571
  944MOL0     H30259   1.815   4.335  10.273  0.5048 -0.3587 -1.1197
  944MOL0     H30260   1.970   4.461  10.678 -0.3841  0.2174  0.5468
  944MOL0     H30261   2.109   4.403  10.582 -0.1362  0.2657  0.7301
  944MOL0     H30262   2.125   4.632  10.461 -2.6330  2.0816  0.4890
  944MOL0     H30263   2.179   4.615  10.633 -0.2783 -0.8095 -0.4736
  944MOL0     H30264   1.897   4.666  10.616  0.1170 -0.1117  3.7615
  944MOL0     H30265   2.014   4.761  10.700 -0.2360  1.3076 -0.5495
  944MOL0     H30266   1.897   4.894  10.492 -0.3521  0.0617 -2.3333
  944MOL0     H30267   1.976   4.780  10.399 -0.0450 -0.2185  0.1943
  944MOL0     H30268   2.321   5.009  10.479  0.0084  0.6665  0.9643
  944MOL0     H30269   1.969   4.232  10.658  1.6222 -2.1839 -0.4476
  944MOL0     H30270   1.765   3.958  10.726 -1.1422  4.9661  1.8333
  944MOL0     H30271   1.927   3.908  10.665 -0.3915 -1.8497  0.3337
  944MOL0     H30272   1.912   4.055  10.761  1.5643 -0.0013 -2.3588
  945MOL0     O30273   7.651   9.555   5.934  0.2572  0.3515 -0.1747
  945MOL0     C30274   7.601   9.642   5.871 -0.1999  0.5993 -0.4662
  945MOL0     O30275   7.674   9.727   5.780 -0.1476  0.6379 -0.2567
  945MOL0     C30276   7.798   9.687   5.733  0.2722 -0.2978  0.2662
  945MOL0     C30277   7.873   9.794   5.679  0.6425  0.0740  0.5311
  945MOL0     C30278   7.990   9.764   5.601 -0.4458  0.0809  0.0737
  945MOL0     C30279   8.031   9.633   5.581  0.1706 -0.7272  0.2143
  945MOL0     O30280   8.146   9.619   5.513  0.5701  0.4288  0.3788
  945MOL0     C30281   8.168   9.508   5.427  0.4695  0.0561 -0.3135
  945MOL0     C30282   8.295   9.544   5.336 -0.8276 -0.2886  0.2321
  945MOL0     C30283   8.420   9.576   5.416  0.0789 -0.0306  0.7899
  945MOL0     C30284   8.534   9.615   5.314  0.0814 -0.7884 -0.3688
  945MOL0     C30285   8.662   9.650   5.383 -0.0012  0.0893 -0.2089
  945MOL0     C30286   8.764   9.690   5.277 -0.4339  0.8098  0.2266
  945MOL0     C30287   8.899   9.726   5.339  0.3306 -0.4429 -0.6988
  945MOL0     C30288   9.000   9.617   5.373 -0.3284 -0.8511  0.1958
  945MOL0     N30289   9.109   9.667   5.461 -0.6942 -0.7416 -0.9599
  945MOL0     C30290   9.244   9.627   5.453 -0.4816 -0.2941  0.2746
  945MOL0     C30291   9.297   9.676   5.565 -0.6595  0.1635  1.1211
  945MOL0     C30292   9.438   9.645   5.604  0.2968 -0.3862 -0.1732
  945MOL0     C30293   9.460   9.500   5.653 -0.0854  0.4130  0.4767
  945MOL0     C30294   9.612   9.490   5.691  0.5668  0.3947  0.0694
  945MOL0     C30295   9.641   9.376   5.784 -0.0554 -0.3839  0.5596
  945MOL0     O30296   9.784   9.360   5.785 -0.5539  0.1379  0.2400
  945MOL0     C30297   9.840   9.258   5.858  0.0991  0.4734  0.2303
  945MOL0     C30298   9.961   9.195   5.821 -0.6045 -0.6091  0.5184
  945MOL0     C30299  10.019   9.094   5.897  0.9245 -0.7267  0.8681
  945MOL0     C30300  10.151   9.036   5.853 -0.6139 -0.1987  0.4578
  945MOL0     C30301   9.937   9.035   5.999 -0.0429  1.5746 -0.2033
  945MOL0     C30302   9.982   8.926   6.082 -0.8914  1.1625 -0.5219
  945MOL0     O30303  10.120   8.911   6.112  0.0524 -0.6141  0.1074
  945MOL0     C30304  10.153   8.778   6.136 -0.0211  0.0386  0.4567
  945MOL0     C30305  10.201   8.741   6.260  0.9169  0.6230 -0.2283
  945MOL0     C30306  10.227   8.606   6.285 -0.2981  0.5120 -0.2219
  945MOL0     C30307  10.222   8.512   6.180  0.0034 -0.3805 -0.5403
  945MOL0     O30308  10.262   8.384   6.212  0.1679  0.0823 -0.0711
  945MOL0     C30309  10.287   8.288   6.104 -0.3638 -0.8704 -0.2428
  945MOL0     C30310  10.289   8.142   6.160  0.7099  0.1776 -0.6242
  945MOL0     C30311  10.418   8.099   6.235  0.1923  0.0011  0.0826
  945MOL0     C30312  10.546   8.104   6.148  0.2848 -0.0647 -1.1908
  945MOL0     C30313  10.671   8.048   6.232 -0.1559  0.2387  0.3614
  945MOL0     C30314  10.724   8.156   6.335  0.3963 -0.4206  0.8922
  945MOL0     C30315  10.855   8.116   6.403 -0.2181  0.8540  0.4367
  945MOL0     C30316  10.895   8.204   6.523  0.1048 -0.7466  0.7361
  945MOL0    Cl30317  10.812   8.151   6.668  0.1775 -0.3928  0.6410
  945MOL0     C30318  10.182   8.556   6.056 -0.5234 -0.4592  0.5378
  945MOL0     C30319  10.156   8.686   6.032  0.1938 -0.2413  0.3150
  945MOL0     O30320   9.898   8.849   6.124 -0.2688  0.1209  0.6112
  945MOL0     C30321   9.821   9.101   6.039 -0.2880 -0.5885 -0.4162
  945MOL0     C30322   9.774   9.211   5.970 -0.1747 -0.3888  0.1841
  945MOL0     N30323   9.208   9.754   5.630  1.2968  0.0358  0.1495
  945MOL0     N30324   9.093   9.753   5.566  0.0295  1.2549 -0.4376
  945MOL0     C30325   7.958   9.528   5.643  0.5198 -0.4939 -0.3982
  945MOL0     C30326   7.842   9.552   5.708 -0.3478 -0.1182 -0.1220
  945MOL0     C30327   7.458   9.666   5.894 -0.0980 -0.3687  0.8365
  945MOL0     C30328   7.382   9.699   5.779  0.0157 -0.2430 -0.7449
  945MOL0     C30329   7.249   9.742   5.800 -0.1115 -0.2033  0.1815
  945MOL0     C30330   7.194   9.754   5.929 -0.4258 -1.3498 -0.9544
  945MOL0     O30331   7.065   9.806   5.950  0.0014 -0.1575 -0.5288
  945MOL0     C30332   6.972   9.706   5.908 -0.7982 -0.4686  0.5200
  945MOL0     C30333   6.851   9.761   5.962  0.0036 -0.8576 -0.2727
  945MOL0     C30334   6.818   9.742   6.112  0.9257  0.5227 -0.4204
  945MOL0     C30335   6.711   9.635   6.159 -0.5441 -0.9210  0.4443
  945MOL0     C30336   6.567   9.664   6.131  0.1633 -0.3228 -0.5369
  945MOL0     C30337   6.445   9.679   6.123 -0.9355  0.1745  0.3393
  945MOL0     C30338   7.274   9.715   6.040  0.7325 -0.1468  0.2816
  945MOL0     C30339   7.402   9.665   6.021 -0.3223  0.4248 -0.5124
  945MOL0     C30340   7.482   9.639   6.144 -0.4536 -0.0375 -0.0470
  945MOL0     H30341   7.841   9.896   5.699 -0.1450  0.2781 -1.5252
  945MOL0     H30342   8.037   9.847   5.550 -1.7293  2.0166  1.8715
  945MOL0     H30343   8.085   9.490   5.358  1.5979  0.1254 -1.7440
  945MOL0     H30344   8.196   9.430   5.498  1.2024  1.3023  0.8024
  945MOL0     H30345   8.319   9.469   5.259 -1.2470 -0.5102  0.3099
  945MOL0     H30346   8.276   9.639   5.285  3.1439  0.0277 -1.0005
  945MOL0     H30347   8.400   9.665   5.476  0.4639  1.3031 -0.9907
  945MOL0     H30348   8.446   9.494   5.484  1.0040 -0.2373  0.2047
  945MOL0     H30349   8.555   9.528   5.251  3.2783 -0.1863 -0.3048
  945MOL0     H30350   8.513   9.698   5.246 -1.4595 -1.1003 -0.2887
  945MOL0     H30351   8.692   9.557   5.433 -1.6141 -0.0001  0.6551
  945MOL0     H30352   8.642   9.728   5.456 -1.6069 -2.1126  1.8380
  945MOL0     H30353   8.780   9.600   5.217  1.3779 -1.0209  3.1815
  945MOL0     H30354   8.740   9.769   5.204  1.8046  2.6352  1.3071
  945MOL0     H30355   8.881   9.787   5.428  1.8633 -0.9541 -0.0106
  945MOL0     H30356   8.941   9.793   5.264 -2.3376 -0.5145 -2.4123
  945MOL0     H30357   8.950   9.533   5.423  0.1855  0.5967  3.3818
  945MOL0     H30358   9.042   9.582   5.278 -0.1984 -2.4617  0.8275
  945MOL0     H30359   9.290   9.561   5.381 -1.2403  0.6821 -1.1642
  945MOL0     H30360   9.458   9.710   5.690 -0.0865 -1.1248  0.4775
  945MOL0     H30361   9.504   9.677   5.523  1.7384 -0.3144  0.9872
  945MOL0     H30362   9.398   9.488   5.742 -1.3687  1.7973 -0.2027
  945MOL0     H30363   9.432   9.430   5.573  0.6621  1.1186 -0.4350
  945MOL0     H30364   9.662   9.480   5.594 -2.7034 -0.7165 -1.6537
  945MOL0     H30365   9.649   9.579   5.743 -0.5363  0.1788  1.2665
  945MOL0     H30366   9.591   9.398   5.878 -1.4583 -0.3714 -0.1546
  945MOL0     H30367   9.604   9.285   5.734 -0.7393  0.1336  0.0941
  945MOL0     H30368  10.016   9.232   5.735  3.3894 -1.9873  2.2229
  945MOL0     H30369  10.228   9.068   5.924  0.8026 -1.2420 -0.5434
  945MOL0     H30370  10.179   9.071   5.754 -0.6413  0.7786  0.7860
  945MOL0     H30371  10.152   8.927   5.861  2.9876 -0.2132  1.5465
  945MOL0     H30372  10.208   8.814   6.340  2.3364 -0.0847  0.3210
  945MOL0     H30373  10.260   8.590   6.387 -2.1065 -0.0949  0.3107
  945MOL0     H30374  10.219   8.289   6.018  1.9963  1.4422 -2.2496
  945MOL0     H30375  10.379   8.319   6.054 -1.3601 -0.1610 -1.7299
  945MOL0     H30376  10.204   8.126   6.228  2.4479  3.5347  2.6772
  945MOL0     H30377  10.280   8.075   6.074  3.8039  0.1705 -1.0433
  945MOL0     H30378  10.403   7.996   6.269 -1.2619 -0.5195 -1.9429
  945MOL0     H30379  10.422   8.159   6.326 -2.3412  0.1349  0.1677
  945MOL0     H30380  10.563   8.208   6.118 -0.0642 -0.0014 -1.1699
  945MOL0     H30381  10.538   8.047   6.055 -0.7207 -3.2006  0.6799
  945MOL0     H30382  10.639   7.951   6.272 -0.8195 -0.1966 -1.1347
  945MOL0     H30383  10.753   8.028   6.162 -1.0407  1.0365 -0.9495
  945MOL0     H30384  10.645   8.165   6.410 -0.5046  1.5856 -0.2153
  945MOL0     H30385  10.736   8.252   6.285 -1.8236 -0.7128 -0.3367
  945MOL0     H30386  10.935   8.136   6.331 -0.8780  3.6233  0.3562
  945MOL0     H30387  10.850   8.010   6.431 -2.1105  1.6000  3.4164
  945MOL0     H30388  10.864   8.307   6.502 -0.5959 -0.9689  0.6501
  945MOL0     H30389  11.004   8.198   6.531  0.2418  1.1750  0.9706
  945MOL0     H30390  10.160   8.489   5.973  0.5214  2.7476 -2.5824
  945MOL0     H30391  10.116   8.707   5.934 -0.8301 -2.6380  0.1511
  945MOL0     H30392   9.766   9.068   6.127  0.0793  0.1379  0.0928
  945MOL0     H30393   9.684   9.261   6.003  0.8408  3.9003 -2.6463
  945MOL0     H30394   7.992   9.426   5.632  0.7210 -0.3753 -0.9296
  945MOL0     H30395   7.792   9.467   5.752  0.9502 -2.3821 -2.7382
  945MOL0     H30396   7.413   9.700   5.675  0.1032 -1.5275 -0.7365
  945MOL0     H30397   7.193   9.770   5.711 -0.0419 -3.4475 -1.0269
  945MOL0     H30398   6.972   9.691   5.799  0.1252  1.4750  0.2042
  945MOL0     H30399   6.994   9.609   5.953  0.6242 -0.8259 -0.8504
  945MOL0     H30400   6.771   9.713   5.904  0.3766  0.6122 -2.1086
  945MOL0     H30401   6.849   9.865   5.931 -0.0043  0.0154  2.4229
  945MOL0     H30402   6.908   9.726   6.171 -0.6918 -2.1963  1.5447
  945MOL0     H30403   6.770   9.834   6.148  0.5916 -0.2813  1.2921
  945MOL0     H30404   6.724   9.620   6.266  1.4203 -2.5221  0.0308
  945MOL0     H30405   6.735   9.543   6.105  1.5069 -1.3050  1.8836
  945MOL0     H30406   6.339   9.694   6.116 -1.2508 -0.4297  2.9665
  945MOL0     H30407   7.251   9.729   6.146  1.9551  1.0690  0.4145
  945MOL0     H30408   7.574   9.698   6.142 -0.4523  0.0186 -3.1980
  945MOL0     H30409   7.433   9.651   6.241  1.9556  0.0104  1.2359
  945MOL0     H30410   7.507   9.533   6.138 -1.6845 -0.4554  1.4307
  946MOL0     O30411   1.081   4.311   5.696  0.9374 -0.0445 -0.9358
  946MOL0     C30412   1.036   4.404   5.629  0.1764  0.4855  0.3942
  946MOL0     O30413   1.094   4.525   5.622 -0.1096  0.1828  0.3469
  946MOL0     C30414   1.216   4.545   5.697 -0.9639 -0.1949 -0.2138
  946MOL0     C30415   1.212   4.649   5.789  0.3611  0.1497  0.3214
  946MOL0     C30416   1.322   4.679   5.865 -0.1648 -0.4560  0.0653
  946MOL0     C30417   1.445   4.614   5.857 -0.3367  0.0700 -0.6557
  946MOL0     O30418   1.546   4.672   5.926 -0.8095 -0.0232  0.0080
  946MOL0     C30419   1.671   4.599   5.919  0.5407  0.3308  0.3440
  946MOL0     C30420   1.786   4.680   5.977  0.6785 -0.1038 -0.2415
  946MOL0     C30421   1.906   4.606   6.032 -0.7410  0.3813  0.2552
  946MOL0     C30422   1.945   4.483   5.942  0.3987 -0.2119  0.5460
  946MOL0     C30423   2.079   4.429   5.979 -0.2909 -0.1019 -0.9240
  946MOL0     C30424   2.191   4.522   5.922 -0.4695 -0.3777 -0.5370
  946MOL0     C30425   2.335   4.463   5.911  0.1898  0.3238 -0.2934
  946MOL0     C30426   2.413   4.456   6.042 -0.2903 -0.4138 -1.0914
  946MOL0     N30427   2.543   4.405   6.010  0.3078  0.0628  0.0027
  946MOL0     C30428   2.582   4.273   6.044  0.5777 -0.1796  0.6080
  946MOL0     C30429   2.712   4.266   6.016 -0.4867 -0.2237  0.6997
  946MOL0     C30430   2.812   4.156   6.045 -0.4975 -0.1152 -0.3723
  946MOL0     C30431   2.948   4.154   5.968 -0.4665 -0.0790  0.2475
  946MOL0     C30432   2.990   4.014   5.910  0.5654  0.0488  0.6780
  946MOL0     C30433   3.141   4.011   5.871 -0.5077 -0.3055  0.3429
  946MOL0     O30434   3.158   3.929   5.758  0.0572  0.0676 -0.7589
  946MOL0     C30435   3.282   3.895   5.719  0.3518  0.2235  0.2125
  946MOL0     C30436   3.298   3.782   5.636  0.3471 -0.3631 -0.0214
  946MOL0     C30437   3.425   3.744   5.587 -0.0334 -1.1226  0.0354
  946MOL0     C30438   3.439   3.628   5.490  0.2354  0.9548  0.2483
  946MOL0     C30439   3.536   3.829   5.615 -0.1543 -0.6541  0.1295
  946MOL0     C30440   3.671   3.788   5.578  0.3497  0.3850 -0.1832
  946MOL0     O30441   3.757   3.886   5.527  0.3313 -0.3970 -0.5188
  946MOL0     C30442   3.879   3.849   5.476 -0.4881  0.8443 -0.1166
  946MOL0     C30443   3.926   3.921   5.368  0.2863 -0.0960  0.7126
  946MOL0     C30444   4.036   3.883   5.295 -0.0182  0.5099  0.4408
  946MOL0     C30445   4.125   3.787   5.341  0.5662  0.5154  0.4206
  946MOL0     O30446   4.241   3.753   5.279 -0.8577 -0.5653 -0.0768
  946MOL0     C30447   4.262   3.777   5.136  0.7415  0.7050 -0.9775
  946MOL0     C30448   4.328   3.661   5.056  0.0773  0.3403 -0.8818
  946MOL0     C30449   4.228   3.554   5.018  0.0832 -0.1724  0.2910
  946MOL0     C30450   4.199   3.458   5.128  0.4222 -0.1811 -0.9385
  946MOL0     C30451   4.054   3.401   5.123  0.1382  1.4766  0.1208
  946MOL0     C30452   3.937   3.499   5.150 -0.8940  0.0249  0.5669
  946MOL0     C30453   3.803   3.425   5.145  0.6562 -0.1477  0.4310
  946MOL0     C30454   3.681   3.510   5.188  0.1063 -0.5084  0.7020
  946MOL0    Cl30455   3.526   3.412   5.193  0.4230 -0.2453  0.0344
  946MOL0     C30456   4.079   3.717   5.456 -0.4471 -0.1470 -0.2351
  946MOL0     C30457   3.967   3.745   5.521  1.0109 -0.3382  0.5140
  946MOL0     O30458   3.699   3.669   5.597 -0.1418  0.3066  0.6117
  946MOL0     C30459   3.515   3.943   5.695 -0.5878 -0.0024  0.7041
  946MOL0     C30460   3.388   3.976   5.746 -0.6621 -0.2124 -0.3995
  946MOL0     N30461   2.743   4.387   5.952  0.3681  0.9782  0.3835
  946MOL0     N30462   2.651   4.476   5.954 -0.6646 -0.5823 -0.4105
  946MOL0     C30463   1.446   4.498   5.774 -0.2659 -0.0157  0.1304
  946MOL0     C30464   1.336   4.471   5.692 -0.2014 -0.8795 -0.0215
  946MOL0     C30465   0.905   4.381   5.555  0.5846  0.0177 -0.0334
  946MOL0     C30466   0.861   4.487   5.461  0.1041  0.1545 -0.1034
  946MOL0     C30467   0.741   4.473   5.385 -0.7681  0.2524  0.7940
  946MOL0     C30468   0.674   4.354   5.382 -0.4194 -0.1379  0.5275
  946MOL0     O30469   0.572   4.350   5.303  0.5350 -0.1069 -0.1119
  946MOL0     C30470   0.462   4.277   5.331 -0.6543 -0.0600 -0.2449
  946MOL0     C30471   0.395   4.317   5.463  0.4955 -0.3109 -0.6683
  946MOL0     C30472   0.345   4.464   5.468  0.1552  0.3430 -0.3156
  946MOL0     C30473   0.322   4.499   5.609 -0.5222  0.1647  0.3358
  946MOL0     C30474   0.236   4.611   5.620 -0.5791  0.1373  0.2259
  946MOL0     C30475   0.137   4.672   5.630  0.4402 -0.1156  0.3078
  946MOL0     C30476   0.713   4.254   5.473  0.9289 -0.2048 -0.9215
  946MOL0     C30477   0.821   4.267   5.564  0.4418  1.0821  0.7104
  946MOL0     C30478   0.843   4.152   5.667 -0.4521 -0.1971  0.3304
  946MOL0     H30479   1.111   4.686   5.807  0.9909  0.9067  2.7383
  946MOL0     H30480   1.311   4.763   5.932  2.4034  0.0694 -0.0821
  946MOL0     H30481   1.688   4.567   5.816 -0.4628  0.2433  0.1933
  946MOL0     H30482   1.665   4.505   5.974  0.6755  1.1238  1.7641
  946MOL0     H30483   1.811   4.757   5.904 -0.3595  0.2901 -0.1929
  946MOL0     H30484   1.745   4.734   6.063 -0.8702 -1.9263  0.2445
  946MOL0     H30485   1.980   4.686   6.030  1.2283 -1.3648 -0.2902
  946MOL0     H30486   1.893   4.561   6.131  1.2041 -2.9073 -0.8142
  946MOL0     H30487   1.870   4.403   5.949 -3.0483  2.7518  0.5237
  946MOL0     H30488   1.943   4.498   5.834  1.5793  0.0489  0.5471
  946MOL0     H30489   2.082   4.334   5.924 -1.7691  0.0375 -1.2783
  946MOL0     H30490   2.078   4.412   6.087  0.1211  0.6145 -0.8019
  946MOL0     H30491   2.168   4.557   5.821  2.0553  1.6081 -0.5140
  946MOL0     H30492   2.207   4.620   5.969 -0.1156 -1.1135  0.9169
  946MOL0     H30493   2.403   4.522   5.849  0.6814  1.0359  0.8924
  946MOL0     H30494   2.326   4.361   5.874  1.5039 -0.5622  1.6308
  946MOL0     H30495   2.413   4.553   6.093 -1.2568 -1.3673  0.8185
  946MOL0     H30496   2.377   4.373   6.103  0.1558 -0.0662 -0.3365
  946MOL0     H30497   2.524   4.190   6.082 -0.2442  0.1342  0.0555
  946MOL0     H30498   2.752   4.067   6.023 -2.8226  0.6667  2.1765
  946MOL0     H30499   2.828   4.160   6.153  0.6301 -0.2054 -0.5290
  946MOL0     H30500   2.950   4.227   5.887 -0.9592  1.7812  1.8394
  946MOL0     H30501   3.025   4.186   6.040 -0.0279 -0.7049  0.0586
  946MOL0     H30502   2.973   3.940   5.989 -1.6541 -0.8792 -0.5760
  946MOL0     H30503   2.919   3.978   5.834 -1.2487  0.3129  2.1658
  946MOL0     H30504   3.166   4.112   5.835 -0.3266 -0.7998 -0.9810
  946MOL0     H30505   3.210   3.989   5.953  5.7130  0.3532 -3.9936
  946MOL0     H30506   3.210   3.725   5.608 -0.4656  0.1656  1.3655
  946MOL0     H30507   3.496   3.654   5.401 -0.2741 -1.9571 -1.0403
  946MOL0     H30508   3.345   3.580   5.461  0.1723  1.0050  0.3649
  946MOL0     H30509   3.489   3.541   5.532  1.2898  0.4056 -2.0167
  946MOL0     H30510   3.857   3.998   5.334  0.8891  0.0748 -0.1615
  946MOL0     H30511   4.055   3.931   5.200  0.3158 -1.0173 -0.2911
  946MOL0     H30512   4.170   3.808   5.085  0.8088  0.6109 -1.1588
  946MOL0     H30513   4.327   3.865   5.132  1.0182  0.8774  3.2381
  946MOL0     H30514   4.352   3.710   4.961  0.0431 -0.5320 -1.3506
  946MOL0     H30515   4.418   3.613   5.096 -0.3828 -0.8639 -1.2496
  946MOL0     H30516   4.265   3.495   4.934  2.3051  0.7513  0.5636
  946MOL0     H30517   4.136   3.603   4.983 -0.4674 -0.1901  1.6652
  946MOL0     H30518   4.218   3.504   5.225  1.6426  4.7720 -3.1982
  946MOL0     H30519   4.271   3.376   5.123 -1.1455 -1.9726  2.2776
  946MOL0     H30520   4.035   3.342   5.033  0.7978 -1.9552  2.0727
  946MOL0     H30521   4.051   3.323   5.200 -0.5543  1.2244 -0.1598
  946MOL0     H30522   3.935   3.576   5.073  1.1006 -0.8165 -0.4046
  946MOL0     H30523   3.949   3.549   5.247  0.1252 -2.2269  1.6959
  946MOL0     H30524   3.803   3.349   5.223 -0.8864  1.0785  1.7027
  946MOL0     H30525   3.785   3.393   5.042 -0.5051  1.5008  0.0717
  946MOL0     H30526   3.671   3.581   5.105  0.6603  1.7199  2.4492
  946MOL0     H30527   3.689   3.579   5.272 -2.1904  0.3729  0.2653
  946MOL0     H30528   4.145   3.642   5.498  0.6248 -0.4142 -2.2268
  946MOL0     H30529   3.946   3.693   5.613  1.2364 -0.7968  0.3122
  946MOL0     H30530   3.595   4.015   5.704 -0.0846 -0.0670 -2.2582
  946MOL0     H30531   3.379   4.072   5.796 -4.7299 -0.8611  0.4531
  946MOL0     H30532   1.535   4.438   5.759 -1.2532 -1.2547 -0.9831
  946MOL0     H30533   1.341   4.377   5.639  0.6112 -1.2890  0.7681
  946MOL0     H30534   0.914   4.582   5.460 -0.9739  0.7927  0.8890
  946MOL0     H30535   0.710   4.559   5.327 -0.8689 -0.5338 -0.3518
  946MOL0     H30536   0.396   4.285   5.243  0.3127  2.1144 -0.8364
  946MOL0     H30537   0.488   4.171   5.328  0.8008  0.2682  0.1174
  946MOL0     H30538   0.457   4.304   5.553 -0.0160  2.5977  0.2401
  946MOL0     H30539   0.308   4.252   5.471 -0.0882  0.4822 -0.4966
  946MOL0     H30540   0.405   4.535   5.410 -0.5013 -0.0744 -1.5578
  946MOL0     H30541   0.245   4.466   5.422 -0.2778  0.0918  0.5998
  946MOL0     H30542   0.417   4.531   5.653 -1.0384  0.5687  1.1840
  946MOL0     H30543   0.259   4.425   5.658 -1.2438 -0.2486 -1.1518
  946MOL0     H30544   0.047   4.729   5.636 -1.3150 -2.7870  0.9946
  946MOL0     H30545   0.648   4.166   5.471  1.3166 -0.5573  0.6929
  946MOL0     H30546   0.925   4.086   5.634  0.1904  0.8355 -0.1755
  946MOL0     H30547   0.865   4.181   5.770  3.6917 -4.5659  1.0518
  946MOL0     H30548   0.753   4.090   5.660  0.5186 -1.9029  2.0372
  947MOL0     O30549   8.243   7.389  11.100 -0.2124  0.3254  0.2613
  947MOL0     C30550   8.269   7.473  11.182  0.0153 -0.0729  0.1029
  947MOL0     O30551   8.386   7.528  11.183  0.0535 -0.0753 -0.4582
  947MOL0     C30552   8.457   7.529  11.068  0.4382 -0.5751  0.4775
  947MOL0     C30553   8.535   7.425  11.039  0.0151 -0.3157 -0.0712
  947MOL0     C30554   8.614   7.421  10.926 -0.0961  0.3578  0.7652
  947MOL0     C30555   8.605   7.522  10.830 -0.4650 -0.2683 -0.2074
  947MOL0     O30556   8.674   7.525  10.709 -0.2396  0.7550  0.3015
  947MOL0     C30557   8.794   7.455  10.709 -0.2012 -0.6113  0.3225
  947MOL0     C30558   8.840   7.439  10.562 -0.3898 -0.3788  0.2753
  947MOL0     C30559   8.878   7.577  10.509  0.1137 -0.6089 -0.0945
  947MOL0     C30560   8.899   7.567  10.350  0.4164 -1.0590 -0.4070
  947MOL0     C30561   9.035   7.512  10.320  0.2532  0.3776  0.4353
  947MOL0     C30562   9.059   7.485  10.164  0.0771 -0.4604 -0.6083
  947MOL0     C30563   9.094   7.613  10.078  0.1087 -0.3411  0.1279
  947MOL0     C30564   9.223   7.605   9.985 -0.6213  0.7139  0.2207
  947MOL0     N30565   9.344   7.574  10.062  0.5417  0.4823  0.0844
  947MOL0     C30566   9.441   7.485  10.024  0.0856  0.2586  0.0635
  947MOL0     C30567   9.551   7.533  10.089 -0.9447  0.1367 -0.1946
  947MOL0     C30568   9.692   7.492  10.044  0.2979  0.1955  0.1569
  947MOL0     C30569   9.799   7.546  10.140 -0.5839  0.5539  0.2748
  947MOL0     C30570   9.936   7.520  10.084 -0.4331 -0.1056 -1.1575
  947MOL0     C30571  10.054   7.573  10.170  0.4793 -0.2067  0.5973
  947MOL0     O30572  10.090   7.469  10.265 -0.0101  0.2294 -0.0794
  947MOL0     C30573  10.199   7.504  10.347 -0.1972  0.0641  0.6735
  947MOL0     C30574  10.241   7.627  10.390  0.4102 -0.8994  0.5510
  947MOL0     C30575  10.349   7.636  10.477 -1.0132 -0.3695 -0.1225
  947MOL0     C30576  10.392   7.776  10.512 -0.3509  0.1536  0.1707
  947MOL0     C30577  10.425   7.516  10.518 -0.4299 -0.3704 -0.9821
  947MOL0     C30578  10.547   7.525  10.597 -0.9955 -0.8101  0.1997
  947MOL0     O30579  10.628   7.408  10.586 -0.2180 -0.2915  0.1941
  947MOL0     C30580  10.751   7.411  10.651 -1.3766 -0.0329  0.1552
  947MOL0     C30581  10.802   7.286  10.691 -0.2209  0.2330 -0.0982
  947MOL0     C30582  10.934   7.278  10.742  0.2284 -0.8891  0.7343
  947MOL0     C30583  11.022   7.391  10.758  0.0273  1.0660  0.0611
  947MOL0     O30584  11.152   7.398  10.801  0.5717 -0.2913 -0.0783
  947MOL0     C30585  11.216   7.283  10.832  0.0108  0.1426  0.3905
  947MOL0     C30586  11.282   7.218  10.712 -0.1638 -0.2657  0.2764
  947MOL0     C30587  11.362   7.314  10.623 -0.0343 -0.2045 -0.1574
  947MOL0     C30588  11.425   7.225  10.521 -0.0763 -0.5206 -0.1924
  947MOL0     C30589  11.496   7.320  10.420  0.6522 -0.2282 -0.2617
  947MOL0     C30590  11.584   7.241  10.316 -0.1593  0.1568  0.2395
  947MOL0     C30591  11.690   7.327  10.245 -0.1785 -1.1514  0.0299
  947MOL0     C30592  11.806   7.248  10.166  0.6272 -0.1990  0.1986
  947MOL0    Cl30593  11.729   7.144  10.043 -0.1137  0.2268  0.1360
  947MOL0     C30594  10.974   7.506  10.713 -0.1599 -0.1142  0.6956
  947MOL0     C30595  10.840   7.518  10.668  0.1972  0.8075 -0.0570
  947MOL0     O30596  10.574   7.618  10.673  0.4309 -0.6960 -0.8809
  947MOL0     C30597  10.371   7.398  10.477  0.5249  0.1460  0.0089
  947MOL0     C30598  10.258   7.392  10.397  0.5477  0.3917 -1.1593
  947MOL0     N30599   9.509   7.635  10.170  0.7715  0.7550 -0.3870
  947MOL0     N30600   9.389   7.666  10.144 -0.1906 -0.6210 -1.0167
  947MOL0     C30601   8.516   7.632  10.857 -0.4693  0.4310 -0.1327
  947MOL0     C30602   8.446   7.632  10.978  0.1521 -0.0182  0.1869
  947MOL0     C30603   8.180   7.512  11.293 -0.3464 -0.8926  0.1665
  947MOL0     C30604   8.209   7.639  11.360  0.7841  0.1458 -0.1774
  947MOL0     C30605   8.114   7.684  11.454 -1.0019  0.6173 -1.2332
  947MOL0     C30606   8.005   7.607  11.494 -0.0880 -0.1685 -0.3715
  947MOL0     O30607   7.905   7.646  11.575  0.5770  0.7867  0.0650
  947MOL0     C30608   7.911   7.764  11.659 -0.1381 -0.3638  0.0825
  947MOL0     C30609   8.008   7.743  11.781  1.0387 -0.1122  0.5145
  947MOL0     C30610   8.044   7.873  11.848 -0.0730 -0.1049 -0.1647
  947MOL0     C30611   8.135   7.844  11.960 -0.9518  0.1875 -0.2572
  947MOL0     C30612   8.162   7.965  12.039 -0.0502 -0.0817  0.1161
  947MOL0     C30613   8.199   8.058  12.108 -0.0447  0.3482  0.6639
  947MOL0     C30614   7.979   7.489  11.436 -0.4796 -0.6850 -0.2786
  947MOL0     C30615   8.066   7.437  11.333  0.4258  0.4829 -0.7672
  947MOL0     C30616   8.035   7.292  11.293 -0.2993  0.2586 -0.6121
  947MOL0     H30617   8.542   7.343  11.110  1.8062 -2.2107 -2.2248
  947MOL0     H30618   8.667   7.329  10.903  0.1217  0.9323 -1.1846
  947MOL0     H30619   8.801   7.357  10.757  2.9690  0.6267  2.7186
  947MOL0     H30620   8.874   7.510  10.759 -0.3081 -0.4157  0.2800
  947MOL0     H30621   8.929   7.375  10.562 -1.6575 -2.3236 -2.0978
  947MOL0     H30622   8.761   7.404  10.495 -1.5423  0.4961  1.1350
  947MOL0     H30623   8.790   7.640  10.523 -0.3753 -1.3890  0.3917
  947MOL0     H30624   8.968   7.623  10.551  0.8531 -2.2818  0.2548
  947MOL0     H30625   8.825   7.499  10.307 -1.7896 -0.1995  1.7800
  947MOL0     H30626   8.879   7.669  10.316  0.3142 -0.1871  2.0077
  947MOL0     H30627   9.043   7.415  10.370 -1.1158 -0.0919 -0.2035
  947MOL0     H30628   9.111   7.568  10.375  0.9327 -0.5755  0.4913
  947MOL0     H30629   9.149   7.424  10.161  2.7566  3.0092  1.7069
  947MOL0     H30630   8.974   7.427  10.124 -0.0271 -1.4420  0.9404
  947MOL0     H30631   9.115   7.695  10.146 -4.2744  2.3518 -1.3714
  947MOL0     H30632   9.009   7.638  10.014  2.1328  3.0412 -1.5378
  947MOL0     H30633   9.212   7.521   9.915  0.1940 -1.0310  2.0878
  947MOL0     H30634   9.242   7.706   9.947  2.3957  0.2884  0.3797
  947MOL0     H30635   9.453   7.411   9.945  3.2641  1.6538 -0.9224
  947MOL0     H30636   9.727   7.528   9.947  1.8669 -0.6643  0.3801
  947MOL0     H30637   9.698   7.383  10.040 -0.4706  0.1759 -2.0348
  947MOL0     H30638   9.786   7.654  10.149  2.0361  0.9461  0.1780
  947MOL0     H30639   9.782   7.504  10.239  1.3048  1.7075  1.1451
  947MOL0     H30640   9.941   7.415  10.055 -1.2969 -1.0446  1.7643
  947MOL0     H30641   9.940   7.566   9.984 -1.0113  1.6193 -0.4344
  947MOL0     H30642  10.126   7.589  10.090 -2.2501  1.1922 -1.7470
  947MOL0     H30643  10.038   7.664  10.228 -1.7220  0.8861 -1.5426
  947MOL0     H30644  10.184   7.718  10.375  2.7428  0.4219 -0.9931
  947MOL0     H30645  10.331   7.848  10.456 -0.1795 -0.6613 -1.1089
  947MOL0     H30646  10.498   7.798  10.496 -0.1711 -1.3596 -1.0470
  947MOL0     H30647  10.364   7.790  10.616 -1.0047  4.3457 -0.3852
  947MOL0     H30648  10.746   7.193  10.682  1.8151 -1.1084  0.2372
  947MOL0     H30649  10.961   7.178  10.775  2.9970 -0.5772 -0.2451
  947MOL0     H30650  11.289   7.318  10.905 -0.4816  1.6334  0.2060
  947MOL0     H30651  11.155   7.207  10.883 -1.9439  0.8722 -0.7468
  947MOL0     H30652  11.363   7.157  10.754  3.2285  5.0309  2.4473
  947MOL0     H30653  11.207   7.161  10.657 -2.5745  0.5701  2.4932
  947MOL0     H30654  11.436   7.368  10.684  0.9600 -0.1644 -1.3500
  947MOL0     H30655  11.298   7.389  10.574 -1.4103 -1.5642 -0.5013
  947MOL0     H30656  11.354   7.164  10.464  0.3557 -0.6597 -0.5845
  947MOL0     H30657  11.496   7.160  10.574 -0.0650 -0.3641 -0.0135
  947MOL0     H30658  11.436   7.388  10.359  1.6865 -1.1185 -2.3888
  947MOL0     H30659  11.569   7.379  10.476  0.8102  1.2991 -2.0043
  947MOL0     H30660  11.518   7.191  10.245 -2.9661  1.9999  1.3852
  947MOL0     H30661  11.649   7.167  10.363  2.7611  2.3219 -0.1179
  947MOL0     H30662  11.732   7.393  10.321  0.9393 -0.7688 -0.9061
  947MOL0     H30663  11.638   7.387  10.171 -1.0652 -3.7920 -1.6422
  947MOL0     H30664  11.872   7.198  10.239  0.5381  0.1584  0.5246
  947MOL0     H30665  11.864   7.319  10.108 -0.7431  1.3431  0.6528
  947MOL0     H30666  11.040   7.591  10.720 -1.0573  0.7931 -1.2103
  947MOL0     H30667  10.822   7.616  10.624  3.6275  1.4047 -0.4175
  947MOL0     H30668  10.421   7.308  10.511  2.0613  1.0983  0.3415
  947MOL0     H30669  10.217   7.296  10.369 -1.4757  0.8914 -0.1626
  947MOL0     H30670   8.504   7.706  10.778 -0.5415 -1.0563 -1.5540
  947MOL0     H30671   8.373   7.711  10.994 -0.3087  0.2321 -2.7182
  947MOL0     H30672   8.292   7.702  11.329  1.3080  0.9879  2.7156
  947MOL0     H30673   8.114   7.787  11.490  0.7634  1.6589 -3.8855
  947MOL0     H30674   7.941   7.850  11.600 -1.6265  0.5884  0.6597
  947MOL0     H30675   7.812   7.790  11.696  1.0523  1.3731  2.2980
  947MOL0     H30676   8.097   7.685  11.755  1.0473  0.7086 -1.4310
  947MOL0     H30677   7.944   7.685  11.848  1.1602  1.5183  2.1514
  947MOL0     H30678   8.090   7.939  11.774  1.0554  0.0291  0.6242
  947MOL0     H30679   7.945   7.911  11.875 -0.4914  0.1936 -1.9819
  947MOL0     H30680   8.227   7.794  11.929 -1.2323 -1.0251  0.7959
  947MOL0     H30681   8.089   7.768  12.024 -1.8177  1.5559  0.8081
  947MOL0     H30682   8.230   8.148  12.158 -1.8715  0.9059  0.8632
  947MOL0     H30683   7.887   7.438  11.460 -0.1002 -1.7826 -1.0507
  947MOL0     H30684   8.122   7.227  11.307 -1.1223 -0.5125  1.3759
  947MOL0     H30685   7.959   7.257  11.364  1.8498  1.4129  2.4898
  947MOL0     H30686   7.993   7.293  11.192 -1.9807 -0.6078  0.0406
  948MOL0     O30687   9.467  10.000   4.018  0.1692  0.0150 -0.3580
  948MOL0     C30688   9.368  10.032   3.952  0.2522  0.0197 -0.0207
  948MOL0     O30689   9.368  10.122   3.850 -0.1395 -0.2275  0.1475
  948MOL0     C30690   9.487  10.166   3.797  0.6224 -0.3368  0.0579
  948MOL0     C30691   9.593  10.211   3.880 -0.9113  0.1974  1.2214
  948MOL0     C30692   9.702  10.275   3.819 -0.3851  0.5922 -0.4004
  948MOL0     C30693   9.714  10.295   3.684  0.5417 -1.0284  0.4375
  948MOL0     O30694   9.810  10.367   3.621  0.2326  0.7072  0.4952
  948MOL0     C30695   9.861  10.486   3.684  0.4176  1.1131  0.4128
  948MOL0     C30696   9.894  10.601   3.578 -0.0964 -0.5274  0.0394
  948MOL0     C30697   9.953  10.719   3.655  0.2849 -0.5831 -0.3025
  948MOL0     C30698  10.095  10.703   3.707  0.7511  0.0760  0.2960
  948MOL0     C30699  10.166  10.836   3.737  0.4731  0.1186 -0.2674
  948MOL0     C30700  10.149  10.892   3.878  0.7823 -0.0105 -0.3722
  948MOL0     C30701  10.253  10.825   3.978  1.0272 -0.0372 -0.1070
  948MOL0     C30702  10.272  10.883   4.121  0.4433  0.0823  0.5619
  948MOL0     N30703  10.345  11.013   4.118 -0.2387  0.1453  0.0069
  948MOL0     C30704  10.482  11.038   4.097 -0.2505 -0.2738 -0.6827
  948MOL0     C30705  10.497  11.177   4.102 -0.5007  0.7126 -0.6667
  948MOL0     C30706  10.627  11.252   4.093 -0.4649  0.3595 -0.2745
  948MOL0     C30707  10.696  11.265   4.231  0.2882 -0.1044 -0.0906
  948MOL0     C30708  10.823  11.345   4.223  0.3014  0.6377  0.1680
  948MOL0     C30709  10.913  11.331   4.341  0.2512 -0.7483  0.0470
  948MOL0     O30710  10.993  11.213   4.311  0.0468  0.6789 -0.7629
  948MOL0     C30711  11.127  11.218   4.268  0.5450  0.0679  0.7169
  948MOL0     C30712  11.211  11.330   4.245 -0.1537  0.0265 -0.1094
  948MOL0     C30713  11.346  11.321   4.220 -0.5760 -0.1522 -0.5654
  948MOL0     C30714  11.411  11.457   4.222  0.0442 -0.4306  0.2837
  948MOL0     C30715  11.412  11.199   4.210  0.9027  0.5395  0.1789
  948MOL0     C30716  11.555  11.179   4.188  0.6717 -0.4987 -0.3003
  948MOL0     O30717  11.603  11.048   4.190 -0.3702 -0.3454 -0.4337
  948MOL0     C30718  11.735  11.013   4.159  0.6932  0.3614  0.1426
  948MOL0     C30719  11.820  11.086   4.074 -0.6053 -0.7940  0.6977
  948MOL0     C30720  11.946  11.029   4.030 -0.1215 -0.3254 -0.0982
  948MOL0     C30721  11.986  10.909   4.090  1.1377 -0.6640  0.6815
  948MOL0     O30722  12.113  10.853   4.101 -0.0133  0.3303 -0.3892
  948MOL0     C30723  12.222  10.921   4.045  1.0988  0.3698 -0.2325
  948MOL0     C30724  12.351  10.838   4.048 -0.9782 -0.5119  0.6962
  948MOL0     C30725  12.454  10.930   3.976  0.0648  1.2043  0.7921
  948MOL0     C30726  12.590  10.852   3.974 -0.0182  0.1939 -0.2489
  948MOL0     C30727  12.696  10.929   3.896  0.7973 -1.3607  0.1194
  948MOL0     C30728  12.839  10.862   3.892 -0.0981 -0.3657  0.8303
  948MOL0     C30729  12.907  10.877   4.027 -0.3172  0.3443  0.1614
  948MOL0     C30730  13.064  10.856   4.002  0.4886 -0.3691  0.4413
  948MOL0    Cl30731  13.096  10.680   3.975  0.0488  0.3655  0.2152
  948MOL0     C30732  11.902  10.837   4.170 -0.2759 -1.1149 -0.7866
  948MOL0     C30733  11.780  10.891   4.211 -0.3627  0.2634 -0.3423
  948MOL0     O30734  11.621  11.278   4.155  0.1217 -1.0616 -0.8680
  948MOL0     C30735  11.327  11.085   4.218  0.4991 -0.1746 -0.9278
  948MOL0     C30736  11.186  11.095   4.244  0.0635  0.2371 -0.4556
  948MOL0     N30737  10.368  11.233   4.118  0.4193  0.0236  0.0069
  948MOL0     N30738  10.283  11.131   4.128 -0.0682 -0.3415 -0.3646
  948MOL0     C30739   9.612  10.252   3.601 -1.0622  0.0017 -0.2200
  948MOL0     C30740   9.497  10.190   3.656 -0.3999 -0.4814 -0.4239
  948MOL0     C30741   9.237   9.978   3.993 -0.3604  0.1394  0.2285
  948MOL0     C30742   9.228   9.938   4.126  0.3623  0.2498 -0.0112
  948MOL0     C30743   9.101   9.916   4.183  0.1851  1.1595  0.3206
  948MOL0     C30744   8.985   9.913   4.098  0.8905 -0.3871  0.0603
  948MOL0     O30745   8.862   9.881   4.157 -0.1482 -0.1621  0.4280
  948MOL0     C30746   8.821   9.965   4.267  0.3495 -0.4843 -0.4862
  948MOL0     C30747   8.759   9.888   4.379  0.7175  0.5420  0.2629
  948MOL0     C30748   8.632   9.812   4.327  0.1247 -1.0867 -0.3046
  948MOL0     C30749   8.545   9.759   4.440  0.0410  0.5880 -0.4120
  948MOL0     C30750   8.615   9.646   4.499 -1.0160  0.2324 -1.2307
  948MOL0     C30751   8.671   9.545   4.550 -0.7884 -0.8610 -0.3229
  948MOL0     C30752   8.997   9.947   3.960 -0.4350  0.6381 -0.3936
  948MOL0     C30753   9.124   9.981   3.910 -0.4155 -0.5353  0.0283
  948MOL0     C30754   9.142  10.006   3.760  0.4497 -0.2765 -0.0240
  948MOL0     H30755   9.599  10.194   3.987  0.7020 -3.2424  0.7108
  948MOL0     H30756   9.774  10.319   3.887 -1.6101 -0.7060  1.8381
  948MOL0     H30757   9.961  10.461   3.721  1.8649  3.7489 -1.3321
  948MOL0     H30758   9.789  10.526   3.756  0.0400  0.1401  0.5911
  948MOL0     H30759   9.962  10.557   3.505 -2.2810 -1.4718 -1.5333
  948MOL0     H30760   9.802  10.640   3.533  1.1507  1.1491 -1.2086
  948MOL0     H30761   9.960  10.806   3.589  2.3876 -0.2506  0.2931
  948MOL0     H30762   9.888  10.749   3.738  1.7239  0.0986  0.6083
  948MOL0     H30763  10.097  10.634   3.793  1.8199  1.7196  1.6598
  948MOL0     H30764  10.157  10.664   3.626 -2.0158 -0.1098 -1.8496
  948MOL0     H30765  10.134  10.906   3.659  1.3648  1.3096  0.3860
  948MOL0     H30766  10.274  10.836   3.716  0.2626 -0.5181 -1.4594
  948MOL0     H30767  10.170  10.999   3.869  0.4165  0.1470  0.5827
  948MOL0     H30768  10.046  10.872   3.910  0.0375  4.4356  0.6370
  948MOL0     H30769  10.346  10.796   3.926  2.7281  2.9041  1.0603
  948MOL0     H30770  10.201  10.731   3.997 -1.4906  0.9822 -1.3982
  948MOL0     H30771  10.173  10.893   4.166 -1.2857  2.2939 -3.1604
  948MOL0     H30772  10.326  10.813   4.185  1.2002 -0.1675 -0.3158
  948MOL0     H30773  10.555  10.961   4.075  0.6299  0.6911 -1.2750
  948MOL0     H30774  10.623  11.350   4.043 -0.1994  2.6248  3.7013
  948MOL0     H30775  10.693  11.193   4.029 -0.7831  1.6744 -1.8857
  948MOL0     H30776  10.625  11.300   4.306  0.3499  2.6237 -1.1684
  948MOL0     H30777  10.713  11.159   4.250  0.3859 -0.3587 -1.4628
  948MOL0     H30778  10.883  11.324   4.134 -1.1717 -0.8002 -0.5332
  948MOL0     H30779  10.788  11.448   4.208  0.2550  0.4721 -0.9337
  948MOL0     H30780  10.984  11.412   4.363 -1.2889  0.9444 -0.9670
  948MOL0     H30781  10.855  11.324   4.434  0.5289  2.1255  0.5527
  948MOL0     H30782  11.161  11.427   4.246 -1.1899 -0.3181 -3.7712
  948MOL0     H30783  11.476  11.468   4.134 -0.9587 -1.2263 -0.5898
  948MOL0     H30784  11.468  11.483   4.311 -3.4946  1.6069  2.1939
  948MOL0     H30785  11.338  11.539   4.215  1.6340  1.0477  0.4883
  948MOL0     H30786  11.796  11.186   4.039  1.2726 -0.2052  1.0134
  948MOL0     H30787  12.011  11.090   3.967 -0.7728  1.0348  0.5085
  948MOL0     H30788  12.204  10.967   3.948 -0.7349 -0.5444 -0.3717
  948MOL0     H30789  12.238  11.014   4.101  0.8048  0.7058 -0.6979
  948MOL0     H30790  12.380  10.811   4.150 -0.4909 -3.4154 -0.1171
  948MOL0     H30791  12.344  10.743   3.995 -1.5626  0.5228 -1.1663
  948MOL0     H30792  12.467  11.031   4.015  2.1369  0.9336  0.9235
  948MOL0     H30793  12.422  10.941   3.872 -2.8143  0.5540  1.5244
  948MOL0     H30794  12.580  10.752   3.931  0.4819 -0.9020  2.0616
  948MOL0     H30795  12.617  10.836   4.079  1.7369  2.8314 -0.1997
  948MOL0     H30796  12.654  10.925   3.795 -2.4087  0.4537  1.2253
  948MOL0     H30797  12.702  11.033   3.930 -0.9592 -1.0021 -0.5691
  948MOL0     H30798  12.905  10.905   3.816  0.4362 -1.8461  0.4326
  948MOL0     H30799  12.827  10.759   3.858  1.2338 -0.1695 -0.2840
  948MOL0     H30800  12.866  10.812   4.105  0.9096  0.8435  1.2497
  948MOL0     H30801  12.888  10.978   4.063 -0.6159  0.2606  0.2401
  948MOL0     H30802  13.122  10.891   4.088 -0.7753 -1.1313  1.6517
  948MOL0     H30803  13.094  10.912   3.913 -1.7133  0.2256  0.0291
  948MOL0     H30804  11.940  10.748   4.219  2.7975  2.2733  3.8523
  948MOL0     H30805  11.725  10.833   4.285 -0.8763 -1.5675 -2.0646
  948MOL0     H30806  11.372  10.987   4.223  2.3638  0.6830  0.2834
  948MOL0     H30807  11.129  11.006   4.270 -1.8978  1.7020  0.5836
  948MOL0     H30808   9.622  10.274   3.495  2.4661  0.4579  0.1057
  948MOL0     H30809   9.411  10.174   3.593 -2.3943 -0.4611  2.1083
  948MOL0     H30810   9.309   9.935   4.198  0.3506  3.1358  0.2650
  948MOL0     H30811   9.086   9.887   4.286 -1.1979  0.5129 -0.0349
  948MOL0     H30812   8.899  10.024   4.316 -1.1773 -0.3297  1.9739
  948MOL0     H30813   8.750  10.041   4.232  0.5357  0.8977  1.8724
  948MOL0     H30814   8.731   9.962   4.454 -3.0953 -0.9549  0.5673
  948MOL0     H30815   8.827   9.818   4.426 -1.8819 -1.9546  0.5849
  948MOL0     H30816   8.575   9.887   4.272  0.1857 -1.0590 -0.3301
  948MOL0     H30817   8.666   9.734   4.258 -2.6082 -1.3559 -1.4896
  948MOL0     H30818   8.451   9.725   4.397  0.5227  0.9220 -1.7661
  948MOL0     H30819   8.536   9.843   4.509 -0.6280  0.0331  0.1822
  948MOL0     H30820   8.737   9.467   4.581 -1.5838 -1.0383  0.9824
  948MOL0     H30821   8.906   9.948   3.901 -0.7988 -0.8057  0.0910
  948MOL0     H30822   9.152  10.114   3.743  1.6451 -0.4943 -0.8347
  948MOL0     H30823   9.229   9.961   3.712  1.6877  0.9902  0.9779
  948MOL0     H30824   9.049   9.979   3.708  0.4315  0.5762 -0.4525
  949MOL0     O30825   5.451   0.300   6.312 -0.0339 -0.0485  0.5086
  949MOL0     C30826   5.342   0.346   6.355 -0.1568  0.0512 -0.0171
  949MOL0     O30827   5.325   0.450   6.448 -0.4915  0.9099  0.8048
  949MOL0     C30828   5.432   0.518   6.485 -0.6496  0.1969 -0.0328
  949MOL0     C30829   5.427   0.539   6.622 -0.1280 -0.3462 -0.1049
  949MOL0     C30830   5.525   0.625   6.680 -0.2872 -0.5703 -0.4031
  949MOL0     C30831   5.628   0.692   6.604 -0.0716  0.8530 -0.7648
  949MOL0     O30832   5.711   0.788   6.649 -0.3301 -0.4746 -0.2739
  949MOL0     C30833   5.728   0.798   6.793  0.2505 -0.3452  0.1384
  949MOL0     C30834   5.845   0.896   6.817  0.9198 -0.3076 -0.0243
  949MOL0     C30835   5.804   1.035   6.797  0.4937  0.5049  0.4505
  949MOL0     C30836   5.923   1.132   6.826 -0.2478 -0.1477  0.4311
  949MOL0     C30837   6.039   1.108   6.728  0.1293 -0.1607 -0.0258
  949MOL0     C30838   6.103   1.251   6.713 -0.0325  0.1329  0.3961
  949MOL0     C30839   6.170   1.300   6.841  0.1738  0.1247  1.0058
  949MOL0     C30840   6.270   1.408   6.799 -0.0454  1.0090 -0.2925
  949MOL0     N30841   6.380   1.427   6.895 -0.9969 -0.1418  0.3382
  949MOL0     C30842   6.396   1.538   6.969  0.4482  0.6216 -0.5429
  949MOL0     C30843   6.521   1.529   7.026  0.3427 -0.3660 -0.8022
  949MOL0     C30844   6.567   1.631   7.134 -0.0763 -0.3110  0.1504
  949MOL0     C30845   6.718   1.661   7.133  0.3558  0.6047 -0.0142
  949MOL0     C30846   6.813   1.537   7.144  0.1965  0.1284 -0.5555
  949MOL0     C30847   6.952   1.592   7.152  0.1414 -0.5590 -0.1458
  949MOL0     O30848   7.042   1.485   7.152 -0.2087  0.3317  0.0929
  949MOL0     C30849   7.178   1.502   7.160  0.6942 -0.0301 -1.1441
  949MOL0     C30850   7.250   1.413   7.239  0.1308  0.2940  0.7784
  949MOL0     C30851   7.387   1.432   7.261  0.9948  0.9199 -0.4506
  949MOL0     C30852   7.448   1.328   7.350 -0.8051 -0.6859  0.0695
  949MOL0     C30853   7.462   1.523   7.188 -0.1293 -0.3318  0.1146
  949MOL0     C30854   7.610   1.554   7.208 -0.5229  0.0491 -0.1514
  949MOL0     O30855   7.639   1.683   7.192  0.6772  0.2869 -0.6712
  949MOL0     C30856   7.764   1.736   7.189  0.2833 -0.9408  0.3708
  949MOL0     C30857   7.780   1.857   7.257 -1.8796 -0.4156  0.3679
  949MOL0     C30858   7.905   1.924   7.235 -0.0610  0.1002 -0.1517
  949MOL0     C30859   8.005   1.872   7.161 -0.5315  0.4042 -0.0492
  949MOL0     O30860   8.128   1.942   7.151  0.1133  0.0566  0.4409
  949MOL0     C30861   8.120   2.086   7.159 -0.6283  1.5044  0.8292
  949MOL0     C30862   8.244   2.135   7.082  0.0389 -0.9129  0.1272
  949MOL0     C30863   8.375   2.076   7.133 -0.2554 -0.5546  0.0859
  949MOL0     C30864   8.412   1.942   7.067  0.1031  0.0187  0.3830
  949MOL0     C30865   8.557   1.910   7.117  0.4624  0.7625  0.2891
  949MOL0     C30866   8.592   1.759   7.081 -0.3928  1.1246  0.0670
  949MOL0     C30867   8.750   1.736   7.105 -0.3685 -0.1606 -0.4244
  949MOL0     C30868   8.811   1.599   7.060  0.0317  0.1968 -0.4467
  949MOL0    Cl30869   8.818   1.578   6.887 -0.1852 -0.1224  0.5906
  949MOL0     C30870   7.993   1.748   7.102 -0.0814  0.2773 -0.3134
  949MOL0     C30871   7.868   1.687   7.106 -0.4385  0.4670 -0.3274
  949MOL0     O30872   7.689   1.466   7.224 -0.6361 -0.1734  0.4426
  949MOL0     C30873   7.390   1.610   7.103  0.0061  0.5169 -0.2159
  949MOL0     C30874   7.247   1.607   7.084  0.3054  0.6085 -0.6245
  949MOL0     N30875   6.579   1.419   6.984 -0.4744 -0.7657 -0.0590
  949MOL0     N30876   6.496   1.352   6.905 -0.1192 -0.2656 -0.4780
  949MOL0     C30877   5.635   0.662   6.464  1.0882  0.8515  0.9630
  949MOL0     C30878   5.532   0.576   6.408 -0.4579  0.1246  0.2531
  949MOL0     C30879   5.222   0.284   6.288  0.3161  0.1397 -0.6982
  949MOL0     C30880   5.229   0.277   6.146 -0.5523  0.2436  0.6022
  949MOL0     C30881   5.119   0.245   6.069 -0.7658  0.6116 -0.6415
  949MOL0     C30882   5.001   0.213   6.129  1.0791 -0.0065  0.3866
  949MOL0     O30883   4.887   0.183   6.051 -0.1758 -0.7736  0.2666
  949MOL0     C30884   4.887   0.195   5.907  0.0951  0.3110  1.3886
  949MOL0     C30885   4.738   0.211   5.866 -0.7258 -0.0138  0.3552
  949MOL0     C30886   4.676   0.331   5.937  0.6564  0.5727  0.3160
  949MOL0     C30887   4.535   0.350   5.887  0.6675 -0.3251 -0.5638
  949MOL0     C30888   4.476   0.480   5.928 -0.0169 -0.9497 -1.2194
  949MOL0     C30889   4.426   0.586   5.942  0.3071 -0.3367 -0.8294
  949MOL0     C30890   4.986   0.221   6.273  0.2330 -0.2072 -0.5910
  949MOL0     C30891   5.100   0.252   6.356  0.6775 -0.5696  1.0278
  949MOL0     C30892   5.084   0.256   6.505  0.0832 -0.4465  0.2293
  949MOL0     H30893   5.359   0.482   6.683  0.1817 -1.8140 -1.0730
  949MOL0     H30894   5.504   0.640   6.785 -2.4386  0.8124 -0.9600
  949MOL0     H30895   5.765   0.707   6.841  4.8027  1.7739  1.2237
  949MOL0     H30896   5.633   0.830   6.837  0.3630  1.7563 -1.0044
  949MOL0     H30897   5.896   0.891   6.914  0.4444  0.1550  0.2596
  949MOL0     H30898   5.931   0.873   6.753  1.6442  0.4441  0.6501
  949MOL0     H30899   5.753   1.039   6.701 -0.7844 -3.1421  0.8129
  949MOL0     H30900   5.728   1.045   6.875  1.2864  0.4723  1.2415
  949MOL0     H30901   5.883   1.233   6.819  0.6797  0.2444  0.6082
  949MOL0     H30902   5.956   1.113   6.929  1.0812 -3.1600 -0.4235
  949MOL0     H30903   6.004   1.074   6.630 -0.6131 -1.2047  0.5872
  949MOL0     H30904   6.109   1.037   6.773 -0.6940 -1.2511 -0.4332
  949MOL0     H30905   6.169   1.249   6.626 -1.0433 -2.3415 -0.3988
  949MOL0     H30906   6.020   1.319   6.690  1.5284  1.8424 -0.3979
  949MOL0     H30907   6.231   1.224   6.892  1.9340  1.2060  0.6021
  949MOL0     H30908   6.085   1.335   6.899  0.0667 -1.3906  1.8179
  949MOL0     H30909   6.315   1.379   6.703  0.2792  2.2561 -0.5289
  949MOL0     H30910   6.209   1.496   6.778  0.0064  1.1409  0.1187
  949MOL0     H30911   6.322   1.613   6.998 -1.2569 -2.1704  3.1431
  949MOL0     H30912   6.550   1.582   7.231  2.9621 -5.6355 -1.5582
  949MOL0     H30913   6.516   1.725   7.113 -2.0318 -1.8441 -2.5550
  949MOL0     H30914   6.730   1.721   7.042 -0.6762 -1.0426 -1.2996
  949MOL0     H30915   6.725   1.720   7.224 -3.6868 -2.0784  2.3395
  949MOL0     H30916   6.801   1.470   7.230  3.4688 -2.4237 -1.8895
  949MOL0     H30917   6.819   1.462   7.065 -0.2734  0.2439 -0.7064
  949MOL0     H30918   6.965   1.668   7.073  0.3553  1.8117  2.0399
  949MOL0     H30919   6.970   1.651   7.242  1.9356  0.6614 -1.2189
  949MOL0     H30920   7.196   1.327   7.278 -0.5664 -0.1840 -1.1513
  949MOL0     H30921   7.376   1.268   7.406  3.0127 -2.5800  3.4143
  949MOL0     H30922   7.497   1.373   7.437  1.0501 -0.6236 -0.9744
  949MOL0     H30923   7.526   1.267   7.306  2.3995  2.1447  1.3672
  949MOL0     H30924   7.704   1.892   7.327  0.6308  0.3624  2.8694
  949MOL0     H30925   7.932   2.004   7.303 -2.7529  0.2681  0.8463
  949MOL0     H30926   8.033   2.133   7.112 -1.0710 -0.4488 -0.4387
  949MOL0     H30927   8.128   2.106   7.266 -0.0195 -1.5997  1.4757
  949MOL0     H30928   8.234   2.122   6.974 -0.9364  0.4578  0.0245
  949MOL0     H30929   8.255   2.244   7.089 -0.7672 -0.8120 -0.0569
  949MOL0     H30930   8.366   2.056   7.241 -0.3998 -0.7624  0.0361
  949MOL0     H30931   8.458   2.145   7.114 -0.6260 -0.0911  0.1566
  949MOL0     H30932   8.421   1.952   6.958  0.1798  0.5853  0.4387
  949MOL0     H30933   8.346   1.855   7.075 -1.5843  1.0927 -1.0652
  949MOL0     H30934   8.636   1.976   7.080  0.4405  1.6263  1.7400
  949MOL0     H30935   8.561   1.931   7.224  0.8317  0.8976  0.2510
  949MOL0     H30936   8.584   1.749   6.973 -1.9509 -0.4918  0.2809
  949MOL0     H30937   8.528   1.685   7.129  2.5172 -1.1195  0.8270
  949MOL0     H30938   8.766   1.729   7.213 -0.2164 -5.1207 -0.5455
  949MOL0     H30939   8.804   1.814   7.051  0.9545 -0.5512  0.3182
  949MOL0     H30940   8.747   1.518   7.097 -1.3131  1.2864 -0.2968
  949MOL0     H30941   8.916   1.585   7.090  0.2155 -1.1024 -1.6129
  949MOL0     H30942   8.075   1.699   7.050  0.4125  1.8726 -1.1013
  949MOL0     H30943   7.860   1.585   7.071  0.2623  0.4224 -0.3642
  949MOL0     H30944   7.446   1.693   7.061  0.6696  0.2376  0.1006
  949MOL0     H30945   7.203   1.690   7.029  0.4031  2.3885  1.7915
  949MOL0     H30946   5.710   0.707   6.400 -1.1179  4.6781  0.7777
  949MOL0     H30947   5.536   0.558   6.301 -0.1423 -1.4084  0.5020
  949MOL0     H30948   5.320   0.307   6.095 -0.3859 -0.6535  0.3556
  949MOL0     H30949   5.127   0.249   5.960 -4.1820 -0.5088 -1.0290
  949MOL0     H30950   4.941   0.288   5.888 -0.9640  0.9040  1.1538
  949MOL0     H30951   4.935   0.119   5.845 -1.7775  0.1516  0.0657
  949MOL0     H30952   4.675   0.126   5.891 -1.3168  0.5888  0.9451
  949MOL0     H30953   4.732   0.226   5.758  0.6284  2.2613  0.5279
  949MOL0     H30954   4.674   0.321   6.046 -0.4410 -0.5919  0.2134
  949MOL0     H30955   4.719   0.427   5.909  2.4138 -0.4680 -0.7109
  949MOL0     H30956   4.474   0.267   5.923 -0.0278 -1.0741 -3.2498
  949MOL0     H30957   4.527   0.346   5.778 -1.2012  3.8413 -0.7952
  949MOL0     H30958   4.386   0.686   5.942 -3.0144 -1.5100  0.0146
  949MOL0     H30959   4.888   0.203   6.315  0.2443  1.0307  0.0006
  949MOL0     H30960   5.000   0.197   6.541  0.6878 -0.5076  1.6391
  949MOL0     H30961   5.173   0.220   6.558 -0.2346 -0.7035  0.5941
  949MOL0     H30962   5.073   0.360   6.535  2.4919 -0.4801  1.5448
  950MOL0     O30963   9.986   0.603  10.476  0.2202 -0.3116 -0.0189
  950MOL0     C30964   9.991   0.698  10.392 -0.5429 -0.6222 -0.8899
  950MOL0     O30965  10.098   0.739  10.322  0.2956 -0.0519 -0.2790
  950MOL0     C30966  10.229   0.695  10.331  0.7093 -0.1123  0.7353
  950MOL0     C30967  10.284   0.598  10.418  0.5171  0.6142 -0.4946
  950MOL0     C30968  10.416   0.560  10.398 -1.0863 -0.8415  0.0817
  950MOL0     C30969  10.495   0.603  10.289  0.1521 -0.0925  0.6637
  950MOL0     O30970  10.627   0.568  10.262  0.2033 -0.5009 -0.1837
  950MOL0     C30971  10.699   0.499  10.367  0.7362  0.2206 -0.6656
  950MOL0     C30972  10.848   0.480  10.339 -0.2593  0.2461  0.1026
  950MOL0     C30973  10.922   0.397  10.440  0.7366  0.0679  0.1978
  950MOL0     C30974  11.075   0.382  10.405 -0.5165  0.2825 -0.0294
  950MOL0     C30975  11.147   0.277  10.486 -0.4710 -0.1179 -0.2833
  950MOL0     C30976  11.296   0.276  10.458  0.3016 -0.4948  0.3336
  950MOL0     C30977  11.373   0.393  10.531 -0.4363 -0.2276 -0.5215
  950MOL0     C30978  11.509   0.432  10.461 -0.2646  0.4915  0.7232
  950MOL0     N30979  11.601   0.323  10.447 -0.0191  0.6796  0.1609
  950MOL0     C30980  11.614   0.244  10.334 -0.4271 -0.2742 -0.4248
  950MOL0     C30981  11.736   0.180  10.345 -0.5053 -0.3331 -0.1246
  950MOL0     C30982  11.772   0.084  10.240  0.0837 -0.0288  0.5456
  950MOL0     C30983  11.713  -0.050  10.287 -0.2220  0.3851  0.2600
  950MOL0     C30984  11.720  -0.158  10.176 -0.1370  0.0860 -0.4887
  950MOL0     C30985  11.869  -0.213  10.165 -0.2889 -0.2914 -0.8039
  950MOL0     O30986  11.903  -0.284  10.282  0.3901  0.2685  0.5845
  950MOL0     C30987  12.014  -0.355  10.285  0.0344 -0.0528 -0.1276
  950MOL0     C30988  12.111  -0.362  10.181  1.0807  0.6761 -0.4150
  950MOL0     C30989  12.235  -0.424  10.201 -0.5837  0.1006  0.2442
  950MOL0     C30990  12.338  -0.422  10.088 -0.3694  0.2491  0.1355
  950MOL0     C30991  12.262  -0.489  10.322  0.2426  0.7663 -0.0223
  950MOL0     C30992  12.383  -0.572  10.342  0.4585  0.8300 -0.4517
  950MOL0     O30993  12.363  -0.702  10.369  0.2987 -0.8539 -0.0754
  950MOL0     C30994  12.466  -0.780  10.407 -1.1031  0.0432  0.4664
  950MOL0     C30995  12.511  -0.765  10.536  0.3036 -0.5016 -0.6058
  950MOL0     C30996  12.605  -0.851  10.590  0.3637  0.1302  0.4813
  950MOL0     C30997  12.668  -0.952  10.517  0.4090  0.4596  0.5377
  950MOL0     O30998  12.766  -1.038  10.560 -0.2226  0.2697 -0.6045
  950MOL0     C30999  12.820  -1.013  10.692  0.5668  0.4204  0.5383
  950MOL0     C31000  12.910  -0.891  10.679 -0.7957 -0.3316 -0.1263
  950MOL0     C31001  12.999  -0.884  10.809 -0.2244  0.4069  0.0096
  950MOL0     C31002  13.140  -0.840  10.790  0.1592  0.0538 -0.5527
  950MOL0     C31003  13.230  -0.823  10.924 -0.2781  0.8718  0.4780
  950MOL0     C31004  13.337  -0.717  10.911 -0.1613 -0.7646 -0.4849
  950MOL0     C31005  13.456  -0.741  11.018  0.2367 -0.5202  0.0446
  950MOL0     C31006  13.556  -0.618  11.028 -0.9025 -0.3463 -0.3792
  950MOL0    Cl31007  13.619  -0.606  11.195  0.2248  0.4137 -0.1271
  950MOL0     C31008  12.626  -0.961  10.387 -0.0354  0.0237  0.7123
  950MOL0     C31009  12.525  -0.883  10.328 -0.1776 -0.3317 -0.3771
  950MOL0     O31010  12.495  -0.520  10.329  1.1466  0.3034 -0.3247
  950MOL0     C31011  12.159  -0.499  10.417  0.0888 -0.2375 -0.6462
  950MOL0     C31012  12.043  -0.423  10.397  0.3913 -0.4156 -0.2445
  950MOL0     N31013  11.792   0.215  10.460  0.2424  0.0558  0.0010
  950MOL0     N31014  11.716   0.300  10.522  1.1399  0.3333  0.8547
  950MOL0     C31015  10.440   0.705  10.216  0.3312 -0.9092  0.5262
  950MOL0     C31016  10.311   0.759  10.236  0.2083 -0.0093 -0.8163
  950MOL0     C31017   9.868   0.784  10.374  0.6409  0.4432 -0.5958
  950MOL0     C31018   9.746   0.720  10.415  0.2652  0.5130  0.2048
  950MOL0     C31019   9.629   0.787  10.415  0.8962 -0.3602  0.1777
  950MOL0     C31020   9.627   0.918  10.369 -0.3038  1.1081 -0.2132
  950MOL0     O31021   9.518   0.998  10.374  0.7315 -0.8719 -0.2349
  950MOL0     C31022   9.465   1.027  10.505  0.3930  0.5437  0.6161
  950MOL0     C31023   9.483   1.173  10.531 -0.7674 -0.3221  0.5804
  950MOL0     C31024   9.630   1.184  10.590  0.1203  0.0336 -0.0205
  950MOL0     C31025   9.665   1.333  10.592 -0.0633 -0.4087 -0.5349
  950MOL0     C31026   9.773   1.356  10.684 -0.6055  0.8189  0.6236
  950MOL0     C31027   9.844   1.391  10.777  0.0072  0.1842 -0.9981
  950MOL0     C31028   9.737   0.984  10.325  0.0032 -0.7058  0.4925
  950MOL0     C31029   9.866   0.926  10.336  0.1984  1.0412 -0.0618
  950MOL0     C31030   9.983   0.998  10.279  0.1662  0.5872  0.1203
  950MOL0     H31031  10.230   0.563  10.506 -0.4518  0.9855 -0.9296
  950MOL0     H31032  10.464   0.498  10.473 -0.0741 -0.6246 -0.3642
  950MOL0     H31033  10.654   0.401  10.388  2.3828 -0.1202  1.6228
  950MOL0     H31034  10.689   0.552  10.461 -0.3940 -1.1068  0.0041
  950MOL0     H31035  10.850   0.431  10.241  0.6455 -2.7282  1.4691
  950MOL0     H31036  10.909   0.569  10.325  4.1780 -2.1337  2.2493
  950MOL0     H31037  10.911   0.441  10.539 -0.9013 -0.2045  0.1592
  950MOL0     H31038  10.880   0.296  10.436  3.3085 -1.0452 -1.1041
  950MOL0     H31039  11.075   0.357  10.298 -0.0232  2.2497 -0.5393
  950MOL0     H31040  11.126   0.478  10.413 -0.5479  0.2470  0.6628
  950MOL0     H31041  11.104   0.179  10.461 -1.5149 -0.3515  2.1877
  950MOL0     H31042  11.135   0.294  10.593  0.4899  1.8200 -0.4459
  950MOL0     H31043  11.335   0.176  10.483 -0.0430 -1.5023 -2.7481
  950MOL0     H31044  11.305   0.293  10.351  0.4527  1.0751  0.5711
  950MOL0     H31045  11.410   0.365  10.630  0.5011 -2.2173 -1.3792
  950MOL0     H31046  11.306   0.479  10.535 -0.8827 -0.4745 -2.0595
  950MOL0     H31047  11.499   0.485  10.366  2.8673  3.8562  2.0128
  950MOL0     H31048  11.564   0.502  10.525  1.7865 -1.8513  1.7167
  950MOL0     H31049  11.538   0.254  10.257 -1.7012  2.1176  1.0205
  950MOL0     H31050  11.881   0.080  10.235 -0.0019 -1.4111 -1.6860
  950MOL0     H31051  11.738   0.107  10.139 -1.7012 -3.0807  0.3317
  950MOL0     H31052  11.761  -0.093  10.375  2.2146 -0.9185 -1.6001
  950MOL0     H31053  11.610  -0.034  10.320 -0.3745 -3.3459  2.0635
  950MOL0     H31054  11.657  -0.242  10.208  0.4478 -0.9316 -1.8983
  950MOL0     H31055  11.672  -0.122  10.084 -0.7117  0.9410  0.1271
  950MOL0     H31056  11.867  -0.284  10.082 -1.5735 -0.7225 -0.4273
  950MOL0     H31057  11.942  -0.134  10.146 -3.3349  2.6697 -1.2011
  950MOL0     H31058  12.088  -0.317  10.085  0.4374 -0.3370 -0.7409
  950MOL0     H31059  12.405  -0.337  10.096  1.8210 -1.2111 -1.4261
  950MOL0     H31060  12.287  -0.414   9.991 -0.6492  1.8021  0.3985
  950MOL0     H31061  12.395  -0.516  10.088 -1.0490 -0.2325  2.4013
  950MOL0     H31062  12.483  -0.675  10.590  1.6547 -0.6458  0.3960
  950MOL0     H31063  12.647  -0.836  10.689  1.1865 -1.8817  0.4930
  950MOL0     H31064  12.742  -1.008  10.770 -0.2103  0.2404 -0.2106
  950MOL0     H31065  12.868  -1.108  10.721 -2.2783  0.0675  5.2410
  950MOL0     H31066  12.971  -0.902  10.589 -1.9658 -0.8684 -0.8833
  950MOL0     H31067  12.862  -0.794  10.663 -1.5875 -0.3117  2.0596
  950MOL0     H31068  12.996  -0.969  10.878 -0.0040  2.5172  2.7883
  950MOL0     H31069  12.968  -0.796  10.866  1.1348 -0.9796  3.0961
  950MOL0     H31070  13.150  -0.743  10.740 -0.7190 -1.0550 -3.0669
  950MOL0     H31071  13.191  -0.904  10.716 -1.6896 -3.8503  1.2600
  950MOL0     H31072  13.161  -0.807  11.007 -1.6047 -0.4904 -0.3071
  950MOL0     H31073  13.276  -0.920  10.942  1.2630  0.4718 -4.1698
  950MOL0     H31074  13.296  -0.616  10.922 -0.9836 -1.0948 -0.4006
  950MOL0     H31075  13.389  -0.722  10.815 -1.9764  1.0086 -1.6493
  950MOL0     H31076  13.502  -0.839  10.999  2.8458  0.8284 -1.1108
  950MOL0     H31077  13.400  -0.749  11.112  0.4449  3.0102  0.5978
  950MOL0     H31078  13.500  -0.526  11.008  1.0785  1.7782  2.9106
  950MOL0     H31079  13.641  -0.633  10.961  0.0580  1.3192  0.4093
  950MOL0     H31080  12.659  -1.040  10.320 -1.2866  0.0230  0.0752
  950MOL0     H31081  12.490  -0.907  10.228 -0.2451  0.9930 -0.6800
  950MOL0     H31082  12.184  -0.551  10.509  0.8172  1.3017  0.0476
  950MOL0     H31083  11.967  -0.417  10.474 -1.3583 -0.6474 -1.9073
  950MOL0     H31084  10.491   0.747  10.130 -1.0029  0.4005  0.3215
  950MOL0     H31085  10.266   0.842  10.182  0.5723 -0.8395 -2.4430
  950MOL0     H31086   9.747   0.616  10.446  0.8904  0.7823  1.1556
  950MOL0     H31087   9.541   0.736  10.454  0.5779  0.2514  0.2762
  950MOL0     H31088   9.357   1.013  10.514  0.1823  0.7856 -1.0465
  950MOL0     H31089   9.505   0.967  10.587  0.4851 -1.6529 -0.9400
  950MOL0     H31090   9.401   1.196  10.599  1.1445  2.0968  2.2405
  950MOL0     H31091   9.462   1.235  10.444 -4.0262 -3.7696 -1.4089
  950MOL0     H31092   9.635   1.139  10.690  1.8291  0.0707 -0.0560
  950MOL0     H31093   9.706   1.136  10.528  1.9067 -0.5698  2.4438
  950MOL0     H31094   9.575   1.384  10.629 -0.8746 -1.9875 -0.2571
  950MOL0     H31095   9.685   1.390  10.501 -1.9181 -0.4051 -0.9808
  950MOL0     H31096   9.915   1.424  10.851 -0.9302  0.2744 -0.1245
  950MOL0     H31097   9.721   1.087  10.294 -0.7209 -0.4140  1.7843
  950MOL0     H31098   9.952   1.099  10.250  1.7786  0.7947 -0.9505
  950MOL0     H31099  10.067   0.997  10.349  0.3122 -2.2334  0.0460
  950MOL0     H31100  10.018   0.958  10.184  1.5679  2.8163 -0.3689
  951MOL0     O31101   9.562  11.098   8.823 -0.4343  0.2102  0.1386
  951MOL0     C31102   9.467  11.046   8.758  0.6581  0.2220 -1.3723
  951MOL0     O31103   9.477  10.938   8.669  0.2383 -1.0856  0.3310
  951MOL0     C31104   9.598  10.872   8.673  0.0441 -0.6214 -0.8970
  951MOL0     C31105   9.594  10.745   8.726 -0.2242 -0.7503  0.9059
  951MOL0     C31106   9.712  10.670   8.742  0.0703 -0.1403 -0.4287
  951MOL0     C31107   9.839  10.717   8.702 -0.6457 -0.2650 -0.0754
  951MOL0     O31108   9.949  10.640   8.745 -0.0399  0.0729 -1.1551
  951MOL0     C31109  10.080  10.681   8.698 -0.6538 -0.0721 -0.0089
  951MOL0     C31110  10.101  10.675   8.545  0.5718  0.5212 -0.4063
  951MOL0     C31111  10.210  10.583   8.502  0.2116 -0.0948 -0.4862
  951MOL0     C31112  10.190  10.554   8.351 -0.2546 -0.7667  0.2340
  951MOL0     C31113  10.072  10.449   8.317  0.0282  0.0419 -1.0329
  951MOL0     C31114  10.111  10.352   8.206  0.0090 -0.5147 -0.5075
  951MOL0     C31115  10.111  10.417   8.062 -0.8399 -0.2482 -0.7283
  951MOL0     C31116  10.183  10.330   7.963 -0.4650 -0.1845  0.5824
  951MOL0     N31117  10.330  10.337   7.974 -0.6880  0.2661 -0.1326
  951MOL0     C31118  10.410  10.285   7.881  0.6889  0.2180 -0.8993
  951MOL0     C31119  10.536  10.313   7.922  0.4259 -0.6173 -0.0897
  951MOL0     C31120  10.654  10.280   7.845 -0.4009  0.3995  0.1992
  951MOL0     C31121  10.698  10.360   7.717  0.1100  0.3539 -0.2596
  951MOL0     C31122  10.685  10.508   7.708 -0.2012 -0.0682  0.6218
  951MOL0     C31123  10.762  10.578   7.827  0.3843  0.2585  0.4741
  951MOL0     O31124  10.897  10.531   7.826 -0.0323 -0.8488  0.4019
  951MOL0     C31125  10.995  10.599   7.757  0.0685  0.2839  0.1721
  951MOL0     C31126  10.989  10.723   7.700 -0.4801  0.0985 -0.1214
  951MOL0     C31127  11.099  10.784   7.632  0.6220  0.3624 -0.2931
  951MOL0     C31128  11.073  10.925   7.582 -0.2729  0.2743  0.1210
  951MOL0     C31129  11.214  10.704   7.611  0.8098 -0.4364  0.7181
  951MOL0     C31130  11.337  10.750   7.534 -0.5943 -0.5231  0.3337
  951MOL0     O31131  11.445  10.662   7.536 -0.3980 -0.4631 -0.4964
  951MOL0     C31132  11.560  10.679   7.455 -0.9702  0.3178 -0.5469
  951MOL0     C31133  11.578  10.745   7.337 -0.1475 -0.5254  0.5208
  951MOL0     C31134  11.698  10.739   7.263  0.2118 -0.0712  0.0150
  951MOL0     C31135  11.809  10.678   7.313  0.1797 -0.0007  0.4665
  951MOL0     O31136  11.923  10.675   7.242  1.0614 -0.7015 -0.5945
  951MOL0     C31137  11.963  10.803   7.191 -0.5200 -0.5433 -0.0917
  951MOL0     C31138  12.092  10.806   7.093 -0.2082 -0.2049 -0.0421
  951MOL0     C31139  12.212  10.743   7.172 -0.0779 -0.2245 -0.6343
  951MOL0     C31140  12.355  10.787   7.141  0.1521  1.1931  0.4926
  951MOL0     C31141  12.457  10.689   7.204 -0.0598 -0.3325  0.6232
  951MOL0     C31142  12.605  10.735   7.194  0.4700  0.0648 -0.7330
  951MOL0     C31143  12.646  10.826   7.317  0.0375 -0.3661 -0.8860
  951MOL0     C31144  12.785  10.896   7.309 -1.1407  0.5053  0.4322
  951MOL0    Cl31145  12.915  10.785   7.349 -0.1130  0.3281  0.0356
  951MOL0     C31146  11.797  10.609   7.431  0.5442 -0.4334  0.6211
  951MOL0     C31147  11.671  10.602   7.497 -0.0182 -0.8151 -0.2788
  951MOL0     O31148  11.333  10.851   7.467  0.9139 -0.4073 -0.2122
  951MOL0     C31149  11.226  10.585   7.678  0.8671 -0.2158  0.5606
  951MOL0     C31150  11.121  10.530   7.752 -0.1118  0.2955  1.0592
  951MOL0     N31151  10.518  10.391   8.039  0.7767  0.2747 -0.4642
  951MOL0     N31152  10.397  10.395   8.079  0.3424 -0.0702 -0.3306
  951MOL0     C31153   9.843  10.839   8.635  0.1446  1.1195  0.0841
  951MOL0     C31154   9.724  10.908   8.620 -0.4846 -0.8574 -0.9993
  951MOL0     C31155   9.333  11.107   8.779  0.6479 -0.4687 -1.0199
  951MOL0     C31156   9.263  11.127   8.665 -1.2520 -0.8757  0.1872
  951MOL0     C31157   9.144  11.201   8.658 -1.3165  0.1951  0.0283
  951MOL0     C31158   9.091  11.260   8.774  0.3265 -0.6831  0.5832
  951MOL0     O31159   8.966  11.316   8.756 -0.1164  0.1776  0.0088
  951MOL0     C31160   8.888  11.348   8.870  0.0406 -0.3842 -0.5157
  951MOL0     C31161   8.811  11.222   8.915 -0.4040 -0.2458  0.6879
  951MOL0     C31162   8.681  11.206   8.831  0.2829  0.3652 -0.4313
  951MOL0     C31163   8.679  11.211   8.671 -0.0152  0.3514  0.2610
  951MOL0     C31164   8.686  11.351   8.622 -0.6885 -0.0662  0.2030
  951MOL0     C31165   8.693  11.467   8.592 -0.6693 -0.0101  0.1762
  951MOL0     C31166   9.151  11.230   8.895 -0.2687 -0.4693 -0.2694
  951MOL0     C31167   9.270  11.161   8.896 -0.4914  0.1895 -0.1572
  951MOL0     C31168   9.339  11.154   9.032 -0.4181 -0.2610  0.0918
  951MOL0     H31169   9.501  10.716   8.773  0.9172 -1.7569  2.6796
  951MOL0     H31170   9.701  10.576   8.795 -1.0591  0.8314  1.1510
  951MOL0     H31171  10.155  10.611   8.736  2.1394  1.7449 -1.7257
  951MOL0     H31172  10.120  10.773   8.742  1.5069  0.2761 -2.4090
  951MOL0     H31173  10.008  10.647   8.495  1.1317 -3.4228  0.4109
  951MOL0     H31174  10.122  10.777   8.513 -0.4395  0.1691 -2.3225
  951MOL0     H31175  10.306  10.632   8.518  0.9111 -1.8195  0.9122
  951MOL0     H31176  10.199  10.488   8.555  1.6872 -0.7324 -1.2687
  951MOL0     H31177  10.180  10.647   8.294 -1.2000 -0.8653  0.2275
  951MOL0     H31178  10.284  10.513   8.312 -0.3110  0.2489 -1.0519
  951MOL0     H31179   9.982  10.509   8.299 -0.4618 -0.0302  0.9041
  951MOL0     H31180  10.045  10.396   8.410  0.4663 -1.7142 -1.8594
  951MOL0     H31181  10.211  10.315   8.233  0.2163  1.5084  1.8152
  951MOL0     H31182  10.049  10.263   8.212  0.0437 -0.6980 -2.2664
  951MOL0     H31183  10.169  10.510   8.054 -0.5942 -0.4586 -1.4754
  951MOL0     H31184  10.012  10.440   8.023 -0.6082  1.5766 -0.3194
  951MOL0     H31185  10.135  10.232   7.962  0.9315 -1.0707 -3.5761
  951MOL0     H31186  10.151  10.374   7.868  1.3999  2.2292  0.9904
  951MOL0     H31187  10.378  10.225   7.796  0.1880  0.9366 -1.2300
  951MOL0     H31188  10.629  10.179   7.812 -1.2667  0.3863  0.8603
  951MOL0     H31189  10.737  10.270   7.915 -0.4918  1.7685  0.5258
  951MOL0     H31190  10.795  10.327   7.681  1.0113 -0.3154  2.5493
  951MOL0     H31191  10.628  10.327   7.639  2.2218 -2.0550 -1.2676
  951MOL0     H31192  10.727  10.545   7.615  0.7831 -0.1332  1.0213
  951MOL0     H31193  10.578  10.529   7.713 -0.3573 -0.8545  0.7919
  951MOL0     H31194  10.744  10.685   7.812 -4.1036 -0.1969  1.2086
  951MOL0     H31195  10.715  10.553   7.923  0.6587  0.0025  0.5422
  951MOL0     H31196  10.889  10.765   7.693  0.1162  1.2884 -3.7794
  951MOL0     H31197  10.967  10.951   7.575 -0.4540 -0.9265 -4.7337
  951MOL0     H31198  11.104  10.934   7.478  0.1030 -0.7302  0.1364
  951MOL0     H31199  11.126  10.999   7.644 -0.0790  2.7951 -2.8013
  951MOL0     H31200  11.510  10.812   7.285  0.5900 -0.5828 -0.5426
  951MOL0     H31201  11.693  10.796   7.170  3.0754 -0.5030 -0.5032
  951MOL0     H31202  11.882  10.852   7.135  0.3477  0.6959 -0.3055
  951MOL0     H31203  11.989  10.866   7.276 -1.0154 -0.4434 -0.0105
  951MOL0     H31204  12.074  10.764   6.994  3.9055  2.2192 -2.0854
  951MOL0     H31205  12.130  10.909   7.091 -0.0917 -0.1971  1.2399
  951MOL0     H31206  12.208  10.633   7.174 -0.3905 -0.2173 -0.8329
  951MOL0     H31207  12.186  10.743   7.279  3.1615 -0.3048  0.2657
  951MOL0     H31208  12.365  10.890   7.177  0.6257  0.4782  2.5467
  951MOL0     H31209  12.358  10.791   7.032  0.5663  0.7364  0.4862
  951MOL0     H31210  12.423  10.682   7.307 -1.9815  2.7878  0.3182
  951MOL0     H31211  12.446  10.597   7.145 -0.5567  0.4483 -0.5517
  951MOL0     H31212  12.625  10.792   7.103  1.1367 -1.6918 -1.7346
  951MOL0     H31213  12.671  10.648   7.185  1.5494  1.0804 -4.3389
  951MOL0     H31214  12.654  10.770   7.411  1.0821 -0.5005 -1.0502
  951MOL0     H31215  12.575  10.908   7.330 -0.1620 -0.6116 -0.3926
  951MOL0     H31216  12.784  10.982   7.376 -0.0108  1.5758 -0.8892
  951MOL0     H31217  12.798  10.928   7.206 -0.9303 -4.1570 -1.2425
  951MOL0     H31218  11.875  10.552   7.481 -0.4191 -1.1338  1.3531
  951MOL0     H31219  11.672  10.542   7.588 -1.2427 -1.7726 -0.8716
  951MOL0     H31220  11.316  10.526   7.686  1.3807  0.5691  0.7143
  951MOL0     H31221  11.131  10.435   7.802  0.7342 -1.0160 -1.4174
  951MOL0     H31222   9.935  10.876   8.590  0.8198  1.2540  1.5373
  951MOL0     H31223   9.735  11.005   8.572 -0.8766 -0.0744  0.4600
  951MOL0     H31224   9.298  11.085   8.571 -0.3868  1.9812 -0.8898
  951MOL0     H31225   9.086  11.210   8.567 -2.6067 -3.0116  0.4066
  951MOL0     H31226   8.955  11.394   8.944 -1.2605  1.0631 -0.1747
  951MOL0     H31227   8.809  11.420   8.845  0.2726 -1.0100 -3.2516
  951MOL0     H31228   8.788  11.231   9.021 -2.6814 -0.3959  0.2472
  951MOL0     H31229   8.875  11.134   8.905  5.6855  3.4085  1.9718
  951MOL0     H31230   8.641  11.106   8.850  2.4439 -0.3584  0.6971
  951MOL0     H31231   8.621  11.290   8.868  0.1002 -0.5079  1.3498
  951MOL0     H31232   8.586  11.160   8.646 -0.4749 -0.3226  2.9758
  951MOL0     H31233   8.760  11.150   8.629 -0.8948 -0.6472 -0.0374
  951MOL0     H31234   8.688  11.569   8.558  0.5351 -0.5477 -1.7349
  951MOL0     H31235   9.101  11.246   8.990 -1.9818 -1.9007 -0.8918
  951MOL0     H31236   9.359  11.050   9.061  2.4283  0.8233  2.5034
  951MOL0     H31237   9.430  11.215   9.028 -0.1503 -0.7247 -1.9224
  951MOL0     H31238   9.289  11.195   9.120 -1.6299  0.7968 -1.0594
  952MOL0     O31239   7.566   5.304  11.340 -0.2163 -0.2367 -0.1063
  952MOL0     C31240   7.544   5.418  11.386 -0.5245  0.5377  0.8154
  952MOL0     O31241   7.632   5.519  11.406 -0.7891  0.7055 -0.5297
  952MOL0     C31242   7.751   5.474  11.450 -0.2857 -0.8147 -0.0850
  952MOL0     C31243   7.790   5.479  11.585 -0.0566  0.5027  0.6935
  952MOL0     C31244   7.920   5.457  11.627  0.5170 -0.1776  0.4969
  952MOL0     C31245   8.014   5.426  11.535  0.0433 -0.1465  0.0420
  952MOL0     O31246   8.142   5.387  11.557 -0.2617  0.1061  0.1936
  952MOL0     C31247   8.203   5.433  11.677 -0.3851  0.5116 -0.3447
  952MOL0     C31248   8.346   5.397  11.657  0.0300 -0.5043  0.1206
  952MOL0     C31249   8.431   5.410  11.795 -0.0279  0.9176  0.7090
  952MOL0     C31250   8.580   5.364  11.771  0.6112 -0.1026 -0.0510
  952MOL0     C31251   8.594   5.215  11.768 -0.3964  0.3647  0.6672
  952MOL0     C31252   8.735   5.178  11.720  0.3074  0.0483  0.6182
  952MOL0     C31253   8.845   5.252  11.797 -0.4145  0.8148  0.5614
  952MOL0     C31254   8.985   5.193  11.765 -0.2997  0.4115  0.0728
  952MOL0     N31255   9.085   5.184  11.870 -0.6470 -0.7803 -0.2827
  952MOL0     C31256   9.217   5.170  11.848 -0.6441  0.0482 -0.3987
  952MOL0     C31257   9.279   5.156  11.970  0.0124 -0.0904  0.3364
  952MOL0     C31258   9.424   5.135  12.001  1.0758 -0.6917 -0.3768
  952MOL0     C31259   9.460   4.986  12.002  0.6149  0.5421  0.5204
  952MOL0     C31260   9.617   4.969  12.014 -0.2390  0.2179  0.0556
  952MOL0     C31261   9.647   4.999  12.170  0.1047  0.3174 -0.1524
  952MOL0     O31262   9.789   5.008  12.178  0.2872  0.3723  0.0446
  952MOL0     C31263   9.862   4.999  12.302  0.1713 -0.2966  0.1689
  952MOL0     C31264   9.797   4.995  12.424  0.8784  0.1001 -0.1905
  952MOL0     C31265   9.859   4.974  12.547 -0.5959  0.3287 -0.1135
  952MOL0     C31266   9.780   4.986  12.687  0.4924  0.0192 -0.3249
  952MOL0     C31267  10.001   4.957  12.554  0.5969  0.1869  0.8138
  952MOL0     C31268  10.088   4.953  12.676  0.0799  0.2110  0.0745
  952MOL0     O31269  10.221   4.939  12.649 -0.0505  1.0818  0.3872
  952MOL0     C31270  10.304   4.892  12.734 -1.2735 -0.6703  0.5163
  952MOL0     C31271  10.395   4.976  12.802 -0.8654 -0.6843  1.3922
  952MOL0     C31272  10.488   4.942  12.900  0.0471 -0.5383  0.4487
  952MOL0     C31273  10.491   4.808  12.932  0.6533 -0.0987 -0.5711
  952MOL0     O31274  10.580   4.776  13.036 -0.3652 -0.1067 -0.8890
  952MOL0     C31275  10.573   4.645  13.094  0.0835  0.0029  0.4266
  952MOL0     C31276  10.681   4.619  13.198  0.3952 -0.5106 -0.6222
  952MOL0     C31277  10.694   4.727  13.303  0.3644 -0.4069  0.6144
  952MOL0     C31278  10.777   4.701  13.431 -0.1981 -0.2114  0.6779
  952MOL0     C31279  10.930   4.723  13.392 -0.0059  0.0582 -0.6375
  952MOL0     C31280  11.017   4.710  13.519 -0.2082  1.0443 -0.3598
  952MOL0     C31281  11.033   4.568  13.588 -0.6286 -0.8624  0.4016
  952MOL0     C31282  11.135   4.563  13.697  0.0381  0.4294 -0.2604
  952MOL0    Cl31283  11.306   4.559  13.656 -0.4339 -0.2523 -0.2891
  952MOL0     C31284  10.421   4.714  12.856  0.4262  0.6455 -0.5359
  952MOL0     C31285  10.322   4.759  12.763  0.0598  0.0769  0.0067
  952MOL0     O31286  10.042   4.983  12.782 -0.9525  0.0997 -0.5123
  952MOL0     C31287  10.066   4.959  12.430 -0.2991  0.1167  0.9487
  952MOL0     C31288   9.995   4.983  12.308  0.5481 -0.6002  0.2858
  952MOL0     N31289   9.174   5.155  12.068 -0.4394 -0.1726 -0.5425
  952MOL0     N31290   9.066   5.164  12.007  0.4355  0.1858  0.0610
  952MOL0     C31291   7.980   5.410  11.399  0.1787 -0.3848  0.1668
  952MOL0     C31292   7.848   5.441  11.354 -0.5517 -0.1213 -0.6606
  952MOL0     C31293   7.398   5.453  11.377  0.6326 -0.0259  0.3866
  952MOL0     C31294   7.300   5.348  11.384 -0.3061  0.2822 -0.0075
  952MOL0     C31295   7.161   5.377  11.378 -0.7533 -0.0452  0.5090
  952MOL0     C31296   7.116   5.505  11.369 -0.3489  0.3717 -0.9755
  952MOL0     O31297   6.983   5.543  11.376 -0.8083  0.3674 -0.4018
  952MOL0     C31298   6.921   5.523  11.504  0.4898 -0.3539  0.0263
  952MOL0     C31299   6.844   5.395  11.491 -0.4790  0.1174  0.6870
  952MOL0     C31300   6.735   5.397  11.602 -0.0105 -0.7581 -0.4783
  952MOL0     C31301   6.662   5.261  11.629  0.7604  0.0012  0.5003
  952MOL0     C31302   6.581   5.228  11.510 -0.3165 -0.4437 -0.8387
  952MOL0     C31303   6.519   5.198  11.415 -0.7981 -0.4146 -0.0158
  952MOL0     C31304   7.205   5.611  11.346 -0.1270  0.1892  0.6043
  952MOL0     C31305   7.349   5.580  11.353  0.1492 -0.4226  0.5161
  952MOL0     C31306   7.438   5.697  11.324 -0.3458  0.4377 -0.2355
  952MOL0     H31307   7.717   5.497  11.663 -1.1925  1.8852 -0.6168
  952MOL0     H31308   7.950   5.459  11.732  2.1503  0.7866  0.0604
  952MOL0     H31309   8.167   5.375  11.763  0.0190  0.7407 -0.0150
  952MOL0     H31310   8.192   5.538  11.707  0.1142  0.3701  0.3632
  952MOL0     H31311   8.354   5.297  11.615  1.8847 -0.0273 -0.7872
  952MOL0     H31312   8.397   5.465  11.588  1.5022 -1.2468  0.4292
  952MOL0     H31313   8.430   5.513  11.832 -1.2394  1.2647 -0.2294
  952MOL0     H31314   8.373   5.355  11.870  0.2866  1.5779  1.4489
  952MOL0     H31315   8.601   5.406  11.672  0.5844  2.3823  0.9258
  952MOL0     H31316   8.645   5.408  11.848  0.2142 -2.3655  1.6775
  952MOL0     H31317   8.526   5.166  11.697 -1.0677  0.4545  1.2357
  952MOL0     H31318   8.575   5.175  11.868 -1.5065 -3.1262 -0.7904
  952MOL0     H31319   8.754   5.070  11.724 -0.9297 -0.2905 -1.3003
  952MOL0     H31320   8.749   5.207  11.615  0.4541  1.8873  1.1159
  952MOL0     H31321   8.823   5.224  11.900 -2.7272  0.8180  0.1419
  952MOL0     H31322   8.846   5.358  11.772 -3.5624  0.8550  0.0757
  952MOL0     H31323   8.973   5.090  11.729 -1.5007  0.2291  0.9445
  952MOL0     H31324   9.027   5.253  11.684  2.1404 -2.4251 -0.9272
  952MOL0     H31325   9.268   5.164  11.752 -0.9102 -3.3872 -0.4659
  952MOL0     H31326   9.440   5.174  12.102  1.8830 -3.7473  0.7755
  952MOL0     H31327   9.480   5.193  11.927  0.5594  1.0886  0.5614
  952MOL0     H31328   9.414   4.925  12.080 -0.1866 -3.8888 -2.9712
  952MOL0     H31329   9.424   4.947  11.906  3.0078  0.4639 -0.4082
  952MOL0     H31330   9.664   4.873  11.993  2.7926  1.4734  0.6344
  952MOL0     H31331   9.676   5.034  11.950 -0.0608 -0.3561 -0.3716
  952MOL0     H31332   9.594   5.090  12.201 -2.2337 -0.7087 -0.8801
  952MOL0     H31333   9.611   4.911  12.225 -0.9760  1.5367  1.1879
  952MOL0     H31334   9.690   5.012  12.429  0.3631 -2.4099 -1.3484
  952MOL0     H31335   9.671   4.973  12.677  0.6354 -1.9566  0.2478
  952MOL0     H31336   9.792   5.091  12.714  0.8384 -0.1569  0.2027
  952MOL0     H31337   9.817   4.909  12.755 -0.9003 -3.0427 -2.7383
  952MOL0     H31338  10.401   5.080  12.772 -0.4355 -0.8109  1.0312
  952MOL0     H31339  10.564   5.002  12.948  4.8776 -3.1512 -2.9168
  952MOL0     H31340  10.471   4.642  13.134  0.0183 -0.8502  0.2060
  952MOL0     H31341  10.582   4.558  13.029  2.6915  1.3887 -1.2223
  952MOL0     H31342  10.661   4.519  13.237 -0.5566  0.2972  1.0498
  952MOL0     H31343  10.782   4.606  13.158  1.0653  1.4273  0.3327
  952MOL0     H31344  10.592   4.748  13.336 -0.0125 -1.1843 -0.0205
  952MOL0     H31345  10.736   4.811  13.247 -1.4514  1.3741  1.7782
  952MOL0     H31346  10.760   4.600  13.471  0.6274 -0.5018  0.3157
  952MOL0     H31347  10.753   4.763  13.517  1.4348 -0.8065  1.6067
  952MOL0     H31348  10.962   4.653  13.315  0.4549  0.7988 -1.1249
  952MOL0     H31349  10.932   4.821  13.344  1.7550  0.6158  0.4770
  952MOL0     H31350  10.986   4.773  13.602 -1.5885  0.4609 -0.4048
  952MOL0     H31351  11.114   4.741  13.477  0.3378  0.5387  0.4983
  952MOL0     H31352  11.053   4.493  13.511 -0.5246  2.0840 -2.7000
  952MOL0     H31353  10.938   4.547  13.640 -0.5681  1.6319  1.6630
  952MOL0     H31354  11.115   4.468  13.748  2.2816  1.2476  2.3864
  952MOL0     H31355  11.111   4.641  13.770  0.5726  0.0918  0.2828
  952MOL0     H31356  10.443   4.611  12.879  1.9819  0.5971 -2.0919
  952MOL0     H31357  10.270   4.686  12.702  2.1329  0.4619 -2.3851
  952MOL0     H31358  10.174   4.956  12.423 -0.3688 -0.3685 -0.3904
  952MOL0     H31359  10.058   4.971  12.220 -1.0791  0.8582 -1.1569
  952MOL0     H31360   8.063   5.389  11.332  1.1259 -1.4706  1.6410
  952MOL0     H31361   7.820   5.433  11.250  2.7047  2.9015 -2.0041
  952MOL0     H31362   7.325   5.244  11.400  0.4464  0.8339  3.0480
  952MOL0     H31363   7.092   5.295  11.392  0.1488 -1.0807 -0.8262
  952MOL0     H31364   6.993   5.520  11.586 -1.3719  0.7853  1.8042
  952MOL0     H31365   6.851   5.602  11.534  0.9954 -0.7260  2.3573
  952MOL0     H31366   6.907   5.307  11.505  2.6686  1.6610 -2.4318
  952MOL0     H31367   6.805   5.387  11.389  2.8798 -3.6029 -0.5817
  952MOL0     H31368   6.789   5.423  11.693 -2.7675  0.8917  0.8158
  952MOL0     H31369   6.664   5.478  11.582 -0.2351 -0.7790  0.2122
  952MOL0     H31370   6.609   5.268  11.724  1.7345  2.4190  0.9567
  952MOL0     H31371   6.733   5.180  11.648  0.6389 -0.5567 -1.2966
  952MOL0     H31372   6.479   5.184  11.317 -1.1970  0.3781  0.0285
  952MOL0     H31373   7.172   5.713  11.328 -0.0117  0.5349  2.1928
  952MOL0     H31374   7.497   5.679  11.233  1.0225 -1.2542  0.9387
  952MOL0     H31375   7.375   5.782  11.294 -0.3060  0.2377 -0.9148
  952MOL0     H31376   7.505   5.726  11.405 -1.2785 -1.1603  1.1832
  953MOL0     O31377  10.810   8.468   0.513  0.4196  0.0933  0.0921
  953MOL0     C31378  10.719   8.422   0.441 -0.5474 -0.3068 -0.9043
  953MOL0     O31379  10.744   8.381   0.313  0.4641 -0.0260  0.0470
  953MOL0     C31380  10.867   8.346   0.272 -0.2260  0.2779  0.6874
  953MOL0     C31381  10.925   8.407   0.161 -0.7514  0.4692 -0.1068
  953MOL0     C31382  11.059   8.384   0.117  0.5408 -0.4127 -0.6966
  953MOL0     C31383  11.144   8.301   0.206 -0.4764 -0.9302  1.0322
  953MOL0     O31384  11.273   8.286   0.167 -0.5049  0.0099  0.5314
  953MOL0     C31385  11.328   8.152   0.178  0.5405  0.1351 -0.8735
  953MOL0     C31386  11.452   8.152   0.261 -0.1207  0.0851 -0.2532
  953MOL0     C31387  11.531   8.016   0.261  0.1192  0.2213 -0.5768
  953MOL0     C31388  11.673   8.042   0.306 -0.6871  0.2548 -0.9903
  953MOL0     C31389  11.677   8.074   0.460  0.0953  0.2591  0.5060
  953MOL0     C31390  11.818   8.099   0.521  0.1092 -0.5791  0.5975
  953MOL0     C31391  11.927   8.009   0.455 -0.3290 -0.2344  1.0818
  953MOL0     C31392  12.057   8.008   0.533 -0.0624  0.3638  0.3424
  953MOL0     N31393  12.153   7.923   0.460 -0.2672 -0.0443  0.3084
  953MOL0     C31394  12.224   7.968   0.350  0.4577  0.7199 -0.2568
  953MOL0     C31395  12.338   7.902   0.335 -0.4881  0.0874 -0.9250
  953MOL0     C31396  12.442   7.939   0.235 -0.5841  0.4104  0.4764
  953MOL0     C31397  12.529   7.810   0.215 -0.4037  0.3318  0.8330
  953MOL0     C31398  12.669   7.834   0.158  0.3574  0.1501 -0.8742
  953MOL0     C31399  12.739   7.713   0.099  0.2718 -0.6888  0.7657
  953MOL0     O31400  12.879   7.752   0.069  0.4349  0.6672  0.4409
  953MOL0     C31401  12.959   7.665   0.000 -0.2213 -0.2545 -0.2755
  953MOL0     C31402  12.926   7.550  -0.072  0.1854  0.7980 -0.4616
  953MOL0     C31403  13.021   7.487  -0.163 -0.2728 -1.4785 -0.0488
  953MOL0     C31404  12.967   7.373  -0.238  0.1054  0.3045 -1.4092
  953MOL0     C31405  13.156   7.520  -0.159  0.3027  0.1379  0.0037
  953MOL0     C31406  13.268   7.446  -0.241  0.4931  0.1165 -0.9110
  953MOL0     O31407  13.397   7.457  -0.199  0.1329  0.6230 -0.3451
  953MOL0     C31408  13.496   7.388  -0.268 -0.1808 -0.8236 -0.7726
  953MOL0     C31409  13.533   7.254  -0.232  1.1874  0.4531 -0.0435
  953MOL0     C31410  13.630   7.187  -0.302 -0.0112 -0.7358 -0.3384
  953MOL0     C31411  13.701   7.256  -0.405 -0.5014 -0.2676  0.2960
  953MOL0     O31412  13.806   7.189  -0.460 -0.7238 -0.1885 -0.9320
  953MOL0     C31413  13.878   7.247  -0.571  0.6332 -0.6391 -0.1143
  953MOL0     C31414  13.994   7.155  -0.611  0.3162  0.0858 -0.3622
  953MOL0     C31415  14.060   7.200  -0.744  0.0809 -0.6323  0.6161
  953MOL0     C31416  14.199   7.140  -0.789 -0.0508  0.0734  0.1253
  953MOL0     C31417  14.203   6.987  -0.823  0.6508 -0.9191  0.4270
  953MOL0     C31418  14.327   6.960  -0.898  0.1921 -0.0013  0.4999
  953MOL0     C31419  14.323   6.816  -0.955  0.0078 -0.3064 -1.1108
  953MOL0     C31420  14.456   6.754  -0.993 -0.9043  0.1429  0.3031
  953MOL0    Cl31421  14.527   6.656  -0.863  0.0315 -0.0194 -0.0675
  953MOL0     C31422  13.662   7.384  -0.444  1.1601 -0.9477 -0.6279
  953MOL0     C31423  13.563   7.452  -0.371 -0.1072  0.3790  0.6112
  953MOL0     O31424  13.237   7.385  -0.341  0.5628 -0.1166  0.2653
  953MOL0     C31425  13.190   7.631  -0.081  0.3045 -0.0567 -0.7022
  953MOL0     C31426  13.097   7.707   0.003 -0.1613 -0.0681 -0.2555
  953MOL0     N31427  12.345   7.814   0.445  0.1061 -0.0999 -0.0275
  953MOL0     N31428  12.236   7.820   0.506 -0.7424 -1.1677 -0.0320
  953MOL0     C31429  11.084   8.226   0.313 -0.2350  0.0131  0.1687
  953MOL0     C31430  10.951   8.253   0.345 -0.7335 -0.3911 -0.1066
  953MOL0     C31431  10.581   8.451   0.475 -0.2870  0.3448 -1.0155
  953MOL0     C31432  10.482   8.428   0.374 -0.0355 -0.3790  0.5426
  953MOL0     C31433  10.347   8.455   0.396  0.6116 -0.4180 -0.0818
  953MOL0     C31434  10.302   8.496   0.526  0.0741  0.8248 -0.6287
  953MOL0     O31435  10.169   8.511   0.542  0.0123 -0.0567  0.2916
  953MOL0     C31436  10.120   8.513   0.679 -0.1938 -0.4004  0.3805
  953MOL0     C31437   9.967   8.478   0.694 -0.4816 -0.0509  0.3813
  953MOL0     C31438   9.882   8.569   0.602 -0.6630  0.0626 -0.3943
  953MOL0     C31439   9.737   8.572   0.653  0.9220  0.7223 -0.3808
  953MOL0     C31440   9.665   8.665   0.573 -0.0639 -0.0113 -0.2214
  953MOL0     C31441   9.588   8.740   0.519 -0.3740  0.3722  0.4154
  953MOL0     C31442  10.395   8.524   0.631 -0.4810  0.3884 -0.0633
  953MOL0     C31443  10.528   8.492   0.608 -0.4324 -0.0971 -0.2742
  953MOL0     C31444  10.617   8.499   0.721 -0.2839  0.6472  0.1405
  953MOL0     H31445  10.863   8.472   0.101  1.6226  0.3190 -2.9433
  953MOL0     H31446  11.101   8.441   0.034 -0.5655  2.7069  0.7103
  953MOL0     H31447  11.349   8.127   0.074 -1.1497  0.9287 -1.4446
  953MOL0     H31448  11.257   8.073   0.206  0.6210  0.5378  0.5738
  953MOL0     H31449  11.511   8.236   0.224  2.3359 -1.4221  0.0829
  953MOL0     H31450  11.434   8.169   0.367  1.6943 -2.3241  0.5356
  953MOL0     H31451  11.483   7.941   0.325  1.1007 -0.4930 -0.6490
  953MOL0     H31452  11.539   7.975   0.160 -2.7275  0.8184 -1.1180
  953MOL0     H31453  11.729   7.951   0.282 -2.2864 -1.0959  0.1404
  953MOL0     H31454  11.730   8.116   0.250 -0.2044  0.2695 -0.4825
  953MOL0     H31455  11.632   7.988   0.509 -1.3725  1.5102  1.4417
  953MOL0     H31456  11.623   8.165   0.488  0.7345  0.8131 -0.0234
  953MOL0     H31457  11.839   8.205   0.505 -0.0697 -1.0453 -3.8237
  953MOL0     H31458  11.827   8.087   0.630 -0.0834  3.7459  1.2649
  953MOL0     H31459  11.928   8.024   0.347 -3.0815  0.4391  1.0780
  953MOL0     H31460  11.897   7.903   0.457 -0.5938 -0.2678 -1.3044
  953MOL0     H31461  12.083   8.112   0.555 -1.7132  0.7029  0.8141
  953MOL0     H31462  12.049   7.962   0.632 -2.9097  1.3385  0.6610
  953MOL0     H31463  12.189   8.043   0.280  1.0930  0.6842 -0.6219
  953MOL0     H31464  12.514   8.010   0.276  0.4657  0.9386 -2.0580
  953MOL0     H31465  12.411   7.981   0.139  0.2162  2.5610  1.1003
  953MOL0     H31466  12.555   7.760   0.309 -0.9263  0.2033  0.9088
  953MOL0     H31467  12.474   7.749   0.143 -2.8117  1.3710  1.7120
  953MOL0     H31468  12.657   7.915   0.086 -0.2935  2.3188  1.5168
  953MOL0     H31469  12.732   7.869   0.240 -0.4587 -0.2572 -0.0471
  953MOL0     H31470  12.746   7.624   0.163  1.6093  0.0912  1.7587
  953MOL0     H31471  12.689   7.675   0.009 -1.4904 -1.4540  1.9998
  953MOL0     H31472  12.825   7.509  -0.068  0.6739 -0.3624  0.3307
  953MOL0     H31473  12.994   7.388  -0.343  4.3989 -0.6813 -0.6303
  953MOL0     H31474  12.858   7.375  -0.232  0.1237 -0.1602 -0.8763
  953MOL0     H31475  13.010   7.277  -0.207  3.5608  1.6537 -1.4983
  953MOL0     H31476  13.475   7.209  -0.151  2.0856  0.7065  0.7637
  953MOL0     H31477  13.638   7.082  -0.275 -1.6783 -0.8352 -0.1704
  953MOL0     H31478  13.820   7.242  -0.663  0.5017 -0.9930 -0.0135
  953MOL0     H31479  13.915   7.346  -0.545  1.7489 -0.9962 -0.2891
  953MOL0     H31480  14.062   7.154  -0.526  1.4271  0.2217 -1.2248
  953MOL0     H31481  13.954   7.054  -0.622  1.6790 -0.3393 -1.9358
  953MOL0     H31482  14.064   7.309  -0.754  1.2724 -0.4082  2.7076
  953MOL0     H31483  13.994   7.164  -0.823  0.0144 -1.2302  0.9421
  953MOL0     H31484  14.279   7.169  -0.720  0.6154  0.2934 -0.7297
  953MOL0     H31485  14.220   7.202  -0.876 -3.5895  1.8427  0.3454
  953MOL0     H31486  14.188   6.922  -0.736  1.2520 -0.3700  0.9516
  953MOL0     H31487  14.122   6.975  -0.896  1.5282  0.7663 -0.8971
  953MOL0     H31488  14.420   6.967  -0.841  1.4886 -3.7933 -0.8406
  953MOL0     H31489  14.331   7.034  -0.979 -0.8892 -0.2808  0.1721
  953MOL0     H31490  14.262   6.811  -1.046 -0.7855 -1.6218 -0.5533
  953MOL0     H31491  14.278   6.765  -0.869  0.4715 -0.8302 -1.1770
  953MOL0     H31492  14.521   6.832  -1.034 -0.9993  0.6036  1.0065
  953MOL0     H31493  14.444   6.683  -1.076 -1.0792  0.9492 -0.3779
  953MOL0     H31494  13.701   7.423  -0.538  0.1969 -1.1568 -1.1361
  953MOL0     H31495  13.527   7.552  -0.394 -0.4809  0.0872 -0.0848
  953MOL0     H31496  13.293   7.665  -0.078 -0.1582  1.3393  0.5691
  953MOL0     H31497  13.109   7.797   0.062 -1.6326  0.5226 -0.8005
  953MOL0     H31498  11.146   8.169   0.381 -0.2916  1.0962  1.1568
  953MOL0     H31499  10.910   8.208   0.435 -0.9342  2.0787  1.0941
  953MOL0     H31500  10.516   8.404   0.274  1.4464 -0.6306  1.0715
  953MOL0     H31501  10.277   8.447   0.314 -1.3813  0.7785  1.4147
  953MOL0     H31502  10.176   8.430   0.725  0.6150 -1.0209 -1.5912
  953MOL0     H31503  10.128   8.606   0.736 -4.1157  1.0806 -1.1933
  953MOL0     H31504   9.942   8.483   0.800  1.2793  0.2594  0.8077
  953MOL0     H31505   9.953   8.376   0.658 -0.7556  1.6856 -5.4093
  953MOL0     H31506   9.921   8.671   0.616  2.0376 -1.2211  2.8673
  953MOL0     H31507   9.884   8.537   0.498 -2.2186  0.0585 -0.4538
  953MOL0     H31508   9.733   8.595   0.760 -1.1660  2.5465 -0.7852
  953MOL0     H31509   9.689   8.475   0.639  2.4148  0.0825 -1.3227
  953MOL0     H31510   9.521   8.809   0.472 -0.8263 -0.1719  0.2567
  953MOL0     H31511  10.362   8.564   0.726  2.2693  2.4306  0.1695
  953MOL0     H31512  10.674   8.592   0.711  0.7845 -0.0862 -0.7866
  953MOL0     H31513  10.562   8.499   0.816 -0.6908 -0.3001 -0.0816
  953MOL0     H31514  10.684   8.414   0.737 -2.2107 -0.7087  1.6091
  954MOL0     O31515   4.027   6.091   9.306 -0.1617  0.0897 -0.4449
  954MOL0     C31516   3.979   6.201   9.326 -0.7272  0.6543  0.6521
  954MOL0     O31517   3.983   6.304   9.234  0.0605  0.4647  0.5915
  954MOL0     C31518   4.064   6.290   9.128  0.0463 -0.5102 -0.0139
  954MOL0     C31519   4.018   6.342   9.004 -0.4291  0.0171 -0.1426
  954MOL0     C31520   4.098   6.331   8.891 -0.7624  0.5110  0.3646
  954MOL0     C31521   4.216   6.267   8.891 -0.3480 -0.9081 -0.2361
  954MOL0     O31522   4.287   6.256   8.776  0.2256  0.2393  0.7122
  954MOL0     C31523   4.414   6.189   8.774 -0.0799  0.0145 -0.5159
  954MOL0     C31524   4.491   6.222   8.649  0.1038 -0.0793 -0.1533
  954MOL0     C31525   4.629   6.165   8.621  0.4868  1.0975  0.2860
  954MOL0     C31526   4.681   6.207   8.486  0.0480 -1.0253  0.2974
  954MOL0     C31527   4.811   6.132   8.455  0.2799  0.2826 -0.6883
  954MOL0     C31528   4.867   6.178   8.323  0.0531  0.0828 -0.0106
  954MOL0     C31529   4.991   6.104   8.285 -0.2090  0.2258  1.3203
  954MOL0     C31530   5.120   6.160   8.357 -0.4914 -0.1467  0.1565
  954MOL0     N31531   5.225   6.058   8.376  0.0172  0.2970  0.3434
  954MOL0     C31532   5.222   5.969   8.476  1.0488 -0.4771  0.2993
  954MOL0     C31533   5.316   5.879   8.439  0.4285  0.6929 -0.5803
  954MOL0     C31534   5.355   5.754   8.509 -0.3851  0.3488  0.3671
  954MOL0     C31535   5.506   5.777   8.543  0.0471 -0.1398 -0.3098
  954MOL0     C31536   5.556   5.660   8.617 -0.3750  0.4149  0.7062
  954MOL0     C31537   5.708   5.665   8.643  0.3470  0.8062  0.5104
  954MOL0     O31538   5.727   5.768   8.737 -0.2241 -0.1963 -0.2396
  954MOL0     C31539   5.862   5.797   8.765 -0.7981 -0.7160  1.2275
  954MOL0     C31540   5.972   5.712   8.737 -0.1062 -0.7128  0.2770
  954MOL0     C31541   6.107   5.757   8.742 -0.4412 -0.8450 -0.2870
  954MOL0     C31542   6.216   5.657   8.710  0.9204 -0.8397 -0.7506
  954MOL0     C31543   6.129   5.894   8.786 -0.3313 -0.1810 -0.1136
  954MOL0     C31544   6.261   5.946   8.794 -0.3099  0.1158  0.2315
  954MOL0     O31545   6.270   6.077   8.753 -0.3541  0.3086  0.2635
  954MOL0     C31546   6.392   6.135   8.788  0.3541 -0.1710  0.1632
  954MOL0     C31547   6.402   6.211   8.905  0.4519  0.2262  0.6512
  954MOL0     C31548   6.508   6.282   8.946 -0.9780  0.0745  0.5996
  954MOL0     C31549   6.619   6.293   8.859  0.5310 -0.2904  0.7934
  954MOL0     O31550   6.739   6.359   8.880  0.0457  0.4763 -0.0543
  954MOL0     C31551   6.764   6.423   9.005  0.6515 -1.0112 -0.8859
  954MOL0     C31552   6.883   6.517   8.996  0.1135 -0.4770  0.5472
  954MOL0     C31553   6.872   6.625   8.894 -0.0340 -0.4769  0.1429
  954MOL0     C31554   6.977   6.735   8.910  1.0746 -0.7649  0.6097
  954MOL0     C31555   6.963   6.814   8.776 -0.5119  0.3595  0.8891
  954MOL0     C31556   7.038   6.941   8.780  0.1402 -0.4141 -0.1867
  954MOL0     C31557   7.054   6.999   8.639 -0.0097  0.2511 -0.4479
  954MOL0     C31558   7.111   7.140   8.639  0.5700  0.5273 -0.1038
  954MOL0    Cl31559   7.284   7.135   8.700  0.2823  0.1734  0.2624
  954MOL0     C31560   6.613   6.227   8.734 -0.5465 -0.3808  0.4737
  954MOL0     C31561   6.497   6.147   8.701  0.5311  0.4081  0.3725
  954MOL0     O31562   6.340   5.882   8.865 -0.5466  0.0742  0.2748
  954MOL0     C31563   6.024   5.974   8.828 -0.2005  0.6028 -0.5174
  954MOL0     C31564   5.900   5.927   8.815 -0.4783  0.3519 -0.8567
  954MOL0     N31565   5.381   5.918   8.321  0.4748  0.3774  0.4761
  954MOL0     N31566   5.318   6.029   8.282 -0.1005  0.2154  0.4506
  954MOL0     C31567   4.267   6.227   9.014 -0.1497 -0.1702 -0.4289
  954MOL0     C31568   4.194   6.224   9.123  0.2043 -0.2630 -0.7881
  954MOL0     C31569   3.897   6.231   9.443 -0.0002  0.1551 -0.4916
  954MOL0     C31570   3.785   6.317   9.435  0.5699  0.1251 -0.0567
  954MOL0     C31571   3.696   6.353   9.533  0.0011  0.2846 -0.1009
  954MOL0     C31572   3.723   6.309   9.663 -0.5038 -0.2941  0.1623
  954MOL0     O31573   3.651   6.335   9.779  0.7437 -0.2606 -0.3104
  954MOL0     C31574   3.537   6.414   9.777  0.2660  0.3536  0.7991
  954MOL0     C31575   3.497   6.421   9.924 -0.3210  0.4012  0.5486
  954MOL0     C31576   3.377   6.516   9.934 -0.2001  0.1544 -0.1572
  954MOL0     C31577   3.286   6.504  10.062  0.0089  0.6435 -0.1139
  954MOL0     C31578   3.347   6.578  10.171 -0.6965  0.4332  0.1809
  954MOL0     C31579   3.381   6.658  10.251 -0.3729  0.1278  0.9265
  954MOL0     C31580   3.833   6.219   9.677  0.3201 -0.2183 -0.7423
  954MOL0     C31581   3.920   6.176   9.569  0.9895 -0.2226 -0.8167
  954MOL0     C31582   4.041   6.086   9.593 -1.1363 -0.1970 -0.1653
  954MOL0     H31583   3.918   6.380   8.986 -1.6155 -3.2151 -1.0356
  954MOL0     H31584   4.060   6.348   8.790  0.6135 -1.7094 -0.6187
  954MOL0     H31585   4.391   6.083   8.786 -0.2410 -0.2905 -2.9851
  954MOL0     H31586   4.485   6.220   8.852  2.1524 -1.5195 -1.8173
  954MOL0     H31587   4.429   6.177   8.571 -0.0867 -0.5732  0.2736
  954MOL0     H31588   4.492   6.331   8.640  0.9433 -0.1467 -1.1521
  954MOL0     H31589   4.697   6.203   8.697 -0.7546  1.7849  1.0843
  954MOL0     H31590   4.628   6.056   8.631 -0.1825  1.3126  3.5655
  954MOL0     H31591   4.608   6.189   8.406  0.5538 -1.8688  0.0107
  954MOL0     H31592   4.701   6.315   8.483 -1.0123 -0.8445 -0.9618
  954MOL0     H31593   4.798   6.024   8.461  0.6546  0.2822  0.4950
  954MOL0     H31594   4.875   6.161   8.539 -0.2582  0.7083 -0.4198
  954MOL0     H31595   4.781   6.167   8.257 -2.9615  1.5957  3.2992
  954MOL0     H31596   4.888   6.285   8.334  4.7241 -0.6632  0.5685
  954MOL0     H31597   4.996   6.109   8.176 -1.3136  0.1457  1.2491
  954MOL0     H31598   4.978   6.000   8.313 -1.1379 -0.3564 -1.0342
  954MOL0     H31599   5.164   6.239   8.296  0.1154 -0.9572 -0.4919
  954MOL0     H31600   5.101   6.194   8.459 -0.3306 -2.4903  1.0271
  954MOL0     H31601   5.163   5.974   8.567 -1.0132  2.0289 -1.0754
  954MOL0     H31602   5.351   5.674   8.435 -1.4837  2.0109 -1.4724
  954MOL0     H31603   5.294   5.742   8.599 -0.6356  0.0498  0.1563
  954MOL0     H31604   5.568   5.795   8.455  2.2039 -0.7966  1.0143
  954MOL0     H31605   5.506   5.860   8.615 -3.4343 -0.5719  0.3632
  954MOL0     H31606   5.503   5.661   8.713  2.0759  0.6180  2.1510
  954MOL0     H31607   5.541   5.573   8.553  1.0950 -0.8837  2.0252
  954MOL0     H31608   5.732   5.566   8.684  0.3812  0.6327  0.0713
  954MOL0     H31609   5.771   5.688   8.557 -0.4183  1.5735  0.1404
  954MOL0     H31610   5.954   5.616   8.690  4.4037 -0.9713 -1.3494
  954MOL0     H31611   6.303   5.707   8.667 -1.3217  2.4721 -1.8903
  954MOL0     H31612   6.178   5.571   8.654 -2.3768  1.0954 -1.7728
  954MOL0     H31613   6.236   5.607   8.805 -0.7434  0.1124  0.1569
  954MOL0     H31614   6.312   6.200   8.965  0.7052  0.5200  1.0926
  954MOL0     H31615   6.491   6.338   9.037  1.6069 -0.3309  1.4192
  954MOL0     H31616   6.684   6.477   9.057  3.3008 -0.1714  2.7632
  954MOL0     H31617   6.785   6.342   9.076  1.5425 -0.6798 -0.7619
  954MOL0     H31618   6.894   6.566   9.093  0.1723  0.8003 -0.0907
  954MOL0     H31619   6.974   6.461   8.973 -0.9442 -1.4876 -1.4827
  954MOL0     H31620   6.779   6.681   8.896  1.3256  1.9239  0.0340
  954MOL0     H31621   6.871   6.576   8.796 -0.1403  1.7231 -1.0256
  954MOL0     H31622   7.080   6.698   8.915  2.0535  1.7153  0.1732
  954MOL0     H31623   6.950   6.795   8.997 -1.5100 -0.3964 -0.3617
  954MOL0     H31624   7.003   6.759   8.691 -2.4211 -0.2464  0.3211
  954MOL0     H31625   6.857   6.841   8.774 -0.2370  1.6087  1.6926
  954MOL0     H31626   7.137   6.938   8.826 -0.1130  0.5226  0.4411
  954MOL0     H31627   6.981   7.016   8.836 -0.1522 -2.3521  2.3094
  954MOL0     H31628   6.953   6.994   8.599 -0.5221 -0.5473  0.8713
  954MOL0     H31629   7.115   6.929   8.580 -0.7404 -0.7882  0.0023
  954MOL0     H31630   7.047   7.212   8.690 -0.9928 -1.5608  1.0688
  954MOL0     H31631   7.111   7.171   8.535 -1.0208  1.8210  0.2445
  954MOL0     H31632   6.695   6.219   8.664 -0.4647 -3.9423  0.7822
  954MOL0     H31633   6.498   6.099   8.604  2.8768  2.3053 -0.6495
  954MOL0     H31634   6.046   6.072   8.870 -1.5943  1.4566 -1.6587
  954MOL0     H31635   5.823   5.995   8.849 -0.0693  0.0950  0.7006
  954MOL0     H31636   4.369   6.200   9.037 -0.1601  0.7643  0.7656
  954MOL0     H31637   4.231   6.201   9.223 -2.3495  1.9844  0.8350
  954MOL0     H31638   3.754   6.346   9.335  0.2153  0.5843  0.1815
  954MOL0     H31639   3.607   6.413   9.513 -0.4585 -0.8074 -1.4499
  954MOL0     H31640   3.549   6.513   9.731 -0.5979  1.0900  2.0959
  954MOL0     H31641   3.458   6.363   9.721  2.4557 -0.1549 -2.1054
  954MOL0     H31642   3.579   6.467   9.981 -2.1514  0.1144  3.6290
  954MOL0     H31643   3.472   6.320   9.958  1.9426 -0.1993  0.5805
  954MOL0     H31644   3.411   6.620   9.932  1.6070 -0.3228  1.5131
  954MOL0     H31645   3.317   6.490   9.846 -0.1972  1.1754 -0.4737
  954MOL0     H31646   3.276   6.398  10.088 -0.1496  0.7248  0.1615
  954MOL0     H31647   3.183   6.537  10.053 -1.1178 -2.6050 -0.4996
  954MOL0     H31648   3.409   6.721  10.333  2.9870 -2.3715  1.9352
  954MOL0     H31649   3.847   6.172   9.774 -2.7764  1.2340  0.5383
  954MOL0     H31650   4.045   6.053   9.697 -3.1207 -0.2135 -0.0539
  954MOL0     H31651   4.040   5.995   9.532  1.5740  0.5187 -1.4125
  954MOL0     H31652   4.129   6.148   9.575 -1.4566 -0.3288 -2.4606
  955MOL0     O31653  11.134   3.935   0.784  0.6746 -0.3757 -0.2757
  955MOL0     C31654  11.031   3.950   0.709 -0.1501  1.6858  0.2943
  955MOL0     O31655  11.020   3.896   0.580 -0.4870  0.2854 -0.8338
  955MOL0     C31656  11.126   3.820   0.538 -0.0173 -0.2889  0.3123
  955MOL0     C31657  11.120   3.677   0.524  0.4483 -0.1691  0.6976
  955MOL0     C31658  11.227   3.605   0.486  0.6508  0.2582  0.8217
  955MOL0     C31659  11.351   3.660   0.468  0.0784  1.0143  0.0788
  955MOL0     O31660  11.469   3.585   0.437 -0.1167  0.4941  0.1247
  955MOL0     C31661  11.462   3.445   0.450  0.2946  0.4417  0.5374
  955MOL0     C31662  11.594   3.375   0.429 -0.0271  0.3812 -0.5158
  955MOL0     C31663  11.657   3.401   0.294 -0.8336 -0.2364 -1.1732
  955MOL0     C31664  11.754   3.298   0.258  0.1336  0.4143  0.1080
  955MOL0     C31665  11.814   3.325   0.118 -0.2360 -0.2645 -0.0853
  955MOL0     C31666  11.929   3.232   0.099 -0.9091 -0.0257  0.6129
  955MOL0     C31667  11.997   3.262  -0.048  0.4455  0.1983 -0.3643
  955MOL0     C31668  12.082   3.391  -0.053  0.7638  0.6751 -0.4444
  955MOL0     N31669  12.185   3.392  -0.153 -0.3189  0.5770  0.7664
  955MOL0     C31670  12.166   3.423  -0.290 -0.0971  0.4230 -0.6070
  955MOL0     C31671  12.287   3.399  -0.346 -0.8768 -0.8836 -0.4621
  955MOL0     C31672  12.313   3.393  -0.497 -0.6244  0.8162  0.4151
  955MOL0     C31673  12.458   3.436  -0.533  0.1456 -0.1674 -0.0728
  955MOL0     C31674  12.478   3.441  -0.686 -0.4518  0.0474 -0.0068
  955MOL0     C31675  12.618   3.449  -0.734 -0.6159  0.0657  0.1871
  955MOL0     O31676  12.685   3.558  -0.663  0.1534  0.0598 -0.4153
  955MOL0     C31677  12.825   3.559  -0.658 -0.2910  0.7579 -0.8183
  955MOL0     C31678  12.874   3.660  -0.577 -0.1829 -0.6043 -0.0608
  955MOL0     C31679  13.010   3.675  -0.562 -0.2169 -0.4309  0.5899
  955MOL0     C31680  13.041   3.785  -0.457 -0.2612 -0.0335 -0.0425
  955MOL0     C31681  13.108   3.596  -0.635  0.0235 -0.4498 -0.0490
  955MOL0     C31682  13.258   3.629  -0.629 -0.3083 -0.1119 -0.4914
  955MOL0     O31683  13.317   3.592  -0.751  0.2121  0.2380  0.0405
  955MOL0     C31684  13.454   3.594  -0.754 -0.7019 -0.0580  0.2404
  955MOL0     C31685  13.523   3.497  -0.678 -0.2531 -1.0397  0.0649
  955MOL0     C31686  13.664   3.508  -0.670 -0.8748  0.4910  0.2788
  955MOL0     C31687  13.740   3.604  -0.737  0.6608  0.0413 -0.2834
  955MOL0     O31688  13.872   3.599  -0.716  0.3512  0.2682  0.0616
  955MOL0     C31689  13.963   3.559  -0.825  0.3216 -0.3003  0.4634
  955MOL0     C31690  13.965   3.404  -0.815 -0.2018  0.8974  0.6049
  955MOL0     C31691  14.067   3.338  -0.926  0.3700  0.1924  0.6392
  955MOL0     C31692  14.091   3.187  -0.905 -0.4698 -0.2478  0.2554
  955MOL0     C31693  14.182   3.130  -1.014 -1.2537 -0.5551  0.2626
  955MOL0     C31694  14.168   2.982  -1.023 -0.3996  0.7356 -0.2533
  955MOL0     C31695  14.278   2.912  -1.102  0.7989  0.7367  0.3114
  955MOL0     C31696  14.257   2.930  -1.252  0.5407 -0.0594  0.0844
  955MOL0    Cl31697  14.384   2.833  -1.333 -0.1077  0.1377 -0.1430
  955MOL0     C31698  13.667   3.703  -0.813 -0.8499  0.1918 -0.1536
  955MOL0     C31699  13.523   3.684  -0.829 -0.4547 -1.0917 -0.3159
  955MOL0     O31700  13.319   3.676  -0.537  0.1209 -1.0251  0.2164
  955MOL0     C31701  13.057   3.493  -0.704  0.7693  0.4127  0.0719
  955MOL0     C31702  12.913   3.474  -0.724  0.2688 -0.6924  0.4248
  955MOL0     N31703  12.374   3.353  -0.249 -0.3372  0.2363 -0.8053
  955MOL0     N31704  12.311   3.345  -0.134 -0.0004  1.3885 -0.3934
  955MOL0     C31705  11.362   3.795   0.489  0.3040  0.0412 -0.1073
  955MOL0     C31706  11.254   3.881   0.522  0.5208  1.0841  0.0211
  955MOL0     C31707  10.911   4.014   0.782 -0.0302  0.8148  0.5124
  955MOL0     C31708  10.790   4.003   0.712  0.0249  0.6463  0.2257
  955MOL0     C31709  10.672   4.073   0.758  0.3888  0.8623 -0.4515
  955MOL0     C31710  10.679   4.150   0.873  0.4935  0.0970 -0.4279
  955MOL0     O31711  10.564   4.220   0.917 -0.4994 -0.2008 -0.4134
  955MOL0     C31712  10.560   4.289   1.045  0.5469 -0.1950 -0.1773
  955MOL0     C31713  10.416   4.340   1.072 -0.3160 -0.0038  0.3727
  955MOL0     C31714  10.311   4.229   1.039  0.2029 -0.8471  0.9685
  955MOL0     C31715  10.167   4.267   1.001 -0.6261 -0.3479  0.0934
  955MOL0     C31716  10.162   4.347   0.880 -0.5717 -0.5829  0.5778
  955MOL0     C31717  10.139   4.403   0.777  0.2492  0.6179  0.0696
  955MOL0     C31718  10.803   4.158   0.942  0.0562  0.7331  1.3750
  955MOL0     C31719  10.919   4.092   0.903 -0.6718 -0.3382  0.3732
  955MOL0     C31720  11.047   4.124   0.973  0.5392 -0.2378  0.6510
  955MOL0     H31721  11.024   3.629   0.542 -0.1852  0.2888 -1.2603
  955MOL0     H31722  11.215   3.498   0.478  0.3086  0.1981  1.9972
  955MOL0     H31723  11.395   3.391   0.383  1.0884  0.7660 -0.5385
  955MOL0     H31724  11.426   3.414   0.549 -0.1913 -0.7858 -0.0102
  955MOL0     H31725  11.671   3.397   0.504 -0.3992  0.6773 -0.2201
  955MOL0     H31726  11.581   3.269   0.452  1.8047  0.2787  0.2646
  955MOL0     H31727  11.582   3.400   0.214 -0.8847  0.3789 -1.1324
  955MOL0     H31728  11.707   3.497   0.300 -0.6603 -0.4198  1.7893
  955MOL0     H31729  11.833   3.284   0.332 -1.0424  1.8454  1.7119
  955MOL0     H31730  11.705   3.200   0.251  0.6977  0.1062  0.3771
  955MOL0     H31731  11.857   3.424   0.100  1.2880 -1.0441 -0.9752
  955MOL0     H31732  11.735   3.301   0.046 -0.4781 -3.3567  1.0509
  955MOL0     H31733  12.004   3.239   0.179 -0.6892  2.1859  0.2648
  955MOL0     H31734  11.890   3.130   0.102 -1.7379  0.3107  1.6336
  955MOL0     H31735  11.926   3.255  -0.130  1.0342 -1.7385 -0.7723
  955MOL0     H31736  12.064   3.179  -0.071 -0.4852 -0.1706 -1.8993
  955MOL0     H31737  12.003   3.465  -0.066 -0.5699 -0.7831 -0.9192
  955MOL0     H31738  12.136   3.394   0.042  1.1049 -1.6152 -0.5076
  955MOL0     H31739  12.069   3.442  -0.335 -0.3358 -1.8768 -1.2049
  955MOL0     H31740  12.240   3.447  -0.559 -0.7989 -0.5717 -0.6428
  955MOL0     H31741  12.312   3.288  -0.529  0.5459  1.1969 -0.9597
  955MOL0     H31742  12.476   3.536  -0.493 -0.3441 -0.8181  1.9014
  955MOL0     H31743  12.529   3.367  -0.485 -0.0923  0.7230  1.6472
  955MOL0     H31744  12.432   3.351  -0.729 -0.6164  0.2843 -0.3259
  955MOL0     H31745  12.421   3.520  -0.735  2.1197  0.5219 -2.5036
  955MOL0     H31746  12.670   3.355  -0.716  2.8467  2.1668  2.3149
  955MOL0     H31747  12.622   3.463  -0.842  2.1119 -0.6588  0.1183
  955MOL0     H31748  12.809   3.722  -0.517  0.6129  4.5327 -3.7674
  955MOL0     H31749  13.034   3.762  -0.350 -2.1603  0.9173  0.0772
  955MOL0     H31750  12.978   3.872  -0.478 -0.4101 -0.8699 -3.6745
  955MOL0     H31751  13.139   3.833  -0.470 -0.1015 -0.8281 -2.2626
  955MOL0     H31752  13.460   3.436  -0.613 -1.6624  1.1241  0.8401
  955MOL0     H31753  13.720   3.438  -0.610  1.2198 -0.3810 -2.4536
  955MOL0     H31754  13.922   3.593  -0.920  2.7363  0.0716 -0.5337
  955MOL0     H31755  14.068   3.592  -0.820  0.4307 -0.4360 -0.7105
  955MOL0     H31756  14.006   3.360  -0.724 -0.5813 -0.2917  0.2148
  955MOL0     H31757  13.865   3.363  -0.831  0.1375  0.3717 -0.2631
  955MOL0     H31758  14.168   3.378  -0.910  1.6854 -2.1111 -1.3308
  955MOL0     H31759  14.045   3.359  -1.031  0.9267  0.4760  0.5728
  955MOL0     H31760  13.991   3.143  -0.897 -1.1641  1.3197  0.6897
  955MOL0     H31761  14.135   3.182  -0.805  1.1825 -0.4575 -0.4620
  955MOL0     H31762  14.156   3.188  -1.103  3.3677  3.4494  1.1026
  955MOL0     H31763  14.283   3.169  -0.999 -2.4183  1.9952  2.4468
  955MOL0     H31764  14.070   2.956  -1.063 -0.2111  1.9517 -1.5666
  955MOL0     H31765  14.178   2.932  -0.925  2.7074  3.3073  0.9269
  955MOL0     H31766  14.275   2.804  -1.088 -0.9493  0.0730 -3.6397
  955MOL0     H31767  14.378   2.946  -1.074  1.3653 -0.4506 -0.2204
  955MOL0     H31768  14.257   3.037  -1.274 -1.4726  0.0975  0.6153
  955MOL0     H31769  14.161   2.885  -1.279  0.6753  0.4226 -1.2612
  955MOL0     H31770  13.717   3.789  -0.857 -1.6727  2.5893  3.2638
  955MOL0     H31771  13.465   3.759  -0.882 -3.4265 -0.5857  3.2252
  955MOL0     H31772  13.123   3.425  -0.756  0.5372  0.7292 -0.6605
  955MOL0     H31773  12.868   3.392  -0.780 -1.8932 -1.2651  2.8157
  955MOL0     H31774  11.456   3.849   0.479 -0.5096  1.8213  1.2229
  955MOL0     H31775  11.274   3.979   0.564  3.6188  1.0530 -1.1256
  955MOL0     H31776  10.790   3.945   0.621  1.7989  0.9767 -0.0185
  955MOL0     H31777  10.577   4.070   0.705  0.5319  1.5303 -0.7487
  955MOL0     H31778  10.573   4.211   1.121 -1.5298 -1.4232 -0.9925
  955MOL0     H31779  10.638   4.366   1.047  0.4924 -0.1433 -0.0010
  955MOL0     H31780  10.402   4.421   1.000  0.6140 -0.2727 -0.1258
  955MOL0     H31781  10.405   4.387   1.170 -0.2935 -0.9196  0.8240
  955MOL0     H31782  10.347   4.156   0.966 -0.9965 -0.4602 -0.0211
  955MOL0     H31783  10.294   4.174   1.133 -1.5413  0.6863  1.5941
  955MOL0     H31784  10.124   4.325   1.083  1.3640 -1.8645  2.3584
  955MOL0     H31785  10.104   4.178   0.995 -4.1257  1.8732  0.8485
  955MOL0     H31786  10.127   4.466   0.692  3.3866 -0.5480 -1.4058
  955MOL0     H31787  10.810   4.218   1.032  0.0484 -0.2253  2.0277
  955MOL0     H31788  11.123   4.139   0.896  0.9272  0.1653  1.1033
  955MOL0     H31789  11.036   4.217   1.030  0.5313 -0.0266  0.3063
  955MOL0     H31790  11.071   4.049   1.049  0.0764  0.3775  1.4171
  956MOL0     O31791   5.442   0.159   7.345 -0.2282 -0.1754 -0.7623
  956MOL0     C31792   5.418   0.225   7.245 -0.3049 -0.8538  0.1894
  956MOL0     O31793   5.506   0.254   7.149 -0.0778  0.9332 -0.1415
  956MOL0     C31794   5.636   0.225   7.169  0.0856  0.2797 -0.0396
  956MOL0     C31795   5.714   0.278   7.280 -0.5792  0.0049 -0.4819
  956MOL0     C31796   5.854   0.253   7.288  0.5063 -0.3199 -0.4543
  956MOL0     C31797   5.916   0.176   7.190 -0.0299 -0.5619  0.1668
  956MOL0     O31798   6.051   0.154   7.201  0.6458  0.1927  0.4231
  956MOL0     C31799   6.071   0.033   7.281 -1.1650 -0.1126 -1.2555
  956MOL0     C31800   6.216  -0.021   7.268 -0.0222 -0.3461 -0.3301
  956MOL0     C31801   6.300   0.089   7.331 -0.4476 -0.1945  0.4507
  956MOL0     C31802   6.450   0.045   7.365  0.4431 -0.0176 -0.4499
  956MOL0     C31803   6.531   0.161   7.418 -0.0902 -0.1147 -0.3533
  956MOL0     C31804   6.670   0.147   7.481 -0.1974  0.0325 -0.0210
  956MOL0     C31805   6.687   0.041   7.585 -0.5030  0.0788 -0.2584
  956MOL0     C31806   6.627   0.078   7.729 -0.4894  1.3447  0.9682
  956MOL0     N31807   6.712   0.189   7.783  0.0524 -0.2761 -0.1878
  956MOL0     C31808   6.694   0.325   7.779  0.3793 -0.7809 -0.5748
  956MOL0     C31809   6.799   0.364   7.862 -0.0893  0.1512  0.8628
  956MOL0     C31810   6.816   0.506   7.895 -0.1199 -0.5535 -0.5966
  956MOL0     C31811   6.804   0.526   8.049 -0.3656  0.3762 -0.9164
  956MOL0     C31812   6.831   0.665   8.090  0.2303 -0.4778 -0.7600
  956MOL0     C31813   6.721   0.772   8.039  0.1836 -0.1777  0.1863
  956MOL0     O31814   6.740   0.898   8.111  0.8750  0.3778 -0.4302
  956MOL0     C31815   6.645   0.992   8.115  0.9046 -0.6343  0.1378
  956MOL0     C31816   6.651   1.079   8.224 -0.7794  0.6723 -0.5174
  956MOL0     C31817   6.568   1.187   8.238  0.4075 -0.4408  0.6688
  956MOL0     C31818   6.587   1.279   8.349 -0.5047 -0.4560  0.5247
  956MOL0     C31819   6.453   1.198   8.154 -0.9068 -0.5311  0.2263
  956MOL0     C31820   6.357   1.313   8.167 -0.2570 -0.0165 -0.4048
  956MOL0     O31821   6.387   1.430   8.237  0.1872 -0.7531 -0.5025
  956MOL0     C31822   6.288   1.532   8.257  0.3027  0.8370  0.4193
  956MOL0     C31823   6.236   1.613   8.143 -0.0619 -0.3523 -0.1368
  956MOL0     C31824   6.133   1.713   8.156 -0.3586  0.9329 -0.3271
  956MOL0     C31825   6.072   1.726   8.279 -0.1891 -0.7920  0.6055
  956MOL0     O31826   5.975   1.826   8.283 -0.7358 -0.8962  0.3516
  956MOL0     C31827   5.917   1.866   8.401  0.5823  0.1688 -0.7021
  956MOL0     C31828   5.858   2.009   8.403 -0.6117  0.0024 -0.5376
  956MOL0     C31829   5.722   2.020   8.336 -0.9191 -0.1454  0.6429
  956MOL0     C31830   5.668   2.161   8.317  0.2167 -0.4799  0.3451
  956MOL0     C31831   5.727   2.215   8.181 -0.6820  0.9896  0.2773
  956MOL0     C31832   5.649   2.323   8.120  0.2505  0.0270 -0.2088
  956MOL0     C31833   5.639   2.429   8.221 -0.4298 -0.8742 -0.9966
  956MOL0     C31834   5.568   2.555   8.159  0.0384  0.7715  0.4134
  956MOL0    Cl31835   5.554   2.690   8.276 -0.0053  0.1289  0.0652
  956MOL0     C31836   6.117   1.644   8.386  0.9375  0.3230 -1.1653
  956MOL0     C31837   6.220   1.548   8.374 -0.2063  0.6611  0.8314
  956MOL0     O31838   6.248   1.291   8.123 -0.4877 -0.3073 -0.3223
  956MOL0     C31839   6.439   1.104   8.047 -0.6845 -0.6905  0.1801
  956MOL0     C31840   6.533   1.000   8.034 -0.3670 -0.7696 -0.6723
  956MOL0     N31841   6.888   0.259   7.904 -0.1269 -0.1219 -0.5815
  956MOL0     N31842   6.823   0.155   7.858  0.3807 -0.1525 -0.9702
  956MOL0     C31843   5.846   0.126   7.086  0.0419  0.4160 -0.4370
  956MOL0     C31844   5.706   0.144   7.074  0.6513  0.1614 -0.5964
  956MOL0     C31845   5.286   0.279   7.222  1.1245 -0.8092 -0.3299
  956MOL0     C31846   5.225   0.356   7.324  0.9273  0.7232  0.3341
  956MOL0     C31847   5.104   0.427   7.295  0.9116 -0.0493 -0.0436
  956MOL0     C31848   5.043   0.406   7.172  0.1996  0.1009 -0.5576
  956MOL0     O31849   4.921   0.457   7.145 -0.0956 -0.2370  0.0663
  956MOL0     C31850   4.807   0.390   7.189 -0.2022  0.5897  0.8449
  956MOL0     C31851   4.700   0.494   7.206  0.7550 -0.1783 -0.3282
  956MOL0     C31852   4.575   0.452   7.273  0.1797 -0.3670 -0.5085
  956MOL0     C31853   4.588   0.421   7.422  0.1963 -0.8377 -1.1025
  956MOL0     C31854   4.455   0.445   7.486 -0.3242  0.1226 -0.6271
  956MOL0     C31855   4.369   0.457   7.573  0.4048  0.0569 -0.5904
  956MOL0     C31856   5.093   0.318   7.077  0.0174 -0.6942 -0.1373
  956MOL0     C31857   5.218   0.259   7.098 -0.4875 -0.0313 -0.5671
  956MOL0     C31858   5.277   0.171   6.984  0.0635  0.0306  0.0134
  956MOL0     H31859   5.669   0.355   7.342  0.2946  1.3902 -1.4874
  956MOL0     H31860   5.917   0.310   7.357  0.1936 -0.1556 -0.3016
  956MOL0     H31861   6.008  -0.051   7.251 -0.3670 -0.9168 -0.7297
  956MOL0     H31862   6.047   0.065   7.382  0.8961  1.7041 -1.2615
  956MOL0     H31863   6.232  -0.113   7.325 -1.1726 -0.0505  0.5156
  956MOL0     H31864   6.233  -0.048   7.163  1.8515 -2.6972  0.4865
  956MOL0     H31865   6.319   0.170   7.260  1.3512  0.0845  1.1856
  956MOL0     H31866   6.249   0.122   7.421  0.4320 -0.0726  0.9169
  956MOL0     H31867   6.452  -0.034   7.441 -1.8246 -0.7058 -1.0301
  956MOL0     H31868   6.479   0.000   7.270 -1.8392  0.3637 -1.4095
  956MOL0     H31869   6.472   0.211   7.495 -2.4880  0.6656 -2.5643
  956MOL0     H31870   6.532   0.232   7.335 -0.8744  1.0071  0.5723
  956MOL0     H31871   6.745   0.138   7.401 -0.4467  1.8926 -0.5011
  956MOL0     H31872   6.697   0.245   7.520 -0.2204  1.0255 -2.2913
  956MOL0     H31873   6.794   0.021   7.593 -0.3326  0.3532 -1.7092
  956MOL0     H31874   6.645  -0.055   7.554 -1.0986 -0.0500  0.8757
  956MOL0     H31875   6.525   0.115   7.721 -0.2867  1.5697 -1.4708
  956MOL0     H31876   6.635  -0.009   7.794 -3.4755 -0.7747 -1.2754
  956MOL0     H31877   6.613   0.374   7.727  1.4231 -0.4682 -1.9493
  956MOL0     H31878   6.740   0.559   7.837  0.3209 -1.5981 -2.1858
  956MOL0     H31879   6.909   0.548   7.855  0.3570  1.2203  2.1071
  956MOL0     H31880   6.710   0.498   8.098 -0.3115  1.1634 -0.3344
  956MOL0     H31881   6.888   0.465   8.083  0.6389  1.6025 -1.1156
  956MOL0     H31882   6.853   0.676   8.197  0.9755  1.5836 -1.0685
  956MOL0     H31883   6.919   0.704   8.037 -0.3421 -0.3093 -1.6051
  956MOL0     H31884   6.748   0.794   7.935  2.0586  0.2122  0.7284
  956MOL0     H31885   6.618   0.735   8.045 -0.4537  1.3413 -0.8708
  956MOL0     H31886   6.735   1.071   8.292 -1.9508 -0.4646  0.8556
  956MOL0     H31887   6.604   1.375   8.301  4.6856 -1.1269  0.5004
  956MOL0     H31888   6.684   1.250   8.390 -0.4248 -2.8526 -1.1526
  956MOL0     H31889   6.506   1.281   8.423 -0.8667  1.1831  0.1180
  956MOL0     H31890   6.263   1.605   8.038  0.4177  1.8263 -0.2213
  956MOL0     H31891   6.080   1.759   8.074  1.0141  0.5204 -1.4995
  956MOL0     H31892   5.836   1.797   8.427 -0.3478  2.3123  2.7160
  956MOL0     H31893   5.991   1.868   8.482 -0.3358  1.5670  0.1412
  956MOL0     H31894   5.839   2.040   8.506  0.2594 -1.5351  0.1162
  956MOL0     H31895   5.918   2.085   8.353  0.1564  1.0033  1.7786
  956MOL0     H31896   5.652   1.974   8.407  0.1021 -0.5290  1.4261
  956MOL0     H31897   5.727   1.966   8.241 -1.1203 -0.6783  0.9277
  956MOL0     H31898   5.700   2.215   8.407 -2.8545 -1.5943  2.2362
  956MOL0     H31899   5.560   2.173   8.311  0.5371  2.3885 -2.5119
  956MOL0     H31900   5.834   2.240   8.182 -0.4779  0.5119 -2.7591
  956MOL0     H31901   5.717   2.128   8.116 -0.5256  0.8992  0.3743
  956MOL0     H31902   5.551   2.277   8.105  1.5502 -2.3224 -2.4770
  956MOL0     H31903   5.696   2.346   8.024 -1.7234 -0.9602 -1.4732
  956MOL0     H31904   5.740   2.463   8.247 -1.6332  1.5844  0.8591
  956MOL0     H31905   5.585   2.403   8.312  0.8606 -0.2716 -0.0185
  956MOL0     H31906   5.474   2.522   8.114  0.1278  0.5331  0.3977
  956MOL0     H31907   5.626   2.596   8.076 -2.0453  0.5829 -1.2061
  956MOL0     H31908   6.076   1.657   8.486  1.4420 -2.1064 -0.5767
  956MOL0     H31909   6.243   1.474   8.449  0.2768 -0.0633 -0.0095
  956MOL0     H31910   6.358   1.114   7.976 -0.9731  1.4626  0.7399
  956MOL0     H31911   6.532   0.929   7.951 -0.1969 -1.2832 -0.2429
  956MOL0     H31912   5.895   0.080   7.000 -2.8135  0.8327 -2.4017
  956MOL0     H31913   5.661   0.115   6.980  0.2240 -0.9146 -0.0759
  956MOL0     H31914   5.264   0.364   7.425 -0.4477 -2.1392  1.1803
  956MOL0     H31915   5.042   0.476   7.370 -0.7467 -3.1312  0.7592
  956MOL0     H31916   4.771   0.321   7.112 -0.9817  0.4120  1.3450
  956MOL0     H31917   4.819   0.337   7.285  0.6454 -1.7869 -0.4873
  956MOL0     H31918   4.662   0.520   7.107 -0.2709 -1.4940 -0.3099
  956MOL0     H31919   4.734   0.576   7.269 -2.2346  1.7860 -1.0768
  956MOL0     H31920   4.508   0.536   7.254  1.6691  0.9664 -0.0321
  956MOL0     H31921   4.535   0.361   7.225  2.6498 -1.4696 -0.6321
  956MOL0     H31922   4.656   0.493   7.468 -2.4251 -0.6274  2.9498
  956MOL0     H31923   4.633   0.323   7.442  1.1605 -0.3729 -0.9654
  956MOL0     H31924   4.301   0.462   7.655  1.4169 -1.5690  0.4196
  956MOL0     H31925   5.034   0.303   6.988 -0.8209  0.0932  0.2774
  956MOL0     H31926   5.299   0.070   7.021 -1.6607 -0.3592  0.0501
  956MOL0     H31927   5.202   0.164   6.904  3.4851 -0.6264 -3.4115
  956MOL0     H31928   5.368   0.213   6.941  0.8507  0.7045  2.2110
  957MOL0     O31929   2.487   6.432   8.533 -0.1551  0.7923  1.2588
  957MOL0     C31930   2.526   6.413   8.648 -0.3767 -0.4000  0.6815
  957MOL0     O31931   2.661   6.392   8.683 -0.2034 -0.1285  0.6769
  957MOL0     C31932   2.755   6.349   8.581  0.7324  0.3919 -0.6115
  957MOL0     C31933   2.731   6.319   8.450  0.4586 -0.0961  0.2362
  957MOL0     C31934   2.836   6.284   8.358 -0.6197 -0.6461  0.0413
  957MOL0     C31935   2.965   6.280   8.405 -0.1019 -0.0456 -0.3212
  957MOL0     O31936   3.082   6.251   8.334  0.4423  0.4973  0.5245
  957MOL0     C31937   3.079   6.236   8.187  0.1913  0.3527 -0.4213
  957MOL0     C31938   3.220   6.195   8.133 -0.7452 -0.1759  0.5179
  957MOL0     C31939   3.316   6.311   8.108  0.0410 -0.6569  0.7317
  957MOL0     C31940   3.468   6.266   8.106  0.6189 -0.3731 -0.2820
  957MOL0     C31941   3.574   6.382   8.086 -0.5959  0.3360  0.3780
  957MOL0     C31942   3.704   6.312   8.075  0.3074 -0.5431  0.2060
  957MOL0     C31943   3.822   6.414   8.054  0.2870  1.3385  0.2149
  957MOL0     C31944   3.958   6.344   8.065 -0.2123  0.0993 -0.5855
  957MOL0     N31945   3.998   6.277   7.941 -1.0918  0.8628  0.2823
  957MOL0     C31946   4.074   6.327   7.836  0.4701 -0.2143  0.1517
  957MOL0     C31947   4.106   6.220   7.754  0.6554  0.4694 -0.0295
  957MOL0     C31948   4.198   6.204   7.635  0.4689 -0.7552 -0.4739
  957MOL0     C31949   4.145   6.290   7.522  0.1797 -0.1179 -0.0611
  957MOL0     C31950   4.221   6.273   7.390 -0.8047 -0.2537 -0.5964
  957MOL0     C31951   4.371   6.317   7.400 -0.0717 -0.5330  0.2182
  957MOL0     O31952   4.379   6.440   7.469  0.4711  0.4518 -0.1553
  957MOL0     C31953   4.497   6.504   7.482 -0.0376  0.3005 -0.4511
  957MOL0     C31954   4.494   6.630   7.539 -0.1918  0.5523  0.7963
  957MOL0     C31955   4.604   6.715   7.536  0.5851 -0.7051  1.1758
  957MOL0     C31956   4.579   6.860   7.576 -0.1780  0.1260 -0.4269
  957MOL0     C31957   4.721   6.668   7.464 -0.2425 -0.7973 -0.1366
  957MOL0     C31958   4.841   6.750   7.449 -0.3770 -0.1660  0.1185
  957MOL0     O31959   4.886   6.757   7.323  0.1968  0.2369 -0.4107
  957MOL0     C31960   4.987   6.850   7.292  0.9392 -0.3806 -0.3932
  957MOL0     C31961   5.084   6.817   7.196  0.3449 -0.1430 -0.1388
  957MOL0     C31962   5.192   6.901   7.162 -0.4082 -0.4653 -0.6026
  957MOL0     C31963   5.200   7.024   7.228  0.4249 -0.6769  0.0986
  957MOL0     O31964   5.312   7.096   7.213 -0.0479 -0.4514 -0.0984
  957MOL0     C31965   5.392   7.082   7.091  0.4206 -0.3173 -0.4867
  957MOL0     C31966   5.505   7.183   7.116  0.5430  0.1880  1.0288
  957MOL0     C31967   5.620   7.181   7.020  0.0150  0.1897  0.9152
  957MOL0     C31968   5.732   7.284   7.065  0.3110 -0.5031  0.7125
  957MOL0     C31969   5.842   7.286   6.965 -0.3785 -0.0482 -0.1824
  957MOL0     C31970   5.909   7.420   6.949 -0.0466 -0.2721 -0.0326
  957MOL0     C31971   6.023   7.418   6.847 -0.1575 -0.7959 -0.3422
  957MOL0     C31972   6.145   7.344   6.883  0.2126  0.0060  0.3006
  957MOL0    Cl31973   6.275   7.369   6.774  0.2699 -0.1415  0.4328
  957MOL0     C31974   5.092   7.064   7.312  0.7685 -0.1044  0.2676
  957MOL0     C31975   4.983   6.983   7.338 -0.0570  0.3901  0.5265
  957MOL0     O31976   4.892   6.802   7.555  0.1814 -0.5601  0.1610
  957MOL0     C31977   4.730   6.533   7.417 -0.6274 -0.3190  0.4568
  957MOL0     C31978   4.619   6.448   7.441  0.6273  0.1945  0.4048
  957MOL0     N31979   4.040   6.109   7.804  0.9130  0.9041 -0.8741
  957MOL0     N31980   3.973   6.146   7.911 -0.2768  0.3047  0.0585
  957MOL0     C31981   2.983   6.312   8.542 -0.1654  0.6016  1.1779
  957MOL0     C31982   2.882   6.348   8.626 -0.6077 -0.1956  0.0707
  957MOL0     C31983   2.412   6.426   8.744 -0.9132 -0.1276 -0.6943
  957MOL0     C31984   2.284   6.467   8.704 -0.0892 -0.1779 -0.0956
  957MOL0     C31985   2.181   6.481   8.791 -0.0132 -0.1692  0.5353
  957MOL0     C31986   2.193   6.465   8.931 -0.4251  0.1783  0.0149
  957MOL0     O31987   2.095   6.476   9.026  0.2168 -0.1808  0.6649
  957MOL0     C31988   1.961   6.492   8.988  0.2315  0.6262  0.6152
  957MOL0     C31989   1.883   6.531   9.117 -0.4015 -0.0606  0.4473
  957MOL0     C31990   1.737   6.552   9.083 -0.4869 -0.3252  0.4135
  957MOL0     C31991   1.659   6.604   9.204 -0.1800  0.4370  0.9110
  957MOL0     C31992   1.519   6.595   9.180  0.2698  0.5554 -0.4031
  957MOL0     C31993   1.397   6.580   9.169  0.4060 -0.7430 -0.1650
  957MOL0     C31994   2.324   6.437   8.979  0.7323  0.5406  0.5016
  957MOL0     C31995   2.430   6.410   8.892  0.4610  0.3400  0.2481
  957MOL0     C31996   2.566   6.377   8.951  0.4464 -0.0599 -0.4105
  957MOL0     H31997   2.635   6.307   8.400  0.8945  1.6877 -1.1004
  957MOL0     H31998   2.803   6.270   8.256 -0.0767 -0.9701 -0.0905
  957MOL0     H31999   3.057   6.335   8.146  1.0122  0.3932 -0.7804
  957MOL0     H32000   2.997   6.170   8.157 -0.3145  1.2513 -1.0863
  957MOL0     H32001   3.267   6.122   8.199 -1.8030  1.7085  3.5628
  957MOL0     H32002   3.189   6.157   8.035  0.7744  2.0245 -0.8975
  957MOL0     H32003   3.285   6.353   8.012  2.6031 -0.8645 -0.2576
  957MOL0     H32004   3.297   6.387   8.185 -0.5205  0.3061 -0.3359
  957MOL0     H32005   3.493   6.228   8.205  0.6047  2.5505  0.9698
  957MOL0     H32006   3.486   6.181   8.040  2.1399 -1.0407  0.9484
  957MOL0     H32007   3.570   6.448   8.173  0.8394  1.8055 -0.6261
  957MOL0     H32008   3.549   6.437   7.995 -1.4472 -0.8325 -0.1210
  957MOL0     H32009   3.723   6.245   8.159 -0.2413 -0.2023  0.6099
  957MOL0     H32010   3.708   6.249   7.986 -2.1172 -1.7671  0.8731
  957MOL0     H32011   3.819   6.487   8.136  0.8981 -0.8146  2.2626
  957MOL0     H32012   3.815   6.460   7.955  0.7607  1.0177  0.0317
  957MOL0     H32013   4.030   6.423   8.091 -1.2797  1.4985 -1.6740
  957MOL0     H32014   3.955   6.264   8.139  0.5750 -0.1441 -0.8106
  957MOL0     H32015   4.116   6.426   7.825  0.0410 -0.0081  0.3597
  957MOL0     H32016   4.203   6.099   7.604  2.1556 -0.1280 -2.4831
  957MOL0     H32017   4.303   6.231   7.643  0.5999 -0.4900 -2.5831
  957MOL0     H32018   4.041   6.274   7.494  0.0514  1.7439 -0.7989
  957MOL0     H32019   4.147   6.396   7.551 -4.6636 -0.2424  1.6142
  957MOL0     H32020   4.222   6.170   7.354  0.9975 -1.3724  2.3518
  957MOL0     H32021   4.171   6.336   7.315 -0.8134  0.1463 -0.2607
  957MOL0     H32022   4.427   6.245   7.460 -0.3360  1.5094  3.0933
  957MOL0     H32023   4.416   6.331   7.301 -0.2094  0.5585  0.3032
  957MOL0     H32024   4.395   6.656   7.574 -0.1639  1.9947 -0.1109
  957MOL0     H32025   4.600   6.880   7.682 -1.5379 -0.1105 -0.0920
  957MOL0     H32026   4.474   6.890   7.566  0.2384  1.8630  0.0771
  957MOL0     H32027   4.644   6.924   7.516 -0.4990 -0.1498 -1.0825
  957MOL0     H32028   5.094   6.712   7.170  1.3700 -0.4781  1.5008
  957MOL0     H32029   5.261   6.867   7.085  1.1376 -0.0034  0.5277
  957MOL0     H32030   5.429   6.980   7.077  0.8260 -0.2339 -0.0247
  957MOL0     H32031   5.332   7.115   7.005  0.1017  1.6599  0.4347
  957MOL0     H32032   5.464   7.284   7.130  0.0469  0.0553  0.5339
  957MOL0     H32033   5.547   7.161   7.215 -0.1021  0.6722  1.4170
  957MOL0     H32034   5.588   7.232   6.928  1.8047  4.2532  2.3245
  957MOL0     H32035   5.648   7.078   6.999 -2.3040 -0.5105  0.9612
  957MOL0     H32036   5.764   7.248   7.164 -1.5241  1.9570  2.3381
  957MOL0     H32037   5.683   7.381   7.078 -0.7999 -0.5746 -2.2605
  957MOL0     H32038   5.922   7.216   6.992  0.6578  0.1887 -2.4166
  957MOL0     H32039   5.802   7.264   6.865 -0.1998  1.9005 -0.7130
  957MOL0     H32040   5.952   7.461   7.041 -0.5281  1.2923 -0.4622
  957MOL0     H32041   5.832   7.493   6.923  1.3332  2.4461  2.8192
  957MOL0     H32042   6.040   7.524   6.828 -0.4185 -0.6623  0.1542
  957MOL0     H32043   5.981   7.371   6.757 -0.6221 -0.0952 -0.5006
  957MOL0     H32044   6.127   7.237   6.880  0.3887 -0.0179  0.0936
  957MOL0     H32045   6.178   7.379   6.982  0.0824  2.1939 -0.3808
  957MOL0     H32046   5.097   7.164   7.354  0.6951  0.2003 -0.4345
  957MOL0     H32047   4.909   7.037   7.397 -0.3057  2.2687 -1.3969
  957MOL0     H32048   4.827   6.511   7.372 -0.7805  3.0131 -1.8848
  957MOL0     H32049   4.630   6.346   7.404  2.0079 -0.8214  3.3402
  957MOL0     H32050   3.085   6.319   8.578  0.7851 -3.4314 -0.1357
  957MOL0     H32051   2.908   6.362   8.730 -2.1187  0.5225  0.3882
  957MOL0     H32052   2.271   6.482   8.597 -0.1648 -1.6098 -0.3099
  957MOL0     H32053   2.082   6.508   8.755  0.6010  0.9083 -0.4256
  957MOL0     H32054   1.947   6.571   8.914 -0.7507 -0.8306 -0.8200
  957MOL0     H32055   1.918   6.400   8.947  2.5099 -1.0385  1.7069
  957MOL0     H32056   1.932   6.621   9.155  1.3074 -1.8525  2.7990
  957MOL0     H32057   1.898   6.454   9.192 -0.2065  0.8972  1.4192
  957MOL0     H32058   1.726   6.620   8.998  2.7657 -1.5740 -1.1617
  957MOL0     H32059   1.694   6.456   9.051 -0.7610 -0.0702 -0.0003
  957MOL0     H32060   1.681   6.709   9.223 -0.1772  0.2306  2.1550
  957MOL0     H32061   1.685   6.543   9.291 -2.4096  1.6172  2.4879
  957MOL0     H32062   1.293   6.576   9.144  0.7302 -1.9337 -1.4436
  957MOL0     H32063   2.343   6.439   9.086  0.1711  2.9778  0.6223
  957MOL0     H32064   2.628   6.461   8.918 -0.4413  0.9641  0.4222
  957MOL0     H32065   2.573   6.388   9.060 -1.4215  2.0982 -0.4242
  957MOL0     H32066   2.607   6.286   8.907  0.3391 -0.7878  0.9272
  958MOL0     O32067   3.302   0.418   8.436  0.9103  0.4845  0.2499
  958MOL0     C32068   3.253   0.376   8.330  0.2254  0.2413 -1.0214
  958MOL0     O32069   3.304   0.399   8.208  0.3286  0.0589  0.3919
  958MOL0     C32070   3.427   0.462   8.184 -0.0579  0.9620 -0.6801
  958MOL0     C32071   3.452   0.515   8.058 -0.1937 -0.2912  0.4192
  958MOL0     C32072   3.579   0.567   8.013 -0.5043 -0.7032 -0.7208
  958MOL0     C32073   3.689   0.568   8.107 -0.7491  0.3343  0.1727
  958MOL0     O32074   3.813   0.639   8.096 -0.0763  0.7279  0.5328
  958MOL0     C32075   3.823   0.723   7.980 -0.7800  0.3180 -0.4471
  958MOL0     C32076   3.965   0.792   7.987 -0.2198  0.4822 -0.6184
  958MOL0     C32077   4.025   0.830   7.851 -0.2034  0.5800  0.2097
  958MOL0     C32078   4.172   0.833   7.866  0.0362 -0.4713  0.5223
  958MOL0     C32079   4.261   0.855   7.747  0.7179 -0.2565  0.3940
  958MOL0     C32080   4.396   0.799   7.783 -0.0690  0.1949  0.2741
  958MOL0     C32081   4.499   0.836   7.682 -0.3747 -0.2069  0.0271
  958MOL0     C32082   4.642   0.803   7.724 -0.5379 -0.3292  0.3418
  958MOL0     N32083   4.744   0.827   7.620 -0.0163  0.8622 -0.0856
  958MOL0     C32084   4.780   0.952   7.589  0.2646  0.2288 -0.4871
  958MOL0     C32085   4.872   0.938   7.485 -0.0152  0.3721 -0.3545
  958MOL0     C32086   4.935   1.042   7.393  0.1670  0.0500 -0.5067
  958MOL0     C32087   5.088   1.044   7.398  0.1608  0.0137 -0.3073
  958MOL0     C32088   5.148   1.108   7.528 -0.2229 -0.1755  0.7523
  958MOL0     C32089   5.299   1.095   7.542  0.9457  0.0578  0.7129
  958MOL0     O32090   5.365   1.162   7.433  0.6702 -0.1899  0.4962
  958MOL0     C32091   5.501   1.151   7.414 -0.1638  0.4161  0.7099
  958MOL0     C32092   5.569   1.233   7.318 -1.0471 -0.2788  0.6528
  958MOL0     C32093   5.710   1.228   7.303 -0.3130 -0.5321 -0.0220
  958MOL0     C32094   5.777   1.328   7.208  0.4859  0.0172  0.7083
  958MOL0     C32095   5.786   1.139   7.379  0.2571 -0.1942 -0.3059
  958MOL0     C32096   5.924   1.121   7.372  0.8007 -0.6183 -0.2794
  958MOL0     O32097   5.984   1.146   7.249 -0.0202 -0.5492 -0.6327
  958MOL0     C32098   6.114   1.105   7.227  0.0894  0.5974 -0.4778
  958MOL0     C32099   6.154   0.972   7.237  0.8124  0.2114  1.0731
  958MOL0     C32100   6.290   0.938   7.197  0.9945 -1.1936  0.6245
  958MOL0     C32101   6.373   1.041   7.158 -0.1703 -0.8019  0.4616
  958MOL0     O32102   6.498   0.992   7.129 -0.6686 -0.4336  0.3920
  958MOL0     C32103   6.603   1.075   7.080 -0.1936  0.1171 -0.2982
  958MOL0     C32104   6.738   0.994   7.071  0.0302 -0.8211  0.2167
  958MOL0     C32105   6.724   0.858   6.998 -0.0083 -0.0589 -0.1556
  958MOL0     C32106   6.720   0.892   6.848 -0.7200 -0.2395  1.5787
  958MOL0     C32107   6.599   0.841   6.776  0.0977 -0.1241 -1.0035
  958MOL0     C32108   6.467   0.908   6.819 -0.2343 -0.2078 -0.0904
  958MOL0     C32109   6.362   0.875   6.709 -0.1397 -0.0408  0.5312
  958MOL0     C32110   6.293   0.734   6.726 -0.7484  0.1532 -0.3715
  958MOL0    Cl32111   6.199   0.706   6.576 -0.4154 -0.4284 -0.6034
  958MOL0     C32112   6.331   1.170   7.132 -0.8496 -0.4465  0.0388
  958MOL0     C32113   6.201   1.202   7.174  0.6755 -0.2262  0.3113
  958MOL0     O32114   5.983   1.088   7.474  0.6265 -0.2812  0.1923
  958MOL0     C32115   5.714   1.052   7.468  0.0930  0.6015  0.8177
  958MOL0     C32116   5.576   1.064   7.492  0.2911 -0.4919 -1.2271
  958MOL0     N32117   4.900   0.806   7.474 -0.6065  0.2411  0.2642
  958MOL0     N32118   4.820   0.736   7.549  0.1725 -0.2763  0.4694
  958MOL0     C32119   3.663   0.521   8.232 -0.2009  0.1456  0.6506
  958MOL0     C32120   3.535   0.475   8.267 -0.2635  0.3968 -0.5744
  958MOL0     C32121   3.129   0.303   8.340  0.2165  0.7297 -0.4340
  958MOL0     C32122   3.036   0.346   8.441 -0.7765 -0.4677 -0.2080
  958MOL0     C32123   2.920   0.266   8.463 -0.0296 -0.1633 -0.0105
  958MOL0     C32124   2.877   0.170   8.372 -1.1782  0.2453  0.7863
  958MOL0     O32125   2.749   0.127   8.374  0.6851 -0.2367  0.7832
  958MOL0     C32126   2.708   0.063   8.493  0.5587  0.2649 -0.7287
  958MOL0     C32127   2.734  -0.090   8.488 -0.2438  0.4928  0.6645
  958MOL0     C32128   2.620  -0.163   8.400 -0.0303 -0.3140 -1.1752
  958MOL0     C32129   2.649  -0.158   8.254 -0.2707  0.3357  0.2590
  958MOL0     C32130   2.545  -0.228   8.183  0.2396 -1.3467  1.1307
  958MOL0     C32131   2.466  -0.283   8.102  0.1037 -0.3891 -0.5223
  958MOL0     C32132   2.960   0.149   8.266  0.0586  1.0280 -0.0402
  958MOL0     C32133   3.088   0.206   8.251 -0.6262 -0.1735 -0.6938
  958MOL0     C32134   3.180   0.167   8.135  0.2363 -0.1127  0.0203
  958MOL0     H32135   3.374   0.524   7.983  0.9388 -1.3481 -0.9533
  958MOL0     H32136   3.593   0.619   7.918 -0.7606 -0.9565 -0.8990
  958MOL0     H32137   3.749   0.803   7.978 -0.7886  0.3758  0.9460
  958MOL0     H32138   3.820   0.666   7.887  1.3920  0.7650 -0.8605
  958MOL0     H32139   3.945   0.885   8.041 -5.2041 -0.7766  0.2846
  958MOL0     H32140   4.027   0.716   8.034 -2.7855 -4.2181 -3.9042
  958MOL0     H32141   4.004   0.754   7.775 -1.4218  0.6761  0.4234
  958MOL0     H32142   3.995   0.928   7.814  2.6213  1.0129 -1.2169
  958MOL0     H32143   4.200   0.899   7.949 -0.1803 -1.4102  1.3651
  958MOL0     H32144   4.209   0.738   7.905 -1.3364 -1.0819  0.3886
  958MOL0     H32145   4.264   0.962   7.725  2.1259 -0.4138 -0.2878
  958MOL0     H32146   4.232   0.806   7.653 -0.8340  0.1049  0.6687
  958MOL0     H32147   4.421   0.827   7.886  0.0239 -0.7080  0.5099
  958MOL0     H32148   4.380   0.691   7.790  0.2411  0.1547  0.3819
  958MOL0     H32149   4.501   0.940   7.648 -0.2788  0.0221  0.7180
  958MOL0     H32150   4.475   0.777   7.594  0.5306 -0.6317  0.0623
  958MOL0     H32151   4.674   0.855   7.815  1.6853  2.5418 -1.9182
  958MOL0     H32152   4.641   0.699   7.759 -5.9584 -0.2302  1.3124
  958MOL0     H32153   4.740   1.046   7.624  1.0833  0.2973  0.2957
  958MOL0     H32154   4.889   1.139   7.412  0.8685  0.5106 -1.1000
  958MOL0     H32155   4.900   1.020   7.291 -3.2641  3.7010 -0.3630
  958MOL0     H32156   5.129   0.944   7.380  1.3694  0.9659 -3.4564
  958MOL0     H32157   5.116   1.108   7.314 -0.8566 -0.7554 -1.2625
  958MOL0     H32158   5.117   1.213   7.530 -2.9459 -0.9025  0.5167
  958MOL0     H32159   5.096   1.064   7.614 -1.6230  3.0671  1.7127
  958MOL0     H32160   5.338   1.127   7.639  1.7357  2.0741 -0.2109
  958MOL0     H32161   5.310   0.987   7.529 -1.4457 -0.1100 -0.3631
  958MOL0     H32162   5.506   1.307   7.270  0.2742  0.4771  0.0372
  958MOL0     H32163   5.786   1.298   7.103 -0.8642  1.6058  0.0956
  958MOL0     H32164   5.876   1.355   7.246  0.1585 -2.5079  3.8386
  958MOL0     H32165   5.710   1.414   7.209 -1.3377 -1.3319  2.1274
  958MOL0     H32166   6.083   0.891   7.253 -1.0820  1.5353 -0.1382
  958MOL0     H32167   6.322   0.836   7.215  0.6580 -1.2947  0.6519
  958MOL0     H32168   6.587   1.101   6.975  3.0405  0.2715 -0.8620
  958MOL0     H32169   6.612   1.162   7.145  1.8555 -0.2237 -0.0733
  958MOL0     H32170   6.813   1.061   7.028  1.4488 -1.3112  1.8179
  958MOL0     H32171   6.767   0.973   7.174  0.6084 -0.5552  0.1147
  958MOL0     H32172   6.627   0.819   7.030  0.6987  0.6658  3.2424
  958MOL0     H32173   6.818   0.804   7.013 -0.5764 -0.9487  0.3336
  958MOL0     H32174   6.810   0.841   6.813 -0.2376  0.3481  1.9318
  958MOL0     H32175   6.721   1.001   6.832 -0.0588 -0.5886 -1.1843
  958MOL0     H32176   6.633   0.856   6.673 -1.4903 -0.8110 -1.6691
  958MOL0     H32177   6.596   0.733   6.795  0.9060 -0.0503 -0.4231
  958MOL0     H32178   6.486   1.016   6.821 -0.2885 -0.1857 -0.6478
  958MOL0     H32179   6.438   0.872   6.918  0.0032 -2.5251 -0.7980
  958MOL0     H32180   6.410   0.880   6.610 -0.7864  0.9097  0.2529
  958MOL0     H32181   6.284   0.952   6.710  0.0262  0.2150 -1.3716
  958MOL0     H32182   6.230   0.738   6.815 -2.2082 -1.5093 -1.2604
  958MOL0     H32183   6.367   0.658   6.750  0.9186  1.7549 -0.2415
  958MOL0     H32184   6.392   1.247   7.085 -1.0180 -0.7432 -0.6806
  958MOL0     H32185   6.163   1.303   7.161 -1.1530 -0.9373 -0.1504
  958MOL0     H32186   5.759   0.979   7.534  2.0203 -0.4882 -1.5385
  958MOL0     H32187   5.525   1.001   7.565  3.0515 -0.6183  0.7452
  958MOL0     H32188   3.752   0.524   8.294  2.0337  0.6067 -2.3077
  958MOL0     H32189   3.541   0.432   8.366 -0.0163  0.4161 -0.5794
  958MOL0     H32190   3.062   0.424   8.512  0.1282 -2.1000  1.3451
  958MOL0     H32191   2.860   0.307   8.544 -1.5014 -0.0685 -1.1144
  958MOL0     H32192   2.740   0.114   8.585 -2.0581 -0.1432  0.5189
  958MOL0     H32193   2.599   0.069   8.490  0.4799 -1.2611 -1.7775
  958MOL0     H32194   2.745  -0.134   8.587  0.4425  1.9038  1.2488
  958MOL0     H32195   2.824  -0.116   8.430 -0.5701 -2.3344  1.3003
  958MOL0     H32196   2.626  -0.271   8.415 -1.1239 -0.3544 -0.9955
  958MOL0     H32197   2.519  -0.126   8.418 -1.0606 -2.6172 -1.9437
  958MOL0     H32198   2.738  -0.220   8.241 -0.6163 -0.2092  0.4402
  958MOL0     H32199   2.663  -0.055   8.222  1.5817  0.1658  0.3985
  958MOL0     H32200   2.403  -0.325   8.025 -2.7698  0.6089  1.1122
  958MOL0     H32201   2.930   0.082   8.186  0.4054 -2.3640  2.4758
  958MOL0     H32202   3.278   0.137   8.174  0.7248  2.1773  0.7357
  958MOL0     H32203   3.147   0.073   8.090  0.6062  0.0157 -0.5189
  958MOL0     H32204   3.189   0.247   8.061  1.0467  2.2068  2.4610
  959MOL0     O32205   8.422   0.318   4.158 -1.3187 -0.3396 -0.7494
  959MOL0     C32206   8.399   0.228   4.240  0.7038 -0.1501 -0.1304
  959MOL0     O32207   8.486   0.133   4.293 -0.1985 -0.8077 -0.2778
  959MOL0     C32208   8.620   0.144   4.284 -0.8493  0.1754 -0.2595
  959MOL0     C32209   8.706   0.130   4.395  0.5015 -0.5998 -0.1957
  959MOL0     C32210   8.839   0.135   4.374 -0.7830  0.2043 -0.4196
  959MOL0     C32211   8.896   0.149   4.246 -0.2447 -0.7256 -0.0526
  959MOL0     O32212   9.031   0.167   4.233  0.2862 -0.3451  0.5878
  959MOL0     C32213   9.096   0.161   4.105  0.1050  0.3826 -0.7094
  959MOL0     C32214   9.243   0.164   4.132 -0.0644  0.2882 -0.4065
  959MOL0     C32215   9.299   0.050   4.225  0.7575  0.4428  0.2514
  959MOL0     C32216   9.446   0.069   4.262  0.5578 -0.6812 -0.2434
  959MOL0     C32217   9.501  -0.053   4.342 -0.0199  0.2894 -0.3146
  959MOL0     C32218   9.638  -0.019   4.406  1.0630 -0.1775 -0.1796
  959MOL0     C32219   9.615   0.048   4.544  0.3004  0.3219 -0.4986
  959MOL0     C32220   9.751   0.103   4.604 -0.1335  0.2880  0.3001
  959MOL0     N32221   9.862   0.006   4.629  0.3824 -0.4313 -0.2669
  959MOL0     C32222   9.987   0.050   4.651 -0.5484 -0.0592  0.9595
  959MOL0     C32223  10.062  -0.063   4.687  0.6008  0.2179  0.2642
  959MOL0     C32224  10.207  -0.067   4.713  0.0147  0.1990 -0.1683
  959MOL0     C32225  10.300  -0.116   4.604 -0.1409  0.5832 -1.0867
  959MOL0     C32226  10.276  -0.267   4.590  0.3579 -0.1979  0.0752
  959MOL0     C32227  10.387  -0.311   4.488  0.5389  0.7323 -0.3993
  959MOL0     O32228  10.403  -0.455   4.483  0.1817 -0.3252  0.2136
  959MOL0     C32229  10.532  -0.510   4.501  0.7711 -0.1679  0.2279
  959MOL0     C32230  10.628  -0.451   4.590  0.5347 -0.9158 -0.1532
  959MOL0     C32231  10.759  -0.493   4.595 -0.3870  0.7223 -0.0039
  959MOL0     C32232  10.849  -0.410   4.684  0.7556  1.0745  0.3208
  959MOL0     C32233  10.799  -0.606   4.516  0.7677 -0.6214  0.3534
  959MOL0     C32234  10.936  -0.654   4.507  0.0262 -0.4199 -0.5868
  959MOL0     O32235  11.023  -0.560   4.569 -0.1892  0.4963 -0.2470
  959MOL0     C32236  11.166  -0.569   4.565 -0.2311 -0.4615 -0.3473
  959MOL0     C32237  11.235  -0.509   4.672  0.3826  0.1743 -0.1694
  959MOL0     C32238  11.375  -0.512   4.682 -0.6734 -0.1284 -0.2414
  959MOL0     C32239  11.446  -0.557   4.569 -0.1732  0.4903  0.4099
  959MOL0     O32240  11.583  -0.564   4.566  0.0181  0.4078  0.2196
  959MOL0     C32241  11.658  -0.569   4.682  0.5127 -0.0924  0.6185
  959MOL0     C32242  11.797  -0.620   4.648 -0.4220  0.6365 -0.5008
  959MOL0     C32243  11.884  -0.526   4.568 -0.5008 -0.8147  0.4379
  959MOL0     C32244  12.016  -0.602   4.536  0.2846 -0.1719 -0.2307
  959MOL0     C32245  12.112  -0.496   4.468 -0.0021  0.7066  0.2802
  959MOL0     C32246  12.256  -0.530   4.467 -0.3213 -0.1853  0.0321
  959MOL0     C32247  12.344  -0.424   4.395  1.2271  0.8143  0.2006
  959MOL0     C32248  12.493  -0.469   4.372  0.7050  0.0730 -0.2621
  959MOL0    Cl32249  12.571  -0.484   4.525 -0.9000  0.2554  0.0487
  959MOL0     C32250  11.378  -0.592   4.455 -0.3649 -0.6518 -0.5841
  959MOL0     C32251  11.242  -0.591   4.449 -0.2822 -0.1568  0.0992
  959MOL0     O32252  10.973  -0.751   4.442  0.4611  0.5731  0.7830
  959MOL0     C32253  10.699  -0.668   4.436  0.0481  0.3780 -0.0030
  959MOL0     C32254  10.567  -0.623   4.425  0.3267 -1.4316 -0.8622
  959MOL0     N32255   9.970  -0.175   4.678  0.0646  0.3424 -0.3347
  959MOL0     N32256   9.850  -0.132   4.649 -0.1034 -0.4145 -0.5387
  959MOL0     C32257   8.804   0.163   4.137  0.0241 -0.0344  0.4803
  959MOL0     C32258   8.670   0.164   4.159 -0.3176 -0.1881 -0.0603
  959MOL0     C32259   8.250   0.216   4.299 -0.3938  0.3196 -0.5707
  959MOL0     C32260   8.238   0.170   4.434  0.1985  0.1548  0.1327
  959MOL0     C32261   8.108   0.154   4.490  0.3661 -0.4095  0.4235
  959MOL0     C32262   7.993   0.188   4.418  0.7820  0.0737  0.1721
  959MOL0     O32263   7.879   0.160   4.486 -0.6695 -0.1487 -0.2606
  959MOL0     C32264   7.760   0.169   4.408 -0.5801  0.0963 -0.0593
  959MOL0     C32265   7.652   0.117   4.500  0.6491  0.2249  0.0628
  959MOL0     C32266   7.660  -0.038   4.514  0.3975  0.2987 -0.1622
  959MOL0     C32267   7.584  -0.094   4.637  0.8328  0.0645 -0.8489
  959MOL0     C32268   7.437  -0.086   4.628 -0.5943 -0.0191  0.2679
  959MOL0     C32269   7.318  -0.097   4.632  0.7663 -0.8630 -0.3433
  959MOL0     C32270   8.000   0.236   4.285 -0.4672 -0.3287  0.6685
  959MOL0     C32271   8.137   0.255   4.227  1.4166  0.5191 -0.0055
  959MOL0     C32272   8.137   0.309   4.078  0.7890  0.2657  0.0206
  959MOL0     H32273   8.649   0.112   4.485 -2.2558  2.0944 -1.2177
  959MOL0     H32274   8.902   0.125   4.462  0.8729 -0.4092 -1.6097
  959MOL0     H32275   9.057   0.249   4.052 -0.9301 -0.5524 -1.5441
  959MOL0     H32276   9.075   0.067   4.053  0.8352 -0.2758  0.1813
  959MOL0     H32277   9.301   0.166   4.039  0.5750  1.2217 -0.0002
  959MOL0     H32278   9.272   0.260   4.174  2.8619  0.0309 -1.6185
  959MOL0     H32279   9.236   0.044   4.315 -2.5457 -0.4491 -1.9388
  959MOL0     H32280   9.276  -0.043   4.173  0.8719  0.6736 -0.2138
  959MOL0     H32281   9.507   0.068   4.172 -0.4433  1.1479 -1.0051
  959MOL0     H32282   9.466   0.161   4.319 -0.2658  1.5195 -3.2474
  959MOL0     H32283   9.504  -0.141   4.277 -0.4930  1.4208 -1.9285
  959MOL0     H32284   9.427  -0.076   4.420 -0.9380 -0.6173 -1.4230
  959MOL0     H32285   9.687  -0.116   4.418  0.5664 -0.4864 -0.5838
  959MOL0     H32286   9.694   0.047   4.340  0.0121 -0.7062 -1.6513
  959MOL0     H32287   9.559  -0.016   4.613  0.5510  0.1276 -0.4748
  959MOL0     H32288   9.550   0.135   4.530  0.5090  1.0294  2.2978
  959MOL0     H32289   9.783   0.186   4.540 -1.7414 -0.0748 -1.0479
  959MOL0     H32290   9.729   0.142   4.704 -0.4832 -2.1145  1.2228
  959MOL0     H32291  10.023   0.149   4.627  0.7398 -1.2133 -2.4688
  959MOL0     H32292  10.232  -0.119   4.806 -2.2737  0.2721  0.5399
  959MOL0     H32293  10.230   0.039   4.724 -0.5112  0.2527  0.4612
  959MOL0     H32294  10.274  -0.052   4.519 -2.9604  2.0673  0.7183
  959MOL0     H32295  10.397  -0.085   4.643 -1.2988  0.9747  1.7449
  959MOL0     H32296  10.296  -0.314   4.687  0.8103  1.1073  0.6356
  959MOL0     H32297  10.176  -0.295   4.556  0.3125 -0.3507  0.3368
  959MOL0     H32298  10.361  -0.267   4.391  2.9573  1.4570 -0.7728
  959MOL0     H32299  10.480  -0.265   4.522  0.7384  0.1052 -0.0927
  959MOL0     H32300  10.605  -0.365   4.652  3.5935  0.9844 -1.4195
  959MOL0     H32301  10.796  -0.337   4.745 -0.8451  0.9194 -0.8310
  959MOL0     H32302  10.921  -0.350   4.627  2.4690  0.1097  1.3662
  959MOL0     H32303  10.899  -0.477   4.755 -2.5275 -0.7990  1.0828
  959MOL0     H32304  11.177  -0.454   4.745  1.1610  1.6642 -0.6071
  959MOL0     H32305  11.428  -0.477   4.770 -0.1616 -2.3027  0.3667
  959MOL0     H32306  11.676  -0.467   4.719  0.2904  0.5692 -1.0245
  959MOL0     H32307  11.619  -0.637   4.758  0.4745 -2.0406 -1.0702
  959MOL0     H32308  11.852  -0.623   4.742 -0.0035 -0.9237 -0.7716
  959MOL0     H32309  11.802  -0.721   4.607  0.0242 -0.6353  2.4371
  959MOL0     H32310  11.902  -0.431   4.620  1.4249 -0.1173 -1.3734
  959MOL0     H32311  11.831  -0.505   4.475 -3.1903 -2.3410  1.4952
  959MOL0     H32312  11.999  -0.692   4.477 -1.2515  0.7860 -1.3176
  959MOL0     H32313  12.075  -0.629   4.625 -0.3112  0.0225  0.2333
  959MOL0     H32314  12.073  -0.481   4.367 -0.4027  3.5430  0.7657
  959MOL0     H32315  12.100  -0.399   4.516  0.3904 -0.8133  3.7082
  959MOL0     H32316  12.262  -0.624   4.411  3.0358 -0.2581  0.3130
  959MOL0     H32317  12.292  -0.549   4.568  3.0360  1.6756 -0.6808
  959MOL0     H32318  12.340  -0.325   4.441  1.8327  0.5484  0.8390
  959MOL0     H32319  12.296  -0.422   4.296  3.1373  0.5740 -0.7926
  959MOL0     H32320  12.547  -0.393   4.316 -1.0415  3.2518  2.0271
  959MOL0     H32321  12.487  -0.565   4.320  0.0444  0.8735 -1.7221
  959MOL0     H32322  11.418  -0.600   4.355 -0.6880  0.4796 -0.8122
  959MOL0     H32323  11.181  -0.630   4.368 -2.9463 -0.8042  2.2263
  959MOL0     H32324  10.724  -0.759   4.384  1.4337 -0.5767  2.1915
  959MOL0     H32325  10.482  -0.682   4.390 -0.7070 -2.0601  2.3264
  959MOL0     H32326   8.833   0.175   4.033 -1.2778  0.1373  0.1178
  959MOL0     H32327   8.601   0.165   4.075  1.0065 -2.9892 -1.3196
  959MOL0     H32328   8.329   0.138   4.483 -0.6219 -1.4780  0.6912
  959MOL0     H32329   8.099   0.111   4.589  0.9611 -2.0089 -0.1906
  959MOL0     H32330   7.747   0.276   4.388 -0.0571 -0.0075 -0.9886
  959MOL0     H32331   7.762   0.116   4.313  4.2123 -2.6948  1.2550
  959MOL0     H32332   7.556   0.145   4.455  1.1450  1.0921 -0.4772
  959MOL0     H32333   7.655   0.156   4.602 -3.6833 -1.9534  1.2852
  959MOL0     H32334   7.623  -0.096   4.429  0.7697  1.3251 -1.0459
  959MOL0     H32335   7.762  -0.062   4.544 -0.1345  1.1246  2.6633
  959MOL0     H32336   7.610  -0.036   4.726  1.4455 -0.2630 -0.8099
  959MOL0     H32337   7.614  -0.196   4.662  1.7969  0.1778 -1.5145
  959MOL0     H32338   7.212  -0.103   4.648  0.9285 -0.8762  0.8106
  959MOL0     H32339   7.917   0.265   4.221  2.9569 -0.5561 -4.4984
  959MOL0     H32340   8.203   0.396   4.068  0.3591  0.3537 -3.1288
  959MOL0     H32341   8.176   0.237   4.005  1.8549  1.8118 -1.0031
  959MOL0     H32342   8.039   0.336   4.037  2.3139  4.1233 -1.5833
  960MOL0     O32343  10.556   1.611   8.884 -0.2566 -0.2680  0.0431
  960MOL0     C32344  10.576   1.538   8.980 -0.5247  0.3188  0.2290
  960MOL0     O32345  10.516   1.422   9.008  0.4399  0.0819 -0.2346
  960MOL0     C32346  10.416   1.374   8.927  0.1247 -0.0168 -0.5736
  960MOL0     C32347  10.299   1.325   8.988 -0.4842 -0.4440  0.3617
  960MOL0     C32348  10.209   1.255   8.916  0.7737 -1.4737  0.0407
  960MOL0     C32349  10.212   1.246   8.780  0.1010  0.0264  0.1832
  960MOL0     O32350  10.097   1.184   8.734  0.8307  0.0954 -0.6867
  960MOL0     C32351  10.079   1.175   8.594  0.2818 -0.7234  0.4531
  960MOL0     C32352  10.132   1.041   8.543  0.3379 -0.0062  1.0284
  960MOL0     C32353  10.110   1.028   8.393 -0.5262 -0.2048  0.8608
  960MOL0     C32354  10.176   0.900   8.343 -0.6408  0.0093 -0.4254
  960MOL0     C32355  10.152   0.874   8.197  0.3477 -0.8724 -0.8280
  960MOL0     C32356  10.202   0.741   8.148 -0.0665 -0.2160 -0.2866
  960MOL0     C32357  10.345   0.695   8.184  0.2801  0.0104  0.5300
  960MOL0     C32358  10.362   0.555   8.130  0.3435 -0.3334 -0.5491
  960MOL0     N32359  10.281   0.462   8.220 -0.3155  0.2485  0.4243
  960MOL0     C32360  10.268   0.463   8.358  0.3702 -0.4187  0.3711
  960MOL0     C32361  10.162   0.378   8.389  0.3275 -0.7553  0.0530
  960MOL0     C32362  10.107   0.322   8.521  0.2139  0.4535  0.5543
  960MOL0     C32363  10.142   0.173   8.559  0.3948  0.3581  0.1750
  960MOL0     C32364  10.206   0.169   8.700 -0.6566 -0.6293  0.0417
  960MOL0     C32365  10.349   0.207   8.695 -0.3236 -0.0357  0.3211
  960MOL0     O32366  10.416   0.087   8.651 -0.2445 -0.0835 -0.5814
  960MOL0     C32367  10.549   0.076   8.665  0.2920 -0.1444 -0.1285
  960MOL0     C32368  10.636   0.176   8.709 -0.1743  0.0787  0.2300
  960MOL0     C32369  10.776   0.152   8.728  0.5789  0.2724 -0.4621
  960MOL0     C32370  10.854   0.277   8.760  0.5368 -0.9431  0.0201
  960MOL0     C32371  10.825   0.015   8.704  0.3455  0.4744 -0.5131
  960MOL0     C32372  10.972  -0.024   8.729  0.7540  0.3124  0.6894
  960MOL0     O32373  11.028  -0.133   8.663  0.6963 -0.5310  0.7467
  960MOL0     C32374  11.166  -0.144   8.644 -0.0157  0.4942  0.7453
  960MOL0     C32375  11.236  -0.265   8.631 -0.0359  0.1290 -0.0466
  960MOL0     C32376  11.372  -0.262   8.595  0.6407 -1.6934 -0.1435
  960MOL0     C32377  11.440  -0.138   8.594  1.4866 -0.2576 -0.0891
  960MOL0     O32378  11.578  -0.141   8.588  0.1944  0.5145 -0.7344
  960MOL0     C32379  11.661  -0.251   8.544 -0.2962 -1.1016 -0.0715
  960MOL0     C32380  11.797  -0.198   8.505 -0.3657 -0.6174 -0.6225
  960MOL0     C32381  11.886  -0.300   8.429  0.2203  1.1017  0.0522
  960MOL0     C32382  11.918  -0.421   8.529 -0.3538  0.1058 -0.1177
  960MOL0     C32383  12.039  -0.500   8.480  0.3585  0.7334 -0.1871
  960MOL0     C32384  12.175  -0.432   8.475 -0.0678  0.4662 -0.1725
  960MOL0     C32385  12.290  -0.525   8.430 -0.1524 -0.1156  1.0821
  960MOL0     C32386  12.417  -0.460   8.460 -0.5850 -0.3796  0.3181
  960MOL0    Cl32387  12.553  -0.524   8.368 -0.1929 -0.1564  0.5332
  960MOL0     C32388  11.369  -0.019   8.605 -0.2536 -0.2654  0.3781
  960MOL0     C32389  11.238  -0.021   8.630  0.3235 -0.0218 -0.0437
  960MOL0     O32390  11.032   0.046   8.809  0.3553 -0.0283  0.6893
  960MOL0     C32391  10.733  -0.084   8.658  0.6911 -0.1043  0.0263
  960MOL0     C32392  10.595  -0.052   8.639 -1.1040 -0.1738 -0.3653
  960MOL0     N32393  10.116   0.332   8.267  0.0730  0.6694  0.0062
  960MOL0     N32394  10.183   0.384   8.175 -0.2425 -0.8666  0.3556
  960MOL0     C32395  10.330   1.292   8.713  0.1986 -0.4577 -0.2689
  960MOL0     C32396  10.434   1.361   8.788  1.0301  0.6287 -0.7617
  960MOL0     C32397  10.682   1.594   9.073  0.1738  0.2930  0.0627
  960MOL0     C32398  10.755   1.710   9.040 -0.9678  0.7995  0.8577
  960MOL0     C32399  10.850   1.757   9.127 -0.1880 -0.2848  0.3963
  960MOL0     C32400  10.872   1.702   9.253 -0.0843 -0.5596 -0.1817
  960MOL0     O32401  10.970   1.755   9.334  0.3739 -0.0015 -0.3469
  960MOL0     C32402  10.952   1.758   9.476 -0.5388 -0.0860  0.3627
  960MOL0     C32403  10.815   1.823   9.513 -0.2661  0.9027 -0.1297
  960MOL0     C32404  10.814   1.974   9.480  0.1258 -0.0409 -0.3408
  960MOL0     C32405  10.682   2.045   9.481 -0.6314  0.3638  0.0334
  960MOL0     C32406  10.638   2.043   9.619 -0.1421 -0.0197 -0.0118
  960MOL0     C32407  10.619   2.032   9.734 -0.6870 -0.2216 -0.2331
  960MOL0     C32408  10.815   1.582   9.280  0.6810  0.0444  0.0411
  960MOL0     C32409  10.722   1.524   9.194 -0.6319 -0.9956  0.2186
  960MOL0     C32410  10.673   1.387   9.240 -0.1738  0.3574  0.0077
  960MOL0     H32411  10.289   1.342   9.095 -0.5539 -0.3280  0.3369
  960MOL0     H32412  10.121   1.217   8.967 -2.9704  2.9295 -2.3843
  960MOL0     H32413  10.124   1.263   8.546 -1.2703  0.1621  0.5612
  960MOL0     H32414   9.971   1.181   8.576  0.6596 -1.3199 -2.5934
  960MOL0     H32415  10.236   1.014   8.566  0.7429 -1.8345 -2.4099
  960MOL0     H32416  10.078   0.959   8.590  0.0533 -0.6139 -0.3221
  960MOL0     H32417  10.004   1.022   8.365  0.1775 -0.8910 -2.0806
  960MOL0     H32418  10.145   1.120   8.345  0.3103 -0.5047  0.8923
  960MOL0     H32419  10.285   0.911   8.354 -0.4525 -1.0575 -1.0594
  960MOL0     H32420  10.145   0.813   8.402  0.6601 -0.9775 -1.1377
  960MOL0     H32421  10.204   0.952   8.141 -0.6587  1.3719  1.1588
  960MOL0     H32422  10.045   0.888   8.182  0.1285  1.1223  1.7669
  960MOL0     H32423  10.134   0.667   8.193 -0.7575 -1.4473 -3.1128
  960MOL0     H32424  10.199   0.740   8.038  2.4131 -1.6431 -0.4110
  960MOL0     H32425  10.353   0.709   8.292 -2.4789  0.2562  0.7675
  960MOL0     H32426  10.415   0.764   8.136  0.4706  0.7651  1.8509
  960MOL0     H32427  10.335   0.549   8.024 -1.6702  0.3252 -0.1264
  960MOL0     H32428  10.471   0.545   8.139  0.8427  3.4245 -0.9580
  960MOL0     H32429  10.343   0.495   8.429 -1.8632 -1.6546  3.5579
  960MOL0     H32430   9.999   0.337   8.517  0.2445  0.3732 -1.3575
  960MOL0     H32431  10.143   0.375   8.609 -0.9746 -0.7750  1.8442
  960MOL0     H32432  10.049   0.118   8.577  1.0682 -0.8313  0.0884
  960MOL0     H32433  10.193   0.128   8.473  0.1175  2.4722 -1.1597
  960MOL0     H32434  10.161   0.239   8.771  2.0830 -0.7978  2.0893
  960MOL0     H32435  10.188   0.073   8.751  2.5428 -1.9743 -1.0602
  960MOL0     H32436  10.357   0.290   8.625 -0.4579 -2.0776 -2.2963
  960MOL0     H32437  10.395   0.245   8.787  0.2968 -0.6882  0.2959
  960MOL0     H32438  10.593   0.274   8.722  0.6443  0.6489 -1.2227
  960MOL0     H32439  10.929   0.253   8.837 -0.4758  0.5061  1.5539
  960MOL0     H32440  10.781   0.343   8.808 -0.1485  0.2045 -2.4689
  960MOL0     H32441  10.893   0.335   8.676  0.6379  2.0926  1.9763
  960MOL0     H32442  11.196  -0.363   8.656  1.2286  0.2816  3.0571
  960MOL0     H32443  11.430  -0.354   8.593  1.7765 -1.0107  0.2243
  960MOL0     H32444  11.664  -0.327   8.622  4.0183  1.3372  2.4742
  960MOL0     H32445  11.611  -0.301   8.460 -2.1608 -0.3755  0.5438
  960MOL0     H32446  11.772  -0.112   8.443 -1.0216 -0.1378  0.2803
  960MOL0     H32447  11.842  -0.153   8.594  0.2490 -0.5509 -0.9609
  960MOL0     H32448  11.976  -0.246   8.399 -0.8034  3.7971  1.4576
  960MOL0     H32449  11.829  -0.344   8.347  1.0419  0.0333  0.0323
  960MOL0     H32450  11.833  -0.490   8.537  0.6215 -1.0467  0.5020
  960MOL0     H32451  11.946  -0.390   8.630 -1.1269 -0.5803  0.3263
  960MOL0     H32452  12.054  -0.588   8.544  1.1217 -0.0106 -1.3484
  960MOL0     H32453  12.015  -0.535   8.380  2.0707 -1.3594  0.0633
  960MOL0     H32454  12.189  -0.386   8.573 -0.5721  1.0891 -0.3867
  960MOL0     H32455  12.174  -0.348   8.404  1.3917  0.5350 -0.1419
  960MOL0     H32456  12.282  -0.534   8.321 -1.9587  2.0960  0.9513
  960MOL0     H32457  12.273  -0.618   8.485 -3.3138 -0.0542  0.4305
  960MOL0     H32458  12.448  -0.463   8.564 -0.6796 -1.4782  0.3300
  960MOL0     H32459  12.412  -0.357   8.423  1.2246 -0.1563  0.6093
  960MOL0     H32460  11.416   0.079   8.607  0.5935 -0.6772  1.3191
  960MOL0     H32461  11.200   0.080   8.633  0.5259  0.1588 -2.0184
  960MOL0     H32462  10.773  -0.184   8.643 -1.4023 -0.8541 -0.9343
  960MOL0     H32463  10.538  -0.136   8.602 -1.2111 -0.8710  1.2975
  960MOL0     H32464  10.343   1.296   8.605  3.2871  1.9851  0.0501
  960MOL0     H32465  10.508   1.400   8.719 -1.0344  1.2237 -2.7584
  960MOL0     H32466  10.737   1.763   8.946 -0.5846 -0.3346  0.1234
  960MOL0     H32467  10.918   1.839   9.104  0.1883 -0.7765 -0.2744
  960MOL0     H32468  10.953   1.659   9.525 -2.0881  0.3217  1.2918
  960MOL0     H32469  11.033   1.818   9.518 -0.6912 -0.6316  1.5053
  960MOL0     H32470  10.818   1.816   9.623  0.3160  4.6123  0.2131
  960MOL0     H32471  10.728   1.770   9.474 -0.1079 -0.2258  0.9717
  960MOL0     H32472  10.884   2.034   9.538  0.5939 -0.0911 -0.8399
  960MOL0     H32473  10.859   1.985   9.381  0.1468 -1.7832 -0.5623
  960MOL0     H32474  10.628   1.984   9.408  1.0318 -1.6350  0.3848
  960MOL0     H32475  10.678   2.147   9.440 -2.6257  0.5789  0.6865
  960MOL0     H32476  10.594   2.019   9.838 -0.2628  0.7000 -0.0109
  960MOL0     H32477  10.837   1.531   9.373  0.5912  0.7100  0.4362
  960MOL0     H32478  10.702   1.312   9.166  0.2970 -0.0661  0.6088
  960MOL0     H32479  10.718   1.354   9.334 -1.4276  3.2561  1.7614
  960MOL0     H32480  10.565   1.391   9.255 -0.1433 -0.0255  0.3716
  961MOL0     O32481   1.756   1.685   3.973  0.7165 -0.0800  0.3929
  961MOL0     C32482   1.753   1.712   4.094 -0.2386  0.0200 -0.6004
  961MOL0     O32483   1.658   1.797   4.154 -0.5160  0.5281  0.2099
  961MOL0     C32484   1.545   1.842   4.085 -0.0236  0.3848  0.6697
  961MOL0     C32485   1.433   1.874   4.163  0.1210  0.2904 -0.5034
  961MOL0     C32486   1.320   1.937   4.099  0.2039  1.8237 -0.0169
  961MOL0     C32487   1.308   1.954   3.965  0.0710 -0.8161  0.8458
  961MOL0     O32488   1.196   1.993   3.895 -0.0880  0.2582  0.0987
  961MOL0     C32489   1.094   2.071   3.953 -0.4447 -0.1832  0.6454
  961MOL0     C32490   1.052   2.170   3.843  0.0071 -0.0179 -0.1175
  961MOL0     C32491   1.164   2.262   3.795 -0.4023  0.5692 -0.1337
  961MOL0     C32492   1.100   2.392   3.729  0.1348 -0.0976  0.0123
  961MOL0     C32493   1.197   2.489   3.665 -0.1692 -0.1044  0.3302
  961MOL0     C32494   1.335   2.521   3.732  0.0287 -0.7582 -0.6057
  961MOL0     C32495   1.406   2.634   3.660 -0.0827 -0.1694 -0.6535
  961MOL0     C32496   1.540   2.662   3.729 -0.5706  0.6141 -0.6715
  961MOL0     N32497   1.513   2.712   3.866  0.5697  0.6061 -0.1269
  961MOL0     C32498   1.458   2.838   3.894  0.4359  0.1550 -0.5097
  961MOL0     C32499   1.467   2.863   4.023 -0.2360 -0.3786  0.1007
  961MOL0     C32500   1.442   2.994   4.092 -0.7632 -0.0081 -0.3976
  961MOL0     C32501   1.572   3.080   4.108 -0.3398 -0.7081 -0.7900
  961MOL0     C32502   1.525   3.192   4.213 -0.1108  1.0744 -0.5986
  961MOL0     C32503   1.639   3.278   4.250 -0.5974 -0.7873 -0.1466
  961MOL0     O32504   1.749   3.192   4.305 -0.1451 -0.3131  0.6050
  961MOL0     C32505   1.882   3.225   4.305 -0.0998 -0.4830 -0.1895
  961MOL0     C32506   1.969   3.131   4.352 -0.4926  0.0677  0.0379
  961MOL0     C32507   2.098   3.166   4.379  0.3064 -0.1223 -0.5708
  961MOL0     C32508   2.190   3.066   4.457  0.0053 -0.1891 -0.4428
  961MOL0     C32509   2.152   3.298   4.341  0.3738  0.7858 -0.6236
  961MOL0     C32510   2.296   3.344   4.375 -0.3132 -0.9993 -0.1198
  961MOL0     O32511   2.396   3.246   4.373 -0.1385 -0.5179  0.7182
  961MOL0     C32512   2.528   3.288   4.380 -0.7592 -0.4870  0.1951
  961MOL0     C32513   2.598   3.361   4.278 -0.7848 -0.4270 -0.2311
  961MOL0     C32514   2.738   3.394   4.288  0.1064  0.1817  0.8340
  961MOL0     C32515   2.808   3.353   4.398 -0.7568  0.7075  0.3319
  961MOL0     O32516   2.949   3.357   4.397  0.1174  0.2117  0.4554
  961MOL0     C32517   3.019   3.297   4.507  0.1403 -0.3540 -0.7418
  961MOL0     C32518   3.178   3.300   4.474 -0.1373  0.0844 -0.4362
  961MOL0     C32519   3.221   3.216   4.361 -0.5519 -0.7893  0.5367
  961MOL0     C32520   3.365   3.176   4.386  0.0251 -0.0612 -0.6051
  961MOL0     C32521   3.420   3.090   4.271 -0.3243  0.4683  0.2669
  961MOL0     C32522   3.560   3.042   4.296  0.1408  0.2652 -0.5670
  961MOL0     C32523   3.611   2.940   4.190 -0.1018  0.7468  0.2182
  961MOL0     C32524   3.764   2.916   4.189 -0.2571  0.6438  0.2721
  961MOL0    Cl32525   3.814   2.815   4.326  0.2049 -0.4387  0.1559
  961MOL0     C32526   2.736   3.282   4.498 -0.3712  0.4092 -0.6818
  961MOL0     C32527   2.602   3.252   4.491 -0.1905 -0.6306  0.0370
  961MOL0     O32528   2.317   3.464   4.396 -0.3271  0.6025 -0.0857
  961MOL0     C32529   2.063   3.393   4.297 -0.4222  0.5067 -1.2121
  961MOL0     C32530   1.929   3.357   4.277  0.4067 -0.1803  0.8824
  961MOL0     N32531   1.515   2.746   4.078 -0.2759  0.1271  0.2737
  961MOL0     N32532   1.554   2.660   3.984 -0.2421 -0.3625  0.1614
  961MOL0     C32533   1.421   1.924   3.889  0.5720 -0.6533  0.1349
  961MOL0     C32534   1.534   1.870   3.950  0.4295 -0.3906 -0.6240
  961MOL0     C32535   1.859   1.645   4.173  0.8721 -0.2768 -0.2695
  961MOL0     C32536   1.946   1.559   4.105  0.5415 -0.0694 -0.6367
  961MOL0     C32537   2.041   1.482   4.166 -0.4956 -0.1970  0.3364
  961MOL0     C32538   2.062   1.488   4.299  0.9346  0.2543  0.0628
  961MOL0     O32539   2.160   1.414   4.356 -0.9751 -0.1535 -0.6343
  961MOL0     C32540   2.298   1.470   4.345 -0.0996 -0.4669  0.3312
  961MOL0     C32541   2.324   1.598   4.429  1.1454  0.7264  0.5352
  961MOL0     C32542   2.273   1.592   4.572 -0.0916  0.3523  0.6165
  961MOL0     C32543   2.338   1.687   4.677 -0.7633 -0.0720  0.6592
  961MOL0     C32544   2.298   1.634   4.809  0.1968 -0.1328 -0.2218
  961MOL0     C32545   2.276   1.586   4.923  0.4187  0.6196 -1.1574
  961MOL0     C32546   1.972   1.560   4.376 -0.2503  0.1591 -0.1525
  961MOL0     C32547   1.870   1.637   4.317  0.2277 -0.1022  0.6608
  961MOL0     C32548   1.766   1.697   4.410 -0.4498 -0.7876 -0.7249
  961MOL0     H32549   1.431   1.864   4.271  1.0330 -1.0069 -0.5805
  961MOL0     H32550   1.239   1.970   4.163 -1.4571  0.4775 -1.2930
  961MOL0     H32551   1.130   2.136   4.033 -2.5866  3.4887 -1.1456
  961MOL0     H32552   1.003   2.017   3.981 -1.3455  0.9599 -0.0172
  961MOL0     H32553   1.016   2.118   3.754 -2.5806 -0.7994  1.2884
  961MOL0     H32554   0.969   2.232   3.876 -0.7522 -1.2546  0.3945
  961MOL0     H32555   1.224   2.291   3.882  0.6314  1.4451 -1.1121
  961MOL0     H32556   1.236   2.213   3.729  0.7841  0.6414  1.0787
  961MOL0     H32557   1.021   2.359   3.661 -0.2763 -0.0929  0.4844
  961MOL0     H32558   1.048   2.444   3.810  0.5960 -0.1843  0.3716
  961MOL0     H32559   1.138   2.579   3.650  1.1786  0.6154 -0.8148
  961MOL0     H32560   1.210   2.444   3.566  1.1987  2.4347 -0.7313
  961MOL0     H32561   1.301   2.545   3.834 -3.1900  0.4067 -1.8244
  961MOL0     H32562   1.391   2.428   3.740 -0.0007 -0.7396 -0.0931
  961MOL0     H32563   1.346   2.726   3.653 -0.0740 -0.0979  0.1350
  961MOL0     H32564   1.429   2.597   3.559 -2.1199 -1.5827 -0.6754
  961MOL0     H32565   1.601   2.572   3.742 -2.2668 -0.3176  1.6355
  961MOL0     H32566   1.602   2.721   3.662  0.5502 -0.6640 -0.8019
  961MOL0     H32567   1.430   2.907   3.814 -0.6002 -1.0883 -1.2559
  961MOL0     H32568   1.411   2.959   4.191  1.9622 -0.8474  0.2740
  961MOL0     H32569   1.352   3.042   4.055  0.4021  1.4407 -1.4701
  961MOL0     H32570   1.654   3.023   4.152  0.0114  0.1584 -0.3140
  961MOL0     H32571   1.612   3.131   4.020  0.3177 -1.1463 -0.7552
  961MOL0     H32572   1.451   3.258   4.167 -1.5908  0.1698  0.3918
  961MOL0     H32573   1.490   3.144   4.305  1.5928 -0.8413 -0.8741
  961MOL0     H32574   1.672   3.348   4.173  0.0667  1.0003  1.6956
  961MOL0     H32575   1.614   3.342   4.334  0.7590 -0.6426  0.1795
  961MOL0     H32576   1.930   3.034   4.380  2.4389 -1.7259 -1.4877
  961MOL0     H32577   2.134   2.978   4.489  3.0270 -0.8094  4.0956
  961MOL0     H32578   2.233   3.117   4.544  3.5571 -1.2485 -1.3734
  961MOL0     H32579   2.267   3.029   4.389  0.5281  2.7816 -1.6337
  961MOL0     H32580   2.540   3.386   4.190  1.8234 -1.3260 -2.3176
  961MOL0     H32581   2.782   3.437   4.198 -0.0141 -1.1256  0.1244
  961MOL0     H32582   3.010   3.365   4.593  1.9859  1.9682 -2.2391
  961MOL0     H32583   2.989   3.196   4.538 -0.8791  0.2412  0.2979
  961MOL0     H32584   3.212   3.404   4.463 -1.0970  0.5035  0.5070
  961MOL0     H32585   3.227   3.267   4.566 -0.7034  2.7159  0.8948
  961MOL0     H32586   3.213   3.277   4.271  0.2855 -1.8619 -0.2989
  961MOL0     H32587   3.153   3.131   4.350 -0.4192 -0.9150  0.6925
  961MOL0     H32588   3.369   3.110   4.474  1.0310 -0.9745 -1.3110
  961MOL0     H32589   3.421   3.269   4.398  0.3230 -0.2912 -0.2011
  961MOL0     H32590   3.358   3.001   4.255 -2.1015  1.4243  1.4698
  961MOL0     H32591   3.426   3.152   4.181  0.4749 -0.5447 -0.3990
  961MOL0     H32592   3.564   2.986   4.390  2.4883 -2.9081 -2.3602
  961MOL0     H32593   3.630   3.125   4.307 -0.9697  1.0376  0.9661
  961MOL0     H32594   3.581   2.971   4.090 -0.8600 -2.0399 -0.4991
  961MOL0     H32595   3.558   2.847   4.214 -2.7066  1.9782 -0.3572
  961MOL0     H32596   3.819   3.010   4.198 -2.6360  2.0846  0.5321
  961MOL0     H32597   3.798   2.875   4.093  1.3928 -0.3374  1.2253
  961MOL0     H32598   2.781   3.236   4.586  1.2141  0.4174 -1.4523
  961MOL0     H32599   2.563   3.185   4.566 -0.6831 -1.8270 -1.2409
  961MOL0     H32600   2.095   3.495   4.279  2.1519 -0.1520 -0.6948
  961MOL0     H32601   1.855   3.433   4.253 -0.8072 -0.9988  1.8971
  961MOL0     H32602   1.415   1.924   3.780  1.5430  0.4912  0.0577
  961MOL0     H32603   1.623   1.863   3.887 -0.3718  0.5825 -1.9277
  961MOL0     H32604   1.931   1.537   3.999  0.1903 -2.5580 -0.1402
  961MOL0     H32605   2.106   1.430   4.096 -3.1231 -1.4500 -1.3518
  961MOL0     H32606   2.378   1.397   4.362  1.4830  0.6922 -1.6876
  961MOL0     H32607   2.318   1.502   4.242  1.3784 -0.9136  0.4631
  961MOL0     H32608   2.276   1.683   4.380 -3.1646 -1.6682  0.0571
  961MOL0     H32609   2.433   1.605   4.439  1.1755  2.6666 -0.5858
  961MOL0     H32610   2.165   1.606   4.574 -0.0112  1.1130  0.1927
  961MOL0     H32611   2.306   1.493   4.605  0.9021 -0.1281 -1.5910
  961MOL0     H32612   2.296   1.787   4.663  2.0574  0.9586 -1.2332
  961MOL0     H32613   2.447   1.691   4.674 -0.6820  0.9217  2.6843
  961MOL0     H32614   2.264   1.554   5.025  3.7569  4.0787  0.5652
  961MOL0     H32615   1.982   1.546   4.483  2.1041 -0.7714 -0.4344
  961MOL0     H32616   1.740   1.800   4.385  0.8871  0.3117  1.9889
  961MOL0     H32617   1.679   1.630   4.406 -1.5738  0.4774  1.1312
  961MOL0     H32618   1.805   1.693   4.512 -2.7756  2.8170  0.4711
  962MOL0     O32619   7.813   7.604   4.815 -0.5822 -0.4300 -0.4721
  962MOL0     C32620   7.835   7.482   4.815  0.5940  0.3108  0.1402
  962MOL0     O32621   7.924   7.424   4.738 -0.8774 -0.0930 -0.0609
  962MOL0     C32622   8.027   7.497   4.671 -0.4057  1.6641  0.2568
  962MOL0     C32623   8.113   7.588   4.734  0.0754 -0.9896  0.4290
  962MOL0     C32624   8.223   7.639   4.663 -0.4500 -0.8435  0.3530
  962MOL0     C32625   8.258   7.592   4.538  0.3240 -0.4274 -0.2226
  962MOL0     O32626   8.369   7.641   4.484 -0.8011 -0.0712  0.5128
  962MOL0     C32627   8.369   7.698   4.352  0.9088  0.4644  0.8379
  962MOL0     C32628   8.504   7.692   4.283 -0.2846  0.1012 -0.2321
  962MOL0     C32629   8.510   7.771   4.145 -0.3823  0.5556 -0.5143
  962MOL0     C32630   8.620   7.721   4.069  0.2670 -0.4885 -0.1395
  962MOL0     C32631   8.751   7.776   4.115 -0.1599 -0.2559 -0.2270
  962MOL0     C32632   8.865   7.728   4.016 -0.5782 -0.2491 -1.1903
  962MOL0     C32633   8.996   7.792   4.054 -0.1196 -0.1898  0.0748
  962MOL0     C32634   9.099   7.739   3.968 -0.9308  0.0560  0.3893
  962MOL0     N32635   9.229   7.793   4.008 -0.2103  0.3464 -0.0531
  962MOL0     C32636   9.302   7.722   4.099 -1.2928 -0.2011  0.5404
  962MOL0     C32637   9.435   7.764   4.078  0.2411 -0.8321  0.5758
  962MOL0     C32638   9.559   7.718   4.149  0.5154  0.5500  0.0392
  962MOL0     C32639   9.605   7.575   4.111  0.0963 -0.8403  0.1410
  962MOL0     C32640   9.729   7.541   4.196 -0.5883 -0.3382  0.3443
  962MOL0     C32641   9.804   7.429   4.144 -0.5504  0.3131 -0.3647
  962MOL0     O32642   9.739   7.297   4.158 -1.1795  0.8030 -0.2307
  962MOL0     C32643   9.802   7.195   4.090 -0.2391 -0.8739  0.1439
  962MOL0     C32644   9.932   7.200   4.047 -1.1065  0.6709 -0.9183
  962MOL0     C32645   9.996   7.103   3.964 -0.7264  0.6285  0.2629
  962MOL0     C32646  10.143   7.122   3.926 -0.4457 -0.7768 -0.7390
  962MOL0     C32647   9.911   7.002   3.915 -0.7464  0.7360  1.2809
  962MOL0     C32648   9.959   6.898   3.818  0.2318  0.5803  0.7265
  962MOL0     O32649  10.079   6.842   3.842 -0.0628  0.6686  0.7038
  962MOL0     C32650  10.162   6.782   3.738  0.4705  0.1192 -0.1598
  962MOL0     C32651  10.139   6.785   3.602 -0.1928  0.1276  0.2977
  962MOL0     C32652  10.245   6.753   3.517 -0.0530  0.1360  0.2824
  962MOL0     C32653  10.365   6.703   3.558  0.5331 -0.3897 -0.3270
  962MOL0     O32654  10.457   6.671   3.462  0.6435  0.1183 -0.4900
  962MOL0     C32655  10.576   6.605   3.495  0.4358  0.2287 -0.4244
  962MOL0     C32656  10.632   6.550   3.365 -0.6726  0.0415  0.4256
  962MOL0     C32657  10.758   6.476   3.384 -0.4044  0.7050  0.3272
  962MOL0     C32658  10.809   6.418   3.252 -0.7155 -0.4911 -0.0238
  962MOL0     C32659  10.922   6.317   3.270 -0.5078 -0.1196 -0.7915
  962MOL0     C32660  10.990   6.289   3.133  0.0702 -0.4410  0.1631
  962MOL0     C32661  11.069   6.157   3.121  0.6000 -0.8517 -0.2243
  962MOL0     C32662  11.199   6.164   3.202 -0.5196 -0.1108  0.3378
  962MOL0    Cl32663  11.171   6.113   3.362 -0.0698  0.3838 -0.1280
  962MOL0     C32664  10.386   6.691   3.700 -0.3046  0.8955  0.1444
  962MOL0     C32665  10.287   6.727   3.786  0.4791  0.0582 -0.4428
  962MOL0     O32666   9.880   6.864   3.733 -0.0046 -0.5773  0.5079
  962MOL0     C32667   9.779   6.988   3.970  0.5829 -0.4997 -0.6514
  962MOL0     C32668   9.727   7.088   4.052  0.1946 -0.4752 -0.8203
  962MOL0     N32669   9.420   7.865   3.982  0.2330 -0.8708 -1.1493
  962MOL0     N32670   9.309   7.869   3.931 -0.1248  0.0933  0.5909
  962MOL0     C32671   8.176   7.499   4.477  0.3801 -0.4659  0.5126
  962MOL0     C32672   8.055   7.450   4.535 -0.1899 -0.3975 -0.2866
  962MOL0     C32673   7.737   7.391   4.877  0.3042  0.2296  0.1246
  962MOL0     C32674   7.707   7.417   5.007 -0.2659 -0.0648 -0.7340
  962MOL0     C32675   7.652   7.317   5.084  0.2499  0.0323  0.2783
  962MOL0     C32676   7.595   7.201   5.029 -0.2307 -0.1012  0.1140
  962MOL0     O32677   7.535   7.108   5.114  0.1297 -0.1883  0.4202
  962MOL0     C32678   7.476   7.000   5.035 -0.1033 -0.8801  0.7055
  962MOL0     C32679   7.417   6.898   5.134  0.3891 -0.1589 -0.4723
  962MOL0     C32680   7.379   6.761   5.071  0.2758  0.1725 -0.0992
  962MOL0     C32681   7.300   6.669   5.164  1.2993 -0.1326 -0.1428
  962MOL0     C32682   7.276   6.542   5.101  0.5671 -0.2711 -0.0786
  962MOL0     C32683   7.268   6.425   5.067 -0.7488 -0.6231 -0.7768
  962MOL0     C32684   7.612   7.191   4.884  0.1134 -0.2579  0.2944
  962MOL0     C32685   7.682   7.286   4.814  0.1110 -0.3291  0.1528
  962MOL0     C32686   7.679   7.282   4.666  0.2759  0.7063  0.3158
  962MOL0     H32687   8.093   7.633   4.831 -1.9267 -0.5974 -0.1160
  962MOL0     H32688   8.279   7.716   4.716 -0.6404 -0.8384  0.5472
  962MOL0     H32689   8.334   7.801   4.356  0.7198  0.4731 -0.5701
  962MOL0     H32690   8.289   7.656   4.291  1.4551 -1.1454  1.1666
  962MOL0     H32691   8.576   7.730   4.355  0.2555  0.1065 -0.7704
  962MOL0     H32692   8.526   7.587   4.261 -1.8819  0.1531 -2.5204
  962MOL0     H32693   8.416   7.746   4.094 -0.7490 -0.3336  0.5493
  962MOL0     H32694   8.531   7.878   4.160  0.3004  0.4386 -0.6221
  962MOL0     H32695   8.621   7.611   4.068  1.7411 -0.5013 -1.2547
  962MOL0     H32696   8.613   7.755   3.965  0.1485 -1.5506 -0.4895
  962MOL0     H32697   8.770   7.741   4.218  0.6406 -2.1275 -0.9570
  962MOL0     H32698   8.756   7.885   4.105  2.5811 -0.4789 -2.4743
  962MOL0     H32699   8.873   7.620   4.034 -0.6316  0.3755  3.8895
  962MOL0     H32700   8.849   7.771   3.917  1.1927  0.8166 -1.0625
  962MOL0     H32701   9.018   7.768   4.159  3.8883  1.4463 -0.2380
  962MOL0     H32702   9.000   7.899   4.034  2.6809 -0.2064  0.2244
  962MOL0     H32703   9.102   7.630   3.965  0.9192  0.0892 -0.6287
  962MOL0     H32704   9.071   7.784   3.873 -1.2132 -0.2247  0.3388
  962MOL0     H32705   9.274   7.635   4.158 -0.2533 -0.3980  0.7512
  962MOL0     H32706   9.542   7.742   4.254 -0.1458 -0.4723  0.1745
  962MOL0     H32707   9.641   7.788   4.130  1.1370 -0.6716 -2.0946
  962MOL0     H32708   9.521   7.507   4.130 -0.1666 -1.8384 -3.7042
  962MOL0     H32709   9.624   7.565   4.004 -2.7047  0.0048 -0.5123
  962MOL0     H32710   9.806   7.619   4.198 -0.7163 -0.1318 -1.1383
  962MOL0     H32711   9.685   7.522   4.294 -3.9783 -0.0546 -0.9962
  962MOL0     H32712   9.807   7.446   4.036  1.0654 -1.2466 -0.6229
  962MOL0     H32713   9.906   7.423   4.182  0.0338  2.3698 -1.4551
  962MOL0     H32714   9.996   7.283   4.073  2.7287 -1.9939 -0.9765
  962MOL0     H32715  10.212   7.055   3.977  0.2297  1.1429  1.0074
  962MOL0     H32716  10.181   7.222   3.947  0.7595 -1.3830  0.0521
  962MOL0     H32717  10.147   7.118   3.817 -0.1750 -1.6361 -0.7017
  962MOL0     H32718  10.044   6.825   3.567 -0.6513  0.3633  1.7356
  962MOL0     H32719  10.235   6.760   3.409 -0.9805  3.2789  0.4897
  962MOL0     H32720  10.649   6.674   3.539  1.7138  0.0267 -2.1109
  962MOL0     H32721  10.555   6.520   3.561  1.3046 -0.1384 -0.6091
  962MOL0     H32722  10.560   6.486   3.313 -0.5716 -0.3658  0.7787
  962MOL0     H32723  10.652   6.631   3.295 -2.3776 -0.9600 -1.3023
  962MOL0     H32724  10.731   6.387   3.442 -0.8425 -0.7345 -1.9419
  962MOL0     H32725  10.840   6.528   3.433  0.4592 -1.3510  1.2028
  962MOL0     H32726  10.850   6.505   3.200 -0.1440  0.7744  2.3700
  962MOL0     H32727  10.726   6.387   3.188 -1.0132  2.3481 -1.1514
  962MOL0     H32728  10.995   6.344   3.346 -2.0181  1.8875  0.0549
  962MOL0     H32729  10.870   6.230   3.312  1.6934 -0.9385  0.3685
  962MOL0     H32730  11.056   6.370   3.100 -0.8815  1.1456  1.9429
  962MOL0     H32731  10.910   6.281   3.058  0.7280 -0.1975 -0.5813
  962MOL0     H32732  11.098   6.151   3.016  2.0071 -0.1465  0.1077
  962MOL0     H32733  10.999   6.075   3.140  1.3436 -1.6424 -0.8230
  962MOL0     H32734  11.224   6.270   3.195  0.4796 -0.3680 -0.0318
  962MOL0     H32735  11.269   6.099   3.149 -2.1740 -1.1743 -0.6531
  962MOL0     H32736  10.483   6.666   3.743  0.1494  2.5023  0.0945
  962MOL0     H32737  10.295   6.733   3.894  2.7950 -0.8873 -0.5176
  962MOL0     H32738   9.708   6.909   3.951 -2.9151  2.3066 -0.4836
  962MOL0     H32739   9.624   7.076   4.085  0.2093 -1.0821 -0.9779
  962MOL0     H32740   8.198   7.459   4.379 -2.4176  5.3945 -3.0687
  962MOL0     H32741   7.992   7.379   4.483 -0.2180  0.3190 -1.2581
  962MOL0     H32742   7.747   7.504   5.057 -0.9148 -0.6361  0.8346
  962MOL0     H32743   7.640   7.324   5.192 -1.2314 -0.1888  0.1495
  962MOL0     H32744   7.392   7.041   4.980 -0.4241 -2.1168  0.2348
  962MOL0     H32745   7.546   6.951   4.967 -1.4229  0.1755 -1.5207
  962MOL0     H32746   7.331   6.943   5.183  1.8137  1.9092  0.2637
  962MOL0     H32747   7.497   6.873   5.205  1.1332  0.5198 -1.0529
  962MOL0     H32748   7.312   6.797   4.993 -0.7191  2.2491  1.6036
  962MOL0     H32749   7.469   6.716   5.028 -0.0812  3.1418 -4.6443
  962MOL0     H32750   7.195   6.699   5.176  0.9502 -1.2897 -0.1524
  962MOL0     H32751   7.352   6.654   5.259  2.7027 -0.5534 -0.9376
  962MOL0     H32752   7.266   6.322   5.037  2.0603 -1.7544  2.3208
  962MOL0     H32753   7.557   7.118   4.826  0.5242  1.4588 -2.4205
  962MOL0     H32754   7.779   7.278   4.622 -0.2590 -1.2347 -0.8578
  962MOL0     H32755   7.634   7.197   4.614 -0.1495  0.1167  1.5821
  962MOL0     H32756   7.636   7.375   4.628  1.1550  1.3030  0.7722
  963MOL0     O32757   7.873   3.699   6.332  0.2919  0.2003  0.1448
  963MOL0     C32758   7.852   3.718   6.211 -0.5120 -0.5392 -0.4171
  963MOL0     O32759   7.858   3.845   6.156  0.0244  0.1401 -0.2351
  963MOL0     C32760   7.902   3.948   6.242  0.7907  0.7373 -1.0971
  963MOL0     C32761   8.026   3.944   6.310  0.1122 -0.3445  0.1652
  963MOL0     C32762   8.081   4.067   6.362  0.1173  0.5824  0.3946
  963MOL0     C32763   8.013   4.187   6.346  0.0170  0.9191 -0.1952
  963MOL0     O32764   8.076   4.292   6.398 -0.4408 -0.0545 -0.3166
  963MOL0     C32765   8.020   4.426   6.403  0.2261  0.5214  0.0001
  963MOL0     C32766   8.105   4.538   6.466 -0.2372 -0.4384 -1.0369
  963MOL0     C32767   8.068   4.574   6.611  0.2280  0.5018 -0.4325
  963MOL0     C32768   8.089   4.457   6.714  1.1060 -0.0760 -0.0282
  963MOL0     C32769   8.234   4.424   6.763 -0.4752  1.0736  1.1601
  963MOL0     C32770   8.287   4.530   6.863  0.1953 -0.6455 -0.2264
  963MOL0     C32771   8.436   4.521   6.902  0.7616  0.2260 -0.2545
  963MOL0     C32772   8.467   4.405   6.991  0.2778  0.2770 -0.5682
  963MOL0     N32773   8.609   4.399   7.034 -0.0458 -0.1260  1.6353
  963MOL0     C32774   8.658   4.432   7.157  0.0234  0.9229  0.2625
  963MOL0     C32775   8.795   4.425   7.140  0.3028  0.4815  0.9537
  963MOL0     C32776   8.905   4.428   7.243 -0.0585 -0.7967 -0.6927
  963MOL0     C32777   8.920   4.292   7.301 -0.0304  0.7418 -0.3110
  963MOL0     C32778   8.987   4.182   7.213 -0.3246  0.0135 -0.1331
  963MOL0     C32779   9.122   4.220   7.147 -0.1118 -0.2590 -0.1022
  963MOL0     O32780   9.206   4.295   7.234  0.2934  0.3458 -0.0633
  963MOL0     C32781   9.329   4.249   7.223 -0.4899 -0.0251 -0.3251
  963MOL0     C32782   9.427   4.324   7.150 -0.1438 -0.3663  0.0701
  963MOL0     C32783   9.562   4.283   7.129  0.4276  0.2177  0.4585
  963MOL0     C32784   9.642   4.377   7.053  0.2493 -0.7154  0.5281
  963MOL0     C32785   9.596   4.153   7.177 -0.0840 -0.2706 -0.3001
  963MOL0     C32786   9.731   4.098   7.156 -0.3117  0.7000  0.4632
  963MOL0     O32787   9.744   3.960   7.162  0.3746  0.2476 -0.4603
  963MOL0     C32788   9.876   3.924   7.134  0.3427  0.4142 -0.4286
  963MOL0     C32789   9.975   3.918   7.232 -0.2101 -1.0046 -0.3495
  963MOL0     C32790  10.109   3.893   7.191 -0.1640  0.2114  0.6336
  963MOL0     C32791  10.141   3.848   7.064  0.0689  0.4642 -0.0209
  963MOL0     O32792  10.271   3.828   7.024  0.1781 -1.2925  0.0037
  963MOL0     C32793  10.300   3.772   6.900  0.4696  0.1800 -0.4824
  963MOL0     C32794  10.444   3.720   6.901 -0.2270  0.1178 -0.4718
  963MOL0     C32795  10.462   3.629   6.777 -1.1076  0.4324  1.0089
  963MOL0     C32796  10.599   3.659   6.720 -0.6253  0.1736  0.3256
  963MOL0     C32797  10.625   3.582   6.594  1.1285 -0.3500  0.5662
  963MOL0     C32798  10.767   3.599   6.543  0.0306  0.2386 -0.0042
  963MOL0     C32799  10.775   3.732   6.452  1.2109  0.5330 -0.5068
  963MOL0     C32800  10.926   3.770   6.447  0.3642 -0.2937 -0.0401
  963MOL0    Cl32801  10.994   3.664   6.322  0.2342  0.0942  0.6087
  963MOL0     C32802  10.033   3.837   6.973 -0.2854  0.4200 -0.2433
  963MOL0     C32803   9.905   3.881   7.002  0.2386  0.4344 -0.5035
  963MOL0     O32804   9.822   4.168   7.132  0.3189 -0.3299 -0.3521
  963MOL0     C32805   9.501   4.074   7.248  0.5797  0.3473 -0.6337
  963MOL0     C32806   9.371   4.123   7.277 -0.2023 -0.1128 -0.4237
  963MOL0     N32807   8.829   4.397   7.012  0.8046  0.4683 -0.1076
  963MOL0     N32808   8.715   4.371   6.955 -0.7765  0.3559 -0.3779
  963MOL0     C32809   7.898   4.189   6.277  0.2766 -0.1890 -0.0057
  963MOL0     C32810   7.839   4.072   6.228 -0.4182  1.0307 -0.0711
  963MOL0     C32811   7.812   3.601   6.131  0.3056  1.2949 -0.0518
  963MOL0     C32812   7.765   3.484   6.198 -0.1135 -0.7272 -0.3382
  963MOL0     C32813   7.708   3.378   6.126 -0.3246  0.1683  0.1187
  963MOL0     C32814   7.706   3.377   5.988 -0.3230 -0.9392 -0.2020
  963MOL0     O32815   7.645   3.277   5.923 -0.5036  0.1573  0.3049
  963MOL0     C32816   7.676   3.248   5.788 -0.1272 -0.0043 -0.4382
  963MOL0     C32817   7.689   3.105   5.752  0.2289 -0.2296  0.5220
  963MOL0     C32818   7.769   3.008   5.842  0.8913 -0.8014 -0.1832
  963MOL0     C32819   7.743   2.863   5.794 -0.2958 -0.2613  0.6792
  963MOL0     C32820   7.785   2.773   5.890  0.2919 -0.0053  0.0375
  963MOL0     C32821   7.804   2.680   5.969  0.5467 -0.0582 -0.2294
  963MOL0     C32822   7.769   3.480   5.923  0.3492 -1.0250 -0.1857
  963MOL0     C32823   7.819   3.594   5.993 -0.6824 -0.3746  1.0007
  963MOL0     C32824   7.877   3.703   5.899  1.0132  0.2417 -0.7446
  963MOL0     H32825   8.091   3.858   6.320 -0.8937 -0.9167  2.3516
  963MOL0     H32826   8.180   4.061   6.404  1.8150 -2.9091 -3.4101
  963MOL0     H32827   7.930   4.440   6.465  0.4668  2.7624 -0.0546
  963MOL0     H32828   7.983   4.446   6.302  1.0019 -0.0790 -0.4049
  963MOL0     H32829   8.212   4.520   6.452  0.3618  1.7585  0.0820
  963MOL0     H32830   8.099   4.631   6.409  0.5292  0.3417  0.0973
  963MOL0     H32831   8.114   4.666   6.648 -0.7271  1.2895 -1.1338
  963MOL0     H32832   7.963   4.603   6.620  0.2664  0.3204  0.7638
  963MOL0     H32833   8.027   4.490   6.798  0.8893 -0.3695 -0.0739
  963MOL0     H32834   8.042   4.368   6.672 -1.2719  1.7526 -1.4681
  963MOL0     H32835   8.297   4.418   6.674  0.4966 -1.1772  1.9480
  963MOL0     H32836   8.232   4.323   6.805  2.1826 -0.2451 -1.4955
  963MOL0     H32837   8.260   4.627   6.822 -3.1414 -0.3685  2.1738
  963MOL0     H32838   8.228   4.548   6.954 -0.8955 -2.3019 -0.5470
  963MOL0     H32839   8.458   4.616   6.951  0.4713  0.3295 -0.3254
  963MOL0     H32840   8.508   4.514   6.821  1.0542  2.1778 -0.2081
  963MOL0     H32841   8.402   4.411   7.079 -2.3349  3.5665 -2.4937
  963MOL0     H32842   8.446   4.317   6.929  0.2909  0.3890 -0.7299
  963MOL0     H32843   8.613   4.445   7.255 -0.0617  2.7974  0.0104
  963MOL0     H32844   8.882   4.494   7.327 -0.7019 -1.1553 -0.5754
  963MOL0     H32845   8.997   4.456   7.191 -0.5427 -0.8056 -1.5726
  963MOL0     H32846   8.988   4.295   7.386  1.0541 -1.7862 -1.0193
  963MOL0     H32847   8.823   4.252   7.331 -2.0870  2.8776 -3.4911
  963MOL0     H32848   8.992   4.092   7.274 -1.6054  0.6504  0.9550
  963MOL0     H32849   8.916   4.161   7.132  1.6516  1.8873 -2.5551
  963MOL0     H32850   9.164   4.133   7.095 -1.3635 -0.5978 -0.5860
  963MOL0     H32851   9.102   4.295   7.070 -0.1651  2.8760  2.7234
  963MOL0     H32852   9.394   4.417   7.105  0.4616  0.6806  1.7154
  963MOL0     H32853   9.607   4.476   7.085 -2.4041 -1.7132  0.9549
  963MOL0     H32854   9.620   4.372   6.946 -0.1800  1.4490  0.4602
  963MOL0     H32855   9.752   4.377   7.057  0.3859 -0.2484 -1.7483
  963MOL0     H32856   9.942   3.940   7.333  0.8696 -0.0498 -0.1850
  963MOL0     H32857  10.191   3.890   7.262  0.3443  0.0982  0.0555
  963MOL0     H32858  10.227   3.692   6.887 -1.7675  1.6673  1.9147
  963MOL0     H32859  10.294   3.856   6.830 -2.1654 -0.3148 -0.9400
  963MOL0     H32860  10.508   3.808   6.894 -0.3083  0.3354  1.2352
  963MOL0     H32861  10.473   3.677   6.997  0.1574  1.0234 -0.1753
  963MOL0     H32862  10.390   3.655   6.699 -0.6163  0.6278  0.6187
  963MOL0     H32863  10.448   3.522   6.795  1.8084 -0.6539 -2.0846
  963MOL0     H32864  10.674   3.631   6.794 -0.1986  2.5518  0.8570
  963MOL0     H32865  10.599   3.766   6.699 -0.9182 -0.1350 -1.4433
  963MOL0     H32866  10.600   3.476   6.604  1.1907 -0.5483 -1.1005
  963MOL0     H32867  10.553   3.614   6.518 -0.2597 -0.9219  1.5886
  963MOL0     H32868  10.801   3.511   6.488 -0.6236 -0.4536  0.6699
  963MOL0     H32869  10.828   3.615   6.632  2.6867 -0.2902 -1.6127
  963MOL0     H32870  10.718   3.816   6.490  2.0118  0.0462  1.9617
  963MOL0     H32871  10.749   3.710   6.348  2.4130 -1.2242 -0.4919
  963MOL0     H32872  10.981   3.761   6.540  3.6517  0.2283 -1.8012
  963MOL0     H32873  10.948   3.871   6.413  1.1567 -0.4614 -0.0264
  963MOL0     H32874  10.059   3.795   6.876  2.1162 -0.5794  0.7549
  963MOL0     H32875   9.826   3.864   6.930 -0.7261 -1.9101  0.9757
  963MOL0     H32876   9.529   3.982   7.299 -1.7426  0.3642  0.8340
  963MOL0     H32877   9.296   4.066   7.331  0.0244 -3.2043 -3.0281
  963MOL0     H32878   7.863   4.288   6.252 -0.8765 -0.9976 -1.7730
  963MOL0     H32879   7.749   4.086   6.169  0.3086  2.9705 -0.8079
  963MOL0     H32880   7.750   3.464   6.303 -5.4092 -2.0420 -1.0762
  963MOL0     H32881   7.658   3.299   6.181 -1.8913  1.4333  0.5767
  963MOL0     H32882   7.598   3.296   5.728 -2.0637 -2.2900  0.0847
  963MOL0     H32883   7.774   3.289   5.761  0.6130  0.6042  2.7890
  963MOL0     H32884   7.738   3.102   5.654  3.7013  0.6901  2.0476
  963MOL0     H32885   7.591   3.063   5.731 -0.7312  2.6339 -1.2934
  963MOL0     H32886   7.875   3.031   5.831  1.1874 -2.4066 -0.9226
  963MOL0     H32887   7.748   3.020   5.949  3.2435  0.9917  0.1652
  963MOL0     H32888   7.789   2.854   5.696 -0.0367  0.7559  0.6997
  963MOL0     H32889   7.639   2.833   5.776  0.6314 -1.3593 -3.9831
  963MOL0     H32890   7.803   2.604   6.044 -2.3947 -0.7434 -0.8620
  963MOL0     H32891   7.770   3.488   5.815 -0.2885  0.2678 -0.1173
  963MOL0     H32892   7.817   3.792   5.920 -0.4464 -0.5154 -1.5331
  963MOL0     H32893   7.985   3.713   5.900  1.1482 -0.5093 -3.1677
  963MOL0     H32894   7.841   3.697   5.796 -1.0945  2.1736 -0.2040
  964MOL0     O32895   2.111  10.259  10.298 -0.3329 -0.3826 -0.2414
  964MOL0     C32896   1.995  10.240  10.313  0.2840 -0.3586  0.3008
  964MOL0     O32897   1.908  10.322  10.366  0.3479 -0.7101 -0.0425
  964MOL0     C32898   1.945  10.443  10.421 -0.0639 -0.3852 -0.0402
  964MOL0     C32899   1.891  10.563  10.381 -0.0622 -0.1679  0.0428
  964MOL0     C32900   1.932  10.685  10.446  0.1598  0.1738 -0.6819
  964MOL0     C32901   2.035  10.677  10.542  0.5318 -0.1819  0.1489
  964MOL0     O32902   2.093  10.786  10.597 -0.2871 -0.3667  0.2472
  964MOL0     C32903   2.023  10.908  10.589  0.8732 -0.3148 -0.0879
  964MOL0     C32904   2.119  11.011  10.538  0.0611  0.1900  0.0372
  964MOL0     C32905   2.236  11.035  10.636  0.3987 -0.0389  0.7807
  964MOL0     C32906   2.322  11.147  10.574 -0.2143  0.5647  0.5259
  964MOL0     C32907   2.459  11.168  10.656 -0.0884 -0.4021  0.0667
  964MOL0     C32908   2.551  11.261  10.589  0.6317 -0.0304 -0.0029
  964MOL0     C32909   2.662  11.298  10.686  1.0119 -1.0142 -0.4692
  964MOL0     C32910   2.744  11.178  10.739 -0.2353 -0.3720  0.3533
  964MOL0     N32911   2.855  11.217  10.825  0.5238  0.0416  0.2788
  964MOL0     C32912   2.891  11.345  10.879 -0.3667 -0.5088  0.2523
  964MOL0     C32913   3.004  11.320  10.955 -0.6237  0.0308  0.9402
  964MOL0     C32914   3.092  11.419  11.021 -0.2108  0.7333 -0.7332
  964MOL0     C32915   3.103  11.381  11.169  0.9578  0.2046  0.0221
  964MOL0     C32916   3.150  11.502  11.262  0.1280  0.3720  0.9974
  964MOL0     C32917   3.301  11.502  11.236 -0.2350 -0.2067  0.0092
  964MOL0     O32918   3.360  11.398  11.313  0.3995 -0.0287 -0.1488
  964MOL0     C32919   3.488  11.374  11.292 -0.2937  1.0244  0.4019
  964MOL0     C32920   3.543  11.296  11.190 -0.0229 -0.1656  0.1842
  964MOL0     C32921   3.677  11.272  11.172 -0.2205 -0.3122  0.2377
  964MOL0     C32922   3.709  11.180  11.058 -0.3092 -0.0249  0.0064
  964MOL0     C32923   3.764  11.334  11.263 -0.2262  0.3480  0.3749
  964MOL0     C32924   3.912  11.345  11.248 -0.8222 -0.1364  0.9815
  964MOL0     O32925   3.994  11.347  11.357 -0.6256 -0.7811  0.2437
  964MOL0     C32926   4.133  11.377  11.347 -0.9269  0.2677 -0.2993
  964MOL0     C32927   4.223  11.340  11.249  0.3510  0.5545  0.6069
  964MOL0     C32928   4.367  11.350  11.266  0.1066 -0.4096  0.5956
  964MOL0     C32929   4.424  11.395  11.386 -0.5226 -0.8081  0.0429
  964MOL0     O32930   4.556  11.423  11.375 -0.0394 -0.4661 -0.3263
  964MOL0     C32931   4.623  11.454  11.494 -0.5194 -0.3494  0.4423
  964MOL0     C32932   4.779  11.464  11.468 -0.5468 -0.2389  0.2084
  964MOL0     C32933   4.836  11.323  11.434 -0.4292  0.2044 -0.1890
  964MOL0     C32934   4.987  11.337  11.384  0.0801 -0.0853 -0.7581
  964MOL0     C32935   5.088  11.381  11.490 -0.8850  0.7274  0.0189
  964MOL0     C32936   5.115  11.262  11.594 -0.4840 -0.4249 -0.4265
  964MOL0     C32937   5.206  11.303  11.708 -0.4390  0.0274 -0.8298
  964MOL0     C32938   5.206  11.202  11.820  0.2992  0.3725 -0.1929
  964MOL0    Cl32939   5.331  11.238  11.953  0.2456  0.2475  0.1873
  964MOL0     C32940   4.332  11.441  11.488 -0.3880 -0.2893 -0.5386
  964MOL0     C32941   4.192  11.435  11.474 -0.0499  0.8444  0.6882
  964MOL0     O32942   3.958  11.347  11.133  0.2589  0.0310  0.2278
  964MOL0     C32943   3.712  11.401  11.377  0.2557  0.1294 -0.0687
  964MOL0     C32944   3.579  11.426  11.390 -0.4422 -0.3398  0.6036
  964MOL0     N32945   3.043  11.191  10.932  0.8920  0.1614  0.1172
  964MOL0     N32946   2.959  11.132  10.849  0.9393  0.4260  1.0522
  964MOL0     C32947   2.091  10.557  10.580 -0.9280  0.1698  0.0759
  964MOL0     C32948   2.036  10.432  10.535 -0.0202  0.2812 -0.0973
  964MOL0     C32949   1.941  10.113  10.290 -0.4727 -0.2079  0.3067
  964MOL0     C32950   1.953  10.016  10.393  0.5606  0.3077  0.0264
  964MOL0     C32951   1.918   9.885  10.370 -0.3440 -0.0218 -0.4409
  964MOL0     C32952   1.876   9.838  10.242  0.3757  0.0911  0.5561
  964MOL0     O32953   1.849   9.712  10.201 -0.1717  0.4183  0.0839
  964MOL0     C32954   1.761   9.638  10.279 -0.1549  0.7908  0.1534
  964MOL0     C32955   1.834   9.525  10.359 -0.4356 -0.4183  1.2895
  964MOL0     C32956   1.848   9.404  10.259  0.6913  0.5280  1.0500
  964MOL0     C32957   1.952   9.429  10.139  0.4765  0.1409  0.0750
  964MOL0     C32958   2.094   9.442  10.187 -0.1127 -0.0214 -0.3323
  964MOL0     C32959   2.211   9.464  10.213  0.0284  1.1455  0.5222
  964MOL0     C32960   1.871   9.928  10.140  0.8419  0.0482 -0.0867
  964MOL0     C32961   1.908  10.063  10.153  0.9444 -1.2370  0.6174
  964MOL0     C32962   1.905  10.160  10.029  0.0854  1.2352  0.0546
  964MOL0     H32963   1.819  10.564  10.299 -0.9717  1.6639  0.7919
  964MOL0     H32964   1.881  10.771  10.406  2.0076  0.9412 -1.4736
  964MOL0     H32965   1.986  10.933  10.689 -0.0802 -2.5008  0.1705
  964MOL0     H32966   1.935  10.907  10.523  1.5224 -4.2305 -1.1508
  964MOL0     H32967   2.172  10.965  10.454  0.1016  1.1086 -0.4625
  964MOL0     H32968   2.063  11.097  10.500 -0.2993 -1.2693 -3.0858
  964MOL0     H32969   2.199  11.084  10.727  1.4815  1.1693  0.5988
  964MOL0     H32970   2.293  10.946  10.663 -1.6242 -0.7293  3.1182
  964MOL0     H32971   2.355  11.125  10.473 -2.3488 -1.8212  0.2386
  964MOL0     H32972   2.260  11.237  10.565 -0.1271  0.4447 -1.5448
  964MOL0     H32973   2.500  11.067  10.669  1.3448  0.3567  1.9643
  964MOL0     H32974   2.434  11.205  10.756  3.5474 -0.0369  0.9605
  964MOL0     H32975   2.593  11.229  10.493 -0.5487 -0.3631 -0.4302
  964MOL0     H32976   2.498  11.355  10.570  1.9423  0.8779  0.6235
  964MOL0     H32977   2.619  11.363  10.763 -0.9942 -1.5741 -1.0630
  964MOL0     H32978   2.726  11.361  10.623 -0.9254  1.2351 -0.3408
  964MOL0     H32979   2.678  11.108  10.790 -2.6487 -0.0470 -2.0919
  964MOL0     H32980   2.786  11.133  10.648  0.8801 -1.5656  1.4362
  964MOL0     H32981   2.848  11.444  10.863 -2.3367 -1.3904 -0.1952
  964MOL0     H32982   3.043  11.517  11.015 -0.9034  0.7419  2.8015
  964MOL0     H32983   3.189  11.418  10.970  0.3297  0.2645  0.2889
  964MOL0     H32984   3.005  11.345  11.202  1.1337 -1.3715 -1.0410
  964MOL0     H32985   3.173  11.297  11.178  0.6269  0.0049  0.9299
  964MOL0     H32986   3.117  11.602  11.233  1.2211  0.5268  0.2254
  964MOL0     H32987   3.128  11.493  11.369 -1.3569  1.5049  0.8211
  964MOL0     H32988   3.317  11.484  11.129  1.9474  1.6686 -0.0466
  964MOL0     H32989   3.348  11.595  11.267  2.8668 -1.7106  0.1862
  964MOL0     H32990   3.474  11.251  11.120 -1.6301  0.0443  1.5730
  964MOL0     H32991   3.643  11.094  11.074 -1.2632  1.3249  4.7521
  964MOL0     H32992   3.808  11.139  11.076 -0.3668  0.7180  2.3028
  964MOL0     H32993   3.687  11.235  10.966  0.5460  1.1094  0.4567
  964MOL0     H32994   4.190  11.295  11.156 -0.7571 -0.6924  1.5469
  964MOL0     H32995   4.413  11.330  11.170 -4.4732 -0.1740 -1.9498
  964MOL0     H32996   4.579  11.551  11.520  1.7484  1.1808 -1.0906
  964MOL0     H32997   4.596  11.379  11.570 -1.7263  0.2278  0.6084
  964MOL0     H32998   4.812  11.541  11.397  0.8619  0.2379  1.3216
  964MOL0     H32999   4.823  11.497  11.563 -2.1785  0.7653  0.6446
  964MOL0     H33000   4.785  11.272  11.352  0.9018 -1.3244 -0.1064
  964MOL0     H33001   4.837  11.251  11.517  5.2297  0.8723  0.6633
  964MOL0     H33002   4.988  11.415  11.307 -0.6452  0.5704 -0.1301
  964MOL0     H33003   5.020  11.238  11.352 -1.8122 -0.7738 -0.7382
  964MOL0     H33004   5.183  11.395  11.438 -2.0010  0.7337 -2.1480
  964MOL0     H33005   5.052  11.472  11.540 -1.2956  0.5528  0.0494
  964MOL0     H33006   5.173  11.187  11.539  3.1219  0.4634  1.8547
  964MOL0     H33007   5.019  11.230  11.636 -0.4241  0.5027  0.4525
  964MOL0     H33008   5.178  11.406  11.731 -2.1614 -0.9461  1.9399
  964MOL0     H33009   5.308  11.310  11.669  0.0411  1.7780  0.6143
  964MOL0     H33010   5.213  11.096  11.792  0.0621 -0.4958  2.7168
  964MOL0     H33011   5.115  11.218  11.879  0.0895  1.9330 -0.9204
  964MOL0     H33012   4.372  11.461  11.587  0.6301 -5.3014  0.3248
  964MOL0     H33013   4.129  11.476  11.552  1.4381  3.3591  0.6831
  964MOL0     H33014   3.784  11.449  11.444  2.2240 -1.1398 -1.1670
  964MOL0     H33015   3.539  11.492  11.466 -0.0370  1.5077 -0.7354
  964MOL0     H33016   2.171  10.550  10.653 -2.9720 -0.0533  2.4549
  964MOL0     H33017   2.083  10.340  10.569 -2.1475 -0.7747  0.0931
  964MOL0     H33018   1.997  10.051  10.486  0.2413  1.5777 -0.2766
  964MOL0     H33019   1.944   9.814  10.448  0.2905  0.4556 -0.2159
  964MOL0     H33020   1.702   9.706  10.341 -0.1084 -1.1172  2.4204
  964MOL0     H33021   1.681   9.588  10.223  1.1163  1.3792 -2.3231
  964MOL0     H33022   1.774   9.486  10.442 -0.0450 -1.1947  1.2219
  964MOL0     H33023   1.931   9.559  10.396  1.6340 -2.5352 -1.7195
  964MOL0     H33024   1.883   9.317  10.316 -1.0575 -1.6454 -0.9792
  964MOL0     H33025   1.750   9.384  10.214  1.4581 -0.6424 -0.2003
  964MOL0     H33026   1.932   9.513  10.072 -0.9374  0.6917  1.1433
  964MOL0     H33027   1.940   9.336  10.082 -2.5113 -0.7195  1.8738
  964MOL0     H33028   2.314   9.487  10.228 -0.0056  0.5943  1.7014
  964MOL0     H33029   1.845   9.889  10.043  3.1017  0.8628 -1.1041
  964MOL0     H33030   1.920  10.264  10.059 -0.1312  0.8828  1.4735
  964MOL0     H33031   1.980  10.127   9.957  0.0312 -0.3517  0.6794
  964MOL0     H33032   1.806  10.142   9.986  0.3432  2.9585 -1.3726
  965MOL0     O33033   6.463  11.343   6.687 -0.8916 -0.0333 -0.4784
  965MOL0     C33034   6.448  11.439   6.616  0.3745 -0.0240 -0.5252
  965MOL0     O33035   6.541  11.478   6.518  0.8309 -0.6812 -0.0513
  965MOL0     C33036   6.667  11.420   6.508 -0.1649 -0.4306 -0.0359
  965MOL0     C33037   6.707  11.377   6.386  0.3605 -0.0600 -0.1821
  965MOL0     C33038   6.833  11.306   6.368 -0.0371 -0.0442  0.1508
  965MOL0     C33039   6.921  11.294   6.474  0.1478 -0.1517 -0.2738
  965MOL0     O33040   7.047  11.248   6.463  0.2653  0.1388  0.2162
  965MOL0     C33041   7.135  11.292   6.357  0.4735  0.3217  0.3634
  965MOL0     C33042   7.288  11.288   6.397  0.1234 -0.0452 -0.3530
  965MOL0     C33043   7.312  11.294   6.552  0.1376 -0.7451 -0.0367
  965MOL0     C33044   7.298  11.436   6.597  0.4255 -0.2328  0.9319
  965MOL0     C33045   7.311  11.455   6.748 -0.6353 -0.5641  0.4197
  965MOL0     C33046   7.360  11.588   6.787 -0.2742 -0.9485 -0.1287
  965MOL0     C33047   7.357  11.609   6.944 -0.1203  0.0550  0.0905
  965MOL0     C33048   7.379  11.759   6.981 -0.5132 -0.0459 -0.6543
  965MOL0     N33049   7.396  11.792   7.127 -1.4119 -0.1227 -0.3797
  965MOL0     C33050   7.468  11.711   7.214 -0.4093 -0.3055 -0.0111
  965MOL0     C33051   7.424  11.750   7.337  0.7470 -0.7673  0.3825
  965MOL0     C33052   7.453  11.681   7.463  0.9589 -0.1528  0.4371
  965MOL0     C33053   7.597  11.720   7.502  0.1959  0.7443 -1.2005
  965MOL0     C33054   7.610  11.664   7.648  0.3073 -0.0169  0.2391
  965MOL0     C33055   7.734  11.716   7.715  0.5675 -0.2765 -0.5287
  965MOL0     O33056   7.844  11.643   7.668 -0.1729  0.5106  0.7721
  965MOL0     C33057   7.964  11.663   7.732  0.5553 -0.2044 -0.1484
  965MOL0     C33058   8.071  11.584   7.687  0.3211  0.6824  0.0053
  965MOL0     C33059   8.203  11.592   7.733 -0.2234 -0.3516 -0.5572
  965MOL0     C33060   8.294  11.492   7.678 -0.4186  0.0520  0.5244
  965MOL0     C33061   8.230  11.693   7.833 -0.2888  0.1489 -0.1799
  965MOL0     C33062   8.370  11.709   7.887  0.6468  0.6144 -0.1337
  965MOL0     O33063   8.463  11.641   7.811 -0.7474 -0.5613 -0.6809
  965MOL0     C33064   8.599  11.635   7.831  0.0521  0.4539  0.1613
  965MOL0     C33065   8.676  11.739   7.851 -0.0081 -0.6927 -0.0355
  965MOL0     C33066   8.820  11.721   7.846  0.1130  0.2174 -0.4397
  965MOL0     C33067   8.877  11.596   7.848  0.6907  0.5726  0.8080
  965MOL0     O33068   9.014  11.587   7.858  0.4868 -0.1240  0.3825
  965MOL0     C33069   9.080  11.475   7.819 -0.8534 -0.0345  0.3091
  965MOL0     C33070   9.219  11.513   7.770 -0.0577  0.0119  0.5167
  965MOL0     C33071   9.300  11.588   7.879 -1.3328 -0.3622  0.1268
  965MOL0     C33072   9.450  11.621   7.841  0.0028 -0.0453 -0.2279
  965MOL0     C33073   9.524  11.689   7.959  0.7106 -0.2776  0.6288
  965MOL0     C33074   9.678  11.674   7.937  0.9244 -0.1021  0.0821
  965MOL0     C33075   9.766  11.722   8.063  0.1236  0.1943 -0.4806
  965MOL0     C33076   9.762  11.871   8.109 -0.5138  0.2299 -0.4030
  965MOL0    Cl33077   9.814  11.991   7.993  0.0133  0.1181 -0.5228
  965MOL0     C33078   8.797  11.488   7.815  0.6968  0.9816 -0.5639
  965MOL0     C33079   8.658  11.514   7.805  0.2262 -0.8846  0.0869
  965MOL0     O33080   8.399  11.791   7.969  0.1896 -0.1192 -1.2227
  965MOL0     C33081   8.124  11.754   7.897 -0.0506  0.4523 -0.0523
  965MOL0     C33082   7.994  11.750   7.841 -0.7940  0.5399  0.7954
  965MOL0     N33083   7.336  11.857   7.322 -0.0248 -0.2124 -0.1233
  965MOL0     N33084   7.321  11.885   7.196 -0.7376  0.6739  0.0559
  965MOL0     C33085   6.873  11.338   6.598 -0.4259 -0.0992  0.0704
  965MOL0     C33086   6.746  11.399   6.621  0.8620  0.2120  0.2736
  965MOL0     C33087   6.331  11.537   6.636 -0.1623 -0.7099 -0.2003
  965MOL0     C33088   6.348  11.668   6.581 -0.2377 -0.2366 -0.0586
  965MOL0     C33089   6.246  11.766   6.603 -0.4857  0.0722  0.4925
  965MOL0     C33090   6.133  11.744   6.680 -0.3432 -0.0432 -0.7738
  965MOL0     O33091   6.034  11.839   6.690  0.1313  0.9051  0.3130
  965MOL0     C33092   5.903  11.795   6.650 -0.5682 -0.3184  0.4255
  965MOL0     C33093   5.812  11.787   6.774 -0.3003 -0.8167 -0.2632
  965MOL0     C33094   5.669  11.731   6.741 -0.5142  0.7919 -0.2836
  965MOL0     C33095   5.678  11.581   6.704  0.3635 -0.2883  0.1322
  965MOL0     C33096   5.543  11.528   6.696 -0.1332  0.3905  0.1183
  965MOL0     C33097   5.426  11.490   6.687  0.4448 -0.4312 -0.3114
  965MOL0     C33098   6.117  11.618   6.734 -0.5890  0.0377 -1.0350
  965MOL0     C33099   6.217  11.516   6.712  0.0193  0.3212  0.0627
  965MOL0     C33100   6.189  11.379   6.776  0.6101 -0.7493  0.1832
  965MOL0     H33101   6.634  11.391   6.307 -0.9002  1.0413  1.1231
  965MOL0     H33102   6.855  11.262   6.270 -0.6591  2.2064 -1.0653
  965MOL0     H33103   7.103  11.396   6.350  0.3594  0.2425 -0.3805
  965MOL0     H33104   7.104  11.238   6.267  0.5067  1.2601 -0.2301
  965MOL0     H33105   7.310  11.187   6.361  0.1580 -0.6576  1.3057
  965MOL0     H33106   7.336  11.372   6.346  0.7924  0.3404  0.8833
  965MOL0     H33107   7.238  11.236   6.606 -1.2629  0.7718 -0.2534
  965MOL0     H33108   7.408  11.253   6.585 -0.1251  1.4204  4.0064
  965MOL0     H33109   7.383  11.490   6.552  0.8539 -0.0930  1.8830
  965MOL0     H33110   7.204  11.479   6.561 -1.1215 -2.1934  2.4451
  965MOL0     H33111   7.371  11.373   6.790 -1.8106 -2.1281 -0.7886
  965MOL0     H33112   7.215  11.447   6.798 -2.2046  2.5476 -1.7697
  965MOL0     H33113   7.462  11.591   6.748  0.6274 -1.1133  2.1161
  965MOL0     H33114   7.300  11.667   6.741  1.1922 -0.6076 -1.5851
  965MOL0     H33115   7.437  11.556   6.995 -0.8778  1.3994  2.8494
  965MOL0     H33116   7.260  11.576   6.982 -1.0620  1.5801 -0.8656
  965MOL0     H33117   7.467  11.802   6.932  0.6133 -0.0868  1.2416
  965MOL0     H33118   7.300  11.819   6.933 -1.8290 -1.7553 -0.7252
  965MOL0     H33119   7.537  11.633   7.183  2.0047  0.2110  3.4930
  965MOL0     H33120   7.445  11.572   7.458 -0.7009 -0.0714  0.7148
  965MOL0     H33121   7.380  11.719   7.534 -0.9170  0.9187 -1.9355
  965MOL0     H33122   7.682  11.686   7.443 -1.4591 -2.0102 -2.1527
  965MOL0     H33123   7.605  11.829   7.508  2.6131  0.5737  3.2492
  965MOL0     H33124   7.525  11.691   7.711 -1.0430  0.0375 -1.5311
  965MOL0     H33125   7.617  11.555   7.646  0.4610 -0.2137 -5.9072
  965MOL0     H33126   7.748  11.823   7.700 -1.5306  0.2113  0.5872
  965MOL0     H33127   7.716  11.702   7.822 -2.0677  3.2863 -0.3186
  965MOL0     H33128   8.042  11.516   7.607  1.6184 -1.0095  0.8922
  965MOL0     H33129   8.351  11.443   7.758  0.2158  1.4356  0.9453
  965MOL0     H33130   8.357  11.536   7.600 -2.1748 -0.1476 -1.0718
  965MOL0     H33131   8.245  11.409   7.626  0.1490 -0.8362  1.3615
  965MOL0     H33132   8.628  11.836   7.859  1.3355 -0.0258  0.3000
  965MOL0     H33133   8.881  11.810   7.850  0.1897  0.1498 -0.1010
  965MOL0     H33134   9.091  11.415   7.910 -1.6102  0.3336  0.6455
  965MOL0     H33135   9.036  11.425   7.731  3.4383 -0.6462 -1.7721
  965MOL0     H33136   9.260  11.418   7.733 -2.3336 -0.9494  0.3316
  965MOL0     H33137   9.206  11.568   7.677 -2.0756 -4.5640 -2.2580
  965MOL0     H33138   9.299  11.524   7.968 -0.7663 -0.7932 -0.1718
  965MOL0     H33139   9.241  11.675   7.910 -3.3608 -1.5789 -0.1053
  965MOL0     H33140   9.461  11.680   7.749  3.9042 -2.6675 -1.6951
  965MOL0     H33141   9.492  11.525   7.810  0.0103  0.0132 -0.3994
  965MOL0     H33142   9.494  11.795   7.955  0.0324 -0.4799  0.2792
  965MOL0     H33143   9.478  11.641   8.047 -2.5704  1.1574 -0.1293
  965MOL0     H33144   9.712  11.730   7.849  1.5115  0.7603  0.8418
  965MOL0     H33145   9.700  11.568   7.919 -0.5495 -0.6817  1.4175
  965MOL0     H33146   9.872  11.693   8.060 -0.3607 -1.8144  0.0760
  965MOL0     H33147   9.718  11.663   8.142 -0.7342  0.0188 -1.1182
  965MOL0     H33148   9.828  11.879   8.195  0.8606 -2.0234 -1.1392
  965MOL0     H33149   9.660  11.893   8.143 -1.6625  1.9120 -4.3627
  965MOL0     H33150   8.848  11.398   7.784  1.4962  1.3727 -0.4168
  965MOL0     H33151   8.592  11.434   7.774 -2.1734  0.3734  1.7108
  965MOL0     H33152   8.132  11.817   7.985 -2.3984 -1.2050  1.4801
  965MOL0     H33153   7.915  11.805   7.892  0.3014 -0.2080  3.4508
  965MOL0     H33154   6.941  11.327   6.682  0.6957 -3.2998 -1.0960
  965MOL0     H33155   6.701  11.432   6.714 -0.7726  0.8070 -0.6703
  965MOL0     H33156   6.438  11.686   6.523 -1.1141  1.0057 -1.1099
  965MOL0     H33157   6.249  11.867   6.564  0.2158  0.2287  0.9309
  965MOL0     H33158   5.870  11.864   6.572  2.8199 -0.2480 -1.1274
  965MOL0     H33159   5.904  11.691   6.616 -2.1762 -1.1091  2.5856
  965MOL0     H33160   5.808  11.891   6.809  1.9480 -1.3342  1.8793
  965MOL0     H33161   5.860  11.725   6.851  3.6169  0.7259 -1.1941
  965MOL0     H33162   5.594  11.746   6.820 -0.3657  1.1652 -0.2098
  965MOL0     H33163   5.644  11.786   6.650 -3.2554  0.7341  0.3341
  965MOL0     H33164   5.740  11.521   6.770  0.2798 -0.0203  0.4560
  965MOL0     H33165   5.723  11.583   6.604  0.0208  2.8108 -0.0590
  965MOL0     H33166   5.322  11.475   6.670  0.4650  0.5241 -1.4443
  965MOL0     H33167   6.029  11.587   6.790  0.6628 -0.9701  0.4708
  965MOL0     H33168   6.192  11.306   6.695  0.5599  1.2438 -1.7135
  965MOL0     H33169   6.265  11.354   6.851  1.0335 -1.4256 -0.4574
  965MOL0     H33170   6.089  11.365   6.818  1.1589 -1.4696  1.3101
  966MOL0     O33171  10.252  10.199   4.854 -0.8126  0.3411  0.0343
  966MOL0     C33172  10.150  10.252   4.899  0.4939  0.1698  0.5002
  966MOL0     O33173  10.141  10.335   5.014  0.2177  0.0876  0.4279
  966MOL0     C33174  10.259  10.371   5.059  0.1996  0.0867 -0.2235
  966MOL0     C33175  10.309  10.296   5.171 -0.0020 -0.0853 -0.4526
  966MOL0     C33176  10.435  10.330   5.222  0.8946 -0.5967 -1.1863
  966MOL0     C33177  10.510  10.434   5.169 -0.1378  0.2883  0.8951
  966MOL0     O33178  10.633  10.453   5.227 -0.0205 -0.2466  0.0355
  966MOL0     C33179  10.736  10.506   5.138  0.5627  0.1673 -0.2059
  966MOL0     C33180  10.875  10.502   5.207 -0.5476 -0.3682  0.2325
  966MOL0     C33181  10.926  10.357   5.213 -0.2883 -0.2931  0.2469
  966MOL0     C33182  11.059  10.360   5.293 -0.1782 -0.2452  0.3068
  966MOL0     C33183  11.142  10.232   5.310 -0.0397 -0.2138  0.0983
  966MOL0     C33184  11.216  10.212   5.178  0.1130 -0.0977 -0.1085
  966MOL0     C33185  11.364  10.258   5.190  0.5974 -0.5181  0.4136
  966MOL0     C33186  11.452  10.192   5.081 -0.2752 -0.2364  0.2024
  966MOL0     N33187  11.417  10.054   5.031 -0.4555  0.1333  0.1410
  966MOL0     C33188  11.323  10.018   4.939  0.9407  0.1874  0.5354
  966MOL0     C33189  11.345   9.885   4.914  0.3910  0.4115  0.0909
  966MOL0     C33190  11.268   9.799   4.823 -0.1507 -0.6221 -0.4083
  966MOL0     C33191  11.116   9.797   4.859  0.1726 -0.3139 -0.2841
  966MOL0     C33192  11.049   9.682   4.783  0.7603  0.8124 -0.2489
  966MOL0     C33193  10.903   9.650   4.822 -0.3187 -0.2075 -0.0078
  966MOL0     O33194  10.853   9.574   4.713  0.2542 -0.0778  0.3699
  966MOL0     C33195  10.736   9.506   4.739  0.3420  0.8918 -0.5484
  966MOL0     C33196  10.660   9.501   4.859 -0.1179 -0.1086 -0.5484
  966MOL0     C33197  10.539   9.420   4.873  0.3520 -0.1017 -0.2233
  966MOL0     C33198  10.466   9.425   5.004 -0.3135  0.7800  0.2911
  966MOL0     C33199  10.489   9.348   4.750 -0.2120  0.1324 -0.0844
  966MOL0     C33200  10.371   9.263   4.738  0.4677 -0.5956  0.4189
  966MOL0     O33201  10.321   9.248   4.611 -0.2926  0.5241  0.0659
  966MOL0     C33202  10.186   9.249   4.583  0.3816 -0.2283  0.2356
  966MOL0     C33203  10.082   9.217   4.678  0.5196 -0.5315 -0.3185
  966MOL0     C33204   9.948   9.223   4.634  0.0832 -0.3750 -0.3076
  966MOL0     C33205   9.911   9.249   4.498 -0.3121 -0.6090 -0.0393
  966MOL0     O33206   9.775   9.251   4.472 -0.4802  0.3932  0.0679
  966MOL0     C33207   9.747   9.278   4.334 -0.6302 -1.0545  0.4709
  966MOL0     C33208   9.596   9.263   4.324 -0.3580  0.9689  0.6599
  966MOL0     C33209   9.572   9.116   4.281 -0.5556 -0.3602  0.8011
  966MOL0     C33210   9.417   9.103   4.269 -1.1236  0.3269  0.5818
  966MOL0     C33211   9.378   8.956   4.227 -0.5120 -0.0572 -0.4451
  966MOL0     C33212   9.387   8.852   4.341  0.4930 -0.5679 -0.9592
  966MOL0     C33213   9.306   8.724   4.306  0.4258 -0.4777  0.3579
  966MOL0     C33214   9.319   8.627   4.425 -0.3675 -0.5071  1.3548
  966MOL0    Cl33215   9.204   8.492   4.399 -0.1178 -0.2933  0.0505
  966MOL0     C33216  10.014   9.286   4.411 -0.0161 -0.2856  0.4551
  966MOL0     C33217  10.154   9.288   4.450 -0.8005  0.4432 -0.7948
  966MOL0     O33218  10.328   9.209   4.835 -0.3690 -0.2681 -0.2573
  966MOL0     C33219  10.573   9.361   4.638 -0.6460 -0.1843  0.0773
  966MOL0     C33220  10.689   9.431   4.632 -1.8416  0.7771  0.0480
  966MOL0     N33221  11.452   9.847   4.989  0.3271  0.0086 -0.4881
  966MOL0     N33222  11.495   9.949   5.057  0.1121 -0.0725 -0.3904
  966MOL0     C33223  10.450  10.517   5.071  0.3269 -0.9494 -0.3332
  966MOL0     C33224  10.327  10.485   5.021 -0.8771  0.3858  0.0046
  966MOL0     C33225  10.020  10.235   4.813 -0.4185  0.2167  0.4477
  966MOL0     C33226   9.905  10.276   4.881 -0.8818  0.5636 -0.2158
  966MOL0     C33227   9.778  10.272   4.827 -0.3962 -0.6983  1.1280
  966MOL0     C33228   9.764  10.211   4.693  0.1197  0.1281 -0.2980
  966MOL0     O33229   9.631  10.198   4.655  0.1029  0.3918 -0.0065
  966MOL0     C33230   9.621  10.141   4.523 -0.9774  0.9405  0.6408
  966MOL0     C33231   9.479  10.079   4.492 -0.9329  0.1631 -0.8912
  966MOL0     C33232   9.378  10.191   4.499  0.1403  0.6786  0.1217
  966MOL0     C33233   9.241  10.167   4.431  0.0190 -0.2780 -0.4455
  966MOL0     C33234   9.173  10.056   4.504 -0.7179  0.0620 -0.4549
  966MOL0     C33235   9.119   9.971   4.571 -0.1263 -0.2034 -1.0222
  966MOL0     C33236   9.883  10.176   4.619 -0.1991 -0.5718 -0.0680
  966MOL0     C33237  10.007  10.183   4.678 -0.7102  0.6543 -0.5046
  966MOL0     C33238  10.127  10.145   4.598 -0.0156  0.1776  0.1580
  966MOL0     H33239  10.251  10.216   5.217  1.4907 -1.5842 -1.0756
  966MOL0     H33240  10.469  10.274   5.309  0.6053 -2.0235 -1.9593
  966MOL0     H33241  10.713  10.611   5.117 -3.3868 -1.1596 -3.8958
  966MOL0     H33242  10.734  10.448   5.045  0.1944  0.6407 -0.5004
  966MOL0     H33243  10.935  10.574   5.150  1.7669 -1.0319  1.7401
  966MOL0     H33244  10.869  10.541   5.309  3.4739  0.0952  0.4304
  966MOL0     H33245  10.854  10.288   5.258 -0.9990 -0.7006 -1.4375
  966MOL0     H33246  10.940  10.317   5.113  1.1383 -0.4795  0.4993
  966MOL0     H33247  11.128  10.431   5.248 -0.2700  0.2277  0.9073
  966MOL0     H33248  11.038  10.401   5.392  3.5914 -1.6064  1.8416
  966MOL0     H33249  11.072  10.150   5.322 -1.5422  0.6804 -1.9081
  966MOL0     H33250  11.213  10.241   5.393  1.5223 -1.7895 -0.9821
  966MOL0     H33251  11.214  10.103   5.164  0.3195 -0.2987  1.2824
  966MOL0     H33252  11.178  10.257   5.086 -1.5100  0.2620  0.7107
  966MOL0     H33253  11.416  10.249   5.286  0.6081  0.2879  0.4903
  966MOL0     H33254  11.363  10.366   5.168  3.2455  0.1455  2.9164
  966MOL0     H33255  11.450  10.258   4.995  1.2667 -1.6676 -1.0021
  966MOL0     H33256  11.551  10.194   5.127 -0.4604 -0.1803  0.6128
  966MOL0     H33257  11.248  10.082   4.894 -0.7033 -1.5043  0.7198
  966MOL0     H33258  11.306   9.697   4.820  0.9760 -0.2140 -2.6326
  966MOL0     H33259  11.285   9.855   4.730  3.1904  0.5417  0.7319
  966MOL0     H33260  11.105   9.763   4.963  0.3695  1.3410  0.3208
  966MOL0     H33261  11.074   9.898   4.858 -1.5380 -0.9493  1.7044
  966MOL0     H33262  11.051   9.710   4.677  0.9034  1.1370 -0.1609
  966MOL0     H33263  11.103   9.588   4.791  1.1011  1.0813  0.7332
  966MOL0     H33264  10.908   9.594   4.916 -0.9785 -0.6457 -0.2291
  966MOL0     H33265  10.843   9.740   4.836 -0.0782  0.0157 -0.3779
  966MOL0     H33266  10.694   9.550   4.950 -0.0007  1.8844 -1.5928
  966MOL0     H33267  10.520   9.488   5.075  2.4338 -0.3444 -0.6734
  966MOL0     H33268  10.478   9.326   5.049  5.2371  1.1896  0.4488
  966MOL0     H33269  10.365   9.466   5.004  0.1748  2.1429 -2.1383
  966MOL0     H33270  10.102   9.181   4.778 -4.7482  3.2190  2.5922
  966MOL0     H33271   9.868   9.200   4.704  3.0873  1.5252  4.1955
  966MOL0     H33272   9.782   9.380   4.317  0.9167 -1.6427 -0.0313
  966MOL0     H33273   9.795   9.230   4.248  1.9766  3.2317 -0.7841
  966MOL0     H33274   9.545   9.288   4.418 -1.2479  1.3078  0.1035
  966MOL0     H33275   9.556   9.338   4.255 -0.6278 -1.2166 -1.7056
  966MOL0     H33276   9.620   9.052   4.355  1.6782  1.4878  1.0816
  966MOL0     H33277   9.617   9.090   4.185  0.5992  0.0492  1.2058
  966MOL0     H33278   9.390   9.166   4.184  0.4060 -1.0709 -1.0405
  966MOL0     H33279   9.378   9.118   4.370  0.1989 -1.8488  1.5015
  966MOL0     H33280   9.275   8.960   4.192 -0.7050  0.3936  0.1562
  966MOL0     H33281   9.450   8.927   4.150  0.0052  1.1557 -0.4490
  966MOL0     H33282   9.339   8.894   4.430  0.3821 -1.4577 -0.5915
  966MOL0     H33283   9.494   8.844   4.362  0.1216  0.3634  1.7020
  966MOL0     H33284   9.349   8.683   4.214 -1.1184  4.9245 -3.3064
  966MOL0     H33285   9.202   8.750   4.281  0.4141  0.1825  1.0590
  966MOL0     H33286   9.292   8.686   4.513  2.8710  1.8656  0.9685
  966MOL0     H33287   9.422   8.592   4.440  0.4349 -0.2156 -2.5040
  966MOL0     H33288   9.993   9.323   4.311  0.0386 -2.7800 -0.5411
  966MOL0     H33289  10.230   9.328   4.385 -0.0621  1.4648  0.6400
  966MOL0     H33290  10.545   9.308   4.548 -0.7190  0.5661 -0.3454
  966MOL0     H33291  10.752   9.442   4.544  0.4394  2.2188  1.7539
  966MOL0     H33292  10.496  10.604   5.026  0.6520 -1.5022 -1.0810
  966MOL0     H33293  10.294  10.550   4.941  0.7685 -0.5339 -1.4992
  966MOL0     H33294   9.914  10.312   4.983 -1.8726 -1.1601  0.5223
  966MOL0     H33295   9.681  10.284   4.875 -2.4751 -1.1164 -2.5858
  966MOL0     H33296   9.657  10.213   4.450  0.0493 -0.1904 -0.0127
  966MOL0     H33297   9.687  10.054   4.513 -2.1294  0.0325  0.6814
  966MOL0     H33298   9.447  10.010   4.571 -0.4460  1.1947  0.2354
  966MOL0     H33299   9.486  10.026   4.397 -3.0491 -0.5909 -0.6773
  966MOL0     H33300   9.358  10.220   4.603 -0.6422 -0.9615  0.4469
  966MOL0     H33301   9.431  10.262   4.434 -0.0244  1.1679  0.5124
  966MOL0     H33302   9.252  10.138   4.326 -4.4664 -1.2260 -0.8408
  966MOL0     H33303   9.169  10.248   4.440 -0.3246 -0.4885 -1.2022
  966MOL0     H33304   9.065   9.901   4.632 -0.3044  1.6984  1.1499
  966MOL0     H33305   9.878  10.137   4.518 -0.7484  0.2300 -0.3605
  966MOL0     H33306  10.103  10.103   4.500  5.8908 -1.5116 -0.9524
  966MOL0     H33307  10.191  10.232   4.577  0.9813 -0.4448  0.5785
  966MOL0     H33308  10.186  10.067   4.646 -2.2457 -2.0012 -0.4120
  967MOL0     O33309   0.169   2.489   7.901 -0.2617  0.1599 -0.1016
  967MOL0     C33310   0.154   2.367   7.887  0.0640  0.8203  0.3911
  967MOL0     O33311   0.235   2.286   7.800  0.0585 -1.1980  0.4411
  967MOL0     C33312   0.312   2.351   7.704  0.6191  0.6172 -0.1542
  967MOL0     C33313   0.429   2.408   7.744 -0.6473 -0.3826 -0.5859
  967MOL0     C33314   0.512   2.483   7.651  0.1061  0.4097 -0.5280
  967MOL0     C33315   0.472   2.483   7.515 -0.3078 -0.5011 -0.5895
  967MOL0     O33316   0.560   2.530   7.417  0.2389  0.2280  0.2816
  967MOL0     C33317   0.673   2.619   7.450  0.3001  1.0273  0.4470
  967MOL0     C33318   0.792   2.535   7.433  0.1077 -0.8998  0.6727
  967MOL0     C33319   0.811   2.513   7.283 -0.1880  1.1685 -0.0197
  967MOL0     C33320   0.954   2.459   7.268 -0.1684  0.2029  0.2572
  967MOL0     C33321   0.981   2.418   7.118  0.3341  0.0119  0.5066
  967MOL0     C33322   0.975   2.530   7.011  0.6365 -0.0789  0.4577
  967MOL0     C33323   1.004   2.475   6.871 -0.1505 -0.2523 -0.4297
  967MOL0     C33324   1.024   2.582   6.762  0.0040  0.2643  0.0353
  967MOL0     N33325   1.061   2.517   6.630 -0.0665  0.3134  0.3458
  967MOL0     C33326   1.185   2.478   6.583  0.1711 -1.0018  0.4565
  967MOL0     C33327   1.166   2.397   6.487 -0.7940 -0.6192  0.2978
  967MOL0     C33328   1.276   2.331   6.420 -0.1422  0.9141  0.4885
  967MOL0     C33329   1.263   2.325   6.263 -0.0704  0.5638 -0.9812
  967MOL0     C33330   1.272   2.458   6.194  0.3436 -0.3599 -0.2461
  967MOL0     C33331   1.295   2.431   6.046  0.0783 -0.4471  0.0307
  967MOL0     O33332   1.434   2.404   6.012  0.3734  0.4312 -0.2239
  967MOL0     C33333   1.512   2.498   5.966 -0.1758 -0.3067 -0.4142
  967MOL0     C33334   1.471   2.634   5.955 -0.7685  0.0607  0.1278
  967MOL0     C33335   1.556   2.735   5.903 -0.4650  0.0802  0.3513
  967MOL0     C33336   1.508   2.873   5.904 -0.4499  0.5870  0.4952
  967MOL0     C33337   1.685   2.701   5.844  0.3259 -0.2737  0.1513
  967MOL0     C33338   1.787   2.795   5.787  0.5800  0.8355 -0.0640
  967MOL0     O33339   1.913   2.770   5.831  0.0731 -0.1572 -0.6545
  967MOL0     C33340   2.015   2.836   5.767 -0.1706 -0.4617  0.2490
  967MOL0     C33341   2.018   2.977   5.763 -0.3190  0.4441 -0.7456
  967MOL0     C33342   2.122   3.045   5.710  0.3430  0.2993  0.4449
  967MOL0     C33343   2.221   2.979   5.638 -0.4814  0.0814  0.5148
  967MOL0     O33344   2.327   3.048   5.582 -0.0999  0.0257 -0.0631
  967MOL0     C33345   2.313   3.186   5.551 -0.6211 -0.1952  0.0341
  967MOL0     C33346   2.400   3.273   5.646  0.9471 -0.0728  0.1889
  967MOL0     C33347   2.427   3.415   5.584  0.0881  0.2635 -0.0520
  967MOL0     C33348   2.568   3.468   5.621  0.8608  0.0228  0.4553
  967MOL0     C33349   2.585   3.480   5.781  0.0539  0.3132  0.1499
  967MOL0     C33350   2.685   3.583   5.831  0.4508 -0.1804  0.1404
  967MOL0     C33351   2.818   3.558   5.770 -0.3190  0.7505 -0.7274
  967MOL0     C33352   2.928   3.660   5.829  0.0847  1.3383 -0.1778
  967MOL0    Cl33353   2.919   3.685   6.008 -0.2856  0.0963  0.0271
  967MOL0     C33354   2.222   2.835   5.640  0.6662 -0.5095 -0.2260
  967MOL0     C33355   2.122   2.767   5.701 -0.3201 -0.3514  0.0966
  967MOL0     O33356   1.754   2.872   5.698 -0.2400  0.4397  0.2156
  967MOL0     C33357   1.732   2.569   5.870  0.1878 -0.0800  0.7237
  967MOL0     C33358   1.647   2.468   5.921  0.1199  0.4456 -0.5702
  967MOL0     N33359   1.029   2.390   6.452  0.2025  0.3653 -0.4269
  967MOL0     N33360   0.967   2.453   6.546 -0.0896 -0.2243  0.5222
  967MOL0     C33361   0.361   2.419   7.480  0.3980 -0.0731  0.3837
  967MOL0     C33362   0.276   2.363   7.577 -0.5971 -0.4670 -0.0668
  967MOL0     C33363   0.036   2.308   7.957 -0.5269  0.9233  1.3032
  967MOL0     C33364   0.023   2.326   8.093  0.3643  1.4487 -1.1452
  967MOL0     C33365  -0.086   2.262   8.163 -0.0614  0.2457  0.8843
  967MOL0     C33366  -0.178   2.185   8.090  0.4581 -0.0229 -0.5625
  967MOL0     O33367  -0.297   2.147   8.152  0.3973 -0.6211  0.1146
  967MOL0     C33368  -0.347   2.216   8.265  0.9252 -0.1728  0.0863
  967MOL0     C33369  -0.394   2.357   8.252  0.0214 -0.5969  0.2840
  967MOL0     C33370  -0.502   2.387   8.144 -0.8707  0.1153 -0.0043
  967MOL0     C33371  -0.480   2.528   8.082  0.7503  0.1136  0.2084
  967MOL0     C33372  -0.384   2.524   7.976 -0.2258  0.1860 -0.2200
  967MOL0     C33373  -0.295   2.481   7.906 -0.0581 -0.5693  0.1585
  967MOL0     C33374  -0.167   2.171   7.956  0.0433 -0.4510 -0.2570
  967MOL0     C33375  -0.061   2.224   7.887 -0.5446  0.7747 -0.0352
  967MOL0     C33376  -0.064   2.198   7.736  1.1096 -1.0999  0.9329
  967MOL0     H33377   0.461   2.409   7.848 -1.6560 -0.2685 -0.2724
  967MOL0     H33378   0.606   2.518   7.693  1.4042 -1.9775 -1.2334
  967MOL0     H33379   0.660   2.660   7.551  0.1862  0.9664  0.4570
  967MOL0     H33380   0.680   2.701   7.379 -0.2791 -0.4450 -1.3986
  967MOL0     H33381   0.869   2.602   7.472  0.6880 -0.1351 -1.6050
  967MOL0     H33382   0.787   2.439   7.483 -0.1625 -0.4605  1.5086
  967MOL0     H33383   0.740   2.448   7.232 -0.4152 -0.4186  2.1808
  967MOL0     H33384   0.815   2.605   7.224  0.3166  1.3145  0.2325
  967MOL0     H33385   1.027   2.530   7.306 -1.4913  2.1722 -0.7054
  967MOL0     H33386   0.971   2.365   7.321  2.2397  0.4713  0.0290
  967MOL0     H33387   0.917   2.335   7.087  1.1033 -0.0645 -0.9928
  967MOL0     H33388   1.084   2.381   7.125  0.2343 -1.0799 -2.3230
  967MOL0     H33389   0.877   2.578   7.014  0.5898 -0.2130  1.4534
  967MOL0     H33390   1.052   2.602   7.041 -0.5232  1.3650  0.0697
  967MOL0     H33391   0.923   2.408   6.841 -1.3347  0.8943  0.1111
  967MOL0     H33392   1.101   2.424   6.876  0.7234  1.4075  0.3479
  967MOL0     H33393   0.937   2.646   6.743  1.0587  2.8187  2.9400
  967MOL0     H33394   1.105   2.648   6.794  1.6155 -1.5201 -0.2360
  967MOL0     H33395   1.280   2.514   6.621  0.7020 -0.2495 -1.4827
  967MOL0     H33396   1.269   2.229   6.457  1.4118  0.4037 -0.5418
  967MOL0     H33397   1.371   2.380   6.445  1.2784 -1.7716  0.7328
  967MOL0     H33398   1.338   2.261   6.215  0.4459 -1.2854  1.9784
  967MOL0     H33399   1.168   2.275   6.241  1.1109 -1.1117 -2.5764
  967MOL0     H33400   1.183   2.516   6.222  1.3342  1.2785 -0.3739
  967MOL0     H33401   1.351   2.518   6.239  1.1111 -2.2029  0.9623
  967MOL0     H33402   1.236   2.343   6.018 -0.3474 -1.2884  3.1522
  967MOL0     H33403   1.246   2.507   5.984  1.4164  0.8673  0.5226
  967MOL0     H33404   1.383   2.675   6.004 -2.2720 -1.5690 -1.1161
  967MOL0     H33405   1.534   2.917   5.807  1.3850 -2.8457 -0.7636
  967MOL0     H33406   1.563   2.926   5.982  0.2413  1.2098 -0.3912
  967MOL0     H33407   1.399   2.866   5.914 -1.2678 -1.0475 -5.4845
  967MOL0     H33408   1.945   3.034   5.819  1.6709  4.8530 -2.1950
  967MOL0     H33409   2.127   3.153   5.725  0.7523  0.8969 -3.1373
  967MOL0     H33410   2.360   3.199   5.453  0.1663 -0.6273  0.3454
  967MOL0     H33411   2.208   3.216   5.544 -0.4053  0.2368 -2.2692
  967MOL0     H33412   2.342   3.291   5.737  0.1854  0.2621 -0.3416
  967MOL0     H33413   2.496   3.226   5.666  0.3544 -0.9426  1.1037
  967MOL0     H33414   2.356   3.485   5.629 -0.6325  0.0198 -0.7703
  967MOL0     H33415   2.418   3.412   5.475 -1.6320 -3.9376  0.0111
  967MOL0     H33416   2.580   3.563   5.568 -0.0722 -0.0769  0.0472
  967MOL0     H33417   2.652   3.403   5.594  0.0430 -1.4383  1.3549
  967MOL0     H33418   2.489   3.505   5.829 -0.0563  0.0613  0.0601
  967MOL0     H33419   2.609   3.377   5.808  0.5259  0.3617 -0.0812
  967MOL0     H33420   2.684   3.575   5.940  0.4208  0.1239  0.1640
  967MOL0     H33421   2.647   3.677   5.791  2.8332 -0.0474 -2.0203
  967MOL0     H33422   2.821   3.566   5.661  2.6572 -0.3004 -0.8252
  967MOL0     H33423   2.862   3.461   5.794 -1.9860 -0.6140 -2.8279
  967MOL0     H33424   2.931   3.755   5.774  1.3667  1.3049 -0.2110
  967MOL0     H33425   3.020   3.607   5.804 -0.1321  0.6834  0.3962
  967MOL0     H33426   2.304   2.783   5.592  1.6909  0.3305  0.5655
  967MOL0     H33427   2.133   2.659   5.703  0.0763 -0.3019  1.4985
  967MOL0     H33428   1.828   2.524   5.849 -0.2361 -2.2199  2.8973
  967MOL0     H33429   1.673   2.363   5.921 -2.2294 -0.1763  0.5561
  967MOL0     H33430   0.334   2.427   7.375 -0.3793  0.5673  0.6201
  967MOL0     H33431   0.177   2.331   7.547 -1.4225  2.9420 -1.5103
  967MOL0     H33432   0.088   2.399   8.140  1.4593  0.2469 -0.7288
  967MOL0     H33433  -0.095   2.275   8.270  1.1143 -0.0504  1.0369
  967MOL0     H33434  -0.439   2.165   8.295 -1.0356  2.3743 -1.1850
  967MOL0     H33435  -0.280   2.222   8.352  0.0821  2.8154  0.6559
  967MOL0     H33436  -0.314   2.430   8.240 -2.0271  2.0374  1.5541
  967MOL0     H33437  -0.434   2.384   8.350 -1.4914 -0.5082 -0.3345
  967MOL0     H33438  -0.489   2.313   8.065 -0.9467  1.6276 -1.4941
  967MOL0     H33439  -0.598   2.368   8.193  0.6851 -3.4326  2.0032
  967MOL0     H33440  -0.440   2.599   8.155 -0.0408  0.6098  0.1769
  967MOL0     H33441  -0.584   2.556   8.060  0.7957 -0.5085 -0.8919
  967MOL0     H33442  -0.217   2.440   7.846  1.6630  1.1544  1.1189
  967MOL0     H33443  -0.238   2.108   7.904  0.1230 -1.2057  0.5394
  967MOL0     H33444  -0.022   2.100   7.711  0.8679 -1.2127  0.9694
  967MOL0     H33445  -0.156   2.211   7.679  1.9134  0.1318 -0.1588
  967MOL0     H33446   0.002   2.274   7.693 -0.2836 -0.1348  0.4222
  968MOL0     O33447   9.103   6.755   5.198 -0.0053 -0.1189 -0.7078
  968MOL0     C33448   9.165   6.716   5.099 -0.0973  0.7146 -0.0092
  968MOL0     O33449   9.301   6.673   5.103  0.7030  0.0353  0.3200
  968MOL0     C33450   9.398   6.711   5.196 -0.8717  1.3090  0.1854
  968MOL0     C33451   9.379   6.812   5.288  0.0997  0.5886  0.1868
  968MOL0     C33452   9.477   6.841   5.387  0.1255 -0.0689 -0.0473
  968MOL0     C33453   9.592   6.766   5.396 -0.2839 -0.6996 -0.3851
  968MOL0     O33454   9.684   6.782   5.502  0.1316  0.5691  0.0276
  968MOL0     C33455   9.701   6.919   5.536  0.0651  0.0787 -0.1636
  968MOL0     C33456   9.841   6.936   5.588  0.4244  0.7765 -0.0420
  968MOL0     C33457   9.953   6.992   5.513  0.5373  0.2342  0.5140
  968MOL0     C33458  10.080   6.987   5.598  0.0009 -0.6914  0.2418
  968MOL0     C33459  10.216   7.025   5.537  0.1205  0.5342  0.1607
  968MOL0     C33460  10.217   7.159   5.462  0.2986  0.0606  0.3404
  968MOL0     C33461  10.340   7.171   5.377  0.0476 -0.0772 -0.4553
  968MOL0     C33462  10.354   7.320   5.325  0.0266  0.4449 -0.2874
  968MOL0     N33463  10.489   7.360   5.296 -0.6437 -0.1123  0.8065
  968MOL0     C33464  10.577   7.280   5.224  0.1199 -0.1501 -0.3274
  968MOL0     C33465  10.695   7.339   5.254 -0.2623  0.8863 -0.0362
  968MOL0     C33466  10.839   7.289   5.219 -0.7733 -0.0850 -0.1151
  968MOL0     C33467  10.927   7.398   5.171 -0.0329 -0.5893 -0.4322
  968MOL0     C33468  11.046   7.338   5.110  0.0633  0.7293 -0.9979
  968MOL0     C33469  11.154   7.432   5.062  0.3223  0.1623 -0.3303
  968MOL0     O33470  11.270   7.369   5.021  0.0096  0.0571  0.3710
  968MOL0     C33471  11.298   7.344   4.895 -0.4065  0.2663 -0.3528
  968MOL0     C33472  11.429   7.348   4.856 -0.2257  0.6129 -0.1929
  968MOL0     C33473  11.469   7.304   4.732  0.1552 -0.5052 -0.3336
  968MOL0     C33474  11.615   7.270   4.716  0.2871  0.2038  0.6617
  968MOL0     C33475  11.380   7.296   4.626 -0.3432 -0.6361  0.3983
  968MOL0     C33476  11.418   7.287   4.478  0.7184 -0.0713  0.0233
  968MOL0     O33477  11.519   7.370   4.435 -0.3734  0.0879 -0.2154
  968MOL0     C33478  11.542   7.387   4.300 -0.1878 -0.8413  0.3503
  968MOL0     C33479  11.658   7.332   4.253  0.2104 -0.7566  0.3969
  968MOL0     C33480  11.692   7.356   4.116  0.2597 -0.7854  0.0213
  968MOL0     C33481  11.605   7.437   4.027  0.3505 -0.2052 -1.3313
  968MOL0     O33482  11.609   7.428   3.893 -0.0121  0.2800 -0.0522
  968MOL0     C33483  11.729   7.389   3.836 -0.5909  0.3788  1.2051
  968MOL0     C33484  11.725   7.381   3.679  0.1154 -0.3423  0.6361
  968MOL0     C33485  11.848   7.317   3.612 -0.2667 -0.3686 -0.5339
  968MOL0     C33486  11.971   7.404   3.606  0.0640  0.1596 -0.7894
  968MOL0     C33487  12.068   7.358   3.501  0.3206 -0.0058  0.6139
  968MOL0     C33488  12.196   7.443   3.486  0.7366  0.0180 -0.0696
  968MOL0     C33489  12.282   7.427   3.612  0.5898  1.0412  0.4410
  968MOL0     C33490  12.412   7.497   3.602 -0.1266  0.5505  0.2653
  968MOL0    Cl33491  12.552   7.399   3.538  0.2068  0.1204  0.1200
  968MOL0     C33492  11.498   7.490   4.087  0.2073 -0.6673 -0.2040
  968MOL0     C33493  11.463   7.477   4.221 -0.7647  0.0957 -0.1835
  968MOL0     O33494  11.358   7.215   4.407  0.6478  0.3834 -0.0897
  968MOL0     C33495  11.244   7.305   4.663  0.1455 -0.3355  0.1266
  968MOL0     C33496  11.201   7.319   4.794  0.3499 -0.1020 -0.8972
  968MOL0     N33497  10.678   7.444   5.329  0.9293 -0.7145  0.1040
  968MOL0     N33498  10.554   7.453   5.358 -0.1221 -0.7151  0.4737
  968MOL0     C33499   9.610   6.659   5.309 -0.7800  0.4618  0.4379
  968MOL0     C33500   9.521   6.638   5.205  0.3421 -0.1329 -0.1141
  968MOL0     C33501   9.099   6.706   4.962 -0.2218  0.6571 -0.1387
  968MOL0     C33502   9.165   6.658   4.846  0.2699  0.0898 -0.8490
  968MOL0     C33503   9.107   6.656   4.723  1.2972 -0.7878 -0.1017
  968MOL0     C33504   8.978   6.711   4.707 -0.7304 -0.0277 -0.0640
  968MOL0     O33505   8.922   6.719   4.583 -0.2638 -0.1067 -0.4060
  968MOL0     C33506   8.953   6.840   4.514 -0.7262 -0.4151  0.1901
  968MOL0     C33507   8.985   6.794   4.370 -0.0480 -0.6930  0.3850
  968MOL0     C33508   8.980   6.909   4.258 -0.8925 -0.2842  1.0400
  968MOL0     C33509   8.984   6.851   4.114  0.4334  0.5402 -0.0153
  968MOL0     C33510   8.859   6.788   4.085  1.0387  0.4803  0.7724
  968MOL0     C33511   8.763   6.727   4.046  0.5520 -0.4840 -0.2529
  968MOL0     C33512   8.915   6.763   4.816  0.1903  0.0749 -1.0722
  968MOL0     C33513   8.970   6.759   4.943 -0.0926  0.5830 -0.4985
  968MOL0     C33514   8.876   6.820   5.051  0.1521  0.2867  0.4392
  968MOL0     H33515   9.277   6.851   5.290 -0.6204 -1.0275 -1.8109
  968MOL0     H33516   9.452   6.923   5.454  1.6405  0.0331  0.4330
  968MOL0     H33517   9.631   6.949   5.615  0.6921 -0.6076  0.6738
  968MOL0     H33518   9.703   6.987   5.450  1.3936  0.1184 -0.1296
  968MOL0     H33519   9.824   7.006   5.670  1.3607 -0.4695  1.2470
  968MOL0     H33520   9.871   6.837   5.622 -0.1464  0.8427  0.6691
  968MOL0     H33521   9.964   6.935   5.420  2.4767  2.6760 -0.8742
  968MOL0     H33522   9.924   7.094   5.486  1.3345  0.2436 -0.3567
  968MOL0     H33523  10.055   7.043   5.688  0.6062 -0.9450  0.5743
  968MOL0     H33524  10.089   6.885   5.635 -0.7740 -0.4125  1.2591
  968MOL0     H33525  10.231   6.945   5.464  0.3858  1.1972 -0.5282
  968MOL0     H33526  10.299   7.021   5.607  0.4352 -0.3964 -0.2423
  968MOL0     H33527  10.133   7.179   5.395 -1.3409 -1.0918  1.9503
  968MOL0     H33528  10.232   7.231   5.542 -0.5968  0.5035  0.1234
  968MOL0     H33529  10.339   7.097   5.296 -3.1233 -0.0746 -0.5287
  968MOL0     H33530  10.430   7.149   5.435  0.5738  0.6681 -0.9546
  968MOL0     H33531  10.304   7.329   5.228  0.9539 -0.0955 -0.8369
  968MOL0     H33532  10.311   7.390   5.396 -0.2165 -0.5917  0.6149
  968MOL0     H33533  10.563   7.194   5.159 -0.9363 -1.3782  1.4390
  968MOL0     H33534  10.824   7.221   5.135 -2.2211  1.4522 -1.1646
  968MOL0     H33535  10.884   7.242   5.307 -0.9943 -1.3756 -0.6734
  968MOL0     H33536  10.874   7.455   5.095  0.2762 -0.5798 -0.6431
  968MOL0     H33537  10.967   7.458   5.254  1.3049 -2.2018  0.1499
  968MOL0     H33538  11.086   7.270   5.185  1.1905  2.4841  0.0798
  968MOL0     H33539  11.015   7.272   5.029 -1.1827  2.1550 -1.7403
  968MOL0     H33540  11.103   7.482   4.979  1.5419 -2.1532 -2.6129
  968MOL0     H33541  11.176   7.516   5.129  1.7403 -0.2099 -0.3074
  968MOL0     H33542  11.484   7.356   4.950 -1.7567 -0.4433  0.8534
  968MOL0     H33543  11.623   7.167   4.679 -0.9752 -0.2556  1.6071
  968MOL0     H33544  11.660   7.274   4.815  0.8388  0.9543  0.3845
  968MOL0     H33545  11.671   7.334   4.648 -1.1040 -0.9019 -1.6507
  968MOL0     H33546  11.712   7.265   4.320  2.4271 -0.8454 -1.3387
  968MOL0     H33547  11.782   7.302   4.087  0.8445 -2.0168  3.5896
  968MOL0     H33548  11.816   7.450   3.863  1.8787 -1.7947 -1.1512
  968MOL0     H33549  11.753   7.289   3.873  0.0649  0.2499  0.4679
  968MOL0     H33550  11.643   7.317   3.645 -0.5078  1.3359 -1.2247
  968MOL0     H33551  11.705   7.474   3.625 -2.0175 -1.0407  0.0903
  968MOL0     H33552  11.825   7.286   3.509 -2.8995 -1.2186  0.2241
  968MOL0     H33553  11.874   7.222   3.659 -2.8805 -0.6535  0.4639
  968MOL0     H33554  12.009   7.402   3.709  1.2206 -0.1404 -1.2060
  968MOL0     H33555  11.939   7.505   3.578  0.2561  0.0543 -1.3889
  968MOL0     H33556  12.097   7.256   3.527 -0.2608 -0.4756 -0.4920
  968MOL0     H33557  12.012   7.351   3.407  1.3799  2.4007 -0.2886
  968MOL0     H33558  12.165   7.545   3.462 -0.2077 -0.4278 -0.8465
  968MOL0     H33559  12.252   7.405   3.401 -0.0809  1.4848 -1.3248
  968MOL0     H33560  12.288   7.320   3.637 -1.8369  0.8980  0.7153
  968MOL0     H33561  12.228   7.463   3.700  0.6462 -3.5951  2.6694
  968MOL0     H33562  12.446   7.523   3.703  0.7541  2.6779 -0.5111
  968MOL0     H33563  12.392   7.593   3.552 -0.6889  0.1683 -0.2530
  968MOL0     H33564  11.442   7.541   4.009 -1.1103 -0.9437  0.5433
  968MOL0     H33565  11.374   7.524   4.260 -0.1660 -0.2322  1.6625
  968MOL0     H33566  11.181   7.297   4.575  0.4513 -2.6652  0.0386
  968MOL0     H33567  11.095   7.314   4.817  0.6858 -4.1186  0.6175
  968MOL0     H33568   9.693   6.589   5.322 -1.0028  0.1685  0.2752
  968MOL0     H33569   9.545   6.554   5.140  0.5292  0.7494 -1.2219
  968MOL0     H33570   9.264   6.616   4.860 -1.0937 -3.1865  0.0004
  968MOL0     H33571   9.166   6.613   4.642 -0.0869 -0.5178 -1.2901
  968MOL0     H33572   8.874   6.916   4.515  0.1960  0.5907  1.9428
  968MOL0     H33573   9.040   6.895   4.551  0.5402 -1.6139 -0.8972
  968MOL0     H33574   8.913   6.717   4.342  1.4071 -2.2230  0.7381
  968MOL0     H33575   9.083   6.747   4.377 -0.7826 -2.8638 -2.3358
  968MOL0     H33576   8.899   6.982   4.271  0.7607  1.4418  2.1259
  968MOL0     H33577   9.076   6.961   4.260  0.4306 -2.4100 -1.5672
  968MOL0     H33578   9.062   6.774   4.111  0.0056  0.1371 -1.8609
  968MOL0     H33579   9.009   6.921   4.034  1.0640  0.3305 -0.0039
  968MOL0     H33580   8.678   6.673   4.009  1.2747 -0.8092 -1.5136
  968MOL0     H33581   8.818   6.800   4.784 -0.3670 -0.7028 -0.3559
  968MOL0     H33582   8.912   6.918   5.082  1.5829 -0.0369 -0.1176
  968MOL0     H33583   8.775   6.813   5.009  0.2391 -0.2125  0.2982
  968MOL0     H33584   8.871   6.753   5.138  0.6416 -0.3327 -0.0057
  969MOL0     O33585   4.230   0.901   3.059  0.1473 -0.3982  0.0447
  969MOL0     C33586   4.222   0.787   3.101 -0.4024 -0.4113  0.4657
  969MOL0     O33587   4.316   0.695   3.089  0.1071  1.1192  0.3222
  969MOL0     C33588   4.443   0.730   3.034 -0.2160 -0.1610  0.1364
  969MOL0     C33589   4.559   0.716   3.114 -0.1503  0.4446  0.0026
  969MOL0     C33590   4.681   0.740   3.051  0.1396  0.4844 -0.2648
  969MOL0     C33591   4.698   0.779   2.919  0.1459  0.1630 -0.5338
  969MOL0     O33592   4.816   0.803   2.857  0.4065 -0.2503  0.4352
  969MOL0     C33593   4.939   0.785   2.926  0.2283  0.5167  0.1340
  969MOL0     C33594   5.052   0.809   2.826  0.2678 -0.1253  0.0126
  969MOL0     C33595   5.063   0.961   2.790  1.0467  0.0730 -0.0785
  969MOL0     C33596   5.210   1.012   2.775 -0.0112 -0.8196 -0.4898
  969MOL0     C33597   5.206   1.150   2.711 -0.0242 -0.1702 -0.4048
  969MOL0     C33598   5.347   1.217   2.702 -0.5126  0.3231  0.4967
  969MOL0     C33599   5.345   1.361   2.664  0.0565 -0.4190  0.8896
  969MOL0     C33600   5.461   1.444   2.710  0.3149  0.0040  0.1247
  969MOL0     N33601   5.577   1.396   2.632 -0.4792 -0.3415 -0.2569
  969MOL0     C33602   5.588   1.395   2.493  0.2021  0.5399 -0.8230
  969MOL0     C33603   5.699   1.334   2.463 -0.8775  0.3122  0.0653
  969MOL0     C33604   5.745   1.298   2.327  0.2492 -0.0526  0.2997
  969MOL0     C33605   5.882   1.361   2.298 -0.0469  0.4378  0.7142
  969MOL0     C33606   5.891   1.514   2.285  0.1548  0.0700  0.0479
  969MOL0     C33607   6.032   1.577   2.256 -0.1408  0.0388 -0.4826
  969MOL0     O33608   6.116   1.576   2.374 -0.1725 -0.1817  0.9092
  969MOL0     C33609   6.241   1.628   2.360 -0.1620 -0.6972 -0.0322
  969MOL0     C33610   6.294   1.708   2.255  0.1914 -0.6935 -0.1746
  969MOL0     C33611   6.431   1.766   2.261 -0.6072  0.1459 -0.6428
  969MOL0     C33612   6.472   1.855   2.151  0.1732 -0.1315  0.2616
  969MOL0     C33613   6.517   1.727   2.368  0.6200 -0.1666  0.7547
  969MOL0     C33614   6.654   1.767   2.372  0.0558 -0.3651  0.7510
  969MOL0     O33615   6.718   1.731   2.489 -0.1057  0.5179 -0.8310
  969MOL0     C33616   6.840   1.777   2.534 -0.2998  0.1661  0.2499
  969MOL0     C33617   6.914   1.690   2.608  0.1465 -0.0577 -0.1725
  969MOL0     C33618   7.043   1.719   2.651  1.0055 -0.5721  0.7805
  969MOL0     C33619   7.093   1.846   2.626 -0.1453 -0.5672 -0.1194
  969MOL0     O33620   7.207   1.900   2.677  0.9510  0.5582 -0.0917
  969MOL0     C33621   7.317   1.812   2.718 -0.0282  0.6485  0.1641
  969MOL0     C33622   7.355   1.719   2.601 -0.7970  1.2263  0.0861
  969MOL0     C33623   7.495   1.658   2.611  0.0751 -0.3912  0.0649
  969MOL0     C33624   7.535   1.652   2.465  0.0938  0.5281 -0.6066
  969MOL0     C33625   7.652   1.560   2.434  0.3793  0.4622  0.1254
  969MOL0     C33626   7.778   1.606   2.506  0.8280  0.0701 -0.3180
  969MOL0     C33627   7.884   1.499   2.501 -0.0386  0.1054  0.1050
  969MOL0     C33628   8.011   1.554   2.563  0.8656  0.0007 -0.2473
  969MOL0    Cl33629   8.083   1.692   2.472  0.1961 -0.3014 -0.0659
  969MOL0     C33630   7.011   1.932   2.546  0.8294 -0.5816  0.1380
  969MOL0     C33631   6.883   1.903   2.506 -0.7805  0.6285  0.2399
  969MOL0     O33632   6.709   1.831   2.279  0.1467  0.1163 -0.0611
  969MOL0     C33633   6.450   1.660   2.477 -0.5666 -0.8193 -0.0006
  969MOL0     C33634   6.327   1.609   2.471  0.2588  0.0175  0.1155
  969MOL0     N33635   5.758   1.288   2.581  0.5072  0.0073 -0.0682
  969MOL0     N33636   5.698   1.339   2.682  0.3051  0.0851  0.2068
  969MOL0     C33637   4.580   0.793   2.844 -0.9340  0.0443  0.6229
  969MOL0     C33638   4.453   0.772   2.899 -0.9625 -0.2285 -0.1687
  969MOL0     C33639   4.115   0.752   3.198  0.3426 -0.0876  0.1516
  969MOL0     C33640   3.987   0.813   3.181  0.2684  0.1408  0.1167
  969MOL0     C33641   3.886   0.769   3.265  0.7913 -0.7622  0.4667
  969MOL0     C33642   3.898   0.678   3.361 -0.0392 -0.1650 -0.4749
  969MOL0     O33643   3.786   0.648   3.432 -0.0715 -0.5560 -0.1316
  969MOL0     C33644   3.707   0.748   3.493 -1.0634 -0.0242 -0.2512
  969MOL0     C33645   3.553   0.705   3.491  0.2174 -0.1800  0.0048
  969MOL0     C33646   3.470   0.797   3.580  0.2974 -0.4607  0.0420
  969MOL0     C33647   3.324   0.779   3.543 -0.1664 -0.0692  0.5851
  969MOL0     C33648   3.268   0.651   3.579  0.4154  0.3117  0.0239
  969MOL0     C33649   3.216   0.548   3.617 -0.1808 -0.5628 -0.6031
  969MOL0     C33650   4.017   0.620   3.384 -0.4755 -0.3274  0.1865
  969MOL0     C33651   4.126   0.660   3.305  0.0201 -0.5321  0.5882
  969MOL0     C33652   4.253   0.583   3.338 -0.4573 -0.9822 -0.2040
  969MOL0     H33653   4.559   0.676   3.215  1.6116  1.1210  0.3069
  969MOL0     H33654   4.770   0.730   3.112  1.2798 -0.7962 -2.0523
  969MOL0     H33655   4.941   0.679   2.953  0.0982  0.5240  0.1745
  969MOL0     H33656   4.957   0.842   3.017  0.1304 -3.5333  2.9844
  969MOL0     H33657   5.144   0.759   2.858 -1.1436 -2.7200  0.3229
  969MOL0     H33658   5.022   0.759   2.733  1.2755  0.4440 -0.6433
  969MOL0     H33659   5.017   0.970   2.691 -1.6851 -1.4736  0.9257
  969MOL0     H33660   5.005   1.027   2.856  1.8364  2.5792 -1.7425
  969MOL0     H33661   5.257   1.007   2.873 -0.1410 -1.4811 -0.4581
  969MOL0     H33662   5.264   0.949   2.704 -0.9475  0.0798 -2.0505
  969MOL0     H33663   5.144   1.225   2.762  2.3146  3.0022 -1.8601
  969MOL0     H33664   5.174   1.144   2.606 -1.8505  0.3103  0.0873
  969MOL0     H33665   5.403   1.200   2.795  0.4523  0.1231 -0.1040
  969MOL0     H33666   5.409   1.166   2.628  0.2257  0.5199  0.9613
  969MOL0     H33667   5.251   1.404   2.699 -1.5558 -2.4938 -0.6800
  969MOL0     H33668   5.333   1.376   2.556 -1.6073  2.5923  1.3852
  969MOL0     H33669   5.446   1.551   2.693 -0.9556  0.3691  3.0281
  969MOL0     H33670   5.476   1.447   2.818  1.0998  2.5945  0.0100
  969MOL0     H33671   5.517   1.442   2.426 -1.6229  0.3959  0.8969
  969MOL0     H33672   5.677   1.333   2.249  2.8474 -0.2957 -2.2482
  969MOL0     H33673   5.754   1.189   2.322 -3.6736 -0.5058 -0.6117
  969MOL0     H33674   5.950   1.321   2.374  0.1324 -3.4154 -1.2407
  969MOL0     H33675   5.921   1.324   2.203  0.0810 -1.7895  1.5796
  969MOL0     H33676   5.834   1.542   2.196  2.9104  0.9479 -1.5581
  969MOL0     H33677   5.860   1.565   2.377 -0.6367  0.0813 -0.2168
  969MOL0     H33678   6.076   1.510   2.182  1.0300  0.7413 -0.4485
  969MOL0     H33679   6.015   1.676   2.211 -2.7070 -0.7712 -1.5142
  969MOL0     H33680   6.229   1.734   2.173  1.8484  1.8442 -0.8072
  969MOL0     H33681   6.389   1.885   2.088  0.8421 -1.2514 -1.2249
  969MOL0     H33682   6.554   1.808   2.096  1.3993  0.8092  1.2125
  969MOL0     H33683   6.510   1.948   2.195  0.7084 -0.2974  0.1657
  969MOL0     H33684   6.871   1.595   2.640  1.5341 -1.1029 -1.2372
  969MOL0     H33685   7.095   1.647   2.713 -1.2479 -0.7345  2.6412
  969MOL0     H33686   7.398   1.879   2.747  1.9783 -2.0250  1.0984
  969MOL0     H33687   7.297   1.756   2.810  0.2597  0.2619 -0.0046
  969MOL0     H33688   7.287   1.635   2.579  1.6068 -0.5110 -1.1729
  969MOL0     H33689   7.359   1.788   2.517  1.9518  0.3578 -0.5801
  969MOL0     H33690   7.498   1.567   2.671 -1.3739  0.6420  1.7982
  969MOL0     H33691   7.554   1.722   2.677 -0.3603  0.1643 -0.0775
  969MOL0     H33692   7.560   1.752   2.430 -2.7659  1.3040 -0.6527
  969MOL0     H33693   7.456   1.618   2.398 -0.8735  0.4190  0.5571
  969MOL0     H33694   7.640   1.456   2.466  0.3362 -0.2624 -2.1242
  969MOL0     H33695   7.667   1.552   2.326 -0.6005 -0.0460  0.0146
  969MOL0     H33696   7.751   1.615   2.612 -0.9710 -0.7874 -0.6787
  969MOL0     H33697   7.806   1.703   2.464 -1.8361  0.4741 -1.3603
  969MOL0     H33698   7.895   1.463   2.399 -0.3678 -1.0277  0.4573
  969MOL0     H33699   7.847   1.406   2.545 -0.1106 -0.5461 -1.2747
  969MOL0     H33700   8.084   1.473   2.557  0.8419 -0.3323  2.5888
  969MOL0     H33701   7.994   1.592   2.664 -2.9734  4.1368 -2.1176
  969MOL0     H33702   7.058   2.027   2.519  0.3291  0.7306  3.4739
  969MOL0     H33703   6.812   1.968   2.456 -1.7721  0.0298  0.8388
  969MOL0     H33704   6.506   1.624   2.563 -0.9409 -2.0139 -0.2342
  969MOL0     H33705   6.285   1.562   2.560  0.2313 -1.9461 -0.8821
  969MOL0     H33706   4.581   0.824   2.740  0.9096  0.5958  0.7782
  969MOL0     H33707   4.359   0.773   2.844 -1.2150 -0.4599  0.2513
  969MOL0     H33708   3.962   0.877   3.097 -1.0859 -1.7366 -0.9917
  969MOL0     H33709   3.786   0.810   3.252  0.7679 -1.3644 -1.5532
  969MOL0     H33710   3.733   0.756   3.599  0.8637 -0.7728 -0.6250
  969MOL0     H33711   3.729   0.848   3.452 -1.0120  0.5195  1.0526
  969MOL0     H33712   3.539   0.603   3.530 -0.5919  0.4104  1.3173
  969MOL0     H33713   3.518   0.698   3.387  0.7816  1.1386 -0.2869
  969MOL0     H33714   3.473   0.776   3.687 -0.4511  3.7239  1.0498
  969MOL0     H33715   3.503   0.901   3.573 -1.2562 -0.0248 -1.4918
  969MOL0     H33716   3.311   0.787   3.434  1.1586 -0.1801  0.4096
  969MOL0     H33717   3.256   0.853   3.587 -0.0557 -1.1495  2.6867
  969MOL0     H33718   3.175   0.460   3.663  2.3706 -1.1628  0.7459
  969MOL0     H33719   4.033   0.543   3.459  0.1936  0.2844  0.6872
  969MOL0     H33720   4.240   0.552   3.442 -3.1246  1.5399  0.3486
  969MOL0     H33721   4.283   0.495   3.281  1.5431 -2.2115  2.5180
  969MOL0     H33722   4.343   0.644   3.332 -0.8241  0.1429  3.5029
  970MOL0     O33723   1.909   4.960   1.522 -0.1009  0.4038 -0.1517
  970MOL0     C33724   1.831   5.008   1.437  0.0531  0.1718  0.5693
  970MOL0     O33725   1.834   5.135   1.395 -0.4126 -0.7367  0.0070
  970MOL0     C33726   1.937   5.221   1.424 -0.0592  0.3160  0.2686
  970MOL0     C33727   2.074   5.188   1.443  0.5701  0.0631 -0.0643
  970MOL0     C33728   2.163   5.292   1.473 -1.1859 -0.1942 -0.4826
  970MOL0     C33729   2.126   5.429   1.475  0.5533 -0.6659 -1.1724
  970MOL0     O33730   2.222   5.521   1.503  0.1848 -0.2371  0.1879
  970MOL0     C33731   2.186   5.664   1.489  0.5063  0.9870  0.0822
  970MOL0     C33732   2.304   5.744   1.548 -0.1569 -0.0418 -0.0391
  970MOL0     C33733   2.437   5.708   1.482 -0.5652  0.2510 -0.0099
  970MOL0     C33734   2.541   5.715   1.593  0.0855 -0.6840  0.3812
  970MOL0     C33735   2.685   5.692   1.548  0.6625 -1.4699  0.9302
  970MOL0     C33736   2.788   5.720   1.664 -0.7952  0.1149  0.3200
  970MOL0     C33737   2.927   5.677   1.621  0.9917  1.0555 -0.3499
  970MOL0     C33738   3.019   5.682   1.738  0.2437  0.3351  0.0947
  970MOL0     N33739   3.156   5.668   1.685 -0.2923 -0.2888 -0.2474
  970MOL0     C33740   3.238   5.775   1.650  0.4094  0.0222  0.0362
  970MOL0     C33741   3.348   5.710   1.598  0.0644 -0.8359 -0.5084
  970MOL0     C33742   3.462   5.792   1.538  0.1186 -0.1489  0.1101
  970MOL0     C33743   3.405   5.854   1.412  0.1939  0.2661  0.4632
  970MOL0     C33744   3.509   5.917   1.325  0.7003  0.5921  1.4314
  970MOL0     C33745   3.631   5.828   1.288  0.5321 -0.3077  0.2644
  970MOL0     O33746   3.718   5.929   1.233  0.1853  0.7997  0.0716
  970MOL0     C33747   3.849   5.888   1.191 -0.5214 -0.2644  0.2261
  970MOL0     C33748   3.912   5.768   1.201 -0.2505  0.4244 -0.9689
  970MOL0     C33749   4.049   5.743   1.170 -0.2867  0.0536 -0.1091
  970MOL0     C33750   4.096   5.599   1.204 -1.3294  0.6021 -0.4138
  970MOL0     C33751   4.116   5.849   1.104 -0.3052  0.0421 -0.7705
  970MOL0     C33752   4.257   5.843   1.057 -0.2135  0.5949 -0.0394
  970MOL0     O33753   4.326   5.955   1.012 -0.7243 -0.3175  0.3914
  970MOL0     C33754   4.463   5.942   1.004 -0.2545  0.7247  0.1414
  970MOL0     C33755   4.527   5.847   0.918  0.2323 -0.3406  0.0486
  970MOL0     C33756   4.663   5.835   0.929  0.6051  0.5834 -0.2974
  970MOL0     C33757   4.739   5.907   1.025 -0.2068 -0.2195  0.0512
  970MOL0     O33758   4.873   5.870   1.018  0.0253 -0.0481 -0.2919
  970MOL0     C33759   4.956   5.912   1.133 -0.2398 -0.6781 -0.1776
  970MOL0     C33760   5.076   5.815   1.156 -0.7100 -0.4766  0.1846
  970MOL0     C33761   5.034   5.675   1.218  0.5205 -0.7302 -0.8106
  970MOL0     C33762   5.146   5.576   1.257  0.2232  0.0111 -0.0837
  970MOL0     C33763   5.081   5.445   1.317  0.0596 -0.2103 -0.2045
  970MOL0     C33764   5.175   5.329   1.314  1.1542 -0.1220 -0.2730
  970MOL0     C33765   5.282   5.347   1.415 -0.3137 -0.0458 -0.5494
  970MOL0     C33766   5.383   5.224   1.408  0.2338 -0.0931 -0.4411
  970MOL0    Cl33767   5.295   5.079   1.466  0.3156  0.5824 -0.1251
  970MOL0     C33768   4.677   6.001   1.108  0.4443 -0.7419  0.4612
  970MOL0     C33769   4.536   6.015   1.106  0.4933 -0.2188  0.2445
  970MOL0     O33770   4.311   5.731   1.064 -0.2476 -0.1603  0.1918
  970MOL0     C33771   4.052   5.970   1.085 -0.4589  0.2170 -0.1796
  970MOL0     C33772   3.925   5.990   1.127 -1.2694 -0.4845 -0.3084
  970MOL0     N33773   3.333   5.573   1.619 -0.5300  0.7995  0.1529
  970MOL0     N33774   3.221   5.549   1.678 -0.0179 -0.2121 -0.8299
  970MOL0     C33775   1.987   5.459   1.440  0.3990 -0.1462  0.2892
  970MOL0     C33776   1.896   5.356   1.423  0.2851 -0.2406 -0.5901
  970MOL0     C33777   1.717   4.933   1.384 -0.5135  0.5715 -0.1869
  970MOL0     C33778   1.743   4.797   1.377  0.3675  1.1843  0.0737
  970MOL0     C33779   1.651   4.708   1.322  0.3752  0.1161 -0.4172
  970MOL0     C33780   1.530   4.757   1.278  0.7079  0.0259  0.3269
  970MOL0     O33781   1.428   4.686   1.221  0.3147  0.3593 -0.3039
  970MOL0     C33782   1.411   4.550   1.276  0.1221 -1.2133 -0.4126
  970MOL0     C33783   1.382   4.559   1.431  1.2070  0.4635 -0.0715
  970MOL0     C33784   1.240   4.566   1.462 -0.9208  0.6443 -1.0054
  970MOL0     C33785   1.171   4.674   1.388 -1.3700  0.3017 -0.0666
  970MOL0     C33786   1.023   4.653   1.387  0.5618 -0.4298 -0.5543
  970MOL0     C33787   0.906   4.640   1.360 -0.0197  0.5240 -0.5189
  970MOL0     C33788   1.500   4.891   1.285 -0.5374  0.0739 -0.5430
  970MOL0     C33789   1.598   4.983   1.338 -1.1308 -1.1242 -0.1878
  970MOL0     C33790   1.563   5.138   1.345 -0.5906  0.1630 -0.4918
  970MOL0     H33791   2.095   5.082   1.435 -0.4269 -0.2171  0.7134
  970MOL0     H33792   2.264   5.260   1.498 -1.6028 -1.3149 -0.1803
  970MOL0     H33793   2.100   5.685   1.553  0.9632  4.8983 -0.2888
  970MOL0     H33794   2.165   5.690   1.385  0.3117  0.1487 -0.0894
  970MOL0     H33795   2.288   5.850   1.527  2.2542 -0.0733 -2.7382
  970MOL0     H33796   2.303   5.733   1.657 -1.2784  1.5736  0.1453
  970MOL0     H33797   2.423   5.609   1.438  0.1193  0.1851 -0.0813
  970MOL0     H33798   2.473   5.770   1.399  1.0629 -0.7462 -0.0885
  970MOL0     H33799   2.522   5.812   1.638  0.4151  0.1758 -1.2583
  970MOL0     H33800   2.514   5.637   1.665 -0.2004  0.5267  1.6196
  970MOL0     H33801   2.705   5.757   1.462  0.2251 -0.3985  1.6098
  970MOL0     H33802   2.694   5.589   1.515  1.7397 -0.6917 -1.4022
  970MOL0     H33803   2.798   5.824   1.695  1.0363  0.2032 -0.4408
  970MOL0     H33804   2.752   5.665   1.751 -0.9283  2.4005  1.7984
  970MOL0     H33805   2.955   5.743   1.538  0.0970 -0.2056 -1.6814
  970MOL0     H33806   2.918   5.574   1.587  0.1933  0.7282  0.7838
  970MOL0     H33807   3.014   5.782   1.782 -2.5158 -0.4696  1.8391
  970MOL0     H33808   2.987   5.603   1.807  2.2997  1.5605  2.6048
  970MOL0     H33809   3.226   5.882   1.664  3.4151  0.2241  1.7789
  970MOL0     H33810   3.543   5.722   1.520  0.3457 -0.1934  1.2100
  970MOL0     H33811   3.497   5.873   1.603  1.3493 -0.0623 -0.6441
  970MOL0     H33812   3.353   5.774   1.357 -0.1382 -0.6492  2.0347
  970MOL0     H33813   3.332   5.932   1.438 -0.9739 -1.5552  3.1258
  970MOL0     H33814   3.465   5.941   1.228  0.2554  0.3776  1.5777
  970MOL0     H33815   3.557   6.006   1.367 -0.0114  0.5115  2.4542
  970MOL0     H33816   3.674   5.794   1.383 -2.4945 -0.4741  1.6877
  970MOL0     H33817   3.605   5.748   1.219  0.8288  0.7042 -1.0653
  970MOL0     H33818   3.861   5.680   1.237  1.7572 -0.5172 -0.2357
  970MOL0     H33819   4.105   5.546   1.109 -1.5324 -2.3975  1.0980
  970MOL0     H33820   4.021   5.548   1.265 -0.0537  0.5744  1.1909
  970MOL0     H33821   4.184   5.604   1.268  1.5200  0.0028 -4.0150
  970MOL0     H33822   4.476   5.790   0.841  0.6978 -1.2643  0.4139
  970MOL0     H33823   4.713   5.768   0.860  1.2700 -1.9532  2.4601
  970MOL0     H33824   4.987   6.015   1.113 -0.7700 -0.4283  0.2580
  970MOL0     H33825   4.893   5.915   1.222 -2.2418  1.2344 -1.5266
  970MOL0     H33826   5.143   5.799   1.071 -0.8029  0.2031 -0.0180
  970MOL0     H33827   5.144   5.871   1.220  1.2716  0.9937 -2.9372
  970MOL0     H33828   4.966   5.619   1.154 -2.2718  2.7771 -1.2411
  970MOL0     H33829   4.978   5.693   1.310  1.7495 -0.8768 -0.0224
  970MOL0     H33830   5.217   5.625   1.325  1.1321  1.8377 -2.2125
  970MOL0     H33831   5.213   5.563   1.171  0.5761 -1.4834  0.3887
  970MOL0     H33832   5.033   5.463   1.414 -1.7749  4.6617 -1.7114
  970MOL0     H33833   4.998   5.417   1.251  0.7812 -0.9742 -0.8021
  970MOL0     H33834   5.222   5.324   1.216  0.1669 -0.6564 -0.7321
  970MOL0     H33835   5.112   5.240   1.328 -1.5312  1.7423  0.2605
  970MOL0     H33836   5.251   5.361   1.519  3.4110 -1.8663  0.9792
  970MOL0     H33837   5.344   5.429   1.380  2.8941 -2.8384 -1.9244
  970MOL0     H33838   5.469   5.241   1.474  1.9104  0.9703 -2.7296
  970MOL0     H33839   5.426   5.210   1.308  0.8255 -2.8602  0.1228
  970MOL0     H33840   4.729   6.069   1.174 -0.3582 -0.0794  0.4333
  970MOL0     H33841   4.485   6.098   1.154  1.0109  0.8709 -1.0456
  970MOL0     H33842   4.097   6.061   1.045 -1.2790  0.4160 -0.6866
  970MOL0     H33843   3.889   6.092   1.122  1.6345  0.8438  2.3038
  970MOL0     H33844   1.950   5.561   1.439  2.2551  0.5704  0.5078
  970MOL0     H33845   1.791   5.374   1.403  0.6418  0.1481 -2.2769
  970MOL0     H33846   1.838   4.754   1.407  0.3269  1.1761  0.1933
  970MOL0     H33847   1.680   4.603   1.324 -0.1488 -0.0623  2.7082
  970MOL0     H33848   1.336   4.490   1.223  1.6331 -3.7196  0.0844
  970MOL0     H33849   1.503   4.490   1.275 -1.4847 -4.1908  3.4289
  970MOL0     H33850   1.426   4.651   1.472  1.9537  0.3729 -0.6695
  970MOL0     H33851   1.419   4.476   1.493 -1.7261  0.6395  2.1621
  970MOL0     H33852   1.197   4.469   1.434 -1.2643  0.7375 -0.8093
  970MOL0     H33853   1.241   4.570   1.571  2.3688  1.7733 -0.9655
  970MOL0     H33854   1.196   4.683   1.282  1.1778  1.7551  0.5845
  970MOL0     H33855   1.207   4.766   1.435  2.7704 -0.9307 -0.4825
  970MOL0     H33856   0.801   4.631   1.343  0.0948 -1.2909 -0.4541
  970MOL0     H33857   1.405   4.926   1.247 -0.9958  0.2646  0.7541
  970MOL0     H33858   1.629   5.196   1.280 -0.2443 -0.7648 -0.9963
  970MOL0     H33859   1.462   5.158   1.309  0.4315  2.7720 -2.1938
  970MOL0     H33860   1.579   5.164   1.449  1.5726 -2.1556 -0.1499
  971MOL0     O33861   3.471   1.218   2.226 -0.4893 -0.5038 -1.0293
  971MOL0     C33862   3.443   1.109   2.275 -0.7388 -0.3150  0.1283
  971MOL0     O33863   3.531   1.010   2.283  0.5448  0.1443 -0.4972
  971MOL0     C33864   3.666   1.033   2.275  0.3978  0.6832 -0.3160
  971MOL0     C33865   3.742   1.135   2.329 -0.8876 -0.7131 -0.0705
  971MOL0     C33866   3.886   1.135   2.314  0.7466 -0.7342 -0.8907
  971MOL0     C33867   3.943   1.031   2.252  0.2438  0.0899 -0.4370
  971MOL0     O33868   4.082   1.020   2.236 -0.0160 -0.1426  0.1978
  971MOL0     C33869   4.159   1.130   2.182  0.5277 -0.1723  0.1440
  971MOL0     C33870   4.296   1.085   2.141 -0.4794  0.3872  0.2573
  971MOL0     C33871   4.309   0.995   2.017 -0.6645  0.4804  1.0413
  971MOL0     C33872   4.463   0.963   2.009 -0.1687  0.5866 -0.5583
  971MOL0     C33873   4.513   0.895   1.875 -0.7934 -0.4520  0.4358
  971MOL0     C33874   4.442   0.757   1.849 -0.5937  0.6900 -0.3537
  971MOL0     C33875   4.475   0.696   1.710 -0.1718 -0.2633  0.4263
  971MOL0     C33876   4.624   0.651   1.691 -0.2764 -0.0205  0.1304
  971MOL0     N33877   4.628   0.533   1.604  0.7504 -0.0866 -0.3665
  971MOL0     C33878   4.616   0.393   1.636  0.0422 -0.4738 -0.4369
  971MOL0     C33879   4.614   0.328   1.517 -0.1478 -0.2579 -0.6580
  971MOL0     C33880   4.626   0.178   1.504 -0.0876  0.6971 -0.1104
  971MOL0     C33881   4.490   0.119   1.497 -0.2272  0.9408 -0.2541
  971MOL0     C33882   4.403   0.121   1.629 -0.4562  1.0978 -0.5054
  971MOL0     C33883   4.269   0.047   1.620  0.6235 -0.4413 -0.5197
  971MOL0     O33884   4.195   0.060   1.738  0.0645 -0.9348 -0.0367
  971MOL0     C33885   4.232  -0.013   1.850 -0.6041 -0.1686 -0.6475
  971MOL0     C33886   4.157   0.023   1.962 -0.2482 -0.1362 -0.7893
  971MOL0     C33887   4.156  -0.049   2.083  0.1696 -0.6990 -0.2659
  971MOL0     C33888   4.062   0.001   2.189 -0.9738  0.8373 -0.1910
  971MOL0     C33889   4.231  -0.164   2.095  0.1627 -0.0632 -0.1088
  971MOL0     C33890   4.226  -0.251   2.205 -0.3818 -0.2886  0.3787
  971MOL0     O33891   4.348  -0.288   2.246  0.4627 -0.0640 -0.5555
  971MOL0     C33892   4.352  -0.390   2.341 -0.6469 -0.8487 -0.1791
  971MOL0     C33893   4.415  -0.510   2.317  0.4052  0.0923 -0.1558
  971MOL0     C33894   4.428  -0.599   2.429  0.5530  0.5576  0.1780
  971MOL0     C33895   4.371  -0.573   2.552 -0.0584 -0.1630 -0.1024
  971MOL0     O33896   4.369  -0.667   2.650  0.1644  0.7582  0.4965
  971MOL0     C33897   4.323  -0.799   2.609  0.6142 -0.7637  1.0636
  971MOL0     C33898   4.382  -0.891   2.712 -0.2016  0.8559 -0.1267
  971MOL0     C33899   4.336  -0.868   2.861 -0.1031 -0.3257  0.2158
  971MOL0     C33900   4.184  -0.893   2.856  1.3015  0.8418 -0.3319
  971MOL0     C33901   4.136  -0.908   3.005  0.4120 -0.6805 -0.7263
  971MOL0     C33902   3.986  -0.931   2.993  0.8930 -0.5349  0.4840
  971MOL0     C33903   3.935  -0.950   3.139 -0.2642  0.3922 -0.5715
  971MOL0     C33904   3.790  -0.901   3.159 -0.2975 -0.9259  0.2994
  971MOL0    Cl33905   3.682  -1.022   3.092 -0.0677 -0.2747  0.1292
  971MOL0     C33906   4.317  -0.448   2.579 -0.4913  0.6552  0.3476
  971MOL0     C33907   4.305  -0.355   2.472  0.6861  0.1566  0.1402
  971MOL0     O33908   4.119  -0.286   2.249 -0.0009  0.4083  0.4848
  971MOL0     C33909   4.303  -0.199   1.984 -0.4671 -0.7117 -0.3804
  971MOL0     C33910   4.302  -0.127   1.862 -0.3381  1.1085  0.2947
  971MOL0     N33911   4.618   0.425   1.420  0.0968  0.9100  0.1141
  971MOL0     N33912   4.638   0.540   1.469 -0.0953  0.6674  0.9204
  971MOL0     C33913   3.864   0.927   2.218 -1.1954  0.1721  0.5338
  971MOL0     C33914   3.730   0.932   2.213 -0.2369 -0.0053  0.6425
  971MOL0     C33915   3.307   1.080   2.307  0.4545 -0.0834  0.3134
  971MOL0     C33916   3.276   0.954   2.363  0.0966  0.5323  0.1055
  971MOL0     C33917   3.135   0.909   2.376 -0.6999  0.0378 -0.4145
  971MOL0     C33918   3.033   0.997   2.334  0.6798  0.3735  0.1580
  971MOL0     O33919   2.899   0.963   2.341  0.0101  0.0825 -0.2764
  971MOL0     C33920   2.857   0.903   2.469  0.4091 -0.0364 -0.0788
  971MOL0     C33921   2.815   0.759   2.451  0.4490 -0.9012  0.2152
  971MOL0     C33922   2.737   0.703   2.567  1.3775 -0.3668 -0.7435
  971MOL0     C33923   2.654   0.575   2.535  0.1749 -0.1895  0.6993
  971MOL0     C33924   2.726   0.473   2.452 -0.9378 -0.2111 -0.0698
  971MOL0     C33925   2.786   0.381   2.394  0.9031 -0.4082 -0.8582
  971MOL0     C33926   3.061   1.116   2.281 -1.0626 -1.0570 -0.0419
  971MOL0     C33927   3.194   1.165   2.274  0.1560  0.0679  0.8035
  971MOL0     C33928   3.202   1.300   2.211  0.1707  0.2399 -0.3266
  971MOL0     H33929   3.685   1.212   2.380  0.6400 -0.7169  1.7323
  971MOL0     H33930   3.949   1.217   2.347 -0.1727  0.3294 -1.6767
  971MOL0     H33931   4.172   1.202   2.264  0.5434  2.6252 -2.1339
  971MOL0     H33932   4.107   1.188   2.105 -0.4952  0.3015  1.1646
  971MOL0     H33933   4.368   1.166   2.124 -0.6800  0.8784  1.5508
  971MOL0     H33934   4.332   1.031   2.230 -1.7595 -1.9600 -0.5662
  971MOL0     H33935   4.255   0.902   2.037  0.9775 -0.8168 -0.3193
  971MOL0     H33936   4.286   1.036   1.918  2.7154 -1.4501 -0.7040
  971MOL0     H33937   4.525   1.053   2.013 -1.2346  1.3826 -1.2379
  971MOL0     H33938   4.481   0.890   2.088 -0.2930 -0.7834 -1.7637
  971MOL0     H33939   4.622   0.890   1.875 -0.5952  2.3425  0.2224
  971MOL0     H33940   4.491   0.954   1.785  2.2490  0.5368  0.2400
  971MOL0     H33941   4.469   0.688   1.929 -2.3471  0.5136  0.1177
  971MOL0     H33942   4.333   0.758   1.860 -0.5513  0.0510  0.1724
  971MOL0     H33943   4.436   0.759   1.629  2.5617  3.2008  1.5388
  971MOL0     H33944   4.420   0.602   1.699  1.7158 -1.1631 -3.0968
  971MOL0     H33945   4.689   0.727   1.647  1.4732 -2.4808 -1.8577
  971MOL0     H33946   4.664   0.627   1.790  1.8250 -0.1101 -0.6810
  971MOL0     H33947   4.619   0.358   1.738 -1.4271  2.4110  0.7288
  971MOL0     H33948   4.675   0.133   1.590 -1.7188 -1.1070 -0.0412
  971MOL0     H33949   4.678   0.142   1.414  0.1833 -0.4650  0.4973
  971MOL0     H33950   4.436   0.151   1.408  1.2560  2.8670 -0.5249
  971MOL0     H33951   4.520   0.015   1.483  2.7718  1.6776 -0.0407
  971MOL0     H33952   4.466   0.084   1.710 -0.4937 -1.1080 -1.3991
  971MOL0     H33953   4.372   0.223   1.650 -0.3420  1.0590 -0.1404
  971MOL0     H33954   4.208   0.094   1.542 -0.6815  0.4022  0.9386
  971MOL0     H33955   4.272  -0.060   1.598  0.4744 -0.7015  0.6510
  971MOL0     H33956   4.090   0.108   1.949 -2.7744 -1.1752  3.3958
  971MOL0     H33957   4.079   0.104   2.224 -4.0008  0.9847  1.1024
  971MOL0     H33958   4.073  -0.053   2.284 -1.1531  2.9251  1.0862
  971MOL0     H33959   3.961  -0.013   2.151 -0.1157  0.7237 -2.6206
  971MOL0     H33960   4.468  -0.532   2.225  3.2306  0.7222  1.2235
  971MOL0     H33961   4.487  -0.689   2.416 -0.2649  0.2871 -2.1198
  971MOL0     H33962   4.215  -0.815   2.610  0.5245 -0.3632  2.9517
  971MOL0     H33963   4.351  -0.826   2.507 -0.7384  1.2249  0.1172
  971MOL0     H33964   4.372  -0.995   2.677  2.3755  1.4301 -2.9735
  971MOL0     H33965   4.491  -0.878   2.712  0.4357 -3.0946 -0.1874
  971MOL0     H33966   4.361  -0.766   2.892  1.5380 -0.7326  0.2982
  971MOL0     H33967   4.390  -0.938   2.925  2.0793  0.7695 -0.3382
  971MOL0     H33968   4.159  -0.981   2.795  2.0577 -0.4078  1.1086
  971MOL0     H33969   4.146  -0.804   2.805 -1.0897  0.5947  0.8958
  971MOL0     H33970   4.189  -0.994   3.049  3.1720  1.6103  0.7778
  971MOL0     H33971   4.158  -0.818   3.063 -2.0397 -0.1423 -0.5364
  971MOL0     H33972   3.959  -1.019   2.935  2.3743 -1.7235  1.5022
  971MOL0     H33973   3.946  -0.842   2.945  1.0625 -0.7579 -0.0752
  971MOL0     H33974   3.998  -0.889   3.205  1.4988 -1.3707 -0.5124
  971MOL0     H33975   3.940  -1.050   3.184 -0.4945  0.6383  0.0128
  971MOL0     H33976   3.773  -0.800   3.122  2.3340 -0.4561  0.1724
  971MOL0     H33977   3.763  -0.901   3.265 -4.2637 -0.3863 -0.5353
  971MOL0     H33978   4.282  -0.437   2.681  0.3490 -0.5546  0.7814
  971MOL0     H33979   4.267  -0.255   2.490  2.8312  1.5240 -2.2261
  971MOL0     H33980   4.354  -0.294   1.994 -0.9598 -0.9251  0.1864
  971MOL0     H33981   4.345  -0.168   1.771 -0.8611 -1.8061  1.2630
  971MOL0     H33982   3.908   0.838   2.173 -1.3748  0.6000 -0.5148
  971MOL0     H33983   3.679   0.845   2.171 -0.8711  2.0996 -3.4099
  971MOL0     H33984   3.358   0.884   2.378 -1.5877 -1.4857  0.5409
  971MOL0     H33985   3.105   0.810   2.407  0.0645  0.7675  3.0943
  971MOL0     H33986   2.936   0.916   2.543  1.4319 -1.7574 -0.8195
  971MOL0     H33987   2.766   0.956   2.499  0.9215  2.1346 -2.0075
  971MOL0     H33988   2.901   0.692   2.439 -1.7968 -3.9110 -0.2249
  971MOL0     H33989   2.737   0.757   2.374 -1.0422 -1.3241  1.6769
  971MOL0     H33990   2.816   0.672   2.636  1.2725 -1.7321 -1.2167
  971MOL0     H33991   2.677   0.776   2.623  1.1457 -0.8501 -0.3540
  971MOL0     H33992   2.558   0.604   2.491  0.1493 -1.7652 -0.3444
  971MOL0     H33993   2.634   0.526   2.630  0.7606 -1.8184  0.0251
  971MOL0     H33994   2.840   0.297   2.354  1.0884 -0.0522 -1.3533
  971MOL0     H33995   2.984   1.190   2.263  1.4644  1.5312 -0.8763
  971MOL0     H33996   3.115   1.363   2.231  0.2895  0.1906  0.3965
  971MOL0     H33997   3.291   1.354   2.245 -0.5034  1.5586 -0.6047
  971MOL0     H33998   3.202   1.274   2.105 -1.2693 -4.6115  0.6233
  972MOL0     O33999   1.198   9.051  10.445  0.4522  0.1854 -0.3113
  972MOL0     C34000   1.165   8.989  10.545  0.3295  0.6298  0.4269
  972MOL0     O34001   1.146   8.856  10.547 -0.0517  0.5433  0.5220
  972MOL0     C34002   1.214   8.774  10.466 -0.1418  0.8264 -0.7832
  972MOL0     C34003   1.184   8.741  10.337 -0.2684  0.0113  0.5147
  972MOL0     C34004   1.251   8.637  10.277 -0.6939 -0.0635  0.1338
  972MOL0     C34005   1.364   8.582  10.329  0.1869  0.1351 -0.1201
  972MOL0     O34006   1.430   8.484  10.260 -0.0116 -0.5492  0.4167
  972MOL0     C34007   1.526   8.397  10.317  0.2147  0.6444 -0.8041
  972MOL0     C34008   1.570   8.290  10.209  0.2804 -0.3167 -0.5876
  972MOL0     C34009   1.674   8.193  10.268 -0.4319 -0.0754  0.2979
  972MOL0     C34010   1.730   8.105  10.158  0.0328  0.5177 -0.2762
  972MOL0     C34011   1.832   8.014  10.215  0.1297  0.0689 -0.6301
  972MOL0     C34012   1.894   7.905  10.128  0.1594  0.3622 -0.3303
  972MOL0     C34013   1.987   7.950  10.012  0.4091 -0.2172 -0.5496
  972MOL0     C34014   2.124   8.015  10.054  0.2528  0.6537  0.5890
  972MOL0     N34015   2.228   7.916  10.086 -0.6428 -0.3580  0.3568
  972MOL0     C34016   2.363   7.940  10.077  0.0640  0.6379  0.0637
  972MOL0     C34017   2.428   7.839  10.135 -0.2836  0.4944 -0.1320
  972MOL0     C34018   2.586   7.816  10.150  0.4146  0.0385 -0.0481
  972MOL0     C34019   2.621   7.825  10.300 -1.1969 -0.1812  0.2225
  972MOL0     C34020   2.766   7.773  10.315  0.1157 -0.5716  0.0791
  972MOL0     C34021   2.830   7.811  10.444 -0.4270  0.2068 -0.3248
  972MOL0     O34022   2.855   7.957  10.426 -0.7118  0.4197  0.0360
  972MOL0     C34023   2.900   8.039  10.535 -0.5200  0.3983  1.1945
  972MOL0     C34024   2.936   8.178  10.510  0.2436  0.4165 -0.5238
  972MOL0     C34025   3.007   8.260  10.606 -0.4180 -0.5872  0.1477
  972MOL0     C34026   3.051   8.385  10.543 -0.4763  0.3402  0.2093
  972MOL0     C34027   3.041   8.218  10.733  0.5188  0.6856  0.0377
  972MOL0     C34028   3.110   8.295  10.840  0.6063 -0.1009  0.0034
  972MOL0     O34029   3.127   8.223  10.965  0.4072 -0.2493  0.5234
  972MOL0     C34030   3.186   8.297  11.069 -0.0210  0.4319  0.5833
  972MOL0     C34031   3.325   8.273  11.106  0.3082  0.6272 -0.1014
  972MOL0     C34032   3.372   8.326  11.229 -0.5062  0.1222  0.3952
  972MOL0     C34033   3.284   8.411  11.302 -0.3744  0.2942  0.4727
  972MOL0     O34034   3.331   8.475  11.415 -0.2035 -0.0296 -0.3800
  972MOL0     C34035   3.279   8.433  11.540 -0.2888  0.4200 -0.5143
  972MOL0     C34036   3.238   8.552  11.640  1.1800  0.0073  0.4678
  972MOL0     C34037   3.342   8.658  11.663 -0.0899  0.7834  0.3872
  972MOL0     C34038   3.441   8.616  11.769 -0.3512  0.5411 -0.2585
  972MOL0     C34039   3.573   8.693  11.765 -0.1840 -0.0830 -0.5161
  972MOL0     C34040   3.684   8.648  11.863 -0.3138  0.7589 -0.2540
  972MOL0     C34041   3.824   8.684  11.812  0.5316  0.1643  0.0184
  972MOL0     C34042   3.920   8.662  11.915 -0.3811  0.1569 -0.3738
  972MOL0    Cl34043   3.920   8.789  12.024  0.2593 -0.0800 -0.1790
  972MOL0     C34044   3.157   8.443  11.254 -0.1066 -0.4843 -0.6189
  972MOL0     C34045   3.105   8.383  11.145  1.0037  0.4874  0.3384
  972MOL0     O34046   3.148   8.405  10.819  0.4100 -0.0916  0.1675
  972MOL0     C34047   3.013   8.083  10.758  0.5144 -0.1872 -0.8320
  972MOL0     C34048   2.938   7.998  10.672  0.1453 -0.6824  0.4936
  972MOL0     N34049   2.329   7.757  10.191  0.4441  0.4699 -0.2192
  972MOL0     N34050   2.215   7.805  10.160 -0.5078  1.1787  0.6505
  972MOL0     C34051   1.401   8.616  10.460  0.0173 -0.0730 -0.3796
  972MOL0     C34052   1.330   8.714  10.526  0.7928  0.2557 -0.3950
  972MOL0     C34053   1.145   9.049  10.676 -0.1348 -0.3956  0.3258
  972MOL0     C34054   1.084   8.978  10.780 -0.3121 -0.0231  0.0567
  972MOL0     C34055   1.056   9.031  10.902  0.8964 -0.0062  0.0785
  972MOL0     C34056   1.077   9.162  10.938 -0.2474  0.2876  0.5268
  972MOL0     O34057   1.037   9.230  11.054 -0.7477  0.2062 -0.3230
  972MOL0     C34058   0.953   9.160  11.143  0.4805  0.4038  0.0412
  972MOL0     C34059   0.911   9.247  11.263 -0.3502  0.5095  0.0973
  972MOL0     C34060   0.817   9.359  11.223  0.3172 -0.4939  0.3073
  972MOL0     C34061   0.751   9.434  11.347  0.6276  0.6895  0.7451
  972MOL0     C34062   0.858   9.489  11.428 -0.1047 -0.0247  0.1133
  972MOL0     C34063   0.963   9.518  11.485  0.4930  0.7603 -1.0140
  972MOL0     C34064   1.152   9.231  10.837  0.2572 -0.7357 -0.6600
  972MOL0     C34065   1.190   9.179  10.718 -0.2009 -0.3642 -0.6084
  972MOL0     C34066   1.265   9.271  10.623  0.2768  1.0282  0.0916
  972MOL0     H34067   1.090   8.779  10.298 -0.5942 -1.2785 -0.0218
  972MOL0     H34068   1.234   8.612  10.173  2.3368  1.0737 -0.7542
  972MOL0     H34069   1.487   8.351  10.408  1.5634  1.5734  0.2940
  972MOL0     H34070   1.617   8.452  10.344 -0.1337  1.0092 -0.3551
  972MOL0     H34071   1.477   8.243  10.177 -0.4446  1.4636 -1.1923
  972MOL0     H34072   1.591   8.347  10.118 -3.0851 -0.7380 -1.7681
  972MOL0     H34073   1.756   8.250  10.313  0.1583 -1.3889  0.9437
  972MOL0     H34074   1.628   8.133  10.347 -3.2205  0.3197 -0.9134
  972MOL0     H34075   1.653   8.045  10.108  1.4454 -0.7206 -1.0540
  972MOL0     H34076   1.770   8.168  10.079  0.1386  1.1068  0.2373
  972MOL0     H34077   1.784   7.967  10.301  1.2460  0.6345  0.3345
  972MOL0     H34078   1.902   8.082  10.264  0.2877  0.0914 -0.8886
  972MOL0     H34079   1.949   7.833  10.189  0.2276 -1.7063 -2.6615
  972MOL0     H34080   1.819   7.838  10.084  2.3211 -2.0927 -0.4805
  972MOL0     H34081   1.937   8.023   9.947  1.7073  0.7217 -0.5124
  972MOL0     H34082   2.015   7.873   9.939  1.6219 -0.4953  0.1797
  972MOL0     H34083   2.156   8.091   9.982 -0.0503  0.2909  0.0653
  972MOL0     H34084   2.109   8.064  10.152  0.9375  2.0948  0.0093
  972MOL0     H34085   2.427   7.999  10.012  0.8555  1.2811  1.3762
  972MOL0     H34086   2.649   7.884  10.091 -0.3275  2.3103  1.6184
  972MOL0     H34087   2.613   7.713  10.126  1.0187  0.9380 -3.9485
  972MOL0     H34088   2.623   7.933  10.316  1.3358 -0.1193 -0.1586
  972MOL0     H34089   2.551   7.771  10.365  0.4884 -3.0140 -0.1462
  972MOL0     H34090   2.765   7.664  10.315  3.6804 -0.7993  2.6782
  972MOL0     H34091   2.821   7.810  10.227  1.4895 -0.7407  0.8282
  972MOL0     H34092   2.756   7.788  10.522  2.0658  0.5943  2.3238
  972MOL0     H34093   2.923   7.757  10.464 -0.2428  0.4655 -0.4709
  972MOL0     H34094   2.904   8.221  10.416 -4.2278 -0.5079  0.3331
  972MOL0     H34095   2.992   8.395  10.451 -1.2913 -0.4507  0.6246
  972MOL0     H34096   3.158   8.389  10.525 -0.1568 -0.0867  1.8730
  972MOL0     H34097   3.018   8.465  10.609 -1.2324  0.6162 -0.4811
  972MOL0     H34098   3.390   8.208  11.048 -0.6856 -0.5002  0.0049
  972MOL0     H34099   3.477   8.310  11.251  0.1635 -0.5848 -2.7662
  972MOL0     H34100   3.191   8.370  11.522 -1.0182  0.8361  1.3076
  972MOL0     H34101   3.351   8.372  11.595  1.5412  0.7585 -2.4181
  972MOL0     H34102   3.146   8.603  11.610  1.8849 -0.0034 -1.9329
  972MOL0     H34103   3.218   8.506  11.737  0.0249 -0.2645  0.1171
  972MOL0     H34104   3.298   8.752  11.697  1.9901  1.0139  2.7337
  972MOL0     H34105   3.390   8.677  11.566 -1.8076  1.4668 -0.3674
  972MOL0     H34106   3.456   8.508  11.768  1.0369  0.6980  0.8092
  972MOL0     H34107   3.400   8.646  11.866  1.2211  1.3365  0.2034
  972MOL0     H34108   3.603   8.688  11.659  1.5759  2.5687 -0.2450
  972MOL0     H34109   3.548   8.798  11.785 -0.2070 -0.2127  0.1415
  972MOL0     H34110   3.677   8.539  11.866 -0.2595  0.7761  0.7602
  972MOL0     H34111   3.669   8.685  11.965 -0.4632 -2.0333  0.8203
  972MOL0     H34112   3.819   8.789  11.781  1.9013  0.3155  0.2256
  972MOL0     H34113   3.846   8.621  11.726 -4.0511 -1.2352 -0.3471
  972MOL0     H34114   4.022   8.659  11.877  1.3762  0.9934  3.7667
  972MOL0     H34115   3.890   8.570  11.966 -1.1538 -0.4732 -1.8647
  972MOL0     H34116   3.108   8.522  11.311  1.3420  1.1812 -1.6051
  972MOL0     H34117   3.003   8.407  11.117  0.2627 -0.7140  1.8970
  972MOL0     H34118   3.045   8.027  10.845 -2.8276 -1.9246 -0.5886
  972MOL0     H34119   2.921   7.897  10.707  1.7799 -1.0935  0.1646
  972MOL0     H34120   1.476   8.559  10.515  0.3431  1.9966  1.4639
  972MOL0     H34121   1.361   8.735  10.628 -0.4379 -0.1445  0.0829
  972MOL0     H34122   1.053   8.874  10.767  3.3439 -1.6981  2.7479
  972MOL0     H34123   1.010   8.968  10.977 -1.5721  0.0243 -1.3027
  972MOL0     H34124   0.866   9.132  11.083  0.7902  0.0142 -0.2343
  972MOL0     H34125   1.008   9.076  11.186 -0.9103 -1.1318 -1.0559
  972MOL0     H34126   0.992   9.296  11.318  0.0538  0.6480 -0.6155
  972MOL0     H34127   0.859   9.178  11.330  1.4777  0.4501  1.5030
  972MOL0     H34128   0.882   9.428  11.170  0.1693 -0.1114  0.6176
  972MOL0     H34129   0.735   9.328  11.158 -1.8483  2.9549  1.1289
  972MOL0     H34130   0.691   9.362  11.403  1.7247  0.1303  1.2280
  972MOL0     H34131   0.691   9.517  11.307 -5.6101 -3.6228 -0.3160
  972MOL0     H34132   1.058   9.528  11.534 -0.7552  1.8751  1.4016
  972MOL0     H34133   1.186   9.333  10.854 -2.7238  0.0189  1.7183
  972MOL0     H34134   1.199   9.313  10.547 -2.8395 -2.8316  0.3544
  972MOL0     H34135   1.327   9.347  10.672  1.2131  3.1125 -3.9078
  972MOL0     H34136   1.341   9.210  10.574  2.7182  3.7145  0.2757
  973MOL0     O34137   7.675   8.543   3.984  0.4556 -0.0789 -0.1859
  973MOL0     C34138   7.570   8.519   3.920 -1.1380  0.1706  0.6975
  973MOL0     O34139   7.571   8.475   3.790 -0.2474 -0.6867  0.4709
  973MOL0     C34140   7.660   8.373   3.753 -0.1724 -0.1636  0.0939
  973MOL0     C34141   7.788   8.391   3.690  0.3245 -0.3410  0.4896
  973MOL0     C34142   7.860   8.287   3.642  0.7513 -0.2510  0.3915
  973MOL0     C34143   7.822   8.151   3.675 -0.7739  0.3583  0.5838
  973MOL0     O34144   7.903   8.049   3.614 -0.3454 -0.1470 -0.6118
  973MOL0     C34145   7.868   7.909   3.629 -0.4048 -0.3968 -0.1601
  973MOL0     C34146   7.948   7.828   3.526  0.6706 -0.1875  0.4600
  973MOL0     C34147   8.097   7.850   3.515 -0.3357  0.6665 -0.0264
  973MOL0     C34148   8.183   7.757   3.607 -0.2010 -0.2153 -0.0341
  973MOL0     C34149   8.325   7.750   3.554 -0.8413 -0.1388 -0.6164
  973MOL0     C34150   8.415   7.670   3.652  0.3755  0.1642  0.3513
  973MOL0     C34151   8.567   7.704   3.630  0.1107 -0.4069  0.1334
  973MOL0     C34152   8.651   7.591   3.684 -0.1787  0.8542  0.1357
  973MOL0     N34153   8.789   7.599   3.644 -0.0519 -0.1789 -0.6804
  973MOL0     C34154   8.832   7.564   3.525 -0.4028 -0.0930  0.6395
  973MOL0     C34155   8.960   7.537   3.547  0.0227  0.3365 -0.7651
  973MOL0     C34156   9.054   7.478   3.443 -0.4099  0.1868  0.3222
  973MOL0     C34157   9.114   7.336   3.477  0.3298  0.3284 -0.1215
  973MOL0     C34158   9.005   7.235   3.505  0.1142 -0.0882  0.1726
  973MOL0     C34159   8.911   7.210   3.382 -0.1108  0.1471 -0.4500
  973MOL0     O34160   8.994   7.208   3.265 -0.7945  0.2045  0.0155
  973MOL0     C34161   9.059   7.089   3.234 -0.2291 -0.2756  0.3702
  973MOL0     C34162   9.106   7.087   3.101 -0.5597  0.0808  0.4948
  973MOL0     C34163   9.176   6.973   3.048  0.7372  0.4500  1.6333
  973MOL0     C34164   9.217   6.972   2.893 -0.2047 -0.5148 -1.0269
  973MOL0     C34165   9.198   6.857   3.135 -0.6335 -0.3366  0.7997
  973MOL0     C34166   9.282   6.746   3.094  0.2160  0.1508 -0.2560
  973MOL0     O34167   9.256   6.628   3.157 -0.1833 -0.1447 -0.0551
  973MOL0     C34168   9.346   6.527   3.141 -0.3832  0.7059 -0.0850
  973MOL0     C34169   9.336   6.454   3.018  0.6141  0.2617 -0.7219
  973MOL0     C34170   9.445   6.357   2.991  0.7135 -0.4929  0.7768
  973MOL0     C34171   9.547   6.326   3.082  0.4381 -0.1855 -1.2793
  973MOL0     O34172   9.647   6.248   3.046 -0.4788 -0.4554  0.7054
  973MOL0     C34173   9.765   6.245   3.129  0.0249  0.1093 -0.2403
  973MOL0     C34174   9.887   6.193   3.048 -0.0570  0.4095 -0.1150
  973MOL0     C34175  10.006   6.223   3.132 -0.2947  0.3111 -0.2788
  973MOL0     C34176  10.131   6.155   3.078 -0.4736  0.0944 -0.1625
  973MOL0     C34177  10.252   6.174   3.169 -0.3365 -0.2123  0.3723
  973MOL0     C34178  10.374   6.105   3.114 -0.1165 -0.5883  0.2884
  973MOL0     C34179  10.473   6.091   3.223 -0.5527 -0.6534 -1.3887
  973MOL0     C34180  10.590   6.017   3.179 -0.1653 -0.2001 -0.1675
  973MOL0    Cl34181  10.696   5.995   3.322  0.3824  0.4664 -0.2100
  973MOL0     C34182   9.533   6.389   3.209 -0.7283  0.2479  0.8281
  973MOL0     C34183   9.446   6.494   3.233  0.6995  0.2203 -0.1264
  973MOL0     O34184   9.364   6.759   3.008 -0.4356  0.6887 -0.8996
  973MOL0     C34185   9.146   6.859   3.259  0.4731 -0.0485 -0.2243
  973MOL0     C34186   9.084   6.978   3.309  0.2243  0.2679 -0.1471
  973MOL0     N34187   8.992   7.557   3.679  0.2185  0.0198  0.3930
  973MOL0     N34188   8.882   7.588   3.740 -0.9713  0.2657 -0.2918
  973MOL0     C34189   7.706   8.135   3.747  0.2759  0.5201 -0.4633
  973MOL0     C34190   7.627   8.241   3.787  0.0100 -0.5378 -0.1215
  973MOL0     C34191   7.442   8.541   3.979  0.3940  0.4400 -0.4934
  973MOL0     C34192   7.326   8.491   3.911 -0.4573  0.5332  0.3259
  973MOL0     C34193   7.205   8.498   3.969 -0.0802  0.2570 -0.3057
  973MOL0     C34194   7.185   8.576   4.084  0.0182  0.3606  1.2669
  973MOL0     O34195   7.059   8.580   4.136  0.1629  0.5310 -0.5509
  973MOL0     C34196   6.966   8.672   4.078  0.0348 -0.5895  0.5174
  973MOL0     C34197   6.858   8.719   4.167 -0.2180 -0.2755 -0.0118
  973MOL0     C34198   6.911   8.801   4.291 -0.1029  0.1429 -0.3891
  973MOL0     C34199   6.813   8.902   4.346  0.2095  0.0060 -0.4513
  973MOL0     C34200   6.800   9.022   4.263  0.0723 -0.0310  0.3365
  973MOL0     C34201   6.767   9.126   4.219  0.2540  0.8623  0.2141
  973MOL0     C34202   7.291   8.631   4.151 -0.2703  0.2044 -0.6052
  973MOL0     C34203   7.423   8.614   4.102  0.5679 -0.9026  0.3149
  973MOL0     C34204   7.534   8.670   4.192 -0.2449 -0.3397  0.4970
  973MOL0     H34205   7.825   8.491   3.667 -0.1325  0.6625  3.6773
  973MOL0     H34206   7.947   8.296   3.578  0.2508  0.5573 -0.1948
  973MOL0     H34207   7.759   7.893   3.623 -0.5096  0.3948 -0.4642
  973MOL0     H34208   7.893   7.875   3.730  0.1565 -2.4627 -0.9362
  973MOL0     H34209   7.925   7.724   3.550 -0.0362 -0.6825 -2.0268
  973MOL0     H34210   7.926   7.851   3.421 -1.2486 -2.6000  0.2498
  973MOL0     H34211   8.137   7.837   3.414  2.0147  0.1072  0.9297
  973MOL0     H34212   8.119   7.953   3.545  2.3430 -0.0035  0.5072
  973MOL0     H34213   8.181   7.788   3.712 -0.9238 -1.1977  0.2511
  973MOL0     H34214   8.141   7.657   3.593 -2.2600  0.6431 -0.3492
  973MOL0     H34215   8.360   7.852   3.537 -1.2647  0.0733 -0.2486
  973MOL0     H34216   8.318   7.703   3.456  0.3770 -0.8274 -0.3958
  973MOL0     H34217   8.390   7.699   3.755  4.2325  1.6474  1.0037
  973MOL0     H34218   8.400   7.562   3.641  2.9333 -0.0278 -2.4911
  973MOL0     H34219   8.605   7.799   3.669 -3.1583  0.0035  2.7129
  973MOL0     H34220   8.582   7.705   3.522  0.1631 -2.9374  0.0401
  973MOL0     H34221   8.632   7.578   3.791 -0.4425 -1.2909 -0.1243
  973MOL0     H34222   8.612   7.495   3.647 -0.3960  2.0361 -2.9369
  973MOL0     H34223   8.775   7.547   3.434  1.0485 -2.2999  0.0785
  973MOL0     H34224   9.136   7.548   3.423 -2.2375  1.9903 -1.3559
  973MOL0     H34225   9.004   7.471   3.346  2.6227 -0.8075 -1.2989
  973MOL0     H34226   9.191   7.306   3.407  1.2742  1.5630  0.3461
  973MOL0     H34227   9.165   7.340   3.574 -0.6299 -4.8845  0.8930
  973MOL0     H34228   9.051   7.143   3.544 -1.8118 -0.4375  1.7959
  973MOL0     H34229   8.940   7.280   3.580 -0.3677  0.1386 -0.3657
  973MOL0     H34230   8.849   7.121   3.395  0.8991 -0.5890 -0.5377
  973MOL0     H34231   8.844   7.295   3.365  1.3327  1.4141 -0.0943
  973MOL0     H34232   9.089   7.176   3.041  1.8128 -0.2488 -0.8040
  973MOL0     H34233   9.179   7.063   2.843 -0.0579 -0.2933 -0.7332
  973MOL0     H34234   9.184   6.880   2.843  1.3971 -0.2839 -2.6260
  973MOL0     H34235   9.326   6.974   2.884 -0.0118 -3.0957  0.1154
  973MOL0     H34236   9.257   6.467   2.945 -0.2897 -0.1758  0.1580
  973MOL0     H34237   9.450   6.297   2.901  1.3579  0.3271  0.2466
  973MOL0     H34238   9.790   6.346   3.162 -0.9324 -0.2964  1.8968
  973MOL0     H34239   9.753   6.173   3.210 -0.3636 -0.4967 -0.8203
  973MOL0     H34240   9.887   6.085   3.031 -1.5307  0.2144  0.9941
  973MOL0     H34241   9.898   6.243   2.952  1.5346 -1.0232 -0.7227
  973MOL0     H34242   9.996   6.181   3.233  0.9140  0.4177 -0.0945
  973MOL0     H34243  10.023   6.331   3.133  1.3680  0.2312 -3.8714
  973MOL0     H34244  10.165   6.197   2.983  2.9367  0.8974  1.2549
  973MOL0     H34245  10.109   6.049   3.060  1.1050 -0.3080  0.1340
  973MOL0     H34246  10.260   6.283   3.177 -2.1727  0.0658 -0.7692
  973MOL0     H34247  10.227   6.145   3.272 -1.8578  3.5978  1.2833
  973MOL0     H34248  10.418   6.162   3.031  1.5421 -1.0138  0.8526
  973MOL0     H34249  10.358   6.012   3.060  3.1341 -1.4757  0.6304
  973MOL0     H34250  10.439   6.048   3.317 -4.0407  1.6129 -1.4380
  973MOL0     H34251  10.511   6.190   3.250  3.5002 -2.7778  1.7556
  973MOL0     H34252  10.635   6.072   3.096  0.8826  0.7001  0.9531
  973MOL0     H34253  10.549   5.924   3.139 -1.1506 -0.6551  1.7923
  973MOL0     H34254   9.588   6.363   3.299 -2.6700  1.8292  2.5902
  973MOL0     H34255   9.449   6.537   3.332  0.6693 -1.0312  0.4400
  973MOL0     H34256   9.176   6.777   3.323  2.4156 -0.1365 -1.1781
  973MOL0     H34257   9.055   6.981   3.414 -0.2212  1.8736 -0.2767
  973MOL0     H34258   7.670   8.033   3.754 -4.4117  1.9670  0.9064
  973MOL0     H34259   7.533   8.225   3.839  0.0214  0.4502  0.2085
  973MOL0     H34260   7.328   8.435   3.818  0.6673 -1.8806  1.7049
  973MOL0     H34261   7.121   8.458   3.913  0.2866  1.4394 -1.7454
  973MOL0     H34262   7.012   8.763   4.038 -1.9464  0.9080  1.4114
  973MOL0     H34263   6.922   8.613   3.997 -0.4328 -0.0760  0.3880
  973MOL0     H34264   6.799   8.633   4.199 -1.5507  0.3668 -0.6526
  973MOL0     H34265   6.790   8.782   4.107  0.5402 -0.4802 -1.1204
  973MOL0     H34266   6.942   8.733   4.371 -0.4753  0.8425  0.3563
  973MOL0     H34267   7.002   8.858   4.268  0.6837 -0.3972  1.1973
  973MOL0     H34268   6.838   8.948   4.442 -1.2667  0.3256 -0.1994
  973MOL0     H34269   6.719   8.848   4.358  0.6100 -0.3075  1.5433
  973MOL0     H34270   6.745   9.224   4.184  1.1028  1.4953  1.3574
  973MOL0     H34271   7.269   8.688   4.240 -2.5585  1.0520 -1.6273
  973MOL0     H34272   7.605   8.733   4.139  0.2826 -1.4144 -0.1088
  973MOL0     H34273   7.492   8.738   4.267  1.8742  0.2142  1.2514
  973MOL0     H34274   7.578   8.584   4.244  0.5182  0.2228  0.8014
  974MOL0     O34275   8.334   5.114   4.533 -0.4776  0.3238 -0.9560
  974MOL0     C34276   8.311   5.161   4.643  0.9305 -0.5693  0.0359
  974MOL0     O34277   8.388   5.179   4.751  0.4157  0.1176  0.6155
  974MOL0     C34278   8.530   5.167   4.730 -0.2569 -0.2359  0.7543
  974MOL0     C34279   8.621   5.276   4.697 -0.5888  0.4303 -0.1413
  974MOL0     C34280   8.759   5.255   4.695 -0.0115  0.3612 -0.6417
  974MOL0     C34281   8.813   5.125   4.716 -0.4821 -0.3125  0.2403
  974MOL0     O34282   8.943   5.095   4.697  0.4159  0.4450  0.2155
  974MOL0     C34283   9.033   5.201   4.670  0.5386  0.8069 -0.0845
  974MOL0     C34284   9.179   5.140   4.672 -0.4542 -0.7622 -0.2873
  974MOL0     C34285   9.206   5.062   4.546 -0.4937 -0.5065 -0.1075
  974MOL0     C34286   9.348   5.010   4.536 -0.2310 -0.2117  0.3335
  974MOL0     C34287   9.400   4.925   4.660 -0.5365  0.1711 -0.5266
  974MOL0     C34288   9.541   4.873   4.623  1.0359  0.7474 -0.2561
  974MOL0     C34289   9.610   4.785   4.742 -0.8330  0.0374  0.1914
  974MOL0     C34290   9.758   4.765   4.695 -0.0681  0.5832 -1.4701
  974MOL0     N34291   9.817   4.647   4.755 -0.1671 -0.6577 -0.7840
  974MOL0     C34292   9.791   4.614   4.886  0.4339  0.1039 -0.5370
  974MOL0     C34293   9.876   4.504   4.907  0.1487 -1.0608  0.3735
  974MOL0     C34294   9.893   4.413   5.025  0.5612  0.6039  0.3631
  974MOL0     C34295  10.019   4.439   5.110  0.6939 -0.1317 -0.3866
  974MOL0     C34296  10.109   4.314   5.115  0.0352 -0.6226  0.3203
  974MOL0     C34297  10.193   4.318   5.245 -0.6675 -0.8535  0.1242
  974MOL0     O34298  10.291   4.217   5.230  0.1966  0.8461 -1.0547
  974MOL0     C34299  10.369   4.180   5.340  0.4667 -0.4362  0.0104
  974MOL0     C34300  10.488   4.125   5.305  0.2416  0.0327 -0.2247
  974MOL0     C34301  10.581   4.083   5.406  0.0307  0.5458 -0.2600
  974MOL0     C34302  10.716   4.040   5.350  0.9459  0.0325  0.0585
  974MOL0     C34303  10.561   4.119   5.545 -0.1811  1.9159  0.7179
  974MOL0     C34304  10.663   4.107   5.658  0.0253 -0.2478  0.6443
  974MOL0     O34305  10.768   4.032   5.636  0.2333  0.0288 -0.1716
  974MOL0     C34306  10.859   4.011   5.740 -0.5579  0.4238 -0.4072
  974MOL0     C34307  10.831   3.998   5.875 -0.7462  0.1164  0.0138
  974MOL0     C34308  10.923   3.938   5.962  0.0660  0.3884  0.4970
  974MOL0     C34309  11.051   3.918   5.924  0.0503  0.0969  1.1101
  974MOL0     O34310  11.157   3.863   5.996  0.1982  0.8325 -0.6657
  974MOL0     C34311  11.213   3.940   6.105 -0.2566 -0.5233  0.6253
  974MOL0     C34312  11.287   3.860   6.201 -1.0444  0.1222  0.2263
  974MOL0     C34313  11.410   3.795   6.132  0.0288  0.8133 -0.4809
  974MOL0     C34314  11.529   3.895   6.138 -0.8478  0.0282 -0.6800
  974MOL0     C34315  11.657   3.841   6.069 -0.1291 -0.9834 -0.0311
  974MOL0     C34316  11.690   3.701   6.074 -0.5116  0.5684  0.5263
  974MOL0     C34317  11.829   3.688   6.013  0.6196 -0.7079  0.4371
  974MOL0     C34318  11.888   3.548   6.018  0.1668  0.0328  0.3060
  974MOL0    Cl34319  11.781   3.424   5.955 -0.2215 -0.1449  0.1841
  974MOL0     C34320  11.088   3.939   5.790  0.3242  0.0755 -0.0192
  974MOL0     C34321  10.994   3.994   5.699 -0.3901  0.1852 -0.2838
  974MOL0     O34322  10.648   4.186   5.749 -0.0059 -0.4970 -0.4377
  974MOL0     C34323  10.428   4.174   5.568 -0.4896 -0.6301 -0.2456
  974MOL0     C34324  10.333   4.198   5.468  0.0396  0.0714  0.7327
  974MOL0     N34325   9.945   4.485   4.794 -0.4377 -0.1132  0.5535
  974MOL0     N34326   9.911   4.569   4.700  0.1921  0.3029 -0.1745
  974MOL0     C34327   8.734   5.031   4.778  0.3094  0.2270 -0.0901
  974MOL0     C34328   8.590   5.055   4.777 -0.1985  0.1387  0.4325
  974MOL0     C34329   8.176   5.214   4.666 -0.5385  0.3061 -0.0921
  974MOL0     C34330   8.171   5.354   4.661  0.2654  0.2837 -0.6849
  974MOL0     C34331   8.048   5.418   4.674  0.7147  0.1448  0.6459
  974MOL0     C34332   7.926   5.340   4.684 -0.0728  0.3823 -0.3350
  974MOL0     O34333   7.810   5.397   4.699 -0.0154  0.2510  0.5248
  974MOL0     C34334   7.759   5.456   4.574  0.8308  0.3982 -0.3345
  974MOL0     C34335   7.700   5.356   4.469  0.2597  0.4290  0.3638
  974MOL0     C34336   7.582   5.265   4.534  0.0944 -0.0705 -0.2600
  974MOL0     C34337   7.493   5.206   4.434  1.2537  0.8648  0.1616
  974MOL0     C34338   7.565   5.144   4.324  0.1402  1.0393  0.0626
  974MOL0     C34339   7.651   5.108   4.246  0.2041  0.1455  0.2630
  974MOL0     C34340   7.934   5.204   4.675  0.4540 -0.2918  0.4576
  974MOL0     C34341   8.058   5.140   4.665 -0.1928  0.4500  0.7929
  974MOL0     C34342   8.049   4.990   4.649 -0.0778  0.0138 -1.1252
  974MOL0     H34343   8.589   5.377   4.672 -1.7791  0.2006  0.3511
  974MOL0     H34344   8.815   5.343   4.666 -2.8912  3.4846  2.3309
  974MOL0     H34345   9.033   5.276   4.750  1.8501  0.5685  0.1589
  974MOL0     H34346   9.010   5.241   4.571 -2.2336  0.9223  0.5200
  974MOL0     H34347   9.252   5.221   4.674 -1.1598  0.0528 -3.0259
  974MOL0     H34348   9.189   5.078   4.762 -4.0528 -1.8324 -0.4442
  974MOL0     H34349   9.136   4.979   4.532 -1.8872  0.1818  2.2865
  974MOL0     H34350   9.193   5.131   4.462  1.2992 -1.6507 -1.3927
  974MOL0     H34351   9.352   4.945   4.448  0.0506 -0.4718  0.5353
  974MOL0     H34352   9.420   5.089   4.511  1.7689 -1.8821  0.5418
  974MOL0     H34353   9.328   4.846   4.683  1.4880 -2.4370 -2.4963
  974MOL0     H34354   9.410   4.983   4.752 -1.8713 -0.8668  0.3082
  974MOL0     H34355   9.543   4.825   4.525  1.5097  1.5775 -0.6733
  974MOL0     H34356   9.613   4.952   4.598  2.5858 -0.2830  0.7781
  974MOL0     H34357   9.569   4.684   4.756  1.5718 -0.9893  0.4093
  974MOL0     H34358   9.609   4.834   4.840  1.8603 -3.4083  2.1914
  974MOL0     H34359   9.764   4.747   4.588  0.2411 -2.4635 -1.0170
  974MOL0     H34360   9.816   4.852   4.728  1.1927 -0.8815  0.4312
  974MOL0     H34361   9.719   4.658   4.954  2.0430  3.2774 -0.7164
  974MOL0     H34362   9.907   4.312   4.987 -1.0436 -0.2178  1.8354
  974MOL0     H34363   9.806   4.418   5.092 -0.1028 -0.1157 -0.4373
  974MOL0     H34364  10.067   4.532   5.080 -1.7761  1.0324 -0.9878
  974MOL0     H34365   9.981   4.458   5.211 -1.0462 -2.4800 -0.5077
  974MOL0     H34366  10.057   4.218   5.121 -1.6530  0.2521  0.2218
  974MOL0     H34367  10.170   4.309   5.025  1.9635 -6.3395  1.4941
  974MOL0     H34368  10.235   4.419   5.247 -0.0911 -0.9489 -2.8755
  974MOL0     H34369  10.130   4.309   5.334  0.0514 -0.0297  0.7327
  974MOL0     H34370  10.508   4.111   5.199 -0.9160  2.2695 -0.8061
  974MOL0     H34371  10.723   4.041   5.240  1.5034  1.1271  0.0911
  974MOL0     H34372  10.745   3.939   5.381  0.8424 -0.6739 -1.9617
  974MOL0     H34373  10.787   4.114   5.386  0.9031  0.4838 -0.7623
  974MOL0     H34374  10.728   4.010   5.905 -0.4219 -0.5290  1.5024
  974MOL0     H34375  10.906   3.917   6.067  3.9775 -2.9637  0.6763
  974MOL0     H34376  11.282   4.011   6.058  0.4660 -2.9894 -2.3780
  974MOL0     H34377  11.140   4.008   6.152 -0.7570 -0.7125  0.1330
  974MOL0     H34378  11.321   3.920   6.286  0.0586  1.0962 -0.8594
  974MOL0     H34379  11.220   3.779   6.232 -0.7493 -1.4742 -2.8597
  974MOL0     H34380  11.384   3.759   6.032  2.5921  0.2968 -1.0248
  974MOL0     H34381  11.437   3.704   6.185  1.2391  0.6105 -1.4022
  974MOL0     H34382  11.557   3.915   6.242  0.5379  1.1206 -1.2355
  974MOL0     H34383  11.509   3.998   6.106  2.4008  0.6990 -0.9446
  974MOL0     H34384  11.645   3.880   5.968  1.5279 -3.4639 -1.2776
  974MOL0     H34385  11.734   3.906   6.111 -0.9491 -0.3282  0.4755
  974MOL0     H34386  11.631   3.637   6.008  1.8983 -3.2047  1.6886
  974MOL0     H34387  11.694   3.655   6.173  0.7721  1.8467  1.1142
  974MOL0     H34388  11.906   3.756   6.051 -0.9480  1.6355 -0.3641
  974MOL0     H34389  11.824   3.713   5.907  3.0893  1.3904  0.7391
  974MOL0     H34390  11.914   3.523   6.122 -1.9878 -1.3272  0.5665
  974MOL0     H34391  11.980   3.532   5.961 -0.2560  0.0391 -0.3798
  974MOL0     H34392  11.191   3.912   5.766 -0.3181 -2.1582 -0.5548
  974MOL0     H34393  11.020   4.000   5.594 -0.8578 -3.9439 -0.8283
  974MOL0     H34394  10.413   4.221   5.664  4.5582  0.3047  0.3447
  974MOL0     H34395  10.242   4.248   5.499  0.4513 -0.4630  2.9264
  974MOL0     H34396   8.763   4.932   4.812 -3.5782 -0.4790  1.7679
  974MOL0     H34397   8.533   4.975   4.822  1.8342 -2.3052 -1.0791
  974MOL0     H34398   8.268   5.404   4.654 -0.6221  2.1935 -0.1347
  974MOL0     H34399   8.035   5.526   4.676  2.0088  0.3060  1.2666
  974MOL0     H34400   7.677   5.525   4.596  0.6839  0.2851 -0.5272
  974MOL0     H34401   7.834   5.498   4.506  0.7475 -1.7954 -1.8876
  974MOL0     H34402   7.785   5.297   4.434 -1.0086  0.2888 -2.9564
  974MOL0     H34403   7.666   5.413   4.382  2.2105  1.0727 -0.0122
  974MOL0     H34404   7.627   5.184   4.592 -0.0567  1.2931  1.8493
  974MOL0     H34405   7.519   5.319   4.605  0.5121  0.4768 -0.3020
  974MOL0     H34406   7.429   5.284   4.392  0.2400 -0.2837 -0.4798
  974MOL0     H34407   7.431   5.133   4.487  1.3668 -0.5279 -1.5330
  974MOL0     H34408   7.716   5.088   4.164 -1.4814 -1.1828 -0.8366
  974MOL0     H34409   7.842   5.147   4.671  0.3932 -0.1673 -0.0984
  974MOL0     H34410   8.132   4.939   4.700 -1.7933 -2.2817 -0.4268
  974MOL0     H34411   7.955   4.958   4.696  2.1537 -1.5924  2.8049
  974MOL0     H34412   8.052   4.954   4.546  2.3354 -0.0403 -1.1051
  975MOL0     O34413   8.794   7.432   8.873  0.0566  0.7726 -0.3671
  975MOL0     C34414   8.703   7.351   8.879  0.2817  0.2974 -1.0005
  975MOL0     O34415   8.643   7.318   8.998  0.1468  0.0992  0.1105
  975MOL0     C34416   8.686   7.370   9.121  0.4768 -0.8404 -0.0670
  975MOL0     C34417   8.747   7.497   9.141  0.3213 -0.3983 -0.6612
  975MOL0     C34418   8.809   7.523   9.266 -0.3257 -0.2002  0.8972
  975MOL0     C34419   8.809   7.419   9.365 -0.7320 -1.0164  0.2903
  975MOL0     O34420   8.868   7.431   9.492  1.1726 -0.2963  0.2596
  975MOL0     C34421   8.860   7.549   9.567  0.6090 -0.7190  0.0208
  975MOL0     C34422   8.845   7.528   9.724 -0.3146 -0.8738  0.3713
  975MOL0     C34423   8.734   7.429   9.775  0.1478 -0.4129 -0.3226
  975MOL0     C34424   8.595   7.476   9.766  0.0699  0.4650  0.4128
  975MOL0     C34425   8.491   7.363   9.767 -0.2670 -0.6801 -0.4634
  975MOL0     C34426   8.482   7.270   9.634 -0.1708 -0.2981 -0.5244
  975MOL0     C34427   8.349   7.181   9.629  0.3163  0.2385 -0.2083
  975MOL0     C34428   8.365   7.076   9.737 -0.3783  0.6278 -1.4087
  975MOL0     N34429   8.241   7.001   9.754  0.3032 -0.9099 -0.2942
  975MOL0     C34430   8.139   7.039   9.845  0.1421 -0.0731  0.1205
  975MOL0     C34431   8.054   6.934   9.844 -0.1319  0.5315  0.1404
  975MOL0     C34432   7.928   6.926   9.933  0.2527 -0.6684 -1.0398
  975MOL0     C34433   7.804   6.984   9.861  0.2310  0.3994 -0.1207
  975MOL0     C34434   7.675   6.926   9.923 -0.4057  0.3594  0.2166
  975MOL0     C34435   7.554   6.903   9.828 -0.9753 -0.1830  0.4690
  975MOL0     O34436   7.595   6.811   9.729 -0.8863  0.2148  1.0156
  975MOL0     C34437   7.515   6.809   9.616 -0.4109 -0.2834  0.6236
  975MOL0     C34438   7.375   6.788   9.618  0.5492 -1.0990 -0.4243
  975MOL0     C34439   7.301   6.776   9.496  0.5054  0.3814  0.0354
  975MOL0     C34440   7.151   6.754   9.508 -0.6429 -0.1658 -0.0125
  975MOL0     C34441   7.365   6.759   9.372  0.1594 -0.4478  0.0703
  975MOL0     C34442   7.301   6.729   9.234 -0.2524 -0.6504  0.5747
  975MOL0     O34443   7.396   6.698   9.141 -0.3814  0.2613  0.4975
  975MOL0     C34444   7.349   6.652   9.028 -0.0561 -1.6644 -0.3635
  975MOL0     C34445   7.341   6.725   8.910 -0.0973  1.1312  0.9484
  975MOL0     C34446   7.297   6.650   8.798  0.3561 -0.1143  0.7539
  975MOL0     C34447   7.261   6.512   8.796  0.1763  1.0335 -0.4400
  975MOL0     O34448   7.221   6.455   8.677  0.1860 -0.2095 -0.0354
  975MOL0     C34449   7.141   6.340   8.679 -0.2248 -0.0573 -0.6686
  975MOL0     C34450   7.065   6.321   8.550  0.6311 -0.1893 -0.1839
  975MOL0     C34451   6.978   6.442   8.524 -0.6481  0.2220  1.0738
  975MOL0     C34452   6.859   6.414   8.432  0.0951  0.0340 -0.7935
  975MOL0     C34453   6.805   6.551   8.381 -0.4209 -0.2332  0.9128
  975MOL0     C34454   6.677   6.539   8.298  0.0759 -0.0976  0.4735
  975MOL0     C34455   6.696   6.570   8.151  0.3015 -0.3338 -0.2148
  975MOL0     C34456   6.562   6.544   8.067 -0.4724 -0.5599 -1.6876
  975MOL0    Cl34457   6.553   6.366   8.053 -0.0666  0.3983  0.6636
  975MOL0     C34458   7.284   6.447   8.917 -0.0989 -0.1800  0.0308
  975MOL0     C34459   7.325   6.514   9.024 -0.5138  0.0188 -0.4873
  975MOL0     O34460   7.186   6.760   9.213 -0.7655  0.6401 -0.3774
  975MOL0     C34461   7.507   6.761   9.385 -0.2308  0.0935  0.7026
  975MOL0     C34462   7.581   6.783   9.496 -0.1656  0.6703 -0.3466
  975MOL0     N34463   8.095   6.833   9.749  0.4106 -0.0538  0.4952
  975MOL0     N34464   8.210   6.878   9.697 -0.4191  1.0708  0.1462
  975MOL0     C34465   8.736   7.300   9.342  0.4704  0.4759 -0.4013
  975MOL0     C34466   8.679   7.285   9.218 -0.3098 -0.2598  0.0889
  975MOL0     C34467   8.622   7.300   8.765 -0.9218  0.2824 -0.4608
  975MOL0     C34468   8.486   7.266   8.794  0.6086  0.5263  0.4173
  975MOL0     C34469   8.395   7.235   8.685  0.2300  0.9237 -0.2168
  975MOL0     C34470   8.444   7.229   8.554  0.4997 -1.1963 -0.7632
  975MOL0     O34471   8.367   7.221   8.447 -0.1451  0.3275  0.9831
  975MOL0     C34472   8.235   7.164   8.458  0.2150  1.0271  0.2101
  975MOL0     C34473   8.138   7.276   8.491 -0.7117  0.2411 -0.8446
  975MOL0     C34474   8.060   7.329   8.374 -0.6697  0.3631 -0.1989
  975MOL0     C34475   7.977   7.230   8.297 -0.1582 -0.1774 -0.3031
  975MOL0     C34476   7.880   7.307   8.224 -0.1999 -0.2068  1.1016
  975MOL0     C34477   7.796   7.368   8.162 -0.1758 -0.1182 -0.3258
  975MOL0     C34478   8.579   7.265   8.539 -0.0799 -0.0968 -0.4316
  975MOL0     C34479   8.665   7.307   8.632 -0.0327  0.5843 -0.5346
  975MOL0     C34480   8.805   7.337   8.595 -0.1828  0.2467 -1.0148
  975MOL0     H34481   8.729   7.570   9.062 -1.5073 -0.4289 -0.3211
  975MOL0     H34482   8.869   7.611   9.286  3.0846 -1.6714 -1.8086
  975MOL0     H34483   8.771   7.606   9.539  1.2189  0.9632  1.3432
  975MOL0     H34484   8.949   7.608   9.544  0.6481 -0.8645 -0.2173
  975MOL0     H34485   8.941   7.496   9.764 -1.0137 -3.6196  0.0046
  975MOL0     H34486   8.836   7.627   9.771 -1.0508 -1.3640  1.2882
  975MOL0     H34487   8.752   7.343   9.710  1.4893 -0.3189 -0.1078
  975MOL0     H34488   8.756   7.407   9.880  3.5389  1.2819 -0.5371
  975MOL0     H34489   8.570   7.539   9.852 -0.5695  0.1090  0.4921
  975MOL0     H34490   8.593   7.537   9.675  1.0856  3.9020  2.4674
  975MOL0     H34491   8.388   7.401   9.774  0.4910  1.1682  3.8928
  975MOL0     H34492   8.512   7.295   9.850  2.4425  1.5320  0.8098
  975MOL0     H34493   8.489   7.342   9.552  2.6809 -1.7913 -1.7304
  975MOL0     H34494   8.576   7.216   9.621  0.5863  0.5226  1.1203
  975MOL0     H34495   8.341   7.132   9.531  2.3931  1.4126 -1.0250
  975MOL0     H34496   8.267   7.249   9.653  0.3154 -0.2083  1.1474
  975MOL0     H34497   8.437   7.000   9.707 -0.0670  0.3683 -0.0802
  975MOL0     H34498   8.405   7.117   9.830 -0.8055  1.3805 -1.5511
  975MOL0     H34499   8.132   7.124   9.912  0.0664  1.2491 -1.5122
  975MOL0     H34500   7.950   6.965  10.033 -0.3775 -0.7881 -0.8452
  975MOL0     H34501   7.903   6.820   9.944 -0.6741 -0.2437  1.8097
  975MOL0     H34502   7.808   7.093   9.854  1.9738  0.3576 -0.2079
  975MOL0     H34503   7.806   6.944   9.759 -1.7193  1.9185 -0.8151
  975MOL0     H34504   7.695   6.824   9.959  1.1572  0.3927 -0.4583
  975MOL0     H34505   7.645   6.978  10.014 -0.6029 -1.8150  1.4815
  975MOL0     H34506   7.465   6.855   9.871 -1.3547 -1.4285 -1.5596
  975MOL0     H34507   7.535   7.003   9.788  2.0212 -0.1484 -1.1765
  975MOL0     H34508   7.321   6.781   9.711 -2.2027 -1.0290 -1.9318
  975MOL0     H34509   7.130   6.776   9.613  1.4460 -0.8021  0.5883
  975MOL0     H34510   7.122   6.650   9.490 -0.9765 -0.1417  0.3780
  975MOL0     H34511   7.097   6.823   9.442 -1.0433 -2.1273 -1.8516
  975MOL0     H34512   7.358   6.832   8.903 -0.6420  1.1468 -0.3038
  975MOL0     H34513   7.293   6.698   8.701  1.2094 -0.3626  0.5906
  975MOL0     H34514   7.205   6.252   8.685 -2.3184 -1.8582 -2.8692
  975MOL0     H34515   7.080   6.350   8.769  0.3242  0.7821 -0.3640
  975MOL0     H34516   7.137   6.323   8.467  1.1067  2.4598  0.1818
  975MOL0     H34517   7.012   6.226   8.556  2.1779 -1.1976 -1.7127
  975MOL0     H34518   7.042   6.522   8.485 -0.7750  0.8215  2.0665
  975MOL0     H34519   6.941   6.481   8.619 -0.7601 -0.1240  1.1722
  975MOL0     H34520   6.780   6.360   8.485  2.3286 -1.9245  0.7291
  975MOL0     H34521   6.886   6.351   8.346  0.2075 -1.6416  0.4238
  975MOL0     H34522   6.776   6.602   8.473 -1.9277 -1.5644  1.2302
  975MOL0     H34523   6.887   6.603   8.331  1.6630 -0.4178  3.9305
  975MOL0     H34524   6.615   6.621   8.336  1.3524  0.8479  0.5832
  975MOL0     H34525   6.638   6.437   8.295  2.3146 -0.9928 -2.5271
  975MOL0     H34526   6.772   6.504   8.108  0.0849 -1.0081  0.4028
  975MOL0     H34527   6.716   6.677   8.149  2.0695 -0.6454 -0.4732
  975MOL0     H34528   6.575   6.594   7.971 -0.6923  1.4636 -0.7284
  975MOL0     H34529   6.475   6.592   8.113  0.1274 -2.1770  1.4652
  975MOL0     H34530   7.261   6.341   8.921  1.9755 -0.6830 -0.1253
  975MOL0     H34531   7.334   6.465   9.120 -2.2391 -1.0228 -0.8294
  975MOL0     H34532   7.567   6.755   9.295  0.4373  4.0832  0.6827
  975MOL0     H34533   7.689   6.782   9.491 -0.0712  0.1376  1.2668
  975MOL0     H34534   8.720   7.231   9.424  0.0523  3.9211  2.7031
  975MOL0     H34535   8.619   7.197   9.197 -0.6125  0.6890 -3.8348
  975MOL0     H34536   8.453   7.269   8.897 -0.8565  0.7111 -0.0352
  975MOL0     H34537   8.294   7.206   8.712  0.9658 -0.0924  1.6279
  975MOL0     H34538   8.218   7.119   8.359  0.4251 -0.1017  0.6721
  975MOL0     H34539   8.242   7.083   8.530  0.2330  1.0546  0.2387
  975MOL0     H34540   8.195   7.359   8.533  0.7634 -0.2528 -1.8099
  975MOL0     H34541   8.065   7.238   8.564  0.9038 -0.4259  0.4837
  975MOL0     H34542   8.000   7.409   8.417 -1.6885 -0.2017 -0.5252
  975MOL0     H34543   8.140   7.367   8.309 -1.0662  2.0098  0.2281
  975MOL0     H34544   7.923   7.165   8.366  2.1610 -2.2768 -0.3094
  975MOL0     H34545   8.039   7.171   8.228 -0.2348  0.5472 -1.0131
  975MOL0     H34546   7.713   7.397   8.100 -0.0441 -0.3909 -0.6325
  975MOL0     H34547   8.611   7.281   8.436  1.0507  1.9662  0.1985
  975MOL0     H34548   8.814   7.446   8.600 -0.9156  0.2719  0.1705
  975MOL0     H34549   8.872   7.289   8.667 -0.0150 -0.1642 -1.4347
  975MOL0     H34550   8.824   7.297   8.495  0.1978 -0.7029 -0.5738
  976MOL0     O34551   1.614   1.442   2.083 -0.5035 -0.7281 -0.0489
  976MOL0     C34552   1.574   1.333   2.122 -0.1704  0.1253 -0.5887
  976MOL0     O34553   1.602   1.219   2.055 -0.4062 -0.7132  0.1617
  976MOL0     C34554   1.640   1.224   1.921  0.2160  0.2118  0.0905
  976MOL0     C34555   1.551   1.201   1.815 -0.4273  0.4941 -0.4683
  976MOL0     C34556   1.596   1.205   1.688  0.0092  0.4802  0.2938
  976MOL0     C34557   1.733   1.230   1.660 -0.1537 -0.2091 -0.1189
  976MOL0     O34558   1.789   1.248   1.534 -0.8034  0.2527  0.4784
  976MOL0     C34559   1.704   1.275   1.426 -0.0930 -0.3808  0.5612
  976MOL0     C34560   1.789   1.317   1.307 -0.0297  0.0150  1.4465
  976MOL0     C34561   1.711   1.405   1.214  0.1499 -0.2172  0.1934
  976MOL0     C34562   1.794   1.454   1.092 -0.5784  0.7735 -0.0536
  976MOL0     C34563   1.720   1.549   0.996  0.3094 -0.2318  0.3197
  976MOL0     C34564   1.658   1.666   1.079 -0.2989 -0.3583 -0.1732
  976MOL0     C34565   1.581   1.768   0.984 -0.7873  0.9575 -0.4889
  976MOL0     C34566   1.544   1.895   1.067 -0.4349  1.0749 -0.1044
  976MOL0     N34567   1.424   1.872   1.149 -0.4530  0.3487 -0.6829
  976MOL0     C34568   1.435   1.853   1.284  0.0067  0.1763  0.5833
  976MOL0     C34569   1.309   1.854   1.333 -0.4695  0.2640  0.4838
  976MOL0     C34570   1.274   1.844   1.480 -0.2695  0.0015  0.2052
  976MOL0     C34571   1.365   1.928   1.575  0.1577  0.3798  0.7611
  976MOL0     C34572   1.331   2.077   1.590 -0.2765 -0.6084  0.4427
  976MOL0     C34573   1.340   2.167   1.465  0.2655  0.5148 -0.5253
  976MOL0     O34574   1.476   2.177   1.418 -0.5880 -0.1071 -0.4222
  976MOL0     C34575   1.499   2.228   1.289  1.5647 -0.6050 -0.1065
  976MOL0     C34576   1.626   2.208   1.235  0.0245  0.2372 -0.2419
  976MOL0     C34577   1.672   2.259   1.106  0.3138  0.6903 -0.2112
  976MOL0     C34578   1.808   2.212   1.059  0.4655 -0.0507 -0.2669
  976MOL0     C34579   1.579   2.338   1.042 -0.3469  0.3345 -0.2482
  976MOL0     C34580   1.613   2.404   0.913 -0.5847  0.1975  0.2169
  976MOL0     O34581   1.514   2.449   0.838 -0.1781  0.0056 -0.9567
  976MOL0     C34582   1.525   2.563   0.770  0.3312 -0.3599  0.3001
  976MOL0     C34583   1.471   2.679   0.828 -0.3197 -1.3792  0.2265
  976MOL0     C34584   1.486   2.799   0.753 -0.3093 -0.2875 -0.0014
  976MOL0     C34585   1.552   2.806   0.628  0.6816 -0.1436 -0.1532
  976MOL0     O34586   1.582   2.925   0.564  0.1409  0.1590  0.0801
  976MOL0     C34587   1.603   3.051   0.635  0.2270 -0.3365  0.4510
  976MOL0     C34588   1.653   3.166   0.535 -0.0043  0.4495  0.0166
  976MOL0     C34589   1.633   3.305   0.590 -0.3118 -0.0774  0.7054
  976MOL0     C34590   1.759   3.336   0.680  0.4888 -0.1640 -0.2981
  976MOL0     C34591   1.751   3.481   0.729  0.0103 -0.8028 -0.5569
  976MOL0     C34592   1.784   3.587   0.627 -0.4197 -0.1149 -0.2910
  976MOL0     C34593   1.767   3.722   0.690 -0.1773  0.0724  0.3578
  976MOL0     C34594   1.806   3.839   0.597  0.5610  0.8235 -0.8579
  976MOL0    Cl34595   1.979   3.826   0.542  0.0163 -0.2654  0.0513
  976MOL0     C34596   1.601   2.688   0.574 -0.0274  1.6061  0.5228
  976MOL0     C34597   1.596   2.571   0.652  0.3042 -0.4121  0.7232
  976MOL0     O34598   1.735   2.417   0.887  0.5571 -0.3525  0.1845
  976MOL0     C34599   1.455   2.362   1.097  0.5894  0.2877  0.1594
  976MOL0     C34600   1.410   2.304   1.218  0.0026  0.3259 -0.0723
  976MOL0     N34601   1.223   1.872   1.225  0.5169 -0.6302 -0.0006
  976MOL0     N34602   1.288   1.879   1.119  0.3691 -0.4985 -0.0220
  976MOL0     C34603   1.816   1.249   1.769 -0.2217  0.8402 -0.1074
  976MOL0     C34604   1.771   1.243   1.900  0.0296  0.8796 -0.9896
  976MOL0     C34605   1.496   1.334   2.253 -0.4215 -0.0855 -1.3598
  976MOL0     C34606   1.464   1.458   2.314  0.5251 -1.1265  0.2486
  976MOL0     C34607   1.403   1.473   2.437  0.3814  0.1332  0.0243
  976MOL0     C34608   1.366   1.363   2.519 -0.1857 -0.1554 -0.3212
  976MOL0     O34609   1.299   1.378   2.639 -0.9448  0.0681 -0.1030
  976MOL0     C34610   1.166   1.327   2.637  0.5695  0.1466  0.2963
  976MOL0     C34611   1.140   1.252   2.767  0.1386 -0.4930  0.1696
  976MOL0     C34612   1.177   1.107   2.753  0.5162 -0.7502  0.4932
  976MOL0     C34613   1.183   1.032   2.886  0.8765  0.6020 -0.0243
  976MOL0     C34614   1.302   1.052   2.967 -0.3739 -0.4279  0.2231
  976MOL0     C34615   1.402   1.072   3.033 -0.9883 -0.3954  0.2023
  976MOL0     C34616   1.394   1.236   2.462  0.4344  0.1801 -0.1160
  976MOL0     C34617   1.455   1.216   2.335 -0.4981 -0.0650  0.3956
  976MOL0     C34618   1.464   1.072   2.287 -0.3942  0.4029  0.3728
  976MOL0     H34619   1.448   1.172   1.829 -0.6900  1.3274 -0.6217
  976MOL0     H34620   1.515   1.192   1.617  0.1696 -1.7168  0.4367
  976MOL0     H34621   1.624   1.345   1.452 -0.0929 -0.4955  0.8794
  976MOL0     H34622   1.666   1.177   1.399 -0.3584 -0.6263  1.7638
  976MOL0     H34623   1.887   1.361   1.327 -0.7846  2.9429 -0.6371
  976MOL0     H34624   1.806   1.224   1.250 -0.7284  1.5539 -1.4827
  976MOL0     H34625   1.623   1.348   1.182 -0.7196 -0.5368  2.8584
  976MOL0     H34626   1.688   1.494   1.274  0.7825  2.5634 -3.3960
  976MOL0     H34627   1.878   1.507   1.136  0.6603  1.2832 -2.8561
  976MOL0     H34628   1.826   1.360   1.046 -2.2259 -0.3758  1.0098
  976MOL0     H34629   1.651   1.494   0.931 -0.7678  0.3174  0.9838
  976MOL0     H34630   1.806   1.589   0.941 -0.0082 -2.1301 -1.7346
  976MOL0     H34631   1.581   1.608   1.130 -0.3443 -3.1381 -3.0868
  976MOL0     H34632   1.729   1.718   1.144 -0.8021  0.3654 -0.1924
  976MOL0     H34633   1.494   1.721   0.939  0.3673 -1.8397 -0.0048
  976MOL0     H34634   1.647   1.807   0.906  2.8827 -0.4184  1.6639
  976MOL0     H34635   1.633   1.926   1.124 -0.7123 -0.7723  1.4280
  976MOL0     H34636   1.515   1.964   0.987 -1.3932 -0.3335 -1.0008
  976MOL0     H34637   1.521   1.836   1.349  0.0650  3.2599  1.4487
  976MOL0     H34638   1.283   1.741   1.514 -1.2223 -0.2522 -0.2840
  976MOL0     H34639   1.170   1.877   1.486 -1.4650 -2.8374 -2.5321
  976MOL0     H34640   1.361   1.881   1.673  0.2904  1.0817  1.1100
  976MOL0     H34641   1.466   1.926   1.532 -1.4914  3.0431 -4.0300
  976MOL0     H34642   1.228   2.084   1.628  0.1229  0.1110  1.4045
  976MOL0     H34643   1.397   2.123   1.664  1.0094  2.2510 -2.2548
  976MOL0     H34644   1.285   2.111   1.389 -0.4594  0.8383 -0.2578
  976MOL0     H34645   1.292   2.262   1.493  0.5241  0.3421  0.5630
  976MOL0     H34646   1.681   2.141   1.301 -1.1707 -2.8215 -2.1502
  976MOL0     H34647   1.804   2.166   0.960  2.3491 -0.4522 -0.2014
  976MOL0     H34648   1.840   2.137   1.132  0.3232 -1.2920 -1.4260
  976MOL0     H34649   1.881   2.292   1.044  2.7749 -2.0225 -0.1911
  976MOL0     H34650   1.438   2.684   0.931  1.8821 -0.5436  0.9576
  976MOL0     H34651   1.453   2.888   0.806 -1.8140 -0.6160 -0.3612
  976MOL0     H34652   1.504   3.087   0.663  0.0939  1.0751 -1.5643
  976MOL0     H34653   1.653   3.022   0.728 -2.5720  0.1479  2.2148
  976MOL0     H34654   1.751   3.154   0.489  0.2957  1.1380  0.4545
  976MOL0     H34655   1.574   3.167   0.459 -1.3051 -0.2600  1.3005
  976MOL0     H34656   1.535   3.312   0.638  0.0027  1.2896  1.1808
  976MOL0     H34657   1.623   3.366   0.500 -1.8928  2.0787  2.2453
  976MOL0     H34658   1.850   3.306   0.626 -1.1281 -2.6240 -1.8256
  976MOL0     H34659   1.748   3.292   0.779  1.2203  3.1077  1.3711
  976MOL0     H34660   1.649   3.503   0.760  0.3016  0.2921 -0.3272
  976MOL0     H34661   1.827   3.489   0.808 -0.7563  3.4297  0.0135
  976MOL0     H34662   1.725   3.572   0.536 -1.2046  1.7676 -0.1305
  976MOL0     H34663   1.889   3.563   0.607 -0.0258 -2.1822  3.2724
  976MOL0     H34664   1.816   3.737   0.786 -2.1995 -2.2997  1.9142
  976MOL0     H34665   1.662   3.744   0.711 -0.2472  1.1348 -0.9652
  976MOL0     H34666   1.784   3.932   0.651  0.1500 -0.5149  1.4079
  976MOL0     H34667   1.739   3.835   0.510 -0.6337  2.2677 -0.0353
  976MOL0     H34668   1.658   2.689   0.482  1.0589 -0.4871  1.1050
  976MOL0     H34669   1.650   2.484   0.617 -1.4048 -0.9175 -0.8545
  976MOL0     H34670   1.399   2.435   1.039  1.1483  0.1659 -0.5501
  976MOL0     H34671   1.306   2.320   1.243 -0.1143 -0.9127  0.3105
  976MOL0     H34672   1.920   1.272   1.745 -0.1944 -2.3848 -4.1439
  976MOL0     H34673   1.831   1.240   1.990 -1.0499 -0.6324 -0.2746
  976MOL0     H34674   1.501   1.549   2.267  2.7162 -0.2739  3.2776
  976MOL0     H34675   1.375   1.571   2.475  1.8558  0.6177 -0.0597
  976MOL0     H34676   1.095   1.408   2.615  0.5517 -0.1881 -0.9535
  976MOL0     H34677   1.155   1.265   2.548  0.2859  1.3942 -0.5552
  976MOL0     H34678   1.032   1.250   2.786  0.2040 -2.1653  0.5380
  976MOL0     H34679   1.191   1.303   2.850  1.1288  1.6262 -1.6446
  976MOL0     H34680   1.102   1.075   2.680  0.7438  1.2196 -0.6638
  976MOL0     H34681   1.276   1.097   2.708  0.6736  1.6046  0.2214
  976MOL0     H34682   1.173   0.925   2.863  0.3142  0.8968 -1.2290
  976MOL0     H34683   1.100   1.065   2.949  0.9857 -1.5764  1.3671
  976MOL0     H34684   1.491   1.093   3.088  1.7145  0.0968 -3.9073
  976MOL0     H34685   1.351   1.152   2.515 -0.2278 -0.1172 -1.1049
  976MOL0     H34686   1.566   1.039   2.311 -0.4416  0.9165  1.3260
  976MOL0     H34687   1.397   1.006   2.343 -0.9508 -0.5420 -1.3350
  976MOL0     H34688   1.449   1.061   2.179 -1.4593  0.7593  0.4712
  977MOL0     O34689   0.280   7.600   1.108 -0.2689 -0.2325 -0.5282
  977MOL0     C34690   0.250   7.695   1.181 -0.8638  0.2893  0.6044
  977MOL0     O34691   0.336   7.797   1.215 -0.4125  0.4090 -0.0490
  977MOL0     C34692   0.451   7.824   1.154  0.7590 -0.2719  0.6879
  977MOL0     C34693   0.462   7.848   1.012 -0.7690 -0.3203  0.3673
  977MOL0     C34694   0.591   7.886   0.950  0.4141  0.6394  0.0319
  977MOL0     C34695   0.706   7.890   1.029 -0.6907  0.2170 -0.4930
  977MOL0     O34696   0.832   7.944   0.994  0.3961  0.0607 -0.5869
  977MOL0     C34697   0.840   8.055   0.903  0.5438  0.5957  0.4602
  977MOL0     C34698   0.886   8.177   0.987 -0.0457 -0.4189 -1.3028
  977MOL0     C34699   0.779   8.237   1.085 -0.0078  0.2784  0.2311
  977MOL0     C34700   0.820   8.372   1.147  1.7684 -0.1529  0.4273
  977MOL0     C34701   0.715   8.464   1.212  0.6576  0.2063 -0.2055
  977MOL0     C34702   0.693   8.427   1.361 -0.5748 -0.1322 -0.0061
  977MOL0     C34703   0.630   8.540   1.439 -0.8383 -0.7696  0.4653
  977MOL0     C34704   0.546   8.502   1.570  0.1730  0.8565  0.3724
  977MOL0     N34705   0.623   8.452   1.680  0.5230 -0.4820 -0.3961
  977MOL0     C34706   0.721   8.529   1.741 -0.1859  0.1018 -0.4715
  977MOL0     C34707   0.793   8.433   1.811 -0.2867 -0.8557  0.6070
  977MOL0     C34708   0.929   8.452   1.889 -0.5136 -0.1074  0.0566
  977MOL0     C34709   1.037   8.472   1.791  0.4660  0.0439 -0.1245
  977MOL0     C34710   1.045   8.604   1.718  0.6132 -0.1684 -0.1744
  977MOL0     C34711   1.154   8.605   1.616  0.3251  0.8963  0.5030
  977MOL0     O34712   1.279   8.582   1.695 -0.1185 -0.5583  0.2102
  977MOL0     C34713   1.398   8.606   1.635 -0.1649 -0.0618  0.9889
  977MOL0     C34714   1.513   8.596   1.719 -0.2794 -0.0713 -0.3508
  977MOL0     C34715   1.641   8.645   1.675  0.2304 -0.2265  0.2073
  977MOL0     C34716   1.752   8.610   1.773  0.4813 -1.0707  0.0856
  977MOL0     C34717   1.655   8.715   1.551 -0.3458 -0.1870 -0.4060
  977MOL0     C34718   1.778   8.792   1.515  0.2650 -0.0968  0.5973
  977MOL0     O34719   1.882   8.802   1.606 -0.1866 -0.5396 -0.0795
  977MOL0     C34720   1.978   8.895   1.588 -0.0838 -0.0587  1.7480
  977MOL0     C34721   2.112   8.861   1.561  0.8290  0.1401  0.1205
  977MOL0     C34722   2.201   8.957   1.524  0.7679  0.5459  0.1953
  977MOL0     C34723   2.169   9.089   1.516  0.6534  0.2300 -0.2706
  977MOL0     O34724   2.265   9.171   1.463 -0.0475  0.8584 -0.4190
  977MOL0     C34725   2.234   9.312   1.459 -0.0549 -0.8268  0.5570
  977MOL0     C34726   2.338   9.405   1.391 -0.2995 -0.3169  0.7082
  977MOL0     C34727   2.474   9.373   1.459 -0.8431  0.0386 -0.3226
  977MOL0     C34728   2.588   9.409   1.356 -0.1230 -0.3371  0.3504
  977MOL0     C34729   2.723   9.350   1.388  0.2367  0.1881 -0.6468
  977MOL0     C34730   2.729   9.189   1.374  0.9578  0.3533  0.3382
  977MOL0     C34731   2.872   9.145   1.368  0.3770  0.0492 -0.5683
  977MOL0     C34732   2.885   8.989   1.353 -0.4595 -0.5065  0.9418
  977MOL0    Cl34733   2.871   8.893   1.503 -0.2855  0.1288  0.2988
  977MOL0     C34734   2.044   9.125   1.567  0.2447 -0.0664  0.2966
  977MOL0     C34735   1.947   9.029   1.601  0.1375 -0.0235 -0.1918
  977MOL0     O34736   1.776   8.851   1.401 -0.2560  0.4788  0.1537
  977MOL0     C34737   1.543   8.722   1.468 -0.2934  0.7246 -0.3475
  977MOL0     C34738   1.424   8.666   1.507  0.5493  0.5053  0.5295
  977MOL0     N34739   0.728   8.313   1.802 -0.5782 -0.8453 -0.5217
  977MOL0     N34740   0.627   8.321   1.724  0.0115  0.1046  0.4384
  977MOL0     C34741   0.694   7.847   1.167 -0.2106 -0.3632  0.4166
  977MOL0     C34742   0.566   7.813   1.222  0.2060 -0.0493  0.1995
  977MOL0     C34743   0.126   7.700   1.260  0.4070  0.0835 -0.3576
  977MOL0     C34744   0.076   7.822   1.309  0.2469  0.0580  0.1119
  977MOL0     C34745  -0.038   7.832   1.393 -0.1425 -0.3781 -0.3970
  977MOL0     C34746  -0.108   7.710   1.419 -0.1459 -0.0845  0.0224
  977MOL0     O34747  -0.223   7.724   1.503  0.6467  0.4746  0.1419
  977MOL0     C34748  -0.304   7.608   1.530  0.2746 -1.2564  0.0803
  977MOL0     C34749  -0.423   7.647   1.621 -0.2061  0.3445 -0.2011
  977MOL0     C34750  -0.531   7.711   1.534  0.0052  0.0388  0.1245
  977MOL0     C34751  -0.636   7.778   1.621 -0.1542  0.3342 -0.2368
  977MOL0     C34752  -0.593   7.910   1.666  0.6700 -0.9649 -0.2453
  977MOL0     C34753  -0.554   8.025   1.688 -0.3121 -0.3200 -0.7516
  977MOL0     C34754  -0.061   7.585   1.370  0.2457 -0.2226  1.1355
  977MOL0     C34755   0.055   7.581   1.294  0.4003 -0.4889  0.9362
  977MOL0     C34756   0.106   7.431   1.267  0.1104 -1.2457  0.7910
  977MOL0     H34757   0.370   7.839   0.955  1.3305 -2.3338 -3.0529
  977MOL0     H34758   0.593   7.914   0.845  1.3865 -0.9720 -0.4109
  977MOL0     H34759   0.739   8.067   0.864  0.1262 -0.4601  1.1668
  977MOL0     H34760   0.911   8.033   0.823 -0.1053  0.0122  0.0354
  977MOL0     H34761   0.973   8.143   1.044 -0.3287  1.2000  0.1630
  977MOL0     H34762   0.920   8.260   0.924  0.7439  1.0526  0.9345
  977MOL0     H34763   0.689   8.256   1.026  1.5145 -2.9565 -3.5686
  977MOL0     H34764   0.752   8.161   1.159  0.6062  0.6170  0.8186
  977MOL0     H34765   0.912   8.369   1.205  1.8856  0.0931  0.2588
  977MOL0     H34766   0.842   8.433   1.059 -0.4907 -1.6149 -1.2820
  977MOL0     H34767   0.619   8.465   1.160 -0.0259  0.5372  1.0097
  977MOL0     H34768   0.749   8.568   1.199  0.3008  0.1220 -1.9577
  977MOL0     H34769   0.618   8.348   1.365 -2.3780  1.5501  2.4779
  977MOL0     H34770   0.788   8.396   1.406 -1.1313 -1.6845  0.1592
  977MOL0     H34771   0.580   8.608   1.370  4.5080  2.8670 -0.4624
  977MOL0     H34772   0.716   8.598   1.476 -1.4404 -1.1073  2.5342
  977MOL0     H34773   0.495   8.595   1.599  2.3184  1.7373  1.5644
  977MOL0     H34774   0.469   8.428   1.546  0.2938  0.7436  0.3309
  977MOL0     H34775   0.749   8.634   1.732  1.2403 -0.2800 -0.6510
  977MOL0     H34776   0.951   8.368   1.954  3.7112  0.8543  0.1161
  977MOL0     H34777   0.931   8.544   1.948  1.5456  1.4064 -2.1568
  977MOL0     H34778   1.131   8.460   1.845  1.7210  1.2208 -1.9064
  977MOL0     H34779   1.031   8.388   1.721 -0.9071  2.0421 -2.5801
  977MOL0     H34780   0.953   8.629   1.664  1.3733  0.0732 -1.4093
  977MOL0     H34781   1.077   8.681   1.788 -0.3075  0.9009 -0.9011
  977MOL0     H34782   1.138   8.519   1.550  1.5390  0.6702  0.4780
  977MOL0     H34783   1.149   8.697   1.557 -1.1254  1.8005  1.9346
  977MOL0     H34784   1.507   8.565   1.823  1.4085  2.1018  0.4702
  977MOL0     H34785   1.718   8.546   1.856 -0.2686  0.3987  0.9511
  977MOL0     H34786   1.798   8.696   1.823  1.1378 -1.6436  0.4879
  977MOL0     H34787   1.833   8.561   1.718  2.0663 -0.2488  1.5856
  977MOL0     H34788   2.125   8.756   1.539  0.6543  0.6220 -2.6486
  977MOL0     H34789   2.303   8.946   1.488  0.5139 -0.3192 -0.2677
  977MOL0     H34790   2.142   9.325   1.400  0.9971  0.0967 -0.9235
  977MOL0     H34791   2.220   9.346   1.562 -3.0444 -0.6990  0.2180
  977MOL0     H34792   2.339   9.389   1.283 -1.0712  0.7258  0.5215
  977MOL0     H34793   2.285   9.501   1.401  1.9695  0.9143  1.7373
  977MOL0     H34794   2.486   9.269   1.491  0.5001  0.7780  1.8178
  977MOL0     H34795   2.490   9.434   1.549 -0.7218 -2.4181  1.3992
  977MOL0     H34796   2.608   9.516   1.360  2.0010 -0.7246  1.2689
  977MOL0     H34797   2.569   9.380   1.252  1.7911 -0.1611 -0.0917
  977MOL0     H34798   2.799   9.396   1.325  2.6808 -0.0329  1.9486
  977MOL0     H34799   2.755   9.385   1.487 -0.9406  1.1678 -0.5955
  977MOL0     H34800   2.685   9.156   1.279  0.9400 -0.4199  0.6024
  977MOL0     H34801   2.679   9.149   1.463  0.4226  4.3217  2.0340
  977MOL0     H34802   2.924   9.176   1.459 -2.1405 -0.3684  1.1431
  977MOL0     H34803   2.921   9.192   1.283  0.7133  1.4041  0.3471
  977MOL0     H34804   2.982   8.976   1.305 -1.5131  0.0753 -1.5265
  977MOL0     H34805   2.814   8.948   1.280 -0.2414 -0.5049  0.7258
  977MOL0     H34806   2.013   9.229   1.572  0.6798  0.2522 -2.2360
  977MOL0     H34807   1.845   9.056   1.623  0.3753 -0.9449  2.4510
  977MOL0     H34808   1.550   8.768   1.370  0.4288  1.0010 -0.1737
  977MOL0     H34809   1.343   8.678   1.435  1.9068  0.1808 -1.1061
  977MOL0     H34810   0.788   7.836   1.219 -0.2966 -2.2471  0.2235
  977MOL0     H34811   0.563   7.778   1.325 -1.0000  0.5434  0.3885
  977MOL0     H34812   0.130   7.907   1.272  1.9485 -1.5415 -1.2638
  977MOL0     H34813  -0.080   7.924   1.432  1.3843 -0.1608  0.8411
  977MOL0     H34814  -0.344   7.565   1.438 -1.1186  1.5088 -0.7178
  977MOL0     H34815  -0.245   7.529   1.579  0.3109  0.2455  2.6433
  977MOL0     H34816  -0.378   7.708   1.699  0.2595  0.2099 -0.3610
  977MOL0     H34817  -0.463   7.552   1.657  2.1416  0.0307  1.8728
  977MOL0     H34818  -0.495   7.781   1.458  0.1124 -1.2386 -1.0502
  977MOL0     H34819  -0.574   7.626   1.479 -0.5576  0.6872 -0.4591
  977MOL0     H34820  -0.655   7.711   1.705  1.8821  1.0397  0.8552
  977MOL0     H34821  -0.721   7.802   1.556 -1.9314  0.5895  2.0910
  977MOL0     H34822  -0.528   8.126   1.710 -0.6398  0.1492 -2.3847
  977MOL0     H34823  -0.119   7.495   1.388  0.4682 -0.2294  1.8861
  977MOL0     H34824   0.076   7.387   1.172  0.8710 -0.4619  0.1702
  977MOL0     H34825   0.215   7.425   1.264  0.2955 -0.0592  2.9979
  977MOL0     H34826   0.058   7.367   1.341  0.3791 -2.1983  0.1613
  978MOL0     O34827   3.411   7.989   7.872 -0.3871  0.4774 -0.1190
  978MOL0     C34828   3.386   8.112   7.874  0.5251  0.2413 -0.0449
  978MOL0     O34829   3.263   8.170   7.888 -0.0446  0.4460  0.4374
  978MOL0     C34830   3.156   8.113   7.950  0.4620  0.2604  0.9787
  978MOL0     C34831   3.033   8.164   7.918  0.3201  0.4529 -0.2564
  978MOL0     C34832   2.914   8.107   7.971  0.3700 -0.7464  0.5314
  978MOL0     C34833   2.922   7.996   8.056 -0.9157 -0.7265 -0.2452
  978MOL0     O34834   2.819   7.920   8.105  0.3840 -0.2502  0.0189
  978MOL0     C34835   2.685   7.980   8.115 -0.7424  0.3468  0.7096
  978MOL0     C34836   2.578   7.873   8.146 -0.0842  0.2833 -0.6869
  978MOL0     C34837   2.579   7.757   8.041 -1.1224 -0.3994  0.1850
  978MOL0     C34838   2.488   7.651   8.087 -0.0526  0.2289  0.2778
  978MOL0     C34839   2.488   7.534   7.981 -0.1425 -0.9061 -0.7418
  978MOL0     C34840   2.447   7.406   8.050  0.2854  0.7138  0.1430
  978MOL0     C34841   2.457   7.290   7.949  0.6187 -0.0969  0.2105
  978MOL0     C34842   2.392   7.159   8.003  0.2050 -0.4390  0.6088
  978MOL0     N34843   2.236   7.142   7.995 -0.9633 -0.6671 -0.3080
  978MOL0     C34844   2.176   7.115   7.876  0.3242 -0.4270 -0.1754
  978MOL0     C34845   2.048   7.094   7.907 -0.0021 -0.0425 -0.5931
  978MOL0     C34846   1.949   7.065   7.802  0.1655 -0.2280  0.0676
  978MOL0     C34847   1.855   6.957   7.839 -0.5185  0.1304 -0.0386
  978MOL0     C34848   1.733   6.940   7.738 -0.4191  0.0793 -1.3502
  978MOL0     C34849   1.645   6.818   7.795 -0.5712  0.0472  0.4515
  978MOL0     O34850   1.597   6.755   7.676  0.2086  0.5107 -0.0407
  978MOL0     C34851   1.527   6.642   7.688  0.8418  1.0122 -0.4876
  978MOL0     C34852   1.496   6.572   7.567  0.1239  0.6689 -0.1139
  978MOL0     C34853   1.417   6.450   7.570  0.0839 -0.5008 -0.1710
  978MOL0     C34854   1.360   6.405   7.433 -1.7206 -0.1370 -0.4233
  978MOL0     C34855   1.382   6.398   7.702 -0.1921 -0.4900 -0.0387
  978MOL0     C34856   1.306   6.268   7.714  0.7526 -0.3543 -0.3749
  978MOL0     O34857   1.242   6.256   7.839 -0.3569 -0.6321  0.7291
  978MOL0     C34858   1.206   6.131   7.883 -0.1161  0.2403  0.1719
  978MOL0     C34859   1.280   6.007   7.874  0.4282  0.0009 -0.2449
  978MOL0     C34860   1.226   5.885   7.908 -0.6119  0.0477 -1.1964
  978MOL0     C34861   1.106   5.883   7.973  0.6988 -0.5673  0.0011
  978MOL0     O34862   1.061   5.763   8.017 -0.5744  0.4677  0.3864
  978MOL0     C34863   1.020   5.754   8.152 -0.1378 -0.6550 -0.0884
  978MOL0     C34864   0.971   5.607   8.171 -0.1361  0.2487  0.5307
  978MOL0     C34865   0.968   5.583   8.318 -0.1939 -0.5100  0.0654
  978MOL0     C34866   0.840   5.638   8.394 -0.2363  0.1782 -0.6545
  978MOL0     C34867   0.829   5.560   8.528  0.2118  0.4356 -0.0165
  978MOL0     C34868   0.683   5.566   8.574 -0.0254  0.9907 -0.2277
  978MOL0     C34869   0.645   5.476   8.698 -0.8458  0.2600 -0.5413
  978MOL0     C34870   0.505   5.493   8.752 -0.1180 -0.6307 -0.0858
  978MOL0    Cl34871   0.382   5.410   8.658 -0.3026 -0.5473  0.1188
  978MOL0     C34872   1.035   6.001   7.998 -0.0687  0.4475 -0.5662
  978MOL0     C34873   1.087   6.127   7.959  0.2540  0.4803 -0.5709
  978MOL0     O34874   1.306   6.177   7.631  0.4227 -0.1766  0.2185
  978MOL0     C34875   1.421   6.465   7.812 -0.2422 -0.3517 -0.1959
  978MOL0     C34876   1.484   6.590   7.813 -0.0325 -0.1601  0.2479
  978MOL0     N34877   2.032   7.097   8.044 -0.0418 -0.2280 -0.4706
  978MOL0     N34878   2.146   7.126   8.096 -0.9867  0.1177 -0.1631
  978MOL0     C34879   3.051   7.947   8.096  0.1842  0.1986 -0.0612
  978MOL0     C34880   3.164   8.007   8.042  0.4796 -0.1416 -0.6824
  978MOL0     C34881   3.499   8.210   7.861  0.5289  0.0244  0.5882
  978MOL0     C34882   3.466   8.345   7.835  0.2825 -0.0898 -0.5853
  978MOL0     C34883   3.561   8.442   7.824 -0.3127  0.4177 -0.0167
  978MOL0     C34884   3.701   8.399   7.818 -0.4303 -0.4991  0.1850
  978MOL0     O34885   3.798   8.494   7.785 -0.0921  0.8654  0.5442
  978MOL0     C34886   3.847   8.563   7.903 -0.3829 -0.1377  0.0462
  978MOL0     C34887   3.997   8.558   7.897 -0.2638  0.8395  0.7965
  978MOL0     C34888   4.061   8.415   7.891 -0.1443  0.5210  0.2223
  978MOL0     C34889   4.212   8.438   7.870 -0.7795 -0.4531  0.0618
  978MOL0     C34890   4.280   8.321   7.813  0.9888 -0.1745 -0.1509
  978MOL0     C34891   4.356   8.238   7.771 -0.5914  0.9200 -0.2464
  978MOL0     C34892   3.739   8.271   7.853  0.4619 -0.3812  1.2725
  978MOL0     C34893   3.641   8.172   7.877  0.8800 -0.1282 -0.4703
  978MOL0     C34894   3.688   8.031   7.907  1.1793 -0.1496  0.0056
  978MOL0     H34895   3.027   8.235   7.836  1.9069  0.6327 -0.2549
  978MOL0     H34896   2.821   8.156   7.943  0.4640 -0.6179  0.4430
  978MOL0     H34897   2.663   8.030   8.021  2.2012  0.3013 -0.0953
  978MOL0     H34898   2.690   8.040   8.207  2.1328  2.0673 -0.4670
  978MOL0     H34899   2.586   7.822   8.242 -3.1400 -2.3657 -1.6400
  978MOL0     H34900   2.479   7.921   8.142 -0.5039 -0.2525  1.6258
  978MOL0     H34901   2.549   7.794   7.942 -0.7059 -1.6447 -0.4248
  978MOL0     H34902   2.680   7.720   8.023 -0.8706  0.0400  0.6737
  978MOL0     H34903   2.510   7.614   8.188  1.7770  0.5133  0.0231
  978MOL0     H34904   2.386   7.689   8.098 -0.9560 -2.4462  2.0660
  978MOL0     H34905   2.577   7.523   7.918  0.5016  1.9312 -0.4272
  978MOL0     H34906   2.403   7.557   7.916 -2.7682  0.4701  2.8859
  978MOL0     H34907   2.498   7.384   8.144  0.3006 -0.4415 -0.1260
  978MOL0     H34908   2.343   7.407   8.082 -0.0610 -1.0239 -0.7788
  978MOL0     H34909   2.554   7.257   7.912  1.5693  1.3627  1.2949
  978MOL0     H34910   2.401   7.323   7.861  1.8729  0.2083 -0.4947
  978MOL0     H34911   2.434   7.064   7.968 -0.7559 -0.8121  0.4261
  978MOL0     H34912   2.415   7.163   8.110  2.0250 -1.4317  0.2881
  978MOL0     H34913   2.224   7.103   7.779 -0.6182 -1.5805 -0.5282
  978MOL0     H34914   1.998   7.045   7.706 -1.4748  1.2438 -1.1481
  978MOL0     H34915   1.897   7.158   7.780 -1.1206 -1.1464 -0.9361
  978MOL0     H34916   1.906   6.861   7.841 -2.3438 -0.9301 -1.0920
  978MOL0     H34917   1.820   6.977   7.940  0.8738 -0.2286  0.5386
  978MOL0     H34918   1.678   7.035   7.733  0.2702  0.6934  1.2274
  978MOL0     H34919   1.776   6.915   7.641  1.4484  2.5478 -1.2545
  978MOL0     H34920   1.696   6.738   7.849  0.3696 -1.2255 -2.1214
  978MOL0     H34921   1.563   6.852   7.859  0.3849  3.4258  0.0583
  978MOL0     H34922   1.535   6.608   7.473  1.4815 -1.0257 -0.2665
  978MOL0     H34923   1.263   6.355   7.442 -0.8256 -1.7910  0.8268
  978MOL0     H34924   1.438   6.342   7.388  0.6440  2.7608 -0.6670
  978MOL0     H34925   1.356   6.480   7.354 -0.7377 -0.7620 -1.0763
  978MOL0     H34926   1.379   6.001   7.830  2.6737  0.6695  4.1881
  978MOL0     H34927   1.284   5.795   7.892  1.2383  1.1347 -1.0014
  978MOL0     H34928   1.101   5.779   8.222 -0.5100 -0.5857  0.3240
  978MOL0     H34929   0.934   5.816   8.177  0.8830 -0.4870  3.6155
  978MOL0     H34930   0.867   5.599   8.137 -0.3622  2.7605  0.4157
  978MOL0     H34931   1.046   5.540   8.128 -1.9001  0.1137 -2.6756
  978MOL0     H34932   1.045   5.638   8.373 -1.3398  0.1443  1.0675
  978MOL0     H34933   0.985   5.477   8.338  2.9810 -0.4025 -1.4305
  978MOL0     H34934   0.753   5.619   8.331 -0.3371 -2.4013  0.1295
  978MOL0     H34935   0.848   5.745   8.416 -2.4240  0.2836 -0.1404
  978MOL0     H34936   0.862   5.456   8.518  0.2189  0.2666  1.5382
  978MOL0     H34937   0.897   5.607   8.599 -0.1340  0.5454  0.2459
  978MOL0     H34938   0.612   5.536   8.496 -1.4632  3.8441 -0.1322
  978MOL0     H34939   0.660   5.671   8.596  1.5168  1.1154  1.0109
  978MOL0     H34940   0.698   5.516   8.785 -1.5493  0.0121  0.0106
  978MOL0     H34941   0.678   5.373   8.685  0.3702  0.4965  0.4707
  978MOL0     H34942   0.485   5.599   8.765  1.4477 -0.6999  4.9904
  978MOL0     H34943   0.510   5.452   8.853  0.4754 -1.4885 -0.4450
  978MOL0     H34944   0.940   5.993   8.051  1.4990 -4.1514  2.1826
  978MOL0     H34945   1.030   6.218   7.970 -0.7557 -0.3738  1.7077
  978MOL0     H34946   1.406   6.418   7.908  2.0079  0.6718  0.7423
  978MOL0     H34947   1.495   6.644   7.907  2.5111 -1.4441  0.7807
  978MOL0     H34948   3.066   7.866   8.167  1.3110  0.0488 -0.4485
  978MOL0     H34949   3.261   7.970   8.073  0.3692 -0.4068 -0.6483
  978MOL0     H34950   3.362   8.376   7.840  0.7116  1.3673 -0.1085
  978MOL0     H34951   3.531   8.544   7.802  1.9889  0.8968 -1.2947
  978MOL0     H34952   3.805   8.664   7.893 -4.1934 -1.6796 -1.7542
  978MOL0     H34953   3.819   8.518   7.999  3.7489 -1.1922  0.9459
  978MOL0     H34954   4.047   8.621   7.971 -0.4824  0.6913  1.0696
  978MOL0     H34955   4.027   8.611   7.806 -0.8795  2.4462  1.4883
  978MOL0     H34956   4.047   8.355   7.982  1.7846  1.3494  1.1140
  978MOL0     H34957   4.036   8.356   7.802  3.6106 -2.4695  0.8948
  978MOL0     H34958   4.268   8.455   7.963  0.2803  0.0722 -0.6574
  978MOL0     H34959   4.237   8.518   7.800 -2.5495 -0.8215 -1.0706
  978MOL0     H34960   4.417   8.161   7.727 -0.5960  0.7368  0.0625
  978MOL0     H34961   3.842   8.240   7.867  0.1292 -1.0411  2.3801
  978MOL0     H34962   3.791   8.025   7.944  1.7766 -1.3285 -1.7435
  978MOL0     H34963   3.628   7.994   7.990  0.3823  0.1120 -0.4444
  978MOL0     H34964   3.662   7.958   7.829 -1.2688 -2.6846  2.9380
  979MOL0     O34965   5.640   6.572   3.765 -0.0653 -0.3823 -0.3549
  979MOL0     C34966   5.715   6.650   3.702  0.3457  0.0983  0.9576
  979MOL0     O34967   5.673   6.754   3.618  0.3087  0.0023  0.1035
  979MOL0     C34968   5.541   6.743   3.572  0.4510 -0.6219 -0.1348
  979MOL0     C34969   5.503   6.634   3.492  0.7304  0.4943  0.2712
  979MOL0     C34970   5.371   6.633   3.443 -0.0705  0.3360 -0.5873
  979MOL0     C34971   5.275   6.737   3.465  0.4939 -0.2304 -0.1463
  979MOL0     O34972   5.151   6.714   3.409 -0.4905 -0.6337 -0.0651
  979MOL0     C34973   5.043   6.770   3.472  0.0226 -0.0293 -1.4415
  979MOL0     C34974   4.944   6.782   3.362 -0.2662 -0.6536  1.1154
  979MOL0     C34975   4.794   6.759   3.402  0.3430 -0.1538  0.2568
  979MOL0     C34976   4.709   6.759   3.273  0.4754  0.3347 -0.1504
  979MOL0     C34977   4.561   6.790   3.291 -0.2985 -0.5844  0.4237
  979MOL0     C34978   4.474   6.663   3.324  0.1853  0.3403  0.4388
  979MOL0     C34979   4.336   6.706   3.367  0.1020  0.3521  0.6419
  979MOL0     C34980   4.336   6.759   3.508 -0.5735 -0.5516  0.1043
  979MOL0     N34981   4.361   6.646   3.604 -0.4347 -0.3896  0.3539
  979MOL0     C34982   4.479   6.640   3.671  0.1272  0.3654 -0.3378
  979MOL0     C34983   4.486   6.504   3.714 -0.0016 -0.4345  0.7969
  979MOL0     C34984   4.588   6.453   3.799 -0.3494 -0.0985 -0.0877
  979MOL0     C34985   4.551   6.451   3.953  0.5595 -0.5785 -0.3159
  979MOL0     C34986   4.682   6.413   4.019 -0.8481  0.6875 -1.7219
  979MOL0     C34987   4.675   6.383   4.168 -0.0732 -0.2916 -0.0766
  979MOL0     O34988   4.655   6.512   4.220 -0.0132  0.4415  0.4165
  979MOL0     C34989   4.747   6.612   4.234  0.9591  0.2321 -0.0248
  979MOL0     C34990   4.690   6.733   4.271 -0.2432 -0.3946 -0.3139
  979MOL0     C34991   4.771   6.847   4.283  0.4724 -0.6372  0.6416
  979MOL0     C34992   4.708   6.978   4.332 -0.0911 -0.1582  0.7590
  979MOL0     C34993   4.909   6.845   4.243 -0.1961  0.4684  0.5603
  979MOL0     C34994   4.997   6.958   4.221 -0.4343 -0.3831  0.3972
  979MOL0     O34995   4.952   7.079   4.250  0.0998 -0.6141  0.3598
  979MOL0     C34996   5.030   7.185   4.223  0.2876  0.0134 -0.2706
  979MOL0     C34997   5.158   7.211   4.292 -0.5115 -0.7654  0.7243
  979MOL0     C34998   5.214   7.337   4.272 -0.1264  0.5875 -0.0728
  979MOL0     C34999   5.156   7.431   4.189 -0.3183  0.2034  0.2705
  979MOL0     O35000   5.226   7.549   4.181  0.4563  0.3618 -0.1857
  979MOL0     C35001   5.145   7.668   4.159  0.0110  0.1622  0.1129
  979MOL0     C35002   5.227   7.787   4.206  0.3644  0.1996  0.3987
  979MOL0     C35003   5.315   7.841   4.087  0.2807 -0.3803  0.2237
  979MOL0     C35004   5.428   7.922   4.155  0.3461  0.5794 -1.2040
  979MOL0     C35005   5.518   7.998   4.066 -0.3257 -0.5504  0.3259
  979MOL0     C35006   5.633   8.057   4.144  0.1249  0.0386 -0.8482
  979MOL0     C35007   5.736   8.127   4.044 -0.5094 -0.0608  0.1680
  979MOL0     C35008   5.882   8.142   4.105 -0.1399  0.1424 -0.1196
  979MOL0    Cl35009   5.862   8.270   4.232  0.1261 -0.0777  0.1889
  979MOL0     C35010   5.034   7.406   4.133 -0.4983  0.3559 -0.1784
  979MOL0     C35011   4.978   7.286   4.152  0.4051  0.0633 -0.4213
  979MOL0     O35012   5.101   6.949   4.157  0.0793  0.0164 -1.1404
  979MOL0     C35013   4.960   6.721   4.207 -0.1610  0.7932  0.1895
  979MOL0     C35014   4.886   6.600   4.208 -0.3778 -0.9213  0.2454
  979MOL0     N35015   4.360   6.448   3.688  0.2800 -0.1501  0.0786
  979MOL0     N35016   4.290   6.531   3.623  0.3293 -1.0671 -0.3406
  979MOL0     C35017   5.320   6.845   3.542  0.5301  0.2516  0.0706
  979MOL0     C35018   5.451   6.848   3.596  0.2583 -0.0502  0.3938
  979MOL0     C35019   5.867   6.642   3.735 -0.4238  0.9050  0.2463
  979MOL0     C35020   5.915   6.514   3.744 -0.0683  0.7989  0.0739
  979MOL0     C35021   6.053   6.489   3.757 -0.2795 -0.8847  0.3695
  979MOL0     C35022   6.140   6.598   3.760 -0.0597 -0.4119 -0.5747
  979MOL0     O35023   6.280   6.591   3.783  0.3334  0.0170 -0.0845
  979MOL0     C35024   6.344   6.462   3.790  0.1944 -0.7016 -0.7640
  979MOL0     C35025   6.358   6.397   3.646  0.4518  0.4470  0.7267
  979MOL0     C35026   6.446   6.262   3.626 -0.0233 -0.1703  0.2969
  979MOL0     C35027   6.447   6.200   3.487 -1.0028  0.5040 -0.0863
  979MOL0     C35028   6.315   6.194   3.418  0.5674 -0.7927 -0.3423
  979MOL0     C35029   6.210   6.172   3.365  0.3368 -0.6927 -0.8179
  979MOL0     C35030   6.088   6.724   3.758 -0.8144  0.2956 -0.3064
  979MOL0     C35031   5.951   6.753   3.749  0.2065  0.6147 -0.3140
  979MOL0     C35032   5.908   6.899   3.757 -0.6618  0.4635 -0.6705
  979MOL0     H35033   5.584   6.561   3.482  1.5493  1.4457 -0.2201
  979MOL0     H35034   5.337   6.547   3.386 -1.3406  0.9543 -0.8193
  979MOL0     H35035   5.070   6.866   3.515  1.4424 -0.9189 -0.2750
  979MOL0     H35036   5.012   6.708   3.557  2.6442  2.5513  1.6217
  979MOL0     H35037   4.956   6.883   3.321  0.4171 -0.4897  1.6972
  979MOL0     H35038   4.970   6.712   3.283 -1.6851  0.4571 -0.4077
  979MOL0     H35039   4.781   6.669   3.462  0.9711 -1.3851 -1.3769
  979MOL0     H35040   4.767   6.851   3.455 -0.6853  0.6084 -1.5011
  979MOL0     H35041   4.739   6.825   3.191  0.0087 -1.2967 -1.6815
  979MOL0     H35042   4.728   6.658   3.237  3.0634  0.7063 -0.0106
  979MOL0     H35043   4.523   6.832   3.197  0.1279 -1.6836 -0.2506
  979MOL0     H35044   4.564   6.861   3.374  1.8528 -3.7451  3.2804
  979MOL0     H35045   4.456   6.609   3.230  1.6249  2.2387 -0.9975
  979MOL0     H35046   4.530   6.603   3.396 -0.5450 -1.0524 -0.1188
  979MOL0     H35047   4.264   6.624   3.361  1.8037 -1.3338  2.0979
  979MOL0     H35048   4.304   6.799   3.319  0.0728  0.8189  1.5560
  979MOL0     H35049   4.410   6.839   3.520  0.4577 -1.7214  2.0853
  979MOL0     H35050   4.238   6.799   3.536 -0.6642 -1.2585  0.7986
  979MOL0     H35051   4.550   6.719   3.693  3.6600 -3.1318  2.1839
  979MOL0     H35052   4.681   6.506   3.778 -0.4953 -0.6481 -2.3278
  979MOL0     H35053   4.595   6.352   3.758  0.0324 -0.3063  0.4668
  979MOL0     H35054   4.522   6.549   3.992 -0.4400 -0.7386 -0.6313
  979MOL0     H35055   4.494   6.363   3.984 -0.9393  0.7284  0.7497
  979MOL0     H35056   4.709   6.322   3.964 -1.2634 -1.8629  1.9731
  979MOL0     H35057   4.764   6.485   4.003  0.0727 -0.0407 -0.4279
  979MOL0     H35058   4.599   6.313   4.204  1.8899 -1.5852  1.8157
  979MOL0     H35059   4.765   6.339   4.210 -2.0848  0.0312  5.2778
  979MOL0     H35060   4.585   6.735   4.296  0.1916  0.8816  1.7380
  979MOL0     H35061   4.769   7.024   4.411 -0.2845  0.5695  0.4904
  979MOL0     H35062   4.607   6.956   4.369 -1.5700  0.8728 -2.3270
  979MOL0     H35063   4.690   7.042   4.245 -1.5219 -0.6926  0.6290
  979MOL0     H35064   5.201   7.142   4.364  1.9994  1.0634  1.0964
  979MOL0     H35065   5.311   7.358   4.318  0.0757 -0.8369  0.1976
  979MOL0     H35066   5.123   7.687   4.053  0.3364  0.2451  0.0569
  979MOL0     H35067   5.051   7.664   4.214  0.8756  1.4573  1.7791
  979MOL0     H35068   5.163   7.869   4.239  0.0709  0.7823 -1.4835
  979MOL0     H35069   5.289   7.766   4.293  0.3050  1.1330  0.6831
  979MOL0     H35070   5.253   7.909   4.028  0.0095  0.3014  1.2585
  979MOL0     H35071   5.349   7.760   4.023  0.2206  0.2581 -0.6294
  979MOL0     H35072   5.492   7.846   4.200  1.2007  1.1861 -1.3796
  979MOL0     H35073   5.379   7.990   4.225 -0.9812  2.6307 -3.9056
  979MOL0     H35074   5.555   7.929   3.990 -0.2353 -0.2249  0.0751
  979MOL0     H35075   5.475   8.075   4.001  2.5060  1.5405  0.7440
  979MOL0     H35076   5.682   7.973   4.192 -0.0211  0.5940  0.2995
  979MOL0     H35077   5.594   8.124   4.221  0.9055 -1.5803  1.0283
  979MOL0     H35078   5.691   8.220   4.010  0.8719  0.2675 -0.8551
  979MOL0     H35079   5.752   8.056   3.963  2.8037  2.4828 -1.6824
  979MOL0     H35080   5.951   8.186   4.033 -0.6269 -0.3538 -0.8942
  979MOL0     H35081   5.922   8.045   4.136 -0.6999  0.1610  0.7093
  979MOL0     H35082   4.987   7.477   4.065  0.0709  0.1816 -0.7758
  979MOL0     H35083   4.881   7.266   4.109  0.7682 -2.3498 -0.2549
  979MOL0     H35084   5.063   6.711   4.173 -1.2438 -0.6878 -3.0541
  979MOL0     H35085   4.939   6.507   4.190 -0.4422 -0.8446 -0.3432
  979MOL0     H35086   5.257   6.929   3.569  1.2135  0.7711  0.0671
  979MOL0     H35087   5.484   6.937   3.650 -0.6158  0.3535  0.2780
  979MOL0     H35088   5.849   6.429   3.728  0.2245  0.7235 -0.8147
  979MOL0     H35089   6.095   6.390   3.744 -1.1333 -0.9473 -2.6038
  979MOL0     H35090   6.440   6.479   3.840  0.9289 -2.8441 -1.3386
  979MOL0     H35091   6.281   6.395   3.850 -1.4780  0.9594 -0.5733
  979MOL0     H35092   6.395   6.471   3.574  2.2662  0.0176  1.1695
  979MOL0     H35093   6.261   6.371   3.604  0.3020 -0.3350  1.5252
  979MOL0     H35094   6.554   6.274   3.645  0.2474 -0.5994 -0.8889
  979MOL0     H35095   6.413   6.188   3.699  2.5331  1.2707  3.1996
  979MOL0     H35096   6.495   6.102   3.497  1.7870  1.7730 -0.2979
  979MOL0     H35097   6.510   6.264   3.426  0.7827 -1.7213 -0.7110
  979MOL0     H35098   6.119   6.144   3.315 -1.0593 -0.7789  1.6199
  979MOL0     H35099   6.156   6.808   3.768 -2.6460  1.6578  1.3316
  979MOL0     H35100   5.990   6.970   3.771 -0.7109  0.3803  0.0311
  979MOL0     H35101   5.844   6.931   3.674 -1.5135  1.4246  0.3302
  979MOL0     H35102   5.856   6.913   3.852  0.4347  1.8408 -0.2327
  980MOL0     O35103   4.521  10.936  10.191  0.8117  0.2735 -0.2422
  980MOL0     C35104   4.475  10.943  10.303  0.2197 -0.4219  0.2614
  980MOL0     O35105   4.546  10.900  10.410 -0.3974 -0.4952 -0.2613
  980MOL0     C35106   4.672  10.852  10.395  0.6629  0.2094 -0.7836
  980MOL0     C35107   4.782  10.937  10.412 -0.4251 -0.0855  0.5971
  980MOL0     C35108   4.912  10.883  10.392 -0.0898 -0.3498  1.5519
  980MOL0     C35109   4.928  10.740  10.385  0.0595 -0.2943  0.1562
  980MOL0     O35110   5.052  10.682  10.367  0.2483  0.5818  0.0512
  980MOL0     C35111   5.130  10.675  10.492  0.0610  0.5129  0.1283
  980MOL0     C35112   5.273  10.630  10.451  0.7612  0.2297 -0.4064
  980MOL0     C35113   5.352  10.588  10.574  0.6405 -0.0218 -0.6537
  980MOL0     C35114   5.495  10.542  10.549 -0.5824 -0.7238 -1.2714
  980MOL0     C35115   5.603  10.522  10.667  0.3833 -0.4388  0.0691
  980MOL0     C35116   5.734  10.488  10.604 -0.1925  1.0243  0.3027
  980MOL0     C35117   5.861  10.499  10.695  0.1345 -0.0521  0.4803
  980MOL0     C35118   5.994  10.456  10.629 -0.3477 -0.3419  0.4162
  980MOL0     N35119   5.999  10.314  10.604 -0.0603  0.1227  0.3174
  980MOL0     C35120   6.017  10.227  10.708 -0.0282  0.3308  0.5277
  980MOL0     C35121   5.989  10.108  10.649 -0.1105 -0.2488  0.1915
  980MOL0     C35122   5.977   9.974  10.714  0.6028 -0.5879 -1.0104
  980MOL0     C35123   6.111   9.908  10.747  0.8323  0.1048 -0.1862
  980MOL0     C35124   6.080   9.788  10.828  0.2505  0.7504 -0.0196
  980MOL0     C35125   6.210   9.716  10.870  0.3245 -0.1123 -0.2002
  980MOL0     O35126   6.291   9.793  10.952 -0.2346 -0.5528  0.2256
  980MOL0     C35127   6.412   9.735  10.998 -0.6436  0.0628 -0.8695
  980MOL0     C35128   6.492   9.813  11.078 -0.2496 -0.0620  0.0761
  980MOL0     C35129   6.610   9.769  11.133 -0.9137  0.2229  0.2952
  980MOL0     C35130   6.690   9.873  11.213  0.5125  0.4765 -0.3644
  980MOL0     C35131   6.651   9.633  11.114  0.0680 -0.0378 -0.4064
  980MOL0     C35132   6.779   9.579  11.173  0.0638  0.1252  0.2780
  980MOL0     O35133   6.868   9.665  11.226  0.1510  0.1970  0.5191
  980MOL0     C35134   6.965   9.614  11.307  0.0197  0.5019 -0.2058
  980MOL0     C35135   6.945   9.642  11.442 -1.1662  0.0699  0.0803
  980MOL0     C35136   7.043   9.613  11.527 -0.4909 -0.1051 -0.5472
  980MOL0     C35137   7.165   9.546  11.496  0.3311 -0.6295  0.1098
  980MOL0     O35138   7.269   9.509  11.583  0.7614  0.0550  0.0193
  980MOL0     C35139   7.260   9.525  11.727  0.7959 -0.1400  0.1230
  980MOL0     C35140   7.403   9.486  11.773 -0.0689  0.2966  0.6341
  980MOL0     C35141   7.413   9.338  11.816  0.8632  0.1059  0.5555
  980MOL0     C35142   7.560   9.330  11.861 -0.5683 -0.2117  0.1683
  980MOL0     C35143   7.615   9.192  11.879  0.1324 -0.1005  0.4339
  980MOL0     C35144   7.535   9.116  11.985  1.1872  0.2085 -0.8156
  980MOL0     C35145   7.602   8.982  12.015  0.2390  0.1485  0.3718
  980MOL0     C35146   7.523   8.906  12.118  0.1789 -0.1322 -0.1735
  980MOL0    Cl35147   7.597   8.752  12.170 -0.4304  0.1336 -0.0179
  980MOL0     C35148   7.179   9.523  11.359 -0.5566  0.1589  1.1706
  980MOL0     C35149   7.082   9.557  11.260 -1.0004  0.7240 -0.1849
  980MOL0     O35150   6.794   9.457  11.161  0.6018  0.2952  0.3204
  980MOL0     C35151   6.573   9.548  11.038  0.8933 -0.2215 -0.2702
  980MOL0     C35152   6.457   9.605  10.978 -0.4883  0.4464 -0.0837
  980MOL0     N35153   5.988  10.125  10.510 -0.4181  0.1894  0.8264
  980MOL0     N35154   6.000  10.253  10.483  0.5796  0.7023  0.2884
  980MOL0     C35155   4.819  10.652  10.380 -0.3272  0.2714 -0.1783
  980MOL0     C35156   4.698  10.714  10.385 -0.1514  0.3669 -0.0890
  980MOL0     C35157   4.355  11.020  10.325  1.1662 -0.6816  0.2992
  980MOL0     C35158   4.245  11.005  10.237  0.6256 -0.3278  0.3828
  980MOL0     C35159   4.118  11.059  10.256  0.1756  0.3313 -0.4268
  980MOL0     C35160   4.087  11.135  10.367  0.3192 -0.5942  0.2310
  980MOL0     O35161   3.966  11.199  10.394 -0.6145 -0.3491  0.4182
  980MOL0     C35162   3.848  11.138  10.347  0.2912  0.2205  0.2476
  980MOL0     C35163   3.804  10.998  10.388 -0.3722  0.1222 -0.0852
  980MOL0     C35164   3.660  10.961  10.343  0.6164 -0.3340 -0.8206
  980MOL0     C35165   3.592  10.854  10.430  0.7578 -0.0334  0.2113
  980MOL0     C35166   3.613  10.722  10.367  0.1394 -0.3958  0.1496
  980MOL0     C35167   3.637  10.609  10.335 -0.1045 -0.3408  0.4310
  980MOL0     C35168   4.195  11.160  10.460  0.7590  0.1286 -0.7626
  980MOL0     C35169   4.326  11.094  10.450  0.1825  0.4115  0.2113
  980MOL0     C35170   4.420  11.111  10.565  0.5187 -0.0674 -0.2362
  980MOL0     H35171   4.762  11.039  10.442 -1.6474 -0.3532  0.7217
  980MOL0     H35172   5.003  10.935  10.364 -0.7484 -1.9869 -5.5127
  980MOL0     H35173   5.087  10.616  10.574  2.0878  0.8124  1.4727
  980MOL0     H35174   5.137  10.775  10.534  1.4529 -0.2454  1.8364
  980MOL0     H35175   5.264  10.544  10.384  3.3364  1.3029 -2.2864
  980MOL0     H35176   5.330  10.711  10.404  0.2857  1.4923  1.1151
  980MOL0     H35177   5.345  10.671  10.645 -0.3312 -1.1815  0.6706
  980MOL0     H35178   5.301  10.505  10.623  2.3004 -1.1605 -0.7831
  980MOL0     H35179   5.491  10.444  10.499  1.4618 -1.3867 -0.2639
  980MOL0     H35180   5.538  10.606  10.472  0.2293 -3.2260 -3.0601
  980MOL0     H35181   5.581  10.432  10.727  2.6313 -2.1897 -1.5632
  980MOL0     H35182   5.609  10.608  10.734  2.3704 -0.2320 -0.3199
  980MOL0     H35183   5.722  10.388  10.562  1.1166  1.2682 -0.7160
  980MOL0     H35184   5.741  10.553  10.516 -5.3325  1.8560  0.1998
  980MOL0     H35185   5.834  10.441  10.784 -3.9165 -1.2643 -1.3058
  980MOL0     H35186   5.870  10.606  10.717  0.7743 -0.6513  3.6032
  980MOL0     H35187   6.015  10.509  10.535  3.6314  1.4756  2.0946
  980MOL0     H35188   6.072  10.494  10.696  2.1280 -0.4026 -2.2034
  980MOL0     H35189   6.015  10.249  10.814 -1.3609  1.1427  0.3558
  980MOL0     H35190   5.914   9.911  10.650 -3.0447  0.2814  1.3896
  980MOL0     H35191   5.921   9.996  10.805 -1.4848 -0.4257 -2.2741
  980MOL0     H35192   6.166   9.895  10.653 -2.1042  2.0471 -2.3577
  980MOL0     H35193   6.167   9.977  10.810  1.2853  0.2365 -0.7227
  980MOL0     H35194   6.015   9.795  10.916  1.5468  1.2216  0.9314
  980MOL0     H35195   6.030   9.723  10.755 -1.8928  3.3223 -0.9636
  980MOL0     H35196   6.179   9.617  10.904  0.7071  0.1728  0.9971
  980MOL0     H35197   6.271   9.697  10.781  3.2652  0.1562  1.6447
  980MOL0     H35198   6.444   9.907  11.103  0.0087  0.8943 -2.6525
  980MOL0     H35199   6.707   9.838  11.315  0.1218  0.9755 -0.1194
  980MOL0     H35200   6.634   9.967  11.211  0.2944  0.3585 -2.4738
  980MOL0     H35201   6.789   9.899  11.175  0.1551  0.9733 -0.9861
  980MOL0     H35202   6.863   9.706  11.474  0.3915  1.4402  1.5425
  980MOL0     H35203   7.011   9.645  11.625  0.4999 -0.8945  0.0487
  980MOL0     H35204   7.242   9.629  11.756  2.2892  0.4134 -0.8532
  980MOL0     H35205   7.185   9.460  11.773  0.9857  0.6788  1.6553
  980MOL0     H35206   7.478   9.506  11.696  1.6303 -0.2702  2.0782
  980MOL0     H35207   7.424   9.542  11.864 -4.6232  1.4077  1.2426
  980MOL0     H35208   7.391   9.266  11.737  0.3363 -0.1374  0.9179
  980MOL0     H35209   7.350   9.309  11.901 -1.2758 -0.9034 -1.2708
  980MOL0     H35210   7.574   9.395  11.947  0.0453 -1.5474  1.1118
  980MOL0     H35211   7.626   9.378  11.788 -0.5273  0.3884  0.5948
  980MOL0     H35212   7.604   9.157  11.776  2.0800  0.6197 -0.0526
  980MOL0     H35213   7.721   9.194  11.907  0.0637  2.6918  0.7418
  980MOL0     H35214   7.434   9.099  11.947  0.5688 -2.4632  1.7034
  980MOL0     H35215   7.534   9.175  12.077 -0.4110  1.9190 -1.8619
  980MOL0     H35216   7.703   9.005  12.049 -0.1162 -1.2564  2.5549
  980MOL0     H35217   7.607   8.921  11.924 -1.3335 -0.2945  0.5594
  980MOL0     H35218   7.424   8.873  12.087  0.0657 -2.2451  2.1799
  980MOL0     H35219   7.515   8.969  12.207  4.4437 -0.7493  0.9004
  980MOL0     H35220   7.264   9.468  11.320 -1.4248 -1.3697  1.3251
  980MOL0     H35221   7.108   9.539  11.157 -0.8735 -1.3060  0.1691
  980MOL0     H35222   6.592   9.441  11.030  1.6202 -0.0836 -0.5357
  980MOL0     H35223   6.394   9.535  10.923  1.6930 -0.3271 -1.7647
  980MOL0     H35224   4.829  10.546  10.402 -0.0510  0.6565  1.6602
  980MOL0     H35225   4.615  10.646  10.404  1.8182 -1.7518  1.3569
  980MOL0     H35226   4.269  10.956  10.143  0.7928  0.8869 -0.2282
  980MOL0     H35227   4.040  11.041  10.182 -1.5352 -0.5137  1.4899
  980MOL0     H35228   3.764  11.203  10.373  1.0612  0.8836  1.1468
  980MOL0     H35229   3.838  11.140  10.238 -3.7749 -0.3065  0.4911
  980MOL0     H35230   3.820  10.990  10.496 -0.1753 -1.1188 -0.1930
  980MOL0     H35231   3.880  10.931  10.346  0.6418  1.7783 -0.9681
  980MOL0     H35232   3.595  11.048  10.349 -2.3075 -2.4143 -0.3454
  980MOL0     H35233   3.661  10.935  10.237 -2.3757 -0.8135 -0.8029
  980MOL0     H35234   3.484  10.867  10.437  0.3561 -1.8487 -1.6030
  980MOL0     H35235   3.638  10.860  10.529  1.5145 -0.3537 -0.1119
  980MOL0     H35236   3.639  10.509  10.294  0.5707  0.0771 -0.6055
  980MOL0     H35237   4.176  11.217  10.551 -2.6997 -0.3418 -1.0665
  980MOL0     H35238   4.462  11.015  10.597 -2.6533 -0.4229  3.5508
  980MOL0     H35239   4.495  11.190  10.552  0.0572  0.5581  0.7877
  980MOL0     H35240   4.367  11.143  10.655 -1.1516 -1.1766 -0.8001
  981MOL0     O35241   8.478   7.660   0.689  0.3562  0.2385 -0.4452
  981MOL0     C35242   8.560   7.574   0.704 -0.0715  0.4236  0.7248
  981MOL0     O35243   8.689   7.590   0.679  0.1343  0.0069 -0.0820
  981MOL0     C35244   8.749   7.702   0.634  0.6653  0.0728  0.6647
  981MOL0     C35245   8.869   7.680   0.568  0.2590  0.0765  0.0100
  981MOL0     C35246   8.944   7.783   0.515 -0.5011 -0.3450  0.0502
  981MOL0     C35247   8.896   7.912   0.523  0.3300 -0.0040  0.3851
  981MOL0     O35248   8.968   8.021   0.482 -0.3544 -0.2347  0.3426
  981MOL0     C35249   9.057   8.006   0.382  0.0030  0.2683  0.8995
  981MOL0     C35250   9.087   8.147   0.322  0.2036  0.3906  0.7879
  981MOL0     C35251   8.952   8.223   0.273 -0.3337 -0.0036  0.3755
  981MOL0     C35252   8.904   8.159   0.146  0.3080  0.1733  0.1179
  981MOL0     C35253   8.782   8.243   0.090 -0.4190 -0.0024  0.6998
  981MOL0     C35254   8.718   8.181  -0.029 -0.1017 -0.5816  0.1065
  981MOL0     C35255   8.618   8.277  -0.086  0.8124  0.6415  0.3928
  981MOL0     C35256   8.564   8.250  -0.227  0.3456  0.1851  0.5439
  981MOL0     N35257   8.453   8.160  -0.217 -0.0800  0.5810  0.1202
  981MOL0     C35258   8.326   8.179  -0.266  0.9976  0.7578 -0.4848
  981MOL0     C35259   8.271   8.056  -0.256  0.6926 -0.4774 -0.6359
  981MOL0     C35260   8.128   8.032  -0.300  0.9587 -0.5224 -0.1429
  981MOL0     C35261   8.049   7.981  -0.183  0.6643 -0.3714  0.4297
  981MOL0     C35262   7.902   7.996  -0.220 -0.4536  0.7325 -1.0864
  981MOL0     C35263   7.802   7.926  -0.122 -0.2626  0.2679  0.6059
  981MOL0     O35264   7.683   8.003  -0.119 -0.2423 -0.0451  0.0312
  981MOL0     C35265   7.571   7.961  -0.046 -0.2326 -0.4590 -1.0982
  981MOL0     C35266   7.571   7.864   0.054 -0.0417 -0.0846  0.9571
  981MOL0     C35267   7.457   7.831   0.131  0.2947 -0.3919  0.3449
  981MOL0     C35268   7.465   7.718   0.224  0.4547 -0.2771 -0.0696
  981MOL0     C35269   7.329   7.895   0.101 -0.0052 -0.0758 -0.7522
  981MOL0     C35270   7.196   7.858   0.173  0.6878 -0.5776  0.7527
  981MOL0     O35271   7.096   7.959   0.166  0.2653  0.5129  0.1053
  981MOL0     C35272   7.000   7.976   0.259 -0.3618  0.1387  0.9935
  981MOL0     C35273   6.995   7.922   0.385  0.1990 -0.6457  0.1276
  981MOL0     C35274   6.893   7.949   0.469  0.7596  0.4070  0.7116
  981MOL0     C35275   6.796   8.046   0.439  0.1459  0.5800 -0.5098
  981MOL0     O35276   6.705   8.101   0.528  0.4618 -0.1919 -0.1431
  981MOL0     C35277   6.732   8.064   0.661 -0.1839 -0.5609 -0.1303
  981MOL0     C35278   6.695   8.193   0.753 -0.0635  0.0272 -0.2461
  981MOL0     C35279   6.800   8.296   0.725  0.8839 -0.5567 -0.1863
  981MOL0     C35280   6.772   8.412   0.818 -0.2713 -0.2765  0.2702
  981MOL0     C35281   6.886   8.521   0.815  0.8025  0.9206  0.3523
  981MOL0     C35282   6.873   8.630   0.704 -0.0457 -0.9364 -0.8758
  981MOL0     C35283   6.998   8.710   0.729  0.1575 -0.3703  0.4470
  981MOL0     C35284   6.977   8.858   0.674  0.3156 -0.7118 -0.1291
  981MOL0    Cl35285   7.128   8.928   0.707  0.0349  0.0483  0.0031
  981MOL0     C35286   6.806   8.110   0.313 -0.1998 -0.2379 -0.3426
  981MOL0     C35287   6.910   8.074   0.228  0.2836 -0.1901  0.6238
  981MOL0     O35288   7.193   7.765   0.252 -0.2363 -0.2571  0.6956
  981MOL0     C35289   7.337   8.005   0.013  0.3842  0.3402 -0.6188
  981MOL0     C35290   7.451   8.038  -0.049  0.1764 -0.2781 -0.0180
  981MOL0     N35291   8.356   7.962  -0.195 -0.5557 -0.6266  0.2383
  981MOL0     N35292   8.464   8.030  -0.172 -0.2990 -0.6418  0.4363
  981MOL0     C35293   8.774   7.936   0.576  0.0624 -0.0172  0.3080
  981MOL0     C35294   8.694   7.830   0.627 -1.0785  0.3584  0.1484
  981MOL0     C35295   8.511   7.437   0.736 -0.0578 -0.1156  0.0387
  981MOL0     C35296   8.376   7.407   0.752 -0.0511 -0.4148  0.6484
  981MOL0     C35297   8.334   7.280   0.787  0.5389  0.9685  0.0728
  981MOL0     C35298   8.425   7.171   0.806  0.2032 -0.3727  0.0452
  981MOL0     O35299   8.386   7.045   0.851  0.5504  0.0407 -0.6839
  981MOL0     C35300   8.251   7.019   0.895  0.0627 -0.4997  0.3650
  981MOL0     C35301   8.253   6.878   0.953 -0.3678  0.4920  0.1821
  981MOL0     C35302   8.357   6.853   1.066 -0.5093 -0.3384  0.0678
  981MOL0     C35303   8.327   6.922   1.202 -0.6743 -0.8527  0.3528
  981MOL0     C35304   8.417   6.867   1.301 -0.0414 -0.0506 -0.5379
  981MOL0     C35305   8.488   6.808   1.384 -0.3940 -0.1386  0.6465
  981MOL0     C35306   8.563   7.204   0.799 -0.7624  0.6397 -0.2922
  981MOL0     C35307   8.606   7.330   0.766  0.2394 -0.0069  0.2573
  981MOL0     C35308   8.758   7.340   0.756 -0.0851 -0.2742 -0.8259
  981MOL0     H35309   8.907   7.579   0.563  0.5639  0.0761  1.9127
  981MOL0     H35310   9.034   7.765   0.457 -1.0180 -0.6121 -0.6714
  981MOL0     H35311   9.018   7.946   0.299  1.1838  2.5271 -1.4330
  981MOL0     H35312   9.148   7.954   0.415  0.4743  0.4619 -0.0508
  981MOL0     H35313   9.122   8.214   0.402 -1.8992  2.6264 -0.0234
  981MOL0     H35314   9.164   8.143   0.244 -1.0814  2.1637 -0.6678
  981MOL0     H35315   8.877   8.230   0.353  0.1886  3.7521  0.7248
  981MOL0     H35316   8.980   8.326   0.250  0.1826 -0.2665 -0.1880
  981MOL0     H35317   8.991   8.137   0.082 -0.7660 -2.2114 -0.6309
  981MOL0     H35318   8.869   8.060   0.177  1.4208 -0.3677 -0.2573
  981MOL0     H35319   8.824   8.341   0.067 -0.0665  0.0635  1.5774
  981MOL0     H35320   8.700   8.262   0.161 -1.1274  1.8995 -0.5596
  981MOL0     H35321   8.792   8.162  -0.108 -1.3575 -2.1929 -0.7540
  981MOL0     H35322   8.681   8.079  -0.012 -1.3721 -0.3528 -1.0463
  981MOL0     H35323   8.662   8.377  -0.080 -2.5750  2.2778  0.3631
  981MOL0     H35324   8.534   8.276  -0.016  1.1934 -2.2601  0.9393
  981MOL0     H35325   8.521   8.341  -0.269  1.0177  0.4119  0.3497
  981MOL0     H35326   8.647   8.215  -0.290  1.0106  2.2864  0.1849
  981MOL0     H35327   8.283   8.273  -0.298  2.7136  1.6147 -0.4054
  981MOL0     H35328   8.127   7.959  -0.382 -2.1904 -0.3677 -0.3422
  981MOL0     H35329   8.080   8.124  -0.334 -0.2471  0.3313  3.4592
  981MOL0     H35330   8.064   7.874  -0.165 -1.2102 -1.3283 -2.9024
  981MOL0     H35331   8.054   8.048  -0.096 -1.0625  0.5836 -0.1711
  981MOL0     H35332   7.888   8.104  -0.210 -0.3535  0.5064  4.1377
  981MOL0     H35333   7.879   7.961  -0.321 -1.6036 -0.6643 -0.3786
  981MOL0     H35334   7.788   7.823  -0.156  0.4498  0.3941 -0.1031
  981MOL0     H35335   7.849   7.916  -0.024  0.9211 -1.6202 -0.0866
  981MOL0     H35336   7.654   7.797   0.075 -2.0763 -2.7259  1.1242
  981MOL0     H35337   7.405   7.633   0.188  0.4413 -0.3047  0.0167
  981MOL0     H35338   7.440   7.750   0.326  0.9612 -1.5678  0.4807
  981MOL0     H35339   7.566   7.676   0.219  0.7705  0.3019  1.0557
  981MOL0     H35340   7.065   7.847   0.419  0.4110 -0.5599 -0.1153
  981MOL0     H35341   6.893   7.874   0.547 -1.7402  0.9919  1.3454
  981MOL0     H35342   6.654   7.988   0.669 -2.6055  1.7747  0.0701
  981MOL0     H35343   6.830   8.030   0.693 -1.0983 -0.5424  3.0962
  981MOL0     H35344   6.596   8.221   0.719 -0.3803  0.9392  1.2841
  981MOL0     H35345   6.690   8.153   0.855  1.4965 -1.0535 -0.5545
  981MOL0     H35346   6.789   8.334   0.623 -0.5861 -2.4016 -0.7617
  981MOL0     H35347   6.897   8.252   0.750 -0.2311 -3.6037 -0.7922
  981MOL0     H35348   6.774   8.381   0.923 -1.7182  2.1007  1.0848
  981MOL0     H35349   6.670   8.452   0.808 -0.5017 -0.5216  1.5108
  981MOL0     H35350   6.888   8.567   0.914  0.8145 -1.5560  1.5847
  981MOL0     H35351   6.985   8.482   0.789  1.6325  3.4347 -0.4753
  981MOL0     H35352   6.786   8.691   0.731  0.5724 -0.8245  1.0478
  981MOL0     H35353   6.869   8.592   0.602 -4.0619 -0.0069 -1.2583
  981MOL0     H35354   7.089   8.660   0.694 -0.3739 -4.0667  3.7267
  981MOL0     H35355   7.013   8.725   0.836 -1.9593 -0.9528  0.8605
  981MOL0     H35356   6.894   8.916   0.714  0.1210  1.3818 -3.2260
  981MOL0     H35357   6.955   8.852   0.567 -0.9637  0.5091  0.0402
  981MOL0     H35358   6.740   8.182   0.265  0.0417 -0.0590 -0.4093
  981MOL0     H35359   6.924   8.119   0.130  3.2139  0.5718  1.2912
  981MOL0     H35360   7.253   8.069  -0.010 -0.2038  0.3376  1.3555
  981MOL0     H35361   7.456   8.131  -0.105 -1.1241 -0.7075 -0.8743
  981MOL0     H35362   8.749   8.041   0.567  1.3123  0.1454 -2.1781
  981MOL0     H35363   8.595   7.850   0.667 -1.8237 -0.3721 -1.2484
  981MOL0     H35364   8.308   7.489   0.730  0.7168  0.0115 -0.1865
  981MOL0     H35365   8.226   7.272   0.794  0.5665  1.3052  1.0216
  981MOL0     H35366   8.216   7.090   0.971  1.4942  0.4762  0.1478
  981MOL0     H35367   8.182   7.021   0.810 -0.7665  0.8890  1.0306
  981MOL0     H35368   8.269   6.811   0.868 -0.3491  1.6351 -0.7580
  981MOL0     H35369   8.152   6.871   0.995  0.3914 -0.7272  1.9030
  981MOL0     H35370   8.369   6.747   1.087  0.4090 -0.0520  1.1074
  981MOL0     H35371   8.451   6.898   1.031 -1.3203  1.7993  0.4490
  981MOL0     H35372   8.228   6.887   1.234 -0.9394 -1.4522 -1.0344
  981MOL0     H35373   8.329   7.032   1.203 -1.8188 -0.7895 -0.9679
  981MOL0     H35374   8.549   6.756   1.456 -3.0141  0.6284  3.6214
  981MOL0     H35375   8.633   7.122   0.813 -0.2202  1.6152  4.6963
  981MOL0     H35376   8.788   7.363   0.654 -0.1961  0.3257 -0.7278
  981MOL0     H35377   8.803   7.423   0.811  0.4396  0.2051 -1.9558
  981MOL0     H35378   8.809   7.251   0.795  0.0508 -0.0171 -0.4031
  982MOL0     O35379   2.342   3.647   9.475 -0.6617  0.5549 -0.0928
  982MOL0     C35380   2.430   3.722   9.518  0.4146  0.4632 -0.0193
  982MOL0     O35381   2.553   3.686   9.553  0.2561 -0.6766  1.0107
  982MOL0     C35382   2.616   3.578   9.511 -0.0472  0.4220  0.2528
  982MOL0     C35383   2.587   3.445   9.545 -0.3078 -0.9161 -0.2832
  982MOL0     C35384   2.658   3.338   9.487 -0.6199  0.2734  0.6947
  982MOL0     C35385   2.763   3.364   9.396  0.8322 -0.1248 -0.3289
  982MOL0     O35386   2.841   3.278   9.336 -0.4428  0.4057  0.1895
  982MOL0     C35387   2.811   3.137   9.357 -0.1633  0.2837  0.3693
  982MOL0     C35388   2.893   3.050   9.262 -0.3184 -0.6489  0.0106
  982MOL0     C35389   2.834   2.906   9.264 -0.6300  0.4280  0.0650
  982MOL0     C35390   2.915   2.803   9.180 -0.2187 -0.8061  0.8189
  982MOL0     C35391   3.035   2.747   9.254  0.6685  0.5851 -0.9358
  982MOL0     C35392   3.086   2.628   9.183  0.6315  0.6168  1.0784
  982MOL0     C35393   3.223   2.590   9.240  0.3684 -0.4742 -0.0259
  982MOL0     C35394   3.257   2.433   9.204  0.7929 -0.2965  0.0242
  982MOL0     N35395   3.361   2.399   9.109  0.5646 -0.7150 -0.1561
  982MOL0     C35396   3.364   2.401   8.975 -0.7502  0.0661  0.3083
  982MOL0     C35397   3.492   2.366   8.941  0.2833 -0.4907  0.6031
  982MOL0     C35398   3.539   2.338   8.807  0.2466 -0.4272 -0.2466
  982MOL0     C35399   3.638   2.448   8.757 -0.3020  0.1405 -0.1027
  982MOL0     C35400   3.790   2.436   8.796 -0.1525  0.3134 -0.0544
  982MOL0     C35401   3.856   2.320   8.719  0.3106 -0.0778  0.2609
  982MOL0     O35402   3.994   2.307   8.755 -0.3085 -0.2183  0.0395
  982MOL0     C35403   4.092   2.392   8.699 -0.0590  0.5583 -0.0712
  982MOL0     C35404   4.087   2.459   8.577  0.0981 -0.2946  0.5706
  982MOL0     C35405   4.190   2.544   8.550  0.3220  0.0980  0.3892
  982MOL0     C35406   4.186   2.610   8.413  0.5747 -0.3980 -0.5876
  982MOL0     C35407   4.295   2.562   8.641 -0.4524  0.0346  0.3353
  982MOL0     C35408   4.424   2.642   8.620  0.8868 -0.7946  0.3407
  982MOL0     O35409   4.507   2.662   8.727  0.3768 -0.2806  0.4793
  982MOL0     C35410   4.611   2.755   8.706 -0.7168  0.7105  0.0995
  982MOL0     C35411   4.746   2.715   8.716 -0.8031 -0.7495  0.3401
  982MOL0     C35412   4.846   2.803   8.688 -0.7805  0.0881 -0.7582
  982MOL0     C35413   4.813   2.918   8.612 -0.2723  0.0061 -0.0421
  982MOL0     O35414   4.895   3.014   8.556 -0.4496  0.0915  0.6509
  982MOL0     C35415   5.038   2.989   8.539 -1.2765  0.2036 -0.7031
  982MOL0     C35416   5.096   3.086   8.439 -0.0489 -0.2657  0.3804
  982MOL0     C35417   5.242   3.090   8.415  0.3792 -0.0836 -0.7013
  982MOL0     C35418   5.283   3.214   8.324  0.0296 -0.3312  0.1001
  982MOL0     C35419   5.241   3.210   8.174  0.1378 -0.1690  0.2880
  982MOL0     C35420   5.278   3.079   8.098 -0.3852  0.3215 -0.7955
  982MOL0     C35421   5.240   3.085   7.951 -0.2085  0.2525 -0.0235
  982MOL0     C35422   5.317   2.975   7.864  0.6110 -0.2551  0.1647
  982MOL0    Cl35423   5.255   2.812   7.903  0.0819  0.2843 -0.2140
  982MOL0     C35424   4.680   2.957   8.602 -1.4813 -0.3307 -0.8145
  982MOL0     C35425   4.579   2.885   8.660 -0.3290  0.4194 -0.2236
  982MOL0     O35426   4.447   2.692   8.510 -0.1172  0.7054  0.1264
  982MOL0     C35427   4.304   2.487   8.761 -0.2389  0.7819 -0.9534
  982MOL0     C35428   4.199   2.397   8.785 -0.1922  0.2285  0.6078
  982MOL0     N35429   3.564   2.348   9.057 -0.0964 -0.0248  0.4427
  982MOL0     N35430   3.484   2.362   9.157 -0.5063 -0.1689 -0.1848
  982MOL0     C35431   2.785   3.498   9.362 -0.0388  0.2721  0.6609
  982MOL0     C35432   2.719   3.603   9.425  0.3957 -0.8445  0.6804
  982MOL0     C35433   2.390   3.867   9.526 -0.5157  0.1605 -0.5499
  982MOL0     C35434   2.286   3.906   9.439  0.2836  0.1839 -0.3240
  982MOL0     C35435   2.241   4.032   9.428  0.0374  0.3038  0.1459
  982MOL0     C35436   2.301   4.134   9.506 -0.9442 -0.3330 -0.0361
  982MOL0     O35437   2.280   4.265   9.499  0.4326 -0.9074  0.3780
  982MOL0     C35438   2.144   4.309   9.458 -0.6002 -0.3312 -0.7520
  982MOL0     C35439   2.130   4.467   9.472 -0.3557  0.5336 -0.0027
  982MOL0     C35440   1.986   4.514   9.496 -0.0693  0.9083  0.1297
  982MOL0     C35441   1.951   4.638   9.413  0.3432 -0.0387 -0.4410
  982MOL0     C35442   2.012   4.760   9.469 -0.1780 -0.3979  0.5363
  982MOL0     C35443   2.072   4.857   9.519 -0.2198 -0.6688 -0.2044
  982MOL0     C35444   2.395   4.099   9.595  0.6839 -0.1180  0.7250
  982MOL0     C35445   2.448   3.968   9.603 -0.0498 -0.0599  0.3730
  982MOL0     C35446   2.571   3.951   9.682  0.4692 -0.2542 -0.2054
  982MOL0     H35447   2.519   3.427   9.628  1.9696  3.3833  2.9451
  982MOL0     H35448   2.637   3.238   9.523 -0.7832 -0.3496 -1.0249
  982MOL0     H35449   2.705   3.129   9.331 -0.2022 -2.7436  1.0719
  982MOL0     H35450   2.827   3.107   9.461  0.1485 -2.0100 -0.2961
  982MOL0     H35451   2.875   3.089   9.162 -0.1100  0.5861  0.4455
  982MOL0     H35452   2.998   3.057   9.292 -0.6340  2.7138  0.6467
  982MOL0     H35453   2.822   2.870   9.367  0.1478  0.4730  0.1714
  982MOL0     H35454   2.736   2.921   9.218 -0.0508  3.0392 -0.4803
  982MOL0     H35455   2.847   2.724   9.146 -0.0587 -0.5924 -0.0205
  982MOL0     H35456   2.950   2.852   9.089  0.4949 -0.6528  1.1698
  982MOL0     H35457   3.003   2.704   9.349 -0.3957  0.3826 -1.3635
  982MOL0     H35458   3.115   2.819   9.272  2.4452 -1.8069  1.5688
  982MOL0     H35459   3.005   2.556   9.199 -0.5816  2.1051  1.9126
  982MOL0     H35460   3.104   2.642   9.076 -0.1038 -1.4622  0.6247
  982MOL0     H35461   3.231   2.606   9.348 -0.1606 -1.7766  0.2336
  982MOL0     H35462   3.295   2.660   9.198 -2.1721  1.2208 -1.8207
  982MOL0     H35463   3.275   2.382   9.299 -1.6547  0.6996  1.1090
  982MOL0     H35464   3.163   2.396   9.163 -0.4077 -0.3577  2.6215
  982MOL0     H35465   3.280   2.427   8.912 -1.1394  2.0370  1.5483
  982MOL0     H35466   3.451   2.335   8.742 -0.3505 -1.5329  0.5863
  982MOL0     H35467   3.588   2.241   8.800 -0.6927 -0.9037 -0.4826
  982MOL0     H35468   3.641   2.452   8.648  1.5866  1.1954 -0.0350
  982MOL0     H35469   3.614   2.550   8.785 -1.0257 -0.3362  1.0867
  982MOL0     H35470   3.832   2.524   8.746 -1.3968  0.0531 -1.6264
  982MOL0     H35471   3.804   2.429   8.904 -0.7799  0.9107  0.0755
  982MOL0     H35472   3.799   2.229   8.740 -0.5274  0.4562  0.3768
  982MOL0     H35473   3.856   2.342   8.612  3.2500 -1.6176 -0.1590
  982MOL0     H35474   4.002   2.436   8.513  0.9355 -1.7548 -0.0723
  982MOL0     H35475   4.185   2.716   8.437  5.4627 -0.5102  1.3390
  982MOL0     H35476   4.099   2.577   8.355  1.1604  1.3341 -2.5716
  982MOL0     H35477   4.272   2.585   8.349  1.1475  0.5883 -0.2147
  982MOL0     H35478   4.769   2.622   8.768  1.6551 -0.1560  0.4412
  982MOL0     H35479   4.948   2.769   8.701 -1.5836 -1.5878  1.9101
  982MOL0     H35480   5.082   3.016   8.636 -0.2156 -1.0929 -0.7922
  982MOL0     H35481   5.059   2.883   8.521 -1.0155 -0.3291  2.1862
  982MOL0     H35482   5.054   3.062   8.341  1.6245 -1.3661 -0.1177
  982MOL0     H35483   5.065   3.186   8.469 -2.5646 -1.1118  0.8795
  982MOL0     H35484   5.261   2.996   8.361  0.0847 -0.1196 -0.7441
  982MOL0     H35485   5.293   3.093   8.512 -1.2858  5.0085  0.3062
  982MOL0     H35486   5.391   3.225   8.338  0.1861 -1.6418  0.0735
  982MOL0     H35487   5.240   3.306   8.364 -1.9572 -0.7511 -0.9513
  982MOL0     H35488   5.133   3.229   8.171  0.1598 -0.1479 -1.7979
  982MOL0     H35489   5.284   3.296   8.122  0.4883 -0.6068 -0.1591
  982MOL0     H35490   5.231   2.990   8.142  1.2474  1.1477  3.0022
  982MOL0     H35491   5.386   3.076   8.112 -0.5445  0.5347  0.6322
  982MOL0     H35492   5.271   3.180   7.907 -1.7268 -0.4234 -2.8293
  982MOL0     H35493   5.133   3.063   7.946  0.5517 -4.4861 -0.1063
  982MOL0     H35494   5.426   2.977   7.864  0.6162  1.5660 -1.1652
  982MOL0     H35495   5.296   3.002   7.760 -0.8661 -1.5802  0.0704
  982MOL0     H35496   4.668   3.054   8.554  0.8551 -0.6406 -2.1757
  982MOL0     H35497   4.478   2.921   8.643 -1.4243 -1.5874  1.4729
  982MOL0     H35498   4.382   2.490   8.836 -1.2414  0.1883  0.1443
  982MOL0     H35499   4.193   2.349   8.882  0.5878  0.1080  0.6039
  982MOL0     H35500   2.861   3.515   9.285  0.4863  0.8604  1.2897
  982MOL0     H35501   2.731   3.707   9.397 -0.4821 -0.4838  1.5769
  982MOL0     H35502   2.227   3.833   9.385 -0.3263 -1.0225  1.8599
  982MOL0     H35503   2.161   4.051   9.358  0.0843  0.3170  0.0956
  982MOL0     H35504   2.110   4.277   9.359 -0.3380  0.6852 -1.1814
  982MOL0     H35505   2.066   4.273   9.526 -0.8766  0.0078 -0.8898
  982MOL0     H35506   2.161   4.512   9.377 -1.2869  0.6102 -0.2772
  982MOL0     H35507   2.188   4.503   9.558 -0.2624  0.6995 -0.1356
  982MOL0     H35508   1.928   4.423   9.481 -0.5198  1.0076  1.1953
  982MOL0     H35509   1.979   4.551   9.599 -0.4501  3.5304 -0.7407
  982MOL0     H35510   1.842   4.644   9.416  0.4137  1.2860  0.5750
  982MOL0     H35511   1.986   4.625   9.311 -0.3282 -0.9307 -0.5661
  982MOL0     H35512   2.131   4.934   9.564  1.6251 -2.1060 -0.0619
  982MOL0     H35513   2.421   4.171   9.672 -0.2533  0.3211  0.6558
  982MOL0     H35514   2.552   3.862   9.744  0.6105 -2.1973 -2.8175
  982MOL0     H35515   2.640   3.943   9.599  1.4192  2.5794  0.1944
  982MOL0     H35516   2.599   4.042   9.737  2.0475 -1.2898  0.7931
  983MOL0     O35517   0.406   8.011   3.955 -0.5850  0.0223 -0.1244
  983MOL0     C35518   0.312   8.092   3.935  0.4658  0.6233 -0.6233
  983MOL0     O35519   0.320   8.220   3.962  0.0573 -0.3617  0.0321
  983MOL0     C35520   0.435   8.284   4.002 -0.4492 -0.6993 -0.6206
  983MOL0     C35521   0.533   8.239   4.091 -0.6348  0.4931  0.0347
  983MOL0     C35522   0.632   8.322   4.137 -0.1955  0.1933 -1.1480
  983MOL0     C35523   0.645   8.456   4.087  0.0587 -0.1037  0.1901
  983MOL0     O35524   0.748   8.534   4.131  0.3267  0.6071 -0.0095
  983MOL0     C35525   0.762   8.661   4.076  0.5271  0.5658  0.9507
  983MOL0     C35526   0.888   8.709   4.144  1.1417  0.2781  0.6065
  983MOL0     C35527   0.889   8.868   4.127 -0.9857  0.1414  0.0469
  983MOL0     C35528   1.006   8.921   4.196 -0.0113  0.4063 -0.4742
  983MOL0     C35529   1.004   9.071   4.213 -0.6544  0.1569  0.0633
  983MOL0     C35530   1.133   9.113   4.293 -0.2631 -0.1326  0.0653
  983MOL0     C35531   1.101   9.109   4.442  0.1131 -1.0717  0.6201
  983MOL0     C35532   1.037   9.237   4.497 -0.7208  0.6549  0.2397
  983MOL0     N35533   1.125   9.349   4.531 -0.3489  0.3940 -0.0392
  983MOL0     C35534   1.132   9.404   4.657 -0.5564 -0.1303  0.1269
  983MOL0     C35535   1.267   9.441   4.673  0.0049 -0.1201 -0.2275
  983MOL0     C35536   1.327   9.490   4.797 -0.8445  0.1019 -0.2467
  983MOL0     C35537   1.394   9.633   4.768 -0.1296 -0.0702  0.1610
  983MOL0     C35538   1.457   9.675   4.900  0.2967 -0.2625  0.4264
  983MOL0     C35539   1.600   9.633   4.929  1.3560  0.2857  0.2326
  983MOL0     O35540   1.644   9.693   5.053 -0.0190  0.4812 -0.0716
  983MOL0     C35541   1.733   9.620   5.125 -0.1882  0.1648 -0.4755
  983MOL0     C35542   1.830   9.529   5.072  0.2260  0.5654 -0.3658
  983MOL0     C35543   1.928   9.461   5.152  0.4659 -0.2148  0.4469
  983MOL0     C35544   2.010   9.352   5.092 -0.2886  0.2163  0.3809
  983MOL0     C35545   1.942   9.504   5.287 -0.0136  0.3461 -0.1220
  983MOL0     C35546   2.054   9.445   5.378  0.3890  0.1809  0.5639
  983MOL0     O35547   2.089   9.319   5.366 -0.1441  0.4957  0.1572
  983MOL0     C35548   2.202   9.279   5.436 -0.9309 -0.1542 -0.0478
  983MOL0     C35549   2.231   9.286   5.576  0.8414 -0.0593 -0.6912
  983MOL0     C35550   2.341   9.240   5.622 -0.6901 -0.7365  0.4336
  983MOL0     C35551   2.440   9.188   5.541  0.7013 -0.8093 -0.5215
  983MOL0     O35552   2.552   9.130   5.576 -0.1144 -0.1218  0.4311
  983MOL0     C35553   2.624   9.175   5.698  0.4956 -0.8434  1.1075
  983MOL0     C35554   2.738   9.274   5.671  0.1106  0.4266  0.6055
  983MOL0     C35555   2.838   9.214   5.565 -0.0102 -0.8417 -0.3485
  983MOL0     C35556   2.968   9.301   5.552 -0.3594 -0.1813 -0.9243
  983MOL0     C35557   3.081   9.221   5.481  1.4446 -0.6243 -0.3971
  983MOL0     C35558   3.203   9.304   5.461  0.6068  0.3165 -0.8241
  983MOL0     C35559   3.303   9.256   5.574  0.6612  0.2498 -0.3264
  983MOL0     C35560   3.447   9.312   5.565  0.2701 -0.4511 -0.6666
  983MOL0    Cl35561   3.538   9.259   5.710 -0.1127 -0.0691 -0.1847
  983MOL0     C35562   2.426   9.179   5.407 -0.3777  0.2261  0.9255
  983MOL0     C35563   2.305   9.228   5.354  0.3705  0.0696 -0.2739
  983MOL0     O35564   2.097   9.528   5.449 -0.8611 -0.3995 -0.2755
  983MOL0     C35565   1.852   9.607   5.335  0.7348  0.8940 -0.2784
  983MOL0     C35566   1.747   9.657   5.258 -0.2678  0.8348  0.0955
  983MOL0     N35567   1.337   9.409   4.558 -0.3004  0.5825  0.9444
  983MOL0     N35568   1.252   9.366   4.473  0.0201  0.1123  0.6759
  983MOL0     C35569   0.558   8.497   3.977 -0.7632  0.1038  0.6666
  983MOL0     C35570   0.460   8.407   3.938 -0.6345 -0.1770 -0.4289
  983MOL0     C35571   0.173   8.051   3.894  0.1074 -0.6818 -0.3172
  983MOL0     C35572   0.074   8.155   3.881  0.5765 -0.0390 -0.1233
  983MOL0     C35573  -0.061   8.111   3.847  0.2573 -0.3183  0.3238
  983MOL0     C35574  -0.101   7.977   3.824 -0.9677 -0.1796 -0.5789
  983MOL0     O35575  -0.223   7.939   3.788  0.7899 -0.1396 -0.3016
  983MOL0     C35576  -0.236   7.840   3.682 -0.8425 -0.2601 -1.0580
  983MOL0     C35577  -0.180   7.888   3.552  0.3235 -0.0198 -0.0961
  983MOL0     C35578  -0.215   7.786   3.436  0.7704  0.0147  0.3860
  983MOL0     C35579  -0.079   7.704   3.401  0.2399  0.5121 -0.3003
  983MOL0     C35580  -0.023   7.635   3.515  0.5314  0.5439 -0.3658
  983MOL0     C35581   0.003   7.566   3.614  0.2562 -0.3980  0.3080
  983MOL0     C35582  -0.001   7.878   3.846  0.6314 -0.1146  0.4252
  983MOL0     C35583   0.133   7.916   3.873 -0.6789 -0.2921  0.3559
  983MOL0     C35584   0.230   7.793   3.883 -0.3847  0.5325 -0.4065
  983MOL0     H35585   0.524   8.139   4.132 -1.2691  1.3746  2.2134
  983MOL0     H35586   0.704   8.285   4.209  2.2054  0.6567 -3.1673
  983MOL0     H35587   0.672   8.723   4.084  1.1237  1.3560  1.8670
  983MOL0     H35588   0.781   8.647   3.969  1.1119  0.3729  1.0807
  983MOL0     H35589   0.880   8.687   4.250 -1.3261 -2.5322 -0.0334
  983MOL0     H35590   0.978   8.664   4.101  0.4153  1.1011 -1.9984
  983MOL0     H35591   0.883   8.891   4.020  0.8103  0.8921  0.0743
  983MOL0     H35592   0.804   8.915   4.177 -1.8274 -2.7237  1.4915
  983MOL0     H35593   1.016   8.876   4.296  1.4767  1.6464 -0.0324
  983MOL0     H35594   1.101   8.885   4.155  0.2037 -0.2435  0.5268
  983MOL0     H35595   0.914   9.095   4.269 -0.3586  1.6848 -0.0851
  983MOL0     H35596   1.014   9.117   4.114 -1.8736 -0.1851 -0.2307
  983MOL0     H35597   1.207   9.037   4.268 -2.3231 -1.2463 -3.3166
  983MOL0     H35598   1.177   9.207   4.260  0.8304 -0.2245  1.1723
  983MOL0     H35599   1.199   9.103   4.492  0.8499  1.7928 -0.2876
  983MOL0     H35600   1.037   9.024   4.466  0.8832 -1.1367  2.7053
  983MOL0     H35601   0.957   9.272   4.430 -1.7840 -1.8452  0.0709
  983MOL0     H35602   0.974   9.194   4.576 -2.6226 -1.6514 -2.2995
  983MOL0     H35603   1.051   9.410   4.728  0.5959  2.3763  1.3407
  983MOL0     H35604   1.397   9.408   4.814  2.5364  1.9745 -3.6083
  983MOL0     H35605   1.256   9.490   4.881 -0.2972  4.3421  0.4855
  983MOL0     H35606   1.470   9.631   4.689 -1.1947  0.5708 -0.8972
  983MOL0     H35607   1.314   9.700   4.737  0.1591 -0.2550 -1.0449
  983MOL0     H35608   1.468   9.784   4.913  0.5795 -0.3852  1.2950
  983MOL0     H35609   1.383   9.652   4.977 -0.7152  0.7073 -0.2289
  983MOL0     H35610   1.594   9.524   4.931 -1.2489  0.3717  0.5510
  983MOL0     H35611   1.670   9.657   4.848  1.8069 -2.3707 -0.2552
  983MOL0     H35612   1.828   9.511   4.965  1.0050  1.2457 -0.5056
  983MOL0     H35613   1.996   9.365   4.984  0.1973 -0.9748  0.1631
  983MOL0     H35614   1.980   9.255   5.131 -1.8053  1.0998  1.5201
  983MOL0     H35615   2.118   9.364   5.097 -0.1118 -0.4853 -1.0725
  983MOL0     H35616   2.152   9.326   5.638 -0.1058 -0.3985 -1.6582
  983MOL0     H35617   2.359   9.240   5.729 -0.4617 -1.3340  0.4013
  983MOL0     H35618   2.559   9.237   5.760  0.6904  1.2975 -0.7132
  983MOL0     H35619   2.665   9.093   5.758 -3.2039 -2.7107  1.4091
  983MOL0     H35620   2.700   9.367   5.629  1.6833 -0.8454 -4.2499
  983MOL0     H35621   2.791   9.305   5.761  3.7687  1.7657 -1.7769
  983MOL0     H35622   2.793   9.199   5.467 -0.5543 -0.0113 -0.2317
  983MOL0     H35623   2.868   9.122   5.614  1.7109 -0.3752 -0.4526
  983MOL0     H35624   3.011   9.333   5.647  1.1359  0.8907 -1.9255
  983MOL0     H35625   2.947   9.396   5.503  2.2882  0.7861 -0.3813
  983MOL0     H35626   3.109   9.131   5.536  0.7441  0.1465  1.2723
  983MOL0     H35627   3.051   9.192   5.380 -0.5343 -0.4825  0.1046
  983MOL0     H35628   3.190   9.412   5.470 -0.6261  0.0200  4.3863
  983MOL0     H35629   3.253   9.286   5.366 -1.2296 -0.4312 -1.7025
  983MOL0     H35630   3.308   9.147   5.578 -2.8845 -0.0086  2.4558
  983MOL0     H35631   3.256   9.298   5.664  0.1201  1.7435 -1.2574
  983MOL0     H35632   3.449   9.421   5.556  2.5529 -0.4261 -0.6634
  983MOL0     H35633   3.499   9.289   5.472  3.2729  3.8432 -0.3233
  983MOL0     H35634   2.495   9.134   5.337 -1.6207  0.9217 -0.8201
  983MOL0     H35635   2.295   9.200   5.250  1.3231 -3.4505  0.4285
  983MOL0     H35636   1.862   9.629   5.441  1.5113 -1.2208  0.1219
  983MOL0     H35637   1.678   9.731   5.297  0.4899  0.5029  2.2080
  983MOL0     H35638   0.560   8.593   3.927  0.3324 -0.4535 -0.4155
  983MOL0     H35639   0.393   8.440   3.858 -2.2900 -0.3906  0.8072
  983MOL0     H35640   0.097   8.261   3.885 -0.0329  0.1144 -0.5514
  983MOL0     H35641  -0.142   8.181   3.834  0.1933 -0.4837 -0.1715
  983MOL0     H35642  -0.200   7.740   3.708 -0.1858 -0.3132 -2.1073
  983MOL0     H35643  -0.343   7.817   3.678 -0.7661 -1.5337  1.7356
  983MOL0     H35644  -0.073   7.906   3.571  0.5379 -1.8409  0.5999
  983MOL0     H35645  -0.216   7.990   3.532  0.5273 -0.1444 -1.1273
  983MOL0     H35646  -0.293   7.719   3.472 -2.1348  2.8236 -0.2079
  983MOL0     H35647  -0.252   7.822   3.340 -0.0634  0.3043  0.8074
  983MOL0     H35648  -0.006   7.769   3.352 -0.4730  0.3019 -1.6958
  983MOL0     H35649  -0.111   7.634   3.324 -0.0678  1.7674 -1.3362
  983MOL0     H35650   0.051   7.513   3.693  0.3863  0.5738  0.9020
  983MOL0     H35651  -0.016   7.771   3.847  1.4665 -0.2404  1.4033
  983MOL0     H35652   0.190   7.692   3.868 -0.8212  0.1182  2.7754
  983MOL0     H35653   0.313   7.813   3.815 -0.7331 -1.1433 -1.3871
  983MOL0     H35654   0.268   7.791   3.985 -0.3659  2.1786 -0.3489
  984MOL0     O35655   8.365   4.200   2.516 -0.0796  0.4663  0.0128
  984MOL0     C35656   8.308   4.132   2.596  0.3278 -0.7073  0.3583
  984MOL0     O35657   8.360   4.063   2.701  1.1167  0.9862 -0.3589
  984MOL0     C35658   8.491   4.088   2.750  0.3603  0.2608  0.3781
  984MOL0     C35659   8.525   4.210   2.790 -0.2424 -0.3732  0.2736
  984MOL0     C35660   8.639   4.237   2.871 -1.1539 -0.5271 -0.2068
  984MOL0     C35661   8.708   4.124   2.921 -0.3488  0.4408  0.4121
  984MOL0     O35662   8.814   4.133   3.012 -0.0146 -0.0628  0.1095
  984MOL0     C35663   8.905   4.245   3.002 -0.0856 -0.2969  0.2675
  984MOL0     C35664   9.043   4.206   3.062 -0.5573  0.0641 -0.0553
  984MOL0     C35665   9.154   4.255   2.970  0.0511  0.2089 -0.8311
  984MOL0     C35666   9.283   4.239   3.054  0.0247  0.1570 -0.3968
  984MOL0     C35667   9.342   4.368   3.104  0.4595  0.3282 -0.3094
  984MOL0     C35668   9.481   4.353   3.172  0.7435  0.0383  0.5917
  984MOL0     C35669   9.521   4.469   3.259 -0.8000  0.6878  0.6355
  984MOL0     C35670   9.509   4.604   3.197 -0.1328 -0.4006 -0.4841
  984MOL0     N35671   9.598   4.694   3.267 -0.3464  0.7117 -0.0099
  984MOL0     C35672   9.708   4.746   3.206 -0.2223 -0.6303  0.7315
  984MOL0     C35673   9.764   4.813   3.305  0.1888  0.0021  0.3901
  984MOL0     C35674   9.903   4.872   3.309 -0.0628  0.0003  0.6393
  984MOL0     C35675  10.006   4.769   3.291 -0.0129  0.2780  0.8180
  984MOL0     C35676  10.004   4.659   3.406  0.2472 -0.2059  0.3211
  984MOL0     C35677  10.115   4.554   3.371  0.0297 -0.4200 -0.6178
  984MOL0     O35678  10.241   4.612   3.344  0.1760 -0.3794  0.1850
  984MOL0     C35679  10.345   4.521   3.346  0.4423  0.5967 -0.0396
  984MOL0     C35680  10.344   4.395   3.286  0.0375  0.0563 -0.8693
  984MOL0     C35681  10.456   4.313   3.293 -0.2064 -0.5155 -0.5760
  984MOL0     C35682  10.450   4.182   3.226 -0.8015 -0.5819 -0.9301
  984MOL0     C35683  10.564   4.356   3.367 -0.8856 -0.2696  0.1389
  984MOL0     C35684  10.679   4.264   3.406 -0.7245 -0.1242 -0.1772
  984MOL0     O35685  10.654   4.142   3.444 -0.1650  0.5238 -0.6655
  984MOL0     C35686  10.758   4.059   3.486  0.1648  0.2914  0.3005
  984MOL0     C35687  10.820   3.971   3.393  0.2188  0.2422  0.1606
  984MOL0     C35688  10.906   3.872   3.425 -0.8352 -0.1016 -0.5650
  984MOL0     C35689  10.954   3.868   3.553  0.7903  1.2420 -0.2942
  984MOL0     O35690  11.041   3.765   3.585  0.5122  0.2017  0.0704
  984MOL0     C35691  11.159   3.802   3.652 -0.0320  1.0794  0.2283
  984MOL0     C35692  11.203   3.671   3.734 -0.0985 -0.1760 -0.3993
  984MOL0     C35693  11.340   3.695   3.799  0.2384  0.2579 -0.8002
  984MOL0     C35694  11.452   3.705   3.699  0.4984  0.3596 -0.0693
  984MOL0     C35695  11.575   3.724   3.781 -0.1016  0.1362  0.1555
  984MOL0     C35696  11.690   3.724   3.681  0.5816  0.1347 -0.0110
  984MOL0     C35697  11.829   3.765   3.745  0.6781 -0.4099 -0.4443
  984MOL0     C35698  11.945   3.776   3.640  0.6002  0.0733  0.3551
  984MOL0    Cl35699  11.975   3.612   3.568  0.1217  0.0407  0.1648
  984MOL0     C35700  10.897   3.947   3.649  0.2873  0.1525 -0.2406
  984MOL0     C35701  10.797   4.041   3.617  0.0874  0.2702 -0.2477
  984MOL0     O35702  10.791   4.324   3.418 -0.1052 -0.0203  0.1471
  984MOL0     C35703  10.568   4.477   3.422  0.3024 -0.2941 -0.9262
  984MOL0     C35704  10.456   4.556   3.412  0.2453 -0.8824  0.4462
  984MOL0     N35705   9.697   4.798   3.424 -0.2273  0.9394 -0.5594
  984MOL0     N35706   9.593   4.727   3.399  0.4330 -0.0349 -0.3671
  984MOL0     C35707   8.680   3.997   2.867 -0.3155  0.7551  0.0848
  984MOL0     C35708   8.573   3.980   2.784 -0.2991  0.1852 -0.2884
  984MOL0     C35709   8.160   4.135   2.589 -0.6993  0.9926 -0.0790
  984MOL0     C35710   8.086   4.136   2.707 -1.0729  0.3869  0.2501
  984MOL0     C35711   7.956   4.152   2.709  0.7314 -0.1090  0.0625
  984MOL0     C35712   7.882   4.161   2.589  0.4270  0.9306 -0.0597
  984MOL0     O35713   7.744   4.162   2.580  0.2888 -0.0657  0.6175
  984MOL0     C35714   7.668   4.154   2.705 -0.4230 -0.6949 -0.1067
  984MOL0     C35715   7.525   4.118   2.673  0.5709 -0.8496  0.6734
  984MOL0     C35716   7.439   4.239   2.645  0.2833 -0.4595  0.0166
  984MOL0     C35717   7.370   4.299   2.769  0.0598 -0.1145 -0.5180
  984MOL0     C35718   7.282   4.221   2.851  0.6276 -0.2236 -0.1322
  984MOL0     C35719   7.193   4.168   2.915 -0.2836 -0.6503  0.1188
  984MOL0     C35720   7.951   4.154   2.468 -0.5244  0.3815 -0.1802
  984MOL0     C35721   8.087   4.144   2.467 -0.5686 -0.6202  0.5028
  984MOL0     C35722   8.142   4.134   2.327 -0.6428 -0.3438 -0.6678
  984MOL0     H35723   8.456   4.293   2.781 -1.3974 -1.3090  0.3385
  984MOL0     H35724   8.652   4.336   2.913  0.5736 -1.6344  2.1166
  984MOL0     H35725   8.872   4.331   3.061  2.4296  2.0466 -1.5034
  984MOL0     H35726   8.910   4.287   2.901  0.7695  0.3669  0.5684
  984MOL0     H35727   9.062   4.253   3.160 -0.4610 -3.9277  2.0445
  984MOL0     H35728   9.058   4.099   3.075  3.1972  0.1652 -2.1471
  984MOL0     H35729   9.152   4.186   2.885 -0.6992 -1.6389  0.5981
  984MOL0     H35730   9.145   4.359   2.939  4.6014  0.8867 -0.6065
  984MOL0     H35731   9.263   4.177   3.141 -2.1773 -0.3358 -1.1863
  984MOL0     H35732   9.355   4.193   2.985 -1.2930  0.0165 -1.7350
  984MOL0     H35733   9.265   4.413   3.168 -0.7581 -1.2305 -0.6209
  984MOL0     H35734   9.347   4.438   3.020  1.3996 -1.2930 -1.6538
  984MOL0     H35735   9.478   4.273   3.247  1.0285  1.6788  2.4438
  984MOL0     H35736   9.558   4.331   3.098  1.1660 -1.2628  1.3777
  984MOL0     H35737   9.625   4.459   3.290 -0.0769  0.0530 -1.7360
  984MOL0     H35738   9.470   4.461   3.355 -0.2892 -1.3512  0.7787
  984MOL0     H35739   9.544   4.607   3.093  0.8356  3.6849 -0.1849
  984MOL0     H35740   9.412   4.654   3.201  0.7296  1.5431 -2.1073
  984MOL0     H35741   9.734   4.738   3.101  1.1144  2.3178  0.7253
  984MOL0     H35742   9.911   4.940   3.394 -2.0689  2.0410 -0.6807
  984MOL0     H35743   9.907   4.948   3.230  1.1257 -0.1022  0.5903
  984MOL0     H35744   9.982   4.718   3.197  3.1452  1.4711 -0.7713
  984MOL0     H35745  10.107   4.809   3.284 -0.0160  0.0383 -1.5402
  984MOL0     H35746  10.024   4.702   3.505 -0.4243  1.3948 -0.2126
  984MOL0     H35747   9.913   4.600   3.389  0.6443 -0.6982 -0.1294
  984MOL0     H35748  10.124   4.478   3.450 -0.2935 -2.4927 -2.4852
  984MOL0     H35749  10.085   4.503   3.279 -1.2363 -1.9900  0.6149
  984MOL0     H35750  10.252   4.366   3.237 -1.4031  0.9179  1.2175
  984MOL0     H35751  10.375   4.182   3.146 -1.2150 -1.2874 -0.5505
  984MOL0     H35752  10.427   4.097   3.292 -0.0607 -1.4473 -1.7525
  984MOL0     H35753  10.544   4.163   3.173  0.5085 -0.2185  1.1398
  984MOL0     H35754  10.774   3.982   3.295 -2.0402  0.3167  1.1524
  984MOL0     H35755  10.950   3.805   3.353  0.6736 -1.9913  1.9276
  984MOL0     H35756  11.236   3.819   3.576 -1.0412 -4.4634 -2.5158
  984MOL0     H35757  11.152   3.890   3.717 -1.2757  1.1157  0.0780
  984MOL0     H35758  11.131   3.652   3.814  1.0573  0.3138  0.7917
  984MOL0     H35759  11.198   3.578   3.677 -0.3179 -0.9206  0.8163
  984MOL0     H35760  11.365   3.609   3.863 -2.1995  0.5580  0.6951
  984MOL0     H35761  11.334   3.779   3.869 -0.0832 -0.6096  0.2459
  984MOL0     H35762  11.436   3.784   3.625  0.2493 -0.4531 -0.8995
  984MOL0     H35763  11.460   3.613   3.640 -3.0707  1.4529 -2.6274
  984MOL0     H35764  11.566   3.816   3.840 -1.4551 -0.6039  1.1515
  984MOL0     H35765  11.586   3.639   3.850  1.8864  1.3139  1.4052
  984MOL0     H35766  11.658   3.798   3.607 -2.6581 -0.8890  0.2003
  984MOL0     H35767  11.702   3.626   3.635  0.4445  0.6112 -1.0835
  984MOL0     H35768  11.855   3.686   3.817 -1.1784  1.1431  2.1202
  984MOL0     H35769  11.820   3.851   3.811 -0.5263 -0.4808 -0.4989
  984MOL0     H35770  12.037   3.814   3.685 -0.1916  3.0994 -0.3624
  984MOL0     H35771  11.910   3.836   3.556 -2.8396 -2.0214  0.0726
  984MOL0     H35772  10.926   3.947   3.754 -0.2278 -1.0805 -0.0794
  984MOL0     H35773  10.759   4.121   3.680  2.0704  1.5845 -0.6456
  984MOL0     H35774  10.655   4.513   3.476 -0.5981 -0.1067  0.4697
  984MOL0     H35775  10.452   4.653   3.460  2.3671 -1.4106  1.8467
  984MOL0     H35776   8.748   3.917   2.894 -1.1253 -0.3005 -0.9366
  984MOL0     H35777   8.541   3.878   2.770 -0.9487  0.2589  0.5679
  984MOL0     H35778   8.130   4.128   2.806  0.9082 -3.0990 -0.7637
  984MOL0     H35779   7.915   4.156   2.809 -0.5877  2.7296 -0.4840
  984MOL0     H35780   7.708   4.073   2.766 -0.5212 -0.2105  0.6064
  984MOL0     H35781   7.669   4.247   2.762 -0.0738 -0.4296 -0.5341
  984MOL0     H35782   7.478   4.063   2.755 -1.9604  1.0655  0.6414
  984MOL0     H35783   7.528   4.056   2.583 -0.0201 -1.0018  0.7560
  984MOL0     H35784   7.501   4.310   2.590 -0.2987 -0.9567 -1.3396
  984MOL0     H35785   7.365   4.214   2.568  1.8619 -2.4087 -0.9635
  984MOL0     H35786   7.317   4.388   2.733  1.9701  0.5601 -1.8528
  984MOL0     H35787   7.450   4.342   2.831 -1.2466  1.6921  0.0149
  984MOL0     H35788   7.117   4.140   2.985  1.0452 -1.4622  1.2895
  984MOL0     H35789   7.885   4.159   2.382 -1.2237 -0.8553  0.2674
  984MOL0     H35790   8.232   4.075   2.342  0.7827  1.4255 -1.7704
  984MOL0     H35791   8.075   4.072   2.266 -2.4834  1.2400 -0.3843
  984MOL0     H35792   8.183   4.223   2.278  1.2392 -0.8703 -0.1179
  985MOL0     O35793   6.426   8.553   0.969 -0.0228 -0.0988  0.0091
  985MOL0     C35794   6.348   8.547   0.872 -0.4231  0.9178 -0.7961
  985MOL0     O35795   6.296   8.427   0.829  0.5554  0.4761 -0.2125
  985MOL0     C35796   6.280   8.324   0.928  0.2089 -0.0439 -0.5383
  985MOL0     C35797   6.327   8.195   0.894 -0.1836 -0.2381 -0.4744
  985MOL0     C35798   6.325   8.084   0.978 -0.4752 -0.6008 -0.1761
  985MOL0     C35799   6.269   8.106   1.107 -0.3614 -0.6417 -0.6456
  985MOL0     O35800   6.250   8.004   1.201  0.3488 -0.4180 -0.3384
  985MOL0     C35801   6.311   7.879   1.169 -0.1057  0.2374 -0.7146
  985MOL0     C35802   6.290   7.778   1.274  0.1008  0.5474  0.1334
  985MOL0     C35803   6.404   7.672   1.285  0.3599 -0.2786 -0.0202
  985MOL0     C35804   6.372   7.587   1.401  1.2139 -0.4270  0.3601
  985MOL0     C35805   6.471   7.481   1.424  0.3455 -0.5486 -1.1197
  985MOL0     C35806   6.493   7.381   1.313  0.1187 -0.0893  0.2821
  985MOL0     C35807   6.363   7.292   1.270  0.1552 -0.6252 -0.6716
  985MOL0     C35808   6.323   7.184   1.371  0.1253 -0.1624 -0.8586
  985MOL0     N35809   6.445   7.116   1.420 -0.3045  0.0685 -0.2651
  985MOL0     C35810   6.487   7.134   1.553 -0.6664 -0.0260  0.4976
  985MOL0     C35811   6.621   7.104   1.552 -0.5957  0.0255 -0.6009
  985MOL0     C35812   6.707   7.098   1.676 -0.0091  0.4618  0.4250
  985MOL0     C35813   6.846   7.155   1.658 -0.5244 -0.1966 -0.4125
  985MOL0     C35814   6.934   7.119   1.792  0.3071 -0.0889  0.8314
  985MOL0     C35815   7.076   7.173   1.781  0.5974 -0.0493  0.6869
  985MOL0     O35816   7.086   7.308   1.829 -0.0845 -0.4188 -0.1632
  985MOL0     C35817   7.193   7.390   1.807 -0.4367  0.0558  0.1241
  985MOL0     C35818   7.194   7.531   1.838  0.0683  0.7052 -0.5247
  985MOL0     C35819   7.318   7.603   1.833 -0.5710 -0.0610  0.2259
  985MOL0     C35820   7.300   7.757   1.841 -0.2171 -0.2323 -0.2658
  985MOL0     C35821   7.436   7.538   1.802  0.3322  0.9798 -1.0244
  985MOL0     C35822   7.571   7.603   1.804 -0.0657  0.4997  0.1938
  985MOL0     O35823   7.673   7.525   1.744  0.0066  0.4890  0.0649
  985MOL0     C35824   7.804   7.564   1.728  0.9202 -0.1479  0.2203
  985MOL0     C35825   7.904   7.467   1.712 -0.7589  0.5979 -0.7180
  985MOL0     C35826   8.040   7.499   1.693  0.2874  0.2406 -0.0755
  985MOL0     C35827   8.074   7.631   1.677 -0.2326 -0.3525  0.8640
  985MOL0     O35828   8.197   7.670   1.639  0.5802  0.3140 -0.3695
  985MOL0     C35829   8.312   7.577   1.649 -0.3290  0.0246  0.2758
  985MOL0     C35830   8.442   7.660   1.638 -0.6501  0.5540  0.4528
  985MOL0     C35831   8.517   7.626   1.507 -1.1532  0.5769  1.0658
  985MOL0     C35832   8.615   7.738   1.453 -0.3344 -0.5065  0.5280
  985MOL0     C35833   8.731   7.762   1.551 -0.0380 -0.7045 -0.0456
  985MOL0     C35834   8.842   7.852   1.487 -0.4897 -0.2866 -0.0304
  985MOL0     C35835   8.982   7.817   1.545  0.5844 -0.3771  0.1756
  985MOL0     C35836   9.099   7.884   1.473 -1.1702  0.2085 -1.1044
  985MOL0    Cl35837   9.108   7.821   1.303 -0.0456 -0.2744 -0.0844
  985MOL0     C35838   7.973   7.724   1.690 -0.5954  0.2319  0.9357
  985MOL0     C35839   7.834   7.698   1.716  0.1831  0.2019 -0.2637
  985MOL0     O35840   7.583   7.711   1.856 -0.2939 -0.5905  0.8937
  985MOL0     C35841   7.428   7.409   1.751  0.2877 -0.0719  0.0127
  985MOL0     C35842   7.309   7.341   1.755 -0.6113 -0.2797 -0.3967
  985MOL0     N35843   6.658   7.074   1.425 -0.8298 -0.3040 -0.6778
  985MOL0     N35844   6.561   7.081   1.352  0.0938 -0.4660  0.7641
  985MOL0     C35845   6.213   8.235   1.136  1.2420  0.4768  0.2166
  985MOL0     C35846   6.216   8.343   1.049  0.2470  0.7925  0.5248
  985MOL0     C35847   6.301   8.665   0.795  0.3463  0.3542  0.0399
  985MOL0     C35848   6.205   8.644   0.690  1.1831  0.1484 -0.1876
  985MOL0     C35849   6.167   8.748   0.607 -0.1368 -0.3216  0.6218
  985MOL0     C35850   6.212   8.879   0.619 -1.2726  1.3157 -0.4733
  985MOL0     O35851   6.173   8.993   0.548 -0.2979 -0.2107 -0.6998
  985MOL0     C35852   6.042   8.999   0.492  1.6405  0.1522  0.2757
  985MOL0     C35853   6.024   9.097   0.370 -0.8151  0.3152 -0.3176
  985MOL0     C35854   6.096   9.034   0.256  0.3999  0.6972  0.6428
  985MOL0     C35855   6.052   9.099   0.119 -0.6219  0.0093  0.1979
  985MOL0     C35856   6.157   9.189   0.072  0.4263  0.5461 -0.0132
  985MOL0     C35857   6.241   9.277   0.053  0.4311  0.9051  0.5905
  985MOL0     C35858   6.311   8.906   0.721 -0.4512  0.4474  0.0017
  985MOL0     C35859   6.349   8.801   0.807 -0.2341  0.2084  0.2242
  985MOL0     C35860   6.456   8.831   0.902 -0.7803 -0.2004  0.0718
  985MOL0     H35861   6.381   8.184   0.801  1.3958 -0.0348  0.3804
  985MOL0     H35862   6.360   7.985   0.950 -2.6745 -1.1513 -1.1940
  985MOL0     H35863   6.419   7.893   1.160  0.2558 -1.5503  0.3287
  985MOL0     H35864   6.263   7.847   1.076  0.7578 -0.2489 -0.9998
  985MOL0     H35865   6.285   7.834   1.368  0.0560 -1.4050  1.3480
  985MOL0     H35866   6.196   7.726   1.254 -0.6224  1.6879  0.4809
  985MOL0     H35867   6.422   7.623   1.189  1.5866 -2.0784  1.0592
  985MOL0     H35868   6.497   7.725   1.308  2.0631 -1.2602 -3.8135
  985MOL0     H35869   6.344   7.644   1.491  1.5525 -1.4674  1.1450
  985MOL0     H35870   6.280   7.529   1.385 -0.8240  2.9347 -1.2166
  985MOL0     H35871   6.456   7.437   1.523  1.4720  0.5220 -0.4445
  985MOL0     H35872   6.570   7.527   1.435  0.4868 -0.8732 -1.0110
  985MOL0     H35873   6.527   7.435   1.224  0.0420  2.3415  1.6695
  985MOL0     H35874   6.579   7.320   1.343  0.3812 -1.9081 -3.4879
  985MOL0     H35875   6.385   7.244   1.174  0.8297 -4.7788  1.3400
  985MOL0     H35876   6.278   7.360   1.259  3.0806  3.5366  0.1185
  985MOL0     H35877   6.275   7.229   1.459 -3.8578 -3.9955 -0.7412
  985MOL0     H35878   6.254   7.111   1.330  0.1003 -0.6757  0.0670
  985MOL0     H35879   6.426   7.162   1.638  0.5540  0.2681  1.2988
  985MOL0     H35880   6.719   6.996   1.712  0.9254  1.1852  2.3282
  985MOL0     H35881   6.656   7.149   1.759 -0.6887 -1.8427  1.5193
  985MOL0     H35882   6.889   7.130   1.560  0.2864  0.5441 -0.2476
  985MOL0     H35883   6.827   7.262   1.668 -1.8144 -0.3812 -0.6321
  985MOL0     H35884   6.885   7.145   1.886  0.7341 -2.5434  1.7992
  985MOL0     H35885   6.932   7.010   1.796  0.7935 -0.1487 -0.1542
  985MOL0     H35886   7.152   7.106   1.821  3.8495  1.5772 -2.1773
  985MOL0     H35887   7.098   7.178   1.674 -3.7200 -3.2824 -0.6425
  985MOL0     H35888   7.101   7.578   1.866  0.3473  0.7496  0.3592
  985MOL0     H35889   7.335   7.789   1.940 -0.1564 -3.5056  0.8995
  985MOL0     H35890   7.198   7.777   1.809 -0.4187  0.5494  0.8208
  985MOL0     H35891   7.361   7.803   1.762  0.6548 -1.8280 -0.5619
  985MOL0     H35892   7.872   7.363   1.710  1.2823 -0.1381  1.1342
  985MOL0     H35893   8.111   7.419   1.677 -1.4065 -1.4697  0.5311
  985MOL0     H35894   8.327   7.532   1.747 -0.5203  0.3567  0.4564
  985MOL0     H35895   8.304   7.500   1.571  0.0563 -0.8119  1.0445
  985MOL0     H35896   8.426   7.768   1.640 -0.0237  0.6440  2.3309
  985MOL0     H35897   8.507   7.632   1.721  0.3103 -1.0137 -0.7774
  985MOL0     H35898   8.443   7.608   1.428 -0.8306 -3.3635  1.4480
  985MOL0     H35899   8.570   7.531   1.514 -1.0009  0.3690 -1.8726
  985MOL0     H35900   8.570   7.836   1.440  1.0492  0.6481  3.3731
  985MOL0     H35901   8.635   7.698   1.353 -2.2590  0.1994 -0.1696
  985MOL0     H35902   8.700   7.812   1.643  0.0624 -1.5590  0.4665
  985MOL0     H35903   8.768   7.666   1.590 -1.0597 -0.3685  1.8682
  985MOL0     H35904   8.827   7.956   1.514  1.7251  0.2150 -0.5682
  985MOL0     H35905   8.836   7.849   1.378 -2.9569  0.2796  0.0309
  985MOL0     H35906   9.003   7.709   1.547  1.4405 -0.2123  1.9438
  985MOL0     H35907   8.978   7.848   1.650  1.3920  1.6391 -0.3536
  985MOL0     H35908   9.196   7.860   1.518 -2.2206 -1.0582  0.6603
  985MOL0     H35909   9.081   7.992   1.476 -0.6773  0.4172 -3.7902
  985MOL0     H35910   8.007   7.827   1.691  2.4876 -0.6846  0.7085
  985MOL0     H35911   7.768   7.783   1.719  0.3307  0.2947  1.8240
  985MOL0     H35912   7.504   7.345   1.709 -0.8762 -0.0367 -2.3796
  985MOL0     H35913   7.318   7.236   1.726  1.4208 -0.3987  0.4996
  985MOL0     H35914   6.159   8.254   1.228  2.3477  0.8939  0.8010
  985MOL0     H35915   6.168   8.440   1.065 -0.8832  0.9635 -3.0024
  985MOL0     H35916   6.155   8.549   0.671  0.8317 -0.1902  2.1263
  985MOL0     H35917   6.086   8.719   0.541 -1.5424  2.8701  0.7500
  985MOL0     H35918   5.998   8.903   0.464  1.4244 -0.0244  1.1832
  985MOL0     H35919   5.965   9.032   0.562  0.3394  0.4079 -1.2187
  985MOL0     H35920   6.068   9.192   0.400 -1.0292  0.5561 -0.7564
  985MOL0     H35921   5.917   9.094   0.345 -0.6135 -4.3763 -1.5848
  985MOL0     H35922   6.203   9.037   0.279 -0.0578  0.9537  3.0001
  985MOL0     H35923   6.061   8.932   0.241  1.0729  0.4742  0.5577
  985MOL0     H35924   5.972   9.172   0.135  0.2650  0.6776  1.8573
  985MOL0     H35925   6.031   9.018   0.048  0.0048 -1.2219  1.3787
  985MOL0     H35926   6.286   9.374   0.040 -1.3282  1.7992  0.8841
  985MOL0     H35927   6.353   9.005   0.722 -0.3145  0.4012 -0.8306
  985MOL0     H35928   6.409   8.834   1.001 -0.1729 -4.6402  0.7087
  985MOL0     H35929   6.532   8.753   0.909  0.1916  0.6207 -0.9895
  985MOL0     H35930   6.515   8.919   0.875  0.5658 -1.7633 -2.4137
  986MOL0     O35931   4.927   5.767   9.969  0.0853  0.7809  0.0216
  986MOL0     C35932   4.900   5.673   9.889  0.3628 -0.0834 -0.2442
  986MOL0     O35933   4.987   5.596   9.830 -0.9259  0.1605 -0.2945
  986MOL0     C35934   5.124   5.605   9.835 -0.5862 -0.2912  0.5021
  986MOL0     C35935   5.193   5.488   9.803  0.2143 -0.2745 -0.2194
  986MOL0     C35936   5.335   5.471   9.805 -0.5220 -0.3861  0.2293
  986MOL0     C35937   5.414   5.580   9.848 -1.0291 -0.9886 -0.2844
  986MOL0     O35938   5.552   5.572   9.832  0.9132 -0.4412 -0.1273
  986MOL0     C35939   5.638   5.676   9.868  0.2248  0.2984  0.2161
  986MOL0     C35940   5.785   5.636   9.887 -0.0370 -0.3503 -0.6681
  986MOL0     C35941   5.841   5.597   9.757 -0.3288  0.4332 -0.0465
  986MOL0     C35942   5.992   5.577   9.782 -0.6042  0.3230 -0.5830
  986MOL0     C35943   6.070   5.684   9.704  0.6045  0.0617  0.6832
  986MOL0     C35944   6.216   5.654   9.693 -0.4818 -0.1125 -0.6046
  986MOL0     C35945   6.286   5.718   9.568  0.1434  0.3046 -0.2552
  986MOL0     C35946   6.411   5.645   9.529  0.3641  1.1814  0.1635
  986MOL0     N35947   6.519   5.660   9.626 -0.5413  0.8436 -0.2546
  986MOL0     C35948   6.633   5.571   9.629 -0.5629 -0.6843  0.3571
  986MOL0     C35949   6.716   5.636   9.717  0.1461  0.5321  0.3375
  986MOL0     C35950   6.861   5.604   9.736  0.2649 -0.3937  0.2197
  986MOL0     C35951   6.889   5.457   9.771  0.1859 -0.1556 -0.1295
  986MOL0     C35952   7.036   5.451   9.795 -0.2118  0.1053  0.5803
  986MOL0     C35953   7.084   5.469   9.939 -0.5661  0.8368 -0.5245
  986MOL0     O35954   7.227   5.440   9.942 -0.4708  0.5298  0.2476
  986MOL0     C35955   7.285   5.349  10.027  0.2830 -0.0936  0.3244
  986MOL0     C35956   7.216   5.265  10.111 -0.6551  0.3908 -0.0987
  986MOL0     C35957   7.284   5.163  10.181 -0.1920 -0.3074  0.6323
  986MOL0     C35958   7.198   5.088  10.286 -0.5502 -0.3938  0.3812
  986MOL0     C35959   7.422   5.141  10.160  0.7424 -0.0113  0.8230
  986MOL0     C35960   7.496   5.033  10.228 -0.2479  0.3603  0.6691
  986MOL0     O35961   7.626   5.059  10.249 -0.3691  0.3525 -0.1382
  986MOL0     C35962   7.704   4.948  10.251 -0.1407 -0.2362 -0.4853
  986MOL0     C35963   7.742   4.892  10.130 -1.0837  0.3542 -0.1065
  986MOL0     C35964   7.815   4.767  10.136 -0.1357  1.2911  0.1728
  986MOL0     C35965   7.875   4.713  10.252  0.2084 -0.2492 -0.6614
  986MOL0     O35966   7.952   4.600  10.241  0.5889 -0.2111  0.4333
  986MOL0     C35967   7.886   4.486  10.302 -0.8318 -0.7256  0.0021
  986MOL0     C35968   7.980   4.369  10.289  0.4802 -0.5930  0.1907
  986MOL0     C35969   8.107   4.391  10.382  0.5100  0.2394  0.0487
  986MOL0     C35970   8.234   4.314  10.333  0.1664  0.0654  0.0769
  986MOL0     C35971   8.341   4.315  10.439 -0.3046 -0.0874 -0.0912
  986MOL0     C35972   8.395   4.457  10.465  0.1979 -0.1767 -0.8474
  986MOL0     C35973   8.540   4.472  10.527  0.9606 -0.3910  0.5403
  986MOL0     C35974   8.554   4.420  10.673  0.4925 -0.4491 -0.1743
  986MOL0    Cl35975   8.728   4.432  10.725 -0.5217  0.0964 -0.2527
  986MOL0     C35976   7.848   4.783  10.376  0.5666 -0.8999 -0.9515
  986MOL0     C35977   7.760   4.896  10.378 -0.0943 -0.4353 -0.3273
  986MOL0     O35978   7.439   4.926  10.255 -0.0542 -0.0182 -0.0884
  986MOL0     C35979   7.485   5.218  10.059  0.4574  0.1687  0.0687
  986MOL0     C35980   7.415   5.326   9.997  0.0740  0.3196  0.7157
  986MOL0     N35981   6.647   5.742   9.780 -0.3979  0.6988  0.5716
  986MOL0     N35982   6.527   5.755   9.727 -0.1210  0.0715  0.1908
  986MOL0     C35983   5.345   5.705   9.884  0.1825  0.5193 -0.1770
  986MOL0     C35984   5.199   5.716   9.876  1.3563  0.2228  0.8874
  986MOL0     C35985   4.751   5.630   9.888 -0.9633  0.7915  1.1026
  986MOL0     C35986   4.674   5.672   9.991 -0.4087 -0.6543 -0.7132
  986MOL0     C35987   4.538   5.650   9.998 -1.4025  0.1456  0.0283
  986MOL0     C35988   4.482   5.569   9.904 -0.8407  0.0230  0.5704
  986MOL0     O35989   4.346   5.525   9.908 -0.6617  0.6612 -0.1945
  986MOL0     C35990   4.295   5.468  10.032 -0.6883 -0.4989 -0.3157
  986MOL0     C35991   4.160   5.526  10.058 -0.3119  0.6274 -0.2731
  986MOL0     C35992   4.058   5.485   9.958 -0.1641  0.0362 -0.4102
  986MOL0     C35993   3.916   5.531   9.996 -0.1577  0.2145  0.4686
  986MOL0     C35994   3.859   5.422  10.083  0.3643  0.2656  0.1691
  986MOL0     C35995   3.814   5.329  10.153  0.4746  0.5156  0.5425
  986MOL0     C35996   4.559   5.524   9.800 -0.2378  0.1899  0.0997
  986MOL0     C35997   4.696   5.555   9.785  0.2317 -0.8361  0.2050
  986MOL0     C35998   4.772   5.504   9.661  0.0202  0.5847 -0.2254
  986MOL0     H35999   5.133   5.402   9.776  0.7200  0.2898 -3.5036
  986MOL0     H36000   5.378   5.376   9.776 -0.8846 -0.4078 -0.2619
  986MOL0     H36001   5.596   5.724   9.957 -3.7162 -3.2334  0.5957
  986MOL0     H36002   5.641   5.754   9.791  2.3818  1.3326  1.2609
  986MOL0     H36003   5.837   5.725   9.922 -2.0577  1.3323 -1.7062
  986MOL0     H36004   5.793   5.555   9.961  0.5080 -1.6635 -2.0975
  986MOL0     H36005   5.794   5.504   9.725  0.9918 -0.6595  1.0630
  986MOL0     H36006   5.835   5.676   9.682 -0.2199 -0.7090 -1.2878
  986MOL0     H36007   6.027   5.582   9.886 -0.2458 -1.0472 -0.6174
  986MOL0     H36008   6.017   5.482   9.735 -0.5585 -0.8824  1.7388
  986MOL0     H36009   6.053   5.786   9.740 -0.5633  0.5563 -1.1613
  986MOL0     H36010   6.030   5.690   9.603  0.0295  0.5697  0.9346
  986MOL0     H36011   6.264   5.684   9.786 -3.0686  5.1929 -0.5968
  986MOL0     H36012   6.234   5.549   9.669  1.0008  0.3527 -1.7067
  986MOL0     H36013   6.305   5.822   9.595 -0.7228  0.0995  1.2363
  986MOL0     H36014   6.210   5.706   9.490 -1.8669 -0.1003  1.6653
  986MOL0     H36015   6.386   5.540   9.518 -1.1880  1.5062  0.4177
  986MOL0     H36016   6.450   5.668   9.429 -1.6931 -2.7545 -1.7441
  986MOL0     H36017   6.668   5.495   9.561 -0.5954 -0.8510  0.5266
  986MOL0     H36018   6.892   5.662   9.823 -1.1014  0.1216  0.3731
  986MOL0     H36019   6.917   5.628   9.645 -1.1433 -3.0581 -1.4971
  986MOL0     H36020   6.821   5.433   9.853 -1.1411 -2.2680 -1.7331
  986MOL0     H36021   6.863   5.385   9.692  0.6513 -0.2678 -0.1882
  986MOL0     H36022   7.069   5.360   9.745 -0.8190  1.2446 -2.0622
  986MOL0     H36023   7.083   5.529   9.735  0.3231 -0.6519 -0.0031
  986MOL0     H36024   7.064   5.573   9.967  0.9763  0.7972  0.9063
  986MOL0     H36025   7.029   5.414  10.016  2.6012 -0.7922  0.7612
  986MOL0     H36026   7.109   5.268  10.129 -0.9796 -0.4389 -1.6793
  986MOL0     H36027   7.253   5.072  10.379 -0.2833 -2.2202 -0.0511
  986MOL0     H36028   7.168   4.989  10.251  0.7529 -0.7920  0.3689
  986MOL0     H36029   7.117   5.142  10.337 -0.2644 -0.1821  0.6167
  986MOL0     H36030   7.708   4.922  10.031  1.4034 -1.5480 -1.6523
  986MOL0     H36031   7.843   4.714  10.046  0.2787  0.0258  1.0144
  986MOL0     H36032   7.875   4.504  10.409 -1.5767  2.5014 -0.5236
  986MOL0     H36033   7.795   4.460  10.246 -0.3553  0.5807 -1.4462
  986MOL0     H36034   7.930   4.282  10.331 -0.5183  0.2462  0.7640
  986MOL0     H36035   8.013   4.355  10.185  1.2437 -1.8261  0.5773
  986MOL0     H36036   8.080   4.342  10.476  1.3017 -1.1241 -0.4100
  986MOL0     H36037   8.121   4.499  10.394  0.4225  0.2015  0.5149
  986MOL0     H36038   8.282   4.359  10.245 -0.7572  0.4502 -0.2375
  986MOL0     H36039   8.208   4.211  10.309 -1.1884  0.3802  0.1368
  986MOL0     H36040   8.303   4.262  10.528  0.8754 -3.4613 -1.4340
  986MOL0     H36041   8.426   4.251  10.414 -0.7509 -0.5570 -0.4310
  986MOL0     H36042   8.326   4.510  10.530 -0.4044  1.7400 -2.9061
  986MOL0     H36043   8.391   4.508  10.368 -0.7385 -0.5841 -1.0265
  986MOL0     H36044   8.548   4.580  10.515 -4.7602  0.0745 -2.5527
  986MOL0     H36045   8.612   4.418  10.465  0.3680 -3.3567  2.2275
  986MOL0     H36046   8.512   4.320  10.690  0.9912 -0.8356 -1.1252
  986MOL0     H36047   8.492   4.492  10.726  1.4753 -1.0672  1.9212
  986MOL0     H36048   7.910   4.767  10.463 -0.0245 -1.1302 -0.5673
  986MOL0     H36049   7.731   4.949  10.468 -1.8292 -0.4183 -0.8550
  986MOL0     H36050   7.586   5.194  10.025 -0.2100 -1.1333 -1.0733
  986MOL0     H36051   7.463   5.373   9.912 -4.6782  0.0077 -2.5425
  986MOL0     H36052   5.396   5.794   9.919  1.3078  0.4795 -1.6266
  986MOL0     H36053   5.153   5.811   9.900  1.0378  0.1734  0.4772
  986MOL0     H36054   4.717   5.741  10.063 -1.4762 -1.0049  0.2934
  986MOL0     H36055   4.471   5.688  10.075  1.7243 -0.3672  3.2448
  986MOL0     H36056   4.283   5.361  10.009  1.2761 -1.6905  3.3579
  986MOL0     H36057   4.362   5.482  10.117 -0.6694  0.6821 -0.5197
  986MOL0     H36058   4.171   5.634  10.070  1.4784  0.4528 -0.0344
  986MOL0     H36059   4.124   5.481  10.151 -0.0286  0.7345 -0.1081
  986MOL0     H36060   4.086   5.539   9.867  0.0466  0.5489 -0.0458
  986MOL0     H36061   4.061   5.376   9.948  0.8306 -0.2204  1.9999
  986MOL0     H36062   3.852   5.536   9.907 -0.1529 -0.3207  0.4270
  986MOL0     H36063   3.910   5.629  10.043  2.0850  0.0873  1.1267
  986MOL0     H36064   3.779   5.246  10.211  1.5294 -1.3793 -1.4225
  986MOL0     H36065   4.526   5.464   9.716  2.4295  0.4757 -1.2758
  986MOL0     H36066   4.842   5.585   9.638  1.2152 -0.2672  0.3666
  986MOL0     H36067   4.823   5.410   9.683  0.6183  1.3638  1.9339
  986MOL0     H36068   4.697   5.482   9.585 -0.1116  0.8433 -0.1722
  987MOL0     O36069   9.901  10.135   1.089  0.3835 -0.4631 -0.1086
  987MOL0     C36070   9.869  10.064   1.187 -0.3702  0.1845 -0.6518
  987MOL0     O36071   9.932   9.932   1.219 -0.2996  1.0004  0.2229
  987MOL0     C36072  10.032   9.881   1.134 -0.6759 -1.1683 -0.0560
  987MOL0     C36073  10.048   9.908   1.000  0.8600  0.5778  0.4784
  987MOL0     C36074  10.150   9.857   0.926  0.3135 -0.3191 -1.5096
  987MOL0     C36075  10.253   9.782   0.988  0.4989  0.5482 -0.3071
  987MOL0     O36076  10.349   9.727   0.907  0.1930  0.3232 -0.1498
  987MOL0     C36077  10.483   9.705   0.965  0.1371 -0.5210 -0.3134
  987MOL0     C36078  10.582   9.787   0.886  0.2096 -0.4648 -0.5384
  987MOL0     C36079  10.729   9.812   0.937  0.0844 -0.7219  0.1623
  987MOL0     C36080  10.812   9.884   0.833 -0.1499 -0.1358 -0.4224
  987MOL0     C36081  10.949   9.924   0.883  0.0857 -0.2938  0.1352
  987MOL0     C36082  11.041   9.802   0.870 -0.2148 -0.1977 -1.1850
  987MOL0     C36083  11.186   9.842   0.924  0.3476 -0.3967  0.6585
  987MOL0     C36084  11.263   9.913   0.811  0.4462  0.1405 -0.9058
  987MOL0     N36085  11.403   9.896   0.840 -0.5987  0.9985 -0.0533
  987MOL0     C36086  11.474   9.963   0.937  0.2255 -0.3099 -0.4889
  987MOL0     C36087  11.593   9.910   0.938  0.5015 -0.8195  0.1634
  987MOL0     C36088  11.700   9.966   1.024  0.1675 -0.0477  0.5092
  987MOL0     C36089  11.834   9.903   1.007 -0.1900  0.7630  0.2051
  987MOL0     C36090  11.944   9.926   1.119  1.0812  0.5796 -0.7977
  987MOL0     C36091  11.994  10.069   1.128  0.4821 -0.3880  0.1522
  987MOL0     O36092  12.049  10.107   0.994 -0.0870  0.8050  0.9434
  987MOL0     C36093  12.181  10.092   0.970 -0.7042  0.2220  0.8027
  987MOL0     C36094  12.266  10.170   1.035 -0.1911  0.8201 -0.3039
  987MOL0     C36095  12.403  10.154   1.019 -0.5037 -0.1777 -0.5544
  987MOL0     C36096  12.493  10.243   1.099 -0.7421 -0.0758 -1.0698
  987MOL0     C36097  12.455  10.058   0.917 -1.0972 -1.4364 -0.1765
  987MOL0     C36098  12.604  10.033   0.890  0.4198 -0.5556 -0.2048
  987MOL0     O36099  12.637   9.960   0.778 -0.3528 -0.4041  0.3777
  987MOL0     C36100  12.777   9.945   0.749  0.0044  0.0379 -0.5352
  987MOL0     C36101  12.829   9.819   0.717  1.3443 -0.4940  0.1620
  987MOL0     C36102  12.970   9.800   0.689 -0.1888 -0.6376 -0.0784
  987MOL0     C36103  13.059   9.911   0.688 -0.1164  0.0091 -0.4607
  987MOL0     O36104  13.186   9.908   0.641 -0.0037  0.1069 -0.0049
  987MOL0     C36105  13.281   9.820   0.707  0.5988 -0.6235 -0.0673
  987MOL0     C36106  13.419   9.844   0.640 -0.8003 -0.8212 -0.4319
  987MOL0     C36107  13.497   9.963   0.706  0.8762 -0.2563 -0.4958
  987MOL0     C36108  13.643   9.980   0.655  0.3105  0.0599  0.6992
  987MOL0     C36109  13.666  10.000   0.513  0.0035 -0.1732  0.3401
  987MOL0     C36110  13.585  10.104   0.434  0.5665  0.0686 -0.2915
  987MOL0     C36111  13.635  10.121   0.283  0.0773  0.3231 -0.0649
  987MOL0     C36112  13.549  10.227   0.203  0.0840  0.2095 -0.1695
  987MOL0    Cl36113  13.397  10.153   0.159 -0.2691  0.4260  0.3031
  987MOL0     C36114  13.004  10.036   0.721  0.3750  0.0038 -0.7963
  987MOL0     C36115  12.874  10.048   0.754 -0.2411  0.3913  0.4414
  987MOL0     O36116  12.685  10.070   0.973  0.2074  0.4607 -0.1733
  987MOL0     C36117  12.359   9.988   0.844 -0.1953 -1.3193 -0.1253
  987MOL0     C36118  12.228   9.998   0.876 -0.1715 -0.1378 -0.3555
  987MOL0     N36119  11.590   9.801   0.851 -0.3432 -0.4524  0.8372
  987MOL0     N36120  11.486   9.800   0.788  0.6351 -0.1757  0.5575
  987MOL0     C36121  10.229   9.735   1.121  0.1347  0.6049 -1.3996
  987MOL0     C36122  10.119   9.790   1.191 -0.8712 -0.6077  0.0261
  987MOL0     C36123   9.750  10.111   1.260 -0.2157  0.5074 -0.9542
  987MOL0     C36124   9.687  10.003   1.324 -0.8357 -0.1907 -0.2881
  987MOL0     C36125   9.570  10.028   1.389  0.1519  0.5395  0.0107
  987MOL0     C36126   9.507  10.153   1.396 -0.1289  0.1338  0.6882
  987MOL0     O36127   9.391  10.146   1.462 -0.1725  0.8656 -0.0626
  987MOL0     C36128   9.322  10.278   1.481  0.3766  0.3789 -0.1308
  987MOL0     C36129   9.183  10.270   1.547 -0.5536 -0.0639 -0.7286
  987MOL0     C36130   9.183  10.227   1.698  0.4332 -0.5509  0.2536
  987MOL0     C36131   9.272  10.304   1.789 -0.3931 -0.1755 -0.4574
  987MOL0     C36132   9.251  10.248   1.925 -0.4210  0.5094  0.1362
  987MOL0     C36133   9.216  10.208   2.029  0.3573  0.3541 -0.2886
  987MOL0     C36134   9.580  10.264   1.345  0.1691  0.0623 -0.0604
  987MOL0     C36135   9.700  10.245   1.274  0.3926  0.7011 -0.2332
  987MOL0     C36136   9.774  10.366   1.236 -0.3786 -0.3034  0.3390
  987MOL0     H36137   9.969   9.948   0.936  0.5912 -1.8191 -0.8352
  987MOL0     H36138  10.162   9.868   0.818  1.5262 -0.7021 -1.4242
  987MOL0     H36139  10.496   9.596   0.960  3.6354 -0.1774 -1.1026
  987MOL0     H36140  10.489   9.735   1.070 -2.7977  0.4727 -0.3478
  987MOL0     H36141  10.581   9.765   0.779  1.8108  1.6534 -1.0638
  987MOL0     H36142  10.543   9.889   0.889  2.1813  0.3443 -1.1487
  987MOL0     H36143  10.729   9.860   1.035  1.8014 -2.8805  1.3262
  987MOL0     H36144  10.777   9.715   0.959 -0.6154 -0.9782  0.5991
  987MOL0     H36145  10.824   9.824   0.742 -0.2833  2.0154 -1.9510
  987MOL0     H36146  10.762   9.977   0.805 -0.8828  0.0538  1.3651
  987MOL0     H36147  10.945   9.963   0.985  3.3088  0.5517  0.0484
  987MOL0     H36148  11.000  10.003   0.828  1.8958 -1.1020  0.5700
  987MOL0     H36149  10.992   9.728   0.935 -0.9977  2.1207  1.0670
  987MOL0     H36150  11.051   9.763   0.769 -0.3279 -1.8983 -0.5810
  987MOL0     H36151  11.243   9.751   0.946 -0.2651 -1.0699 -0.4534
  987MOL0     H36152  11.189   9.908   1.011  0.2606 -0.2668  0.5626
  987MOL0     H36153  11.238   9.869   0.714  5.5771 -1.8618 -1.6234
  987MOL0     H36154  11.243  10.020   0.811 -0.6650 -0.0513 -1.6593
  987MOL0     H36155  11.459  10.042   1.010  1.0538  1.1174 -1.8051
  987MOL0     H36156  11.668   9.945   1.127  2.0614 -4.9374  0.3896
  987MOL0     H36157  11.709  10.074   1.009 -0.5999  0.0427  0.6510
  987MOL0     H36158  11.822   9.799   0.976 -0.3668  1.3479 -1.8013
  987MOL0     H36159  11.880   9.955   0.922 -2.8659  4.7084  0.9064
  987MOL0     H36160  11.912   9.894   1.219  0.5980 -1.8692 -1.6771
  987MOL0     H36161  12.017   9.850   1.092 -0.0270 -1.4323  1.4819
  987MOL0     H36162  11.907  10.130   1.154  1.8976  0.2231  4.1630
  987MOL0     H36163  12.058  10.084   1.215 -0.6029  0.7085  0.7877
  987MOL0     H36164  12.223  10.241   1.105 -0.6744 -0.2244  0.4930
  987MOL0     H36165  12.554  10.194   1.175 -0.7318  1.5426  0.0241
  987MOL0     H36166  12.429  10.317   1.148 -1.8989 -0.6306 -1.7175
  987MOL0     H36167  12.559  10.298   1.031 -1.0538 -0.1490 -1.4312
  987MOL0     H36168  12.755   9.740   0.716  0.8428 -0.0275 -0.2814
  987MOL0     H36169  13.005   9.702   0.660 -1.3919 -0.3518 -2.8591
  987MOL0     H36170  13.285   9.843   0.814 -1.7212 -1.8230  0.3407
  987MOL0     H36171  13.257   9.715   0.688 -1.2799 -0.0881 -0.9219
  987MOL0     H36172  13.478   9.752   0.646 -1.0824 -1.0717 -1.3616
  987MOL0     H36173  13.413   9.867   0.533 -0.6322 -0.6221 -0.3992
  987MOL0     H36174  13.505   9.957   0.815  0.5040 -3.1785 -0.5426
  987MOL0     H36175  13.436  10.052   0.688 -0.2710 -1.0780 -0.8070
  987MOL0     H36176  13.713   9.904   0.693 -0.4172  0.0495  2.0559
  987MOL0     H36177  13.666  10.075   0.703 -1.5002  0.6948  0.3916
  987MOL0     H36178  13.770  10.033   0.515 -0.4603  1.3360  2.8820
  987MOL0     H36179  13.661   9.902   0.464 -0.0784  0.1925 -0.3989
  987MOL0     H36180  13.600  10.202   0.480  1.3342 -0.3693  0.4223
  987MOL0     H36181  13.483  10.065   0.426  0.1924  1.1309 -0.9378
  987MOL0     H36182  13.629  10.025   0.232 -2.3355 -1.2368  2.8550
  987MOL0     H36183  13.733  10.169   0.277 -1.2883  3.1257 -2.0004
  987MOL0     H36184  13.600  10.260   0.112  1.2842  0.5277  0.5783
  987MOL0     H36185  13.533  10.320   0.258  3.3925  0.5988  0.3655
  987MOL0     H36186  13.067  10.124   0.729  1.3069 -0.7804  1.6932
  987MOL0     H36187  12.838  10.143   0.792 -3.4268 -0.8781  0.8838
  987MOL0     H36188  12.380   9.928   0.756 -2.6584  0.1436 -1.8478
  987MOL0     H36189  12.156   9.941   0.818  1.1353 -2.8463  0.5157
  987MOL0     H36190  10.298   9.667   1.168 -0.8247  1.7635  1.9839
  987MOL0     H36191  10.115   9.761   1.296 -1.2874 -2.9351 -0.5724
  987MOL0     H36192   9.730   9.904   1.327 -1.4364 -0.5583 -2.3232
  987MOL0     H36193   9.528   9.946   1.446  0.9733  1.6456  2.3565
  987MOL0     H36194   9.375  10.346   1.548  2.5361 -0.1590 -1.2035
  987MOL0     H36195   9.312  10.340   1.392  1.1689  0.1828 -0.3637
  987MOL0     H36196   9.124  10.193   1.497  0.0813 -1.4847  0.6327
  987MOL0     H36197   9.135  10.367   1.531 -1.2510 -0.1718  0.5643
  987MOL0     H36198   9.083  10.244   1.738  0.5796  2.2057 -0.3343
  987MOL0     H36199   9.205  10.121   1.710 -0.9343 -0.7111  1.5664
  987MOL0     H36200   9.239  10.408   1.799  0.7777  0.0789  1.1235
  987MOL0     H36201   9.379  10.301   1.771  0.0522 -0.0490  1.8829
  987MOL0     H36202   9.189  10.156   2.119 -0.1760  0.4249 -0.4020
  987MOL0     H36203   9.544  10.366   1.352  0.5860  0.2941 -1.0669
  987MOL0     H36204   9.724  10.452   1.280  0.9858  1.1208 -0.8068
  987MOL0     H36205   9.875  10.379   1.275  0.5154  0.9150 -2.1739
  987MOL0     H36206   9.788  10.370   1.127  1.0027 -2.0629  0.4013
  988MOL0     O36207   2.841   7.615   9.391  0.2862  0.3617  0.6968
  988MOL0     C36208   2.767   7.700   9.433 -0.4662  0.4371 -0.0361
  988MOL0     O36209   2.806   7.799   9.532 -0.2218  0.3952  0.7796
  988MOL0     C36210   2.928   7.802   9.592 -0.5490  0.1851  0.8607
  988MOL0     C36211   3.049   7.798   9.522 -0.4118 -0.7427 -1.2060
  988MOL0     C36212   3.177   7.817   9.579  0.7120 -0.3691 -0.2992
  988MOL0     C36213   3.186   7.813   9.721 -1.3616 -0.0581 -0.3271
  988MOL0     O36214   3.304   7.809   9.801  0.3963  0.1469  0.1446
  988MOL0     C36215   3.348   7.672   9.824 -0.3603  0.2437  0.6873
  988MOL0     C36216   3.472   7.683   9.904  0.0375  0.0428 -0.3163
  988MOL0     C36217   3.516   7.545   9.954  0.9118 -0.8408  0.2145
  988MOL0     C36218   3.588   7.462   9.843  0.0340  0.1141 -0.3074
  988MOL0     C36219   3.692   7.364   9.898  1.0670 -0.1629  0.3579
  988MOL0     C36220   3.751   7.282   9.781 -0.0500 -0.0553  0.3535
  988MOL0     C36221   3.817   7.158   9.828 -0.5584  0.2824 -0.1109
  988MOL0     C36222   3.957   7.193   9.871 -0.9543 -0.9827 -0.0919
  988MOL0     N36223   4.057   7.082   9.869 -0.3005  0.5766  0.6709
  988MOL0     C36224   4.113   7.023   9.759  0.5094 -0.0647  0.1258
  988MOL0     C36225   4.181   6.915   9.810 -0.0377 -1.0741  0.4029
  988MOL0     C36226   4.252   6.829   9.708 -0.1688  0.7846 -0.1276
  988MOL0     C36227   4.381   6.895   9.644  0.3173 -1.0917  0.2480
  988MOL0     C36228   4.513   6.814   9.636 -0.4717 -0.9377 -0.4743
  988MOL0     C36229   4.638   6.883   9.578  0.6036  0.1598 -0.2591
  988MOL0     O36230   4.742   6.795   9.606 -0.3929  0.5372 -0.2121
  988MOL0     C36231   4.864   6.825   9.565 -0.2066 -0.0940  0.2348
  988MOL0     C36232   4.968   6.750   9.616 -0.2586 -0.3516 -0.4667
  988MOL0     C36233   5.103   6.755   9.577 -0.0575 -0.3994 -0.2754
  988MOL0     C36234   5.189   6.647   9.640  0.2204 -0.9187 -0.5119
  988MOL0     C36235   5.137   6.849   9.483 -0.4278 -0.3346  0.8542
  988MOL0     C36236   5.279   6.881   9.448  0.8699 -0.2897 -0.5067
  988MOL0     O36237   5.284   6.985   9.354 -0.3331 -0.3218 -0.2574
  988MOL0     C36238   5.398   7.018   9.283 -0.1634  0.2014  0.1714
  988MOL0     C36239   5.375   7.116   9.191  0.4699  0.4222  0.7238
  988MOL0     C36240   5.477   7.150   9.103  0.6699  0.4126  0.0924
  988MOL0     C36241   5.604   7.099   9.122  0.8014 -0.4721  0.2858
  988MOL0     O36242   5.716   7.136   9.054  0.2524  0.3513  0.3519
  988MOL0     C36243   5.707   7.243   8.956  0.6508 -0.0129 -0.2809
  988MOL0     C36244   5.846   7.285   8.901 -0.2706 -0.5816 -0.0308
  988MOL0     C36245   5.855   7.394   8.786  0.1674  0.0280  0.1525
  988MOL0     C36246   5.993   7.465   8.792 -1.0429  0.6191 -1.1885
  988MOL0     C36247   5.991   7.566   8.682  0.1624 -0.0516  0.0647
  988MOL0     C36248   6.111   7.667   8.680 -0.1716 -1.0174 -0.5511
  988MOL0     C36249   6.102   7.773   8.570  0.6696 -0.8281  0.3323
  988MOL0     C36250   6.196   7.894   8.591  0.5299 -0.2393  0.2268
  988MOL0    Cl36251   6.366   7.827   8.572 -0.2768  0.0689  0.2313
  988MOL0     C36252   5.626   7.000   9.219  0.1745 -0.2291  0.1045
  988MOL0     C36253   5.528   6.961   9.304 -0.0139  0.7956 -0.0108
  988MOL0     O36254   5.375   6.824   9.496  1.0640  0.4821 -0.6298
  988MOL0     C36255   5.027   6.921   9.422 -0.0454  0.0380 -0.1798
  988MOL0     C36256   4.899   6.910   9.461  0.3687 -0.7934 -0.1190
  988MOL0     N36257   4.165   6.913   9.940 -0.6902  0.1292 -0.4638
  988MOL0     N36258   4.090   7.007   9.979  0.2148  0.0696 -0.5546
  988MOL0     C36259   3.069   7.815   9.794  0.2967 -0.5475 -0.1841
  988MOL0     C36260   2.940   7.807   9.737  0.7547  0.8376 -0.3877
  988MOL0     C36261   2.638   7.719   9.377  0.1835  0.0995 -0.4852
  988MOL0     C36262   2.581   7.852   9.384 -0.3108  0.6790 -0.4816
  988MOL0     C36263   2.462   7.890   9.322 -0.2616 -0.3319 -0.0786
  988MOL0     C36264   2.382   7.792   9.254 -0.5487 -0.2532 -0.2045
  988MOL0     O36265   2.260   7.811   9.191  0.6522  0.1175 -0.0124
  988MOL0     C36266   2.190   7.940   9.218 -0.0499  0.5413 -0.3240
  988MOL0     C36267   2.046   7.945   9.153 -0.2128  0.1472 -0.5990
  988MOL0     C36268   1.961   7.822   9.177 -0.6170 -0.4341  0.3080
  988MOL0     C36269   1.834   7.850   9.109 -0.8140 -0.7847  0.1724
  988MOL0     C36270   1.729   7.750   9.135  0.5695 -0.3054  0.2416
  988MOL0     C36271   1.648   7.671   9.168 -0.3206  1.0826 -0.3809
  988MOL0     C36272   2.432   7.657   9.258 -0.1416 -0.7228  1.1014
  988MOL0     C36273   2.562   7.625   9.307  0.2047 -0.2659  1.9213
  988MOL0     C36274   2.592   7.484   9.288 -0.0881  0.1924  0.4081
  988MOL0     H36275   3.047   7.792   9.413  1.1211  0.4960 -1.3307
  988MOL0     H36276   3.264   7.825   9.514 -0.0463  0.1600 -1.2891
  988MOL0     H36277   3.371   7.624   9.728 -2.4229  1.6435 -0.5986
  988MOL0     H36278   3.263   7.622   9.873 -1.0340  0.7236  0.0407
  988MOL0     H36279   3.547   7.734   9.844  1.0873 -1.2598 -0.1666
  988MOL0     H36280   3.455   7.749   9.990  0.6092  2.8110 -2.2034
  988MOL0     H36281   3.580   7.561  10.041 -0.2536  4.0426  0.4607
  988MOL0     H36282   3.435   7.489  10.002 -1.9568  2.6645 -0.0916
  988MOL0     H36283   3.504   7.406   9.803 -1.7213  3.0073 -0.9240
  988MOL0     H36284   3.635   7.519   9.763  2.7313 -2.3468 -0.6803
  988MOL0     H36285   3.642   7.304   9.975  1.1033  0.6381  1.0198
  988MOL0     H36286   3.777   7.412   9.947  2.3036 -0.9063 -0.9778
  988MOL0     H36287   3.677   7.268   9.702  1.9338  4.7491 -2.8641
  988MOL0     H36288   3.815   7.354   9.728 -1.7366  0.2115 -1.4401
  988MOL0     H36289   3.815   7.077   9.755  1.0094 -0.1738  0.3103
  988MOL0     H36290   3.766   7.120   9.918  1.8799  0.0746  1.2533
  988MOL0     H36291   4.002   7.270   9.807 -1.5077 -1.8606 -1.5903
  988MOL0     H36292   3.954   7.243   9.968 -1.2888  2.3976 -1.6805
  988MOL0     H36293   4.091   7.035   9.654 -1.7147  0.4324  0.5974
  988MOL0     H36294   4.178   6.791   9.636 -3.0262  2.6340  1.6206
  988MOL0     H36295   4.284   6.746   9.771  3.9502  2.1763 -0.1379
  988MOL0     H36296   4.348   6.918   9.543 -2.4187 -0.6696  1.1441
  988MOL0     H36297   4.393   6.998   9.679 -3.0750 -0.5248  0.0837
  988MOL0     H36298   4.524   6.767   9.734  2.3761  0.6600  0.0829
  988MOL0     H36299   4.491   6.738   9.560 -2.0324 -0.9317 -0.0691
  988MOL0     H36300   4.629   6.890   9.469 -1.2655 -1.0706 -0.2272
  988MOL0     H36301   4.658   6.982   9.622 -1.1054 -0.1172  1.2412
  988MOL0     H36302   4.941   6.681   9.694  2.3386 -0.7182  0.1913
  988MOL0     H36303   5.127   6.559   9.658 -0.4091  0.3080  4.8658
  988MOL0     H36304   5.216   6.680   9.740 -3.4160 -0.7745  0.5685
  988MOL0     H36305   5.278   6.622   9.582  1.4245 -0.9909  1.2982
  988MOL0     H36306   5.278   7.159   9.167  0.5834 -1.8027 -5.5335
  988MOL0     H36307   5.444   7.218   9.025 -1.5796 -0.8800 -0.1736
  988MOL0     H36308   5.645   7.212   8.871  0.4394 -0.2615 -0.0366
  988MOL0     H36309   5.667   7.337   8.996 -0.5006 -1.5600  2.4365
  988MOL0     H36310   5.912   7.324   8.980  1.0354 -1.6919 -0.5202
  988MOL0     H36311   5.887   7.197   8.851  0.1134  0.9010 -2.4840
  988MOL0     H36312   5.772   7.464   8.790 -0.9818 -1.1994 -0.9998
  988MOL0     H36313   5.836   7.342   8.692 -1.1285 -0.5098  0.6886
  988MOL0     H36314   6.076   7.395   8.779 -0.5222  1.1784 -0.8917
  988MOL0     H36315   6.006   7.513   8.889 -2.4546  0.3940 -0.8605
  988MOL0     H36316   5.992   7.511   8.587 -0.2661  0.4373 -0.2258
  988MOL0     H36317   5.895   7.618   8.677 -0.1842 -0.7444 -1.1018
  988MOL0     H36318   6.200   7.602   8.673 -0.9271 -2.2133  0.3985
  988MOL0     H36319   6.116   7.720   8.775 -3.0531  2.2399 -2.0337
  988MOL0     H36320   6.002   7.817   8.575  0.3302 -1.6579  0.8813
  988MOL0     H36321   6.123   7.731   8.471  1.6458 -0.4214  0.3475
  988MOL0     H36322   6.183   7.948   8.685 -0.9814  2.7456 -1.5287
  988MOL0     H36323   6.176   7.962   8.507 -0.9243 -0.5187  0.3194
  988MOL0     H36324   5.725   6.955   9.221  0.1295 -0.5099 -2.0729
  988MOL0     H36325   5.550   6.884   9.377  0.9034 -0.8018 -1.8960
  988MOL0     H36326   5.052   6.996   9.346 -2.0726  0.6599 -0.3155
  988MOL0     H36327   4.823   6.968   9.410  1.7752 -0.0011 -1.4113
  988MOL0     H36328   3.069   7.824   9.902 -0.3632  3.1684 -0.3815
  988MOL0     H36329   2.849   7.805   9.796  1.3380  2.2919  0.6139
  988MOL0     H36330   2.640   7.930   9.430  0.4864  0.3799 -0.9648
  988MOL0     H36331   2.426   7.991   9.341 -2.6342 -0.8087 -1.6512
  988MOL0     H36332   2.176   7.953   9.326  0.5752 -1.0351 -0.0323
  988MOL0     H36333   2.259   8.014   9.175  0.2210  0.1881 -0.5037
  988MOL0     H36334   2.051   7.977   9.048  0.2981  2.2675  0.0368
  988MOL0     H36335   1.992   8.030   9.196  0.7183  1.4800 -1.9621
  988MOL0     H36336   2.012   7.738   9.129 -1.6004 -0.5171 -0.6458
  988MOL0     H36337   1.949   7.801   9.283  4.3417  0.5255  1.2960
  988MOL0     H36338   1.856   7.851   9.002 -1.7742  2.1992 -0.0858
  988MOL0     H36339   1.788   7.949   9.124 -1.2433 -1.2493  2.2886
  988MOL0     H36340   1.570   7.610   9.208  0.6988 -0.6538 -0.9542
  988MOL0     H36341   2.363   7.589   9.210 -0.8125 -0.1988  1.3102
  988MOL0     H36342   2.503   7.431   9.253  1.8394  0.1529 -5.3586
  988MOL0     H36343   2.660   7.486   9.203 -0.9988  4.4307 -0.4881
  988MOL0     H36344   2.630   7.441   9.381 -0.3472  0.6615  0.7428
  989MOL0     O36345   2.130   6.305   4.224 -0.3645  0.4916  0.3723
  989MOL0     C36346   2.115   6.206   4.150  0.0845 -0.1877 -0.3039
  989MOL0     O36347   2.210   6.121   4.111  0.2904  0.5690 -0.6280
  989MOL0     C36348   2.310   6.080   4.196  0.0879  0.5182 -0.4573
  989MOL0     C36349   2.331   6.108   4.337  0.1323  0.3266  0.3551
  989MOL0     C36350   2.452   6.074   4.397  0.9657 -0.5568  0.3319
  989MOL0     C36351   2.552   6.023   4.324 -0.1281 -0.3318 -0.2189
  989MOL0     O36352   2.677   6.003   4.375  0.2893  0.1076 -0.1457
  989MOL0     C36353   2.749   6.127   4.407 -0.0921 -0.3324 -0.0522
  989MOL0     C36354   2.884   6.099   4.477 -0.9083 -0.4837 -0.4920
  989MOL0     C36355   2.960   6.235   4.494  0.1428 -0.6880  0.5087
  989MOL0     C36356   3.094   6.206   4.569  0.2957 -0.6290 -0.0474
  989MOL0     C36357   3.151   6.346   4.614  0.0657  0.3941 -0.4653
  989MOL0     C36358   3.265   6.333   4.713 -0.2889  0.6787  0.0591
  989MOL0     C36359   3.326   6.462   4.764  0.1727 -0.2024 -0.6299
  989MOL0     C36360   3.413   6.521   4.654 -0.0854  0.1572  0.2262
  989MOL0     N36361   3.482   6.646   4.698  0.0334 -0.3386  0.6538
  989MOL0     C36362   3.425   6.770   4.727  0.5454  0.5421  0.4933
  989MOL0     C36363   3.524   6.848   4.762 -0.0381 -0.4627  0.7260
  989MOL0     C36364   3.520   6.979   4.828  0.9072  0.3254  0.7427
  989MOL0     C36365   3.599   7.093   4.753  0.5931  0.6806  0.1565
  989MOL0     C36366   3.594   7.224   4.829  0.1115 -0.3687 -0.4451
  989MOL0     C36367   3.702   7.330   4.794 -0.3662  0.1944  0.4814
  989MOL0     O36368   3.691   7.371   4.661  0.4966  0.3465 -0.0248
  989MOL0     C36369   3.780   7.458   4.609  0.3104 -0.8028  0.1175
  989MOL0     C36370   3.838   7.569   4.675  0.1090 -0.6997  0.9571
  989MOL0     C36371   3.934   7.648   4.618  0.1439 -1.2305  0.1997
  989MOL0     C36372   3.986   7.758   4.707  0.5549  0.2795 -0.4916
  989MOL0     C36373   3.997   7.605   4.497  0.4537  0.3602 -0.4274
  989MOL0     C36374   4.124   7.658   4.431 -0.2572 -0.0246  0.1159
  989MOL0     O36375   4.200   7.744   4.511  0.3899 -1.0333  0.0429
  989MOL0     C36376   4.286   7.825   4.434 -0.2518  0.1958 -0.2602
  989MOL0     C36377   4.421   7.788   4.419  0.6473  0.4119 -0.2779
  989MOL0     C36378   4.511   7.868   4.352  0.8086 -0.4372 -0.0101
  989MOL0     C36379   4.481   7.992   4.301 -0.8488  0.4432  0.4513
  989MOL0     O36380   4.561   8.077   4.227 -0.0711  0.7625  0.2820
  989MOL0     C36381   4.706   8.059   4.222  0.5257  0.2440  0.0759
  989MOL0     C36382   4.760   8.195   4.168  1.1930  0.5084 -0.7192
  989MOL0     C36383   4.913   8.203   4.199  0.1755 -0.0948  1.1259
  989MOL0     C36384   4.981   8.296   4.091 -0.2154 -0.7986  0.0926
  989MOL0     C36385   5.129   8.310   4.108 -0.0408 -0.0105  0.7915
  989MOL0     C36386   5.204   8.408   4.014  0.4149 -0.2529 -0.5087
  989MOL0     C36387   5.336   8.447   4.080  0.2642 -0.6271  0.5484
  989MOL0     C36388   5.403   8.551   3.990  0.0447  0.3067  0.5543
  989MOL0    Cl36389   5.557   8.614   4.073  0.0622 -0.2442  0.0863
  989MOL0     C36390   4.339   8.020   4.302 -0.7331 -0.6519 -0.6990
  989MOL0     C36391   4.248   7.939   4.371  0.0404 -0.6476  0.6118
  989MOL0     O36392   4.142   7.641   4.313 -0.2791  0.1121 -0.4793
  989MOL0     C36393   3.939   7.505   4.430  0.4928  0.4699 -0.1369
  989MOL0     C36394   3.830   7.430   4.486 -0.7405  1.0085  0.0528
  989MOL0     N36395   3.646   6.775   4.747  0.0922 -0.3132 -0.2586
  989MOL0     N36396   3.622   6.660   4.696  0.0446 -0.1323 -0.0616
  989MOL0     C36397   2.530   5.990   4.191 -0.0834 -0.0459 -0.1356
  989MOL0     C36398   2.414   6.019   4.124 -0.0888 -0.2737  0.3480
  989MOL0     C36399   1.979   6.189   4.089  0.4346  0.5108 -0.3832
  989MOL0     C36400   1.901   6.308   4.047  0.3000 -0.3681 -0.1355
  989MOL0     C36401   1.777   6.293   3.980  0.1341  1.2255 -0.0228
  989MOL0     C36402   1.719   6.168   3.976  0.3927  0.6446  0.6401
  989MOL0     O36403   1.600   6.158   3.914  0.9758 -0.7300  0.6591
  989MOL0     C36404   1.516   6.039   3.930 -0.1801 -0.4255  0.2142
  989MOL0     C36405   1.365   6.054   3.913  0.0088  0.0020 -0.2745
  989MOL0     C36406   1.295   6.137   4.026 -0.4635 -0.4469  0.6926
  989MOL0     C36407   1.151   6.166   3.986 -0.0704  0.1857  0.4822
  989MOL0     C36408   1.083   6.049   3.924 -1.1131  0.2650  0.5410
  989MOL0     C36409   1.048   5.957   3.857  1.0750 -0.9836  0.3039
  989MOL0     C36410   1.786   6.053   4.022  0.8400 -0.4497 -0.2236
  989MOL0     C36411   1.915   6.063   4.071 -0.7166 -0.5112 -0.4364
  989MOL0     C36412   1.979   5.938   4.113  0.1739  0.7228 -0.6114
  989MOL0     H36413   2.262   6.171   4.391  1.0423  2.4256 -0.7929
  989MOL0     H36414   2.464   6.106   4.500  0.6689  2.6262 -0.5090
  989MOL0     H36415   2.687   6.190   4.471 -0.3481 -0.0572 -0.5603
  989MOL0     H36416   2.773   6.181   4.315  2.3747  0.6563  1.0676
  989MOL0     H36417   2.866   6.047   4.571  2.1883  2.6782  2.1199
  989MOL0     H36418   2.942   6.030   4.414  2.2698  0.1508  1.5416
  989MOL0     H36419   2.979   6.281   4.397 -1.0117 -2.1663 -0.4655
  989MOL0     H36420   2.894   6.297   4.556 -0.4951 -1.5937  0.7463
  989MOL0     H36421   3.081   6.147   4.661  3.8183 -4.2383 -1.5616
  989MOL0     H36422   3.159   6.145   4.507 -0.7482 -1.7563 -0.0693
  989MOL0     H36423   3.081   6.417   4.658  1.2659  0.9014  0.6834
  989MOL0     H36424   3.187   6.389   4.520  0.5969  0.1874 -0.3623
  989MOL0     H36425   3.225   6.274   4.796  0.0033 -1.8562 -1.5027
  989MOL0     H36426   3.338   6.265   4.667 -0.2747 -1.3797  2.8627
  989MOL0     H36427   3.396   6.422   4.838 -1.6118 -2.8111 -0.1869
  989MOL0     H36428   3.253   6.532   4.806  0.7490 -1.2010  2.3042
  989MOL0     H36429   3.483   6.448   4.612  0.5046  0.8549 -0.0223
  989MOL0     H36430   3.340   6.543   4.576 -1.4930 -3.7052  0.2598
  989MOL0     H36431   3.318   6.787   4.736  0.9102  2.3956  2.0326
  989MOL0     H36432   3.567   6.961   4.925  1.5744 -1.3595  0.1422
  989MOL0     H36433   3.415   7.009   4.827  0.4736 -0.9282 -2.7592
  989MOL0     H36434   3.704   7.061   4.762  0.6420  0.6557 -0.4337
  989MOL0     H36435   3.565   7.097   4.649 -2.3291  1.1296  1.0481
  989MOL0     H36436   3.491   7.263   4.823  0.3284  0.4452  0.6532
  989MOL0     H36437   3.615   7.206   4.935  1.8327  1.1539 -0.4714
  989MOL0     H36438   3.691   7.417   4.859  0.0159 -0.7916  1.9223
  989MOL0     H36439   3.803   7.290   4.806 -0.3691  0.4921  1.6479
  989MOL0     H36440   3.788   7.607   4.763  0.5811  0.4977  0.7333
  989MOL0     H36441   4.067   7.718   4.768  2.0203  1.5181 -1.5588
  989MOL0     H36442   3.909   7.792   4.778  1.2890  1.2817 -0.1464
  989MOL0     H36443   4.022   7.846   4.652  3.1359 -1.0541 -1.0745
  989MOL0     H36444   4.463   7.697   4.458  1.8156  0.0770 -2.1892
  989MOL0     H36445   4.614   7.837   4.336  0.4530 -1.8452  0.2858
  989MOL0     H36446   4.749   8.042   4.321 -0.8424  2.4173  1.1168
  989MOL0     H36447   4.723   7.973   4.157 -0.0866 -0.6456  1.0552
  989MOL0     H36448   4.734   8.197   4.062  0.9842  1.3443 -0.6533
  989MOL0     H36449   4.709   8.278   4.217  0.3985 -0.2619 -0.2005
  989MOL0     H36450   4.958   8.104   4.208  0.8561  0.1959  1.0075
  989MOL0     H36451   4.941   8.255   4.291 -1.8601  1.3379  1.0038
  989MOL0     H36452   4.940   8.397   4.102  1.0588 -0.1136 -1.1992
  989MOL0     H36453   4.957   8.259   3.991  1.3759 -0.3467 -0.4736
  989MOL0     H36454   5.156   8.345   4.208  1.8190  0.0596  0.3160
  989MOL0     H36455   5.175   8.211   4.094 -3.4798 -1.6779  0.1941
  989MOL0     H36456   5.139   8.495   4.000  3.1257  1.8490 -0.8130
  989MOL0     H36457   5.226   8.361   3.917  1.1261 -1.5259  0.2387
  989MOL0     H36458   5.410   8.370   4.100  1.4196  0.6131  1.2601
  989MOL0     H36459   5.313   8.498   4.174 -2.1715 -1.0155  0.2377
  989MOL0     H36460   5.330   8.629   3.966  0.2256  0.0177 -1.0370
  989MOL0     H36461   5.432   8.516   3.890  1.9835  1.6945  0.5873
  989MOL0     H36462   4.310   8.114   4.255 -2.0639 -0.6981 -0.0183
  989MOL0     H36463   4.141   7.959   4.368  0.1179  0.2058  2.4384
  989MOL0     H36464   3.978   7.449   4.345 -3.7836 -1.3651 -1.1750
  989MOL0     H36465   3.792   7.344   4.433 -0.8773  1.8333 -1.2347
  989MOL0     H36466   2.607   5.938   4.136 -0.4645 -2.3527  1.3919
  989MOL0     H36467   2.389   6.007   4.019 -2.2574  1.1769  0.6356
  989MOL0     H36468   1.932   6.411   4.058  0.3188 -0.3692 -0.1796
  989MOL0     H36469   1.731   6.381   3.936  0.9586  2.3329  1.2421
  989MOL0     H36470   1.553   5.965   3.857  1.0530 -1.8643  2.1828
  989MOL0     H36471   1.537   5.992   4.027  2.5947  2.5066  1.2212
  989MOL0     H36472   1.315   5.957   3.916 -0.1199  0.0904  1.0524
  989MOL0     H36473   1.342   6.107   3.820 -2.0524  1.6033  1.0409
  989MOL0     H36474   1.297   6.083   4.121 -0.7445  1.5324  1.8779
  989MOL0     H36475   1.353   6.229   4.036  1.6209 -1.6756  0.5028
  989MOL0     H36476   1.156   6.248   3.914 -5.6483  2.0400  1.7043
  989MOL0     H36477   1.101   6.204   4.075 -0.4836  1.8021 -0.4099
  989MOL0     H36478   1.022   5.877   3.790  2.3136 -0.8798 -0.3200
  989MOL0     H36479   1.748   5.952   4.010  1.4368 -0.5251 -1.8138
  989MOL0     H36480   2.034   5.893   4.030 -0.2295 -3.1905  1.0440
  989MOL0     H36481   2.044   5.955   4.199  1.4817 -1.0718 -1.1922
  989MOL0     H36482   1.899   5.871   4.147 -0.1167  1.1725 -0.3851
  990MOL0     O36483   8.266   0.665   5.370  0.4838 -0.6041 -0.4073
  990MOL0     C36484   8.294   0.674   5.489 -1.1997 -0.4971 -0.1523
  990MOL0     O36485   8.378   0.768   5.549  0.1662 -1.0649  0.5998
  990MOL0     C36486   8.461   0.839   5.469 -0.9862  0.3600 -0.7870
  990MOL0     C36487   8.598   0.837   5.504  0.8996  0.4977  0.5814
  990MOL0     C36488   8.691   0.898   5.423  0.5792 -0.6744 -0.9334
  990MOL0     C36489   8.656   0.947   5.296  1.1618  0.3330  0.0738
  990MOL0     O36490   8.756   1.000   5.224  0.2938 -0.2767  0.1913
  990MOL0     C36491   8.725   1.066   5.099 -0.4887 -0.2523  0.6224
  990MOL0     C36492   8.851   1.119   5.029  0.0209  0.0194  0.6421
  990MOL0     C36493   8.819   1.243   4.945 -0.2828 -0.6342  0.6226
  990MOL0     C36494   8.934   1.286   4.853  0.2584  0.0961 -0.4011
  990MOL0     C36495   8.889   1.387   4.753 -0.3055  0.1259 -0.2492
  990MOL0     C36496   9.009   1.406   4.652 -0.3084 -0.2935  0.2597
  990MOL0     C36497   8.971   1.465   4.514 -0.1916 -0.1310  0.4705
  990MOL0     C36498   9.100   1.487   4.425 -0.6532  0.5095 -0.0393
  990MOL0     N36499   9.160   1.360   4.378  0.5308  0.0046  0.1156
  990MOL0     C36500   9.144   1.297   4.262 -0.1816 -0.0880  0.4849
  990MOL0     C36501   9.231   1.186   4.267  0.1727 -1.3441 -0.1285
  990MOL0     C36502   9.228   1.091   4.151 -0.1181 -0.6659  0.2327
  990MOL0     C36503   9.347   1.114   4.045  0.3599 -0.2208  0.8527
  990MOL0     C36504   9.342   1.018   3.926 -0.4898  0.5260 -0.0906
  990MOL0     C36505   9.477   1.008   3.846  0.5361 -0.5853  0.0759
  990MOL0     O36506   9.598   1.010   3.924  0.2305 -0.2640  0.4748
  990MOL0     C36507   9.708   1.006   3.852 -0.2277 -0.3297  0.2605
  990MOL0     C36508   9.720   1.013   3.705  0.8313 -0.5337  0.0256
  990MOL0     C36509   9.851   1.027   3.649 -0.5677 -0.6856  1.0586
  990MOL0     C36510   9.863   1.053   3.503  0.5959 -0.7694  0.1738
  990MOL0     C36511   9.967   1.017   3.732 -0.3688 -0.2336 -1.4450
  990MOL0     C36512  10.103   1.005   3.685 -0.6354  0.1739 -0.7006
  990MOL0     O36513  10.113   0.969   3.555 -0.5054  0.3677 -0.0208
  990MOL0     C36514  10.241   0.951   3.518 -0.0425 -0.8379  0.4195
  990MOL0     C36515  10.300   0.828   3.534  0.5496 -0.3248 -0.1153
  990MOL0     C36516  10.431   0.816   3.517 -0.0206 -0.4159  0.0017
  990MOL0     C36517  10.511   0.919   3.472  0.0917  0.0124  0.3149
  990MOL0     O36518  10.651   0.915   3.440 -0.0711  0.7050  0.1112
  990MOL0     C36519  10.716   0.788   3.457 -0.2897 -0.1266  1.0233
  990MOL0     C36520  10.867   0.810   3.434  0.4148 -0.6796 -0.7470
  990MOL0     C36521  10.959   0.696   3.478  0.0805  0.0296  0.5471
  990MOL0     C36522  11.102   0.711   3.422 -0.5172  0.3935 -0.2016
  990MOL0     C36523  11.220   0.633   3.490 -0.7479  0.0968  0.2917
  990MOL0     C36524  11.356   0.665   3.427  0.6573  0.0512  0.5122
  990MOL0     C36525  11.465   0.601   3.508 -0.3494 -0.3359 -0.3495
  990MOL0     C36526  11.606   0.658   3.462  0.1484  0.0005  0.5772
  990MOL0    Cl36527  11.638   0.597   3.295 -0.7371  0.2246  0.1492
  990MOL0     C36528  10.443   1.046   3.445 -0.9035  0.3757  0.5857
  990MOL0     C36529  10.306   1.066   3.476 -1.1538 -0.4742 -0.2986
  990MOL0     O36530  10.197   1.028   3.767  1.1935 -0.3893 -0.9476
  990MOL0     C36531   9.947   1.010   3.872 -1.1239  0.0464  0.1392
  990MOL0     C36532   9.825   1.016   3.928  0.7886  0.0646 -0.0821
  990MOL0     N36533   9.297   1.191   4.383 -0.4297  0.5863 -0.2816
  990MOL0     N36534   9.266   1.302   4.438 -0.5692 -0.0428 -0.4902
  990MOL0     C36535   8.521   0.948   5.259 -0.3481 -0.5207 -0.0931
  990MOL0     C36536   8.424   0.892   5.349 -0.1006 -0.3218 -0.0868
  990MOL0     C36537   8.231   0.580   5.582 -0.2841 -0.8737  0.9505
  990MOL0     C36538   8.311   0.503   5.663 -0.5433 -0.1895 -0.2548
  990MOL0     C36539   8.253   0.403   5.743 -0.0359  0.1680 -0.4861
  990MOL0     C36540   8.112   0.383   5.746  0.5077 -0.0166  0.7830
  990MOL0     O36541   8.067   0.291   5.837  0.2958 -0.1432  0.0121
  990MOL0     C36542   7.932   0.250   5.831  0.6167 -0.5676  0.7582
  990MOL0     C36543   7.910   0.102   5.866 -0.2565 -0.9348  0.3569
  990MOL0     C36544   7.989   0.061   5.987  1.0342 -0.6883 -0.1310
  990MOL0     C36545   7.958  -0.081   6.027  0.3419  0.5916  0.9901
  990MOL0     C36546   8.024  -0.113   6.153  0.0830 -1.4766  0.1816
  990MOL0     C36547   8.079  -0.144   6.256 -0.1285 -0.6508  0.5979
  990MOL0     C36548   8.030   0.467   5.669  0.4460  0.0561 -0.7191
  990MOL0     C36549   8.094   0.565   5.586  0.3802  0.1456  0.3222
  990MOL0     C36550   8.000   0.646   5.500  0.1610  0.3915 -0.0435
  990MOL0     H36551   8.626   0.790   5.598 -1.2204 -1.7594  0.1881
  990MOL0     H36552   8.791   0.896   5.464  0.4207  0.3335 -0.4669
  990MOL0     H36553   8.660   1.151   5.119  0.5200  0.9201 -0.8699
  990MOL0     H36554   8.680   0.998   5.027  2.5609 -1.4607 -0.3065
  990MOL0     H36555   8.922   1.156   5.104  4.4653 -3.2009 -1.5738
  990MOL0     H36556   8.891   1.036   4.970  0.6869 -1.0272  2.4911
  990MOL0     H36557   8.725   1.220   4.894 -1.1803  0.2128  1.8172
  990MOL0     H36558   8.800   1.324   5.017 -1.4661  1.4602 -1.8592
  990MOL0     H36559   9.012   1.321   4.921 -0.6679 -1.5455  1.6272
  990MOL0     H36560   8.982   1.197   4.812 -1.4067 -1.5904  1.0894
  990MOL0     H36561   8.874   1.482   4.805  2.3891  0.6256 -0.2018
  990MOL0     H36562   8.791   1.369   4.708  0.0458  1.2712 -1.5375
  990MOL0     H36563   9.095   1.463   4.690  0.3012 -1.0904  0.0864
  990MOL0     H36564   9.036   1.303   4.630 -2.6745 -0.4802 -2.3494
  990MOL0     H36565   8.920   1.560   4.527  0.3637  0.2060  0.2415
  990MOL0     H36566   8.912   1.389   4.462  2.7406 -1.6244 -0.9941
  990MOL0     H36567   9.076   1.555   4.343 -2.2374 -0.0783 -0.1024
  990MOL0     H36568   9.167   1.546   4.489  0.4765 -0.0593 -0.6614
  990MOL0     H36569   9.073   1.328   4.185 -0.1159  0.9819  0.8348
  990MOL0     H36570   9.128   1.097   4.108 -0.2818 -1.7087  0.4408
  990MOL0     H36571   9.234   0.987   4.184  0.5820 -0.5492  0.5086
  990MOL0     H36572   9.333   1.216   4.008 -0.5294  0.5989  3.2813
  990MOL0     H36573   9.441   1.105   4.101  0.2709 -1.2961  0.8503
  990MOL0     H36574   9.301   0.920   3.952 -1.7946  1.2293  0.5699
  990MOL0     H36575   9.266   1.063   3.861  1.2895  3.6750 -0.1654
  990MOL0     H36576   9.476   0.923   3.777 -2.1735  1.0273 -2.0688
  990MOL0     H36577   9.477   1.101   3.788  0.4830  0.2348  1.3491
  990MOL0     H36578   9.641   1.044   3.638  2.0697  3.0595  0.0171
  990MOL0     H36579   9.939   1.122   3.466  1.3655 -1.9047 -0.4107
  990MOL0     H36580   9.769   1.105   3.480  2.1225  2.0779 -0.0807
  990MOL0     H36581   9.867   0.959   3.448  1.1643 -0.3867 -0.4474
  990MOL0     H36582  10.238   0.743   3.561  0.5075 -1.4827 -3.4152
  990MOL0     H36583  10.473   0.719   3.542  1.0276  0.4728  1.9455
  990MOL0     H36584  10.701   0.749   3.559 -2.1179  0.6033  1.0747
  990MOL0     H36585  10.666   0.713   3.394 -2.2012  1.0280  1.1013
  990MOL0     H36586  10.866   0.825   3.325  1.1981  1.3671 -0.5228
  990MOL0     H36587  10.889   0.910   3.473  1.1613 -0.2258 -2.2428
  990MOL0     H36588  10.911   0.602   3.450 -0.3655  0.2889  0.4371
  990MOL0     H36589  10.952   0.710   3.586 -1.8930  2.8454  0.1707
  990MOL0     H36590  11.134   0.815   3.426  0.4517  0.0714  1.2164
  990MOL0     H36591  11.098   0.674   3.319 -0.7734  2.1640 -0.8662
  990MOL0     H36592  11.234   0.667   3.592 -0.1217  1.4278 -0.2225
  990MOL0     H36593  11.189   0.528   3.485  0.0556 -0.1112 -0.4967
  990MOL0     H36594  11.365   0.773   3.420  0.1948  0.0885  0.4154
  990MOL0     H36595  11.351   0.622   3.326 -4.8408  1.0852 -0.0102
  990MOL0     H36596  11.461   0.493   3.488  0.4402 -0.1986 -1.3042
  990MOL0     H36597  11.453   0.615   3.616 -0.4619 -1.0970 -0.2556
  990MOL0     H36598  11.687   0.632   3.531  1.3828 -0.5371 -0.9979
  990MOL0     H36599  11.597   0.767   3.451  2.9773  0.1535 -1.7516
  990MOL0     H36600  10.511   1.119   3.402 -0.3065 -1.1958 -1.3408
  990MOL0     H36601  10.253   1.155   3.446 -1.9480 -1.1083 -0.8209
  990MOL0     H36602  10.027   1.015   3.945 -1.4334  1.0871  0.4294
  990MOL0     H36603   9.818   1.030   4.036 -0.8432  0.5384 -0.2123
  990MOL0     H36604   8.494   0.977   5.159  2.5731 -1.4182 -1.2648
  990MOL0     H36605   8.320   0.897   5.318 -0.4967  0.1502  1.2608
  990MOL0     H36606   8.419   0.518   5.666 -0.6016  0.3619 -0.6269
  990MOL0     H36607   8.319   0.340   5.802  0.8218  0.7382 -0.8066
  990MOL0     H36608   7.867   0.306   5.899 -0.5412 -0.6874 -0.2121
  990MOL0     H36609   7.885   0.279   5.737  1.7212  1.2950  0.7188
  990MOL0     H36610   7.946   0.048   5.778  2.2359  0.1622  0.6107
  990MOL0     H36611   7.805   0.072   5.875 -1.5991  1.8786 -3.2578
  990MOL0     H36612   8.096   0.076   5.974  0.8032  0.9209 -0.3225
  990MOL0     H36613   7.951   0.121   6.071 -0.8335 -4.2277  1.8377
  990MOL0     H36614   7.996  -0.143   5.945  0.3802  0.3072  1.2241
  990MOL0     H36615   7.850  -0.094   6.038  0.3061 -1.7402 -1.0737
  990MOL0     H36616   8.116  -0.177   6.351  0.2140  2.5837  1.6934
  990MOL0     H36617   7.921   0.465   5.672  0.4687 -0.2973  0.2603
  990MOL0     H36618   8.016   0.628   5.393  1.4301  0.9626  0.0314
  990MOL0     H36619   7.894   0.624   5.515 -0.3047  2.1578 -0.5128
  990MOL0     H36620   8.024   0.752   5.513 -0.0748  0.4656 -0.2124
  991MOL0     O36621   7.565   8.174  10.742 -0.4408  0.4394  0.9168
  991MOL0     C36622   7.582   8.290  10.785 -0.7506  0.1696 -0.4542
  991MOL0     O36623   7.707   8.330  10.840 -0.0398  0.4455 -0.1119
  991MOL0     C36624   7.823   8.254  10.830  1.3918  1.1073  0.5104
  991MOL0     C36625   7.939   8.335  10.829 -0.1761 -0.2484  0.8990
  991MOL0     C36626   8.062   8.284  10.799  0.4147 -0.2865 -0.5379
  991MOL0     C36627   8.079   8.150  10.790  0.3602 -0.4791 -0.3471
  991MOL0     O36628   8.209   8.113  10.783 -0.3166  0.7296 -0.5586
  991MOL0     C36629   8.247   7.986  10.717  0.7697 -0.2274 -0.6601
  991MOL0     C36630   8.397   7.980  10.693 -0.8838  0.2793  0.1301
  991MOL0     C36631   8.470   8.018  10.826  0.4266 -0.4278  0.2296
  991MOL0     C36632   8.617   8.052  10.805 -0.4432  1.1105  0.3076
  991MOL0     C36633   8.701   7.928  10.772 -0.7487 -0.0717 -0.0446
  991MOL0     C36634   8.846   7.965  10.789 -0.2347  0.8102 -0.0192
  991MOL0     C36635   8.941   7.846  10.797 -0.1566  0.9303  0.6111
  991MOL0     C36636   9.083   7.898  10.828 -0.8808  0.5701 -0.5244
  991MOL0     N36637   9.191   7.814  10.790  0.0805 -0.3641  0.3663
  991MOL0     C36638   9.283   7.837  10.686  0.2251 -0.3932  0.4958
  991MOL0     C36639   9.393   7.770  10.723  0.7938 -0.1533  0.2290
  991MOL0     C36640   9.511   7.750  10.641 -0.4527  0.1202  0.1181
  991MOL0     C36641   9.521   7.598  10.597 -0.7888  0.0075  0.2845
  991MOL0     C36642   9.402   7.551  10.509  0.1511  1.1033 -0.7328
  991MOL0     C36643   9.411   7.406  10.463  0.3089  0.1191 -0.3553
  991MOL0     O36644   9.533   7.377  10.411 -0.5703  0.4720  0.7706
  991MOL0     C36645   9.561   7.251  10.377 -0.0897  1.2550 -0.4876
  991MOL0     C36646   9.689   7.215  10.318  0.5426  0.1219 -0.3122
  991MOL0     C36647   9.725   7.090  10.292 -0.3206  0.4956  0.8131
  991MOL0     C36648   9.869   7.070  10.234  0.2659 -0.1937  0.6357
  991MOL0     C36649   9.639   6.979  10.316  0.1762 -0.4866 -0.1263
  991MOL0     C36650   9.673   6.838  10.287 -0.6238 -0.8226 -0.6619
  991MOL0     O36651   9.589   6.737  10.326 -0.4514 -0.0286  0.0554
  991MOL0     C36652   9.623   6.601  10.319  0.6709 -0.1901 -1.0176
  991MOL0     C36653   9.752   6.537  10.319  0.5809  0.0168  0.6262
  991MOL0     C36654   9.761   6.396  10.334  0.0240 -0.2533  0.1738
  991MOL0     C36655   9.642   6.322  10.328  0.3725 -0.3115  0.0068
  991MOL0     O36656   9.646   6.188  10.350  0.4863 -0.0178 -0.5161
  991MOL0     C36657   9.572   6.149  10.466  0.0361 -0.0225 -0.3620
  991MOL0     C36658   9.656   6.044  10.546  0.7591  0.1611  0.3560
  991MOL0     C36659   9.761   6.111  10.633  0.3650  0.0627  0.0432
  991MOL0     C36660   9.702   6.177  10.755  0.1393  0.3759  0.5670
  991MOL0     C36661   9.819   6.236  10.838 -0.2513 -0.2984 -0.5210
  991MOL0     C36662   9.898   6.145  10.931 -0.3226  0.3628  0.0469
  991MOL0     C36663   9.960   6.216  11.048  0.7551  0.2190 -0.1963
  991MOL0     C36664  10.063   6.127  11.125  0.2430 -0.3333 -0.2117
  991MOL0    Cl36665  10.188   6.241  11.204 -0.1441 -0.3050  0.0452
  991MOL0     C36666   9.518   6.383  10.329 -0.2613  0.4921  0.7409
  991MOL0     C36667   9.511   6.521  10.330  0.1514 -0.9226  0.6779
  991MOL0     O36668   9.784   6.820  10.231  0.0187 -0.3756 -0.5796
  991MOL0     C36669   9.516   7.017  10.374  0.9533  0.5209 -0.4469
  991MOL0     C36670   9.472   7.147  10.405 -0.5256  0.0875 -0.6825
  991MOL0     N36671   9.364   7.698  10.838 -0.1184 -0.0226  0.0788
  991MOL0     N36672   9.242   7.722  10.875 -0.3810 -0.5884  0.0674
  991MOL0     C36673   7.967   8.066  10.786 -0.3365  0.4841 -0.1756
  991MOL0     C36674   7.843   8.115  10.813  0.5144  0.2879 -0.7747
  991MOL0     C36675   7.465   8.389  10.794  0.0425 -0.5362 -1.6131
  991MOL0     C36676   7.492   8.508  10.861 -0.4181 -0.6530  0.3928
  991MOL0     C36677   7.406   8.611  10.872  0.6291 -0.1929 -0.1001
  991MOL0     C36678   7.273   8.584  10.838  0.5910 -0.7011  0.1844
  991MOL0     O36679   7.189   8.692  10.829 -0.0644  0.2187  0.0195
  991MOL0     C36680   7.045   8.679  10.835 -0.2241 -0.9708 -0.4992
  991MOL0     C36681   7.000   8.708  10.978 -1.0276 -0.1526 -0.4185
  991MOL0     C36682   6.853   8.698  10.981  0.7820  0.1592 -0.5184
  991MOL0     C36683   6.784   8.766  11.098  0.4060  0.4302 -0.2111
  991MOL0     C36684   6.833   8.724  11.232 -0.0685  0.2483 -0.0484
  991MOL0     C36685   6.868   8.679  11.339  0.6034 -0.1888 -0.1117
  991MOL0     C36686   7.239   8.456  10.801 -0.4041 -0.4964  0.1775
  991MOL0     C36687   7.332   8.355  10.771 -0.5407 -0.1645 -1.0244
  991MOL0     C36688   7.275   8.223  10.727 -0.4740  0.2440  0.2928
  991MOL0     H36689   7.935   8.443  10.838  0.7346 -0.0613 -0.5908
  991MOL0     H36690   8.147   8.350  10.787 -2.5404  3.6787 -1.8847
  991MOL0     H36691   8.202   7.976  10.618  1.5081  2.9497 -1.4326
  991MOL0     H36692   8.211   7.898  10.771 -1.3571  1.4490  0.8453
  991MOL0     H36693   8.416   7.873  10.683 -0.8433  0.0070  2.5847
  991MOL0     H36694   8.439   8.050  10.620  1.5384  1.4782  2.4626
  991MOL0     H36695   8.422   8.107  10.866  2.0999  1.0552 -0.9297
  991MOL0     H36696   8.458   7.935  10.896  0.9056 -1.4331 -0.8457
  991MOL0     H36697   8.623   8.117  10.717 -0.7979 -0.5356 -0.9846
  991MOL0     H36698   8.654   8.109  10.891 -3.1573  3.0224  0.3482
  991MOL0     H36699   8.684   7.903  10.667 -0.4647  1.9626 -0.6182
  991MOL0     H36700   8.670   7.850  10.842  0.0452  1.8650  2.5845
  991MOL0     H36701   8.875   8.036  10.710  0.9129 -0.7294 -1.0454
  991MOL0     H36702   8.849   8.014  10.887 -1.6325 -0.7715  0.8650
  991MOL0     H36703   8.947   7.797  10.699  1.4635  0.8365  0.7345
  991MOL0     H36704   8.920   7.764  10.865 -2.5280  1.3110  0.4175
  991MOL0     H36705   9.100   7.995  10.780  1.1103 -1.0814 -3.3736
  991MOL0     H36706   9.098   7.907  10.936 -1.3769  0.9909 -0.4839
  991MOL0     H36707   9.277   7.895  10.594  1.7554  1.0439  1.2566
  991MOL0     H36708   9.595   7.764  10.710 -0.6539  2.4394 -0.0553
  991MOL0     H36709   9.521   7.822  10.560  2.3041  1.3638  1.4106
  991MOL0     H36710   9.619   7.576  10.553 -1.7362 -3.9051 -0.2072
  991MOL0     H36711   9.524   7.536  10.687  0.6215  0.6585  0.7186
  991MOL0     H36712   9.307   7.562  10.563 -0.1046  2.0205 -1.3480
  991MOL0     H36713   9.417   7.608  10.417  1.3652  0.1951 -1.1177
  991MOL0     H36714   9.388   7.350  10.554 -1.0343  1.2005  0.0193
  991MOL0     H36715   9.328   7.382  10.395 -0.4301  3.2222 -0.6881
  991MOL0     H36716   9.752   7.299  10.293 -1.1163  1.0819 -1.4645
  991MOL0     H36717   9.932   7.160  10.231  0.2670 -0.2104 -1.4369
  991MOL0     H36718   9.859   7.049  10.127  0.8907  0.7834  0.3726
  991MOL0     H36719   9.921   6.993  10.292 -1.4927 -3.5322 -1.9175
  991MOL0     H36720   9.848   6.589  10.319  0.4243  0.3186 -0.1525
  991MOL0     H36721   9.857   6.345  10.338  0.5439  0.7623  1.0690
  991MOL0     H36722   9.548   6.236  10.527  0.6603 -0.3229  0.3248
  991MOL0     H36723   9.482   6.109  10.418 -0.3674 -0.1203  0.4570
  991MOL0     H36724   9.589   5.981  10.607  3.2537 -2.0337  1.0202
  991MOL0     H36725   9.702   5.971  10.479 -3.3400 -3.0300  0.5418
  991MOL0     H36726   9.814   6.183  10.570  2.8144 -0.8961  0.8797
  991MOL0     H36727   9.842   6.044  10.664  1.3247  2.0841  2.2277
  991MOL0     H36728   9.631   6.108  10.802 -2.7771  0.8660 -2.6693
  991MOL0     H36729   9.641   6.261  10.719  0.9526  1.0133  0.6520
  991MOL0     H36730   9.895   6.282  10.774 -1.8641  0.4433 -1.9797
  991MOL0     H36731   9.770   6.314  10.896 -0.6060 -1.5169  0.9022
  991MOL0     H36732   9.976   6.094  10.873 -1.5879 -1.0494 -0.5058
  991MOL0     H36733   9.834   6.071  10.980 -1.3525 -0.0473 -1.8071
  991MOL0     H36734   9.896   6.247  11.131  0.1958 -2.9250  0.6736
  991MOL0     H36735  10.016   6.304  11.014  1.1418  0.3302  0.7042
  991MOL0     H36736  10.117   6.063  11.054  0.2396 -0.3525 -0.1964
  991MOL0     H36737  10.006   6.069  11.197 -1.5480  1.2740 -0.2576
  991MOL0     H36738   9.429   6.320  10.328 -2.1861  3.0497  1.6837
  991MOL0     H36739   9.415   6.572  10.334  0.3919 -0.1952 -1.4648
  991MOL0     H36740   9.440   6.944  10.401 -0.8158  2.0249 -1.1137
  991MOL0     H36741   9.373   7.168  10.444 -0.8272 -2.0130 -0.1995
  991MOL0     H36742   7.992   7.962  10.771 -0.6884  0.7553 -3.0631
  991MOL0     H36743   7.754   8.056  10.825  1.0064 -0.2421  0.4260
  991MOL0     H36744   7.589   8.536  10.903 -1.9127  0.4691  3.3721
  991MOL0     H36745   7.428   8.706  10.920 -1.5655  0.4187 -0.1716
  991MOL0     H36746   7.001   8.744  10.759  1.1821 -0.4471 -0.8890
  991MOL0     H36747   7.023   8.573  10.819  0.5828 -1.0983 -0.8284
  991MOL0     H36748   7.036   8.810  10.992  2.3195 -1.0823 -1.3432
  991MOL0     H36749   7.048   8.646  11.054 -0.2854 -2.0222 -2.2842
  991MOL0     H36750   6.818   8.751  10.892 -1.3420  2.1193  1.3609
  991MOL0     H36751   6.827   8.592  10.985  2.4170 -0.2459  0.8847
  991MOL0     H36752   6.675   8.758  11.091  0.4870 -2.4274  0.3091
  991MOL0     H36753   6.813   8.870  11.084  1.8026 -0.1239 -1.8014
  991MOL0     H36754   6.903   8.631  11.429  0.6044  0.3031  0.1530
  991MOL0     H36755   7.140   8.433  10.761  0.0512  0.1244 -1.3841
  991MOL0     H36756   7.306   8.137  10.785  1.5133  0.2579 -0.6729
  991MOL0     H36757   7.166   8.230  10.717 -0.4565  0.6305  0.3484
  991MOL0     H36758   7.306   8.198  10.625 -3.1837 -1.0219 -0.3185
  992MOL0     O36759   8.508   4.118   1.216  0.3869  0.2438  0.1840
  992MOL0     C36760   8.420   4.035   1.209  0.2826  0.1480 -0.1631
  992MOL0     O36761   8.381   3.957   1.314 -0.9982  0.8917 -0.2666
  992MOL0     C36762   8.453   3.975   1.430  0.2335 -0.1287  0.2656
  992MOL0     C36763   8.377   3.981   1.540 -0.1690  0.1923 -0.1073
  992MOL0     C36764   8.436   3.987   1.668  0.3393  0.0079 -0.2723
  992MOL0     C36765   8.576   3.978   1.682 -0.2103 -0.8202  1.2395
  992MOL0     O36766   8.618   3.986   1.815 -0.5044 -0.1928 -0.1240
  992MOL0     C36767   8.736   3.906   1.833  0.1788  0.2769  0.0543
  992MOL0     C36768   8.752   3.874   1.981 -0.4052  0.1976 -0.7136
  992MOL0     C36769   8.903   3.851   2.004 -0.3309 -0.0188 -0.1209
  992MOL0     C36770   8.921   3.764   2.127 -0.3676  0.3004  0.3531
  992MOL0     C36771   9.064   3.740   2.145 -0.6390  0.7602 -0.5194
  992MOL0     C36772   9.108   3.650   2.269  0.2686  0.3824 -0.7711
  992MOL0     C36773   9.069   3.504   2.249 -0.8805 -0.8335 -0.1940
  992MOL0     C36774   9.098   3.413   2.370 -0.2051  0.2828  0.5156
  992MOL0     N36775   9.241   3.417   2.413 -0.3250 -0.9436 -0.2851
  992MOL0     C36776   9.350   3.407   2.327 -0.3178  0.0107 -0.4473
  992MOL0     C36777   9.450   3.428   2.413  0.4777  0.1214 -0.3384
  992MOL0     C36778   9.590   3.457   2.354 -0.4710 -0.3159  0.5506
  992MOL0     C36779   9.716   3.416   2.439 -0.4779  0.9644 -0.3173
  992MOL0     C36780   9.851   3.426   2.361 -1.1327  0.5173 -0.3731
  992MOL0     C36781   9.970   3.373   2.443 -0.1747 -0.4324 -0.5039
  992MOL0     O36782  10.094   3.426   2.388  0.2632  0.5985 -0.1286
  992MOL0     C36783  10.209   3.422   2.469  0.0258  0.1045 -0.4247
  992MOL0     C36784  10.322   3.463   2.410  0.2104 -0.1923  0.3940
  992MOL0     C36785  10.446   3.448   2.470  0.6043 -0.4840  0.0504
  992MOL0     C36786  10.560   3.480   2.386  0.0401  0.0104  0.2679
  992MOL0     C36787  10.456   3.395   2.601  0.4885 -0.5035  0.4332
  992MOL0     C36788  10.576   3.355   2.669  0.3698  0.4793 -0.0692
  992MOL0     O36789  10.692   3.348   2.590  0.5801  0.1730 -0.4273
  992MOL0     C36790  10.803   3.280   2.620  1.2505 -0.6244  0.9802
  992MOL0     C36791  10.793   3.160   2.690 -0.0018  0.2905 -1.0860
  992MOL0     C36792  10.914   3.107   2.738  0.5438  0.6990  0.0928
  992MOL0     C36793  11.043   3.162   2.708  0.4757 -0.1116  0.0072
  992MOL0     O36794  11.160   3.113   2.763  0.1574  0.4310  0.7013
  992MOL0     C36795  11.155   3.096   2.911 -0.3991  0.2799  0.1706
  992MOL0     C36796  11.139   3.219   2.996 -0.5193 -0.6033 -0.3270
  992MOL0     C36797  11.261   3.310   3.027 -0.2677  0.2474  0.7987
  992MOL0     C36798  11.378   3.232   3.106 -0.5334 -0.0533 -0.2117
  992MOL0     C36799  11.466   3.334   3.174 -0.2109 -0.4626 -0.0146
  992MOL0     C36800  11.567   3.259   3.276 -0.2501 -0.2308 -0.0216
  992MOL0     C36801  11.655   3.373   3.331 -1.6341 -1.2364 -0.0745
  992MOL0     C36802  11.771   3.339   3.412  0.0918  0.1252  0.4264
  992MOL0    Cl36803  11.704   3.246   3.545 -0.3609 -0.4125  0.1216
  992MOL0     C36804  11.036   3.260   2.611  0.2459 -0.0870  0.2346
  992MOL0     C36805  10.922   3.318   2.564 -0.3279  0.3796  0.3868
  992MOL0     O36806  10.576   3.354   2.793 -0.5656  0.6741  0.0272
  992MOL0     C36807  10.329   3.376   2.675 -0.4929  0.6884  0.2461
  992MOL0     C36808  10.205   3.373   2.604 -0.2947  0.1285 -0.1651
  992MOL0     N36809   9.413   3.424   2.542  0.7435  0.2708  0.5423
  992MOL0     N36810   9.286   3.415   2.546 -0.5077  0.1111  0.1134
  992MOL0     C36811   8.656   3.983   1.563 -0.4179  0.5970  0.1650
  992MOL0     C36812   8.585   3.970   1.439 -0.2180  0.3715  0.5044
  992MOL0     C36813   8.347   4.017   1.082  0.1031  0.6484  0.4814
  992MOL0     C36814   8.248   3.916   1.081  0.6397 -0.4532 -0.3242
  992MOL0     C36815   8.173   3.879   0.968 -0.4321  0.1667 -0.9893
  992MOL0     C36816   8.192   3.956   0.855  0.2821 -0.4248  0.0410
  992MOL0     O36817   8.126   3.933   0.740 -0.0937  0.1701 -0.0569
  992MOL0     C36818   8.051   3.807   0.728 -0.7277 -0.9745  0.2541
  992MOL0     C36819   7.948   3.805   0.605  0.1709  0.5137 -0.2384
  992MOL0     C36820   7.827   3.900   0.609  0.3440 -0.2582 -0.4817
  992MOL0     C36821   7.721   3.851   0.719 -0.4929  0.4679 -0.3869
  992MOL0     C36822   7.613   3.946   0.707 -0.0184  0.5007 -0.3087
  992MOL0     C36823   7.531   4.037   0.691 -0.3896  0.7588  0.5534
  992MOL0     C36824   8.274   4.067   0.853 -0.3882  0.3535 -0.0525
  992MOL0     C36825   8.358   4.098   0.964 -0.9102  1.3553  0.1564
  992MOL0     C36826   8.447   4.221   0.946  0.2054  0.0324 -0.8622
  992MOL0     H36827   8.268   3.980   1.541 -0.1905 -0.5652 -1.0837
  992MOL0     H36828   8.371   3.987   1.754 -0.3715 -0.0171 -0.8010
  992MOL0     H36829   8.817   3.957   1.781 -0.3585  0.0005 -1.0866
  992MOL0     H36830   8.722   3.815   1.774 -1.6925  1.9794 -2.3460
  992MOL0     H36831   8.705   3.952   2.042 -2.1267 -0.2300 -1.4369
  992MOL0     H36832   8.707   3.777   2.003  1.7972 -0.7793 -0.3388
  992MOL0     H36833   8.951   3.797   1.922  0.8901 -0.5988  0.9432
  992MOL0     H36834   8.954   3.948   2.007  0.5025 -0.4667  1.1620
  992MOL0     H36835   8.868   3.811   2.211 -1.1801 -1.3279  0.7898
  992MOL0     H36836   8.865   3.671   2.119 -0.2504  0.2476  0.1533
  992MOL0     H36837   9.123   3.830   2.161  2.0981 -1.2806  2.0304
  992MOL0     H36838   9.102   3.692   2.054  0.2753  0.3478  0.0642
  992MOL0     H36839   9.211   3.667   2.301 -0.5582 -0.0910  2.6270
  992MOL0     H36840   9.060   3.686   2.361 -0.2831 -2.9830  0.4030
  992MOL0     H36841   9.135   3.474   2.168 -0.0846 -0.9891  0.5010
  992MOL0     H36842   8.965   3.486   2.221 -0.7283 -1.4336 -0.3801
  992MOL0     H36843   9.028   3.438   2.451 -1.5667 -2.5807  0.3352
  992MOL0     H36844   9.066   3.314   2.336  1.2387  0.8010 -2.7380
  992MOL0     H36845   9.358   3.407   2.219 -0.8687 -0.3611 -0.4934
  992MOL0     H36846   9.577   3.563   2.333 -0.1524 -0.8040 -2.4485
  992MOL0     H36847   9.605   3.406   2.259  0.8974  0.6223  0.2403
  992MOL0     H36848   9.726   3.468   2.535 -1.8657 -0.9039  0.9076
  992MOL0     H36849   9.710   3.309   2.462  0.5164  1.1438  0.9121
  992MOL0     H36850   9.852   3.368   2.268 -0.1553  2.7766 -1.8631
  992MOL0     H36851   9.865   3.529   2.328 -0.2106 -0.3950 -3.0886
  992MOL0     H36852   9.954   3.418   2.542 -1.0187  0.5241 -1.0555
  992MOL0     H36853   9.965   3.265   2.459 -2.0564 -0.2797  0.1847
  992MOL0     H36854  10.317   3.503   2.309 -1.5091  0.9382  0.8693
  992MOL0     H36855  10.615   3.539   2.459 -1.2565 -1.8470  2.9089
  992MOL0     H36856  10.529   3.529   2.293 -3.0155 -2.1415  0.0078
  992MOL0     H36857  10.603   3.383   2.359 -3.5624 -0.5842 -4.7483
  992MOL0     H36858  10.696   3.119   2.717  1.0433 -0.7536  1.3097
  992MOL0     H36859  10.908   3.013   2.792  0.1028  0.4343 -0.4113
  992MOL0     H36860  11.070   3.030   2.931  0.7343 -2.2304 -2.5235
  992MOL0     H36861  11.243   3.044   2.948 -0.1799  2.8235  3.6848
  992MOL0     H36862  11.051   3.277   2.966  0.9286  1.0692 -1.5437
  992MOL0     H36863  11.123   3.180   3.097  1.9250  1.5988  1.0337
  992MOL0     H36864  11.223   3.397   3.079 -0.6396  1.0953 -0.8208
  992MOL0     H36865  11.308   3.354   2.938  0.8552  0.1645  1.3321
  992MOL0     H36866  11.452   3.193   3.036 -0.6256  0.3351 -0.5338
  992MOL0     H36867  11.349   3.148   3.169  2.7483 -2.3202 -1.4811
  992MOL0     H36868  11.517   3.382   3.091 -0.5442  0.2846  0.2064
  992MOL0     H36869  11.409   3.408   3.230  0.5299  0.2699 -0.2109
  992MOL0     H36870  11.621   3.185   3.215  0.9367  0.3777  0.2525
  992MOL0     H36871  11.513   3.217   3.361  0.3142  0.1830  0.5562
  992MOL0     H36872  11.604   3.456   3.381 -0.2982 -1.4742  1.7943
  992MOL0     H36873  11.694   3.415   3.238 -1.2018  0.6752  0.9289
  992MOL0     H36874  11.814   3.432   3.453  0.5152 -0.5202  1.4943
  992MOL0     H36875  11.850   3.283   3.361  0.4454 -0.3640  1.4823
  992MOL0     H36876  11.130   3.285   2.562  2.0612 -3.7136  1.5419
  992MOL0     H36877  10.942   3.400   2.496  0.0744 -0.0189  0.0133
  992MOL0     H36878  10.333   3.359   2.782  3.4888  0.3620  0.1744
  992MOL0     H36879  10.115   3.335   2.651 -0.9099 -0.6865 -1.9082
  992MOL0     H36880   8.763   3.991   1.550 -0.6953  1.1187 -2.1763
  992MOL0     H36881   8.643   3.962   1.348 -0.1072  1.4252  0.4803
  992MOL0     H36882   8.242   3.854   1.169  1.7432 -1.1797 -0.7448
  992MOL0     H36883   8.109   3.791   0.975 -0.5854  0.3920  0.7778
  992MOL0     H36884   8.122   3.724   0.713 -0.7458 -0.9483  0.0191
  992MOL0     H36885   7.982   3.792   0.811 -1.5967  0.1803 -0.2466
  992MOL0     H36886   7.912   3.702   0.610 -1.6638  1.1705  1.2253
  992MOL0     H36887   8.001   3.816   0.510 -1.6812  2.0549 -1.1458
  992MOL0     H36888   7.867   3.998   0.636  0.9634 -1.2034  2.3202
  992MOL0     H36889   7.768   3.904   0.517 -1.4850  3.4339  0.6835
  992MOL0     H36890   7.774   3.851   0.814 -0.6846  0.8395 -0.2775
  992MOL0     H36891   7.678   3.751   0.706  1.1023 -0.7295  2.6735
  992MOL0     H36892   7.454   4.110   0.709  0.2439  1.7788 -0.7030
  992MOL0     H36893   8.269   4.129   0.764  2.0577 -1.0239 -1.2492
  992MOL0     H36894   8.396   4.313   0.975 -0.9599 -0.5379 -1.0607
  992MOL0     H36895   8.548   4.216   0.987  0.8970  2.8152 -1.9412
  992MOL0     H36896   8.465   4.228   0.838 -1.0073  0.8627 -1.0310
  993MOL0     O36897   2.421   3.289   0.210 -0.3893  0.7908 -0.3784
  993MOL0     C36898   2.330   3.373   0.212 -0.5706  0.2600  0.4379
  993MOL0     O36899   2.342   3.509   0.238  0.2308 -0.0311 -0.6994
  993MOL0     C36900   2.471   3.567   0.258  0.7601  0.3987  0.1178
  993MOL0     C36901   2.496   3.680   0.180 -0.9327 -0.0041  0.8304
  993MOL0     C36902   2.629   3.733   0.201  1.2123 -0.6340  1.0490
  993MOL0     C36903   2.717   3.666   0.282 -0.8119  0.3184 -0.3875
  993MOL0     O36904   2.838   3.717   0.269 -0.1030  0.8691 -0.1319
  993MOL0     C36905   2.944   3.625   0.265 -0.3662  0.6600  0.1689
  993MOL0     C36906   3.080   3.682   0.241  0.3095  0.4219 -0.5004
  993MOL0     C36907   3.196   3.577   0.246  0.8566  0.1313 -0.5963
  993MOL0     C36908   3.322   3.645   0.197 -0.3422  0.2348  0.2402
  993MOL0     C36909   3.431   3.535   0.170  0.2150 -0.5118  0.0144
  993MOL0     C36910   3.556   3.597   0.114 -0.2493  0.4850 -0.0816
  993MOL0     C36911   3.669   3.486   0.098 -0.3340 -0.7667 -0.2653
  993MOL0     C36912   3.641   3.380   0.001 -1.1566 -0.0063  0.9686
  993MOL0     N36913   3.761   3.293  -0.000  0.1873  0.6524  0.1256
  993MOL0     C36914   3.785   3.201   0.097 -0.1547  0.8005 -0.0001
  993MOL0     C36915   3.912   3.155   0.073  0.6129 -0.0503  0.0246
  993MOL0     C36916   3.972   3.048   0.146 -0.4276  0.4720  0.6619
  993MOL0     C36917   3.929   2.909   0.087  0.1425  0.4187 -0.3134
  993MOL0     C36918   3.929   2.896  -0.065 -0.5125  0.1927  0.6676
  993MOL0     C36919   4.079   2.875  -0.116 -0.0714  0.1325 -0.2051
  993MOL0     O36920   4.092   2.891  -0.258 -0.1005 -0.1854  0.4164
  993MOL0     C36921   4.184   2.987  -0.291 -1.0130 -0.4352  0.5008
  993MOL0     C36922   4.140   3.111  -0.336  0.3434  0.8430 -0.5369
  993MOL0     C36923   4.238   3.211  -0.360  1.1889  0.1140  0.6567
  993MOL0     C36924   4.180   3.349  -0.388 -1.0267  0.1446 -0.6567
  993MOL0     C36925   4.380   3.182  -0.369 -0.3257 -0.8418 -0.0047
  993MOL0     C36926   4.482   3.287  -0.411 -0.0926 -0.0436 -0.3939
  993MOL0     O36927   4.611   3.279  -0.369 -0.8158  0.5576 -0.5022
  993MOL0     C36928   4.703   3.372  -0.407  0.1868  0.8679  0.0150
  993MOL0     C36929   4.717   3.423  -0.537  0.3491 -0.3931  0.7672
  993MOL0     C36930   4.823   3.513  -0.566 -0.2776  0.7715  0.7866
  993MOL0     C36931   4.927   3.539  -0.475  0.2695  1.0161  0.3572
  993MOL0     O36932   5.032   3.623  -0.500  0.2464 -1.3393  0.3816
  993MOL0     C36933   5.134   3.570  -0.587  0.5574  0.3695  0.3382
  993MOL0     C36934   5.281   3.582  -0.531  0.3762 -0.0519 -0.8648
  993MOL0     C36935   5.286   3.517  -0.393  0.4342  0.8883 -0.2061
  993MOL0     C36936   5.427   3.511  -0.335 -0.8474  0.0240 -1.0300
  993MOL0     C36937   5.433   3.435  -0.193  0.6764  0.2854  0.2237
  993MOL0     C36938   5.569   3.357  -0.182 -0.3732 -0.0605  0.4143
  993MOL0     C36939   5.603   3.282  -0.044  0.2451  0.5481 -0.0914
  993MOL0     C36940   5.561   3.366   0.079  0.1719 -0.1240 -0.8028
  993MOL0    Cl36941   5.673   3.505   0.101  0.3307  0.1915  0.1618
  993MOL0     C36942   4.919   3.480  -0.349  0.8533  0.5776 -0.9472
  993MOL0     C36943   4.809   3.402  -0.317  0.0244 -0.2617 -0.3739
  993MOL0     O36944   4.436   3.382  -0.468  0.3289  0.8901  0.4243
  993MOL0     C36945   4.424   3.053  -0.332  0.1909 -0.7209  0.9266
  993MOL0     C36946   4.325   2.959  -0.293 -0.2111  0.4046  0.1172
  993MOL0     N36947   3.955   3.210  -0.043 -0.1424 -0.2295 -0.2883
  993MOL0     N36948   3.872   3.300  -0.085 -0.0439  0.3175 -0.1242
  993MOL0     C36949   2.696   3.544   0.358 -0.4514 -0.8678  0.2743
  993MOL0     C36950   2.562   3.499   0.344 -1.1686  0.0670  0.1158
  993MOL0     C36951   2.200   3.314   0.191  0.0449  0.4364  0.2225
  993MOL0     C36952   2.179   3.179   0.221 -0.4090  0.1870  0.6348
  993MOL0     C36953   2.054   3.113   0.208  0.0613  0.4234  0.1798
  993MOL0     C36954   1.941   3.189   0.166 -0.8368  0.3916  0.4471
  993MOL0     O36955   1.815   3.139   0.175 -0.3325 -0.1898 -0.0800
  993MOL0     C36956   1.773   3.024   0.250  1.0887  0.2296 -0.2599
  993MOL0     C36957   1.797   2.897   0.159  0.4459 -0.2532 -0.1065
  993MOL0     C36958   1.700   2.783   0.197 -0.1281  0.1666  0.2766
  993MOL0     C36959   1.557   2.815   0.152 -0.9477 -0.1112 -0.2749
  993MOL0     C36960   1.555   2.801   0.006  0.0723 -1.0417  0.5571
  993MOL0     C36961   1.561   2.763  -0.113  0.9306 -0.6624 -0.8772
  993MOL0     C36962   1.965   3.320   0.127 -0.0829 -0.0926 -0.3309
  993MOL0     C36963   2.090   3.379   0.146  0.3753 -0.7057  0.1950
  993MOL0     C36964   2.094   3.517   0.088  0.9170 -0.5042 -0.6332
  993MOL0     H36965   2.422   3.734   0.122 -0.3296  1.6034  1.4985
  993MOL0     H36966   2.662   3.814   0.137  1.7866 -1.6625 -0.0064
  993MOL0     H36967   2.923   3.548   0.190  0.8104 -0.8110  1.2868
  993MOL0     H36968   2.953   3.562   0.354 -0.0491 -1.5661 -1.3565
  993MOL0     H36969   3.080   3.737   0.147 -1.2028  0.5623 -0.4372
  993MOL0     H36970   3.092   3.753   0.324  0.9100 -0.7127  0.4205
  993MOL0     H36971   3.224   3.545   0.347  0.9506  3.2143  0.4639
  993MOL0     H36972   3.169   3.494   0.179 -1.1265 -0.2374  0.5971
  993MOL0     H36973   3.310   3.701   0.104 -0.4334  1.3170  0.8851
  993MOL0     H36974   3.366   3.712   0.272  2.8545 -3.8301  2.4380
  993MOL0     H36975   3.391   3.457   0.105  3.5986 -1.3332 -1.2679
  993MOL0     H36976   3.455   3.496   0.269  1.0058  3.2216  1.4606
  993MOL0     H36977   3.553   3.638   0.013  0.7125 -1.4640 -0.9590
  993MOL0     H36978   3.577   3.678   0.185  0.6559 -2.6044  3.5217
  993MOL0     H36979   3.686   3.440   0.196  0.0200 -0.4038 -0.1508
  993MOL0     H36980   3.760   3.535   0.061 -0.3877 -0.0514  0.5244
  993MOL0     H36981   3.546   3.329   0.018 -2.5186  1.0373 -2.6886
  993MOL0     H36982   3.625   3.405  -0.104 -0.7900 -2.6851  0.1845
  993MOL0     H36983   3.720   3.168   0.178  2.6582 -1.0486  1.6719
  993MOL0     H36984   3.933   3.048   0.248 -1.2023  0.6126  0.3711
  993MOL0     H36985   4.079   3.072   0.148 -0.4102  0.8322 -1.7094
  993MOL0     H36986   4.001   2.838   0.129 -2.4328 -3.0216 -1.3007
  993MOL0     H36987   3.826   2.881   0.112 -0.1028  0.7892 -0.8884
  993MOL0     H36988   3.871   2.808  -0.096 -0.6306 -0.1462  1.7899
  993MOL0     H36989   3.879   2.974  -0.124 -0.5699 -0.1867  0.2045
  993MOL0     H36990   4.137   2.952  -0.064 -1.1549 -0.8260  2.6401
  993MOL0     H36991   4.110   2.777  -0.078 -2.0022  0.1351  1.6044
  993MOL0     H36992   4.032   3.124  -0.332  0.3295  1.4444 -2.1641
  993MOL0     H36993   4.221   3.422  -0.318 -2.2719 -2.1071  2.6631
  993MOL0     H36994   4.074   3.349  -0.358 -0.6049  0.9491  0.8921
  993MOL0     H36995   4.176   3.374  -0.495 -0.7862 -0.1574 -0.7377
  993MOL0     H36996   4.645   3.385  -0.608  1.4760 -1.8780  0.3440
  993MOL0     H36997   4.817   3.574  -0.656 -2.5615  1.2129  1.1793
  993MOL0     H36998   5.108   3.464  -0.597  0.2325  0.4409  0.4440
  993MOL0     H36999   5.114   3.622  -0.681  0.4470  2.6966  1.5839
  993MOL0     H37000   5.347   3.521  -0.594  0.9641 -2.1187  1.6140
  993MOL0     H37001   5.291   3.691  -0.529  0.9552 -0.0997  1.9675
  993MOL0     H37002   5.240   3.420  -0.411  1.1376  0.8929 -2.2873
  993MOL0     H37003   5.220   3.582  -0.335  0.1444  1.9538 -1.6663
  993MOL0     H37004   5.475   3.608  -0.329  2.7559 -1.6818  0.6665
  993MOL0     H37005   5.493   3.454  -0.401 -0.8147 -1.9022  0.5549
  993MOL0     H37006   5.432   3.507  -0.110  0.7775 -0.8983  1.2685
  993MOL0     H37007   5.346   3.368  -0.187 -3.1688  4.7490  0.4665
  993MOL0     H37008   5.652   3.427  -0.195  0.0649 -0.6858 -0.2047
  993MOL0     H37009   5.579   3.279  -0.257 -1.1661 -1.2626  1.5167
  993MOL0     H37010   5.709   3.262  -0.025  1.0390  4.7157  0.8275
  993MOL0     H37011   5.560   3.181  -0.050  3.9485 -1.1417 -0.8862
  993MOL0     H37012   5.576   3.296   0.162  3.9590 -0.0289 -1.2337
  993MOL0     H37013   5.456   3.397   0.085  0.7803  1.7789  1.1620
  993MOL0     H37014   4.994   3.497  -0.273 -1.2632  0.1928  1.3345
  993MOL0     H37015   4.803   3.360  -0.217  1.2915 -1.1758 -0.6559
  993MOL0     H37016   4.527   3.025  -0.317 -0.0246 -0.5584  3.0062
  993MOL0     H37017   4.351   2.857  -0.267 -0.5908 -0.7349 -3.3341
  993MOL0     H37018   2.765   3.490   0.421  0.9105 -0.5675 -0.9255
  993MOL0     H37019   2.520   3.416   0.400 -0.2347 -0.0748  0.6256
  993MOL0     H37020   2.264   3.127   0.264  1.1388  1.4463 -0.7606
  993MOL0     H37021   2.048   3.009   0.237  1.9243 -0.4413 -2.2564
  993MOL0     H37022   1.821   3.016   0.348  0.6523 -2.3510 -0.1716
  993MOL0     H37023   1.665   3.036   0.265  1.2710 -0.2403  1.7881
  993MOL0     H37024   1.901   2.870   0.181  0.3810  1.0922  2.2215
  993MOL0     H37025   1.789   2.922   0.053 -1.4264 -2.0662 -0.4539
  993MOL0     H37026   1.742   2.690   0.159  1.3061  1.2561 -0.9289
  993MOL0     H37027   1.703   2.770   0.306 -0.5038  0.3565  0.3115
  993MOL0     H37028   1.531   2.917   0.181 -1.0966 -1.0686  3.5392
  993MOL0     H37029   1.481   2.748   0.195 -2.1930  1.6874  0.4780
  993MOL0     H37030   1.564   2.740  -0.218  3.1815 -2.5888 -0.4603
  993MOL0     H37031   1.880   3.381   0.098 -0.8938 -2.3941 -3.3731
  993MOL0     H37032   2.174   3.519   0.013  1.7720  0.4420  0.2769
  993MOL0     H37033   2.003   3.559   0.045  0.6867 -2.4979 -2.2225
  993MOL0     H37034   2.122   3.589   0.166 -2.2449 -2.0380  2.1398
  994MOL0     O37035   2.710   8.434   8.372 -0.9118  0.1937 -0.1885
  994MOL0     C37036   2.629   8.520   8.402  0.5534 -0.6149  0.5082
  994MOL0     O37037   2.660   8.639   8.463 -0.4581 -0.2886  0.3653
  994MOL0     C37038   2.787   8.695   8.462 -0.8456 -0.2248  0.2300
  994MOL0     C37039   2.891   8.663   8.551 -0.0393  0.4306  0.3372
  994MOL0     C37040   3.015   8.729   8.541 -0.0796 -0.0965  0.0175
  994MOL0     C37041   3.044   8.821   8.436  0.0005 -0.1132  0.3695
  994MOL0     O37042   3.160   8.893   8.421 -0.1894 -0.4659  0.0850
  994MOL0     C37043   3.270   8.863   8.510 -0.0869 -0.6065  0.3251
  994MOL0     C37044   3.379   8.966   8.473  0.7128 -0.0729  0.0097
  994MOL0     C37045   3.481   8.967   8.577 -0.3423 -0.4656 -0.5289
  994MOL0     C37046   3.582   9.063   8.525  0.1606 -0.4102 -0.5807
  994MOL0     C37047   3.687   9.087   8.637  0.8205  0.5092 -0.2111
  994MOL0     C37048   3.772   9.205   8.593  0.3864  0.1973  0.4915
  994MOL0     C37049   3.902   9.215   8.669  0.9927  0.3746  0.3661
  994MOL0     C37050   3.864   9.272   8.805 -0.2270  0.3350  0.1329
  994MOL0     N37051   3.970   9.264   8.902 -0.0253 -0.8331 -0.3953
  994MOL0     C37052   4.077   9.353   8.907 -1.4106 -0.4729  0.1019
  994MOL0     C37053   4.158   9.309   9.012  0.8145 -0.6545 -0.1349
  994MOL0     C37054   4.289   9.385   9.046 -0.4508 -0.9745  0.5951
  994MOL0     C37055   4.381   9.305   9.144  1.2355  0.7339 -0.6507
  994MOL0     C37056   4.448   9.190   9.079  0.6879 -0.7744 -0.7060
  994MOL0     C37057   4.571   9.133   9.150 -0.1132  0.8037 -0.2815
  994MOL0     O37058   4.551   9.111   9.289 -0.3486 -0.0578 -0.4282
  994MOL0     C37059   4.645   9.017   9.349  1.0330 -0.3655 -0.3002
  994MOL0     C37060   4.601   8.961   9.464  0.0271  0.0298 -0.3665
  994MOL0     C37061   4.670   8.857   9.527  0.4468  0.6133  0.8940
  994MOL0     C37062   4.595   8.802   9.642 -0.2885 -0.9902 -0.6700
  994MOL0     C37063   4.796   8.824   9.488  0.9758  0.9470  0.6018
  994MOL0     C37064   4.891   8.734   9.564  0.5316 -0.5180 -0.7317
  994MOL0     O37065   5.004   8.686   9.488  0.1158  0.0346  0.2202
  994MOL0     C37066   5.091   8.612   9.561 -0.2594 -0.2278 -0.3413
  994MOL0     C37067   5.172   8.653   9.671 -0.3554 -0.8993  0.1852
  994MOL0     C37068   5.286   8.591   9.723 -0.3036 -0.1293  0.2214
  994MOL0     C37069   5.320   8.473   9.665 -0.2508  0.7348  0.2325
  994MOL0     O37070   5.430   8.394   9.703  0.4055 -0.1801  0.2191
  994MOL0     C37071   5.558   8.457   9.701  0.4530 -0.6415  0.5377
  994MOL0     C37072   5.611   8.454   9.563 -0.2970 -0.4497  0.2820
  994MOL0     C37073   5.646   8.317   9.507  0.6177  0.0569 -0.0214
  994MOL0     C37074   5.780   8.280   9.549  0.3975  0.4743 -0.3004
  994MOL0     C37075   5.766   8.173   9.653 -0.4876 -0.4407 -0.8391
  994MOL0     C37076   5.909   8.130   9.685  0.0180 -0.5195 -0.2232
  994MOL0     C37077   5.996   8.236   9.756  0.1329  0.8085 -0.5762
  994MOL0     C37078   6.121   8.178   9.819 -0.1884  0.0161  0.2374
  994MOL0    Cl37079   6.210   8.318   9.897  0.2579  0.1856 -0.0446
  994MOL0     C37080   5.242   8.417   9.556 -0.5009  0.3237  0.9027
  994MOL0     C37081   5.128   8.485   9.510 -0.4291  0.1684  0.2933
  994MOL0     O37082   4.871   8.708   9.683  0.3970 -0.4237 -0.2041
  994MOL0     C37083   4.842   8.873   9.369 -0.0125  0.0770  0.9479
  994MOL0     C37084   4.761   8.966   9.301 -0.2231  0.0949 -0.3478
  994MOL0     N37085   4.099   9.194   9.068 -0.1621 -0.2551 -0.6890
  994MOL0     N37086   3.985   9.177   9.006 -0.0936 -0.1211 -0.3119
  994MOL0     C37087   2.937   8.847   8.349 -0.7832  0.5348 -0.8887
  994MOL0     C37088   2.809   8.789   8.362 -0.5534 -0.1935 -0.6682
  994MOL0     C37089   2.476   8.502   8.382 -0.9429 -0.8603  0.0268
  994MOL0     C37090   2.386   8.574   8.462  0.3131 -0.0926 -0.7773
  994MOL0     C37091   2.253   8.566   8.443 -0.3044  0.3484 -0.1778
  994MOL0     C37092   2.197   8.497   8.335 -0.2771 -0.1381 -0.3655
  994MOL0     O37093   2.067   8.502   8.309 -0.1032 -0.5844 -0.3922
  994MOL0     C37094   1.996   8.420   8.399  0.1304 -0.3342 -0.2540
  994MOL0     C37095   1.855   8.441   8.354 -0.2753  0.8477  0.1699
  994MOL0     C37096   1.755   8.338   8.409 -0.3624  0.9128 -0.0653
  994MOL0     C37097   1.614   8.363   8.351  0.6616 -1.3982  0.0497
  994MOL0     C37098   1.531   8.240   8.362 -0.2467 -0.2441 -1.3271
  994MOL0     C37099   1.474   8.131   8.370  0.1221  0.2356 -0.6104
  994MOL0     C37100   2.283   8.425   8.249 -0.2028  0.4039 -0.7991
  994MOL0     C37101   2.425   8.426   8.275 -0.0087 -0.5322  0.9495
  994MOL0     C37102   2.512   8.339   8.191  0.3142 -0.8807 -0.8810
  994MOL0     H37103   2.875   8.585   8.625  1.6477 -1.6862 -1.3899
  994MOL0     H37104   3.092   8.700   8.612 -2.4836 -2.0406  2.0281
  994MOL0     H37105   3.302   8.760   8.493 -2.7930 -1.4050 -0.5685
  994MOL0     H37106   3.241   8.879   8.614  0.3153  0.3870  0.3000
  994MOL0     H37107   3.418   8.943   8.373  1.0180  0.2079  0.0639
  994MOL0     H37108   3.328   9.062   8.480 -2.6901 -1.6127 -1.0605
  994MOL0     H37109   3.440   9.005   8.671 -0.6812 -0.0873 -0.8256
  994MOL0     H37110   3.527   8.871   8.602  1.1547  0.7327  1.6176
  994MOL0     H37111   3.627   9.017   8.437 -1.4096  0.0454 -1.6640
  994MOL0     H37112   3.545   9.164   8.503  1.5127  0.1661 -0.3545
  994MOL0     H37113   3.748   9.001   8.664  1.4254  1.1630  0.5853
  994MOL0     H37114   3.643   9.108   8.735  0.1720 -0.1031 -0.3654
  994MOL0     H37115   3.790   9.182   8.488 -0.2019 -0.1681  0.4647
  994MOL0     H37116   3.712   9.297   8.598  1.1979  0.7074  1.0653
  994MOL0     H37117   3.975   9.277   8.617  1.0025 -0.3319 -0.4905
  994MOL0     H37118   3.955   9.121   8.686  1.0804  0.7273  2.2944
  994MOL0     H37119   3.830   9.375   8.797 -0.3635  0.1611 -2.6184
  994MOL0     H37120   3.785   9.206   8.843 -1.5712 -0.4300 -3.5557
  994MOL0     H37121   4.092   9.433   8.835 -2.4938 -0.1469  0.2087
  994MOL0     H37122   4.254   9.480   9.087  1.0973  0.1615 -0.6222
  994MOL0     H37123   4.347   9.413   8.958 -1.3046 -0.1738  0.2662
  994MOL0     H37124   4.450   9.376   9.190  1.2147 -0.6921  1.7750
  994MOL0     H37125   4.329   9.261   9.230  3.9493 -2.5051 -0.4877
  994MOL0     H37126   4.385   9.101   9.069 -0.2959 -0.0749 -0.8631
  994MOL0     H37127   4.471   9.229   8.980 -0.6802  3.4131  0.4176
  994MOL0     H37128   4.590   9.039   9.099 -2.8889  0.2120 -0.3733
  994MOL0     H37129   4.663   9.191   9.137  1.2458 -1.0864  0.4541
  994MOL0     H37130   4.504   8.992   9.501 -0.3716  0.9691 -2.0822
  994MOL0     H37131   4.664   8.777   9.723  1.6026  2.5522 -1.0023
  994MOL0     H37132   4.521   8.724   9.624 -1.5527 -0.9250  3.3135
  994MOL0     H37133   4.543   8.889   9.681 -1.7866 -1.6398 -1.1347
  994MOL0     H37134   5.151   8.757   9.696  3.1143  0.5122 -1.9870
  994MOL0     H37135   5.352   8.642   9.793  1.3432  0.6898 -1.7916
  994MOL0     H37136   5.558   8.561   9.734 -3.4904 -0.5591  0.7461
  994MOL0     H37137   5.621   8.401   9.770 -1.6220 -0.0812  3.0664
  994MOL0     H37138   5.529   8.495   9.503 -2.3585 -1.2638  2.4215
  994MOL0     H37139   5.703   8.513   9.553 -0.2846  0.2514  3.4728
  994MOL0     H37140   5.637   8.327   9.399 -0.1106 -1.2801 -0.1089
  994MOL0     H37141   5.570   8.243   9.534  1.3090 -1.2833 -1.5642
  994MOL0     H37142   5.833   8.366   9.591  0.1734 -0.3308  1.7678
  994MOL0     H37143   5.836   8.227   9.472  0.6353  0.8357 -0.3814
  994MOL0     H37144   5.719   8.220   9.740  0.2476  1.6214 -1.5145
  994MOL0     H37145   5.696   8.095   9.622  0.1016  0.0209 -3.5594
  994MOL0     H37146   5.960   8.110   9.591 -1.7293 -0.5230 -1.2109
  994MOL0     H37147   5.886   8.039   9.741  1.1494  0.1667  1.4467
  994MOL0     H37148   5.937   8.277   9.839 -0.0425  0.7645 -0.6788
  994MOL0     H37149   6.024   8.321   9.692  0.9214  3.3448  2.8088
  994MOL0     H37150   6.186   8.121   9.752  0.3153 -0.3141  0.9979
  994MOL0     H37151   6.092   8.110   9.899 -0.0764 -0.0473  0.2233
  994MOL0     H37152   5.257   8.320   9.510 -4.1922  0.6384 -1.3684
  994MOL0     H37153   5.071   8.436   9.432 -1.6070 -0.7840  1.6852
  994MOL0     H37154   4.941   8.850   9.330 -0.2270 -1.4836  1.2926
  994MOL0     H37155   4.796   8.998   9.204 -2.0877  0.7417 -0.8424
  994MOL0     H37156   2.964   8.926   8.281 -1.6328 -0.4713 -2.4566
  994MOL0     H37157   2.735   8.830   8.293  0.6478  3.9787  0.2228
  994MOL0     H37158   2.428   8.636   8.541 -0.3622 -1.5622  0.7925
  994MOL0     H37159   2.194   8.622   8.515 -0.0394  0.4168 -0.0133
  994MOL0     H37160   2.028   8.316   8.403  3.2962  0.5933  1.6427
  994MOL0     H37161   1.997   8.457   8.502  0.9633 -0.0023 -0.3747
  994MOL0     H37162   1.858   8.443   8.245  0.2789 -1.4082  0.1009
  994MOL0     H37163   1.822   8.539   8.390 -0.0027  0.5771  1.2184
  994MOL0     H37164   1.779   8.233   8.389 -1.7679  0.3761  0.9409
  994MOL0     H37165   1.759   8.340   8.518 -1.0180  1.3376 -0.0470
  994MOL0     H37166   1.624   8.411   8.254 -1.6484  3.2635  1.8164
  994MOL0     H37167   1.563   8.441   8.408  1.8793 -0.6635  0.1734
  994MOL0     H37168   1.417   8.041   8.368  0.9618 -0.2908 -1.8185
  994MOL0     H37169   2.242   8.363   8.170  0.6877  1.5506 -2.2023
  994MOL0     H37170   2.577   8.390   8.120  1.1518 -1.0323 -0.2432
  994MOL0     H37171   2.572   8.278   8.259  0.7333  2.9950  2.6278
  994MOL0     H37172   2.454   8.265   8.135 -3.0641  0.0379  1.0762
  995MOL0     O37173   4.988   1.382  10.273  0.7293 -0.6290  0.3502
  995MOL0     C37174   4.965   1.301  10.363 -0.2492 -0.2975  0.4005
  995MOL0     O37175   5.061   1.253  10.448 -0.2859 -0.3701 -0.3948
  995MOL0     C37176   5.170   1.334  10.462  0.3958  0.8353  0.5267
  995MOL0     C37177   5.155   1.458  10.524  0.1859 -0.0130  0.2086
  995MOL0     C37178   5.271   1.537  10.532 -1.1074 -0.3575  0.2547
  995MOL0     C37179   5.399   1.496  10.484  0.0697 -0.0557  0.6681
  995MOL0     O37180   5.491   1.594  10.479 -0.3084  0.4613 -0.5331
  995MOL0     C37181   5.616   1.560  10.550  0.2543  0.4850  0.4638
  995MOL0     C37182   5.599   1.583  10.699  0.6120  0.5631  0.1056
  995MOL0     C37183   5.724   1.534  10.775  0.1249 -0.0006 -0.1150
  995MOL0     C37184   5.706   1.581  10.912  0.0609 -0.3287  0.3105
  995MOL0     C37185   5.808   1.525  11.015  0.1493  0.8067  0.6267
  995MOL0     C37186   5.839   1.633  11.118  0.2682  0.4436  0.7649
  995MOL0     C37187   5.958   1.590  11.201 -0.2067 -0.0488 -0.2910
  995MOL0     C37188   5.936   1.469  11.294  0.4222 -0.3839  0.7262
  995MOL0     N37189   6.049   1.433  11.381 -0.2090 -0.2172 -0.1948
  995MOL0     C37190   6.100   1.527  11.473  0.1940 -0.9965  0.3424
  995MOL0     C37191   6.171   1.460  11.566 -0.1591  0.3518  0.6935
  995MOL0     C37192   6.213   1.500  11.703  0.4121 -0.3760  0.1460
  995MOL0     C37193   6.088   1.491  11.796  0.3587 -0.2558 -0.0419
  995MOL0     C37194   6.125   1.528  11.936  0.3365 -0.9303  0.1006
  995MOL0     C37195   6.119   1.415  12.037 -0.8717  0.6995  0.3959
  995MOL0     O37196   6.147   1.454  12.175 -0.1056  0.2223  0.2984
  995MOL0     C37197   6.036   1.479  12.252  0.3649 -0.1671 -0.7919
  995MOL0     C37198   5.898   1.491  12.209  0.0985 -0.1507  0.0008
  995MOL0     C37199   5.795   1.537  12.288  0.0156  0.1318  0.1235
  995MOL0     C37200   5.659   1.555  12.219 -0.2111  0.2333 -0.1975
  995MOL0     C37201   5.808   1.548  12.425  0.5980  1.0937 -0.8905
  995MOL0     C37202   5.700   1.582  12.527 -0.9744 -0.1606 -0.9701
  995MOL0     O37203   5.739   1.568  12.660 -0.3789 -0.3109  0.5578
  995MOL0     C37204   5.639   1.592  12.751 -0.5359 -0.9499 -0.7007
  995MOL0     C37205   5.647   1.697  12.849  0.0732 -0.2740 -0.2645
  995MOL0     C37206   5.546   1.708  12.953 -0.7839  0.2592  0.3202
  995MOL0     C37207   5.434   1.612  12.954  0.3493  0.3538 -0.7015
  995MOL0     O37208   5.333   1.616  13.053  0.0708  0.9562 -0.0592
  995MOL0     C37209   5.243   1.503  13.060  0.8307  0.1774  0.0232
  995MOL0     C37210   5.132   1.539  13.152 -0.6188 -0.6643 -0.1901
  995MOL0     C37211   5.055   1.662  13.106  0.1990 -0.0634 -0.4826
  995MOL0     C37212   4.937   1.604  13.032 -1.3708 -0.4833 -0.4310
  995MOL0     C37213   4.860   1.708  12.957  0.0923 -0.4512  0.0144
  995MOL0     C37214   4.756   1.645  12.874  0.4624  0.0723  0.7616
  995MOL0     C37215   4.691   1.752  12.776 -0.1247  0.3260  0.3480
  995MOL0     C37216   4.609   1.696  12.663 -0.5922 -0.5455  0.0580
  995MOL0    Cl37217   4.522   1.833  12.585  0.3396  0.0406  0.4169
  995MOL0     C37218   5.436   1.515  12.854  0.1350 -0.7095 -0.7464
  995MOL0     C37219   5.534   1.509  12.763  0.3488 -0.7601  0.0934
  995MOL0     O37220   5.591   1.631  12.489 -0.2564 -0.7219 -0.7044
  995MOL0     C37221   5.938   1.539  12.467 -0.5703  0.2773 -0.8243
  995MOL0     C37222   6.050   1.507  12.389  0.4692  0.2835 -0.1893
  995MOL0     N37223   6.163   1.330  11.523  0.4348 -0.2696 -0.5005
  995MOL0     N37224   6.091   1.314  11.420 -0.3563  0.2881 -0.0940
  995MOL0     C37225   5.405   1.374  10.417 -0.4674 -0.1068 -0.0445
  995MOL0     C37226   5.289   1.285  10.409 -0.3494 -1.6618 -0.0938
  995MOL0     C37227   4.823   1.264  10.397  0.3797  0.5473  0.8715
  995MOL0     C37228   4.802   1.173  10.503 -0.8590 -0.0846 -0.4490
  995MOL0     C37229   4.678   1.148  10.552  0.4917 -0.1586  0.6959
  995MOL0     C37230   4.562   1.181  10.492  0.6734 -0.0730 -0.0693
  995MOL0     O37231   4.442   1.138  10.545  0.0628 -0.2761  0.0797
  995MOL0     C37232   4.336   1.099  10.447  0.7341 -0.0235 -0.3434
  995MOL0     C37233   4.235   0.982  10.497 -0.8105  0.2535  0.1063
  995MOL0     C37234   4.114   0.954  10.407  0.6362 -0.2076 -0.2880
  995MOL0     C37235   4.026   0.865  10.490 -0.6037  0.5500  0.6605
  995MOL0     C37236   3.912   0.802  10.414 -0.0822  0.2001 -0.3848
  995MOL0     C37237   3.813   0.754  10.358 -0.7476 -0.0499  0.4461
  995MOL0     C37238   4.574   1.268  10.379  0.8204  0.0382  0.0688
  995MOL0     C37239   4.701   1.312  10.334 -0.6976  0.0834 -0.4058
  995MOL0     C37240   4.710   1.421  10.230 -0.2387 -0.0773  0.6178
  995MOL0     H37241   5.057   1.495  10.550  1.0783  1.8581  1.1402
  995MOL0     H37242   5.263   1.641  10.561 -2.0851 -0.6579  1.1453
  995MOL0     H37243   5.695   1.626  10.516 -1.6596  3.9485  2.1413
  995MOL0     H37244   5.626   1.452  10.533 -1.9699  0.2147  0.5062
  995MOL0     H37245   5.579   1.688  10.719 -2.3509 -0.2808  2.3734
  995MOL0     H37246   5.513   1.526  10.737 -0.4918  1.3701 -1.0654
  995MOL0     H37247   5.730   1.425  10.783  1.5915  0.0457 -0.3871
  995MOL0     H37248   5.817   1.562  10.724 -0.4273  2.3207  0.0123
  995MOL0     H37249   5.698   1.690  10.904 -2.2345 -0.2466  2.6658
  995MOL0     H37250   5.607   1.554  10.951  0.3966  2.0239  3.0847
  995MOL0     H37251   5.901   1.496  10.964  1.1794  2.2237  1.6051
  995MOL0     H37252   5.761   1.436  11.056 -0.8766  0.5305 -1.0654
  995MOL0     H37253   5.868   1.729  11.074 -3.2747  0.2632 -2.4939
  995MOL0     H37254   5.745   1.647  11.170  0.2384 -0.2487  0.9168
  995MOL0     H37255   5.965   1.669  11.277 -0.9812  1.2983 -1.5758
  995MOL0     H37256   6.048   1.570  11.142  0.0049  0.5929 -0.1959
  995MOL0     H37257   5.842   1.486  11.348  2.1590  0.3944  3.7336
  995MOL0     H37258   5.922   1.384  11.227 -0.6761 -1.2959  2.0465
  995MOL0     H37259   6.070   1.631  11.468  1.6249 -0.6432 -1.7246
  995MOL0     H37260   6.253   1.602  11.701 -1.5284  0.4771  1.6309
  995MOL0     H37261   6.292   1.436  11.744  2.6128  2.2473  0.3397
  995MOL0     H37262   6.018   1.569  11.764  2.2456  0.9166 -1.4988
  995MOL0     H37263   6.040   1.392  11.796  1.1361 -0.6562  1.2210
  995MOL0     H37264   6.225   1.572  11.927 -0.7536  1.3493 -2.1385
  995MOL0     H37265   6.053   1.602  11.971 -0.3328 -0.0571 -2.8841
  995MOL0     H37266   6.023   1.364  12.023 -0.4256 -1.4703  4.0049
  995MOL0     H37267   6.196   1.347  11.999 -0.6343  1.2811 -0.1705
  995MOL0     H37268   5.859   1.471  12.110  0.7006 -0.8459 -0.1024
  995MOL0     H37269   5.626   1.653  12.254 -0.2630 -0.4216  1.6870
  995MOL0     H37270   5.588   1.479  12.252 -0.0867  0.1371 -0.1517
  995MOL0     H37271   5.657   1.560  12.110 -3.1795  1.1119 -0.1873
  995MOL0     H37272   5.735   1.759  12.840  2.7541 -3.4977  1.4099
  995MOL0     H37273   5.558   1.795  13.017 -2.8344  0.3543  0.6273
  995MOL0     H37274   5.193   1.497  12.963  2.0282 -1.6275 -0.5215
  995MOL0     H37275   5.304   1.414  13.074  1.4984  0.5933 -0.1772
  995MOL0     H37276   5.065   1.453  13.154 -3.7130  1.5993 -0.0203
  995MOL0     H37277   5.178   1.551  13.250  1.3079  0.7278 -1.1760
  995MOL0     H37278   5.113   1.728  13.041  0.6555  0.7780  0.7527
  995MOL0     H37279   5.010   1.723  13.184 -2.1672 -1.2349 -0.8313
  995MOL0     H37280   4.865   1.565  13.105 -2.7273 -1.7370 -2.3513
  995MOL0     H37281   4.965   1.521  12.966 -1.9634 -2.3332  1.5323
  995MOL0     H37282   4.815   1.779  13.027 -1.2045  1.5707 -2.6781
  995MOL0     H37283   4.930   1.778  12.909  2.2573 -1.2811  1.8177
  995MOL0     H37284   4.674   1.610  12.939 -1.2557 -1.9664 -2.2457
  995MOL0     H37285   4.803   1.562  12.819 -0.5716 -0.6630  0.9452
  995MOL0     H37286   4.770   1.817  12.737  1.3618 -1.7817 -0.2723
  995MOL0     H37287   4.630   1.822  12.834  0.8294  0.1324  1.6156
  995MOL0     H37288   4.541   1.615  12.690 -1.3694  0.0461 -0.0865
  995MOL0     H37289   4.684   1.648  12.599  1.0631  0.9817  0.7437
  995MOL0     H37290   5.350   1.448  12.856 -1.5235  1.3258  0.2705
  995MOL0     H37291   5.520   1.429  12.691 -0.6305 -1.4453  1.0270
  995MOL0     H37292   5.967   1.558  12.570 -2.8534  1.5787 -0.3564
  995MOL0     H37293   6.154   1.521  12.418 -0.1929 -0.1291  2.5842
  995MOL0     H37294   5.498   1.329  10.382  0.6797  2.8249 -1.0781
  995MOL0     H37295   5.288   1.190  10.356 -1.3296 -1.9843  0.4817
  995MOL0     H37296   4.886   1.128  10.556 -1.7984 -0.3917  0.8288
  995MOL0     H37297   4.671   1.086  10.640 -0.0970 -4.2529 -1.9705
  995MOL0     H37298   4.283   1.188  10.411 -0.2727 -1.0633 -1.4899
  995MOL0     H37299   4.392   1.067  10.359  1.1672 -1.3846  0.4065
  995MOL0     H37300   4.189   1.022  10.588 -0.7428 -1.9876  1.2061
  995MOL0     H37301   4.287   0.889  10.519 -0.8746 -0.0588 -1.0107
  995MOL0     H37302   4.058   1.041  10.372 -0.0241 -0.4496  0.1409
  995MOL0     H37303   4.133   0.891  10.320  0.2041 -1.3447  0.4138
  995MOL0     H37304   3.990   0.923  10.574  0.9973  2.7599 -0.0836
  995MOL0     H37305   4.086   0.784  10.535  1.3147  1.8417  0.5569
  995MOL0     H37306   3.728   0.702  10.319 -0.6921  1.7802 -2.4558
  995MOL0     H37307   4.488   1.311  10.328 -0.8340 -0.5648  2.1916
  995MOL0     H37308   4.768   1.512  10.243 -2.1384  1.5694 -1.5486
  995MOL0     H37309   4.751   1.374  10.140 -3.1376 -1.1658 -0.2554
  995MOL0     H37310   4.613   1.462  10.199  0.4934  0.5630 -0.9438
  996MOL0     O37311   6.086   3.622   7.580 -0.3770 -0.4121 -0.0953
  996MOL0     C37312   5.961   3.609   7.569  0.1814  0.8997  0.2904
  996MOL0     O37313   5.888   3.491   7.593 -0.6616 -0.0160 -0.6777
  996MOL0     C37314   5.961   3.384   7.627  0.2231  0.2935 -0.2075
  996MOL0     C37315   6.055   3.329   7.542  0.3696 -0.2469 -0.1535
  996MOL0     C37316   6.118   3.208   7.578  0.5602  0.0888  0.1346
  996MOL0     C37317   6.079   3.143   7.698  0.1365 -0.4047 -0.0985
  996MOL0     O37318   6.124   3.015   7.717 -0.1197 -0.4521 -0.0991
  996MOL0     C37319   6.131   2.960   7.848  0.0638  0.0048  0.9098
  996MOL0     C37320   6.230   2.845   7.841 -0.3076  0.8974 -0.2679
  996MOL0     C37321   6.376   2.877   7.786 -0.1813 -0.1065 -0.4188
  996MOL0     C37322   6.488   2.757   7.780  0.6308 -0.2899  0.2384
  996MOL0     C37323   6.616   2.844   7.745  0.3534 -0.6141  0.4958
  996MOL0     C37324   6.741   2.759   7.736 -0.0847  0.3362  0.2982
  996MOL0     C37325   6.871   2.817   7.675 -0.1641 -0.3762 -0.1241
  996MOL0     C37326   6.958   2.696   7.624  1.1687 -0.3343  0.4405
  996MOL0     N37327   7.090   2.737   7.576  0.3639 -0.1197 -0.2284
  996MOL0     C37328   7.192   2.756   7.663  0.3653 -0.4815 -0.0088
  996MOL0     C37329   7.293   2.815   7.589 -0.6024 -0.1133 -0.5385
  996MOL0     C37330   7.439   2.851   7.634 -0.6144  0.7667  0.0661
  996MOL0     C37331   7.466   2.991   7.693  0.5726 -0.3763 -0.6144
  996MOL0     C37332   7.454   3.105   7.599  0.2689 -1.1991  0.4848
  996MOL0     C37333   7.502   3.237   7.670  0.1297 -0.1667 -0.0920
  996MOL0     O37334   7.414   3.297   7.768 -0.1903  0.5330  0.2131
  996MOL0     C37335   7.469   3.386   7.856  0.5726  0.5775 -0.3229
  996MOL0     C37336   7.391   3.398   7.972 -0.6085 -0.3374  0.1672
  996MOL0     C37337   7.436   3.471   8.084 -0.4724  0.6454  0.1957
  996MOL0     C37338   7.347   3.482   8.207 -0.2095  0.5714  0.3974
  996MOL0     C37339   7.564   3.535   8.072 -0.5694  0.5045 -0.5627
  996MOL0     C37340   7.640   3.591   8.184  0.7206 -0.1883  0.0511
  996MOL0     O37341   7.719   3.695   8.156  0.2797  0.1827 -0.1773
  996MOL0     C37342   7.839   3.723   8.222 -0.0726 -0.1390  0.3376
  996MOL0     C37343   7.857   3.859   8.257  0.3365 -0.0744 -0.3566
  996MOL0     C37344   7.970   3.895   8.322 -0.3755  0.0422  0.4190
  996MOL0     C37345   8.073   3.803   8.349  0.1818  0.1731 -0.8729
  996MOL0     O37346   8.184   3.861   8.414 -0.0230  0.5917  0.2031
  996MOL0     C37347   8.302   3.780   8.434  0.5373 -0.0655  0.1446
  996MOL0     C37348   8.398   3.862   8.521  1.1203 -0.1310  0.4300
  996MOL0     C37349   8.433   3.992   8.450  0.0933  0.2791 -0.5106
  996MOL0     C37350   8.560   4.048   8.510 -0.5432 -0.4214  0.2157
  996MOL0     C37351   8.596   4.181   8.447  0.5661  0.2690  0.4928
  996MOL0     C37352   8.683   4.273   8.526 -0.5412 -0.6765  0.3727
  996MOL0     C37353   8.751   4.377   8.437 -0.1201 -0.2051 -0.4732
  996MOL0     C37354   8.832   4.485   8.510  0.4277  0.2280 -0.2744
  996MOL0    Cl37355   8.908   4.601   8.401 -0.1425  0.0323  0.3167
  996MOL0     C37356   8.056   3.668   8.319  0.1349 -0.1326 -0.3279
  996MOL0     C37357   7.931   3.627   8.259 -0.5839 -0.1806  0.1085
  996MOL0     O37358   7.631   3.537   8.293 -0.2964 -0.0165  0.7065
  996MOL0     C37359   7.636   3.524   7.953  0.2850  0.0934  0.4099
  996MOL0     C37360   7.587   3.452   7.842  0.4155 -0.0033  0.1424
  996MOL0     N37361   7.250   2.841   7.462  0.6376  0.8217 -0.0184
  996MOL0     N37362   7.127   2.799   7.458 -1.4400  0.3090  0.4919
  996MOL0     C37363   5.979   3.206   7.773  0.3759  0.5831 -0.9233
  996MOL0     C37364   5.919   3.320   7.736 -0.1095  0.0460 -0.8908
  996MOL0     C37365   5.883   3.730   7.539  0.6496 -0.0587  0.1755
  996MOL0     C37366   5.745   3.713   7.513 -0.1643  0.4770 -0.6588
  996MOL0     C37367   5.663   3.816   7.474 -0.4044 -0.4224  0.1514
  996MOL0     C37368   5.719   3.940   7.447 -0.1674 -1.1315  0.4158
  996MOL0     O37369   5.653   4.053   7.409  0.1685  0.2215  0.3013
  996MOL0     C37370   5.516   4.051   7.361 -0.0722  0.2514 -0.1601
  996MOL0     C37371   5.489   4.189   7.306  0.1241  0.0923 -0.5982
  996MOL0     C37372   5.348   4.211   7.260  0.2597  0.5551  0.1465
  996MOL0     C37373   5.310   4.357   7.289 -0.7203 -0.7659 -0.8886
  996MOL0     C37374   5.180   4.393   7.241 -0.6522  0.2367  1.0787
  996MOL0     C37375   5.072   4.431   7.201 -0.3528  0.6278 -0.6239
  996MOL0     C37376   5.855   3.964   7.475  0.4151  0.4323  0.2440
  996MOL0     C37377   5.931   3.864   7.523 -0.0297 -0.9898  0.0589
  996MOL0     C37378   6.077   3.908   7.547  0.2598 -0.1861  0.2994
  996MOL0     H37379   6.073   3.379   7.448 -2.6778 -2.1838 -1.9182
  996MOL0     H37380   6.187   3.159   7.511  0.6485  2.2564 -1.4676
  996MOL0     H37381   6.030   2.935   7.881 -0.7556 -0.3129 -1.6284
  996MOL0     H37382   6.176   3.028   7.921  2.4368 -0.8017  0.2780
  996MOL0     H37383   6.235   2.812   7.946 -1.8701 -0.1310 -0.4812
  996MOL0     H37384   6.192   2.769   7.772  2.1513  0.6874 -1.4979
  996MOL0     H37385   6.362   2.921   7.687 -1.7307  3.0518  1.0593
  996MOL0     H37386   6.413   2.956   7.852  1.8032 -2.8969  2.1085
  996MOL0     H37387   6.496   2.713   7.880  2.1894 -4.1723 -1.3926
  996MOL0     H37388   6.466   2.679   7.707  2.9940 -0.0898 -0.7814
  996MOL0     H37389   6.634   2.929   7.811  0.0330  0.7880 -1.1351
  996MOL0     H37390   6.600   2.879   7.642  0.5538 -1.1218  0.2892
  996MOL0     H37391   6.768   2.737   7.839 -1.6916 -0.6435  0.5428
  996MOL0     H37392   6.731   2.656   7.701  0.3363 -0.3989  2.2494
  996MOL0     H37393   6.918   2.886   7.746 -1.8958  1.7354 -0.9050
  996MOL0     H37394   6.847   2.890   7.597 -0.6139  1.7956  1.9163
  996MOL0     H37395   6.962   2.621   7.703  1.2958 -1.7306 -0.8644
  996MOL0     H37396   6.898   2.652   7.543 -0.3167  0.5413  1.0081
  996MOL0     H37397   7.198   2.725   7.766 -0.8022 -1.9583 -0.3443
  996MOL0     H37398   7.499   2.833   7.544 -3.5294 -0.4972 -1.8095
  996MOL0     H37399   7.476   2.784   7.712  0.4924 -0.9941 -1.8495
  996MOL0     H37400   7.401   3.015   7.777  1.8598  2.2140 -0.2356
  996MOL0     H37401   7.568   2.997   7.731  0.3004  1.3583 -0.0408
  996MOL0     H37402   7.522   3.086   7.515 -1.3188 -2.4980 -0.5699
  996MOL0     H37403   7.350   3.103   7.566  0.3489 -0.9486  0.2105
  996MOL0     H37404   7.594   3.204   7.719  1.7970 -0.3405 -3.0910
  996MOL0     H37405   7.523   3.304   7.586  1.7097  0.1101  0.4778
  996MOL0     H37406   7.294   3.350   7.976 -1.1474  0.7198  0.1106
  996MOL0     H37407   7.393   3.425   8.288 -1.6791 -1.0405  0.1562
  996MOL0     H37408   7.252   3.428   8.197 -0.3013  1.1006 -2.4278
  996MOL0     H37409   7.320   3.583   8.239 -0.8748 -0.1880  2.4075
  996MOL0     H37410   7.781   3.932   8.231 -0.1556  0.6373  2.6711
  996MOL0     H37411   7.973   4.001   8.346 -2.3632  0.4357 -0.8744
  996MOL0     H37412   8.290   3.691   8.495  0.2961 -0.0365  0.1405
  996MOL0     H37413   8.349   3.756   8.338 -1.4081  0.8516 -1.1126
  996MOL0     H37414   8.368   3.885   8.624  0.1867  0.7342 -0.0199
  996MOL0     H37415   8.490   3.805   8.536  0.5799 -0.8164  1.2525
  996MOL0     H37416   8.359   4.071   8.466  0.5515  0.6456 -0.1794
  996MOL0     H37417   8.436   3.975   8.342  1.6585 -1.6381 -0.2244
  996MOL0     H37418   8.648   3.984   8.497  0.0457  0.7166 -1.8366
  996MOL0     H37419   8.553   4.066   8.618 -0.9550 -2.6877  0.6068
  996MOL0     H37420   8.647   4.152   8.354 -4.0693 -1.2925 -1.8543
  996MOL0     H37421   8.504   4.235   8.420  1.9822  1.1807 -3.1360
  996MOL0     H37422   8.760   4.218   8.581 -0.0176 -1.0861 -0.7311
  996MOL0     H37423   8.618   4.326   8.596 -1.5945 -1.7082  0.2112
  996MOL0     H37424   8.675   4.419   8.372  1.8710  0.6194 -2.3786
  996MOL0     H37425   8.821   4.320   8.375  1.8744  0.7845  0.7671
  996MOL0     H37426   8.907   4.425   8.563  0.8444 -1.1824 -2.3598
  996MOL0     H37427   8.771   4.542   8.581  1.8456  1.0157  0.3627
  996MOL0     H37428   8.137   3.601   8.346  0.1825 -0.1712 -0.5638
  996MOL0     H37429   7.909   3.522   8.244 -0.2228  0.0786 -2.8463
  996MOL0     H37430   7.729   3.578   7.938  3.0528 -3.9745  1.0433
  996MOL0     H37431   7.643   3.441   7.749  0.8355  1.5301  0.2028
  996MOL0     H37432   5.952   3.181   7.875  4.0364 -0.1275  0.0102
  996MOL0     H37433   5.853   3.387   7.791 -0.1621  1.5990 -2.7729
  996MOL0     H37434   5.693   3.618   7.520 -0.5055  0.5756 -1.7390
  996MOL0     H37435   5.556   3.798   7.471 -0.6940  1.3161 -1.4841
  996MOL0     H37436   5.502   3.969   7.290  1.3285  0.7271 -1.0205
  996MOL0     H37437   5.456   4.032   7.450  0.5025  0.8213  0.3626
  996MOL0     H37438   5.548   4.209   7.217 -0.7878  2.0052 -0.8236
  996MOL0     H37439   5.507   4.267   7.381 -1.8960  3.5771 -3.3971
  996MOL0     H37440   5.327   4.168   7.162 -0.1997  0.1257  0.4276
  996MOL0     H37441   5.281   4.149   7.321  0.9246 -2.8310 -2.2576
  996MOL0     H37442   5.393   4.420   7.257 -0.0682 -1.8157 -1.3326
  996MOL0     H37443   5.308   4.375   7.397  1.5217  2.2135 -1.2298
  996MOL0     H37444   4.976   4.466   7.169  0.3706  2.3655 -1.0230
  996MOL0     H37445   5.896   4.063   7.457  0.1663  0.3229 -0.9757
  996MOL0     H37446   6.104   3.885   7.651  1.2163 -2.8535 -0.4670
  996MOL0     H37447   6.151   3.865   7.480  3.6790 -0.7599  4.0477
  996MOL0     H37448   6.084   4.015   7.525 -1.6489  0.0099  0.4897
  997MOL0     O37449   0.426   3.408   1.658 -0.3867  0.0227  0.0714
  997MOL0     C37450   0.465   3.527   1.675 -0.4203 -0.7059 -0.0860
  997MOL0     O37451   0.534   3.595   1.588  0.2768  0.0034 -0.2509
  997MOL0     C37452   0.589   3.516   1.483  0.1193 -0.0408 -0.1984
  997MOL0     C37453   0.714   3.459   1.488  0.3186 -0.7226 -0.7539
  997MOL0     C37454   0.765   3.387   1.384 -0.3309 -0.7297  0.9497
  997MOL0     C37455   0.707   3.390   1.256  0.1337  0.4452 -0.3159
  997MOL0     O37456   0.773   3.340   1.156 -0.2263  0.5044  0.0814
  997MOL0     C37457   0.740   3.365   1.018 -0.2082 -0.1098  0.2361
  997MOL0     C37458   0.801   3.254   0.930 -0.1601  0.6431 -0.1654
  997MOL0     C37459   0.727   3.117   0.937 -0.5363 -0.1949  0.7164
  997MOL0     C37460   0.804   3.014   0.852 -0.3508 -0.0880 -0.2639
  997MOL0     C37461   0.721   2.891   0.844 -0.1622 -0.1810 -0.9591
  997MOL0     C37462   0.793   2.790   0.750  0.0947  0.4404  0.3637
  997MOL0     C37463   0.709   2.666   0.715  0.1844 -0.3988  0.0763
  997MOL0     C37464   0.676   2.576   0.836  0.1457 -0.0226  0.1902
  997MOL0     N37465   0.595   2.460   0.790 -0.2871 -0.8629 -0.1268
  997MOL0     C37466   0.633   2.372   0.691  0.3663  0.6850 -0.2372
  997MOL0     C37467   0.540   2.279   0.694  0.4808 -0.1773  0.0444
  997MOL0     C37468   0.540   2.156   0.612 -0.1617 -0.2742 -0.8177
  997MOL0     C37469   0.574   2.032   0.689  0.6017 -0.8095 -0.2954
  997MOL0     C37470   0.700   2.050   0.777  0.0312  0.1769 -0.4050
  997MOL0     C37471   0.758   1.907   0.815 -0.8189 -1.4640  0.0700
  997MOL0     O37472   0.900   1.903   0.853 -0.7408  0.4875 -0.5068
  997MOL0     C37473   0.993   1.968   0.773  0.2519 -0.2086  0.1546
  997MOL0     C37474   1.117   2.004   0.829  0.2545  0.7486 -0.2688
  997MOL0     C37475   1.213   2.082   0.757 -0.4307  0.0470  0.2979
  997MOL0     C37476   1.323   2.137   0.839 -0.4512  0.4262 -0.3216
  997MOL0     C37477   1.198   2.097   0.619 -0.7289 -0.3238 -0.3638
  997MOL0     C37478   1.308   2.154   0.532 -0.5520 -0.1537  0.1119
  997MOL0     O37479   1.299   2.129   0.394  0.3354  0.2028 -0.5766
  997MOL0     C37480   1.419   2.110   0.331  0.1117  0.0036 -0.5568
  997MOL0     C37481   1.505   2.220   0.293  0.4711  0.8696  0.6034
  997MOL0     C37482   1.622   2.192   0.227 -0.5182 -0.3372  0.5496
  997MOL0     C37483   1.660   2.061   0.192 -0.0489 -0.3235  0.7281
  997MOL0     O37484   1.770   2.049   0.115  0.4042 -0.6214  0.2073
  997MOL0     C37485   1.871   1.993   0.200 -0.0326 -0.5237 -0.1546
  997MOL0     C37486   1.995   1.969   0.119 -0.3170  0.0445  0.3808
  997MOL0     C37487   2.129   1.932   0.192  1.0276 -0.5549 -0.1794
  997MOL0     C37488   2.179   2.041   0.295  0.8567  0.7998  0.1471
  997MOL0     C37489   2.311   1.999   0.351  0.2811 -0.1534  0.3848
  997MOL0     C37490   2.307   1.869   0.433 -0.0294 -0.7560 -0.6055
  997MOL0     C37491   2.414   1.848   0.547  0.1026 -0.1296  0.4334
  997MOL0     C37492   2.559   1.825   0.481 -0.9112 -0.3353 -0.2843
  997MOL0    Cl37493   2.673   1.771   0.598  0.1051 -0.2535 -0.3705
  997MOL0     C37494   1.569   1.957   0.215 -0.3765  0.3711 -0.6244
  997MOL0     C37495   1.452   1.980   0.279  0.2768 -0.3759  0.4264
  997MOL0     O37496   1.395   2.235   0.577  0.0051  0.0264 -1.2963
  997MOL0     C37497   1.081   2.060   0.566 -0.2629 -0.4796 -0.6659
  997MOL0     C37498   0.984   1.989   0.637 -0.0961 -0.0098 -0.3557
  997MOL0     N37499   0.444   2.314   0.784 -0.5526  0.3572 -0.1892
  997MOL0     N37500   0.479   2.423   0.841  0.1259  0.3631  0.3289
  997MOL0     C37501   0.583   3.459   1.245  0.0924  0.0140  0.3750
  997MOL0     C37502   0.524   3.516   1.356 -0.8573 -0.0625 -0.2833
  997MOL0     C37503   0.435   3.597   1.798  0.2572 -0.4213 -0.3008
  997MOL0     C37504   0.534   3.685   1.853  1.1569  1.1102  0.0585
  997MOL0     C37505   0.503   3.766   1.966  0.4029  0.5717 -0.7127
  997MOL0     C37506   0.378   3.769   2.016 -0.0234  0.8356 -0.2824
  997MOL0     O37507   0.360   3.862   2.108 -0.0485  0.0862 -0.3028
  997MOL0     C37508   0.236   3.876   2.178 -0.1118 -0.3848 -0.0282
  997MOL0     C37509   0.238   3.999   2.274 -0.0642 -1.4642  0.3364
  997MOL0     C37510   0.114   4.030   2.366 -0.5120 -0.5209 -0.5004
  997MOL0     C37511  -0.008   3.928   2.370 -0.9449  0.1531 -0.2045
  997MOL0     C37512  -0.082   3.903   2.250 -0.4718 -0.3185  0.3344
  997MOL0     C37513  -0.147   3.874   2.154  0.5009  0.0075 -0.2222
  997MOL0     C37514   0.286   3.676   1.968 -0.0787  0.5627  0.3881
  997MOL0     C37515   0.306   3.594   1.857 -0.0437 -0.0572  0.7498
  997MOL0     C37516   0.193   3.521   1.785  0.0721 -0.1758  0.1663
  997MOL0     H37517   0.762   3.466   1.586  0.5035  2.6488 -0.9824
  997MOL0     H37518   0.853   3.326   1.399  2.2117  2.3185 -0.2598
  997MOL0     H37519   0.791   3.458   0.989 -1.0355  0.7879  1.5499
  997MOL0     H37520   0.633   3.378   1.002  0.0426  0.7910 -0.7853
  997MOL0     H37521   0.791   3.287   0.826  1.0777 -0.1690 -0.5568
  997MOL0     H37522   0.908   3.239   0.947  0.0482  2.2489  0.0772
  997MOL0     H37523   0.714   3.080   1.039 -1.4987 -0.9437  0.3422
  997MOL0     H37524   0.625   3.127   0.899  0.1332 -3.3318 -2.4837
  997MOL0     H37525   0.820   3.058   0.753 -0.6884 -0.5979 -0.5478
  997MOL0     H37526   0.901   2.991   0.897 -1.9107 -5.5974  1.0236
  997MOL0     H37527   0.617   2.900   0.809 -0.3040  0.4352 -0.3874
  997MOL0     H37528   0.711   2.856   0.947  4.4180 -0.9183 -0.5747
  997MOL0     H37529   0.809   2.841   0.655 -2.2764 -1.4589 -1.1799
  997MOL0     H37530   0.890   2.761   0.791 -0.1205  0.4886  0.9168
  997MOL0     H37531   0.756   2.601   0.641 -0.6032 -0.9143  0.0159
  997MOL0     H37532   0.621   2.705   0.663  1.3428 -0.6880 -2.2445
  997MOL0     H37533   0.769   2.537   0.879  1.2764  1.7000 -0.5557
  997MOL0     H37534   0.611   2.635   0.901 -0.3855  0.2660 -0.5865
  997MOL0     H37535   0.720   2.365   0.628  0.5685 -1.4974  0.2034
  997MOL0     H37536   0.620   2.178   0.542  1.7157  2.6809  1.9801
  997MOL0     H37537   0.446   2.135   0.560 -0.7849 -5.0862  1.6599
  997MOL0     H37538   0.488   2.025   0.756  1.6118 -0.4289  1.0958
  997MOL0     H37539   0.589   1.943   0.627  4.5612 -0.4108 -0.1588
  997MOL0     H37540   0.776   2.109   0.725  2.4170 -2.5957 -0.3776
  997MOL0     H37541   0.690   2.117   0.863  0.2527  1.2047 -1.1692
  997MOL0     H37542   0.711   1.869   0.906  3.1764 -1.7016  2.2572
  997MOL0     H37543   0.773   1.844   0.727 -0.1954 -1.4097  0.1346
  997MOL0     H37544   1.134   1.985   0.935 -0.5982  1.0522 -0.0745
  997MOL0     H37545   1.317   2.125   0.947 -1.0492  1.9395 -0.1677
  997MOL0     H37546   1.339   2.245   0.833  0.1545  0.4496  1.2719
  997MOL0     H37547   1.419   2.090   0.814  0.3035  1.0125  1.3520
  997MOL0     H37548   1.476   2.321   0.323 -3.0917 -0.2951  1.5262
  997MOL0     H37549   1.679   2.282   0.210  0.3130 -0.9237  0.1193
  997MOL0     H37550   1.900   2.071   0.271  1.5846 -0.9696 -0.2864
  997MOL0     H37551   1.848   1.899   0.250 -1.3362 -1.6491 -2.6767
  997MOL0     H37552   1.979   1.881   0.055  0.6298 -1.3560  1.9705
  997MOL0     H37553   2.012   2.065   0.070 -1.7605 -0.6273 -1.5875
  997MOL0     H37554   2.198   1.918   0.108  1.9240  0.8381  0.2894
  997MOL0     H37555   2.138   1.828   0.227  1.9151 -0.4076  0.0701
  997MOL0     H37556   2.108   2.054   0.377  1.3058 -0.3238  0.7256
  997MOL0     H37557   2.187   2.141   0.250 -1.1720  1.5758  1.3697
  997MOL0     H37558   2.389   1.992   0.275  3.0720  0.9629  2.9285
  997MOL0     H37559   2.336   2.083   0.415 -2.3494  0.8798  0.2004
  997MOL0     H37560   2.300   1.777   0.374 -0.9030 -0.1771 -1.4565
  997MOL0     H37561   2.213   1.874   0.489  0.2104  0.3141 -0.2743
  997MOL0     H37562   2.385   1.752   0.592  0.8368 -0.5542  0.0130
  997MOL0     H37563   2.410   1.927   0.622 -1.7595  1.3933 -1.1484
  997MOL0     H37564   2.602   1.910   0.427 -2.2310  0.8824  0.5205
  997MOL0     H37565   2.543   1.747   0.407 -0.5445 -3.0083  2.2874
  997MOL0     H37566   1.587   1.856   0.181 -2.2793 -0.0265 -0.5737
  997MOL0     H37567   1.377   1.906   0.306 -0.7801  0.8000  0.8283
  997MOL0     H37568   1.054   2.083   0.463  0.7705  1.1865 -0.6118
  997MOL0     H37569   0.906   1.953   0.570 -0.3004  1.2024 -0.8024
  997MOL0     H37570   0.525   3.479   1.156 -1.5582 -3.6182  0.4641
  997MOL0     H37571   0.431   3.569   1.339 -0.7289 -0.1852 -1.4071
  997MOL0     H37572   0.637   3.685   1.819  1.6046 -0.9644  1.2253
  997MOL0     H37573   0.582   3.828   2.008 -0.9812  0.0184  3.1105
  997MOL0     H37574   0.153   3.885   2.107 -0.6176  1.9905  0.7636
  997MOL0     H37575   0.215   3.789   2.241 -0.5286 -1.3349 -1.4400
  997MOL0     H37576   0.258   4.090   2.216  0.5642 -1.0986  1.1159
  997MOL0     H37577   0.324   3.978   2.338  0.1608 -3.1387 -0.4557
  997MOL0     H37578   0.153   4.047   2.467 -1.1191  0.8035 -0.4715
  997MOL0     H37579   0.072   4.129   2.347 -0.3213  0.0498  1.7410
  997MOL0     H37580  -0.077   3.956   2.450  1.9277 -0.6345  2.7708
  997MOL0     H37581   0.038   3.833   2.401  1.0427  1.0332 -0.2886
  997MOL0     H37582  -0.214   3.846   2.076  1.2688 -1.0101 -0.5409
  997MOL0     H37583   0.189   3.660   2.014 -1.2211  1.1575 -1.6758
  997MOL0     H37584   0.193   3.531   1.676 -1.6495  2.2640  0.3233
  997MOL0     H37585   0.210   3.414   1.806 -0.5986 -0.6585 -1.5963
  997MOL0     H37586   0.092   3.550   1.815 -0.6847 -1.2055 -1.2943
  998MOL0     O37587   4.593   8.337   8.328  1.0934 -1.0463 -0.3013
  998MOL0     C37588   4.576   8.452   8.277 -0.0229  0.4178  0.3200
  998MOL0     O37589   4.448   8.506   8.253 -0.6883 -0.1305  0.0343
  998MOL0     C37590   4.331   8.431   8.276 -0.8386 -0.4048 -0.5349
  998MOL0     C37591   4.307   8.305   8.223 -0.5449  0.2336 -0.1399
  998MOL0     C37592   4.174   8.244   8.224 -0.2587 -0.1442  0.3176
  998MOL0     C37593   4.074   8.295   8.302  0.0077 -0.2666  0.5053
  998MOL0     O37594   3.950   8.232   8.315 -0.4536 -0.0104  0.0294
  998MOL0     C37595   3.843   8.322   8.310 -1.5034  0.2336 -0.1065
  998MOL0     C37596   3.710   8.250   8.342  0.9083  0.3599 -0.4911
  998MOL0     C37597   3.687   8.137   8.246 -0.5924 -0.0565 -0.6542
  998MOL0     C37598   3.684   8.002   8.323 -0.2047 -0.1217 -1.2355
  998MOL0     C37599   3.548   7.986   8.399  0.0548  0.0153  0.0456
  998MOL0     C37600   3.427   7.976   8.302  0.1981 -0.3420  0.0584
  998MOL0     C37601   3.293   7.949   8.375  0.0598 -0.2283  0.5267
  998MOL0     C37602   3.258   8.051   8.491  0.8099  1.0224 -0.0391
  998MOL0     N37603   3.237   8.188   8.445  0.5006  0.3196  0.7671
  998MOL0     C37604   3.135   8.223   8.364  0.1859  0.9488  0.4784
  998MOL0     C37605   3.166   8.341   8.334  0.4035 -0.6629 -0.1049
  998MOL0     C37606   3.069   8.439   8.277 -0.7060 -0.2144 -0.3650
  998MOL0     C37607   3.040   8.421   8.129 -0.0903  0.7605 -0.1500
  998MOL0     C37608   3.161   8.480   8.058  0.6792 -0.5940  0.0008
  998MOL0     C37609   3.162   8.638   8.050 -0.4382 -0.6706 -0.2934
  998MOL0     O37610   3.276   8.693   7.979 -0.0757  1.2638  0.0353
  998MOL0     C37611   3.397   8.718   8.041  0.8591  0.1314  0.5890
  998MOL0     C37612   3.410   8.684   8.174  0.2252 -0.2041  0.1072
  998MOL0     C37613   3.524   8.702   8.243  0.2612  0.7877 -0.7336
  998MOL0     C37614   3.535   8.647   8.381  0.0088 -0.8239 -0.0914
  998MOL0     C37615   3.639   8.757   8.172  0.4721  0.2944 -0.0575
  998MOL0     C37616   3.767   8.782   8.250 -0.0659 -1.2759  0.2516
  998MOL0     O37617   3.771   8.791   8.394  0.3961 -0.2438  0.4804
  998MOL0     C37618   3.884   8.836   8.459  0.2402 -0.2184  1.1418
  998MOL0     C37619   3.909   8.766   8.579 -0.2793  0.3888  0.1762
  998MOL0     C37620   4.023   8.799   8.653 -0.4229 -0.2041  0.4177
  998MOL0     C37621   4.108   8.908   8.619  0.5649 -0.6266  0.3327
  998MOL0     O37622   4.226   8.951   8.685 -0.0253  0.2106  0.1591
  998MOL0     C37623   4.230   8.939   8.825  0.1594 -0.1597  0.5738
  998MOL0     C37624   4.296   8.808   8.866 -0.5190 -0.5395 -0.2836
  998MOL0     C37625   4.353   8.803   9.014  0.8055  0.3966 -0.1137
  998MOL0     C37626   4.235   8.803   9.103  1.0072  0.2201 -0.2685
  998MOL0     C37627   4.287   8.813   9.250  0.5147 -0.4032  0.7749
  998MOL0     C37628   4.374   8.706   9.301 -0.2009 -0.1943 -0.6868
  998MOL0     C37629   4.329   8.563   9.288  1.1901  0.8378 -0.0911
  998MOL0     C37630   4.431   8.473   9.336 -0.2273 -0.5319  0.5334
  998MOL0    Cl37631   4.435   8.477   9.520 -0.1116  0.1529  0.3984
  998MOL0     C37632   4.084   8.969   8.495  0.3382  0.4890  0.0976
  998MOL0     C37633   3.967   8.942   8.422 -0.2175  0.0189 -0.2315
  998MOL0     O37634   3.867   8.805   8.185  0.4358  0.6284 -1.0580
  998MOL0     C37635   3.625   8.791   8.035  0.3043 -0.5520 -0.2594
  998MOL0     C37636   3.501   8.769   7.966  0.9077  0.4353 -0.1777
  998MOL0     N37637   3.291   8.377   8.377  0.4339  0.7701  0.2826
  998MOL0     N37638   3.334   8.282   8.453 -0.2533 -0.5718 -0.3071
  998MOL0     C37639   4.102   8.426   8.365  0.0749 -0.2326  0.4556
  998MOL0     C37640   4.227   8.495   8.343  0.3146 -0.0430  0.3307
  998MOL0     C37641   4.696   8.537   8.250 -0.5765  0.4628 -0.9178
  998MOL0     C37642   4.699   8.671   8.293 -0.5027 -0.4032  0.4756
  998MOL0     C37643   4.820   8.745   8.288  0.0517 -0.8230 -0.6141
  998MOL0     C37644   4.931   8.687   8.221  0.0170  0.6965 -0.6005
  998MOL0     O37645   5.047   8.765   8.217 -0.7180 -0.2488  0.1568
  998MOL0     C37646   5.164   8.727   8.135  0.6634 -0.7474  0.1867
  998MOL0     C37647   5.266   8.846   8.136  0.0031  0.6970  0.1927
  998MOL0     C37648   5.346   8.853   7.993 -0.2486 -0.1361  0.4305
  998MOL0     C37649   5.435   8.981   8.002 -0.0153  0.3910  0.0418
  998MOL0     C37650   5.543   8.965   8.098  0.4117  0.1938  0.2764
  998MOL0     C37651   5.631   8.946   8.172  0.0420  1.4905 -0.5213
  998MOL0     C37652   4.926   8.556   8.170  0.2859 -0.1866  0.7166
  998MOL0     C37653   4.807   8.485   8.177 -0.4435 -0.1848 -1.0219
  998MOL0     C37654   4.820   8.349   8.133  0.4839 -0.0082  0.4087
  998MOL0     H37655   4.382   8.262   8.157 -0.1184  3.0324 -1.6736
  998MOL0     H37656   4.151   8.150   8.174 -1.2635  0.5096 -0.4827
  998MOL0     H37657   3.854   8.367   8.211  3.0206  1.3312  0.6487
  998MOL0     H37658   3.850   8.396   8.391  0.6815 -2.9756  2.9346
  998MOL0     H37659   3.730   8.207   8.441 -0.8618  0.4849 -0.0371
  998MOL0     H37660   3.626   8.320   8.339  1.6393  1.2794 -0.1527
  998MOL0     H37661   3.596   8.159   8.189 -0.9986  0.1467  0.0605
  998MOL0     H37662   3.775   8.129   8.181  0.0361  0.0105  0.1738
  998MOL0     H37663   3.693   7.928   8.243 -1.5807  1.3159 -2.8097
  998MOL0     H37664   3.771   8.001   8.389 -1.1477  0.7428  0.0847
  998MOL0     H37665   3.538   8.066   8.474  2.7662  1.2360 -0.7561
  998MOL0     H37666   3.542   7.893   8.456  2.2108  0.6329  1.4420
  998MOL0     H37667   3.411   8.065   8.242  1.1331 -0.7328 -0.7992
  998MOL0     H37668   3.445   7.890   8.236  1.4138  1.4295 -2.0427
  998MOL0     H37669   3.290   7.850   8.422  0.5150 -0.3135  0.3862
  998MOL0     H37670   3.228   7.961   8.288  2.3958 -1.8222 -1.5996
  998MOL0     H37671   3.168   8.019   8.544  0.4826 -1.5206 -1.9271
  998MOL0     H37672   3.338   8.049   8.565 -1.5256 -0.0637  2.6134
  998MOL0     H37673   3.040   8.175   8.338  1.6892 -0.6878 -2.4727
  998MOL0     H37674   3.100   8.541   8.303 -1.5628  0.0796 -0.4497
  998MOL0     H37675   2.972   8.417   8.324  1.2231 -1.3797  3.5323
  998MOL0     H37676   3.020   8.318   8.098 -0.3136  1.4932 -2.6514
  998MOL0     H37677   2.949   8.476   8.102  0.5958  3.5847  2.6928
  998MOL0     H37678   3.256   8.434   8.085  0.9743  0.1376  0.2156
  998MOL0     H37679   3.146   8.451   7.953 -0.7991 -2.8432  0.7415
  998MOL0     H37680   3.072   8.673   7.999 -1.5062 -1.6880  0.8252
  998MOL0     H37681   3.156   8.683   8.149  0.7431 -2.5266  0.6962
  998MOL0     H37682   3.331   8.632   8.225  0.8643 -0.7541  0.5489
  998MOL0     H37683   3.451   8.584   8.413 -1.1216  0.2683 -0.8048
  998MOL0     H37684   3.521   8.742   8.433 -0.0519 -0.5489 -0.6043
  998MOL0     H37685   3.625   8.587   8.397 -0.0434 -0.4614  1.7437
  998MOL0     H37686   3.851   8.677   8.602  1.6666 -1.5472 -1.9974
  998MOL0     H37687   4.025   8.758   8.753 -0.9522 -1.1313  0.0563
  998MOL0     H37688   4.307   9.012   8.850  0.4250 -0.0252 -0.5798
  998MOL0     H37689   4.134   8.967   8.870 -1.5016  0.3519 -2.9536
  998MOL0     H37690   4.219   8.731   8.852 -0.8277 -0.2277 -0.3212
  998MOL0     H37691   4.382   8.798   8.800  1.0154  1.0593  1.3606
  998MOL0     H37692   4.416   8.890   9.033 -2.1399  2.4217  1.0537
  998MOL0     H37693   4.412   8.712   9.029 -1.5047 -0.9004  1.6249
  998MOL0     H37694   4.162   8.722   9.091 -4.0722  4.0915  0.7559
  998MOL0     H37695   4.180   8.894   9.078  1.0281 -0.0730 -1.4309
  998MOL0     H37696   4.347   8.904   9.264  1.5250 -0.9980  0.4808
  998MOL0     H37697   4.205   8.819   9.321  1.3841 -2.1374  1.9812
  998MOL0     H37698   4.394   8.732   9.406 -0.4825 -0.9644 -0.4333
  998MOL0     H37699   4.466   8.713   9.243 -0.1733 -0.2504 -0.6505
  998MOL0     H37700   4.320   8.551   9.179  1.9144 -3.8634  0.1286
  998MOL0     H37701   4.230   8.550   9.332  1.3276  2.4499  0.7614
  998MOL0     H37702   4.522   8.506   9.285 -2.2341  2.2453 -1.5151
  998MOL0     H37703   4.417   8.368   9.308 -1.1150 -0.0425 -0.9850
  998MOL0     H37704   4.143   9.041   8.439  1.4539 -1.4298 -1.3367
  998MOL0     H37705   3.943   9.002   8.334  0.7092 -1.2632 -1.4095
  998MOL0     H37706   3.714   8.830   7.985  0.5462 -0.6248  0.1084
  998MOL0     H37707   3.485   8.781   7.859 -4.0951  0.8579  0.3901
  998MOL0     H37708   4.031   8.488   8.419  1.0403 -0.1964  1.7305
  998MOL0     H37709   4.226   8.592   8.392 -2.1890  0.3304 -0.3183
  998MOL0     H37710   4.619   8.720   8.347  0.4078  0.0157  1.4871
  998MOL0     H37711   4.836   8.841   8.336  0.3415 -1.2890  0.2541
  998MOL0     H37712   5.203   8.633   8.174  1.7738 -1.2512 -1.9954
  998MOL0     H37713   5.122   8.704   8.037 -0.5487 -0.4321  0.6153
  998MOL0     H37714   5.340   8.840   8.216  1.3496  0.0313 -1.0586
  998MOL0     H37715   5.203   8.935   8.147 -1.8123 -0.3077 -1.3734
  998MOL0     H37716   5.397   8.757   7.980 -2.7179 -1.2699 -1.9320
  998MOL0     H37717   5.285   8.857   7.903 -3.4141 -1.7026  2.3201
  998MOL0     H37718   5.368   9.060   8.036 -0.2267 -1.4846  4.6644
  998MOL0     H37719   5.485   9.001   7.906  0.6878  6.4093  1.3021
  998MOL0     H37720   5.720   8.932   8.230  1.0204 -0.0204 -2.2742
  998MOL0     H37721   5.008   8.507   8.117  0.4539  1.3481 -0.5462
  998MOL0     H37722   4.870   8.345   8.036  0.4307 -0.2078  0.3891
  998MOL0     H37723   4.877   8.292   8.208 -2.9210  0.0465  3.3342
  998MOL0     H37724   4.723   8.301   8.116 -0.1269  1.3047  0.1160
  999MOL0     O37725   5.191  10.283   4.593  0.2716 -0.0953  0.4441
  999MOL0     C37726   5.168  10.373   4.507 -0.1780  0.3009 -0.1524
  999MOL0     O37727   5.244  10.492   4.488  0.5939 -0.8402 -0.7983
  999MOL0     C37728   5.359  10.512   4.555  0.5030 -0.8322  0.6038
  999MOL0     C37729   5.453  10.410   4.577 -0.6821 -0.1975 -0.5244
  999MOL0     C37730   5.577  10.453   4.618 -0.1214  0.2293 -0.3502
  999MOL0     C37731   5.616  10.586   4.631 -0.4481 -0.0072  0.9863
  999MOL0     O37732   5.746  10.623   4.656  0.0044 -0.0960 -0.0629
  999MOL0     C37733   5.858  10.546   4.615  0.1521 -0.0391  0.4395
  999MOL0     C37734   5.958  10.637   4.540  0.6325  0.6703  0.2513
  999MOL0     C37735   6.045  10.709   4.641  1.4162 -0.2311 -0.7146
  999MOL0     C37736   6.156  10.797   4.581  0.2919  0.1383 -0.0308
  999MOL0     C37737   6.286  10.822   4.657  0.0053  0.1291  0.2032
  999MOL0     C37738   6.388  10.908   4.580 -0.2226 -0.1433  0.8070
  999MOL0     C37739   6.347  11.053   4.557 -0.1382  0.7207  0.1285
  999MOL0     C37740   6.432  11.115   4.442  0.5465 -0.0180 -0.8302
  999MOL0     N37741   6.572  11.129   4.495  0.5465 -1.0573 -0.5322
  999MOL0     C37742   6.624  11.233   4.568  0.1167  0.4684  1.0029
  999MOL0     C37743   6.753  11.216   4.578  0.1388  0.2822 -0.3400
  999MOL0     C37744   6.863  11.293   4.652 -0.0383 -0.3798  0.3365
  999MOL0     C37745   6.909  11.410   4.559 -0.8121 -0.0479  1.2838
  999MOL0     C37746   6.982  11.524   4.621  0.7202  0.1280 -0.5115
  999MOL0     C37747   6.991  11.649   4.531 -0.0433  0.3051 -0.1452
  999MOL0     O37748   6.986  11.617   4.396  0.5658  0.5977 -0.5857
  999MOL0     C37749   7.097  11.618   4.318 -0.3515  0.1461 -0.1399
  999MOL0     C37750   7.082  11.650   4.187 -0.3778  0.2473  0.2361
  999MOL0     C37751   7.177  11.622   4.092  0.2348  1.1085 -0.4170
  999MOL0     C37752   7.143  11.645   3.951  0.4135  0.3429  1.0451
  999MOL0     C37753   7.301  11.567   4.133 -0.1476  0.0754 -0.6966
  999MOL0     C37754   7.417  11.545   4.045 -0.1769  0.0277  0.4408
  999MOL0     O37755   7.537  11.562   4.104 -0.6416  0.5941 -0.5903
  999MOL0     C37756   7.640  11.613   4.021  0.2745  0.2610 -0.5500
  999MOL0     C37757   7.749  11.533   3.994 -0.4202 -0.2256 -0.5402
  999MOL0     C37758   7.844  11.580   3.901 -0.0644  0.4984  0.0652
  999MOL0     C37759   7.827  11.699   3.836  0.3752  0.5985 -0.5916
  999MOL0     O37760   7.916  11.734   3.737 -0.0485  0.0676  0.5606
  999MOL0     C37761   7.919  11.862   3.674  0.1048  0.1909 -0.3186
  999MOL0     C37762   8.021  11.851   3.561 -0.4698  0.4620  0.3658
  999MOL0     C37763   8.165  11.801   3.585 -1.1216  0.1801  0.1162
  999MOL0     C37764   8.254  11.889   3.683 -0.6695 -0.3375 -0.4718
  999MOL0     C37765   8.397  11.857   3.654 -1.0764 -0.5280 -0.5471
  999MOL0     C37766   8.477  11.925   3.758 -2.1290  0.1605 -0.5886
  999MOL0     C37767   8.632  11.916   3.743  1.0624 -0.1951 -0.4364
  999MOL0     C37768   8.699  11.929   3.883 -0.1163 -1.0732 -0.1176
  999MOL0    Cl37769   8.876  11.934   3.854  0.1392  0.1469  0.0776
  999MOL0     C37770   7.728  11.788   3.877  1.1837  0.3077 -0.1355
  999MOL0     C37771   7.634  11.742   3.968  0.8617 -0.9532  0.3890
  999MOL0     O37772   7.401  11.517   3.926 -0.4236 -0.8639 -0.2224
  999MOL0     C37773   7.324  11.543   4.269  0.0321  0.5364 -0.0805
  999MOL0     C37774   7.218  11.560   4.358 -0.3964  0.2087  0.0913
  999MOL0     N37775   6.793  11.106   4.512  0.0942  0.2541  0.6565
  999MOL0     N37776   6.688  11.054   4.452 -0.0510  0.7640 -0.6278
  999MOL0     C37777   5.530  10.683   4.598  0.2844 -0.1869 -0.7536
  999MOL0     C37778   5.401  10.647   4.556 -0.5704 -0.2457  0.2273
  999MOL0     C37779   5.038  10.354   4.436  0.2950  0.2124  0.5713
  999MOL0     C37780   4.991  10.458   4.356 -0.0864  0.3687 -0.6978
  999MOL0     C37781   4.863  10.449   4.291  0.1639 -0.5833 -0.3567
  999MOL0     C37782   4.776  10.332   4.308  0.0539  0.6964  0.1868
  999MOL0     O37783   4.645  10.313   4.260 -0.0566 -0.5332  0.8020
  999MOL0     C37784   4.585  10.419   4.193  0.6744  0.1571 -0.3987
  999MOL0     C37785   4.460  10.368   4.132 -0.8438  0.4915  0.0282
  999MOL0     C37786   4.364  10.477   4.093 -0.3954 -0.1785 -0.4039
  999MOL0     C37787   4.223  10.433   4.074  0.3234 -0.1529  0.1003
  999MOL0     C37788   4.127  10.548   4.065  0.2831 -0.4357 -0.2016
  999MOL0     C37789   4.060  10.646   4.059  0.0586 -0.1494  0.2251
  999MOL0     C37790   4.823  10.230   4.387 -0.0548  0.7452 -0.5697
  999MOL0     C37791   4.960  10.230   4.439  0.3675  0.1769  0.6347
  999MOL0     C37792   4.992  10.098   4.500  0.3932 -0.2997  0.3667
  999MOL0     H37793   5.450  10.302   4.568 -1.3610 -0.2428  0.2439
  999MOL0     H37794   5.658  10.385   4.644 -0.0081  0.1040 -1.0166
  999MOL0     H37795   5.823  10.465   4.550  1.9769 -0.9309  0.5169
  999MOL0     H37796   5.905  10.488   4.695 -0.0014 -2.2296 -0.9869
  999MOL0     H37797   6.018  10.573   4.474 -0.0856 -0.9744  1.1495
  999MOL0     H37798   5.907  10.712   4.479  0.8966  0.6335 -0.0184
  999MOL0     H37799   5.972  10.764   4.702  0.5047 -2.5989  0.4458
  999MOL0     H37800   6.094  10.625   4.690 -0.5538 -0.4779  0.9780
  999MOL0     H37801   6.186  10.742   4.491 -3.6894 -1.3842 -0.6053
  999MOL0     H37802   6.125  10.898   4.553  1.9972  1.4751  2.4951
  999MOL0     H37803   6.339  10.727   4.671 -2.4504 -1.7385 -2.0929
  999MOL0     H37804   6.265  10.858   4.758  1.9384 -4.8596  2.7425
  999MOL0     H37805   6.479  10.909   4.641 -0.2600 -1.8808  0.9217
  999MOL0     H37806   6.407  10.848   4.491  2.6124 -0.9922  1.8697
  999MOL0     H37807   6.367  11.115   4.645  1.2203 -1.3315  1.3446
  999MOL0     H37808   6.242  11.059   4.529 -0.0815  4.4909  0.1809
  999MOL0     H37809   6.432  11.041   4.361  3.7780 -2.6448  1.2782
  999MOL0     H37810   6.389  11.210   4.411  0.1878  0.3439  0.6903
  999MOL0     H37811   6.574  11.325   4.597  1.5644  1.9608 -0.9536
  999MOL0     H37812   6.944  11.227   4.685 -0.3272 -0.7937  0.2212
  999MOL0     H37813   6.820  11.337   4.743  0.0914 -0.8177  0.6112
  999MOL0     H37814   6.967  11.362   4.480 -1.6394 -0.2190  0.7701
  999MOL0     H37815   6.823  11.448   4.503  1.4317 -0.6585 -3.0336
  999MOL0     H37816   6.936  11.556   4.714 -0.0291 -4.2752  0.8097
  999MOL0     H37817   7.085  11.492   4.638  0.9752  0.1185 -1.9164
  999MOL0     H37818   6.899  11.708   4.541 -2.8944 -3.9395  1.8889
  999MOL0     H37819   7.080  11.706   4.558  0.1042  0.5037 -1.0383
  999MOL0     H37820   6.986  11.696   4.164  0.0441  1.1682  0.2897
  999MOL0     H37821   7.038  11.676   3.943  0.5962  0.7829  0.2999
  999MOL0     H37822   7.148  11.554   3.890 -3.4772  1.3663 -1.1846
  999MOL0     H37823   7.209  11.718   3.905  0.6388 -0.8264 -0.5727
  999MOL0     H37824   7.765  11.435   4.038  0.0242 -0.0048 -0.2065
  999MOL0     H37825   7.938  11.531   3.879  2.5503  3.8124  2.7173
  999MOL0     H37826   7.821  11.885   3.631  0.3455 -0.3118 -1.1683
  999MOL0     H37827   7.933  11.938   3.751 -0.9583 -0.1438  0.2262
  999MOL0     H37828   7.993  11.783   3.480  1.0772 -2.0729  1.8443
  999MOL0     H37829   8.022  11.952   3.517 -2.8248  0.2675 -0.2845
  999MOL0     H37830   8.209  11.811   3.485  0.9904 -0.6712  0.9118
  999MOL0     H37831   8.167  11.697   3.619 -1.6386  0.1544  0.0738
  999MOL0     H37832   8.234  11.862   3.787  3.1574 -1.7726  0.0756
  999MOL0     H37833   8.226  11.991   3.658 -3.1271 -1.4366 -2.6639
  999MOL0     H37834   8.411  11.749   3.647  0.1747 -0.3874 -0.3390
  999MOL0     H37835   8.418  11.902   3.556  1.1046 -0.9725 -0.3303
  999MOL0     H37836   8.457  11.879   3.855  0.7456  1.4465  0.7432
  999MOL0     H37837   8.455  12.032   3.763 -1.4695  0.3157 -0.8255
  999MOL0     H37838   8.664  12.004   3.687  1.0413 -0.3167 -0.6418
  999MOL0     H37839   8.657  11.826   3.686  1.2700 -0.8732  0.7014
  999MOL0     H37840   8.671  11.840   3.940 -1.7919 -0.4650  0.0760
  999MOL0     H37841   8.667  12.016   3.942 -1.8960 -0.2873 -2.0887
  999MOL0     H37842   7.722  11.888   3.834 -2.1127  0.9898  1.5837
  999MOL0     H37843   7.551  11.802   4.003  1.0606 -1.4681  1.8192
  999MOL0     H37844   7.422  11.509   4.300  1.5367  3.3835 -1.3755
  999MOL0     H37845   7.228  11.517   4.458 -0.6462  0.0154  0.0325
  999MOL0     H37846   5.550  10.790   4.600 -0.6871 -0.0073  0.0036
  999MOL0     H37847   5.324  10.719   4.532 -1.0869 -0.9882 -0.4088
  999MOL0     H37848   5.041  10.550   4.327  2.1916 -0.6914 -0.3111
  999MOL0     H37849   4.836  10.537   4.233  0.4748  0.4571  1.0246
  999MOL0     H37850   4.561  10.510   4.249 -3.0739 -0.1086 -1.3020
  999MOL0     H37851   4.648  10.447   4.109 -0.0043  1.4624 -0.5040
  999MOL0     H37852   4.411  10.309   4.211 -0.6730 -0.3376 -0.4718
  999MOL0     H37853   4.485  10.301   4.050 -2.4201 -0.6633  0.4522
  999MOL0     H37854   4.360  10.555   4.169 -1.9002 -0.1847 -0.4386
  999MOL0     H37855   4.402  10.535   4.009  0.1949  0.1391  0.0795
  999MOL0     H37856   4.183  10.371   4.155  0.1413  2.7145  2.3847
  999MOL0     H37857   4.217  10.377   3.980 -2.4755 -0.0499  0.1119
  999MOL0     H37858   4.008  10.740   4.047 -0.9979 -0.7696 -0.1950
  999MOL0     H37859   4.756  10.145   4.395 -1.8257  2.0119 -1.3384
  999MOL0     H37860   5.101  10.087   4.494  0.5759  1.2718  0.3799
  999MOL0     H37861   4.952  10.095   4.602 -1.9408  2.3956 -0.3579
  999MOL0     H37862   4.953  10.010   4.449  3.2136 -1.0070 -0.7437
 1000MOL0     O37863   0.358   1.678   0.561  0.1668  0.2917  0.4349
 1000MOL0     C37864   0.246   1.698   0.512 -0.1309  0.2743 -0.4474
 1000MOL0     O37865   0.173   1.609   0.438  0.2082 -0.1284 -0.0502
 1000MOL0     C37866   0.243   1.503   0.390 -0.6789  0.2774  0.4492
 1000MOL0     C37867   0.344   1.528   0.297 -0.7155 -0.6702 -0.7378
 1000MOL0     C37868   0.415   1.424   0.239 -0.6255 -0.4119 -0.2557
 1000MOL0     C37869   0.376   1.288   0.252  0.2663 -1.0020  0.0624
 1000MOL0     O37870   0.421   1.184   0.176 -1.0916  0.0952 -0.5492
 1000MOL0     C37871   0.491   1.203   0.055  0.3517  0.3181 -0.0401
 1000MOL0     C37872   0.525   1.070  -0.003  0.0309  0.0945  0.2096
 1000MOL0     C37873   0.630   0.995   0.073 -0.4966 -0.1094 -0.6351
 1000MOL0     C37874   0.643   0.852   0.031 -0.3228  0.3254 -0.3070
 1000MOL0     C37875   0.722   0.760   0.127 -0.2928 -0.0960 -0.1016
 1000MOL0     C37876   0.866   0.803   0.150 -0.4123  0.2072  0.7298
 1000MOL0     C37877   0.928   0.694   0.238 -0.2543  0.3604  1.0939
 1000MOL0     C37878   1.079   0.729   0.278  0.4018  0.1588 -0.5637
 1000MOL0     N37879   1.064   0.843   0.374 -0.7234  0.2723  1.0359
 1000MOL0     C37880   1.021   0.825   0.504  0.9435 -1.7344 -0.4227
 1000MOL0     C37881   1.042   0.944   0.568 -0.5744 -0.3496 -0.2944
 1000MOL0     C37882   1.006   0.969   0.709  0.4141 -0.3564 -0.1084
 1000MOL0     C37883   1.109   1.052   0.793  0.4221  0.2300 -0.2889
 1000MOL0     C37884   1.200   0.957   0.865  0.3376  0.7588 -0.2330
 1000MOL0     C37885   1.151   0.907   1.001  0.6042  0.2376 -0.0884
 1000MOL0     O37886   1.137   1.029   1.076 -0.2970  0.0426 -0.2701
 1000MOL0     C37887   1.015   1.057   1.135  0.3552 -0.3050  0.3784
 1000MOL0     C37888   1.003   1.109   1.258  0.9035 -0.1818 -0.5798
 1000MOL0     C37889   0.884   1.136   1.331 -0.4165  0.1273 -0.5670
 1000MOL0     C37890   0.903   1.190   1.470 -0.3374 -0.0207  0.3058
 1000MOL0     C37891   0.763   1.106   1.265 -0.4113  0.6352  0.0339
 1000MOL0     C37892   0.631   1.099   1.331 -0.1723  0.4350 -0.2794
 1000MOL0     O37893   0.543   1.037   1.262 -0.6349 -0.5913 -0.1386
 1000MOL0     C37894   0.413   1.012   1.294  0.0157  1.0174 -0.3686
 1000MOL0     C37895   0.379   0.955   1.415  0.2967 -0.3414 -0.2358
 1000MOL0     C37896   0.241   0.935   1.452 -0.1383  0.7278 -0.2196
 1000MOL0     C37897   0.149   0.967   1.356 -0.4315  0.2481 -0.1822
 1000MOL0     O37898   0.014   0.938   1.378  0.2163  0.4333  0.0714
 1000MOL0     C37899  -0.058   1.019   1.463  0.7138 -0.7984 -1.2658
 1000MOL0     C37900  -0.199   0.968   1.479 -0.2787 -0.0662 -0.1178
 1000MOL0     C37901  -0.311   1.046   1.398  0.5748 -0.2275 -0.0136
 1000MOL0     C37902  -0.460   1.004   1.428 -0.8563 -0.3203  0.0074
 1000MOL0     C37903  -0.564   1.075   1.336 -0.3031 -0.1704 -0.3035
 1000MOL0     C37904  -0.709   1.055   1.380  0.5123  0.2763  0.5930
 1000MOL0     C37905  -0.813   1.062   1.268  0.4217 -0.1150 -0.1101
 1000MOL0     C37906  -0.813   0.934   1.172 -0.1901  0.0721  0.4160
 1000MOL0    Cl37907  -0.880   0.784   1.255  0.1192  0.4856 -0.3907
 1000MOL0     C37908   0.178   1.023   1.233 -0.8896  0.5312  0.4149
 1000MOL0     C37909   0.315   1.041   1.196 -0.2783 -0.0920 -0.1980
 1000MOL0     O37910   0.608   1.162   1.432  0.2525 -0.1677 -0.2019
 1000MOL0     C37911   0.766   1.071   1.125 -1.3931  0.3608 -0.5141
 1000MOL0     C37912   0.891   1.040   1.067  0.6206  0.3054  0.2433
 1000MOL0     N37913   1.100   1.028   0.471 -0.0309  0.0344  0.4290
 1000MOL0     N37914   1.117   0.963   0.360  0.3999 -0.3025  0.4035
 1000MOL0     C37915   0.275   1.258   0.349  0.2929  0.0448 -0.2729
 1000MOL0     C37916   0.218   1.365   0.424 -0.7405 -0.0609  0.1942
 1000MOL0     C37917   0.192   1.826   0.519 -0.0377  0.0198  0.1861
 1000MOL0     C37918   0.268   1.927   0.456  0.5886  0.9885  0.0989
 1000MOL0     C37919   0.219   2.059   0.441  0.4693 -0.2127  0.6917
 1000MOL0     C37920   0.093   2.104   0.492  0.0028  0.1842  0.0986
 1000MOL0     O37921   0.049   2.230   0.481  0.5569 -0.2972 -0.0031
 1000MOL0     C37922   0.106   2.317   0.383 -0.2042 -0.2088  0.2995
 1000MOL0     C37923   0.002   2.414   0.325  0.4909 -0.2175 -1.1335
 1000MOL0     C37924  -0.106   2.343   0.250 -0.0917 -0.3049 -0.5284
 1000MOL0     C37925  -0.203   2.436   0.183  0.9930  0.1976 -0.4068
 1000MOL0     C37926  -0.277   2.529   0.267  0.1302 -0.6108  0.9168
 1000MOL0     C37927  -0.342   2.623   0.312 -0.7421  0.3514  0.7123
 1000MOL0     C37928   0.024   2.005   0.559 -0.4697 -0.1162 -0.7761
 1000MOL0     C37929   0.070   1.871   0.571 -0.2088 -0.4440 -0.8397
 1000MOL0     C37930  -0.025   1.784   0.647 -0.2037  0.1065  0.1549
 1000MOL0     H37931   0.371   1.631   0.279  1.8046 -1.1790 -0.3062
 1000MOL0     H37932   0.490   1.463   0.171 -0.1070  0.0947  0.5917
 1000MOL0     H37933   0.573   1.273   0.076 -1.5440  2.7782 -0.3503
 1000MOL0     H37934   0.426   1.254  -0.017  0.4487  3.4005  1.8549
 1000MOL0     H37935   0.432   1.015  -0.020 -1.0925  1.8886  0.3207
 1000MOL0     H37936   0.557   1.091  -0.106 -0.9025  1.9819  0.2711
 1000MOL0     H37937   0.726   1.046   0.065 -1.7545  2.4398 -0.5925
 1000MOL0     H37938   0.600   0.994   0.179  0.4928  1.4136 -0.3067
 1000MOL0     H37939   0.544   0.805   0.023 -0.3865  0.5371 -0.7864
 1000MOL0     H37940   0.691   0.853  -0.067 -1.4297  0.5240 -0.8640
 1000MOL0     H37941   0.716   0.656   0.095 -1.4458  0.8473 -3.3207
 1000MOL0     H37942   0.685   0.772   0.229  0.4056 -0.7672  0.2393
 1000MOL0     H37943   0.918   0.811   0.054 -1.8361 -3.9777 -0.5875
 1000MOL0     H37944   0.860   0.901   0.198 -2.8175 -0.4901  2.0191
 1000MOL0     H37945   0.929   0.602   0.178 -1.5767  0.5639  0.7417
 1000MOL0     H37946   0.874   0.664   0.328  0.0624 -3.2514  0.2692
 1000MOL0     H37947   1.125   0.640   0.322 -0.3371 -0.3272 -0.7670
 1000MOL0     H37948   1.139   0.761   0.192  2.3107 -0.1202  0.5896
 1000MOL0     H37949   0.984   0.732   0.545 -3.5709  0.7955  2.1676
 1000MOL0     H37950   0.984   0.871   0.752 -1.9041 -0.3414 -1.1154
 1000MOL0     H37951   0.914   1.028   0.713  1.1350  0.8571 -0.8646
 1000MOL0     H37952   1.170   1.104   0.719  0.5696  1.8208  0.9092
 1000MOL0     H37953   1.059   1.130   0.851  0.7648 -0.8962  1.6217
 1000MOL0     H37954   1.204   0.879   0.789 -0.5685  1.7085 -1.2903
 1000MOL0     H37955   1.301   0.997   0.867  0.7455 -0.1258 -1.5350
 1000MOL0     H37956   1.051   0.866   0.988  1.1336 -1.7317  1.5553
 1000MOL0     H37957   1.218   0.835   1.050  2.2617  0.8471 -1.3427
 1000MOL0     H37958   1.097   1.126   1.309  1.1466 -2.5623 -0.1031
 1000MOL0     H37959   0.881   1.116   1.548 -0.9132  1.4674  1.6044
 1000MOL0     H37960   0.849   1.284   1.486 -1.3549 -0.1480 -2.0022
 1000MOL0     H37961   1.007   1.215   1.491  0.1767 -1.2911 -0.6321
 1000MOL0     H37962   0.441   0.928   1.500 -1.7832 -0.9439  1.1622
 1000MOL0     H37963   0.216   0.872   1.537  0.2436 -1.4550 -1.6387
 1000MOL0     H37964  -0.015   1.021   1.564 -1.1516  1.1577 -0.4216
 1000MOL0     H37965  -0.057   1.120   1.421  1.2721  0.7176  2.0169
 1000MOL0     H37966  -0.212   0.860   1.470 -1.9683  0.0218  0.8171
 1000MOL0     H37967  -0.227   0.997   1.581  0.0751  1.5989 -0.4744
 1000MOL0     H37968  -0.296   1.015   1.294  0.5201  0.0972 -0.1180
 1000MOL0     H37969  -0.287   1.152   1.410  1.4483 -0.2643 -1.2631
 1000MOL0     H37970  -0.482   1.037   1.530  2.1002 -0.7682  0.8646
 1000MOL0     H37971  -0.472   0.898   1.405 -0.7272 -0.1262 -1.0284
 1000MOL0     H37972  -0.535   1.180   1.333 -0.1672 -0.2216 -1.0862
 1000MOL0     H37973  -0.535   1.046   1.234 -0.2510 -2.3339  0.2845
 1000MOL0     H37974  -0.738   1.134   1.450  0.6610  0.8555 -0.0021
 1000MOL0     H37975  -0.723   0.966   1.443 -0.4423 -0.2459 -0.3309
 1000MOL0     H37976  -0.790   1.149   1.206 -2.3875  0.0823 -1.0127
 1000MOL0     H37977  -0.912   1.086   1.307  1.1120 -1.3485  2.6103
 1000MOL0     H37978  -0.707   0.911   1.158 -0.3087 -1.1920  1.3998
 1000MOL0     H37979  -0.851   0.961   1.073  1.8217  0.7725 -0.2144
 1000MOL0     H37980   0.104   1.046   1.157 -3.9281 -0.2222  2.9397
 1000MOL0     H37981   0.340   1.080   1.098 -2.4587  0.0650 -0.7441
 1000MOL0     H37982   0.676   1.070   1.064  0.5642  2.4991 -3.6806
 1000MOL0     H37983   0.892   1.015   0.961  2.5806  0.3936  0.2015
 1000MOL0     H37984   0.246   1.154   0.361  2.4915 -1.2652 -4.4657
 1000MOL0     H37985   0.150   1.347   0.506  0.0145  0.9975  1.0900
 1000MOL0     H37986   0.362   1.903   0.407 -0.6495 -3.3115 -0.5278
 1000MOL0     H37987   0.286   2.116   0.378 -1.0488  1.0325  0.1521
 1000MOL0     H37988   0.192   2.373   0.422 -1.2244  2.1863 -0.6807
 1000MOL0     H37989   0.146   2.266   0.295 -0.8899  1.4472 -1.0302
 1000MOL0     H37990   0.043   2.486   0.254 -0.9092  1.2366 -0.5230
 1000MOL0     H37991  -0.043   2.468   0.409  1.2650  1.2472 -1.6401
 1000MOL0     H37992  -0.053   2.276   0.183 -0.4727 -1.5811  0.4000
 1000MOL0     H37993  -0.156   2.287   0.330 -0.4297  0.7373  0.0187
 1000MOL0     H37994  -0.278   2.391   0.117  1.4137  2.6061 -2.7073
 1000MOL0     H37995  -0.136   2.491   0.116  2.3087  0.9598  1.4517
 1000MOL0     H37996  -0.391   2.711   0.349 -0.4340  0.6797  0.3622
 1000MOL0     H37997  -0.076   2.021   0.598 -0.2214 -2.1419  0.9063
 1000MOL0     H37998   0.020   1.695   0.693  0.8109  0.9197  0.7653
 1000MOL0     H37999  -0.094   1.832   0.717  0.2855 -0.1477  0.8246
 1000MOL0     H38000  -0.101   1.744   0.579  2.4409 -2.5597 -1.4343
 1001MOL0     O38001   7.296  10.448   5.226  0.3776 -0.0937 -0.4675
 1001MOL0     C38002   7.353  10.341   5.190  0.2007 -0.1871 -0.6029
 1001MOL0     O38003   7.308  10.213   5.219 -0.0244 -0.7886  0.0699
 1001MOL0     C38004   7.176  10.197   5.245 -0.5484 -0.8227  0.6373
 1001MOL0     C38005   7.082  10.243   5.155  0.1311 -0.6520 -0.8083
 1001MOL0     C38006   6.950  10.256   5.200  0.7825  0.7651  0.0922
 1001MOL0     C38007   6.899  10.191   5.313 -1.1089  0.2878  0.2813
 1001MOL0     O38008   6.777  10.192   5.364  0.2621  0.2987  0.5413
 1001MOL0     C38009   6.685  10.287   5.311 -0.1852  0.9164  0.5467
 1001MOL0     C38010   6.561  10.277   5.398  0.2772  1.1875 -0.4219
 1001MOL0     C38011   6.470  10.171   5.345  0.2850 -0.5569  1.0909
 1001MOL0     C38012   6.343  10.155   5.437 -0.4523  0.1661  0.3190
 1001MOL0     C38013   6.258  10.035   5.404 -0.1847  0.1619  0.4488
 1001MOL0     C38014   6.328   9.904   5.437  0.1948 -0.5400 -0.8248
 1001MOL0     C38015   6.248   9.774   5.433  0.0815 -0.8040 -0.6727
 1001MOL0     C38016   6.114   9.765   5.509 -0.0701 -0.2123 -0.4467
 1001MOL0     N38017   6.141   9.766   5.654  0.1678  0.4344 -0.0303
 1001MOL0     C38018   6.176   9.881   5.726 -0.8624  0.1554  0.1267
 1001MOL0     C38019   6.193   9.844   5.857 -0.4264 -0.0721  0.7568
 1001MOL0     C38020   6.250   9.944   5.964  0.3787 -0.0953  0.6616
 1001MOL0     C38021   6.404   9.966   5.940  0.1643  0.3284  0.5479
 1001MOL0     C38022   6.451  10.047   6.046 -0.2401 -0.3091 -0.8773
 1001MOL0     C38023   6.599  10.099   6.046 -0.0712 -0.0773  0.0815
 1001MOL0     O38024   6.625  10.192   5.940  0.6034 -0.7834  1.2062
 1001MOL0     C38025   6.747  10.189   5.889 -0.6032 -0.6117 -0.9953
 1001MOL0     C38026   6.847  10.268   5.928 -0.7655 -0.0952  0.6768
 1001MOL0     C38027   6.978  10.248   5.883  0.4569  0.0511  1.0932
 1001MOL0     C38028   7.067  10.350   5.941  0.1026  0.8136  0.2555
 1001MOL0     C38029   7.010  10.149   5.790 -0.5582 -0.5301  0.0917
 1001MOL0     C38030   7.138  10.131   5.718  0.2591 -0.0993  0.0806
 1001MOL0     O38031   7.231  10.228   5.724  0.0822  0.2143  0.4987
 1001MOL0     C38032   7.356  10.195   5.679  0.3226  0.4284  0.0038
 1001MOL0     C38033   7.397  10.246   5.552 -0.1291 -0.0136  0.7676
 1001MOL0     C38034   7.527  10.212   5.502  0.1287  0.1503  0.6178
 1001MOL0     C38035   7.613  10.125   5.570  0.6712 -0.4962 -0.0775
 1001MOL0     O38036   7.726  10.072   5.513 -0.2555 -0.2232  0.0256
 1001MOL0     C38037   7.791  10.135   5.395 -0.1534 -0.1247 -0.6852
 1001MOL0     C38038   7.942  10.119   5.386  0.4257 -0.0622  0.0542
 1001MOL0     C38039   8.019  10.159   5.516  0.1698 -0.5011 -0.0382
 1001MOL0     C38040   8.169  10.181   5.499 -0.3744  0.7055  1.0017
 1001MOL0     C38041   8.258  10.052   5.499 -0.2340  0.7167  0.1538
 1001MOL0     C38042   8.398  10.092   5.454 -1.2176 -0.8079  1.1597
 1001MOL0     C38043   8.496   9.974   5.448 -0.1430  0.5262 -0.5520
 1001MOL0     C38044   8.646  10.017   5.436 -0.3001  0.1965 -0.3252
 1001MOL0    Cl38045   8.685  10.101   5.279  0.3916 -0.4742  0.0998
 1001MOL0     C38046   7.564  10.070   5.690 -0.0808 -0.2205  0.0302
 1001MOL0     C38047   7.441  10.105   5.748  0.4262 -0.3261  0.6059
 1001MOL0     O38048   7.153  10.026   5.658  0.2287 -0.0224  0.4608
 1001MOL0     C38049   6.902  10.069   5.747  0.0901  0.3639  0.6126
 1001MOL0     C38050   6.777  10.095   5.794  0.1989  0.2936 -0.1642
 1001MOL0     N38051   6.171   9.707   5.865  0.5849 -0.2224  0.3685
 1001MOL0     N38052   6.118   9.669   5.747 -0.6502 -0.0033  0.1681
 1001MOL0     C38053   7.000  10.124   5.388 -0.4687  0.4151 -0.6340
 1001MOL0     C38054   7.136  10.128   5.352  0.9011 -0.1192 -0.1779
 1001MOL0     C38055   7.490  10.347   5.136 -0.1526  0.0758  0.3268
 1001MOL0     C38056   7.540  10.227   5.094  0.0431  0.5000 -0.5275
 1001MOL0     C38057   7.661  10.205   5.038  0.0831 -0.0908 -0.1569
 1001MOL0     C38058   7.745  10.311   5.017 -0.5051 -0.1681 -0.0800
 1001MOL0     O38059   7.865  10.285   4.956 -0.1823  0.1318  0.0404
 1001MOL0     C38060   7.966  10.393   4.946  0.4868 -0.5028 -0.2788
 1001MOL0     C38061   8.106  10.333   4.909 -0.0255 -0.2774  0.3800
 1001MOL0     C38062   8.160  10.245   5.020  0.1229 -0.2652 -0.1671
 1001MOL0     C38063   8.312  10.237   5.010 -0.4770  0.0293  0.3349
 1001MOL0     C38064   8.383  10.347   5.064 -0.4149 -0.1088  0.5680
 1001MOL0     C38065   8.437  10.434   5.134  0.3523 -0.4963  1.2623
 1001MOL0     C38066   7.700  10.437   5.054  0.8977 -0.1101 -0.0162
 1001MOL0     C38067   7.577  10.457   5.125 -0.1426 -0.1957 -0.4421
 1001MOL0     C38068   7.552  10.592   5.179  0.2916 -0.3814 -0.6208
 1001MOL0     H38069   7.109  10.284   5.059  0.5628 -0.4291 -0.5933
 1001MOL0     H38070   6.882  10.306   5.132  1.2982  0.9388 -0.3026
 1001MOL0     H38071   6.667  10.252   5.209 -2.0939 -0.6624  1.3659
 1001MOL0     H38072   6.728  10.386   5.294 -0.3501  0.6669 -1.5859
 1001MOL0     H38073   6.586  10.251   5.501 -0.9140 -0.1306 -0.4337
 1001MOL0     H38074   6.511  10.373   5.381  2.0369  2.0703 -0.8466
 1001MOL0     H38075   6.439  10.190   5.242  0.9404  0.3167  1.0497
 1001MOL0     H38076   6.535  10.083   5.342  1.4431  0.3042 -0.4143
 1001MOL0     H38077   6.374  10.152   5.542 -1.1077  0.2543  0.5148
 1001MOL0     H38078   6.280  10.244   5.435 -3.9507 -2.0907  0.6498
 1001MOL0     H38079   6.227  10.041   5.299 -3.2378 -1.9211  1.0886
 1001MOL0     H38080   6.161  10.043   5.454  0.0059  0.2849  0.7984
 1001MOL0     H38081   6.406   9.884   5.364 -1.3368  0.0919 -2.7231
 1001MOL0     H38082   6.381   9.923   5.530 -0.6965  0.1220 -0.4350
 1001MOL0     H38083   6.313   9.697   5.475  1.4477  0.9145  0.5274
 1001MOL0     H38084   6.238   9.745   5.328 -1.8766 -1.0994 -0.4481
 1001MOL0     H38085   6.052   9.848   5.475 -1.4824 -0.8609  0.4549
 1001MOL0     H38086   6.062   9.671   5.489  1.5675 -1.5006  0.9723
 1001MOL0     H38087   6.193   9.980   5.685 -3.5653  1.7102  2.4239
 1001MOL0     H38088   6.236   9.910   6.067  1.1570 -1.4471  0.3444
 1001MOL0     H38089   6.183  10.030   5.956  0.2651 -0.1724  0.7744
 1001MOL0     H38090   6.462   9.874   5.942 -1.4582 -0.9101 -2.4700
 1001MOL0     H38091   6.410  10.010   5.840  0.1975 -1.0678 -0.0960
 1001MOL0     H38092   6.387  10.135   6.055 -0.4224 -0.4897 -0.3315
 1001MOL0     H38093   6.434   9.995   6.141  0.5280 -1.1082 -1.1665
 1001MOL0     H38094   6.626  10.144   6.142  0.5522  0.7248 -0.4662
 1001MOL0     H38095   6.667  10.013   6.048  1.4168  1.0681  1.5542
 1001MOL0     H38096   6.818  10.343   5.999 -1.2902 -0.2231  0.5995
 1001MOL0     H38097   7.071  10.427   5.864 -0.7927  0.1224 -0.4994
 1001MOL0     H38098   7.163  10.299   5.956 -1.0440 -1.6156 -0.1955
 1001MOL0     H38099   7.033  10.397   6.034  1.2927  1.1491  0.5443
 1001MOL0     H38100   7.330  10.316   5.502 -2.4546 -2.9430 -0.5177
 1001MOL0     H38101   7.540  10.242   5.398 -1.9958  1.8386  0.7678
 1001MOL0     H38102   7.759  10.092   5.299 -0.6015 -2.3619  0.4101
 1001MOL0     H38103   7.762  10.240   5.398 -1.6509 -0.5373  0.1131
 1001MOL0     H38104   7.966  10.013   5.378  1.0777  0.1730 -1.4364
 1001MOL0     H38105   7.976  10.180   5.302 -1.6595  0.1451 -0.6839
 1001MOL0     H38106   8.007  10.082   5.593  0.9105  0.0605  0.6486
 1001MOL0     H38107   7.969  10.251   5.547  0.5574 -0.6757  1.1285
 1001MOL0     H38108   8.209  10.242   5.580  2.2106 -0.7726  0.9706
 1001MOL0     H38109   8.177  10.231   5.402 -1.2243 -1.0554 -0.0400
 1001MOL0     H38110   8.261  10.005   5.598 -1.0593 -1.2158 -0.6898
 1001MOL0     H38111   8.212   9.978   5.433  0.9283 -0.7958  0.9913
 1001MOL0     H38112   8.433  10.170   5.522 -0.1521  2.2143 -2.5114
 1001MOL0     H38113   8.402  10.128   5.351 -1.8129  0.0811  1.4350
 1001MOL0     H38114   8.472   9.895   5.377  1.5017 -0.0645 -0.4849
 1001MOL0     H38115   8.495   9.919   5.543 -0.4103 -1.4442 -1.6429
 1001MOL0     H38116   8.708   9.929   5.452 -2.9479 -1.8601 -0.7987
 1001MOL0     H38117   8.659  10.075   5.529  1.1189 -1.4495  0.5605
 1001MOL0     H38118   7.620   9.992   5.741  1.7041  1.1748  0.3460
 1001MOL0     H38119   7.413  10.051   5.838  1.3702  0.5598  1.4456
 1001MOL0     H38120   6.901   9.987   5.676 -2.2648  1.3398 -0.5692
 1001MOL0     H38121   6.693  10.037   5.758 -0.9779  2.3825 -0.9334
 1001MOL0     H38122   6.972  10.087   5.487 -1.0019 -2.8767 -1.8662
 1001MOL0     H38123   7.210  10.084   5.419  0.7047  0.9479  0.7710
 1001MOL0     H38124   7.470  10.146   5.078  0.4258  0.2381 -0.9149
 1001MOL0     H38125   7.690  10.111   4.993  2.1442 -1.0350  2.7758
 1001MOL0     H38126   7.930  10.458   4.865  4.0243  1.9376 -0.1185
 1001MOL0     H38127   7.967  10.450   5.039 -1.1747 -0.0790 -0.4996
 1001MOL0     H38128   8.172  10.420   4.895  0.6128 -0.5576  1.4501
 1001MOL0     H38129   8.095  10.283   4.813 -0.9815 -0.1126  0.3948
 1001MOL0     H38130   8.131  10.267   5.123  2.0750  2.1214 -0.0383
 1001MOL0     H38131   8.129  10.141   5.004 -0.2871 -0.7124  2.9410
 1001MOL0     H38132   8.338  10.215   4.906 -1.0769 -4.0714  0.8845
 1001MOL0     H38133   8.350  10.152   5.068 -0.0720 -0.7465 -1.0342
 1001MOL0     H38134   8.480  10.502   5.205 -1.3744 -0.2308  2.1313
 1001MOL0     H38135   7.759  10.528   5.049 -1.9662  1.8951  0.7190
 1001MOL0     H38136   7.556  10.582   5.288 -0.9554 -1.9369 -0.6690
 1001MOL0     H38137   7.632  10.661   5.152  1.6555 -1.9393 -0.7235
 1001MOL0     H38138   7.454  10.628   5.148  1.0897  0.2864 -2.4417
 1002MOL0     O38139   1.355   9.806   8.757 -0.6917 -0.2998 -0.4994
 1002MOL0     C38140   1.306   9.901   8.821  1.1039  0.4207  1.2288
 1002MOL0     O38141   1.376   9.980   8.906  0.3554  0.0983 -0.1291
 1002MOL0     C38142   1.496   9.932   8.939  0.0772 -0.6498  0.4712
 1002MOL0     C38143   1.516   9.820   9.018  0.2018  0.1166  0.0249
 1002MOL0     C38144   1.652   9.776   9.045 -0.2437  0.4469 -0.8351
 1002MOL0     C38145   1.760   9.843   8.985 -0.2433  0.2769  0.1439
 1002MOL0     O38146   1.888   9.793   8.994  0.6644 -0.0274 -0.1883
 1002MOL0     C38147   1.915   9.693   9.094  0.5850  0.1375 -1.2440
 1002MOL0     C38148   2.058   9.644   9.078 -0.1488  0.0998 -0.4811
 1002MOL0     C38149   2.091   9.538   9.189 -0.1510 -0.3239 -0.1986
 1002MOL0     C38150   2.235   9.504   9.161 -0.3579 -0.7360 -0.1910
 1002MOL0     C38151   2.292   9.404   9.267 -0.6080  0.4881 -0.8964
 1002MOL0     C38152   2.410   9.331   9.202  0.1482 -0.5544 -0.7307
 1002MOL0     C38153   2.491   9.248   9.302  0.7158 -0.6392 -0.0017
 1002MOL0     C38154   2.405   9.181   9.410  0.5146  0.2836  0.0026
 1002MOL0     N38155   2.479   9.113   9.525  0.2691  0.7775  0.0363
 1002MOL0     C38156   2.611   9.081   9.515 -0.2607 -0.4234 -0.7762
 1002MOL0     C38157   2.641   9.025   9.634  0.7618  0.1484 -0.2380
 1002MOL0     C38158   2.777   8.973   9.678 -0.0560  0.8710  0.7767
 1002MOL0     C38159   2.894   9.067   9.654  0.2062 -0.0480  0.7214
 1002MOL0     C38160   2.914   9.163   9.771  0.5439 -0.3947  0.0431
 1002MOL0     C38161   3.025   9.264   9.740 -0.1690  0.5423 -0.2685
 1002MOL0     O38162   3.147   9.212   9.791 -0.1507 -0.7533  0.6530
 1002MOL0     C38163   3.249   9.296   9.831  0.0094  0.8132 -0.1666
 1002MOL0     C38164   3.379   9.242   9.856  0.0214  0.1974 -1.5559
 1002MOL0     C38165   3.496   9.309   9.886 -0.0487  0.0219 -0.2496
 1002MOL0     C38166   3.624   9.232   9.895  0.5358  0.4925  0.4542
 1002MOL0     C38167   3.493   9.449   9.885  0.2120  0.6280  0.3285
 1002MOL0     C38168   3.601   9.531   9.923  0.2816 -0.2809  0.4933
 1002MOL0     O38169   3.665   9.598   9.826 -0.4572 -0.0721 -0.0585
 1002MOL0     C38170   3.778   9.677   9.846  0.4836 -0.0273  0.0136
 1002MOL0     C38171   3.856   9.709   9.733 -0.4376  0.1917  0.2059
 1002MOL0     C38172   3.972   9.791   9.736  0.0454 -0.1667 -0.0163
 1002MOL0     C38173   4.010   9.852   9.853 -0.4587 -0.1313 -0.0165
 1002MOL0     O38174   4.126   9.921   9.851 -0.5519 -0.5894  0.3870
 1002MOL0     C38175   4.155  10.010   9.963 -0.1195  0.4674  0.0531
 1002MOL0     C38176   4.254  10.119   9.914  0.1957  0.3856 -0.2132
 1002MOL0     C38177   4.267  10.222  10.033  0.1311 -0.3290 -0.7054
 1002MOL0     C38178   4.385  10.311  10.014  0.2611  0.3006  0.2988
 1002MOL0     C38179   4.423  10.406  10.132 -0.0565  0.6964  0.7047
 1002MOL0     C38180   4.311  10.465  10.217  0.3940  0.0355  0.3905
 1002MOL0     C38181   4.341  10.600  10.281  0.0341 -0.4830 -0.1432
 1002MOL0     C38182   4.218  10.658  10.352  0.6264  1.3179 -0.5479
 1002MOL0    Cl38183   4.086  10.706  10.240  0.0628  0.4641  0.4167
 1002MOL0     C38184   3.925   9.832   9.967 -0.7360 -0.1476 -0.0580
 1002MOL0     C38185   3.811   9.751   9.963 -0.0035  0.0393  0.3688
 1002MOL0     O38186   3.623   9.542  10.041 -0.3201 -0.8015 -0.1263
 1002MOL0     C38187   3.365   9.508   9.861  0.2151 -0.2060 -0.1959
 1002MOL0     C38188   3.248   9.432   9.832  0.0476 -0.1839 -0.1014
 1002MOL0     N38189   2.534   9.044   9.715 -0.0147 -0.0438 -0.3770
 1002MOL0     N38190   2.429   9.090   9.656  0.4879  0.5039  0.2289
 1002MOL0     C38191   1.725   9.948   8.903 -0.9990 -0.6102 -0.1565
 1002MOL0     C38192   1.598   9.995   8.878  0.2966  0.4815  1.3044
 1002MOL0     C38193   1.165   9.919   8.800  0.3947  0.0892 -0.8686
 1002MOL0     C38194   1.128   9.960   8.677 -0.4277 -0.1524 -0.1414
 1002MOL0     C38195   1.005  10.009   8.641  0.3594  0.8049 -0.0991
 1002MOL0     C38196   0.908  10.014   8.749 -0.1221 -0.8532  0.2794
 1002MOL0     O38197   0.779  10.059   8.723 -0.4060  0.4693  0.3291
 1002MOL0     C38198   0.709  10.127   8.824  1.3466 -0.4777  0.2597
 1002MOL0     C38199   0.601  10.203   8.756 -0.5748 -0.1591 -0.3577
 1002MOL0     C38200   0.478  10.232   8.843 -0.6868  0.3767 -0.2470
 1002MOL0     C38201   0.361  10.293   8.769  0.5181 -0.7276  0.4049
 1002MOL0     C38202   0.411  10.411   8.690  0.6950  0.6865 -0.3155
 1002MOL0     C38203   0.439  10.526   8.650 -0.3582  0.2018  0.1517
 1002MOL0     C38204   0.941   9.974   8.879 -0.0642 -0.0780 -0.3088
 1002MOL0     C38205   1.065   9.916   8.907  0.2823  0.0630 -0.2290
 1002MOL0     C38206   1.095   9.873   9.047  0.3844  0.1640  0.0963
 1002MOL0     H38207   1.437   9.767   9.069  0.3859  0.4276  0.6481
 1002MOL0     H38208   1.665   9.700   9.121  0.8245  1.0288 -0.4104
 1002MOL0     H38209   1.845   9.609   9.091  1.2392 -0.6640  2.0983
 1002MOL0     H38210   1.909   9.732   9.196  1.5184 -3.2638  0.2516
 1002MOL0     H38211   2.065   9.605   8.976  1.3749 -0.6967 -0.1050
 1002MOL0     H38212   2.136   9.720   9.091 -0.9909  0.7480  1.0877
 1002MOL0     H38213   2.074   9.591   9.283 -0.4738  1.5522 -1.2567
 1002MOL0     H38214   2.028   9.449   9.183 -0.6766  0.0984 -1.5432
 1002MOL0     H38215   2.246   9.476   9.056  1.8933  1.5509 -0.6526
 1002MOL0     H38216   2.293   9.596   9.165  3.5106 -2.9312 -0.8734
 1002MOL0     H38217   2.213   9.338   9.304 -0.6501  0.7231 -0.5671
 1002MOL0     H38218   2.326   9.460   9.354  1.1047 -0.8343 -0.6499
 1002MOL0     H38219   2.374   9.266   9.121  2.6433 -1.1903 -1.4079
 1002MOL0     H38220   2.473   9.405   9.153 -0.8809 -0.2620 -1.6591
 1002MOL0     H38221   2.553   9.324   9.349  0.6375 -0.3359 -0.3884
 1002MOL0     H38222   2.563   9.187   9.247  0.3545  1.5294 -3.1218
 1002MOL0     H38223   2.339   9.251   9.464 -0.5884 -0.3388 -0.4922
 1002MOL0     H38224   2.344   9.102   9.365  1.8074 -1.0610  0.5537
 1002MOL0     H38225   2.666   9.095   9.422  1.5533 -2.2378 -0.0404
 1002MOL0     H38226   2.799   8.886   9.615  1.7723  1.3927  0.6311
 1002MOL0     H38227   2.767   8.931   9.778 -2.4663  1.8682  1.0245
 1002MOL0     H38228   2.982   9.006   9.634 -0.3933 -0.1266 -2.2269
 1002MOL0     H38229   2.878   9.127   9.564  0.0264  2.4690  2.3334
 1002MOL0     H38230   2.820   9.215   9.790  0.9015 -0.1337  1.2173
 1002MOL0     H38231   2.929   9.102   9.861 -0.6351 -1.8741 -0.7154
 1002MOL0     H38232   3.026   9.284   9.632 -1.2379  0.0767 -0.3776
 1002MOL0     H38233   2.992   9.350   9.799 -1.1201  0.0626 -0.0887
 1002MOL0     H38234   3.376   9.134   9.849 -0.7474  0.0157  0.7332
 1002MOL0     H38235   3.690   9.259   9.812 -1.8990  1.0924 -1.3954
 1002MOL0     H38236   3.609   9.124   9.895 -1.7944  0.7714 -0.3040
 1002MOL0     H38237   3.676   9.265   9.986  0.8111 -1.1872  0.9277
 1002MOL0     H38238   3.823   9.658   9.644 -2.1604 -1.5340  1.7357
 1002MOL0     H38239   4.026   9.816   9.645 -0.6052  0.4053 -0.2510
 1002MOL0     H38240   4.068  10.068   9.994  0.6430  2.8215 -1.9031
 1002MOL0     H38241   4.201   9.960  10.049 -0.3167  0.8720  0.3994
 1002MOL0     H38242   4.346  10.068   9.885  0.6870  0.5882  0.9207
 1002MOL0     H38243   4.199  10.168   9.833 -0.9086 -0.2550  0.1380
 1002MOL0     H38244   4.293  10.167  10.125  3.4764  1.4115 -0.4559
 1002MOL0     H38245   4.179  10.284  10.047  1.0568  0.7285  0.6878
 1002MOL0     H38246   4.378  10.373   9.924 -2.6251  2.2861  1.7256
 1002MOL0     H38247   4.474  10.250   9.997  0.7430 -0.3940  4.3189
 1002MOL0     H38248   4.499  10.363  10.199  0.9011  2.9233  1.1325
 1002MOL0     H38249   4.485  10.481  10.083  0.2325 -1.0099 -1.7363
 1002MOL0     H38250   4.293  10.387  10.292 -0.7231 -1.7294 -1.5931
 1002MOL0     H38251   4.222  10.470  10.154 -0.9232  1.9194  2.2441
 1002MOL0     H38252   4.379  10.663  10.201 -0.0549  1.0434  0.9814
 1002MOL0     H38253   4.417  10.583  10.359  0.7340  1.7466 -0.2773
 1002MOL0     H38254   4.235  10.750  10.408 -2.3734  1.5564  0.1582
 1002MOL0     H38255   4.179  10.584  10.422 -0.4605  0.6943 -1.7688
 1002MOL0     H38256   3.939   9.892  10.057 -1.4655  1.3109 -0.8878
 1002MOL0     H38257   3.748   9.745  10.050 -1.5652  1.7867 -0.5766
 1002MOL0     H38258   3.358   9.616   9.860 -0.6436 -0.2407  0.6622
 1002MOL0     H38259   3.160   9.486   9.797  1.4444 -0.2719 -4.3316
 1002MOL0     H38260   1.810   9.987   8.848  1.5793 -1.0188  3.1793
 1002MOL0     H38261   1.584  10.076   8.807  0.8417 -1.0910 -0.7198
 1002MOL0     H38262   1.200   9.982   8.599  0.3724 -0.4036  0.5191
 1002MOL0     H38263   0.980  10.054   8.546 -0.3958  0.3087 -0.1433
 1002MOL0     H38264   0.662  10.049   8.885  2.2238  0.2306  1.8971
 1002MOL0     H38265   0.767  10.196   8.885 -0.3751  2.4077 -1.1771
 1002MOL0     H38266   0.575  10.149   8.664 -2.2095 -1.4228  0.8094
 1002MOL0     H38267   0.644  10.300   8.728 -0.3127  0.5947  2.3846
 1002MOL0     H38268   0.439  10.146   8.897  0.9640 -0.0869  0.2754
 1002MOL0     H38269   0.497  10.306   8.922 -0.4765 -1.5765  1.6217
 1002MOL0     H38270   0.291  10.341   8.838 -0.6831 -3.4945  1.2135
 1002MOL0     H38271   0.319  10.225   8.695  1.7314 -0.3835 -0.6398
 1002MOL0     H38272   0.460  10.624   8.612  1.4679 -0.7659 -1.5504
 1002MOL0     H38273   0.864   9.956   8.953 -0.5030 -0.6992 -0.8971
 1002MOL0     H38274   1.089   9.765   9.065  1.6659  0.3542  2.0025
 1002MOL0     H38275   1.197   9.905   9.071  1.0806 -0.2989 -2.0673
 1002MOL0     H38276   1.028   9.918   9.120 -0.6213 -0.7425 -0.2277
 1003MOL0     O38277   2.275   1.813   2.226 -0.6202  0.0811 -0.6586
 1003MOL0     C38278   2.249   1.913   2.296 -0.9733 -0.0635  0.1743
 1003MOL0     O38279   2.313   2.039   2.278  0.4764  0.6312  0.0343
 1003MOL0     C38280   2.410   2.049   2.185  0.1222  0.0761  0.1320
 1003MOL0     C38281   2.542   2.067   2.231 -0.5437 -0.5686 -0.0068
 1003MOL0     C38282   2.646   2.107   2.145 -0.9871  0.0593 -0.2074
 1003MOL0     C38283   2.633   2.119   2.005  0.1735 -0.6303 -0.5353
 1003MOL0     O38284   2.725   2.173   1.918  0.5121  0.0551 -1.0729
 1003MOL0     C38285   2.864   2.192   1.968  0.0780  0.0524 -0.1111
 1003MOL0     C38286   2.875   2.332   2.032  0.5266  0.5772 -1.2974
 1003MOL0     C38287   2.930   2.440   1.933 -0.0993 -0.0441  0.1198
 1003MOL0     C38288   3.075   2.487   1.967 -0.1734 -0.0705  0.7992
 1003MOL0     C38289   3.132   2.583   1.850  0.1287  0.4189 -0.7929
 1003MOL0     C38290   3.158   2.517   1.716  0.1087  0.4337 -0.9396
 1003MOL0     C38291   3.203   2.634   1.621  0.4166  0.4487 -0.1340
 1003MOL0     C38292   3.177   2.612   1.465 -0.4813  0.1218 -0.6074
 1003MOL0     N38293   3.249   2.705   1.366 -0.2882  0.7015 -0.5167
 1003MOL0     C38294   3.273   2.669   1.237 -0.2157  0.2123  0.0093
 1003MOL0     C38295   3.321   2.781   1.180 -0.3505  0.3570  0.2851
 1003MOL0     C38296   3.391   2.773   1.046 -0.3757  0.4030  0.1492
 1003MOL0     C38297   3.547   2.756   1.073  0.4839  0.0679  0.0456
 1003MOL0     C38298   3.616   2.739   0.939  0.0830 -0.7416 -0.2204
 1003MOL0     C38299   3.766   2.757   0.952  0.5115  0.1587  0.6682
 1003MOL0     O38300   3.795   2.881   1.019  0.0765  0.4884 -0.3190
 1003MOL0     C38301   3.923   2.929   1.039 -0.8239  0.4054  0.6324
 1003MOL0     C38302   3.990   2.930   1.160  0.2111 -0.3968 -0.8077
 1003MOL0     C38303   4.120   2.987   1.185  0.2451  0.1618  1.1338
 1003MOL0     C38304   4.155   3.011   1.326  0.7090  0.4807  0.4981
 1003MOL0     C38305   4.200   3.013   1.079  0.6007  0.7543 -0.6212
 1003MOL0     C38306   4.341   3.060   1.093  0.0657 -0.2759  0.2958
 1003MOL0     O38307   4.377   3.113   1.209 -0.8978  0.9306  0.3231
 1003MOL0     C38308   4.487   3.203   1.218  0.3708  0.3402  0.3665
 1003MOL0     C38309   4.484   3.326   1.145 -0.3447  1.0139  0.1747
 1003MOL0     C38310   4.592   3.424   1.155 -0.1005  1.3920  0.4415
 1003MOL0     C38311   4.696   3.396   1.253  0.8032  0.1416 -0.4490
 1003MOL0     O38312   4.802   3.480   1.269  0.8537  0.5764  1.1310
 1003MOL0     C38313   4.819   3.581   1.169 -0.8950 -0.5810 -0.2767
 1003MOL0     C38314   4.948   3.650   1.218  0.6719 -0.8844 -0.2973
 1003MOL0     C38315   5.065   3.551   1.237 -0.7424  0.4138 -0.1012
 1003MOL0     C38316   5.188   3.640   1.280  0.8634 -0.0231  0.2039
 1003MOL0     C38317   5.304   3.549   1.327 -0.5780 -0.4872  0.1952
 1003MOL0     C38318   5.421   3.628   1.392  0.5170 -0.1551 -0.3153
 1003MOL0     C38319   5.517   3.525   1.449  0.3590  0.2129  0.0080
 1003MOL0     C38320   5.657   3.563   1.414 -0.9098 -0.2105  0.0638
 1003MOL0    Cl38321   5.788   3.472   1.500  0.3436 -0.1615  0.3455
 1003MOL0     C38322   4.683   3.281   1.339 -0.6821 -0.0514  0.0128
 1003MOL0     C38323   4.588   3.185   1.321 -0.0206  0.0933  0.4276
 1003MOL0     O38324   4.405   3.061   0.990 -0.0415  0.3102 -0.2484
 1003MOL0     C38325   4.150   2.995   0.951  1.0092 -0.3088 -0.7090
 1003MOL0     C38326   4.013   2.958   0.936  0.3071  0.2039 -0.2568
 1003MOL0     N38327   3.314   2.890   1.265  0.4382 -0.0024 -0.3222
 1003MOL0     N38328   3.262   2.840   1.380  0.8401  0.6648  0.5096
 1003MOL0     C38329   2.501   2.093   1.959 -0.6214 -0.1189 -0.5513
 1003MOL0     C38330   2.394   2.059   2.047 -0.0944  0.0846 -0.3181
 1003MOL0     C38331   2.136   1.888   2.384  0.2768  0.0643 -0.9230
 1003MOL0     C38332   2.147   1.776   2.466 -0.8609  0.7762 -0.0822
 1003MOL0     C38333   2.044   1.740   2.557 -0.7886 -0.3079  0.1469
 1003MOL0     C38334   1.932   1.815   2.579  0.2681 -0.3476 -0.2579
 1003MOL0     O38335   1.834   1.794   2.677 -0.6235 -0.2085  0.5798
 1003MOL0     C38336   1.818   1.670   2.747 -0.0863 -0.5275  0.8948
 1003MOL0     C38337   1.798   1.558   2.654 -0.4740  1.1204  0.3318
 1003MOL0     C38338   1.745   1.427   2.729 -0.1366 -0.3060  0.2992
 1003MOL0     C38339   1.806   1.391   2.865  0.6332  0.5697  0.3729
 1003MOL0     C38340   1.770   1.258   2.911 -0.5035  0.0168 -0.4462
 1003MOL0     C38341   1.754   1.139   2.941  0.6074  0.7527  0.4083
 1003MOL0     C38342   1.926   1.934   2.497  0.3491  0.7350 -0.2269
 1003MOL0     C38343   2.017   1.966   2.399  0.0056  0.0727 -1.0532
 1003MOL0     C38344   1.977   2.079   2.299 -0.1643 -0.0737  0.3819
 1003MOL0     H38345   2.555   2.054   2.338  0.8523  2.3890  0.2746
 1003MOL0     H38346   2.748   2.125   2.178  0.9838 -2.8955 -3.8536
 1003MOL0     H38347   2.934   2.189   1.884 -2.1041  2.2537 -2.1821
 1003MOL0     H38348   2.896   2.114   2.037  2.4860 -0.2701 -1.4957
 1003MOL0     H38349   2.776   2.358   2.070  0.3229 -0.5000 -1.0769
 1003MOL0     H38350   2.941   2.326   2.119  0.2015 -0.8144 -1.1243
 1003MOL0     H38351   2.934   2.405   1.830 -0.9645  0.2407 -0.0159
 1003MOL0     H38352   2.872   2.532   1.939 -1.1159 -0.6524 -0.1290
 1003MOL0     H38353   3.089   2.536   2.064 -0.0694 -1.8357  1.7127
 1003MOL0     H38354   3.139   2.398   1.967 -0.6738 -0.4606 -0.6590
 1003MOL0     H38355   3.229   2.610   1.892  1.4538  0.4098 -3.6333
 1003MOL0     H38356   3.083   2.680   1.835 -0.4200  0.1502 -0.7737
 1003MOL0     H38357   3.215   2.427   1.739  2.0139  1.8867  0.3264
 1003MOL0     H38358   3.064   2.481   1.672 -1.5362  3.4522 -0.2356
 1003MOL0     H38359   3.309   2.652   1.645  0.6720  0.6482 -1.3443
 1003MOL0     H38360   3.147   2.724   1.647  2.9206  2.0290  0.1527
 1003MOL0     H38361   3.213   2.509   1.454  0.5848  0.1318  2.0929
 1003MOL0     H38362   3.074   2.611   1.429 -0.9425 -0.0036  0.6754
 1003MOL0     H38363   3.266   2.575   1.184  0.2297  1.8129 -3.1512
 1003MOL0     H38364   3.378   2.868   0.994 -1.6136  0.3687  0.3721
 1003MOL0     H38365   3.361   2.686   0.986  0.2630  0.9019 -0.9188
 1003MOL0     H38366   3.580   2.848   1.123  0.1433  1.2845 -1.8999
 1003MOL0     H38367   3.588   2.671   1.128 -1.5198 -1.5749 -0.8907
 1003MOL0     H38368   3.606   2.636   0.904  0.9894 -1.6770  2.1218
 1003MOL0     H38369   3.574   2.812   0.868  0.8960  0.1927  0.2481
 1003MOL0     H38370   3.801   2.664   0.997 -1.6710 -1.1391 -0.1215
 1003MOL0     H38371   3.813   2.760   0.853 -0.9632 -2.9352 -0.2618
 1003MOL0     H38372   3.931   2.897   1.245 -0.8462  3.1697 -0.0103
 1003MOL0     H38373   4.245   2.951   1.345  0.4259  0.2752  1.2521
 1003MOL0     H38374   4.079   2.975   1.397 -0.0292  2.2726  0.6677
 1003MOL0     H38375   4.174   3.118   1.339 -0.6020  1.0058 -1.4567
 1003MOL0     H38376   4.399   3.344   1.081 -0.2541  1.0880  0.0748
 1003MOL0     H38377   4.585   3.515   1.098  3.3516  1.1689 -0.5818
 1003MOL0     H38378   4.841   3.537   1.071 -0.9090 -2.3916  0.4829
 1003MOL0     H38379   4.742   3.657   1.161  0.8908  1.4566  0.8084
 1003MOL0     H38380   4.984   3.719   1.141  0.2269 -0.2238  0.0814
 1003MOL0     H38381   4.925   3.710   1.307 -3.6762 -1.0360 -1.1028
 1003MOL0     H38382   5.085   3.508   1.138  2.2114  0.1562  0.5223
 1003MOL0     H38383   5.044   3.472   1.310  0.1109 -2.2014 -2.4954
 1003MOL0     H38384   5.170   3.713   1.360  2.3586 -0.6939  1.2013
 1003MOL0     H38385   5.216   3.709   1.200  0.9338  0.6929  0.8274
 1003MOL0     H38386   5.269   3.490   1.412 -0.5940  1.7396  1.8410
 1003MOL0     H38387   5.333   3.481   1.247 -1.3661 -0.4906 -0.0957
 1003MOL0     H38388   5.373   3.677   1.478 -0.1751 -4.7765  2.2649
 1003MOL0     H38389   5.477   3.691   1.322 -0.8529  1.6941  0.1590
 1003MOL0     H38390   5.500   3.426   1.404 -0.2153  0.6802 -0.8160
 1003MOL0     H38391   5.504   3.505   1.556 -1.3756 -0.3403 -0.2793
 1003MOL0     H38392   5.671   3.666   1.447  0.4544  0.1922 -1.6076
 1003MOL0     H38393   5.667   3.561   1.305 -1.6899 -2.1898 -0.0050
 1003MOL0     H38394   4.764   3.265   1.409 -1.2747  2.0058  1.2575
 1003MOL0     H38395   4.585   3.094   1.380 -3.9492 -0.4455 -0.3522
 1003MOL0     H38396   4.210   3.021   0.865 -0.6606  1.5973 -1.3756
 1003MOL0     H38397   3.979   2.952   0.833  0.5815  1.0338 -0.4053
 1003MOL0     H38398   2.479   2.109   1.854 -2.5798 -1.3915 -0.3815
 1003MOL0     H38399   2.296   2.064   2.001 -0.3771 -2.4132 -0.1198
 1003MOL0     H38400   2.236   1.714   2.468 -0.9060  0.7257  0.6911
 1003MOL0     H38401   2.063   1.641   2.597  0.7732 -0.7589 -1.5813
 1003MOL0     H38402   1.908   1.653   2.807 -0.0226  1.0768  1.2973
 1003MOL0     H38403   1.734   1.671   2.816 -0.2286  0.4419  0.7220
 1003MOL0     H38404   1.893   1.535   2.605  1.2005  1.8073  3.0714
 1003MOL0     H38405   1.715   1.583   2.587  0.1376 -1.5787 -1.5782
 1003MOL0     H38406   1.636   1.422   2.739  0.1014 -1.2075  4.1882
 1003MOL0     H38407   1.777   1.350   2.658  2.2049  1.9097 -1.2035
 1003MOL0     H38408   1.756   1.454   2.939 -4.2024  0.0945 -2.1236
 1003MOL0     H38409   1.914   1.409   2.874  0.6424  0.1023  1.3929
 1003MOL0     H38410   1.746   1.038   2.976  1.1688 -0.4804 -2.6819
 1003MOL0     H38411   1.843   2.002   2.513  0.6460  1.4068 -1.4042
 1003MOL0     H38412   1.991   2.179   2.340  1.5298 -1.5830  3.9470
 1003MOL0     H38413   2.044   2.066   2.214 -0.8876 -2.0055  0.0412
 1003MOL0     H38414   1.877   2.069   2.257 -1.3527  0.7130  2.8384
 1004MOL0     O38415   2.776   4.106   7.112 -1.0439  0.0900 -0.0601
 1004MOL0     C38416   2.749   4.159   7.222 -0.3659 -0.3498  0.7780
 1004MOL0     O38417   2.842   4.219   7.301  0.1776  0.1711  0.4274
 1004MOL0     C38418   2.970   4.214   7.257 -0.1414 -0.0689  1.3729
 1004MOL0     C38419   3.065   4.112   7.267  0.3898  0.5530  0.6799
 1004MOL0     C38420   3.194   4.124   7.221 -0.5696  1.0561 -0.0705
 1004MOL0     C38421   3.241   4.246   7.173  0.5136  0.6365 -0.2557
 1004MOL0     O38422   3.375   4.249   7.124  0.1410 -0.3141 -0.4193
 1004MOL0     C38423   3.472   4.151   7.126 -0.4921  0.2423  0.3779
 1004MOL0     C38424   3.608   4.211   7.093 -0.0037  0.1771  0.2708
 1004MOL0     C38425   3.721   4.120   7.045 -0.0697  0.0691 -0.4171
 1004MOL0     C38426   3.863   4.179   7.084 -0.4710  0.0656  0.2022
 1004MOL0     C38427   3.904   4.297   6.992  0.0888 -0.5942 -0.6838
 1004MOL0     C38428   3.913   4.267   6.843  0.3371  0.3855 -0.1111
 1004MOL0     C38429   4.008   4.153   6.811 -0.2457 -0.2065  0.7339
 1004MOL0     C38430   4.152   4.170   6.878 -0.4246 -0.4700 -0.4436
 1004MOL0     N38431   4.228   4.287   6.834  0.0247  0.0211 -0.4598
 1004MOL0     C38432   4.263   4.333   6.709 -0.2385 -0.1288  0.5684
 1004MOL0     C38433   4.326   4.452   6.729 -0.2898 -0.1612  0.3049
 1004MOL0     C38434   4.388   4.532   6.625 -0.5824  0.2091 -0.4619
 1004MOL0     C38435   4.539   4.541   6.657  0.2026  0.2327 -0.4276
 1004MOL0     C38436   4.616   4.618   6.550 -0.6597  0.1653  0.5030
 1004MOL0     C38437   4.769   4.604   6.554 -0.3819 -0.0861  0.1557
 1004MOL0     O38438   4.821   4.696   6.452 -0.4092  0.5506 -1.1299
 1004MOL0     C38439   4.951   4.694   6.419 -0.7060  0.5966 -0.5399
 1004MOL0     C38440   4.993   4.724   6.286 -0.1121 -0.0635 -0.4947
 1004MOL0     C38441   5.130   4.752   6.257  0.6182  0.2643  0.8444
 1004MOL0     C38442   5.158   4.793   6.112 -0.1990  0.1521  0.0981
 1004MOL0     C38443   5.232   4.735   6.351 -0.3716  0.7091  0.3684
 1004MOL0     C38444   5.384   4.752   6.336  0.5442 -0.8202  0.1549
 1004MOL0     O38445   5.463   4.693   6.434  0.0649  0.1465 -0.1169
 1004MOL0     C38446   5.601   4.706   6.430 -0.8310  0.3726  0.0044
 1004MOL0     C38447   5.679   4.703   6.311 -0.1522 -0.7343 -0.0742
 1004MOL0     C38448   5.817   4.742   6.320  0.0260  0.4563  0.1651
 1004MOL0     C38449   5.878   4.773   6.435  0.4994 -0.6156  0.0667
 1004MOL0     O38450   6.015   4.796   6.441 -0.0497  0.5924  0.2803
 1004MOL0     C38451   6.068   4.836   6.564 -0.0801 -0.0796  0.5351
 1004MOL0     C38452   6.200   4.910   6.553 -0.7285  0.1600 -0.6830
 1004MOL0     C38453   6.323   4.831   6.500  0.5082 -0.0719  0.1864
 1004MOL0     C38454   6.393   4.744   6.606 -0.0459 -0.0548  0.7139
 1004MOL0     C38455   6.468   4.829   6.708  0.2744  0.3623  0.8174
 1004MOL0     C38456   6.519   4.739   6.818 -0.7187 -0.3500 -0.6680
 1004MOL0     C38457   6.616   4.818   6.898 -0.5302  0.0425 -0.1542
 1004MOL0     C38458   6.760   4.805   6.834  0.1028 -0.0420  0.2741
 1004MOL0    Cl38459   6.871   4.897   6.930  0.1353 -0.1509 -0.1181
 1004MOL0     C38460   5.799   4.766   6.550  0.0667 -0.0956  0.2835
 1004MOL0     C38461   5.667   4.734   6.552 -0.7806  0.3341  0.6496
 1004MOL0     O38462   5.425   4.818   6.244 -0.0784 -0.3149  0.3443
 1004MOL0     C38463   5.188   4.680   6.473  0.5702  0.2795 -0.4787
 1004MOL0     C38464   5.049   4.660   6.498  0.6932  0.2226 -0.6630
 1004MOL0     N38465   4.311   4.496   6.860 -0.4141 -0.4437 -0.0032
 1004MOL0     N38466   4.256   4.398   6.915 -0.3800 -0.5431 -0.4568
 1004MOL0     C38467   3.149   4.355   7.170 -1.2099  0.0058 -0.1850
 1004MOL0     C38468   3.021   4.338   7.210  0.2864  0.2088  0.6560
 1004MOL0     C38469   2.607   4.167   7.262 -0.0047 -0.5169 -0.0716
 1004MOL0     C38470   2.517   4.072   7.215  0.5526  0.1507  0.5307
 1004MOL0     C38471   2.382   4.061   7.253 -0.0248  0.1457 -0.5560
 1004MOL0     C38472   2.340   4.130   7.366  0.3666 -0.4993 -0.6838
 1004MOL0     O38473   2.206   4.129   7.412 -0.2806  0.3771  0.2267
 1004MOL0     C38474   2.170   4.009   7.476  0.3242 -0.3249  0.1429
 1004MOL0     C38475   2.024   3.998   7.528 -0.7320 -1.5651  0.0528
 1004MOL0     C38476   1.933   4.033   7.413  1.0573  0.7460 -0.7581
 1004MOL0     C38477   1.792   4.040   7.449  0.3999  0.4450 -0.0829
 1004MOL0     C38478   1.738   3.909   7.463  0.7826  0.3726 -1.3483
 1004MOL0     C38479   1.691   3.805   7.505 -0.6661  0.6398  0.4565
 1004MOL0     C38480   2.425   4.236   7.415  0.8508  0.4274  0.7548
 1004MOL0     C38481   2.555   4.265   7.352 -0.3791 -0.2754 -0.1927
 1004MOL0     C38482   2.628   4.391   7.389  0.3196  0.3653 -0.0515
 1004MOL0     H38483   3.040   4.016   7.311 -0.4919 -0.6756 -2.2429
 1004MOL0     H38484   3.255   4.034   7.227 -0.3335  1.1865 -0.4926
 1004MOL0     H38485   3.447   4.079   7.048 -2.6291  0.0352  1.1859
 1004MOL0     H38486   3.482   4.085   7.213  2.4841 -0.1830 -0.1771
 1004MOL0     H38487   3.583   4.277   7.009 -1.1209  1.8940  1.8680
 1004MOL0     H38488   3.647   4.262   7.181  0.6482  1.2720 -0.6315
 1004MOL0     H38489   3.706   4.030   7.105  1.3204 -0.5212 -0.9106
 1004MOL0     H38490   3.715   4.100   6.937  0.3760  0.6149 -0.5512
 1004MOL0     H38491   3.874   4.203   7.190  0.0227  1.6069 -0.1731
 1004MOL0     H38492   3.936   4.100   7.065  2.0956  2.1525  0.7171
 1004MOL0     H38493   3.997   4.338   7.030  0.5518 -1.1048 -1.2478
 1004MOL0     H38494   3.829   4.376   6.998  0.6285  0.0789 -2.3632
 1004MOL0     H38495   3.811   4.246   6.808 -0.8423 -0.1576  3.3260
 1004MOL0     H38496   3.940   4.358   6.789 -0.5397  1.0450  0.5282
 1004MOL0     H38497   4.041   4.145   6.707  1.0076  1.0857  0.9999
 1004MOL0     H38498   3.965   4.056   6.838  2.8286 -1.4106  1.7575
 1004MOL0     H38499   4.144   4.175   6.987  0.0969  1.0423 -0.4400
 1004MOL0     H38500   4.210   4.079   6.860 -1.7900 -1.1526 -1.5952
 1004MOL0     H38501   4.254   4.280   6.615 -1.9699  0.6260  0.2833
 1004MOL0     H38502   4.351   4.635   6.628  1.0059  0.8092 -0.5994
 1004MOL0     H38503   4.379   4.488   6.526 -1.6813 -0.5123 -0.0619
 1004MOL0     H38504   4.550   4.597   6.750 -0.0786 -0.1014 -0.1876
 1004MOL0     H38505   4.578   4.440   6.669 -1.5272 -0.4348 -0.0505
 1004MOL0     H38506   4.572   4.590   6.453 -1.1543  0.6208  0.5899
 1004MOL0     H38507   4.605   4.726   6.565  2.7504  0.4018  2.2541
 1004MOL0     H38508   4.817   4.624   6.650 -0.1973  0.6068 -0.0726
 1004MOL0     H38509   4.792   4.501   6.528 -2.4794 -0.3451 -0.9069
 1004MOL0     H38510   4.917   4.747   6.212 -1.2572 -0.9695  0.3699
 1004MOL0     H38511   5.185   4.899   6.107  1.8567 -0.3760 -1.1030
 1004MOL0     H38512   5.070   4.779   6.048 -1.0059  0.2065  1.1776
 1004MOL0     H38513   5.245   4.746   6.065  0.8320  0.4241  1.6648
 1004MOL0     H38514   5.641   4.686   6.211  1.4670 -1.0162 -0.6601
 1004MOL0     H38515   5.873   4.741   6.227 -1.3179 -0.0386 -0.6660
 1004MOL0     H38516   6.003   4.900   6.625 -1.4596 -2.5034  1.7455
 1004MOL0     H38517   6.084   4.744   6.621 -1.5732 -1.0277 -0.4996
 1004MOL0     H38518   6.188   5.005   6.500 -0.5983  1.0198  0.7987
 1004MOL0     H38519   6.219   4.941   6.656  0.3897 -1.4619 -0.3678
 1004MOL0     H38520   6.393   4.902   6.454 -2.5617  3.8697  1.0125
 1004MOL0     H38521   6.295   4.763   6.419  1.8105  0.4112 -0.7071
 1004MOL0     H38522   6.468   4.686   6.552  0.4646  2.9368 -2.0810
 1004MOL0     H38523   6.319   4.688   6.663  0.4282 -0.6104  0.8015
 1004MOL0     H38524   6.553   4.871   6.655  1.0076 -2.7622 -0.6953
 1004MOL0     H38525   6.402   4.904   6.752 -0.5986  0.0574  0.0590
 1004MOL0     H38526   6.561   4.652   6.766  1.5156  0.7287 -0.7575
 1004MOL0     H38527   6.441   4.707   6.888  1.2422  0.3844  2.0059
 1004MOL0     H38528   6.625   4.777   6.999  1.2896 -3.5646 -1.6083
 1004MOL0     H38529   6.581   4.921   6.903 -2.6270 -0.5742 -0.9743
 1004MOL0     H38530   6.768   4.845   6.733  0.7483 -0.1562  0.2754
 1004MOL0     H38531   6.793   4.701   6.829  0.8407  0.1530  0.9113
 1004MOL0     H38532   5.827   4.785   6.653  0.4975  2.8739 -0.3059
 1004MOL0     H38533   5.613   4.738   6.646  0.6241 -1.3200  1.5936
 1004MOL0     H38534   5.261   4.651   6.548  0.3127 -0.8917 -0.6605
 1004MOL0     H38535   5.024   4.646   6.603  1.1107 -0.5693 -0.6587
 1004MOL0     H38536   3.183   4.454   7.141  1.6632 -1.0766 -0.8385
 1004MOL0     H38537   2.953   4.422   7.197 -0.3522 -0.4588 -0.4192
 1004MOL0     H38538   2.544   4.002   7.137  0.9466  2.8528 -1.9593
 1004MOL0     H38539   2.314   3.988   7.210  0.3143  0.4679 -1.6858
 1004MOL0     H38540   2.187   3.925   7.409 -0.5131  1.1099 -1.9629
 1004MOL0     H38541   2.235   4.007   7.564  0.3007  2.9166  0.3834
 1004MOL0     H38542   2.006   4.059   7.617 -0.3501 -1.7547  0.2665
 1004MOL0     H38543   2.011   3.894   7.563 -0.4202 -1.1331  1.5406
 1004MOL0     H38544   1.971   4.125   7.367 -0.4640  0.5430 -2.5985
 1004MOL0     H38545   1.937   3.960   7.332 -1.0644  0.1906 -0.4410
 1004MOL0     H38546   1.736   4.079   7.364 -1.7118 -1.1922  0.4895
 1004MOL0     H38547   1.771   4.104   7.536  0.8841  0.4143  0.0600
 1004MOL0     H38548   1.663   3.710   7.547  0.2421 -1.2117 -2.7346
 1004MOL0     H38549   2.378   4.297   7.491 -1.1160  0.3534 -0.3498
 1004MOL0     H38550   2.561   4.460   7.440 -0.4980  1.7859 -2.8028
 1004MOL0     H38551   2.706   4.356   7.457  0.4832  0.2315 -0.3017
 1004MOL0     H38552   2.672   4.437   7.299 -1.0817  0.8254 -0.5374
 1005MOL0     O38553   6.702   6.289   6.862 -0.5754  0.0792 -0.8034
 1005MOL0     C38554   6.756   6.191   6.912  0.0027  0.3754 -0.4840
 1005MOL0     O38555   6.712   6.061   6.890  0.4260  0.0023 -0.1639
 1005MOL0     C38556   6.586   6.021   6.867  0.0218  1.2476 -1.0358
 1005MOL0     C38557   6.560   5.887   6.867 -0.4927  0.5032 -0.0794
 1005MOL0     C38558   6.438   5.833   6.819  0.2107  1.2866 -0.0451
 1005MOL0     C38559   6.331   5.911   6.787 -0.0807  0.0126  0.4200
 1005MOL0     O38560   6.227   5.846   6.730  0.9139  0.2143  0.4126
 1005MOL0     C38561   6.127   5.919   6.651  0.4434  0.1453  0.3164
 1005MOL0     C38562   6.027   5.817   6.601  0.2690  0.3389 -0.3706
 1005MOL0     C38563   6.083   5.709   6.507  0.1551  0.4489 -1.0297
 1005MOL0     C38564   5.970   5.603   6.472 -0.1715  0.4187  0.3123
 1005MOL0     C38565   5.974   5.488   6.574  0.4734  0.2590 -0.3578
 1005MOL0     C38566   5.912   5.356   6.521  0.5735 -1.0712  0.3493
 1005MOL0     C38567   5.917   5.242   6.617 -0.6617 -0.5382  1.0627
 1005MOL0     C38568   5.856   5.267   6.760  0.2311  0.2764  0.3454
 1005MOL0     N38569   5.790   5.159   6.830  0.0438  0.0113  0.7226
 1005MOL0     C38570   5.690   5.170   6.924 -0.5316 -0.7107  0.6748
 1005MOL0     C38571   5.669   5.042   6.959 -0.3456 -0.0489  0.2105
 1005MOL0     C38572   5.557   4.992   7.051 -0.5095  0.0767  0.5413
 1005MOL0     C38573   5.424   5.063   7.033 -0.1422  0.7795  0.7739
 1005MOL0     C38574   5.370   5.051   6.886  1.0844  0.2463 -0.6675
 1005MOL0     C38575   5.222   5.089   6.892  0.2627 -0.5482  0.3946
 1005MOL0     O38576   5.159   5.035   6.776  0.3580 -0.1439 -0.2301
 1005MOL0     C38577   5.014   5.025   6.782  0.8048 -0.0509  0.1616
 1005MOL0     C38578   4.935   5.098   6.871  1.0373  0.1967 -0.1712
 1005MOL0     C38579   4.794   5.086   6.888  0.1795 -1.2551  0.6010
 1005MOL0     C38580   4.722   5.159   7.004  0.0663 -0.5280 -0.1089
 1005MOL0     C38581   4.728   5.017   6.788 -1.1861  0.9570 -0.2047
 1005MOL0     C38582   4.581   4.991   6.787 -0.0194  0.2706  0.2243
 1005MOL0     O38583   4.507   5.022   6.894  0.7194  0.2062  0.2882
 1005MOL0     C38584   4.378   4.973   6.914 -0.1187 -0.2141 -0.8147
 1005MOL0     C38585   4.295   5.043   7.007 -0.0110 -0.7684  0.0694
 1005MOL0     C38586   4.165   5.006   7.034 -0.3723  0.2493 -0.7537
 1005MOL0     C38587   4.113   4.890   6.980  0.7193 -0.3385 -0.4727
 1005MOL0     O38588   3.984   4.858   7.015 -0.3469 -0.1302  0.0275
 1005MOL0     C38589   3.918   4.762   6.930 -0.3516 -0.1858 -0.4413
 1005MOL0     C38590   3.765   4.764   6.948 -0.7690  0.2073  0.1422
 1005MOL0     C38591   3.702   4.701   7.076  0.5968 -0.3549  0.6404
 1005MOL0     C38592   3.596   4.786   7.134  0.9884 -0.6281  0.2417
 1005MOL0     C38593   3.502   4.728   7.241 -1.1062  0.0088 -0.7039
 1005MOL0     C38594   3.376   4.814   7.280  0.0331 -0.4051  0.3904
 1005MOL0     C38595   3.275   4.827   7.157 -0.1896  0.1914 -0.2033
 1005MOL0     C38596   3.133   4.844   7.205 -0.2514 -0.3571  0.2137
 1005MOL0    Cl38597   3.063   4.715   7.304 -0.0968 -0.4477 -0.5387
 1005MOL0     C38598   4.197   4.807   6.898  0.3864 -0.0706  0.4333
 1005MOL0     C38599   4.330   4.842   6.883 -0.2952  0.2756 -0.1501
 1005MOL0     O38600   4.532   4.950   6.685  0.4774 -0.1389 -0.5622
 1005MOL0     C38601   4.805   4.957   6.682  0.2234 -0.4673  0.1323
 1005MOL0     C38602   4.945   4.953   6.684 -0.0258 -0.1245  0.1726
 1005MOL0     N38603   5.753   4.959   6.895 -0.5077 -0.3588  0.1739
 1005MOL0     N38604   5.827   5.030   6.811  0.1350 -0.0940  0.2688
 1005MOL0     C38605   6.346   6.051   6.804 -0.1538  0.8313 -0.3995
 1005MOL0     C38606   6.472   6.102   6.853 -0.7965 -0.4421 -1.0539
 1005MOL0     C38607   6.888   6.196   6.984  0.0661  1.0209 -0.5312
 1005MOL0     C38608   6.936   6.075   7.043 -0.0938  0.4906 -0.1844
 1005MOL0     C38609   7.057   6.068   7.107  0.2174 -0.2005 -0.5727
 1005MOL0     C38610   7.148   6.171   7.092 -0.0085  0.1762  0.3719
 1005MOL0     O38611   7.280   6.150   7.112 -0.0401 -0.1953  0.8371
 1005MOL0     C38612   7.327   6.131   7.248  0.1576 -0.5874  0.4574
 1005MOL0     C38613   7.395   6.264   7.283 -0.6004 -0.3745  1.1457
 1005MOL0     C38614   7.540   6.240   7.283 -0.1709 -0.1705 -0.1717
 1005MOL0     C38615   7.627   6.369   7.278  0.4418 -0.1052  0.1242
 1005MOL0     C38616   7.764   6.340   7.315  0.1673 -0.2312  0.5205
 1005MOL0     C38617   7.873   6.303   7.337 -1.0449  0.1823  0.1828
 1005MOL0     C38618   7.104   6.294   7.035  0.3594 -0.2332  0.2107
 1005MOL0     C38619   6.972   6.306   6.987  0.3089 -0.5275  0.5970
 1005MOL0     C38620   6.938   6.429   6.909  0.5240  0.0502 -0.4180
 1005MOL0     H38621   6.644   5.820   6.881 -1.4851 -1.0620 -1.2072
 1005MOL0     H38622   6.429   5.725   6.808 -0.7630  1.5106 -1.7498
 1005MOL0     H38623   6.168   5.970   6.563  1.1431 -0.3063  0.3682
 1005MOL0     H38624   6.071   5.993   6.708  1.3361  0.5070  0.7333
 1005MOL0     H38625   5.989   5.768   6.691  3.4727 -1.1810  0.2853
 1005MOL0     H38626   5.939   5.863   6.554  0.0472  0.2246 -0.0710
 1005MOL0     H38627   6.105   5.760   6.413 -1.7213  1.0390 -1.1985
 1005MOL0     H38628   6.172   5.653   6.535  1.8583  2.4875 -2.1353
 1005MOL0     H38629   5.871   5.648   6.471  0.6423  2.4671 -2.6250
 1005MOL0     H38630   5.985   5.559   6.373 -2.7476 -1.2205  0.5619
 1005MOL0     H38631   5.930   5.523   6.668 -3.0644  0.1603 -1.7978
 1005MOL0     H38632   6.077   5.460   6.597 -0.5729 -4.7913 -0.6591
 1005MOL0     H38633   5.806   5.377   6.506  0.7272 -0.1843  0.4328
 1005MOL0     H38634   5.947   5.331   6.420 -1.9458  0.4508 -0.9927
 1005MOL0     H38635   6.023   5.217   6.627  0.3714  1.4176 -3.0348
 1005MOL0     H38636   5.862   5.161   6.568  1.6638 -1.4424 -0.2205
 1005MOL0     H38637   5.928   5.312   6.830 -0.8985 -0.0726  1.8002
 1005MOL0     H38638   5.772   5.337   6.752 -1.9484 -2.0257  1.5064
 1005MOL0     H38639   5.637   5.258   6.962 -2.9390 -2.1610  0.9185
 1005MOL0     H38640   5.591   5.011   7.154 -0.4175 -1.0396  0.7398
 1005MOL0     H38641   5.559   4.883   7.039  1.7098  0.3185 -2.2525
 1005MOL0     H38642   5.347   5.010   7.091 -1.3099 -0.5700 -1.8352
 1005MOL0     H38643   5.428   5.166   7.071  0.1117  1.1592 -0.2669
 1005MOL0     H38644   5.426   5.117   6.820 -0.9620  2.5563 -0.2348
 1005MOL0     H38645   5.372   4.945   6.858 -0.6312  0.1302 -0.4917
 1005MOL0     H38646   5.179   5.050   6.985 -0.7826 -1.5921 -0.4886
 1005MOL0     H38647   5.219   5.198   6.887  3.1675 -0.3023  2.1494
 1005MOL0     H38648   4.987   5.170   6.933  3.1388 -1.0434 -0.4184
 1005MOL0     H38649   4.648   5.231   6.966  1.2171  1.8400  1.9179
 1005MOL0     H38650   4.798   5.227   7.042  1.0512 -1.9607  0.5515
 1005MOL0     H38651   4.687   5.097   7.087  2.9675  1.6562  2.9904
 1005MOL0     H38652   4.337   5.133   7.050  0.9960 -1.2580  0.1264
 1005MOL0     H38653   4.115   5.072   7.105  0.5679  0.7486 -0.5426
 1005MOL0     H38654   3.947   4.775   6.825 -3.2204 -0.3774 -1.3468
 1005MOL0     H38655   3.957   4.664   6.961  0.8551  0.5845  0.5896
 1005MOL0     H38656   3.741   4.871   6.939 -1.4386 -0.0953 -2.8983
 1005MOL0     H38657   3.710   4.726   6.861 -1.4466  2.7492 -0.6210
 1005MOL0     H38658   3.777   4.685   7.155  1.3297  1.9809  0.4745
 1005MOL0     H38659   3.657   4.606   7.047 -0.0205 -0.3083  1.4139
 1005MOL0     H38660   3.522   4.809   7.058  2.9299 -1.4773 -2.0277
 1005MOL0     H38661   3.642   4.880   7.167 -0.2749 -0.4989  1.7213
 1005MOL0     H38662   3.470   4.632   7.200  2.5668 -1.0745 -1.3670
 1005MOL0     H38663   3.555   4.712   7.336 -0.8764 -0.1753 -0.8623
 1005MOL0     H38664   3.403   4.914   7.315 -2.9802  0.8808 -0.6126
 1005MOL0     H38665   3.331   4.765   7.367 -4.2594  1.0707 -0.7428
 1005MOL0     H38666   3.267   4.737   7.094 -3.1401  1.4991 -1.8791
 1005MOL0     H38667   3.299   4.916   7.098 -1.1060  1.3150  1.0642
 1005MOL0     H38668   3.075   4.863   7.114 -1.4244  1.0741  1.2054
 1005MOL0     H38669   3.150   4.929   7.272  2.2866  0.7350 -1.6601
 1005MOL0     H38670   4.161   4.709   6.870 -1.2617 -0.8741  4.6397
 1005MOL0     H38671   4.390   4.765   6.836 -1.1269  0.2681 -1.2663
 1005MOL0     H38672   4.763   4.910   6.594 -1.1681  0.8141  0.0699
 1005MOL0     H38673   4.995   4.898   6.605 -0.3643 -0.8191  0.4325
 1005MOL0     H38674   6.270   6.123   6.777 -1.0149  0.2617  0.4262
 1005MOL0     H38675   6.480   6.210   6.854 -0.3620 -0.4709 -1.1016
 1005MOL0     H38676   6.878   5.984   7.052  0.0718  0.5942  4.8208
 1005MOL0     H38677   7.080   5.970   7.148 -1.1289  0.9718  3.4137
 1005MOL0     H38678   7.243   6.113   7.315 -1.0768 -4.2447 -1.7536
 1005MOL0     H38679   7.391   6.042   7.258  0.9779 -0.3504 -1.9146
 1005MOL0     H38680   7.365   6.294   7.383 -3.4827 -2.1265  0.9322
 1005MOL0     H38681   7.372   6.346   7.215  1.1998  0.2258  1.2030
 1005MOL0     H38682   7.565   6.185   7.374  0.9632  1.2112  0.3893
 1005MOL0     H38683   7.572   6.170   7.206 -0.6811  0.0444 -0.5837
 1005MOL0     H38684   7.593   6.440   7.354  2.4439  2.1489 -0.9705
 1005MOL0     H38685   7.616   6.427   7.186 -3.5865  2.3795  1.8974
 1005MOL0     H38686   7.968   6.260   7.363 -2.5336 -2.0838  2.2750
 1005MOL0     H38687   7.175   6.371   7.006  0.6562 -1.1359 -1.6115
 1005MOL0     H38688   6.839   6.461   6.943  0.6264 -1.2332  1.2125
 1005MOL0     H38689   7.017   6.503   6.928  0.0982  0.9856 -2.0554
 1005MOL0     H38690   6.932   6.415   6.801  0.2005  0.6529 -0.4817
 1006MOL0     O38691   2.410   1.484   1.783  0.0009  0.3016 -0.5288
 1006MOL0     C38692   2.295   1.440   1.791  0.0341  0.9827 -0.5004
 1006MOL0     O38693   2.216   1.422   1.691  0.8332  0.7856  0.4430
 1006MOL0     C38694   2.226   1.490   1.570  0.4474  0.3433  0.1835
 1006MOL0     C38695   2.304   1.604   1.542  0.1507  0.3451 -0.3521
 1006MOL0     C38696   2.314   1.640   1.406  0.2633 -0.6455  0.1987
 1006MOL0     C38697   2.256   1.575   1.299 -0.6291 -0.7496  0.4177
 1006MOL0     O38698   2.266   1.641   1.179 -0.0540  0.4981 -1.1666
 1006MOL0     C38699   2.181   1.603   1.066  0.0958 -0.1075  0.3729
 1006MOL0     C38700   2.179   1.701   0.950 -0.5453  0.5458  0.0143
 1006MOL0     C38701   2.146   1.842   0.982  0.3039 -0.3901 -0.7751
 1006MOL0     C38702   2.111   1.923   0.855  0.3848  1.0512  0.2494
 1006MOL0     C38703   2.191   2.048   0.825 -0.1970  0.5775  0.1927
 1006MOL0     C38704   2.159   2.119   0.695  0.1136 -0.8732 -0.0050
 1006MOL0     C38705   2.257   2.228   0.656  0.4669  0.2902  0.4803
 1006MOL0     C38706   2.264   2.349   0.749  0.2896  0.6442  0.0010
 1006MOL0     N38707   2.369   2.440   0.715 -0.0605 -0.2501  0.5656
 1006MOL0     C38708   2.366   2.566   0.772  0.2262  0.3852  0.3421
 1006MOL0     C38709   2.492   2.607   0.756 -0.5192  0.4172 -0.4077
 1006MOL0     C38710   2.564   2.732   0.811  0.6810 -0.0789  0.3340
 1006MOL0     C38711   2.710   2.749   0.765 -0.0403  0.1851 -0.0143
 1006MOL0     C38712   2.764   2.891   0.789 -0.0831  0.0117 -0.6987
 1006MOL0     C38713   2.917   2.882   0.768 -0.1865 -0.6999 -0.9028
 1006MOL0     O38714   2.985   3.009   0.746  0.8379  0.1175 -0.0737
 1006MOL0     C38715   3.113   3.006   0.709  0.1832  0.1591 -0.7399
 1006MOL0     C38716   3.160   3.122   0.665 -0.0579  0.0810  0.0172
 1006MOL0     C38717   3.289   3.141   0.613  0.4218  0.0925  0.0462
 1006MOL0     C38718   3.311   3.276   0.542  0.5607  0.4887  0.3343
 1006MOL0     C38719   3.379   3.028   0.606  0.6317  0.0494  0.2700
 1006MOL0     C38720   3.517   3.034   0.551  0.0790 -0.4764  0.0465
 1006MOL0     O38721   3.605   2.953   0.615  0.3195 -0.0560  0.0139
 1006MOL0     C38722   3.731   2.957   0.576  0.5936 -0.2692 -0.2187
 1006MOL0     C38723   3.786   2.837   0.523  0.5949 -0.2568 -0.5010
 1006MOL0     C38724   3.921   2.833   0.493 -0.7140  1.1068 -0.1984
 1006MOL0     C38725   4.004   2.948   0.489  0.0328 -0.0895 -0.4898
 1006MOL0     O38726   4.132   2.945   0.442 -0.1907 -0.6109  0.9027
 1006MOL0     C38727   4.227   3.018   0.513  0.4614 -0.4025  0.0220
 1006MOL0     C38728   4.360   2.950   0.537  0.7682 -0.6567 -0.4342
 1006MOL0     C38729   4.422   2.893   0.408 -0.8880 -0.0368 -0.3906
 1006MOL0     C38730   4.569   2.895   0.410  0.0358 -0.1162  0.7810
 1006MOL0     C38731   4.627   2.803   0.524  0.4926  0.8376 -0.4645
 1006MOL0     C38732   4.779   2.812   0.537 -0.5869 -0.7516 -0.0277
 1006MOL0     C38733   4.843   2.756   0.414 -0.0345  0.1971 -0.1225
 1006MOL0     C38734   4.998   2.750   0.438 -0.6174  0.1544  0.7397
 1006MOL0    Cl38735   5.085   2.903   0.457 -0.0356  0.3947 -0.7132
 1006MOL0     C38736   3.944   3.066   0.542 -1.1217 -0.0673 -0.8096
 1006MOL0     C38737   3.815   3.071   0.587  0.3333  1.1772  0.5234
 1006MOL0     O38738   3.541   3.112   0.460 -0.5975 -0.1390 -0.6297
 1006MOL0     C38739   3.329   2.908   0.655 -0.7844  0.2317  0.4283
 1006MOL0     C38740   3.204   2.902   0.715  0.0779  0.4426 -0.1620
 1006MOL0     N38741   2.564   2.510   0.688 -0.4102  0.3688 -0.6629
 1006MOL0     N38742   2.500   2.404   0.685  0.6529 -0.4305  0.0139
 1006MOL0     C38743   2.186   1.456   1.327 -0.3400 -0.8098  0.1078
 1006MOL0     C38744   2.165   1.425   1.460 -0.0841 -0.1363  0.2985
 1006MOL0     C38745   2.234   1.414   1.920  0.7199  1.1061 -0.0908
 1006MOL0     C38746   2.312   1.353   2.013 -0.1407 -0.0106 -0.1417
 1006MOL0     C38747   2.264   1.321   2.139 -0.4774 -0.2062 -0.0862
 1006MOL0     C38748   2.132   1.343   2.172 -0.5355  0.2123 -0.5359
 1006MOL0     O38749   2.105   1.299   2.303  0.2172 -0.0131  0.0352
 1006MOL0     C38750   1.990   1.339   2.372 -0.9317  0.2580  0.8158
 1006MOL0     C38751   1.877   1.229   2.383  0.0396 -0.1161  0.1031
 1006MOL0     C38752   1.938   1.117   2.471 -0.4608  0.5273 -0.3115
 1006MOL0     C38753   1.850   0.990   2.471 -0.2582 -0.1704 -0.1698
 1006MOL0     C38754   1.727   1.012   2.549  0.0451  0.1274 -0.0298
 1006MOL0     C38755   1.627   1.032   2.615  0.7713 -0.8400 -0.7277
 1006MOL0     C38756   2.047   1.404   2.080  0.3097 -0.5619  0.0676
 1006MOL0     C38757   2.099   1.451   1.953  0.4478 -0.2081  0.7323
 1006MOL0     C38758   2.014   1.523   1.860 -0.3504 -0.3522  0.3598
 1006MOL0     H38759   2.353   1.664   1.619  1.6523 -0.5642 -0.5513
 1006MOL0     H38760   2.348   1.741   1.385  2.7707 -1.3447  0.5886
 1006MOL0     H38761   2.082   1.572   1.101 -0.2663 -2.2405 -2.2009
 1006MOL0     H38762   2.221   1.512   1.019  1.5380  0.3902  0.5893
 1006MOL0     H38763   2.273   1.690   0.894  0.0743 -4.1237  1.5119
 1006MOL0     H38764   2.096   1.673   0.884  0.0592  0.1415 -0.5890
 1006MOL0     H38765   2.057   1.839   1.046  0.6346 -1.2205 -0.3279
 1006MOL0     H38766   2.237   1.890   1.019  0.4752 -0.8520 -0.5833
 1006MOL0     H38767   2.124   1.855   0.771 -1.2808  0.4167  0.4681
 1006MOL0     H38768   2.006   1.952   0.864  0.5340  1.8415 -0.4120
 1006MOL0     H38769   2.297   2.024   0.834  0.2344  2.6193  1.0044
 1006MOL0     H38770   2.175   2.116   0.909  0.5687  1.4437 -0.3571
 1006MOL0     H38771   2.144   2.049   0.612 -1.7343 -1.6955  0.9720
 1006MOL0     H38772   2.061   2.168   0.703  1.7184  2.4665  0.9741
 1006MOL0     H38773   2.238   2.266   0.556  0.0290  0.3038  0.5632
 1006MOL0     H38774   2.347   2.167   0.650  0.7605  0.8974 -2.0419
 1006MOL0     H38775   2.169   2.403   0.756 -0.1748 -0.0219 -0.9237
 1006MOL0     H38776   2.281   2.308   0.849 -2.4422 -4.1401 -1.1938
 1006MOL0     H38777   2.293   2.618   0.834 -0.0408  1.2645 -0.6867
 1006MOL0     H38778   2.568   2.741   0.920  0.9427  1.4442  0.2272
 1006MOL0     H38779   2.505   2.818   0.778  3.3967  1.3898 -1.0246
 1006MOL0     H38780   2.768   2.686   0.833  0.6498  1.2083  0.3819
 1006MOL0     H38781   2.721   2.716   0.661 -0.8630 -1.2874  0.3528
 1006MOL0     H38782   2.718   2.960   0.717 -2.0073  1.7280  1.9873
 1006MOL0     H38783   2.735   2.926   0.888  0.5164  2.0497 -1.1934
 1006MOL0     H38784   2.955   2.827   0.855 -4.4409 -1.3549  0.8031
 1006MOL0     H38785   2.939   2.818   0.683  1.8119  0.2973 -1.1792
 1006MOL0     H38786   3.092   3.206   0.661  0.7174  0.7095 -0.3833
 1006MOL0     H38787   3.348   3.250   0.442 -0.1614  1.2350 -0.1448
 1006MOL0     H38788   3.388   3.336   0.590  0.3756  0.3607  0.7899
 1006MOL0     H38789   3.224   3.342   0.539  1.3395  1.9817  4.3720
 1006MOL0     H38790   3.722   2.750   0.515 -0.5562  0.3129  1.6264
 1006MOL0     H38791   3.962   2.741   0.454 -2.3078 -0.7279  2.1947
 1006MOL0     H38792   4.250   3.105   0.451  0.3666  0.0629  0.6390
 1006MOL0     H38793   4.184   3.046   0.609  1.5148  1.3331  0.0290
 1006MOL0     H38794   4.426   3.022   0.586 -0.3632 -1.3066  2.1937
 1006MOL0     H38795   4.339   2.873   0.612 -2.0938  0.1298 -0.2956
 1006MOL0     H38796   4.379   2.957   0.330 -3.4508  1.4361  2.0210
 1006MOL0     H38797   4.385   2.791   0.397 -0.1090 -0.8354  3.1380
 1006MOL0     H38798   4.607   2.996   0.426 -0.6796 -0.1719  3.2691
 1006MOL0     H38799   4.608   2.860   0.314 -2.6031  0.8434 -0.7342
 1006MOL0     H38800   4.585   2.820   0.624 -1.9442 -5.2698 -0.0026
 1006MOL0     H38801   4.605   2.698   0.505 -0.5408  1.3313 -2.2102
 1006MOL0     H38802   4.812   2.762   0.629  2.9660  2.1584  0.5243
 1006MOL0     H38803   4.801   2.919   0.548 -1.2570 -0.4556 -1.2882
 1006MOL0     H38804   4.830   2.824   0.329  1.8904  0.2104 -0.4421
 1006MOL0     H38805   4.803   2.656   0.396  0.6163  0.3676 -3.0495
 1006MOL0     H38806   5.034   2.693   0.352 -4.7633 -1.0560 -0.4544
 1006MOL0     H38807   5.031   2.698   0.528  1.0569  1.2554  0.8053
 1006MOL0     H38808   3.989   3.165   0.550 -0.6067 -0.3735  0.1601
 1006MOL0     H38809   3.773   3.155   0.642 -0.7499  0.2583  1.1407
 1006MOL0     H38810   3.387   2.816   0.656  0.0433  0.7340  1.2776
 1006MOL0     H38811   3.169   2.806   0.750  0.7205  0.6817  1.2170
 1006MOL0     H38812   2.134   1.397   1.252  1.5388 -4.7744  1.6393
 1006MOL0     H38813   2.095   1.344   1.479 -1.5058 -0.1992 -4.0872
 1006MOL0     H38814   2.416   1.332   1.990 -0.2283 -0.1009 -0.4677
 1006MOL0     H38815   2.341   1.294   2.211  1.1094  0.8477 -1.3327
 1006MOL0     H38816   2.025   1.357   2.474 -2.8712 -1.6901  1.9051
 1006MOL0     H38817   1.945   1.428   2.327  1.4392  0.8692 -0.5511
 1006MOL0     H38818   1.849   1.193   2.283 -2.0548  1.2462  0.1406
 1006MOL0     H38819   1.787   1.267   2.432  1.4204  2.2910  0.9085
 1006MOL0     H38820   2.035   1.076   2.443 -0.2617 -1.2393  2.5978
 1006MOL0     H38821   1.945   1.159   2.571 -3.4646 -0.9344  0.6448
 1006MOL0     H38822   1.905   0.907   2.516  1.9356  2.5823  2.6469
 1006MOL0     H38823   1.825   0.963   2.368  0.8479 -0.8481 -0.2796
 1006MOL0     H38824   1.540   1.052   2.674 -0.5207  2.5075 -3.4381
 1006MOL0     H38825   1.943   1.421   2.103  0.6213 -0.0300  1.1570
 1006MOL0     H38826   1.922   1.565   1.901 -0.2444 -0.3476  0.6002
 1006MOL0     H38827   2.065   1.615   1.831 -2.7708 -0.0667 -3.7608
 1006MOL0     H38828   1.988   1.477   1.764 -1.9340  0.1722  0.5213
 1007MOL0     O38829   5.191   9.508   4.337 -0.1634  0.3065 -0.0928
 1007MOL0     C38830   5.196   9.386   4.323 -0.3787 -0.0181 -0.4240
 1007MOL0     O38831   5.306   9.311   4.326  0.1901  0.2339 -0.4835
 1007MOL0     C38832   5.435   9.360   4.327 -0.0160 -0.5158 -0.2113
 1007MOL0     C38833   5.481   9.481   4.385  0.0660 -0.2818  0.0573
 1007MOL0     C38834   5.615   9.519   4.381  0.2074  0.2961  0.1982
 1007MOL0     C38835   5.714   9.439   4.310 -0.3496 -0.0233  0.3979
 1007MOL0     O38836   5.847   9.472   4.303  0.6378  0.0943 -0.2201
 1007MOL0     C38837   5.904   9.495   4.434  0.7686 -1.0825 -0.0474
 1007MOL0     C38838   6.057   9.493   4.420 -0.0291 -1.0855  0.4020
 1007MOL0     C38839   6.102   9.355   4.384  0.1370  0.0647  0.0240
 1007MOL0     C38840   6.255   9.335   4.411  0.7397  0.2253 -0.0363
 1007MOL0     C38841   6.302   9.188   4.383  0.4307 -0.4775 -0.0308
 1007MOL0     C38842   6.251   9.101   4.500  0.2689 -0.5276 -0.5087
 1007MOL0     C38843   6.344   8.976   4.525  0.3122 -0.0711 -0.8591
 1007MOL0     C38844   6.333   8.868   4.428 -0.3393 -0.4593  0.8233
 1007MOL0     N38845   6.425   8.748   4.436  0.6202 -0.1181  0.1205
 1007MOL0     C38846   6.445   8.668   4.548 -0.2156  1.1327  0.1102
 1007MOL0     C38847   6.520   8.556   4.512  0.6993  0.0808  0.1139
 1007MOL0     C38848   6.544   8.428   4.596  0.1854  0.6641 -0.5066
 1007MOL0     C38849   6.592   8.460   4.737  0.4135 -0.0068  0.0312
 1007MOL0     C38850   6.726   8.534   4.744 -0.1281  0.5381  0.0492
 1007MOL0     C38851   6.856   8.453   4.726 -0.0683  0.7612 -0.0403
 1007MOL0     O38852   6.972   8.534   4.700 -0.3345 -0.3670 -0.0017
 1007MOL0     C38853   7.097   8.483   4.701 -0.2797  0.4358  0.7861
 1007MOL0     C38854   7.173   8.475   4.591 -0.8908 -0.6365 -0.7560
 1007MOL0     C38855   7.301   8.420   4.587 -0.6840  0.1525 -0.8185
 1007MOL0     C38856   7.376   8.423   4.457 -0.3486  0.4402 -0.2775
 1007MOL0     C38857   7.359   8.367   4.718 -0.0852 -0.5483 -0.6347
 1007MOL0     C38858   7.501   8.317   4.727 -0.2110  1.1793  0.7178
 1007MOL0     O38859   7.556   8.344   4.847  0.1902  0.0573 -0.3586
 1007MOL0     C38860   7.687   8.362   4.871  0.6973  0.0890  0.3887
 1007MOL0     C38861   7.709   8.369   5.005 -0.7354 -0.5630  0.0465
 1007MOL0     C38862   7.831   8.402   5.053  0.2048  0.4706 -0.5764
 1007MOL0     C38863   7.939   8.420   4.972 -0.0129 -0.1736 -0.3722
 1007MOL0     O38864   8.060   8.447   5.031 -0.0605  0.0914 -1.4365
 1007MOL0     C38865   8.164   8.515   4.964 -0.3308 -0.0235  0.2031
 1007MOL0     C38866   8.124   8.657   4.947  0.1804 -0.1547  0.6755
 1007MOL0     C38867   8.214   8.750   4.863 -0.2346 -0.0883  0.1793
 1007MOL0     C38868   8.336   8.797   4.941  0.2374 -0.0044  0.3039
 1007MOL0     C38869   8.462   8.831   4.868  0.1938  0.5175  0.8672
 1007MOL0     C38870   8.569   8.891   4.958  0.5252 -0.4343 -0.1904
 1007MOL0     C38871   8.699   8.919   4.885  0.8466 -0.5169  0.2791
 1007MOL0     C38872   8.802   8.985   4.979 -0.8378 -0.4882 -0.0927
 1007MOL0    Cl38873   8.960   9.005   4.897  0.2348 -0.1286  0.2587
 1007MOL0     C38874   7.918   8.416   4.831 -0.6597 -0.3645  0.0173
 1007MOL0     C38875   7.790   8.396   4.780  0.1100 -0.5185 -0.1687
 1007MOL0     O38876   7.554   8.264   4.634 -0.4130  0.4777  0.0848
 1007MOL0     C38877   7.269   8.368   4.833  0.7393  0.4107 -0.2292
 1007MOL0     C38878   7.145   8.428   4.824 -0.2770 -0.0884  1.1120
 1007MOL0     N38879   6.559   8.580   4.380  0.0105 -0.3136 -0.8026
 1007MOL0     N38880   6.500   8.693   4.335  0.2787  0.0937  0.1123
 1007MOL0     C38881   5.663   9.320   4.255 -0.8301 -0.3477  0.0304
 1007MOL0     C38882   5.527   9.290   4.253  0.3612  0.4047 -0.3523
 1007MOL0     C38883   5.076   9.313   4.278  0.0188 -0.2773 -0.2895
 1007MOL0     C38884   5.079   9.163   4.276 -0.1445 -0.2937  0.2941
 1007MOL0     C38885   4.957   9.096   4.245 -0.7144  0.1611  0.2817
 1007MOL0     C38886   4.836   9.158   4.226 -0.0938 -0.3640  0.1517
 1007MOL0     O38887   4.730   9.083   4.191  0.4766 -0.2927  0.0252
 1007MOL0     C38888   4.586   9.133   4.193 -1.6248 -0.0028  0.1074
 1007MOL0     C38889   4.486   9.024   4.247 -0.8953 -0.5560 -0.5206
 1007MOL0     C38890   4.536   8.873   4.232 -0.4391 -0.5957  0.8123
 1007MOL0     C38891   4.462   8.773   4.323 -0.3244 -0.1712  0.7605
 1007MOL0     C38892   4.485   8.626   4.289 -0.0528  0.1788  0.7405
 1007MOL0     C38893   4.535   8.517   4.283  0.1561 -0.1109  0.3673
 1007MOL0     C38894   4.837   9.295   4.206 -0.3269  0.0320 -1.0701
 1007MOL0     C38895   4.951   9.378   4.238 -0.7625 -0.4061  0.2621
 1007MOL0     C38896   4.935   9.527   4.207  0.4731 -0.7897  0.7188
 1007MOL0     H38897   5.420   9.533   4.458  2.8724  4.2226 -0.4154
 1007MOL0     H38898   5.644   9.614   4.424 -1.5685  0.4802  1.0682
 1007MOL0     H38899   5.883   9.409   4.498  1.2518 -1.7289 -0.7354
 1007MOL0     H38900   5.867   9.585   4.485 -0.1291 -0.3206 -1.9462
 1007MOL0     H38901   6.089   9.567   4.346 -1.1921  1.3981  2.2331
 1007MOL0     H38902   6.094   9.524   4.518  2.0719  1.1544 -1.0037
 1007MOL0     H38903   6.048   9.289   4.453  0.2268  1.3063  1.3294
 1007MOL0     H38904   6.081   9.331   4.280  3.5068 -1.3900 -0.4716
 1007MOL0     H38905   6.306   9.402   4.340  3.6244 -1.8386 -0.0837
 1007MOL0     H38906   6.287   9.359   4.512  0.6019  0.0077  0.0599
 1007MOL0     H38907   6.411   9.180   4.377  0.5203 -0.1944  0.9495
 1007MOL0     H38908   6.248   9.161   4.292 -2.3188  1.3357  0.9388
 1007MOL0     H38909   6.258   9.158   4.593  1.9225 -2.8225  0.8849
 1007MOL0     H38910   6.146   9.075   4.483  0.7668 -1.6519 -2.0324
 1007MOL0     H38911   6.291   8.932   4.610  0.8550 -1.8338 -1.4037
 1007MOL0     H38912   6.448   9.005   4.540  0.1115  1.9848 -2.7883
 1007MOL0     H38913   6.237   8.817   4.438 -0.2535 -1.1087 -1.2655
 1007MOL0     H38914   6.336   8.909   4.327 -1.9892 -2.9024 -0.3117
 1007MOL0     H38915   6.397   8.683   4.644 -1.3228  2.0099 -0.5538
 1007MOL0     H38916   6.609   8.350   4.554 -2.4546 -2.2309  0.4178
 1007MOL0     H38917   6.443   8.388   4.608 -0.1577  1.6021 -0.1875
 1007MOL0     H38918   6.511   8.513   4.788  2.1685  0.9000  2.0031
 1007MOL0     H38919   6.609   8.370   4.797  1.3772  1.0235  1.3513
 1007MOL0     H38920   6.720   8.614   4.669  1.8396 -1.5261 -2.5271
 1007MOL0     H38921   6.728   8.573   4.846 -1.3235  0.0516  0.2704
 1007MOL0     H38922   6.873   8.389   4.813 -2.4375  2.5857  1.8877
 1007MOL0     H38923   6.843   8.389   4.638  0.3881  1.1283 -0.3793
 1007MOL0     H38924   7.129   8.520   4.503 -2.4375  3.2010  1.7021
 1007MOL0     H38925   7.324   8.492   4.390 -2.0787 -0.0884  0.4613
 1007MOL0     H38926   7.403   8.326   4.414  2.5717  1.1160 -0.1840
 1007MOL0     H38927   7.473   8.468   4.477  0.0197 -0.4480 -0.0594
 1007MOL0     H38928   7.618   8.354   5.062 -2.8256  0.8701 -2.6812
 1007MOL0     H38929   7.849   8.414   5.160 -0.6791  0.0030 -0.3629
 1007MOL0     H38930   8.250   8.501   5.030  0.1865 -0.9970 -0.6582
 1007MOL0     H38931   8.191   8.462   4.873 -0.0904  1.0101 -0.3349
 1007MOL0     H38932   8.022   8.664   4.906 -0.7129  3.8669  3.0377
 1007MOL0     H38933   8.109   8.701   5.046 -0.3869 -0.6565  0.8177
 1007MOL0     H38934   8.153   8.836   4.834 -0.1995 -0.3552 -0.7097
 1007MOL0     H38935   8.246   8.698   4.772  1.8384  3.1334 -1.1461
 1007MOL0     H38936   8.350   8.706   5.000 -1.7935 -1.2914 -1.0499
 1007MOL0     H38937   8.313   8.873   5.016  1.0041  0.8730 -0.3267
 1007MOL0     H38938   8.496   8.736   4.826 -0.3295  0.7439 -0.0987
 1007MOL0     H38939   8.441   8.899   4.784 -0.0506 -1.9999 -1.2419
 1007MOL0     H38940   8.588   8.823   5.042  3.3661 -0.2676 -0.6292
 1007MOL0     H38941   8.526   8.983   4.999 -1.1218 -1.4794  0.5475
 1007MOL0     H38942   8.683   8.981   4.796 -2.2012 -2.1507 -0.4508
 1007MOL0     H38943   8.738   8.823   4.852 -0.5143 -0.5625 -1.3460
 1007MOL0     H38944   8.828   8.919   5.062  0.3173 -3.2857 -2.5396
 1007MOL0     H38945   8.750   9.072   5.023 -3.5235 -0.6296 -2.6967
 1007MOL0     H38946   7.992   8.442   4.756  0.3057  2.0237  1.6889
 1007MOL0     H38947   7.775   8.396   4.672 -2.6261  0.8086  0.1338
 1007MOL0     H38948   7.307   8.327   4.926 -1.7911  1.2356  1.2623
 1007MOL0     H38949   7.084   8.436   4.913  1.1726 -0.9522  2.2307
 1007MOL0     H38950   5.730   9.257   4.197  0.6130  0.1968  1.0687
 1007MOL0     H38951   5.491   9.204   4.196  0.7856  0.3516 -0.5367
 1007MOL0     H38952   5.168   9.106   4.304  0.1049  0.1430  0.3919
 1007MOL0     H38953   4.972   8.988   4.241 -1.1408  0.1356 -1.9810
 1007MOL0     H38954   4.578   9.220   4.258  1.4070  1.3027 -1.0901
 1007MOL0     H38955   4.560   9.174   4.095  0.5980  0.4348 -0.3566
 1007MOL0     H38956   4.389   9.033   4.197 -0.6964 -1.2252 -1.0446
 1007MOL0     H38957   4.469   9.030   4.355 -2.3525 -1.6279 -0.6501
 1007MOL0     H38958   4.540   8.835   4.129 -2.2732  0.1481  0.4247
 1007MOL0     H38959   4.642   8.869   4.258  0.2952 -1.0650 -1.9571
 1007MOL0     H38960   4.354   8.789   4.314  0.0710  1.6152 -1.5250
 1007MOL0     H38961   4.489   8.798   4.426 -0.0476  0.0204  0.6423
 1007MOL0     H38962   4.589   8.424   4.291 -1.7482 -1.3268 -0.3321
 1007MOL0     H38963   4.742   9.346   4.195 -1.6962 -1.9579  0.6958
 1007MOL0     H38964   5.002   9.557   4.125 -0.6755 -3.2285 -1.2756
 1007MOL0     H38965   4.832   9.550   4.177  0.6318  0.1129  0.8363
 1007MOL0     H38966   4.949   9.575   4.304  3.2376  1.0172 -0.4531
 1008MOL0     O38967   1.881   8.291   4.836 -0.1836 -0.2039  0.0631
 1008MOL0     C38968   1.781   8.320   4.767  0.1234 -0.5779 -0.0687
 1008MOL0     O38969   1.725   8.439   4.757  0.5308  0.6616  0.3927
 1008MOL0     C38970   1.777   8.540   4.833  0.3672 -0.3717 -0.0960
 1008MOL0     C38971   1.728   8.558   4.963 -0.7317  0.0553  1.8856
 1008MOL0     C38972   1.776   8.671   5.029 -0.1020  0.0684  0.0796
 1008MOL0     C38973   1.874   8.758   4.976  0.1741  0.1855 -0.3029
 1008MOL0     O38974   1.909   8.864   5.054  0.1486 -0.1924  0.1218
 1008MOL0     C38975   1.983   8.840   5.176 -0.5916 -0.2811 -0.1473
 1008MOL0     C38976   2.007   8.978   5.234 -0.0380 -0.9774 -0.2429
 1008MOL0     C38977   1.987   8.969   5.389 -0.5197  0.3579  1.0049
 1008MOL0     C38978   2.099   8.904   5.467 -0.2769 -0.4358  0.3184
 1008MOL0     C38979   2.093   8.944   5.615  0.3128 -0.7787  0.4811
 1008MOL0     C38980   2.186   8.866   5.708 -0.4559  0.0760  0.8077
 1008MOL0     C38981   2.197   8.931   5.847 -0.7887  0.3620 -0.6979
 1008MOL0     C38982   2.271   8.843   5.953 -0.4268 -0.6334  0.2830
 1008MOL0     N38983   2.395   8.792   5.916  0.2247  0.0730  0.0833
 1008MOL0     C38984   2.487   8.838   5.822 -0.3181 -0.6619  1.1225
 1008MOL0     C38985   2.570   8.737   5.806  0.1637 -0.5966  0.2843
 1008MOL0     C38986   2.686   8.740   5.710  0.1947 -0.5258  0.1924
 1008MOL0     C38987   2.805   8.669   5.782  0.3467  0.3956  0.6124
 1008MOL0     C38988   2.847   8.731   5.916 -0.7429  0.3949  0.3704
 1008MOL0     C38989   2.876   8.874   5.921  0.4453 -1.1652  0.0268
 1008MOL0     O38990   2.966   8.913   5.810 -1.0209 -0.0827  0.2937
 1008MOL0     C38991   3.097   8.895   5.820 -0.5902 -0.1865 -0.6951
 1008MOL0     C38992   3.165   8.838   5.715 -0.1639  0.7566 -1.2415
 1008MOL0     C38993   3.304   8.850   5.707  1.4737  0.5916 -0.2260
 1008MOL0     C38994   3.358   8.793   5.578  0.1940 -0.0424 -0.3498
 1008MOL0     C38995   3.379   8.910   5.809 -0.2936  0.1466  0.1650
 1008MOL0     C38996   3.533   8.911   5.805 -0.6962  0.1483 -0.4792
 1008MOL0     O38997   3.580   8.974   5.915 -0.3728  0.2724  0.1726
 1008MOL0     C38998   3.713   8.968   5.946  0.5476 -1.0126  0.3896
 1008MOL0     C38999   3.764   8.940   6.071  0.1083  0.3576  0.3236
 1008MOL0     C39000   3.896   8.949   6.110  0.1473  1.1089 -0.3310
 1008MOL0     C39001   3.995   8.980   6.012 -0.1240 -0.2193  0.7779
 1008MOL0     O39002   4.120   8.980   6.052 -0.2600 -1.0734  0.9409
 1008MOL0     C39003   4.219   9.053   5.978 -0.1152  0.0241 -0.1354
 1008MOL0     C39004   4.357   9.038   6.047  0.5966  0.2165  0.2167
 1008MOL0     C39005   4.391   8.889   6.053  0.2584 -0.4177 -0.2316
 1008MOL0     C39006   4.541   8.874   6.080 -0.4712 -0.3229  0.2477
 1008MOL0     C39007   4.605   8.754   6.003 -0.2482  0.1546 -0.1478
 1008MOL0     C39008   4.744   8.733   6.057  0.2383 -0.0141 -0.5000
 1008MOL0     C39009   4.803   8.601   6.011 -0.0291  0.4266  0.5465
 1008MOL0     C39010   4.933   8.579   6.081  0.7085  0.5412  0.2780
 1008MOL0    Cl39011   5.039   8.718   6.054 -0.1358 -0.0227  0.4300
 1008MOL0     C39012   3.946   9.016   5.879 -0.2000 -0.5356  0.4186
 1008MOL0     C39013   3.811   9.012   5.849  0.2407 -0.0274 -0.0703
 1008MOL0     O39014   3.602   8.857   5.717 -0.2071 -0.1650  0.5872
 1008MOL0     C39015   3.310   8.972   5.917 -0.3574 -0.5726  0.2492
 1008MOL0     C39016   3.168   8.968   5.914  0.6851  0.2921 -0.0302
 1008MOL0     N39017   2.524   8.622   5.875 -0.2506  0.2803 -0.4488
 1008MOL0     N39018   2.430   8.664   5.951  0.3403  0.3924 -0.0461
 1008MOL0     C39019   1.929   8.728   4.849 -0.1877 -0.0177  0.4451
 1008MOL0     C39020   1.873   8.625   4.775  0.2177  0.7882 -0.1774
 1008MOL0     C39021   1.727   8.220   4.675  0.0620 -0.2668 -0.4749
 1008MOL0     C39022   1.766   8.088   4.707 -0.8077 -0.8734 -0.0803
 1008MOL0     C39023   1.715   7.981   4.628 -0.5752 -1.0710  0.8467
 1008MOL0     C39024   1.630   8.005   4.520  0.0927 -0.2741  0.2715
 1008MOL0     O39025   1.589   7.894   4.443  0.4101 -0.6069 -0.0615
 1008MOL0     C39026   1.522   7.916   4.318 -0.1272 -0.3418 -1.0509
 1008MOL0     C39027   1.619   7.954   4.209  0.1639  0.8022  0.3752
 1008MOL0     C39028   1.678   7.822   4.164 -0.5611  0.0158  0.0731
 1008MOL0     C39029   1.726   7.825   4.018  0.6839 -0.4054 -1.1625
 1008MOL0     C39030   1.809   7.708   3.984 -0.1101 -0.1561  0.0495
 1008MOL0     C39031   1.863   7.605   3.954  0.5040 -0.0542 -0.3178
 1008MOL0     C39032   1.601   8.136   4.490 -0.1891  0.0849 -0.5135
 1008MOL0     C39033   1.640   8.251   4.567  0.4947  0.7617 -0.0824
 1008MOL0     C39034   1.584   8.387   4.520  0.3910 -0.1876 -0.9000
 1008MOL0     H39035   1.663   8.484   5.008  0.1176 -0.6718  1.9552
 1008MOL0     H39036   1.736   8.694   5.127  1.7242  5.1334 -0.0453
 1008MOL0     H39037   2.079   8.790   5.165 -0.8888 -1.9079  3.1983
 1008MOL0     H39038   1.927   8.773   5.243 -0.3325  2.5064  3.1404
 1008MOL0     H39039   2.101   9.027   5.210  2.7947 -4.0789  3.3173
 1008MOL0     H39040   1.921   9.031   5.191  2.3594 -0.3051 -4.8261
 1008MOL0     H39041   1.978   9.067   5.437 -2.4224  0.2497  0.9791
 1008MOL0     H39042   1.889   8.924   5.408  0.4139 -1.2346  2.2927
 1008MOL0     H39043   2.109   8.798   5.443  1.4444 -0.3477  0.5439
 1008MOL0     H39044   2.188   8.944   5.418  0.4215  0.7568  2.4324
 1008MOL0     H39045   1.993   8.911   5.646  0.1425  0.0540  0.8501
 1008MOL0     H39046   2.113   9.051   5.630  0.1033 -0.7031  0.2379
 1008MOL0     H39047   2.150   8.763   5.722  3.7606 -1.4097  2.6016
 1008MOL0     H39048   2.287   8.862   5.666 -1.0235  2.0848 -0.8670
 1008MOL0     H39049   2.098   8.956   5.886 -0.2044  1.8120 -0.0637
 1008MOL0     H39050   2.259   9.020   5.831  0.6083 -0.2836  0.8606
 1008MOL0     H39051   2.294   8.906   6.039 -0.5396  0.1111 -0.2210
 1008MOL0     H39052   2.202   8.769   5.993  0.9792 -3.1126 -1.5805
 1008MOL0     H39053   2.500   8.936   5.778 -0.2055 -3.1135 -5.3323
 1008MOL0     H39054   2.715   8.845   5.699 -2.2444  0.3369  1.1711
 1008MOL0     H39055   2.661   8.690   5.616  1.6146 -2.8406  0.9662
 1008MOL0     H39056   2.785   8.562   5.789  0.3519  0.3726  0.2622
 1008MOL0     H39057   2.899   8.681   5.727  0.5400 -0.6850  0.6838
 1008MOL0     H39058   2.765   8.703   5.982 -2.2461  0.8304 -1.2225
 1008MOL0     H39059   2.934   8.678   5.956 -0.7371 -1.3880 -1.8203
 1008MOL0     H39060   2.781   8.927   5.911  0.3114 -1.8306 -3.1477
 1008MOL0     H39061   2.915   8.905   6.018 -1.4256  0.0424  0.4628
 1008MOL0     H39062   3.105   8.803   5.632 -0.4257 -3.3920  0.4490
 1008MOL0     H39063   3.434   8.854   5.526  0.4078 -1.4287 -1.7483
 1008MOL0     H39064   3.284   8.783   5.497 -0.5672  1.9006  0.0370
 1008MOL0     H39065   3.405   8.696   5.597  0.2332 -0.6432 -3.0580
 1008MOL0     H39066   3.690   8.923   6.149 -0.6268  1.1195 -0.1858
 1008MOL0     H39067   3.925   8.912   6.208  2.0696 -2.2728 -2.0059
 1008MOL0     H39068   4.226   9.039   5.870  5.6077  1.9862 -0.3685
 1008MOL0     H39069   4.181   9.154   5.996  0.5901 -0.0438  2.0581
 1008MOL0     H39070   4.437   9.094   5.998  0.2654  0.6240  0.1390
 1008MOL0     H39071   4.354   9.071   6.151 -0.4345  1.4277 -0.1856
 1008MOL0     H39072   4.375   8.841   5.956  0.8742  0.4882 -0.7965
 1008MOL0     H39073   4.333   8.840   6.132  1.1485 -1.1883 -0.0361
 1008MOL0     H39074   4.561   8.864   6.187  2.0274  2.3674  0.1585
 1008MOL0     H39075   4.592   8.970   6.068 -0.5942  0.0841  2.6023
 1008MOL0     H39076   4.553   8.660   6.027  1.4563 -0.7461  0.2157
 1008MOL0     H39077   4.615   8.767   5.895  1.1765  0.8004  0.0349
 1008MOL0     H39078   4.739   8.734   6.166 -0.1606  2.2832 -0.4787
 1008MOL0     H39079   4.802   8.818   6.018  0.3042  0.0102 -0.3484
 1008MOL0     H39080   4.794   8.598   5.902 -3.5490  1.9298  0.6672
 1008MOL0     H39081   4.733   8.521   6.036 -1.2848  1.4323  0.3447
 1008MOL0     H39082   4.978   8.485   6.049 -1.7780 -0.4651 -0.5202
 1008MOL0     H39083   4.915   8.572   6.189 -3.6200  0.2962 -0.2699
 1008MOL0     H39084   4.015   9.044   5.801 -0.1793  1.0157  0.9628
 1008MOL0     H39085   3.771   9.054   5.757  0.3133  1.4098  0.5421
 1008MOL0     H39086   3.360   9.020   6.000  3.0834 -3.8026  0.2840
 1008MOL0     H39087   3.111   9.013   5.994 -0.1584 -4.8610  2.6840
 1008MOL0     H39088   2.004   8.788   4.799  0.4243 -0.1237  1.2064
 1008MOL0     H39089   1.897   8.599   4.672 -2.5186  0.9470 -0.9270
 1008MOL0     H39090   1.828   8.068   4.794 -0.2882  1.3972  0.1345
 1008MOL0     H39091   1.741   7.878   4.652  3.0342 -0.5487 -0.2352
 1008MOL0     H39092   1.449   7.838   4.297 -1.7655  0.8309  0.0321
 1008MOL0     H39093   1.448   7.996   4.330 -2.7110 -2.8546  1.2314
 1008MOL0     H39094   1.708   8.006   4.246  1.9144 -2.0767  0.4962
 1008MOL0     H39095   1.581   8.012   4.124  0.4885  0.8996  0.2936
 1008MOL0     H39096   1.768   7.804   4.224 -0.9533  0.0261  0.6754
 1008MOL0     H39097   1.615   7.734   4.178 -0.3473  0.0398  1.3121
 1008MOL0     H39098   1.791   7.912   4.004  2.0600 -1.1644  0.1577
 1008MOL0     H39099   1.637   7.824   3.954 -0.5295  0.0894  0.4642
 1008MOL0     H39100   1.902   7.508   3.930 -1.0704 -0.9988  0.7155
 1008MOL0     H39101   1.549   8.158   4.397  2.5953  2.1826 -1.7432
 1008MOL0     H39102   1.491   8.417   4.569 -0.4478 -0.4897 -2.2661
 1008MOL0     H39103   1.657   8.467   4.534 -0.2594  0.4156 -0.9388
 1008MOL0     H39104   1.550   8.384   4.416 -1.8648  1.2601 -0.2640
 1009MOL0     O39105   1.726   5.606   1.755  0.2304 -0.0193  0.2330
 1009MOL0     C39106   1.765   5.489   1.764  0.9883  0.1389  0.3425
 1009MOL0     O39107   1.895   5.443   1.792  0.0148 -0.9232 -0.0833
 1009MOL0     C39108   1.986   5.529   1.848 -0.3162 -0.8029  0.0142
 1009MOL0     C39109   2.121   5.509   1.813 -0.0945 -0.3119  0.5857
 1009MOL0     C39110   2.221   5.573   1.887 -0.2055 -0.0216  0.8888
 1009MOL0     C39111   2.198   5.672   1.979 -0.3503 -0.0915 -0.1160
 1009MOL0     O39112   2.293   5.751   2.034 -0.0156  0.1406  0.4287
 1009MOL0     C39113   2.404   5.797   1.950  0.1682 -0.0172  0.8940
 1009MOL0     C39114   2.523   5.822   2.035 -0.1726  0.6586 -0.2762
 1009MOL0     C39115   2.640   5.903   1.980 -0.5122 -0.4942 -0.4758
 1009MOL0     C39116   2.738   5.941   2.099 -0.7689  0.4781 -0.3022
 1009MOL0     C39117   2.852   6.020   2.035 -0.3576 -0.1294  0.5154
 1009MOL0     C39118   2.965   6.024   2.135  0.3997  0.2002  0.6301
 1009MOL0     C39119   3.095   6.105   2.095  0.4249  0.4533  0.5384
 1009MOL0     C39120   3.094   6.242   2.155  0.1476 -0.0433 -0.5468
 1009MOL0     N39121   3.219   6.306   2.120  0.2273 -0.6076 -0.1885
 1009MOL0     C39122   3.282   6.406   2.190 -0.3816  0.2466  0.0469
 1009MOL0     C39123   3.380   6.458   2.122 -1.1115  0.6703 -0.8257
 1009MOL0     C39124   3.480   6.561   2.162  0.2711  0.0689 -0.2153
 1009MOL0     C39125   3.620   6.536   2.099 -1.1497  0.0128 -0.2573
 1009MOL0     C39126   3.702   6.670   2.103  0.8349 -0.2279  0.6439
 1009MOL0     C39127   3.850   6.646   2.083 -0.3628  0.2536 -0.2470
 1009MOL0     O39128   3.904   6.547   2.169  0.0718 -0.0511 -0.0128
 1009MOL0     C39129   4.042   6.555   2.192  0.4097  0.1109  0.3404
 1009MOL0     C39130   4.087   6.546   2.317 -0.2147 -0.9256 -0.0060
 1009MOL0     C39131   4.226   6.568   2.352  0.8321 -0.1942  0.1404
 1009MOL0     C39132   4.262   6.543   2.490 -0.3768 -0.8056 -0.8781
 1009MOL0     C39133   4.317   6.594   2.248 -0.8039 -0.7133 -0.1638
 1009MOL0     C39134   4.467   6.604   2.263 -0.7297 -0.8144 -0.1716
 1009MOL0     O39135   4.514   6.633   2.386 -0.7033 -0.3599  0.2346
 1009MOL0     C39136   4.651   6.646   2.412  0.0905 -0.2036 -0.4950
 1009MOL0     C39137   4.692   6.729   2.515 -0.1911  0.3871  0.0127
 1009MOL0     C39138   4.826   6.731   2.560  0.7573 -0.1649  0.8997
 1009MOL0     C39139   4.921   6.658   2.493 -0.9196 -0.3692 -0.5964
 1009MOL0     O39140   5.054   6.670   2.516  0.2608  0.2710 -0.0891
 1009MOL0     C39141   5.109   6.772   2.605 -0.2394  0.5348 -0.3359
 1009MOL0     C39142   5.256   6.798   2.591 -1.0967  0.0774 -0.4796
 1009MOL0     C39143   5.336   6.694   2.520 -0.5052  0.1848 -0.2939
 1009MOL0     C39144   5.485   6.716   2.495  0.4984 -0.2904 -1.0024
 1009MOL0     C39145   5.549   6.590   2.445  0.4262  0.3402 -0.9693
 1009MOL0     C39146   5.705   6.597   2.456  0.3102  0.2151  0.0431
 1009MOL0     C39147   5.757   6.704   2.363 -0.4336 -0.0708 -0.2545
 1009MOL0     C39148   5.885   6.650   2.295  0.5223  0.3624  0.4609
 1009MOL0    Cl39149   5.995   6.589   2.414 -0.1270  0.2225 -0.4910
 1009MOL0     C39150   4.881   6.552   2.409  0.4647  0.4415 -0.5014
 1009MOL0     C39151   4.744   6.547   2.373 -0.6422 -0.3202  0.0518
 1009MOL0     O39152   4.536   6.584   2.165 -0.7737 -0.2489 -0.3978
 1009MOL0     C39153   4.269   6.598   2.122  0.7003  0.3118  0.1045
 1009MOL0     C39154   4.132   6.587   2.089  0.3310  0.4555 -0.4442
 1009MOL0     N39155   3.388   6.384   2.008  0.4021  0.2671 -0.1332
 1009MOL0     N39156   3.291   6.299   2.006  1.2137  0.6714 -0.6426
 1009MOL0     C39157   2.063   5.698   2.002 -0.3434  0.0761  0.0551
 1009MOL0     C39158   1.960   5.621   1.949  0.0613  0.6625  0.4841
 1009MOL0     C39159   1.650   5.388   1.746  0.1012  0.2561  0.2555
 1009MOL0     C39160   1.525   5.434   1.721 -0.2892  0.3810  0.7319
 1009MOL0     C39161   1.414   5.349   1.703  0.4939 -0.4820  0.4322
 1009MOL0     C39162   1.425   5.213   1.718  0.6452  0.0423  0.0177
 1009MOL0     O39163   1.317   5.133   1.714 -0.9146  0.2711 -0.0743
 1009MOL0     C39164   1.333   4.989   1.708 -0.5809  0.1650 -0.3366
 1009MOL0     C39165   1.344   4.930   1.853 -0.3602 -0.0881  0.5238
 1009MOL0     C39166   1.362   4.775   1.872  0.4656 -0.3612 -0.3900
 1009MOL0     C39167   1.471   4.717   1.783 -0.1898  0.3806  0.0006
 1009MOL0     C39168   1.453   4.572   1.776  0.1098 -0.2213 -0.3634
 1009MOL0     C39169   1.445   4.454   1.780  0.3305  0.6104  0.0927
 1009MOL0     C39170   1.554   5.169   1.738  0.2487  0.0951 -0.3791
 1009MOL0     C39171   1.668   5.247   1.753  0.1407 -0.1966  0.0684
 1009MOL0     C39172   1.797   5.181   1.762 -0.2810  0.2629  0.0302
 1009MOL0     H39173   2.148   5.428   1.746  0.2133  1.2506 -1.2762
 1009MOL0     H39174   2.325   5.542   1.883  0.0849  0.9911 -0.2462
 1009MOL0     H39175   2.368   5.889   1.904  1.3266  0.5434  1.0810
 1009MOL0     H39176   2.436   5.734   1.867 -1.5281  0.4297 -0.1538
 1009MOL0     H39177   2.488   5.873   2.125  5.9614  1.4203  2.1230
 1009MOL0     H39178   2.553   5.723   2.072  0.4323 -0.4123 -3.3058
 1009MOL0     H39179   2.687   5.830   1.914 -0.4323 -2.1084  1.3020
 1009MOL0     H39180   2.602   5.991   1.926  1.5571  2.3062  2.2454
 1009MOL0     H39181   2.685   6.008   2.167 -3.6576  0.0683 -1.9648
 1009MOL0     H39182   2.768   5.852   2.154 -3.1554  0.7675  1.6692
 1009MOL0     H39183   2.827   6.122   2.002  0.3646 -0.5163 -1.3584
 1009MOL0     H39184   2.882   5.961   1.947 -0.9090 -2.6002  1.8971
 1009MOL0     H39185   2.922   6.063   2.227 -2.0021  1.2670 -0.8371
 1009MOL0     H39186   2.997   5.921   2.154  0.3992  0.0320 -0.2234
 1009MOL0     H39187   3.107   6.106   1.987 -1.5050 -2.2449  0.2197
 1009MOL0     H39188   3.185   6.049   2.122  0.6946  0.7480  0.2683
 1009MOL0     H39189   3.011   6.307   2.126 -0.3957 -1.0340 -1.2943
 1009MOL0     H39190   3.089   6.237   2.265  1.7271  0.8622 -0.4168
 1009MOL0     H39191   3.263   6.435   2.293  1.8750 -0.5789  0.7576
 1009MOL0     H39192   3.483   6.588   2.268  0.9271  0.7175 -0.3889
 1009MOL0     H39193   3.430   6.650   2.124 -2.1385  0.2939  3.0639
 1009MOL0     H39194   3.673   6.463   2.161 -1.0101  2.0709  2.2301
 1009MOL0     H39195   3.608   6.496   1.998 -0.3088 -1.7842  0.3126
 1009MOL0     H39196   3.660   6.734   2.025  0.8400  0.8427  1.4868
 1009MOL0     H39197   3.687   6.710   2.204  0.9892  0.5305  0.3721
 1009MOL0     H39198   3.864   6.593   1.988 -1.2454 -1.2240  0.4103
 1009MOL0     H39199   3.904   6.741   2.079  0.2619  0.1077  2.4844
 1009MOL0     H39200   4.016   6.521   2.395 -0.7144 -2.0121 -0.7886
 1009MOL0     H39201   4.175   6.522   2.553  0.3630 -0.4197  0.3082
 1009MOL0     H39202   4.331   6.612   2.538 -1.2239  0.8084 -1.8947
 1009MOL0     H39203   4.313   6.447   2.481  1.3838 -0.0513  0.5765
 1009MOL0     H39204   4.620   6.792   2.565 -2.6198 -2.1765 -0.0546
 1009MOL0     H39205   4.843   6.813   2.631 -0.4098  2.6793 -1.8755
 1009MOL0     H39206   5.055   6.866   2.590 -0.6743  0.4327  0.5608
 1009MOL0     H39207   5.096   6.737   2.708 -0.1584 -0.4857 -0.6615
 1009MOL0     H39208   5.271   6.894   2.541  0.2351  0.8131  1.2367
 1009MOL0     H39209   5.308   6.812   2.686 -0.5083  1.1042 -0.9382
 1009MOL0     H39210   5.287   6.654   2.430  2.2873 -1.3052 -1.2599
 1009MOL0     H39211   5.335   6.604   2.581  1.5835  0.3072 -0.0047
 1009MOL0     H39212   5.523   6.727   2.597  1.0088 -1.0634 -1.0987
 1009MOL0     H39213   5.503   6.806   2.436  2.5851  1.0333  1.4190
 1009MOL0     H39214   5.513   6.503   2.501 -0.1228  0.8369 -0.5391
 1009MOL0     H39215   5.520   6.580   2.340  0.9710  0.6029 -1.1520
 1009MOL0     H39216   5.750   6.498   2.451  2.0711  0.8636  1.7385
 1009MOL0     H39217   5.739   6.635   2.553  2.9055 -2.6251  0.3933
 1009MOL0     H39218   5.787   6.797   2.414  3.7198  0.2159 -2.7548
 1009MOL0     H39219   5.681   6.731   2.290 -0.4944  1.1180  0.2134
 1009MOL0     H39220   5.935   6.731   2.240 -0.6992  0.9173  0.1289
 1009MOL0     H39221   5.845   6.571   2.231  1.1507  0.3152  0.1178
 1009MOL0     H39222   4.949   6.485   2.358 -0.8761  0.3367 -2.2309
 1009MOL0     H39223   4.707   6.472   2.304  0.1947 -0.3891 -0.3405
 1009MOL0     H39224   4.328   6.632   2.038 -0.8107 -1.9071 -1.9742
 1009MOL0     H39225   4.097   6.597   1.987  1.6171 -0.4831 -1.0164
 1009MOL0     H39226   2.041   5.779   2.071  1.3546 -0.6133  1.4649
 1009MOL0     H39227   1.860   5.644   1.984  0.2153  2.9740 -0.4195
 1009MOL0     H39228   1.491   5.534   1.695  0.6547  0.0890 -1.9379
 1009MOL0     H39229   1.316   5.393   1.683  0.7749  0.4267  1.0035
 1009MOL0     H39230   1.251   4.939   1.657 -0.4250  1.1663 -1.6077
 1009MOL0     H39231   1.424   4.968   1.650 -0.8172 -3.5895  0.4576
 1009MOL0     H39232   1.258   4.964   1.910 -0.1081 -0.5927  1.2053
 1009MOL0     H39233   1.424   4.975   1.912 -0.0583 -0.2764  0.2664
 1009MOL0     H39234   1.390   4.756   1.976  1.1710  1.3410 -0.2259
 1009MOL0     H39235   1.267   4.726   1.852  0.3204 -1.3582  2.2889
 1009MOL0     H39236   1.573   4.732   1.821  0.6188 -2.4200 -0.8255
 1009MOL0     H39237   1.471   4.764   1.684 -0.6032  1.5796  0.5508
 1009MOL0     H39238   1.431   4.348   1.775  0.0071  0.6899 -1.0789
 1009MOL0     H39239   1.583   5.065   1.750  0.0178  0.1487  0.7882
 1009MOL0     H39240   1.865   5.223   1.688  1.3129 -0.3764  1.0624
 1009MOL0     H39241   1.840   5.193   1.862  1.7325  0.6230 -0.8290
 1009MOL0     H39242   1.798   5.073   1.740  0.5516  0.8524 -3.3493
 1010MOL0     O39243   0.968  10.066  10.141  0.7554  0.0648  0.0431
 1010MOL0     C39244   0.904  10.069  10.035 -0.3471 -1.0019  0.3376
 1010MOL0     O39245   0.946  10.090   9.911 -0.2796  0.8507 -0.2111
 1010MOL0     C39246   1.083  10.115   9.890  0.3841  1.1208  0.7663
 1010MOL0     C39247   1.201  10.063   9.948  1.0642 -0.6904 -0.2611
 1010MOL0     C39248   1.328  10.091   9.896  0.4892 -0.0345  0.1396
 1010MOL0     C39249   1.343  10.179   9.782 -0.8353  0.3538  0.0068
 1010MOL0     O39250   1.472  10.216   9.734  0.3081 -1.0500 -0.0578
 1010MOL0     C39251   1.501  10.332   9.661 -0.1615 -0.2204  0.1397
 1010MOL0     C39252   1.610  10.420   9.726 -0.2722 -1.3132  0.0527
 1010MOL0     C39253   1.747  10.367   9.727  0.4625  0.5450 -0.1233
 1010MOL0     C39254   1.865  10.453   9.786 -0.2064  0.7468  0.4756
 1010MOL0     C39255   2.006  10.389   9.761  0.5914  0.1756  0.4861
 1010MOL0     C39256   2.122  10.466   9.833 -0.5115 -0.0939  0.2264
 1010MOL0     C39257   2.250  10.381   9.844  0.3007 -0.5849  0.1363
 1010MOL0     C39258   2.339  10.389   9.719 -0.0252  0.0856 -0.0905
 1010MOL0     N39259   2.481  10.385   9.763  0.1730  0.1543 -0.2949
 1010MOL0     C39260   2.564  10.483   9.804 -0.8049  0.0213 -0.0502
 1010MOL0     C39261   2.685  10.423   9.796  0.3182 -0.7191 -0.0609
 1010MOL0     C39262   2.822  10.489   9.812 -0.1220  0.4625  0.8058
 1010MOL0     C39263   2.843  10.605   9.710 -0.2347 -0.0346 -0.0306
 1010MOL0     C39264   2.799  10.581   9.567 -0.5544 -0.3034  0.3473
 1010MOL0     C39265   2.857  10.463   9.497  0.6618 -0.1061  0.5564
 1010MOL0     O39266   2.995  10.449   9.531  0.2267  0.3714  0.3615
 1010MOL0     C39267   3.097  10.534   9.480  0.1281  0.5919 -0.0930
 1010MOL0     C39268   3.219  10.529   9.557 -0.5894 -0.4038 -0.3714
 1010MOL0     C39269   3.336  10.605   9.530 -0.2459 -0.2964  0.3207
 1010MOL0     C39270   3.466  10.558   9.595  0.2267 -0.0226 -0.1420
 1010MOL0     C39271   3.320  10.703   9.428 -0.5509 -0.7103  0.7267
 1010MOL0     C39272   3.431  10.796   9.390 -0.1321  0.2382  0.3555
 1010MOL0     O39273   3.389  10.903   9.325 -0.0448 -0.1834  0.4378
 1010MOL0     C39274   3.478  11.001   9.283 -0.5098  0.0696 -0.5740
 1010MOL0     C39275   3.492  11.113   9.364  1.0733 -0.1747  0.0929
 1010MOL0     C39276   3.585  11.204   9.332 -0.3042 -0.4099  0.2571
 1010MOL0     C39277   3.671  11.192   9.223 -0.4334  0.5261 -0.4991
 1010MOL0     O39278   3.767  11.283   9.195  0.3286 -0.2538  0.3912
 1010MOL0     C39279   3.897  11.227   9.168  1.0180 -0.1677 -0.3855
 1010MOL0     C39280   3.993  11.292   9.269  0.0205 -0.4481 -0.4406
 1010MOL0     C39281   4.014  11.437   9.217  0.3969  0.0189 -0.3177
 1010MOL0     C39282   4.097  11.522   9.312 -1.0089 -0.4804  0.1883
 1010MOL0     C39283   4.124  11.664   9.250 -0.2862  0.1454 -0.1543
 1010MOL0     C39284   4.003  11.760   9.231 -0.1642 -0.1183 -0.5655
 1010MOL0     C39285   4.045  11.903   9.191  0.2889  0.2063  0.4121
 1010MOL0     C39286   4.076  11.921   9.047 -0.5240 -0.5108  0.4480
 1010MOL0    Cl39287   3.924  11.895   8.960 -0.2986 -0.1723  0.2703
 1010MOL0     C39288   3.657  11.078   9.138 -0.1617  0.4765 -0.0207
 1010MOL0     C39289   3.557  10.983   9.171 -0.0989 -0.6386 -0.3790
 1010MOL0     O39290   3.549  10.761   9.404 -0.3965 -0.1528  0.2970
 1010MOL0     C39291   3.191  10.721   9.368  0.0767 -0.4310  0.4158
 1010MOL0     C39292   3.094  10.628   9.382  1.0418 -0.3001 -0.0812
 1010MOL0     N39293   2.670  10.296   9.749 -0.0350  1.0323  0.1954
 1010MOL0     N39294   2.548  10.272   9.737 -0.5466  0.0602  0.4310
 1010MOL0     C39295   1.220  10.224   9.719  0.1544 -0.2502 -0.4905
 1010MOL0     C39296   1.094  10.195   9.773 -0.1628  0.4820  0.3531
 1010MOL0     C39297   0.761  10.033  10.038 -0.1259  0.0355  0.1778
 1010MOL0     C39298   0.711   9.961  10.152  0.4970  0.0151 -0.0990
 1010MOL0     C39299   0.577   9.935  10.164 -0.3625 -0.3158 -0.7710
 1010MOL0     C39300   0.492   9.954  10.059 -0.0879 -0.3351 -0.2853
 1010MOL0     O39301   0.358   9.933  10.052  0.2959 -0.2226  0.5478
 1010MOL0     C39302   0.320   9.845  10.157  0.4316 -0.4454  0.6269
 1010MOL0     C39303   0.165   9.813  10.134 -0.1901 -0.0186 -0.7957
 1010MOL0     C39304   0.076   9.936  10.102 -0.3633 -0.0514  0.3399
 1010MOL0     C39305  -0.065   9.892  10.064 -1.1306 -0.3762  0.6764
 1010MOL0     C39306  -0.065   9.870   9.916  0.2775  0.1182 -0.5074
 1010MOL0     C39307  -0.085   9.834   9.802  0.5280 -1.3051  0.1231
 1010MOL0     C39308   0.539  10.026   9.948 -0.0060  0.2040 -0.5030
 1010MOL0     C39309   0.672  10.062   9.929  0.6187 -0.0484 -0.3543
 1010MOL0     C39310   0.695  10.148   9.808  0.3571  0.1452 -0.4660
 1010MOL0     H39311   1.190  10.006  10.039 -0.0864  0.2633  0.2267
 1010MOL0     H39312   1.422  10.053   9.936 -1.1145 -2.7599  1.6673
 1010MOL0     H39313   1.414  10.399   9.658 -0.0980  0.1725  3.4812
 1010MOL0     H39314   1.537  10.294   9.565 -0.1748 -0.6337  0.2973
 1010MOL0     H39315   1.619  10.519   9.680 -0.4868 -1.7066 -0.8577
 1010MOL0     H39316   1.579  10.445   9.828  0.6344  1.7557 -0.3303
 1010MOL0     H39317   1.741  10.278   9.790 -2.6232  0.0089 -1.0241
 1010MOL0     H39318   1.780  10.343   9.625  2.6652 -3.9572  1.3774
 1010MOL0     H39319   1.868  10.556   9.748  0.5373  1.6438  2.7850
 1010MOL0     H39320   1.844  10.455   9.893  0.4976  2.4163  0.6104
 1010MOL0     H39321   2.031  10.386   9.655  0.9703  0.7746  0.5490
 1010MOL0     H39322   1.997  10.292   9.810 -0.7063 -1.3662 -2.5402
 1010MOL0     H39323   2.142  10.563   9.787 -0.6175  0.7722  1.9425
 1010MOL0     H39324   2.098  10.497   9.935  0.5696  3.3679 -0.4459
 1010MOL0     H39325   2.214  10.278   9.859 -1.2666 -0.1994 -0.6888
 1010MOL0     H39326   2.298  10.404   9.939  1.5169 -3.2848  0.2639
 1010MOL0     H39327   2.320  10.306   9.650 -1.4631 -1.8868  2.5109
 1010MOL0     H39328   2.325  10.481   9.662 -0.0093  0.4733  0.5265
 1010MOL0     H39329   2.532  10.584   9.826 -2.0517  0.1982 -2.4273
 1010MOL0     H39330   2.891  10.406   9.796  1.0594  1.3315  1.2631
 1010MOL0     H39331   2.834  10.541   9.908 -1.8885  2.3152  0.0978
 1010MOL0     H39332   2.780  10.688   9.744 -3.3610 -0.5186 -3.9759
 1010MOL0     H39333   2.948  10.636   9.708  0.3763 -1.6520  2.3130
 1010MOL0     H39334   2.691  10.571   9.555 -1.0311  1.9749  2.0179
 1010MOL0     H39335   2.821  10.672   9.510  0.3401  0.6080  2.0507
 1010MOL0     H39336   2.815  10.373   9.543  0.8927 -0.8855 -0.6982
 1010MOL0     H39337   2.844  10.475   9.389  0.8347 -1.4852  0.3648
 1010MOL0     H39338   3.224  10.450   9.631  0.0947  1.1905  1.3603
 1010MOL0     H39339   3.532  10.512   9.521 -1.6797 -1.4344 -1.0291
 1010MOL0     H39340   3.458  10.483   9.674 -1.4303 -1.6395 -1.7429
 1010MOL0     H39341   3.508  10.643   9.651  0.3006 -0.6467  0.7729
 1010MOL0     H39342   3.416  11.133   9.438  0.0786 -0.7499 -0.7444
 1010MOL0     H39343   3.590  11.298   9.387 -0.1162  0.9957 -2.0350
 1010MOL0     H39344   3.901  11.119   9.184 -1.1948  0.1322  3.1902
 1010MOL0     H39345   3.929  11.228   9.063 -1.7504  1.3902 -1.3234
 1010MOL0     H39346   3.946  11.294   9.368  1.5760 -2.6296  0.4149
 1010MOL0     H39347   4.086  11.236   9.277  1.3343  1.3793 -2.0401
 1010MOL0     H39348   3.918  11.483   9.192  0.3787  1.0796  1.5195
 1010MOL0     H39349   4.069  11.435   9.122  0.3299  2.2701 -0.4445
 1010MOL0     H39350   4.194  11.476   9.332  1.6347  3.6910 -1.5917
 1010MOL0     H39351   4.046  11.535   9.408 -0.9734 -0.0869  0.1559
 1010MOL0     H39352   4.191  11.718   9.318 -0.8288 -0.4870  0.9203
 1010MOL0     H39353   4.183  11.659   9.158  1.8156  1.1284  1.0662
 1010MOL0     H39354   3.946  11.769   9.324 -0.2212  1.7539 -0.7399
 1010MOL0     H39355   3.937  11.718   9.154 -1.7606 -1.3014  1.3507
 1010MOL0     H39356   4.134  11.928   9.250 -0.2548 -0.0801  1.3796
 1010MOL0     H39357   3.970  11.978   9.220  0.8938  1.6692 -1.6258
 1010MOL0     H39358   4.158  11.857   9.012  0.3190  1.0839 -0.6035
 1010MOL0     H39359   4.106  12.024   9.027  0.8331 -1.3033 -2.1168
 1010MOL0     H39360   3.711  11.058   9.046 -2.5533 -1.8425 -1.0476
 1010MOL0     H39361   3.548  10.904   9.097  3.1116 -1.4594 -0.0428
 1010MOL0     H39362   3.168  10.804   9.302  0.4940 -2.3317 -2.2772
 1010MOL0     H39363   3.008  10.639   9.316  1.6993 -1.0404 -1.0975
 1010MOL0     H39364   1.249  10.278   9.630  0.8645  1.3735  0.6729
 1010MOL0     H39365   1.002  10.234   9.730  0.9624 -0.0656 -2.7810
 1010MOL0     H39366   0.776   9.928  10.233  1.4886  0.8569 -0.5291
 1010MOL0     H39367   0.556   9.896  10.264  0.9412 -0.9824 -0.7427
 1010MOL0     H39368   0.370   9.748  10.147  2.0574  0.5456 -1.9587
 1010MOL0     H39369   0.332   9.886  10.258 -0.7967  0.9495  0.2539
 1010MOL0     H39370   0.120   9.771  10.224  1.3328  1.7587  0.8632
 1010MOL0     H39371   0.161   9.731  10.062  2.8277 -2.3568  1.4162
 1010MOL0     H39372   0.069   9.997  10.192  3.6467 -2.2623  2.4189
 1010MOL0     H39373   0.124   9.989  10.019 -1.5118 -1.7673 -1.5089
 1010MOL0     H39374  -0.142   9.968  10.081  0.7394  2.3573 -2.1402
 1010MOL0     H39375  -0.089   9.800  10.120 -0.9205 -2.5990 -2.6086
 1010MOL0     H39376  -0.094   9.803   9.700 -2.1501 -0.5181  0.0401
 1010MOL0     H39377   0.466  10.044   9.869 -2.0264 -1.1964  0.9261
 1010MOL0     H39378   0.749  10.239   9.835 -1.0625  0.5418  1.2386
 1010MOL0     H39379   0.744  10.089   9.730 -0.6117  1.5450 -2.1886
 1010MOL0     H39380   0.598  10.168   9.763  0.6882  1.3020 -0.6807
 1011MOL0     O39381   3.952   4.239   5.227  0.3931  0.0828  0.1030
 1011MOL0     C39382   3.946   4.287   5.338 -2.9105 -0.1715 -0.6256
 1011MOL0     O39383   4.054   4.339   5.412  0.1057  0.3150  0.3013
 1011MOL0     C39384   4.182   4.305   5.394 -0.2850  0.2308  0.5197
 1011MOL0     C39385   4.261   4.420   5.386 -0.4883  0.8927 -1.1716
 1011MOL0     C39386   4.395   4.411   5.369 -0.6110 -0.9224  0.4214
 1011MOL0     C39387   4.454   4.278   5.344  0.6069 -0.3169  0.1376
 1011MOL0     O39388   4.586   4.254   5.327  0.5729 -0.1772  0.5149
 1011MOL0     C39389   4.639   4.327   5.218 -0.1609 -0.5281  0.0705
 1011MOL0     C39390   4.759   4.270   5.149  0.0413  0.0114 -0.2702
 1011MOL0     C39391   4.732   4.126   5.102 -0.2060  0.1182  0.2707
 1011MOL0     C39392   4.859   4.046   5.062 -0.2758  1.0350  0.0137
 1011MOL0     C39393   4.838   3.906   5.003 -0.7873  0.0198  0.0956
 1011MOL0     C39394   4.785   3.817   5.111 -0.3409 -0.3426 -0.3226
 1011MOL0     C39395   4.756   3.679   5.065  0.6988 -0.3553  0.0135
 1011MOL0     C39396   4.700   3.607   5.190  0.0795 -0.1486 -0.2032
 1011MOL0     N39397   4.687   3.461   5.156 -0.5247  0.1139 -0.4621
 1011MOL0     C39398   4.583   3.396   5.086  0.3350  0.8380  0.3388
 1011MOL0     C39399   4.634   3.269   5.052  1.0435  0.2093 -0.3174
 1011MOL0     C39400   4.556   3.162   4.977  0.2356 -0.3838 -0.1255
 1011MOL0     C39401   4.449   3.100   5.069 -0.5270  0.6535  0.0881
 1011MOL0     C39402   4.373   2.988   5.007  0.4106 -0.1277 -1.0441
 1011MOL0     C39403   4.314   2.888   5.106 -0.4555  0.1874  0.0699
 1011MOL0     O39404   4.200   2.954   5.167 -0.0349 -0.1197 -0.6075
 1011MOL0     C39405   4.109   2.882   5.248  0.0291  1.4940  0.6170
 1011MOL0     C39406   4.004   2.950   5.312 -0.5002 -0.3007 -0.3309
 1011MOL0     C39407   3.904   2.885   5.379 -0.7452 -0.0718 -0.2209
 1011MOL0     C39408   3.800   2.965   5.433  0.7714  0.0735 -0.2546
 1011MOL0     C39409   3.910   2.742   5.385 -0.7018 -0.3258  0.0899
 1011MOL0     C39410   3.788   2.665   5.438 -0.2680  0.3880 -0.4814
 1011MOL0     O39411   3.690   2.718   5.520 -0.5307  0.4209 -0.1525
 1011MOL0     C39412   3.598   2.627   5.564 -0.2823 -0.0074  0.5883
 1011MOL0     C39413   3.473   2.605   5.497  0.0839  0.1283  0.1964
 1011MOL0     C39414   3.368   2.525   5.552  0.2491 -0.4351  0.0434
 1011MOL0     C39415   3.406   2.446   5.662  0.2101  0.1745  0.5412
 1011MOL0     O39416   3.319   2.354   5.703 -0.5192 -0.4637 -0.5746
 1011MOL0     C39417   3.329   2.314   5.836  0.1961 -0.0909 -0.7058
 1011MOL0     C39418   3.187   2.273   5.884 -0.9106  0.4655  1.1174
 1011MOL0     C39419   3.121   2.147   5.818 -0.2757  0.7959 -0.3965
 1011MOL0     C39420   3.005   2.092   5.902  0.2523 -0.3357  0.2985
 1011MOL0     C39421   2.974   1.946   5.868  0.6412 -0.2942 -0.2886
 1011MOL0     C39422   2.852   1.904   5.932 -0.0053 -0.3932 -0.3539
 1011MOL0     C39423   2.816   1.761   5.891 -0.3706  0.0080  0.1055
 1011MOL0     C39424   2.667   1.729   5.926  0.1478 -0.9031  0.5056
 1011MOL0    Cl39425   2.617   1.557   5.924 -0.0028 -0.6763  0.0569
 1011MOL0     C39426   3.530   2.457   5.722 -0.2101 -0.0222 -0.4048
 1011MOL0     C39427   3.629   2.546   5.677 -0.1560 -0.2902  0.6058
 1011MOL0     O39428   3.788   2.548   5.399  0.0496 -0.6810 -0.0618
 1011MOL0     C39429   4.015   2.673   5.324 -0.8454 -0.1476  0.6932
 1011MOL0     C39430   4.121   2.747   5.266  0.1628  0.2180 -0.2721
 1011MOL0     N39431   4.760   3.259   5.099  0.2136 -0.4628  0.1911
 1011MOL0     N39432   4.790   3.368   5.166 -0.0093  0.3722 -0.1569
 1011MOL0     C39433   4.367   4.167   5.345 -0.8016  0.1857 -0.2518
 1011MOL0     C39434   4.233   4.179   5.373  0.0024 -0.1879  0.5986
 1011MOL0     C39435   3.822   4.279   5.412 -0.2652 -0.1401 -0.4978
 1011MOL0     C39436   3.825   4.314   5.550  0.4322  0.1287 -0.1526
 1011MOL0     C39437   3.710   4.315   5.632 -0.6508 -0.2028  0.5974
 1011MOL0     C39438   3.586   4.284   5.576 -1.0150 -0.7042  0.0663
 1011MOL0     O39439   3.486   4.299   5.667 -0.3478  0.4972  0.2098
 1011MOL0     C39440   3.353   4.337   5.632  0.2745  0.0845  0.2700
 1011MOL0     C39441   3.291   4.433   5.740 -0.7735  0.2137  0.8514
 1011MOL0     C39442   3.140   4.442   5.727 -0.0933  0.2780  0.4376
 1011MOL0     C39443   3.068   4.532   5.830  0.1556  0.4096 -0.1124
 1011MOL0     C39444   3.109   4.490   5.963  0.0863  0.4684 -0.4286
 1011MOL0     C39445   3.146   4.468   6.082 -0.5272 -0.1302  0.0759
 1011MOL0     C39446   3.577   4.240   5.445 -0.1931  0.6310  0.0192
 1011MOL0     C39447   3.694   4.234   5.360 -0.0960  0.3062 -0.3306
 1011MOL0     C39448   3.657   4.200   5.214 -0.0133  0.7583  0.7275
 1011MOL0     H39449   4.220   4.518   5.410 -0.2462 -0.0136  4.0347
 1011MOL0     H39450   4.454   4.502   5.376 -1.5731 -0.1449 -1.0191
 1011MOL0     H39451   4.665   4.427   5.254 -1.4556 -0.4860  0.9835
 1011MOL0     H39452   4.562   4.349   5.144 -2.8509 -1.8892  2.2612
 1011MOL0     H39453   4.784   4.334   5.064  3.0390 -0.6600 -0.0263
 1011MOL0     H39454   4.847   4.264   5.214 -0.9091  0.4960  1.1171
 1011MOL0     H39455   4.695   4.063   5.184 -0.3880 -2.3799 -1.5825
 1011MOL0     H39456   4.649   4.125   5.031 -0.9907 -2.9037  1.0608
 1011MOL0     H39457   4.902   4.109   4.984 -0.4966  0.8024 -0.3012
 1011MOL0     H39458   4.913   4.033   5.156 -1.6197 -1.5127  0.5370
 1011MOL0     H39459   4.925   3.858   4.959  1.1621  1.2483  2.3624
 1011MOL0     H39460   4.765   3.925   4.924  1.4387  2.2706 -1.5743
 1011MOL0     H39461   4.855   3.823   5.195  0.9260 -1.1124 -1.2831
 1011MOL0     H39462   4.691   3.854   5.153  1.1485  1.0422  2.0567
 1011MOL0     H39463   4.848   3.634   5.027 -0.1438 -1.2444 -1.0426
 1011MOL0     H39464   4.673   3.673   4.993 -0.5844 -1.3296  1.5066
 1011MOL0     H39465   4.761   3.622   5.280 -1.5297  0.5190  0.8397
 1011MOL0     H39466   4.600   3.642   5.219 -0.0947  0.3650 -1.3659
 1011MOL0     H39467   4.482   3.429   5.064 -0.3009 -1.3190 -0.3265
 1011MOL0     H39468   4.626   3.084   4.944  1.4860  1.1077 -1.1859
 1011MOL0     H39469   4.509   3.200   4.886 -2.3787  0.7519  1.6058
 1011MOL0     H39470   4.517   3.053   5.140 -0.5181 -1.1004 -1.0034
 1011MOL0     H39471   4.384   3.167   5.126 -1.0593 -0.5903  1.0021
 1011MOL0     H39472   4.287   3.029   4.952  0.2558 -0.6155 -1.1696
 1011MOL0     H39473   4.433   2.941   4.929  0.4779 -0.1400 -0.9845
 1011MOL0     H39474   4.273   2.798   5.061  0.1815 -1.0012  1.7612
 1011MOL0     H39475   4.394   2.859   5.175 -1.3120  0.3323  1.1496
 1011MOL0     H39476   4.006   3.058   5.302 -0.9696 -0.4961 -4.1300
 1011MOL0     H39477   3.824   3.068   5.407  1.6632 -0.0849 -0.0849
 1011MOL0     H39478   3.790   2.951   5.541 -0.3877 -0.6581 -0.4442
 1011MOL0     H39479   3.704   2.953   5.383 -0.6045  5.4079  0.4923
 1011MOL0     H39480   3.459   2.648   5.399 -0.5602 -1.8579 -0.6302
 1011MOL0     H39481   3.278   2.505   5.495  0.4703 -0.3156 -0.3497
 1011MOL0     H39482   3.398   2.230   5.846 -2.3969 -2.2323  0.5751
 1011MOL0     H39483   3.353   2.401   5.898 -2.6659 -1.2457  2.3470
 1011MOL0     H39484   3.194   2.253   5.991 -0.1801  3.2482  1.6810
 1011MOL0     H39485   3.117   2.357   5.874  0.3321  1.3771 -0.3309
 1011MOL0     H39486   3.204   2.077   5.808 -1.3155 -0.6465  0.7146
 1011MOL0     H39487   3.079   2.169   5.719  1.6100  0.4667 -1.3133
 1011MOL0     H39488   2.912   2.142   5.876 -0.1378 -2.3908 -2.8705
 1011MOL0     H39489   3.023   2.108   6.008  1.9932 -0.7261  0.1045
 1011MOL0     H39490   2.967   1.933   5.759 -1.6606  2.3713 -0.5835
 1011MOL0     H39491   3.058   1.885   5.902  2.5137  2.7267  0.9214
 1011MOL0     H39492   2.768   1.971   5.907 -1.0478 -0.9450  1.4600
 1011MOL0     H39493   2.868   1.909   6.040 -2.1973  1.3634 -0.0292
 1011MOL0     H39494   2.879   1.694   5.951 -2.8256 -0.7138  2.0928
 1011MOL0     H39495   2.839   1.746   5.785  1.8052 -0.0906  0.5441
 1011MOL0     H39496   2.603   1.784   5.856  0.6311 -2.9460 -1.6739
 1011MOL0     H39497   2.656   1.761   6.030  3.7824  0.1292  0.7275
 1011MOL0     H39498   3.559   2.399   5.809  2.1210  1.9852  0.2707
 1011MOL0     H39499   3.726   2.559   5.724 -0.0349  0.3888  0.1932
 1011MOL0     H39500   4.025   2.566   5.330  2.4770 -0.0265 -0.6658
 1011MOL0     H39501   4.195   2.681   5.222 -1.5137 -0.3425 -2.4436
 1011MOL0     H39502   4.403   4.066   5.324 -2.2954  0.2555 -3.7584
 1011MOL0     H39503   4.182   4.084   5.380 -0.3571  0.0138  0.7070
 1011MOL0     H39504   3.913   4.360   5.594 -2.4033  4.1902  1.9055
 1011MOL0     H39505   3.715   4.352   5.734  0.4604 -2.5638  1.4648
 1011MOL0     H39506   3.349   4.392   5.537 -1.2827 -2.1703 -1.0602
 1011MOL0     H39507   3.294   4.246   5.619  1.9013 -0.9627  0.0030
 1011MOL0     H39508   3.329   4.534   5.721 -1.4869  0.8374  2.5946
 1011MOL0     H39509   3.308   4.394   5.841  0.5682 -2.6515 -0.3736
 1011MOL0     H39510   3.126   4.492   5.630  1.1717  0.9988  0.5993
 1011MOL0     H39511   3.094   4.344   5.709  2.7330 -1.4628  1.9779
 1011MOL0     H39512   2.962   4.514   5.814  0.8737 -5.5782 -0.4734
 1011MOL0     H39513   3.090   4.638   5.818  1.8534 -0.0518 -1.6256
 1011MOL0     H39514   3.156   4.452   6.187  4.0086  0.6960  0.0001
 1011MOL0     H39515   3.477   4.215   5.412 -0.4864  0.1386  1.2430
 1011MOL0     H39516   3.556   4.162   5.203  0.1033  0.4689  0.6634
 1011MOL0     H39517   3.663   4.292   5.155 -0.5338  1.0950  1.1857
 1011MOL0     H39518   3.731   4.129   5.176 -0.3788 -0.5770  2.4150
 1012MOL0     O39519   0.643   3.838   8.978  0.3183  0.0178 -0.2159
 1012MOL0     C39520   0.665   3.897   9.084 -1.0392  0.1880 -0.1468
 1012MOL0     O39521   0.785   3.954   9.112 -0.3712  0.2033  0.6587
 1012MOL0     C39522   0.862   3.973   8.994  0.0164  0.0353 -0.0921
 1012MOL0     C39523   0.865   4.093   8.923 -0.3666 -0.3102 -0.7136
 1012MOL0     C39524   0.942   4.122   8.814  0.1052  0.7842 -0.0534
 1012MOL0     C39525   1.016   4.017   8.766 -0.3335  0.1513  0.0539
 1012MOL0     O39526   1.085   4.036   8.644  0.7419  0.3398  0.0695
 1012MOL0     C39527   1.134   3.924   8.572  0.1254 -0.8559 -0.0783
 1012MOL0     C39528   1.277   3.883   8.615 -0.1156 -0.2792  0.1344
 1012MOL0     C39529   1.390   3.976   8.555 -0.4456  0.5843 -0.5797
 1012MOL0     C39530   1.525   3.902   8.557  0.3089  0.0734 -0.0571
 1012MOL0     C39531   1.636   3.997   8.520 -0.2870  0.1688 -0.1644
 1012MOL0     C39532   1.770   3.920   8.515 -0.8019  0.2151  0.4246
 1012MOL0     C39533   1.894   4.010   8.464  1.3505  0.4678 -0.2385
 1012MOL0     C39534   1.897   4.022   8.315  0.1601  0.6453  0.1137
 1012MOL0     N39535   2.015   4.095   8.270 -0.3754  0.0242 -0.6046
 1012MOL0     C39536   2.136   4.036   8.266 -0.1569  0.1086 -0.3416
 1012MOL0     C39537   2.226   4.142   8.261  0.3527  0.1558  0.2230
 1012MOL0     C39538   2.374   4.121   8.225 -0.1072  0.5241  0.4064
 1012MOL0     C39539   2.442   4.050   8.342 -0.3642 -0.4307  0.2247
 1012MOL0     C39540   2.586   3.994   8.328  0.2593  0.6577  0.6879
 1012MOL0     C39541   2.675   4.067   8.228  0.1456 -0.0747 -0.4365
 1012MOL0     O39542   2.703   4.199   8.286  0.6860 -0.0053 -0.4975
 1012MOL0     C39543   2.828   4.247   8.263 -0.3066 -0.9213 -0.3352
 1012MOL0     C39544   2.892   4.240   8.141  0.1548 -0.3967  0.1891
 1012MOL0     C39545   3.028   4.270   8.121 -0.4619  0.4034  0.2856
 1012MOL0     C39546   3.076   4.251   7.983 -0.3840  0.4821 -0.5171
 1012MOL0     C39547   3.103   4.329   8.229  0.5784  0.0052  0.5338
 1012MOL0     C39548   3.245   4.386   8.209  0.3057  0.1770 -0.2641
 1012MOL0     O39549   3.280   4.452   8.324 -0.7896  0.1232  0.3722
 1012MOL0     C39550   3.397   4.529   8.316  0.2772  0.8183  0.1438
 1012MOL0     C39551   3.389   4.670   8.326  0.4094 -0.4410  0.4315
 1012MOL0     C39552   3.503   4.748   8.327  0.0212 -0.3440 -0.8818
 1012MOL0     C39553   3.629   4.689   8.330 -0.4286  0.4651  0.7363
 1012MOL0     O39554   3.755   4.747   8.323  0.0686  0.1519 -0.2729
 1012MOL0     C39555   3.754   4.893   8.330 -0.5881  0.4149 -0.5868
 1012MOL0     C39556   3.901   4.941   8.362 -0.0905  0.1949 -0.7460
 1012MOL0     C39557   3.954   4.886   8.497  0.2392  0.6141 -0.7063
 1012MOL0     C39558   3.886   4.950   8.618 -0.0185  0.9889  0.2140
 1012MOL0     C39559   3.936   4.875   8.747 -0.4936 -0.5019  0.1567
 1012MOL0     C39560   3.883   4.929   8.889 -0.8346  0.3792  0.0966
 1012MOL0     C39561   3.962   4.878   9.005 -0.1440  0.3930 -0.2881
 1012MOL0     C39562   3.970   4.718   9.005  0.0900 -0.3357  0.6795
 1012MOL0    Cl39563   4.023   4.669   9.169  0.0529 -0.0479  0.5239
 1012MOL0     C39564   3.637   4.550   8.337 -0.1453 -0.0040  0.6489
 1012MOL0     C39565   3.525   4.465   8.329  0.4928 -0.8638  0.1589
 1012MOL0     O39566   3.310   4.375   8.105  0.3866 -0.4354 -0.4564
 1012MOL0     C39567   3.032   4.339   8.351  0.1041  0.3500 -0.5764
 1012MOL0     C39568   2.898   4.302   8.367  0.1408  0.7766  0.7350
 1012MOL0     N39569   2.150   4.263   8.251  0.0854  0.3094  0.1168
 1012MOL0     N39570   2.027   4.233   8.268 -0.7126  0.3205 -0.1099
 1012MOL0     C39571   1.019   3.889   8.831  0.5515 -0.2490 -0.5584
 1012MOL0     C39572   0.945   3.875   8.948  0.9828  0.1074 -0.1322
 1012MOL0     C39573   0.557   3.897   9.188  0.0221  0.6013 -0.4297
 1012MOL0     C39574   0.507   4.016   9.229  0.0242 -0.6985  0.0325
 1012MOL0     C39575   0.418   4.020   9.333 -0.2563  0.2481  0.9464
 1012MOL0     C39576   0.364   3.908   9.388  0.6655  0.5769 -1.2523
 1012MOL0     O39577   0.264   3.912   9.480  0.2924  0.3214  0.0104
 1012MOL0     C39578   0.162   4.017   9.474 -0.1313  0.2948  0.0796
 1012MOL0     C39579   0.029   3.971   9.529 -0.1392 -0.7031 -0.0568
 1012MOL0     C39580  -0.025   3.855   9.443  0.7475  0.8709  0.7752
 1012MOL0     C39581  -0.178   3.871   9.420 -0.1906  0.1236 -0.2963
 1012MOL0     C39582  -0.234   3.752   9.361 -0.9127  0.6024  0.7312
 1012MOL0     C39583  -0.277   3.638   9.335  0.1987  0.8732  0.4685
 1012MOL0     C39584   0.406   3.784   9.342  0.1519  0.0263  0.2915
 1012MOL0     C39585   0.503   3.775   9.242 -0.7297 -0.6001 -0.5615
 1012MOL0     C39586   0.546   3.645   9.178 -0.1273 -0.6337 -0.3795
 1012MOL0     H39587   0.796   4.161   8.972 -1.9990 -1.8377 -0.7481
 1012MOL0     H39588   0.946   4.214   8.757 -0.1270 -0.3472 -1.9977
 1012MOL0     H39589   1.134   3.950   8.466  0.4174  1.2008  0.3976
 1012MOL0     H39590   1.060   3.844   8.588  1.1901 -1.5308  1.7841
 1012MOL0     H39591   1.278   3.871   8.723 -2.4646 -2.7552  0.0111
 1012MOL0     H39592   1.285   3.782   8.574 -0.8880  0.1476 -1.1375
 1012MOL0     H39593   1.368   3.993   8.449  1.9836 -0.9474 -1.4178
 1012MOL0     H39594   1.399   4.063   8.621 -3.0866 -0.4652  1.3355
 1012MOL0     H39595   1.540   3.862   8.658 -2.0776  0.3469  0.4794
 1012MOL0     H39596   1.519   3.815   8.491 -1.5896 -0.4504  0.7268
 1012MOL0     H39597   1.642   4.070   8.601 -2.3233 -1.1283  1.2666
 1012MOL0     H39598   1.621   4.041   8.421 -0.3588 -1.5989 -0.9678
 1012MOL0     H39599   1.788   3.877   8.614 -1.5307  0.1205  0.5233
 1012MOL0     H39600   1.762   3.826   8.460 -0.0137  0.6467 -0.4507
 1012MOL0     H39601   1.985   3.957   8.495  0.7225 -1.2185 -1.1690
 1012MOL0     H39602   1.888   4.106   8.516 -1.2451  0.1372  0.1982
 1012MOL0     H39603   1.889   3.925   8.265 -1.5113  0.3390  0.8933
 1012MOL0     H39604   1.807   4.074   8.279  0.8726  1.0540 -1.1338
 1012MOL0     H39605   2.157   3.930   8.270  0.3372  0.2517  1.2233
 1012MOL0     H39606   2.422   4.216   8.199 -0.1998  1.0363  1.9760
 1012MOL0     H39607   2.366   4.057   8.136 -0.3388 -0.6977  1.2800
 1012MOL0     H39608   2.442   4.128   8.420  0.9531  0.5314 -0.6726
 1012MOL0     H39609   2.381   3.969   8.381  1.6745 -2.0237  0.3055
 1012MOL0     H39610   2.638   3.988   8.424  0.6074 -1.7758  0.3977
 1012MOL0     H39611   2.567   3.891   8.297 -1.7169  1.4838 -1.0563
 1012MOL0     H39612   2.771   4.015   8.225  0.1126 -0.4127  2.2480
 1012MOL0     H39613   2.643   4.071   8.123  0.5522 -3.0026 -0.7511
 1012MOL0     H39614   2.842   4.182   8.064 -1.1958 -1.7532  2.0023
 1012MOL0     H39615   3.002   4.206   7.917 -0.6867  0.0234  0.1318
 1012MOL0     H39616   3.163   4.184   7.983 -2.0058 -1.8199 -2.8802
 1012MOL0     H39617   3.102   4.348   7.939  0.8458  0.0102 -0.8796
 1012MOL0     H39618   3.292   4.714   8.342  1.5954  2.2571  0.6923
 1012MOL0     H39619   3.479   4.854   8.329  3.0713  0.4476  1.1765
 1012MOL0     H39620   3.725   4.943   8.238 -0.3184  1.6277 -0.0382
 1012MOL0     H39621   3.695   4.921   8.417  0.6646  2.4150 -0.3203
 1012MOL0     H39622   3.959   4.897   8.281  0.0309 -1.3358  0.1318
 1012MOL0     H39623   3.903   5.050   8.364 -0.0604  0.2316 -2.1085
 1012MOL0     H39624   4.062   4.899   8.501  0.2547  0.3575 -0.3099
 1012MOL0     H39625   3.946   4.777   8.496  1.0154  0.5423  0.0970
 1012MOL0     H39626   3.780   4.924   8.605  0.5664 -1.0219 -0.8066
 1012MOL0     H39627   3.911   5.057   8.625 -2.0166  1.4054  2.1327
 1012MOL0     H39628   3.897   4.774   8.730  1.5858 -1.5883  1.4916
 1012MOL0     H39629   4.045   4.882   8.753 -0.6823  2.4123  2.9181
 1012MOL0     H39630   3.777   4.909   8.906 -1.0039  0.0526 -1.2849
 1012MOL0     H39631   3.900   5.037   8.890  0.3102  0.2622 -1.5582
 1012MOL0     H39632   3.907   4.905   9.096  0.4251 -0.8602  0.4551
 1012MOL0     H39633   4.061   4.923   9.002 -0.0527  0.1633 -0.8020
 1012MOL0     H39634   4.045   4.677   8.937 -0.7871 -0.7359 -0.0535
 1012MOL0     H39635   3.869   4.686   8.981  0.7481  0.0139 -3.0330
 1012MOL0     H39636   3.732   4.499   8.341  1.1420  2.1754 -0.5475
 1012MOL0     H39637   3.534   4.358   8.345 -0.6448 -0.7595  1.6830
 1012MOL0     H39638   3.068   4.377   8.446 -1.7028  0.0237  0.2889
 1012MOL0     H39639   2.850   4.290   8.464 -1.5760 -1.4480 -0.3042
 1012MOL0     H39640   1.072   3.803   8.792  0.7634  0.4570 -1.8877
 1012MOL0     H39641   0.954   3.784   9.007  2.0232 -1.3190 -2.3746
 1012MOL0     H39642   0.556   4.103   9.188 -1.7574  0.0726 -0.5787
 1012MOL0     H39643   0.386   4.120   9.360  2.8401  1.7536 -0.4318
 1012MOL0     H39644   0.210   4.089   9.540  0.5369  0.1127 -0.2028
 1012MOL0     H39645   0.156   4.071   9.379  3.0043  1.2371  0.3098
 1012MOL0     H39646  -0.042   4.054   9.519  0.1640 -0.6341 -2.1114
 1012MOL0     H39647   0.039   3.946   9.635  3.8594  2.2339  0.4884
 1012MOL0     H39648   0.034   3.836   9.353  1.2837  2.2436  0.8048
 1012MOL0     H39649  -0.025   3.766   9.506  1.8466 -0.3884 -0.9148
 1012MOL0     H39650  -0.194   3.952   9.347 -1.7893 -0.3640 -0.5287
 1012MOL0     H39651  -0.228   3.891   9.516  1.4238 -0.2038  0.6358
 1012MOL0     H39652  -0.319   3.540   9.323  0.7333  0.7932 -1.0872
 1012MOL0     H39653   0.348   3.698   9.375  1.0629 -0.2527  1.2644
 1012MOL0     H39654   0.514   3.560   9.239  1.1694 -1.2138 -0.4810
 1012MOL0     H39655   0.506   3.637   9.077 -0.8542 -1.8546 -0.0151
 1012MOL0     H39656   0.654   3.632   9.165  0.2235  1.3739  0.1228
 1013MOL0     O39657   2.063   3.780   2.396 -0.4964  1.0367 -0.8260
 1013MOL0     C39658   2.021   3.880   2.337 -0.3348 -0.6799  0.2250
 1013MOL0     O39659   2.094   3.953   2.249 -0.3175  0.4779 -0.0766
 1013MOL0     C39660   2.230   3.919   2.242 -0.5980  0.6384  0.3394
 1013MOL0     C39661   2.298   3.870   2.124  0.5974  0.9519 -0.1728
 1013MOL0     C39662   2.440   3.854   2.133  0.3153 -0.0087  0.9534
 1013MOL0     C39663   2.512   3.891   2.239 -0.4228  0.4528 -0.0326
 1013MOL0     O39664   2.650   3.870   2.230  0.0150 -0.1046 -0.3522
 1013MOL0     C39665   2.727   3.995   2.225  0.5562  0.5374  0.7018
 1013MOL0     C39666   2.879   3.969   2.204  0.8400 -0.7936 -0.7060
 1013MOL0     C39667   2.909   3.913   2.066  0.2091  0.1150 -0.1947
 1013MOL0     C39668   3.046   3.858   2.062 -0.4403  0.3329  0.6772
 1013MOL0     C39669   3.158   3.950   2.106  0.3180  0.5359 -0.5626
 1013MOL0     C39670   3.297   3.896   2.076  0.7318  0.3675 -0.2428
 1013MOL0     C39671   3.314   3.831   1.942 -0.2893  0.7210  0.2436
 1013MOL0     C39672   3.459   3.775   1.921  0.5375 -0.5522  0.0215
 1013MOL0     N39673   3.556   3.884   1.914  1.3915 -0.0128  0.4847
 1013MOL0     C39674   3.556   3.992   1.823 -0.4525 -0.2754  0.8266
 1013MOL0     C39675   3.663   4.065   1.854 -0.0140  0.1329  0.1251
 1013MOL0     C39676   3.704   4.186   1.778 -0.3008 -0.0130 -0.0867
 1013MOL0     C39677   3.857   4.208   1.773  0.6549  0.1314  0.3770
 1013MOL0     C39678   3.905   4.250   1.915  0.2788  0.0030  0.7152
 1013MOL0     C39679   4.056   4.230   1.905 -1.2294 -0.2740 -0.9382
 1013MOL0     O39680   4.122   4.322   1.821  0.4034 -0.3253  1.0097
 1013MOL0     C39681   4.255   4.295   1.772  0.2315 -0.1250 -0.2486
 1013MOL0     C39682   4.342   4.188   1.809  0.1431  0.1539  0.4447
 1013MOL0     C39683   4.466   4.166   1.760  0.7173  0.0909 -0.2700
 1013MOL0     C39684   4.548   4.045   1.801  0.4244  0.4595 -0.3909
 1013MOL0     C39685   4.520   4.261   1.665 -0.4308  0.6153 -0.4404
 1013MOL0     C39686   4.657   4.251   1.602 -0.2990  0.7328 -0.2897
 1013MOL0     O39687   4.715   4.370   1.580  0.3562  0.1137 -0.9985
 1013MOL0     C39688   4.840   4.376   1.532 -0.3299 -0.4890  0.1012
 1013MOL0     C39689   4.964   4.371   1.601 -0.1620 -0.1424  0.4205
 1013MOL0     C39690   5.082   4.399   1.530 -0.2711 -0.1163  0.5171
 1013MOL0     C39691   5.093   4.418   1.390 -0.2667  0.2989 -0.1192
 1013MOL0     O39692   5.216   4.426   1.333  0.0757  0.0877 -0.3745
 1013MOL0     C39693   5.234   4.479   1.206  0.7995 -0.3538  0.0139
 1013MOL0     C39694   5.373   4.529   1.186 -0.0904  0.2017 -1.1174
 1013MOL0     C39695   5.485   4.420   1.216 -0.0740  1.0807  0.1400
 1013MOL0     C39696   5.624   4.475   1.182 -0.5434 -0.0691  0.0643
 1013MOL0     C39697   5.737   4.385   1.243 -0.2546  0.5653  0.0517
 1013MOL0     C39698   5.875   4.448   1.208  1.0077  0.5940 -0.5836
 1013MOL0     C39699   5.990   4.366   1.256  0.2576  0.4463  0.1538
 1013MOL0     C39700   6.136   4.414   1.241 -0.8933 -0.0617  0.6131
 1013MOL0    Cl39701   6.182   4.438   1.072  0.2426 -0.1215 -0.0733
 1013MOL0     C39702   4.973   4.399   1.321  0.3764  0.6227  0.3927
 1013MOL0     C39703   4.854   4.381   1.392  0.5284 -1.0574  0.4774
 1013MOL0     O39704   4.717   4.146   1.581 -0.1486 -0.0525  0.0255
 1013MOL0     C39705   4.435   4.365   1.620 -0.6517 -0.0295  0.8963
 1013MOL0     C39706   4.307   4.381   1.673  0.1647 -0.1743 -0.4856
 1013MOL0     N39707   3.736   3.993   1.953 -0.2779 -0.3284 -0.3748
 1013MOL0     N39708   3.664   3.896   1.995 -0.0040 -0.0355 -0.1874
 1013MOL0     C39709   2.447   3.952   2.347 -0.5346  0.5271 -0.1140
 1013MOL0     C39710   2.309   3.969   2.346 -0.0145 -0.3330  0.6239
 1013MOL0     C39711   1.874   3.907   2.333 -0.8288 -0.7526 -0.2587
 1013MOL0     C39712   1.787   3.806   2.349 -0.1323 -0.1127 -0.5101
 1013MOL0     C39713   1.648   3.810   2.338 -0.7948 -1.0573 -0.6344
 1013MOL0     C39714   1.589   3.932   2.304  0.2564 -0.1918 -0.2411
 1013MOL0     O39715   1.452   3.957   2.294  0.3725 -0.0774 -0.5278
 1013MOL0     C39716   1.361   3.850   2.317 -0.1190 -0.1241 -1.1468
 1013MOL0     C39717   1.323   3.855   2.467 -0.3881  0.3210 -0.0445
 1013MOL0     C39718   1.250   3.986   2.514 -0.1255 -0.5215 -0.1049
 1013MOL0     C39719   1.320   4.060   2.634  0.2785 -0.3262 -0.0049
 1013MOL0     C39720   1.329   4.206   2.605  0.1487 -0.7496  0.0601
 1013MOL0     C39721   1.347   4.332   2.580 -0.2580  0.0972 -0.0633
 1013MOL0     C39722   1.677   4.043   2.286  1.2447  0.0386 -0.3787
 1013MOL0     C39723   1.816   4.035   2.309 -0.9344 -0.1983  0.3014
 1013MOL0     C39724   1.895   4.156   2.313  0.2039 -0.7470 -0.2044
 1013MOL0     H39725   2.256   3.835   2.030  4.3339 -2.2292 -0.8918
 1013MOL0     H39726   2.496   3.820   2.047  2.5943  4.2688  0.4538
 1013MOL0     H39727   2.720   4.051   2.319  2.7204  1.5743  0.3024
 1013MOL0     H39728   2.690   4.058   2.143  2.8192 -0.4508 -1.1849
 1013MOL0     H39729   2.932   4.065   2.206  1.7061 -1.2714  0.4467
 1013MOL0     H39730   2.913   3.902   2.283 -2.8861 -2.7275 -0.5333
 1013MOL0     H39731   2.839   3.836   2.032  1.9199 -2.2620  1.3486
 1013MOL0     H39732   2.897   3.995   1.994 -0.9046 -0.1215 -0.3106
 1013MOL0     H39733   3.056   3.770   2.127  0.4408  0.8656  1.2798
 1013MOL0     H39734   3.072   3.830   1.960 -1.4694 -1.3126  0.8294
 1013MOL0     H39735   3.159   3.979   2.211  0.4661 -0.7194 -0.2044
 1013MOL0     H39736   3.142   4.050   2.066  3.0306  1.3964  0.2932
 1013MOL0     H39737   3.367   3.980   2.078  2.2661 -0.6230 -3.8106
 1013MOL0     H39738   3.330   3.823   2.151  1.5686  3.7504  2.9925
 1013MOL0     H39739   3.269   3.885   1.858 -3.7529 -2.3136 -0.0726
 1013MOL0     H39740   3.262   3.735   1.946  3.8029 -1.9672 -2.2766
 1013MOL0     H39741   3.484   3.712   2.007 -1.0513 -1.2585  0.0049
 1013MOL0     H39742   3.464   3.708   1.835 -3.4890 -3.2953  1.6344
 1013MOL0     H39743   3.480   4.019   1.750  1.4485  0.5275 -0.9384
 1013MOL0     H39744   3.659   4.270   1.831 -3.7036 -2.6343  1.4955
 1013MOL0     H39745   3.671   4.176   1.674  2.6770  0.9840 -1.2309
 1013MOL0     H39746   3.909   4.117   1.741 -0.1580  0.4537 -2.0170
 1013MOL0     H39747   3.884   4.283   1.698 -0.9341  0.4034  0.0370
 1013MOL0     H39748   3.884   4.356   1.934  0.2049 -0.0527  0.9482
 1013MOL0     H39749   3.864   4.190   1.996 -4.0040  4.2999  2.2382
 1013MOL0     H39750   4.107   4.238   2.002  0.1358 -2.2641 -1.4144
 1013MOL0     H39751   4.086   4.127   1.880 -2.2897 -1.6575  2.7953
 1013MOL0     H39752   4.315   4.108   1.877  1.7721 -0.6596  0.1855
 1013MOL0     H39753   4.507   3.980   1.878  0.5081  0.2328 -0.5368
 1013MOL0     H39754   4.654   4.062   1.823  1.2233 -0.4138 -3.1014
 1013MOL0     H39755   4.548   3.974   1.717  2.7153  2.5250 -2.3208
 1013MOL0     H39756   4.955   4.338   1.704  4.2031 -1.3934  0.6003
 1013MOL0     H39757   5.179   4.405   1.577 -0.1126  0.5572  0.1169
 1013MOL0     H39758   5.212   4.394   1.142 -0.4302 -1.2905  1.6083
 1013MOL0     H39759   5.166   4.561   1.182  0.4005 -1.0954 -1.5128
 1013MOL0     H39760   5.371   4.568   1.084 -0.7023  0.2954 -1.0737
 1013MOL0     H39761   5.391   4.612   1.256 -1.1970 -1.5555  1.3954
 1013MOL0     H39762   5.468   4.331   1.154 -0.7708  0.6236  0.9549
 1013MOL0     H39763   5.489   4.399   1.323  0.9575  0.3267 -0.0386
 1013MOL0     H39764   5.630   4.572   1.232 -0.9923  0.1520 -0.2950
 1013MOL0     H39765   5.641   4.495   1.076  0.5151  0.2913  0.2918
 1013MOL0     H39766   5.723   4.385   1.351 -0.8113  1.5155 -0.0048
 1013MOL0     H39767   5.741   4.286   1.198 -1.4992  0.2988  0.5003
 1013MOL0     H39768   5.884   4.544   1.259 -2.8262  0.9505 -0.2723
 1013MOL0     H39769   5.882   4.475   1.102  5.4241  2.4827 -0.0493
 1013MOL0     H39770   5.996   4.270   1.206 -0.0357 -0.4051  1.6934
 1013MOL0     H39771   5.975   4.342   1.362  1.9799 -0.5708  0.2022
 1013MOL0     H39772   6.197   4.330   1.276  1.3379  1.3615  0.3772
 1013MOL0     H39773   6.164   4.499   1.304  0.6710  0.7664 -1.1005
 1013MOL0     H39774   4.971   4.381   1.214 -2.6987  1.8936  0.1237
 1013MOL0     H39775   4.758   4.374   1.342  1.3427 -0.6110 -1.1971
 1013MOL0     H39776   4.472   4.444   1.555  0.2507 -0.5579  0.7614
 1013MOL0     H39777   4.241   4.463   1.646 -1.7744 -1.9611 -1.3776
 1013MOL0     H39778   2.508   3.989   2.429  4.0598  1.5708 -3.5805
 1013MOL0     H39779   2.262   4.005   2.437 -0.1923 -0.3287  0.5307
 1013MOL0     H39780   1.827   3.707   2.373  0.5850  0.0513 -0.9828
 1013MOL0     H39781   1.599   3.714   2.346  1.3514 -2.2443 -0.7875
 1013MOL0     H39782   1.275   3.862   2.250 -2.3584 -3.5414  0.8022
 1013MOL0     H39783   1.385   3.746   2.293 -1.3642 -0.1414 -2.5188
 1013MOL0     H39784   1.408   3.820   2.527  0.3604 -2.6333 -2.5580
 1013MOL0     H39785   1.255   3.771   2.480 -0.6844  0.4074 -0.9340
 1013MOL0     H39786   1.232   4.050   2.428 -1.0709 -0.0512  0.4337
 1013MOL0     H39787   1.151   3.967   2.556  0.7141 -1.9051  1.3756
 1013MOL0     H39788   1.416   4.011   2.652  0.4603  0.8762  2.7581
 1013MOL0     H39789   1.261   4.050   2.726  2.5592  2.9617  2.0056
 1013MOL0     H39790   1.341   4.436   2.555 -3.5084  0.6637  2.3886
 1013MOL0     H39791   1.629   4.138   2.265 -0.4100 -1.1450 -2.3288
 1013MOL0     H39792   1.830   4.232   2.357  0.8570  0.6793 -1.6171
 1013MOL0     H39793   1.985   4.152   2.376  0.9218  1.4131 -1.0414
 1013MOL0     H39794   1.920   4.190   2.213  0.4084 -0.2860  0.0012
 1014MOL0     O39795   9.301   3.082   4.840 -0.0153 -0.2750  0.2403
 1014MOL0     C39796   9.352   3.135   4.737  0.6437  0.2337 -0.5919
 1014MOL0     O39797   9.475   3.120   4.699 -0.9141 -0.0987  0.2872
 1014MOL0     C39798   9.570   3.059   4.783  0.8190 -0.2148  0.7326
 1014MOL0     C39799   9.625   3.133   4.893  0.3614  0.6812 -0.6121
 1014MOL0     C39800   9.702   3.062   4.989 -0.3843 -0.0327  0.8949
 1014MOL0     C39801   9.747   2.936   4.960 -0.0378 -0.3286 -0.2932
 1014MOL0     O39802   9.838   2.855   5.031 -0.5292 -0.7023 -1.1576
 1014MOL0     C39803   9.857   2.899   5.169 -0.1948 -0.0928 -0.5236
 1014MOL0     C39804   9.941   2.803   5.246  0.1692 -0.3876 -0.8464
 1014MOL0     C39805  10.080   2.794   5.181 -0.1009  0.2881  0.5197
 1014MOL0     C39806  10.182   2.728   5.278 -0.8638  0.1782 -0.3251
 1014MOL0     C39807  10.316   2.711   5.212 -0.7164  0.3112  1.1076
 1014MOL0     C39808  10.410   2.662   5.321  0.1866 -0.0529 -0.2193
 1014MOL0     C39809  10.448   2.759   5.439 -0.3137  0.0167  0.2036
 1014MOL0     C39810  10.562   2.701   5.530 -0.9795  0.3360 -0.1847
 1014MOL0     N39811  10.696   2.711   5.467  1.0181 -0.3602 -0.1214
 1014MOL0     C39812  10.758   2.812   5.414  0.5138 -0.4906  0.0182
 1014MOL0     C39813  10.857   2.769   5.337  0.4661  0.4370  0.5668
 1014MOL0     C39814  10.962   2.851   5.270 -0.6767  0.0577 -0.3340
 1014MOL0     C39815  11.105   2.810   5.300 -0.4159 -0.0371  0.0701
 1014MOL0     C39816  11.129   2.865   5.442 -0.1877  0.6509 -0.8042
 1014MOL0     C39817  11.274   2.890   5.485 -0.1613 -0.6560 -0.4502
 1014MOL0     O39818  11.327   3.013   5.428  0.2513  0.5552  1.1058
 1014MOL0     C39819  11.433   2.984   5.342 -0.1246 -0.0762  0.1972
 1014MOL0     C39820  11.555   2.955   5.397  0.6041 -0.0836  0.1570
 1014MOL0     C39821  11.673   2.916   5.327  0.3530  0.6424  0.8461
 1014MOL0     C39822  11.808   2.912   5.391  0.2789 -0.0567  0.7978
 1014MOL0     C39823  11.656   2.890   5.189  0.2582  0.0812 -0.0148
 1014MOL0     C39824  11.761   2.828   5.105  0.3185  0.1761  0.3766
 1014MOL0     O39825  11.727   2.829   4.970  0.5605  0.0774  0.9866
 1014MOL0     C39826  11.791   2.747   4.890 -0.1791 -0.2740 -0.6150
 1014MOL0     C39827  11.730   2.626   4.860 -0.3877  0.4818 -0.4067
 1014MOL0     C39828  11.799   2.523   4.801 -0.3568 -0.1163 -0.6832
 1014MOL0     C39829  11.930   2.541   4.762  0.0688  0.0557 -0.1524
 1014MOL0     O39830  11.986   2.441   4.689  0.1151  0.7822  0.4645
 1014MOL0     C39831  12.109   2.391   4.742 -0.0369  0.3891 -0.1913
 1014MOL0     C39832  12.242   2.430   4.674 -0.4760  0.2441  0.2254
 1014MOL0     C39833  12.364   2.361   4.741 -0.4138  0.6186 -0.4555
 1014MOL0     C39834  12.496   2.379   4.674  1.1020  0.2214  0.7402
 1014MOL0     C39835  12.597   2.281   4.740  0.0337  0.0386 -0.7321
 1014MOL0     C39836  12.725   2.293   4.659  0.6317 -0.2037  0.3025
 1014MOL0     C39837  12.824   2.177   4.696 -0.0959 -0.3897 -0.4409
 1014MOL0     C39838  12.962   2.231   4.670 -0.6289  0.0200  1.2289
 1014MOL0    Cl39839  13.071   2.107   4.737  0.3674 -0.2630 -0.0644
 1014MOL0     C39840  11.988   2.666   4.789 -0.1910  0.0757  0.3308
 1014MOL0     C39841  11.918   2.770   4.846 -0.2111 -0.4408 -0.1470
 1014MOL0     O39842  11.871   2.792   5.147 -0.6683  0.4361 -0.8626
 1014MOL0     C39843  11.537   2.933   5.129 -0.0140 -1.1497 -0.6197
 1014MOL0     C39844  11.421   2.961   5.206 -0.1690 -0.1581 -0.0916
 1014MOL0     N39845  10.853   2.633   5.346 -0.0571 -0.4550 -0.2520
 1014MOL0     N39846  10.762   2.600   5.426 -0.0527 -0.3430 -0.4622
 1014MOL0     C39847   9.698   2.872   4.842  0.5816 -0.0456  0.4071
 1014MOL0     C39848   9.602   2.923   4.756  0.4931 -0.4907 -0.4650
 1014MOL0     C39849   9.254   3.209   4.643 -0.1739 -0.0260  0.9262
 1014MOL0     C39850   9.283   3.343   4.615  0.5006  0.3185  1.1555
 1014MOL0     C39851   9.181   3.407   4.536  0.0126 -0.6764 -0.4450
 1014MOL0     C39852   9.069   3.351   4.477  0.7477 -0.6134 -0.3523
 1014MOL0     O39853   8.982   3.429   4.400 -0.3211  0.3068  0.4262
 1014MOL0     C39854   8.863   3.381   4.345  0.6965  0.3065 -0.4952
 1014MOL0     C39855   8.863   3.342   4.205 -0.1857  0.4499  0.7167
 1014MOL0     C39856   8.889   3.452   4.101  0.0289 -1.0092 -0.6347
 1014MOL0     C39857   8.873   3.409   3.954 -0.0775  0.0512 -1.0448
 1014MOL0     C39858   8.737   3.379   3.911  0.0278  0.7532  0.4254
 1014MOL0     C39859   8.616   3.359   3.900 -0.8136  0.1906  1.3651
 1014MOL0     C39860   9.053   3.217   4.502  0.4413  0.9941 -0.1425
 1014MOL0     C39861   9.136   3.145   4.589 -0.8373 -0.1786  0.3011
 1014MOL0     C39862   9.105   2.996   4.609  0.1544 -0.1297 -0.6964
 1014MOL0     H39863   9.614   3.239   4.915  2.7883  0.7289  0.7009
 1014MOL0     H39864   9.738   3.124   5.070  0.9297 -0.2135  0.4745
 1014MOL0     H39865   9.758   2.902   5.215 -0.7749  1.3776 -1.7984
 1014MOL0     H39866   9.885   3.004   5.173  2.0104 -0.6503  0.2660
 1014MOL0     H39867   9.958   2.849   5.343  1.3222  1.9935 -2.0767
 1014MOL0     H39868   9.892   2.708   5.268  1.1785 -0.4560  1.3581
 1014MOL0     H39869  10.081   2.741   5.086  0.4190 -0.2558  0.8174
 1014MOL0     H39870  10.116   2.892   5.149 -1.6562  0.1184 -1.9799
 1014MOL0     H39871  10.196   2.796   5.363  0.5193 -1.9854  1.2920
 1014MOL0     H39872  10.149   2.631   5.316  2.7697 -0.2204  2.3739
 1014MOL0     H39873  10.363   2.806   5.183  1.4679 -0.9835  0.2041
 1014MOL0     H39874  10.310   2.637   5.131 -1.2429 -0.0003  1.4289
 1014MOL0     H39875  10.374   2.566   5.358  0.1526 -0.7085 -1.8796
 1014MOL0     H39876  10.506   2.632   5.279  1.1531  0.1821  1.7295
 1014MOL0     H39877  10.352   2.757   5.491  0.4397  2.8675  1.9168
 1014MOL0     H39878  10.463   2.861   5.403 -2.4824 -0.0533 -1.0883
 1014MOL0     H39879  10.566   2.763   5.620  1.3107  0.1972 -0.1272
 1014MOL0     H39880  10.554   2.595   5.557 -1.7557  0.6385  0.8762
 1014MOL0     H39881  10.745   2.916   5.441 -0.0130 -0.7293  0.6907
 1014MOL0     H39882  10.950   2.958   5.287 -0.4452  0.2984 -1.6126
 1014MOL0     H39883  10.942   2.832   5.164 -0.1735 -0.7201 -0.2957
 1014MOL0     H39884  11.114   2.701   5.291 -2.0955 -0.4475  2.4582
 1014MOL0     H39885  11.181   2.857   5.236 -1.3953  0.6348 -0.6394
 1014MOL0     H39886  11.092   2.968   5.443  2.7884  1.8102 -0.5152
 1014MOL0     H39887  11.092   2.792   5.515  1.0304  1.4170  0.6516
 1014MOL0     H39888  11.263   2.906   5.592 -2.8363  0.4261 -0.7891
 1014MOL0     H39889  11.335   2.800   5.473  1.4468  0.6018 -2.1998
 1014MOL0     H39890  11.573   2.979   5.501  2.3961  0.7049 -0.2925
 1014MOL0     H39891  11.827   2.807   5.413  1.3993  0.2398  1.2970
 1014MOL0     H39892  11.809   2.959   5.490  0.4388 -3.2614  2.4496
 1014MOL0     H39893  11.879   2.951   5.318 -1.5502  2.6397  0.2854
 1014MOL0     H39894  11.629   2.602   4.892  0.3822 -1.0463  1.0101
 1014MOL0     H39895  11.747   2.430   4.787  0.1041 -0.4415 -0.2805
 1014MOL0     H39896  12.122   2.433   4.842  1.3538 -0.8059  0.1637
 1014MOL0     H39897  12.101   2.282   4.739  2.2301  0.1114  1.2578
 1014MOL0     H39898  12.243   2.408   4.567  2.7850  1.7219 -0.1769
 1014MOL0     H39899  12.249   2.539   4.680 -3.2492  0.6689 -1.9778
 1014MOL0     H39900  12.347   2.253   4.738  1.8590  0.2028 -0.2280
 1014MOL0     H39901  12.371   2.397   4.844  0.6124 -1.5540  0.2802
 1014MOL0     H39902  12.532   2.482   4.676 -1.3868  1.1550  2.5624
 1014MOL0     H39903  12.477   2.348   4.570  0.4934 -0.8299  1.1477
 1014MOL0     H39904  12.618   2.304   4.845  2.7705 -0.1164 -1.1832
 1014MOL0     H39905  12.557   2.179   4.739 -0.4233  0.0691  2.6048
 1014MOL0     H39906  12.759   2.396   4.673  2.2509 -0.6536 -0.1908
 1014MOL0     H39907  12.702   2.289   4.552  1.9128  1.0121 -0.0537
 1014MOL0     H39908  12.811   2.084   4.640 -0.0427  1.4113 -3.7240
 1014MOL0     H39909  12.813   2.154   4.802 -0.1087 -0.8098 -0.5325
 1014MOL0     H39910  12.993   2.325   4.716  0.9510 -0.8588  2.0553
 1014MOL0     H39911  12.973   2.244   4.562 -1.3284 -0.7074  1.0592
 1014MOL0     H39912  12.084   2.687   4.744 -0.3139  4.1391  1.5314
 1014MOL0     H39913  11.967   2.857   4.889 -1.5364  0.8528 -1.1598
 1014MOL0     H39914  11.527   2.940   5.021 -0.4624 -1.2156 -0.5827
 1014MOL0     H39915  11.326   2.970   5.154 -0.1828  1.5879  0.1764
 1014MOL0     H39916   9.731   2.770   4.823 -0.3354 -0.2606 -0.0834
 1014MOL0     H39917   9.563   2.876   4.667 -0.8688  0.1445 -0.2326
 1014MOL0     H39918   9.371   3.396   4.651  4.2453 -3.0981 -1.9928
 1014MOL0     H39919   9.197   3.514   4.529  0.4120 -0.8141 -1.9338
 1014MOL0     H39920   8.819   3.304   4.409 -2.2337  2.9982  1.0872
 1014MOL0     H39921   8.785   3.458   4.345 -1.0075 -1.3179  0.8100
 1014MOL0     H39922   8.762   3.304   4.189  0.3198 -0.5987 -0.1092
 1014MOL0     H39923   8.937   3.265   4.182  0.6601  1.1190  1.1428
 1014MOL0     H39924   8.824   3.535   4.130  2.0149  0.7485 -0.9327
 1014MOL0     H39925   8.992   3.486   4.118 -1.2458  3.3465 -0.3607
 1014MOL0     H39926   8.938   3.324   3.932 -2.0058 -1.6092 -0.5303
 1014MOL0     H39927   8.911   3.499   3.904 -1.0789  1.1190  0.0330
 1014MOL0     H39928   8.509   3.365   3.895 -0.7900  0.9978  1.7231
 1014MOL0     H39929   8.970   3.174   4.447  0.8471 -0.6834  0.5182
 1014MOL0     H39930   9.142   2.953   4.702 -0.5621  2.7897  1.0650
 1014MOL0     H39931   8.997   2.982   4.617  0.0666  0.5805 -0.5450
 1014MOL0     H39932   9.133   2.936   4.522  0.1040 -1.7580  0.3701
 1015MOL0     O39933   4.590   0.378   0.359 -0.0747 -0.3035  0.5134
 1015MOL0     C39934   4.499   0.439   0.415  0.5143  0.2783  0.6663
 1015MOL0     O39935   4.515   0.533   0.518  0.4323  0.8276  0.2277
 1015MOL0     C39936   4.633   0.572   0.573 -0.4428 -0.1937  0.3292
 1015MOL0     C39937   4.749   0.497   0.584 -1.3458 -0.1318 -0.2075
 1015MOL0     C39938   4.864   0.543   0.636  0.3182  0.1291 -0.1207
 1015MOL0     C39939   4.875   0.677   0.679 -0.6314 -0.1866 -0.6184
 1015MOL0     O39940   4.993   0.735   0.730 -0.1059 -0.6450  0.3130
 1015MOL0     C39941   5.115   0.656   0.750  0.4998 -0.3071  0.7323
 1015MOL0     C39942   5.211   0.734   0.844  0.4851  0.2209  0.0794
 1015MOL0     C39943   5.169   0.710   0.983 -0.1668  0.2668 -0.1499
 1015MOL0     C39944   5.196   0.843   1.059  0.8481 -0.4879  0.6758
 1015MOL0     C39945   5.140   0.850   1.198  0.1290  0.0472 -0.2161
 1015MOL0     C39946   5.212   0.751   1.286 -0.2146 -0.3688 -0.0418
 1015MOL0     C39947   5.175   0.763   1.426  0.0386  0.2759 -0.3278
 1015MOL0     C39948   5.028   0.763   1.464  0.7106  0.8363  0.1943
 1015MOL0     N39949   5.015   0.736   1.609  0.8434  0.3237  0.1768
 1015MOL0     C39950   5.006   0.604   1.651  0.0645  0.6346  0.2729
 1015MOL0     C39951   4.952   0.609   1.775 -0.8490  0.3172  0.2613
 1015MOL0     C39952   4.930   0.493   1.871 -0.3435  0.0523 -0.0581
 1015MOL0     C39953   5.065   0.461   1.937 -0.1512  0.1163  0.0070
 1015MOL0     C39954   5.062   0.315   1.985 -0.8952  0.5055 -0.2184
 1015MOL0     C39955   5.200   0.273   2.048  0.4584  0.1190  0.6271
 1015MOL0     O39956   5.219   0.317   2.180  0.5735 -0.3218 -0.3286
 1015MOL0     C39957   5.325   0.251   2.246 -0.0667 -0.7299  0.1979
 1015MOL0     C39958   5.428   0.184   2.178  0.8002  0.1024 -0.3419
 1015MOL0     C39959   5.522   0.108   2.259  0.5040  0.5899 -0.1080
 1015MOL0     C39960   5.624   0.031   2.176  0.2841 -0.7065 -0.4119
 1015MOL0     C39961   5.508   0.097   2.401 -0.2601  0.1780  0.1276
 1015MOL0     C39962   5.603   0.012   2.484  0.1338  0.7223  0.1948
 1015MOL0     O39963   5.727  -0.002   2.440 -0.3538  0.2450 -0.0106
 1015MOL0     C39964   5.829  -0.036   2.527  0.7898  0.4166 -0.4255
 1015MOL0     C39965   5.829   0.007   2.658 -0.0863 -0.1371 -0.5601
 1015MOL0     C39966   5.921  -0.050   2.743  0.6250 -0.9760  0.6089
 1015MOL0     C39967   6.019  -0.139   2.705 -0.0949  1.0884  0.1135
 1015MOL0     O39968   6.110  -0.189   2.796  0.1334  0.3337 -0.2533
 1015MOL0     C39969   6.194  -0.305   2.767  0.1677 -0.7930  0.4268
 1015MOL0     C39970   6.331  -0.252   2.709 -0.9371  0.5827 -0.0454
 1015MOL0     C39971   6.416  -0.175   2.812 -0.5451 -0.9983 -0.6890
 1015MOL0     C39972   6.520  -0.099   2.731 -0.4870  0.3690  0.0404
 1015MOL0     C39973   6.615  -0.022   2.815 -0.1949  0.4585 -0.5289
 1015MOL0     C39974   6.698   0.074   2.747 -0.0049 -0.3657 -0.3307
 1015MOL0     C39975   6.819   0.115   2.828 -0.1602 -0.3458 -0.1381
 1015MOL0     C39976   6.894   0.233   2.760 -0.4176  0.1313  1.1347
 1015MOL0    Cl39977   6.809   0.396   2.775  0.1470 -0.4903 -0.2165
 1015MOL0     C39978   6.027  -0.169   2.568  0.1027 -0.1676 -0.2593
 1015MOL0     C39979   5.935  -0.115   2.478  0.7174  0.1479 -0.4121
 1015MOL0     O39980   5.550  -0.040   2.584 -0.0457  0.0881  0.0592
 1015MOL0     C39981   5.411   0.179   2.464 -0.0131 -0.6996 -0.0268
 1015MOL0     C39982   5.314   0.247   2.387 -0.3241 -0.3628 -0.9070
 1015MOL0     N39983   4.925   0.744   1.805 -0.4987  0.3234  0.1275
 1015MOL0     N39984   4.951   0.812   1.699  0.4873 -0.6660  0.1183
 1015MOL0     C39985   4.761   0.760   0.672 -0.8856  0.4974 -0.4611
 1015MOL0     C39986   4.637   0.708   0.616  0.1191  0.5511 -0.8642
 1015MOL0     C39987   4.371   0.387   0.401 -0.0991 -0.1738 -0.2360
 1015MOL0     C39988   4.344   0.269   0.467 -0.1554 -0.2940  0.1833
 1015MOL0     C39989   4.215   0.212   0.467 -0.1105  0.7445  0.5089
 1015MOL0     C39990   4.117   0.274   0.386  0.9599  0.7225  0.0672
 1015MOL0     O39991   3.993   0.213   0.387 -0.2751 -0.2567  0.0324
 1015MOL0     C39992   3.903   0.227   0.274  0.0232 -0.5413 -0.1160
 1015MOL0     C39993   3.809   0.350   0.304 -0.7026  0.8157 -0.6219
 1015MOL0     C39994   3.700   0.386   0.194 -0.6020  0.0737 -0.4249
 1015MOL0     C39995   3.603   0.501   0.231 -1.0503 -0.5605 -0.8575
 1015MOL0     C39996   3.513   0.455   0.340 -0.0545 -1.0370 -0.2372
 1015MOL0     C39997   3.449   0.423   0.434 -0.2836  0.2035 -0.4215
 1015MOL0     C39998   4.150   0.391   0.310  0.1607 -0.1447 -0.8742
 1015MOL0     C39999   4.272   0.448   0.323 -0.2779  0.3286 -0.0943
 1015MOL0     C40000   4.300   0.562   0.236  0.6482 -1.6109  0.5629
 1015MOL0     H40001   4.740   0.393   0.555 -0.0480 -0.0396 -1.0717
 1015MOL0     H40002   4.953   0.482   0.631  0.9811  1.0512  0.1421
 1015MOL0     H40003   5.159   0.632   0.653  1.1202 -2.5977  1.5130
 1015MOL0     H40004   5.102   0.558   0.798 -1.5706 -0.3688  0.1861
 1015MOL0     H40005   5.315   0.704   0.828 -0.3143 -0.9585 -4.2619
 1015MOL0     H40006   5.212   0.839   0.811  2.2479  0.4578  0.8013
 1015MOL0     H40007   5.065   0.677   0.995 -0.6414  1.9323  0.6462
 1015MOL0     H40008   5.229   0.624   1.015  1.1968  1.7556  1.4635
 1015MOL0     H40009   5.304   0.860   1.056  0.9011 -0.9219 -0.0652
 1015MOL0     H40010   5.154   0.930   1.009  1.2200 -0.9156 -0.4008
 1015MOL0     H40011   5.033   0.829   1.203 -0.1184  0.9238 -1.3262
 1015MOL0     H40012   5.148   0.951   1.238 -2.0891 -0.0363  0.5649
 1015MOL0     H40013   5.198   0.649   1.250  0.7529 -0.5118 -0.0360
 1015MOL0     H40014   5.316   0.782   1.277 -0.3330 -0.0307 -0.2516
 1015MOL0     H40015   5.216   0.852   1.476 -0.1344  0.1503  0.0442
 1015MOL0     H40016   5.215   0.676   1.480 -0.6017 -0.6932 -1.3824
 1015MOL0     H40017   4.983   0.861   1.446 -2.2947 -0.0586  2.0096
 1015MOL0     H40018   4.975   0.685   1.407 -0.1044  0.6282  1.2004
 1015MOL0     H40019   5.016   0.508   1.602  1.1673 -0.8572  3.1747
 1015MOL0     H40020   4.894   0.403   1.820 -0.9423  0.6599 -0.7343
 1015MOL0     H40021   4.847   0.517   1.937 -0.8947 -1.1411 -0.2839
 1015MOL0     H40022   5.146   0.472   1.864  0.3524 -0.0990  0.5174
 1015MOL0     H40023   5.076   0.535   2.017 -0.1120  0.5215 -0.3696
 1015MOL0     H40024   4.982   0.306   2.059  1.6746  0.6231  2.8020
 1015MOL0     H40025   5.028   0.251   1.903 -0.9779 -1.1905  1.0618
 1015MOL0     H40026   5.206   0.164   2.033  1.8583  0.2719 -0.0626
 1015MOL0     H40027   5.277   0.325   1.990 -2.1894  1.1274 -2.3150
 1015MOL0     H40028   5.440   0.189   2.071 -2.6460 -0.8378 -0.9288
 1015MOL0     H40029   5.720   0.083   2.184  1.1561 -2.4576  1.6448
 1015MOL0     H40030   5.602   0.031   2.069  3.2909 -0.8113 -1.1167
 1015MOL0     H40031   5.639  -0.074   2.203 -0.0130 -0.4673  0.7461
 1015MOL0     H40032   5.754   0.071   2.703  1.1645  2.5319 -2.0565
 1015MOL0     H40033   5.929  -0.024   2.848 -0.3939 -0.9729  0.6952
 1015MOL0     H40034   6.205  -0.365   2.859 -0.7986 -0.8942  0.4842
 1015MOL0     H40035   6.136  -0.368   2.699 -4.2265  1.2199  1.9615
 1015MOL0     H40036   6.383  -0.345   2.683 -1.5136  0.5573 -1.1936
 1015MOL0     H40037   6.323  -0.194   2.616 -0.5811 -0.5748 -0.8256
 1015MOL0     H40038   6.462  -0.238   2.888  1.6168 -0.3067 -1.3443
 1015MOL0     H40039   6.345  -0.111   2.867 -0.9356  0.8136 -3.1184
 1015MOL0     H40040   6.461  -0.030   2.669 -0.8720 -1.4692 -1.7636
 1015MOL0     H40041   6.572  -0.167   2.663  2.0347  1.6757  0.5264
 1015MOL0     H40042   6.559   0.019   2.900  1.0718  0.2862  0.4187
 1015MOL0     H40043   6.676  -0.101   2.860 -0.6714  0.5969  0.3968
 1015MOL0     H40044   6.639   0.163   2.724  2.1037  1.2033  0.0586
 1015MOL0     H40045   6.732   0.021   2.657 -0.3503 -0.8133 -0.2044
 1015MOL0     H40046   6.874   0.020   2.831  0.6695  0.1076 -0.5233
 1015MOL0     H40047   6.790   0.142   2.930 -3.2563  0.6558 -1.1901
 1015MOL0     H40048   6.904   0.212   2.654  1.8004  1.4762  0.9947
 1015MOL0     H40049   6.999   0.243   2.790 -0.2052  1.2561  0.1105
 1015MOL0     H40050   6.099  -0.237   2.523 -1.2292 -0.2938 -2.3451
 1015MOL0     H40051   5.925  -0.141   2.373 -0.8603 -0.5772 -0.1076
 1015MOL0     H40052   5.409   0.174   2.573  0.1497 -0.5386 -0.0156
 1015MOL0     H40053   5.233   0.303   2.434 -0.2697 -0.9169 -0.1413
 1015MOL0     H40054   4.775   0.857   0.717 -6.4301  1.6584 -0.4494
 1015MOL0     H40055   4.545   0.765   0.618 -0.6199 -0.6419  0.1870
 1015MOL0     H40056   4.418   0.218   0.528 -0.8403 -1.0196  0.4378
 1015MOL0     H40057   4.189   0.119   0.517  0.9451 -2.5568 -4.4478
 1015MOL0     H40058   3.956   0.250   0.181 -1.5020  3.3263 -0.2002
 1015MOL0     H40059   3.837   0.141   0.261  0.7616 -0.7157 -3.5730
 1015MOL0     H40060   3.873   0.435   0.325  0.0338 -0.2827  1.9386
 1015MOL0     H40061   3.758   0.323   0.397  1.3099  1.5891  0.7743
 1015MOL0     H40062   3.764   0.408   0.107  1.5916 -1.1867  0.7752
 1015MOL0     H40063   3.643   0.302   0.154  0.1672 -1.0246  0.6994
 1015MOL0     H40064   3.553   0.536   0.140  0.1988  1.8035 -0.7166
 1015MOL0     H40065   3.658   0.587   0.270 -3.0358  0.4088 -0.1042
 1015MOL0     H40066   3.383   0.404   0.517 -0.5395 -0.3774 -0.7544
 1015MOL0     H40067   4.078   0.446   0.250  0.4431  0.2096 -0.8926
 1015MOL0     H40068   4.374   0.623   0.288 -1.4993 -0.1492  2.1046
 1015MOL0     H40069   4.340   0.525   0.141  1.4057  0.0765  0.1765
 1015MOL0     H40070   4.213   0.629   0.230  1.5496 -0.3732  0.7776
 1016MOL0     O40071   6.900   2.703   5.843  0.7410 -0.2971 -0.6179
 1016MOL0     C40072   6.903   2.821   5.822 -0.3012 -0.0797 -0.9489
 1016MOL0     O40073   7.006   2.888   5.748  0.6903 -0.3038 -0.2800
 1016MOL0     C40074   7.090   2.808   5.688 -0.4082  1.2394  0.0482
 1016MOL0     C40075   7.204   2.769   5.763 -1.1104  0.1676  0.0550
 1016MOL0     C40076   7.309   2.702   5.695  0.5945 -0.1150  0.2318
 1016MOL0     C40077   7.305   2.676   5.558  0.3681 -0.5345 -0.6146
 1016MOL0     O40078   7.420   2.618   5.509 -0.3688  0.8605 -0.1205
 1016MOL0     C40079   7.438   2.605   5.365 -0.0696 -0.2071  0.1186
 1016MOL0     C40080   7.584   2.583   5.345  0.3324  0.4017 -0.2056
 1016MOL0     C40081   7.625   2.557   5.202  0.3958  0.9000  0.7173
 1016MOL0     C40082   7.775   2.506   5.198  0.2530 -0.1352  0.0218
 1016MOL0     C40083   7.821   2.458   5.055  0.2526  0.0524 -0.6049
 1016MOL0     C40084   7.956   2.399   5.073  1.0492  0.1251  0.0419
 1016MOL0     C40085   8.079   2.492   5.069  0.7045 -0.2277  0.2237
 1016MOL0     C40086   8.204   2.430   5.120  1.0418 -0.2321 -1.1597
 1016MOL0     N40087   8.327   2.441   5.040 -0.6806  0.2381  0.1664
 1016MOL0     C40088   8.404   2.549   5.013 -0.1431 -0.0148 -0.2880
 1016MOL0     C40089   8.505   2.505   4.927 -0.5495  0.1663  0.8451
 1016MOL0     C40090   8.612   2.597   4.866  0.1947 -0.4142 -0.2170
 1016MOL0     C40091   8.644   2.719   4.962  0.0834 -0.0456  0.0780
 1016MOL0     C40092   8.700   2.680   5.100  0.2667  0.8602 -0.6157
 1016MOL0     C40093   8.852   2.657   5.088  0.1374  0.8931  0.1845
 1016MOL0     O40094   8.912   2.603   5.210  0.6449  0.1311 -0.0371
 1016MOL0     C40095   9.044   2.607   5.229 -0.1740  0.1124  0.0422
 1016MOL0     C40096   9.128   2.703   5.172 -0.0655 -0.3313 -0.2715
 1016MOL0     C40097   9.268   2.685   5.173 -0.0667 -1.0386  0.1172
 1016MOL0     C40098   9.353   2.779   5.091  0.0789  0.5032  0.1170
 1016MOL0     C40099   9.323   2.571   5.244 -0.0492  0.1952 -0.8834
 1016MOL0     C40100   9.470   2.539   5.253  0.4176 -0.5446 -0.9914
 1016MOL0     O40101   9.501   2.406   5.235  0.7719  0.9906 -1.1502
 1016MOL0     C40102   9.629   2.365   5.220 -0.3999 -0.0362 -1.4027
 1016MOL0     C40103   9.724   2.445   5.158  0.2216 -0.3291  0.9116
 1016MOL0     C40104   9.854   2.393   5.141  0.4132 -0.7698 -0.7362
 1016MOL0     C40105   9.895   2.275   5.206  0.4461  0.6026 -0.4016
 1016MOL0     O40106  10.024   2.234   5.211 -0.2239  0.1131  0.6411
 1016MOL0     C40107  10.131   2.335   5.200 -0.1038  0.2279 -0.1160
 1016MOL0     C40108  10.276   2.286   5.197  0.0738 -0.0041 -0.3305
 1016MOL0     C40109  10.310   2.160   5.130  0.5546 -0.5106  0.7588
 1016MOL0     C40110  10.439   2.100   5.188  0.1420  0.1941  0.0824
 1016MOL0     C40111  10.499   1.986   5.109  0.1712  0.7149  0.4233
 1016MOL0     C40112  10.648   1.968   5.127  0.3367 -0.3143  0.4924
 1016MOL0     C40113  10.713   1.868   5.030 -0.7505  0.3727 -0.0363
 1016MOL0     C40114  10.865   1.860   5.056 -0.4799  1.3511 -0.2872
 1016MOL0    Cl40115  10.900   1.774   5.210 -0.2369 -0.1999 -0.1150
 1016MOL0     C40116   9.798   2.204   5.281 -0.1040 -0.1469 -0.8007
 1016MOL0     C40117   9.666   2.251   5.287 -0.5037 -0.2147  0.5733
 1016MOL0     O40118   9.549   2.626   5.275 -0.4868  0.0925  0.3646
 1016MOL0     C40119   9.229   2.488   5.303  0.4060  0.2215 -0.4660
 1016MOL0     C40120   9.089   2.495   5.293 -0.1831  0.3013  0.3475
 1016MOL0     N40121   8.498   2.367   4.926 -0.1856 -0.0690 -0.0752
 1016MOL0     N40122   8.390   2.330   4.993 -0.4928  0.1470  0.3576
 1016MOL0     C40123   7.185   2.716   5.487 -0.5887 -0.8967  0.0290
 1016MOL0     C40124   7.078   2.788   5.552 -0.1424 -0.2770  0.6374
 1016MOL0     C40125   6.804   2.911   5.884 -0.2904  0.6032  0.3164
 1016MOL0     C40126   6.847   3.038   5.906 -0.4066 -0.9847 -0.3385
 1016MOL0     C40127   6.766   3.135   5.972 -0.4210  0.9630  0.3089
 1016MOL0     C40128   6.655   3.086   6.036 -0.3476 -0.4136 -0.5269
 1016MOL0     O40129   6.608   3.173   6.127  0.2525 -0.2033  0.5721
 1016MOL0     C40130   6.507   3.135   6.219 -1.4364  0.1501  1.1515
 1016MOL0     C40131   6.374   3.161   6.143 -0.0076  0.2875 -0.1606
 1016MOL0     C40132   6.266   3.076   6.208 -0.3424 -0.7208 -0.1805
 1016MOL0     C40133   6.137   3.107   6.136  0.3425  0.2526 -0.2536
 1016MOL0     C40134   6.023   3.060   6.212  0.5317 -0.0725 -0.1235
 1016MOL0     C40135   5.926   3.022   6.272 -0.6269  0.0901 -0.4355
 1016MOL0     C40136   6.609   2.956   6.023 -0.5434 -0.6831 -0.4695
 1016MOL0     C40137   6.676   2.876   5.935 -0.7862 -0.2210 -0.1579
 1016MOL0     C40138   6.609   2.739   5.923  0.7513 -0.8277  0.1246
 1016MOL0     H40139   7.213   2.778   5.871  0.7263  2.0439 -0.1842
 1016MOL0     H40140   7.389   2.657   5.754 -0.4156  0.3022  2.0021
 1016MOL0     H40141   7.414   2.699   5.315 -0.3287 -0.2859  0.0944
 1016MOL0     H40142   7.376   2.521   5.333  1.4053 -2.2075  2.1676
 1016MOL0     H40143   7.630   2.678   5.374  1.2300  0.2163 -0.9794
 1016MOL0     H40144   7.622   2.505   5.412 -0.8259 -0.7119 -0.8064
 1016MOL0     H40145   7.566   2.478   5.155  2.4586 -1.4617  1.8959
 1016MOL0     H40146   7.619   2.650   5.144  1.9754  1.1118  0.8590
 1016MOL0     H40147   7.838   2.590   5.229  0.8318 -0.8407  0.8081
 1016MOL0     H40148   7.797   2.433   5.276  1.4071  0.6182  0.4169
 1016MOL0     H40149   7.827   2.547   4.992 -0.5437  1.4896  1.2536
 1016MOL0     H40150   7.751   2.379   5.026  1.4177 -2.0913  1.9570
 1016MOL0     H40151   7.956   2.341   5.166  0.5133  0.2434  0.1185
 1016MOL0     H40152   7.962   2.317   5.002 -0.2813 -0.7938  0.9464
 1016MOL0     H40153   8.053   2.581   5.127 -1.9819  0.4221 -1.7652
 1016MOL0     H40154   8.098   2.521   4.966 -0.6124  2.0123  0.5512
 1016MOL0     H40155   8.217   2.472   5.221 -1.3618  0.7783 -1.2038
 1016MOL0     H40156   8.173   2.326   5.135 -2.8115  0.9387  0.2185
 1016MOL0     H40157   8.371   2.651   5.029  0.4862  0.4421 -1.7560
 1016MOL0     H40158   8.568   2.638   4.775 -4.2748  1.4989  2.4216
 1016MOL0     H40159   8.698   2.535   4.841 -0.8745 -2.5332  1.0819
 1016MOL0     H40160   8.711   2.787   4.910 -1.6673  2.1693  0.5821
 1016MOL0     H40161   8.554   2.777   4.983 -0.5356 -0.9509  0.0161
 1016MOL0     H40162   8.678   2.761   5.170  0.2029 -0.1258  0.5563
 1016MOL0     H40163   8.651   2.597   5.151  1.3046  0.5431 -0.0885
 1016MOL0     H40164   8.867   2.587   5.006  1.7325  0.7991  0.5344
 1016MOL0     H40165   8.890   2.754   5.053  0.5374 -0.4923 -3.6511
 1016MOL0     H40166   9.088   2.793   5.125  0.1610  0.5425  1.1485
 1016MOL0     H40167   9.361   2.870   5.152 -2.2423 -0.9997  2.9370
 1016MOL0     H40168   9.300   2.801   4.998  1.3763 -0.2961 -0.8286
 1016MOL0     H40169   9.454   2.748   5.065  1.7107  1.0454  4.8582
 1016MOL0     H40170   9.690   2.538   5.115 -0.2916 -1.0377 -0.2526
 1016MOL0     H40171   9.915   2.463   5.085  1.2171 -1.1159 -0.3282
 1016MOL0     H40172  10.114   2.387   5.105  0.3403  0.9317  0.1863
 1016MOL0     H40173  10.113   2.412   5.275  1.6119 -0.3564  0.9550
 1016MOL0     H40174  10.333   2.364   5.145 -0.6584  0.0590 -1.0624
 1016MOL0     H40175  10.322   2.274   5.295 -0.3886 -2.5130 -0.3652
 1016MOL0     H40176  10.329   2.184   5.025 -1.4090  0.7646  0.6617
 1016MOL0     H40177  10.233   2.082   5.124  0.9294 -0.8093 -3.6277
 1016MOL0     H40178  10.418   2.056   5.286 -2.6028 -0.6139 -0.7761
 1016MOL0     H40179  10.505   2.187   5.196  1.3386 -0.2775 -3.2804
 1016MOL0     H40180  10.449   1.892   5.135 -0.0434  0.2818 -1.4581
 1016MOL0     H40181  10.475   1.997   5.003 -2.3900  0.8736  0.9502
 1016MOL0     H40182  10.667   1.938   5.231  0.3368  2.6308  1.4346
 1016MOL0     H40183  10.690   2.067   5.105 -0.7169 -0.2577 -1.4187
 1016MOL0     H40184  10.674   1.886   4.930  1.8680  0.3534 -1.1290
 1016MOL0     H40185  10.673   1.767   5.048 -1.9921  0.3881 -2.4094
 1016MOL0     H40186  10.902   1.963   5.063 -2.3414  2.1030 -1.0503
 1016MOL0     H40187  10.915   1.806   4.975  0.2408  2.3304 -0.5185
 1016MOL0     H40188   9.829   2.118   5.339  0.0454 -1.7541 -3.1511
 1016MOL0     H40189   9.599   2.189   5.346  0.0080 -0.5610  0.8034
 1016MOL0     H40190   9.265   2.401   5.357  0.4462  0.8200  0.4824
 1016MOL0     H40191   9.036   2.414   5.342  0.2378  0.6445  1.3863
 1016MOL0     H40192   7.173   2.699   5.381  3.8944  0.4667 -0.9187
 1016MOL0     H40193   6.996   2.833   5.497  1.2847 -1.2211 -2.5070
 1016MOL0     H40194   6.944   3.069   5.870  0.9085 -4.4471 -0.1820
 1016MOL0     H40195   6.808   3.234   5.987  1.0713  0.0849  2.6136
 1016MOL0     H40196   6.527   3.031   6.244 -0.1354  0.0136 -0.3011
 1016MOL0     H40197   6.511   3.190   6.314 -1.5005 -1.7865  2.3161
 1016MOL0     H40198   6.370   3.137   6.037 -1.8051 -0.1456 -0.0166
 1016MOL0     H40199   6.352   3.267   6.161 -0.4108  0.1418  0.2377
 1016MOL0     H40200   6.293   2.970   6.208  2.0156 -0.1604 -0.5615
 1016MOL0     H40201   6.263   3.108   6.313 -0.3488  0.1434 -0.4382
 1016MOL0     H40202   6.153   3.059   6.039  1.2783  5.8143 -3.2809
 1016MOL0     H40203   6.137   3.212   6.104  0.0449  0.4610  0.4132
 1016MOL0     H40204   5.832   2.990   6.313 -0.1121  1.9978  2.5922
 1016MOL0     H40205   6.523   2.916   6.074  0.5189 -1.3617  0.8291
 1016MOL0     H40206   6.652   2.660   5.986 -3.2354 -2.0971  1.5647
 1016MOL0     H40207   6.501   2.737   5.941  0.1877 -4.0534 -2.5909
 1016MOL0     H40208   6.621   2.707   5.819  1.0813 -2.8512  0.7292
 1017MOL0     O40209   4.260   6.487   4.874  0.3594 -0.1911  0.5414
 1017MOL0     C40210   4.205   6.447   4.972  0.4654  0.5788 -0.4296
 1017MOL0     O40211   4.272   6.377   5.072 -0.8667  0.0901 -0.0779
 1017MOL0     C40212   4.407   6.361   5.057 -0.2499  0.1732 -0.2759
 1017MOL0     C40213   4.460   6.247   4.995  0.0056 -0.7466 -0.5306
 1017MOL0     C40214   4.598   6.236   4.991  0.1471  0.4841  0.9436
 1017MOL0     C40215   4.685   6.317   5.059 -0.5485 -0.5192 -0.5587
 1017MOL0     O40216   4.824   6.293   5.060  0.6403 -0.1838  0.2425
 1017MOL0     C40217   4.909   6.415   5.048  0.0755 -0.1801 -0.0124
 1017MOL0     C40218   5.042   6.370   5.004 -0.5424  0.0341 -0.0525
 1017MOL0     C40219   5.141   6.484   5.021 -0.2865  1.6945 -0.6681
 1017MOL0     C40220   5.283   6.459   4.981  0.7417 -0.4406  0.4714
 1017MOL0     C40221   5.362   6.588   4.991 -0.3207  0.0903 -0.0063
 1017MOL0     C40222   5.516   6.567   4.975 -0.6142 -0.1004  0.2554
 1017MOL0     C40223   5.573   6.509   5.107  0.1352  0.4137 -0.3392
 1017MOL0     C40224   5.726   6.515   5.093 -0.7120 -0.5193  0.5047
 1017MOL0     N40225   5.788   6.470   5.213 -0.6261 -0.3058 -0.2549
 1017MOL0     C40226   5.767   6.525   5.343  0.8055 -0.8358  0.3382
 1017MOL0     C40227   5.865   6.475   5.423 -0.3388 -0.6975 -0.2155
 1017MOL0     C40228   5.890   6.503   5.573  0.2729 -0.0462  0.4311
 1017MOL0     C40229   5.999   6.595   5.599 -0.1852  1.1255 -0.6548
 1017MOL0     C40230   5.962   6.734   5.555 -1.2982 -0.8012 -0.0448
 1017MOL0     C40231   6.084   6.826   5.565 -0.0249  0.2602  0.1821
 1017MOL0     O40232   6.139   6.831   5.698  0.0188  0.1343 -0.3217
 1017MOL0     C40233   6.262   6.891   5.720  0.0591  0.0656 -0.1752
 1017MOL0     C40234   6.320   6.865   5.839 -0.3246 -0.2877  0.5131
 1017MOL0     C40235   6.450   6.923   5.867  0.5852  0.0443 -0.0012
 1017MOL0     C40236   6.498   6.890   6.009  0.3133 -0.3246  0.0217
 1017MOL0     C40237   6.526   6.997   5.769 -0.4779 -0.0223  0.1697
 1017MOL0     C40238   6.661   7.065   5.786  0.0542 -0.2804  0.6225
 1017MOL0     O40239   6.734   7.024   5.892  0.2166 -0.0032  0.1381
 1017MOL0     C40240   6.862   7.077   5.893 -0.3536 -0.0223  0.1069
 1017MOL0     C40241   6.957   7.018   5.814 -1.2731 -1.0885  0.2364
 1017MOL0     C40242   7.092   7.053   5.824 -0.4083 -0.0073 -0.4418
 1017MOL0     C40243   7.131   7.137   5.926 -0.7479  0.1696 -0.5000
 1017MOL0     O40244   7.263   7.189   5.946 -0.0259  0.5972  0.3517
 1017MOL0     C40245   7.369   7.110   5.885 -0.6374  1.4475 -0.3866
 1017MOL0     C40246   7.505   7.151   5.942 -0.6805  0.3831 -0.1908
 1017MOL0     C40247   7.613   7.048   5.886 -0.8236  0.4773  0.4573
 1017MOL0     C40248   7.745   7.102   5.936 -0.2863 -0.3080 -0.7984
 1017MOL0     C40249   7.873   7.033   5.885 -0.1057  0.6525  0.1581
 1017MOL0     C40250   7.997   7.108   5.941  0.6270  0.1482  0.6319
 1017MOL0     C40251   8.002   7.114   6.099 -0.8117  0.1390  0.8157
 1017MOL0     C40252   8.134   7.174   6.138 -0.6877 -0.2629 -0.1842
 1017MOL0    Cl40253   8.277   7.082   6.071 -0.3806 -0.0484  0.3535
 1017MOL0     C40254   7.033   7.194   6.006 -0.2661  0.4743  0.4372
 1017MOL0     C40255   6.893   7.163   5.997 -0.5435 -0.7346  0.6629
 1017MOL0     O40256   6.695   7.155   5.707  0.0584  0.4669  0.8551
 1017MOL0     C40257   6.463   7.004   5.645 -0.6213  0.2113  0.0122
 1017MOL0     C40258   6.332   6.960   5.628 -0.2850 -0.6909 -0.6875
 1017MOL0     N40259   5.943   6.393   5.339  0.0814  0.3925 -0.2868
 1017MOL0     N40260   5.898   6.391   5.223  0.2610  0.6941  0.3102
 1017MOL0     C40261   4.625   6.425   5.127 -0.0196  0.6789 -0.4162
 1017MOL0     C40262   4.492   6.452   5.130  0.0096 -0.4956  1.1062
 1017MOL0     C40263   4.062   6.466   5.002 -0.0772  0.1962  0.7658
 1017MOL0     C40264   4.009   6.398   5.113  0.1007  0.0633 -0.2066
 1017MOL0     C40265   3.877   6.411   5.153  0.2075  0.5548  0.1495
 1017MOL0     C40266   3.788   6.496   5.083 -0.2049  0.3390  0.0920
 1017MOL0     O40267   3.663   6.524   5.133 -0.2344  0.7255  0.4051
 1017MOL0     C40268   3.562   6.572   5.036  0.1154 -0.2082 -0.3623
 1017MOL0     C40269   3.414   6.570   5.087 -0.3685  1.0854 -0.0328
 1017MOL0     C40270   3.385   6.434   5.156  0.9522  0.4157  0.1603
 1017MOL0     C40271   3.236   6.421   5.209  0.0268  0.2803 -0.3569
 1017MOL0     C40272   3.143   6.367   5.111 -1.0772 -0.4221 -0.4347
 1017MOL0     C40273   3.057   6.318   5.047  0.1982  0.6984 -0.1110
 1017MOL0     C40274   3.847   6.559   4.972  0.3749  0.5167  0.3112
 1017MOL0     C40275   3.978   6.542   4.926  1.0620 -0.3556 -0.7325
 1017MOL0     C40276   4.028   6.628   4.807  0.0564  0.1455 -0.1162
 1017MOL0     H40277   4.387   6.184   4.944 -1.1216  0.8116 -0.9059
 1017MOL0     H40278   4.664   6.169   4.938  4.2173  2.2007  3.3341
 1017MOL0     H40279   4.909   6.465   5.146 -0.2130  0.5292 -0.3700
 1017MOL0     H40280   4.866   6.488   4.978 -1.9723 -2.3221 -1.1581
 1017MOL0     H40281   5.081   6.296   5.074 -1.4789  0.2521  0.7206
 1017MOL0     H40282   5.032   6.335   4.900 -2.3541  0.0793  0.0753
 1017MOL0     H40283   5.100   6.570   4.968  0.7235  2.2208 -0.6290
 1017MOL0     H40284   5.134   6.522   5.123  0.8418 -2.3915  1.1243
 1017MOL0     H40285   5.321   6.378   5.044  3.1517  0.3848  0.1895
 1017MOL0     H40286   5.295   6.429   4.876  0.7832  2.8086 -0.5434
 1017MOL0     H40287   5.337   6.638   5.085 -0.4604  1.7639 -0.9060
 1017MOL0     H40288   5.334   6.658   4.912  1.0811  2.5364  1.5180
 1017MOL0     H40289   5.537   6.505   4.888  0.1885  3.0779 -2.0141
 1017MOL0     H40290   5.554   6.669   4.964 -1.1492  0.3265  1.9403
 1017MOL0     H40291   5.544   6.407   5.131  0.2117  0.7138  1.1082
 1017MOL0     H40292   5.539   6.567   5.193 -2.0042  0.5637 -1.2407
 1017MOL0     H40293   5.746   6.434   5.021  3.3217  0.9628 -0.3060
 1017MOL0     H40294   5.763   6.607   5.047 -0.0388 -2.6226 -3.6339
 1017MOL0     H40295   5.699   6.602   5.380 -0.2912 -1.8792  0.5702
 1017MOL0     H40296   5.917   6.411   5.625  0.7042  0.3474  0.9085
 1017MOL0     H40297   5.797   6.538   5.619 -0.5116  0.0816 -1.1775
 1017MOL0     H40298   6.012   6.591   5.707  2.1172 -0.2314 -0.9224
 1017MOL0     H40299   6.095   6.568   5.555  1.5598  2.7528  1.8954
 1017MOL0     H40300   5.913   6.730   5.457  3.0351 -0.7206 -2.4289
 1017MOL0     H40301   5.894   6.771   5.633 -1.4268 -0.1283 -0.4701
 1017MOL0     H40302   6.156   6.802   5.486 -2.0900 -0.4138 -1.5892
 1017MOL0     H40303   6.051   6.929   5.548 -1.7252 -0.4398 -1.0480
 1017MOL0     H40304   6.243   6.827   5.905 -2.2648 -0.0904 -1.5290
 1017MOL0     H40305   6.603   6.865   6.022  0.0993 -0.6840  1.2616
 1017MOL0     H40306   6.436   6.805   6.040  2.8701 -2.2198  0.2853
 1017MOL0     H40307   6.482   6.977   6.073  2.4765  0.7953 -0.8706
 1017MOL0     H40308   6.917   6.946   5.743 -1.2314 -3.0931  2.1345
 1017MOL0     H40309   7.166   7.012   5.756 -1.8048 -1.6885 -1.0231
 1017MOL0     H40310   7.355   7.005   5.910  0.6605  1.3398 -0.0419
 1017MOL0     H40311   7.370   7.126   5.776 -1.5657  4.9871  0.0004
 1017MOL0     H40312   7.523   7.250   5.900  1.9502 -0.1053 -0.3770
 1017MOL0     H40313   7.506   7.144   6.051  0.1621 -0.4163 -0.2393
 1017MOL0     H40314   7.605   7.049   5.777  0.2478  0.2251  0.3664
 1017MOL0     H40315   7.600   6.944   5.918 -1.4231 -0.6943 -3.1176
 1017MOL0     H40316   7.742   7.085   6.044  0.5478 -4.4755 -1.2726
 1017MOL0     H40317   7.751   7.210   5.916  2.0311  0.1023  1.6241
 1017MOL0     H40318   7.865   6.928   5.911 -0.6853  0.4328 -0.8617
 1017MOL0     H40319   7.873   7.030   5.776 -0.7295  0.4383  0.1633
 1017MOL0     H40320   8.013   7.207   5.899  1.5105 -0.2029  0.1186
 1017MOL0     H40321   8.078   7.039   5.918  0.5444 -0.8569  3.0135
 1017MOL0     H40322   7.983   7.018   6.147 -3.1676 -0.6545 -1.4758
 1017MOL0     H40323   7.923   7.180   6.136  1.6351  4.0213 -0.2392
 1017MOL0     H40324   8.129   7.178   6.247  0.5587  2.2458 -0.1438
 1017MOL0     H40325   8.139   7.279   6.110 -2.4452  0.6339  2.4983
 1017MOL0     H40326   7.060   7.251   6.094  3.4947 -0.7575  0.2431
 1017MOL0     H40327   6.809   7.207   6.050 -0.4315 -1.8412  1.8276
 1017MOL0     H40328   6.518   7.049   5.563  0.5738  0.5856  0.9864
 1017MOL0     H40329   6.296   6.982   5.527  0.3474 -0.3941 -0.8557
 1017MOL0     H40330   4.696   6.491   5.176 -1.0908  0.3427  1.7103
 1017MOL0     H40331   4.454   6.542   5.177  1.3943 -0.1631  1.6308
 1017MOL0     H40332   4.070   6.333   5.175  0.0776  0.3931  0.1684
 1017MOL0     H40333   3.833   6.374   5.245 -1.9481 -1.0360 -1.4181
 1017MOL0     H40334   3.592   6.668   4.995 -0.9758 -0.6051 -2.2145
 1017MOL0     H40335   3.575   6.504   4.951 -1.8884  0.2474 -1.0899
 1017MOL0     H40336   3.349   6.586   5.001 -0.4165 -0.1842 -0.2594
 1017MOL0     H40337   3.393   6.651   5.158  0.4403  1.6655 -0.4392
 1017MOL0     H40338   3.399   6.354   5.082  2.4475  2.3707 -1.8152
 1017MOL0     H40339   3.448   6.427   5.245 -1.5756 -2.6931  1.8922
 1017MOL0     H40340   3.204   6.523   5.235  0.8075  0.9535 -1.9385
 1017MOL0     H40341   3.247   6.356   5.296  1.7171  1.7939  0.6251
 1017MOL0     H40342   2.983   6.269   4.987 -0.2827 -1.3606  2.0034
 1017MOL0     H40343   3.797   6.630   4.907 -1.4107 -1.4014 -0.5506
 1017MOL0     H40344   4.073   6.718   4.849 -1.6922  0.8137  0.3856
 1017MOL0     H40345   4.090   6.563   4.744 -3.4871 -3.4318 -0.2912
 1017MOL0     H40346   3.943   6.666   4.750  0.5046  3.0737  0.9834
 1018MOL0     O40347   5.148   4.500   7.714  0.2913  0.2381  0.6601
 1018MOL0     C40348   5.083   4.564   7.797  0.0790  0.1866  0.6711
 1018MOL0     O40349   5.137   4.645   7.895  0.0968 -0.2359 -0.3272
 1018MOL0     C40350   5.272   4.670   7.892 -0.1806 -0.3765  0.7088
 1018MOL0     C40351   5.352   4.592   7.974  0.3895  0.8783  0.3459
 1018MOL0     C40352   5.486   4.616   7.984 -0.2139  0.2825  0.9014
 1018MOL0     C40353   5.548   4.715   7.915 -0.0719 -0.5536 -0.9034
 1018MOL0     O40354   5.679   4.751   7.929  1.1294  0.2029  0.1092
 1018MOL0     C40355   5.761   4.676   8.023  0.8794  0.3153  0.4772
 1018MOL0     C40356   5.905   4.729   8.015  0.8753  0.3648 -0.5646
 1018MOL0     C40357   5.996   4.660   8.118  0.0824 -0.4046  0.1274
 1018MOL0     C40358   6.137   4.707   8.090 -0.7571  0.5582  0.1408
 1018MOL0     C40359   6.241   4.611   8.145  1.0472  0.2341  0.7966
 1018MOL0     C40360   6.386   4.662   8.141  0.0491 -0.2234  0.4758
 1018MOL0     C40361   6.416   4.800   8.212 -0.2718  0.4184 -0.5679
 1018MOL0     C40362   6.538   4.808   8.298  0.1974 -1.0894 -0.3490
 1018MOL0     N40363   6.575   4.944   8.333  0.1396 -0.4458  0.1432
 1018MOL0     C40364   6.690   4.965   8.402 -0.5126 -0.2278  0.5005
 1018MOL0     C40365   6.704   5.094   8.431 -0.0628  0.1759  0.2900
 1018MOL0     C40366   6.800   5.154   8.533  0.2236 -0.8900  0.4538
 1018MOL0     C40367   6.901   5.239   8.452 -0.5444 -0.1937  0.5455
 1018MOL0     C40368   6.988   5.301   8.556 -0.2636  0.3647  0.3372
 1018MOL0     C40369   7.030   5.433   8.502  0.3545  0.3453 -0.4022
 1018MOL0     O40370   7.116   5.502   8.595  0.0312  0.1140  0.6676
 1018MOL0     C40371   7.196   5.599   8.546 -0.2142 -0.0382  0.7719
 1018MOL0     C40372   7.197   5.645   8.408 -1.4532 -0.2961 -0.7422
 1018MOL0     C40373   7.287   5.743   8.361 -0.1443 -0.0907 -0.0253
 1018MOL0     C40374   7.277   5.783   8.213  0.3496  0.9559 -0.6858
 1018MOL0     C40375   7.370   5.809   8.463 -0.9360 -0.1320  1.2912
 1018MOL0     C40376   7.467   5.926   8.429  0.1278  0.3164  0.0720
 1018MOL0     O40377   7.532   5.984   8.537 -0.4552  0.1561  0.6907
 1018MOL0     C40378   7.589   6.100   8.517 -0.4897  0.3769 -0.6460
 1018MOL0     C40379   7.721   6.123   8.552  0.0679  0.5859 -0.5698
 1018MOL0     C40380   7.780   6.249   8.546 -0.5528 -0.5236  0.2574
 1018MOL0     C40381   7.698   6.357   8.510 -0.5740 -0.4234  0.3944
 1018MOL0     O40382   7.737   6.491   8.525 -0.3805  0.1642 -0.0824
 1018MOL0     C40383   7.880   6.520   8.519  0.3028  0.6974  0.1918
 1018MOL0     C40384   7.918   6.665   8.548  0.0661  1.6537  0.1198
 1018MOL0     C40385   7.861   6.717   8.676 -0.3728 -0.3535  0.7156
 1018MOL0     C40386   7.923   6.853   8.711  0.4324  0.0902 -0.4335
 1018MOL0     C40387   8.067   6.838   8.753  0.3050 -0.0633  0.3981
 1018MOL0     C40388   8.133   6.961   8.805 -0.1944 -0.5173 -0.6374
 1018MOL0     C40389   8.043   7.033   8.916  0.2146  0.4082  0.2160
 1018MOL0     C40390   8.123   7.144   8.995 -0.1943  0.2033  0.9158
 1018MOL0    Cl40391   8.245   7.087   9.115  0.2105  0.0221 -0.1565
 1018MOL0     C40392   7.566   6.341   8.477 -0.2099  0.4351 -0.1527
 1018MOL0     C40393   7.513   6.216   8.475 -0.7089  0.8422  0.8906
 1018MOL0     O40394   7.462   5.973   8.313  0.4191  0.1038  0.2642
 1018MOL0     C40395   7.365   5.761   8.596 -0.7280 -0.8026  0.6341
 1018MOL0     C40396   7.279   5.663   8.631  0.0189  0.1648 -0.1798
 1018MOL0     N40397   6.595   5.152   8.378 -0.5880 -0.3249 -0.6879
 1018MOL0     N40398   6.521   5.071   8.313  0.0476 -0.4794  0.1241
 1018MOL0     C40399   5.471   4.797   7.833  0.6485  0.5388  0.0890
 1018MOL0     C40400   5.331   4.779   7.822  0.1363 -0.4001  0.7154
 1018MOL0     C40401   4.932   4.544   7.791 -0.1298  0.7977  0.0144
 1018MOL0     C40402   4.853   4.550   7.906 -0.0728 -0.2118  0.3444
 1018MOL0     C40403   4.718   4.521   7.903 -0.6289 -0.0080 -0.1512
 1018MOL0     C40404   4.660   4.510   7.782  0.5409  0.1672 -0.8624
 1018MOL0     O40405   4.520   4.486   7.785  0.7625 -0.5608 -0.0206
 1018MOL0     C40406   4.463   4.394   7.690  0.3467  0.5797 -0.2260
 1018MOL0     C40407   4.337   4.318   7.742 -0.4751  0.3395 -1.3613
 1018MOL0     C40408   4.226   4.403   7.809 -0.4994 -0.8602  1.0439
 1018MOL0     C40409   4.199   4.532   7.727  0.4156  0.1571 -0.0744
 1018MOL0     C40410   4.073   4.589   7.768  0.2881 -0.5829 -0.5473
 1018MOL0     C40411   3.960   4.640   7.776  0.0625  0.5032 -1.0050
 1018MOL0     C40412   4.728   4.521   7.665 -0.2674 -0.2254  0.5780
 1018MOL0     C40413   4.866   4.542   7.665 -0.4844  0.2113 -0.2833
 1018MOL0     C40414   4.934   4.565   7.531  0.5904 -0.0988 -0.3267
 1018MOL0     H40415   5.301   4.516   8.032 -2.0043  1.9951 -0.1521
 1018MOL0     H40416   5.549   4.553   8.045  3.5121  1.7609 -1.1262
 1018MOL0     H40417   5.777   4.574   7.988  1.6289  0.5542  0.1118
 1018MOL0     H40418   5.709   4.674   8.120 -0.7747 -3.1379 -0.3161
 1018MOL0     H40419   5.945   4.712   7.915 -0.9929  1.6633 -1.5788
 1018MOL0     H40420   5.898   4.837   8.030 -2.6886  0.0720  0.7455
 1018MOL0     H40421   5.979   4.689   8.222 -0.5198  1.9219 -0.5531
 1018MOL0     H40422   5.988   4.551   8.122 -0.1740 -0.5767 -2.6759
 1018MOL0     H40423   6.155   4.732   7.985 -1.2483 -1.8882 -0.5798
 1018MOL0     H40424   6.147   4.800   8.146 -1.3897  1.3837 -1.0598
 1018MOL0     H40425   6.229   4.518   8.089 -0.4154 -0.5835  2.3684
 1018MOL0     H40426   6.217   4.572   8.244  2.5055 -0.4314  0.9017
 1018MOL0     H40427   6.452   4.585   8.181  1.7787  0.6786 -0.5099
 1018MOL0     H40428   6.406   4.681   8.035 -1.7424 -0.4483  0.0666
 1018MOL0     H40429   6.336   4.834   8.277 -0.3260  0.2637 -0.5535
 1018MOL0     H40430   6.419   4.873   8.130 -0.5190  2.1234  0.8866
 1018MOL0     H40431   6.511   4.744   8.383 -1.3184 -2.0160 -1.4796
 1018MOL0     H40432   6.622   4.754   8.253  1.2423 -1.7057  2.1619
 1018MOL0     H40433   6.768   4.892   8.419 -0.0583 -0.2402 -1.4361
 1018MOL0     H40434   6.857   5.080   8.589  2.7010  2.8153  3.2757
 1018MOL0     H40435   6.726   5.204   8.597 -0.3549 -0.1741 -0.7253
 1018MOL0     H40436   6.954   5.174   8.382 -1.4172 -0.8988  0.5140
 1018MOL0     H40437   6.845   5.325   8.414  0.0917  2.1035  4.2680
 1018MOL0     H40438   6.940   5.310   8.654  0.8606  3.7018  0.7213
 1018MOL0     H40439   7.070   5.229   8.555  0.0151  0.6784  0.7093
 1018MOL0     H40440   7.069   5.423   8.401 -2.0084  2.8395 -1.6958
 1018MOL0     H40441   6.940   5.496   8.494  0.9493  1.3569  0.6448
 1018MOL0     H40442   7.133   5.603   8.331 -1.0087  0.3284 -1.4595
 1018MOL0     H40443   7.259   5.891   8.204  0.6406  0.9005 -2.3052
 1018MOL0     H40444   7.202   5.730   8.154 -1.9162  1.3312  1.7025
 1018MOL0     H40445   7.376   5.754   8.178 -1.9354 -4.1823 -4.0375
 1018MOL0     H40446   7.783   6.041   8.587 -0.3777  0.5428  0.1292
 1018MOL0     H40447   7.880   6.263   8.586 -0.4443  0.7779 -0.4138
 1018MOL0     H40448   7.939   6.460   8.590  3.4267 -0.6670 -3.1915
 1018MOL0     H40449   7.925   6.484   8.426  1.7770  0.3364  0.9968
 1018MOL0     H40450   8.027   6.655   8.549  0.0659  1.3718 -0.8359
 1018MOL0     H40451   7.899   6.720   8.455  1.9615  2.5317  0.2149
 1018MOL0     H40452   7.877   6.649   8.760  0.7476 -0.5307  0.3831
 1018MOL0     H40453   7.753   6.730   8.663 -0.3680  0.1858  1.1859
 1018MOL0     H40454   7.867   6.909   8.786  0.4406 -0.0562 -0.3201
 1018MOL0     H40455   7.925   6.919   8.624  0.4166  1.3360  0.4857
 1018MOL0     H40456   8.067   6.765   8.835  0.5853 -1.2077 -0.5972
 1018MOL0     H40457   8.128   6.802   8.670  0.2429  0.8421 -0.0452
 1018MOL0     H40458   8.157   7.026   8.720 -0.1613 -0.1006 -0.3141
 1018MOL0     H40459   8.233   6.933   8.840 -0.7748  0.6398  2.1688
 1018MOL0     H40460   7.989   6.972   8.989 -2.7916  1.9736 -0.5413
 1018MOL0     H40461   7.967   7.090   8.863  2.0094  2.9390  0.1725
 1018MOL0     H40462   8.044   7.197   9.050 -2.7805 -2.7655  0.3370
 1018MOL0     H40463   8.170   7.217   8.930  0.1193  0.0335  0.9514
 1018MOL0     H40464   7.497   6.421   8.451 -1.2629 -1.0178 -2.1519
 1018MOL0     H40465   7.411   6.206   8.440  0.6001 -0.8628 -3.0899
 1018MOL0     H40466   7.427   5.803   8.675  1.8853  1.3998 -2.3088
 1018MOL0     H40467   7.281   5.633   8.736  1.5397  1.0670  0.0718
 1018MOL0     H40468   5.508   4.880   7.773 -2.6657  0.4454 -2.3243
 1018MOL0     H40469   5.265   4.841   7.763 -0.2700 -0.7142  0.8344
 1018MOL0     H40470   4.905   4.567   7.999  0.7051  0.0067 -0.1171
 1018MOL0     H40471   4.655   4.526   7.991  1.8532 -0.1609  1.7218
 1018MOL0     H40472   4.432   4.444   7.598 -2.0210 -1.8235 -0.8519
 1018MOL0     H40473   4.534   4.313   7.669 -2.2552 -1.5210 -1.5566
 1018MOL0     H40474   4.374   4.238   7.806 -2.4135 -2.8071 -3.8303
 1018MOL0     H40475   4.291   4.262   7.660 -0.2962  0.0992 -1.2975
 1018MOL0     H40476   4.141   4.335   7.793 -0.6985  0.1380 -3.2510
 1018MOL0     H40477   4.245   4.423   7.915  1.6480 -1.2024  0.7684
 1018MOL0     H40478   4.207   4.515   7.620  1.2598 -2.3924  0.3419
 1018MOL0     H40479   4.283   4.595   7.759  0.6334 -1.3091  2.4961
 1018MOL0     H40480   3.864   4.686   7.783  0.1531  0.5621  0.0298
 1018MOL0     H40481   4.672   4.509   7.573  0.8556 -2.9504  0.1479
 1018MOL0     H40482   4.994   4.478   7.501  1.8474  1.7979 -3.9148
 1018MOL0     H40483   4.863   4.578   7.449  0.2234 -0.2467 -0.0336
 1018MOL0     H40484   4.998   4.653   7.541  0.3531  0.0448 -0.0605
 1019MOL0     O40485   4.233   1.136   1.558 -0.6377 -0.4296  0.0247
 1019MOL0     C40486   4.182   1.114   1.451  0.2469  1.0395  0.3753
 1019MOL0     O40487   4.103   1.007   1.430  0.1317 -0.5287 -0.6793
 1019MOL0     C40488   4.093   0.919   1.535  1.1874  0.1747  0.1573
 1019MOL0     C40489   4.124   0.790   1.501 -1.0291  0.8553 -0.4521
 1019MOL0     C40490   4.110   0.683   1.591  0.1674 -0.7848 -0.5862
 1019MOL0     C40491   4.070   0.707   1.724  0.3394 -0.1765 -0.3441
 1019MOL0     O40492   4.044   0.618   1.823  0.4707 -0.1274 -0.4259
 1019MOL0     C40493   4.073   0.474   1.801  0.2104  0.3544 -0.0302
 1019MOL0     C40494   4.099   0.426   1.945 -0.6128  0.0390 -0.0075
 1019MOL0     C40495   4.245   0.467   1.984  0.8747 -0.2162 -0.5105
 1019MOL0     C40496   4.345   0.361   1.951  0.3913 -1.2450 -0.4818
 1019MOL0     C40497   4.483   0.381   2.016 -0.0744 -0.4408  0.4237
 1019MOL0     C40498   4.571   0.256   2.021  0.3299 -0.7809  0.8192
 1019MOL0     C40499   4.566   0.201   2.160  0.3672 -1.3092  0.0715
 1019MOL0     C40500   4.607   0.050   2.174 -0.7144  0.0916 -0.4925
 1019MOL0     N40501   4.737   0.016   2.119 -0.1489  0.4934  0.0748
 1019MOL0     C40502   4.845   0.010   2.200 -0.6735 -0.9225  0.2235
 1019MOL0     C40503   4.948  -0.061   2.133  0.6780 -0.2329  0.1524
 1019MOL0     C40504   5.092  -0.081   2.196  0.5478  0.4819 -0.1718
 1019MOL0     C40505   5.109  -0.060   2.353  0.3606  0.0472  0.0718
 1019MOL0     C40506   5.015  -0.139   2.443  0.3464 -0.1758 -0.4248
 1019MOL0     C40507   5.088  -0.166   2.581  0.1409  0.1290 -0.3473
 1019MOL0     O40508   5.066  -0.042   2.658  0.7453 -0.7590 -0.2148
 1019MOL0     C40509   5.171   0.010   2.730  0.8143  0.4848 -0.6058
 1019MOL0     C40510   5.175   0.139   2.756  0.0755  0.1842  0.0645
 1019MOL0     C40511   5.279   0.212   2.826  0.9224 -0.1391  0.6652
 1019MOL0     C40512   5.262   0.349   2.862  0.7421 -0.1758 -0.2588
 1019MOL0     C40513   5.388   0.140   2.870 -0.6738  0.2089  0.6318
 1019MOL0     C40514   5.512   0.198   2.937  0.3130 -0.7875  0.2187
 1019MOL0     O40515   5.612   0.107   2.973  0.3697 -0.0169  0.4172
 1019MOL0     C40516   5.738   0.150   3.005 -0.1833  0.0859 -0.1739
 1019MOL0     C40517   5.810   0.058   3.082  0.0739 -0.4967 -0.4787
 1019MOL0     C40518   5.938   0.093   3.124  0.7662 -0.7345 -0.1471
 1019MOL0     C40519   6.011   0.204   3.072  0.3118  0.3038 -0.1296
 1019MOL0     O40520   6.148   0.229   3.077  0.5913  0.0140  0.0590
 1019MOL0     C40521   6.232   0.136   3.157 -0.5035  0.1705  0.1856
 1019MOL0     C40522   6.224   0.176   3.302  0.7224 -0.9928 -0.3017
 1019MOL0     C40523   6.276   0.315   3.334  0.3104 -0.0606 -0.6470
 1019MOL0     C40524   6.320   0.334   3.485 -0.4297 -0.1690  1.1440
 1019MOL0     C40525   6.362   0.481   3.510 -0.4043 -0.3557 -0.3555
 1019MOL0     C40526   6.436   0.504   3.641  0.4532  0.4068  0.2575
 1019MOL0     C40527   6.447   0.654   3.654 -0.5578 -0.4719  0.0472
 1019MOL0     C40528   6.565   0.682   3.746 -0.0051  0.0486  0.4932
 1019MOL0    Cl40529   6.521   0.625   3.901 -0.2233 -0.0683 -0.2266
 1019MOL0     C40530   5.932   0.293   2.989 -0.9621 -0.1379 -0.0765
 1019MOL0     C40531   5.803   0.263   2.956 -0.5537 -0.6675  0.5329
 1019MOL0     O40532   5.523   0.320   2.936  0.0509  0.2102 -0.1281
 1019MOL0     C40533   5.384   0.001   2.838 -0.5595  0.0159  0.3526
 1019MOL0     C40534   5.281  -0.067   2.769  0.8717  0.6237 -0.3639
 1019MOL0     N40535   4.890  -0.091   2.010  0.3619 -0.1380  0.9253
 1019MOL0     N40536   4.762  -0.058   2.007 -0.1238 -1.0523  0.4017
 1019MOL0     C40537   4.040   0.836   1.760  0.0484 -0.4252  0.4002
 1019MOL0     C40538   4.050   0.943   1.671 -0.6719 -0.1855  0.6538
 1019MOL0     C40539   4.189   1.199   1.330  0.3220 -0.4179  0.5008
 1019MOL0     C40540   4.130   1.157   1.210  0.1549  0.5847 -0.3074
 1019MOL0     C40541   4.145   1.229   1.094  0.5246 -0.9259  0.2988
 1019MOL0     C40542   4.225   1.345   1.088 -0.2954 -0.4583 -0.0018
 1019MOL0     O40543   4.258   1.406   0.965  0.5531 -1.0474  0.5085
 1019MOL0     C40544   4.284   1.545   0.960 -0.1128 -0.3650  0.7285
 1019MOL0     C40545   4.326   1.582   0.813 -0.1952  0.2555  0.1271
 1019MOL0     C40546   4.217   1.544   0.710  0.7055 -0.0583 -1.4093
 1019MOL0     C40547   4.270   1.561   0.568  0.4645 -0.3562  0.1706
 1019MOL0     C40548   4.391   1.488   0.536  0.0215 -0.3068 -0.3284
 1019MOL0     C40549   4.495   1.427   0.517  0.1655  0.5241  0.3759
 1019MOL0     C40550   4.277   1.396   1.207 -0.0191 -0.4099 -0.6349
 1019MOL0     C40551   4.254   1.323   1.331 -0.0441 -0.6222 -0.0749
 1019MOL0     C40552   4.318   1.376   1.461  0.1566 -0.4896 -0.0415
 1019MOL0     H40553   4.164   0.760   1.404 -0.3249  0.4724 -0.0511
 1019MOL0     H40554   4.135   0.581   1.562 -0.9714 -1.1549 -0.3137
 1019MOL0     H40555   4.157   0.446   1.738  0.5278  1.7644 -0.2775
 1019MOL0     H40556   3.987   0.421   1.759 -0.7684 -0.0497  2.2873
 1019MOL0     H40557   4.022   0.481   1.999 -1.0667  1.3295 -1.8541
 1019MOL0     H40558   4.083   0.318   1.949 -0.1392 -0.0446 -0.2200
 1019MOL0     H40559   4.274   0.569   1.957 -0.0482  0.7657  1.9304
 1019MOL0     H40560   4.231   0.455   2.091  0.9088 -1.3788 -0.6275
 1019MOL0     H40561   4.304   0.263   1.977 -1.7042  0.1309  1.7773
 1019MOL0     H40562   4.362   0.359   1.842 -0.7870 -3.0055 -0.6810
 1019MOL0     H40563   4.478   0.430   2.114 -0.7287 -0.3064  0.3262
 1019MOL0     H40564   4.531   0.450   1.946  0.7635  0.6650  2.0075
 1019MOL0     H40565   4.534   0.176   1.956  0.2707 -0.7768  0.8484
 1019MOL0     H40566   4.676   0.277   1.998  0.1495 -1.0114 -0.2739
 1019MOL0     H40567   4.460   0.193   2.186  0.2029 -0.7241 -0.4041
 1019MOL0     H40568   4.614   0.266   2.234 -3.1042 -0.1142  1.5261
 1019MOL0     H40569   4.598   0.028   2.280  3.2251  0.5557  0.0890
 1019MOL0     H40570   4.541  -0.020   2.121  0.3551 -2.1639  0.9861
 1019MOL0     H40571   4.855   0.063   2.294 -1.2249  0.3290 -0.3988
 1019MOL0     H40572   5.168  -0.015   2.153  1.9838  0.3069  1.9594
 1019MOL0     H40573   5.127  -0.183   2.176  1.8043  0.7760  0.4178
 1019MOL0     H40574   5.214  -0.075   2.382  1.1812  2.4720 -1.2737
 1019MOL0     H40575   5.084   0.046   2.364 -1.3881 -0.3079 -0.3327
 1019MOL0     H40576   4.920  -0.087   2.454 -0.3391 -1.5037  0.0691
 1019MOL0     H40577   4.991  -0.231   2.390  0.2473 -0.1385 -0.4469
 1019MOL0     H40578   5.032  -0.251   2.620  1.5152 -0.6388  0.0219
 1019MOL0     H40579   5.191  -0.196   2.561 -0.4690 -1.5374 -1.1777
 1019MOL0     H40580   5.105   0.207   2.708 -0.6803 -0.3682  0.3628
 1019MOL0     H40581   5.156   0.374   2.860  0.2337 -2.1452 -0.3610
 1019MOL0     H40582   5.317   0.402   2.784  1.6573  2.1484  1.8322
 1019MOL0     H40583   5.296   0.357   2.966  2.2466  0.6941 -0.7884
 1019MOL0     H40584   5.763  -0.032   3.120  1.5885  0.1351  3.3026
 1019MOL0     H40585   5.970   0.036   3.211 -0.3713 -1.3844 -0.1325
 1019MOL0     H40586   6.192   0.035   3.144 -0.1923  0.0814 -0.1168
 1019MOL0     H40587   6.335   0.132   3.119 -0.4147 -1.8407  0.5367
 1019MOL0     H40588   6.126   0.163   3.347  1.3265 -1.5717  0.8988
 1019MOL0     H40589   6.283   0.098   3.352  1.8148 -1.1429 -1.7527
 1019MOL0     H40590   6.206   0.395   3.306 -0.0537  0.4559  1.4808
 1019MOL0     H40591   6.364   0.334   3.272  1.1674  0.3410  0.6450
 1019MOL0     H40592   6.397   0.257   3.495  1.7676  1.1508 -2.9360
 1019MOL0     H40593   6.233   0.304   3.543 -2.7227  2.8082 -0.4465
 1019MOL0     H40594   6.430   0.510   3.429  2.3590 -0.0372  1.9134
 1019MOL0     H40595   6.279   0.551   3.493  0.4336  0.7029 -0.2365
 1019MOL0     H40596   6.533   0.453   3.638 -0.3689 -1.2562  0.4544
 1019MOL0     H40597   6.380   0.467   3.728 -0.4893  0.7608 -0.1834
 1019MOL0     H40598   6.349   0.687   3.691 -0.9040 -2.1402  0.7109
 1019MOL0     H40599   6.477   0.702   3.560 -1.2172 -2.1228 -1.0484
 1019MOL0     H40600   6.602   0.785   3.759  2.3103 -0.3663 -1.9006
 1019MOL0     H40601   6.653   0.624   3.717  1.1320  1.8200  0.1928
 1019MOL0     H40602   5.974   0.376   2.934 -0.1598 -0.8643 -0.6052
 1019MOL0     H40603   5.749   0.336   2.898  2.1531  0.2128 -1.0278
 1019MOL0     H40604   5.468  -0.051   2.884 -0.6298 -0.9211 -0.5464
 1019MOL0     H40605   5.295  -0.174   2.758 -2.5026  0.2110 -2.0435
 1019MOL0     H40606   4.007   0.854   1.862  1.3017 -0.6302  0.8610
 1019MOL0     H40607   4.029   1.045   1.702 -0.2618  0.2208 -0.3600
 1019MOL0     H40608   4.073   1.066   1.194  1.8902 -0.3576 -1.3549
 1019MOL0     H40609   4.106   1.197   0.998  1.7786  1.8584 -1.2556
 1019MOL0     H40610   4.202   1.602   1.003 -0.3733 -2.1854  2.8096
 1019MOL0     H40611   4.372   1.566   1.022  1.4347 -0.0127 -1.4621
 1019MOL0     H40612   4.422   1.533   0.796 -0.0745  0.5434 -0.0263
 1019MOL0     H40613   4.352   1.688   0.806  1.3297 -0.1745 -1.5193
 1019MOL0     H40614   4.172   1.445   0.725 -1.9662  0.9407 -2.1995
 1019MOL0     H40615   4.127   1.604   0.721 -0.5945 -2.3964  3.7397
 1019MOL0     H40616   4.282   1.668   0.550 -2.7555 -0.0460 -0.8656
 1019MOL0     H40617   4.194   1.529   0.495 -1.8869 -0.5573  2.5363
 1019MOL0     H40618   4.578   1.368   0.486 -0.3805 -0.3691  0.6017
 1019MOL0     H40619   4.340   1.484   1.216 -2.0838  1.3772 -2.3339
 1019MOL0     H40620   4.254   1.380   1.550 -1.4915  0.6691 -1.2163
 1019MOL0     H40621   4.405   1.317   1.491  0.1499  1.5114  5.0054
 1019MOL0     H40622   4.362   1.473   1.437  0.1211 -1.1195 -2.9030
 1020MOL0     O40623   2.372   6.835   9.467 -0.2705 -0.2166  0.4475
 1020MOL0     C40624   2.298   6.751   9.425 -0.6586  0.0847  0.0337
 1020MOL0     O40625   2.327   6.640   9.354  0.3710 -0.9678 -0.1961
 1020MOL0     C40626   2.455   6.625   9.300 -0.3339 -1.0026  1.3770
 1020MOL0     C40627   2.478   6.683   9.170 -0.0982 -0.0475 -0.6986
 1020MOL0     C40628   2.601   6.656   9.105  0.1876 -0.2681  0.6912
 1020MOL0     C40629   2.694   6.583   9.173  0.1316 -0.0214  0.5717
 1020MOL0     O40630   2.810   6.561   9.104  0.0719  0.4832 -0.3686
 1020MOL0     C40631   2.906   6.468   9.158  0.2753 -0.5914  0.2629
 1020MOL0     C40632   3.005   6.434   9.049  0.3718  0.1673 -0.1014
 1020MOL0     C40633   3.028   6.543   8.944 -0.4238 -0.2522  0.1527
 1020MOL0     C40634   3.154   6.509   8.862 -0.6290 -0.1761  0.3826
 1020MOL0     C40635   3.170   6.600   8.744 -0.1983  0.7427  1.0551
 1020MOL0     C40636   3.314   6.578   8.670  0.1580  0.3069  0.3597
 1020MOL0     C40637   3.349   6.702   8.581  0.0091 -0.2690 -0.0929
 1020MOL0     C40638   3.253   6.734   8.470  0.3699 -0.0180 -0.6440
 1020MOL0     N40639   3.290   6.853   8.396 -0.0662 -0.3404  0.3958
 1020MOL0     C40640   3.381   6.861   8.292  0.5700  0.1271  0.2026
 1020MOL0     C40641   3.370   6.978   8.226  0.1106  1.0948 -0.2438
 1020MOL0     C40642   3.438   7.043   8.107 -0.2682 -0.7196  0.9134
 1020MOL0     C40643   3.579   7.087   8.113 -0.5278 -0.1163 -0.0953
 1020MOL0     C40644   3.637   7.124   7.983  0.1883 -0.4407  0.8565
 1020MOL0     C40645   3.790   7.145   7.989 -0.0760  0.3906  0.1071
 1020MOL0     O40646   3.830   7.214   8.104  0.7429 -0.4619 -0.2209
 1020MOL0     C40647   3.954   7.255   8.121  0.2652 -0.5964 -0.9932
 1020MOL0     C40648   3.977   7.335   8.241  0.7242  0.2028  0.8384
 1020MOL0     C40649   4.111   7.366   8.273  0.5185 -0.4351  0.0017
 1020MOL0     C40650   4.128   7.440   8.404 -0.1262  0.1459 -0.3342
 1020MOL0     C40651   4.219   7.334   8.183 -0.2471  0.8246 -0.2999
 1020MOL0     C40652   4.364   7.367   8.210 -0.8086  0.7329 -0.4439
 1020MOL0     O40653   4.457   7.310   8.127 -0.2693 -0.6230  0.9518
 1020MOL0     C40654   4.590   7.334   8.153  0.3252  0.7637 -0.0499
 1020MOL0     C40655   4.675   7.229   8.196  0.0577  0.4393 -0.5640
 1020MOL0     C40656   4.808   7.243   8.212 -0.3561 -0.3577  0.0805
 1020MOL0     C40657   4.862   7.372   8.192 -1.1766 -0.0486 -0.0433
 1020MOL0     O40658   4.998   7.407   8.205  0.1129  0.0521 -0.4333
 1020MOL0     C40659   5.073   7.325   8.299  0.2773  0.6426 -0.1995
 1020MOL0     C40660   5.222   7.381   8.321  0.2513 -0.1224 -1.2698
 1020MOL0     C40661   5.299   7.385   8.192 -0.0525 -0.3324  0.3812
 1020MOL0     C40662   5.394   7.505   8.195 -0.9289  0.0028  0.0292
 1020MOL0     C40663   5.453   7.545   8.061  0.6222  0.0040  0.8239
 1020MOL0     C40664   5.583   7.627   8.071  0.4920  0.4965  0.1751
 1020MOL0     C40665   5.549   7.772   8.100  0.3958  0.1386  0.9334
 1020MOL0     C40666   5.684   7.855   8.082 -0.0079 -0.1455  0.7341
 1020MOL0    Cl40667   5.760   7.841   7.913  0.1238 -0.3952 -0.0449
 1020MOL0     C40668   4.787   7.476   8.145 -0.4153 -0.6550 -0.3893
 1020MOL0     C40669   4.651   7.457   8.123  0.7454  0.0277 -0.2836
 1020MOL0     O40670   4.394   7.431   8.312  0.4991  0.2429 -0.1953
 1020MOL0     C40671   4.196   7.265   8.062  0.4824 -0.3307 -0.1949
 1020MOL0     C40672   4.061   7.223   8.033 -0.2551 -0.2224 -0.1639
 1020MOL0     N40673   3.265   7.038   8.293  0.8466 -0.5337 -0.1363
 1020MOL0     N40674   3.221   6.972   8.395  0.1466 -0.3828  0.0485
 1020MOL0     C40675   2.673   6.540   9.301 -0.1317  0.8225 -0.2112
 1020MOL0     C40676   2.550   6.542   9.365 -0.2245  0.0023  0.8515
 1020MOL0     C40677   2.155   6.755   9.466 -0.8441 -0.2502 -0.4904
 1020MOL0     C40678   2.063   6.659   9.412  0.7438 -0.0271  0.0155
 1020MOL0     C40679   1.923   6.662   9.449 -0.5021 -0.3805  0.4280
 1020MOL0     C40680   1.881   6.758   9.540 -0.0025  0.0341 -0.8393
 1020MOL0     O40681   1.751   6.755   9.583 -0.4850 -0.4043  0.2764
 1020MOL0     C40682   1.686   6.871   9.641 -0.1860 -0.4011 -1.0292
 1020MOL0     C40683   1.543   6.834   9.678 -0.1139 -0.1637 -0.4646
 1020MOL0     C40684   1.457   6.793   9.554  0.0238  0.2844  0.2697
 1020MOL0     C40685   1.386   6.906   9.472 -0.4778  0.8845  0.3294
 1020MOL0     C40686   1.276   6.976   9.542  0.2553 -0.4369  0.1613
 1020MOL0     C40687   1.184   7.026   9.609  0.3125  0.1069  0.1013
 1020MOL0     C40688   1.971   6.847   9.598  0.7661 -0.1775 -0.2248
 1020MOL0     C40689   2.110   6.849   9.563  0.0836 -0.3475  1.5827
 1020MOL0     C40690   2.197   6.957   9.636  0.2925  1.0753 -0.5445
 1020MOL0     H40691   2.403   6.732   9.109  1.1267 -0.2962 -2.4950
 1020MOL0     H40692   2.607   6.671   8.998  1.1352  2.4283  1.0558
 1020MOL0     H40693   2.856   6.382   9.203  2.7729 -1.7988  0.9630
 1020MOL0     H40694   2.960   6.520   9.239 -0.6242 -0.0289  0.5110
 1020MOL0     H40695   3.099   6.397   9.091 -0.7765 -1.9233  0.8146
 1020MOL0     H40696   2.964   6.346   8.999  0.5469 -0.6476  1.1329
 1020MOL0     H40697   2.947   6.540   8.870  1.2823 -3.0848 -1.8284
 1020MOL0     H40698   3.045   6.641   8.987  1.4752  0.5997 -2.2780
 1020MOL0     H40699   3.244   6.509   8.924  1.6560  0.0662 -2.7014
 1020MOL0     H40700   3.120   6.412   8.825  0.3818 -0.3699 -0.0610
 1020MOL0     H40701   3.145   6.705   8.765 -0.0472  1.5741 -2.4092
 1020MOL0     H40702   3.099   6.571   8.667  1.2840  0.1803 -0.1331
 1020MOL0     H40703   3.391   6.563   8.746  0.2329 -0.9815  0.0487
 1020MOL0     H40704   3.316   6.486   8.611 -1.1274  1.0414 -0.9058
 1020MOL0     H40705   3.446   6.673   8.539 -0.1927 -0.7902 -0.2116
 1020MOL0     H40706   3.358   6.792   8.642 -0.6069 -1.2178  1.4482
 1020MOL0     H40707   3.241   6.650   8.400 -1.2841 -0.4469  0.0933
 1020MOL0     H40708   3.155   6.752   8.516  2.0554  3.2665  1.9994
 1020MOL0     H40709   3.461   6.790   8.274  0.3894 -0.2184  0.7455
 1020MOL0     H40710   3.374   7.130   8.089 -2.1107 -2.0588  0.6277
 1020MOL0     H40711   3.418   6.976   8.022 -1.6758  0.4127  0.2986
 1020MOL0     H40712   3.586   7.170   8.184  0.0992 -0.6347  0.4698
 1020MOL0     H40713   3.643   7.007   8.153  2.6897  1.0937 -2.3986
 1020MOL0     H40714   3.612   7.054   7.902 -0.7050  1.9586 -1.0698
 1020MOL0     H40715   3.583   7.211   7.947  1.6839 -0.4515 -1.7019
 1020MOL0     H40716   3.834   7.046   8.002  4.8119  1.6116 -4.0243
 1020MOL0     H40717   3.828   7.201   7.903 -0.8985  0.4812 -0.2032
 1020MOL0     H40718   3.904   7.368   8.314 -0.0316 -1.3326  0.8220
 1020MOL0     H40719   4.179   7.535   8.383 -1.4092  0.4932 -2.0035
 1020MOL0     H40720   4.193   7.387   8.474  1.1559  1.5885 -0.3898
 1020MOL0     H40721   4.033   7.453   8.458 -0.8217  3.6517 -2.1292
 1020MOL0     H40722   4.634   7.129   8.196 -0.2847  0.5777 -0.6382
 1020MOL0     H40723   4.863   7.158   8.251 -0.9168 -1.2501 -1.0102
 1020MOL0     H40724   5.042   7.328   8.404 -2.1237  0.8527 -0.8552
 1020MOL0     H40725   5.070   7.220   8.270 -2.2046  1.2579 -2.6693
 1020MOL0     H40726   5.205   7.479   8.365 -0.6387 -0.6172 -0.4810
 1020MOL0     H40727   5.279   7.321   8.393 -2.0680 -0.3694  0.5017
 1020MOL0     H40728   5.237   7.399   8.103  0.7622  0.9821 -0.0035
 1020MOL0     H40729   5.365   7.298   8.183  2.3380  1.4709 -0.5323
 1020MOL0     H40730   5.472   7.479   8.267  1.0555  1.5968 -1.4462
 1020MOL0     H40731   5.339   7.594   8.228 -0.9253  0.3632 -0.9239
 1020MOL0     H40732   5.470   7.448   8.014 -0.3801 -0.8113  2.1010
 1020MOL0     H40733   5.376   7.595   8.002  0.9939  1.0125  1.1699
 1020MOL0     H40734   5.632   7.610   7.975  2.5605 -0.7837  1.3850
 1020MOL0     H40735   5.659   7.592   8.141 -1.5687 -3.6351  0.6781
 1020MOL0     H40736   5.513   7.789   8.202  1.8874 -1.4532  1.7836
 1020MOL0     H40737   5.472   7.804   8.029 -0.1184  0.4776  1.6312
 1020MOL0     H40738   5.762   7.827   8.153 -2.0166 -1.6519  2.4557
 1020MOL0     H40739   5.661   7.960   8.103  2.7789  0.2030  2.4421
 1020MOL0     H40740   4.822   7.575   8.114 -0.5070 -0.4801  0.0639
 1020MOL0     H40741   4.583   7.528   8.078 -0.3707 -1.4418 -1.0223
 1020MOL0     H40742   4.278   7.234   7.999  2.8427 -1.9113  3.3144
 1020MOL0     H40743   4.036   7.162   7.947 -2.0481  1.8042 -1.1883
 1020MOL0     H40744   2.745   6.473   9.349 -2.7229 -1.7359  0.4002
 1020MOL0     H40745   2.528   6.471   9.445  3.2135 -0.0752  1.8774
 1020MOL0     H40746   2.080   6.589   9.331 -0.7203 -0.4832  0.0692
 1020MOL0     H40747   1.846   6.592   9.418 -1.6735  0.9079  0.2875
 1020MOL0     H40748   1.735   6.908   9.732  0.6925 -0.0331 -1.6494
 1020MOL0     H40749   1.688   6.950   9.565 -2.5414 -0.2607 -1.0298
 1020MOL0     H40750   1.492   6.921   9.722  1.1574 -0.2202  1.2334
 1020MOL0     H40751   1.541   6.744   9.741  0.7447  1.4162  1.9879
 1020MOL0     H40752   1.518   6.733   9.486 -0.2821  0.8119 -0.4865
 1020MOL0     H40753   1.391   6.712   9.587  2.1784 -1.9659 -0.5908
 1020MOL0     H40754   1.340   6.852   9.389 -0.9542 -0.4538  1.4376
 1020MOL0     H40755   1.460   6.978   9.434  0.0162 -0.8194 -2.2734
 1020MOL0     H40756   1.097   7.073   9.652 -0.0834 -1.2350  0.8335
 1020MOL0     H40757   1.947   6.911   9.681 -1.9332 -1.0774 -0.2185
 1020MOL0     H40758   2.135   7.029   9.690 -0.2343  2.1533 -2.5116
 1020MOL0     H40759   2.264   6.892   9.694  0.7868 -0.8252 -3.0622
 1020MOL0     H40760   2.259   7.017   9.569 -1.1313  0.6302 -2.3707
 1021MOL0     O40761  11.139   1.225   1.883  0.7062  0.0746  0.1789
 1021MOL0     C40762  11.058   1.321   1.891 -0.1994  0.4799 -0.1007
 1021MOL0     O40763  11.092   1.448   1.942  0.5042 -0.9537  0.2677
 1021MOL0     C40764  11.214   1.452   1.995 -0.8933 -0.6936  0.1075
 1021MOL0     C40765  11.319   1.521   1.935 -0.2803 -0.0451 -0.2613
 1021MOL0     C40766  11.453   1.513   1.990  0.5646 -1.0806  0.9463
 1021MOL0     C40767  11.479   1.452   2.116  0.7103  1.1184  0.8589
 1021MOL0     O40768  11.599   1.438   2.177 -0.3296 -0.0134  0.0575
 1021MOL0     C40769  11.724   1.480   2.121 -0.0695  0.4250  0.6491
 1021MOL0     C40770  11.774   1.621   2.167  0.0179 -0.3366 -0.3860
 1021MOL0     C40771  11.924   1.643   2.162 -0.3262 -1.3137  0.1168
 1021MOL0     C40772  11.972   1.775   2.225  0.1530  0.3149  0.4764
 1021MOL0     C40773  12.118   1.799   2.247 -0.9505  0.1389 -0.0483
 1021MOL0     C40774  12.142   1.933   2.328  0.2167 -0.2156  0.3371
 1021MOL0     C40775  12.280   1.976   2.363  0.1168 -1.3005 -0.3319
 1021MOL0     C40776  12.359   1.864   2.430 -0.0940  0.3828 -0.1112
 1021MOL0     N40777  12.498   1.903   2.418 -0.3943 -0.5085 -0.2231
 1021MOL0     C40778  12.576   1.857   2.315 -0.2955 -0.2729 -0.1153
 1021MOL0     C40779  12.685   1.929   2.320 -0.4518  0.2741 -0.3376
 1021MOL0     C40780  12.815   1.910   2.241  0.6142  0.2472  0.0750
 1021MOL0     C40781  12.933   1.874   2.336  0.1513 -0.0458  0.2805
 1021MOL0     C40782  13.047   1.805   2.259 -0.9423 -0.6326 -0.5205
 1021MOL0     C40783  13.084   1.870   2.131 -1.0345 -0.8140 -0.6149
 1021MOL0     O40784  13.214   1.830   2.098 -0.3844 -0.6370  0.3124
 1021MOL0     C40785  13.287   1.884   2.001  0.3216 -0.4428  0.4483
 1021MOL0     C40786  13.258   1.975   1.904  0.1619 -0.3768  0.1851
 1021MOL0     C40787  13.338   1.998   1.790  1.1646 -1.3554  0.4228
 1021MOL0     C40788  13.280   2.096   1.679 -0.3055  0.1105 -0.3807
 1021MOL0     C40789  13.473   1.956   1.782 -0.1764 -0.1784 -0.1211
 1021MOL0     C40790  13.573   1.996   1.678 -0.6591  0.3819  0.3547
 1021MOL0     O40791  13.537   2.078   1.579  0.1964  0.1507  0.5956
 1021MOL0     C40792  13.620   2.123   1.484  0.8366 -0.2147  0.3025
 1021MOL0     C40793  13.695   2.242   1.497  0.4306  0.1927  0.0988
 1021MOL0     C40794  13.781   2.278   1.397 -1.1159 -0.3441  0.0202
 1021MOL0     C40795  13.783   2.214   1.271 -0.9880 -0.7796 -0.1108
 1021MOL0     O40796  13.876   2.246   1.166 -0.4262  0.2359 -0.2360
 1021MOL0     C40797  13.862   2.382   1.119  0.1885  0.4245  0.2841
 1021MOL0     C40798  13.985   2.414   1.029  0.3798 -0.3232 -0.9040
 1021MOL0     C40799  14.110   2.417   1.114  0.1170  0.7316 -0.1332
 1021MOL0     C40800  14.219   2.507   1.064  0.6099  0.0219  0.7342
 1021MOL0     C40801  14.338   2.526   1.158  0.3484 -0.0133 -0.0677
 1021MOL0     C40802  14.386   2.394   1.218  0.6489 -0.5216 -0.2140
 1021MOL0     C40803  14.427   2.272   1.122  0.0288 -0.7694  0.5178
 1021MOL0     C40804  14.537   2.316   1.036 -0.6018  0.0078 -0.6500
 1021MOL0    Cl40805  14.590   2.182   0.931 -0.3010 -0.6274  0.2456
 1021MOL0     C40806  13.720   2.091   1.259 -0.3653 -0.2620  0.0556
 1021MOL0     C40807  13.641   2.044   1.364 -0.2112 -0.0503 -0.3529
 1021MOL0     O40808  13.681   1.937   1.676  0.2069  0.8155 -0.5353
 1021MOL0     C40809  13.510   1.871   1.888  0.0180 -0.9213 -0.3659
 1021MOL0     C40810  13.416   1.840   1.989 -0.2183  0.3733 -0.1530
 1021MOL0     N40811  12.680   2.017   2.431 -0.3966 -0.6498 -0.3138
 1021MOL0     N40812  12.566   2.004   2.484  0.6007  0.7518  0.5622
 1021MOL0     C40813  11.370   1.399   2.176 -0.4971  0.4038  0.6035
 1021MOL0     C40814  11.248   1.380   2.112  0.2405  0.1816 -0.5246
 1021MOL0     C40815  10.918   1.312   1.841  0.2201 -0.6220  1.5362
 1021MOL0     C40816  10.844   1.434   1.804 -1.0304  0.5229  0.1076
 1021MOL0     C40817  10.711   1.435   1.769  0.0795 -0.1686  1.0777
 1021MOL0     C40818  10.648   1.314   1.737  0.9092 -0.5161 -0.3610
 1021MOL0     O40819  10.522   1.313   1.697 -0.1767  0.0793  0.0333
 1021MOL0     C40820  10.430   1.342   1.800 -0.2235 -0.2446 -0.4220
 1021MOL0     C40821  10.311   1.387   1.727 -0.2263 -0.6180 -0.0668
 1021MOL0     C40822  10.187   1.384   1.823 -0.1894  0.5944 -0.4697
 1021MOL0     C40823  10.052   1.405   1.760  0.0738 -0.6006 -0.5660
 1021MOL0     C40824  10.040   1.534   1.693  1.0768  0.0360 -0.5850
 1021MOL0     C40825  10.036   1.635   1.630  0.3709 -0.1660 -0.8888
 1021MOL0     C40826  10.716   1.195   1.758 -0.6617 -1.1152 -0.1725
 1021MOL0     C40827  10.846   1.187   1.821 -0.5598 -0.1903  1.0328
 1021MOL0     C40828  10.891   1.048   1.870  0.1148 -0.5452  0.3375
 1021MOL0     H40829  11.306   1.577   1.842  1.1239  0.2714 -0.2913
 1021MOL0     H40830  11.540   1.552   1.938  0.2234 -1.1809  0.2926
 1021MOL0     H40831  11.732   1.464   2.013  2.0372 -2.1483  1.0786
 1021MOL0     H40832  11.796   1.411   2.168  2.9024  4.4449  2.6314
 1021MOL0     H40833  11.724   1.693   2.102 -1.1477 -1.2936 -0.5723
 1021MOL0     H40834  11.737   1.629   2.270  1.2587  3.2099 -0.0852
 1021MOL0     H40835  11.976   1.562   2.215  2.3385 -1.7275 -2.8402
 1021MOL0     H40836  11.967   1.633   2.061 -2.1005 -0.8279 -0.7213
 1021MOL0     H40837  11.931   1.863   2.174  1.7680  1.5277  1.1734
 1021MOL0     H40838  11.932   1.770   2.327 -0.6188  2.3077  0.3170
 1021MOL0     H40839  12.170   1.801   2.151  3.2480 -1.0820  1.9380
 1021MOL0     H40840  12.141   1.712   2.310 -0.4543  1.9515  2.4192
 1021MOL0     H40841  12.109   2.017   2.267  0.7597  1.8068  2.6822
 1021MOL0     H40842  12.080   1.928   2.418 -1.4008 -3.9500 -0.7864
 1021MOL0     H40843  12.281   2.068   2.423  2.0764 -1.2906 -0.3218
 1021MOL0     H40844  12.330   2.006   2.270  2.3896 -0.6766  1.0134
 1021MOL0     H40845  12.342   1.868   2.538  1.4454 -0.3872  0.1875
 1021MOL0     H40846  12.338   1.768   2.382  0.2313 -1.6545  3.4611
 1021MOL0     H40847  12.545   1.772   2.255  0.0694 -2.4180  2.5509
 1021MOL0     H40848  12.834   2.004   2.188 -0.8473 -1.1020 -3.1029
 1021MOL0     H40849  12.794   1.834   2.165 -0.7431  1.0142 -0.3484
 1021MOL0     H40850  12.976   1.960   2.387 -1.2175  1.4253 -0.9500
 1021MOL0     H40851  12.901   1.810   2.419 -0.4417  0.3296  0.3446
 1021MOL0     H40852  13.128   1.797   2.332 -0.6270 -2.0133 -0.9907
 1021MOL0     H40853  13.018   1.705   2.226 -0.3612 -0.0496 -2.9392
 1021MOL0     H40854  13.009   1.831   2.061 -1.2201  0.3709 -1.0942
 1021MOL0     H40855  13.074   1.979   2.127  3.3580 -0.2441 -0.0519
 1021MOL0     H40856  13.155   2.008   1.909 -0.3125 -1.3541 -1.9798
 1021MOL0     H40857  13.328   2.193   1.689  2.0060 -0.7903 -1.9874
 1021MOL0     H40858  13.172   2.115   1.688 -0.5105 -1.6250  1.8935
 1021MOL0     H40859  13.301   2.053   1.581  0.3507  0.2920 -0.3249
 1021MOL0     H40860  13.702   2.291   1.593  2.4501  1.4785 -0.6267
 1021MOL0     H40861  13.846   2.363   1.413 -0.6206 -0.1047 -2.7332
 1021MOL0     H40862  13.779   2.382   1.047  2.0419  0.4133 -1.9779
 1021MOL0     H40863  13.858   2.456   1.199 -1.8163  0.9669 -0.2386
 1021MOL0     H40864  13.994   2.340   0.949 -3.6891  0.0759 -1.9640
 1021MOL0     H40865  13.979   2.513   0.983  1.0446  0.4175  0.5470
 1021MOL0     H40866  14.137   2.311   1.114 -1.9201  0.1496 -2.1412
 1021MOL0     H40867  14.088   2.424   1.221  1.9160  1.1623  0.2315
 1021MOL0     H40868  14.183   2.604   1.030  1.3266 -0.4843 -1.6218
 1021MOL0     H40869  14.265   2.462   0.975  1.4532  1.4252  0.4376
 1021MOL0     H40870  14.420   2.572   1.103 -0.9784 -0.8226 -2.9095
 1021MOL0     H40871  14.300   2.588   1.240  0.0242  0.0258 -0.2434
 1021MOL0     H40872  14.310   2.351   1.284  0.1041 -1.0690 -1.1706
 1021MOL0     H40873  14.472   2.415   1.282  0.4903 -1.4876  0.3274
 1021MOL0     H40874  14.340   2.244   1.063 -0.3873 -2.6205  1.9108
 1021MOL0     H40875  14.445   2.180   1.178 -1.8639 -2.2310 -1.1579
 1021MOL0     H40876  14.618   2.340   1.106  1.3130  0.5217 -2.8930
 1021MOL0     H40877  14.516   2.400   0.969 -3.4811 -0.9373 -1.0414
 1021MOL0     H40878  13.740   2.028   1.173 -1.5493  1.1928 -1.3689
 1021MOL0     H40879  13.588   1.950   1.353 -0.3685 -0.1309  0.9321
 1021MOL0     H40880  13.610   1.829   1.897 -0.3489 -1.6676  0.4376
 1021MOL0     H40881  13.448   1.769   2.065  0.9602  0.4939 -0.5216
 1021MOL0     H40882  11.396   1.349   2.268 -1.9534  0.5317  1.1205
 1021MOL0     H40883  11.165   1.337   2.167  0.6164  0.5730  0.3658
 1021MOL0     H40884  10.894   1.530   1.813  1.2079 -0.6192  0.7604
 1021MOL0     H40885  10.657   1.527   1.750  2.6765  1.0989 -0.7527
 1021MOL0     H40886  10.411   1.250   1.856 -2.1681  0.8355  0.8035
 1021MOL0     H40887  10.463   1.424   1.865  1.0786  2.3961 -4.0849
 1021MOL0     H40888  10.295   1.323   1.640  2.2213 -0.9228 -0.3505
 1021MOL0     H40889  10.318   1.490   1.688 -2.1242 -0.9162 -1.3782
 1021MOL0     H40890  10.191   1.289   1.877  1.1561  0.4301 -0.8170
 1021MOL0     H40891  10.188   1.459   1.903 -1.4715  0.4029 -0.2540
 1021MOL0     H40892   9.978   1.400   1.840  0.2382 -0.2319 -0.3899
 1021MOL0     H40893  10.050   1.321   1.690  1.7998 -1.5851  0.5168
 1021MOL0     H40894  10.006   1.729   1.587 -1.4727 -1.9404 -3.8361
 1021MOL0     H40895  10.659   1.103   1.752 -1.5371 -0.6407  0.6320
 1021MOL0     H40896  10.808   0.986   1.905 -0.5031 -1.0337 -1.8720
 1021MOL0     H40897  10.934   0.993   1.785 -0.9759 -1.4335  0.3370
 1021MOL0     H40898  10.956   1.056   1.958  1.6599  0.0146 -0.8110
 1022MOL0     O40899   8.690   6.131   5.716 -0.0436 -0.2148  0.1650
 1022MOL0     C40900   8.738   6.084   5.617 -0.4180 -0.2216  1.2432
 1022MOL0     O40901   8.867   6.048   5.604 -0.0349  0.1288  0.2643
 1022MOL0     C40902   8.928   5.981   5.712  0.4735  0.3756  0.3094
 1022MOL0     C40903   9.063   6.005   5.732  0.5275 -0.0870 -0.2923
 1022MOL0     C40904   9.135   5.927   5.817  0.3015 -0.2435 -0.3160
 1022MOL0     C40905   9.068   5.828   5.895  0.1402 -0.3224 -0.4138
 1022MOL0     O40906   9.136   5.745   5.988  0.1242  0.1519 -0.5711
 1022MOL0     C40907   9.264   5.787   6.034  0.4803 -0.3988 -0.4713
 1022MOL0     C40908   9.291   5.702   6.160 -0.5844  0.0405 -0.6421
 1022MOL0     C40909   9.410   5.749   6.248  0.6380  0.1787 -0.3261
 1022MOL0     C40910   9.542   5.718   6.171 -0.5591  0.5639 -0.0733
 1022MOL0     C40911   9.654   5.687   6.267  0.2770  0.1209  0.2339
 1022MOL0     C40912   9.773   5.640   6.188 -0.3483  0.2808 -0.5561
 1022MOL0     C40913   9.882   5.595   6.280  0.8657 -0.2842  0.0290
 1022MOL0     C40914  10.019   5.580   6.212 -0.6368 -0.0894 -0.2521
 1022MOL0     N40915  10.130   5.558   6.311 -0.3493  0.2080  0.7411
 1022MOL0     C40916  10.230   5.654   6.327 -0.1338  0.5789  0.9317
 1022MOL0     C40917  10.312   5.607   6.421 -0.5731  1.0191  0.6362
 1022MOL0     C40918  10.439   5.673   6.482  0.2589 -0.3010  0.0126
 1022MOL0     C40919  10.508   5.570   6.579  0.2174 -0.4689  0.1337
 1022MOL0     C40920  10.638   5.635   6.638 -0.4209 -1.0588  0.4243
 1022MOL0     C40921  10.675   5.557   6.762  0.0783 -0.4290 -0.3036
 1022MOL0     O40922  10.811   5.577   6.793  0.3077 -0.5360 -0.5193
 1022MOL0     C40923  10.862   5.509   6.907 -0.9261 -0.0530 -0.3140
 1022MOL0     C40924  10.784   5.480   7.023 -0.1183  0.3490  0.2922
 1022MOL0     C40925  10.836   5.396   7.121  0.2902  1.0029  1.0680
 1022MOL0     C40926  10.738   5.372   7.234 -0.6949  0.4730  0.8086
 1022MOL0     C40927  10.971   5.351   7.116  0.5102 -0.8062 -1.0422
 1022MOL0     C40928  11.038   5.281   7.223 -0.3777  0.0145 -0.4146
 1022MOL0     O40929  11.156   5.337   7.250  0.2266 -0.3202 -0.9838
 1022MOL0     C40930  11.214   5.303   7.371 -0.3302  0.6343  0.0974
 1022MOL0     C40931  11.330   5.227   7.373  0.5459 -0.7399 -0.8854
 1022MOL0     C40932  11.380   5.170   7.496  0.0094  0.5191  0.1395
 1022MOL0     C40933  11.312   5.188   7.615  0.2958  0.2246 -0.1154
 1022MOL0     O40934  11.356   5.121   7.731 -0.0393  0.6317 -0.4004
 1022MOL0     C40935  11.280   5.111   7.855  0.6318 -0.9676  0.4074
 1022MOL0     C40936  11.365   5.065   7.977 -0.1698 -0.6103  0.8107
 1022MOL0     C40937  11.399   4.912   7.975 -0.7445  0.9109 -0.2925
 1022MOL0     C40938  11.478   4.874   8.096  0.0826  0.0358  0.7704
 1022MOL0     C40939  11.550   4.740   8.078  0.2506  0.1278 -0.3434
 1022MOL0     C40940  11.647   4.712   8.194 -0.2774 -0.2579  0.8765
 1022MOL0     C40941  11.603   4.754   8.335 -0.4035  0.4980  0.1663
 1022MOL0     C40942  11.486   4.670   8.388 -1.0287 -0.6353  0.4549
 1022MOL0    Cl40943  11.404   4.731   8.528  0.0035 -0.1422  0.1692
 1022MOL0     C40944  11.201   5.280   7.612  0.2413 -0.3441  0.3604
 1022MOL0     C40945  11.142   5.328   7.491 -0.8180  0.3039  0.3727
 1022MOL0     O40946  10.987   5.174   7.272  0.3535  0.4143 -0.2278
 1022MOL0     C40947  11.049   5.382   7.003 -0.2071 -0.3732  0.2997
 1022MOL0     C40948  10.993   5.466   6.907 -0.9320 -0.2083 -0.0180
 1022MOL0     N40949  10.263   5.483   6.455  0.2657  1.1108 -0.5047
 1022MOL0     N40950  10.153   5.455   6.396 -0.9829 -0.7773  0.3426
 1022MOL0     C40951   8.931   5.814   5.887 -0.9594 -0.0833 -0.1296
 1022MOL0     C40952   8.852   5.885   5.792 -0.5071 -0.3638  0.4729
 1022MOL0     C40953   8.660   6.060   5.486 -0.1801 -0.5805 -0.4493
 1022MOL0     C40954   8.727   6.067   5.361 -0.5485  0.0264  0.3703
 1022MOL0     C40955   8.666   6.071   5.238 -0.1475 -0.2508 -0.1080
 1022MOL0     C40956   8.528   6.060   5.237  0.3546 -0.3559  0.4872
 1022MOL0     O40957   8.464   6.090   5.113  0.4343  0.3557 -0.0212
 1022MOL0     C40958   8.539   6.139   5.000  0.3108 -0.1269  0.1988
 1022MOL0     C40959   8.444   6.209   4.898 -0.4158 -0.8631  0.2592
 1022MOL0     C40960   8.332   6.111   4.849  0.5173  0.0855  0.4491
 1022MOL0     C40961   8.243   6.183   4.751 -0.2232  0.2568  0.4274
 1022MOL0     C40962   8.165   6.099   4.657 -0.1078 -0.0367 -0.0225
 1022MOL0     C40963   8.112   6.007   4.599 -1.3771 -1.1009 -0.2324
 1022MOL0     C40964   8.461   6.030   5.353  0.4456  0.6031 -0.3140
 1022MOL0     C40965   8.523   6.034   5.479 -0.1007 -0.6702 -0.1416
 1022MOL0     C40966   8.435   6.006   5.597 -1.1687 -0.0766  0.1240
 1022MOL0     H40967   9.107   6.090   5.681  1.5139 -1.3882 -1.7266
 1022MOL0     H40968   9.242   5.944   5.823  0.0563  1.1101  0.9763
 1022MOL0     H40969   9.264   5.894   6.053  3.3361 -0.3024 -0.5640
 1022MOL0     H40970   9.345   5.762   5.965  0.7390 -2.5694  0.5218
 1022MOL0     H40971   9.202   5.701   6.224 -0.6825 -0.2770 -0.7824
 1022MOL0     H40972   9.305   5.597   6.133  0.0484 -0.1132  0.2431
 1022MOL0     H40973   9.412   5.854   6.278 -1.8314  0.8991 -2.3800
 1022MOL0     H40974   9.403   5.685   6.337  0.2321 -1.3720 -1.4295
 1022MOL0     H40975   9.524   5.623   6.120  0.7003 -1.4419  2.9201
 1022MOL0     H40976   9.575   5.797   6.102 -0.3595  0.3517 -0.2215
 1022MOL0     H40977   9.629   5.609   6.339  0.9626  0.7368  1.1710
 1022MOL0     H40978   9.676   5.780   6.321  0.9743  0.3075 -0.3448
 1022MOL0     H40979   9.739   5.552   6.133 -1.2736  0.6335 -0.5718
 1022MOL0     H40980   9.813   5.711   6.115  2.2189  0.0800  0.5521
 1022MOL0     H40981   9.862   5.504   6.337 -0.2739 -0.2198 -0.2509
 1022MOL0     H40982   9.892   5.675   6.354  0.7738 -1.1389  0.9860
 1022MOL0     H40983  10.014   5.491   6.148  0.2189 -2.2220  2.4756
 1022MOL0     H40984  10.042   5.674   6.161  1.1782  1.2725  2.8201
 1022MOL0     H40985  10.231   5.746   6.269 -1.3159 -1.2874 -2.2943
 1022MOL0     H40986  10.406   5.765   6.530 -1.9596  0.3320 -2.4726
 1022MOL0     H40987  10.505   5.706   6.400 -0.8235  0.0346 -0.7498
 1022MOL0     H40988  10.450   5.549   6.670 -0.1575 -0.5051 -0.1094
 1022MOL0     H40989  10.529   5.478   6.525 -0.0676 -0.4977  0.0699
 1022MOL0     H40990  10.718   5.636   6.564 -0.4408  0.9561  0.3691
 1022MOL0     H40991  10.622   5.741   6.664  0.2833 -0.3018 -1.9865
 1022MOL0     H40992  10.607   5.587   6.842 -1.9464 -3.8023 -0.5836
 1022MOL0     H40993  10.659   5.449   6.756 -0.3695 -0.6143  2.6524
 1022MOL0     H40994  10.682   5.514   7.030  0.0004  0.4884  1.5644
 1022MOL0     H40995  10.674   5.461   7.236 -1.2630  0.1318 -0.9610
 1022MOL0     H40996  10.789   5.365   7.331 -3.0242 -0.8649  2.0428
 1022MOL0     H40997  10.682   5.281   7.211  1.6461 -0.8505  0.0602
 1022MOL0     H40998  11.377   5.207   7.277  1.6381 -2.9187  0.0269
 1022MOL0     H40999  11.469   5.108   7.502 -2.1557 -2.8512 -0.0803
 1022MOL0     H41000  11.245   5.212   7.878  1.0758 -0.8558  0.6110
 1022MOL0     H41001  11.191   5.051   7.838  0.4742 -0.4300 -0.7181
 1022MOL0     H41002  11.461   5.116   7.984  0.2666 -1.3571  0.3106
 1022MOL0     H41003  11.303   5.081   8.066  0.2898  1.7919  0.7708
 1022MOL0     H41004  11.457   4.897   7.883  2.5424  1.4439  1.5470
 1022MOL0     H41005  11.306   4.854   7.981 -0.8080  0.9672 -0.6935
 1022MOL0     H41006  11.412   4.887   8.182 -0.6445  0.7781  0.1238
 1022MOL0     H41007  11.557   4.949   8.100 -1.4665  1.9576 -1.5972
 1022MOL0     H41008  11.477   4.661   8.058 -1.5542  1.6527 -0.0053
 1022MOL0     H41009  11.607   4.758   7.986 -1.9312  1.6111 -1.5029
 1022MOL0     H41010  11.737   4.763   8.159 -1.5333  0.4975 -1.5005
 1022MOL0     H41011  11.664   4.604   8.195  1.3129 -0.0360  2.6541
 1022MOL0     H41012  11.578   4.860   8.342 -1.5890  0.4668 -2.4425
 1022MOL0     H41013  11.687   4.734   8.402 -0.2705  0.4197 -0.0210
 1022MOL0     H41014  11.524   4.569   8.405 -0.2936 -0.9762 -2.5988
 1022MOL0     H41015  11.415   4.660   8.306  2.6233 -1.3647 -2.9172
 1022MOL0     H41016  11.159   5.326   7.701 -0.7968  0.6862 -0.6160
 1022MOL0     H41017  11.043   5.372   7.493 -0.4086  1.2356  1.9516
 1022MOL0     H41018  11.154   5.360   6.987 -0.1276  1.7995 -3.3585
 1022MOL0     H41019  11.065   5.487   6.828 -0.7493 -0.0174  0.2015
 1022MOL0     H41020   8.874   5.745   5.948 -2.4626  0.4741 -0.8276
 1022MOL0     H41021   8.745   5.868   5.784 -0.5660  0.6226 -1.1703
 1022MOL0     H41022   8.831   6.095   5.367 -1.7110  5.4349  0.3323
 1022MOL0     H41023   8.726   6.100   5.152 -3.0981  1.2622 -1.8047
 1022MOL0     H41024   8.610   6.213   5.038  2.1812 -1.3246 -0.8052
 1022MOL0     H41025   8.596   6.054   4.961  1.9248  0.4241  1.2709
 1022MOL0     H41026   8.493   6.254   4.812 -0.5210 -0.5775  0.3467
 1022MOL0     H41027   8.388   6.287   4.951  0.0591 -0.3739  0.0499
 1022MOL0     H41028   8.382   6.024   4.806  0.0635 -0.9870  2.0190
 1022MOL0     H41029   8.277   6.092   4.941 -0.5968 -0.2991 -0.2803
 1022MOL0     H41030   8.300   6.261   4.699  0.7022 -2.0423 -2.2867
 1022MOL0     H41031   8.175   6.240   4.815  0.2655  1.8901 -0.4451
 1022MOL0     H41032   8.070   5.918   4.555  0.1470 -2.2506  0.5085
 1022MOL0     H41033   8.355   6.011   5.351  0.7909 -1.3809 -1.4633
 1022MOL0     H41034   8.483   5.923   5.650 -0.5450 -1.1365 -2.0088
 1022MOL0     H41035   8.431   6.094   5.662  1.6601 -2.1892  3.4657
 1022MOL0     H41036   8.335   5.972   5.566 -0.7110  1.2185 -3.1302
 1023MOL0     O41037   9.497   7.210   7.166  0.6336 -0.2961 -0.1743
 1023MOL0     C41038   9.384   7.177   7.136 -0.2745 -0.3006  0.4027
 1023MOL0     O41039   9.335   7.056   7.156 -0.9185 -0.0390  0.5180
 1023MOL0     C41040   9.409   6.975   7.240  0.1579 -0.3244 -0.9609
 1023MOL0     C41041   9.370   6.938   7.371 -0.4899 -0.5694 -0.0135
 1023MOL0     C41042   9.436   6.847   7.448 -0.4675 -0.0091 -0.0874
 1023MOL0     C41043   9.559   6.798   7.400 -0.8390  0.5608  0.1673
 1023MOL0     O41044   9.647   6.740   7.486  0.0949 -0.7775 -0.5286
 1023MOL0     C41045   9.732   6.638   7.438  0.3951 -0.3967  0.7626
 1023MOL0     C41046   9.658   6.505   7.399 -0.3136 -0.9059 -0.3544
 1023MOL0     C41047   9.588   6.439   7.525 -0.8732 -0.7717  0.7333
 1023MOL0     C41048   9.495   6.319   7.495 -0.1746  0.0188 -0.0275
 1023MOL0     C41049   9.581   6.197   7.443 -0.0547 -0.0841 -0.1892
 1023MOL0     C41050   9.505   6.069   7.445 -0.0691 -0.1833  0.0206
 1023MOL0     C41051   9.601   5.946   7.464  0.0048  0.4627 -0.4674
 1023MOL0     C41052   9.524   5.828   7.510 -1.1924 -0.8241  0.4029
 1023MOL0     N41053   9.603   5.707   7.521 -0.3381 -0.1308  0.0179
 1023MOL0     C41054   9.570   5.602   7.606  0.0440 -0.2404  0.1871
 1023MOL0     C41055   9.648   5.507   7.565  0.3357  0.7801 -0.0770
 1023MOL0     C41056   9.648   5.375   7.624 -0.5331 -0.2370 -0.4548
 1023MOL0     C41057   9.791   5.342   7.686  0.1533  0.4150  0.2190
 1023MOL0     C41058   9.804   5.195   7.740  0.3030  0.4765  0.8425
 1023MOL0     C41059   9.729   5.183   7.876  0.0525  0.2822 -0.2642
 1023MOL0     O41060   9.835   5.164   7.974  0.3490 -0.2940  0.2234
 1023MOL0     C41061   9.910   5.049   7.979  0.1675 -0.6488  0.1753
 1023MOL0     C41062  10.007   5.057   8.080 -0.2510  0.7270 -0.0298
 1023MOL0     C41063  10.102   4.952   8.104  0.2316  0.1932 -0.2284
 1023MOL0     C41064  10.203   4.977   8.214  0.1843  0.3396  0.1779
 1023MOL0     C41065  10.093   4.836   8.032 -0.5090  0.0242 -0.0974
 1023MOL0     C41066  10.173   4.710   8.049 -0.8191  0.5693  0.7906
 1023MOL0     O41067  10.172   4.613   7.956  0.1936  0.0186  0.1846
 1023MOL0     C41068  10.209   4.492   8.001 -0.0811 -0.3232  1.1005
 1023MOL0     C41069  10.118   4.411   8.070  0.1598 -0.4007 -0.3799
 1023MOL0     C41070  10.164   4.285   8.106  0.0535  0.0407 -0.2178
 1023MOL0     C41071  10.287   4.234   8.067  0.6790  0.1917  1.3748
 1023MOL0     O41072  10.341   4.115   8.106 -0.1632  0.2340  0.3451
 1023MOL0     C41073  10.329   4.097   8.250  0.7576  0.6025  0.8203
 1023MOL0     C41074  10.433   4.016   8.309 -0.8931 -0.4352 -0.3896
 1023MOL0     C41075  10.541   4.102   8.379  0.1243 -0.7798  0.6578
 1023MOL0     C41076  10.658   4.010   8.414  0.1800 -0.9371 -1.1024
 1023MOL0     C41077  10.785   4.086   8.425 -0.2571 -0.7466  0.0168
 1023MOL0     C41078  10.913   4.007   8.404 -0.4221 -0.4970 -1.0050
 1023MOL0     C41079  11.032   4.107   8.416 -0.6660 -0.0529 -0.2767
 1023MOL0     C41080  11.169   4.038   8.399  0.8437  0.6206  0.1606
 1023MOL0    Cl41081  11.200   3.996   8.222  0.6697  0.6467  0.1301
 1023MOL0     C41082  10.377   4.318   7.997 -0.2428  0.6071  0.1572
 1023MOL0     C41083  10.339   4.449   7.961 -0.0527  0.0613 -0.5045
 1023MOL0     O41084  10.226   4.697   8.155 -0.3273 -0.5832 -0.1691
 1023MOL0     C41085  10.003   4.837   7.921  0.0856 -0.8306  0.5236
 1023MOL0     C41086   9.916   4.950   7.898 -0.7655  0.9532  0.4248
 1023MOL0     N41087   9.709   5.532   7.445  0.4107  0.2494  0.7580
 1023MOL0     N41088   9.688   5.662   7.420  0.0852 -0.1059  0.1682
 1023MOL0     C41089   9.615   6.843   7.283 -0.7827 -1.5106 -0.1074
 1023MOL0     C41090   9.539   6.926   7.198  0.2479  0.2456  0.2474
 1023MOL0     C41091   9.294   7.267   7.066  0.0171  0.8307  0.2072
 1023MOL0     C41092   9.182   7.219   6.996  0.7094  0.7465  1.0529
 1023MOL0     C41093   9.095   7.304   6.923 -0.0780  0.3312  0.1598
 1023MOL0     C41094   9.112   7.438   6.939  0.2519 -0.5947  0.5177
 1023MOL0     O41095   9.027   7.540   6.877  0.1633  0.3322 -0.7429
 1023MOL0     C41096   8.894   7.507   6.846 -0.0140 -1.2275  0.6537
 1023MOL0     C41097   8.845   7.645   6.779  0.5052  0.2730 -1.0590
 1023MOL0     C41098   8.689   7.663   6.803  0.3250  0.4875  0.4688
 1023MOL0     C41099   8.626   7.775   6.720 -0.5807 -0.0879 -0.4420
 1023MOL0     C41100   8.631   7.747   6.572 -0.2990 -0.3001 -0.6378
 1023MOL0     C41101   8.647   7.731   6.451 -0.1014  0.4666 -0.5709
 1023MOL0     C41102   9.219   7.485   7.009 -0.0513 -0.6561 -0.2992
 1023MOL0     C41103   9.311   7.402   7.072 -0.4411  0.1984  0.0141
 1023MOL0     C41104   9.417   7.485   7.142 -0.0355  0.2589  1.1514
 1023MOL0     H41105   9.273   6.975   7.403 -0.3883 -0.0712 -0.2756
 1023MOL0     H41106   9.389   6.812   7.539 -0.4945  2.1706  0.7869
 1023MOL0     H41107   9.792   6.612   7.526 -0.7567 -0.5358  1.5271
 1023MOL0     H41108   9.796   6.670   7.356  1.0374  0.7173  1.6737
 1023MOL0     H41109   9.585   6.515   7.319 -0.5256 -0.5033 -0.1112
 1023MOL0     H41110   9.739   6.433   7.378  1.3561 -0.5492  3.8175
 1023MOL0     H41111   9.662   6.411   7.601 -3.0278  1.4131  3.8799
 1023MOL0     H41112   9.532   6.515   7.580  0.0426 -0.1042  0.7593
 1023MOL0     H41113   9.450   6.288   7.591  2.1954  1.9386  1.8177
 1023MOL0     H41114   9.410   6.345   7.431  0.9326 -1.4334 -2.2240
 1023MOL0     H41115   9.669   6.197   7.508 -0.7538  0.2088  0.7757
 1023MOL0     H41116   9.613   6.216   7.340  3.4012  2.0190  1.0790
 1023MOL0     H41117   9.434   6.065   7.528  1.1858 -1.7539  1.1035
 1023MOL0     H41118   9.455   6.061   7.348  1.2745 -3.8474 -0.5510
 1023MOL0     H41119   9.688   5.968   7.527 -0.9036  0.8493  0.6895
 1023MOL0     H41120   9.646   5.918   7.368  2.8845 -2.1685  1.4810
 1023MOL0     H41121   9.474   5.837   7.607 -2.1064 -2.1301  0.0785
 1023MOL0     H41122   9.447   5.802   7.436 -2.4878 -1.5302  1.9483
 1023MOL0     H41123   9.519   5.613   7.702  0.5454 -1.2841  0.5828
 1023MOL0     H41124   9.645   5.311   7.535  3.0996 -0.1917 -0.7331
 1023MOL0     H41125   9.561   5.359   7.689 -0.3743 -1.4763 -0.5196
 1023MOL0     H41126   9.870   5.351   7.610  2.6118  0.7912  2.6528
 1023MOL0     H41127   9.827   5.411   7.763 -1.9208 -0.9671  2.6046
 1023MOL0     H41128   9.776   5.141   7.650  2.9717  1.2901 -0.5840
 1023MOL0     H41129   9.912   5.183   7.755  0.6202 -1.1517 -2.0756
 1023MOL0     H41130   9.677   5.277   7.899 -1.9264 -0.6280 -0.7935
 1023MOL0     H41131   9.653   5.105   7.886 -0.9036  1.3990  1.9390
 1023MOL0     H41132   9.996   5.151   8.132 -3.5349  1.1949 -1.3121
 1023MOL0     H41133  10.205   5.079   8.252 -0.1787  0.2685  0.3902
 1023MOL0     H41134  10.305   4.961   8.178 -0.4863  0.8275 -2.1166
 1023MOL0     H41135  10.173   4.912   8.297 -0.9988 -0.4365 -0.8156
 1023MOL0     H41136  10.022   4.456   8.095  1.6040  2.9702 -0.3497
 1023MOL0     H41137  10.102   4.220   8.166  0.8040  1.6940  2.5503
 1023MOL0     H41138  10.318   4.187   8.311 -0.3906  0.6113  0.6173
 1023MOL0     H41139  10.235   4.042   8.264  0.1501  0.4809 -2.8096
 1023MOL0     H41140  10.388   3.954   8.388  0.5779 -0.4188  0.5234
 1023MOL0     H41141  10.489   3.950   8.242  0.4802 -1.3597  1.5505
 1023MOL0     H41142  10.492   4.158   8.459  1.6423  2.2102 -0.3395
 1023MOL0     H41143  10.571   4.166   8.296 -0.2266  0.1127  1.1981
 1023MOL0     H41144  10.668   3.948   8.325 -1.1570 -2.2802 -0.3849
 1023MOL0     H41145  10.635   3.949   8.503 -2.6653 -0.9916 -1.7544
 1023MOL0     H41146  10.788   4.171   8.356 -2.1624 -1.6039 -1.1902
 1023MOL0     H41147  10.804   4.121   8.527  0.9423  0.6935 -0.6519
 1023MOL0     H41148  10.909   3.963   8.305  0.9746  0.4059 -1.4909
 1023MOL0     H41149  10.923   3.927   8.477  0.6580 -0.0694 -0.6680
 1023MOL0     H41150  11.038   4.164   8.509  3.3727 -0.4501 -0.1324
 1023MOL0     H41151  11.022   4.182   8.336  1.5750  0.1884 -0.3866
 1023MOL0     H41152  11.168   3.948   8.460  0.1067 -0.3545 -1.2542
 1023MOL0     H41153  11.246   4.106   8.438  0.6087  2.2437 -1.9840
 1023MOL0     H41154  10.479   4.282   7.988 -1.5620 -3.7615  0.1059
 1023MOL0     H41155  10.413   4.522   7.930 -0.6275  1.5372  1.4086
 1023MOL0     H41156   9.988   4.756   7.850  1.5326 -1.3029  0.7243
 1023MOL0     H41157   9.844   4.945   7.816 -2.5387  2.3761  1.7968
 1023MOL0     H41158   9.718   6.829   7.252 -0.2724 -1.1358  1.3264
 1023MOL0     H41159   9.573   6.955   7.099  3.3160 -0.5078  0.9638
 1023MOL0     H41160   9.166   7.112   6.992  2.8429  0.4226 -0.1596
 1023MOL0     H41161   9.014   7.273   6.859 -0.1173 -1.0289  0.8245
 1023MOL0     H41162   8.873   7.427   6.775 -0.1738 -1.2858  0.7659
 1023MOL0     H41163   8.833   7.497   6.936 -5.4737  2.3662 -2.1461
 1023MOL0     H41164   8.861   7.640   6.671 -0.3630  0.7552 -1.2195
 1023MOL0     H41165   8.905   7.729   6.815  1.2630 -1.4356  2.0809
 1023MOL0     H41166   8.641   7.567   6.785  1.4640  0.1489 -0.9706
 1023MOL0     H41167   8.680   7.686   6.910  1.0512 -4.1038  1.7402
 1023MOL0     H41168   8.700   7.854   6.734  1.1194 -1.0274 -3.1807
 1023MOL0     H41169   8.525   7.786   6.761  0.0005 -2.1679  1.7929
 1023MOL0     H41170   8.670   7.722   6.346 -0.4886 -0.2638 -0.6000
 1023MOL0     H41171   9.208   7.592   7.026 -0.7467 -0.5002 -1.5594
 1023MOL0     H41172   9.397   7.477   7.249  0.3107 -0.3633  1.1733
 1023MOL0     H41173   9.521   7.461   7.114  0.1274  1.2057  0.9273
 1023MOL0     H41174   9.412   7.591   7.117  0.2624  0.3953  1.6548
 1024MOL0     O41175  11.367   2.673   1.196 -1.0785  0.0112 -0.0297
 1024MOL0     C41176  11.377   2.552   1.178  0.0063 -0.1717  0.5678
 1024MOL0     O41177  11.499   2.489   1.169  0.4911  0.3852  0.3568
 1024MOL0     C41178  11.616   2.554   1.166 -1.0937  0.9072 -0.3332
 1024MOL0     C41179  11.645   2.645   1.062  0.5433  0.4539 -0.6362
 1024MOL0     C41180  11.775   2.710   1.060  0.5385  0.1095 -0.2594
 1024MOL0     C41181  11.875   2.678   1.153  0.3893  0.2125  1.2276
 1024MOL0     O41182  12.004   2.736   1.156  0.0079 -0.4009  1.0295
 1024MOL0     C41183  12.041   2.793   1.285  0.0300  0.0773  0.0784
 1024MOL0     C41184  12.089   2.940   1.261  0.3875  0.4475  0.6866
 1024MOL0     C41185  12.086   3.025   1.393  0.2392 -0.4662 -0.8820
 1024MOL0     C41186  12.135   2.954   1.514 -0.4454  0.1181 -0.7185
 1024MOL0     C41187  12.156   3.050   1.635 -0.6443  0.7556 -0.2224
 1024MOL0     C41188  12.045   3.037   1.739  0.4919 -0.0426 -0.7099
 1024MOL0     C41189  12.042   2.907   1.819  0.2598 -0.4867 -0.7508
 1024MOL0     C41190  11.908   2.837   1.853 -1.2391 -0.5096 -0.2180
 1024MOL0     N41191  11.846   2.813   1.729  0.4507 -0.9096  0.1428
 1024MOL0     C41192  11.758   2.892   1.657 -0.3547 -0.1825 -0.4565
 1024MOL0     C41193  11.701   2.803   1.567  0.3589  0.3182 -1.1223
 1024MOL0     C41194  11.587   2.830   1.473  0.0034  0.2376  0.6420
 1024MOL0     C41195  11.651   2.897   1.352  0.6946  0.1504  0.2789
 1024MOL0     C41196  11.699   3.044   1.367 -0.7634  0.0896 -0.0900
 1024MOL0     C41197  11.755   3.112   1.241  0.9321 -0.7446 -0.3320
 1024MOL0     O41198  11.649   3.182   1.166 -0.0224  0.1248 -0.7216
 1024MOL0     C41199  11.691   3.234   1.050  0.4440 -0.4849 -0.7256
 1024MOL0     C41200  11.726   3.159   0.939 -0.5494  1.0138 -0.3610
 1024MOL0     C41201  11.780   3.218   0.823 -0.5764 -0.3387 -0.4483
 1024MOL0     C41202  11.821   3.140   0.701  0.5201 -0.1612 -0.1572
 1024MOL0     C41203  11.809   3.359   0.826 -0.0425  0.2061  0.3464
 1024MOL0     C41204  11.863   3.433   0.701  0.5665 -0.2861 -0.1275
 1024MOL0     O41205  11.816   3.563   0.688 -0.4403  0.4499 -0.1610
 1024MOL0     C41206  11.863   3.633   0.579 -0.2764  0.1458 -0.5420
 1024MOL0     C41207  11.769   3.695   0.500  0.8466  0.1310 -0.2717
 1024MOL0     C41208  11.811   3.759   0.385  0.0159  0.6619  0.2634
 1024MOL0     C41209  11.946   3.768   0.344 -0.0930  0.7872 -0.4232
 1024MOL0     O41210  11.975   3.820   0.217  0.6002 -0.7052  0.1383
 1024MOL0     C41211  12.115   3.819   0.169 -0.2129  1.2042 -0.3285
 1024MOL0     C41212  12.122   3.886   0.033 -0.6994 -0.4397  1.1079
 1024MOL0     C41213  12.268   3.923  -0.015  0.5040 -0.8247 -0.6889
 1024MOL0     C41214  12.276   3.999  -0.149  0.7001 -0.0637 -0.1850
 1024MOL0     C41215  12.389   4.096  -0.157  0.9072  0.9935  0.3334
 1024MOL0     C41216  12.379   4.229  -0.090  0.2504  0.0781  0.0493
 1024MOL0     C41217  12.505   4.309  -0.129  0.5856  0.3727  0.2656
 1024MOL0     C41218  12.480   4.387  -0.259  0.2946 -0.0785  0.0085
 1024MOL0    Cl41219  12.636   4.481  -0.280 -0.1708 -0.3772  0.1386
 1024MOL0     C41220  12.043   3.711   0.435  0.7342  0.1926 -0.2758
 1024MOL0     C41221  11.995   3.648   0.548  0.5727  0.8907  0.2752
 1024MOL0     O41222  11.957   3.382   0.640  0.4460 -0.0360 -0.2706
 1024MOL0     C41223  11.765   3.435   0.934  0.3894  0.5579  0.4239
 1024MOL0     C41224  11.701   3.367   1.047 -0.3000  0.1276 -0.3467
 1024MOL0     N41225  11.770   2.681   1.576  0.4839  0.3930 -0.4121
 1024MOL0     N41226  11.860   2.698   1.665  0.2396 -0.1588  0.1237
 1024MOL0     C41227  11.846   2.585   1.249 -0.4020  0.1040  0.0548
 1024MOL0     C41228  11.718   2.531   1.262 -0.3599  1.7033  0.0201
 1024MOL0     C41229  11.263   2.465   1.163  0.0180  0.2186 -0.3786
 1024MOL0     C41230  11.281   2.330   1.144  1.0611  0.4478  0.0682
 1024MOL0     C41231  11.176   2.244   1.144  0.2479  0.8067 -0.1944
 1024MOL0     C41232  11.046   2.287   1.158 -0.0490 -0.5496  0.0331
 1024MOL0     O41233  10.941   2.198   1.153  0.1964  0.1817  0.2585
 1024MOL0     C41234  10.903   2.134   1.023 -0.7159 -0.1946 -0.4647
 1024MOL0     C41235  10.844   2.238   0.923 -0.8949  0.6237 -0.2109
 1024MOL0     C41236  10.724   2.334   0.968 -0.6503 -0.5298  0.2712
 1024MOL0     C41237  10.603   2.248   0.964  0.3703  0.0719  0.6142
 1024MOL0     C41238  10.478   2.326   0.951 -0.4764 -0.3344 -0.6685
 1024MOL0     C41239  10.397   2.414   0.960  0.4852  0.8493 -0.3745
 1024MOL0     C41240  11.018   2.426   1.166  0.8722 -0.6745  0.1072
 1024MOL0     C41241  11.125   2.517   1.176  0.4586  0.2044  0.0344
 1024MOL0     C41242  11.092   2.666   1.197  0.6457 -0.1268 -0.2261
 1024MOL0     H41243  11.564   2.680   0.998  0.3695  0.4118 -0.4403
 1024MOL0     H41244  11.791   2.777   0.977 -2.8487  1.5504  0.0973
 1024MOL0     H41245  12.127   2.736   1.321  1.9116  0.2111 -3.6603
 1024MOL0     H41246  11.963   2.779   1.359  0.5009 -0.9624  0.4024
 1024MOL0     H41247  12.188   2.936   1.215  0.2419 -2.1079  0.4692
 1024MOL0     H41248  12.012   2.984   1.197  0.3527 -0.9684 -0.2870
 1024MOL0     H41249  12.151   3.110   1.369  2.1606 -1.8845 -0.9123
 1024MOL0     H41250  11.989   3.069   1.416  0.3973  0.1147 -1.2738
 1024MOL0     H41251  12.057   2.883   1.543  1.6180 -1.9230  0.1237
 1024MOL0     H41252  12.223   2.894   1.490  1.0849  2.6973 -2.0054
 1024MOL0     H41253  12.173   3.154   1.606  0.3439  0.0946 -2.1561
 1024MOL0     H41254  12.244   3.023   1.694 -0.9234  2.0760  0.8534
 1024MOL0     H41255  12.043   3.125   1.804  0.9028  0.8825 -1.9081
 1024MOL0     H41256  11.957   3.052   1.676  1.3897  3.0298 -1.4187
 1024MOL0     H41257  12.101   2.932   1.907  0.8412  4.1444 -2.1859
 1024MOL0     H41258  12.107   2.833   1.770  0.6269 -0.2565 -0.6172
 1024MOL0     H41259  11.936   2.743   1.901 -2.2910  0.3573  2.2344
 1024MOL0     H41260  11.844   2.888   1.925 -0.5956  1.8256 -1.1737
 1024MOL0     H41261  11.739   2.996   1.681  0.5586 -0.0449 -0.2850
 1024MOL0     H41262  11.516   2.904   1.512  1.3842  1.2499  1.3458
 1024MOL0     H41263  11.529   2.742   1.445 -0.1647  0.3089  0.7622
 1024MOL0     H41264  11.736   2.835   1.323  0.0414 -0.2488 -0.8427
 1024MOL0     H41265  11.584   2.882   1.267  0.1949 -1.1050  0.8721
 1024MOL0     H41266  11.619   3.108   1.404 -1.8960 -1.8232  0.9527
 1024MOL0     H41267  11.781   3.058   1.439 -0.9130  3.5041 -0.4327
 1024MOL0     H41268  11.821   3.190   1.281 -0.9826  1.0957 -0.5800
 1024MOL0     H41269  11.800   3.034   1.179  0.4373  0.2192 -1.9676
 1024MOL0     H41270  11.721   3.050   0.937  0.0543  0.9810 -0.4022
 1024MOL0     H41271  11.779   3.191   0.614 -0.2416 -0.2747  0.1354
 1024MOL0     H41272  11.791   3.035   0.705  0.7678 -0.1912  1.9931
 1024MOL0     H41273  11.930   3.146   0.691  0.2260  1.9341 -3.6449
 1024MOL0     H41274  11.666   3.676   0.530  1.0916 -0.3180  0.2998
 1024MOL0     H41275  11.734   3.799   0.320  0.9809  1.1012 -0.6294
 1024MOL0     H41276  12.180   3.874   0.238 -0.1939  1.8680 -0.8713
 1024MOL0     H41277  12.151   3.716   0.177 -0.8625  1.0754  1.6798
 1024MOL0     H41278  12.067   3.815  -0.030 -1.8712  0.5368  1.0009
 1024MOL0     H41279  12.069   3.981   0.039  0.0330  0.4941 -3.3242
 1024MOL0     H41280  12.324   3.828  -0.020 -4.2220 -4.0238  0.3616
 1024MOL0     H41281  12.308   3.991   0.060  0.1396 -1.2706 -0.0774
 1024MOL0     H41282  12.180   4.049  -0.163 -0.5446 -1.6692  2.0392
 1024MOL0     H41283  12.300   3.932  -0.232  0.2773  0.8836 -1.0958
 1024MOL0     H41284  12.476   4.034  -0.133  0.5579  0.8384  1.2506
 1024MOL0     H41285  12.395   4.129  -0.261  1.1497 -2.6491 -0.9692
 1024MOL0     H41286  12.379   4.212   0.019 -1.1465 -2.3043 -0.2480
 1024MOL0     H41287  12.287   4.280  -0.119 -0.2813 -0.5307  0.6269
 1024MOL0     H41288  12.597   4.249  -0.133  1.2511  1.3933  0.0310
 1024MOL0     H41289  12.514   4.386  -0.052 -0.2788 -1.4235  2.2751
 1024MOL0     H41290  12.394   4.450  -0.235 -1.8161 -1.2614 -3.6709
 1024MOL0     H41291  12.455   4.337  -0.352  0.9251  1.0117 -0.7687
 1024MOL0     H41292  12.150   3.716   0.420  1.0180  0.3483  1.5760
 1024MOL0     H41293  12.067   3.613   0.622  0.4815  1.4921  0.6595
 1024MOL0     H41294  11.774   3.543   0.936  0.4205  0.6994 -2.7776
 1024MOL0     H41295  11.665   3.424   1.132 -4.4939 -3.0826  0.3417
 1024MOL0     H41296  11.926   2.546   1.312 -2.8764 -2.8758  1.6536
 1024MOL0     H41297  11.706   2.478   1.356  0.2431  1.3682 -0.0814
 1024MOL0     H41298  11.380   2.290   1.125  1.6124  1.9821 -0.4599
 1024MOL0     H41299  11.200   2.142   1.115 -0.5060 -0.2020  2.3977
 1024MOL0     H41300  10.993   2.088   0.982  0.3707 -0.3101  1.9189
 1024MOL0     H41301  10.828   2.059   1.048  0.8376 -1.4498  0.6436
 1024MOL0     H41302  10.816   2.186   0.831  0.3816  2.7178 -1.8995
 1024MOL0     H41303  10.925   2.304   0.890  0.0603 -0.8485 -0.9297
 1024MOL0     H41304  10.718   2.375   1.069  0.1230 -0.2817  0.2220
 1024MOL0     H41305  10.723   2.422   0.903  2.6772 -0.4257  0.1753
 1024MOL0     H41306  10.604   2.182   1.052  0.9444 -0.6088  0.1078
 1024MOL0     H41307  10.600   2.182   0.877 -2.9266 -0.7991  1.2653
 1024MOL0     H41308  10.320   2.488   0.957  0.8764  1.4770  2.3596
 1024MOL0     H41309  10.915   2.458   1.174  0.8176 -0.0796 -2.1947
 1024MOL0     H41310  11.125   2.727   1.112 -0.0972 -0.9932 -1.1451
 1024MOL0     H41311  10.984   2.682   1.206  0.9615  1.5046  1.7522
 1024MOL0     H41312  11.155   2.710   1.276 -0.4023  1.6721 -0.3341
  11.40332  11.40332  11.40332
